/*--------------------------------*- C++ -*----------------------------------*\
| =========                 |                                                 |
| \\      /  F ield         | OpenFOAM: The Open Source CFD Toolbox           |
|  \\    /   O peration     | Version:  2312                                  |
|   \\  /    A nd           | Website:  www.openfoam.com                      |
|    \\/     M anipulation  |                                                 |
\*---------------------------------------------------------------------------*/
FoamFile
{
    version     2.0;
    format      ascii;
    arch        "LSB;label=32;scalar=64";
    class       volScalarField;
    location    "3";
    object      p;
}
// * * * * * * * * * * * * * * * * * * * * * * * * * * * * * * * * * * * * * //

dimensions      [0 2 -2 0 0 0 0];

internalField   nonuniform List<scalar> 
4000
(
14.378548
13.88724
13.775658
13.323612
13.191512
12.757593
12.606263
12.189713
12.021792
11.62065
11.438245
11.050645
10.855553
10.479828
10.273619
9.9082985
9.6923526
9.3361432
9.1116753
8.7634362
8.5315168
8.1902428
7.9518161
7.6166199
7.3725199
7.0426172
6.7935816
6.4682781
6.2149608
5.8936399
5.6366224
5.3187352
5.0585359
4.7435918
4.4806753
4.1682339
3.9030186
3.5926819
3.3255472
3.016953
2.7482457
2.4410613
2.1711013
1.8650181
1.5941039
1.2888318
1.0172459
0.71250861
0.44052187
0.13604892
14.377409
13.886799
13.775656
13.32362
13.191505
12.7576
12.606257
12.18972
12.021786
11.620656
11.43824
11.05065
10.855548
10.479832
10.273615
9.9083022
9.6923492
9.3361464
9.1116723
8.7634391
8.5315141
8.1902453
7.9518137
7.6166221
7.3725178
7.0426192
6.7935798
6.4682798
6.2149592
5.8936415
5.6366209
5.3187366
5.0585345
4.7435931
4.4806741
4.168235
3.9030175
3.5926829
3.3255462
3.0169539
2.7482447
2.4410622
2.1711004
1.8650189
1.5941031
1.2888326
1.0172451
0.71250942
0.44052104
0.13604997
14.374792
13.886401
13.775672
13.32362
13.191504
12.7576
12.606257
12.18972
12.021786
11.620656
11.43824
11.05065
10.855548
10.479832
10.273615
9.9083023
9.6923491
9.3361465
9.1116722
8.7634392
8.5315141
8.1902454
7.9518137
7.6166222
7.3725177
7.0426193
6.7935797
6.4682799
6.2149591
5.8936415
5.6366209
5.3187366
5.0585345
4.7435931
4.480674
4.1682351
3.9030174
3.5926829
3.3255462
3.016954
2.7482447
2.4410622
2.1711004
1.8650189
1.5941031
1.2888326
1.0172451
0.71250945
0.44052098
0.13605026
14.371802
13.886043
13.775692
13.323617
13.191507
12.757597
12.606259
12.189717
12.021788
11.620654
11.438242
11.050648
10.85555
10.47983
10.273616
9.908301
9.6923503
9.3361454
9.1116733
8.7634381
8.531515
8.1902445
7.9518145
7.6166213
7.3725185
7.0426185
6.7935804
6.4682792
6.2149597
5.8936409
5.6366214
5.3187361
5.058535
4.7435926
4.4806745
4.1682346
3.9030179
3.5926826
3.3255465
3.0169536
2.748245
2.4410619
2.1711007
1.8650186
1.5941034
1.2888323
1.0172454
0.71250916
0.44052124
0.13605021
14.36895
13.885712
13.77571
13.323616
13.19151
12.757594
12.606261
12.189715
12.02179
11.620652
11.438244
11.050646
10.855551
10.479829
10.273617
9.9082996
9.6923516
9.3361442
9.1116744
8.7634371
8.531516
8.1902435
7.9518154
7.6166205
7.3725193
7.0426178
6.7935811
6.4682786
6.2149604
5.8936404
5.636622
5.3187356
5.0585355
4.7435922
4.4806749
4.1682342
3.9030183
3.5926822
3.3255469
3.0169532
2.7482454
2.4410616
2.171101
1.8650183
1.5941037
1.288832
1.0172457
0.71250886
0.44052153
0.13605011
14.366273
13.885397
13.775723
13.323615
13.191512
12.757592
12.606263
12.189713
12.021792
11.62065
11.438245
11.050645
10.855553
10.479828
10.273619
9.9082985
9.6923526
9.3361432
9.1116753
8.7634362
8.5315168
8.1902428
7.9518161
7.6166198
7.3725199
7.0426172
6.7935816
6.468278
6.2149609
5.8936399
5.6366224
5.3187351
5.0585359
4.7435918
4.4806753
4.1682338
3.9030186
3.5926818
3.3255472
3.0169529
2.7482457
2.4410613
2.1711013
1.865018
1.5941039
1.2888318
1.0172459
0.71250861
0.44052176
0.13605004
14.363715
13.885096
13.775734
13.323615
13.191515
12.75759
12.606265
12.189712
12.021793
11.620649
11.438247
11.050644
10.855554
10.479827
10.27362
9.9082976
9.6923535
9.3361424
9.1116761
8.7634355
8.5315175
8.1902421
7.9518167
7.6166193
7.3725204
7.0426167
6.7935821
6.4682776
6.2149613
5.8936395
5.6366228
5.3187348
5.0585362
4.7435915
4.4806756
4.1682335
3.9030189
3.5926816
3.3255475
3.0169527
2.7482459
2.441061
2.1711015
1.8650178
1.5941042
1.2888316
1.0172461
0.71250839
0.44052197
0.13604997
14.361258
13.88481
13.775742
13.323614
13.191517
12.757588
12.606266
12.18971
12.021795
11.620648
11.438248
11.050643
10.855555
10.479826
10.27362
9.9082967
9.6923543
9.3361416
9.1116768
8.7634348
8.5315181
8.1902415
7.9518173
7.6166188
7.3725209
7.0426162
6.7935826
6.4682772
6.2149617
5.8936391
5.6366231
5.3187344
5.0585365
4.7435912
4.4806759
4.1682333
3.9030191
3.5926813
3.3255477
3.0169525
2.7482462
2.4410608
2.1711018
1.8650176
1.5941044
1.2888314
1.0172463
0.71250819
0.44052217
0.13604991
14.358903
13.88454
13.775749
13.323612
13.191519
12.757586
12.606268
12.189709
12.021796
11.620647
11.438249
11.050642
10.855556
10.479825
10.273621
9.9082959
9.692355
9.3361409
9.1116775
8.7634342
8.5315187
8.190241
7.9518178
7.6166183
7.3725214
7.0426158
6.793583
6.4682768
6.214962
5.8936388
5.6366235
5.3187341
5.0585368
4.7435909
4.4806762
4.168233
3.9030194
3.5926811
3.3255479
3.0169522
2.7482464
2.4410606
2.171102
1.8650174
1.5941046
1.2888312
1.0172465
0.71250801
0.44052235
0.13604984
14.35665
13.884284
13.775754
13.32361
13.191521
12.757585
12.606269
12.189708
12.021797
11.620646
11.43825
11.050641
10.855557
10.479824
10.273622
9.9082952
9.6923557
9.3361403
9.1116781
8.7634336
8.5315193
8.1902405
7.9518183
7.6166178
7.3725218
7.0426154
6.7935833
6.4682764
6.2149624
5.8936385
5.6366238
5.3187339
5.0585371
4.7435906
4.4806764
4.1682328
3.9030196
3.5926809
3.3255481
3.016952
2.7482466
2.4410604
2.1711021
1.8650172
1.5941047
1.288831
1.0172467
0.71250783
0.44052253
0.13604977
14.354499
13.884043
13.775757
13.323609
13.191522
12.757584
12.60627
12.189707
12.021798
11.620645
11.438251
11.05064
10.855558
10.479823
10.273623
9.9082945
9.6923563
9.3361397
9.1116786
8.7634331
8.5315197
8.19024
7.9518187
7.6166174
7.3725222
7.042615
6.7935837
6.4682761
6.2149627
5.8936382
5.636624
5.3187336
5.0585373
4.7435904
4.4806766
4.1682326
3.9030198
3.5926807
3.3255483
3.0169519
2.7482467
2.4410603
2.1711023
1.8650171
1.5941049
1.2888309
1.0172468
0.71250767
0.4405227
0.1360497
14.352447
13.883813
13.77576
13.323609
13.191522
12.757583
12.606271
12.189706
12.021799
11.620644
11.438252
11.050639
10.855558
10.479822
10.273623
9.9082939
9.6923569
9.3361391
9.1116791
8.7634326
8.5315202
8.1902396
7.9518191
7.616617
7.3725225
7.0426147
6.793584
6.4682758
6.214963
5.8936379
5.6366243
5.3187334
5.0585376
4.7435902
4.4806768
4.1682324
3.90302
3.5926805
3.3255485
3.0169517
2.7482469
2.4410601
2.1711025
1.8650169
1.594105
1.2888307
1.017247
0.71250753
0.44052285
0.13604963
14.350494
13.883593
13.775762
13.323609
13.191522
12.757582
12.606272
12.189705
12.0218
11.620643
11.438252
11.050638
10.855559
10.479822
10.273624
9.9082933
9.6923575
9.3361386
9.1116796
8.7634322
8.5315206
8.1902392
7.9518195
7.6166167
7.3725228
7.0426144
6.7935843
6.4682756
6.2149632
5.8936377
5.6366245
5.3187331
5.0585378
4.74359
4.480677
4.1682322
3.9030202
3.5926803
3.3255487
3.0169515
2.748247
2.44106
2.1711026
1.8650168
1.5941052
1.2888306
1.0172471
0.71250739
0.440523
0.13604956
14.348639
13.883384
13.775766
13.323609
13.191522
12.757581
12.606273
12.189704
12.021801
11.620642
11.438253
11.050638
10.85556
10.479821
10.273625
9.9082928
9.692358
9.3361382
9.11168
8.7634318
8.531521
8.1902389
7.9518198
7.6166164
7.3725231
7.0426141
6.7935845
6.4682753
6.2149635
5.8936374
5.6366247
5.3187329
5.058538
4.7435898
4.4806772
4.168232
3.9030203
3.5926802
3.3255488
3.0169514
2.7482472
2.4410598
2.1711027
1.8650167
1.5941053
1.2888304
1.0172472
0.71250726
0.44052314
0.13604949
14.34688
13.883198
13.775765
13.323608
13.19152
12.75758
12.606274
12.189703
12.021802
11.620641
11.438254
11.050637
10.85556
10.479821
10.273625
9.9082923
9.6923584
9.3361378
9.1116804
8.7634314
8.5315213
8.1902385
7.9518201
7.6166161
7.3725234
7.0426139
6.7935848
6.4682751
6.2149637
5.8936372
5.6366249
5.3187328
5.0585382
4.7435896
4.4806774
4.1682319
3.9030205
3.59268
3.325549
3.0169513
2.7482473
2.4410597
2.1711028
1.8650165
1.5941054
1.2888303
1.0172474
0.71250714
0.44052327
0.13604942
14.345213
13.883068
13.775732
13.3236
13.191518
12.757579
12.606275
12.189702
12.021802
11.620641
11.438254
11.050636
10.855561
10.47982
10.273626
9.9082919
9.6923588
9.3361374
9.1116808
8.7634311
8.5315217
8.1902382
7.9518204
7.6166158
7.3725237
7.0426136
6.793585
6.4682748
6.2149639
5.893637
5.6366251
5.3187326
5.0585383
4.7435895
4.4806775
4.1682317
3.9030206
3.5926799
3.3255491
3.0169511
2.7482474
2.4410596
2.171103
1.8650164
1.5941055
1.2888302
1.0172475
0.71250703
0.44052339
0.13604935
14.343635
13.883013
13.775642
13.323584
13.191513
12.757577
12.606275
12.189702
12.021803
11.62064
11.438255
11.050636
10.855561
10.47982
10.273626
9.9082915
9.6923592
9.336137
9.1116812
8.7634307
8.531522
8.1902379
7.9518207
7.6166155
7.3725239
7.0426134
6.7935852
6.4682746
6.2149641
5.8936368
5.6366253
5.3187324
5.0585385
4.7435893
4.4806777
4.1682316
3.9030207
3.5926798
3.3255492
3.016951
2.7482475
2.4410595
2.1711031
1.8650163
1.5941056
1.2888301
1.0172476
0.71250693
0.44052351
0.13604929
14.342151
13.882965
13.775539
13.323569
13.191509
12.757576
12.606276
12.189701
12.021804
11.62064
11.438255
11.050635
10.855562
10.479819
10.273626
9.9082911
9.6923596
9.3361366
9.1116815
8.7634304
8.5315223
8.1902376
7.9518209
7.6166153
7.3725242
7.0426132
6.7935854
6.4682745
6.2149643
5.8936367
5.6366254
5.3187323
5.0585386
4.7435892
4.4806778
4.1682315
3.9030209
3.5926797
3.3255493
3.0169509
2.7482476
2.4410594
2.1711032
1.8650162
1.5941057
1.28883
1.0172477
0.71250683
0.44052362
0.13604922
14.340762
13.882834
13.775498
13.323567
13.191508
12.757576
12.606277
12.189701
12.021804
11.620639
11.438256
11.050635
10.855562
10.479819
10.273627
9.9082907
9.6923599
9.3361363
9.1116818
8.7634301
8.5315225
8.1902374
7.9518212
7.6166151
7.3725244
7.042613
6.7935856
6.4682743
6.2149644
5.8936365
5.6366256
5.3187321
5.0585388
4.743589
4.4806779
4.1682314
3.903021
3.5926795
3.3255494
3.0169508
2.7482477
2.4410593
2.1711033
1.8650161
1.5941058
1.2888299
1.0172477
0.71250674
0.44052373
0.13604916
14.339466
13.882637
13.775516
13.323573
13.191508
12.757575
12.606278
12.1897
12.021805
11.620639
11.438256
11.050634
10.855563
10.479818
10.273627
9.9082904
9.6923603
9.336136
9.1116821
8.7634299
8.5315228
8.1902372
7.9518214
7.6166149
7.3725246
7.0426128
6.7935858
6.4682741
6.2149646
5.8936364
5.6366257
5.318732
5.0585389
4.7435889
4.480678
4.1682313
3.9030211
3.5926794
3.3255495
3.0169507
2.7482478
2.4410592
2.1711033
1.8650161
1.5941059
1.2888299
1.0172478
0.71250666
0.44052382
0.13604909
14.338263
13.882441
13.775545
13.323576
13.191508
12.757575
12.606279
12.1897
12.021805
11.620638
11.438257
11.050634
10.855563
10.479818
10.273628
9.90829
9.6923606
9.3361357
9.1116823
8.7634296
8.531523
8.1902369
7.9518216
7.6166147
7.3725247
7.0426126
6.793586
6.468274
6.2149647
5.8936362
5.6366259
5.3187319
5.058539
4.7435888
4.4806781
4.1682311
3.9030212
3.5926794
3.3255496
3.0169506
2.7482479
2.4410591
2.1711034
1.865016
1.594106
1.2888298
1.0172479
0.71250659
0.44052392
0.13604903
14.337148
13.882275
13.775566
13.323573
13.191508
12.757575
12.606279
12.189699
12.021806
11.620638
11.438257
11.050634
10.855563
10.479818
10.273628
9.9082897
9.6923608
9.3361355
9.1116826
8.7634294
8.5315232
8.1902367
7.9518218
7.6166145
7.3725249
7.0426124
6.7935861
6.4682738
6.2149649
5.8936361
5.636626
5.3187317
5.0585391
4.7435887
4.4806782
4.1682311
3.9030213
3.5926793
3.3255497
3.0169506
2.748248
2.441059
2.1711035
1.8650159
1.594106
1.2888297
1.017248
0.71250651
0.440524
0.13604898
14.336114
13.882135
13.775579
13.323566
13.191507
12.757575
12.60628
12.189699
12.021806
11.620637
11.438258
11.050633
10.855564
10.479817
10.273628
9.9082895
9.6923611
9.3361352
9.1116828
8.7634292
8.5315234
8.1902365
7.951822
7.6166143
7.3725251
7.0426123
6.7935862
6.4682737
6.214965
5.893636
5.6366261
5.3187316
5.0585392
4.7435886
4.4806783
4.168231
3.9030214
3.5926792
3.3255498
3.0169505
2.7482481
2.441059
2.1711036
1.8650158
1.5941061
1.2888296
1.017248
0.71250645
0.44052408
0.13604892
14.335159
13.882015
13.775586
13.323557
13.191507
12.757575
12.606281
12.189699
12.021807
11.620637
11.438258
11.050633
10.855564
10.479817
10.273628
9.9082892
9.6923613
9.336135
9.111683
8.763429
8.5315236
8.1902364
7.9518221
7.6166142
7.3725252
7.0426122
6.7935864
6.4682736
6.2149651
5.8936359
5.6366262
5.3187315
5.0585393
4.7435885
4.4806784
4.1682309
3.9030214
3.5926791
3.3255498
3.0169504
2.7482481
2.4410589
2.1711036
1.8650158
1.5941062
1.2888296
1.0172481
0.71250639
0.44052416
0.13604887
14.334278
13.88191
13.775585
13.323549
13.191508
12.757575
12.606281
12.189699
12.021807
11.620637
11.438258
11.050633
10.855564
10.479817
10.273629
9.908289
9.6923615
9.3361348
9.1116832
8.7634288
8.5315238
8.1902362
7.9518223
7.616614
7.3725254
7.042612
6.7935865
6.4682735
6.2149652
5.8936358
5.6366263
5.3187315
5.0585394
4.7435884
4.4806785
4.1682308
3.9030215
3.592679
3.3255499
3.0169504
2.7482482
2.4410588
2.1711037
1.8650157
1.5941062
1.2888295
1.0172481
0.71250633
0.44052422
0.13604882
14.333471
13.881816
13.775578
13.323547
13.191509
12.757576
12.606282
12.189698
12.021808
11.620636
11.438259
11.050632
10.855565
10.479817
10.273629
9.9082888
9.6923618
9.3361346
9.1116834
8.7634286
8.531524
8.1902361
7.9518224
7.6166139
7.3725255
7.0426119
6.7935866
6.4682733
6.2149653
5.8936357
5.6366264
5.3187314
5.0585395
4.7435884
4.4806786
4.1682307
3.9030216
3.592679
3.32555
3.0169503
2.7482482
2.4410588
2.1711037
1.8650157
1.5941063
1.2888295
1.0172482
0.71250628
0.44052429
0.13604877
14.332733
13.881733
13.775563
13.323549
13.191511
12.757576
12.606283
12.189698
12.021808
11.620636
11.438259
11.050632
10.855565
10.479816
10.273629
9.9082886
9.6923619
9.3361344
9.1116835
8.7634285
8.5315241
8.1902359
7.9518225
7.6166138
7.3725256
7.0426118
6.7935867
6.4682733
6.2149654
5.8936356
5.6366265
5.3187313
5.0585395
4.7435883
4.4806786
4.1682307
3.9030216
3.5926789
3.32555
3.0169502
2.7482483
2.4410587
2.1711038
1.8650156
1.5941063
1.2888294
1.0172482
0.71250624
0.44052434
0.13604873
14.332064
13.881658
13.775543
13.323554
13.191512
12.757577
12.606284
12.189698
12.021808
11.620636
11.438259
11.050632
10.855565
10.479816
10.273629
9.9082884
9.6923621
9.3361343
9.1116837
8.7634283
8.5315242
8.1902358
7.9518227
7.6166137
7.3725257
7.0426117
6.7935868
6.4682732
6.2149655
5.8936355
5.6366265
5.3187312
5.0585396
4.7435882
4.4806787
4.1682306
3.9030217
3.5926789
3.3255501
3.0169502
2.7482483
2.4410587
2.1711038
1.8650156
1.5941064
1.2888294
1.0172483
0.71250619
0.4405244
0.13604869
14.331461
13.881591
13.775521
13.323563
13.191514
12.757577
12.606284
12.189698
12.021809
11.620636
11.43826
11.050632
10.855565
10.479816
10.27363
9.9082882
9.6923623
9.3361341
9.1116838
8.7634282
8.5315244
8.1902357
7.9518228
7.6166136
7.3725258
7.0426116
6.7935869
6.4682731
6.2149656
5.8936355
5.6366266
5.3187312
5.0585397
4.7435882
4.4806787
4.1682306
3.9030217
3.5926788
3.3255501
3.0169501
2.7482484
2.4410587
2.1711039
1.8650155
1.5941064
1.2888294
1.0172483
0.71250616
0.44052444
0.13604865
14.330923
13.88153
13.775498
13.323573
13.191514
12.757577
12.606285
12.189698
12.021809
11.620635
11.43826
11.050632
10.855565
10.479816
10.27363
9.9082881
9.6923624
9.336134
9.111684
8.7634281
8.5315245
8.1902356
7.9518229
7.6166135
7.3725259
7.0426115
6.793587
6.468273
6.2149656
5.8936354
5.6366267
5.3187311
5.0585397
4.7435881
4.4806788
4.1682305
3.9030218
3.5926788
3.3255502
3.0169501
2.7482484
2.4410586
2.1711039
1.8650155
1.5941064
1.2888293
1.0172484
0.71250613
0.44052448
0.13604862
14.330447
13.881471
13.775474
13.323585
13.191514
12.757577
12.606285
12.189697
12.021809
11.620635
11.43826
11.050631
10.855566
10.479816
10.27363
9.9082879
9.6923625
9.3361339
9.1116841
8.763428
8.5315246
8.1902355
7.951823
7.6166134
7.372526
7.0426115
6.793587
6.4682729
6.2149657
5.8936353
5.6366267
5.318731
5.0585398
4.7435881
4.4806788
4.1682305
3.9030218
3.5926787
3.3255502
3.0169501
2.7482485
2.4410586
2.1711039
1.8650155
1.5941065
1.2888293
1.0172484
0.7125061
0.44052452
0.13604859
14.330033
13.881415
13.77545
13.323599
13.191513
12.757577
12.606285
12.189697
12.021809
11.620635
11.43826
11.050631
10.855566
10.479815
10.27363
9.9082878
9.6923626
9.3361338
9.1116842
8.7634279
8.5315247
8.1902354
7.951823
7.6166133
7.372526
7.0426114
6.7935871
6.4682729
6.2149657
5.8936353
5.6366268
5.318731
5.0585398
4.743588
4.4806789
4.1682304
3.9030219
3.5926787
3.3255502
3.01695
2.7482485
2.4410585
2.171104
1.8650154
1.5941065
1.2888293
1.0172484
0.71250607
0.44052454
0.13604856
14.32968
13.881357
13.775427
13.323611
13.191512
12.757576
12.606285
12.189697
12.02181
11.620635
11.43826
11.050631
10.855566
10.479815
10.27363
9.9082877
9.6923628
9.3361337
9.1116843
8.7634278
8.5315247
8.1902353
7.9518231
7.6166133
7.3725261
7.0426113
6.7935872
6.4682728
6.2149658
5.8936352
5.6366268
5.318731
5.0585399
4.743588
4.4806789
4.1682304
3.9030219
3.5926787
3.3255503
3.01695
2.7482485
2.4410585
2.171104
1.8650154
1.5941065
1.2888292
1.0172484
0.71250605
0.44052456
0.13604854
14.329387
13.881297
13.775406
13.323617
13.191513
12.757577
12.606285
12.189697
12.02181
11.620635
11.43826
11.050631
10.855566
10.479815
10.27363
9.9082876
9.6923628
9.3361336
9.1116843
8.7634277
8.5315248
8.1902353
7.9518232
7.6166132
7.3725261
7.0426113
6.7935872
6.4682728
6.2149658
5.8936352
5.6366269
5.3187309
5.0585399
4.743588
4.4806789
4.1682304
3.9030219
3.5926786
3.3255503
3.01695
2.7482485
2.4410585
2.171104
1.8650154
1.5941065
1.2888292
1.0172484
0.71250604
0.44052458
0.13604852
14.329156
13.881231
13.775389
13.323612
13.191519
12.757579
12.606286
12.189697
12.02181
11.620635
11.43826
11.050631
10.855566
10.479815
10.27363
9.9082875
9.6923629
9.3361335
9.1116844
8.7634277
8.5315249
8.1902352
7.9518232
7.6166132
7.3725262
7.0426113
6.7935872
6.4682728
6.2149659
5.8936352
5.6366269
5.3187309
5.0585399
4.7435879
4.480679
4.1682304
3.9030219
3.5926786
3.3255503
3.01695
2.7482486
2.4410585
2.171104
1.8650154
1.5941066
1.2888292
1.0172485
0.71250603
0.44052458
0.13604851
14.328986
13.881159
13.775375
13.323599
13.191527
12.757582
12.606287
12.189697
12.02181
11.620635
11.438261
11.050631
10.855566
10.479815
10.27363
9.9082875
9.692363
9.3361335
9.1116845
8.7634276
8.5315249
8.1902352
7.9518233
7.6166131
7.3725262
7.0426112
6.7935873
6.4682727
6.2149659
5.8936351
5.6366269
5.3187309
5.0585399
4.7435879
4.480679
4.1682303
3.903022
3.5926786
3.3255503
3.01695
2.7482486
2.4410585
2.171104
1.8650154
1.5941066
1.2888292
1.0172485
0.71250603
0.44052458
0.1360485
14.328878
13.881083
13.77536
13.323587
13.191534
12.757585
12.606288
12.189697
12.02181
11.620635
11.438261
11.050631
10.855566
10.479815
10.27363
9.9082874
9.692363
9.3361334
9.1116845
8.7634276
8.5315249
8.1902351
7.9518233
7.6166131
7.3725263
7.0426112
6.7935873
6.4682727
6.2149659
5.8936351
5.6366269
5.3187308
5.05854
4.7435879
4.480679
4.1682303
3.903022
3.5926786
3.3255503
3.0169499
2.7482486
2.4410585
2.1711041
1.8650154
1.5941066
1.2888292
1.0172485
0.71250603
0.44052457
0.1360485
14.328826
13.881007
13.775345
13.323579
13.191538
12.757588
12.606289
12.189697
12.02181
11.620635
11.438261
11.050631
10.855566
10.479815
10.27363
9.9082874
9.6923631
9.3361334
9.1116845
8.7634276
8.531525
8.1902351
7.9518233
7.6166131
7.3725263
7.0426112
6.7935873
6.4682727
6.2149659
5.8936351
5.6366269
5.3187308
5.05854
4.7435879
4.480679
4.1682303
3.903022
3.5926786
3.3255503
3.0169499
2.7482486
2.4410585
2.1711041
1.8650154
1.5941066
1.2888292
1.0172485
0.71250604
0.44052456
0.1360485
14.328815
13.880943
13.775331
13.323575
13.191539
12.757589
12.606289
12.189697
12.02181
11.620634
11.438261
11.050631
10.855566
10.479815
10.27363
9.9082874
9.6923631
9.3361334
9.1116846
8.7634275
8.531525
8.1902351
7.9518233
7.6166131
7.3725263
7.0426112
6.7935873
6.4682727
6.2149659
5.8936351
5.636627
5.3187308
5.05854
4.7435879
4.480679
4.1682303
3.903022
3.5926786
3.3255503
3.0169499
2.7482486
2.4410585
2.1711041
1.8650154
1.5941066
1.2888292
1.0172485
0.71250605
0.44052455
0.1360485
14.328819
13.880905
13.775323
13.323574
13.191539
12.75759
12.606289
12.189697
12.02181
11.620634
11.438261
11.050631
10.855566
10.479815
10.27363
9.9082873
9.6923631
9.3361334
9.1116846
8.7634275
8.531525
8.1902351
7.9518233
7.616613
7.3725263
7.0426112
6.7935873
6.4682727
6.2149659
5.8936351
5.636627
5.3187308
5.05854
4.7435879
4.480679
4.1682303
3.903022
3.5926786
3.3255503
3.0169499
2.7482486
2.4410585
2.1711041
1.8650154
1.5941066
1.2888292
1.0172485
0.71250606
0.44052454
0.1360485
14.328819
13.880905
13.775323
13.323574
13.191539
12.75759
12.606289
12.189697
12.02181
11.620634
11.438261
11.050631
10.855566
10.479815
10.27363
9.9082873
9.6923631
9.3361334
9.1116846
8.7634275
8.531525
8.1902351
7.9518233
7.616613
7.3725263
7.0426112
6.7935873
6.4682727
6.2149659
5.8936351
5.636627
5.3187308
5.05854
4.7435879
4.480679
4.1682303
3.903022
3.5926786
3.3255503
3.0169499
2.7482486
2.4410585
2.1711041
1.8650154
1.5941066
1.2888292
1.0172485
0.71250606
0.44052454
0.1360485
14.328815
13.880943
13.775331
13.323575
13.191539
12.757589
12.606289
12.189697
12.02181
11.620634
11.438261
11.050631
10.855566
10.479815
10.27363
9.9082874
9.6923631
9.3361334
9.1116846
8.7634275
8.531525
8.1902351
7.9518233
7.6166131
7.3725263
7.0426112
6.7935873
6.4682727
6.2149659
5.8936351
5.636627
5.3187308
5.05854
4.7435879
4.480679
4.1682303
3.903022
3.5926786
3.3255503
3.0169499
2.7482486
2.4410585
2.1711041
1.8650154
1.5941066
1.2888292
1.0172485
0.71250605
0.44052455
0.1360485
14.328826
13.881007
13.775345
13.323579
13.191538
12.757588
12.606289
12.189697
12.02181
11.620635
11.438261
11.050631
10.855566
10.479815
10.27363
9.9082874
9.6923631
9.3361334
9.1116845
8.7634276
8.531525
8.1902351
7.9518233
7.6166131
7.3725263
7.0426112
6.7935873
6.4682727
6.2149659
5.8936351
5.6366269
5.3187308
5.05854
4.7435879
4.480679
4.1682303
3.903022
3.5926786
3.3255503
3.0169499
2.7482486
2.4410585
2.1711041
1.8650154
1.5941066
1.2888292
1.0172485
0.71250604
0.44052456
0.1360485
14.328878
13.881083
13.77536
13.323587
13.191534
12.757585
12.606288
12.189697
12.02181
11.620635
11.438261
11.050631
10.855566
10.479815
10.27363
9.9082874
9.692363
9.3361334
9.1116845
8.7634276
8.5315249
8.1902351
7.9518233
7.6166131
7.3725263
7.0426112
6.7935873
6.4682727
6.2149659
5.8936351
5.6366269
5.3187308
5.05854
4.7435879
4.480679
4.1682303
3.903022
3.5926786
3.3255503
3.0169499
2.7482486
2.4410585
2.1711041
1.8650154
1.5941066
1.2888292
1.0172485
0.71250603
0.44052457
0.1360485
14.328986
13.881159
13.775375
13.323599
13.191527
12.757582
12.606287
12.189697
12.02181
11.620635
11.438261
11.050631
10.855566
10.479815
10.27363
9.9082875
9.692363
9.3361335
9.1116845
8.7634276
8.5315249
8.1902352
7.9518233
7.6166131
7.3725262
7.0426112
6.7935873
6.4682727
6.2149659
5.8936351
5.6366269
5.3187309
5.0585399
4.7435879
4.480679
4.1682303
3.903022
3.5926786
3.3255503
3.01695
2.7482486
2.4410585
2.171104
1.8650154
1.5941066
1.2888292
1.0172485
0.71250603
0.44052458
0.1360485
14.329156
13.881231
13.775389
13.323612
13.191519
12.757579
12.606286
12.189697
12.02181
11.620635
11.43826
11.050631
10.855566
10.479815
10.27363
9.9082875
9.6923629
9.3361335
9.1116844
8.7634277
8.5315249
8.1902352
7.9518232
7.6166132
7.3725262
7.0426113
6.7935872
6.4682728
6.2149659
5.8936352
5.6366269
5.3187309
5.0585399
4.7435879
4.480679
4.1682304
3.9030219
3.5926786
3.3255503
3.01695
2.7482486
2.4410585
2.171104
1.8650154
1.5941066
1.2888292
1.0172485
0.71250603
0.44052458
0.13604851
14.329387
13.881297
13.775406
13.323617
13.191513
12.757577
12.606285
12.189697
12.02181
11.620635
11.43826
11.050631
10.855566
10.479815
10.27363
9.9082876
9.6923628
9.3361336
9.1116843
8.7634277
8.5315248
8.1902353
7.9518232
7.6166132
7.3725261
7.0426113
6.7935872
6.4682728
6.2149658
5.8936352
5.6366269
5.3187309
5.0585399
4.743588
4.4806789
4.1682304
3.9030219
3.5926786
3.3255503
3.01695
2.7482485
2.4410585
2.171104
1.8650154
1.5941065
1.2888292
1.0172484
0.71250604
0.44052458
0.13604852
14.32968
13.881357
13.775427
13.323611
13.191512
12.757576
12.606285
12.189697
12.02181
11.620635
11.43826
11.050631
10.855566
10.479815
10.27363
9.9082877
9.6923628
9.3361337
9.1116843
8.7634278
8.5315247
8.1902353
7.9518231
7.6166133
7.3725261
7.0426113
6.7935872
6.4682728
6.2149658
5.8936352
5.6366268
5.318731
5.0585399
4.743588
4.4806789
4.1682304
3.9030219
3.5926787
3.3255503
3.01695
2.7482485
2.4410585
2.171104
1.8650154
1.5941065
1.2888292
1.0172484
0.71250605
0.44052456
0.13604854
14.330033
13.881415
13.77545
13.323599
13.191513
12.757577
12.606285
12.189697
12.021809
11.620635
11.43826
11.050631
10.855566
10.479815
10.27363
9.9082878
9.6923626
9.3361338
9.1116842
8.7634279
8.5315247
8.1902354
7.951823
7.6166133
7.372526
7.0426114
6.7935871
6.4682729
6.2149657
5.8936353
5.6366268
5.318731
5.0585398
4.743588
4.4806789
4.1682304
3.9030219
3.5926787
3.3255502
3.01695
2.7482485
2.4410585
2.171104
1.8650154
1.5941065
1.2888293
1.0172484
0.71250607
0.44052454
0.13604856
14.330447
13.881471
13.775474
13.323585
13.191514
12.757577
12.606285
12.189697
12.021809
11.620635
11.43826
11.050631
10.855566
10.479816
10.27363
9.9082879
9.6923625
9.3361339
9.1116841
8.763428
8.5315246
8.1902355
7.951823
7.6166134
7.372526
7.0426115
6.793587
6.4682729
6.2149657
5.8936353
5.6366267
5.318731
5.0585398
4.7435881
4.4806788
4.1682305
3.9030218
3.5926787
3.3255502
3.0169501
2.7482485
2.4410586
2.1711039
1.8650155
1.5941065
1.2888293
1.0172484
0.7125061
0.44052452
0.13604859
14.330923
13.88153
13.775498
13.323573
13.191514
12.757577
12.606285
12.189698
12.021809
11.620635
11.43826
11.050632
10.855565
10.479816
10.27363
9.9082881
9.6923624
9.336134
9.111684
8.7634281
8.5315245
8.1902356
7.9518229
7.6166135
7.3725259
7.0426115
6.793587
6.468273
6.2149656
5.8936354
5.6366267
5.3187311
5.0585397
4.7435881
4.4806788
4.1682305
3.9030218
3.5926788
3.3255502
3.0169501
2.7482484
2.4410586
2.1711039
1.8650155
1.5941064
1.2888293
1.0172484
0.71250613
0.44052448
0.13604862
14.331461
13.881591
13.775521
13.323563
13.191514
12.757577
12.606284
12.189698
12.021809
11.620636
11.43826
11.050632
10.855565
10.479816
10.27363
9.9082882
9.6923623
9.3361341
9.1116838
8.7634282
8.5315244
8.1902357
7.9518228
7.6166136
7.3725258
7.0426116
6.7935869
6.4682731
6.2149656
5.8936355
5.6366266
5.3187312
5.0585397
4.7435882
4.4806787
4.1682306
3.9030217
3.5926788
3.3255501
3.0169501
2.7482484
2.4410587
2.1711039
1.8650155
1.5941064
1.2888294
1.0172483
0.71250616
0.44052444
0.13604865
14.332064
13.881658
13.775543
13.323554
13.191512
12.757577
12.606284
12.189698
12.021808
11.620636
11.438259
11.050632
10.855565
10.479816
10.273629
9.9082884
9.6923621
9.3361343
9.1116837
8.7634283
8.5315242
8.1902358
7.9518227
7.6166137
7.3725257
7.0426117
6.7935868
6.4682732
6.2149655
5.8936355
5.6366265
5.3187312
5.0585396
4.7435882
4.4806787
4.1682306
3.9030217
3.5926789
3.3255501
3.0169502
2.7482483
2.4410587
2.1711038
1.8650156
1.5941064
1.2888294
1.0172483
0.71250619
0.4405244
0.13604869
14.332733
13.881733
13.775563
13.323549
13.191511
12.757576
12.606283
12.189698
12.021808
11.620636
11.438259
11.050632
10.855565
10.479816
10.273629
9.9082886
9.6923619
9.3361344
9.1116835
8.7634285
8.5315241
8.1902359
7.9518225
7.6166138
7.3725256
7.0426118
6.7935867
6.4682733
6.2149654
5.8936356
5.6366265
5.3187313
5.0585395
4.7435883
4.4806786
4.1682307
3.9030216
3.5926789
3.32555
3.0169502
2.7482483
2.4410587
2.1711038
1.8650156
1.5941063
1.2888294
1.0172482
0.71250624
0.44052434
0.13604873
14.333471
13.881816
13.775578
13.323547
13.191509
12.757576
12.606282
12.189698
12.021808
11.620636
11.438259
11.050632
10.855565
10.479817
10.273629
9.9082888
9.6923618
9.3361346
9.1116834
8.7634286
8.531524
8.1902361
7.9518224
7.6166139
7.3725255
7.0426119
6.7935866
6.4682733
6.2149653
5.8936357
5.6366264
5.3187314
5.0585395
4.7435884
4.4806786
4.1682307
3.9030216
3.592679
3.32555
3.0169503
2.7482482
2.4410588
2.1711037
1.8650157
1.5941063
1.2888295
1.0172482
0.71250628
0.44052429
0.13604877
14.334278
13.88191
13.775585
13.323549
13.191508
12.757575
12.606281
12.189699
12.021807
11.620637
11.438258
11.050633
10.855564
10.479817
10.273629
9.908289
9.6923615
9.3361348
9.1116832
8.7634288
8.5315238
8.1902362
7.9518223
7.616614
7.3725254
7.042612
6.7935865
6.4682735
6.2149652
5.8936358
5.6366263
5.3187315
5.0585394
4.7435884
4.4806785
4.1682308
3.9030215
3.592679
3.3255499
3.0169504
2.7482482
2.4410588
2.1711037
1.8650157
1.5941062
1.2888295
1.0172481
0.71250633
0.44052422
0.13604882
14.335159
13.882015
13.775586
13.323557
13.191507
12.757575
12.606281
12.189699
12.021807
11.620637
11.438258
11.050633
10.855564
10.479817
10.273628
9.9082892
9.6923613
9.336135
9.111683
8.763429
8.5315236
8.1902364
7.9518221
7.6166142
7.3725252
7.0426122
6.7935864
6.4682736
6.2149651
5.8936359
5.6366262
5.3187315
5.0585393
4.7435885
4.4806784
4.1682309
3.9030214
3.5926791
3.3255498
3.0169504
2.7482481
2.4410589
2.1711036
1.8650158
1.5941062
1.2888296
1.0172481
0.71250639
0.44052416
0.13604887
14.336114
13.882135
13.775579
13.323566
13.191507
12.757575
12.60628
12.189699
12.021806
11.620637
11.438258
11.050633
10.855564
10.479817
10.273628
9.9082895
9.6923611
9.3361352
9.1116828
8.7634292
8.5315234
8.1902365
7.951822
7.6166143
7.3725251
7.0426123
6.7935862
6.4682737
6.214965
5.893636
5.6366261
5.3187316
5.0585392
4.7435886
4.4806783
4.168231
3.9030214
3.5926792
3.3255498
3.0169505
2.7482481
2.441059
2.1711036
1.8650158
1.5941061
1.2888296
1.017248
0.71250645
0.44052408
0.13604892
14.337148
13.882275
13.775566
13.323573
13.191508
12.757575
12.606279
12.189699
12.021806
11.620638
11.438257
11.050634
10.855563
10.479818
10.273628
9.9082897
9.6923608
9.3361355
9.1116826
8.7634294
8.5315232
8.1902367
7.9518218
7.6166145
7.3725249
7.0426124
6.7935861
6.4682738
6.2149649