/*--------------------------------*- C++ -*----------------------------------*\
| =========                 |                                                 |
| \\      /  F ield         | OpenFOAM: The Open Source CFD Toolbox           |
|  \\    /   O peration     | Version:  2312                                  |
|   \\  /    A nd           | Website:  www.openfoam.com                      |
|    \\/     M anipulation  |                                                 |
\*---------------------------------------------------------------------------*/
FoamFile
{
    version     2.0;
    format      ascii;
    arch        "LSB;label=32;scalar=64";
    class       surfaceScalarField;
    location    "3";
    object      phi;
}
// * * * * * * * * * * * * * * * * * * * * * * * * * * * * * * * * * * * * * //

dimensions      [0 3 -1 0 0 0 0];

oriented        oriented;

internalField   nonuniform List<scalar> 
7870
(
5.3046908e-11
1.2932031e-09
5.1926261e-11
1.1206468e-12
5.1958314e-11
-3.2051733e-14
5.1214942e-11
7.4337177e-13
5.2053154e-11
-8.382121e-13
5.1284261e-11
7.6889286e-13
5.2023838e-11
-7.3957666e-13
5.1334164e-11
6.8967318e-13
5.198345e-11
-6.4928477e-13
5.1375244e-11
6.0820544e-13
5.194615e-11
-5.7090532e-13
5.1410681e-11
5.3546732e-13
5.1913187e-11
-5.0250371e-13
5.1441632e-11
4.7155301e-13
5.188426e-11
-4.4262604e-13
5.146872e-11
4.1553797e-13
5.1858922e-11
-3.9020027e-13
5.1492423e-11
3.6649771e-13
5.1836753e-11
-3.4432856e-13
5.1513145e-11
3.2360566e-13
5.181738e-11
-3.0423186e-13
5.1531241e-11
2.8613594e-13
5.1800474e-11
-2.6923e-13
5.1547017e-11
2.534538e-13
5.1785749e-11
-2.3872928e-13
5.1560741e-11
2.2500528e-13
5.1772956e-11
-2.1221233e-13
5.1572646e-11
2.003079e-13
5.1761878e-11
-1.8922933e-13
5.1582933e-11
1.7894249e-13
5.1752326e-11
-1.6939033e-13
5.1591777e-11
1.6054628e-13
5.1744139e-11
-1.5235865e-13
5.1599329e-11
1.4480682e-13
5.1737177e-11
-1.3784504e-13
5.1605717e-11
1.3145678e-13
5.1731323e-11
-1.2560287e-13
5.1611051e-11
1.2026941e-13
5.1726478e-11
-1.1542398e-13
5.161542e-11
1.110546e-13
5.1722558e-11
-1.0713515e-13
5.1618899e-11
1.0365561e-13
5.1719498e-11
-1.005952e-13
5.1621548e-11
9.7946317e-14
5.1717244e-11
-9.5692043e-14
5.162341e-11
9.3830209e-14
5.1715764e-11
-9.2350274e-14
5.1624652e-11
9.1108634e-14
5.1716116e-11
-9.1460024e-14
8.7813827e-14
1.4953834e-10
2.4899148e-09
1.5083442e-10
-1.7543825e-13
1.5025824e-10
5.4413078e-13
1.493003e-10
1.7013165e-12
1.5050811e-10
-2.046025e-12
1.4943276e-10
1.8442483e-12
1.5049423e-10
-1.8010523e-12
1.4951047e-10
1.6734317e-12
1.5043998e-10
-1.5787947e-12
1.4957048e-10
1.4777099e-12
1.503872e-10
-1.3876258e-12
1.4962142e-10
1.3012487e-12
1.5034019e-10
-1.2212732e-12
1.4966576e-10
1.1459805e-12
1.5029887e-10
-1.0757366e-12
1.4970454e-10
1.0098682e-12
1.5026267e-10
-9.4832736e-13
1.4973847e-10
8.9069825e-13
1.5023099e-10
-8.3684951e-13
1.4976812e-10
7.8646775e-13
1.502033e-10
-7.3940716e-13
1.4979402e-10
6.9541372e-13
1.5017914e-10
-6.5434675e-13
1.498166e-10
6.1599389e-13
1.501581e-10
-5.8022515e-13
1.4983624e-10
5.4686218e-13
1.5013981e-10
-5.1578491e-13
1.4985327e-10
4.8684609e-13
1.5012398e-10
-4.5993281e-13
1.4986799e-10
4.3492699e-13
1.5011033e-10
-4.1172126e-13
1.4988065e-10
3.9022323e-13
1.5009862e-10
-3.7033202e-13
1.4989145e-10
3.5197549e-13
1.5008867e-10
-3.3506219e-13
1.4990059e-10
3.195341e-13
1.500803e-10
-3.053123e-13
1.4990822e-10
2.9234801e-13
1.5007338e-10
-2.805763e-13
1.4991447e-10
2.6995521e-13
1.5006778e-10
-2.6043295e-13
1.4991945e-10
2.5197444e-13
1.500634e-10
-2.4453863e-13
1.4992324e-10
2.3809855e-13
1.5006018e-10
-2.3261942e-13
1.4992591e-10
2.2809386e-13
1.5005805e-10
-2.2448387e-13
1.4992773e-10
2.2141547e-13
1.500595e-10
-2.2322383e-13
2.1269127e-13
2.4295881e-10
3.5932059e-09
2.4726956e-10
-4.4861921e-12
2.458347e-10
1.9789902e-12
2.4509408e-10
2.4419386e-12
2.4623173e-10
-3.1836692e-12
2.4526067e-10
2.8153095e-12
2.4625683e-10
-2.7972194e-12
2.4534137e-10
2.5888936e-12
2.4621076e-10
-2.4481859e-12
2.4539905e-10
2.2894234e-12
2.4616219e-10
-2.1507668e-12
2.4544696e-10
2.0164765e-12
2.4611845e-10
-1.8927621e-12
2.4548848e-10
1.7759518e-12
2.4607993e-10
-1.6671864e-12
2.4552475e-10
1.5650439e-12
2.4604616e-10
-1.4697327e-12
2.4555648e-10
1.3803788e-12
2.4601661e-10
-1.2969739e-12
2.4558421e-10
1.2188621e-12
2.4599077e-10
-1.1459677e-12
2.4560842e-10
1.0777635e-12
2.4596823e-10
-1.0141505e-12
2.4562952e-10
9.5469338e-13
2.4594859e-10
-8.9928566e-13
2.4564788e-10
8.475659e-13
2.4593152e-10
-7.9942419e-13
2.456638e-10
7.5456414e-13
2.4591674e-10
-7.1287182e-13
2.4567756e-10
6.7410955e-13
2.45904e-10
-6.3815993e-13
2.4568938e-10
6.0483593e-13
2.4589308e-10
-5.7402047e-13
2.4569948e-10
5.4556652e-13
2.4588379e-10
-5.19364e-13
2.4570802e-10
4.9529452e-13
2.4587598e-10
-4.7326143e-13
2.4571515e-10
4.531659e-13
2.4586951e-10
-4.3492823e-13
2.45721e-10
4.1846438e-13
2.4586428e-10
-4.0371116e-13
2.4572565e-10
3.9059862e-13
2.4586019e-10
-3.7907682e-13
2.457292e-10
3.6909125e-13
2.4585718e-10
-3.6059747e-13
2.4573169e-10
3.5358062e-13
2.4585517e-10
-3.4796228e-13
2.4573348e-10
3.4310087e-13
2.4585783e-10
-3.4756712e-13
3.2861959e-13
3.3411213e-10
4.6053438e-09
3.4108227e-10
-1.145633e-11
3.3892686e-10
4.1343981e-12
3.3837201e-10
2.9967957e-12
3.3943693e-10
-4.248588e-12
3.3856875e-10
3.6834857e-12
3.3949894e-10
-3.7274101e-12
3.3865165e-10
3.4361823e-12
3.3946053e-10
-3.2570644e-12
3.3870681e-10
3.0431407e-12
3.3941609e-10
-2.8600453e-12
3.3875164e-10
2.6809273e-12
3.3937561e-10
-2.5167342e-12
3.387903e-10
2.3612625e-12
3.3933989e-10
-2.2167692e-12
3.3882405e-10
2.0808824e-12
3.3930855e-10
-1.9542337e-12
3.3885355e-10
1.8353764e-12
3.3928112e-10
-1.7245392e-12
3.3887933e-10
1.6206431e-12
3.3925714e-10
-1.5237681e-12
3.3890184e-10
1.4330548e-12
3.3923621e-10
-1.348511e-12
3.3892146e-10
1.269435e-12
3.3921797e-10
-1.1957934e-12
3.3893852e-10
1.1270105e-12
3.3920213e-10
-1.0630241e-12
3.3895332e-10
1.0033657e-12
3.3918841e-10
-9.4795004e-13
3.3896611e-10
8.9640205e-13
3.3917657e-10
-8.4861845e-13
3.389771e-10
8.0430317e-13
3.3916643e-10
-7.6334312e-13
3.3898649e-10
7.255046e-13
3.391578e-10
-6.9067543e-13
3.3899442e-10
6.5866761e-13
3.3915055e-10
-6.2937984e-13
3.3900105e-10
6.0265649e-13
3.3914454e-10
-5.7841298e-13
3.3900648e-10
5.5651846e-13
3.3913968e-10
-5.3690569e-13
3.3901081e-10
5.1946634e-13
3.3913589e-10
-5.0414738e-13
3.3901411e-10
4.9086334e-13
3.3913308e-10
-4.7956438e-13
3.3901643e-10
4.7022818e-13
3.3913119e-10
-4.627182e-13
3.3901815e-10
4.561302e-13
3.3913475e-10
-4.6416006e-13
4.3598118e-13
4.227955e-10
5.5287983e-09
4.3222119e-10
-2.0882015e-11
4.2952998e-10
6.825606e-12
4.2913698e-10
3.3897986e-12
4.3012355e-10
-5.2351578e-12
4.29357e-10
4.4500339e-12
4.3022046e-10
-4.5908722e-12
4.2944121e-10
4.215428e-12
4.3018919e-10
-4.0050369e-12
4.2949367e-10
3.7386536e-12
4.3014881e-10
-3.5151852e-12
4.2953536e-10
3.2943759e-12
4.3011159e-10
-3.0929611e-12
4.2957115e-10
2.9017073e-12
4.3007867e-10
-2.7242858e-12
4.2960234e-10
2.5572009e-12
4.3004977e-10
-2.4016548e-12
4.2962961e-10
2.2555286e-12
4.3002447e-10
-2.1193903e-12
4.2965344e-10
1.9916664e-12
4.3000235e-10
-1.872671e-12
4.2967424e-10
1.7611594e-12
4.2998304e-10
-1.6573059e-12
4.2969236e-10
1.5601043e-12
4.2996621e-10
-1.4696397e-12
4.2970813e-10
1.3850937e-12
4.299516e-10
-1.3064876e-12
4.297218e-10
1.2331594e-12
4.2993893e-10
-1.1650807e-12
4.2973361e-10
1.1017225e-12
4.2992801e-10
-1.043019e-12
4.2974376e-10
9.885513e-13
4.2991865e-10
-9.3822992e-13
4.2975243e-10
8.9172325e-13
4.2991069e-10
-8.4893316e-13
4.2975976e-10
8.0959315e-13
4.29904e-10
-7.7361009e-13
4.2976588e-10
7.40765e-13
4.2989845e-10
-7.1097815e-13
4.297709e-10
6.8406732e-13
4.2989397e-10
-6.5996847e-13
4.297749e-10
6.3853153e-13
4.2989046e-10
-6.1970597e-13
4.2977795e-10
6.0337212e-13
4.2988787e-10
-5.8947891e-13
4.2978009e-10
5.7799598e-13
4.2988609e-10
-5.6871111e-13
4.2978173e-10
5.6048404e-13
4.2989033e-10
-5.7274842e-13
5.3471017e-13
5.0897723e-10
6.3660711e-09
5.2068823e-10
-3.2593013e-11
5.1764293e-10
9.8709013e-12
5.1739145e-10
3.6412823e-12
5.182916e-10
-6.1353091e-12
5.1762533e-10
5.1163037e-12
5.1842153e-10
-5.3870742e-12
5.1770996e-10
4.9269954e-12
5.1839685e-10
-4.6919221e-12
5.1775955e-10
4.3759539e-12
5.1836046e-10
-4.1160986e-12
5.1779806e-10
3.8567749e-12
5.1832648e-10
-3.6213795e-12
5.1783095e-10
3.3972376e-12
5.1829635e-10
-3.1896825e-12
5.1785959e-10
2.9939547e-12
5.1826989e-10
-2.8119487e-12
5.1788462e-10
2.6407951e-12
5.1824672e-10
-2.481485e-12
5.1790649e-10
2.3318956e-12
5.1822646e-10
-2.1926388e-12
5.1792557e-10
2.062044e-12
5.1820877e-10
-1.9405019e-12
5.179422e-10
1.8266714e-12
5.1819336e-10
-1.7207946e-12
5.1795666e-10
1.6217886e-12
5.1817996e-10
-1.5297877e-12
5.179692e-10
1.4439206e-12
5.1816836e-10
-1.3642395e-12
5.1798003e-10
1.2900488e-12
5.1815836e-10
-1.2213395e-12
5.1798934e-10
1.1575602e-12
5.1814978e-10
-1.098661e-12
5.1799729e-10
1.0442043e-12
5.1814248e-10
-9.9411934e-13
5.1800402e-10
9.4805478e-13
5.1813635e-10
-9.0593622e-13
5.1800963e-10
8.6747676e-13
5.1813127e-10
-8.326096e-13
5.1801423e-10
8.0109797e-13
5.1812716e-10
-7.7288712e-13
5.180179e-10
7.4778283e-13
5.1812394e-10
-7.2574184e-13
5.180207e-10
7.066079e-13
5.1812156e-10
-6.9033212e-13
5.1802267e-10
6.7687572e-13
5.181199e-10
-6.6593387e-13
5.1802421e-10
6.5617096e-13
5.1812461e-10
-6.7313969e-13
6.2473402e-13
5.9271284e-10
7.1196082e-09
6.064938e-10
-4.6373967e-11
6.0326337e-10
1.3101327e-11
6.0313584e-10
3.7688171e-12
6.0394118e-10
-6.9406513e-12
6.033736e-10
5.6838807e-12
6.041023e-10
-6.1157681e-12
6.0345777e-10
5.5715176e-12
6.0408364e-10
-5.3177821e-12
6.0350432e-10
4.9552623e-12
6.0405114e-10
-4.6629154e-12
6.0353964e-10
4.3682798e-12
6.0402038e-10
-4.1021175e-12
6.0356963e-10
3.8479837e-12
6.0399302e-10
-3.6130739e-12
6.0359572e-10
3.3912568e-12
6.0396899e-10
-3.1852163e-12
6.0361851e-10
2.9912743e-12
6.0394794e-10
-2.8109119e-12
6.0363841e-10
2.6414166e-12
6.0392953e-10
-2.4837492e-12
6.0365578e-10
2.3357839e-12
6.0391345e-10
-2.1981673e-12
6.0367092e-10
2.0692019e-12
6.0389944e-10
-1.949318e-12
6.0368408e-10
1.8371524e-12
6.0388727e-10
-1.7329774e-12
6.0369549e-10
1.6357e-12
6.0387673e-10
-1.545473e-12
6.0370534e-10
1.4614254e-12
6.0386763e-10
-1.3836213e-12
6.0371382e-10
1.3113695e-12
6.0385983e-10
-1.2446732e-12
6.0372105e-10
1.1829832e-12
6.038532e-10
-1.126267e-12
6.0372717e-10
1.0740843e-12
6.0384763e-10
-1.0263882e-12
6.0373228e-10
9.8282079e-13
6.0384301e-10
-9.4333493e-13
6.0373646e-10
9.0763724e-13
6.0383927e-10
-8.7568744e-13
6.037398e-10
8.4724562e-13
6.0383634e-10
-8.2227971e-13
6.0374235e-10
8.0059525e-13
6.0383417e-10
-7.8214838e-13
6.0374415e-10
7.6689156e-13
6.0383264e-10
-7.5441224e-13
6.0374557e-10
7.4322751e-13
6.0383764e-10
-7.6519999e-13
7.0606433e-13
6.7406412e-10
7.7917941e-09
6.8965417e-10
-6.1964021e-11
6.8638787e-10
1.636763e-11
6.8636692e-10
3.7897656e-12
6.870726e-10
-7.6463265e-12
6.8660161e-10
6.1548651e-12
6.8726287e-10
-6.777027e-12
6.8668453e-10
6.1498606e-12
6.8724964e-10
-5.8828948e-12
6.867279e-10
5.4770043e-12
6.8722094e-10
-5.1559588e-12
6.8675999e-10
4.8292265e-12
6.8719335e-10
-4.5354732e-12
6.867871e-10
4.2542348e-12
6.8716875e-10
-3.9947243e-12
6.8681065e-10
3.7493598e-12
6.8714712e-10
-3.5216902e-12
6.8683121e-10
3.307188e-12
6.8712817e-10
-3.1078756e-12
6.8684916e-10
2.9204241e-12
6.871116e-10
-2.7461825e-12
6.8686483e-10
2.5825501e-12
6.8709713e-10
-2.4304609e-12
6.8687848e-10
2.2878464e-12
6.8708451e-10
-2.1553502e-12
6.8689035e-10
2.0313182e-12
6.8707355e-10
-1.9161804e-12
6.8690063e-10
1.8086148e-12
6.8706406e-10
-1.708891e-12
6.8690952e-10
1.6159565e-12
6.8705587e-10
-1.5299618e-12
6.8691716e-10
1.4500719e-12
6.8704884e-10
-1.3763533e-12
6.8692368e-10
1.3081428e-12
6.8704287e-10
-1.2454541e-12
6.869292e-10
1.1877565e-12
6.8703785e-10
-1.1350367e-12
6.869338e-10
1.0868649e-12
6.8703369e-10
-1.0432188e-12
6.8693757e-10
1.0037475e-12
6.8703032e-10
-9.6842934e-13
6.8694058e-10
9.3697799e-13
6.8702768e-10
-9.0937586e-13
6.8694288e-10
8.853893e-13
6.8702572e-10
-8.6498179e-13
6.8694451e-10
8.4809683e-13
6.8702431e-10
-8.3420123e-13
6.8694581e-10
8.2171568e-13
6.8702946e-10
-8.4884532e-13
7.7877864e-13
7.5307881e-10
8.3849653e-09
7.7018884e-10
-7.9074055e-11
7.6701182e-10
1.9544654e-11
7.6707806e-10
3.7235213e-12
7.6768649e-10
-8.2547503e-12
7.6730909e-10
6.5322637e-12
7.6790335e-10
-7.3712828e-12
7.6739012e-10
6.6630821e-12
7.6789496e-10
-6.3877303e-12
7.6743018e-10
5.9417837e-12
7.6786994e-10
-5.5957217e-12
7.6745906e-10
5.2401097e-12
7.6784548e-10
-4.921894e-12
7.6748329e-10
4.61642e-12
7.678236e-10
-4.3350292e-12
7.6750432e-10
4.0686398e-12
7.6780435e-10
-3.8217186e-12
7.6752267e-10
3.5888662e-12
7.6778748e-10
-3.3726828e-12
7.6753869e-10
3.1692085e-12
7.6777272e-10
-2.9802088e-12
7.6755267e-10
2.8025982e-12
7.6775983e-10
-2.6376208e-12
7.6756485e-10
2.4828302e-12
7.677486e-10
-2.3391015e-12
7.6757543e-10
2.2044848e-12
7.6773884e-10
-2.0795828e-12
7.6758461e-10
1.9628412e-12
7.6773038e-10
-1.8546583e-12
7.6759253e-10
1.7537984e-12
7.6772308e-10
-1.6605077e-12
7.6759934e-10
1.5738065e-12
7.6771683e-10
-1.4938325e-12
7.6760516e-10
1.4198076e-12
7.6771151e-10
-1.3517987e-12
7.6761008e-10
1.2891835e-12
7.6770703e-10
-1.2319885e-12
7.6761418e-10
1.1797111e-12
7.6770333e-10
-1.1323587e-12
7.6761755e-10
1.0895224e-12
7.6770033e-10
-1.0512029e-12
7.6762023e-10
1.0170672e-12
7.6769797e-10
-9.8711483e-13
7.6762229e-10
9.6107261e-13
7.6769622e-10
-9.3891323e-13
7.6762374e-10
9.2057106e-13
7.6769493e-10
-9.0538213e-13
7.6762492e-10
8.9172144e-13
7.6770012e-10
-9.2403552e-13
8.4299959e-13
8.2979503e-10
8.9014203e-09
8.48118e-10
-9.7397027e-11
8.4512979e-10
2.2532862e-11
8.4526248e-10
3.5908378e-12
8.4578382e-10
-8.7760937e-12
8.4549578e-10
6.8203046e-12
8.4602378e-10
-7.8992869e-12
8.4557446e-10
7.1124023e-12
8.4601967e-10
-6.832934e-12
8.4561108e-10
6.3503654e-12
8.4599822e-10
-5.9828503e-12
8.4563676e-10
5.6015668e-12
8.4597683e-10
-5.2619621e-12
8.4565815e-10
4.9350939e-12
8.4595763e-10
-4.6345026e-12
8.4567668e-10
4.3495834e-12
8.4594072e-10
-4.0857541e-12
8.4569284e-10
3.836737e-12
8.459259e-10
-3.6057321e-12
8.4570696e-10
3.3881462e-12
8.4591293e-10
-3.1861792e-12
8.4571927e-10
2.9962599e-12
8.459016e-10
-2.8199569e-12
8.4572999e-10
2.6544457e-12
8.4589173e-10
-2.5008455e-12
8.457393e-10
2.3569105e-12
8.4588315e-10
-2.2234268e-12
8.4574738e-10
2.098608e-12
8.4587572e-10
-1.9829898e-12
8.4575436e-10
1.8751541e-12
8.458693e-10
-1.7754503e-12
8.4576035e-10
1.6827545e-12
8.4586381e-10
-1.5972818e-12
8.4576547e-10
1.5181401e-12
8.4585913e-10
-1.4454542e-12
8.457698e-10
1.3785118e-12
8.458552e-10
-1.3173825e-12
8.4577341e-10
1.2614925e-12
8.4585194e-10
-1.2108816e-12
8.4577637e-10
1.1650842e-12
8.458493e-10
-1.1241256e-12
8.4577873e-10
1.0876268e-12
8.4584723e-10
-1.0556066e-12
8.4578055e-10
1.0277524e-12
8.4584569e-10
-1.0040478e-12
8.4578183e-10
9.8441766e-13
8.4584452e-10
-9.6806009e-13
8.4578288e-10
9.5335297e-13
8.4584962e-10
-9.9076889e-13
8.9888621e-13
9.0424604e-10
9.3434242e-09
9.2345975e-10
-1.1661074e-10
9.20736e-10
2.525661e-11
9.2091643e-10
3.410403e-12
9.2136571e-10
-9.2253683e-12
9.2116155e-10
7.024467e-12
9.2162425e-10
-8.3619874e-12
9.2123746e-10
7.499186e-12
9.2162384e-10
-7.2193096e-12
9.2127054e-10
6.7036607e-12
9.2160583e-10
-6.3181314e-12
9.2129302e-10
5.9143665e-12
9.2158745e-10
-5.556383e-12
9.2131161e-10
5.210927e-12
9.2157088e-10
-4.8937673e-12
9.2132768e-10
4.592779e-12
9.2155627e-10
-4.3143451e-12
9.2134169e-10
4.0513176e-12
9.2154347e-10
-3.8075061e-12
9.2135392e-10
3.5776926e-12
9.2153226e-10
-3.3645192e-12
9.2136458e-10
3.1639363e-12
9.2152247e-10
-2.9778444e-12
9.2137387e-10
2.803047e-12
9.2151394e-10
-2.6409137e-12
9.2138194e-10
2.4889083e-12
9.2150652e-10
-2.3480058e-12
9.2138893e-10
2.2161922e-12
9.2150009e-10
-2.094146e-12
9.2139497e-10
1.9802701e-12
9.2149455e-10
-1.8750215e-12
9.2140016e-10
1.7771356e-12
9.214898e-10
-1.6869086e-12
9.2140459e-10
1.6033371e-12
9.2148575e-10
-1.5266073e-12
9.2140834e-10
1.4559189e-12
9.2148235e-10
-1.3913879e-12
9.2141147e-10
1.3323706e-12
9.2147953e-10
-1.278942e-12
9.2141403e-10
1.230581e-12
9.2147725e-10
-1.1873398e-12
9.2141608e-10
1.1487945e-12
9.2147546e-10
-1.1149845e-12
9.2141765e-10
1.0855589e-12
9.2147412e-10
-1.0605129e-12
9.2141877e-10
1.039762e-12
9.2147308e-10
-1.0223622e-12
9.2141969e-10
1.0067394e-12
9.21478e-10
-1.049079e-12
9.4662902e-13
9.7646174e-10
9.7132125e-09
9.9622967e-10
-1.3637867e-10
9.9382466e-10
2.7661627e-11
9.9403967e-10
3.1953843e-12
9.9443313e-10
-9.6188199e-12
9.9430637e-10
7.1512257e-12
9.9470479e-10
-8.7604057e-12
9.9437904e-10
7.8249269e-12
9.9470754e-10
-7.5478035e-12
9.9440848e-10
7.0027162e-12
9.9469283e-10
-6.6024804e-12
9.944278e-10
6.179397e-12
9.9467739e-10
-5.805975e-12
9.9444362e-10
5.4446948e-12
9.9466341e-10
-5.1135452e-12
9.9445727e-10
4.798908e-12
9.9465106e-10
-4.5081274e-12
9.9446917e-10
4.2332073e-12
9.9464023e-10
-3.9785649e-12
9.9447954e-10
3.7383753e-12
9.9463075e-10
-3.5157223e-12
9.9448859e-10
3.3060926e-12
9.9462247e-10
-3.1117188e-12
9.9449647e-10
2.9290445e-12
9.9461525e-10
-2.759691e-12
9.9450331e-10
2.6008411e-12
9.9460897e-10
-2.4536605e-12
9.9450924e-10
2.3159157e-12
9.9460353e-10
-2.1884292e-12
9.9451436e-10
2.0694322e-12
9.9459884e-10
-1.9594908e-12
9.9451876e-10
1.8572048e-12
9.9459481e-10
-1.7629538e-12
9.9452252e-10
1.6756274e-12
9.9459139e-10
-1.5954748e-12
9.9452569e-10
1.5216112e-12
9.9458851e-10
-1.4542008e-12
9.9452835e-10
1.3925329e-12
9.9458613e-10
-1.3367191e-12
9.9453052e-10
1.2861852e-12
9.9458419e-10
-1.2410113e-12
9.9453225e-10
1.2007304e-12
9.9458268e-10
-1.1654038e-12
9.9453359e-10
1.1346432e-12
9.9458154e-10
-1.1084565e-12
9.9453454e-10
1.0867498e-12
9.9458062e-10
-1.0684355e-12
9.9453533e-10
1.0520288e-12
9.9458529e-10
-1.0990318e-12
9.8644515e-13
1.0464682e-09
1.0012994e-08
1.0664419e-09
-1.5635235e-10
1.06439e-09
2.9713453e-11
1.064634e-09
2.9514264e-12
1.0649867e-09
-9.9715626e-12
1.0649303e-09
7.2076683e-12
1.0652654e-09
-9.0955534e-12
1.0649991e-09
8.0912337e-12
1.0652708e-09
-7.8194901e-12
1.0650248e-09
7.2487019e-12
1.0652593e-09
-6.8369301e-12
1.065041e-09
6.3976565e-12
1.0652467e-09
-6.01166e-12
1.0650541e-09
5.63727e-12
1.0652352e-09
-5.2946495e-12
1.0650654e-09
4.9687368e-12
1.0652251e-09
-4.6678169e-12
1.0650752e-09
4.3830806e-12
1.0652162e-09
-4.1195391e-12
1.0650838e-09
3.8707885e-12
1.0652084e-09
-3.6403445e-12
1.0650913e-09
3.4232524e-12
1.0652016e-09
-3.2220708e-12
1.0650978e-09
3.0329007e-12
1.0651957e-09
-2.857611e-12
1.0651034e-09
2.6931178e-12
1.0651905e-09
-2.5407751e-12
1.0651083e-09
2.3981408e-12
1.065186e-09
-2.2661808e-12
1.0651125e-09
2.1429627e-12
1.0651822e-09
-2.029162e-12
1.0651161e-09
1.9232501e-12
1.0651789e-09
-1.8256896e-12
1.0651192e-09
1.7352692e-12
1.0651761e-09
-1.6523014e-12
1.0651218e-09
1.5758219e-12
1.0651737e-09
-1.5060431e-12
1.065124e-09
1.4421915e-12
1.0651717e-09
-1.3844158e-12
1.0651258e-09
1.3320914e-12
1.0651701e-09
-1.2853274e-12
1.0651272e-09
1.2436157e-12
1.0651689e-09
-1.2070399e-12
1.0651284e-09
1.1751763e-12
1.0651679e-09
-1.148046e-12
1.0651291e-09
1.1255456e-12
1.0651672e-09
-1.1064459e-12
1.0651298e-09
1.0893869e-12
1.0651715e-09
-1.1407236e-12
1.0185726e-12
1.1142853e-09
1.0244959e-08
1.1341095e-09
-1.761765e-10
1.1324272e-09
3.1395757e-11
1.1327017e-09
2.6768766e-12
1.1330269e-09
-1.0296749e-11
1.1330334e-09
7.2011359e-12
1.1333063e-09
-9.3683941e-12
1.1330977e-09
8.2998173e-12
1.1333138e-09
-8.0355604e-12
1.1331196e-09
7.442901e-12
1.1333053e-09
-7.0226205e-12
1.1331327e-09
6.5702431e-12
1.1332955e-09
-6.1744541e-12
1.1331431e-09
5.7896129e-12
1.1332864e-09
-5.4379763e-12
1.1331521e-09
5.1031097e-12
1.1332785e-09
-4.794203e-12
1.1331599e-09
4.5016806e-12
1.1332714e-09
-4.2311243e-12
1.1331666e-09
3.9755866e-12
1.1332653e-09
-3.738999e-12
1.1331726e-09
3.5159931e-12
1.1332599e-09
-3.3094417e-12
1.1331777e-09
3.1151254e-12
1.1332553e-09
-2.9351525e-12
1.1331822e-09
2.7661898e-12
1.1332512e-09
-2.6097737e-12
1.133186e-09
2.4632679e-12
1.1332476e-09
-2.3277774e-12
1.1331894e-09
2.2012179e-12
1.1332446e-09
-2.0843712e-12
1.1331923e-09
1.9755894e-12
1.133242e-09
-1.8754167e-12
1.1331947e-09
1.7825479e-12
1.1332398e-09
-1.6973581e-12
1.1331968e-09
1.6188087e-12
1.1332379e-09
-1.5471605e-12
1.1331985e-09
1.4815812e-12
1.1332364e-09
-1.4222566e-12
1.1331999e-09
1.3685155e-12
1.1332351e-09
-1.3204954e-12
1.1332011e-09
1.2776508e-12
1.1332341e-09
-1.2400869e-12
1.1332019e-09
1.2073473e-12
1.1332334e-09
-1.1794665e-12
1.1332026e-09
1.1563315e-12
1.1332327e-09
-1.1365759e-12
1.1332031e-09
1.1189953e-12
1.1332366e-09
-1.1742789e-12
1.0432654e-12
1.1799221e-09
1.0411287e-08
1.199245e-09
-1.9549945e-10
1.1979365e-09
3.2704284e-11
1.1982447e-09
2.3686556e-12
1.1985537e-09
-1.0605773e-11
1.1986159e-09
7.139017e-12
1.1988273e-09
-9.5798459e-12
1.1986746e-09
8.4524828e-12
1.1988364e-09
-8.1973109e-12
1.1986926e-09
7.5867007e-12
1.1988308e-09
-7.1607887e-12
1.1987027e-09
6.698346e-12
1.1988237e-09
-6.2954594e-12
1.1987105e-09
5.9027646e-12
1.198817e-09
-5.5444975e-12
1.1987172e-09
5.2029418e-12
1.1988111e-09
-4.8881417e-12
1.198723e-09
4.5898128e-12
1.198806e-09
-4.3140746e-12
1.1987281e-09
4.0534796e-12
1.1988014e-09
-3.8123511e-12
1.1987325e-09
3.5849411e-12
1.1987975e-09
-3.374419e-12
1.1987363e-09
3.1762721e-12
1.198794e-09
-2.992835e-12
1.1987396e-09
2.8205468e-12
1.198791e-09
-2.661117e-12
1.1987425e-09
2.5117317e-12
1.1987884e-09
-2.3736286e-12
1.198745e-09
2.2445846e-12
1.1987861e-09
-2.1254835e-12
1.1987471e-09
2.0145686e-12
1.1987842e-09
-1.9124624e-12
1.1987489e-09
1.8177743e-12
1.1987825e-09
-1.7309395e-12
1.1987505e-09
1.6508525e-12
1.1987812e-09
-1.5778202e-12
1.1987518e-09
1.5109576e-12
1.19878e-09
-1.450486e-12
1.1987528e-09
1.3956923e-12
1.1987791e-09
-1.3467416e-12
1.1987537e-09
1.3030542e-12
1.1987783e-09
-1.2647567e-12
1.1987543e-09
1.2313624e-12
1.1987778e-09
-1.2029195e-12
1.1987548e-09
1.1793056e-12
1.1987773e-09
-1.1590242e-12
1.1987552e-09
1.1410503e-12
1.1987808e-09
-1.1998489e-12
1.060789e-12
1.2433636e-09
1.0514173e-08
1.2618597e-09
-2.1399552e-10
1.2609352e-09
3.3628801e-11
1.2612635e-09
2.040371e-12
1.2615667e-09
-1.0909066e-11
1.2616774e-09
7.028405e-12
1.2618285e-09
-9.7309939e-12
1.2617299e-09
8.551067e-12
1.2618388e-09
-8.3061583e-12
1.2617439e-09
7.6815752e-12
1.2618359e-09
-7.2527621e-12
1.261751e-09
6.7832367e-12
1.2618314e-09
-6.3758555e-12
1.2617563e-09
5.9778384e-12
1.2618271e-09
-5.6152535e-12
1.2617608e-09
5.2692123e-12
1.2618232e-09
-4.9505496e-12
1.2617647e-09
4.6483396e-12
1.2618198e-09
-4.3691981e-12
1.261768e-09
4.1052275e-12
1.2618168e-09
-3.8611136e-12
1.261771e-09
3.6307671e-12
1.2618142e-09
-3.4176324e-12
1.2617735e-09
3.2169337e-12
1.2618119e-09
-3.0312159e-12
1.2617757e-09
2.856714e-12
1.2618099e-09
-2.695299e-12
1.2617777e-09
2.5439983e-12
1.2618082e-09
-2.4041737e-12
1.2617793e-09
2.2734781e-12
1.2618067e-09
-2.1528911e-12
1.2617807e-09
2.0405589e-12
1.2618054e-09
-1.9371781e-12
1.2617819e-09
1.8412818e-12
1.2618044e-09
-1.7533624e-12
1.261783e-09
1.6722547e-12
1.2618035e-09
-1.5983097e-12
1.2617838e-09
1.5305954e-12
1.2618027e-09
-1.4693671e-12
1.2617845e-09
1.4138745e-12
1.2618021e-09
-1.3643092e-12
1.2617851e-09
1.320061e-12
1.2618016e-09
-1.281277e-12
1.2617855e-09
1.2474436e-12
1.2618012e-09
-1.218622e-12
1.2617858e-09
1.194681e-12
1.2618008e-09
-1.1740035e-12
1.2617861e-09
1.1557615e-12
1.2618039e-09
-1.2176083e-12
1.0714176e-12
1.3045422e-09
1.0555881e-08
1.3219517e-09
-2.31405e-10
1.3214872e-09
3.4093299e-11
1.3217656e-09
1.7619463e-12
1.3220656e-09
-1.1209073e-11
1.3222176e-09
6.8764258e-12
1.3223097e-09
-9.8230935e-12
1.3222634e-09
8.5973817e-12
1.3223209e-09
-8.3636635e-12
1.3222734e-09
7.7290606e-12
1.3223206e-09
-7.2999576e-12
1.3222776e-09
6.8262572e-12
1.3223186e-09
-6.4168944e-12
1.3222804e-09
6.0160131e-12
1.3223165e-09
-5.651347e-12
1.3222828e-09
5.3029582e-12
1.3223146e-09
-4.9823982e-12
1.3222848e-09
4.6781743e-12
1.3223129e-09
-4.397351e-12
1.3222865e-09
4.1316359e-12
1.3223115e-09
-3.886042e-12
1.322288e-09
3.6541822e-12
1.3223102e-09
-3.4397495e-12
1.3222894e-09
3.2377387e-12
1.322309e-09
-3.0508859e-12
1.3222905e-09
2.8752483e-12
1.322308e-09
-2.712844e-12
1.3222915e-09
2.5605624e-12
1.3223072e-09
-2.4198789e-12
1.3222923e-09
2.288339e-12
1.3223064e-09
-2.1670101e-12
1.322293e-09
2.0539546e-12
1.3223058e-09
-1.949937e-12
1.3222937e-09
1.8534249e-12
1.3223053e-09
-1.7649635e-12
1.3222942e-09
1.683336e-12
1.3223048e-09
-1.6089347e-12
1.3222946e-09
1.5407869e-12
1.3223044e-09
-1.4791799e-12
1.322295e-09
1.4233313e-12
1.3223041e-09
-1.3734572e-12
1.3222953e-09
1.3289216e-12
1.3223039e-09
-1.2898905e-12
1.3222955e-09
1.2558271e-12
1.3223037e-09
-1.2268047e-12
1.3222957e-09
1.2026843e-12
1.3223034e-09
-1.1817395e-12
1.3222958e-09
1.1633509e-12
1.322306e-09
-1.2277539e-12
1.0754321e-12
1.3633654e-09
1.0538766e-08
1.3795057e-09
-2.4754524e-10
1.3796787e-09
3.3920311e-11
1.3797759e-09
1.664678e-12
1.3800539e-09
-1.1486989e-11
1.380238e-09
6.6922475e-12
1.3802713e-09
-9.8563776e-12
1.3802751e-09
8.5935847e-12
1.3802828e-09
-8.3713604e-12
1.3802811e-09
7.7308077e-12
1.380285e-09
-7.303849e-12
1.3802824e-09
6.8288224e-12
1.3802854e-09
-6.4198886e-12
1.3802829e-09
6.0185273e-12
1.3802855e-09
-5.6539363e-12
1.3802832e-09
5.305269e-12
1.3802855e-09
-4.984708e-12
1.3802834e-09
4.6802766e-12
1.3802854e-09
-4.3994331e-12
1.3802835e-09
4.1335509e-12
1.3802854e-09
-3.8879305e-12
1.3802837e-09
3.6559335e-12
1.3802854e-09
-3.4414722e-12
1.3802838e-09
3.2393482e-12
1.3802854e-09
-3.0524664e-12
1.3802839e-09
2.8767353e-12
1.3802853e-09
-2.7143032e-12
1.380284e-09
2.5619443e-12
1.3802853e-09
-2.4212349e-12
1.380284e-09
2.2896311e-12
1.3802853e-09
-2.1682787e-12
1.3802841e-09
2.0551705e-12
1.3802853e-09
-1.9511321e-12
1.3802841e-09
1.8545767e-12
1.3802853e-09
-1.7660972e-12
1.3802841e-09
1.6844343e-12
1.3802852e-09
-1.6100173e-12
1.3802842e-09
1.5418402e-12
1.3802852e-09
-1.4802194e-12
1.3802842e-09
1.424346e-12
1.3802852e-09
-1.3744587e-12
1.3802842e-09
1.3299e-12
1.3802852e-09
-1.2908531e-12
1.3802843e-09
1.2567618e-12
1.3802852e-09
-1.2277113e-12
1.3802843e-09
1.2035547e-12
1.380285e-09
-1.18247e-12
1.3802843e-09
1.1640518e-12
1.3802871e-09
-1.2305013e-12
1.0731182e-12
1.4199121e-09
1.0465104e-08
1.434558e-09
-2.6219113e-10
1.4354375e-09
3.3040783e-11
1.4352855e-09
1.8166478e-12
1.4355279e-09
-1.1729351e-11
1.4357378e-09
6.4823707e-12
1.4357132e-09
-9.8317503e-12
1.435765e-09
8.5417106e-12
1.4357246e-09
-8.3309237e-12
1.4357669e-09
7.6885122e-12
1.435729e-09
-7.2659832e-12
1.4357654e-09
6.7924037e-12
1.4357318e-09
-6.3862087e-12
1.4357636e-09
5.9866718e-12
1.4357339e-09
-5.6242295e-12
1.4357619e-09
5.2772805e-12
1.4357357e-09
-4.9585438e-12
1.4357604e-09
4.6556474e-12
1.4357373e-09
-4.3763833e-12
1.435759e-09
4.1118554e-12
1.4357387e-09
-3.8676079e-12
1.4357578e-09
3.6368008e-12
1.4357399e-09
-3.4235329e-12
1.4357568e-09
3.2224516e-12
1.4357409e-09
-3.0366061e-12
1.4357559e-09
2.8617862e-12
1.4357418e-09
-2.7002523e-12
1.4357551e-09
2.548687e-12
1.4357426e-09
-2.4087541e-12
1.4357544e-09
2.2778385e-12
1.4357433e-09
-2.1571547e-12
1.4357538e-09
2.0446402e-12
1.4357438e-09
-1.9411744e-12
1.4357533e-09
1.8451274e-12
1.4357443e-09
-1.7571345e-12
1.4357529e-09
1.6759026e-12
1.4357447e-09
-1.6018944e-12
1.4357525e-09
1.5340776e-12
1.4357451e-09
-1.4727945e-12
1.4357522e-09
1.4172156e-12
1.4357453e-09
-1.3675997e-12
1.435752e-09
1.3232725e-12
1.4357456e-09
-1.2844327e-12
1.4357518e-09
1.2505088e-12
1.4357457e-09
-1.2215963e-12
1.4357517e-09
1.1975421e-12
1.4357457e-09
-1.1764432e-12
1.4357516e-09
1.1581079e-12
1.4357472e-09
-1.2260831e-12
1.0647659e-12
1.4743219e-09
1.0337032e-08
1.4871486e-09
-2.7501786e-10
1.4886192e-09
3.1570148e-11
1.488276e-09
2.1598799e-12
1.4884828e-09
-1.1936166e-11
1.4887154e-09
6.2497576e-12
1.4886348e-09
-9.7511732e-12
1.4887329e-09
8.4436178e-12
1.4886462e-09
-8.2441825e-12
1.4887308e-09
7.6039039e-12
1.4886528e-09
-7.1879749e-12
1.4887267e-09
6.7185226e-12
1.4886577e-09
-6.3172776e-12
1.4887226e-09
5.9217845e-12
1.4886619e-09
-5.56348e-12
1.488719e-09
5.2201704e-12
1.4886655e-09
-4.9050099e-12
1.4887158e-09
4.6053244e-12
1.4886686e-09
-4.3291755e-12
1.488713e-09
4.0674649e-12
1.4886713e-09
-3.8259338e-12
1.4887105e-09
3.5975927e-12
1.4886737e-09
-3.3866917e-12
1.4887083e-09
3.1877646e-12
1.4886757e-09
-3.0039782e-12
1.4887065e-09
2.8310355e-12
1.4886775e-09
-2.671289e-12
1.4887048e-09
2.5213546e-12
1.4886791e-09
-2.3829684e-12
1.4887034e-09
2.2534642e-12
1.4886804e-09
-2.1341134e-12
1.4887022e-09
2.0228139e-12
1.4886815e-09
-1.9204904e-12
1.4887012e-09
1.8254822e-12
1.4886825e-09
-1.7384603e-12
1.4887003e-09
1.658108e-12
1.4886833e-09
-1.5849162e-12
1.4886996e-09
1.5178341e-12
1.488684e-09
-1.4572262e-12
1.488699e-09
1.4022486e-12
1.4886845e-09
-1.3531775e-12
1.4886985e-09
1.3093266e-12
1.488685e-09
-1.2709082e-12
1.4886981e-09
1.2373393e-12
1.4886853e-09
-1.2087251e-12
1.4886979e-09
1.184907e-12
1.4886854e-09
-1.1639171e-12
1.4886977e-09
1.1457724e-12
1.4886864e-09
-1.2147467e-12
1.050668e-12
1.52659e-09
1.0156692e-08
1.5372697e-09
-2.8569756e-10
1.5391992e-09
2.964057e-11
1.5387628e-09
2.5963473e-12
1.5389199e-09
-1.2093339e-11
1.5391719e-09
5.9977926e-12
1.5390367e-09
-9.6159957e-12
1.5391789e-09
8.3014181e-12
1.5390477e-09
-8.1129405e-12
1.5391728e-09
7.4787988e-12
1.5390563e-09
-7.0714773e-12
1.5391661e-09
6.6087534e-12
1.5390634e-09
-6.2145611e-12
1.5391599e-09
5.8252459e-12
1.5390694e-09
-5.4729807e-12
1.5391544e-09
5.1351539e-12
1.5390746e-09
-4.8252458e-12
1.5391496e-09
4.5303784e-12
1.5390792e-09
-4.2588146e-12
1.5391454e-09
4.001324e-12
1.5390832e-09
-3.7637956e-12
1.5391417e-09
3.5391439e-12
1.5390867e-09
-3.3317332e-12
1.5391385e-09
3.1360255e-12
1.5390898e-09
-2.9552775e-12
1.5391357e-09
2.7851378e-12
1.5390924e-09
-2.6280301e-12
1.5391332e-09
2.4805291e-12
1.5390947e-09
-2.3444274e-12
1.5391311e-09
2.2170274e-12
1.5390967e-09
-2.099646e-12
1.5391293e-09
1.9901568e-12
1.5390983e-09
-1.8895213e-12
1.5391278e-09
1.7960599e-12
1.5390998e-09
-1.7104731e-12
1.5391265e-09
1.6314299e-12
1.539101e-09
-1.5594449e-12
1.5391254e-09
1.4934561e-12
1.539102e-09
-1.4338467e-12