/*--------------------------------*- C++ -*----------------------------------*\
| =========                 |                                                 |
| \\      /  F ield         | OpenFOAM: The Open Source CFD Toolbox           |
|  \\    /   O peration     | Version:  2312                                  |
|   \\  /    A nd           | Website:  www.openfoam.com                      |
|    \\/     M anipulation  |                                                 |
\*---------------------------------------------------------------------------*/
FoamFile
{
    version     2.0;
    format      ascii;
    arch        "LSB;label=32;scalar=64";
    class       surfaceScalarField;
    location    "3";
    object      phi_0;
}
// * * * * * * * * * * * * * * * * * * * * * * * * * * * * * * * * * * * * * //

dimensions      [0 3 -1 0 0 0 0];

oriented        oriented;

internalField   nonuniform List<scalar> 
7870
(
5.3046877e-11
1.2932031e-09
5.1926282e-11
1.1205953e-12
5.1958305e-11
-3.2023051e-14
5.1214926e-11
7.4337834e-13
5.2053158e-11
-8.3823181e-13
5.1284256e-11
7.6890251e-13
5.2023845e-11
-7.3958871e-13
5.1334158e-11
6.8968652e-13
5.1983457e-11
-6.4929867e-13
5.1375236e-11
6.082211e-13
5.1946157e-11
-5.7092175e-13
5.1410672e-11
5.3548549e-13
5.1913195e-11
-5.0252297e-13
5.1441621e-11
4.7157373e-13
5.1884269e-11
-4.4264813e-13
5.1468708e-11
4.1556118e-13
5.1858933e-11
-3.9022498e-13
5.149241e-11
3.6652335e-13
5.1836766e-11
-3.4435565e-13
5.1513132e-11
3.2363366e-13
5.1817393e-11
-3.0426111e-13
5.1531227e-11
2.8616619e-13
5.1800489e-11
-2.6926126e-13
5.1547002e-11
2.5348614e-13
5.1785765e-11
-2.3876243e-13
5.1560725e-11
2.2503954e-13
5.1772973e-11
-2.1224725e-13
5.1572629e-11
2.0034387e-13
5.1761895e-11
-1.892659e-13
5.1582915e-11
1.7898e-13
5.1752343e-11
-1.6942843e-13
5.1591758e-11
1.605852e-13
5.1744156e-11
-1.5239816e-13
5.1599309e-11
1.4484704e-13
5.1737195e-11
-1.3788584e-13
5.1605696e-11
1.3149818e-13
5.1731341e-11
-1.2564483e-13
5.1611029e-11
1.2031186e-13
5.1726496e-11
-1.1546692e-13
5.1615398e-11
1.1109795e-13
5.1722577e-11
-1.0717889e-13
5.1618877e-11
1.0369965e-13
5.1719517e-11
-1.0063955e-13
5.1621526e-11
9.799092e-14
5.1717263e-11
-9.5736918e-14
5.1623387e-11
9.3875353e-14
5.1715783e-11
-9.2395511e-14
5.1624628e-11
9.1155245e-14
5.1716131e-11
-9.1503678e-14
8.7863603e-14
1.4953823e-10
2.4899149e-09
1.5083446e-10
-1.7563419e-13
1.5025822e-10
5.4422077e-13
1.4930026e-10
1.7013314e-12
1.5050812e-10
-2.0460827e-12
1.4943275e-10
1.8442705e-12
1.5049424e-10
-1.8010817e-12
1.4951046e-10
1.6734638e-12
1.5043999e-10
-1.5788277e-12
1.4957047e-10
1.4777474e-12
1.5038721e-10
-1.3876649e-12
1.496214e-10
1.3012924e-12
1.503402e-10
-1.2213194e-12
1.4966574e-10
1.1460305e-12
1.5029888e-10
-1.0757899e-12
1.4970452e-10
1.0099242e-12
1.5026268e-10
-9.4838724e-13
1.4973845e-10
8.9076023e-13
1.5023101e-10
-8.3691521e-13
1.4976811e-10
7.8653553e-13
1.5020332e-10
-7.3947808e-13
1.49794e-10
6.9548705e-13
1.5017916e-10
-6.5442249e-13
1.4981658e-10
6.1607237e-13
1.5015812e-10
-5.8030545e-13
1.4983621e-10
5.469453e-13
1.5013984e-10
-5.1586956e-13
1.4985325e-10
4.8693335e-13
1.50124e-10
-4.6002157e-13
1.4986796e-10
4.3501794e-13
1.5011035e-10
-4.1181382e-13
1.4988062e-10
3.9031756e-13
1.5009865e-10
-3.7042804e-13
1.4989142e-10
3.5207296e-13
1.500887e-10
-3.351613e-13
1.4990056e-10
3.1963447e-13
1.5008033e-10
-3.0541412e-13
1.4990819e-10
2.9245098e-13
1.500734e-10
-2.8068042e-13
1.4991444e-10
2.7006035e-13
1.500678e-10
-2.6053898e-13
1.4991942e-10
2.5208131e-13
1.5006343e-10
-2.4464628e-13
1.4992321e-10
2.3820686e-13
1.500602e-10
-2.3272858e-13
1.4992587e-10
2.2820364e-13
1.5005807e-10
-2.2459413e-13
1.499277e-10
2.2152946e-13
1.5005952e-10
-2.2332946e-13
2.1281513e-13
2.4295862e-10
3.5932063e-09
2.4726959e-10
-4.4866035e-12
2.4583467e-10
1.9791473e-12
2.4509404e-10
2.4419589e-12
2.4623173e-10
-3.1837729e-12
2.4526066e-10
2.8153432e-12
2.4625684e-10
-2.7972659e-12
2.4534136e-10
2.5889433e-12
2.4621077e-10
-2.4482368e-12
2.4539904e-10
2.2894817e-12
2.461622e-10
-2.1508272e-12
2.4544695e-10
2.0165444e-12
2.4611846e-10
-1.8928338e-12
2.4548846e-10
1.7760296e-12
2.4607994e-10
-1.6672696e-12
2.4552474e-10
1.5651313e-12
2.4604618e-10
-1.4698262e-12
2.4555646e-10
1.3804755e-12
2.4601662e-10
-1.2970765e-12
2.4558419e-10
1.2189679e-12
2.4599079e-10
-1.1460785e-12
2.456084e-10
1.077878e-12
2.4596825e-10
-1.0142688e-12
2.456295e-10
9.5481602e-13
2.4594861e-10
-8.9941106e-13
2.4564786e-10
8.4769581e-13
2.4593154e-10
-7.9955644e-13
2.4566378e-10
7.5470047e-13
2.4591677e-10
-7.1301057e-13
2.4567753e-10
6.7425162e-13
2.4590402e-10
-6.3830473e-13
2.4568936e-10
6.0498323e-13
2.458931e-10
-5.7417069e-13
2.4569945e-10
5.4571872e-13
2.4588381e-10
-5.19519e-13
2.4570799e-10
4.9545128e-13
2.45876e-10
-4.7342055e-13
2.4571512e-10
4.5332672e-13
2.4586953e-10
-4.3509085e-13
2.4572097e-10
4.1862862e-13
2.458643e-10
-4.0387676e-13
2.4572562e-10
3.907656e-13
2.4586022e-10
-3.7924506e-13
2.4572916e-10
3.6926057e-13
2.458572e-10
-3.6076829e-13
2.4573166e-10
3.5375244e-13
2.458552e-10
-3.4813509e-13
2.4573345e-10
3.4327966e-13
2.4585785e-10
-3.4773246e-13
3.2881585e-13
3.3411189e-10
4.6053444e-09
3.4108228e-10
-1.1456996e-11
3.3892682e-10
4.1346117e-12
3.3837196e-10
2.9968157e-12
3.3943693e-10
-4.2487412e-12
3.3856874e-10
3.6835314e-12
3.3949895e-10
-3.7274733e-12
3.3865164e-10
3.4362486e-12
3.3946054e-10
-3.2571327e-12
3.387068e-10
3.0432189e-12
3.394161e-10
-2.8601265e-12
3.3875163e-10
2.6810186e-12
3.3937562e-10
-2.5168307e-12
3.3879029e-10
2.3613672e-12
3.393399e-10
-2.216881e-12
3.3882403e-10
2.0810001e-12
3.3930856e-10
-1.9543594e-12
3.3885353e-10
1.8355065e-12
3.3928113e-10
-1.7246773e-12
3.3887932e-10
1.6207855e-12
3.3925716e-10
-1.5239172e-12
3.3890182e-10
1.4332089e-12
3.3923623e-10
-1.3486701e-12
3.3892144e-10
1.2696e-12
3.3921799e-10
-1.1959621e-12
3.389385e-10
1.1271852e-12
3.3920215e-10
-1.063202e-12
3.389533e-10
1.003549e-12
3.3918843e-10
-9.4813676e-13
3.3896609e-10
8.9659307e-13
3.3917659e-10
-8.488133e-13
3.3897708e-10
8.0450122e-13
3.3916645e-10
-7.6354525e-13
3.3898646e-10
7.2570921e-13
3.3915782e-10
-6.908839e-13
3.389944e-10
6.5887831e-13
3.3915057e-10
-6.2959374e-13
3.3900102e-10
6.0287261e-13
3.3914456e-10
-5.7863149e-13
3.3900645e-10
5.5673914e-13
3.3913971e-10
-5.3712816e-13
3.3901078e-10
5.1969071e-13
3.3913591e-10
-5.0437344e-13
3.3901408e-10
4.910909e-13
3.391331e-10
-4.79794e-13
3.390164e-10
4.7045916e-13
3.3913121e-10
-4.6295066e-13
3.3901812e-10
4.5637019e-13
3.3913477e-10
-4.6438402e-13
4.3624454e-13
4.2279523e-10
5.5287991e-09
4.3222117e-10
-2.0882934e-11
4.2952992e-10
6.8258599e-12
4.2913693e-10
3.3898104e-12
4.3012355e-10
-5.2353614e-12
4.2935699e-10
4.4500939e-12
4.3022047e-10
-4.590952e-12
4.294412e-10
4.2155101e-12
4.3018919e-10
-4.0051226e-12
4.2949366e-10
3.7387513e-12
4.3014882e-10
-3.5152871e-12
4.2953535e-10
3.2944902e-12
4.301116e-10
-3.0930821e-12
4.2957113e-10
2.9018383e-12
4.3007868e-10
-2.7244255e-12
4.2960233e-10
2.557348e-12
4.3004978e-10
-2.4018118e-12
4.296296e-10
2.2556913e-12
4.3002448e-10
-2.1195626e-12
4.2965342e-10
1.9918443e-12
4.3000236e-10
-1.872857e-12
4.2967422e-10
1.7613517e-12
4.2998306e-10
-1.6575045e-12
4.2969235e-10
1.5603101e-12
4.2996623e-10
-1.4698503e-12
4.2970811e-10
1.3853116e-12
4.2995162e-10
-1.3067096e-12
4.2972178e-10
1.2333879e-12
4.2993895e-10
-1.1653136e-12
4.2973359e-10
1.1019606e-12
4.2992803e-10
-1.0432619e-12
4.2974374e-10
9.8879816e-13
4.2991867e-10
-9.3848183e-13
4.297524e-10
8.9197823e-13
4.2991071e-10
-8.4919286e-13
4.2975974e-10
8.0985561e-13
4.2990402e-10
-7.7387645e-13
4.2976586e-10
7.4103411e-13
4.2989848e-10
-7.1125018e-13
4.2977087e-10
6.8434202e-13
4.2989399e-10
-6.6024539e-13
4.2977487e-10
6.3881078e-13
4.2989048e-10
-6.1998729e-13
4.2977792e-10
6.036553e-13
4.2988789e-10
-5.8976456e-13
4.2978006e-10
5.7828327e-13
4.2988611e-10
-5.6900025e-13
4.297817e-10
5.6078117e-13
4.2989035e-10
-5.7303046e-13
5.3503332e-13
5.0897699e-10
6.3660722e-09
5.206882e-10
-3.2594143e-11
5.1764287e-10
9.8711879e-12
5.173914e-10
3.641277e-12
5.1829161e-10
-6.1355635e-12
5.1762532e-10
5.1163817e-12
5.1842154e-10
-5.3871703e-12
5.1770995e-10
4.9270926e-12
5.1839686e-10
-4.6920254e-12
5.1775954e-10
4.3760707e-12
5.1836047e-10
-4.1162215e-12
5.1779805e-10
3.8569119e-12
5.1832649e-10
-3.6215247e-12
5.1783094e-10
3.3973944e-12
5.1829636e-10
-3.1898496e-12
5.1785958e-10
2.9941307e-12
5.182699e-10
-2.8121361e-12
5.1788461e-10
2.6409895e-12
5.1824673e-10
-2.4816904e-12
5.1790647e-10
2.3321079e-12
5.1822647e-10
-2.1928605e-12
5.1792555e-10
2.0622733e-12
5.1820879e-10
-1.9407387e-12
5.1794218e-10
1.8269165e-12
5.1819338e-10
-1.7210455e-12
5.1795664e-10
1.6220479e-12
5.1817998e-10
-1.5300523e-12
5.1796918e-10
1.4441927e-12
5.1816838e-10
-1.3645169e-12
5.1798001e-10
1.2903322e-12
5.1815838e-10
-1.2216287e-12
5.1798932e-10
1.157854e-12
5.181498e-10
-1.0989607e-12
5.1799727e-10
1.0445077e-12
5.181425e-10
-9.9442818e-13
5.1800399e-10
9.4836695e-13
5.1813637e-10
-9.0625288e-13
5.1800961e-10
8.6779668e-13
5.1813129e-10
-8.329329e-13
5.1801421e-10
8.0142441e-13
5.1812718e-10
-7.7321614e-13
5.1801787e-10
7.4811458e-13
5.1812396e-10
-7.2607597e-13
5.1802067e-10
7.0694417e-13
5.1812158e-10
-6.9067111e-13
5.1802265e-10
6.7721651e-13
5.1811992e-10
-6.662767e-13
5.1802418e-10
6.5652128e-13
5.1812463e-10
-6.734793e-13
6.2510913e-13
5.9271268e-10
7.1196095e-09
6.0649377e-10
-4.637523e-11
6.0326331e-10
1.3101652e-11
6.031358e-10
3.7687877e-12
6.0394119e-10
-6.9409576e-12
6.0337359e-10
5.6839801e-12
6.041023e-10
-6.1158801e-12
6.0345776e-10
5.5716292e-12
6.0408364e-10
-5.3179029e-12
6.0350431e-10
4.9553979e-12
6.0405115e-10
-4.6630591e-12
6.0353963e-10
4.3684389e-12
6.0402039e-10
-4.1022863e-12
6.0356962e-10
3.8481655e-12
6.0399303e-10
-3.6132675e-12
6.035957e-10
3.3914605e-12
6.03969e-10
-3.1854328e-12
6.0361849e-10
2.9914992e-12
6.0394795e-10
-2.8111491e-12
6.036384e-10
2.6416619e-12
6.0392954e-10
-2.4840052e-12
6.0365577e-10
2.3360486e-12
6.0391347e-10
-2.1984407e-12
6.036709e-10
2.0694846e-12
6.0389946e-10
-1.9496077e-12
6.0368406e-10
1.8374515e-12
6.0388729e-10
-1.7332827e-12
6.0369547e-10
1.6360136e-12
6.0387674e-10
-1.5457929e-12
6.0370532e-10
1.4617521e-12
6.0386765e-10
-1.3839545e-12
6.037138e-10
1.3117082e-12
6.0385985e-10
-1.2450183e-12
6.0372103e-10
1.1833328e-12
6.0385322e-10
-1.1266225e-12
6.0372715e-10
1.0744438e-12
6.0384765e-10
-1.0267526e-12
6.0373225e-10
9.8318899e-13
6.0384303e-10
-9.4370694e-13
6.0373644e-10
9.0801279e-13
6.0383929e-10
-8.7606592e-13
6.0373978e-10
8.4762714e-13
6.0383636e-10
-8.2266386e-13
6.0374233e-10
8.0098174e-13
6.0383419e-10
-7.8253769e-13
6.0374413e-10
7.6728275e-13
6.0383265e-10
-7.5480545e-13
6.0374555e-10
7.4362704e-13
6.0383767e-10
-7.6559557e-13
7.0648426e-13
6.7406407e-10
7.7917954e-09
6.8965416e-10
-6.1965325e-11
6.863878e-10
1.6368014e-11
6.8636688e-10
3.7897088e-12
6.8707261e-10
-7.6466864e-12
6.866016e-10
6.1549887e-12
6.8726287e-10
-6.777154e-12
6.8668452e-10
6.1499859e-12
6.8724965e-10
-5.8830327e-12
6.8672789e-10
5.4771577e-12
6.8722095e-10
-5.1561224e-12
6.8675998e-10
4.8294066e-12
6.8719336e-10
-4.5356646e-12
6.8678709e-10
4.2544405e-12
6.8716876e-10
-3.994943e-12
6.8681063e-10
3.74959e-12
6.8714714e-10
-3.5219343e-12
6.8683119e-10
3.3074418e-12
6.8712819e-10
-3.1081429e-12
6.8684915e-10
2.9207007e-12
6.8711161e-10
-2.7464709e-12
6.8686481e-10
2.5828483e-12
6.8709714e-10
-2.4307688e-12
6.8687846e-10
2.2881646e-12
6.8708453e-10
-2.1556765e-12
6.8689033e-10
2.0316547e-12
6.8707357e-10
-1.9165241e-12
6.8690062e-10
1.8089676e-12
6.8706407e-10
-1.7092508e-12
6.869095e-10
1.616324e-12
6.8705588e-10
-1.5303364e-12
6.8691714e-10
1.4504527e-12
6.8704886e-10
-1.3767412e-12
6.8692366e-10
1.3085357e-12
6.8704289e-10
-1.2458535e-12
6.8692917e-10
1.1881603e-12
6.8703787e-10
-1.135446e-12
6.8693378e-10
1.0872784e-12
6.8703371e-10
-1.0436365e-12
6.8693755e-10
1.0041691e-12
6.8703034e-10
-9.6885419e-13
6.8694056e-10
9.3740613e-13
6.870277e-10
-9.0980683e-13
6.8694286e-10
8.8582277e-13
6.8702574e-10
-8.6541809e-13
6.8694449e-10
8.4853501e-13
6.8702432e-10
-8.3464126e-13
6.8694579e-10
8.2216065e-13
6.8702949e-10
-8.4929407e-13
7.7923781e-13
7.5307887e-10
8.3849665e-09
7.7018886e-10
-7.9075317e-11
7.6701175e-10
1.9545121e-11
7.6707802e-10
3.7234398e-12
7.676865e-10
-8.2551654e-12
7.6730908e-10
6.5324126e-12
7.6790335e-10
-7.3714238e-12
7.6739011e-10
6.6632201e-12
7.6789497e-10
-6.3878841e-12
7.6743017e-10
5.9419538e-12
7.6786995e-10
-5.5959039e-12
7.6745905e-10
5.2403093e-12
7.6784549e-10
-4.9221065e-12
7.6748328e-10
4.6166477e-12
7.6782361e-10
-4.3352712e-12
7.6750431e-10
4.0688944e-12
7.6780436e-10
-3.8219882e-12
7.6752266e-10
3.5891468e-12
7.6778749e-10
-3.3729779e-12
7.6753868e-10
3.1695141e-12
7.6777273e-10
-2.9805271e-12
7.6755266e-10
2.8029274e-12
7.6775985e-10
-2.6379607e-12
7.6756483e-10
2.4831812e-12
7.6774862e-10
-2.3394616e-12
7.6757542e-10
2.2048558e-12
7.6773885e-10
-2.079962e-12
7.6758459e-10
1.9632302e-12
7.6773039e-10
-1.8550551e-12
7.6759252e-10
1.7542035e-12
7.677231e-10
-1.6609207e-12
7.6759933e-10
1.5742262e-12
7.6771684e-10
-1.4942598e-12
7.6760514e-10
1.4202405e-12
7.6771152e-10
-1.3522385e-12
7.6761006e-10
1.2896283e-12
7.6770705e-10
-1.2324391e-12
7.6761416e-10
1.1801664e-12
7.6770334e-10
-1.1328185e-12
7.6761752e-10
1.0899864e-12
7.6770034e-10
-1.0516705e-12
7.6762021e-10
1.0175383e-12
7.6769799e-10
-9.8758891e-13
7.6762226e-10
9.615493e-13
7.6769624e-10
-9.3939275e-13
7.6762372e-10
9.2105243e-13
7.6769495e-10
-9.0586512e-13
7.676249e-10
8.9220812e-13
7.6770014e-10
-9.2453328e-13
8.4349424e-13
8.2979518e-10
8.9014214e-09
8.4811805e-10
-9.7398192e-11
8.4512974e-10
2.2533434e-11
8.4526244e-10
3.5907405e-12
8.4578383e-10
-8.7765642e-12
8.4549577e-10
6.8204781e-12
8.4602379e-10
-7.8994405e-12
8.4557445e-10
7.1125516e-12
8.4601967e-10
-6.8331023e-12
8.4561108e-10
6.3505505e-12
8.4599822e-10
-5.9830493e-12
8.4563675e-10
5.6017841e-12
8.4597683e-10
-5.2621936e-12
8.4565814e-10
4.9353417e-12
8.4595764e-10
-4.6347658e-12
8.4567667e-10
4.3498602e-12
8.4594073e-10
-4.086047e-12
8.4569283e-10
3.8370419e-12
8.4592591e-10
-3.6060523e-12
8.4570694e-10
3.388478e-12
8.4591294e-10
-3.1865246e-12
8.4571925e-10
2.9966171e-12
8.4590162e-10
-2.8203258e-12
8.4572997e-10
2.6548265e-12
8.4589175e-10
-2.5012362e-12
8.4573929e-10
2.3573129e-12
8.4588317e-10
-2.2238381e-12
8.4574737e-10
2.0990297e-12
8.4587573e-10
-1.9834201e-12
8.4575434e-10
1.8755933e-12
8.4586932e-10
-1.7758979e-12
8.4576034e-10
1.6832094e-12
8.4586382e-10
-1.5977449e-12
8.4576545e-10
1.5186093e-12
8.4585914e-10
-1.4459308e-12
8.4576978e-10
1.3789937e-12
8.4585521e-10
-1.3178707e-12
8.4577339e-10
1.2619856e-12
8.4585195e-10
-1.2113796e-12
8.4577635e-10
1.1655866e-12
8.4584931e-10
-1.1246318e-12
8.4577871e-10
1.0881367e-12
8.4584724e-10
-1.0561197e-12
8.4578052e-10
1.0282683e-12
8.458457e-10
-1.0045664e-12
8.4578181e-10
9.8493816e-13
8.4584453e-10
-9.68582e-13
8.4578286e-10
9.5387769e-13
8.4584964e-10
-9.9131067e-13
8.9941393e-13
9.0424622e-10
9.3434251e-09
9.2345982e-10
-1.1661179e-10
9.2073596e-10
2.5257292e-11
9.2091639e-10
3.4103047e-12
9.2136572e-10
-9.2258917e-12
9.2116154e-10
7.0246631e-12
9.2162425e-10
-8.362152e-12
9.2123745e-10
7.4993451e-12
9.2162384e-10
-7.2194906e-12
9.2127053e-10
6.703859e-12
9.2160583e-10
-6.3183451e-12
9.2129302e-10
5.9145993e-12
9.2158745e-10
-5.5566311e-12
9.213116e-10
5.2111923e-12
9.2157089e-10
-4.8940491e-12
9.2132767e-10
4.5930754e-12
9.2155628e-10
-4.3146585e-12
9.2134168e-10
4.0516439e-12
9.2154348e-10
-3.8078487e-12
9.2135391e-10
3.5780476e-12
9.2153227e-10
-3.3648887e-12
9.2136457e-10
3.1643184e-12
9.2152248e-10
-2.978239e-12
9.2137386e-10
2.8034542e-12
9.2151395e-10
-2.6413316e-12
9.2138193e-10
2.4893385e-12
9.2150653e-10
-2.3484456e-12
9.2138892e-10
2.2166431e-12
9.2150011e-10
-2.094606e-12
9.2139496e-10
1.9807395e-12
9.2149456e-10
-1.8754999e-12
9.2140015e-10
1.7776218e-12
9.2148981e-10
-1.6874034e-12
9.2140458e-10
1.6038384e-12
9.2148576e-10
-1.5271164e-12
9.2140832e-10
1.4564337e-12
9.2148236e-10
-1.3919093e-12
9.2141145e-10
1.3328972e-12
9.2147954e-10
-1.2794738e-12
9.2141401e-10
1.2311175e-12
9.2147726e-10
-1.1878804e-12
9.2141606e-10
1.1493389e-12
9.2147547e-10
-1.1155323e-12
9.2141763e-10
1.0861095e-12
9.2147413e-10
-1.0610664e-12
9.2141875e-10
1.0403174e-12
9.2147309e-10
-1.0229188e-12
9.2141967e-10
1.0072984e-12
9.2147802e-10
-1.0496594e-12
9.4718805e-13
9.764619e-10
9.7132132e-09
9.9622975e-10
-1.3637964e-10
9.9382464e-10
2.7662408e-11
9.9403964e-10
3.1953017e-12
9.9443314e-10
-9.6193911e-12
9.9430636e-10
7.1514414e-12
9.9470479e-10
-8.7605796e-12
9.9437904e-10
7.8250944e-12
9.9470754e-10
-7.5479953e-12
9.9440848e-10
7.0029257e-12
9.9469284e-10
-6.6027067e-12
9.9442779e-10
6.1796432e-12
9.946774e-10
-5.8062375e-12
9.9444362e-10
5.4449754e-12
9.9466341e-10
-5.1138432e-12
9.9445727e-10
4.7992214e-12
9.9465107e-10
-4.5084586e-12
9.9446916e-10
4.2335524e-12
9.9464024e-10
-3.9789269e-12
9.9447953e-10
3.7387506e-12
9.9463076e-10
-3.5161128e-12
9.9448858e-10
3.3064964e-12
9.9462248e-10
-3.1121358e-12
9.9449646e-10
2.9294748e-12
9.9461526e-10
-2.7601326e-12
9.945033e-10
2.6012955e-12
9.9460898e-10
-2.4541252e-12
9.9450923e-10
2.3163919e-12
9.9460354e-10
-2.1889152e-12
9.9451435e-10
2.069928e-12
9.9459885e-10
-1.959996e-12
9.9451875e-10
1.8577183e-12
9.9459482e-10
-1.7634763e-12
9.9452251e-10
1.6761568e-12
9.945914e-10
-1.5960123e-12
9.9452568e-10
1.5221548e-12
9.9458852e-10
-1.4547512e-12
9.9452833e-10
1.3930888e-12
9.9458614e-10
-1.3372806e-12
9.945305e-10
1.2867515e-12
9.945842e-10
-1.2415819e-12
9.9453224e-10
1.2013051e-12
9.9458269e-10
-1.165982e-12
9.9453357e-10
1.1352242e-12
9.9458155e-10
-1.1090406e-12
9.9453453e-10
1.0873358e-12
9.9458063e-10
-1.0690227e-12
9.9453531e-10
1.0526182e-12
9.945853e-10
-1.0996454e-12
9.8703342e-13
1.0464683e-09
1.0012995e-08
1.0664419e-09
-1.5635329e-10
1.06439e-09
2.9714312e-11
1.064634e-09
2.9513736e-12
1.0649868e-09
-9.9721741e-12
1.0649303e-09
7.2079002e-12
1.0652655e-09
-9.095735e-12
1.0649991e-09
8.0914082e-12
1.0652708e-09
-7.8196912e-12
1.0650248e-09
7.2489208e-12
1.0652593e-09
-6.8371671e-12
1.065041e-09
6.397914e-12
1.0652467e-09
-6.0119348e-12
1.0650541e-09
5.6375636e-12
1.0652353e-09
-5.2949613e-12
1.0650654e-09
4.9690649e-12
1.0652251e-09
-4.6681635e-12
1.0650752e-09
4.3834418e-12
1.0652162e-09
-4.1199179e-12
1.0650838e-09
3.8711812e-12
1.0652084e-09
-3.6407531e-12
1.0650913e-09
3.4236749e-12
1.0652016e-09
-3.2225071e-12
1.0650977e-09
3.0333508e-12
1.0651957e-09
-2.858073e-12
1.0651034e-09
2.6935931e-12
1.0651905e-09
-2.5412612e-12
1.0651083e-09
2.3986389e-12
1.0651861e-09
-2.266689e-12
1.0651125e-09
2.1434813e-12
1.0651822e-09
-2.0296903e-12
1.0651161e-09
1.9237871e-12
1.0651789e-09
-1.8262359e-12
1.0651192e-09
1.7358227e-12
1.0651761e-09
-1.6528633e-12
1.0651218e-09
1.5763902e-12
1.0651737e-09
-1.5066185e-12
1.065124e-09
1.4427727e-12
1.0651717e-09
-1.3850026e-12
1.0651258e-09
1.3326833e-12
1.0651701e-09
-1.2859237e-12
1.0651272e-09
1.2442162e-12
1.0651689e-09
-1.207644e-12
1.0651283e-09
1.1757834e-12
1.065168e-09
-1.1486563e-12
1.0651291e-09
1.126158e-12
1.0651672e-09
-1.1070593e-12
1.0651298e-09
1.0900027e-12
1.0651715e-09
-1.1413655e-12
1.0191873e-12
1.1142854e-09
1.024496e-08
1.1341095e-09
-1.7617747e-10
1.1324272e-09
3.1396668e-11
1.1327017e-09
2.6768589e-12
1.1330269e-09
-1.0297392e-11
1.1330334e-09
7.201381e-12
1.1333063e-09
-9.3685817e-12
1.1330977e-09
8.2999976e-12
1.1333138e-09
-8.0357691e-12
1.1331196e-09
7.4431279e-12
1.1333053e-09
-7.0228665e-12
1.1331327e-09
6.57051e-12
1.1332955e-09
-6.1747393e-12
1.1331431e-09
5.7899175e-12
1.1332865e-09
-5.4382997e-12
1.1331521e-09
5.1034502e-12
1.1332785e-09
-4.7945625e-12
1.1331599e-09
4.5020554e-12
1.1332715e-09
-4.2315172e-12
1.1331666e-09
3.975994e-12
1.1332653e-09
-3.7394229e-12
1.1331726e-09
3.5164314e-12
1.1332599e-09
-3.3098942e-12
1.1331777e-09
3.1155923e-12
1.1332553e-09
-2.9356317e-12
1.1331822e-09
2.7666827e-12
1.1332512e-09
-2.6102778e-12
1.133186e-09
2.4637844e-12
1.1332477e-09
-2.3283045e-12
1.1331894e-09
2.2017556e-12
1.1332446e-09
-2.084919e-12
1.1331923e-09
1.9761462e-12
1.133242e-09
-1.8759831e-12
1.1331947e-09
1.7831218e-12
1.1332398e-09
-1.6979406e-12
1.1331968e-09
1.6193978e-12
1.1332379e-09
-1.5477569e-12
1.1331985e-09
1.4821836e-12
1.1332364e-09
-1.4228647e-12
1.1331999e-09
1.3691289e-12
1.1332351e-09
-1.3211134e-12
1.133201e-09
1.2782731e-12
1.1332341e-09
-1.2407129e-12
1.1332019e-09
1.2079764e-12
1.1332334e-09
-1.1800988e-12
1.1332026e-09
1.156966e-12
1.1332327e-09
-1.1372116e-12
1.1332031e-09
1.1196334e-12
1.1332367e-09
-1.1749447e-12
1.0439025e-12
1.179922e-09
1.0411288e-08
1.1992451e-09
-1.9550051e-10
1.1979365e-09
3.2705232e-11
1.1982447e-09
2.3686661e-12
1.1985537e-09
-1.0606439e-11
1.1986159e-09
7.1392721e-12
1.1988273e-09
-9.5800382e-12
1.1986746e-09
8.4526677e-12
1.1988364e-09
-8.1975259e-12
1.1986926e-09
7.5869342e-12
1.1988308e-09
-7.1610422e-12
1.1987027e-09
6.6986208e-12
1.1988237e-09
-6.2957531e-12
1.1987105e-09
5.9030783e-12
1.198817e-09
-5.5448306e-12
1.1987172e-09
5.2032925e-12
1.1988112e-09
-4.8885119e-12
1.198723e-09
4.5901989e-12
1.198806e-09
-4.3144793e-12
1.1987281e-09
4.0538992e-12
1.1988014e-09
-3.8127876e-12
1.1987325e-09
3.5853924e-12
1.1987975e-09
-3.374885e-12
1.1987363e-09
3.1767527e-12
1.198794e-09
-2.9933285e-12
1.1987396e-09
2.8210542e-12
1.198791e-09
-2.661636e-12
1.1987425e-09
2.5122633e-12
1.1987884e-09
-2.3741712e-12
1.198745e-09
2.2451381e-12
1.1987861e-09
-2.1260474e-12
1.1987471e-09
2.0151417e-12
1.1987842e-09
-1.9130453e-12
1.1987489e-09
1.8183649e-12
1.1987825e-09
-1.7315389e-12
1.1987505e-09
1.6514587e-12
1.1987812e-09
-1.5784338e-12
1.1987518e-09
1.5115773e-12
1.19878e-09
-1.4511117e-12
1.1987528e-09
1.3963233e-12
1.1987791e-09
-1.3473773e-12
1.1987537e-09
1.3036943e-12
1.1987783e-09
-1.2654006e-12
1.1987543e-09
1.2320096e-12
1.1987778e-09
-1.2035699e-12
1.1987548e-09
1.1799582e-12
1.1987773e-09
-1.159678e-12
1.1987552e-09
1.1417065e-12
1.1987808e-09
-1.2005345e-12
1.0614437e-12
1.2433635e-09
1.0514174e-08
1.2618597e-09
-2.1399671e-10
1.2609352e-09
3.3629789e-11
1.2612634e-09
2.0403903e-12
1.2615667e-09
-1.0909747e-11
1.2616774e-09
7.0286675e-12
1.2618285e-09
-9.7311895e-12
1.2617299e-09
8.5512555e-12
1.2618388e-09
-8.3063784e-12
1.2617439e-09
7.6818141e-12
1.2618359e-09
-7.2530217e-12
1.261751e-09
6.783518e-12
1.2618314e-09
-6.3761563e-12
1.2617563e-09
5.9781595e-12
1.2618271e-09
-5.6155944e-12
1.2617608e-09
5.2695713e-12
1.2618232e-09
-4.9509285e-12
1.2617647e-09
4.6487347e-12
1.2618198e-09
-4.3696121e-12
1.261768e-09
4.1056569e-12
1.2618168e-09
-3.8615601e-12
1.261771e-09
3.6312288e-12
1.2618142e-09
-3.4181092e-12
1.2617735e-09
3.2174253e-12
1.2618119e-09
-3.0317207e-12
1.2617757e-09
2.857233e-12
1.2618099e-09
-2.6958299e-12
1.2617777e-09
2.544542e-12
1.2618082e-09
-2.4047285e-12
1.2617793e-09
2.2740441e-12
1.2618067e-09
-2.1534676e-12
1.2617807e-09
2.0411449e-12
1.2618055e-09
-1.937774e-12
1.2617819e-09
1.8418856e-12
1.2618044e-09
-1.7539752e-12
1.2617829e-09
1.6728744e-12
1.2618035e-09
-1.598937e-12
1.2617838e-09
1.5312288e-12
1.2618027e-09
-1.4700066e-12
1.2617845e-09
1.4145195e-12
1.2618021e-09
-1.3649589e-12
1.2617851e-09
1.3207152e-12
1.2618016e-09
-1.281935e-12
1.2617855e-09
1.2481049e-12
1.2618012e-09
-1.2192865e-12
1.2617858e-09
1.1953478e-12
1.2618008e-09
-1.1746713e-12
1.2617861e-09
1.1564315e-12
1.2618039e-09
-1.21831e-12
1.0720849e-12
1.3045421e-09
1.0555882e-08
1.3219517e-09
-2.3140632e-10
1.3214871e-09
3.4094349e-11
1.3217656e-09
1.7619467e-12
1.3220656e-09
-1.1209761e-11
1.3222176e-09
6.8766928e-12
1.3223097e-09
-9.8232913e-12
1.3222634e-09
8.5975726e-12
1.3223209e-09
-8.3638877e-12
1.3222734e-09
7.7293036e-12
1.3223206e-09
-7.300222e-12
1.3222776e-09
6.8265435e-12
1.3223186e-09
-6.4172005e-12
1.3222804e-09
6.0163399e-12
1.3223165e-09
-5.651694e-12
1.3222828e-09
5.3033234e-12
1.3223146e-09
-4.9827836e-12
1.3222848e-09
4.6785762e-12
1.3223129e-09
-4.397772e-12
1.3222865e-09
4.1320727e-12
1.3223115e-09
-3.8864961e-12
1.322288e-09
3.6546517e-12
1.3223102e-09
-3.4402343e-12
1.3222894e-09
3.2382386e-12
1.322309e-09
-3.0513991e-12
1.3222905e-09
2.8757759e-12
1.322308e-09
-2.7133837e-12
1.3222915e-09
2.5611151e-12
1.3223072e-09
-2.4204429e-12
1.3222923e-09
2.2889142e-12
1.3223064e-09
-2.167596e-12
1.322293e-09
2.05455e-12
1.3223058e-09
-1.9505425e-12
1.3222937e-09
1.8540384e-12
1.3223053e-09
-1.765586e-12
1.3222942e-09
1.6839656e-12
1.3223048e-09
-1.6095719e-12
1.3222946e-09
1.5414303e-12
1.3223044e-09
-1.4798295e-12
1.322295e-09
1.4239863e-12
1.3223041e-09
-1.3741171e-12
1.3222953e-09
1.3295859e-12
1.3223039e-09
-1.2905587e-12
1.3222955e-09
1.2564986e-12
1.3223037e-09
-1.2274795e-12
1.3222957e-09
1.2033613e-12
1.3223034e-09
-1.1824174e-12
1.3222958e-09
1.1640306e-12
1.322306e-09
-1.2284677e-12
1.0761067e-12
1.3633654e-09
1.0538767e-08
1.3795057e-09
-2.4754667e-10
1.3796786e-09
3.3921452e-11
1.3797759e-09
1.6646267e-12
1.3800539e-09
-1.1487676e-11
1.380238e-09
6.6925169e-12
1.3802713e-09
-9.8565763e-12
1.3802751e-09
8.5937769e-12
1.3802828e-09
-8.3715875e-12
1.3802811e-09
7.7310536e-12
1.380285e-09
-7.3041167e-12
1.3802824e-09
6.8291121e-12
1.3802854e-09
-6.4201984e-12
1.3802829e-09
6.0188578e-12
1.3802855e-09
-5.6542872e-12
1.3802832e-09
5.3056384e-12
1.3802855e-09
-4.9850977e-12
1.3802834e-09
4.680683e-12
1.3802855e-09
-4.3998588e-12
1.3802835e-09
4.1339925e-12
1.3802854e-09
-3.8883896e-12
1.3802837e-09
3.6564081e-12
1.3802854e-09
-3.4419622e-12
1.3802838e-09
3.2398534e-12
1.3802854e-09
-3.0529851e-12
1.3802839e-09
2.8772684e-12
1.3802853e-09
-2.7148486e-12
1.380284e-09
2.5625027e-12
1.3802853e-09
-2.4218047e-12
1.380284e-09
2.2902122e-12
1.3802853e-09
-2.1688706e-12
1.3802841e-09
2.055772e-12
1.3802853e-09
-1.9517437e-12
1.3802841e-09
1.8551964e-12
1.3802853e-09
-1.766726e-12
1.3802841e-09
1.6850701e-12
1.3802852e-09
-1.6106608e-12
1.3802842e-09
1.5424899e-12
1.3802852e-09
-1.4808753e-12
1.3802842e-09
1.4250073e-12
1.3802852e-09
-1.3751249e-12
1.3802842e-09
1.3305706e-12
1.3802852e-09
-1.2915276e-12
1.3802843e-09
1.2574396e-12
1.3802852e-09
-1.2283922e-12
1.3802843e-09
1.2042378e-12
1.380285e-09
-1.1831539e-12
1.3802843e-09
1.164737e-12
1.3802871e-09
-1.2312231e-12
1.0737955e-12
1.4199121e-09
1.0465104e-08
1.434558e-09
-2.6219261e-10
1.4354374e-09
3.3042041e-11
1.4352856e-09
1.816514e-12
1.4355279e-09
-1.1730029e-11
1.4357378e-09
6.4826412e-12
1.4357132e-09
-9.8319484e-12
1.435765e-09
8.5419031e-12
1.4357246e-09
-8.3311525e-12
1.4357669e-09
7.6887596e-12
1.435729e-09
-7.2662526e-12
1.4357654e-09
6.7926951e-12
1.4357318e-09
-6.3865204e-12
1.4357636e-09
5.9870042e-12
1.4357339e-09
-5.6245824e-12
1.4357619e-09
5.2776519e-12
1.4357357e-09
-4.9589355e-12
1.4357604e-09
4.656056e-12
1.4357373e-09
-4.3768112e-12
1.435759e-09
4.1122993e-12
1.4357387e-09
-3.8680693e-12
1.4357578e-09
3.6372778e-12
1.4357399e-09
-3.4240253e-12
1.4357568e-09
3.2229592e-12
1.4357409e-09
-3.0371273e-12
1.4357559e-09
2.8623218e-12
1.4357418e-09
-2.7008002e-12
1.4357551e-09
2.5492479e-12
1.4357426e-09
-2.4093264e-12
1.4357544e-09
2.2784221e-12
1.4357433e-09
-2.1577491e-12
1.4357538e-09
2.0452442e-12
1.4357438e-09
-1.9417885e-12
1.4357533e-09
1.8457496e-12
1.4357443e-09
-1.7577657e-12
1.4357529e-09
1.6765409e-12
1.4357447e-09
-1.6025403e-12
1.4357525e-09
1.5347298e-12
1.4357451e-09
-1.4734528e-12
1.4357522e-09
1.4178793e-12
1.4357453e-09
-1.3682683e-12
1.435752e-09
1.3239455e-12
1.4357455e-09
-1.2851096e-12
1.4357518e-09
1.2511889e-12
1.4357457e-09
-1.2222795e-12
1.4357517e-09
1.1982274e-12
1.4357457e-09
-1.177129e-12
1.4357516e-09
1.1587946e-12
1.4357472e-09
-1.2268085e-12
1.0654417e-12
1.4743219e-09
1.0337033e-08
1.4871486e-09
-2.7501933e-10
1.4886191e-09
3.1571537e-11
1.488276e-09
2.1596401e-12
1.4884828e-09
-1.1936823e-11
1.4887154e-09
6.2500282e-12
1.4886348e-09
-9.7513692e-12
1.4887329e-09
8.4438096e-12
1.4886462e-09
-8.2444116e-12
1.4887308e-09
7.6041512e-12
1.4886528e-09
-7.1882445e-12
1.4887267e-09
6.7188139e-12
1.4886577e-09
-6.3175893e-12
1.4887226e-09
5.9221167e-12
1.4886619e-09
-5.5638327e-12
1.488719e-09
5.2205416e-12
1.4886655e-09
-4.9054013e-12
1.4887158e-09
4.6057326e-12
1.4886686e-09
-4.3296029e-12
1.488713e-09
4.0679083e-12
1.4886713e-09
-3.8263946e-12
1.4887105e-09
3.5980691e-12
1.4886737e-09
-3.3871835e-12
1.4887083e-09
3.1882715e-12
1.4886757e-09
-3.0044987e-12
1.4887065e-09
2.8315702e-12
1.4886775e-09
-2.6718361e-12
1.4887048e-09
2.5219146e-12
1.4886791e-09
-2.3835398e-12
1.4887034e-09
2.2540468e-12
1.4886804e-09
-2.1347068e-12
1.4887022e-09
2.0234168e-12
1.4886815e-09
-1.9211033e-12
1.4887012e-09
1.8261032e-12
1.4886825e-09
-1.7390903e-12
1.4887003e-09
1.6587449e-12
1.4886833e-09
-1.5855607e-12
1.4886996e-09
1.5184848e-12
1.488684e-09
-1.457883e-12
1.488699e-09
1.4029108e-12
1.4886845e-09
-1.3538445e-12
1.4886985e-09
1.3099979e-12
1.488685e-09
-1.2715833e-12
1.4886981e-09
1.2380176e-12
1.4886853e-09
-1.2094064e-12
1.4886979e-09
1.1855903e-12
1.4886854e-09
-1.1646007e-12
1.4886977e-09
1.1464566e-12
1.4886864e-09
-1.2154712e-12
1.0513388e-12
1.5265901e-09
1.0156692e-08
1.5372697e-09
-2.8569898e-10
1.5391992e-09
2.9642087e-11
1.5387628e-09
2.5959875e-12
1.5389199e-09
-1.2093963e-11
1.5391719e-09
5.9980629e-12
1.5390367e-09
-9.6161878e-12
1.5391789e-09
8.3016083e-12
1.5390477e-09
-8.1131684e-12
1.5391728e-09
7.4790444e-12
1.5390563e-09
-7.0717455e-12
1.5391661e-09
6.6090428e-12
1.5390633e-09
-6.2148708e-12
1.5391599e-09
5.825576e-12
1.5390694e-09
-5.473331e-12
1.5391544e-09
5.1355226e-12
1.5390746e-09
-4.8256345e-12
1.5391496e-09
4.5307839e-12
1.5390792e-09
-4.259239e-12
1.5391454e-09
4.0017643e-12
1.5390832e-09
-3.7642531e-12
1.5391417e-09
3.5396168e-12
1.5390867e-09
-3.3322214e-12
1.5391385e-09
3.1365286e-12
1.5390898e-09
-2.9557942e-12
1.5391357e-09
2.7856686e-12
1.5390924e-09
-2.6285731e-12
1.5391332e-09
2.4810848e-12
1.5390947e-09
-2.3449944e-12
1.5391311e-09
2.2176055e-12
1.5390966e-09
-2.1002348e-12
1.5391293e-09
1.990755e-12
1.5390983e-09
-1.8901293e-12
1.5391278e-09
1.7966759e-12
1.5390998e-09
-1.711098e-12
1.5391265e-09
1.6320617e-12
1.539101e-09
-1.5600841e-12
1.5391254e-09