/*--------------------------------*- C++ -*----------------------------------*\
| =========                 |                                                 |
| \\      /  F ield         | OpenFOAM: The Open Source CFD Toolbox           |
|  \\    /   O peration     | Version:  2312                                  |
|   \\  /    A nd           | Website:  www.openfoam.com                      |
|    \\/     M anipulation  |                                                 |
\*---------------------------------------------------------------------------*/
FoamFile
{
    version     2.0;
    format      ascii;
    arch        "LSB;label=32;scalar=64";
    class       volScalarField;
    location    "3";
    object      T;
}
// * * * * * * * * * * * * * * * * * * * * * * * * * * * * * * * * * * * * * //

dimensions      [0 0 0 1 0 0 0];

internalField   nonuniform List<scalar> 
4000
(
309.26115
310.16148
310.2895
310.37101
310.43277
310.492
310.54265
310.59466
310.64098
310.6894
310.73351
310.7798
310.82261
310.86748
310.90945
310.95331
310.99471
311.03783
311.07882
311.12136
311.16202
311.20406
311.24442
311.28601
311.32605
311.3672
311.40689
311.4476
311.48694
311.52723
311.56622
311.60612
311.64479
311.68436
311.72275
311.76206
311.80022
311.83933
311.87731
311.9163
311.95416
311.99312
312.03091
312.06992
312.10766
312.1468
312.18445
312.22384
312.26119
312.30153
307.44591
309.25766
309.56162
309.72764
309.83458
309.93389
310.00751
310.08517
310.14582
310.21273
310.26674
310.32725
310.37735
310.43361
310.4812
310.53445
310.58033
310.63134
310.67598
310.72526
310.76891
310.81672
310.85946
310.90591
310.9477
310.99282
311.0336
311.0774
311.11711
311.15964
311.19831
311.23968
311.27739
311.31778
311.35465
311.39423
311.43041
311.4694
311.50504
311.54367
311.57894
311.61748
311.65252
311.69122
311.72611
311.7652
311.79981
311.83964
311.87336
311.91597
306.13321
308.36641
308.8365
309.08582
309.23767
309.37673
309.47331
309.57645
309.65145
309.73673
309.80068
309.87532
309.93275
310.00033
310.05358
310.11615
310.16653
310.22539
310.27371
310.32968
310.37636
310.4299
310.47507
310.52636
310.56995
310.61905
310.66095
310.70786
310.748
310.79282
310.83122
310.87411
310.91091
310.95215
310.98756
311.02746
311.06169
311.1006
311.13392
311.17222
311.20491
311.24304
311.27535
311.31373
311.34576
311.38479
311.41638
311.45662
311.48673
311.53141
305.14862
307.50133
308.11829
308.44776
308.64368
308.82175
308.94113
309.06936
309.15869
309.2621
309.33601
309.4246
309.4894
309.56816
309.6271
309.69889
309.75382
309.82044
309.87248
309.93507
309.98481
310.04404
310.09167
310.14778
310.19324
310.24631
310.28942
310.33947
310.38013
310.42726
310.4655
310.50995
310.54595
310.58809
310.62212
310.66239
310.69477
310.73362
310.7647
310.80268
310.83284
310.87055
310.90015
310.9382
310.9674
311.00633
311.03491
311.07553
311.10208
311.14852
304.38876
306.67596
307.41253
307.81654
308.05481
308.27057
308.41236
308.56504
308.6686
308.78972
308.87358
308.97583
309.04803
309.13775
309.20243
309.28325
309.34277
309.417
309.4728
309.54191
309.59476
309.65958
309.70974
309.77063
309.81802
309.87505
309.91947
309.97268
310.01399
310.06348
310.10169
310.14776
310.18308
310.22619
310.25897
310.29965
310.33029
310.36913
310.39806
310.43574
310.46344
310.50073
310.52767
310.56535
310.59175
310.63055
310.65614
310.69707
310.72015
310.76797
303.78927
305.90205
306.72574
307.19596
307.47378
307.72524
307.8887
308.06488
308.18241
308.32067
308.41438
308.5299
308.60947
308.70985
308.78027
308.8699
308.93404
309.01569
309.07528
309.15074
309.20674
309.27705
309.3298
309.39538
309.44479
309.50576
309.55161
309.60799
309.65007
309.70198
309.7403
309.78805
309.82285
309.867
309.89868
309.93985
309.96888
310.00777
310.03465
310.07207
310.09739
310.13427
310.15859
310.19588
310.21951
310.25811
310.28076
310.32192
310.34165
310.39042
303.30824
305.18865
306.06483
306.59036
306.90372
307.18811
307.37211
307.5705
307.70157
307.85617
307.95956
308.08779
308.17467
308.28531
308.36145
308.45958
308.52833
308.61716
308.68055
308.76218
308.82135
308.897
308.95238
309.02256
309.07408
309.13894
309.18632
309.24587
309.28888
309.34324
309.38184
309.43135
309.4658
309.51106
309.54182
309.58355
309.61113
309.65012
309.6751
309.71229
309.73533
309.77178
309.79356
309.83042
309.85134
309.88968
309.90946
309.95072
309.96727
310.01654
302.91723
304.54177
305.43655
306.0044
306.34804
306.66182
306.86478
307.08369
307.22764
307.39759
307.51035
307.65063
307.74465
307.86506
307.94685
308.0531
308.12642
308.22214
308.28932
308.37687
308.43923
308.52002
308.57807
308.65273
308.70641
308.7751
308.82412
308.88683
308.93091
308.98776
309.02682
309.07814
309.11244
309.15888
309.1889
309.23127
309.25757
309.29675
309.31997
309.35697
309.37785
309.41389
309.43321
309.4696
309.48786
309.52587
309.54284
309.58408
309.59764
309.64696
302.59617
303.96446
304.84694
305.44273
305.81031
306.14917
306.36901
306.60642
306.76234
306.94643
307.06809
307.2196
307.32052
307.45012
307.53741
307.65133
307.72915
307.83139
307.90232
307.99551
308.06102
308.14674
308.20747
308.28644
308.34235
308.41476
308.46553
308.53137
308.57666
308.63602
308.67571
308.72891
308.76323
308.81095
308.84042
308.88351
308.90873
308.94816
308.96979
309.00665
309.02551
309.06113
309.0781
309.11397
309.12966
309.16724
309.18152
309.22255
309.23337
309.28229
302.3304
303.45699
304.30099
304.90981
305.29409
305.65304
305.88722
306.14072
306.30745
306.50425
306.63421
306.79599
306.90346
307.04154
307.13413
307.2552
307.33739
307.44574
307.52033
307.61882
307.68745
307.77783
307.84123
307.92431
307.98248
308.05849
308.11108
308.18
308.22662
308.2885
308.32899
308.38411
308.41866
308.46772
308.49684
308.54074
308.56507
308.60483
308.62506
308.66183
308.67882
308.71404
308.72876
308.76408
308.7773
308.81434
308.82604
308.86668
308.87501
308.92312
302.10889
303.01729
303.80228
304.40956
304.80276
305.17628
305.42182
305.68868
305.8648
306.07267
306.21015
306.3811
306.49467
306.64045
306.73805
306.86567
306.95203
307.06603
307.14414
307.24756
307.31922
307.41396
307.47998
307.56696
307.62738
307.70684
307.7613
307.83322
307.88129
307.94566
307.98711
308.0442
308.07916
308.12962
308.1586
308.20339
308.22704
308.2672
308.28623
308.32296
308.33825
308.37307
308.3857
308.4204
308.43127
308.46767
308.47692
308.51697
308.52306
308.56999
301.92311
302.64139
303.35287
303.9452
304.33935
304.72156
304.97516
305.25234
305.43621
305.65331
305.7974
305.97629
306.09538
306.24797
306.35022
306.48371
306.57401
306.69312
306.77459
306.88251
306.95708
307.05583
307.1244
307.215
307.27766
307.36038
307.41675
307.49155
307.54116
307.60799
307.65054
307.7096
307.74515
307.79708
307.82611
307.87186
307.89504
307.93568
307.95372
307.99046
308.00424
308.03867
308.04934
308.08339
308.09203
308.12767
308.13464
308.17388
308.17801
308.22341
301.76637
302.32398
302.95329
303.51905
303.90643
304.29131
304.5494
304.83367
305.02343
305.24778
305.39739
305.58287
305.70681
305.86524
305.97169
306.11032
306.20424
306.32789
306.4125
306.52446
306.60176
306.70416
306.77516
306.86909
306.93392
307.01968
307.07796
307.1555
307.20672
307.27594
307.31971
307.38074
307.41704
307.47046
307.49975
307.54652
307.56944
307.61063
307.62788
307.6647
307.67716
307.71122
307.72011
307.75346
307.76002
307.79478
307.79962
307.83783
307.84026
307.88385
301.63331
302.05889
302.60261
303.13247
303.50595
303.8876
304.14649
304.43449
304.62812
304.8576
305.01152
305.20215
305.33016
305.49338
305.6035
305.74647
305.84364
305.97121
306.05868
306.17417
306.25402
306.35964
306.43293
306.52985
306.59676
306.68531
306.74547
306.82558
306.87843
306.94995
306.99504
307.05801
307.09522
307.15016
307.17988
307.22772
307.25058
307.29239
307.30906
307.34602
307.35736
307.39108
307.39836
307.43096
307.4356
307.46936
307.47226
307.50923
307.5102
307.55174
301.51963
301.83951
302.29869
302.7858
303.13918
303.51204
303.76806
304.05639
304.25177
304.48419
304.6411
304.83535
304.96657
305.13347
305.24665
305.39313
305.49312
305.62393
305.71395
305.83244
305.91458
306.02299
306.09837
306.19793
306.2668
306.35785
306.41982
306.5023
306.55679
306.63048
306.67696
306.74182
306.78005
306.83651
306.86682
306.91577
306.93877
306.98126
306.99757
307.03472
307.04515
307.07854
307.0844
307.11623
307.11912
307.15176
307.15291
307.18842
307.18816
307.22745
301.42182
301.65926
302.03836
302.47842
302.8067
303.16574
303.41539
303.70072
303.89568
304.12881
304.28731
304.48363
304.61711
304.78653
304.90212
305.05121
305.15352
305.28689
305.37908
305.5
305.58415
305.69488
305.77214
305.87394
305.9446
306.03786
306.10154
306.18615
306.24225
306.31797
306.36586
306.43254
306.4719
306.52985
306.5609
306.61098
306.6343
306.67751
306.69366
306.73106
306.74079
306.77389
306.77853
306.80954
306.81087
306.84228
306.84186
306.87574
306.87444
306.91133
301.33708
301.51181
301.81777
302.20886
302.50835
302.84927
303.08934
303.36852
303.5609
303.79254
303.95121
304.14799
304.28274
304.45349
304.57076
304.72155
304.82567
304.96085
305.05481
305.17757
305.26341
305.37596
305.45485
305.55849
305.63075
305.72587
305.79113
305.87762
305.93526
306.01282
306.06214
306.13053
306.17108
306.2305
306.26241
306.31362
306.33742
306.38139
306.39759
306.43527
306.44452
306.47735
306.48098
306.51114
306.5111
306.54118
306.53938
306.57144
306.5693
306.60367
301.26309
301.39137
301.63261
301.97492
302.2433
302.56266
302.79034
303.06047
303.24823
303.47625
303.63364
303.82932
303.9643
304.13518
304.25339
304.40494
304.51028
304.64655
304.74183
304.86583
304.953
305.06687
305.1471
305.25215
305.32578
305.42241
305.48909
305.57718
305.63625
305.71546
305.76618
305.83615
305.87794
305.93874
305.97162
306.02395
306.04837
306.09312
306.10954
306.14756
306.15654
306.18912
306.19194
306.22124
306.22002
306.24867
306.24568
306.27579
306.27296
306.30471
301.19804
301.29279
301.47843
301.77389
302.01014
302.30542
302.51839
302.77692
302.95816
303.18057
303.33527
303.52833
303.6625
303.83234
303.95068
304.10207
304.20804
304.34462
304.44077
304.56537
304.65351
304.76818
304.84944
304.95545
305.03022
305.12798
305.19589
305.28526
305.34565
305.42626
305.47832
305.54972
305.59275
305.65486
305.68877
305.74218
305.76736
305.81289
305.82972
305.8681
305.877
305.90936
305.91158
305.94001
305.93779
305.96495
305.96094
305.98897
305.98558
306.01467
301.14042
301.21164
301.35083
301.60265
301.80697
302.07657
302.27308
302.51787
302.69091
302.90589
303.05657
303.24554
303.37788
303.54552
303.66323
303.81352
303.9195
304.05566
304.15217
304.27676
304.36546
304.4804
304.56238
304.6689
304.74452
304.84302
304.91194
305.00228
305.06383
305.14559
305.19891
305.27155
305.31582
305.37912
305.41411
305.46854
305.49457
305.54088
305.55826
305.59702
305.60605
305.63821
305.64003
305.66757
305.66456
305.69016
305.6853
305.71116
305.70733
305.73371
301.08906
301.14422
301.24565
301.45792
301.63153
301.87473
302.05359
302.28297
302.44638
302.65232
302.79775
302.98131
303.11084
303.27519
303.39147
303.53978
303.64514
303.78014
303.87651
304.00048
304.08933
304.20401
304.28635
304.39293
304.46911
304.56797
304.63766
304.72863
304.79115
304.8738
304.92825
305.00194
305.04739
305.11175
305.14783
305.20321
305.23018
305.27723
305.29529
305.33445
305.34377
305.37576
305.37738
305.40403
305.40041
305.42441
305.41886
305.44248
305.4383
305.46198
301.04302
301.08753
301.15907
301.33637
301.48127
301.69818
301.8588
302.07156
302.22419
302.41975
302.55885
302.73579
302.86158
303.02162
303.13572
303.28119
303.38532
303.51844
303.61418
303.73691
303.8255
303.93941
304.02176
304.12793
304.20438
304.30319
304.3734
304.46466
304.52795
304.61119
304.66664
304.74115
304.78771
304.85297
304.89014
304.94637
304.97432
305.02207
305.04093
305.08048
305.09026
305.12209
305.12369
305.14946
305.1454
305.16777
305.16169
305.18303
305.17856
305.19955
301.00154
301.0392
301.08773
301.23477
301.35357
301.54498
301.68728
301.88268
302.02371
302.20781
302.33965
302.50892
302.63014
302.78495
302.89616
303.03799
303.1403
303.27086
303.36546
303.48638
303.57428
303.68691
303.76891
303.87424
303.95064
304.04901
304.11947
304.21066
304.2745
304.35804
304.41431
304.48942
304.53699
304.60298
304.6412
304.69816
304.72712
304.77551
304.79525
304.83518
304.84555
304.87725
304.87899
304.90388
304.89957
304.92029
304.9138
304.93285
304.92817
304.94649
300.96404
300.9974
301.0287
301.15012
301.24574
301.413
301.5374
301.71515
301.84406
302.01591
302.13976
302.30049
302.41639
302.56516
302.67281
302.81029
302.91019
303.03757
303.13054
303.2491
303.33591
303.44677
303.52806
303.63211
303.70815
303.80568
303.87612
303.9669
304.03105
304.11458
304.17151
304.24695
304.29541
304.36194
304.40115
304.45871
304.48868
304.53763
304.55832
304.5986
304.60968
304.64124
304.64329
304.66732
304.66289
304.68198
304.6752
304.69196
304.68712
304.70281
300.93005
300.96074
300.97954
301.07965
301.15519
301.30006
301.40737
301.56761
301.68419
301.84328
301.95857
302.11007
302.22005
302.36207
302.46558
302.59805
302.69503
302.81864
302.90952
303.0252
303.11051
303.21915
303.29938
303.40174
303.47711
303.57343
303.64357
303.73359
303.79781
303.88103
303.9384
304.01392
304.06312
304.12999
304.17011
304.22812
304.25908
304.30849
304.33017
304.37076
304.38265
304.41408
304.41656
304.43975
304.43535
304.45282
304.44585
304.46036
304.4554
304.46851
300.89919
300.92821
300.93827
301.02095
301.07947
301.204
301.29535
301.43855
301.54287
301.68896
301.79534
301.93711
302.04066
302.17536
302.27422
302.40113
302.49471
302.61403
302.7024
302.81472
302.89816
303.00415
303.08298
303.18325
303.25764
303.35239
303.42196
303.51088
303.57493
303.65752
303.71513
303.79047
303.84026
303.90725
303.94818
304.00648
304.03837
304.08814
304.11082
304.15166
304.16444
304.19573
304.19876
304.22113
304.21687
304.23275
304.2257
304.23799
304.23294
304.24356
300.87118
300.89909
300.90328
300.97191
301.01634
301.1227
301.19945
301.32638
301.41876
301.55188
301.64916
301.78089
301.87765
302.0046
302.09838
302.21926
302.30902
302.4236
302.50906
302.61761
302.69882
302.80177
302.87888
302.97671
303.04983
303.14266
303.21137
303.29888
303.36251
303.44418
303.50181
303.5767
303.6269
303.6938
303.73541
303.79383
303.8266
303.87661
303.90027
303.94131
303.95502
303.98615
303.98982
304.01139
304.00737
304.02171
304.01465
304.02479
304.01968
304.02787
300.84577
300.87287
300.87333
300.93076
300.96379
301.05417
301.11782
301.2295
301.31045
301.43084
301.51904
301.64058
301.73033
301.84921
301.93759
302.05207
302.13765
302.2471
302.32931
302.43372
302.51238
302.61193
302.68703
302.78208
302.85365
302.94425
303.01186
303.09764
303.16061
303.24107
303.2985
303.37268
303.42311
303.48969
303.53185
303.59021
303.62377
303.67388
303.69851
303.73965
303.75432
303.78527
303.78965
303.81044
303.80676
303.8196
303.81258
303.82065
303.81551
303.82135
300.82278
300.84918
300.84747
300.89606
300.92004
300.9966
301.0487
301.14628
301.2165
301.3246
301.40387
301.51527
301.59788
301.70853
301.79127
301.89908
301.9802
302.08421
302.16288
302.26282
302.33864
302.4345
302.50732
302.59928
302.66904
302.75713
302.82338
302.90716
302.96922
303.04821
303.10522
303.17844
303.22891
303.29494
303.33751
303.39563
303.42987
303.47995
303.50548
303.54665
303.56228
303.59301
303.59814
303.61818
303.61488
303.62629
303.61937
303.62545
303.6203
303.62389
300.80205
300.82778
300.82496
300.8666
300.88358
300.94832
300.99043
301.07518
301.13548
301.23188
301.30253
301.40397
301.47944
301.5818
301.65876
301.75972
301.83616
301.93451
302.00939
302.10461
302.17735
302.26924
302.33953
302.42816
302.49588
302.58118
302.64585
302.72737
302.78831
302.86556
302.92194
302.99395
303.04427
303.10955
303.15235
303.21005
303.24485
303.29476
303.32112
303.36223
303.37879
303.40928
303.41517
303.43447
303.43161
303.44164
303.43487
303.43904
303.4339
303.43534
300.78348
300.80851
300.80529
300.84145
300.85313
300.90788
300.94148
301.0147
301.06598
301.1514
301.21385
301.30562
301.37409
301.46821
301.53933
301.63336
301.70498
301.7975
301.8684
301.95871
302.02815
302.11588
302.18343
302.2685
302.33397
302.41626
302.47914
302.55817
302.61777
302.69305
302.74859
302.81916
302.86914
302.93345
302.97633
303.03342
303.06866
303.11826
303.14536
303.1863
303.20374
303.23394
303.24061
303.25917
303.25678
303.26549
303.25889
303.26125
303.25614
303.25555
300.76696
300.79124
300.78805
300.81986
300.82762
300.87402
300.90049
300.96348
301.00667
301.08191
301.13666
301.21918
301.28084
301.3669
301.4322
301.51932
301.58603
301.67264
301.73942
301.82469
301.89067
301.97406
302.0387
302.12003
302.18307
302.26216
302.32305
302.39938
302.45746
302.53055
302.58507
302.65398
302.70343
302.76656
302.80936
302.86567
302.90121
302.95034
302.97809
303.01876
303.03702
303.06687
303.07428
303.09212
303.09021
303.09766
303.09126
303.09192
303.08683
303.08432
300.75242
300.77587
300.77296
300.80126
300.8062
300.84565
300.86624
300.92025
300.95628
301.02219
301.0698
301.14359
301.19873
301.27698
301.33656
301.41684
301.47863
301.55932
301.6219
301.70203
301.76444
301.84337
301.90496
301.98241
302.04286
302.11859
302.17734
302.2508
302.30718
302.3779
302.4312
302.49827
302.54702
302.60878
302.65133
302.70668
302.74239
302.7909
302.81918
302.85947
302.87847
302.90792
302.91604
302.93316
302.93171
302.93797
302.93176
302.93082
302.92578
302.92146
300.7398
300.76233
300.75978
300.7852
300.78815
300.82184
300.83767
300.88385
300.91364
300.97111
301.01219
301.0778
301.12677
301.19753
301.25156
301.32516
301.38208
301.45689
301.51523
301.59021
301.64896
301.72337
301.7818
301.85528
301.91302
301.98526
302.04173
302.11218
302.1667
302.2349
302.28682
302.35186
302.39973
302.45995
302.50209
302.55632
302.59204
302.63981
302.66849
302.70829
302.72794
302.75692
302.76568
302.78208
302.78107
302.78621
302.78019
302.77776
302.77276
302.76677
300.72904
300.75053
300.74836
300.77132
300.77291
300.80184
300.81385
300.8533
300.87771
300.92758
300.96277
301.0208
301.064
301.12765
301.17636
301.2435
301.29565
301.36468
301.4188
301.48865
301.54371
301.61357
301.66877
301.73821
301.79314
301.86182
301.91588
301.98321
302.03575
302.10128
302.15168
302.21454
302.26137
302.3199
302.36147
302.41443
302.45002
302.49691
302.52586
302.56506
302.58525
302.6137
302.62303
302.63869
302.63809
302.64215
302.63633
302.63251
302.62756
302.62003
300.72007
300.7404
300.73853
300.75934
300.76003
300.78501
300.79401
300.82768
300.84751
300.89064
300.92055
300.97163
301.0095
301.06647
301.11011
301.17107
301.21859
301.28199
301.33196
301.39675
301.44812
301.51345
301.56539
301.63076
301.68282
301.74787
301.79945
301.86357
301.91402
301.97677
302.02552
302.08608
302.13173
302.18841
302.22926
302.28082
302.31614
302.36202
302.3911
302.4296
302.45021
302.47805
302.48786
302.50279
302.50254
302.50559
302.49994
302.49484
302.48993
302.48099
300.71282
300.73183
300.73017
300.74905
300.74914
300.77084
300.77748
300.80623
300.82221
300.85938
300.88463
300.9294
300.96237
301.01312
301.052
301.10709
301.15016
301.20814
301.25405
301.3139
301.36161
301.42245
301.47113
301.53245
301.58161
301.643
301.69204
301.7529
301.80117
301.86107
301.90805
301.9662
302.01053
302.06526
302.10525
302.15527
302.19019
302.23494
302.26403
302.30171
302.32261
302.34978
302.35997
302.37414
302.37419
302.37627
302.37077
302.36451
302.35964
302.34942
300.70717
300.7247
300.72315
300.74025
300.73994
300.75888
300.76371
300.78829
300.80105
300.83301
300.85418
300.89325
300.92179
300.96679
301.00124
301.05078
301.08963
301.14241
301.1844
301.23946
301.28358
301.34004
301.38547
301.44278
301.48903
301.54678
301.59323
301.6508
301.69684
301.75383
301.79895
301.8546
301.89751
301.95017
301.98919
302.03757
302.07195
302.11546
302.14442
302.18119
302.20225
302.22867
302.23914
302.25253
302.25281
302.25397
302.2486
302.24127
302.23644
302.22507
300.70297
300.7189
300.71735
300.73277
300.7322
300.7488
300.75224
300.77329
300.7834
300.81082
300.82845
300.86242
300.88697
300.9267
300.95706
301.00143
301.03629
301.08415
301.12237
301.17281
301.21345
301.26564
301.30788
301.36125
301.4046
301.45874
301.50259
301.55688
301.60064
301.65469
301.69789
301.75098
301.79237
301.84288
301.8808
301.92745
301.96117
302.00334
302.03205
302.0678
302.0889
302.11449
302.12512
302.13771
302.13816
302.13845
302.13316
302.12487
302.12008
302.1077
300.70003
300.71428
300.71262
300.72648
300.72571
300.74031
300.74269
300.76075
300.76869
300.79218
300.80677
300.83621
300.85721
300.89214
300.91875
300.95832
300.98945
301.03266
301.0673
301.11334
301.15062
301.19868
301.2378
301.28734
301.32783
301.37842
301.41968
301.47071
301.51217
301.56327
301.6045
301.655
301.69478
301.74307
301.7798
301.82464
301.85759
301.89834
301.92666
301.96132
301.98231
302.007
302.01768
302.02945
302.02998
302.02944
302.02422
302.01507
302.01031
301.99706
300.69816
300.71067
300.70886
300.72122
300.72031
300.73316
300.73474
300.75027
300.75645
300.77656
300.78855
300.81398
300.83184
300.86244
300.88565
300.9208
300.94846
300.98733
301.01858
301.06044
301.0945
301.1386
301.17471
301.22053
301.25823
301.30534
301.34404
301.39186
301.43101
301.47919
301.51842
301.5663
301.60441
301.65044
301.68589
301.72886
301.76094
301.8002
301.828
301.86148
301.88224
301.90596
301.91658
301.9275
301.92804
301.92671
301.92152
301.91162
301.90686
301.89288
300.69711
300.70793
300.70591
300.71686
300.71583
300.72715
300.72813
300.74151
300.74627
300.76347
300.77326
300.79518
300.81028
300.83699
300.85713
300.88823
300.91271
300.94753
300.97562
301.01354
301.04453
301.08487
301.11807
301.16031
301.19529
301.23903
301.27522
301.31989
301.35676
301.40204
301.43925
301.48451
301.52092
301.56466
301.59876
301.63981
301.67092
301.70863
301.73581
301.76803
301.78844
301.81112
301.82156
301.83161
301.83208
301.83001
301.8248
301.81425
301.80951
301.79492
300.69667
300.70589
300.70366
300.7133
300.71216
300.72212
300.72264
300.73418
300.73781
300.75251
300.76046
300.7793
300.79201
300.81524
300.83263
300.86005
300.88161
300.9127
300.93784
300.97207
301.00017
301.03693
301.06736
301.10618
301.13853
301.17902
301.21275
301.25437
301.28898
301.33143
301.36661
301.40929
301.44394
301.48539
301.51808
301.55718
301.58725
301.62335
301.64981
301.68071
301.70063
301.72221
301.73236
301.74152
301.74185
301.73908
301.73383
301.72272
301.71798
301.70292
300.69663
300.70441
300.70199
300.71041
300.70917
300.71791
300.71809
300.72806
300.73078
300.74334
300.74975
300.76591
300.77654
300.79669
300.81164
300.83573
300.85464
300.88229
300.9047
300.9355
300.96089
300.99428
301.02208
301.05764
301.08747
301.12485
301.15619
301.19486
301.22727
301.26694
301.30012
301.34024
301.37313
301.41229
301.44352
301.48067
301.50962
301.54408
301.56972
301.59923
301.61856
301.63899
301.64874
301.65699
301.65711
301.65367
301.64836
301.63679
301.63204
301.61664
300.69683
300.70334
300.70078
300.70809
300.70676
300.71442
300.71432
300.72293
300.72493
300.73567
300.74079
300.75462
300.76347
300.7809
300.79368
300.81478
300.8313
300.85581
300.87572
300.90333
300.92619
300.95643
300.98174
301.01423
301.04166
301.07606
301.10511
301.14093
301.17119
301.20818
301.23938
301.27699
301.30811
301.34501
301.37476
301.40994
301.43772
301.47051
301.49524
301.52332
301.54195
301.56117
301.57043
301.57775
301.5776
301.57355
301.56814
301.55621
301.55145
301.53584
300.69714
300.70259
300.69993
300.70624
300.70483
300.71151
300.71121
300.71864
300.72007
300.72923
300.7333
300.74512
300.75244
300.76747
300.77835
300.79677
300.81114
300.8328
300.85042
300.8751
300.89562
300.92292
300.9459
300.97549
301.00063
301.03221
301.05906
301.09216
301.12035
301.15475
301.184
301.21917
301.24854
301.2832
301.31145
301.34468
301.37125
301.40235
301.4261
301.4527
301.47053
301.48851
301.49719
301.50357
301.5031
301.49846
301.49294
301.48074
301.47597
301.46026
300.69747
300.70205
300.69935
300.70477
300.70331
300.70911
300.70864
300.71504
300.71601
300.72383
300.72702
300.7371
300.74313
300.75605
300.76528
300.78131
300.79376
300.81284
300.82838
300.85038
300.86873
300.89331
300.91411
300.94099
300.96398
300.99289
301.01765
301.04816
301.07434
301.10625
301.13362
301.16642
301.19405
301.22653
301.25327
301.28457
301.30989
301.3393
301.36199
301.38708
301.40403
301.42073
301.42875
301.43419
301.43334
301.42818
301.42253
301.41015
301.40537
301.38967
300.69778
300.70166
300.69898
300.70361
300.70211
300.70712
300.70652
300.71202
300.71262
300.71928
300.72175
300.73033
300.73526
300.74634
300.75413
300.76804
300.77879
300.79555
300.80921
300.82876
300.84513
300.86719
300.88597
300.91033
300.9313
300.9577
300.98047
301.00853
301.03279
301.06233
301.08786
301.11838
301.1443
301.17465
301.19989
301.22929
301.25334
301.28105
301.30263
301.32619
301.34218
301.35757
301.36487
301.36938
301.36812
301.36247
301.35668
301.34421
301.33943
301.32385
300.69804
300.70136
300.69876
300.7027
300.70117
300.70547
300.70476
300.70947
300.70978
300.71543
300.71731
300.72459
300.72859
300.73807
300.74462
300.75665
300.7659
300.78058
300.79256
300.80988
300.82444
300.84419
300.8611
300.88313
300.9022
300.92626
300.94715
300.97289
300.99534
301.02261
301.04638
301.07469
301.09894
301.12724
301.15099
301.17853
301.20129
301.22731
301.24774
301.26975
301.28471
301.29878
301.30529
301.30888
301.30719
301.30111
301.29519
301.2827
301.27792
301.26257
300.69824
300.70112
300.69863
300.70197
300.70043
300.70409
300.70329
300.7073
300.70737
300.71216
300.71355
300.71972
300.72293
300.73102
300.7365
300.74688
300.75481
300.76763
300.77809
300.7934
300.80632
300.82397
300.83916
300.85902
300.87634
300.89821
300.91734
300.9409
300.96162
300.98674
301.00881
301.03503
301.05766
301.08396
301.10626
301.13198
301.15344
301.17779
301.19702
301.21748
301.23136
301.2441
301.2498
301.25248
301.25033
301.24388
301.23782
301.22541
301.22064
301.20561
300.69838
300.70091
300.69855
300.70138
300.69984
300.70294
300.70206
300.70545
300.70532
300.70935
300.71035
300.71555
300.71811
300.72499
300.72954
300.73848
300.74525
300.75642
300.76554
300.77903
300.79047
300.80619
300.81981
300.83768
300.85338
300.87321
300.8907
300.91223
300.9313
300.9544
300.97485
300.99906
301.02013
301.04452
301.06538
301.08935
301.10951
301.13221
301.15022
301.16912
301.18188
301.1933
301.19814
301.19995
301.19735
301.19057
301.18439
301.17213
301.16738
301.15276
300.69847
300.70072
300.69851
300.70089
300.69936
300.70195
300.70101
300.70384
300.70354
300.70692
300.70759
300.71195
300.71397
300.7198
300.72357
300.73123
300.737
300.74671
300.75463
300.7665
300.7766
300.79058
300.80277
300.81882
300.83301
300.85097
300.86692
300.88655
300.90408
300.92528
300.94418
300.96649
300.98604
301.00861
301.02808
301.05034
301.06921
301.09028
301.10705
301.1244
301.13602
301.14613
301.15011
301.15108
301.14802
301.14098
301.1347
301.12266
301.11795
301.10382
300.69852
300.70052
300.69848
300.70047
300.69896
300.70108
300.70008
300.70242
300.70199
300.70479
300.70518
300.70883
300.71039
300.71531
300.71841
300.72497
300.72986
300.73828
300.74514
300.75556
300.76446
300.77688
300.78776
300.80215
300.81496
300.83119
300.84571
300.86358
300.87967
300.89907
300.91651
300.93702
300.95513
300.97595
300.99406
301.01468
301.03227
301.05176
301.06727
301.08309
301.09355
301.10237
301.10549
301.10566
301.10217
301.09492
301.08857
301.07682
301.07215
301.05858
300.69854
300.70033
300.69844
300.70008
300.69859
300.7003
300.69925
300.70114
300.70059
300.70289
300.70306
300.70608
300.70726
300.7114
300.71393
300.71953
300.72366
300.73094
300.73688
300.74601
300.75383
300.76483
300.77454
300.78741
300.79896
300.81361
300.82681
300.84305
300.85778
300.87551
300.89156
300.91037
300.9271
300.94627
300.96306
300.9821
300.99843
301.01637
301.03062
301.04494
301.05423
301.0618
301.06407
301.06349
301.0596
301.05221
301.04581
301.03441
301.02981
301.01686
300.69852
300.70012
300.69838
300.69971
300.69824
300.69957
300.69847
300.69996
300.69932
300.70117
300.70115
300.70364
300.7045
300.70796
300.71001
300.71477
300.71825
300.72453
300.72966
300.73764
300.74451
300.75424
300.76289
300.77439
300.78479
300.79798
300.80996
300.8247
300.83816
300.85434
300.86908
300.88629
300.9017
300.91931
300.93484
300.95236
300.96745
300.98388
300.99688
301.00972
301.01787
301.02422
301.02566
301.02439
301.02013
301.01267
301.00625
300.99526
300.99075
300.97846
300.69848
300.69991
300.69829
300.69933
300.69787
300.69886
300.69771
300.69884
300.69812
300.69958
300.69941
300.70143
300.70203
300.70491
300.70655
300.71058
300.71351
300.71891
300.72333
300.7303
300.73633
300.74492
300.75261
300.76287
300.77222
300.78409
300.79495
300.8083
300.82058
300.83531
300.84882
300.86454
300.8787
300.89482
300.90914
300.92521
300.9391
300.95405
300.96582
300.97723
300.98424
300.98944
300.99009
300.9882
300.98361
300.97612
300.96972
300.95919
300.9548
300.94321
300.69841
300.69968
300.69816
300.69893
300.69746
300.69814
300.69695
300.69776
300.69696
300.69808
300.69778
300.6994
300.69978
300.70216
300.70347
300.70687
300.70931
300.71396
300.71776
300.72383
300.72911
300.73669
300.74352
300.75267
300.76107
300.77173
300.78156
300.79363
300.80483
300.81821
300.83056
300.84488
300.85786
300.87259
300.88575
300.90044
300.91314
300.92668
300.93723
300.94726
300.95317
300.95727
300.95718
300.95473
300.94987
300.94242
300.93608
300.92605
300.92179
300.91094
300.69831
300.69943
300.69798
300.69849
300.69701
300.69739
300.69616
300.69668
300.69582
300.69664
300.69624
300.69751
300.69771
300.69966
300.70068
300.70354
300.70558
300.70956
300.71282
300.7181
300.72273
300.72941
300.73548
300.74362
300.75115
300.76072
300.76962
300.78052
300.7907
300.80284
300.8141
300.82712
300.83899
300.85241
300.86445
300.87782
300.88938
300.90155
300.91091
300.91962
300.92448
300.92755
300.92678
300.92384
300.91876
300.91141
300.90517
300.89568
300.89157
300.88147
300.69819
300.69915
300.69773
300.69798
300.69647
300.69659
300.69532
300.69558
300.69467
300.69523
300.69474
300.69572
300.69578
300.69736
300.69814
300.70053
300.70223
300.70563
300.70843
300.71301
300.71706
300.72294
300.72833
300.73558
300.74233
300.75091
300.75894
300.76877
300.77802
300.78901
300.79926
300.81106
300.82188
300.83407
300.84506
300.85717
300.86762
300.87848
300.8867
300.89414