/*--------------------------------*- C++ -*----------------------------------*\
| =========                 |                                                 |
| \\      /  F ield         | OpenFOAM: The Open Source CFD Toolbox           |
|  \\    /   O peration     | Version:  2312                                  |
|   \\  /    A nd           | Website:  www.openfoam.com                      |
|    \\/     M anipulation  |                                                 |
\*---------------------------------------------------------------------------*/
FoamFile
{
    version     2.0;
    format      ascii;
    arch        "LSB;label=32;scalar=64";
    class       volVectorField;
    location    "3";
    object      U;
}
// * * * * * * * * * * * * * * * * * * * * * * * * * * * * * * * * * * * * * //

dimensions      [0 1 -1 0 0 0 0];

internalField   nonuniform List<vector> 
4000
(
(0.0013477044 0.00023021824 0)
(0.0014476132 -1.2431322e-06 0)
(0.001349777 -1.5201888e-07 0)
(0.0013956668 1.4817865e-07 0)
(0.0013599611 -1.3734567e-07 0)
(0.0013934946 1.3042598e-07 0)
(0.0013629561 -1.2110632e-07 0)
(0.0013916784 1.1384147e-07 0)
(0.0013648703 -1.0663031e-07 0)
(0.0013900155 1.0006311e-07 0)
(0.0013664732 -9.3846516e-08 0)
(0.0013885318 8.8052379e-08 0)
(0.001367873 -8.2617333e-08 0)
(0.001387222 7.7533857e-08 0)
(0.0013691035 -7.277371e-08 0)
(0.0013860681 6.832069e-08 0)
(0.0013701869 -6.4152682e-08 0)
(0.0013850511 6.0255465e-08 0)
(0.0013711417 -5.6608862e-08 0)
(0.0013841542 5.3201359e-08 0)
(0.0013719842 -5.0014519e-08 0)
(0.0013833624 4.7038856e-08 0)
(0.0013727284 -4.4257875e-08 0)
(0.0013826623 4.1663551e-08 0)
(0.001373387 -3.9241308e-08 0)
(0.0013820421 3.6984343e-08 0)
(0.001373971 -3.487974e-08 0)
(0.0013814916 3.2921884e-08 0)
(0.0013744901 -3.1099197e-08 0)
(0.0013810014 2.9407244e-08 0)
(0.0013749531 -2.7835557e-08 0)
(0.0013805633 2.6380764e-08 0)
(0.0013753677 -2.5033452e-08 0)
(0.0013801701 2.379107e-08 0)
(0.0013757409 -2.2645334e-08 0)
(0.0013798151 2.159422e-08 0)
(0.0013760789 -2.0630675e-08 0)
(0.0013794924 1.9752973e-08 0)
(0.0013763872 -1.8955315e-08 0)
(0.0013791968 1.8236177e-08 0)
(0.0013766711 -1.7590928e-08 0)
(0.0013789232 1.701829e-08 0)
(0.0013769353 -1.6514655e-08 0)
(0.0013786672 1.6079122e-08 0)
(0.0013771842 -1.5709063e-08 0)
(0.0013784244 1.5403935e-08 0)
(0.0013774218 -1.5163757e-08 0)
(0.0013781911 1.4985859e-08 0)
(0.0013776591 -1.4845855e-08 0)
(0.0013780129 1.5358594e-08 0)
(0.0037621263 0.00063527005 0)
(0.0041625347 4.134618e-07 0)
(0.0039239601 4.4264933e-08 0)
(0.0040512919 4.1093694e-07 0)
(0.0039476321 -4.7826108e-07 0)
(0.0040454036 4.3518814e-07 0)
(0.0039562737 -4.2131648e-07 0)
(0.0040401344 3.9225874e-07 0)
(0.0039618431 -3.6963306e-07 0)
(0.0040352794 3.4612557e-07 0)
(0.0039665226 -3.249526e-07 0)
(0.004030947 3.047587e-07 0)
(0.0039706114 -2.8600961e-07 0)
(0.0040271227 2.683877e-07 0)
(0.0039742059 -2.5192846e-07 0)
(0.0040237532 2.3650837e-07 0)
(0.0039773711 -2.2209035e-07 0)
(0.0040207834 2.08598e-07 0)
(0.0039801613 -1.9598283e-07 0)
(0.0040181639 1.8418674e-07 0)
(0.0039826234 -1.7316225e-07 0)
(0.0040158508 1.6286156e-07 0)
(0.0039847989 -1.5324143e-07 0)
(0.0040138051 1.4426122e-07 0)
(0.0039867244 -1.3588246e-07 0)
(0.0040119927 1.2807046e-07 0)
(0.0039884323 -1.2079086e-07 0)
(0.0040103831 1.1401468e-07 0)
(0.0039899511 -1.0771064e-07 0)
(0.0040089493 1.0185533e-07 0)
(0.0039913062 -9.6419896e-08 0)
(0.0040076674 9.1385937e-08 0)
(0.0039925204 -8.6727023e-08 0)
(0.004006516 8.242871e-08 0)
(0.0039936139 -7.8467443e-08 0)
(0.0040054759 7.4831548e-08 0)
(0.003994605 -7.1500852e-08 0)
(0.0040045298 6.8465488e-08 0)
(0.0039955101 -6.5708861e-08 0)
(0.0040036619 6.322248e-08 0)
(0.0039963443 -6.0993066e-08 0)
(0.004002858 5.9013582e-08 0)
(0.0039971214 -5.7273497e-08 0)
(0.0040021045 5.5767589e-08 0)
(0.0039978543 -5.4487215e-08 0)
(0.0040013889 5.3431316e-08 0)
(0.0039985553 -5.2593806e-08 0)
(0.0040006992 5.1889781e-08 0)
(0.0039992491 -5.2213028e-08 0)
(0.0040001437 5.0011227e-08 0)
(0.0061105106 0.0010195195 0)
(0.0067968102 -5.1700381e-07 0)
(0.0064328117 3.7668691e-07 0)
(0.0066398257 6.9472076e-07 0)
(0.006468101 -8.6713583e-07 0)
(0.0066301943 7.7490057e-07 0)
(0.0064823049 -7.6243455e-07 0)
(0.0066214421 7.0718598e-07 0)
(0.0064915165 -6.6788029e-07 0)
(0.0066133809 6.2487974e-07 0)
(0.0064992781 -5.8689168e-07 0)
(0.0066061911 5.5031369e-07 0)
(0.0065060628 -5.1651348e-07 0)
(0.0065998455 4.846591e-07 0)
(0.0065120282 -4.5495936e-07 0)
(0.0065942541 4.2709751e-07 0)
(0.0065172815 -4.0107518e-07 0)
(0.006589326 3.766997e-07 0)
(0.0065219126 -3.5392935e-07 0)
(0.0065849788 3.3261971e-07 0)
(0.0065259995 -3.1271955e-07 0)
(0.0065811396 2.9411216e-07 0)
(0.0065296111 -2.7674635e-07 0)
(0.0065777441 2.6052485e-07 0)
(0.0065328081 -2.4539938e-07 0)
(0.0065747352 2.312885e-07 0)
(0.006535644 -2.1814683e-07 0)
(0.0065720625 2.0590726e-07 0)
(0.0065381665 -1.9452634e-07 0)
(0.0065696814 1.8395033e-07 0)
(0.0065404176 -1.7413718e-07 0)
(0.006567552 1.6504484e-07 0)
(0.0065424352 -1.5663328e-07 0)
(0.0065656388 1.4886967e-07 0)
(0.0065442528 -1.417174e-07 0)
(0.0065639099 1.3515008e-07 0)
(0.0065459007 -1.29136e-07 0)
(0.0065623367 1.2365302e-07 0)
(0.0065474063 -1.1867506e-07 0)
(0.0065608929 1.1418311e-07 0)
(0.0065487946 -1.1015642e-07 0)
(0.0065595546 1.0657913e-07 0)
(0.0065500887 -1.0343476e-07 0)
(0.0065582995 1.0071117e-07 0)
(0.0065513101 -9.8394135e-08 0)
(0.0065571067 9.6480934e-08 0)
(0.0065524791 -9.4953147e-08 0)
(0.0065559555 9.364305e-08 0)
(0.0065536327 -9.4626623e-08 0)
(0.0065550044 8.9838117e-08 0)
(0.0084123177 0.0013735652 0)
(0.0093567988 -2.4051397e-06 0)
(0.0088760593 9.7523542e-07 0)
(0.0091614684 9.1876306e-07 0)
(0.0089212832 -1.242317e-06 0)
(0.0091479548 1.0888877e-06 0)
(0.0089409767 -1.0904525e-06 0)
(0.0091356817 1.0074702e-06 0)
(0.0089538264 -9.5370524e-07 0)
(0.0091243912 8.9150725e-07 0)
(0.0089646828 -8.3767254e-07 0)
(0.009114327 7.8529784e-07 0)
(0.0089741773 -7.371569e-07 0)
(0.0091054456 6.9164255e-07 0)
(0.008982526 -6.4930036e-07 0)
(0.00909762 6.0950941e-07 0)
(0.0089898786 -5.7240101e-07 0)
(0.0090907225 5.375942e-07 0)
(0.0089963605 -5.0512008e-07 0)
(0.0090846378 4.7469348e-07 0)
(0.0090020811 -4.4631094e-07 0)
(0.0090792638 4.1974427e-07 0)
(0.0090071367 -3.9497508e-07 0)
(0.0090745105 3.71816e-07 0)
(0.0090116121 -3.5024132e-07 0)
(0.009070298 3.3009635e-07 0)
(0.0090155826 -3.1135063e-07 0)
(0.009066556 2.9387777e-07 0)
(0.0090191145 -2.7764313e-07 0)
(0.0090632217 2.6254549e-07 0)
(0.009022267 -2.4854685e-07 0)
(0.0090602395 2.3556747e-07 0)
(0.0090250928 -2.2356792e-07 0)
(0.0090575597 2.1248542e-07 0)
(0.009027639 -2.0228203e-07 0)
(0.0090551376 1.9290721e-07 0)
(0.009029948 -1.8432729e-07 0)
(0.009052933 1.7650022e-07 0)
(0.0090320581 -1.6939811e-07 0)
(0.0090509092 1.6298537e-07 0)
(0.0090340043 -1.5723994e-07 0)
(0.0090490328 1.5213221e-07 0)
(0.0090358191 -1.4764479e-07 0)
(0.0090472725 1.4375442e-07 0)
(0.0090375326 -1.4044522e-07 0)
(0.0090455988 1.3771077e-07 0)
(0.0090391733 -1.3551674e-07 0)
(0.0090439821 1.3360309e-07 0)
(0.0090407887 -1.3562161e-07 0)
(0.0090426174 1.2782593e-07 0)
(0.010658983 0.0016964934 0)
(0.011840187 -5.1836535e-06 0)
(0.011253308 1.7893736e-06 0)
(0.011616362 1.0790257e-06 0)
(0.011307189 -1.5878051e-06 0)
(0.011598667 1.3643601e-06 0)
(0.011332305 -1.392305e-06 0)
(0.011582833 1.281234e-06 0)
(0.011348786 -1.2157259e-06 0)
(0.011568292 1.1354222e-06 0)
(0.011362749 -1.0673109e-06 0)
(0.011555339 1.0003756e-06 0)
(0.011374965 -9.3915703e-07 0)
(0.011543909 8.8111342e-07 0)
(0.011385708 -8.2721618e-07 0)
(0.011533839 7.7649496e-07 0)
(0.011395169 -7.2924888e-07 0)
(0.011524963 6.8488685e-07 0)
(0.011403511 -6.4353758e-07 0)
(0.011517132 6.0476089e-07 0)
(0.011410873 -5.6861944e-07 0)
(0.011510216 5.347638e-07 0)
(0.011417379 -5.0322204e-07 0)
(0.011504098 4.7371029e-07 0)
(0.011423139 -4.4623544e-07 0)
(0.011498677 4.2056559e-07 0)
(0.01142825 -3.9669261e-07 0)
(0.01149386 3.7442836e-07 0)
(0.011432796 -3.5375283e-07 0)
(0.011489568 3.3451553e-07 0)
(0.011436854 -3.1668734e-07 0)
(0.011485729 3.0014932e-07 0)
(0.011440492 -2.8486689e-07 0)
(0.011482279 2.7074598e-07 0)
(0.011443771 -2.5775087e-07 0)
(0.01147916 2.4580592e-07 0)
(0.011446744 -2.3487819e-07 0)
(0.011476321 2.2490528e-07 0)
(0.011449461 -2.1585943e-07 0)
(0.011473714 2.0768843e-07 0)
(0.011451968 -2.0037013e-07 0)
(0.011471297 1.9386139e-07 0)
(0.011454306 -1.8814477e-07 0)
(0.011469029 1.8318603e-07 0)
(0.011456514 -1.7896821e-07 0)
(0.011466872 1.7548224e-07 0)
(0.011458629 -1.7267146e-07 0)
(0.011464788 1.7019143e-07 0)
(0.011460707 -1.7352104e-07 0)
(0.011462996 1.6252436e-07 0)
(0.012848624 0.0019896362 0)
(0.014247161 -8.732286e-06 0)
(0.013564478 2.7581571e-06 0)
(0.014004529 1.1848387e-06 0)
(0.013625929 -1.9028175e-06 0)
(0.013982222 1.6032015e-06 0)
(0.013656396 -1.6690714e-06 0)
(0.013962799 1.5297815e-06 0)
(0.013676488 -1.4549872e-06 0)
(0.013944998 1.3576559e-06 0)
(0.013693556 -1.2767509e-06 0)
(0.013929152 1.1964402e-06 0)
(0.013708497 -1.1233495e-06 0)
(0.013915171 1.0538558e-06 0)
(0.013721636 -9.8944323e-07 0)
(0.013902853 9.2874428e-07 0)
(0.013733209 -8.722675e-07 0)
(0.013891996 8.1918572e-07 0)
(0.013743412 -7.6975372e-07 0)
(0.013882418 7.2335825e-07 0)
(0.013752417 -6.8014976e-07 0)
(0.013873958 6.3964437e-07 0)
(0.013760376 -6.0193328e-07 0)
(0.013866474 5.6662663e-07 0)
(0.013767422 -5.3377667e-07 0)
(0.013859841 5.0306749e-07 0)
(0.013773674 -4.7452322e-07 0)
(0.013853949 4.4788898e-07 0)
(0.013779235 -4.2316731e-07 0)
(0.013848698 4.0015458e-07 0)
(0.0137842 -3.7883717e-07 0)
(0.013844001 3.5905375e-07 0)
(0.013788652 -3.407801e-07 0)
(0.013839779 3.238883e-07 0)
(0.013792663 -3.083494e-07 0)
(0.013835963 2.9406067e-07 0)
(0.013796301 -2.8099353e-07 0)
(0.013832489 2.6906381e-07 0)
(0.013799627 -2.5824659e-07 0)
(0.013829299 2.4847211e-07 0)
(0.013802695 -2.3972023e-07 0)
(0.01382634 2.3193359e-07 0)
(0.013805557 -2.2509629e-07 0)
(0.013823564 2.1916238e-07 0)
(0.013808259 -2.1411502e-07 0)
(0.013820924 2.0994258e-07 0)
(0.013810848 -2.0656023e-07 0)
(0.013818372 2.0355115e-07 0)
(0.013813389 -2.0838855e-07 0)
(0.013816143 1.9400874e-07 0)
(0.014983636 0.0022544909 0)
(0.016578294 -1.300039e-05 0)
(0.015809548 3.8176731e-06 0)
(0.016325864 1.245347e-06 0)
(0.01587763 -2.1870761e-06 0)
(0.016298498 1.8083899e-06 0)
(0.015913362 -1.9229093e-06 0)
(0.016275473 1.7554455e-06 0)
(0.015937031 -1.6734922e-06 0)
(0.016254416 1.5601428e-06 0)
(0.015957194 -1.4677812e-06 0)
(0.016235683 1.37518e-06 0)
(0.01597485 -1.291314e-06 0)
(0.016219159 1.2113541e-06 0)
(0.015990379 -1.1373734e-06 0)
(0.0162046 1.0675647e-06 0)
(0.016004056 -1.0026838e-06 0)
(0.016191767 9.4164353e-07 0)
(0.016016115 -8.8485091e-07 0)
(0.016180445 8.3150304e-07 0)
(0.016026759 -7.81858e-07 0)
(0.016170446 7.352853e-07 0)
(0.016036166 -6.9195469e-07 0)
(0.0161616 6.5136131e-07 0)
(0.016044495 -6.1361481e-07 0)
(0.01615376 5.7830868e-07 0)
(0.016051885 -5.4550872e-07 0)
(0.016146794 5.1488841e-07 0)
(0.016058459 -4.8648038e-07 0)
(0.016140587 4.6002415e-07 0)
(0.016064329 -4.3552765e-07 0)
(0.016135034 4.1278427e-07 0)
(0.016069591 -3.9178518e-07 0)
(0.016130043 3.723663e-07 0)
(0.016074333 -3.5450956e-07 0)
(0.016125531 3.3808332e-07 0)
(0.016078635 -3.2306666e-07 0)
(0.016121423 3.0935234e-07 0)
(0.016082567 -2.9692083e-07 0)
(0.016117651 2.8568392e-07 0)
(0.016086195 -2.7562534e-07 0)
(0.016114153 2.6667285e-07 0)
(0.016089579 -2.5881358e-07 0)
(0.01611087 2.519892e-07 0)
(0.016092775 -2.4618401e-07 0)
(0.016107748 2.4138365e-07 0)
(0.016095837 -2.3746968e-07 0)
(0.016104729 2.33968e-07 0)
(0.016098838 -2.4043839e-07 0)
(0.016102055 2.2253287e-07 0)
(0.017066564 0.002491912 0)
(0.018834336 -1.7916383e-05 0)
(0.017988634 4.9132045e-06 0)
(0.018580065 1.2673152e-06 0)
(0.018062421 -2.4389301e-06 0)
(0.018547382 1.9811514e-06 0)
(0.018103306 -2.1544169e-06 0)
(0.018520759 1.9590619e-06 0)
(0.018130506 -1.8718473e-06 0)
(0.018496461 1.7435063e-06 0)
(0.01815374 -1.6409616e-06 0)
(0.018474859 1.5371309e-06 0)
(0.018174093 -1.4435476e-06 0)
(0.018455807 1.354078e-06 0)
(0.018191996 -1.2714453e-06 0)
(0.018439021 1.1933697e-06 0)
(0.018207765 -1.1208843e-06 0)
(0.018424225 1.0526245e-06 0)
(0.018221668 -9.8917027e-07 0)
(0.018411171 9.2951663e-07 0)
(0.01823394 -8.7404547e-07 0)
(0.018399642 8.2197052e-07 0)
(0.018244786 -7.7355276e-07 0)
(0.018389442 7.2816559e-07 0)
(0.018254389 -6.8598604e-07 0)
(0.018380402 6.46512e-07 0)
(0.01826291 -6.0985892e-07 0)
(0.01837237 5.756249e-07 0)
(0.018270491 -5.4387903e-07 0)
(0.018365212 5.1430117e-07 0)
(0.018277259 -4.8692601e-07 0)
(0.018358809 4.6149954e-07 0)
(0.018283327 -4.3803247e-07 0)
(0.018353053 4.1632299e-07 0)
(0.018288796 -3.9636727e-07 0)
(0.01834785 3.7800363e-07 0)
(0.018293757 -3.6122148e-07 0)
(0.018343112 3.4588964e-07 0)
(0.018298292 -3.3199609e-07 0)
(0.018338762 3.1943354e-07 0)
(0.018302477 -3.0819131e-07 0)
(0.018334727 2.9818176e-07 0)
(0.01830638 -2.8939633e-07 0)
(0.018330941 2.8176375e-07 0)
(0.018310066 -2.7527041e-07 0)
(0.018327339 2.6989901e-07 0)
(0.018313598 -2.6549286e-07 0)
(0.018323856 2.6153718e-07 0)
(0.018317057 -2.6971273e-07 0)
(0.018320734 2.4818549e-07 0)
(0.019099163 0.0027026167 0)
(0.021016081 -2.3390028e-05 0)
(0.020101982 5.9976431e-06 0)
(0.020766644 1.2574906e-06 0)
(0.020180438 -2.6577047e-06 0)
(0.020728772 2.1222149e-06 0)
(0.020226315 -2.3636164e-06 0)
(0.020698574 2.1408867e-06 0)
(0.02025699 -2.0501182e-06 0)
(0.02067106 1.9078626e-06 0)
(0.020283263 -1.7963755e-06 0)
(0.020646616 1.6823826e-06 0)
(0.020306287 -1.5801285e-06 0)
(0.020625059 1.4821043e-06 0)
(0.020326541 -1.3917283e-06 0)
(0.020606067 1.3062262e-06 0)
(0.020344381 -1.2269303e-06 0)
(0.020589327 1.1521874e-06 0)
(0.020360111 -1.0827655e-06 0)
(0.020574558 1.0174505e-06 0)
(0.020373995 -9.567594e-07 0)
(0.020561512 8.9974516e-07 0)
(0.020386267 -8.4676913e-07 0)
(0.020549972 7.9707916e-07 0)
(0.020397132 -7.5092708e-07 0)
(0.020539743 7.0771242e-07 0)
(0.020406774 -6.6760623e-07 0)
(0.020530655 6.3012926e-07 0)
(0.020415352 -5.953919e-07 0)
(0.020522555 5.6301295e-07 0)
(0.02042301 -5.3305772e-07 0)
(0.020515309 5.0522381e-07 0)
(0.020429877 -4.7954467e-07 0)
(0.020508796 4.5578007e-07 0)
(0.020436066 -4.3394297e-07 0)
(0.020502907 4.1384116e-07 0)
(0.02044168 -3.9547645e-07 0)
(0.020497546 3.7869345e-07 0)
(0.020446813 -3.634893e-07 0)
(0.020492622 3.497374e-07 0)
(0.020451549 -3.3743396e-07 0)
(0.020488056 3.2647572e-07 0)
(0.020455966 -3.168595e-07 0)
(0.02048377 3.0850084e-07 0)
(0.020460139 -3.0138893e-07 0)
(0.020479693 2.9550343e-07 0)
(0.020464136 -2.9064551e-07 0)
(0.020475751 2.8627681e-07 0)
(0.020468047 -2.9618566e-07 0)
(0.020472178 2.7099565e-07 0)
(0.021082604 0.0028873653 0)
(0.023124389 -2.9320717e-05 0)
(0.02214981 7.0325381e-06 0)
(0.022885092 1.222776e-06 0)
(0.022231826 -2.8452741e-06 0)
(0.022842574 2.2326787e-06 0)
(0.022282471 -2.5506087e-06 0)
(0.022808841 2.3012076e-06 0)
(0.022316554 -2.2084046e-06 0)
(0.022778146 2.053359e-06 0)
(0.022345826 -1.9341368e-06 0)
(0.022750894 1.8110528e-06 0)
(0.022371487 -1.7011615e-06 0)
(0.022726864 1.5955346e-06 0)
(0.022394062 -1.4983152e-06 0)
(0.022705694 1.4062229e-06 0)
(0.022413948 -1.3209032e-06 0)
(0.022687033 1.2404099e-06 0)
(0.022431481 -1.1657084e-06 0)
(0.02267057 1.0953728e-06 0)
(0.022446958 -1.0300629e-06 0)
(0.022656028 9.6866916e-07 0)
(0.022460637 -9.1165934e-07 0)
(0.022643163 8.5815468e-07 0)
(0.022472749 -8.0848685e-07 0)
(0.02263176 7.6195627e-07 0)
(0.022483497 -7.1879381e-07 0)
(0.022621628 6.7844241e-07 0)
(0.02249306 -6.4105718e-07 0)
(0.022612598 6.0619564e-07 0)
(0.022501598 -5.7395657e-07 0)
(0.02260452 5.4398919e-07 0)
(0.022509254 -5.1635189e-07 0)
(0.022597258 4.9076614e-07 0)
(0.022516154 -4.6726355e-07 0)
(0.022590693 4.4562155e-07 0)
(0.022522414 -4.258559e-07 0)
(0.022584714 4.0778704e-07 0)
(0.022528137 -3.9142259e-07 0)
(0.022579224 3.7661673e-07 0)
(0.022533417 -3.633736e-07 0)
(0.022574132 3.5157445e-07 0)
(0.022538343 -3.412222e-07 0)
(0.022569353 3.3221917e-07 0)
(0.022542996 -3.2455791e-07 0)
(0.022564807 3.1821503e-07 0)
(0.022547454 -3.1294665e-07 0)
(0.022560411 3.0820754e-07 0)
(0.022551812 -3.1983933e-07 0)
(0.022556387 2.9100013e-07 0)
(0.023017726 0.0030469205 0)
(0.025160196 -3.5602635e-05 0)
(0.024132147 7.9880218e-06 0)
(0.024935071 1.1694793e-06 0)
(0.024216725 -3.0059032e-06 0)
(0.024888708 2.3141887e-06 0)
(0.024271845 -2.7156495e-06 0)
(0.024851492 2.4404376e-06 0)
(0.024309264 -2.3469281e-06 0)
(0.024817658 2.1802566e-06 0)
(0.024341485 -2.0544673e-06 0)
(0.02478764 1.9233596e-06 0)
(0.024369742 -1.8068459e-06 0)
(0.024761175 1.6945586e-06 0)
(0.024394603 -1.591382e-06 0)
(0.024737859 1.4935263e-06 0)
(0.024416503 -1.4029582e-06 0)
(0.024717308 1.3174385e-06 0)
(0.024435812 -1.2381353e-06 0)
(0.024699176 1.1634123e-06 0)
(0.024452856 -1.0940762e-06 0)
(0.02468316 1.028856e-06 0)
(0.024467922 -9.6832938e-07 0)
(0.024668991 9.1149219e-07 0)
(0.024481262 -8.5875895e-07 0)
(0.024656431 8.0933196e-07 0)
(0.0244931 -7.6350446e-07 0)
(0.024645272 7.2064255e-07 0)
(0.024503633 -6.8094826e-07 0)
(0.024635326 6.439187e-07 0)
(0.024513037 -6.0968795e-07 0)
(0.024626427 5.7785754e-07 0)
(0.02452147 -5.485125e-07 0)
(0.024618428 5.2133662e-07 0)
(0.024529071 -4.963815e-07 0)
(0.024611195 4.7339476e-07 0)
(0.024535967 -4.5240721e-07 0)
(0.024604609 4.332157e-07 0)
(0.024542271 -4.1583922e-07 0)
(0.024598561 4.0011314e-07 0)
(0.024548089 -3.8605026e-07 0)
(0.024592951 3.735166e-07 0)
(0.024553516 -3.625218e-07 0)
(0.024587686 3.5295518e-07 0)
(0.024558642 -3.4481309e-07 0)
(0.024582677 3.3806897e-07 0)
(0.024563554 -3.32432e-07 0)
(0.024577835 3.2736578e-07 0)
(0.024568352 -3.4067595e-07 0)
(0.024573361 3.0825516e-07 0)
(0.024905116 0.0031820329 0)
(0.027124509 -4.2128142e-05 0)
(0.026048818 8.8430818e-06 0)
(0.026916448 1.103404e-06 0)
(0.026135255 -3.1448913e-06 0)
(0.026867108 2.368826e-06 0)
(0.026194503 -2.8590658e-06 0)
(0.026826462 2.5590624e-06 0)
(0.026235179 -2.4659844e-06 0)
(0.02678954 2.2888864e-06 0)
(0.026270294 -2.1576548e-06 0)
(0.026756804 2.0195832e-06 0)
(0.026301099 -1.8974396e-06 0)
(0.026727948 1.7794209e-06 0)
(0.026328204 -1.6711561e-06 0)
(0.026702526 1.5683512e-06 0)
(0.026352081 -1.4732953e-06 0)
(0.026680117 1.3834618e-06 0)
(0.026373134 -1.3002227e-06 0)
(0.026660347 1.2217354e-06 0)
(0.026391719 -1.1489548e-06 0)
(0.026642883 1.080452e-06 0)
(0.026408146 -1.0169164e-06 0)
(0.026627433 9.5722098e-07 0)
(0.026422692 -9.018645e-07 0)
(0.026613738 8.4995371e-07 0)
(0.0264356 -8.0184544e-07 0)
(0.026601569 7.5683095e-07 0)
(0.026447086 -7.1516038e-07 0)
(0.026590722 6.7627209e-07 0)
(0.026457341 -6.4033657e-07 0)
(0.026581018 6.0690914e-07 0)
(0.026466537 -5.7610234e-07 0)
(0.026572294 5.4756346e-07 0)
(0.026474827 -5.2136497e-07 0)
(0.026564406 4.9722568e-07 0)
(0.026482348 -4.751922e-07 0)
(0.026557224 4.5503852e-07 0)
(0.026489224 -4.3679565e-07 0)
(0.026550627 4.2028077e-07 0)
(0.026495569 -4.0551596e-07 0)
(0.026544508 3.9235248e-07 0)
(0.026501489 -3.808071e-07 0)
(0.026538764 3.7075643e-07 0)
(0.026507081 -3.6220097e-07 0)
(0.026533301 3.5511097e-07 0)
(0.026512438 -3.4914781e-07 0)
(0.02652802 3.4379836e-07 0)
(0.026517668 -3.5871284e-07 0)
(0.0265231 3.2282923e-07 0)
(0.026745103 0.0032934453 0)
(0.029018389 -4.8793829e-05 0)
(0.027899514 9.5916606e-06 0)
(0.028829226 1.0294476e-06 0)
(0.027987507 -3.2673262e-06 0)
(0.028777714 2.3989411e-06 0)
(0.028050506 -2.9811957e-06 0)
(0.028733693 2.6576052e-06 0)
(0.028094353 -2.5659148e-06 0)
(0.028693741 2.379622e-06 0)
(0.028132299 -2.2440278e-06 0)
(0.028658343 2.1000417e-06 0)
(0.0281656 -1.9732359e-06 0)
(0.028627145 1.8503994e-06 0)
(0.028194902 -1.7378964e-06 0)
(0.028599659 1.6309417e-06 0)
(0.028220716 -1.5321427e-06 0)
(0.028575432 1.4386949e-06 0)
(0.028243477 -1.3521713e-06 0)
(0.028554057 1.2705312e-06 0)
(0.028263569 -1.1948755e-06 0)
(0.028535175 1.1236241e-06 0)
(0.02828133 -1.0575765e-06 0)
(0.02851847 9.9548819e-07 0)
(0.028297057 -9.3794155e-07 0)
(0.028503662 8.8395172e-07 0)
(0.028311014 -8.3393895e-07 0)
(0.028490504 7.8712295e-07 0)
(0.028323433 -7.4380201e-07 0)
(0.028478775 7.033584e-07 0)
(0.028334523 -6.6599917e-07 0)
(0.028468282 6.3123554e-07 0)
(0.028344467 -5.992079e-07 0)
(0.028458848 5.6952879e-07 0)
(0.028353432 -5.4229185e-07 0)
(0.028450318 5.1718843e-07 0)
(0.028361565 -4.9428132e-07 0)
(0.028442549 4.733228e-07 0)
(0.028369001 -4.5435626e-07 0)
(0.028435415 4.3718157e-07 0)
(0.028375864 -4.2183029e-07 0)
(0.028428797 4.0813965e-07 0)
(0.028382266 -3.9613379e-07 0)
(0.028422585 3.856772e-07 0)
(0.028388314 -3.7677473e-07 0)
(0.028416676 3.6939341e-07 0)
(0.028394109 -3.6314686e-07 0)
(0.028410964 3.575581e-07 0)
(0.028399762 -3.7397739e-07 0)
(0.028405604 3.3479932e-07 0)
(0.028537729 0.0033818932 0)
(0.030842856 -5.5499818e-05 0)
(0.029683914 1.0248395e-05 0)
(0.030673459 9.4827501e-07 0)
(0.029773553 -3.3783809e-06 0)
(0.030620478 2.4068211e-06 0)
(0.029839911 -3.0823945e-06 0)
(0.030573132 2.7366173e-06 0)
(0.029886837 -2.6470978e-06 0)
(0.030530214 2.4528737e-06 0)
(0.029927546 -2.3139497e-06 0)
(0.030492215 2.1650855e-06 0)
(0.029963283 -2.0345589e-06 0)
(0.030458728 1.9078007e-06 0)
(0.029994731 -1.7918888e-06 0)
(0.030429227 1.6815672e-06 0)
(0.030022436 -1.5797519e-06 0)
(0.030403223 1.4833745e-06 0)
(0.030046866 -1.3942029e-06 0)
(0.03038028 1.3100083e-06 0)
(0.030068432 -1.2320339e-06 0)
(0.030360013 1.1585564e-06 0)
(0.030087495 -1.0904823e-06 0)
(0.030342082 1.0264565e-06 0)
(0.030104376 -9.6714266e-07 0)
(0.030326187 9.114698e-07 0)
(0.030119357 -8.5992019e-07 0)
(0.030312062 8.1164616e-07 0)
(0.030132689 -7.6699327e-07 0)
(0.030299472 7.2529108e-07 0)
(0.030144593 -6.8678273e-07 0)
(0.030288207 6.5093807e-07 0)
(0.030155269 -6.1792501e-07 0)
(0.030278079 5.8732352e-07 0)
(0.030164893 -5.5924832e-07 0)
(0.030268921 5.333651e-07 0)
(0.030173625 -5.097528e-07 0)
(0.030260581 4.8814336e-07 0)
(0.030181609 -4.6859255e-07 0)
(0.030252921 4.5088412e-07 0)
(0.030188977 -4.3505917e-07 0)
(0.030245814 4.2094189e-07 0)
(0.030195852 -4.0856371e-07 0)
(0.030239144 3.9777774e-07 0)
(0.030202346 -3.8859327e-07 0)
(0.030232799 3.8097418e-07 0)
(0.030208568 -3.7448741e-07 0)
(0.030226667 3.6870322e-07 0)
(0.030214634 -3.8650697e-07 0)
(0.030220873 3.4424761e-07 0)
(0.030282786 0.003448103 0)
(0.032598598 -6.2104143e-05 0)
(0.031401999 1.0807813e-05 0)
(0.032449195 8.5571462e-07 0)
(0.031493444 -3.483308e-06 0)
(0.032395351 2.394571e-06 0)
(0.031562767 -3.1630915e-06 0)
(0.032344732 2.7966522e-06 0)
(0.031612676 -2.7099576e-06 0)
(0.032298915 2.5090848e-06 0)
(0.031656073 -2.3678178e-06 0)
(0.032258381 2.2150963e-06 0)
(0.031694183 -2.0817623e-06 0)
(0.032222665 1.9519586e-06 0)
(0.031727723 -1.833445e-06 0)
(0.032191201 1.7205212e-06 0)
(0.03175727 -1.6163977e-06 0)
(0.032163466 1.5177594e-06 0)
(0.031783325 -1.4265593e-06 0)
(0.032138995 1.3403946e-06 0)
(0.031806326 -1.2606433e-06 0)
(0.032117378 1.1854496e-06 0)
(0.031826659 -1.1158221e-06 0)
(0.032098252 1.0503032e-06 0)
(0.031844664 -9.8963443e-07 0)
(0.032081298 9.3266502e-07 0)
(0.031860644 -8.7993677e-07 0)
(0.032066232 8.3053983e-07 0)
(0.031874864 -7.8486531e-07 0)
(0.032052802 7.4219412e-07 0)
(0.031887563 -7.0280428e-07 0)
(0.032040784 6.6612747e-07 0)
(0.031898951 -6.3235842e-07 0)
(0.03202998 6.0104711e-07 0)
(0.031909218 -5.723288e-07 0)
(0.03202021 5.4584557e-07 0)
(0.031918534 -5.2169214e-07 0)
(0.032011311 4.9958189e-07 0)
(0.031927052 -4.7958273e-07 0)
(0.032003139 4.6146362e-07 0)
(0.031934914 -4.4527503e-07 0)
(0.031995556 4.308291e-07 0)
(0.031942249 -4.1816456e-07 0)
(0.031988439 4.0712398e-07 0)
(0.031949178 -3.9772115e-07 0)
(0.031981669 3.899168e-07 0)
(0.031955817 -3.8323309e-07 0)
(0.031975128 3.7729664e-07 0)
(0.031962286 -3.9634736e-07 0)
(0.031968907 3.5126127e-07 0)
(0.031979831 0.0034927651 0)
(0.034285275 -6.8318939e-05 0)
(0.03305469 1.1109884e-05 0)
(0.03415643 7.3423269e-07 0)
(0.033147207 -3.5870363e-06 0)
(0.034102281 2.3648206e-06 0)
(0.033219117 -3.2235201e-06 0)
(0.034048445 2.8383553e-06 0)
(0.033271911 -2.754936e-06 0)
(0.033999806 2.548736e-06 0)
(0.033317918 -2.406059e-06 0)
(0.033956807 2.250485e-06 0)
(0.033358333 -2.1152266e-06 0)
(0.033918925 1.9832328e-06 0)
(0.033393904 -1.8629008e-06 0)
(0.033885553 1.7481199e-06 0)
(0.033425242 -1.6423758e-06 0)
(0.033856136 1.5421276e-06 0)
(0.033452877 -1.4495014e-06 0)
(0.033830181 1.3619354e-06 0)
(0.033477272 -1.2809338e-06 0)
(0.033807252 1.2045203e-06 0)
(0.033498838 -1.1337992e-06 0)
(0.033786966 1.0672197e-06 0)
(0.033517936 -1.0055966e-06 0)
(0.033768982 9.4770673e-07 0)
(0.033534886 -8.9414803e-07 0)
(0.033753 8.4395438e-07 0)
(0.033549971 -7.9755982e-07 0)
(0.033738753 7.5420137e-07 0)
(0.033563442 -7.1419015e-07 0)
(0.033726005 6.7692343e-07 0)
(0.033575523 -6.4262141e-07 0)
(0.033714543 6.1080705e-07 0)
(0.033586415 -5.8163528e-07 0)
(0.033704177 5.5472696e-07 0)
(0.033596298 -5.3019201e-07 0)
(0.033694736 5.0772701e-07 0)
(0.033605336 -4.874116e-07 0)
(0.033686065 4.6900144e-07 0)
(0.033613678 -4.5255611e-07 0)
(0.033678019 4.3787699e-07 0)
(0.033621461 -4.2500974e-07 0)
(0.033670468 4.1378739e-07 0)
(0.033628813 -4.0422818e-07 0)
(0.033663284 3.9628982e-07 0)
(0.033635857 -3.8945252e-07 0)
(0.033656344 3.8340622e-07 0)
(0.033642718 -4.0355339e-07 0)
(0.033649707 3.5593012e-07 0)
(0.033628404 0.0035166636 0)
(0.035899739 -7.4028957e-05 0)
(0.034645035 1.1106132e-05 0)
(0.035795536 5.813976e-07 0)
(0.034734879 -3.6948642e-06 0)
(0.035741214 2.3189069e-06 0)
(0.034808996 -3.2643029e-06 0)
(0.035684228 2.8622648e-06 0)
(0.034864579 -2.7825504e-06 0)
(0.035632851 2.5723229e-06 0)
(0.034913114 -2.429134e-06 0)
(0.035587463 2.2716868e-06 0)
(0.034955762 -2.135358e-06 0)
(0.035547482 2.0020057e-06 0)
(0.034993302 -1.8806139e-06 0)
(0.035512261 1.7646998e-06 0)
(0.035026374 -1.6580014e-06 0)
(0.035481213 1.5567756e-06 0)
(0.03505554 -1.4633069e-06 0)
(0.035453819 1.3748919e-06 0)
(0.035081287 -1.2931504e-06 0)
(0.035429619 1.2159991e-06 0)
(0.035104049 -1.1446299e-06 0)
(0.035408207 1.0774098e-06 0)
(0.035124206 -1.0152207e-06 0)
(0.035389225 9.5677554e-07 0)
(0.035142096 -9.027239e-07 0)
(0.035372356 8.5205009e-07 0)
(0.035158019 -8.052279e-07 0)
(0.035357317 7.614557e-07 0)
(0.035172238 -7.2107527e-07 0)
(0.03534386 6.8345368e-07 0)
(0.035184991 -6.4883489e-07 0)
(0.03533176 6.1671818e-07 0)
(0.035196489 -5.8727686e-07 0)
(0.035320817 5.6011318e-07 0)
(0.035206923 -5.3535131e-07 0)
(0.03531085 5.1267326e-07 0)
(0.035216465 -4.9216969e-07 0)
(0.035301695 4.7358469e-07 0)
(0.035225272 -4.5698633e-07 0)
(0.0352932 4.4216658e-07 0)
(0.03523349 -4.2917771e-07 0)
(0.035285227 4.178444e-07 0)
(0.035241253 -4.081891e-07 0)
(0.035277643 4.001667e-07 0)
(0.03524869 -3.9321892e-07 0)
(0.035270316 3.8710382e-07 0)
(0.035255931 -4.0818683e-07 0)
(0.035263273 3.5834715e-07 0)
(0.035227786 0.0035205841 0)
(0.037437768 -7.9815479e-05 0)
(0.036176458 1.1272165e-05 0)
(0.037367672 5.3887013e-07 0)
(0.036256624 -3.7868918e-06 0)
(0.037312176 2.2633579e-06 0)
(0.036332458 -3.2848511e-06 0)
(0.037252053 2.8692488e-06 0)
(0.036390715 -2.7932593e-06 0)
(0.037198018 2.5803949e-06 0)
(0.036441689 -2.4375189e-06 0)
(0.037150321 2.2791641e-06 0)
(0.036486496 -2.1425837e-06 0)
(0.03710831 2.0086811e-06 0)
(0.036525938 -1.8869615e-06 0)
(0.037071301 1.7706158e-06 0)
(0.036560688 -1.6636068e-06 0)
(0.037038678 1.5620161e-06 0)
(0.036591332 -1.4682688e-06 0)
(0.037009894 1.3795398e-06 0)
(0.036618386 -1.2975517e-06 0)
(0.036984464 1.2201293e-06 0)
(0.036642303 -1.1485429e-06 0)
(0.036961964 1.0810888e-06 0)
(0.036663485 -1.018709e-06 0)
(0.036942017 9.6006211e-07 0)
(0.036682284 -9.058439e-07 0)
(0.03692429 8.549964e-07 0)
(0.036699017 -8.0802929e-07 0)
(0.036908486 7.6410801e-07 0)
(0.03671396 -7.2360222e-07 0)
(0.036894343 6.8585328e-07 0)
(0.036727362 -6.5112679e-07 0)
(0.036881627 6.1890192e-07 0)
(0.036739447 -5.8936882e-07 0)
(0.036870125 5.6211406e-07 0)
(0.036750414 -5.372749e-07 0)
(0.036859649 5.1452094e-07 0)
(0.036760443 -4.9395305e-07 0)
(0.036850026 4.7530553e-07 0)
(0.036769701 -4.5865441e-07 0)
(0.036841097 4.4378369e-07 0)
(0.036778338 -4.3075172e-07 0)
(0.036832715 4.1937601e-07 0)
(0.036786499 -4.0968303e-07 0)
(0.036824743 4.0162509e-07 0)
(0.036794316 -3.946096e-07 0)
(0.036817042 3.8846556e-07 0)
(0.036801925 -4.1031695e-07 0)
(0.036809604 3.586065e-07 0)
(0.036776684 0.0035052641 0)
(0.038904833 -8.5295742e-05 0)
(0.03764545 1.1355117e-05 0)
(0.038872484 5.9451686e-07 0)
(0.037712322 -3.8674619e-06 0)
(0.038815094 2.1988728e-06 0)
(0.037789527 -3.285916e-06 0)
(0.038751882 2.8598557e-06 0)
(0.037850348 -2.7876519e-06 0)
(0.038695279 2.573492e-06 0)
(0.037903672 -2.4317251e-06 0)
(0.038645355 2.2733957e-06 0)
(0.037950558 -2.1373525e-06 0)
(0.038601387 2.0036804e-06 0)
(0.037991833 -1.8823387e-06 0)
(0.038562656 1.766239e-06 0)
(0.0380282 -1.6595401e-06 0)
(0.038528514 1.5581761e-06 0)
(0.03806027 -1.4646939e-06 0)
(0.038498389 1.3761676e-06 0)
(0.038088583 -1.2944085e-06 0)
(0.038471775 1.2171658e-06 0)
(0.038113615 -1.1457775e-06 0)
(0.038448226 1.078482e-06 0)
(0.038135783 -1.0162736e-06 0)
(0.038427348 9.5776617e-07 0)
(0.03815546 -9.0369605e-07 0)
(0.038408793 8.529707e-07 0)
(0.038172973 -8.0613131e-07 0)
(0.038392252 7.6231651e-07 0)
(0.038188614 -7.2192051e-07 0)
(0.038377448 6.8426378e-07 0)
(0.038202643 -6.4963121e-07 0)
(0.038364136 6.1748564e-07 0)
(0.038215294 -5.8803228e-07 0)
(0.038352096 5.6084493e-07 0)
(0.038226774 -5.3607266e-07 0)
(0.038341129 5.1337511e-07 0)
(0.038237274 -4.9286237e-07 0)
(0.038331054 4.7426086e-07 0)
(0.038246966 -4.5765371e-07 0)
(0.038321706 4.4281851e-07 0)
(0.038256009 -4.2981914e-07 0)
(0.03831293 4.1846729e-07 0)
(0.038264553 -4.0879315e-07 0)
(0.038304583 4.0074666e-07 0)
(0.038272738 -3.9370566e-07 0)
(0.038296523 3.8757085e-07 0)
(0.038280701 -4.1001826e-07 0)
(0.038288702 3.5680464e-07 0)
(0.038273525 0.0034714768 0)
(0.040309962 -8.9816651e-05 0)
(0.039045115 1.0895313e-05 0)
(0.040309163 6.6571968e-07 0)
(0.0391018 -3.9453379e-06 0)