/*--------------------------------*- C++ -*----------------------------------*\
| =========                 |                                                 |
| \\      /  F ield         | OpenFOAM: The Open Source CFD Toolbox           |
|  \\    /   O peration     | Version:  2312                                  |
|   \\  /    A nd           | Website:  www.openfoam.com                      |
|    \\/     M anipulation  |                                                 |
\*---------------------------------------------------------------------------*/
FoamFile
{
    version     2.0;
    format      ascii;
    arch        "LSB;label=32;scalar=64";
    class       volVectorField;
    location    "3";
    object      U_0;
}
// * * * * * * * * * * * * * * * * * * * * * * * * * * * * * * * * * * * * * //

dimensions      [0 1 -1 0 0 0 0];

internalField   nonuniform List<vector> 
4000
(
(0.0013476992 0.00023021824 0)
(0.0014476167 -1.2431329e-06 0)
(0.0013497747 -1.5201673e-07 0)
(0.0013956684 1.4817957e-07 0)
(0.0013599589 -1.3734744e-07 0)
(0.0013934967 1.3042741e-07 0)
(0.001362954 -1.2110793e-07 0)
(0.0013916805 1.1384329e-07 0)
(0.0013648683 -1.0663224e-07 0)
(0.0013900175 1.0006525e-07 0)
(0.0013664712 -9.3848802e-08 0)
(0.0013885337 8.8054862e-08 0)
(0.0013678711 -8.2619988e-08 0)
(0.0013872238 7.7536679e-08 0)
(0.0013691017 -7.2776729e-08 0)
(0.0013860698 6.8323846e-08 0)
(0.0013701852 -6.4156042e-08 0)
(0.0013850527 6.0258946e-08 0)
(0.0013711401 -5.6612538e-08 0)
(0.0013841558 5.3205157e-08 0)
(0.0013719827 -5.0018488e-08 0)
(0.0013833638 4.7042957e-08 0)
(0.001372727 -4.4262116e-08 0)
(0.0013826636 4.1667934e-08 0)
(0.0013733857 -3.9245802e-08 0)
(0.0013820434 3.6988983e-08 0)
(0.0013739698 -3.4884468e-08 0)
(0.0013814927 3.2926758e-08 0)
(0.001374489 -3.1104141e-08 0)
(0.0013810024 2.9412326e-08 0)
(0.0013749521 -2.7840699e-08 0)
(0.0013805642 2.6386036e-08 0)
(0.0013753668 -2.503878e-08 0)
(0.0013801708 2.3796513e-08 0)
(0.0013757401 -2.2650832e-08 0)
(0.0013798157 2.1599818e-08 0)
(0.0013760782 -2.063633e-08 0)
(0.001379493 1.9758708e-08 0)
(0.0013763867 -1.8961105e-08 0)
(0.0013791972 1.8242023e-08 0)
(0.0013766707 -1.7596823e-08 0)
(0.0013789235 1.7024224e-08 0)
(0.001376935 -1.6520629e-08 0)
(0.0013786674 1.6085119e-08 0)
(0.0013771839 -1.571509e-08 0)
(0.0013784244 1.5409985e-08 0)
(0.0013774216 -1.516982e-08 0)
(0.001378191 1.499207e-08 0)
(0.001377659 -1.4851838e-08 0)
(0.0013780127 1.536507e-08 0)
(0.0037621122 0.00063527007 0)
(0.0041625429 4.1342785e-07 0)
(0.003923954 4.4282867e-08 0)
(0.0040512963 4.1094055e-07 0)
(0.0039476263 -4.7827285e-07 0)
(0.0040454092 4.351934e-07 0)
(0.0039562682 -4.2132318e-07 0)
(0.00404014 3.9226614e-07 0)
(0.0039618376 -3.6964071e-07 0)
(0.0040352847 3.4613423e-07 0)
(0.0039665174 -3.2496165e-07 0)
(0.004030952 3.0476876e-07 0)
(0.0039706063 -2.8602026e-07 0)
(0.0040271276 2.6839918e-07 0)
(0.003974201 -2.5194071e-07 0)
(0.0040237578 2.3652123e-07 0)
(0.0039773666 -2.2210408e-07 0)
(0.0040207878 2.0861222e-07 0)
(0.0039801569 -1.9599789e-07 0)
(0.0040181681 1.8420228e-07 0)
(0.0039826193 -1.731785e-07 0)
(0.0040158547 1.6287836e-07 0)
(0.0039847951 -1.5325879e-07 0)
(0.0040138088 1.442792e-07 0)
(0.0039867209 -1.3590086e-07 0)
(0.0040119961 1.280895e-07 0)
(0.003988429 -1.2081026e-07 0)
(0.0040103862 1.1403467e-07 0)
(0.003989948 -1.0773097e-07 0)
(0.0040089521 1.0187617e-07 0)
(0.0039913035 -9.6441083e-08 0)
(0.0040076699 9.1407554e-08 0)
(0.003992518 -8.6748994e-08 0)
(0.0040065182 8.2451047e-08 0)
(0.0039936118 -7.849013e-08 0)
(0.0040054777 7.485455e-08 0)
(0.0039946031 -7.1524167e-08 0)
(0.0040045313 6.8489077e-08 0)
(0.0039955085 -6.5732715e-08 0)
(0.0040036632 6.324657e-08 0)
(0.003996343 -6.1017364e-08 0)
(0.0040028589 5.9038062e-08 0)
(0.0039971204 -5.7298146e-08 0)
(0.0040021051 5.5792383e-08 0)
(0.0039978537 -5.4512184e-08 0)
(0.0040013892 5.3456427e-08 0)
(0.0039985549 -5.2618996e-08 0)
(0.0040006992 5.1915773e-08 0)
(0.0039992489 -5.2237227e-08 0)
(0.0040001433 5.0039203e-08 0)
(0.0061104897 0.0010195196 0)
(0.0067968211 -5.171004e-07 0)
(0.0064328026 3.7672857e-07 0)
(0.0066398325 6.9472691e-07 0)
(0.0064680923 -8.6716219e-07 0)
(0.0066302027 7.7490987e-07 0)
(0.0064822965 -7.6244718e-07 0)
(0.0066214505 7.0719966e-07 0)
(0.0064915083 -6.6789428e-07 0)
(0.006613389 6.2489574e-07 0)
(0.0064992701 -5.8690826e-07 0)
(0.0066061988 5.5033231e-07 0)
(0.0065060551 -5.1653315e-07 0)
(0.0065998528 4.8468039e-07 0)
(0.0065120208 -4.5498211e-07 0)
(0.0065942612 4.2712142e-07 0)
(0.0065172745 -4.0110076e-07 0)
(0.0065893328 3.7672616e-07 0)
(0.006521906 -3.5395743e-07 0)
(0.0065849852 3.3264866e-07 0)
(0.0065259933 -3.1274986e-07 0)
(0.0065811457 2.941435e-07 0)
(0.0065296052 -2.7677871e-07 0)
(0.0065777498 2.6055839e-07 0)
(0.0065328026 -2.4543368e-07 0)
(0.0065747405 2.3132403e-07 0)
(0.0065356389 -2.18183e-07 0)
(0.0065720674 2.0594455e-07 0)
(0.0065381617 -1.9456428e-07 0)
(0.0065696858 1.8398919e-07 0)
(0.0065404134 -1.7417675e-07 0)
(0.006567556 1.6508514e-07 0)
(0.0065424313 -1.5667435e-07 0)
(0.0065656423 1.4891131e-07 0)
(0.0065442494 -1.4175977e-07 0)
(0.0065639129 1.3519296e-07 0)
(0.0065458977 -1.2917952e-07 0)
(0.0065623392 1.2369702e-07 0)
(0.0065474038 -1.1871955e-07 0)
(0.0065608949 1.1422804e-07 0)
(0.0065487926 -1.1020172e-07 0)
(0.0065595561 1.066248e-07 0)
(0.0065500872 -1.0348078e-07 0)
(0.0065583006 1.0075747e-07 0)
(0.0065513091 -9.8440827e-08 0)
(0.0065571073 9.652789e-08 0)
(0.0065524785 -9.5000353e-08 0)
(0.0065559557 9.3691919e-08 0)
(0.0065536323 -9.4671784e-08 0)
(0.006555004 8.9891577e-08 0)
(0.0084122921 0.0013735653 0)
(0.0093568112 -2.405317e-06 0)
(0.0088760477 9.7529808e-07 0)
(0.0091614772 9.1877046e-07 0)
(0.0089212723 -1.2423597e-06 0)
(0.0091479654 1.0889009e-06 0)
(0.008940966 -1.0904708e-06 0)
(0.0091356922 1.0074896e-06 0)
(0.0089538159 -9.5372519e-07 0)
(0.0091244014 8.9153013e-07 0)
(0.0089646727 -8.3769624e-07 0)
(0.0091143368 7.8532454e-07 0)
(0.0089741675 -7.3718507e-07 0)
(0.0091054551 6.9167312e-07 0)
(0.0089825166 -6.4933301e-07 0)
(0.0090976291 6.0954375e-07 0)
(0.0089898696 -5.7243776e-07 0)
(0.0090907312 5.3763222e-07 0)
(0.0089963519 -5.0516043e-07 0)
(0.0090846461 4.7473509e-07 0)
(0.009002073 -4.4635449e-07 0)
(0.0090792717 4.1978931e-07 0)
(0.009007129 -3.9502157e-07 0)
(0.0090745179 3.7186421e-07 0)
(0.0090116049 -3.5029061e-07 0)
(0.009070305 3.3014743e-07 0)
(0.0090155759 -3.1140262e-07 0)
(0.0090665624 2.9393136e-07 0)
(0.0090191083 -2.7769769e-07 0)
(0.0090632276 2.6260134e-07 0)
(0.0090222614 -2.486038e-07 0)
(0.0090602448 2.3562537e-07 0)
(0.0090250877 -2.23627e-07 0)
(0.0090575644 2.1254524e-07 0)
(0.0090276345 -2.0234298e-07 0)
(0.0090551417 1.9296883e-07 0)
(0.009029944 -1.8438984e-07 0)
(0.0090529364 1.7656342e-07 0)
(0.0090320547 -1.6946201e-07 0)
(0.0090509121 1.6304992e-07 0)
(0.0090340016 -1.5730502e-07 0)
(0.009049035 1.5219784e-07 0)
(0.009035817 -1.4771091e-07 0)
(0.0090472742 1.4382098e-07 0)
(0.0090375311 -1.4051239e-07 0)
(0.0090455998 1.3777834e-07 0)
(0.0090391724 -1.3558473e-07 0)
(0.0090439825 1.336734e-07 0)
(0.0090407883 -1.3568672e-07 0)
(0.0090426172 1.2790333e-07 0)
(0.010658955 0.0016964936 0)
(0.0118402 -5.1839203e-06 0)
(0.011253295 1.7894534e-06 0)
(0.011616373 1.0790317e-06 0)
(0.011307177 -1.5878645e-06 0)
(0.01159868 1.3643775e-06 0)
(0.011332293 -1.3923288e-06 0)
(0.011582845 1.2812588e-06 0)
(0.011348774 -1.2157515e-06 0)
(0.011568304 1.1354515e-06 0)
(0.011362737 -1.0673414e-06 0)
(0.01155535 1.0004099e-06 0)
(0.011374953 -9.3919329e-07 0)
(0.011543921 8.8115276e-07 0)
(0.011385697 -8.2725818e-07 0)
(0.01153385 7.7653915e-07 0)
(0.011395159 -7.2929609e-07 0)
(0.011524973 6.8493575e-07 0)
(0.011403501 -6.4358941e-07 0)
(0.011517142 6.0481438e-07 0)
(0.011410863 -5.6867539e-07 0)
(0.011510226 5.3482167e-07 0)
(0.01141737 -5.0328177e-07 0)
(0.011504107 4.7377222e-07 0)
(0.011423131 -4.4629877e-07 0)
(0.011498685 4.2063116e-07 0)
(0.011428242 -3.9675941e-07 0)
(0.011493868 3.7449717e-07 0)
(0.011432789 -3.5382293e-07 0)
(0.011489575 3.3458721e-07 0)
(0.011436847 -3.1676048e-07 0)
(0.011485735 3.0022365e-07 0)
(0.011440486 -2.8494275e-07 0)
(0.011482284 2.7082276e-07 0)
(0.011443765 -2.5782909e-07 0)
(0.011479165 2.4588497e-07 0)
(0.011446739 -2.3495844e-07 0)
(0.011476325 2.2498636e-07 0)
(0.011449457 -2.159414e-07 0)
(0.011473718 2.077712e-07 0)
(0.011451965 -2.0045357e-07 0)
(0.0114713 1.9394555e-07 0)
(0.011454303 -1.8822957e-07 0)
(0.011469031 1.8327139e-07 0)
(0.011456512 -1.7905434e-07 0)
(0.011466874 1.7556887e-07 0)
(0.011458627 -1.7275867e-07 0)
(0.011464789 1.7028133e-07 0)
(0.011460706 -1.7360545e-07 0)
(0.011462996 1.6262277e-07 0)
(0.012848596 0.0019896366 0)
(0.014247176 -8.7326321e-06 0)
(0.013564462 2.7582465e-06 0)
(0.014004542 1.1848405e-06 0)
(0.013625915 -1.9028938e-06 0)
(0.013982237 1.6032242e-06 0)
(0.013656381 -1.6691008e-06 0)
(0.013962813 1.5298114e-06 0)
(0.013676473 -1.4550187e-06 0)
(0.013945013 1.3576917e-06 0)
(0.013693542 -1.2767883e-06 0)
(0.013929165 1.1964821e-06 0)
(0.013708483 -1.1233939e-06 0)
(0.013915185 1.0539038e-06 0)
(0.013721623 -9.8949441e-07 0)
(0.013902866 9.2879815e-07 0)
(0.013733196 -8.7232495e-07 0)
(0.013892008 8.1924529e-07 0)
(0.0137434 -7.6981675e-07 0)
(0.01388243 7.2342334e-07 0)
(0.013752405 -6.8021778e-07 0)
(0.013873969 6.3971473e-07 0)
(0.013760365 -6.0200592e-07 0)
(0.013866485 5.6670187e-07 0)
(0.013767412 -5.3385368e-07 0)
(0.013859852 5.0314714e-07 0)
(0.013773664 -4.7460442e-07 0)
(0.013853958 4.4797253e-07 0)
(0.013779226 -4.2325247e-07 0)
(0.013848707 4.0024164e-07 0)
(0.013784192 -3.7892599e-07 0)
(0.013844009 3.59144e-07 0)
(0.013788644 -3.4087217e-07 0)
(0.013839786 3.239815e-07 0)
(0.013792656 -3.0844432e-07 0)
(0.013835969 2.9415659e-07 0)
(0.013796295 -2.8109085e-07 0)
(0.013832494 2.6916213e-07 0)
(0.013799622 -2.5834597e-07 0)
(0.013829303 2.4857247e-07 0)
(0.013802691 -2.398214e-07 0)
(0.013826344 2.320356e-07 0)
(0.013805553 -2.2519904e-07 0)
(0.013823567 2.1926581e-07 0)
(0.013808257 -2.1421933e-07 0)
(0.013820926 2.1004747e-07 0)
(0.013810846 -2.0666578e-07 0)
(0.013818373 2.0365934e-07 0)
(0.013813388 -2.0849216e-07 0)
(0.013816143 1.9412576e-07 0)
(0.014983609 0.0022544913 0)
(0.016578311 -1.3000797e-05 0)
(0.015809529 3.8177747e-06 0)
(0.016325878 1.2453416e-06 0)
(0.015877614 -2.1871695e-06 0)
(0.016298515 1.8084192e-06 0)
(0.015913345 -1.9229441e-06 0)
(0.016275489 1.7554803e-06 0)
(0.015937015 -1.6735295e-06 0)
(0.016254433 1.5601849e-06 0)
(0.015957178 -1.4678257e-06 0)
(0.016235699 1.3752294e-06 0)
(0.015974834 -1.2913663e-06 0)
(0.016219174 1.2114106e-06 0)
(0.015990363 -1.1374336e-06 0)
(0.016204615 1.0676281e-06 0)
(0.016004042 -1.0027512e-06 0)
(0.016191781 9.4171351e-07 0)
(0.016016101 -8.8492481e-07 0)
(0.016180459 8.3157943e-07 0)
(0.016026745 -7.8193776e-07 0)
(0.016170459 7.3536779e-07 0)
(0.016036153 -6.9203985e-07 0)
(0.016161612 6.5144944e-07 0)
(0.016044483 -6.1370508e-07 0)
(0.016153772 5.7840192e-07 0)
(0.016051873 -5.4560386e-07 0)
(0.016146805 5.1498622e-07 0)
(0.016058449 -4.8658011e-07 0)
(0.016140597 4.6012604e-07 0)
(0.016064319 -4.3563158e-07 0)
(0.016135043 4.1288989e-07 0)
(0.016069582 -3.9189286e-07 0)
(0.016130051 3.7247533e-07 0)
(0.016074325 -3.5462049e-07 0)
(0.016125538 3.3819547e-07 0)
(0.016078628 -3.231804e-07 0)
(0.01612143 3.0946726e-07 0)
(0.016082561 -2.9703695e-07 0)
(0.016117657 2.8580114e-07 0)
(0.01608619 -2.7574348e-07 0)
(0.016114158 2.6679197e-07 0)
(0.016089575 -2.5893354e-07 0)
(0.016110874 2.5210991e-07 0)
(0.016092772 -2.4630565e-07 0)
(0.01610775 2.415059e-07 0)
(0.016095835 -2.3759263e-07 0)
(0.01610473 2.3409331e-07 0)
(0.016098837 -2.4056114e-07 0)
(0.016102056 2.2266587e-07 0)
(0.01706654 0.0024919124 0)
(0.018834357 -1.7916817e-05 0)
(0.017988613 4.9133196e-06 0)
(0.018580083 1.267301e-06 0)
(0.018062401 -2.4390409e-06 0)
(0.018547402 1.9811883e-06 0)
(0.018103286 -2.1544568e-06 0)
(0.018520778 1.9591015e-06 0)
(0.018130486 -1.8718905e-06 0)
(0.01849648 1.7435546e-06 0)
(0.018153721 -1.6410129e-06 0)
(0.018474878 1.5371876e-06 0)
(0.018174075 -1.4436077e-06 0)
(0.018455825 1.3541427e-06 0)
(0.018191978 -1.2715141e-06 0)
(0.018439038 1.1934422e-06 0)
(0.018207748 -1.1209613e-06 0)
(0.018424242 1.0527045e-06 0)
(0.018221652 -9.8925451e-07 0)
(0.018411188 9.2960379e-07 0)
(0.018233924 -8.7413637e-07 0)
(0.018399657 8.2206452e-07 0)
(0.018244771 -7.7364983e-07 0)
(0.018389457 7.2826595e-07 0)
(0.018254375 -6.8608892e-07 0)
(0.018380416 6.4661814e-07 0)
(0.018262897 -6.0996729e-07 0)
(0.018372383 5.7573619e-07 0)
(0.018270479 -5.4399254e-07 0)
(0.018365224 5.1441712e-07 0)
(0.018277248 -4.8704424e-07 0)
(0.01835882 4.6161969e-07 0)
(0.018283317 -4.3815489e-07 0)
(0.018353063 4.1644699e-07 0)
(0.018288787 -3.9649337e-07 0)
(0.018347859 3.7813112e-07 0)
(0.018293749 -3.613507e-07 0)
(0.01834312 3.4602018e-07 0)
(0.018298285 -3.3212798e-07 0)
(0.018338769 3.1956669e-07 0)
(0.018302471 -3.0832549e-07 0)
(0.018334732 2.98317e-07 0)
(0.018306375 -2.8953247e-07 0)
(0.018330945 2.819007e-07 0)
(0.018310063 -2.7540831e-07 0)
(0.018327342 2.7003755e-07 0)
(0.018313596 -2.6563205e-07 0)
(0.018323858 2.6167822e-07 0)
(0.018317056 -2.698537e-07 0)
(0.018320734 2.4833245e-07 0)
(0.01909914 0.0027026171 0)
(0.021016107 -2.3390463e-05 0)
(0.020101958 5.9977839e-06 0)
(0.020766664 1.2574669e-06 0)
(0.020180415 -2.6578338e-06 0)
(0.020728795 2.1222603e-06 0)
(0.020226293 -2.3636612e-06 0)
(0.020698596 2.1409307e-06 0)
(0.020256967 -2.0501669e-06 0)
(0.020671083 1.9079167e-06 0)
(0.020283241 -1.7964332e-06 0)
(0.020646637 1.682446e-06 0)
(0.020306266 -1.580196e-06 0)
(0.02062508 1.4821767e-06 0)
(0.02032652 -1.3918052e-06 0)
(0.020606088 1.3063072e-06 0)
(0.020344361 -1.2270161e-06 0)
(0.020589346 1.1522767e-06 0)
(0.020360092 -1.0828594e-06 0)
(0.020574577 1.0175477e-06 0)
(0.020373977 -9.5686074e-07 0)
(0.02056153 8.9984996e-07 0)
(0.020386249 -8.4687733e-07 0)
(0.020549989 7.9719096e-07 0)
(0.020397116 -7.5104174e-07 0)
(0.020539759 7.0783059e-07 0)
(0.020406758 -6.6772696e-07 0)
(0.02053067 6.3025317e-07 0)
(0.020415337 -5.955183e-07 0)
(0.020522569 5.6314199e-07 0)
(0.020422997 -5.3318927e-07 0)
(0.020515322 5.0535752e-07 0)
(0.020429865 -4.7968084e-07 0)
(0.020508807 4.5591801e-07 0)
(0.020436055 -4.3408314e-07 0)
(0.020502918 4.1398291e-07 0)
(0.020441671 -3.9562011e-07 0)
(0.020497555 3.7883857e-07 0)
(0.020446804 -3.6363589e-07 0)
(0.02049263 3.4988532e-07 0)
(0.020451542 -3.3758301e-07 0)
(0.020488062 3.2662592e-07 0)
(0.02045596 -3.1701068e-07 0)
(0.020483775 3.0865287e-07 0)
(0.020460135 -3.0154189e-07 0)
(0.020479696 2.9565701e-07 0)
(0.020464134 -2.9079968e-07 0)
(0.020475753 2.8643242e-07 0)
(0.020468046 -2.9634385e-07 0)
(0.020472178 2.7115481e-07 0)
(0.021082581 0.0028873657 0)
(0.023124419 -2.9321124e-05 0)
(0.022149783 7.0327089e-06 0)
(0.022885116 1.2227454e-06 0)
(0.0222318 -2.8454217e-06 0)
(0.0228426 2.2327326e-06 0)
(0.022282444 -2.5506579e-06 0)
(0.022808867 2.3012556e-06 0)
(0.022316528 -2.2084584e-06 0)
(0.022778172 2.0534184e-06 0)
(0.0223458 -1.9342005e-06 0)
(0.022750919 1.8111224e-06 0)
(0.022371462 -1.7012356e-06 0)
(0.022726889 1.595614e-06 0)
(0.022394038 -1.4983995e-06 0)
(0.022705717 1.4063116e-06 0)
(0.022413925 -1.3209972e-06 0)
(0.022687056 1.2405077e-06 0)
(0.022431459 -1.1658111e-06 0)
(0.022670592 1.0954792e-06 0)
(0.022446936 -1.0301738e-06 0)
(0.022656048 9.687838e-07 0)
(0.022460617 -9.1177772e-07 0)
(0.022643183 8.5827693e-07 0)
(0.02247273 -8.0861227e-07 0)
(0.022631779 7.6208546e-07 0)
(0.022483479 -7.1892583e-07 0)
(0.022621646 6.7857782e-07 0)
(0.022493043 -6.4119532e-07 0)
(0.022612614 6.0633666e-07 0)
(0.022501583 -5.7410032e-07 0)
(0.022604534 5.4413526e-07 0)
(0.02250924 -5.165006e-07 0)
(0.022597271 4.9091681e-07 0)
(0.022516141 -4.6741662e-07 0)
(0.022590704 4.4577634e-07 0)
(0.022522403 -4.2601268e-07 0)
(0.022584724 4.0794541e-07 0)
(0.022528127 -3.9158255e-07 0)
(0.022579233 3.7677815e-07 0)
(0.022533409 -3.6353627e-07 0)
(0.022574139 3.5173831e-07 0)
(0.022538337 -3.4138708e-07 0)
(0.022569358 3.3238493e-07 0)
(0.022542991 -3.2472463e-07 0)
(0.022564811 3.1838237e-07 0)
(0.022547451 -3.1311448e-07 0)
(0.022560414 3.0837638e-07 0)
(0.022551811 -3.2001297e-07 0)
(0.022556387 2.9117074e-07 0)
(0.0230177 0.0030469209 0)
(0.025160231 -3.5603005e-05 0)
(0.024132116 7.9882321e-06 0)
(0.024935099 1.1694451e-06 0)
(0.024216695 -3.0060692e-06 0)
(0.024888739 2.3142505e-06 0)
(0.024271814 -2.7157027e-06 0)
(0.024851522 2.4404891e-06 0)
(0.024309234 -2.3469865e-06 0)
(0.024817688 2.1803207e-06 0)
(0.024341456 -2.0545363e-06 0)
(0.024787668 1.9234348e-06 0)
(0.024369714 -1.806926e-06 0)
(0.024761203 1.6946443e-06 0)
(0.024394576 -1.591473e-06 0)
(0.024737886 1.4936221e-06 0)
(0.024416476 -1.4030594e-06 0)
(0.024717334 1.3175439e-06 0)
(0.024435786 -1.238246e-06 0)
(0.024699201 1.1635271e-06 0)
(0.024452832 -1.0941957e-06 0)
(0.024683183 1.0289795e-06 0)
(0.024467899 -9.6845689e-07 0)
(0.024669013 9.1162383e-07 0)
(0.02448124 -8.5889402e-07 0)
(0.024656452 8.0947101e-07 0)
(0.024493079 -7.6364662e-07 0)
(0.024645291 7.207883e-07 0)
(0.024503614 -6.8109697e-07 0)
(0.024635344 6.4407046e-07 0)
(0.02451302 -6.098426e-07 0)
(0.024626444 5.7801473e-07 0)
(0.024521454 -5.4867248e-07 0)
(0.024618443 5.2149871e-07 0)
(0.024529057 -4.9654611e-07 0)
(0.024611209 4.7356123e-07 0)
(0.024535954 -4.5257583e-07 0)
(0.024604621 4.3338603e-07 0)
(0.02454226 -4.1601124e-07 0)
(0.024598571 4.0028665e-07 0)
(0.02454808 -3.8622509e-07 0)
(0.024592959 3.736927e-07 0)
(0.024553509 -3.62699e-07 0)
(0.024587692 3.531333e-07 0)
(0.024558637 -3.4499215e-07 0)
(0.024582681 3.3824863e-07 0)
(0.02456355 -3.3261211e-07 0)
(0.024577837 3.2754674e-07 0)
(0.02456835 -3.4086349e-07 0)
(0.024573361 3.0843637e-07 0)
(0.024905086 0.0031820332 0)
(0.027124548 -4.2128474e-05 0)
(0.026048783 8.8433264e-06 0)
(0.026916481 1.1033727e-06 0)
(0.02613522 -3.1450743e-06 0)
(0.026867142 2.3688948e-06 0)
(0.026194468 -2.8591223e-06 0)
(0.026826496 2.559117e-06 0)
(0.026235145 -2.4660467e-06 0)
(0.026789574 2.2889545e-06 0)
(0.026270261 -2.1577283e-06 0)
(0.026756837 2.0196633e-06 0)
(0.026301067 -1.8975249e-06 0)
(0.02672798 1.7795121e-06 0)
(0.026328173 -1.6712529e-06 0)
(0.026702557 1.5684531e-06 0)
(0.026352051 -1.473403e-06 0)
(0.026680147 1.383574e-06 0)
(0.026373106 -1.3003404e-06 0)
(0.026660375 1.2218574e-06 0)
(0.026391691 -1.1490817e-06 0)
(0.02664291 1.0805833e-06 0)
(0.02640812 -1.0170519e-06 0)
(0.026627458 9.5736084e-07 0)
(0.026422667 -9.0200805e-07 0)
(0.026613762 8.5010145e-07 0)
(0.026435577 -8.0199648e-07 0)
(0.026601591 7.5698576e-07 0)
(0.026447064 -7.1531834e-07 0)
(0.026590743 6.7643329e-07 0)
(0.026457322 -6.4050084e-07 0)
(0.026581037 6.0707608e-07 0)
(0.02646652 -5.7627221e-07 0)
(0.026572311 5.4773559e-07 0)
(0.026474811 -5.2153976e-07 0)
(0.026564421 4.9740243e-07 0)
(0.026482334 -4.7537117e-07 0)
(0.026557236 4.5521927e-07 0)
(0.026489212 -4.369782e-07 0)
(0.026550638 4.2046495e-07 0)
(0.026495559 -4.0570154e-07 0)
(0.026544516 3.9253936e-07 0)
(0.026501481 -3.8099511e-07 0)
(0.026538771 3.7094539e-07 0)
(0.026507075 -3.6239092e-07 0)
(0.026533306 3.5530157e-07 0)
(0.026512434 -3.493388e-07 0)
(0.026528022 3.4399007e-07 0)
(0.026517666 -3.5891219e-07 0)
(0.0265231 3.2302071e-07 0)
(0.026745067 0.0032934455 0)
(0.029018431 -4.8794142e-05 0)
(0.027899476 9.5919373e-06 0)
(0.028829263 1.0294238e-06 0)
(0.027987469 -3.2675241e-06 0)
(0.028777753 2.399016e-06 0)
(0.028050468 -2.9812551e-06 0)
(0.028733731 2.6576623e-06 0)
(0.028094316 -2.5659804e-06 0)
(0.028693778 2.3796935e-06 0)
(0.028132263 -2.2441052e-06 0)
(0.028658379 2.1001258e-06 0)
(0.028165564 -1.9733256e-06 0)
(0.02862718 1.8504953e-06 0)
(0.028194868 -1.7379982e-06 0)
(0.028599693 1.6310489e-06 0)
(0.028220682 -1.5322558e-06 0)
(0.028575465 1.4388128e-06 0)
(0.028243445 -1.352295e-06 0)
(0.028554088 1.2706594e-06 0)
(0.028263539 -1.1950089e-06 0)
(0.028535205 1.1237621e-06 0)
(0.028281301 -1.0577189e-06 0)
(0.028518498 9.9563519e-07 0)
(0.02829703 -9.3809244e-07 0)
(0.028503688 8.8410695e-07 0)
(0.028310988 -8.340977e-07 0)
(0.028490528 7.8728564e-07 0)
(0.028323409 -7.4396802e-07 0)
(0.028478798 7.0352776e-07 0)
(0.028334501 -6.6617175e-07 0)
(0.028468302 6.3141094e-07 0)
(0.028344447 -5.9938635e-07 0)
(0.028458867 5.6970961e-07 0)
(0.028353414 -5.4247541e-07 0)
(0.028450334 5.1737408e-07 0)
(0.028361549 -4.9446931e-07 0)
(0.028442564 4.7351268e-07 0)
(0.028368988 -4.5454799e-07 0)
(0.028435427 4.3737494e-07 0)
(0.028375853 -4.220251e-07 0)
(0.028428806 4.0833585e-07 0)
(0.028382257 -3.963312e-07 0)
(0.028422592 3.8587559e-07 0)
(0.028388308 -3.7697412e-07 0)
(0.028416681 3.6959346e-07 0)
(0.028394105 -3.633473e-07 0)
(0.028410967 3.5775936e-07 0)
(0.02839976 -3.741871e-07 0)
(0.028405604 3.3500002e-07 0)
(0.028537686 0.0033818934 0)
(0.030842901 -5.5500131e-05 0)
(0.029683873 1.0248691e-05 0)
(0.030673501 9.4826367e-07 0)
(0.02977351 -3.3785906e-06 0)
(0.03062052 2.4069008e-06 0)
(0.029839869 -3.0824561e-06 0)
(0.030573174 2.7366766e-06 0)
(0.029886796 -2.6471662e-06 0)
(0.030530254 2.4529481e-06 0)
(0.029927505 -2.3140303e-06 0)
(0.030492254 2.1651731e-06 0)
(0.029963243 -2.0346524e-06 0)
(0.030458766 1.9079005e-06 0)
(0.029994693 -1.7919948e-06 0)
(0.030429265 1.6816788e-06 0)
(0.0300224 -1.5798698e-06 0)
(0.030403259 1.4834974e-06 0)
(0.030046831 -1.3943317e-06 0)
(0.030380314 1.3101419e-06 0)
(0.030068398 -1.2321728e-06 0)
(0.030360046 1.1587e-06 0)
(0.030087463 -1.0906306e-06 0)
(0.030342113 1.0266095e-06 0)
(0.030104346 -9.6729979e-07 0)
(0.030326216 9.1163144e-07 0)
(0.030119329 -8.6008548e-07 0)
(0.030312089 8.118155e-07 0)
(0.030132663 -7.6716608e-07 0)
(0.030299497 7.254674e-07 0)
(0.030144569 -6.869624e-07 0)
(0.03028823 6.5112064e-07 0)
(0.030155247 -6.1811074e-07 0)
(0.0302781 5.8751173e-07 0)
(0.030164873 -5.5943939e-07 0)
(0.030268939 5.3355833e-07 0)
(0.030173608 -5.099484e-07 0)
(0.030260596 4.883409e-07 0)
(0.030181594 -4.6879202e-07 0)
(0.030252934 4.5108533e-07 0)
(0.030188965 -4.3526191e-07 0)
(0.030245825 4.2114602e-07 0)
(0.030195842 -4.0876907e-07 0)
(0.030239152 3.9798412e-07 0)
(0.030202339 -3.8880072e-07 0)
(0.030232805 3.8118234e-07 0)
(0.030208563 -3.7469594e-07 0)
(0.030226671 3.6891254e-07 0)
(0.030214632 -3.8672519e-07 0)
(0.030220873 3.4445669e-07 0)
(0.030282736 0.0034481031 0)
(0.032598646 -6.210448e-05 0)
(0.031401954 1.0808124e-05 0)
(0.032449241 8.5571409e-07 0)
(0.031493398 -3.483527e-06 0)
(0.032395397 2.3946546e-06 0)
(0.031562721 -3.1631549e-06 0)
(0.032344777 2.7967131e-06 0)
(0.031612631 -2.7100283e-06 0)
(0.032298959 2.5091616e-06 0)
(0.031656029 -2.3679012e-06 0)
(0.032258424 2.2151867e-06 0)
(0.031694141 -2.0818589e-06 0)
(0.032222707 1.9520618e-06 0)
(0.031727681 -1.8335546e-06 0)
(0.032191241 1.7206366e-06 0)
(0.03175723 -1.6165195e-06 0)
(0.032163505 1.5178863e-06 0)
(0.031783287 -1.4266924e-06 0)
(0.032139032 1.3405327e-06 0)
(0.03180629 -1.2607869e-06 0)
(0.032117413 1.1855981e-06 0)
(0.031826624 -1.1159754e-06 0)
(0.032098286 1.0504613e-06 0)
(0.031844632 -9.8979679e-07 0)
(0.03208133 9.3283198e-07 0)
(0.031860613 -8.8010755e-07 0)
(0.032066261 8.3071479e-07 0)
(0.031874836 -7.8504385e-07 0)
(0.032052829 7.4237624e-07 0)
(0.031887537 -7.0298983e-07 0)
(0.032040809 6.6631606e-07 0)
(0.031898928 -6.3255025e-07 0)
(0.032030002 6.0124149e-07 0)
(0.031909197 -5.7252607e-07 0)
(0.032020229 5.4604508e-07 0)
(0.031918515 -5.2189414e-07 0)
(0.032011329 4.9978591e-07 0)
(0.031927036 -4.7978871e-07 0)
(0.032003153 4.6167133e-07 0)
(0.031934901 -4.4548428e-07 0)
(0.031995568 4.3103982e-07 0)
(0.031942239 -4.1837656e-07 0)
(0.031988448 4.0733704e-07 0)
(0.03194917 -3.9793526e-07 0)
(0.031981676 3.9013165e-07 0)
(0.031955812 -3.8344833e-07 0)
(0.031975131 3.7751275e-07 0)
(0.031962284 -3.9657302e-07 0)
(0.031968908 3.5147692e-07 0)
(0.031979775 0.0034927654 0)
(0.034285327 -6.8319313e-05 0)
(0.03305464 1.1110205e-05 0)
(0.034156479 7.3424022e-07 0)
(0.033147157 -3.5872613e-06 0)
(0.03410233 2.3649071e-06 0)
(0.033219068 -3.2235848e-06 0)
(0.034048493 2.8384176e-06 0)
(0.033271863 -2.7550087e-06 0)
(0.033999854 2.5488148e-06 0)
(0.033317871 -2.4061447e-06 0)
(0.033956854 2.2505778e-06 0)
(0.033358288 -2.1153258e-06 0)
(0.03391897 1.9833388e-06 0)
(0.03339386 -1.8630133e-06 0)
(0.033885597 1.7482384e-06 0)
(0.033425199 -1.6425009e-06 0)
(0.033856178 1.542258e-06 0)
(0.033452835 -1.4496381e-06 0)
(0.033830221 1.3620771e-06 0)
(0.033477233 -1.2810812e-06 0)
(0.03380729 1.2046727e-06 0)
(0.033498801 -1.1339565e-06 0)
(0.033787002 1.0673819e-06 0)
(0.033517901 -1.0057632e-06 0)
(0.033769015 9.4787805e-07 0)
(0.033534853 -8.9432326e-07 0)
(0.033753031 8.4413385e-07 0)
(0.03354994 -7.9774297e-07 0)
(0.033738782 7.5438822e-07 0)
(0.033563414 -7.1438051e-07 0)
(0.033726031 6.7711687e-07 0)
(0.033575497 -6.4281814e-07 0)
(0.033714567 6.1100643e-07 0)
(0.033586392 -5.8183762e-07 0)
(0.033704198 5.5493159e-07 0)
(0.033596278 -5.3039911e-07 0)
(0.033694755 5.0793615e-07 0)
(0.033605319 -4.8762275e-07 0)
(0.03368608 4.6921442e-07 0)
(0.033613664 -4.5277069e-07 0)
(0.033678032 4.3809302e-07 0)
(0.033621449 -4.2522704e-07 0)
(0.033670477 4.1400579e-07 0)
(0.033628805 -4.0444767e-07 0)
(0.033663291 3.9651008e-07 0)
(0.033635852 -3.8967313e-07 0)
(0.033656348 3.8362757e-07 0)
(0.033642716 -4.0378485e-07 0)
(0.033649708 3.56151e-07 0)
(0.033628342 0.0035166639 0)
(0.035899796 -7.4029376e-05 0)
(0.03464498 1.110647e-05 0)
(0.035795589 5.8140306e-07 0)
(0.034734826 -3.6950931e-06 0)
(0.035741267 2.3189954e-06 0)
(0.034808943 -3.2643686e-06 0)
(0.03568428 2.8623281e-06 0)
(0.034864527 -2.7826246e-06 0)
(0.035632901 2.5724033e-06 0)
(0.034913063 -2.4292214e-06 0)
(0.035587513 2.2717815e-06 0)
(0.034955713 -2.1354593e-06 0)
(0.03554753 2.0021139e-06 0)
(0.034993254 -1.8807287e-06 0)
(0.035512307 1.7648207e-06 0)
(0.035026329 -1.658129e-06 0)
(0.035481258 1.5569087e-06 0)
(0.035055496 -1.4634462e-06 0)
(0.035453862 1.3750365e-06 0)
(0.035081245 -1.2933007e-06 0)
(0.03542966 1.2161545e-06 0)
(0.035104009 -1.1447904e-06 0)
(0.035408246 1.0775753e-06 0)
(0.035124168 -1.0153906e-06 0)
(0.035389261 9.5695021e-07 0)
(0.035142061 -9.0290259e-07 0)
(0.035372389 8.5223309e-07 0)
(0.035157986 -8.0541465e-07 0)
(0.035357349 7.6164616e-07 0)
(0.035172208 -7.212693e-07 0)
(0.035343889 6.8365087e-07 0)
(0.035184964 -6.4903542e-07 0)
(0.035331786 6.1692138e-07 0)
(0.035196465 -5.8748302e-07 0)
(0.03532084 5.6032169e-07 0)
(0.035206902 -5.3556238e-07 0)
(0.03531087 5.1288641e-07 0)
(0.035216447 -4.9238486e-07 0)
(0.035301712 4.7380164e-07 0)
(0.035225257 -4.5720488e-07 0)
(0.035293214 4.4238663e-07 0)
(0.035233478 -4.2939909e-07 0)
(0.035285237 4.1806686e-07 0)
(0.035241244 -4.0841263e-07 0)
(0.03527765 4.0039099e-07 0)
(0.035248684 -3.9344354e-07 0)
(0.03527032 3.8732916e-07 0)
(0.035255928 -4.0842317e-07 0)
(0.035263273 3.5857112e-07 0)
(0.03522772 0.0035205844 0)
(0.037437831 -7.9815939e-05 0)
(0.036176398 1.1272527e-05 0)
(0.037367729 5.3886501e-07 0)
(0.036256567 -3.7871216e-06 0)
(0.037312232 2.2634474e-06 0)
(0.036332403 -3.2849173e-06 0)
(0.037252108 2.8693128e-06 0)
(0.03639066 -2.7933346e-06 0)
(0.037198072 2.5804766e-06 0)
(0.036441636 -2.4376077e-06 0)
(0.037150374 2.2792602e-06 0)
(0.036486444 -2.1426865e-06 0)
(0.037108361 2.0087908e-06 0)
(0.036525887 -1.887078e-06 0)
(0.037071351 1.7707384e-06 0)
(0.036560639 -1.6637362e-06 0)
(0.037038726 1.562151e-06 0)
(0.036591285 -1.4684101e-06 0)
(0.037009939 1.3796864e-06 0)
(0.036618341 -1.2977041e-06 0)
(0.036984508 1.2202869e-06 0)
(0.036642261 -1.1487056e-06 0)
(0.036962006 1.0812566e-06 0)
(0.036663445 -1.0188813e-06 0)
(0.036942056 9.6023916e-07 0)
(0.036682247 -9.0602501e-07 0)
(0.036924326 8.5518183e-07 0)
(0.036698982 -8.0821852e-07 0)
(0.036908519 7.6430102e-07 0)
(0.036713928 -7.2379883e-07 0)
(0.036894374 6.8605306e-07 0)
(0.036727334 -6.5132993e-07 0)
(0.036881654 6.1910777e-07 0)
(0.036739421 -5.8957769e-07 0)
(0.03687015 5.6232527e-07 0)
(0.036750391 -5.3748863e-07 0)
(0.03685967 5.1473675e-07 0)
(0.036760424 -4.9417092e-07 0)
(0.036850044 4.7552526e-07 0)
(0.036769684 -4.5887576e-07 0)
(0.036841111 4.4400651e-07 0)
(0.036778326 -4.3097584e-07 0)
(0.036832726 4.1960121e-07 0)
(0.036786489 -4.0990932e-07 0)
(0.03682475 4.0185214e-07 0)
(0.03679431 -3.948369e-07 0)
(0.036817047 3.8869334e-07 0)
(0.036801922 -4.1055648e-07 0)
(0.036809605 3.5883231e-07 0)
(0.036776615 0.0035052644 0)
(0.038904901 -8.5296229e-05 0)
(0.037645385 1.1355515e-05 0)
(0.038872545 5.9448779e-07 0)
(0.037712262 -3.8676903e-06 0)
(0.038815154 2.1989629e-06 0)
(0.037789468 -3.2859823e-06 0)
(0.03875194 2.8599199e-06 0)
(0.037850289 -2.787728e-06 0)
(0.038695337 2.5735743e-06 0)
(0.037903615 -2.4318147e-06 0)
(0.038645411 2.2734926e-06 0)
(0.037950503 -2.1374563e-06 0)
(0.038601442 2.0037911e-06 0)
(0.03799178 -1.8824562e-06 0)
(0.038562709 1.7663627e-06 0)
(0.038028148 -1.6596705e-06 0)
(0.038528565 1.5583121e-06 0)
(0.03806022 -1.4648364e-06 0)
(0.038498437 1.3763154e-06 0)
(0.038088536 -1.2945621e-06 0)
(0.038471821 1.2173246e-06 0)
(0.03811357 -1.1459415e-06 0)
(0.03844827 1.0786511e-06 0)
(0.038135741 -1.0164472e-06 0)
(0.038427389 9.5794454e-07 0)
(0.03815542 -9.0387854e-07 0)
(0.038408832 8.5315753e-07 0)
(0.038172936 -8.0632197e-07 0)
(0.038392287 7.6251091e-07 0)
(0.03818858 -7.2211852e-07 0)
(0.03837748 6.8446501e-07 0)
(0.038202613 -6.498358e-07 0)
(0.038364165 6.1769293e-07 0)
(0.038215266 -5.8824256e-07 0)
(0.038352122 5.6105758e-07 0)
(0.03822675 -5.3628789e-07 0)
(0.038341151 5.1359245e-07 0)
(0.038237253 -4.9308175e-07 0)
(0.038331073 4.7448201e-07 0)
(0.038246948 -4.5787647e-07 0)
(0.038321721 4.4304277e-07 0)
(0.038255995 -4.3004473e-07 0)
(0.038312942 4.1869394e-07 0)
(0.038264543 -4.0902082e-07 0)
(0.038304591 4.0097505e-07 0)
(0.038272731 -3.9393426e-07 0)
(0.038296527 3.8779987e-07 0)
(0.038280698 -4.1025993e-07 0)
(0.038288703 3.5703039e-07 0)
(0.038273454 0.0034714771 0)
(0.040310035 -8.9817148e-05 0)
(0.039045045 1.0895753e-05 0)
(0.040309228 6.6565961e-07 0)
(0.039101736 -3.9455611e-06 0)