/*--------------------------------*- C++ -*----------------------------------*\
| =========                 |                                                 |
| \\      /  F ield         | OpenFOAM: The Open Source CFD Toolbox           |
|  \\    /   O peration     | Version:  2312                                  |
|   \\  /    A nd           | Website:  www.openfoam.com                      |
|    \\/     M anipulation  |                                                 |
\*---------------------------------------------------------------------------*/
FoamFile
{
    version     2.0;
    format      ascii;
    arch        "LSB;label=32;scalar=64";
    class       volScalarField;
    location    "4";
    object      T;
}
// * * * * * * * * * * * * * * * * * * * * * * * * * * * * * * * * * * * * * //

dimensions      [0 0 0 1 0 0 0];

internalField   nonuniform List<scalar> 
4000
(
332.13839
330.78674
330.51942
330.44376
330.3569
330.29758
330.2405
330.18993
330.14116
330.09592
330.05087
330.00835
329.96561
329.92466
329.88354
329.8436
329.80367
329.76443
329.72541
329.68668
329.64838
329.61002
329.5723
329.53421
329.49698
329.45911
329.42229
329.38457
329.34811
329.31051
329.27436
329.23684
329.20098
329.16352
329.12791
329.09049
329.05512
329.0177
328.98257
328.94513
328.91024
328.87275
328.83811
328.80052
328.76616
328.72841
328.69442
328.65635
328.62301
328.58365
334.43157
332.25133
331.53088
331.37349
331.18399
331.07643
330.97575
330.89447
330.81866
330.75335
330.6887
330.63155
330.57381
330.52138
330.46848
330.4191
330.36976
330.32249
330.27588
330.23011
330.18567
330.14101
330.09831
330.05449
330.01325
329.97005
329.93004
329.88732
329.84838
329.80602
329.76802
329.72591
329.68876
329.64683
329.61044
329.56861
329.53295
329.49114
329.45619
329.41432
329.38008
329.33805
329.30456
329.26225
329.22961
329.1868
329.15526
329.11148
329.0819
329.03445
335.84721
333.65931
332.53382
332.29671
332.00726
331.85204
331.70844
331.59662
331.49411
331.40877
331.32474
331.25297
331.18039
331.11648
331.05191
330.99307
330.93443
330.87909
330.82499
330.77216
330.72164
330.67066
330.62305
330.57346
330.52826
330.47972
330.43657
330.38883
330.34745
330.30031
330.26049
330.21378
330.17536
330.12894
330.0918
330.04555
330.00963
329.96341
329.92866
329.88235
329.84877
329.8022
329.76988
329.72283
329.69193
329.64405
329.61498
329.5655
329.53964
329.48451
336.78455
334.96278
333.5136
333.20447
332.82111
332.62012
332.4352
332.29348
332.16506
332.05993
331.95703
331.87073
331.78368
331.70832
331.63237
331.56408
331.49635
331.43294
331.3715
331.3116
331.25514
331.19783
331.14542
331.09005
331.04099
330.9871
330.94088
330.88811
330.84436
330.79243
330.75084
330.69952
330.65988
330.60897
330.57113
330.52045
330.48429
330.43367
330.39914
330.34839
330.31551
330.26439
330.23326
330.18148
330.15232
330.0994
330.07277
330.01765
329.99539
329.9332
337.43335
336.11885
334.45126
334.08481
333.61782
333.37486
333.15148
332.9812
332.82828
332.70392
332.58301
332.48247
332.38155
332.29489
332.20801
332.13035
332.05388
331.98244
331.91395
331.84701
331.78484
331.72121
331.66417
331.60303
331.55026
331.49102
331.44186
331.38407
331.33804
331.28132
331.23806
331.18213
331.14135
331.08596
331.04746
330.99236
330.95602
330.901
330.86674
330.81156
330.7794
330.72376
330.69383
330.63735
330.60993
330.55201
330.5278
330.46714
330.4483
330.37974
337.89728
337.10194
335.32717
334.92378
334.38818
334.10919
333.85171
333.65513
333.4798
333.33722
333.19959
333.08537
332.97146
332.87383
332.77667
332.68984
332.60512
332.5258
332.45065
332.37675
332.30917
332.2393
332.17788
332.11103
332.05475
331.9902
331.93828
331.87548
331.82733
331.76586
331.72104
331.66053
331.61871
331.55885
331.51978
331.4603
331.42384
331.36445
331.33051
331.27093
331.23953
331.17941
331.15069
331.08958
331.06388
331.00106
330.97919
330.91318
330.89746
330.8233
338.23597
337.89917
336.12352
335.70688
335.12222
334.81527
334.52956
334.30999
334.1151
333.95585
333.80325
333.67622
333.55053
333.44247
333.3359
333.24026
333.14796
333.061
332.97969
332.89902
332.82645
332.75046
332.685
332.61254
332.55302
332.48325
332.42878
332.36107
332.31097
332.24481
332.19858
332.13355
332.09081
332.02655
331.98702
331.92321
331.8867
331.82301
331.78945
331.72554
331.69493
331.63041
331.60292
331.53726
331.51326
331.44567
331.42604
331.35493
331.34199
331.26296
338.48789
338.51453
336.82758
336.42078
335.81011
335.48499
335.17836
334.94013
334.72931
334.55551
334.39017
334.25156
334.11561
333.99791
333.88303
333.77912
333.68006
333.58584
333.49903
333.41187
333.33482
333.25293
333.18385
333.10595
333.04353
332.96869
332.91195
332.83944
332.78763
332.71688
332.66944
332.59999
332.55648
332.48792
332.44804
332.37999
332.34354
332.27563
332.24251
332.17438
332.1446
332.07579
332.04953
331.97947
331.95712
331.88495
331.86742
331.79155
331.78097
331.69779
338.6789
338.9632
337.43207
337.05513
336.44318
336.11058
335.79145
335.53983
335.31738
335.13173
334.95632
334.80775
334.66337
334.53709
334.41523
334.30379
334.19898
334.09804
334.0065
333.91326
333.83234
333.74487
333.67265
333.58958
333.52466
333.44496
333.38627
333.30915
333.25589
333.18073
333.13228
333.05857
333.01446
332.94174
332.90165
332.82951
332.79321
332.72124
332.68863
332.61642
332.58751
332.51458
332.48953
332.41526
332.3945
332.31801
332.3024
332.22217
332.21354
332.12685
338.82705
339.2693
337.93625
337.60387
337.01459
336.68524
336.36272
336.10364
335.8744
335.68011
335.49771
335.34115
335.19047
335.05693
334.92964
334.8116
334.70219
334.59522
334.49986
334.40106
334.31699
334.22437
334.14959
334.06169
333.99473
333.91046
333.8502
333.76873
333.71432
333.63498
333.58577
333.508
333.4635
333.38681
333.34667
333.27061
333.23459
333.15874
333.12672
333.05062
333.02261
332.94576
332.92192
332.84369
332.82442
332.74392
332.73003
332.64589
332.63881
332.54917
338.94516
339.46127
338.34466
338.06584
337.5198
337.2037
336.88696
336.6267
336.39586
336.19653
336.01052
335.84824
335.69364
335.55438
335.4234
335.29987
335.1872
335.07504
334.97687
334.87318
334.78676
334.68951
334.61282
334.52052
334.45204
334.36358
334.30218
334.21668
334.16147
334.07823
334.02854
333.94697
333.90231
333.82189
333.78187
333.70214
333.66652
333.58702
333.55567
333.47593
333.44885
333.36835
333.34568
333.26379
333.24591
333.16178
333.14938
333.06183
333.05592
332.96384
339.04216
339.56865
338.66661
338.44438
337.95694
337.6626
337.36032
337.10511
336.8779
336.67736
336.4913
336.32581
336.16981
336.0266
335.89381
335.76609
335.65157
335.53521
335.43535
335.32755
335.23966
335.13842
335.06052
334.96435
334.89494
334.80273
334.74065
334.65151
334.59588
334.50909
334.45924
334.37419
334.3296
334.24576
334.20605
334.12294
334.08785
334.00499
333.97439
333.89131
333.86518
333.78134
333.75982
333.67461
333.65801
333.57065
333.55952
333.46907
333.46402
333.36994
339.12442
339.61876
338.91409
338.74635
338.32685
338.06081
337.78053
337.53615
337.31758
337.11968
336.93714
336.77106
336.61628
336.47103
336.33838
336.2079
336.09306
335.9736
335.87324
335.7622
335.6738
335.56929
335.49094
335.39152
335.32179
335.22635
335.1641
335.07178
335.01615
334.92622
334.87653
334.78838
334.74413
334.65722
334.61802
334.53186
334.49745
334.41157
334.38181
334.29572
334.27057
334.18376
334.16334
334.07521
334.05977
333.96964
333.95957
333.86672
333.86228
333.7666
339.19601
339.63441
339.10045
338.98114
338.63294
338.39945
338.14705
337.91845
337.71304
337.52144
337.34584
337.18181
337.03085
336.8855
336.755
336.62327
336.50965
336.38829
336.28866
336.17536
336.08743
335.98045
335.90247
335.80047
335.73107
335.633
335.57111
335.47613
335.42092
335.32833
335.27915
335.18833
335.14469
335.05512
335.01663
334.92783
334.89424
334.80572
334.77688
334.68818
334.66405
334.57466
334.5553
334.46468
334.45029
334.35786
334.34867
334.25392
334.24989
334.15297
339.25984
339.63297
339.23872
339.15945
338.88079
338.68167
338.46107
338.25209
338.06361
337.88157
337.71602
337.55655
337.41185
337.26837
337.14195
337.01051
336.89967
336.77766
336.67999
336.56546
336.479
336.37043
336.29362
336.18979
336.12139
336.02134
335.96036
335.86329
335.80896
335.71421
335.66591
335.57291
335.53015
335.43838
335.40083
335.3098
335.27719
335.18646
335.15864
335.06774
335.04465
334.95313
334.9348
334.84216
334.8287
334.73446
334.72598
334.62982
334.62607
334.52827
339.31758
339.62605
339.34081
339.29227
339.07749
338.9123
338.72535
338.53855
338.3698
338.20003
338.04718
337.89452
337.75831
337.61854
337.49802
337.3684
337.26181
337.14041
337.04592
336.93121
336.84722
336.73794
336.66313
336.55825
336.49152
336.39018
336.33066
336.23213
336.17912
336.08279
336.03572
335.94106
335.89949
335.806
335.76959
335.67683
335.64535
335.55287
335.52615
335.43353
335.41151
335.31832
335.30099
335.20681
335.1942
335.09865
335.09074
334.99365
334.99009
334.89175
339.37038
339.62058
339.41675
339.39003
339.23088
339.09736
338.94395
338.78053
338.63331
338.47779
338.33969
338.19575
338.06993
337.93554
337.82255
337.69618
337.5952
337.47564
337.38546
337.27163
337.19106
337.082
337.00997
336.90484
336.84045
336.73853
336.68101
336.58167
336.53043
336.43311
336.38764
336.29187
336.25177
336.15709
336.12205
336.02804
335.99785
335.90411
335.8786
335.78473
335.76382
335.66945
335.6531
335.55787
335.54604
335.44968
335.44226
335.34468
335.34126
335.24272
339.4189
339.61975
339.47462
339.46189
339.34895
339.24347
339.12186
338.98174
338.85678
338.71674
338.59481
338.46106
338.34711
338.21952
338.11544
337.9936
337.89945
337.78287
337.69804
337.58611
337.50982
337.40189
337.33338
337.22881
337.16737
337.0656
337.01062
336.91112
336.86208
336.76439
336.72087
336.62456
336.58621
336.49088
336.45743
336.3627
336.33394
336.23946
336.21524
336.12064
336.10087
336.00584
335.99044
335.89467
335.88356
335.78687
335.77988
335.68225
335.67895
335.58056
339.46357
339.62431
339.52042
339.51544
339.4392
339.35737
339.2646
339.14662
339.04365
338.91956
338.81451
338.69193
338.59089
338.47124
338.37712
338.26094
338.1746
338.06204
337.98346
337.87436
337.80315
337.6972
337.63289
337.52967
337.47175
337.37085
337.31888
337.2199
337.17346
337.07602
337.03478
336.93852
336.90218
336.80676
336.77509
336.68018
336.653
336.55829
336.53546
336.44065
336.42205
336.32686
336.31241
336.21661
336.20619
336.10965
336.10304
336.00578
336.0026
335.90472
339.50478
339.63373
339.55841
339.55657
339.5083
339.44548
339.37784
339.27996
339.1979
339.08949
339.0014
338.8905
338.80293
338.692
338.60859
338.49893
338.42119
338.31353
338.24191
338.13651
338.07103
337.96785
337.90832
337.80718
337.75331
337.65397
337.60545
337.50763
337.46416
337.36758
337.32892
337.23329
337.1992
337.10425
337.07455
336.98
336.95454
336.86013
336.83877
336.74425
336.72688
336.63203
336.61854
336.52319
336.51344
336.4175
336.41128
336.31479
336.31175
336.21473
339.54276
339.64672
339.59141
339.58963
339.56186
339.51359
339.46701
339.38667
339.32377
339.2302
339.15853
339.05933
338.98535
338.88358
338.81128
338.70879
338.64015
338.5381
338.474
338.373
338.31378
338.21408
338.1598
338.06144
338.01202
337.9149
337.87019
337.77415
337.73398
337.63884
337.60303
337.5086
337.47698
337.38304
337.35548
337.26182
337.23819
337.1446
337.12479
337.03107
337.01497
336.92095
336.90844
336.81401
336.80494
336.71004
336.7042
336.60887
336.60599
336.5102
339.57781
339.66208
339.62112
339.61759
339.60433
339.56663
339.5371
339.47146
339.42554
339.34549
339.28924
339.20136
339.14064
339.04816
338.98703
338.8921
338.83281
338.7369
338.68064
338.58464
338.53204
338.43642
338.38776
338.29276
338.24815
338.15382
338.11324
338.01956
337.98294
337.88981
337.85706
337.76437
337.73541
337.643
337.61772
337.52546
337.50377
337.4115
337.39331
337.30087
337.28608
337.19337
337.18186
337.08879
337.08041
336.98697
336.98153
336.88774
336.88503
336.79082
339.61015
339.67865
339.64852
339.64238
339.63907
339.60863
339.59243
339.53864
339.50731
339.43917
339.39696
339.31968
339.27155
339.18817
339.13796
339.05073
339.0008
338.91135
338.86309
338.77251
338.72674
338.63569
338.59289
338.50176
338.46219
338.37118
338.33494
338.24413
338.21127
338.12065
338.09115
338.00069
337.97453
337.88415
337.86127
337.77089
337.75123
337.66074
337.64423
337.55354
337.5401
337.44913
337.43864
337.34736
337.33969
337.2481
337.24308
337.15119
337.14868
337.05639
339.64005
339.69565
339.67412
339.66515
339.6685
339.64271
339.63661
339.59203
339.57284
339.51485
339.48507
339.41741
339.38093
339.30622
339.26642
339.1868
339.146
339.06316
339.02283
338.93796
338.89907
338.81295
338.77611
338.68927
338.65487
338.56761
338.53586
338.44836
338.41939
338.33174
338.30562
338.21784
338.19459
338.10668
338.08629
337.99823
337.98067
337.89239
337.87762
337.78909
337.77703
337.68822
337.67878
337.58968
337.58274
337.49335
337.48879
337.39912
337.39684
337.3068
339.66772
339.71255
339.69813
339.68651
339.69426
339.6712
339.67253
339.63481
339.62544
339.57585
339.55677
339.49762
339.4716
339.40494
339.37482
339.30254
339.27044
339.19418
339.16157
339.08253
339.05042
338.96947
338.93857
338.85633
338.82712
338.74397
338.71676
338.63295
338.60794
338.52365
338.50096
338.41627
338.39598
338.31095
338.29309
338.20775
338.19233
338.10667
338.09366
338.00769
337.99703
337.91075
337.90238
337.8158
337.80962
337.72276
337.71869
337.63156
337.62951
337.54204
339.69339
339.72906
339.72066
339.70675
339.71741
339.69576
339.70239
339.6696
339.66795
339.62508
339.61497
339.56314
339.54632
339.48694
339.46561
339.40025
339.37626
339.30639
339.2811
339.2079
339.18233
339.10667
339.08159
339.00413
338.98005
338.90126
338.87856
338.79875
338.77769
338.69708
338.67783
338.59657
338.57926
338.49746
338.48215
338.39988
338.38661
338.30392
338.29268
338.2096
338.20036
338.11693
338.10965
338.0259
338.0205
337.93648
337.9329
337.84861
337.84681
337.76218
339.71726
339.74501
339.74175
339.72598
339.73859
339.71749
339.72783
339.69843
339.70267
339.66504
339.66225
339.61656
339.60762
339.55469
339.54115
339.48217
339.46557
339.40179
339.38333
339.31583
339.29646
339.22609
339.20658
339.13401
339.1149
339.04063
339.02235
338.94674
338.92957
338.85288
338.83704
338.75948
338.74512
338.66683
338.65405
338.57515
338.56402
338.48458
338.47511
338.39522
338.3874
338.30711
338.30092
338.22029
338.21567
338.13474
338.13168
338.05047
338.04892
337.96739
339.73949
339.76033
339.76144
339.74422
339.75817
339.73714
339.74999
339.72283
339.73145
339.69778
339.70081
339.66017
339.6578
339.61047
339.60369
339.55048
339.54047
339.48239
339.47014
339.40812
339.39451
339.32933
339.31506
339.24739
339.23301
339.16335
339.1493
339.07803
339.06462
338.99203
338.9795
338.90584
338.89437
338.81981
338.80952
338.73421
338.72518
338.64925
338.64152
338.56505
338.55864
338.48173
338.47662
338.39933
338.3955
338.31789
338.31534
338.23744
338.23615
338.15794
339.76024
339.77502
339.77979
339.76147
339.77636
339.75515
339.76967
339.74394
339.7557
339.72496
339.73248
339.69591
339.69889
339.65633
339.65527
339.6072
339.60293
339.55008
339.54339
339.48655
339.47817
339.41801
339.40858
339.34573
339.33577
339.27072
339.26066
339.19379
339.18396
339.11559
339.10622
339.0366
339.0279
338.95724
338.94934
338.87782
338.87083
338.79858
338.79255
338.7197
338.71466
338.64131
338.63727
338.56351
338.56047
338.48636
338.48432
338.4099
338.40888
338.33416
339.77964
339.78908
339.79684
339.77769
339.79326
339.77178
339.78738
339.76252
339.77647
339.74787
339.75875
339.7254
339.73261
339.69406
339.69773
339.65415
339.65478
339.60668
339.60484
339.55282
339.5491
339.49373
339.48868
339.43051
339.42461
339.36409
339.35774
339.29527
339.28878
339.22466
339.21827
339.15278
339.1467
339.08004
339.07442
339.00681
339.00176
338.93334
338.92893
338.85984
338.85612
338.78648
338.78348
338.71339
338.71111
338.64064
338.63911
338.56832
338.56755
338.49647
339.79778
339.80251
339.81265
339.79289
339.80892
339.78717
339.80344
339.77913
339.79453
339.76746
339.78078
339.74995
339.76042
339.7252
339.73266
339.69298
339.69768
339.65383
339.65614
339.60855
339.60891
339.55803
339.55687
339.50318
339.50093
339.44483
339.44185
339.3837
339.38029
339.3204
339.31678
339.25542
339.25179
339.18918
339.1857
339.12205
339.11884
339.05432
339.05146
338.98622
338.98376
338.91792
338.91591
338.84958
338.84804
338.78132
338.78028
338.71322
338.71269
338.64536
339.81475
339.81531
339.82727
339.80705
339.82336
339.8014
339.81805
339.7941
339.8104
339.78446
339.79945
339.7706
339.78348
339.75101
339.76143
339.7251
339.7331
339.69302
339.69879
339.65523
339.65906
339.61236
339.6146
339.56513
339.56611
339.51425
339.51429
339.46035
339.45971
339.40398
339.40287
339.34561
339.34423
339.28567
339.28416
339.22449
339.22299
339.1624
339.16098
339.09962
339.09835
339.03637
339.03529
338.97279
338.97194
338.90902
338.90844
338.84518
338.84488
338.78135
339.83062
339.82745
339.84072
339.82015
339.83659
339.8145
339.83131
339.80765
339.82445
339.79937
339.81545
339.78816
339.80276
339.77255
339.7852
339.75172
339.76231
339.72555
339.73413
339.6942
339.70093
339.65807
339.66319
339.61769
339.62146
339.57362
339.5763
339.52641
339.52823
339.47654
339.47769
339.42444
339.42509
339.37051
339.3708
339.31508
339.31513
339.25846
339.25836
339.20089
339.20071
339.14259
339.14238
339.08371
339.08352
339.02441
339.02427
338.96482
338.96474
338.90504
339.84542
339.83889
339.85301
339.83219
339.84861
339.82648
339.8433
339.81991
339.83694
339.81254
339.82926
339.80324
339.81897
339.79064
339.80489
339.77386
339.78641
339.75255
339.76334
339.72667
339.73575
339.6964
339.70391
339.66208
339.66821
339.62415
339.6291
339.58306
339.58701
339.5392
339.54233
339.49297
339.49541
339.44472
339.44661
339.39477
339.39621
339.3434
339.3445
339.29087
339.29169
339.23738
339.23797
339.18311
339.18351
339.12821
339.12846
339.07281
339.07293
339.01704
339.85916
339.84955
339.86412
339.84312
339.8594
339.83733
339.85404
339.83098
339.84801
339.82423
339.84124
339.81628
339.8327
339.80595
339.82129
339.79234
339.80632
339.77499
339.78745
339.75368
339.7646
339.72843
339.73786
339.69942
339.70749
339.66696
339.67381
339.63139
339.63716
339.59304
339.59786
339.55224
339.55623
339.50929
339.51258
339.4645
339.46718
339.41813
339.42028
339.37042
339.37212
339.32157
339.32286
339.27175
339.27269
339.22113
339.22174
339.16984
339.17014
339.11802
339.87175
339.85933
339.87401
339.85292
339.86896
339.84704
339.86357
339.84088
339.85777
339.83459
339.85164
339.82762
339.84437
339.81899
339.83498
339.80784
339.82277
339.79366
339.80733
339.77614
339.78844
339.75514
339.76607
339.73072
339.74033
339.70306
339.71145
339.67242
339.67968
339.63905
339.64529
339.60322
339.60852
339.56518
339.56965
339.5252
339.52893
339.48352
339.48659
339.44037
339.44284
339.39595
339.39786
339.35041
339.35181
339.30391
339.30484
339.25661
339.25707
339.20862
339.88299
339.86807
339.88261
339.86154
339.87727
339.85563
339.87189
339.84967
339.86632
339.84375
339.86066
339.8375
339.85431
339.83013
339.84644
339.82089
339.83639
339.80924
339.82371
339.79481
339.80809
339.77736
339.78939
339.75686
339.76764
339.73338
339.74297
339.70709
339.71554
339.67818
339.68556
339.64683
339.65322
339.61328
339.61874
339.57774
339.58236
339.54043
339.54428
339.50157
339.50469
339.46131
339.46376
339.41984
339.42165
339.37729
339.37848
339.33381
339.3344
339.28952
339.89258
339.87559
339.88986
339.86896
339.88435
339.86309
339.87905
339.85737
339.8737
339.85178
339.86842
339.8461
339.86277
339.8397
339.85605
339.83192
339.84767
339.82226
339.83718
339.81032
339.82423
339.79582
339.80861
339.77863
339.79025
339.75874
339.76922
339.73624
339.7456
339.71126
339.71953
339.68394
339.69117
339.65444
339.6607
339.62296
339.6283
339.58968
339.59416
339.55479
339.55845
339.51844
339.52133
339.48079
339.48293
339.44198
339.4434
339.40214
339.40284
339.36139
339.90013
339.88173
339.89572
339.87515
339.8902
339.86945
339.88507
339.86402
339.87999
339.85877
339.87505
339.85355
339.86994
339.8479
339.8641
339.84125
339.85701
339.83316
339.84825
339.82322
339.83745
339.81113
339.82436
339.79669
339.80886
339.77985
339.79093
339.76062
339.77062
339.73908
339.748
339.71532
339.72319
339.68945
339.69631
339.66163
339.66753
339.63203
339.637
339.60079
339.60488
339.56807
339.5713
339.53399
339.5364
339.49868
339.50028
339.46228
339.46308
339.42489
339.90537
339.88641
339.90019
339.88015
339.89489
339.87474
339.89001
339.86967
339.88524
339.86477
339.88063
339.85996
339.87597
339.85491
339.87081
339.84914
339.86471
339.84227
339.8573
339.83392
339.84823
339.82378
339.8372
339.81161
339.82407
339.79733
339.80877
339.78089
339.79129
339.76232
339.77167
339.74167
339.74998
339.71902
339.7263
339.69449
339.70078
339.6682
339.67354
339.64029
339.6447
339.61089
339.61439
339.58011
339.58272
339.54807
339.54981
339.51489
339.51576
339.48067
339.9083
339.88965
339.90335
339.88401
339.89846
339.87904
339.89394
339.87437
339.88952
339.86984
339.88524
339.86543
339.88097
339.86087
339.87635
339.8558
339.87103
339.84988
339.86467
339.84278
339.85695
339.83419
339.84759
339.82388
339.83639
339.8117
339.82328
339.79761
339.80821
339.78158
339.79117
339.76362
339.77219
339.74379
339.75134
339.72216
339.72872
339.69884
339.70442
339.67394
339.67857
339.64757
339.65125
339.61982
339.62257
339.59079
339.59263
339.5606
339.56152
339.52934
339.90926
339.8916
339.90532
339.88683
339.90102
339.8824
339.89694
339.87818
339.8929
339.87406
339.88897
339.87002
339.88505
339.86589
339.88087
339.86138
339.87615
339.8562
339.8706
339.85007
339.86394
339.84271
339.85589
339.83387
339.84626
339.82343
339.83495
339.81128
339.82188
339.79739
339.80703
339.78173
339.79039
339.76434
339.772
339.74526
339.75194
339.72457
339.73027
339.70235
339.7071
339.67871
339.68249
339.65371
339.65654
339.62744
339.62934
339.60001
339.60096
339.57149
339.90883
339.89252
339.90629
339.88875
339.90268
339.88493
339.89909
339.8812
339.89547
339.87749
339.89189
339.87382
339.88829
339.87006
339.88448
339.86599
339.88023
339.86139
339.8753
339.85601
339.86944
339.84959
339.86242
339.84192
339.85403
339.83286
339.84417
339.8223
339.83276
339.81018
339.81973
339.79647
339.80508
339.78116
339.78882
339.76429
339.77098
339.7459
339.75163
339.72607
339.73085
339.70486
339.70868
339.68234
339.68521
339.65859
339.6605
339.63367
339.63463
339.60768
339.90761
339.89271
339.90647
339.88991
339.90357
339.88673
339.90049
339.88349
339.8973
339.8802
339.89407
339.87689
339.89078
339.87346
339.88728
339.86975
339.88338
339.86558
339.87891
339.86075
339.87365
339.85505
339.8674
339.84828
339.85998
339.8403
339.85127
339.83102
339.84119
339.82035
339.82968
339.80826
339.81669
339.79471
339.80223
339.77972
339.78632
339.76334
339.769
339.74559
339.75032
339.72654
339.73033
339.70624
339.70909
339.68474
339.68665
339.66212
339.66308
339.63844
339.90607
339.89242
339.90604
339.89046
339.90382
339.8879
339.90125
339.88515
339.89848
339.88227
339.89559
339.87929
339.89258
339.87615
339.88933
339.87272
339.8857
339.86887
339.88155
339.86444
339.87672
339.85925
339.87103
339.85315
339.86433
339.846
339.85651
339.83771
339.84749
339.8282
339.8372
339.81743
339.82559
339.80535
339.81265
339.79196
339.79838
339.77728
339.78281
339.76135
339.76597
339.7442
339.74791
339.72586
339.72866
339.70639
339.70826
339.68583
339.68676
339.66424
339.90445
339.89186
339.9052
339.89055
339.90356
339.88855
339.90147
339.88626
339.89909
339.88376
339.89653
339.88109
339.89376
339.87819
339.8907
339.87497
339.88725
339.87133
339.88331
339.86715
339.87876
339.86231
339.87345
339.85667
339.86726
339.85013
339.8601
339.84259
339.85189
339.83399
339.84257
339.82428
339.83208
339.8134
339.82039
339.80134
339.80751
339.78812
339.79344
339.77374
339.7782
339.75824
339.76182
339.74163
339.74433
339.72395
339.72576
339.70523
339.70614
339.68554
339.90285
339.89115
339.90406
339.89029
339.90291
339.88877
339.90124
339.88689
339.89922
339.88474
339.89693
339.88233
339.89437
339.87962
339.89144
339.87652
339.88809
339.87299
339.88425
339.86896
339.87983
339.86431
339.87475
339.85897
339.86889
339.85283
339.8622
339.84584
339.85459
339.83793
339.84601
339.82904
339.83641
339.81913
339.82575
339.80817
339.81401
339.79616
339.80121
339.78311
339.78735
339.76902
339.77244
339.75392
339.7565
339.73782
339.73955
339.72075
339.72161
339.70274
339.90128
339.89038
339.90274
339.88978
339.90195
339.88866
339.90063
339.88714
339.89892
339.88527
339.89687
339.88306
339.89444
339.88046
339.89157
339.87742
339.88822
339.8739
339.88438
339.86989
339.88
339.86531
339.875
339.86011
339.86932
339.85422
339.86292
339.84759
339.85574
339.84018
339.84771
339.83191
339.83879
339.82275
339.82895
339.81268
339.81816
339.80167
339.80642
339.78973
339.79373
339.77686
339.78008
339.76306
339.76549
339.74834
339.74997
339.73272
339.73354
339.71623
339.89972
339.88957
339.9013
339.8891
339.90076
339.88829
339.89974
339.88705
339.89827
339.8854
339.89638
339.88332
339.894
339.88074
339.8911
339.87765
339.88768
339.87406
339.88374
339.86996
339.87927
339.86533
339.87424
339.86014
339.86861
339.85435
339.86236
339.84794
339.85544
339.84085
339.8478
339.83303
339.83939
339.82445
339.83019
339.81508
339.82016
339.80489
339.8093
339.79388
339.79759
339.78203
339.78503
339.76935
339.77162
339.75583
339.75735
339.74149
339.74225
339.72634
339.89815
339.88875
339.89978
339.88828
339.89941
339.8877
339.89861
339.88667
339.89731
339.88517
339.89548
339.88311
339.89307
339.88046
339.89005
339.87723
339.88645
339.87344
339.8823
339.86915
339.87765
339.86437
339.87248
339.85908
339.86679
339.85328
339.86056
339.84694
339.85377
339.84004
339.84638
339.83253
339.83834
339.82437
339.82962
339.81554
339.8202
339.806
339.81005
339.79575
339.79917
339.78477
339.78753
339.77304
339.77513
339.76056
339.76197
339.74733
339.74804
339.73336
339.89655
339.88791
339.8982
339.88738
339.89794
339.88695
339.89729
339.88605
339.89607
339.88458
339.8942
339.88244
339.89163
339.8796
339.88838
339.87611
339.88449
339.87204
339.88005
339.86746
339.87512
339.86242
339.86972
339.85693
339.86386
339.85101
339.85756
339.84465
339.85079
339.83782
339.84353
339.83049
339.83573
339.82263
339.82737
339.8142
339.81842
339.80518
339.80885
339.79555
339.79865
339.78528
339.78779
339.77436
339.77627
339.76278
339.76406
339.75052
339.75116
339.73759
339.89491
339.88707
339.89657
339.8864
339.89638
339.88606
339.8958
339.8852
339.89455
339.88364
339.89252
339.88128
339.88966
339.87812
339.88605
339.87425
339.88177
339.86979
339.87694
339.86483
339.87164
339.85944
339.86592
339.85368
339.85982
339.84755
339.85336
339.84107
339.84653
339.83422
339.8393
339.82698
339.83165
339.81931
339.82354
339.81117
339.81495
339.80255
339.80584
339.79342
339.7962
339.78375
339.786
339.77351
339.77522
339.76269
339.76384
339.75128
339.75185
339.73926
339.89323
339.88621
339.8949
339.88536
339.89474
339.88505
339.89416
339.88412
339.89275
339.88232
339.89039
339.87959
339.88711
339.87596
339.883
339.8716
339.87822
339.86664
339.87291
339.86121
339.86716
339.85541
339.86106
339.84929
339.85465
339.84289
339.84796
339.83622
339.841
339.82928
339.83373
339.82204
339.82614
339.81448
339.8182
339.80655
339.80987
339.79823
339.80113
339.78949
339.79196
339.78031
339.78231
339.77065
339.77217
339.76049
339.76151
339.7498
339.75032
339.73859
339.89148
339.88533
339.89318
339.88427
339.89304
339.88392
339.89236
339.88278
339.89063
339.88058
339.88777
339.87729
339.8839
339.87305
339.87917
339.86806
339.87377
339.86251
339.86788
339.85653
339.86162
339.85025
339.85508
339.84372
339.84831
339.837
339.84135
339.8301
339.8342
339.82301
339.82684
339.81572
339.81926
339.80819
339.81142
339.8004
339.80328
339.79231
339.79483
339.78389
339.78603
339.77511
339.77685
339.76593
339.76726
339.75633
339.75723
339.74629
339.74674
339.73578
339.88967
339.88443
339.8914
339.88313
339.89126
339.88266
339.89036
339.88113
339.88811
339.87832
339.88457
339.8743
339.87992
339.86929
339.87444
339.86356
339.86833
339.85732
339.86179
339.85073
339.85496
339.84391
339.84794
339.83694
339.84077
339.82986
339.8335
339.82268
339.82613
339.81541
339.81865
339.80803
339.81103
339.8005
339.80324
339.79279
339.79525
339.78487
339.78703
339.7767
339.77854
339.76826
339.76975
339.75949
339.76063
339.75038
339.75115
339.74089
339.74128
339.731
339.88776
339.88352
339.88958
339.88194
339.8894
339.88121
339.88809
339.87908
339.8851
339.87543
339.88065
339.87048
339.87507
339.86456
339.8687
339.85797
339.86179
339.85097
339.85454
339.84372
339.84711
339.83633
339.83957
339.82889
339.83199
339.82143
339.8244
339.81397
339.81679
339.8065
339.80916
339.79899
339.80147
339.79143
339.79371
339.78377
339.78582
339.77598
339.77779
339.76802
339.76956
339.75985
339.76112
339.75145
339.75241
339.74276
339.7434
339.73376
339.73408
339.72442
339.88576
339.88259
339.8877
339.88069
339.8874
339.87953
339.88547
339.87652
339.88147
339.87178
339.87589
339.86571
339.86921
339.85873
339.86183
339.85119
339.85404
339.84337
339.84605
339.83542
339.83798
339.82745
339.82993
339.81953
339.82193
339.81169
339.81401
339.80394
339.80616
339.79626
339.79838
339.78863
339.79062
339.78102
339.78286
339.77339
339.77506
339.7657
339.76718
339.75792
339.75918
339.74999
339.75103
339.7419
339.74269
339.73358
339.73412
339.72502
339.72529
339.71618
339.88364
339.88167
339.88575
339.87937
339.88521
339.8775
339.88236
339.8733
339.87705
339.8672
339.8701
339.85981
339.86217
339.85165
339.8537
339.8431
339.84499
339.83442
339.83622
339.82576
339.82752
339.81721
339.81895
339.80882
339.81055
339.80061
339.80232
339.79258
339.79425
339.78471
339.78632
339.77696
339.77849
339.7693
339.77073
339.76169
339.763
339.75409
339.75526
339.74646
339.74747
339.73876
339.73959
339.73094
339.73158
339.72296
339.72339
339.71479
339.71501
339.7064
339.88139
339.88079
339.88372
339.87794
339.88272
339.87498
339.87858
339.8692
339.87163
339.86148
339.8631
339.85261
339.8538
339.84317
339.84417
339.83356
339.83451
339.82402
339.82498
339.81466
339.81566
339.80556
339.80661
339.79673
339.79783
339.78818
339.78931
339.7799
339.78104
339.77185
339.77299
339.764
339.76511
339.7563
339.75736
339.74872
339.7497
339.74122
339.7421
339.73373
339.7345
339.72623
339.72687