/*--------------------------------*- C++ -*----------------------------------*\
| =========                 |                                                 |
| \\      /  F ield         | OpenFOAM: The Open Source CFD Toolbox           |
|  \\    /   O peration     | Version:  2312                                  |
|   \\  /    A nd           | Website:  www.openfoam.com                      |
|    \\/     M anipulation  |                                                 |
\*---------------------------------------------------------------------------*/
FoamFile
{
    version     2.0;
    format      ascii;
    arch        "LSB;label=32;scalar=64";
    class       volVectorField;
    location    "4";
    object      U_0;
}
// * * * * * * * * * * * * * * * * * * * * * * * * * * * * * * * * * * * * * //

dimensions      [0 1 -1 0 0 0 0];

internalField   nonuniform List<vector> 
4000
(
(0.0035318442 0.00066001468 0)
(0.0064210298 -7.5766147e-06 0)
(0.003163173 -2.6065741e-08 0)
(0.0038583291 -7.0473305e-07 0)
(0.0036067886 9.2787589e-08 0)
(0.0035843849 -1.9653995e-07 0)
(0.0035899001 9.7860359e-08 0)
(0.0035359476 -1.6165995e-07 0)
(0.0035637204 1.155899e-07 0)
(0.0035313185 -1.208984e-07 0)
(0.003555449 1.0660794e-07 0)
(0.0035328156 -1.010458e-07 0)
(0.0035525602 9.401268e-08 0)
(0.0035343105 -8.8323149e-08 0)
(0.0035510772 8.2952766e-08 0)
(0.0035354116 -7.8124339e-08 0)
(0.0035500192 7.3542578e-08 0)
(0.0035363075 -6.934287e-08 0)
(0.0035491514 6.5349119e-08 0)
(0.0035370889 -6.1624965e-08 0)
(0.0035484015 5.8102798e-08 0)
(0.0035377836 -5.4788196e-08 0)
(0.0035477385 5.1664628e-08 0)
(0.0035384057 -4.8716073e-08 0)
(0.0035471457 4.5945315e-08 0)
(0.0035389655 -4.3330399e-08 0)
(0.0035466124 4.0880449e-08 0)
(0.0035394703 -3.8572998e-08 0)
(0.0035461315 3.6418455e-08 0)
(0.0035399261 -3.4395472e-08 0)
(0.0035456971 3.2513843e-08 0)
(0.0035403383 -3.0753902e-08 0)
(0.0035453042 2.9124229e-08 0)
(0.0035407115 -2.7607039e-08 0)
(0.0035449479 2.6209625e-08 0)
(0.0035410505 -2.491621e-08 0)
(0.0035446236 2.373287e-08 0)
(0.00354136 -2.2645951e-08 0)
(0.0035443266 2.1660465e-08 0)
(0.0035416445 -2.0764847e-08 0)
(0.0035440525 1.9963184e-08 0)
(0.0035419084 -1.9246242e-08 0)
(0.0035437971 1.8616951e-08 0)
(0.003542156 -1.8067985e-08 0)
(0.003543557 1.7606433e-08 0)
(0.003542392 -1.7209211e-08 0)
(0.0035433248 1.6926518e-08 0)
(0.0035425956 -1.6705437e-08 0)
(0.0035430053 1.6303927e-08 0)
(0.0035425293 -1.7955206e-08 0)
(0.0083595624 0.0017138659 0)
(0.016795269 1.8211431e-05 0)
(0.0099609195 3.3342429e-05 0)
(0.011036902 -5.3785626e-06 0)
(0.010478551 4.0227941e-06 0)
(0.010382892 -3.1321728e-07 0)
(0.010421913 1.1270871e-06 0)
(0.010261649 -1.2875631e-07 0)
(0.010344917 5.1014688e-07 0)
(0.010250108 -3.1289158e-07 0)
(0.01032124 3.7701145e-07 0)
(0.010254685 -3.3509029e-07 0)
(0.010313211 3.3091343e-07 0)
(0.010259058 -3.1041826e-07 0)
(0.010309009 2.9591056e-07 0)
(0.010262291 -2.783673e-07 0)
(0.01030592 2.634979e-07 0)
(0.010264952 -2.4796326e-07 0)
(0.010303341 2.3415498e-07 0)
(0.010267294 -2.2053568e-07 0)
(0.010301095 2.0804097e-07 0)
(0.010269385 -1.9602313e-07 0)
(0.010299101 1.848345e-07 0)
(0.010271262 -1.7419433e-07 0)
(0.010297316 1.6423891e-07 0)
(0.01027295 -1.5483015e-07 0)
(0.010295711 1.4602542e-07 0)
(0.010274472 -1.3774117e-07 0)
(0.010294266 1.3000473e-07 0)
(0.010275844 -1.227547e-07 0)
(0.010292962 1.1600612e-07 0)
(0.010277082 -1.0970782e-07 0)
(0.010291783 1.0386913e-07 0)
(0.010278203 -9.8445551e-08 0)
(0.010290716 9.3443231e-08 0)
(0.010279221 -8.8823239e-08 0)
(0.010289743 8.4589938e-08 0)
(0.01028015 -8.0709571e-08 0)
(0.010288853 7.7185355e-08 0)
(0.010281005 -7.398874e-08 0)
(0.010288029 7.1122519e-08 0)
(0.0102818 -6.856281e-08 0)
(0.01028726 6.6308803e-08 0)
(0.010282547 -6.4360337e-08 0)
(0.010286535 6.2664999e-08 0)
(0.010283262 -6.127803e-08 0)
(0.010285839 6.0437204e-08 0)
(0.010283915 -5.8215798e-08 0)
(0.01028497 6.2458542e-08 0)
(0.010283885 -5.5908381e-08 0)
(0.010824586 0.0021692124 0)
(0.025875812 -3.9006822e-05 0)
(0.016536792 7.6658601e-05 0)
(0.018030392 -8.88061e-06 0)
(0.017153716 9.5996311e-06 0)
(0.016994242 -3.6968353e-07 0)
(0.01707578 2.5105452e-06 0)
(0.016808711 6.3078511e-08 0)
(0.016953085 9.8514505e-07 0)
(0.016793967 -4.9308499e-07 0)
(0.016914866 6.8375997e-07 0)
(0.016802473 -5.9649556e-07 0)
(0.016901903 6.0094115e-07 0)
(0.016809941 -5.643862e-07 0)
(0.016894969 5.4041745e-07 0)
(0.016815415 -5.0833797e-07 0)
(0.016889775 4.820405e-07 0)
(0.016819938 -4.5332366e-07 0)
(0.016885398 4.2837651e-07 0)
(0.016823934 -4.0329131e-07 0)
(0.016881566 3.8051322e-07 0)
(0.016827511 -3.5844027e-07 0)
(0.016878157 3.3797109e-07 0)
(0.016830725 -3.1845636e-07 0)
(0.016875102 3.0022113e-07 0)
(0.016833618 -2.8297909e-07 0)
(0.016872356 2.6684848e-07 0)
(0.016836222 -2.5167611e-07 0)
(0.016869884 2.3750556e-07 0)
(0.016838568 -2.242338e-07 0)
(0.016867656 2.1187647e-07 0)
(0.016840684 -2.0035077e-07 0)
(0.016865645 1.8966222e-07 0)
(0.016842597 -1.7973938e-07 0)
(0.016863823 1.7058313e-07 0)
(0.016844334 -1.6213087e-07 0)
(0.016862165 1.5438185e-07 0)
(0.01684592 -1.4728179e-07 0)
(0.016860646 1.4082924e-07 0)
(0.016847379 -1.349778e-07 0)
(0.016859241 1.297273e-07 0)
(0.016848735 -1.2503737e-07 0)
(0.016857928 1.2090259e-07 0)
(0.016850011 -1.1733253e-07 0)
(0.016856688 1.1418629e-07 0)
(0.016851234 -1.1168498e-07 0)
(0.0168555 1.100857e-07 0)
(0.016852375 -1.0553264e-07 0)
(0.01685408 1.1608919e-07 0)
(0.016852477 -1.0109988e-07 0)
(0.01825736 0.003899352 0)
(0.034417078 -2.7461353e-05 0)
(0.022827447 0.00013053 0)
(0.024841121 -1.435048e-05 0)
(0.023634206 1.768854e-05 0)
(0.023418953 -3.6333573e-07 0)
(0.023550969 4.299348e-06 0)
(0.02317723 5.2744537e-07 0)
(0.023388456 1.4797845e-06 0)
(0.0231629 -5.8883368e-07 0)
(0.023336498 9.7034793e-07 0)
(0.02317607 -8.3333023e-07 0)
(0.023318789 8.5682038e-07 0)
(0.023186845 -8.0669739e-07 0)
(0.023309089 7.7584075e-07 0)
(0.023194684 -7.2986016e-07 0)
(0.023301696 6.9333708e-07 0)
(0.023201183 -6.5157566e-07 0)
(0.023295413 6.16132e-07 0)
(0.023206941 -5.7978451e-07 0)
(0.023289893 5.4711925e-07 0)
(0.023212105 -5.1523545e-07 0)
(0.023284973 4.8578043e-07 0)
(0.023216747 -4.5763982e-07 0)
(0.023280562 4.3137209e-07 0)
(0.023220922 -4.0653422e-07 0)
(0.0232766 3.8329722e-07 0)
(0.023224679 -3.6145705e-07 0)
(0.023273036 3.4104988e-07 0)
(0.023228059 -3.2195617e-07 0)
(0.023269828 3.0416687e-07 0)
(0.023231106 -2.8759184e-07 0)
(0.023266934 2.7220927e-07 0)
(0.023233858 -2.5794264e-07 0)
(0.023264315 2.447673e-07 0)
(0.023236354 -2.3261594e-07 0)
(0.023261932 2.2146583e-07 0)
(0.023238632 -2.1125758e-07 0)
(0.02325975 2.0197134e-07 0)
(0.023240728 -1.9355629e-07 0)
(0.023257732 1.8599752e-07 0)
(0.023242676 -1.7924819e-07 0)
(0.023255847 1.7329048e-07 0)
(0.023244507 -1.6815688e-07 0)
(0.023254066 1.6357714e-07 0)
(0.023246263 -1.6004438e-07 0)
(0.023252362 1.5768406e-07 0)
(0.023247923 -1.5043991e-07 0)
(0.023250389 1.6979072e-07 0)
(0.023248261 -1.4414975e-07 0)
(0.02020081 0.0039282016 0)
(0.041948204 -0.00013390419 0)
(0.028909749 0.00019519281 0)
(0.031482102 -2.0979424e-05 0)
(0.029918578 2.8287854e-05 0)
(0.029658907 -3.4807199e-07 0)
(0.029845948 6.4250667e-06 0)
(0.029367414 1.2308955e-06 0)
(0.029650875 1.9555699e-06 0)
(0.029357094 -5.9499825e-07 0)
(0.029586057 1.2207336e-06 0)
(0.029375569 -1.0362247e-06 0)
(0.029563787 1.0870867e-06 0)
(0.029389838 -1.0275496e-06 0)
(0.029551291 9.9232459e-07 0)
(0.029400162 -9.3378914e-07 0)
(0.029541606 8.8860574e-07 0)
(0.029408747 -8.3445493e-07 0)
(0.029533316 7.8958552e-07 0)
(0.029416374 -7.4262462e-07 0)
(0.029526009 7.0088521e-07 0)
(0.02942322 -6.5982896e-07 0)
(0.02951949 6.2206743e-07 0)
(0.029429373 -5.8589973e-07 0)
(0.029513646 5.5219361e-07 0)
(0.029434904 -5.2030802e-07 0)
(0.0295084 4.9049239e-07 0)
(0.029439875 -4.6247797e-07 0)
(0.029503686 4.3630257e-07 0)
(0.029444345 -4.1182608e-07 0)
(0.029499447 3.8901726e-07 0)
(0.029448368 -3.6777786e-07 0)
(0.029495627 3.4806043e-07 0)
(0.029452 -3.2978351e-07 0)
(0.029492172 3.1289788e-07 0)
(0.029455292 -2.9733194e-07 0)
(0.029489031 2.830418e-07 0)
(0.029458295 -2.6996419e-07 0)
(0.029486155 2.5806137e-07 0)
(0.029461055 -2.4727834e-07 0)
(0.029483499 2.3758744e-07 0)
(0.029463619 -2.2893415e-07 0)
(0.029481017 2.2129067e-07 0)
(0.029466029 -2.1471449e-07 0)
(0.029478673 2.0878167e-07 0)
(0.029468339 -2.0434906e-07 0)
(0.029476433 2.0122173e-07 0)
(0.029470539 -1.911719e-07 0)
(0.029473905 2.2106264e-07 0)
(0.029471198 -1.8313747e-07 0)
(0.02572382 0.0050413428 0)
(0.049331165 -0.00011772397 0)
(0.034765844 0.00026780713 0)
(0.037933838 -3.0014486e-05 0)
(0.036005198 4.1460476e-05 0)
(0.035714995 -4.8074496e-07 0)
(0.035959062 8.825322e-06 0)
(0.035380201 2.1128098e-06 0)
(0.035740038 2.3933105e-06 0)
(0.035376977 -5.2061234e-07 0)
(0.035663324 1.4338151e-06 0)
(0.035401239 -1.2087756e-06 0)
(0.035636681 1.292815e-06 0)
(0.035419142 -1.2287627e-06 0)
(0.035621371 1.1909927e-06 0)
(0.035432047 -1.1212974e-06 0)
(0.035609321 1.0687749e-06 0)
(0.035442813 -1.0028539e-06 0)
(0.035598938 9.4951974e-07 0)
(0.035452395 -8.9256107e-07 0)
(0.035589764 8.4249912e-07 0)
(0.035460999 -7.9288044e-07 0)
(0.035581574 7.4745246e-07 0)
(0.035468731 -7.0383301e-07 0)
(0.035574235 6.6325328e-07 0)
(0.035475675 -6.2484677e-07 0)
(0.035567653 5.8895513e-07 0)
(0.035481909 -5.5524039e-07 0)
(0.035561744 5.2374209e-07 0)
(0.035487509 -4.9430239e-07 0)
(0.035556436 4.668652e-07 0)
(0.035492546 -4.4132867e-07 0)
(0.035551656 4.1761601e-07 0)
(0.035497088 -3.9564571e-07 0)
(0.035547336 3.7534084e-07 0)
(0.035501202 -3.5663023e-07 0)
(0.035543412 3.3944651e-07 0)
(0.035504953 -3.2372549e-07 0)
(0.035539821 3.0941016e-07 0)
(0.035508399 -2.9644488e-07 0)
(0.035536506 2.8478676e-07 0)
(0.035511598 -2.7437575e-07 0)
(0.03553341 2.6517541e-07 0)
(0.035514603 -2.5726889e-07 0)
(0.035530487 2.5005993e-07 0)
(0.03551748 -2.4484801e-07 0)
(0.035527698 2.4092565e-07 0)
(0.035520236 -2.2803974e-07 0)
(0.035524616 2.6971838e-07 0)
(0.035521288 -2.1799112e-07 0)
(0.029478573 0.0056424507 0)
(0.055490866 -0.00024009192 0)
(0.040488351 0.00033543147 0)
(0.044137043 -3.5787891e-05 0)
(0.041898096 5.7868091e-05 0)
(0.041591135 -6.9269777e-07 0)
(0.041890298 1.1513729e-05 0)
(0.041217002 3.1261378e-06 0)
(0.041655665 2.7787718e-06 0)
(0.041222995 -3.7460249e-07 0)
(0.041568087 1.6094808e-06 0)
(0.041253357 -1.3544371e-06 0)
(0.041537251 1.4753999e-06 0)
(0.041274986 -1.4122324e-06 0)
(0.041519116 1.3731735e-06 0)
(0.041290545 -1.2937203e-06 0)
(0.041504643 1.2349675e-06 0)
(0.041303565 -1.157853e-06 0)
(0.041492102 1.0969125e-06 0)
(0.04131517 -1.0305309e-06 0)
(0.041481 9.7283668e-07 0)
(0.041325591 -9.1522887e-07 0)
(0.041471086 8.6272949e-07 0)
(0.041334949 -8.1219877e-07 0)
(0.041462209 7.6527263e-07 0)
(0.041343347 -7.2083967e-07 0)
(0.041454252 6.7934138e-07 0)
(0.04135088 -6.4036931e-07 0)
(0.041447118 6.0396341e-07 0)
(0.041357639 -5.6995243e-07 0)
(0.041440713 5.3825067e-07 0)
(0.041363712 -5.0875822e-07 0)
(0.041434951 4.8136563e-07 0)
(0.041369186 -4.5599617e-07 0)
(0.041429747 4.325422e-07 0)
(0.041374141 -4.1093701e-07 0)
(0.041425023 3.9108729e-07 0)
(0.041378655 -3.7293244e-07 0)
(0.041420702 3.5639379e-07 0)
(0.0413828 -3.4141755e-07 0)
(0.041416715 3.2794559e-07 0)
(0.041386646 -3.159131e-07 0)
(0.041412995 3.0527555e-07 0)
(0.041390256 -2.9614153e-07 0)
(0.041409483 2.8773047e-07 0)
(0.04139371 -2.8185004e-07 0)
(0.041406135 2.7709263e-07 0)
(0.04139703 -2.6141973e-07 0)
(0.041402502 3.1567821e-07 0)
(0.041398536 -2.488565e-07 0)
(0.034029054 0.0061552276 0)
(0.0612597 -0.00024247709 0)
(0.046173429 0.0003992831 0)
(0.049874438 -4.5107432e-05 0)
(0.047572828 7.4853109e-05 0)
(0.047281179 -1.433772e-06 0)
(0.047637586 1.4383067e-05 0)
(0.046878765 4.1987829e-06 0)
(0.04739737 3.1030867e-06 0)
(0.046895483 -1.6442073e-07 0)
(0.047300161 1.7466511e-06 0)
(0.046932154 -1.4746938e-06 0)
(0.0472653 1.634707e-06 0)
(0.046957572 -1.5782759e-06 0)
(0.04724434 1.5387831e-06 0)
(0.04697584 -1.4510515e-06 0)
(0.047227401 1.387065e-06 0)
(0.046991169 -1.2993679e-06 0)
(0.047212653 1.231656e-06 0)
(0.047004845 -1.156453e-06 0)
(0.04719958 1.0918187e-06 0)
(0.047017123 -1.0268129e-06 0)
(0.047187907 9.6784672e-07 0)
(0.047028141 -9.1095869e-07 0)
(0.047177462 8.5822309e-07 0)
(0.047038019 -8.0826713e-07 0)
(0.047168108 7.61639e-07 0)
(0.047046871 -7.1785913e-07 0)
(0.047159728 6.7696581e-07 0)
(0.047054806 -6.3877855e-07 0)
(0.047152212 6.0317933e-07 0)
(0.047061931 -5.7007495e-07 0)
(0.047145454 5.3931985e-07 0)
(0.047068348 -5.1084689e-07 0)
(0.047139355 4.8451507e-07 0)
(0.047074154 -4.602667e-07 0)
(0.047133821 4.3798075e-07 0)
(0.047079441 -4.1760242e-07 0)
(0.047128762 3.9903073e-07 0)
(0.047084293 -3.8221708e-07 0)
(0.047124097 3.6708535e-07 0)
(0.047088792 -3.5356838e-07 0)
(0.047119746 3.4161547e-07 0)
(0.047093013 -3.313578e-07 0)
(0.04711564 3.2182519e-07 0)
(0.047097047 -3.1538372e-07 0)
(0.047111729 3.0975481e-07 0)
(0.047100935 -2.9141035e-07 0)
(0.047107551 3.5866814e-07 0)
(0.047102944 -2.7573404e-07 0)
(0.038074415 0.0067797026 0)
(0.065668414 -0.00039831955 0)
(0.052008404 0.00048140806 0)
(0.055057664 -5.3471833e-05 0)
(0.053030229 9.0680391e-05 0)
(0.05278356 -2.5540391e-06 0)
(0.053202032 1.7450183e-05 0)
(0.052366462 5.2919582e-06 0)
(0.052964894 3.3567993e-06 0)
(0.052394762 1.0212319e-07 0)
(0.052859411 1.844092e-06 0)
(0.052437844 -1.5703204e-06 0)
(0.052820663 1.7703136e-06 0)
(0.052467081 -1.7267159e-06 0)
(0.052796877 1.6874152e-06 0)
(0.052488091 -1.592927e-06 0)
(0.052777443 1.524656e-06 0)
(0.052505767 -1.4270311e-06 0)
(0.052760457 1.3533892e-06 0)
(0.052521546 -1.2700065e-06 0)
(0.052745386 1.1991466e-06 0)
(0.052535707 -1.1273671e-06 0)
(0.052731934 1.0625615e-06 0)
(0.052548403 -9.9989442e-07 0)
(0.052719904 9.4190573e-07 0)
(0.052559774 -8.8694898e-07 0)
(0.052709142 8.3568357e-07 0)
(0.052569955 -7.8755886e-07 0)
(0.052699507 7.4261109e-07 0)
(0.052579074 -7.006542e-07 0)
(0.052690872 6.6153464e-07 0)
(0.052587257 -6.2517039e-07 0)
(0.052683114 5.9137839e-07 0)
(0.052594623 -5.6010469e-07 0)
(0.052676115 5.3117359e-07 0)
(0.052601283 -5.0453912e-07 0)
(0.052669768 4.8005142e-07 0)
(0.052607345 -4.5766535e-07 0)
(0.052663969 4.3725608e-07 0)
(0.052612906 -4.187817e-07 0)
(0.052658623 4.0214938e-07 0)
(0.05261806 -3.8728974e-07 0)
(0.05265364 3.7414698e-07 0)
(0.052622893 -3.6287197e-07 0)
(0.05264894 3.5230559e-07 0)
(0.052627506 -3.454082e-07 0)
(0.052644466 3.3888188e-07 0)
(0.052631961 -3.1803222e-07 0)
(0.05263975 3.9838845e-07 0)
(0.052634513 -2.9863357e-07 0)
(0.042856121 0.0071254908 0)
(0.069842684 -0.00043437377 0)
(0.057674583 0.00055356641 0)
(0.059812285 -6.0594685e-05 0)
(0.058304831 0.00010356131 0)
(0.058087361 -4.3513428e-06 0)
(0.058582688 2.0533209e-05 0)
(0.057680282 6.3262412e-06 0)
(0.058357991 3.5336394e-06 0)
(0.057721059 4.152814e-07 0)
(0.058245718 1.9010774e-06 0)
(0.057770614 -1.6420956e-06 0)
(0.058203188 1.8819923e-06 0)
(0.057803675 -1.8575026e-06 0)
(0.058176579 1.8188271e-06 0)
(0.057827445 -1.7191384e-06 0)
(0.058154634 1.6474878e-06 0)
(0.057847489 -1.5406317e-06 0)
(0.058135393 1.461904e-06 0)
(0.057865387 -1.3710198e-06 0)
(0.058118314 1.2946622e-06 0)
(0.057881439 -1.2167568e-06 0)
(0.058103075 1.1467547e-06 0)
(0.057895818 -1.0789035e-06 0)
(0.058089458 1.0162313e-06 0)
(0.057908685 -9.5680694e-07 0)
(0.058077286 9.0140674e-07 0)
(0.057920195 -8.4940859e-07 0)
(0.058066398 8.0084622e-07 0)
(0.057930498 -7.5553086e-07 0)
(0.058056645 7.1327336e-07 0)
(0.057939737 -6.740059e-07 0)
(0.058047887 6.3750666e-07 0)
(0.057948049 -6.0373802e-07 0)
(0.058039991 5.7248891e-07 0)
(0.057955562 -5.4372829e-07 0)
(0.058032833 5.1727733e-07 0)
(0.057962397 -4.9310119e-07 0)
(0.058026296 4.7105203e-07 0)
(0.057968664 -4.5109717e-07 0)
(0.058020273 4.3312471e-07 0)
(0.05797447 -4.1706537e-07 0)
(0.058014661 4.028608e-07 0)
(0.057979911 -3.9067641e-07 0)
(0.05800937 3.7916999e-07 0)
(0.0579851 -3.7191659e-07 0)
(0.058004335 3.6447775e-07 0)
(0.057990117 -3.4132599e-07 0)
(0.057999093 4.3460381e-07 0)
(0.057993243 -3.1763781e-07 0)
(0.047387579 0.00772438 0)
(0.073214636 -0.00057372305 0)
(0.062998862 0.0006006772 0)
(0.064290793 -6.6137432e-05 0)
(0.063422658 0.00011275674 0)
(0.063181877 -6.8655395e-06 0)
(0.063779695 2.3432578e-05 0)
(0.062821373 7.2511718e-06 0)
(0.063576509 3.628471e-06 0)
(0.062874623 7.6550381e-07 0)
(0.063458996 1.9172678e-06 0)
(0.06293064 -1.6905607e-06 0)
(0.063412737 1.9697721e-06 0)
(0.062967503 -1.9706638e-06 0)
(0.063383313 1.9329692e-06 0)
(0.06299403 -1.8296196e-06 0)
(0.063358854 1.7554813e-06 0)
(0.063016447 -1.6401129e-06 0)
(0.063337358 1.5571487e-06 0)
(0.063036464 -1.4594635e-06 0)
(0.063318273 1.3783465e-06 0)
(0.063054404 -1.2949792e-06 0)
(0.063301253 1.2204311e-06 0)
(0.06307046 -1.1479991e-06 0)
(0.063286056 1.0812176e-06 0)
(0.063084815 -1.0178634e-06 0)
(0.063272482 9.5883342e-07 0)
(0.063097646 -9.0343424e-07 0)
(0.063260348 8.5169869e-07 0)
(0.063109124 -8.0343767e-07 0)
(0.063249486 7.5842511e-07 0)
(0.063119412 -7.1661048e-07 0)
(0.063239737 6.7773391e-07 0)
(0.063128663 -6.4177618e-07 0)
(0.063230951 6.084911e-07 0)
(0.063137021 -5.77864e-07 0)
(0.063222988 5.4968713e-07 0)
(0.063144621 -5.2393911e-07 0)
(0.06321572 5.0044833e-07 0)
(0.063151589 -4.7919186e-07 0)
(0.063209026 4.6004117e-07 0)
(0.063158039 -4.4292667e-07 0)
(0.063202792 4.2778843e-07 0)
(0.063164082 -4.1480238e-07 0)
(0.063196916 4.0245334e-07 0)
(0.063169839 -3.9493814e-07 0)
(0.063191328 3.8658537e-07 0)
(0.06317541 -3.6135926e-07 0)
(0.06318557 4.6714187e-07 0)
(0.063179134 -3.3288702e-07 0)
(0.05239319 0.0079108512 0)
(0.076505255 -0.00062132913 0)
(0.068050835 0.00065751056 0)
(0.068611213 -6.8134051e-05 0)
(0.068401135 0.00011882791 0)
(0.068067716 -9.8894111e-06 0)
(0.068794492 2.587001e-05 0)
(0.067790587 8.0059099e-06 0)
(0.068620368 3.6449866e-06 0)
(0.067855624 1.1428038e-06 0)
(0.068499171 1.8927356e-06 0)
(0.06791808 -1.7160027e-06 0)
(0.068449182 2.0338231e-06 0)
(0.067958696 -2.0663062e-06 0)
(0.068416957 2.0298945e-06 0)
(0.067987964 -1.9244142e-06 0)
(0.068389995 1.8486614e-06 0)
(0.068012741 -1.7255231e-06 0)
(0.068366257 1.639171e-06 0)
(0.068034865 -1.5354053e-06 0)
(0.068345182 1.4502682e-06 0)
(0.068054677 -1.3621106e-06 0)
(0.068326398 1.2836689e-06 0)
(0.068072392 -1.2072623e-06 0)
(0.068309639 1.1369464e-06 0)
(0.068088218 -1.0701991e-06 0)
(0.068294679 1.0080433e-06 0)
(0.068102355 -9.4971424e-07 0)
(0.068281314 8.9524471e-07 0)
(0.068114994 -8.444469e-07 0)
(0.068269357 7.9706004e-07 0)
(0.068126317 -7.5305232e-07 0)
(0.068258629 7.1212619e-07 0)
(0.068136494 -6.742827e-07 0)
(0.068248964 6.3924122e-07 0)
(0.068145686 -6.0700564e-07 0)
(0.068240209 5.7734026e-07 0)
(0.068154041 -5.5023656e-07 0)
(0.068232221 5.2550112e-07 0)
(0.068161697 -5.0312265e-07 0)
(0.068224866 4.8295376e-07 0)
(0.068168783 -4.6492696e-07 0)
(0.06821802 4.4898337e-07 0)
(0.068175417 -4.3530332e-07 0)
(0.06821157 4.2221245e-07 0)
(0.068181733 -4.1452235e-07 0)
(0.068205436 4.0526708e-07 0)
(0.068187845 -3.7821139e-07 0)
(0.068199177 4.9587864e-07 0)
(0.068192185 -3.4456045e-07 0)
(0.057449457 0.0084022403 0)
(0.079128908 -0.0007735039 0)
(0.072914466 0.00070243797 0)
(0.072787527 -7.0195807e-05 0)
(0.073224261 0.00012113549 0)
(0.07276127 -1.302052e-05 0)
(0.073631405 2.771712e-05 0)
(0.072589207 8.5735764e-06 0)
(0.073489568 3.5945387e-06 0)
(0.072664205 1.539022e-06 0)
(0.073366196 1.828257e-06 0)
(0.072733081 -1.7180181e-06 0)
(0.073312408 2.0745936e-06 0)
(0.072777373 -2.1445215e-06 0)
(0.073277402 2.1097698e-06 0)
(0.072809347 -2.0036393e-06 0)
(0.073247964 1.9271455e-06 0)
(0.07283646 -1.796991e-06 0)
(0.073222012 1.7080974e-06 0)
(0.072860664 -1.5989803e-06 0)
(0.073198973 1.5105626e-06 0)
(0.072882321 -1.4182901e-06 0)
(0.073178452 1.3366042e-06 0)
(0.07290167 -1.2568268e-06 0)
(0.073160155 1.1835465e-06 0)
(0.072918944 -1.1139391e-06 0)
(0.073143832 1.0491565e-06 0)
(0.072934364 -9.8836266e-07 0)
(0.073129258 9.3159394e-07 0)
(0.072948143 -8.7866475e-07 0)
(0.073116224 8.2927998e-07 0)
(0.072960482 -7.8342824e-07 0)
(0.073104535 7.4077669e-07 0)
(0.072971569 -7.0134738e-07 0)
(0.073094009 6.6482677e-07 0)
(0.072981579 -6.3123756e-07 0)
(0.073084476 6.00317e-07 0)
(0.072990675 -5.7207211e-07 0)
(0.073075781 5.4628732e-07 0)
(0.072999006 -5.2296279e-07 0)
(0.073067779 5.0193556e-07 0)
(0.073006714 -4.8313949e-07 0)
(0.073060334 4.6651721e-07 0)
(0.073013927 -4.5224949e-07 0)
(0.073053322 4.3851916e-07 0)
(0.073020789 -4.3073452e-07 0)
(0.073046655 4.2060341e-07 0)
(0.073027429 -3.9197203e-07 0)
(0.073039908 5.2073012e-07 0)
(0.073032394 -3.5286184e-07 0)
(0.06263517 0.0085367822 0)
(0.081850746 -0.00081865863 0)
(0.077617886 0.00073936572 0)
(0.07682263 -7.2829347e-05 0)
(0.077883213 0.00012035119 0)
(0.077283848 -1.6014958e-05 0)
(0.078294137 2.8910867e-05 0)
(0.07721792 8.9347195e-06 0)
(0.078184134 3.4888688e-06 0)
(0.077300437 1.9436978e-06 0)
(0.078060024 1.7234405e-06 0)
(0.077375775 -1.696086e-06 0)
(0.078002315 2.0926396e-06 0)
(0.077423634 -2.205466e-06 0)
(0.077964555 2.17285e-06 0)
(0.077458266 -2.0675013e-06 0)
(0.07793268 1.9911307e-06 0)
(0.077487677 -1.854725e-06 0)
(0.077904551 1.7641268e-06 0)
(0.077513924 -1.6503947e-06 0)
(0.077879588 1.5594257e-06 0)
(0.07753739 -1.4637099e-06 0)
(0.077857364 1.3794216e-06 0)
(0.07755834 -1.2968708e-06 0)
(0.07783756 1.2211893e-06 0)
(0.077577031 -1.1492463e-06 0)
(0.077819904 1.082329e-06 0)
(0.077593707 -1.0195289e-06 0)
(0.077804146 9.6088865e-07 0)
(0.077608602 -9.0622509e-07 0)
(0.07779006 8.5521285e-07 0)
(0.077621935 -8.0786092e-07 0)
(0.077777432 7.6380288e-07 0)
(0.077633911 -7.2308237e-07 0)
(0.077766063 6.8535475e-07 0)
(0.07764472 -6.506628e-07 0)
(0.077755771 6.1871858e-07 0)
(0.077654538 -5.8954297e-07 0)
(0.077746387 5.6290103e-07 0)
(0.077663529 -5.3880577e-07 0)
(0.077737753 5.1707649e-07 0)
(0.077671842 -4.9765085e-07 0)
(0.077729724 4.8047549e-07 0)
(0.07767962 -4.6572557e-07 0)
(0.077722164 4.5145974e-07 0)
(0.077687013 -4.4365292e-07 0)
(0.077714978 4.3268554e-07 0)
(0.077694165 -4.0273696e-07 0)
(0.077707759 5.416496e-07 0)
(0.077699761 -3.5801415e-07 0)
(0.067958702 0.0088781081 0)
(0.084119854 -0.0009548779 0)
(0.082229246 0.00076573568 0)
(0.080709364 -7.3948816e-05 0)
(0.082367834 0.00011645284 0)
(0.081647367 -1.9113828e-05 0)
(0.082784213 2.944821e-05 0)
(0.081677802 9.1020006e-06 0)
(0.08270402 3.3500008e-06 0)
(0.081764441 2.3498017e-06 0)
(0.082580593 1.5782229e-06 0)
(0.081846277 -1.6490496e-06 0)
(0.082518818 2.08882e-06 0)
(0.081897568 -2.2492718e-06 0)
(0.082478335 2.2195038e-06 0)
(0.081934795 -2.1162758e-06 0)
(0.082444073 2.0408938e-06 0)
(0.081966455 -1.8990031e-06 0)
(0.082413819 1.807521e-06 0)
(0.081994699 -1.6899076e-06 0)
(0.082386975 1.5971055e-06 0)
(0.082019931 -1.4986119e-06 0)
(0.082363091 1.412351e-06 0)
(0.082042443 -1.3276138e-06 0)
(0.082341819 1.2500825e-06 0)
(0.082062514 -1.1763186e-06 0)
(0.082322862 1.1077481e-06 0)
(0.082080414 -1.0433895e-06 0)
(0.082305953 9.8329699e-07 0)
(0.082096396 -9.2728915e-07 0)
(0.082290841 8.7501222e-07 0)
(0.082110696 -8.2649593e-07 0)
(0.082277298 7.8134399e-07 0)
(0.082123537 -7.3962118e-07 0)
(0.08226511 7.0095425e-07 0)
(0.082135124 -6.6540524e-07 0)
(0.082254079 6.3266267e-07 0)
(0.082145645 -6.0276345e-07 0)
(0.082244025 5.7545333e-07 0)
(0.082155275 -5.5075722e-07 0)
(0.082234779 5.2848085e-07 0)
(0.082164177 -5.085645e-07 0)
(0.082226183 4.9095867e-07 0)
(0.082172503 -4.7582977e-07 0)
(0.082218092 4.6113216e-07 0)
(0.08218041 -4.5336887e-07 0)
(0.082210401 4.4161935e-07 0)
(0.082188057 -4.1061104e-07 0)
(0.082202729 5.5862294e-07 0)
(0.082194283 -3.6025008e-07 0)
(0.073299375 0.0089872178 0)
(0.08652144 -0.00099375272 0)
(0.086706453 0.00078491585 0)
(0.084462327 -7.5925904e-05 0)
(0.086679863 0.00010944543 0)
(0.085858945 -2.2224193e-05 0)
(0.087102671 2.9436203e-05 0)
(0.085969404 9.0916418e-06 0)
(0.087048933 3.1953632e-06 0)
(0.086056566 2.7487695e-06 0)
(0.086927779 1.3924822e-06 0)
(0.086144682 -1.5759415e-06 0)
(0.086861842 2.0640961e-06 0)
(0.086199249 -2.2761234e-06 0)
(0.086818672 2.2501727e-06 0)
(0.086238996 -2.1503132e-06 0)
(0.086782086 2.0767736e-06 0)
(0.086272847 -1.9301659e-06 0)
(0.086749765 1.8385968e-06 0)
(0.086303033 -1.7178335e-06 0)
(0.086721095 1.6238952e-06 0)
(0.086329982 -1.5232766e-06 0)
(0.086695597 1.4356572e-06 0)
(0.08635401 -1.3493078e-06 0)
(0.0866729 1.2704651e-06 0)
(0.086375423 -1.1953818e-06 0)
(0.086652682 1.1256281e-06 0)
(0.08639451 -1.0601486e-06 0)
(0.086634653 9.9901224e-07 0)
(0.086411546 -9.4203862e-07 0)
(0.086618547 8.8885102e-07 0)
(0.086426785 -8.3949855e-07 0)
(0.086604117 7.9355778e-07 0)
(0.086440465 -7.511141e-07 0)
(0.086591135 7.1176831e-07 0)
(0.086452804 -6.7560226e-07 0)
(0.086579389 6.4228339e-07 0)
(0.086464005 -6.1186201e-07 0)
(0.086568687 5.8406811e-07 0)
(0.086474255 -5.589394e-07 0)
(0.086558847 5.3626588e-07 0)
(0.086483726 -5.1599299e-07 0)
(0.086549704 4.9807728e-07 0)
(0.08649258 -4.8267111e-07 0)
(0.0865411 4.6764539e-07 0)
(0.086500983 -4.5998329e-07 0)
(0.086532922 4.4751699e-07 0)
(0.086509107 -4.1570322e-07 0)
(0.086524814 5.7166653e-07 0)
(0.086515958 -3.59809e-07 0)
(0.078531592 0.0091258247 0)
(0.088531885 -0.001133901 0)
(0.091033981 0.00079069169 0)
(0.08813282 -7.5994774e-05 0)
(0.090828333 9.9792539e-05 0)
(0.089918018 -2.5391465e-05 0)
(0.091249439 2.8956565e-05 0)
(0.090092828 8.9262325e-06 0)
(0.091218172 3.0440672e-06 0)
(0.090177635 3.128275e-06 0)
(0.091101378 1.1698956e-06 0)
(0.090271079 -1.4763596e-06 0)
(0.091031329 2.0196173e-06 0)
(0.090328739 -2.2862222e-06 0)
(0.09098551 2.2653765e-06 0)
(0.090370921 -2.1700215e-06 0)
(0.090946671 2.0991651e-06 0)
(0.090406897 -1.948605e-06 0)
(0.090912349 1.8577136e-06 0)
(0.090438965 -1.7345217e-06 0)
(0.090881912 1.6401229e-06 0)
(0.090467575 -1.5380197e-06 0)
(0.090854854 1.4496368e-06 0)
(0.09049307 -1.3622335e-06 0)
(0.090830777 1.2826013e-06 0)
(0.09051578 -1.206686e-06 0)
(0.090809339 1.1362051e-06 0)
(0.090536015 -1.0700282e-06 0)
(0.090790229 1.0082453e-06 0)
(0.09055407 -9.5067519e-07 0)
(0.090773162 8.9692099e-07 0)
(0.090570216 -8.4705039e-07 0)
(0.090757875 8.0061757e-07 0)
(0.090584705 -7.5772702e-07 0)
(0.090744126 7.1795689e-07 0)
(0.090597772 -6.8140704e-07 0)
(0.090731691 6.4772603e-07 0)
(0.090609629 -6.1697941e-07 0)
(0.090720363 5.8888164e-07 0)
(0.090620475 -5.6348173e-07 0)
(0.090709953 5.4055883e-07 0)
(0.090630495 -5.2006194e-07 0)
(0.090700282 5.0195292e-07 0)
(0.090639857 -4.8636819e-07 0)
(0.090691185 4.7111627e-07 0)
(0.090648737 -4.6360673e-07 0)
(0.090682537 4.5050164e-07 0)
(0.090657317 -4.1812945e-07 0)
(0.090674012 5.8082217e-07 0)
(0.090664785 -3.5692896e-07 0)
(0.084054276 0.0092405177 0)
(0.090869313 -0.0011405284 0)
(0.095141843 0.00079484839 0)
(0.09178776 -7.4802806e-05 0)
(0.094823973 8.8200159e-05 0)
(0.093823384 -2.8470173e-05 0)
(0.095225315 2.8138083e-05 0)
(0.09404765 8.6426802e-06 0)
(0.095211089 2.9145956e-06 0)
(0.094128663 3.4712871e-06 0)
(0.095101101 9.1888063e-07 0)
(0.094225527 -1.3516819e-06 0)
(0.095027231 1.9564108e-06 0)
(0.09428609 -2.2798945e-06 0)
(0.094978806 2.2656596e-06 0)
(0.094330611 -2.1758719e-06 0)
(0.09493779 2.1085023e-06 0)
(0.094368638 -1.9547548e-06 0)
(0.094901538 1.8652687e-06 0)
(0.094402523 -1.7403607e-06 0)
(0.094869398 1.6461474e-06 0)
(0.094432736 -1.5431814e-06 0)
(0.094840836 1.454609e-06 0)
(0.094459645 -1.3666935e-06 0)
(0.094815431 1.2867767e-06 0)
(0.094483604 -1.2105006e-06 0)
(0.094792817 1.1397341e-06 0)
(0.094504946 -1.0732707e-06 0)
(0.094772665 1.0112254e-06 0)
(0.094523982 -9.5341428e-07 0)
(0.094754672 8.9942683e-07 0)
(0.094541001 -8.4934693e-07 0)
(0.094738561 8.0270964e-07 0)
(0.09455627 -7.5963727e-07 0)
(0.094724075 7.1968849e-07 0)
(0.094570035 -6.8298113e-07 0)
(0.094710976 6.4914788e-07 0)
(0.094582522 -6.1826602e-07 0)
(0.094699048 5.9003864e-07 0)
(0.094593942 -5.6452659e-07 0)
(0.09468809 5.4149592e-07 0)
(0.094604487 -5.2090183e-07 0)
(0.094677913 5.0271332e-07 0)
(0.094614337 -4.8704675e-07 0)
(0.094668344 4.7166919e-07 0)
(0.094623674 -4.6435591e-07 0)
(0.094659246 4.5069867e-07 0)
(0.094632689 -4.180074e-07 0)
(0.094650323 5.8615587e-07 0)
(0.094640762 -3.5184584e-07 0)
(0.089344198 0.0092700644 0)
(0.092871418 -0.0012692589 0)
(0.098986802 0.00077994217 0)
(0.095429222 -7.2564924e-05 0)
(0.098666223 7.5648618e-05 0)
(0.097572367 -3.1330619e-05 0)
(0.099030247 2.7055699e-05 0)
(0.097832961 8.2672448e-06 0)
(0.099027691 2.8125552e-06 0)
(0.097910131 3.7626482e-06 0)
(0.09892662 6.5294062e-07 0)
(0.098008016 -1.2048256e-06 0)
(0.098849501 1.875455e-06 0)
(0.098071339 -2.25749e-06 0)
(0.098798521 2.2516068e-06 0)
(0.0981181 -2.1683812e-06 0)
(0.098755412 2.1052513e-06 0)
(0.098158101 -1.9490858e-06 0)
(0.098717308 1.8616842e-06 0)
(0.098193732 -1.7357594e-06 0)
(0.098683532 1.6423493e-06 0)
(0.098225485 -1.5391264e-06 0)
(0.098653525 1.4509147e-06 0)
(0.098253752 -1.3630097e-06 0)
(0.098626844 1.2832934e-06 0)
(0.098278912 -1.2071114e-06 0)
(0.098603101 1.1364844e-06 0)
(0.098301316 -1.0701294e-06 0)
(0.098581949 1.0081929e-06 0)
(0.098321294 -9.5048565e-07 0)
(0.098563068 8.9658678e-07 0)
(0.09833915 -8.4659476e-07 0)
(0.098546167 8.0003095e-07 0)
(0.098355166 -7.5703314e-07 0)
(0.098530973 7.1714436e-07 0)
(0.0983696 -6.8049791e-07 0)
(0.09851724 6.467131e-07 0)
(0.098382691 -6.1588062e-07 0)
(0.098504737 5.8769245e-07 0)
(0.098394659 -5.6221935e-07 0)
(0.098493255 5.3921978e-07 0)
(0.098405706 -5.186531e-07 0)
(0.098482596 5.0049414e-07 0)
(0.098416022 -4.8483883e-07 0)
(0.098472575 4.6943319e-07 0)
(0.098425794 -4.6235433e-07 0)
(0.098463047 4.4824155e-07 0)
(0.098435223 -4.1545995e-07 0)
(0.098453746 5.8775301e-07 0)
(0.098443886 -3.4478678e-07 0)
(0.094377232 0.0091979628 0)
(0.095112766 -0.001267671 0)
(0.10259317 0.0007640896 0)
(0.099024925 -7.1382541e-05 0)
(0.10234814 6.2646054e-05 0)
(0.10116176 -3.3964835e-05 0)
(0.10266409 2.5783871e-05 0)
(0.10144805 7.8361519e-06 0)
(0.10266863 2.7350797e-06 0)
(0.10152193 3.994161e-06 0)
(0.1025777 3.881528e-07 0)
(0.10161851 -1.0398735e-06 0)