/*--------------------------------*- C++ -*----------------------------------*\
| =========                 |                                                 |
| \\      /  F ield         | OpenFOAM: The Open Source CFD Toolbox           |
|  \\    /   O peration     | Version:  2312                                  |
|   \\  /    A nd           | Website:  www.openfoam.com                      |
|    \\/     M anipulation  |                                                 |
\*---------------------------------------------------------------------------*/
FoamFile
{
    version     2.0;
    format      ascii;
    arch        "LSB;label=32;scalar=64";
    class       surfaceScalarField;
    location    "6";
    object      phi;
}
// * * * * * * * * * * * * * * * * * * * * * * * * * * * * * * * * * * * * * //

dimensions      [0 3 -1 0 0 0 0];

oriented        oriented;

internalField   nonuniform List<scalar> 
7870
(
5.3042341e-11
1.2932078e-09
5.1926129e-11
1.1160735e-12
5.1958475e-11
-3.2348619e-14
5.121533e-11
7.4314238e-13
5.2052884e-11
-8.3755223e-13
5.1284625e-11
7.6825762e-13
5.2023477e-11
-7.3885166e-13
5.1334589e-11
6.8888775e-13
5.198299e-11
-6.4840064e-13
5.137575e-11
6.0723962e-13
5.19456e-11
-5.6984993e-13
5.1411269e-11
5.3433057e-13
5.1912553e-11
-5.0128347e-13
5.14423e-11
4.7025308e-13
5.1883547e-11
-4.4124733e-13
5.1469466e-11
4.1408144e-13
5.1858135e-11
-3.8866894e-13
5.1493243e-11
3.648912e-13
5.1835894e-11
-3.4265062e-13
5.1514038e-11
3.2185619e-13
5.1816452e-11
-3.0241398e-13
5.1532201e-11
2.8425089e-13
5.1799481e-11
-2.6727968e-13
5.154804e-11
2.5144087e-13
5.1784695e-11
-2.3665469e-13
5.1561822e-11
2.228725e-13
5.1771844e-11
-2.1002209e-13
5.1573781e-11
1.9806362e-13
5.1760713e-11
-1.8693234e-13
5.1584117e-11
1.7659551e-13
5.1751113e-11
-1.6699564e-13
5.1593007e-11
1.5810579e-13
5.1742883e-11
-1.4987539e-13
5.16006e-11
1.422823e-13
5.1735883e-11
-1.3528252e-13
5.1607025e-11
1.2885785e-13
5.1729995e-11
-1.2297057e-13
5.161239e-11
1.1760574e-13
5.1725121e-11
-1.1273156e-13
5.1616785e-11
1.0833584e-13
5.1721178e-11
-1.0439244e-13
5.1620286e-11
1.0089149e-13
5.1718099e-11
-9.7812193e-14
5.1622952e-11
9.5146784e-14
5.1715831e-11
-9.2878977e-14
5.1624825e-11
9.1005533e-14
5.1714342e-11
-8.9516774e-14
5.1626065e-11
8.827717e-14
5.1714642e-11
-8.8577355e-14
8.502972e-14
1.4953362e-10
2.4899239e-09
1.5083479e-10
-1.8489329e-13
1.5025907e-10
5.4338262e-13
1.4930116e-10
1.7010493e-12
1.5050772e-10
-2.0441125e-12
1.4943333e-10
1.8426455e-12
1.5049372e-10
-1.7992345e-12
1.495111e-10
1.6715015e-12
1.5043931e-10
-1.5766128e-12
1.4957122e-10
1.4753345e-12
1.503864e-10
-1.3850292e-12
1.4962227e-10
1.298455e-12
1.5033927e-10
-1.2182745e-12
1.4966673e-10
1.142787e-12
1.5029783e-10
-1.0723497e-12
1.4970563e-10
1.0062902e-12
1.5026152e-10
-9.4456585e-13
1.4973966e-10
8.8675184e-13
1.5022974e-10
-8.3272782e-13
1.4976943e-10
7.8217017e-13
1.5020195e-10
-7.3494166e-13
1.4979542e-10
6.9078326e-13
1.501777e-10
-6.4955591e-13
1.4981809e-10
6.1104954e-13
1.5015656e-10
-5.7512918e-13
1.4983781e-10
5.4162362e-13
1.5013819e-10
-5.1040514e-13
1.4985492e-10
4.8133384e-13
1.5012228e-10
-4.5429121e-13
1.4986972e-10
4.2916265e-13
1.5010856e-10
-4.0584003e-13
1.4988244e-10
3.8422938e-13
1.5009679e-10
-3.6423358e-13
1.498933e-10
3.4577548e-13
1.5008679e-10
-3.2876926e-13
1.4990249e-10
3.1315163e-13
1.5007837e-10
-2.9884808e-13
1.4991017e-10
2.858068e-13
1.500714e-10
-2.7396449e-13
1.4991646e-10
2.6327893e-13
1.5006577e-10
-2.5369781e-13
1.4992147e-10
2.4518701e-13
1.5006136e-10
-2.3770496e-13
1.4992529e-10
2.3122456e-13
1.5005812e-10
-2.2571266e-13
1.4992797e-10
2.2115877e-13
1.5005598e-10
-2.175282e-13
1.4992979e-10
2.1446881e-13
1.5005732e-10
-2.1611419e-13
2.0586203e-13
2.4296318e-10
3.5932108e-09
2.4727067e-10
-4.4923992e-12
2.4583627e-10
1.9777861e-12
2.4509534e-10
2.4419813e-12
2.4623135e-10
-3.1801241e-12
2.4526128e-10
2.812717e-12
2.4625635e-10
-2.794309e-12
2.4534199e-10
2.5858688e-12
2.4621013e-10
-2.4447529e-12
2.4539976e-10
2.2856977e-12
2.4616143e-10
-2.1466927e-12
2.4544778e-10
2.0120963e-12
2.4611757e-10
-1.8880604e-12
2.4548941e-10
1.7709456e-12
2.4607894e-10
-1.6618768e-12
2.4552579e-10
1.559435e-12
2.4604506e-10
-1.4638356e-12
2.4555762e-10
1.3741919e-12
2.4601541e-10
-1.290512e-12
2.4558545e-10
1.2121245e-12
2.4598948e-10
-1.1389667e-12
2.4560976e-10
1.070504e-12
2.4596684e-10
-1.0066396e-12
2.4563095e-10
9.4694199e-13
2.4594712e-10
-8.9129661e-13
2.4564939e-10
8.393535e-13
2.4592997e-10
-7.9099053e-13
2.4566538e-10
7.4592296e-13
2.4591512e-10
-7.04028e-13
2.4567921e-10
6.6507348e-13
2.4590231e-10
-6.2894082e-13
2.456911e-10
5.9544038e-13
2.4589133e-10
-5.6446115e-13
2.4570125e-10
5.3584809e-13
2.4588199e-10
-5.0950008e-13
2.4570985e-10
4.8529036e-13
2.4587413e-10
-4.6312921e-13
2.4571702e-10
4.4291317e-13
2.4586762e-10
-4.2456487e-13
2.457229e-10
4.0800022e-13
2.4586236e-10
-3.9315476e-13
2.4572758e-10
3.7996055e-13
2.4585824e-10
-3.6836639e-13
2.4573115e-10
3.5831802e-13
2.4585521e-10
-3.4977325e-13
2.4573366e-10
3.4271233e-13
2.4585319e-10
-3.3706315e-13
2.4573544e-10
3.3222114e-13
2.458557e-10
-3.363749e-13
3.1790797e-13
3.3412663e-10
4.6053343e-09
3.4108364e-10
-1.1449527e-11
3.3892908e-10
4.1323459e-12
3.3837369e-10
2.9973746e-12
3.3943656e-10
-4.2429918e-12
3.3856939e-10
3.6798853e-12
3.394985e-10
-3.7234222e-12
3.3865225e-10
3.432122e-12
3.3945993e-10
-3.252437e-12
3.387075e-10
3.0381316e-12
3.3941537e-10
-2.8545656e-12
3.3875243e-10
2.675038e-12
3.3937478e-10
-2.5104124e-12
3.3879119e-10
2.3545314e-12
3.3933895e-10
-2.2096292e-12
3.3882504e-10
2.0733402e-12
3.3930751e-10
-1.9463028e-12
3.3885464e-10
1.8270564e-12
3.3927998e-10
-1.7158483e-12
3.3888052e-10
1.611582e-12
3.3925591e-10
-1.5143523e-12
3.3890312e-10
1.4232917e-12
3.3923489e-10
-1.3384096e-12
3.3892282e-10
1.2590102e-12
3.3921658e-10
-1.1850493e-12
3.3893996e-10
1.1159659e-12
3.3920065e-10
-1.0516823e-12
3.3895483e-10
9.9174478e-13
3.3918686e-10
-9.3605678e-13
3.3896768e-10
8.8425048e-13
3.3917496e-10
-8.3622063e-13
3.3897874e-10
7.9166856e-13
3.3916476e-10
-7.50488e-13
3.3898817e-10
7.1243606e-13
3.3915609e-10
-6.7741094e-13
3.3899616e-10
6.4521501e-13
3.3914879e-10
-6.1575485e-13
3.3900283e-10
5.8886979e-13
3.3914274e-10
-5.6447748e-13
3.3900829e-10
5.4244766e-13
3.3913785e-10
-5.2271089e-13
3.3901265e-10
5.0516201e-13
3.3913403e-10
-4.8974576e-13
3.3901597e-10
4.7637768e-13
3.3913121e-10
-4.6501022e-13
3.390183e-10
4.556151e-13
3.3912931e-10
-4.4806539e-13
3.3902002e-10
4.41507e-13
3.391327e-10
-4.4905473e-13
4.2154128e-13
4.2281403e-10
5.5287702e-09
4.3222199e-10
-2.0857462e-11
4.2953272e-10
6.8216218e-12
4.2913909e-10
3.3910019e-12
4.3012317e-10
-5.2270721e-12
4.2935764e-10
4.4454105e-12
4.3022006e-10
-4.5858361e-12
4.2944178e-10
4.2103981e-12
4.3018862e-10
-3.9992785e-12
4.2949432e-10
3.7324332e-12
4.3014813e-10
-3.5083768e-12
4.2953611e-10
3.2870596e-12
4.3011081e-10
-3.0851067e-12
4.2957199e-10
2.8933438e-12
4.3007778e-10
-2.715413e-12
4.2960329e-10
2.5478286e-12
4.3004878e-10
-2.3917977e-12
4.2963065e-10
2.2451889e-12
4.3002339e-10
-2.1085881e-12
4.2965457e-10
1.9804052e-12
4.3000118e-10
-1.860968e-12
4.2967545e-10
1.7490251e-12
4.2998179e-10
-1.6447514e-12
4.2969365e-10
1.5471476e-12
4.2996489e-10
-1.4562866e-12
4.2970949e-10
1.3713668e-12
4.299502e-10
-1.2923918e-12
4.2972323e-10
1.2187166e-12
4.2993747e-10
-1.1502996e-12
4.297351e-10
1.0866206e-12
4.2992649e-10
-1.0276108e-12
4.2974531e-10
9.7284951e-13
4.2991708e-10
-9.2225353e-13
4.2975403e-10
8.7548245e-13
4.2990907e-10
-8.3244828e-13
4.2976141e-10
7.928752e-13
4.2990233e-10
-7.5667758e-13
4.2976757e-10
7.2363198e-13
4.2989675e-10
-6.9366016e-13
4.2977262e-10
6.6658144e-13
4.2989223e-10
-6.423286e-13
4.2977664e-10
6.2075575e-13
4.298887e-10
-6.0180926e-13
4.2977971e-10
5.8537134e-13
4.2988609e-10
-5.7139282e-13
4.2978187e-10
5.5983691e-13
4.2988431e-10
-5.5050478e-13
4.297835e-10
5.4231573e-13
4.2988837e-10
-5.5391873e-13
5.1670884e-13
5.0899211e-10
6.3660281e-09
5.2068779e-10
-3.2553138e-11
5.1764606e-10
9.86336e-12
5.1739399e-10
3.6430686e-12
5.1829121e-10
-6.1242925e-12
5.1762598e-10
5.1106414e-12
5.1842117e-10
-5.3810307e-12
5.177105e-10
4.9210653e-12
5.1839632e-10
-4.6850994e-12
5.1776016e-10
4.3685968e-12
5.1835982e-10
-4.1080408e-12
5.1779877e-10
3.8481164e-12
5.1832574e-10
-3.6120828e-12
5.1783175e-10
3.3873376e-12
5.1829552e-10
-3.1791781e-12
5.1786049e-10
2.9828594e-12
5.1826897e-10
-2.8002777e-12
5.178856e-10
2.6285538e-12
5.1824571e-10
-2.4686945e-12
5.1790755e-10
2.3185627e-12
5.1822536e-10
-2.1787821e-12
5.1792671e-10
2.0476772e-12
5.182076e-10
-1.9256374e-12
5.1794341e-10
1.8113306e-12
5.1819211e-10
-1.7049849e-12
5.1795794e-10
1.6055359e-12
5.1817865e-10
-1.5130989e-12
5.1797055e-10
1.4268208e-12
5.1816699e-10
-1.3467393e-12
5.1798144e-10
1.2721691e-12
5.1815692e-10
-1.2030969e-12
5.179908e-10
1.1389708e-12
5.1814829e-10
-1.0797459e-12
5.179988e-10
1.0249771e-12
5.1814095e-10
-9.7460253e-13
5.1800557e-10
9.2826284e-13
5.1813478e-10
-8.8588994e-13
5.1801122e-10
8.471936e-13
5.1812966e-10
-8.1210748e-13
5.1801585e-10
7.8039733e-13
5.1812552e-10
-7.5200433e-13
5.1801954e-10
7.2673938e-13
5.1812229e-10
-7.045552e-13
5.1802236e-10
6.8529839e-13
5.1811989e-10
-6.6892137e-13
5.1802435e-10
6.5537872e-13
5.1811823e-10
-6.443835e-13
5.1802588e-10
6.3466541e-13
5.1812275e-10
-6.5078898e-13
6.0335714e-13
5.9271944e-10
7.1195587e-09
6.0649191e-10
-4.6325571e-11
6.0326675e-10
1.3088532e-11
6.0313875e-10
3.7710632e-12
6.0394076e-10
-6.9263022e-12
6.0337424e-10
5.67716e-12
6.0410198e-10
-6.1087667e-12
6.0345828e-10
5.564758e-12
6.0408315e-10
-5.3099631e-12
6.035049e-10
4.9468443e-12
6.0405055e-10
-4.6536883e-12
6.035403e-10
4.3583655e-12
6.0401969e-10
-4.0914707e-12
6.0357038e-10
3.8366455e-12
6.0399224e-10
-3.6010421e-12
6.0359655e-10
3.3785486e-12
6.0396812e-10
-3.171847e-12
6.0361942e-10
2.9772532e-12
6.0394699e-10
-2.7962601e-12
6.0363941e-10
2.6261448e-12
6.039285e-10
-2.4678765e-12
6.0365685e-10
2.3193274e-12
6.0391236e-10
-2.1811407e-12
6.0367206e-10
2.0516297e-12
6.0389828e-10
-1.9312093e-12
6.0368528e-10
1.8185361e-12
6.0388604e-10
-1.7138619e-12
6.0369675e-10
1.6161137e-12
6.0387544e-10
-1.5254283e-12
6.0370666e-10
1.4409466e-12
6.0386629e-10
-1.3627264e-12
6.0371518e-10
1.2900783e-12
6.0385845e-10
-1.2230082e-12
6.0372246e-10
1.1609618e-12
6.0385177e-10
-1.1039134e-12
6.0372862e-10
1.0514165e-12
6.0384616e-10
-1.0034288e-12
6.0373376e-10
9.5959063e-13
6.0384151e-10
-9.1985412e-13
6.0373797e-10
8.8392938e-13
6.0383774e-10
-8.5177121e-13
6.0374134e-10
8.2314564e-13
6.038348e-10
-7.9801581e-13
6.037439e-10
7.7619103e-13
6.0383261e-10
-7.5762804e-13
6.0374572e-10
7.4227271e-13
6.0383107e-10
-7.2973541e-13
6.0374713e-10
7.1860169e-13
6.0383588e-10
-7.3954208e-13
6.8151784e-13
6.7406282e-10
7.7917459e-09
6.8965117e-10
-6.1913942e-11
6.8639136e-10
1.6348348e-11
6.8637007e-10
3.7923501e-12
6.8707214e-10
-7.6283752e-12
6.8660223e-10
6.1470672e-12
6.8726259e-10
-6.7691255e-12
6.8668501e-10
6.1423416e-12
6.8724919e-10
-5.8741478e-12
6.8672844e-10
5.4676012e-12
6.8722039e-10
-5.1456435e-12
6.8676061e-10
4.8181444e-12
6.8719271e-10
-4.5235704e-12
6.867878e-10
4.2415591e-12
6.8716803e-10
-3.9812716e-12
6.8681142e-10
3.7351518e-12
6.8714632e-10
-3.5067415e-12
6.8683206e-10
3.2915119e-12
6.8712729e-10
-3.0914931e-12
6.8685009e-10
2.9033496e-12
6.8711065e-10
-2.7284354e-12
6.8686582e-10
2.564151e-12
6.8709611e-10
-2.4114243e-12
6.8687954e-10
2.2682e-12
6.8708343e-10
-2.1351044e-12
6.8689146e-10
2.0105048e-12
6.8707241e-10
-1.8948094e-12
6.8690181e-10
1.7867176e-12
6.8706286e-10
-1.6864814e-12
6.8691074e-10
1.5930622e-12
6.8705462e-10
-1.5066021e-12
6.8691843e-10
1.42627e-12
6.8704755e-10
-1.3521332e-12
6.8692499e-10
1.2835252e-12
6.8704154e-10
-1.2204649e-12
6.8693054e-10
1.1624167e-12
6.8703648e-10
-1.109371e-12
6.8693518e-10
1.0608971e-12
6.8703229e-10
-1.016971e-12
6.8693898e-10
9.7724627e-13
6.870289e-10
-9.4169556e-13
6.8694201e-10
9.100392e-13
6.8702625e-10
-8.8225405e-13
6.8694433e-10
8.5811121e-13
6.8702427e-10
-8.37574e-13
6.8694597e-10
8.2057944e-13
6.8702285e-10
-8.066229e-13
6.8694726e-10
7.941953e-13
6.8702782e-10
-8.2010285e-13
7.5128739e-13
7.5307363e-10
8.3849222e-09
7.7018537e-10
-7.9025677e-11
7.6701526e-10
1.951846e-11
7.6708121e-10
3.7263908e-12
7.67686e-10
-8.2331555e-12
7.6730968e-10
6.5233816e-12
7.679031e-10
-7.3625487e-12
7.6739057e-10
6.6548724e-12
7.6789455e-10
-6.3781243e-12
7.6743068e-10
5.9314724e-12
7.6786943e-10
-5.5844005e-12
7.6745963e-10
5.2279494e-12
7.6784489e-10
-4.9088312e-12
7.6748394e-10
4.6025095e-12
7.6782293e-10
-4.3202649e-12
7.6750504e-10
4.0530477e-12
7.6780361e-10
-3.8053123e-12
7.6752346e-10
3.5716631e-12
7.6778667e-10
-3.3547033e-12
7.6753955e-10
3.1504709e-12
7.6777184e-10
-2.9607324e-12
7.6755359e-10
2.7824072e-12
7.6775889e-10
-2.6167301e-12
7.6756582e-10
2.4612707e-12
7.677476e-10
-2.3168847e-12
7.6757646e-10
2.1816452e-12
7.6773778e-10
-2.0561319e-12
7.6758569e-10
1.9388132e-12
7.6772928e-10
-1.8300683e-12
7.6759366e-10
1.7286771e-12
7.6772193e-10
-1.6348759e-12
7.6760051e-10
1.5476903e-12
7.6771564e-10
-1.4672574e-12
7.6760637e-10
1.3927973e-12
7.6771028e-10
-1.3243804e-12
7.6761132e-10
1.2613815e-12
7.6770578e-10
-1.2038289e-12
7.6761545e-10
1.1512208e-12
7.6770204e-10
-1.1035615e-12
7.6761884e-10
1.0604477e-12
7.6769902e-10
-1.0218735e-12
7.6762154e-10
9.8751339e-13
7.6769665e-10
-9.573606e-13
7.6762361e-10
9.3114774e-13
7.6769489e-10
-9.0884658e-13
7.6762508e-10
8.9038511e-13
7.6769359e-10
-8.7513403e-13
7.6762625e-10
8.6153983e-13
7.6769858e-10
-8.9243933e-13
8.1280426e-13
8.2979082e-10
8.9013814e-09
8.4811465e-10
-9.734954e-11
8.4513298e-10
2.2500134e-11
8.452654e-10
3.5939701e-12
8.4578331e-10
-8.7510587e-12
8.4549633e-10
6.8103557e-12
8.4602358e-10
-7.889797e-12
8.4557488e-10
7.1035703e-12
8.460193e-10
-6.8225396e-12
8.4561154e-10
6.3392238e-12
8.4599775e-10
-5.9706077e-12
8.4563728e-10
5.5884203e-12
8.4597629e-10
-5.247838e-12
8.4565874e-10
4.9200544e-12
8.4595702e-10
-4.6185389e-12
8.4567734e-10
4.3327259e-12
8.4594004e-10
-4.0680153e-12
8.4569357e-10
3.8181382e-12
8.4592516e-10
-3.5862929e-12
8.4570774e-10
3.3678888e-12
8.4591213e-10
-3.1651226e-12
8.457201e-10
2.9744316e-12
8.4590075e-10
-2.7973722e-12
8.4573088e-10
2.6311386e-12
8.4589082e-10
-2.4768281e-12
8.4574025e-10
2.3322204e-12
8.4588219e-10
-2.1980762e-12
8.4574837e-10
2.0726341e-12
8.4587471e-10
-1.9564088e-12
8.4575539e-10
1.8479996e-12
8.4586826e-10
-1.747744e-12
8.4576142e-10
1.6545256e-12
8.4586272e-10
-1.5685568e-12
8.4576657e-10
1.4889458e-12
8.4585801e-10
-1.415819e-12
8.4577093e-10
1.3484628e-12
8.4585405e-10
-1.2869473e-12
8.4577457e-10
1.2307006e-12
8.4585076e-10
-1.1797584e-12
8.4577755e-10
1.1336617e-12
8.4584811e-10
-1.0924283e-12
8.4577993e-10
1.0556877e-12
8.4584602e-10
-1.0234515e-12
8.4578176e-10
9.9541403e-13
8.4584447e-10
-9.7155706e-13
8.4578305e-10
9.5179942e-13
8.458433e-10
-9.3538027e-13
8.4578409e-10
9.2075008e-13
8.4584821e-10
-9.5655866e-13
8.662388e-13
9.0424594e-10
9.3433854e-09
9.2345681e-10
-1.1656041e-10
9.207387e-10
2.5218246e-11
9.2091898e-10
3.4136868e-12
9.2136519e-10
-9.1972696e-12
9.2116205e-10
7.0135007e-12
9.2162408e-10
-8.3518262e-12
9.2123785e-10
7.4898007e-12
9.2162351e-10
-7.2081999e-12
9.2127096e-10
6.6917691e-12
9.2160541e-10
-6.3050545e-12
9.212935e-10
5.9003283e-12
9.2158696e-10
-5.5412989e-12
9.2131215e-10
5.1948669e-12
9.2157033e-10
-4.8767195e-12
9.2132828e-10
4.5747782e-12
9.2155566e-10
-4.2954024e-12
9.2134234e-10
4.031458e-12
9.215428e-10
-3.7867485e-12
9.2135463e-10
3.5560625e-12
9.2153154e-10
-3.3420354e-12
9.2136534e-10
3.1406296e-12
9.215217e-10
-2.9537302e-12
9.2137468e-10
2.7781622e-12
9.2151312e-10
-2.6152709e-12
9.2138279e-10
2.4625478e-12
9.2150566e-10
-2.3209407e-12
9.2138983e-10
2.1884623e-12
9.2149919e-10
-2.0657684e-12
9.213959e-10
1.9512811e-12
9.214936e-10
-1.8454437e-12
9.2140113e-10
1.747001e-12
9.2148882e-10
-1.6562445e-12
9.2140559e-10
1.5721732e-12
9.2148474e-10
-1.4949729e-12
9.2140936e-10
1.4238438e-12
9.2148132e-10
-1.3589008e-12
9.2141251e-10
1.2995036e-12
9.2147848e-10
-1.2457219e-12
9.214151e-10
1.1970422e-12
9.2147618e-10
-1.1535084e-12
9.2141716e-10
1.1147059e-12
9.2147437e-10
-1.0806661e-12
9.2141874e-10
1.0510461e-12
9.2147302e-10
-1.0258388e-12
9.2141987e-10
1.0049537e-12
9.2147198e-10
-9.8749449e-13
9.2142077e-10
9.7196049e-13
9.2147672e-10
-1.0125036e-12
9.1178816e-13
9.7646633e-10
9.7131691e-09
9.9622708e-10
-1.3632116e-10
9.9382659e-10
2.7618732e-11
9.9404178e-10
3.1984936e-12
9.9443264e-10
-9.5881209e-12
9.9430681e-10
7.1393221e-12
9.9470465e-10
-8.7496622e-12
9.9437939e-10
7.8150585e-12
9.9470725e-10
-7.5360542e-12
9.9440886e-10
6.9901571e-12
9.9469246e-10
-6.5886593e-12
9.9442823e-10
6.1645648e-12
9.9467696e-10
-5.7900357e-12
9.944441e-10
5.4277261e-12
9.9466292e-10
-5.095532e-12
9.9445781e-10
4.7798893e-12
9.9465052e-10
-4.4881127e-12
9.9446975e-10
4.2122256e-12
9.9463963e-10
-3.9566337e-12
9.9448017e-10
3.7155239e-12
9.9463011e-10
-3.4919686e-12
9.9448927e-10
3.2814706e-12
9.9462178e-10
-3.0862438e-12
9.9449718e-10
2.9027564e-12
9.9461452e-10
-2.7326025e-12
9.9450407e-10
2.5729952e-12
9.946082e-10
-2.4250708e-12
9.9451004e-10
2.2866246e-12
9.9460272e-10
-2.1584544e-12
9.9451519e-10
2.0388125e-12
9.94598e-10
-1.9282495e-12
9.9451962e-10
1.8253767e-12
9.9459394e-10
-1.7305666e-12
9.945234e-10
1.6427134e-12
9.9459049e-10
-1.5620641e-12
9.945266e-10
1.4877363e-12
9.9458759e-10
-1.4198911e-12
9.9452927e-10
1.357823e-12
9.9458519e-10
-1.3016368e-12
9.9453146e-10
1.2507672e-12
9.9458324e-10
-1.2052849e-12
9.9453321e-10
1.1647336e-12
9.9458171e-10
-1.129165e-12
9.9453456e-10
1.0982007e-12
9.9458056e-10
-1.0718452e-12
9.9453552e-10
1.049999e-12
9.9457965e-10
-1.031629e-12
9.9453629e-10
1.0153236e-12
9.9458413e-10
-1.0603495e-12
9.4967214e-13
1.046476e-09
1.0012943e-08
1.0664393e-09
-1.5628449e-10
1.0643909e-09
2.9667136e-11
1.0646357e-09
2.9537568e-12
1.0649863e-09
-9.9387602e-12
1.0649307e-09
7.1949331e-12
1.0652653e-09
-9.0843194e-12
1.0649995e-09
8.0809537e-12
1.0652706e-09
-7.8071797e-12
1.0650252e-09
7.2355604e-12
1.065259e-09
-6.8224576e-12
1.0650414e-09
6.3821304e-12
1.0652463e-09
-5.994973e-12
1.0650546e-09
5.6195071e-12
1.0652348e-09
-5.2757925e-12
1.0650659e-09
4.9488289e-12
1.0652246e-09
-4.6468658e-12
1.0650757e-09
4.3611188e-12
1.0652157e-09
-4.0965829e-12
1.0650843e-09
3.8468704e-12
1.0652079e-09
-3.6154819e-12
1.0650918e-09
3.3974822e-12
1.065201e-09
-3.1954079e-12
1.0650984e-09
3.0053877e-12
1.065195e-09
-2.8292608e-12
1.0651041e-09
2.6639759e-12
1.0651898e-09
-2.5108552e-12
1.065109e-09
2.3674877e-12
1.0651853e-09
-2.2348127e-12
1.0651132e-09
2.1109209e-12
1.0651815e-09
-1.9964701e-12
1.0651169e-09
1.8899452e-12
1.0651781e-09
-1.7918e-12
1.06512e-09
1.7008296e-12
1.0651753e-09
-1.6173424e-12
1.0651226e-09
1.5403784e-12
1.0651729e-09
-1.4701451e-12
1.0651248e-09
1.4058758e-12
1.0651709e-09
-1.3477109e-12
1.0651266e-09
1.2950364e-12
1.0651693e-09
-1.2479503e-12
1.0651281e-09
1.2059568e-12
1.065168e-09
-1.1691288e-12
1.0651292e-09
1.1370537e-12
1.0651671e-09
-1.1097485e-12
1.06513e-09
1.0871045e-12
1.0651663e-09
-1.067954e-12
1.0651306e-09
1.0510085e-12
1.0651705e-09
-1.1002008e-12
9.8012921e-13
1.1142941e-09
1.0244899e-08
1.1341067e-09
-1.7609708e-10
1.1324268e-09
3.1347029e-11
1.1327029e-09
2.6776181e-12
1.1330265e-09
-1.0262359e-11
1.1330338e-09
7.1876953e-12
1.1333062e-09
-9.356762e-12
1.133098e-09
8.2891977e-12
1.1333136e-09
-8.0227695e-12
1.1331199e-09
7.4292642e-12
1.133305e-09
-7.0075918e-12
1.133133e-09
6.5541255e-12
1.1332951e-09
-6.1571294e-12
1.1331435e-09
5.7711732e-12
1.1332861e-09
-5.4183999e-12
1.1331525e-09
5.0824439e-12
1.1332781e-09
-4.7724536e-12
1.1331603e-09
4.4788835e-12
1.133271e-09
-4.2072945e-12
1.1331671e-09
3.9507598e-12
1.1332648e-09
-3.7131916e-12
1.1331731e-09
3.4892449e-12
1.1332594e-09
-3.281767e-12
1.1331782e-09
3.0865695e-12
1.1332547e-09
-2.9057279e-12
1.1331827e-09
2.7359445e-12
1.1332506e-09
-2.5787215e-12
1.1331866e-09
2.4314558e-12
1.1332471e-09
-2.2952237e-12
1.13319e-09
2.1679661e-12
1.133244e-09
-2.0504451e-12
1.1331929e-09
1.9410285e-12
1.1332413e-09
-1.8402494e-12
1.1331954e-09
1.7468111e-12
1.1332391e-09
-1.6610826e-12
1.1331975e-09
1.5820317e-12
1.1332372e-09
-1.5099122e-12
1.1331992e-09
1.4439007e-12
1.1332357e-09
-1.3841728e-12
1.1332006e-09
1.3300695e-12
1.1332344e-09
-1.2817159e-12
1.1332018e-09
1.2385801e-12
1.1332334e-09
-1.2007555e-12
1.1332026e-09
1.1677981e-12
1.1332326e-09
-1.1397375e-12
1.1332033e-09
1.1164561e-12
1.133232e-09
-1.0966555e-12
1.1332038e-09
1.0791995e-12
1.1332358e-09
-1.132189e-12
1.0034129e-12
1.1799298e-09
1.0411219e-08
1.1992418e-09
-1.9540915e-10
1.197935e-09
3.2653912e-11
1.1982454e-09
2.3671365e-12
1.1985534e-09
-1.0570366e-11
1.1986161e-09
7.125009e-12
1.1988273e-09
-9.5679102e-12
1.1986749e-09
8.4415949e-12
1.1988362e-09
-8.1841217e-12
1.1986928e-09
7.5726568e-12
1.1988305e-09
-7.1453006e-12
1.1987029e-09
6.681741e-12
1.1988234e-09
-6.2776086e-12
1.1987108e-09
5.8837668e-12
1.1988167e-09
-5.5243278e-12
1.1987175e-09
5.1816513e-12
1.1988108e-09
-4.8657342e-12
1.1987234e-09
4.5663275e-12
1.1988056e-09
-4.289525e-12
1.1987285e-09
4.0279043e-12
1.198801e-09
-3.7857655e-12
1.1987329e-09
3.5573875e-12
1.198797e-09
-3.3459112e-12
1.1987367e-09
3.1468576e-12
1.1987935e-09
-2.9625262e-12
1.1987401e-09
2.7893935e-12
1.1987905e-09
-2.6291331e-12
1.198743e-09
2.478966e-12
1.1987879e-09
-2.3400997e-12
1.1987455e-09
2.2103378e-12
1.1987856e-09
-2.0905427e-12
1.1987477e-09
1.9789751e-12
1.1987836e-09
-1.8762447e-12
1.1987495e-09
1.7809713e-12
1.198782e-09
-1.6935822e-12
1.198751e-09
1.6129799e-12
1.1987806e-09
-1.5394628e-12
1.1987523e-09
1.4721561e-12
1.1987794e-09
-1.4112698e-12
1.1987534e-09
1.3561042e-12
1.1987785e-09
-1.3068109e-12
1.1987542e-09
1.2628248e-12
1.1987778e-09
-1.2242598e-12
1.1987549e-09
1.190643e-12
1.1987772e-09
-1.1620167e-12
1.1987554e-09
1.1382544e-12
1.1987767e-09
-1.1179344e-12
1.1987558e-09
1.1000948e-12
1.1987801e-09
-1.1564694e-12
1.0197885e-12
1.2433684e-09
1.0514101e-08
1.261856e-09
-2.1389669e-10
1.2609335e-09
3.3576401e-11
1.2612636e-09
2.0369961e-12
1.2615665e-09
-1.0873215e-11
1.2616775e-09
7.0139665e-12
1.2618285e-09
-9.7188583e-12
1.2617301e-09
8.5399768e-12
1.2618386e-09
-8.2926559e-12
1.2617441e-09
7.6672125e-12
1.2618357e-09
-7.2369124e-12
1.2617512e-09
6.7662493e-12
1.2618312e-09
-6.3575913e-12
1.2617565e-09
5.9584026e-12
1.2618268e-09
-5.5946178e-12
1.261761e-09
5.2474314e-12
1.2618229e-09
-4.9276254e-12
1.2617649e-09
4.6243142e-12
1.2618195e-09
-4.3440836e-12
1.2617683e-09
4.0790651e-12
1.2618165e-09
-3.8339175e-12
1.2617713e-09
3.6025821e-12
1.2618139e-09
-3.3884715e-12
1.2617739e-09
3.1868463e-12
1.2618116e-09
-3.0002142e-12
1.2617761e-09
2.8248495e-12
1.2618096e-09
-2.6625855e-12
1.261778e-09
2.5104862e-12
1.2618078e-09
-2.3698813e-12
1.2617797e-09
2.2384527e-12
1.2618063e-09
-2.1171563e-12
1.2617811e-09
2.0041579e-12
1.261805e-09
-1.900139e-12
1.2617824e-09
1.8036454e-12
1.2618039e-09
-1.7151596e-12
1.2617834e-09
1.6335261e-12
1.261803e-09
-1.5590859e-12
1.2617842e-09
1.4909184e-12
1.2618022e-09
-1.4292668e-12
1.261785e-09
1.373395e-12
1.2618016e-09
-1.32348e-12
1.2617855e-09
1.2789276e-12
1.2618011e-09
-1.239871e-12
1.261786e-09
1.2058118e-12
1.2618008e-09
-1.1768043e-12
1.2617863e-09
1.1527141e-12
1.2618004e-09
-1.1320047e-12
1.2617866e-09
1.1139053e-12
1.2618033e-09
-1.1732192e-12
1.0295304e-12
1.3045418e-09
1.0555809e-08
1.321947e-09
-2.3130192e-10
1.3214881e-09
3.4035319e-11
1.3217657e-09
1.7593714e-12
1.3220655e-09
-1.1172966e-11
1.3222177e-09
6.8617434e-12
1.3223097e-09
-9.8108389e-12
1.3222635e-09
8.5861583e-12
1.3223208e-09
-8.3499316e-12
1.3222735e-09
7.7144676e-12
1.3223205e-09
-7.2838445e-12
1.3222777e-09
6.8089925e-12
1.3223185e-09
-6.3983298e-12
1.3222806e-09
5.9962594e-12
1.3223164e-09
-5.6303731e-12
1.322283e-09
5.2808216e-12
1.3223144e-09
-4.9590991e-12
1.322285e-09
4.6537574e-12
1.3223127e-09
-4.3718269e-12
1.3222868e-09
4.1050483e-12
1.3223112e-09
-3.8584038e-12
1.3222883e-09
3.6255401e-12
1.3223099e-09
-3.410116e-12
1.3222896e-09
3.2071648e-12
1.3223088e-09
-3.0193832e-12
1.3222908e-09
2.8428699e-12
1.3223078e-09
-2.6796033e-12
1.3222918e-09
2.5265113e-12
1.3223069e-09
-2.3850355e-12
1.3222926e-09
2.2527519e-12
1.3223062e-09
-2.1307027e-12
1.3222933e-09
2.0169714e-12
1.3223055e-09
-1.912306e-12
1.322294e-09
1.8151882e-12
1.322305e-09
-1.7261518e-12
1.3222945e-09
1.6439913e-12
1.3223045e-09
-1.5690874e-12
1.3222949e-09
1.5004804e-12
1.3223041e-09
-1.4384439e-12
1.3222953e-09
1.3822111e-12
1.3223038e-09
-1.3319826e-12
1.3222956e-09
1.2871392e-12
1.3223035e-09
-1.2478322e-12
1.3222958e-09
1.213541e-12
1.3223033e-09
-1.1843315e-12
1.322296e-09
1.160062e-12
1.3223031e-09
-1.1390923e-12
1.3222961e-09
1.1208531e-12
1.3223055e-09
-1.1826351e-12
1.0329198e-12
1.3633603e-09
1.0538699e-08
1.3795006e-09
-2.4744221e-10
1.3796831e-09
3.3852807e-11
1.3797761e-09
1.6663289e-12
1.3800539e-09
-1.1450734e-11
1.3802381e-09
6.6774919e-12
1.3802714e-09
-9.8440723e-12
1.3802752e-09
8.5822976e-12
1.3802828e-09
-8.3574811e-12
1.3802812e-09
7.7160732e-12
1.3802849e-09
-7.2875701e-12
1.3802825e-09
6.8113852e-12
1.3802853e-09
-6.4011362e-12
1.380283e-09
5.9985756e-12
1.3802854e-09
-5.6327514e-12
1.3802833e-09
5.2829111e-12
1.3802854e-09
-4.9611756e-12
1.3802835e-09
4.6556166e-12
1.3802853e-09
-4.3736546e-12
1.3802837e-09
4.1066996e-12
1.3802853e-09
-3.8600181e-12
1.3802838e-09
3.6270085e-12
1.3802852e-09
-3.4115461e-12
1.3802839e-09
3.2084734e-12
1.3802852e-09
-3.0206542e-12
1.380284e-09
2.8440397e-12
1.3802852e-09
-2.6807374e-12
1.3802841e-09
2.5275611e-12
1.3802851e-09
-2.3860523e-12
1.3802842e-09
2.2536985e-12
1.3802851e-09
-2.1316194e-12
1.3802843e-09
2.01783e-12
1.3802851e-09
-1.913138e-12
1.3802843e-09
1.8159722e-12
1.3802851e-09
-1.7269127e-12
1.3802843e-09
1.6447127e-12
1.380285e-09
-1.5697888e-12
1.3802844e-09
1.5011492e-12
1.380285e-09
-1.4390956e-12
1.3802844e-09
1.3828353e-12
1.380285e-09
-1.332591e-12
1.3802844e-09
1.2877227e-12
1.380285e-09
-1.2483983e-12
1.3802845e-09
1.2140787e-12
1.380285e-09
-1.1848409e-12
1.3802845e-09
1.1605362e-12
1.3802848e-09
-1.1394338e-12
1.3802845e-09
1.1211709e-12
1.3802868e-09
-1.1849314e-12
1.0302421e-12
1.4199059e-09
1.0465043e-08
1.4345536e-09
-2.6208992e-10
1.4354429e-09
3.2963567e-11
1.4352851e-09
1.8241136e-12
1.4355279e-09
-1.1693582e-11
1.4357378e-09
6.4676138e-12
1.4357132e-09
-9.8194858e-12
1.4357651e-09
8.5304201e-12
1.4357246e-09
-8.3169813e-12
1.4357669e-09
7.6737233e-12
1.435729e-09
-7.2496357e-12
1.4357655e-09
6.774898e-12
1.4357317e-09
-6.3673807e-12
1.4357637e-09
5.9666414e-12
1.4357339e-09
-5.6029604e-12
1.435762e-09
5.254835e-12
1.4357357e-09
-4.9349188e-12
1.4357604e-09
4.6308916e-12
1.4357373e-09
-4.3505045e-12
1.4357591e-09
4.0849008e-12
1.4357386e-09
-3.8395882e-12
1.4357579e-09
3.6077657e-12
1.4357398e-09
-3.3934932e-12
1.4357568e-09
3.1914607e-12
1.4357409e-09
-3.0046747e-12
1.4357559e-09
2.8289691e-12
1.4357418e-09
-2.6665622e-12
1.4357551e-09
2.5141775e-12
1.4357425e-09
-2.3734426e-12
1.4357545e-09
2.2417755e-12
1.4357432e-09
-2.1203627e-12
1.4357539e-09
2.0071657e-12
1.4357438e-09
-1.9030444e-12
1.4357534e-09
1.806386e-12
1.4357443e-09
-1.7178114e-12
1.4357529e-09
1.6360417e-12
1.4357447e-09
-1.5615254e-12
1.4357526e-09
1.4932456e-12
1.435745e-09
-1.4315288e-12
1.4357523e-09
1.3755627e-12
1.4357453e-09
-1.3255894e-12
1.435752e-09
1.2809526e-12
1.4357455e-09
-1.2418355e-12
1.4357519e-09
1.207684e-12
1.4357456e-09
-1.1785854e-12
1.4357518e-09
1.154385e-12
1.4357456e-09
-1.1332756e-12
1.4357517e-09
1.1151005e-12
1.4357471e-09
-1.1803382e-12
1.021786e-12
1.4743165e-09
1.0336976e-08
1.4871453e-09
-2.7491874e-10
1.4886241e-09
3.1484769e-11
1.4882747e-09
2.173489e-12
1.4884828e-09
-1.1901669e-11
1.4887154e-09
6.2350577e-12
1.4886349e-09
-9.7390328e-12
1.4887329e-09
8.4323847e-12
1.4886462e-09
-8.2302596e-12
1.4887308e-09
7.5891472e-12
1.4886528e-09
-7.1716554e-12
1.4887267e-09
6.7010516e-12
1.4886578e-09
-6.2984849e-12
1.4887226e-09
5.9017935e-12
1.4886619e-09
-5.5422521e-12
1.488719e-09
5.1977697e-12
1.4886655e-09
-4.8814317e-12
1.4887158e-09
4.5806189e-12
1.4886686e-09
-4.3033491e-12
1.4887129e-09
4.0405661e-12
1.4886713e-09
-3.7979722e-12
1.4887105e-09
3.5686189e-12
1.4886737e-09
-3.3567156e-12
1.4887083e-09
3.1568403e-12
1.4886758e-09
-2.9721158e-12
1.4887064e-09
2.7982903e-12
1.4886775e-09
-2.6376732e-12
1.4887048e-09
2.4869223e-12
1.4886791e-09
-2.3477365e-12
1.4887034e-09
2.2174835e-12
1.4886804e-09
-2.0974059e-12
1.4887022e-09
1.9854265e-12
1.4886816e-09
-1.8824495e-12
1.4887011e-09
1.7868324e-12
1.4886825e-09
-1.6992308e-12
1.4887002e-09
1.618343e-12
1.4886834e-09
-1.5446449e-12
1.4886995e-09
1.4771018e-12
1.488684e-09
-1.416062e-12
1.4886989e-09
1.3606992e-12
1.4886846e-09
-1.3112723e-12
1.4886984e-09
1.2671138e-12
1.488685e-09
-1.2284197e-12
1.4886981e-09
1.1946254e-12
1.4886853e-09
-1.1658273e-12
1.4886978e-09
1.1418658e-12
1.4886854e-09
-1.1208726e-12
1.4886976e-09
1.1028922e-12
1.4886864e-09
-1.1690997e-12
1.0078407e-12
1.5265851e-09
1.0156641e-08
1.5372674e-09
-2.8560099e-10
1.5392038e-09
2.9548354e-11
1.5387608e-09
2.6164691e-12
1.53892e-09
-1.2060823e-11
1.5391718e-09
5.9832213e-12
1.5390368e-09
-9.6040495e-12
1.5391789e-09
8.2903039e-12
1.5390478e-09
-8.099118e-12
1.5391727e-09
7.4641599e-12
1.5390564e-09
-7.055281e-12
1.539166e-09
6.591419e-12
1.5390634e-09
-6.1959134e-12
1.5391598e-09
5.8054111e-12
1.5390695e-09
-5.451918e-12
1.5391543e-09
5.1129287e-12
1.5390747e-09
-4.8018522e-12
1.5391495e-09
4.5058674e-12
1.5390793e-09
-4.2331915e-12
1.5391453e-09
3.974638e-12
1.5390833e-09
-3.7360552e-12
1.5391416e-09
3.5104004e-12
1.5390868e-09
-3.3019957e-12
1.5391383e-09
3.1053484e-12
1.5390899e-09
-2.9236702e-12
1.5391355e-09
2.7526558e-12
1.5390925e-09
-2.5946849e-12
1.5391331e-09
2.4463749e-12
1.5390948e-09
-2.3094805e-12
1.539131e-09
2.1813388e-12
1.5390968e-09
-2.063237e-12
1.5391292e-09
1.9530746e-12
1.5390985e-09
-1.8517913e-12
1.5391276e-09
1.757727e-12
1.5390999e-09
-1.6715658e-12
1.5391263e-09
1.5919927e-12
1.5391011e-09
-1.519506e-12
1.5391252e-09
1.4530611e-12
1.5391022e-09