/*--------------------------------*- C++ -*----------------------------------*\
| =========                 |                                                 |
| \\      /  F ield         | OpenFOAM: The Open Source CFD Toolbox           |
|  \\    /   O peration     | Version:  2312                                  |
|   \\  /    A nd           | Website:  www.openfoam.com                      |
|    \\/     M anipulation  |                                                 |
\*---------------------------------------------------------------------------*/
FoamFile
{
    version     2.0;
    format      ascii;
    arch        "LSB;label=32;scalar=64";
    class       volScalarField;
    location    "6";
    object      T;
}
// * * * * * * * * * * * * * * * * * * * * * * * * * * * * * * * * * * * * * //

dimensions      [0 0 0 1 0 0 0];

internalField   nonuniform List<scalar> 
4000
(
329.27845
328.41711
328.29774
328.22284
328.16718
328.11366
328.06872
328.02212
327.98138
327.93819
327.89962
327.85846
327.82117
327.78134
327.74489
327.70601
327.67014
327.63195
327.5965
327.55884
327.52372
327.48646
327.45161
327.41467
327.38003
327.34335
327.30889
327.27241
327.23812
327.2018
327.16765
327.13145
327.09745
327.06134
327.02746
326.99142
326.95767
326.92168
326.88806
326.85208
326.81859
326.78261
326.74926
326.71325
326.68007
326.64397
326.61101
326.57473
326.54217
326.50508
331.02166
329.28435
328.99593
328.83935
328.74033
328.6478
328.58093
328.50913
328.45486
328.39328
328.34551
328.29001
328.2461
328.1946
328.1532
328.10453
328.06486
328.01828
327.97989
327.93488
327.89748
327.85369
327.81707
327.77424
327.73828
327.6962
327.6608
327.61932
327.58442
327.54341
327.50895
327.4683
327.43426
327.39389
327.36024
327.32007
327.2868
327.24677
327.21388
327.17391
327.14141
327.10144
327.06936
327.02929
326.9977
326.95739
326.92645
326.8856
326.85587
326.81262
332.28228
330.13955
329.69149
329.4544
329.31229
329.18105
329.09228
328.99543
328.92761
328.84776
328.79077
328.72101
328.67045
328.60734
328.56096
328.50255
328.45907
328.40412
328.36277
328.31045
328.27075
328.22045
328.18206
328.13336
328.09606
328.04861
328.01225
327.96579
327.93026
327.88458
327.84979
327.80472
327.77062
327.72601
327.69257
327.6483
327.61549
327.57144
327.53927
327.49532
327.4638
327.41984
327.38903
327.34491
327.3149
327.27039
327.24147
327.19605
327.16914
327.11991
333.2278
330.96966
330.38048
330.06589
329.88152
329.71228
329.60177
329.48022
329.39889
329.30099
329.23476
329.1509
329.09366
329.01907
328.96768
328.89962
328.8523
328.78907
328.74473
328.68516
328.64313
328.58638
328.5462
328.49166
328.45302
328.40023
328.3629
328.31149
328.27531
328.22499
328.18986
328.14039
328.10623
328.0574
328.02416
327.97579
327.94344
327.89538
327.86392
327.81601
327.78546
327.73754
327.70797
327.65982
327.63139
327.58269
327.55577
327.50582
327.48168
327.42673
333.95753
331.76168
331.05758
330.67089
330.44591
330.23991
330.10806
329.96242
329.86769
329.75212
329.67668
329.57899
329.51506
329.42918
329.37275
329.29522
329.24402
329.17264
329.12528
329.05856
329.01418
328.95106
328.90906
328.84876
328.80874
328.75067
328.71235
328.65604
328.6192
328.56428
328.5288
328.47496
328.44072
328.3877
328.35465
328.30222
328.27032
328.21828
328.18752
328.13567
328.10608
328.05421
328.02588
327.97372
327.94685
327.89399
327.86905
327.8146
327.79316
327.73281
334.53326
332.50434
331.71655
331.26573
331.00286
330.76201
330.60953
330.44072
330.33284
330.20015
330.11559
330.00445
329.93386
329.83698
329.77551
329.68872
329.63362
329.55426
329.50386
329.43014
329.38338
329.314
329.27017
329.2042
329.16279
329.09952
329.06018
328.99904
328.96154
328.90207
328.86622
328.80806
328.77374
328.71657
328.6837
328.62725
328.59578
328.5398
328.50972
328.45397
328.42532
328.36955
328.34243
328.2863
328.26096
328.204
328.18098
328.12212
328.10326
328.03788
334.99524
333.18895
332.35075
331.84626
331.54938
331.27632
331.10433
330.91356
330.79298
330.6439
330.55043
330.42634
330.34917
330.24166
330.17519
330.07942
330.02043
329.93332
329.87988
329.79933
329.75018
329.6747
329.62901
329.5575
329.51469
329.44632
329.40596
329.34008
329.30188
329.23796
329.20172
329.13932
329.10489
329.04364
329.01092
328.95051
328.91945
328.85959
328.83017
328.77058
328.74284
328.68321
328.65728
328.59725
328.5734
328.51239
328.49126
328.42808
328.41166
328.34163
335.37078
333.80972
332.95371
332.40803
332.0822
331.78032
331.59036
331.37922
331.2466
331.08208
330.98
330.8436
330.76002
330.64234
330.57094
330.46655
330.40372
330.30913
330.25267
330.16551
330.11399
330.03259
329.98505
329.90815
329.86392
329.79059
329.7492
329.67869
329.63979
329.5715
329.53487
329.46831
329.43376
329.36851
329.33593
329.27163
329.24096
329.17729
329.1485
329.08513
329.05828
328.99488
328.9701
328.90623
328.88383
328.81886
328.79953
328.73216
328.718
328.64374
335.67916
334.36372
333.51961
332.94653
332.5979
332.27131
332.06541
331.83584
331.69206
331.51325
331.40302
331.25508
331.16534
331.03805
330.96188
330.84928
330.7827
330.68096
330.62153
330.52804
330.47418
330.38706
330.3377
330.25559
330.20996
330.13182
330.0894
330.01439
329.9748
329.90226
329.86523
329.7946
329.75993
329.69077
329.65832
329.59022
329.55993
329.49252
329.46435
329.39728
329.37129
329.30418
329.28052
329.2129
329.1919
329.12307
329.10547
329.03406
329.02196
328.94385
335.93445
334.85069
334.04367
333.45751
333.09305
332.74654
332.52716
332.28145
332.12766
331.93592
331.81815
331.65958
331.56402
331.42778
331.34704
331.22674
331.15654
331.04805
330.98573
330.88622
330.83007
330.73751
330.68635
330.59925
330.55225
330.46947
330.42604
330.34669
330.30641
330.22976
330.19233
330.11777
330.08297
330.01
329.97768
329.90588
329.87594
329.8049
329.77733
329.70666
329.6815
329.61078
329.5882
329.51693
329.49726
329.4247
329.40872
329.33347
329.32321
329.24163
336.14726
335.27261
334.52244
333.93719
333.56441
333.20327
332.9733
332.71407
332.55164
332.34853
332.22397
332.05583
331.9549
331.81047
331.72545
331.59801
331.52438
331.40957
331.34451
331.23932
331.18099
331.08326
331.03038
330.93852
330.8902
330.803
330.75859
330.67507
330.63413
330.55351
330.5157
330.43734
330.40242
330.32578
330.29358
330.21819
330.18861
330.11404
330.08705
330.01288
329.98852
329.91431
329.89275
329.81796
329.79957
329.72342
329.70896
329.63007
329.62141
329.53671
336.32575
335.63328
334.95394
334.38248
334.00906
333.63893
333.40157
333.13172
332.96226
332.74953
332.61909
332.44254
332.33681
332.18502
332.09609
331.96215
331.88534
331.76471
331.69708
331.58661
331.52622
331.42365
331.36914
331.2728
331.22323
331.13182
331.0865
330.99901
330.95744
330.87304
330.83487
330.75287
330.71783
330.63766
330.60558
330.52674
330.4975
330.41954
330.3931
330.31557
330.29198
330.21441
330.19383
330.11566
330.09845
330.01889
330.00582
329.92352
329.91624
329.82876
336.47638
335.9378
335.33765
334.79112
334.42453
334.05117
333.80988
333.5325
333.35783
333.13737
333.00211
332.81844
332.70856
332.55035
332.45794
332.31821
332.23852
332.11262
332.04264
331.92733
331.86505
331.758
331.70199
331.60146
331.55073
331.45538
331.40921
331.31797
331.27582
331.18783
331.14934
331.06387
331.02874
330.94521
330.91325
330.83112
330.80222
330.721
330.6951
330.61435
330.59149
330.51071
330.49106
330.40966
330.39357
330.31078
330.29896
330.2135
330.20738
330.11741
336.60427
336.19209
335.67444
335.16183
334.80894
334.43801
334.19637
333.91468
333.73674
333.5106
333.37169
333.18228
333.06901
332.90539
332.81002
332.66525
332.58305
332.45248
332.38041
332.26075
332.19676
332.08562
332.02827
331.92388
331.87211
331.7731
331.72615
331.63141
331.58876
331.49739
331.45862
331.36988
331.33469
331.24797
331.21616
331.13089
331.10233
331.01803
330.99265
330.90884
330.88668
330.80284
330.78407
330.69962
330.68456
330.59874
330.58804
330.49969
330.49451
330.40232
336.71358
336.40249
335.96639
335.49426
335.16105
334.7979
334.55944
334.27671
334.09757
333.86784
333.72655
333.53288
333.41706
333.24909
333.15134
333.00235
332.91806
332.78345
332.70962
332.5861
332.52066
332.40586
332.34732
332.23944
332.18676
332.08439
332.03679
331.93881
331.89573
331.80122
331.76223
331.67043
331.63522
331.54551
331.51386
331.42565
331.39742
331.31022
331.28534
331.19864
331.17716
331.09045
331.07249
330.98519
330.97107
330.88243
330.87273
330.78174
330.77732
330.68316
336.80764
336.57532
336.21652
335.789
335.48032
335.12977
334.89788
334.6173
334.43905
334.20788
334.06557
333.86913
333.75168
333.58047
333.48099
333.32863
333.24272
333.10474
333.0295
332.90268
332.83604
332.71803
332.65853
332.54753
332.49411
332.38871
332.34057
332.23964
332.19622
332.09882
332.05968
331.96506
331.92988
331.83738
331.80592
331.71497
331.68709
331.59717
331.5728
331.4834
331.46255
331.37317
331.35597
331.26602
331.25276
331.16154
331.15269
331.05933
331.0555
330.9596
336.88919
336.71665
336.42854
336.04746
335.76689
335.43305
335.21085
334.93545
334.76017
334.52967
334.38772
334.19006
334.07193
333.89864
333.79811
333.64327
333.55626
333.41561
333.33934
333.20979
333.14227
333.02151
332.96129
332.84757
332.79358
332.6855
332.63697
332.53338
332.48974
332.38973
332.35052
332.25332
332.21822
332.12317
332.09194
331.99846
331.97094
331.87851
331.85463
331.76275
331.7425
331.65065
331.63416
331.54178
331.52928
331.43572
331.42761
331.33214
331.32875
331.23131
336.96041
336.83206
336.60655
336.27174
336.02152
335.70772
335.49791
335.23048
335.06015
334.83238
334.69218
334.49481
334.37699
334.20277
334.10193
333.94551
333.85794
333.71536
333.63848
333.50679
333.4387
333.3157
333.255
333.13899
333.08464
332.97423
332.92547
332.81956
332.77581
332.67347
332.63429
332.53476
332.49981
332.40245
332.37149
332.27571
332.24858
332.15386
332.13046
332.03631
332.01664
331.92255
331.90671
331.81213
331.80032
331.70466
331.69716
331.59986
331.59679
331.498
337.02308
336.92648
336.75485
336.46445
336.24558
335.95424
335.75907
335.50206
335.33851
335.11539
334.9783
334.78269
334.66619
334.49219
334.39178
334.23469
334.14713
334.00334
333.9263
333.79307
333.72478
333.60004
333.53914
333.42126
333.36677
333.25442
333.2056
333.09769
333.05397
332.9496
332.91055
332.80898
332.77425
332.67483
332.64419
332.54635
332.51962
332.42285
332.39994
332.30375
332.28464
332.18853
332.1733
332.07676
332.06555
331.96805
331.96106
331.86217
331.85932
331.75937
337.07862
337.00418
336.87763
336.62857
336.44088
336.17355
335.99471
335.75018
335.59503
335.37833
335.24562
335.05319
334.93898
334.76632
334.66709
334.51023
334.42328
334.27901
334.20227
334.06811
333.99997
333.87401
333.81321
333.69391
333.63951
333.52561
333.47691
333.36735
333.32381
333.21772
333.17891
333.07557
333.04115
332.93994
332.90967
332.81002
332.78373
332.68515
332.66273
332.56474
332.54617
332.44828
332.4336
332.33535
332.32467
332.22559
332.219
332.11878
332.11609
332.01513
337.12817
337.0687
336.97892
336.76727
336.6096
336.36696
336.20559
335.97518
335.8298
335.62107
335.49392
335.30596
335.19498
335.02472
334.92742
334.77166
334.6859
334.54188
334.46592
334.33144
334.26383
334.13717
334.07676
333.9565
333.90243
333.78737
333.73899
333.62812
333.58492
333.47743
333.43897
333.33417
333.30014
333.19742
333.16757
333.06639
333.04056
332.94042
332.91851
332.81896
332.80091
332.70149
332.68733
332.58762
332.5774
332.47699
332.47073
332.36942
332.36681
332.26503
337.17264
337.12292
337.06236
336.88372
336.75414
336.53612
336.3928
336.17768
336.04317
335.84373
335.72316
335.54086
335.43399
335.26712
335.17247
335.01864
334.93465
334.79159
334.71686
334.58267
334.51596
334.38912
334.32942
334.20863
334.15515
334.03932
333.99147
333.87966
333.83695
333.72839
333.69041
333.58444
333.5509
333.44694
333.41759
333.31513
333.28981
333.18837
333.16697
333.06611
333.04857
332.94789
332.93421
332.83328
332.82348
332.72198
332.71599
332.61381
332.61125
332.50881
337.21274
337.16914
337.13119
336.98103
336.87706
336.6829
336.5577
336.35859
336.23573
336.04663
335.93353
335.75792
335.65594
335.49339
335.40204
335.25093
335.16928
335.02783
334.95481
334.82148
334.75606
334.62953
334.57085
334.44999
334.39735
334.28116
334.23403
334.12164
334.07958
333.97028
333.93291
333.82608
333.79311
333.68821
333.65942
333.55596
333.53119
333.42871
333.40784
333.30594
333.28891
333.1872
333.17397
333.07209
333.06264
332.96032
332.95454
332.85171
332.84918
332.74625
337.24905
337.20912
337.1882
337.0621
336.98091
336.80933
336.70183
336.51905
336.40832
336.23034
336.12541
335.95735
335.86095
335.70352
335.6161
335.46843
335.38963
335.25044
335.17956
335.04765
334.98389
334.85817
334.80081
334.68031
334.62876
334.5126
334.4664
334.35378
334.31254
334.20283
334.1662
334.05882
334.02653
333.92097
333.89281
333.78862
333.76444
333.66119
333.64087
333.5382
333.52166
333.41919
333.40639
333.30381
333.29468
333.19177
333.18615
333.0829
333.08038
332.97712
337.28201
337.24418
337.23575
337.12957
337.06817
336.91749
336.82691
336.66035
336.56194
336.39561
336.29936
336.13953
336.0493
335.89767
335.81474
335.67115
335.59568
335.45934
335.39101
335.26104
335.19929
335.07485
335.0191
334.8994
334.84918
334.73343
334.68836
334.57587
334.53562
334.42581
334.39005
334.28242
334.25091
334.14498
334.11753
334.01289
333.98935
333.8856
333.86585
333.76265
333.74662
333.64364
333.63125
333.52821
333.51938
333.41612
333.41064
333.30717
333.30465
333.20123
337.31197
337.2753
337.27574
337.18576
337.14118
337.00949
336.93472
336.78393
336.69777
336.54333
336.45609
336.30501
336.22139
336.07615
335.99815
335.85921
335.78752
335.65454
335.58915
335.46161
335.40219
335.27948
335.22562
335.10711
335.05846
334.94349
334.89976
334.78774
334.74863
334.63905
334.60429
334.49671
334.46607
334.36007
334.3334
334.22857
334.20572
334.10173
334.08259
333.97912
333.9636
333.86036
333.84837
333.74513
333.73657
333.63318
333.62783
333.52433
333.52182
333.41842
337.33924
337.30317
337.3097
337.23269
337.20212
337.08732
337.02704
336.89132
336.81707
336.67455
336.59646
336.45445
336.37777
336.23937
336.16668
336.03287
335.96531
335.83617
335.77406
335.64938
335.5926
335.47203
335.42032
335.30339
335.25653
335.1427
335.10048
334.98926
334.95144
334.84241
334.80877
334.70154
334.67188
334.56607
334.54025
334.43551
334.4134
334.30944
334.29092
334.18745
334.17244
334.06919
334.0576
333.95439
333.94609
333.8428
333.83756
333.73424
333.73174
333.62852
337.36402
337.32829
337.33883
337.27206
337.25289
337.15291
337.10565
336.98407
336.9212
336.79038
336.72141
336.58864
336.5191
336.38786
336.32077
336.19247
336.12936
336.00445
335.94591
335.82449
335.77061
335.65255
335.60323
335.48822
335.44336
335.331
335.29047
335.18037
335.14399
335.03581
335.0034
334.8968
334.86821
334.76287
334.73797
334.6336
334.61227
334.50859
334.49073
334.38749
334.37302
334.27
334.25881
334.15585
334.14781
334.04483
334.03971
333.93675
333.93427
333.8314
337.38649
337.35101
337.36403
337.30526
337.2952
337.208
337.17224
337.0637
337.01152
336.89202
336.83199
336.70845
336.64613
336.52224
336.46096
336.33845
336.28002
336.15968
336.10495
335.98713
335.93638
335.82116
335.77444
335.66169
335.619
335.50843
335.46975
335.36106
335.32626
335.2192
335.18814
335.08245
335.05501
334.95042
334.9265
334.82274
334.80225
334.69909
334.68192
334.57916
334.56524
334.46268
334.4519
334.34942
334.34163
334.23917
334.23417
334.13175
334.12931
334.02696
337.40681
337.37156
337.38601
337.33345
337.33049
337.25417
337.22839
337.13171
337.08941
336.98069
336.92927
336.81483
336.75968
336.64324
336.58785
336.47134
336.41776
336.30224
336.25151
336.13758
336.09014
335.97807
335.93412
335.82391
335.78356
335.67506
335.63836
335.53137
335.49826
335.39261
335.36299
335.25847
335.23227
335.12866
335.1058
335.00289
334.98328
334.88089
334.86444
334.76239
334.74903
334.64717
334.6368
334.53501
334.52748
334.42573
334.42087
334.31917
334.31677
334.21511
337.42508
337.39009
337.40525
337.35751
337.35999
337.29282
337.27556
337.18953
337.15621
337.05761
337.01437
336.90876
336.86064
336.75161
336.70213
336.59173
336.5431
336.43259
336.38599
336.27617
336.2322
336.12351
336.08248
335.97507
335.9372
335.83102
335.79644
335.69139
335.66008
335.55608
335.528
335.42489
335.39999
335.29762
335.27586
335.17404
335.15536
335.05396
335.03827
334.93715
334.92438
334.82341
334.81346
334.71257
334.70532
334.60447
334.59974
334.49894
334.49659
334.39579
337.44139
337.40673
337.42215
337.37815
337.38471
337.32517
337.31505
337.23846
337.2132
337.12399
337.0884
336.99126
336.94992
336.84817
336.80453
336.70028
336.65661
336.55123
336.50885
336.40331
336.3629
336.25781
336.21981
336.11542
336.08013
335.97651
335.94413
335.84126
335.81184
335.70972
335.68325
335.58178
335.55826
335.45733
335.43673
335.33623
335.3185
335.21832
335.2034
335.10342
335.09126
334.99139
334.98189
334.88208
334.87511
334.77534
334.77077
334.67103
334.66875
334.56897
337.4558
337.42155
337.43696
337.39594
337.40548
337.35224
337.34804
337.27972
337.26157
337.18096
337.15244
337.06332
337.02844
336.93377
336.89582
336.79766
336.75892
336.65873
336.62058
336.51945
336.48267
336.38133
336.34642
336.24524
336.21262
336.11174
336.08165
335.98116
335.95371
335.85366
335.82887
335.72926
335.70716
335.60789
335.58849
335.48951
335.47278
335.374
335.35989
335.26125
335.24971
335.15113
335.14209
335.04354
335.03688
334.93835
334.93396
334.83543
334.83323
334.73462
337.46836
337.43463
337.44989
337.41128
337.42297
337.37492
337.37553
337.31439
337.30245
337.22963
337.20755
337.12592
337.09713
337.00926
336.97679
336.8846
336.85069
336.75569
336.72174
336.62509
336.59194
336.49446
336.4627
336.36487
336.33496
336.237
336.20925
336.11132
336.08588
335.98811
335.96504
335.86746
335.84683
335.74942
335.73126
335.63398
335.61827
335.52109
335.50782
335.41069
335.3998
335.30268
335.29411
335.19699
335.19065
335.09352
335.08932
334.99215
334.99004
334.89277
337.47911
337.44603
337.46109
337.42452
337.43771
337.39393
337.39839
337.34345
337.33683
337.271
337.25471
337.18004
337.15688
337.07548
337.04822
336.96183
336.9326
336.84271
336.8129
336.72073
336.6912
336.59766
336.56905
336.47467
336.4475
336.35259
336.32721
336.232
336.2086
336.11327
336.09196
335.99659
335.97746
335.88207
335.86517
335.76977
335.75511
335.6597
335.64727
335.55183
335.5416
335.44611
335.43803
335.34249
335.33649
335.24091
335.23691
335.14125
335.13924
335.04343
337.4881
337.45582
337.47071
337.43592
337.45013
337.40988
337.41738
337.36773
337.36562
337.306
337.29486
337.22656
337.20859
337.13326
337.1109
337.03009
337.00533
336.92045
336.89465
336.80695
336.78096
336.69139
336.6659
336.57506
336.55062
336.45886
336.43587
336.34349
336.32216
336.22939
336.20986
336.11684
336.09923
336.00602
335.9904
335.89703
335.88345
335.78995
335.77839
335.68478
335.67523
335.58152
335.57394
335.48013
335.47448
335.38058
335.3768
335.28279
335.28088
335.18668
337.49539
337.46409
337.47885
337.44567
337.46057
337.42325
337.43312
337.38796
337.38963
337.33549
337.32885
337.26634
337.25306
337.1834
337.16558
337.09008
337.06956
336.98954
336.96759
336.88428
336.86175
336.77615
336.75372
336.66645
336.64471
336.55618
336.53556
336.44611
336.42684
336.33676
336.31902
336.22847
336.21239
336.12148
336.10717
336.01596
336.00345
335.91202
335.90133
335.8097
335.80084
335.70903
335.70197
335.61002
335.60473
335.51264
335.50909
335.41684
335.41505
335.32258
337.50105
337.47092
337.48563
337.45395
337.46931
337.43446
337.44613
337.40479
337.40955
337.3602
337.35745
337.30017
337.29108
337.22665
337.21301
337.14252
337.12597
337.05061
337.03232
336.95332
336.93411
336.85243
336.83298
336.74928
336.7302
336.64494
336.62665
336.54021
336.52299
336.43568
336.41971
336.33175
336.3172
336.2287
336.21568
336.12677
336.11534
336.02608
336.01628
335.92674
335.91858
335.8288
335.82227
335.73228
335.72737
335.6372
335.6339
335.54353
335.54186
335.45123
337.50522
337.47642
337.49116
337.46092
337.47657
337.44382
337.45683
337.41872
337.426
337.38081
337.38137
337.32875
337.32336
337.26374
337.25388
337.18808
337.1752
337.1043
337.08945
337.01461
336.99856
336.92074
336.90416
336.82403
336.80751
336.72555
336.70954
336.62615
336.61094
336.52648
336.51226
336.42696
336.41392
336.32794
336.31621
336.22968
336.21933
336.13236
336.12343
336.0361
336.02863
335.94099
335.93499
335.84709
335.84256
335.75441
335.75136
335.66297
335.66143
335.57276
337.50804
337.48072
337.49554
337.46671
337.48254
337.4516
337.4656
337.43022
337.43948
337.39788
337.40122
337.35273
337.35057
337.29531
337.28884
337.2274
337.21787
337.1512
337.13955
337.06872
337.05566
336.9816
336.96775
336.89114
336.8771
336.79842
336.78463
336.70431
336.69106
336.60949
336.59699
336.51442
336.50286
336.41947
336.40901
336.32495
336.31567
336.23107
336.22302
336.13798
336.13122
336.04579
336.04034
335.9546
335.95046
335.86443
335.86164
335.77532
335.77391
335.68729
337.5097
337.48396
337.4989
337.47144
337.48737
337.45804
337.47271
337.43964
337.45043
337.41192
337.41754
337.37269
337.37329
337.32197
337.3185
337.26108
337.25459
337.19188
337.18319
337.11618
337.10591
337.0355
337.02424
336.95108
336.9394
336.86398
336.85231
336.77508
336.76373
336.68507
336.67424
336.59444
336.58433
336.50359
336.49437
336.41285
336.40462
336.32247
336.31529
336.23261
336.22654
336.14342
336.13851
336.05501
336.05127
335.96744
335.9649
335.88075
335.87946
335.79497
337.5104
337.48628
337.50135
337.47523
337.49119
337.46329
337.4784
337.44729
337.45923
337.42335
337.43079
337.38913
337.39206
337.34427
337.3434
337.28968
337.28589
337.2269
337.22089
337.15752
337.14983
337.08294
337.0741
337.00431
336.99485
336.92265
336.91301
336.83885
336.82931
336.75358
336.74436
336.66736
336.65866
336.5806
336.5726
336.49366
336.48646
336.40681
336.40048
336.32024
336.31485
336.2341
336.22972
336.14854
336.14518
336.06362
336.06134
335.97942
335.97826
335.89599
337.51035
337.48782
337.50301
337.47818
337.49413
337.46751
337.48286
337.45342
337.46616
337.43251
337.44138
337.40249
337.40733
337.36269
337.36405
337.3137
337.3123
337.25676
337.25316
337.19324
337.18791
337.12438
337.11779
337.05127
337.04391
336.97486
336.96714
336.896
336.8882
336.81538
336.8077
336.73351
336.72617
336.65082
336.64399
336.56768
336.56147
336.48437
336.47887
336.40111
336.3964
336.31806
336.3142
336.23539
336.23243
336.15319
336.15117
336.07154
336.07051
335.99051
337.50975
337.48873
337.504
337.48041
337.49628
337.47083
337.48625
337.45822
337.47148
337.43972
337.44965
337.41314
337.41952
337.37767
337.38091
337.33361
337.33428
337.28193
337.28048
337.2238
337.2206
337.1603
337.15577
337.09241
337.08698
337.02102
337.01509
336.94694
336.94077
336.87085
336.86464
336.79325
336.7872
336.71458
336.70887
336.63521
336.62996
336.55543
336.55074
336.47549
336.47143
336.39556
336.39221
336.31581
336.31323
336.23636
336.23459
336.15731
336.15641
336.07874
337.50875
337.48912
337.50441
337.482
337.49774
337.47334
337.48868
337.46186
337.47537
337.44519
337.45586
337.42141
337.42898
337.38959
337.39436
337.34983
337.35226
337.30286
337.30329
337.24965
337.24836
337.19112
337.18846
337.12814
337.1245
337.06152
337.05727
336.99205
336.98741
336.92035
336.91551
336.84691
336.8421
336.77219
336.76755
336.69654
336.69221
336.62028
336.61636
336.54365
336.54022
336.46684
336.46399
336.39004
336.38782
336.31337
336.31185
336.23695
336.23617
336.16088
337.5075
337.48911
337.50433
337.48303
337.49857
337.47513
337.49025
337.46443
337.47798
337.44913
337.46025
337.42755
337.436
337.39877
337.40477
337.36272
337.36663
337.31994
337.322
337.27119
337.27159
337.21725
337.21627
337.15886
337.15686
337.09678
337.09406
337.0317
337.02848
336.96423
336.96069
336.89485
336.89119
336.82398
336.82036
336.752
336.74855
336.67921
336.67603
336.60587
336.60305
336.53218
336.52981
336.45833
336.45647
336.38445
336.38317
336.31069
336.31003
336.23714
337.50608
337.4888
337.50386
337.48358
337.49884
337.47624
337.49102
337.46605
337.47944
337.45168
337.463
337.43178
337.44083
337.40549
337.41244
337.37262
337.37773
337.33353
337.33696
337.2888
337.29068
337.23907
337.23959
337.18497
337.18443
337.12715
337.12583
337.06626
337.06435
337.00285
337.00052
336.93739
336.93481
336.87028
336.86762
336.80189
336.79926
336.73252
336.73004
336.66243
336.66019
336.59183
336.58993
336.52092
336.51941
336.44985
336.4488
336.37875
336.37821
336.30775
337.50455
337.48824
337.50306
337.4837
337.4986
337.47673
337.49103
337.46676
337.47981
337.45294
337.46425
337.43428
337.44368
337.40999
337.41762
337.37981
337.38587
337.34395
337.34853
337.30284
337.30597
337.25695
337.25878
337.20682
337.20759
337.15301
337.15295
337.09609
337.09537
337.03657
337.03533
336.97488
336.97329
336.91141
336.90963
336.84652
336.84467
336.78051
336.77868
336.71362
336.71193
336.64608
336.64461
336.5781
336.57691
336.50982
336.50898
336.44139
336.44096
336.37294
337.50295
337.48749
337.50198
337.48345
337.49787
337.47661
337.49032
337.46659
337.47915
337.45301
337.4641
337.43518
337.44472
337.41247
337.42056
337.38455
337.39133
337.3515
337.357
337.3136
337.3178
337.27122
337.27419
337.22476
337.22668
337.17469
337.17576
337.12151
337.12187
337.0657
337.06547
337.00764
337.00697
336.94769
336.94673
336.8862
336.88506
336.82346
336.82225
336.75972
336.75854
336.6952
336.69414
336.63011
336.62923
336.5646
336.56397
336.49883
336.49851
336.43294
337.50128
337.48658
337.50066
337.48284
337.49667
337.4759
337.48888
337.46557
337.47749
337.45192
337.46263
337.4346
337.44408
337.41309
337.42144
337.38704
337.39434
337.35642
337.36265
337.32139
337.32646
337.28218
337.28612
337.2391
337.24202
337.19251
337.19458
337.14287
337.14419
337.09057
337.09125
337.03597
337.03614
336.97942
336.97921
336.92122
336.92075
336.86167
336.86103
336.80101
336.8003
336.73946
336.73878
336.67722
336.67663
336.61446
336.61402
336.55134
336.55111
336.48799
337.49954
337.48555
337.49911
337.48189
337.495
337.47457
337.4867
337.46368
337.47483
337.44971
337.4599
337.43261
337.44188
337.41199
337.42042
337.38748
337.39512
337.35895
337.36572
337.32646
337.33223
337.29012
337.29486
337.25013
337.25392
337.20679
337.20973
337.16046
337.16263
337.11149
337.11298
337.0602
337.06112
337.0069
337.00737
336.95188
336.95201
336.89543
336.89531
336.83777
336.8375
336.77912
336.77879
336.71969
336.71937
336.65965
336.65939
336.59915
336.59901
336.53833
337.49774
337.48439
337.49736
337.48059
337.49283
337.47261
337.48374
337.46089
337.47117
337.44638
337.45594
337.42928
337.4382
337.40928
337.41764
337.38602
337.39383
337.35929
337.36644
337.32904
337.33536
337.29529
337.30069
337.25814
337.26265
337.21781
337.22149
337.17458
337.17749
337.12875
337.13095
337.0806
337.08219
337.03042
337.0315
336.97847
336.97914
336.92501
336.92537
336.87028
336.87041
336.81447
336.81446
336.7578
336.75772
336.70043
336.70033
336.64252
336.64246
336.58421
337.49584
337.48312
337.49538
337.47891
337.49012
337.46995
337.47997
337.45718
337.46648
337.44193
337.45076
337.42463
337.43309
337.40505
337.41321
337.3828
337.39065
337.35762
337.36501
337.32935
337.33607
337.29793
337.30385
337.26339
337.26848
337.22583
337.23015
337.1855
337.18905
337.14263
337.14546
337.09747
337.09965
337.05026
337.05189
337.00126
337.00242
336.9507
336.95147
336.89879
336.89928
336.84576
336.84604
336.79178
336.79192
336.73704
336.73709
336.68168
336.6817
336.62587
337.49385
337.48171
337.49316
337.47681
337.48681
337.46654
337.47531
337.45248
337.46071
337.43635
337.44437
337.41871
337.42662
337.39937
337.40723
337.37794
337.38571
337.35409
337.36159
337.32757
337.33457
337.29826
337.30458
337.26609
337.27166
337.23111
337.23594
337.19348
337.19757
337.1534
337.15676
337.11107
337.11376
337.0667
337.0688
337.02052
337.0221
336.97275
336.9739
336.92359
336.9244
336.87325
336.87379
336.82191
336.82225
336.76974
336.76993
336.7169
336.71698
336.66354
337.49174
337.48016
337.49064
337.47421
337.48282
337.46228
337.46969
337.44675
337.45384
337.42961
337.43676
337.41152
337.41883
337.39231
337.39979
337.37155
337.37914
337.34884
337.35634
337.32389
337.33104
337.29648
337.30307
337.26648
337.27242
337.23388
337.23913
337.19878
337.2033
337.16131
337.16512
337.12166
337.12478
337.07999
337.08249
337.03651
337.03846
336.99142
336.9929
336.94492
336.94601
336.89719
336.89796
336.84842
336.84894
336.79877
336.79908
336.74841
336.74855
336.69746
337.4895
337.47842
337.48777
337.47102
337.47805
337.4571
337.46303
337.4399
337.44581
337.42168
337.42793
337.40308
337.40974
337.38392
337.39096
337.36371
337.37104
337.342
337.34942
337.31845
337.32566
337.29276
337.29953
337.26476
337.27095
337.23436
337.23992
337.2016
337.20648
337.1666
337.17077
337.12947
337.13295
337.09037
337.09321
337.04947
337.05174
337.00696
337.00873
336.96303
336.96436
336.91783
336.9188
336.87157
336.87223
336.82439
336.8248
336.77644
336.77664
336.72788
337.48711
337.47647
337.48444
337.46713
337.47237
337.45086
337.45524
337.43188
337.43657
337.41254
337.41787
337.39341
337.39939
337.37424
337.3808
337.3545
337.36152
337.33369
337.34094
337.31139
337.31857
337.28727
337.29413
337.2611
337.26747
337.23274
337.23853
337.20218
337.20732
337.16948
337.17394
337.13474
337.13851
337.09808
337.10121
337.05965
337.06218
337.01962
337.02162
336.97815
336.97969
336.93542
336.93655
336.89158
336.89238
336.84681
336.84731
336.80124
336.80148
336.75502
337.48454
337.47422
337.48055
337.4624
337.46566
337.44347
337.44622
337.42261
337.42608
337.40215
337.40657
337.38251
337.38781
337.36332
337.36938
337.34401
337.35066
337.324
337.33102
337.30285
337.30993
337.28017
337.28703
337.25568
337.26214
337.22921
337.23515
337.2007
337.20603
337.17017
337.17484
337.13769
337.14168
337.10334
337.10669
337.06726
337.07001
337.02961
337.0318
336.99052
336.99223
336.95017
336.95144
336.9087
336.9096
336.86627
336.86685
336.82303
336.82331
336.77911
337.48177
337.47161
337.47595
337.45666
337.45777
337.4348
337.4359
337.41204
337.4143
337.39051
337.39404
337.3704
337.37502
337.35121
337.35674
337.33229
337.33856
337.31304
337.31978
337.29294
337.29986
337.27159
337.27839
337.24867
337.25514
337.22395
337.22996
337.19736
337.20281
337.16886
337.17368
337.13851
337.14267
337.10636
337.10988
337.07254
337.07544
337.03716
337.0395
337.00037
337.0022
336.96231
336.9637
336.92314