/*--------------------------------*- C++ -*----------------------------------*\
| =========                 |                                                 |
| \\      /  F ield         | OpenFOAM: The Open Source CFD Toolbox           |
|  \\    /   O peration     | Version:  2312                                  |
|   \\  /    A nd           | Website:  www.openfoam.com                      |
|    \\/     M anipulation  |                                                 |
\*---------------------------------------------------------------------------*/
FoamFile
{
    version     2.0;
    format      ascii;
    arch        "LSB;label=32;scalar=64";
    class       volVectorField;
    location    "6";
    object      U;
}
// * * * * * * * * * * * * * * * * * * * * * * * * * * * * * * * * * * * * * //

dimensions      [0 1 -1 0 0 0 0];

internalField   nonuniform List<vector> 
4000
(
(0.0013475498 0.00023021944 0)
(0.0014475267 -1.2447948e-06 0)
(0.0013498496 -1.5206887e-07 0)
(0.0013956135 1.4809272e-07 0)
(0.0013600217 -1.3728529e-07 0)
(0.001393435 1.3033122e-07 0)
(0.0013630174 -1.2099681e-07 0)
(0.0013916179 1.1371554e-07 0)
(0.0013649309 -1.0648987e-07 0)
(0.0013899554 9.9908481e-08 0)
(0.0013665329 -9.3677661e-08 0)
(0.0013884725 8.7870151e-08 0)
(0.0013679315 -8.242163e-08 0)
(0.0013871641 7.732523e-08 0)
(0.0013691604 -7.2552358e-08 0)
(0.0013860118 6.8086765e-08 0)
(0.001370242 -6.3906675e-08 0)
(0.0013849969 5.9997323e-08 0)
(0.0013711948 -5.6339175e-08 0)
(0.0013841021 5.2920124e-08 0)
(0.0013720351 -4.972222e-08 0)
(0.0013833126 4.6735707e-08 0)
(0.0013727769 -4.3944157e-08 0)
(0.001382615 4.1339717e-08 0)
(0.0013734329 -3.890748e-08 0)
(0.0013819976 3.6641107e-08 0)
(0.001374014 -3.4527187e-08 0)
(0.0013814499 3.2560589e-08 0)
(0.0013745302 -3.0729349e-08 0)
(0.0013809627 2.90293e-08 0)
(0.0013749901 -2.7449865e-08 0)
(0.0013805278 2.5987648e-08 0)
(0.0013754015 -2.4633387e-08 0)
(0.0013801379 2.3384306e-08 0)
(0.0013757713 -2.2232388e-08 0)
(0.0013797863 2.1175356e-08 0)
(0.0013761057 -2.0206369e-08 0)
(0.0013794673 1.932356e-08 0)
(0.0013764105 -1.8521197e-08 0)
(0.0013791753 1.7797757e-08 0)
(0.0013766907 -1.7148568e-08 0)
(0.0013789055 1.6572406e-08 0)
(0.0013769511 -1.606563e-08 0)
(0.0013786532 1.5627324e-08 0)
(0.0013771961 -1.5254936e-08 0)
(0.0013784143 1.4947778e-08 0)
(0.0013774297 -1.4705929e-08 0)
(0.001378185 1.4527025e-08 0)
(0.0013776625 -1.4386226e-08 0)
(0.0013780089 1.488006e-08 0)
(0.0037621004 0.00063527285 0)
(0.0041623124 4.1115762e-07 0)
(0.0039241916 4.4084425e-08 0)
(0.0040511206 4.108368e-07 0)
(0.0039478293 -4.7785635e-07 0)
(0.0040452088 4.3482124e-07 0)
(0.0039564729 -4.2089783e-07 0)
(0.004039938 3.9180921e-07 0)
(0.0039620393 -3.6912611e-07 0)
(0.004035085 3.4557258e-07 0)
(0.0039667154 -3.2434823e-07 0)
(0.0040307562 3.0410801e-07 0)
(0.0039707997 -2.8531114e-07 0)
(0.0040269367 2.6764368e-07 0)
(0.0039743889 -2.5113937e-07 0)
(0.0040235729 2.3567469e-07 0)
(0.0039775481 -2.2121389e-07 0)
(0.0040206096 2.0767843e-07 0)
(0.0039803315 -1.950224e-07 0)
(0.0040179973 1.831853e-07 0)
(0.0039827862 -1.7212167e-07 0)
(0.0040156918 1.6178249e-07 0)
(0.0039849537 -1.52125e-07 0)
(0.0040136545 1.4310895e-07 0)
(0.0039868707 -1.3469487e-07 0)
(0.0040118509 1.2684957e-07 0)
(0.0039885693 -1.1953707e-07 0)
(0.0040102507 1.1272996e-07 0)
(0.0039900784 -1.0639576e-07 0)
(0.0040088268 1.005118e-07 0)
(0.0039914234 -9.5049092e-08 0)
(0.0040075553 8.9988863e-08 0)
(0.003992627 -8.5305521e-08 0)
(0.0040064147 8.0983525e-08 0)
(0.0039937096 -7.7000553e-08 0)
(0.0040053857 7.3343767e-08 0)
(0.0039946893 -6.9993976e-08 0)
(0.0040044512 6.6940628e-08 0)
(0.0039955827 -6.4167519e-08 0)
(0.0040035952 6.1666052e-08 0)
(0.0039964049 -5.9422885e-08 0)
(0.0040028033 5.7431122e-08 0)
(0.0039971697 -5.568019e-08 0)
(0.0040020622 5.4164761e-08 0)
(0.0039978903 -5.28766e-08 0)
(0.0040013591 5.1813916e-08 0)
(0.0039985785 -5.0971261e-08 0)
(0.0040006823 5.0268499e-08 0)
(0.0039992586 -5.0557917e-08 0)
(0.004000135 4.8414615e-08 0)
(0.0061110982 0.0010195235 0)
(0.0067964593 -5.2013529e-07 0)
(0.0064332115 3.7637042e-07 0)
(0.0066395257 6.9466527e-07 0)
(0.0064684479 -8.6626382e-07 0)
(0.0066298505 7.7421073e-07 0)
(0.0064826548 -7.6165466e-07 0)
(0.0066210968 7.0636586e-07 0)
(0.0064918609 -6.6695154e-07 0)
(0.0066130401 6.2387013e-07 0)
(0.0064996159 -5.8578785e-07 0)
(0.0066058572 5.4912652e-07 0)
(0.0065063925 -5.1523919e-07 0)
(0.0065995203 4.8330216e-07 0)
(0.0065123482 -4.5352026e-07 0)
(0.0065939393 4.2557723e-07 0)
(0.0065175907 -3.994769e-07 0)
(0.0065890227 3.7502283e-07 0)
(0.0065222097 -3.52178e-07 0)
(0.0065846881 3.307936e-07 0)
(0.0065262835 -3.108221e-07 0)
(0.0065808627 2.9214461e-07 0)
(0.0065298809 -2.7471065e-07 0)
(0.0065774818 2.5842394e-07 0)
(0.0065330626 -2.4323404e-07 0)
(0.0065744886 2.290626e-07 0)
(0.0065358824 -2.1586094e-07 0)
(0.0065718325 2.0356509e-07 0)
(0.0065383878 -1.9212924e-07 0)
(0.0065694688 1.8150107e-07 0)
(0.006540621 -1.716383e-07 0)
(0.0065673577 1.6249809e-07 0)
(0.0065426199 -1.5404215e-07 0)
(0.0065654635 1.4623536e-07 0)
(0.0065444182 -1.3904365e-07 0)
(0.0065637543 1.3243827e-07 0)
(0.0065460461 -1.2638948e-07 0)
(0.0065622013 1.2087379e-07 0)
(0.0065475312 -1.1586584e-07 0)
(0.0065607783 1.1134652e-07 0)
(0.0065488985 -1.0729482e-07 0)
(0.0065594612 1.0369533e-07 0)
(0.0065501712 -1.0053133e-07 0)
(0.0065582277 9.7790631e-08 0)
(0.0065513709 -9.5459724e-08 0)
(0.0065570568 9.3534487e-08 0)
(0.0065525178 -9.1998079e-08 0)
(0.0065559279 9.0692575e-08 0)
(0.0065536478 -9.1598956e-08 0)
(0.0065549927 8.6935671e-08 0)
(0.0084136054 0.0013735641 0)
(0.0093562881 -2.4058187e-06 0)
(0.0088766329 9.7473745e-07 0)
(0.0091610293 9.1885621e-07 0)
(0.0089217917 -1.240831e-06 0)
(0.0091474496 1.0878595e-06 0)
(0.0089414893 -1.0893037e-06 0)
(0.0091351757 1.0062873e-06 0)
(0.0089543302 -9.5236026e-07 0)
(0.0091238928 8.9004941e-07 0)
(0.0089651765 -8.360781e-07 0)
(0.0091138394 7.8358401e-07 0)
(0.0089746587 -7.3531725e-07 0)
(0.0091049712 6.8968384e-07 0)
(0.0089829931 -6.4722284e-07 0)
(0.0090971608 6.0731483e-07 0)
(0.0089903296 -5.7009355e-07 0)
(0.0090902802 5.3517343e-07 0)
(0.0089967937 -5.0259157e-07 0)
(0.0090842141 4.7205719e-07 0)
(0.009002495 -4.4357153e-07 0)
(0.0090788603 4.1690376e-07 0)
(0.0090075297 -3.9203617e-07 0)
(0.0090741286 3.6878301e-07 0)
(0.0090119828 -3.4711536e-07 0)
(0.0090699392 3.2688302e-07 0)
(0.0090159295 -3.0805075e-07 0)
(0.0090662215 2.9049671e-07 0)
(0.0090194363 -2.7418281e-07 0)
(0.0090629128 2.5900998e-07 0)
(0.0090225626 -2.4493973e-07 0)
(0.0090599574 2.3189136e-07 0)
(0.0090253611 -2.1982772e-07 0)
(0.0090573054 2.0868302e-07 0)
(0.0090278789 -1.9842269e-07 0)
(0.0090549121 1.8899306e-07 0)
(0.0090301587 -1.8036302e-07 0)
(0.009052737 1.7248884e-07 0)
(0.0090322388 -1.6534345e-07 0)
(0.0090507437 1.5889132e-07 0)
(0.0090341544 -1.5310981e-07 0)
(0.0090488982 1.4797019e-07 0)
(0.0090359379 -1.4345447e-07 0)
(0.0090471694 1.3953962e-07 0)
(0.0090376196 -1.3621052e-07 0)
(0.0090455276 1.3345892e-07 0)
(0.0090392282 -1.3125308e-07 0)
(0.0090439434 1.2934783e-07 0)
(0.00904081 -1.3123503e-07 0)
(0.0090426037 1.2363225e-07 0)
(0.010660692 0.0016964858 0)
(0.011839469 -5.1785514e-06 0)
(0.011254058 1.7884704e-06 0)
(0.011615775 1.0793276e-06 0)
(0.01130787 -1.5855596e-06 0)
(0.01159799 1.3629909e-06 0)
(0.011332991 -1.3907978e-06 0)
(0.011582156 1.279713e-06 0)
(0.011349459 -1.2139891e-06 0)
(0.011567627 1.1335441e-06 0)
(0.011363408 -1.065256e-06 0)
(0.011554688 9.9816734e-07 0)
(0.011375607 -9.3678649e-07 0)
(0.011543277 8.7858938e-07 0)
(0.011386331 -8.2453865e-07 0)
(0.011533227 7.7366664e-07 0)
(0.011395771 -7.2627457e-07 0)
(0.011524373 6.8176676e-07 0)
(0.011404088 -6.4027817e-07 0)
(0.011516568 6.0136281e-07 0)
(0.011411425 -5.6508821e-07 0)
(0.011509678 5.3110238e-07 0)
(0.011417903 -4.9943377e-07 0)
(0.01150359 4.6980073e-07 0)
(0.011423633 -4.4220618e-07 0)
(0.011498199 4.1642361e-07 0)
(0.011428712 -3.9243922e-07 0)
(0.011493415 3.700703e-07 0)
(0.011433225 -3.4929266e-07 0)
(0.011489157 3.2995853e-07 0)
(0.011437248 -3.1203796e-07 0)
(0.011485353 2.9541124e-07 0)
(0.011440849 -2.8004604e-07 0)
(0.01148194 2.6584521e-07 0)
(0.01144409 -2.5277655e-07 0)
(0.01147886 2.4076115e-07 0)
(0.011447024 -2.2976873e-07 0)
(0.011476061 2.1973526e-07 0)
(0.011449701 -2.106336e-07 0)
(0.011473495 2.024119e-07 0)
(0.011452167 -1.9504712e-07 0)
(0.011471119 1.8849735e-07 0)
(0.011454464 -1.8274426e-07 0)
(0.011468893 1.7775408e-07 0)
(0.011456629 -1.7351057e-07 0)
(0.011466779 1.7000258e-07 0)
(0.011458701 -1.6717723e-07 0)
(0.011464737 1.6470874e-07 0)
(0.011460735 -1.6784839e-07 0)
(0.011462981 1.5710278e-07 0)
(0.012850383 0.0019896244 0)
(0.0142462 -8.7210444e-06 0)
(0.013565406 2.7563684e-06 0)
(0.014003785 1.1853505e-06 0)
(0.013626789 -1.8996632e-06 0)
(0.013981365 1.6014889e-06 0)
(0.013657261 -1.6672204e-06 0)
(0.013961944 1.5279484e-06 0)
(0.013677337 -1.4528841e-06 0)
(0.013944158 1.3553861e-06 0)
(0.013694388 -1.2742658e-06 0)
(0.013928331 1.1937699e-06 0)
(0.013709307 -1.1204826e-06 0)
(0.013914373 1.0508029e-06 0)
(0.013722422 -9.8620421e-07 0)
(0.013902081 9.2532296e-07 0)
(0.013733968 -8.6866897e-07 0)
(0.013891252 8.1541117e-07 0)
(0.01374414 -7.6581009e-07 0)
(0.013881705 7.1924719e-07 0)
(0.013753113 -6.7587732e-07 0)
(0.013873279 6.3521455e-07 0)
(0.013761036 -5.9735e-07 0)
(0.013865832 5.6189653e-07 0)
(0.013768045 -5.2890194e-07 0)
(0.013859239 4.9805623e-07 0)
(0.013774256 -4.6937738e-07 0)
(0.013853387 4.4261643e-07 0)
(0.013779776 -4.1777127e-07 0)
(0.01384818 3.9464151e-07 0)
(0.013784696 -3.7321223e-07 0)
(0.013843528 3.5332175e-07 0)
(0.013789101 -3.3494774e-07 0)
(0.013839353 3.1795957e-07 0)
(0.013793065 -3.0233148e-07 0)
(0.013835585 2.8795778e-07 0)
(0.013796654 -2.7481226e-07 0)
(0.013832161 2.6280941e-07 0)
(0.013799929 -2.5192467e-07 0)
(0.013829022 2.4208895e-07 0)
(0.013802946 -2.3328087e-07 0)
(0.013826116 2.2544466e-07 0)
(0.013805755 -2.185632e-07 0)
(0.013823393 2.1259136e-07 0)
(0.013808404 -2.0751283e-07 0)
(0.013820806 2.0331378e-07 0)
(0.013810939 -1.9991455e-07 0)
(0.013818308 1.969194e-07 0)
(0.013813425 -2.0150605e-07 0)
(0.013816125 1.8742807e-07 0)
(0.014985209 0.0022544755 0)
(0.016577076 -1.2984957e-05 0)
(0.015810654 3.8144127e-06 0)
(0.016324953 1.2460217e-06 0)
(0.015878676 -2.1828707e-06 0)
(0.016297453 1.8063282e-06 0)
(0.015914414 -1.9207303e-06 0)
(0.016274433 1.7533245e-06 0)
(0.015938064 -1.671046e-06 0)
(0.016253395 1.557507e-06 0)
(0.015958205 -1.4648934e-06 0)
(0.016234685 1.372077e-06 0)
(0.015975835 -1.287982e-06 0)
(0.016218189 1.2078058e-06 0)
(0.015991334 -1.1336082e-06 0)
(0.016203661 1.0635878e-06 0)
(0.016004978 -9.9850021e-07 0)
(0.016190863 9.3725579e-07 0)
(0.016017001 -8.8026607e-07 0)
(0.01617958 8.2672396e-07 0)
(0.016027605 -7.7689101e-07 0)
(0.016169621 7.3013554e-07 0)
(0.016036969 -6.8662651e-07 0)
(0.01616082 6.4586241e-07 0)
(0.016045251 -6.0794794e-07 0)
(0.016153027 5.7248297e-07 0)
(0.016052592 -5.3952674e-07 0)
(0.016146112 5.0875909e-07 0)
(0.016059116 -4.8020758e-07 0)
(0.016139957 4.5361541e-07 0)
(0.016064931 -4.2898875e-07 0)
(0.016134459 4.061212e-07 0)
(0.016070137 -3.8500524e-07 0)
(0.016129525 3.6547466e-07 0)
(0.016074822 -3.4751402e-07 0)
(0.016125072 3.309893e-07 0)
(0.016079064 -3.1588143e-07 0)
(0.016121025 3.0208229e-07 0)
(0.016082935 -2.8957231e-07 0)
(0.016117315 2.7826428e-07 0)
(0.0160865 -2.6814044e-07 0)
(0.01611388 2.5913041e-07 0)
(0.01608982 -2.5121982e-07 0)
(0.016110661 2.4435145e-07 0)
(0.016092951 -2.3850993e-07 0)
(0.016107604 2.3367868e-07 0)
(0.016095948 -2.2974603e-07 0)
(0.016104651 2.2626033e-07 0)
(0.016098882 -2.3241815e-07 0)
(0.016102035 2.1486052e-07 0)
(0.017067962 0.0024918956 0)
(0.018832873 -1.7899484e-05 0)
(0.017989926 4.9079516e-06 0)
(0.018578976 1.2681054e-06 0)
(0.018063658 -2.4335602e-06 0)
(0.018546144 1.9787327e-06 0)
(0.018104551 -2.1519277e-06 0)
(0.018519529 1.9566764e-06 0)
(0.018131727 -1.8690805e-06 0)
(0.018495253 1.7405298e-06 0)
(0.018154935 -1.6376976e-06 0)
(0.018473679 1.5336241e-06 0)
(0.018175258 -1.4397813e-06 0)
(0.018454659 1.3500671e-06 0)
(0.018193126 -1.2671888e-06 0)
(0.01843791 1.1888741e-06 0)
(0.018208856 -1.1161546e-06 0)
(0.018423155 1.0476644e-06 0)
(0.018222716 -9.839868e-07 0)
(0.018410147 9.2411399e-07 0)
(0.01823494 -8.6843012e-07 0)
(0.018398666 8.1614877e-07 0)
(0.018245736 -7.675293e-07 0)
(0.01838852 7.2194915e-07 0)
(0.018255284 -6.7957987e-07 0)
(0.018379536 6.3992621e-07 0)
(0.018263747 -6.0309663e-07 0)
(0.018371563 5.6869605e-07 0)
(0.018271268 -5.3678805e-07 0)
(0.018364467 5.0705668e-07 0)
(0.018277972 -4.7953431e-07 0)
(0.018358128 4.5396775e-07 0)
(0.018283974 -4.3036842e-07 0)
(0.01835244 4.08533e-07 0)
(0.018289375 -3.884597e-07 0)
(0.018347306 3.6998502e-07 0)
(0.018294265 -3.5309971e-07 0)
(0.018342641 3.3767217e-07 0)
(0.018298728 -3.2368999e-07 0)
(0.018338364 3.1104717e-07 0)
(0.018302838 -2.9973129e-07 0)
(0.018334403 2.8965678e-07 0)
(0.018306666 -2.8081339e-07 0)
(0.018330693 2.7313124e-07 0)
(0.018310276 -2.6659682e-07 0)
(0.018327168 2.6119064e-07 0)
(0.01831373 -2.5676452e-07 0)
(0.018323763 2.5282688e-07 0)
(0.01831711 -2.6062701e-07 0)
(0.01832071 2.3949312e-07 0)
(0.019100573 0.0027026014 0)
(0.021014399 -2.3373524e-05 0)
(0.020103469 5.9900864e-06 0)
(0.020765357 1.2583836e-06 0)
(0.020181873 -2.6511146e-06 0)
(0.020727334 2.1194336e-06 0)
(0.020227758 -2.360838e-06 0)
(0.020697148 2.1382595e-06 0)
(0.020258406 -2.0470535e-06 0)
(0.02066966 1.9045704e-06 0)
(0.020284649 -1.7927624e-06 0)
(0.020645248 1.6785013e-06 0)
(0.020307637 -1.5759594e-06 0)
(0.020623729 1.4776646e-06 0)
(0.020327851 -1.3870162e-06 0)
(0.02060478 1.3012497e-06 0)
(0.020345646 -1.2216941e-06 0)
(0.020588087 1.1466967e-06 0)
(0.020361326 -1.0770272e-06 0)
(0.02057337 1.0114699e-06 0)
(0.020375155 -9.5054317e-07 0)
(0.020560382 8.9330071e-07 0)
(0.020387368 -8.4010136e-07 0)
(0.020548902 7.9019786e-07 0)
(0.02039817 -7.438359e-07 0)
(0.020538738 7.0042243e-07 0)
(0.020407745 -6.6012103e-07 0)
(0.020529719 6.2245978e-07 0)
(0.020416253 -5.8754303e-07 0)
(0.020521691 5.5499435e-07 0)
(0.020423838 -5.2487615e-07 0)
(0.02051452 4.9688749e-07 0)
(0.020430628 -4.7106186e-07 0)
(0.020508085 4.4715818e-07 0)
(0.020436737 -4.2519086e-07 0)
(0.020502277 4.0496644e-07 0)
(0.02044227 -3.8648758e-07 0)
(0.020496998 3.6959887e-07 0)
(0.020447318 -3.5429672e-07 0)
(0.02049216 3.4045612e-07 0)
(0.020451968 -3.2807128e-07 0)
(0.02048768 3.1704133e-07 0)
(0.020456298 -3.0736106e-07 0)
(0.020483482 2.9894777e-07 0)
(0.020460382 -2.9179048e-07 0)
(0.020479494 2.8586672e-07 0)
(0.02046429 -2.8098814e-07 0)
(0.020475643 2.7664004e-07 0)
(0.02046811 -2.8610964e-07 0)
(0.02047215 2.6136065e-07 0)
(0.021084262 0.0028873516 0)
(0.023122511 -2.9304976e-05 0)
(0.0221515 7.0226417e-06 0)
(0.022883589 1.2237765e-06 0)
(0.022233465 -2.8374862e-06 0)
(0.022840931 2.2295366e-06 0)
(0.022284117 -2.5475649e-06 0)
(0.022807214 2.2983615e-06 0)
(0.02231817 -2.2050652e-06 0)
(0.022776549 2.0497769e-06 0)
(0.022347407 -1.9302024e-06 0)
(0.022749333 1.8068272e-06 0)
(0.022373028 -1.6966219e-06 0)
(0.022725346 1.5907006e-06 0)
(0.022395557 -1.4931843e-06 0)
(0.022704225 1.4008045e-06 0)
(0.022415391 -1.3152018e-06 0)
(0.022685618 1.2344318e-06 0)
(0.022432867 -1.1594603e-06 0)
(0.022669215 1.0888614e-06 0)
(0.022448281 -1.0232948e-06 0)
(0.022654737 9.6165281e-07 0)
(0.022461894 -9.0439985e-07 0)
(0.022641942 8.5066288e-07 0)
(0.022473934 -8.0076667e-07 0)
(0.022630613 7.5401976e-07 0)
(0.022484606 -7.1064493e-07 0)
(0.022620559 6.7009304e-07 0)
(0.022494088 -6.3251262e-07 0)
(0.022611612 5.9746656e-07 0)
(0.022502543 -5.6505011e-07 0)
(0.022603619 5.3491456e-07 0)
(0.022510111 -5.0711777e-07 0)
(0.022596446 4.8138098e-07 0)
(0.02251692 -4.5773663e-07 0)
(0.022589972 4.3596147e-07 0)
(0.022523087 -4.1607159e-07 0)
(0.022584089 3.9788791e-07 0)
(0.022528714 -3.8141691e-07 0)
(0.022578696 3.6651473e-07 0)
(0.022533897 -3.5318317e-07 0)
(0.022573702 3.4130617e-07 0)
(0.022538723 -3.3088435e-07 0)
(0.022569023 3.2182218e-07 0)
(0.022543275 -3.1411179e-07 0)
(0.022564579 3.0772764e-07 0)
(0.022547631 -3.024385e-07 0)
(0.022560287 2.9772313e-07 0)
(0.022551884 -3.0885118e-07 0)
(0.022556356 2.8050506e-07 0)
(0.023019787 0.0030469076 0)
(0.025158134 -3.5586718e-05 0)
(0.024134042 7.9760146e-06 0)
(0.024933336 1.1705803e-06 0)
(0.024218576 -2.997013e-06 0)
(0.024886854 2.3106981e-06 0)
(0.024273699 -2.712367e-06 0)
(0.024849658 2.4373956e-06 0)
(0.024311085 -2.3433379e-06 0)
(0.024815858 2.1764109e-06 0)
(0.024343267 -2.05024e-06 0)
(0.02478588 1.9188208e-06 0)
(0.024371479 -1.8019692e-06 0)
(0.024759464 1.6893661e-06 0)
(0.024396288 -1.5858702e-06 0)
(0.024736204 1.4877062e-06 0)
(0.024418129 -1.3968336e-06 0)
(0.024715713 1.3110173e-06 0)
(0.024437374 -1.2314239e-06 0)
(0.024697649 1.1564186e-06 0)
(0.024454348 -1.0868065e-06 0)
(0.024681705 1.02132e-06 0)
(0.024469338 -9.6053227e-07 0)
(0.024667614 9.034458e-07 0)
(0.024482598 -8.5046738e-07 0)
(0.024655138 8.0080822e-07 0)
(0.024494349 -7.5475282e-07 0)
(0.024644067 7.116758e-07 0)
(0.024504792 -6.7177201e-07 0)
(0.024634213 6.3454456e-07 0)
(0.024514102 -6.0012337e-07 0)
(0.024625411 5.6811274e-07 0)
(0.024522436 -5.3859645e-07 0)
(0.024617512 5.1125873e-07 0)
(0.024529935 -4.8615142e-07 0)
(0.024610383 4.6302203e-07 0)
(0.024536726 -4.4190119e-07 0)
(0.024603904 4.2258667e-07 0)
(0.024542923 -4.0509592e-07 0)
(0.024597965 3.8926664e-07 0)
(0.02454863 -3.7510899e-07 0)
(0.024592466 3.6249202e-07 0)
(0.024553945 -3.5142277e-07 0)
(0.024587314 3.4179306e-07 0)
(0.024558957 -3.3359856e-07 0)
(0.024582419 3.2681069e-07 0)
(0.024563754 -3.2115345e-07 0)
(0.024577693 3.1611478e-07 0)
(0.024568434 -3.288572e-07 0)
(0.024573327 2.969854e-07 0)
(0.024907609 0.0031820193 0)
(0.027122265 -4.2110713e-05 0)
(0.026050913 8.829461e-06 0)
(0.026914472 1.1045704e-06 0)
(0.026137323 -3.1350374e-06 0)
(0.026865037 2.3650102e-06 0)
(0.026196571 -2.8555734e-06 0)
(0.026824416 2.5558477e-06 0)
(0.026237209 -2.4621681e-06 0)
(0.026787532 2.2848043e-06 0)
(0.026272281 -2.1531641e-06 0)
(0.026754842 2.0147632e-06 0)
(0.026303036 -1.8922601e-06 0)
(0.02672604 1.7739066e-06 0)
(0.026330083 -1.6653025e-06 0)
(0.026700679 1.5621707e-06 0)
(0.026353895 -1.4667912e-06 0)
(0.026678339 1.3766432e-06 0)
(0.026374877 -1.2930956e-06 0)
(0.026658643 1.214309e-06 0)
(0.026393383 -1.1412352e-06 0)
(0.026641261 1.0724501e-06 0)
(0.026409726 -1.0086372e-06 0)
(0.026625898 9.4867737e-07 0)
(0.026424181 -8.9306072e-07 0)
(0.026612296 8.4090366e-07 0)
(0.026436994 -7.9255355e-07 0)
(0.026600225 7.4731094e-07 0)
(0.026448379 -7.0541808e-07 0)
(0.026589481 6.6632004e-07 0)
(0.026458529 -6.3018243e-07 0)
(0.026579885 5.9656404e-07 0)
(0.026467616 -5.6557549e-07 0)
(0.026571273 5.3686521e-07 0)
(0.026475791 -5.1050523e-07 0)
(0.0265635 4.8621487e-07 0)
(0.026483195 -4.6403998e-07 0)
(0.026556436 4.4375604e-07 0)
(0.026489951 -4.2539204e-07 0)
(0.026549961 4.0876794e-07 0)
(0.026496173 -3.9390275e-07 0)
(0.026543966 3.8065116e-07 0)
(0.026501968 -3.6902699e-07 0)
(0.026538348 3.5890985e-07 0)
(0.026507433 -3.5029925e-07 0)
(0.026533013 3.4316353e-07 0)
(0.026512662 -3.3718109e-07 0)
(0.026527861 3.318633e-07 0)
(0.026517761 -3.4614792e-07 0)
(0.026523062 3.1087184e-07 0)
(0.026747956 0.0032934296 0)
(0.029015956 -4.8773945e-05 0)
(0.027901801 9.5772763e-06 0)
(0.028827002 1.0305264e-06 0)
(0.0279898 -3.256679e-06 0)
(0.028775422 2.3948293e-06 0)
(0.028052793 -2.977524e-06 0)
(0.028731431 2.6542414e-06 0)
(0.028096598 -2.5618981e-06 0)
(0.028691521 2.3753313e-06 0)
(0.028134496 -2.2393043e-06 0)
(0.028656174 2.0949734e-06 0)
(0.028167741 -1.967789e-06 0)
(0.028625035 1.8446011e-06 0)
(0.02819698 -1.7317411e-06 0)
(0.028597617 1.6244431e-06 0)
(0.028222721 -1.5253036e-06 0)
(0.028573465 1.4315256e-06 0)
(0.028245403 -1.3446775e-06 0)
(0.028552173 1.2627231e-06 0)
(0.028265409 -1.1867591e-06 0)
(0.028533381 1.1152113e-06 0)
(0.028283077 -1.0488722e-06 0)
(0.028516772 9.8650625e-07 0)
(0.028298704 -9.2868621e-07 0)
(0.028502067 8.7443775e-07 0)
(0.028312555 -8.2417093e-07 0)
(0.028489017 7.7711543e-07 0)
(0.028324863 -7.3356097e-07 0)
(0.028477403 6.928972e-07 0)
(0.028335836 -6.5532566e-07 0)
(0.028467028 6.2036171e-07 0)
(0.028345659 -5.8814312e-07 0)
(0.028457718 5.5828424e-07 0)
(0.028354498 -5.3087765e-07 0)
(0.028449316 5.0561585e-07 0)
(0.028362502 -4.8256026e-07 0)
(0.028441679 4.6146519e-07 0)
(0.028369805 -4.4237149e-07 0)
(0.028434679 4.2508232e-07 0)
(0.028376532 -4.0962574e-07 0)
(0.028428197 3.958429e-07 0)
(0.028382796 -3.8375455e-07 0)
(0.028422124 3.7322864e-07 0)
(0.028388704 -3.6426875e-07 0)
(0.028416357 3.5684014e-07 0)
(0.028394357 -3.5057578e-07 0)
(0.028410788 3.4502291e-07 0)
(0.028399865 -3.6075402e-07 0)
(0.028405563 3.2224146e-07 0)
(0.028540832 0.0033818751 0)
(0.030840224 -5.5476678e-05 0)
(0.029686387 1.0234014e-05 0)
(0.030670983 9.4894997e-07 0)
(0.029776074 -3.3671423e-06 0)
(0.03061796 2.4024418e-06 0)
(0.02984242 -3.0785773e-06 0)
(0.03057065 2.7331275e-06 0)
(0.0298893 -2.6429075e-06 0)
(0.030527777 2.4484033e-06 0)
(0.029929956 -2.3090248e-06 0)
(0.030489834 2.1598029e-06 0)
(0.029965632 -2.028881e-06 0)
(0.030456413 1.901757e-06 0)
(0.029997011 -1.7854728e-06 0)
(0.030426987 1.6747939e-06 0)
(0.030024637 -1.5726235e-06 0)
(0.030401066 1.4759025e-06 0)
(0.03004898 -1.3863924e-06 0)
(0.030378213 1.3018709e-06 0)
(0.03007045 -1.223575e-06 0)
(0.030358045 1.1497889e-06 0)
(0.030089411 -1.0814111e-06 0)
(0.03034022 1.0170963e-06 0)
(0.030106183 -9.5749774e-07 0)
(0.030324437 9.0155568e-07 0)
(0.030121048 -8.4974148e-07 0)
(0.030310432 8.0121819e-07 0)
(0.030134257 -7.5632214e-07 0)
(0.030297967 7.1439092e-07 0)
(0.030146034 -6.756615e-07 0)
(0.030286832 6.396085e-07 0)
(0.030156576 -6.0639659e-07 0)
(0.03027684 5.7560822e-07 0)
(0.030166062 -5.473564e-07 0)
(0.030267822 5.2130855e-07 0)
(0.030174652 -4.9754168e-07 0)
(0.030259625 4.7579033e-07 0)
(0.030182491 -4.5610725e-07 0)
(0.030252112 4.3827991e-07 0)
(0.030189711 -4.2234552e-07 0)
(0.030245156 4.0813255e-07 0)
(0.030196434 -3.9566874e-07 0)
(0.030238639 3.8481111e-07 0)
(0.030202774 -3.7556742e-07 0)
(0.030232449 3.6789992e-07 0)
(0.03020884 -3.6139711e-07 0)
(0.030226473 3.5565271e-07 0)
(0.030214749 -3.7271512e-07 0)
(0.030220829 3.3117662e-07 0)
(0.030286051 0.0034480814 0)
(0.032595748 -6.2074559e-05 0)
(0.031404668 1.0791095e-05 0)
(0.03244646 8.5544098e-07 0)
(0.031496197 -3.4716756e-06 0)
(0.032392605 2.389975e-06 0)
(0.0315655 -3.1591579e-06 0)
(0.032342026 2.7930612e-06 0)
(0.03161536 -2.7056207e-06 0)
(0.03229626 2.5044639e-06 0)
(0.0316587 -2.3627235e-06 0)
(0.032255787 2.2096338e-06 0)
(0.031696743 -2.0758903e-06 0)
(0.032220142 1.945709e-06 0)
(0.031730206 -1.82681e-06 0)
(0.032188759 1.7135173e-06 0)
(0.031759668 -1.6090264e-06 0)
(0.032161115 1.5100332e-06 0)
(0.031785628 -1.4184832e-06 0)
(0.032136743 1.3319808e-06 0)
(0.031808526 -1.2518972e-06 0)
(0.032115234 1.1763848e-06 0)
(0.031828747 -1.1064434e-06 0)
(0.032096223 1.0406259e-06 0)
(0.031846633 -9.7966292e-07 0)
(0.032079392 9.224155e-07 0)
(0.031862486 -8.694139e-07 0)
(0.032064455 8.1975961e-07 0)
(0.031876573 -7.7383387e-07 0)
(0.032051161 7.3092629e-07 0)
(0.031889133 -6.9130805e-07 0)
(0.032039286 6.544163e-07 0)
(0.031900376 -6.2044182e-07 0)
(0.03202863 5.8893774e-07 0)
(0.031910493 -5.6003698e-07 0)
(0.032019012 5.3338399e-07 0)
(0.031919654 -5.0907098e-07 0)
(0.032010271 4.8681442e-07 0)
(0.031928013 -4.6667874e-07 0)
(0.032002258 4.4843705e-07 0)
(0.031935713 -4.3213557e-07 0)
(0.031994839 4.1759117e-07 0)
(0.031942883 -4.0483846e-07 0)
(0.031987889 3.9372439e-07 0)
(0.031949645 -3.8426092e-07 0)
(0.031981287 3.7640735e-07 0)
(0.031956114 -3.6970967e-07 0)
(0.031974916 3.6381653e-07 0)
(0.031962412 -3.8207921e-07 0)
(0.03196886 3.3776401e-07 0)
(0.031983226 0.0034927409 0)
(0.034282143 -6.8280389e-05 0)
(0.033057614 1.1087437e-05 0)
(0.034153434 7.3237216e-07 0)
(0.033150193 -3.57528e-06 0)
(0.034099305 2.3600361e-06 0)
(0.033222076 -3.2195075e-06 0)
(0.034045514 2.834685e-06 0)
(0.033274817 -2.7504809e-06 0)
(0.03399693 2.543994e-06 0)
(0.033320763 -2.4008279e-06 0)
(0.033953998 2.2448775e-06 0)
(0.033361105 -2.109198e-06 0)
(0.033916194 1.9768172e-06 0)
(0.033396593 -1.8560892e-06 0)
(0.03388291 1.7409301e-06 0)
(0.033427838 -1.6348087e-06 0)
(0.033853591 1.5341967e-06 0)
(0.03345537 -1.4412111e-06 0)
(0.033827743 1.3532989e-06 0)
(0.033479653 -1.2719561e-06 0)
(0.03380493 1.1952159e-06 0)
(0.033501099 -1.1241726e-06 0)
(0.033784769 1.0572871e-06 0)
(0.033520068 -9.9536211e-07 0)
(0.033766918 9.3718728e-07 0)
(0.033536881 -8.8334819e-07 0)
(0.033751076 8.3289074e-07 0)
(0.033551821 -7.8623853e-07 0)
(0.033736977 7.4263788e-07 0)
(0.033565141 -7.0239239e-07 0)
(0.033724383 6.6490549e-07 0)
(0.033577065 -6.3039278e-07 0)
(0.033713081 5.9838102e-07 0)
(0.033587795 -5.6902217e-07 0)
(0.03370288 5.4194005e-07 0)
(0.03359751 -5.1724148e-07 0)
(0.033693609 4.9462671e-07 0)
(0.033606377 -4.7417142e-07 0)
(0.033685112 4.5563589e-07 0)
(0.033614543 -4.3907499e-07 0)
(0.033677243 4.2429521e-07 0)
(0.033622147 -4.113378e-07 0)
(0.033669872 4.0004062e-07 0)
(0.033629318 -3.9041977e-07 0)
(0.03366287 3.8243175e-07 0)
(0.033636179 -3.7558267e-07 0)
(0.033656115 3.6958261e-07 0)
(0.033642855 -3.8890186e-07 0)
(0.033649657 3.4209379e-07 0)
(0.033631951 0.0035166395 0)
(0.035896178 -7.3995796e-05 0)
(0.034648337 1.1087619e-05 0)
(0.0357923 5.8029953e-07 0)
(0.034738102 -3.6827859e-06 0)
(0.035738009 2.3140523e-06 0)
(0.034812182 -3.2602269e-06 0)
(0.035681073 2.8585412e-06 0)
(0.034867707 -2.7780041e-06 0)
(0.035629754 2.5674897e-06 0)
(0.034916176 -2.4237987e-06 0)
(0.035584439 2.2659694e-06 0)
(0.034958747 -2.1292105e-06 0)
(0.035544541 1.9954641e-06 0)
(0.034996197 -1.8736683e-06 0)
(0.035509415 1.757369e-06 0)
(0.035029169 -1.6502857e-06 0)
(0.035478473 1.5486895e-06 0)
(0.035058224 -1.4548541e-06 0)
(0.035451194 1.3660867e-06 0)
(0.03508385 -1.2839973e-06 0)
(0.03542712 1.2065133e-06 0)
(0.035106482 -1.1348158e-06 0)
(0.035405842 1.0672841e-06 0)
(0.0351265 -1.0047873e-06 0)
(0.035387003 9.4605192e-07 0)
(0.035144243 -8.9171462e-07 0)
(0.035370285 8.4077224e-07 0)
(0.03516001 -7.9368756e-07 0)
(0.035355406 7.4966883e-07 0)
(0.035174067 -7.0904976e-07 0)
(0.035342115 6.7120415e-07 0)
(0.035186651 -6.3637074e-07 0)
(0.035330187 6.0405322e-07 0)
(0.035197974 -5.7442135e-07 0)
(0.035319422 5.4708093e-07 0)
(0.035208228 -5.221525e-07 0)
(0.035309637 4.9932218e-07 0)
(0.035217585 -4.7867625e-07 0)
(0.035300669 4.5996379e-07 0)
(0.035226203 -4.432479e-07 0)
(0.035292365 4.2832599e-07 0)
(0.035234228 -4.1524558e-07 0)
(0.035284585 4.0383654e-07 0)
(0.035241797 -3.9411898e-07 0)
(0.035277197 3.8604678e-07 0)
(0.035249037 -3.7908953e-07 0)
(0.035270069 3.7302322e-07 0)
(0.035256079 -3.9324555e-07 0)
(0.03526322 3.4425873e-07 0)
(0.03523152 0.0035205608 0)
(0.037433763 -7.9789276e-05 0)
(0.036180178 1.1257764e-05 0)
(0.037364203 5.3980298e-07 0)
(0.036260081 -3.7745749e-06 0)
(0.037308743 2.2584933e-06 0)
(0.03633587 -3.2807399e-06 0)
(0.037248673 2.8654943e-06 0)
(0.036394066 -2.7886499e-06 0)
(0.037194702 2.5754998e-06 0)
(0.036444969 -2.4321121e-06 0)
(0.037147082 2.2733717e-06 0)
(0.036489693 -2.1363548e-06 0)
(0.03710516 2.0020535e-06 0)
(0.036529038 -1.8799244e-06 0)
(0.037068253 1.7631888e-06 0)
(0.036563681 -1.6557898e-06 0)
(0.037035743 1.5538243e-06 0)
(0.036594207 -1.4597054e-06 0)
(0.037007083 1.3706199e-06 0)
(0.036621131 -1.2882792e-06 0)
(0.036981788 1.2105203e-06 0)
(0.036644909 -1.1386013e-06 0)
(0.036959432 1.0708319e-06 0)
(0.036665942 -1.0081406e-06 0)
(0.036939638 9.4920006e-07 0)
(0.036684584 -8.9469265e-07 0)
(0.036922073 8.4357345e-07 0)
(0.036701149 -7.9634064e-07 0)
(0.036906439 7.5217005e-07 0)
(0.036715918 -7.1142271e-07 0)
(0.036892474 6.7344726e-07 0)
(0.03672914 -6.3850355e-07 0)
(0.036879942 6.060757e-07 0)
(0.036741037 -5.7634981e-07 0)
(0.036868631 5.4891642e-07 0)
(0.036751811 -5.2390874e-07 0)
(0.036858351 5.0100093e-07 0)
(0.036761642 -4.8028911e-07 0)
(0.036848927 4.615129e-07 0)
(0.036770697 -4.4474303e-07 0)
(0.036840202 4.2976924e-07 0)
(0.036779129 -4.166449e-07 0)
(0.036832028 4.0519304e-07 0)
(0.036787081 -3.9543759e-07 0)
(0.036824265 3.8733003e-07 0)
(0.036794688 -3.8030744e-07 0)
(0.036816777 3.7421424e-07 0)
(0.036802084 -3.9517895e-07 0)
(0.036809548 3.4435345e-07 0)
(0.036780635 0.0035052428 0)
(0.038900557 -8.5261454e-05 0)
(0.037649482 1.1331134e-05 0)
(0.038868753 5.9593711e-07 0)
(0.037716007 -3.8554126e-06 0)
(0.038811433 2.1939501e-06 0)
(0.037793162 -3.2818134e-06 0)
(0.038748279 2.856088e-06 0)
(0.037853919 -2.783008e-06 0)
(0.038691745 2.5685642e-06 0)
(0.037907168 -2.4262793e-06 0)
(0.038641902 2.2675632e-06 0)
(0.037953965 -2.1310798e-06 0)
(0.03859803 1.9970068e-06 0)
(0.037995138 -1.8752525e-06 0)
(0.038559407 1.7587607e-06 0)
(0.03803139 -1.6516688e-06 0)
(0.038525386 1.5499278e-06 0)
(0.038063334 -1.4560715e-06 0)
(0.038495393 1.3671866e-06 0)
(0.038091509 -1.2850726e-06 0)
(0.038468922 1.2074914e-06 0)
(0.038116392 -1.1357683e-06 0)
(0.038445527 1.0681557e-06 0)
(0.038138402 -1.0056339e-06 0)
(0.038424813 9.4683112e-07 0)
(0.03815791 -8.9247003e-07 0)
(0.038406431 8.414715e-07 0)
(0.038175246 -7.9436481e-07 0)
(0.038390071 7.5029938e-07 0)
(0.038190701 -7.0966039e-07 0)
(0.038375456 6.7177605e-07 0)
(0.038204538 -6.3692497e-07 0)
(0.038362341 6.0457545e-07 0)
(0.038216988 -5.7492819e-07 0)
(0.038350504 5.4756143e-07 0)
(0.038228263 -5.2261976e-07 0)
(0.038339745 4.9976773e-07 0)
(0.038238551 -4.7911033e-07 0)
(0.038329884 4.6037962e-07 0)
(0.038248028 -4.436532e-07 0)
(0.038320753 4.2871468e-07 0)
(0.038256852 -4.156227e-07 0)
(0.038312198 4.0419475e-07 0)
(0.038265174 -3.9445827e-07 0)
(0.038304074 3.8636265e-07 0)
(0.038273134 -3.7931697e-07 0)
(0.038296239 3.7323484e-07 0)
(0.03828087 -3.9477627e-07 0)
(0.038288643 3.4247374e-07 0)
(0.038277702 0.0034714577 0)
(0.040305502 -8.9779484e-05 0)
(0.039049389 1.0865246e-05 0)
(0.040305165 6.6867598e-07 0)
(0.039105709 -3.9336396e-06 0)