/*--------------------------------*- C++ -*----------------------------------*\
| =========                 |                                                 |
| \\      /  F ield         | OpenFOAM: The Open Source CFD Toolbox           |
|  \\    /   O peration     | Version:  2312                                  |
|   \\  /    A nd           | Website:  www.openfoam.com                      |
|    \\/     M anipulation  |                                                 |
\*---------------------------------------------------------------------------*/
FoamFile
{
    version     2.0;
    format      ascii;
    arch        "LSB;label=32;scalar=64";
    class       surfaceScalarField;
    location    "9";
    object      phi;
}
// * * * * * * * * * * * * * * * * * * * * * * * * * * * * * * * * * * * * * //

dimensions      [0 3 -1 0 0 0 0];

oriented        oriented;

internalField   nonuniform List<scalar> 
7870
(
5.3083055e-11
1.2931669e-09
5.1929018e-11
1.1540375e-12
5.1958664e-11
-2.9645882e-14
5.1215345e-11
7.4331885e-13
5.2052878e-11
-8.3753354e-13
5.1284634e-11
7.6824442e-13
5.2023471e-11
-7.3883736e-13
5.1334595e-11
6.8887642e-13
5.1982986e-11
-6.4839134e-13
5.1375754e-11
6.0723214e-13
5.1945597e-11
-5.6984333e-13
5.1411273e-11
5.3432447e-13
5.191255e-11
-5.0127717e-13
5.1442303e-11
4.7024652e-13
5.1883544e-11
-4.4124008e-13
5.146947e-11
4.1407368e-13
5.185813e-11
-3.8866043e-13
5.1493248e-11
3.6488218e-13
5.1835889e-11
-3.4264094e-13
5.1514043e-11
3.2184605e-13
5.1816446e-11
-3.0240331e-13
5.1532207e-11
2.842398e-13
5.1799475e-11
-2.6726814e-13
5.1548046e-11
2.5142893e-13
5.1784688e-11
-2.3664235e-13
5.1561828e-11
2.2285977e-13
5.1771837e-11
-2.1000902e-13
5.1573787e-11
1.9805017e-13
5.1760706e-11
-1.8691857e-13
5.1584124e-11
1.7658138e-13
5.1751106e-11
-1.6698122e-13
5.1593015e-11
1.5809103e-13
5.1742875e-11
-1.4986038e-13
5.1600608e-11
1.4226697e-13
5.1735875e-11
-1.3526697e-13
5.1607033e-11
1.2884203e-13
5.1729987e-11
-1.2295454e-13
5.1612398e-11
1.1758948e-13
5.1725113e-11
-1.1271511e-13
5.1616794e-11
1.0831922e-13
5.172117e-11
-1.0437565e-13
5.1620295e-11
1.0087456e-13
5.171809e-11
-9.7795126e-14
5.162296e-11
9.5129614e-14
5.1715822e-11
-9.2861701e-14
5.1624834e-11
9.0988188e-14
5.1714333e-11
-8.9499358e-14
5.1626074e-11
8.8259748e-14
5.1714633e-11
-8.8559684e-14
8.5012445e-14
1.4960108e-10
2.4898159e-09
1.5083834e-10
-8.322059e-14
1.5025932e-10
5.4937512e-13
1.4930119e-10
1.70145e-12
1.5050772e-10
-2.0440646e-12
1.4943334e-10
1.842619e-12
1.5049371e-10
-1.7992063e-12
1.4951111e-10
1.671481e-12
1.5043931e-10
-1.5765956e-12
1.4957122e-10
1.4753203e-12
1.503864e-10
-1.3850155e-12
1.4962228e-10
1.2984413e-12
1.5033926e-10
-1.2182595e-12
1.4966674e-10
1.1427708e-12
1.5029783e-10
-1.0723316e-12
1.4970563e-10
1.0062707e-12
1.5026152e-10
-9.4454461e-13
1.4973967e-10
8.8672935e-13
1.5022973e-10
-8.3270385e-13
1.4976943e-10
7.8214513e-13
1.5020194e-10
-7.3491537e-13
1.4979543e-10
6.9075598e-13
1.5017769e-10
-6.4952754e-13
1.498181e-10
6.1102022e-13
1.5015655e-10
-5.7509888e-13
1.4983782e-10
5.4159238e-13
1.5013818e-10
-5.1037302e-13
1.4985493e-10
4.8130079e-13
1.5012227e-10
-4.5425736e-13
1.4986973e-10
4.2912792e-13
1.5010855e-10
-4.0580459e-13
1.4988245e-10
3.8419311e-13
1.5009678e-10
-3.6419667e-13
1.4989331e-10
3.4573782e-13
1.5008678e-10
-3.2873103e-13
1.4990251e-10
3.1311274e-13
1.5007836e-10
-2.9880868e-13
1.4991018e-10
2.8576685e-13
1.5007139e-10
-2.7392408e-13
1.4991647e-10
2.6323808e-13
1.5006575e-10
-2.5365655e-13
1.4992148e-10
2.451454e-13
1.5006135e-10
-2.3766302e-13
1.499253e-10
2.3118237e-13
1.5005811e-10
-2.2567021e-13
1.4992798e-10
2.2111615e-13
1.5005596e-10
-2.174854e-13
1.499298e-10
2.1442601e-13
1.5005731e-10
-2.1607059e-13
2.0581948e-13
2.4300747e-10
3.5930584e-09
2.472716e-10
-4.3473566e-12
2.4583641e-10
1.9845627e-12
2.4509536e-10
2.4425037e-12
2.4623135e-10
-3.1800561e-12
2.4526128e-10
2.8126881e-12
2.4625635e-10
-2.7942771e-12
2.4534199e-10
2.5858473e-12
2.4621013e-10
-2.4447329e-12
2.4539977e-10
2.28568e-12
2.4616142e-10
-2.1466735e-12
2.4544779e-10
2.0120757e-12
2.4611757e-10
-1.8880368e-12
2.4548942e-10
1.7709197e-12
2.4607893e-10
-1.6618478e-12
2.455258e-10
1.5594037e-12
2.4604506e-10
-1.4638018e-12
2.4555763e-10
1.3741563e-12
2.460154e-10
-1.2904741e-12
2.4558546e-10
1.2120851e-12
2.4598947e-10
-1.1389254e-12
2.4560977e-10
1.0704613e-12
2.4596683e-10
-1.0065951e-12
2.4563096e-10
9.4689602e-13
2.4594711e-10
-8.912491e-13
2.456494e-10
8.3930451e-13
2.4592996e-10
-7.9094014e-13
2.4566539e-10
7.4587112e-13
2.4591511e-10
-7.039749e-13
2.4567922e-10
6.6501899e-13
2.459023e-10
-6.288852e-13
2.4569111e-10
5.9538346e-13
2.4589132e-10
-5.6440323e-13
2.4570127e-10
5.35789e-13
2.4588197e-10
-5.0944009e-13
2.4570986e-10
4.8522935e-13
2.4587412e-10
-4.6306738e-13
2.4571703e-10
4.4285049e-13
2.4586761e-10
-4.2450146e-13
2.4572291e-10
4.0793612e-13
2.4586235e-10
-3.9309002e-13
2.457276e-10
3.7989528e-13
2.4585823e-10
-3.6830058e-13
2.4573116e-10
3.5825183e-13
2.458552e-10
-3.4970664e-13
2.4573367e-10
3.4264547e-13
2.4585318e-10
-3.3699601e-13
2.4573545e-10
3.3215404e-13
2.4585569e-10
-3.363062e-13
3.1784099e-13
3.3412659e-10
4.6051818e-09
3.4108137e-10
-1.1302133e-11
3.3892912e-10
4.1368187e-12
3.383737e-10
2.9979155e-12
3.3943656e-10
-4.242915e-12
3.3856939e-10
3.6798631e-12
3.394985e-10
-3.723393e-12
3.3865225e-10
3.4321035e-12
3.3945993e-10
-3.252416e-12
3.387075e-10
3.0381111e-12
3.3941537e-10
-2.8545407e-12
3.3875243e-10
2.6750101e-12
3.3937477e-10
-2.5103798e-12
3.387912e-10
2.3544955e-12
3.3933894e-10
-2.2095892e-12
3.3882505e-10
2.0732975e-12
3.393075e-10
-1.9462568e-12
3.3885465e-10
1.8270081e-12
3.3927997e-10
-1.7157972e-12
3.3888053e-10
1.6115289e-12
3.392559e-10
-1.5142968e-12
3.3890313e-10
1.4232341e-12
3.3923488e-10
-1.3383498e-12
3.3892283e-10
1.2589484e-12
3.3921657e-10
-1.1849854e-12
3.3893997e-10
1.1158999e-12
3.3920065e-10
-1.0516144e-12
3.3895484e-10
9.9167498e-13
3.3918685e-10
-9.3598529e-13
3.3896769e-10
8.841771e-13
3.3917495e-10
-8.3614575e-13
3.3897875e-10
7.9159192e-13
3.3916475e-10
-7.5041001e-13
3.3898819e-10
7.123565e-13
3.3915608e-10
-6.7733016e-13
3.3899617e-10
6.4513288e-13
3.3914878e-10
-6.156716e-13
3.3900284e-10
5.8878541e-13
3.3914273e-10
-5.643921e-13
3.3900831e-10
5.4236136e-13
3.3913784e-10
-5.2262373e-13
3.3901266e-10
5.0507414e-13
3.3913402e-10
-4.8965716e-13
3.3901598e-10
4.7628857e-13
3.3913119e-10
-4.6492055e-13
3.3901832e-10
4.5552509e-13
3.3912929e-10
-4.4797503e-13
3.3902003e-10
4.4141671e-13
3.3913269e-10
-4.4896189e-13
4.2145075e-13
4.2277824e-10
5.5286536e-09
4.3221801e-10
-2.0741903e-11
4.2953273e-10
6.8220958e-12
4.2913911e-10
3.3915416e-12
4.3012318e-10
-5.2269877e-12
4.2935765e-10
4.4453979e-12
4.3022006e-10
-4.5858105e-12
4.2944178e-10
4.2103825e-12
4.3018862e-10
-3.9992553e-12
4.2949433e-10
3.732409e-12
4.3014813e-10
-3.5083453e-12
4.2953612e-10
3.287024e-12
4.301108e-10
-3.0850649e-12
4.29572e-10
2.893298e-12
4.3007777e-10
-2.7153624e-12
4.2960329e-10
2.5477748e-12
4.3004878e-10
-2.3917401e-12
4.2963066e-10
2.2451287e-12
4.3002338e-10
-2.1085246e-12
4.2965457e-10
1.9803392e-12
4.3000118e-10
-1.860899e-12
4.2967546e-10
1.7489536e-12
4.2998178e-10
-1.644677e-12
4.2969366e-10
1.5470708e-12
4.2996488e-10
-1.4562071e-12
4.297095e-10
1.3712848e-12
4.2995019e-10
-1.2923074e-12
4.2972324e-10
1.2186297e-12
4.2993746e-10
-1.1502106e-12
4.2973511e-10
1.0865293e-12
4.2992648e-10
-1.0275176e-12
4.2974532e-10
9.7275413e-13
4.2991707e-10
-9.2215647e-13
4.2975404e-10
8.7538345e-13
4.2990906e-10
-8.3234774e-13
4.2976142e-10
7.92773e-13
4.2990232e-10
-7.5657397e-13
4.2976758e-10
7.2352698e-13
4.2989674e-10
-6.9355391e-13
4.2977263e-10
6.6647406e-13
4.2989222e-10
-6.4222012e-13
4.2977665e-10
6.2064641e-13
4.2988869e-10
-6.01699e-13
4.2977972e-10
5.8526045e-13
4.2988608e-10
-5.7128125e-13
4.2978188e-10
5.5972491e-13
4.298843e-10
-5.5039237e-13
4.2978351e-10
5.4220344e-13
4.2988835e-10
-5.5380282e-13
5.1659575e-13
5.0894488e-10
6.3659587e-09
5.2068435e-10
-3.2481379e-11
5.1764615e-10
9.860301e-12
5.1739401e-10
3.6436759e-12
5.1829122e-10
-6.1241931e-12
5.1762598e-10
5.1106355e-12
5.1842117e-10
-5.381005e-12
5.1771051e-10
4.9210501e-12
5.1839632e-10
-4.6850722e-12
5.1776017e-10
4.3685678e-12
5.1835982e-10
-4.1080023e-12
5.1779877e-10
3.8480731e-12
5.1832574e-10
-3.6120323e-12
5.1783176e-10
3.3872826e-12
5.1829551e-10
-3.1791177e-12
5.1786049e-10
2.9827954e-12
5.1826896e-10
-2.8002093e-12
5.1788561e-10
2.6284825e-12
5.182457e-10
-2.4686193e-12
5.1790756e-10
2.3184846e-12
5.1822536e-10
-2.1787003e-12
5.1792672e-10
2.0475925e-12
5.1820759e-10
-1.9255493e-12
5.1794342e-10
1.8112395e-12
5.181921e-10
-1.7048907e-12
5.1795795e-10
1.6054387e-12
5.1817864e-10
-1.5129988e-12
5.1797055e-10
1.4267178e-12
5.1816698e-10
-1.3466338e-12
5.1798145e-10
1.2720609e-12
5.1815691e-10
-1.2029864e-12
5.1799081e-10
1.1388577e-12
5.1814829e-10
-1.0796308e-12
5.1799881e-10
1.0248597e-12
5.1814094e-10
-9.7448333e-13
5.1800558e-10
9.2814168e-13
5.1813477e-10
-8.8576711e-13
5.1801123e-10
8.4706913e-13
5.1812965e-10
-8.1198151e-13
5.1801586e-10
7.8027004e-13
5.1812551e-10
-7.5187573e-13
5.1801955e-10
7.2660976e-13
5.1812228e-10
-7.0442451e-13
5.1802237e-10
6.8516695e-13
5.1811988e-10
-6.6878911e-13
5.1802436e-10
6.5524596e-13
5.1811821e-10
-6.4425027e-13
5.1802589e-10
6.3453237e-13
5.1812273e-10
-6.5065119e-13
6.0322262e-13
5.9268439e-10
7.1195243e-09
6.0649068e-10
-4.6287663e-11
6.0326694e-10
1.3084036e-11
6.0313878e-10
3.7718397e-12
6.0394077e-10
-6.9261822e-12
6.0337425e-10
5.677155e-12
6.0410198e-10
-6.108736e-12
6.0345829e-10
5.5647405e-12
6.0408315e-10
-5.3099301e-12
6.035049e-10
4.94681e-12
6.0405054e-10
-4.653643e-12
6.035403e-10
4.3583151e-12
6.0401968e-10
-4.0914123e-12
6.0357038e-10
3.8365823e-12
6.0399224e-10
-3.6009728e-12
6.0359656e-10
3.3784753e-12
6.0396812e-10
-3.1717688e-12
6.0361943e-10
2.9771714e-12
6.0394698e-10
-2.796174e-12
6.0363941e-10
2.6260553e-12
6.039285e-10
-2.4677828e-12
6.0365686e-10
2.3192303e-12
6.0391235e-10
-2.1810397e-12
6.0367206e-10
2.0515252e-12
6.0389827e-10
-1.9311012e-12
6.0368529e-10
1.8184245e-12
6.0388604e-10
-1.7137471e-12
6.0369676e-10
1.6159955e-12
6.0387543e-10
-1.5253073e-12
6.0370667e-10
1.4408224e-12
6.0386628e-10
-1.3625996e-12
6.0371519e-10
1.2899486e-12
6.0385844e-10
-1.2228762e-12
6.0372247e-10
1.1608272e-12
6.0385176e-10
-1.1037767e-12
6.0372863e-10
1.0512776e-12
6.0384615e-10
-1.0032879e-12
6.0373377e-10
9.594479e-13
6.038415e-10
-9.1970964e-13
6.0373798e-10
8.8378341e-13
6.0383773e-10
-8.5162373e-13
6.0374135e-10
8.22997e-13
6.0383479e-10
-7.9786593e-13
6.0374391e-10
7.760403e-13
6.038326e-10
-7.5747639e-13
6.0374573e-10
7.4212049e-13
6.0383106e-10
-7.2958268e-13
6.0374714e-10
7.1844921e-13
6.0383587e-10
-7.3938367e-13
6.813631e-13
6.7405176e-10
7.7917225e-09
6.8965242e-10
-6.1888327e-11
6.8639161e-10
1.6344854e-11
6.8637009e-10
3.7933588e-12
6.8707214e-10
-7.6282394e-12
6.8660224e-10
6.1470572e-12
6.8726259e-10
-6.7690864e-12
6.8668501e-10
6.1423201e-12
6.8724919e-10
-5.8741083e-12
6.8672844e-10
5.4675619e-12
6.8722039e-10
-5.1455921e-12
6.8676062e-10
4.8180878e-12
6.8719271e-10
-4.5235051e-12
6.867878e-10
4.2414885e-12
6.8716802e-10
-3.9811943e-12
6.8681143e-10
3.73507e-12
6.8714631e-10
-3.5066541e-12
6.8683207e-10
3.2914205e-12
6.8712729e-10
-3.0913968e-12
6.8685009e-10
2.9032494e-12
6.8711064e-10
-2.7283305e-12
6.8686583e-10
2.5640423e-12
6.870961e-10
-2.4113111e-12
6.8687954e-10
2.268083e-12
6.8708343e-10
-2.1349834e-12
6.8689147e-10
2.0103799e-12
6.870724e-10
-1.8946809e-12
6.8690181e-10
1.7865853e-12
6.8706285e-10
-1.6863459e-12
6.8691075e-10
1.5929231e-12
6.8705461e-10
-1.5064602e-12
6.8691844e-10
1.4261248e-12
6.8704755e-10
-1.3519855e-12
6.86925e-10
1.2833746e-12
6.8704153e-10
-1.2203118e-12
6.8693055e-10
1.1622612e-12
6.8703648e-10
-1.1092133e-12
6.8693519e-10
1.0607373e-12
6.8703229e-10
-1.0168093e-12
6.8693899e-10
9.7708291e-13
6.8702889e-10
-9.415305e-13
6.8694202e-10
9.0987285e-13
6.8702624e-10
-8.8208631e-13
6.8694433e-10
8.5794252e-13
6.8702426e-10
-8.374043e-13
6.8694597e-10
8.2040908e-13
6.8702284e-10
-8.0645202e-13
6.8694727e-10
7.9402472e-13
6.8702781e-10
-8.199252e-13
7.5111373e-13
7.5308447e-10
8.3848881e-09
7.7018811e-10
-7.8991966e-11
7.6701547e-10
1.9517494e-11
7.6708122e-10
3.7276101e-12
7.67686e-10
-8.2330153e-12
7.6730969e-10
6.523363e-12
7.679031e-10
-7.3625e-12
7.6739058e-10
6.6548473e-12
7.6789455e-10
-6.3780789e-12
7.6743068e-10
5.9314286e-12
7.6786943e-10
-5.5843438e-12
7.6745963e-10
5.2278874e-12
7.6784489e-10
-4.9087599e-12
7.6748394e-10
4.6024323e-12
7.6782293e-10
-4.3201804e-12
7.6750504e-10
4.0529581e-12
7.678036e-10
-3.8052166e-12
7.6752346e-10
3.5715629e-12
7.6778666e-10
-3.3545976e-12
7.6753955e-10
3.1503608e-12
7.6777184e-10
-2.9606172e-12
7.6755359e-10
2.7822877e-12
7.6775889e-10
-2.6166058e-12
7.6756583e-10
2.4611422e-12
7.677476e-10
-2.3167517e-12
7.6757647e-10
2.181508e-12
7.6773778e-10
-2.0559907e-12
7.675857e-10
1.9386679e-12
7.6772927e-10
-1.8299195e-12
7.6759367e-10
1.7285244e-12
7.6772193e-10
-1.63472e-12
7.6760052e-10
1.5475309e-12
7.6771563e-10
-1.467095e-12
7.6760637e-10
1.3926318e-12
7.6771027e-10
-1.3242122e-12
7.6761132e-10
1.2612107e-12
7.6770577e-10
-1.2036557e-12
7.6761546e-10
1.1510454e-12
7.6770203e-10
-1.1033838e-12
7.6761885e-10
1.0602683e-12
7.6769901e-10
-1.0216922e-12
7.6762155e-10
9.8733068e-13
7.6769664e-10
-9.5717639e-13
7.6762362e-10
9.3096247e-13
7.6769488e-10
-9.0866021e-13
7.6762509e-10
8.9019802e-13
7.6769358e-10
-8.7494642e-13
7.6762626e-10
8.6135257e-13
7.6769857e-10
-8.9224386e-13
8.1261308e-13
8.2981256e-10
8.9013255e-09
8.4811732e-10
-9.7296728e-11
8.4513309e-10
2.2501727e-11
8.452654e-10
3.5952991e-12
8.4578331e-10
-8.7509188e-12
8.4549634e-10
6.8103279e-12
8.4602358e-10
-7.8897397e-12
8.4557488e-10
7.1035428e-12
8.4601929e-10
-6.8224892e-12
8.4561155e-10
6.3391765e-12
8.4599775e-10
-5.9705464e-12
8.4563728e-10
5.5883535e-12
8.4597628e-10
-5.2477612e-12
8.4565875e-10
4.9199711e-12
8.4595701e-10
-4.6184478e-12
8.4567734e-10
4.3326291e-12
8.4594004e-10
-4.0679119e-12
8.4569357e-10
3.8180298e-12
8.4592515e-10
-3.5861786e-12
8.4570774e-10
3.3677697e-12
8.4591212e-10
-3.1649979e-12
8.4572011e-10
2.9743023e-12
8.4590074e-10
-2.7972377e-12
8.4573088e-10
2.6309995e-12
8.4589082e-10
-2.4766841e-12
8.4574025e-10
2.3320719e-12
8.4588219e-10
-2.1979234e-12
8.4574838e-10
2.0724769e-12
8.458747e-10
-1.9562477e-12
8.4575539e-10
1.8478344e-12
8.4586825e-10
-1.7475753e-12
8.4576143e-10
1.6543532e-12
8.4586271e-10
-1.5683812e-12
8.4576658e-10
1.4887668e-12
8.45858e-10
-1.4156371e-12
8.4577094e-10
1.3482781e-12
8.4585404e-10
-1.2867599e-12
8.4577457e-10
1.2305108e-12
8.4585076e-10
-1.1795662e-12
8.4577756e-10
1.1334676e-12
8.458481e-10
-1.0922322e-12
8.4577994e-10
1.0554901e-12
8.4584601e-10
-1.0232522e-12
8.4578176e-10
9.952136e-13
8.4584446e-10
-9.7135547e-13
8.4578306e-10
9.5159704e-13
8.4584329e-10
-9.3517739e-13
8.457841e-10
9.205476e-13
8.458482e-10
-9.5634688e-13
8.6603154e-13
9.0426619e-10
9.3433093e-09
9.2345815e-10
-1.1648869e-10
9.2073869e-10
2.5221186e-11
9.2091899e-10
3.4149972e-12
9.2136519e-10
-9.1971205e-12
9.2116206e-10
7.0134653e-12
9.2162408e-10
-8.3517621e-12
9.2123785e-10
7.4897722e-12
9.2162351e-10
-7.2081455e-12
9.2127096e-10
6.6917188e-12
9.2160541e-10
-6.3049892e-12
9.212935e-10
5.9002572e-12
9.2158696e-10
-5.5412171e-12
9.2131215e-10
5.1947781e-12
9.2157033e-10
-4.8766223e-12
9.2132828e-10
4.5746748e-12
9.2155566e-10
-4.2952919e-12
9.2134235e-10
4.0313421e-12
9.215428e-10
-3.7866262e-12
9.2135463e-10
3.5559352e-12
9.2153153e-10
-3.3419021e-12
9.2136535e-10
3.1404914e-12
9.2152169e-10
-2.9535864e-12
9.2137468e-10
2.7780135e-12
9.2151311e-10
-2.615117e-12
9.213828e-10
2.4623892e-12
9.2150565e-10
-2.3207774e-12
9.2138983e-10
2.1882944e-12
9.2149918e-10
-2.0655962e-12
9.2139591e-10
1.9511046e-12
9.214936e-10
-1.8452634e-12
9.2140113e-10
1.7468168e-12
9.2148881e-10
-1.6560568e-12
9.214056e-10
1.571982e-12
9.2148474e-10
-1.4947785e-12
9.2140937e-10
1.4236465e-12
9.2148131e-10
-1.3587005e-12
9.2141252e-10
1.2993008e-12
9.2147847e-10
-1.2455166e-12
9.214151e-10
1.1968349e-12
9.2147617e-10
-1.1532988e-12
9.2141716e-10
1.1144947e-12
9.2147436e-10
-1.0804532e-12
9.2141875e-10
1.050832e-12
9.2147301e-10
-1.0256234e-12
9.2141987e-10
1.0047375e-12
9.2147197e-10
-9.8727784e-13
9.2142078e-10
9.7174428e-13
9.2147671e-10
-1.0122771e-12
9.1156634e-13
9.7647712e-10
9.7130822e-09
9.9622669e-10
-1.3623826e-10
9.9382652e-10
2.7621353e-11
9.9404182e-10
3.1997005e-12
9.9443264e-10
-9.5879431e-12
9.9430682e-10
7.1392817e-12
9.9470465e-10
-8.7495936e-12
9.9437939e-10
7.8150302e-12
9.9470725e-10
-7.5359965e-12
9.9440886e-10
6.9901043e-12
9.9469246e-10
-6.5885902e-12
9.9442823e-10
6.1644895e-12
9.9467696e-10
-5.7899492e-12
9.9444411e-10
5.427632e-12
9.9466291e-10
-5.0954292e-12
9.9445781e-10
4.7797798e-12
9.9465051e-10
-4.487996e-12
9.9446975e-10
4.2121029e-12
9.9463963e-10
-3.9565044e-12
9.9448018e-10
3.7153892e-12
9.946301e-10
-3.4918276e-12
9.9448927e-10
3.2813244e-12
9.9462177e-10
-3.0860917e-12
9.9449719e-10
2.9025991e-12
9.9461451e-10
-2.7324398e-12
9.9450407e-10
2.5728275e-12
9.9460819e-10
-2.4248982e-12
9.9451004e-10
2.286447e-12
9.9460272e-10
-2.1582724e-12
9.945152e-10
2.0386259e-12
9.9459799e-10
-1.9280589e-12
9.9451963e-10
1.8251819e-12
9.9459394e-10
-1.7303681e-12
9.9452341e-10
1.6425113e-12
9.9459049e-10
-1.5618586e-12
9.9452661e-10
1.4875278e-12
9.9458759e-10
-1.4196794e-12
9.9452928e-10
1.3576087e-12
9.9458518e-10
-1.3014198e-12
9.9453147e-10
1.2505481e-12
9.9458323e-10
-1.2050635e-12
9.9453322e-10
1.1645104e-12
9.945817e-10
-1.1289401e-12
9.9453456e-10
1.0979744e-12
9.9458056e-10
-1.0716177e-12
9.9453552e-10
1.0497705e-12
9.9457965e-10
-1.0314001e-12
9.9453629e-10
1.0150952e-12
9.9458413e-10
-1.0601098e-12
9.4943733e-13
1.0464758e-09
1.0012856e-08
1.0664377e-09
-1.5620012e-10
1.0643909e-09
2.9668161e-11
1.0646357e-09
2.954866e-12
1.0649863e-09
-9.9385369e-12
1.0649307e-09
7.19489e-12
1.0652653e-09
-9.0842479e-12
1.0649995e-09
8.0809258e-12
1.0652706e-09
-7.8071192e-12
1.0650252e-09
7.2355053e-12
1.065259e-09
-6.8223852e-12
1.0650414e-09
6.3820513e-12
1.0652463e-09
-5.9948823e-12
1.0650546e-09
5.6194084e-12
1.0652348e-09
-5.2756848e-12
1.0650659e-09
4.9487141e-12
1.0652246e-09
-4.6467434e-12
1.0650757e-09
4.3609902e-12
1.0652157e-09
-4.0964475e-12
1.0650843e-09
3.8467292e-12
1.0652079e-09
-3.6153342e-12
1.0650919e-09
3.397329e-12
1.065201e-09
-3.1952486e-12
1.0650984e-09
3.005223e-12
1.065195e-09
-2.8290904e-12
1.0651041e-09
2.6638002e-12
1.0651898e-09
-2.5106743e-12
1.065109e-09
2.3673018e-12
1.0651853e-09
-2.2346221e-12
1.0651132e-09
2.1107255e-12
1.0651814e-09
-1.9962704e-12
1.0651169e-09
1.8897413e-12
1.0651781e-09
-1.7915922e-12
1.06512e-09
1.700618e-12
1.0651753e-09
-1.6171272e-12
1.0651226e-09
1.54016e-12
1.0651729e-09
-1.4699234e-12
1.0651248e-09
1.4056514e-12
1.0651709e-09
-1.3474837e-12
1.0651266e-09
1.2948069e-12
1.0651693e-09
-1.2477184e-12
1.0651281e-09
1.2057231e-12
1.065168e-09
-1.1688932e-12
1.0651292e-09
1.1368167e-12
1.0651671e-09
-1.1095103e-12
1.06513e-09
1.0868653e-12
1.0651663e-09
-1.0677144e-12
1.0651306e-09
1.0507694e-12
1.0651705e-09
-1.0999497e-12
9.7988303e-13
1.1142866e-09
1.024482e-08
1.1341047e-09
-1.7601828e-10
1.1324268e-09
3.1346046e-11
1.132703e-09
2.6787268e-12
1.1330265e-09
-1.0262087e-11
1.1330338e-09
7.1876505e-12
1.1333062e-09
-9.3566888e-12
1.133098e-09
8.28917e-12
1.1333136e-09
-8.0227063e-12
1.1331199e-09
7.4292069e-12
1.133305e-09
-7.0075163e-12
1.133133e-09
6.554043e-12
1.1332951e-09
-6.157035e-12
1.1331435e-09
5.7710704e-12
1.1332861e-09
-5.4182879e-12
1.1331525e-09
5.0823245e-12
1.1332781e-09
-4.7723264e-12
1.1331603e-09
4.4787499e-12
1.133271e-09
-4.2071539e-12
1.1331671e-09
3.9506132e-12
1.1332648e-09
-3.7130383e-12
1.1331731e-09
3.4890858e-12
1.1332594e-09
-3.2816016e-12
1.1331782e-09
3.0863984e-12
1.1332547e-09
-2.9055509e-12
1.1331827e-09
2.735762e-12
1.1332506e-09
-2.5785336e-12
1.1331866e-09
2.4312627e-12
1.133247e-09
-2.2950257e-12
1.13319e-09
2.1677633e-12
1.133244e-09
-2.0502378e-12
1.1331929e-09
1.9408168e-12
1.1332413e-09
-1.8400335e-12
1.1331954e-09
1.7465914e-12
1.1332391e-09
-1.6608592e-12
1.1331975e-09
1.5818049e-12
1.1332372e-09
-1.5096821e-12
1.1331992e-09
1.4436677e-12
1.1332357e-09
-1.3839368e-12
1.1332006e-09
1.3298312e-12
1.1332344e-09
-1.2814752e-12
1.1332018e-09
1.2383374e-12
1.1332334e-09
-1.2005109e-12
1.1332027e-09
1.1675521e-12
1.1332326e-09
-1.1394902e-12
1.1332033e-09
1.1162078e-12
1.133232e-09
-1.0964069e-12
1.1332038e-09
1.0789514e-12
1.1332358e-09
-1.1319281e-12
1.003157e-12
1.1799204e-09
1.0411149e-08
1.1992405e-09
-1.9533829e-10
1.1979351e-09
3.2651369e-11
1.1982455e-09
2.3683837e-12
1.1985534e-09
-1.0570057e-11
1.1986161e-09
7.1249622e-12
1.1988273e-09
-9.5678361e-12
1.1986749e-09
8.441567e-12
1.1988362e-09
-8.1840562e-12
1.1986928e-09
7.5725975e-12
1.1988305e-09
-7.1452223e-12
1.1987029e-09
6.6816557e-12
1.1988234e-09
-6.277511e-12
1.1987108e-09
5.8836606e-12
1.1988167e-09
-5.5242123e-12
1.1987175e-09
5.1815281e-12
1.1988108e-09
-4.8656031e-12
1.1987234e-09
4.5661896e-12
1.1988056e-09
-4.28938e-12
1.1987285e-09
4.027753e-12
1.198801e-09
-3.7856074e-12
1.1987329e-09
3.5572234e-12
1.198797e-09
-3.3457407e-12
1.1987367e-09
3.1466812e-12
1.1987935e-09
-2.9623438e-12
1.1987401e-09
2.7892054e-12
1.1987905e-09
-2.6289395e-12
1.198743e-09
2.4787671e-12
1.1987879e-09
-2.3398956e-12
1.1987455e-09
2.2101288e-12
1.1987856e-09
-2.090329e-12
1.1987477e-09
1.9787569e-12
1.1987836e-09
-1.8760223e-12
1.1987495e-09
1.7807449e-12
1.198782e-09
-1.693352e-12
1.198751e-09
1.6127462e-12
1.1987806e-09
-1.5392256e-12
1.1987523e-09
1.471916e-12
1.1987794e-09
-1.4110267e-12
1.1987534e-09
1.3558587e-12
1.1987785e-09
-1.3065628e-12
1.1987543e-09
1.2625747e-12
1.1987777e-09
-1.2240078e-12
1.1987549e-09
1.1903895e-12
1.1987772e-09
-1.1617619e-12
1.1987554e-09
1.1379986e-12
1.1987767e-09
-1.1176783e-12
1.1987558e-09
1.0998393e-12
1.19878e-09
-1.1562004e-12
1.0195245e-12
1.2433619e-09
1.0514037e-08
1.2618556e-09
-2.1383205e-10
1.2609338e-09
3.3573247e-11
1.2612637e-09
2.0384821e-12
1.2615665e-09
-1.0872895e-11
1.2616775e-09
7.013916e-12
1.2618285e-09
-9.7187842e-12
1.2617301e-09
8.5399481e-12
1.2618386e-09
-8.2925885e-12
1.2617441e-09
7.6671514e-12
1.2618357e-09
-7.236832e-12
1.2617512e-09
6.7661617e-12
1.2618312e-09
-6.3574913e-12
1.2617565e-09
5.9582937e-12
1.2618268e-09
-5.5944995e-12
1.261761e-09
5.2473052e-12
1.2618229e-09
-4.9274912e-12
1.261765e-09
4.624173e-12
1.2618195e-09
-4.3439352e-12
1.2617683e-09
4.0789103e-12
1.2618165e-09
-3.8337557e-12
1.2617713e-09
3.6024141e-12
1.2618139e-09
-3.3882969e-12
1.2617739e-09
3.1866657e-12
1.2618116e-09
-3.0000274e-12
1.2617761e-09
2.824657e-12
1.2618096e-09
-2.6623873e-12
1.261778e-09
2.5102825e-12
1.2618078e-09
-2.3696725e-12
1.2617797e-09
2.2382388e-12
1.2618063e-09
-2.1169376e-12
1.2617811e-09
2.0039346e-12
1.261805e-09
-1.8999114e-12
1.2617824e-09
1.8034137e-12
1.2618039e-09
-1.714924e-12
1.2617834e-09
1.6332869e-12
1.261803e-09
-1.5588431e-12
1.2617843e-09
1.4906727e-12
1.2618022e-09
-1.429018e-12
1.261785e-09
1.3731437e-12
1.2618016e-09
-1.3232262e-12
1.2617855e-09
1.2786717e-12
1.2618011e-09
-1.2396132e-12
1.261786e-09
1.2055524e-12
1.2618007e-09
-1.1765436e-12
1.2617863e-09
1.1524523e-12
1.2618004e-09
-1.1317427e-12
1.2617866e-09
1.1136439e-12
1.2618033e-09
-1.1729438e-12
1.0292601e-12
1.3045399e-09
1.0555748e-08
1.3219476e-09
-2.3123978e-10
1.3214883e-09
3.4032535e-11
1.3217657e-09
1.7610876e-12
1.3220655e-09
-1.1172661e-11
1.3222177e-09
6.8616876e-12
1.3223097e-09
-9.8107658e-12
1.3222635e-09
8.5861287e-12
1.3223208e-09
-8.3498629e-12
1.3222735e-09
7.7144052e-12
1.3223205e-09
-7.2837625e-12
1.3222777e-09
6.8089032e-12
1.3223185e-09
-6.398228e-12
1.3222806e-09
5.9961486e-12
1.3223164e-09
-5.6302527e-12
1.322283e-09
5.2806932e-12
1.3223144e-09
-4.9589627e-12
1.322285e-09
4.6536138e-12
1.3223127e-09
-4.371676e-12
1.3222868e-09
4.1048907e-12
1.3223112e-09
-3.8582393e-12
1.3222883e-09
3.6253693e-12
1.3223099e-09
-3.4099384e-12
1.3222896e-09
3.2069812e-12
1.3223088e-09
-3.0191933e-12
1.3222908e-09
2.8426741e-12
1.3223078e-09
-2.6794017e-12
1.3222918e-09
2.5263042e-12
1.3223069e-09
-2.3848232e-12
1.3222926e-09
2.2525344e-12
1.3223062e-09
-2.1304803e-12
1.3222933e-09
2.0167444e-12
1.3223055e-09
-1.9120746e-12
1.322294e-09
1.8149527e-12
1.322305e-09
-1.7259123e-12
1.3222945e-09
1.6437482e-12
1.3223045e-09
-1.5688407e-12
1.3222949e-09
1.5002306e-12
1.3223041e-09
-1.4381911e-12
1.3222953e-09
1.3819556e-12
1.3223038e-09
-1.3317246e-12
1.3222956e-09
1.2868791e-12
1.3223035e-09
-1.2475701e-12
1.3222958e-09
1.2132773e-12
1.3223033e-09
-1.1840665e-12
1.322296e-09
1.1597959e-12
1.3223031e-09
-1.1388261e-12
1.3222961e-09
1.1205876e-12
1.3223055e-09
-1.182355e-12
1.0326448e-12
1.3633623e-09
1.0538635e-08
1.3795016e-09
-2.473791e-10
1.3796832e-09
3.3851001e-11
1.3797761e-09
1.6682007e-12
1.3800539e-09
-1.1450459e-11
1.3802381e-09
6.6774297e-12
1.3802714e-09
-9.8440013e-12
1.3802752e-09
8.5822669e-12
1.3802828e-09
-8.3574118e-12
1.3802812e-09
7.7160098e-12
1.3802849e-09
-7.2874871e-12
1.3802825e-09
6.8112948e-12
1.3802853e-09
-6.4010333e-12
1.380283e-09
5.9984636e-12
1.3802854e-09
-5.6326297e-12
1.3802833e-09
5.2827813e-12
1.3802854e-09
-4.9610377e-12
1.3802835e-09
4.6554714e-12
1.3802853e-09
-4.373502e-12
1.3802837e-09
4.1065403e-12
1.3802853e-09
-3.8598518e-12
1.3802838e-09
3.6268358e-12
1.3802852e-09
-3.4113666e-12
1.3802839e-09
3.2082878e-12
1.3802852e-09
-3.0204623e-12
1.380284e-09
2.8438419e-12
1.3802852e-09
-2.6805337e-12
1.3802841e-09
2.5273519e-12
1.3802851e-09
-2.3858377e-12
1.3802842e-09
2.2534788e-12
1.3802851e-09
-2.1313947e-12
1.3802843e-09
2.0176006e-12
1.3802851e-09
-1.9129042e-12
1.3802843e-09
1.8157343e-12
1.3802851e-09
-1.7266707e-12
1.3802843e-09
1.6444671e-12
1.380285e-09
-1.5695396e-12
1.3802844e-09
1.5008969e-12
1.380285e-09
-1.4388401e-12
1.3802844e-09
1.3825773e-12
1.380285e-09
-1.3323304e-12
1.3802844e-09
1.2874599e-12
1.380285e-09
-1.2481336e-12
1.3802845e-09
1.2138124e-12
1.380285e-09
-1.1845732e-12
1.3802845e-09
1.1602675e-12
1.3802848e-09
-1.139165e-12
1.3802845e-09
1.1209028e-12
1.3802868e-09
-1.1846484e-12
1.0299643e-12
1.4199098e-09
1.0464975e-08
1.4345547e-09
-2.62024e-10
1.4354429e-09
3.2962821e-11
1.435285e-09
1.8260824e-12
1.4355279e-09
-1.1693343e-11
1.4357378e-09
6.467544e-12
1.4357132e-09
-9.8194185e-12
1.4357651e-09
8.5303884e-12
1.4357246e-09
-8.3169124e-12
1.4357669e-09
7.6736594e-12
1.435729e-09
-7.2495524e-12
1.4357655e-09
6.7748071e-12
1.4357317e-09
-6.3672772e-12
1.4357637e-09
5.9665288e-12
1.4357339e-09
-5.6028381e-12
1.435762e-09
5.2547045e-12
1.4357357e-09
-4.9347802e-12
1.4357604e-09
4.6307457e-12
1.4357373e-09
-4.3503512e-12
1.4357591e-09
4.0847408e-12
1.4357386e-09
-3.8394211e-12
1.4357579e-09
3.6075923e-12
1.4357398e-09
-3.3933129e-12
1.4357568e-09
3.1912743e-12
1.4357409e-09
-3.0044819e-12
1.4357559e-09
2.8287704e-12
1.4357418e-09
-2.6663576e-12
1.4357551e-09
2.5139674e-12
1.4357425e-09
-2.3732271e-12
1.4357545e-09
2.2415548e-12
1.4357432e-09
-2.1201371e-12
1.4357539e-09
2.0069354e-12
1.4357438e-09
-1.9028096e-12
1.4357534e-09
1.806147e-12
1.4357443e-09
-1.7175684e-12
1.4357529e-09
1.6357951e-12
1.4357447e-09
-1.5612752e-12
1.4357526e-09
1.4929922e-12
1.435745e-09
-1.4312723e-12
1.4357523e-09
1.3753036e-12
1.4357453e-09
-1.3253277e-12
1.435752e-09
1.2806888e-12
1.4357455e-09
-1.2415697e-12
1.4357519e-09
1.2074166e-12
1.4357456e-09
-1.1783166e-12
1.4357518e-09
1.1541152e-12
1.4357456e-09
-1.1330057e-12
1.4357517e-09
1.1148314e-12
1.4357471e-09
-1.1800541e-12
1.0215068e-12
1.4743201e-09
1.0336905e-08
1.4871461e-09
-2.7485e-10
1.4886241e-09
3.1484784e-11
1.4882747e-09
2.1755172e-12
1.4884828e-09
-1.1901462e-11
1.4887154e-09
6.2349802e-12
1.4886349e-09
-9.7389707e-12
1.4887329e-09
8.432352e-12
1.4886462e-09
-8.2301919e-12
1.4887308e-09
7.5890831e-12
1.4886528e-09
-7.1715723e-12
1.4887267e-09
6.7009607e-12
1.4886578e-09
-6.2983815e-12
1.4887226e-09
5.9016809e-12
1.4886619e-09
-5.5421299e-12
1.488719e-09
5.1976393e-12
1.4886655e-09
-4.8812932e-12
1.4887158e-09
4.5804731e-12
1.4886686e-09
-4.303196e-12
1.4887129e-09
4.0404063e-12
1.4886713e-09
-3.7978053e-12
1.4887105e-09
3.5684456e-12
1.4886737e-09
-3.3565356e-12
1.4887083e-09
3.1566542e-12
1.4886758e-09
-2.9719233e-12
1.4887064e-09
2.7980919e-12
1.4886775e-09
-2.637469e-12
1.4887048e-09
2.4867125e-12
1.4886791e-09
-2.3475213e-12
1.4887034e-09
2.2172631e-12
1.4886804e-09
-2.0971807e-12
1.4887022e-09
1.9851966e-12
1.4886816e-09
-1.8822152e-12
1.4887011e-09
1.7865938e-12
1.4886825e-09
-1.6989882e-12
1.4887002e-09
1.6180968e-12
1.4886834e-09
-1.5443951e-12
1.4886995e-09
1.4768489e-12
1.488684e-09
-1.415806e-12
1.4886989e-09
1.3604406e-12
1.4886846e-09
-1.3110111e-12
1.4886984e-09
1.2668505e-12
1.488685e-09
-1.2281544e-12
1.4886981e-09
1.1943586e-12
1.4886853e-09
-1.1655591e-12
1.4886978e-09
1.1415965e-12
1.4886854e-09
-1.1206033e-12
1.4886976e-09
1.1026237e-12
1.4886864e-09
-1.1688161e-12
1.0075621e-12
1.5265871e-09
1.0156568e-08
1.5372677e-09
-2.8553056e-10
1.5392038e-09
2.9548696e-11
1.5387608e-09
2.6185413e-12
1.5389199e-09
-1.2060639e-11
1.5391718e-09
5.9831373e-12
1.5390368e-09
-9.6039939e-12
1.5391789e-09
8.2902703e-12
1.5390478e-09
-8.0990522e-12
1.5391727e-09
7.4640959e-12
1.5390564e-09
-7.0551986e-12
1.539166e-09
6.5913285e-12
1.5390634e-09
-6.1958106e-12
1.5391598e-09
5.8052991e-12
1.5390695e-09
-5.4517964e-12
1.5391543e-09
5.1127991e-12
1.5390747e-09
-4.8017145e-12
1.5391495e-09
4.5057226e-12
1.5390793e-09
-4.2330393e-12
1.5391453e-09
3.9744793e-12
1.5390833e-09
-3.7358895e-12
1.5391416e-09
3.5102284e-12
1.5390868e-09
-3.3018169e-12
1.5391383e-09
3.1051636e-12
1.5390899e-09
-2.9234791e-12
1.5391355e-09
2.7524588e-12
1.5390925e-09
-2.5944822e-12
1.5391331e-09
2.4461667e-12
1.5390948e-09
-2.309267e-12
1.539131e-09
2.1811202e-12
1.5390968e-09
-2.0630135e-12
1.5391292e-09
1.9528465e-12
1.5390985e-09
-1.8515588e-12
1.5391276e-09
1.7574904e-12
1.5390999e-09
-1.6713252e-12
1.5391263e-09
1.5917484e-12
1.5391011e-09
-1.5192581e-12
1.5391252e-09
1.4528101e-12
1.5391022e-09