/*--------------------------------*- C++ -*----------------------------------*\
| =========                 |                                                 |
| \\      /  F ield         | OpenFOAM: The Open Source CFD Toolbox           |
|  \\    /   O peration     | Version:  2312                                  |
|   \\  /    A nd           | Website:  www.openfoam.com                      |
|    \\/     M anipulation  |                                                 |
\*---------------------------------------------------------------------------*/
FoamFile
{
    version     2.0;
    format      ascii;
    arch        "LSB;label=32;scalar=64";
    class       volScalarField;
    location    "9";
    object      T;
}
// * * * * * * * * * * * * * * * * * * * * * * * * * * * * * * * * * * * * * //

dimensions      [0 0 0 1 0 0 0];

internalField   nonuniform List<scalar> 
4000
(
329.27847
328.41686
328.29779
328.22263
328.16723
328.11348
328.06879
328.02196
327.98145
327.93806
327.89969
327.85834
327.82124
327.78124
327.74496
327.70591
327.67021
327.63186
327.59657
327.55876
327.52379
327.4864
327.45167
327.41461
327.38009
327.3433
327.30895
327.27237
327.23817
327.20176
327.16769
327.13142
327.09748
327.06132
327.02749
326.99141
326.9577
326.92167
326.88807
326.85207
326.8186
326.78261
326.74927
326.71325
326.68007
326.64397
326.61101
326.57473
326.54217
326.50508
331.02172
329.28361
328.99606
328.8387
328.74049
328.64724
328.58112
328.50865
328.45505
328.39287
328.34572
328.28966
328.24631
328.19429
328.15341
328.10425
328.06508
328.01802
327.9801
327.93465
327.89768
327.85349
327.81726
327.77407
327.73845
327.69606
327.66096
327.6192
327.58455
327.54331
327.50906
327.46822
327.43435
327.39383
327.36032
327.32003
327.28686
327.24674
327.21392
327.17389
327.14144
327.10143
327.06938
327.02928
326.99771
326.95739
326.92646
326.8856
326.85587
326.81262
332.28238
330.13832
329.6917
329.45333
329.31257
329.18013
329.09259
328.99463
328.92794
328.84708
328.79111
328.72042
328.67079
328.60682
328.56131
328.50208
328.45943
328.4037
328.36313
328.31008
328.27108
328.22012
328.18238
328.13307
328.09635
328.04837
328.01251
327.96559
327.93049
327.88441
327.84999
327.80459
327.77079
327.72592
327.69271
327.64823
327.6156
327.57139
327.53935
327.49529
327.46386
327.41983
327.38907
327.3449
327.31493
327.27039
327.24148
327.19605
327.16915
327.11991
333.22796
330.96794
330.38078
330.0644
329.8819
329.71099
329.60219
329.47911
329.39933
329.30004
329.23522
329.15008
329.09414
329.01834
328.96817
328.89898
328.8528
328.78849
328.74522
328.68465
328.6436
328.58593
328.54664
328.49127
328.45342
328.39989
328.36325
328.31121
328.27563
328.22476
328.19013
328.14021
328.10645
328.05726
328.02434
327.9757
327.94359
327.89532
327.86403
327.81597
327.78554
327.73751
327.70803
327.65981
327.63143
327.58269
327.55579
327.50582
327.48169
327.42672
333.95775
331.75949
331.05796
330.66898
330.44639
330.23826
330.10859
329.96101
329.86826
329.75091
329.67727
329.57794
329.51567
329.42826
329.37338
329.29439
329.24465
329.1719
329.1259
329.0579
329.01477
328.95048
328.90961
328.84826
328.80925
328.75025
328.7128
328.65568
328.6196
328.564
328.52914
328.47473
328.44101
328.38753
328.35488
328.3021
328.2705
328.2182
328.18765
328.13562
328.10618
328.05418
328.02595
327.97371
327.9469
327.89399
327.86908
327.81461
327.79318
327.73281
334.53356
332.5017
331.71702
331.26343
331.00344
330.76002
330.61018
330.43901
330.33352
330.19869
330.1163
330.00318
329.93459
329.83586
329.77627
329.68772
329.63439
329.55336
329.50462
329.42934
329.38409
329.31331
329.27083
329.2036
329.1634
329.09901
329.06073
328.99862
328.96201
328.90173
328.86663
328.8078
328.77408
328.71638
328.68397
328.62711
328.59599
328.53971
328.50988
328.45392
328.42544
328.36952
328.34251
328.28629
328.26102
328.204
328.18102
328.12213
328.10328
328.03788
334.99563
333.18587
332.3513
331.84358
331.55007
331.274
331.10508
330.91157
330.79377
330.6422
330.55126
330.42486
330.35003
330.24035
330.17608
330.07825
330.02133
329.93227
329.88075
329.7984
329.75102
329.6739
329.62979
329.55681
329.51539
329.44573
329.40659
329.33959
329.30243
329.23757
329.20219
329.13901
329.10528
329.04342
329.01124
328.95036
328.9197
328.85949
328.83035
328.77052
328.74297
328.68318
328.65738
328.59724
328.57347
328.51239
328.4913
328.42808
328.41168
328.34163
335.37129
333.80623
332.95436
332.40498
332.08298
331.77769
331.59122
331.37696
331.2475
331.08014
330.98094
330.84191
330.761
330.64085
330.57196
330.46522
330.40474
330.30794
330.25366
330.16447
330.11494
330.03168
329.98592
329.90737
329.86472
329.78993
329.74991
329.67814
329.64042
329.57107
329.5354
329.46797
329.4342
329.36826
329.33629
329.27146
329.24124
329.17718
329.14871
329.08507
329.05844
328.99485
328.97021
328.90622
328.8839
328.81886
328.79958
328.73217
328.71803
328.64374
335.67979
334.35985
333.52035
332.94314
332.59877
332.26839
332.06636
331.83333
331.69307
331.51109
331.40407
331.2532
331.16644
331.03639
330.96301
330.8478
330.78384
330.67964
330.62264
330.52688
330.47523
330.38606
330.33867
330.25473
330.21085
330.1311
330.09019
330.0138
329.97549
329.90179
329.86581
329.79424
329.76041
329.69051
329.65871
329.59004
329.56023
329.49241
329.46458
329.39722
329.37146
329.30416
329.28064
329.2129
329.19198
329.12308
329.10552
329.03408
329.022
328.94385
335.93523
334.84647
334.04452
333.45381
333.09402
332.74334
332.52821
332.27871
332.12877
331.93355
331.8193
331.65752
331.56523
331.42595
331.3483
331.22511
331.1578
331.0466
330.98695
330.88495
330.83122
330.73642
330.68741
330.59832
330.55321
330.46869
330.4269
330.34605
330.30716
330.22925
330.19296
330.11738
330.08349
330.00973
329.9781
329.90569
329.87627
329.80479
329.77758
329.7066
329.68168
329.61076
329.58833
329.51693
329.49735
329.42472
329.40878
329.33349
329.32325
329.24163
336.14818
335.26807
334.5234
333.9332
333.56548
333.19982
332.97444
332.71111
332.55285
332.34598
332.22524
332.0536
331.95622
331.80849
331.72682
331.59625
331.52575
331.40801
331.34583
331.23796
331.18223
331.08209
331.03152
330.93753
330.89124
330.80217
330.75951
330.6744
330.63493
330.55298
330.51637
330.43694
330.40297
330.3255
330.29403
330.218
330.18896
330.11393
330.08731
330.01283
329.98872
329.9143
329.8929
329.81797
329.79966
329.72344
329.70902
329.63009
329.62145
329.53672
336.32685
335.62846
334.95502
334.37823
334.01023
333.63525
333.40281
333.12856
332.96356
332.74681
332.62046
332.44015
332.33824
332.1829
332.09756
331.96026
331.88681
331.76304
331.69849
331.58517
331.52754
331.42241
331.37036
331.27176
331.22433
331.13095
331.08747
330.99831
330.95828
330.87249
330.83558
330.75246
330.71842
330.63738
330.60605
330.52656
330.49787
330.41944
330.39338
330.31552
330.29219
330.2144
330.19398
330.11568
330.09856
330.01892
330.00589
329.92355
329.91629
329.82877
336.47765
335.93274
335.33886
334.78665
334.42581
334.0473
333.81122
333.52918
333.35923
333.1345
333.00359
332.81591
332.7101
332.5481
332.45953
332.31621
332.24009
332.11087
332.04415
331.92582
331.86645
331.7567
331.70328
331.60037
331.55189
331.45448
331.41023
331.31724
331.2767
331.18727
331.15008
331.06346
331.02935
330.94492
330.91374
330.83094
330.8026
330.72091
330.6954
330.61431
330.59171
330.51071
330.49122
330.40969
330.39368
330.31081
330.29904
330.21354
330.20743
330.11743
336.60574
336.18683
335.6758
335.15717
334.81034
334.43398
334.1978
333.91121
333.73824
333.50759
333.37326
333.17963
333.07066
332.90302
332.81171
332.66315
332.58472
332.45064
332.382
332.25917
332.19824
332.08429
332.02961
331.92276
331.87332
331.77217
331.72722
331.63067
331.58967
331.49682
331.45938
331.36947
331.33533
331.24769
331.21667
331.13072
331.10272
331.01794
330.99295
330.90881
330.88691
330.80286
330.78423
330.69966
330.68468
330.59878
330.58813
330.49973
330.49457
330.40235
336.71525
336.39707
335.96791
335.48946
335.16257
334.79374
334.56099
334.27312
334.09917
333.86472
333.72824
333.53012
333.41882
333.24662
333.15313
333.00017
332.91982
332.78155
332.71128
332.58447
332.5222
332.40448
332.34873
332.23829
332.18802
332.08345
332.03789
331.93807
331.89667
331.80065
331.76302
331.67002
331.63587
331.54523
331.51438
331.42549
331.39783
331.31014
331.28566
331.19863
331.17739
331.09048
331.07266
330.98524
330.9712
330.88248
330.87282
330.78178
330.77738
330.68319
336.80954
336.5698
336.21821
335.78409
335.48198
335.12551
334.89954
334.61362
334.44076
334.20466
334.06736
333.86628
333.75354
333.57792
333.48288
333.32638
333.24457
333.10279
333.03123
332.90101
332.83764
332.71663
332.65999
332.54637
332.4954
332.38776
332.3417
332.2389
332.19718
332.09826
332.06049
331.96467
331.93054
331.83712
331.80646
331.71483
331.68751
331.59711
331.57312
331.48341
331.4628
331.37321
331.35615
331.26608
331.25289
331.1616
331.15279
331.05939
331.05557
330.95964
336.89131
336.71106
336.4304
336.04248
335.76868
335.42872
335.21263
334.9317
334.76199
334.52638
334.38963
334.18713
334.0739
333.89602
333.8001
333.64096
333.55818
333.41362
333.34114
333.2081
333.14392
333.0201
332.96278
332.8464
332.79491
332.68455
332.63812
332.53265
332.49072
332.38918
332.35134
332.25294
332.21889
332.12293
332.09248
331.99833
331.97137
331.87847
331.85496
331.76276
331.74275
331.65071
331.63435
331.54185
331.52942
331.43579
331.42771
331.33221
331.32883
331.23136
336.96277
336.82644
336.60862
336.26673
336.02347
335.70336
335.49982
335.22669
335.0621
334.82904
334.69421
334.49182
334.37908
334.20011
334.10402
333.94316
333.85995
333.71334
333.64034
333.50509
333.4404
333.31428
333.25653
333.13782
333.086
332.9733
332.92665
332.81884
332.77681
332.67294
332.63512
332.5344
332.50049
332.40223
332.37204
332.2756
332.24901
332.15384
332.1308
332.03634
332.0169
331.92262
331.90691
331.81221
331.80046
331.70474
331.69727
331.59993
331.59687
331.49805
337.02569
336.92087
336.75712
336.45945
336.24769
335.94988
335.76112
335.49826
335.34058
335.11203
334.98045
334.77967
334.66839
334.48949
334.39396
334.23232
334.14921
334.00132
333.92822
333.79137
333.72652
333.59863
333.5407
333.42011
333.36815
333.25351
333.20679
333.09699
333.05498
332.9491
332.91139
332.80864
332.77494
332.67464
332.64474
332.54627
332.52006
332.42285
332.40029
332.3038
332.28491
332.18862
332.1735
332.07685
332.0657
331.96814
331.96117
331.86225
331.85941
331.75943
337.08149
336.99862
336.88013
336.62362
336.44317
336.16922
335.99691
335.74639
335.59725
335.37496
335.2479
335.05015
334.9413
334.7636
334.66937
334.50785
334.42543
334.27699
334.20424
334.06643
334.00175
333.87262
333.8148
333.69278
333.64091
333.52472
333.47812
333.36668
333.32482
333.21725
333.17975
333.07526
333.04184
332.93977
332.91022
332.80996
332.78417
332.68517
332.66308
332.56481
332.54644
332.44838
332.43381
332.33546
332.32483
332.22569
332.21913
332.11887
332.11618
332.0152
337.1313
337.06322
336.98165
336.76239
336.61207
336.3627
336.20795
335.97143
335.83216
335.61772
335.49633
335.30293
335.19742
335.022
334.9298
334.76929
334.68812
334.53988
334.46793
334.32978
334.26564
334.1358
334.07838
333.95539
333.90385
333.78651
333.7402
333.62749
333.58593
333.47699
333.43982
333.33389
333.30083
333.19727
333.16813
333.06635
333.04101
332.94046
332.91886
332.81905
332.80119
332.70161
332.68755
332.58774
332.57757
332.4771
332.47087
332.36951
332.36691
332.2651
337.17604
337.11757
337.06533
336.87896
336.75682
336.53195
336.39533
336.174
336.04568
335.84041
335.72571
335.53785
335.43654
335.26442
335.17494
335.01629
334.93694
334.78961
334.71892
334.58104
334.5178
334.38779
334.33105
334.20756
334.15658
334.0385
333.99269
333.87907
333.83796
333.72798
333.69125
333.5842
333.55158
333.44683
333.41815
333.31512
333.29025
333.18843
333.16732
333.06622
333.04886
332.94802
332.93443
332.83342
332.82365
332.72211
332.71613
332.61391
332.61136
332.50889
337.21642
337.16394
337.13441
336.97642
336.87994
336.67885
336.5604
336.355
336.2384
336.04337
335.93623
335.75494
335.65862
335.49071
335.4046
335.24862
335.17162
335.0259
334.95691
334.8199
334.75792
334.62825
334.5725
334.44897
334.39879
334.28038
334.23525
334.12109
334.08059
333.96991
333.93375
333.82587
333.7938
333.68813
333.65998
333.55597
333.53163
333.4288
333.4082
333.30607
333.2892
333.18735
333.1742
333.07224
333.06283
332.96045
332.95468
332.85182
332.84929
332.74633
337.253
337.2041
337.19168
337.05766
336.984
336.80542
336.70473
336.51556
336.41116
336.22716
336.12826
335.95442
335.86375
335.70089
335.61875
335.46617
335.39203
335.24857
335.18169
335.04612
334.98577
334.85694
334.80247
334.67934
334.6302
334.51187
334.46762
334.35328
334.31356
334.2025
334.16703
334.05864
334.02721
333.92092
333.89337
333.78866
333.76489
333.6613
333.64124
333.53834
333.52196
333.41935
333.40663
333.30397
333.29487
333.19191
333.18631
333.08302
333.0805
332.97721
337.28623
337.23936
337.23949
337.12532
337.07149
336.91376
336.83
336.65699
336.56495
336.39252
336.30235
336.13667
336.05222
335.89511
335.81747
335.66895
335.59814
335.45753
335.39318
335.25958
335.20119
335.07368
335.02077
334.89848
334.85062
334.73275
334.68958
334.57542
334.53662
334.42553
334.39088
334.28228
334.25159
334.14496
334.11808
334.01296
333.9898
333.88573
333.86622
333.76282
333.74692
333.64382
333.6315
333.52839
333.51958
333.41627
333.41081
333.30729
333.30478
333.20133
337.31648
337.2707
337.27974
337.18173
337.14473
337.00594
336.93801
336.78072
336.70095
336.54034
336.45924
336.30223
336.22443
336.07366
336.00097
335.85709
335.79003
335.65281
335.59135
335.46022
335.40411
335.27838
335.2273
335.10626
335.0599
334.94288
334.90096
334.78734
334.74962
334.63882
334.60511
334.49661
334.46675
334.36008
334.33394
334.22867
334.20617
334.10189
334.08296
333.97931
333.96391
333.86056
333.84863
333.74532
333.73678
333.63334
333.628
333.52447
333.52196
333.41852
337.34402
337.29881
337.31397
337.2289
337.2059
337.08398
337.03053
336.88827
336.82044
336.67168
336.59975
336.45176
336.38093
336.23696
336.16958
336.03083
335.96787
335.83453
335.77628
335.64808
335.59453
335.47099
335.422
335.3026
335.25796
335.14214
335.10168
334.98891
334.95243
334.84223
334.80958
334.70148
334.67255
334.56611
334.54079
334.43564
334.41385
334.30962
334.2913
334.18765
334.17275
334.0694
334.05787
333.95459
333.9463
333.84297
333.83774
333.73438
333.73188
333.62863
337.36907
337.32419
337.34336
337.26851
337.2569
337.14978
337.10935
336.98118
336.92474
336.78764
336.72485
336.58605
336.52237
336.38554
336.32375
336.19052
336.13196
336.00289
335.94815
335.82327
335.77255
335.65159
335.60491
335.4875
335.44479
335.33051
335.29166
335.18008
335.14497
335.03567
335.00421
334.89678
334.86887
334.76295
334.73852
334.63375
334.61272
334.50879
334.49111
334.38771
334.37334
334.27023
334.25908
334.15606
334.14803
334.04501
334.03989
333.9369
333.93442
333.83152
337.39182
337.34717
337.36882
337.30197
337.29944
337.20509
337.17613
337.06099
337.01524
336.88941
336.83558
336.70598
336.64951
336.52003
336.464
336.3366
336.28266
336.15822
336.10721
335.98599
335.93832
335.82028
335.77612
335.66104
335.62043
335.508
335.47092
335.36082
335.32723
335.21911
335.18894
335.08247
335.05567
334.95053
334.92704
334.82292
334.8027
334.69931
334.68231
334.5794
334.56556
334.46292
334.45218
334.34964
334.34186
334.23936
334.23436
334.13191
334.12946
334.02708
337.4124
337.36799
337.39105
337.33041
337.33495
337.25148
337.23248
337.12918
337.0933
336.97822
336.933
336.81247
336.76317
336.64113
336.59095
336.4696
336.42043
336.30088
336.25378
336.13653
336.09209
335.97726
335.93579
335.82333
335.78498
335.6747
335.63953
335.53119
335.49922
335.39256
335.36378
335.25853
335.23292
335.1288
335.10633
335.00309
334.98373
334.88113
334.86483
334.76265
334.74937
334.64742
334.63708
334.53524
334.52772
334.42593
334.42106
334.31933
334.31693
334.21524
337.43093
337.38679
337.41053
337.35473
337.36466
337.29036
337.27983
337.18718
337.16026
337.05529
337.01823
336.90653
336.86422
336.74961
336.70529
336.5901
336.54579
336.43133
336.38827
336.27521
336.23414
336.12279
336.08415
335.97457
335.9386
335.83073
335.79759
335.69127
335.66103
335.55608
335.52878
335.42499
335.40064
335.29779
335.27639
335.17427
335.15581
335.05422
335.03866
334.93742
334.92471
334.82367
334.81375
334.71281
334.70556
334.60467
334.59995
334.49911
334.49676
334.39592
337.44748
337.40369
337.42765
337.37563
337.38958
337.32292
337.3195
337.23629
337.2174
337.1218
337.09238
336.98914
336.95358
336.84628
336.80775
336.69875
336.65933
336.55007
336.51113
336.40245
336.36485
336.25717
336.22146
336.11498
336.08152
335.97627
335.94527
335.84119
335.81278
335.70976
335.68402
335.58191
335.5589
335.45753
335.43726
335.33648
335.31895
335.21859
335.20379
335.1037
335.0916
334.99166
334.98218
334.88233
334.87537
334.77555
334.77098
334.6712
334.66892
334.5691
337.46212
337.41877
337.44266
337.39365
337.41054
337.3502
337.35265
337.27772
337.26591
337.17892
337.15653
337.06132
337.03218
336.93199
336.89908
336.79624
336.76166
336.65767
336.62287
336.51868
336.4846
336.38076
336.34807
336.24488
336.21399
336.11157
336.08277
335.98115
335.95463
335.85375
335.82964
335.72942
335.70779
335.60812
335.58902
335.48978
335.47323
335.37429
335.36029
335.26154
335.25006
335.15142
335.14239
335.0438
335.03714
334.93857
334.93417
334.83561
334.8334
334.73476
337.4749
337.43208
337.45578
337.40922
337.42819
337.37307
337.38028
337.31255
337.30691
337.22772
337.21174
337.12404
337.10093
337.00759
336.98008
336.88328
336.85344
336.75472
336.72402
336.62439
336.59386
336.49398
336.46433
336.36457
336.33631
336.23688
336.21035
336.11136
336.08678
335.98824
335.96579
335.86766
335.84746
335.74967
335.73178
335.63427
335.61872
335.5214
335.50821
335.41099
335.40015
335.30298
335.29442
335.19726
335.19092
335.09375
335.08954
334.99234
334.99022
334.89291
337.48584
337.4437
337.46715
337.42266
337.44307
337.39226
337.40327
337.34176
337.34139
337.26921
337.25898
337.17826
337.16074
337.07391
337.05154
336.96061
336.93536
336.84184
336.81517
336.72013
336.69311
336.59725
336.57066
336.47444
336.44883
336.35253
336.3283
336.23208
336.2095
336.11344
336.0927
335.99682
335.97807
335.88234
335.86569
335.77007
335.75556
335.66002
335.64767
335.55214
335.54195
335.44641
335.43834
335.34277
335.33676
335.24114
335.23714
335.14144
335.13943
335.04358
337.495
337.45369
337.47691
337.43423
337.45561
337.40837
337.42237
337.36617
337.37027
337.30433
337.29919
337.22489
337.21248
337.13178
337.11423
337.02895
337.00808
336.91966
336.8969
336.80642
336.78286
336.69105
336.66749
336.57489
336.55193
336.45886
336.43693
336.34361
336.32303
336.2296
336.21059
336.1171
336.09984
336.00631
335.99092
335.89736
335.88389
335.79028
335.77879
335.68511
335.67559
335.58182
335.57426
335.48041
335.47475
335.38081
335.37703
335.28298
335.28107
335.18683
337.50242
337.46212
337.48515
337.44414
337.46614
337.42188
337.43818
337.38652
337.39434
337.33392
337.33323
337.26476
337.25698
337.18201
337.16892
337.08903
337.0723
336.98883
336.96983
336.88383
336.86362
336.77587
336.75529
336.66633
336.64599
336.55623
336.5366
336.44628
336.4277
336.337
336.31974
336.22876
336.21299
336.1218
336.10767
336.0163
336.0039
335.91236
335.90173
335.81003
335.80119
335.70934
335.70229
335.6103
335.60501
335.51288
335.50933
335.41704
335.41524
335.32273
337.50819
337.46907
337.492
337.45254
337.47494
337.43319
337.45124
337.40344
337.4143
337.35871
337.36185
337.29866
337.29501
337.22534
337.21635
337.14155
337.12869
337.04998
337.03454
336.95293
336.93595
336.85221
336.83452
336.74922
336.73145
336.64503
336.62767
336.54041
336.52383
336.43595
336.42042
336.33206
336.31779
336.22904
336.21619
336.12712
336.11578
336.02643
336.01667
335.92708
335.91893
335.82911
335.82259
335.73257
335.72765
335.63744
335.63413
335.54373
335.54205
335.45139
337.51241
337.47466
337.49756
337.4596
337.48223
337.44264
337.46197
337.41745
337.43076
337.37939
337.38578
337.32731
337.32729
337.26249
337.2572
337.18717
337.17789
337.10373
337.09164
337.01428
337.00037
336.92057
336.90567
336.82402
336.80874
336.72568
336.71053
336.62639
336.61176
336.52677
336.51295
336.42729
336.4145
336.32829
336.3167
336.23004
336.21977
336.13271
336.12383
336.03644
336.02899
335.94131
335.93531
335.84737
335.84284
335.75466
335.7516
335.66317
335.66162
335.57291
337.51523
337.47901
337.50195
337.46544
337.4882
337.45048
337.47073
337.429
337.44424
337.39651
337.40561
337.35135
337.35447
337.29411
337.29213
337.22654
337.22053
337.15068
337.1417
337.06843
337.05743
336.98148
336.96922
336.89117
336.87829
336.79859
336.78559
336.70458
336.69186
336.6098
336.59766
336.51476
336.50343
336.41983
336.4095
336.32532
336.3161
336.23143
336.22342
336.13833
336.13157
336.04612
336.04066
335.95489
335.95074
335.86468
335.86187
335.77552
335.7741
335.68744
337.51685
337.48226
337.50527
337.47019
337.493
337.45693
337.4778
337.43845
337.45516
337.41058
337.42189
337.37134
337.37715
337.32082
337.32174
337.26027
337.25721
337.1914
337.18529
337.11594
337.10764
337.03542
337.02567
336.95114
336.94056
336.86418
336.85325
336.77537
336.7645
336.6854
336.67489
336.5948
336.58489
336.50396
336.49485
336.41323
336.40505
336.32283
336.31568
336.23296
336.2269
336.14375
336.13883
336.0553
336.05155
335.96768
335.96514
335.88095
335.87965
335.79513
337.51746
337.48454
337.50765
337.47396
337.49676
337.46218
337.48343
337.44611
337.46389
337.42203
337.43509
337.38781
337.39586
337.34314
337.34659
337.28889
337.28846
337.22645
337.22295
337.15732
337.15152
337.08289
337.07549
337.0044
336.99598
336.92288
336.91392
336.83916
336.83006
336.75393
336.74499
336.66773
336.6592
336.58098
336.57307
336.49404
336.48688
336.40718
336.40087
336.32059
336.31521
336.23443
336.23003
336.14883
336.14546
336.06387
336.06158
335.97962
335.97846
335.89614
337.51728
337.48601
337.50921
337.47686
337.4996
337.46637
337.48781
337.45222
337.47074
337.43119
337.44561
337.40117
337.41107
337.36158
337.36718
337.31293
337.31481
337.25633
337.25517
337.19306
337.18955
337.12437
337.11914
337.05139
337.045
336.97511
336.96802
336.89634
336.88892
336.81575
336.80832
336.73389
336.7267
336.65121
336.64445
336.56807
336.56189
336.48474
336.47926
336.40146
336.39675
336.31839
336.31452
336.23568
336.2327
336.15344
336.1514
336.07174
336.0707
335.99067
337.51651
337.48681
337.51006
337.479
337.50163
337.46963
337.49108
337.45698
337.47596
337.43837
337.45377
337.41182
337.42318
337.37656
337.38397
337.33285
337.33673
337.28152
337.28244
337.22364
337.22219
337.1603
337.15707
337.09254
337.08804
337.02128
337.01593
336.94729
336.94147
336.87123
336.86524
336.79364
336.78772
336.71497
336.70932
336.63559
336.63037
336.5558
336.55111
336.47583
336.47178
336.39588
336.39252
336.3161
336.3135
336.23661
336.23483
336.15751
336.1566
336.07889
337.51531
337.48707
337.51031
337.48047
337.50294
337.47205
337.49338
337.46055
337.47972
337.44381
337.45988
337.42006
337.43254
337.38846
337.39734
337.34907
337.35464
337.30245
337.30519
337.24949
337.2499
337.19113
337.18971
337.12829
337.12552
337.0618
337.05808
336.99241
336.98808
336.92073
336.91609
336.84731
336.8426
336.77258
336.76799
336.69693
336.69261
336.62065
336.61673
336.54399
336.54056
336.46716
336.4643
336.39032
336.3881
336.31361
336.31208
336.23715
336.23636
336.16103
337.51384
337.4869
337.51005
337.48136
337.5036
337.47372
337.49479
337.46305
337.48219
337.4477
337.46414
337.42616
337.43945
337.39762
337.40766
337.36195
337.36894
337.31953
337.32382
337.27103
337.27307
337.21727
337.21748
337.15902
337.15783
337.09706
337.09483
337.03206
337.02912
336.96462
336.96125
336.89524
336.89167
336.82438
336.82079
336.75239
336.74894
336.67958
336.67639
336.60621
336.60339
336.53249
336.53011
336.4586
336.45673
336.38469
336.3834
336.31088
336.31022
336.23729
337.51219
337.48639
337.50937
337.48175
337.50368
337.4747
337.49538
337.46457
337.48348
337.45018
337.46675
337.43035
337.44416
337.40431
337.41524
337.37182
337.37996
337.3331
337.33872
337.28864
337.2921
337.23909
337.24075
337.18513
337.18536
337.12744
337.12657
337.06663
337.06496
337.00325
337.00105
336.93779
336.93527
336.87068
336.86803
336.80227
336.79964
336.73288
336.7304
336.66277
336.66052
336.59215
336.59022
336.5212
336.51967
336.45008
336.44902
336.37894
336.37839
336.30789
337.51042
337.48563
337.50834
337.48169
337.50323
337.47504
337.49521
337.46517
337.48368
337.45137
337.46784
337.4328
337.44689
337.40877
337.42032
337.37898
337.38803
337.3435
337.35022
337.30266
337.30733
337.25696
337.25989
337.20698
337.20848
337.15329
337.15366
337.09645
337.09595
337.03696
337.03584
336.97527
336.97374
336.9118
336.91003
336.8469
336.84504
336.78086
336.77903
336.71395
336.71225
336.64639
336.6449
336.57837
336.57716
336.51004
336.5092
336.44157
336.44113
336.37308
337.50856
337.48466
337.50702
337.48124
337.50228
337.47476
337.49429
337.46488
337.48284
337.45135
337.46753
337.43364
337.4478
337.4112
337.42315
337.38367
337.39341
337.35101
337.35863
337.3134
337.3191
337.27122
337.27524
337.22491
337.22753
337.17497
337.17643
337.12187
337.12243
337.06608
337.06595
337.00803
337.00739
336.94808
336.94711
336.88657
336.88542
336.82381
336.82259
336.76005
336.75885
336.6955
336.69442
336.63037
336.62948
336.56482
336.56418
336.49901
336.49868
336.43308
337.50663
337.48354
337.50544
337.48042
337.50085
337.47387
337.49264
337.46373
337.48099
337.45017
337.4659
337.43299
337.44702
337.41177
337.42392
337.38612
337.39633
337.35589
337.36421
337.32116
337.32771
337.28216
337.28712
337.23924
337.24282
337.19278
337.19522
337.14322
337.14472
337.09095
337.09171
337.03636
337.03655
336.9798
336.97958
336.92159
336.92109
336.86202
336.86136
336.80133
336.80061
336.73975
336.73905
336.67747
336.67687
336.61468
336.61423
336.55151
336.55127
336.48812
337.50464
337.48228
337.50365
337.47925
337.49894
337.47236
337.49024
337.4617
337.47813
337.44786
337.463
337.43094
337.44468
337.41061
337.42279
337.3865
337.39702
337.35838
337.36722
337.3262
337.33342
337.29008
337.29582
337.25026
337.25468
337.20705
337.21033
337.1608
337.16313
337.11186
337.11341
337.06058
337.0615
337.00727
337.00772
336.95224
336.95234
336.89577
336.89562
336.83808
336.83779
336.77941
336.77906
336.71994
336.7196
336.65986
336.65959
336.59932
336.59917
336.53846
337.50257
337.4809
337.50163
337.47773
337.49653
337.47021
337.48706
337.45877
337.47427
337.44443
337.45886
337.42753
337.44085
337.40784
337.4199
337.38499
337.39565
337.35868
337.36787
337.32875
337.33649
337.29522
337.3016
337.25825
337.26337
337.21805
337.22206
337.17491
337.17796
337.12911
337.13136
337.08097
337.08256
337.03078
337.03184
336.97882
336.97946
336.92534
336.92567
336.87058
336.87069
336.81475
336.81472
336.75804
336.75794
336.70063
336.70052
336.64268
336.64261
336.58434
337.50042
337.47941
337.49939
337.47584
337.49358
337.46737
337.48307
337.45492
337.46937
337.43989
337.4535
337.42281
337.4356
337.40355
337.41536
337.38172
337.39239
337.35695
337.36637
337.32902
337.33715
337.29784
337.30471
337.26347
337.26916
337.22606
337.23068
337.18582
337.18949
337.14299
337.14584
337.09783
337.1
337.05062
337.05221
337.0016
337.00272
336.95102
336.95177
336.89909
336.89956
336.84602
336.84629
336.79201
336.79214
336.73723
336.73728
336.68184
336.68185
336.62599
337.49817
337.47779
337.49691
337.47353
337.49003
337.46378
337.47819
337.45009
337.46341
337.43421
337.44693
337.41682
337.42898
337.39782
337.40927
337.37681
337.38737
337.35337
337.36288
337.32721
337.33559
337.29814
337.30539
337.26615
337.27231
337.23132
337.23645
337.19378
337.19798
337.15375
337.15712
337.11142
337.11408
337.06705
337.0691
337.02085
337.02239
336.97306
336.97418
336.92388
336.92466
336.8735
336.87402
336.82213
336.82245
336.76992
336.7701
336.71705
336.71713
336.66365
337.4958
337.47604
337.49413
337.47073
337.48581
337.45935
337.47236
337.44422
337.45634
337.42738
337.43915
337.40956
337.42105
337.3907
337.40172
337.37036
337.38071
337.34808
337.35758
337.32348
337.33201
337.29633
337.30384
337.26652
337.27302
337.23407
337.2396
337.19906
337.20369
337.16164
337.16545
337.122
337.12508
337.08032
337.08277
337.03683
337.03874
336.99172
336.99317
336.94519
336.94626
336.89744
336.89819
336.84863
336.84913
336.79895
336.79925
336.74855
336.74868
336.69757
337.4933
337.47412
337.491
337.46735
337.48081
337.454
337.46549
337.43725
337.44812
337.41936
337.43016
337.40107
337.41182
337.38226
337.39279
337.36247
337.37254
337.3412
337.3506
337.318
337.32658
337.29258
337.30026
337.26477
337.27152
337.23452
337.24036
337.20187
337.20684
337.16691
337.17108
337.1298
337.13324
337.09069
337.09348
337.04978
337.052
337.00726
337.00898
336.96329
336.96459
336.91807
336.91902
336.87177
336.87242
336.82455
336.82495
336.77658
336.77676
336.72798
337.49066
337.47199
337.48743
337.46329
337.47491
337.44762
337.4575
337.42912
337.43871
337.41014
337.41994
337.39134
337.40134
337.37254
337.38253
337.35322
337.36294
337.33284
337.34206
337.3109
337.31945
337.28706
337.29482
337.26109
337.26801
337.23288
337.23894
337.20242
337.20766
337.16978
337.17423
337.13506
337.13878
337.09839
337.10146
337.05995
337.06243
337.0199
337.02185
336.97841
336.97991
336.93564
336.93676
336.89178
336.89255
336.84697
336.84746
336.80137
336.8016
336.75511
337.48784
337.4696
337.4833
337.4584
337.46799
337.44009
337.44831
337.41976
337.42805
337.3997
337.40849
337.3804
337.38962
337.36159
337.371
337.34269
337.35202
337.32311
337.33209
337.30232
337.31076
337.27992
337.28769
337.25564
337.26265
337.22933
337.23554
337.20093
337.20635
337.17045
337.17511
337.13799
337.14193
337.10364
337.10692
337.06756
337.07024
337.02988
337.03202
336.99077
336.99244
336.95039
336.95163
336.90889
336.90977
336.86642
336.86698
336.82315
336.82342
336.7792
337.48481
337.46685
337.47847
337.45254
337.45991
337.43131
337.43781
337.4091
337.41611
337.388
337.3958
337.36826
337.37671
337.34945
337.35827
337.33095
337.33984
337.31211
337.32081
337.29238
337.30065
337.27131
337.27901
337.2486
337.25562
337.22405
337.23033
337.19756
337.2031
337.16913
337.17393
337.1388
337.1429
337.10666
337.1101
337.07282
337.07566
337.03742
337.03971
337.0006
337.0024
336.96252
336.96388
336.92332
336.92428
336.88315