/*--------------------------------*- C++ -*----------------------------------*\
| =========                 |                                                 |
| \\      /  F ield         | OpenFOAM: The Open Source CFD Toolbox           |
|  \\    /   O peration     | Version:  2312                                  |
|   \\  /    A nd           | Website:  www.openfoam.com                      |
|    \\/     M anipulation  |                                                 |
\*---------------------------------------------------------------------------*/
FoamFile
{
    version     2.0;
    format      ascii;
    arch        "LSB;label=32;scalar=64";
    class       surfaceScalarField;
    location    "5";
    object      phi;
}
// * * * * * * * * * * * * * * * * * * * * * * * * * * * * * * * * * * * * * //

dimensions      [0 3 -1 0 0 0 0];

oriented        oriented;

internalField   nonuniform List<scalar> 
7870
(
1.8620351e-10
3.2754215e-09
1.798119e-10
6.3916062e-12
1.3086007e-10
4.8951839e-11
1.4048495e-10
-9.6248774e-12
1.3428175e-10
6.203197e-12
1.3498583e-10
-7.0406085e-13
1.3315635e-10
1.8294757e-12
1.3354013e-10
-3.837592e-13
1.3262998e-10
9.1015873e-13
1.3325248e-10
-6.2248784e-13
1.3255076e-10
7.0171644e-13
1.3318391e-10
-6.3314485e-13
1.3256632e-10
6.1758384e-13
1.3314532e-10
-5.7901116e-13
1.3259556e-10
5.4975111e-13
1.3311172e-10
-5.1616899e-13
1.3262441e-10
4.873139e-13
1.3308232e-10
-4.5792415e-13
1.3265055e-10
4.3176975e-13
1.3305696e-10
-4.0641265e-13
1.3267365e-10
3.8330889e-13
1.3303502e-10
-3.6137261e-13
1.3269388e-10
3.4113723e-13
1.3301597e-10
-3.2208686e-13
1.3271156e-10
3.044144e-13
1.329994e-10
-2.8783655e-13
1.3272697e-10
2.7242635e-13
1.3298497e-10
-2.5799814e-13
1.3274038e-10
2.4458633e-13
1.3297243e-10
-2.3205014e-13
1.3275202e-10
2.2041401e-13
1.3296158e-10
-2.0956168e-13
1.3276207e-10
1.9951613e-13
1.3295224e-10
-1.9017798e-13
1.3277067e-10
1.8157007e-13
1.3294428e-10
-1.7360704e-13
1.3277797e-10
1.6631058e-13
1.3293758e-10
-1.5960819e-13
1.3278406e-10
1.5351938e-13
1.3293204e-10
-1.479832e-13
1.3278902e-10
1.430172e-13
1.329276e-10
-1.385716e-13
1.3279294e-10
1.3465171e-13
1.329242e-10
-1.312584e-13
1.327959e-10
1.2829968e-13
1.3292174e-10
-1.25836e-13
1.3279727e-10
1.2446641e-13
1.3291755e-10
-1.202736e-13
1.3278983e-10
1.2771237e-13
-1.1600713e-13
4.6887056e-10
6.2681759e-09
5.0155733e-10
-2.629516e-11
3.9231757e-10
1.581916e-10
4.0419145e-10
-2.1498731e-11
3.9033211e-10
2.0062538e-11
3.9081895e-10
-1.1908544e-12
3.8714836e-10
5.5000696e-12
3.8701036e-10
-2.4571178e-13
3.8555391e-10
2.3666097e-12
3.8627494e-10
-1.3434983e-12
3.8526902e-10
1.7076352e-12
3.8614633e-10
-1.510463e-12
3.8526335e-10
1.5005465e-12
3.8609142e-10
-1.407098e-12
3.8529942e-10
1.3417367e-12
3.8604249e-10
-1.2592628e-12
3.8533886e-10
1.1909358e-12
3.8599932e-10
-1.1183986e-12
3.8537576e-10
1.0553243e-12
3.8596241e-10
-9.9306712e-13
3.8540879e-10
9.3692839e-13
3.8593066e-10
-8.8325166e-13
3.8543788e-10
8.3392125e-13
3.8590316e-10
-7.8736646e-13
3.8546337e-10
7.442137e-13
3.8587925e-10
-7.0371201e-13
3.8548563e-10
6.6604764e-13
3.8585842e-10
-6.3079285e-13
3.8550502e-10
5.9799205e-13
3.8584032e-10
-5.6735213e-13
3.8552185e-10
5.3888082e-13
3.8582464e-10
-5.1234901e-13
3.855364e-10
4.877608e-13
3.8581114e-10
-4.6492507e-13
3.8554886e-10
4.438499e-13
3.8579963e-10
-4.2437251e-13
3.8555944e-10
4.0650406e-13
3.8578993e-10
-3.9010662e-13
3.8556826e-10
3.7519217e-13
3.8578192e-10
-3.6164405e-13
3.8557546e-10
3.4947719e-13
3.8577548e-10
-3.3859241e-13
3.8558115e-10
3.2898111e-13
3.8577058e-10
-3.2068916e-13
3.8558553e-10
3.1334912e-13
3.8576716e-10
-3.0746319e-13
3.8558759e-10
3.0403648e-13
3.8575983e-10
-2.9251275e-13
3.8556924e-10
3.1829549e-13
-2.8279955e-13
6.9541163e-10
9.0343893e-09
7.9367164e-10
-1.2455516e-10
6.4655752e-10
3.0530573e-10
6.6054639e-10
-3.5487574e-11
6.3946104e-10
4.1147898e-11
6.3957895e-10
-1.3087128e-12
6.3468024e-10
1.0398786e-11
6.3367592e-10
7.5865564e-13
6.3215527e-10
3.8872641e-12
6.326002e-10
-1.7884114e-12
6.316734e-10
2.6344297e-12
6.3245301e-10
-2.2900806e-12
6.316335e-10
2.3200375e-12
6.3240528e-10
-2.1789047e-12
6.3165963e-10
2.0873727e-12
6.3235901e-10
-1.9586708e-12
6.3169395e-10
1.8559897e-12
6.3231734e-10
-1.7418042e-12
6.3172769e-10
1.6449674e-12
6.3228208e-10
-1.5474669e-12
6.3175847e-10
1.4605358e-12
6.3225199e-10
-1.3767677e-12
6.3178581e-10
1.3000985e-12
6.3222599e-10
-1.2275415e-12
6.3180986e-10
1.1603517e-12
6.3220339e-10
-1.0972437e-12
6.318309e-10
1.0385379e-12
6.3218371e-10
-9.8359474e-13
6.3184927e-10
9.3243414e-13
6.3216658e-10
-8.8466767e-13
6.3186523e-10
8.4023779e-13
6.3215174e-10
-7.9886239e-13
6.3187902e-10
7.6047787e-13
6.3213895e-10
-7.2485629e-13
6.3189086e-10
6.9194663e-13
6.3212804e-10
-6.6155634e-13
6.319009e-10
6.336474e-13
6.3211885e-10
-6.0805675e-13
6.3190928e-10
5.8475604e-13
6.3211124e-10
-5.6360563e-13
6.3191613e-10
5.4459255e-13
6.3210512e-10
-5.2759014e-13
6.3192155e-10
5.1255646e-13
6.3210049e-10
-4.9963e-13
6.3192583e-10
4.8800674e-13
6.3209739e-10
-4.7902245e-13
6.3192779e-10
4.7363983e-13
6.3208849e-10
-4.5321466e-13
6.3190007e-10
5.0671182e-13
-4.3952185e-13
9.7785102e-10
1.1518163e-08
1.0721618e-09
-2.1886597e-10
8.9218747e-10
4.852801e-10
9.0973447e-10
-5.3034542e-11
8.814568e-10
6.9425569e-11
8.8149667e-10
-1.3485336e-12
8.7551446e-10
1.6381013e-11
8.7375103e-10
2.5221314e-12
8.7223797e-10
5.4003217e-12
8.7241921e-10
-1.9696299e-12
8.7158762e-10
3.4660196e-12
8.7227161e-10
-2.9740891e-12
8.715205e-10
3.0711346e-12
8.7223483e-10
-2.893258e-12
8.7153816e-10
2.7840302e-12
8.7219196e-10
-2.6124986e-12
8.7156759e-10
2.4803462e-12
8.7215201e-10
-2.326241e-12
8.7159816e-10
2.1988167e-12
8.7211854e-10
-2.067859e-12
8.7162663e-10
1.9524488e-12
8.7209018e-10
-1.8403237e-12
8.7165213e-10
1.738152e-12
8.7206575e-10
-1.6411595e-12
8.7167465e-10
1.5514541e-12
8.7204452e-10
-1.4671109e-12
8.7169441e-10
1.3886498e-12
8.7202602e-10
-1.3152038e-12
8.7171168e-10
1.2467802e-12
8.7200992e-10
-1.1829073e-12
8.717267e-10
1.1234574e-12
8.7199595e-10
-1.0681134e-12
8.7173969e-10
1.0167351e-12
8.7198391e-10
-9.6907481e-13
8.7175085e-10
9.2501362e-13
8.7197363e-10
-8.8434358e-13
8.7176031e-10
8.4696971e-13
8.7196497e-10
-8.127155e-13
8.7176822e-10
7.8150567e-13
8.719578e-10
-7.5318643e-13
8.7177468e-10
7.2771308e-13
8.7195202e-10
-7.0493366e-13
8.717798e-10
6.8477368e-13
8.7194766e-10
-6.6748412e-13
8.7178396e-10
6.5170282e-13
8.719449e-10
-6.3996577e-13
8.7178598e-10
6.325615e-13
8.7193513e-10
-6.02361e-13
8.7175112e-10
6.9072467e-13
-5.8585138e-13
1.1699795e-09
1.3809809e-08
1.327211e-09
-3.7609748e-10
1.1307601e-09
6.8173098e-10
1.1521624e-09
-7.4436737e-11
1.116299e-09
1.0528899e-10
1.1165663e-09
-1.615811e-12
1.109623e-09
2.3324305e-11
1.1072354e-09
4.9098302e-12
1.1058022e-09
6.8335083e-12
1.1057343e-09
-1.9017117e-12
1.1050116e-09
4.1886599e-12
1.1056026e-09
-3.5650346e-12
1.1049239e-09
3.7497331e-12
1.10558e-09
-3.549317e-12
1.1049346e-09
3.4294021e-12
1.1055412e-09
-3.2191029e-12
1.1049594e-09
3.0620601e-12
1.1055032e-09
-2.8699973e-12
1.1049869e-09
2.7151293e-12
1.1054716e-09
-2.5526421e-12
1.105013e-09
2.4111023e-12
1.1054451e-09
-2.2724529e-12
1.1050366e-09
2.1466686e-12
1.1054223e-09
-2.0268832e-12
1.1050575e-09
1.9162403e-12
1.1054025e-09
-1.8120979e-12
1.105076e-09
1.7152224e-12
1.1053853e-09
-1.6245174e-12
1.1050921e-09
1.5399798e-12
1.1053703e-09
-1.4610737e-12
1.1051061e-09
1.3875911e-12
1.1053572e-09
-1.3192022e-12
1.1051183e-09
1.2556773e-12
1.105346e-09
-1.19677e-12
1.1051287e-09
1.1422806e-12
1.1053364e-09
-1.0920038e-12
1.1051375e-09
1.0457766e-12
1.1053283e-09
-1.0034237e-12
1.1051449e-09
9.6481338e-13
1.1053215e-09
-9.2978935e-13
1.105151e-09
8.9826871e-13
1.1053161e-09
-8.7007866e-13
1.1051558e-09
8.4511303e-13
1.1053121e-09
-8.2374702e-13
1.1051598e-09
8.0396478e-13
1.1053097e-09
-7.8983218e-13
1.105162e-09
7.8027258e-13
1.1052995e-09
-7.3987607e-13
1.1051218e-09
8.6841729e-13
-7.2046894e-13
1.4043371e-09
1.5867097e-08
1.5760725e-09
-5.478329e-10
1.3616169e-09
8.9618663e-10
1.3871732e-09
-9.999309e-11
1.3440165e-09
1.4844571e-10
1.3447938e-09
-2.3930697e-12
1.3369948e-09
3.1123329e-11
1.3341398e-09
7.7648733e-12
1.3328502e-09
8.1231756e-12
1.3325496e-09
-1.601175e-12
1.3319461e-09
4.7921846e-12
1.3324471e-09
-4.0659999e-12
1.3318438e-09
4.3530229e-12
1.3324412e-09
-4.1468039e-12
1.3318488e-09
4.0218473e-12
1.332407e-09
-3.7773385e-12
1.3318693e-09
3.5996683e-12
1.3323711e-09
-3.3717847e-12
1.3318937e-09
3.1925673e-12
1.3323416e-09
-3.0005819e-12
1.3319174e-09
2.8352824e-12
1.332317e-09
-2.6720106e-12
1.3319391e-09
2.5245424e-12
1.3322959e-09
-2.3836611e-12
1.3319584e-09
2.253702e-12
1.3322776e-09
-2.1312437e-12
1.3319755e-09
2.0173387e-12
1.3322616e-09
-1.910662e-12
1.3319904e-09
1.8112019e-12
1.3322477e-09
-1.7183769e-12
1.3320034e-09
1.631889e-12
1.3322356e-09
-1.5514172e-12
1.3320147e-09
1.4766304e-12
1.3322252e-09
-1.4073024e-12
1.3320243e-09
1.3431425e-12
1.3322163e-09
-1.2839633e-12
1.3320325e-09
1.2295248e-12
1.3322088e-09
-1.1796656e-12
1.3320394e-09
1.1341902e-12
1.3322026e-09
-1.0929497e-12
1.332045e-09
1.0558177e-12
1.3321975e-09
-1.0226044e-12
1.3320495e-09
9.9317504e-13
1.3321938e-09
-9.6803181e-13
1.3320533e-09
9.4443722e-13
1.3321917e-09
-9.2827081e-13
1.3320556e-09
9.1639291e-13
1.3321815e-09
-8.6573646e-13
1.3320117e-09
1.0381443e-12
-8.4232464e-13
1.5992662e-09
1.7729455e-08
1.7998498e-09
-7.4841645e-10
1.5857663e-09
1.1102701e-09
1.6140875e-09
-1.2831423e-10
1.5647125e-09
1.9782065e-10
1.5662238e-09
-3.9042986e-12
1.5576495e-09
3.9697675e-11
1.5544841e-09
1.0930289e-11
1.5533846e-09
9.22267e-12
1.5528699e-09
-1.0864237e-12
1.552392e-09
5.2700289e-12
1.5528063e-09
-4.4803053e-12
1.5522799e-09
4.8794054e-12
1.552819e-09
-4.6858893e-12
1.5522804e-09
4.5603671e-12
1.5527896e-09
-4.2865318e-12
1.5522971e-09
4.0921836e-12
1.552756e-09
-3.8307425e-12
1.5523184e-09
3.6301987e-12
1.5527286e-09
-3.4108221e-12
1.5523398e-09
3.2241302e-12
1.5527059e-09
-3.0381853e-12
1.5523595e-09
2.8709816e-12
1.5526866e-09
-2.7107368e-12
1.5523772e-09
2.5631107e-12
1.5526698e-09
-2.4238512e-12
1.5523928e-09
2.2943324e-12
1.5526551e-09
-2.1730017e-12
1.5524065e-09
2.0598417e-12
1.5526424e-09
-1.9542413e-12
1.5524185e-09
1.8558059e-12
1.5526313e-09
-1.7642409e-12
1.5524288e-09
1.6791051e-12
1.5526217e-09
-1.6002089e-12
1.5524377e-09
1.5271616e-12
1.5526135e-09
-1.4598077e-12
1.5524452e-09
1.3978228e-12
1.5526066e-09
-1.3410708e-12
1.5524515e-09
1.2892856e-12
1.5526009e-09
-1.2423351e-12
1.5524567e-09
1.2000449e-12
1.5525963e-09
-1.1622116e-12
1.5524608e-09
1.1286764e-12
1.5525928e-09
-1.1000643e-12
1.5524644e-09
1.0728743e-12
1.5525912e-09
-1.0550317e-12
1.5524669e-09
1.0406701e-12
1.5525811e-09
-9.7996844e-13
1.5524207e-09
1.1985168e-12
-9.5084881e-13
1.7877514e-09
1.9403329e-08
2.0158559e-09
-9.7652097e-10
1.7999048e-09
1.3262213e-09
1.8277705e-09
-1.5617994e-10
1.7778225e-09
2.4776863e-10
1.78073e-09
-6.8117511e-12
1.7715761e-09
4.8851631e-11
1.7682831e-09
1.4223314e-11
1.7674053e-09
1.0100461e-11
1.7666984e-09
-3.7948156e-13
1.7663501e-09
5.6183126e-12
1.7666812e-09
-4.8114357e-12
1.7662324e-09
5.3281821e-12
1.7667136e-09
-5.167086e-12
1.7662295e-09
5.0444753e-12
1.7666893e-09
-4.7463892e-12
1.7662425e-09
4.5390144e-12
1.7666581e-09
-4.2463659e-12
1.7662608e-09
4.027434e-12
1.7666328e-09
-3.7828244e-12
1.7662799e-09
3.5770888e-12
1.7666121e-09
-3.3704483e-12
1.7662977e-09
3.1854624e-12
1.7665945e-09
-3.0076072e-12
1.7663137e-09
2.8439778e-12
1.7665793e-09
-2.6894519e-12
1.7663278e-09
2.5457537e-12
1.766566e-09
-2.4111069e-12
1.7663403e-09
2.2854907e-12
1.7665543e-09
-2.1682789e-12
1.7663512e-09
2.0589749e-12
1.7665443e-09
-1.9573262e-12
1.7663606e-09
1.8627745e-12
1.7665356e-09
-1.7751806e-12
1.7663687e-09
1.6940476e-12
1.7665281e-09
-1.6192633e-12
1.7663755e-09
1.5504133e-12
1.7665219e-09
-1.4873962e-12
1.7663813e-09
1.4298709e-12
1.7665167e-09
-1.3777297e-12
1.766386e-09
1.3307465e-12
1.7665125e-09
-1.2887079e-12
1.7663897e-09
1.2514366e-12
1.7665093e-09
-1.2196697e-12
1.7663931e-09
1.1891262e-12
1.766508e-09
-1.1699539e-12
1.7663957e-09
1.1529587e-12
1.7664984e-09
-1.0826428e-12
1.7663485e-09
1.3483707e-12
-1.0458383e-12
1.9584709e-09
2.0906483e-08
2.2073921e-09
-1.2254422e-09
2.0064191e-09
1.5271943e-09
2.0274987e-09
-1.772595e-10
1.9833604e-09
2.9190693e-10
1.9882473e-09
-1.1698579e-11
1.9787955e-09
5.8303392e-11
1.975549e-09
1.7469857e-11
1.9749121e-09
1.0737423e-11
1.9740385e-09
4.9407031e-13
1.9738216e-09
5.8353004e-12
1.9740728e-09
-5.0626586e-12
1.9737015e-09
5.6994463e-12
1.9741255e-09
-5.5910906e-12
1.9736958e-09
5.474134e-12
1.9741063e-09
-5.1569051e-12
1.9737054e-09
4.9399081e-12
1.9740774e-09
-4.6184425e-12
1.9737209e-09
4.3839741e-12
1.9740544e-09
-4.1163186e-12
1.9737376e-09
3.8938577e-12
1.9740357e-09
-3.6685122e-12
1.9737534e-09
3.4676903e-12
1.9740198e-09
-3.2739867e-12
1.9737678e-09
3.0960224e-12
1.9740061e-09
-2.9277742e-12
1.9737805e-09
2.771342e-12
1.9739941e-09
-2.6247281e-12
1.9737917e-09
2.4879127e-12
1.9739837e-09
-2.3602655e-12
1.9738015e-09
2.2411857e-12
1.9739747e-09
-2.1304751e-12
1.97381e-09
2.0274539e-12
1.9739668e-09
-1.9320446e-12
1.9738172e-09
1.8436396e-12
1.9739602e-09
-1.7621798e-12
1.9738234e-09
1.6871566e-12
1.9739545e-09
-1.6185115e-12
1.9738286e-09
1.555825e-12
1.9739499e-09
-1.4990204e-12
1.9738328e-09
1.4478176e-12
1.9739461e-09
-1.4019957e-12
1.9738362e-09
1.3613656e-12
1.9739432e-09
-1.3267616e-12
1.9738392e-09
1.2931276e-12
1.9739422e-09
-1.2729554e-12
1.973842e-09
1.2532059e-12
1.9739332e-09
-1.1738706e-12
1.9737949e-09
1.4867413e-12
-1.1273492e-12
2.1203333e-09
2.2247775e-08
2.3938424e-09
-1.4989513e-09
2.2011024e-09
1.7199343e-09
2.2152044e-09
-1.9136154e-10
2.1817086e-09
3.2540281e-10
2.1885945e-09
-1.8584478e-11
2.1793188e-09
6.7579182e-11
2.1762876e-09
2.0501035e-11
2.1759059e-09
1.1119194e-11
2.1748932e-09
1.5067058e-12
2.1748077e-09
5.92085e-12
2.1749817e-09
-5.2367202e-12
2.1746872e-09
5.9939423e-12
2.1750548e-09
-5.9587381e-12
2.1746793e-09
5.8496695e-12
2.1750407e-09
-5.5183213e-12
2.1746857e-09
5.2948986e-12
2.1750142e-09
-4.947012e-12
2.1746984e-09
4.6997707e-12
2.1749934e-09
-4.4112668e-12
2.1747129e-09
4.1743595e-12
2.1749767e-09
-3.9323003e-12
2.1747268e-09
3.7175729e-12
2.1749626e-09
-3.5097821e-12
2.1747395e-09
3.3191476e-12
2.1749504e-09
-3.1387228e-12
2.1747507e-09
2.9710046e-12
2.1749398e-09
-2.8137768e-12
2.1747607e-09
2.6670249e-12
2.1749305e-09
-2.5301239e-12
2.1747694e-09
2.4023683e-12
2.1749225e-09
-2.2836232e-12
2.1747769e-09
2.1730861e-12
2.1749156e-09
-2.0707492e-12
2.1747833e-09
1.9758927e-12
2.1749097e-09
-1.8885169e-12
2.1747888e-09
1.8080182e-12
2.1749047e-09
-1.7343867e-12
2.1747934e-09
1.6671227e-12
2.1749005e-09
-1.606186e-12
2.1747971e-09
1.5512412e-12
2.1748972e-09
-1.5020623e-12
2.1748001e-09
1.4584551e-12
2.1748947e-09
-1.4213329e-12
2.1748029e-09
1.384889e-12
2.174894e-09
-1.3640261e-12
2.1748057e-09
1.3414395e-12
2.1748857e-09
-1.2538013e-12
2.1747596e-09
1.6128445e-12
-1.1956337e-12
2.275868e-09
2.3433532e-08
2.5550354e-09
-1.7781187e-09
2.3845817e-09
1.890388e-09
2.3953878e-09
-2.0216754e-10
2.3732131e-09
3.4757745e-10
2.3814863e-09
-2.6857629e-11
2.3731365e-09
7.5928964e-11
2.3705102e-09
2.312742e-11
2.3703862e-09
1.1243194e-11
2.3692648e-09
2.6281147e-12
2.3693098e-09
5.8758504e-12
2.3694088e-09
-5.3357388e-12
2.3691898e-09
6.2129375e-12
2.369502e-09
-6.2709707e-12
2.36918e-09
6.1717149e-12
2.3694927e-09
-5.8310835e-12
2.3691833e-09
5.6042722e-12
2.3694686e-09
-5.232328e-12
2.3691934e-09
4.9749969e-12
2.3694499e-09
-4.6678333e-12
2.3692056e-09
4.4187155e-12
2.3694352e-09
-4.1619229e-12
2.3692176e-09
3.9351983e-12
2.3694229e-09
-3.7150723e-12
2.3692286e-09
3.5134222e-12
2.3694122e-09
-3.3223607e-12
2.3692384e-09
3.1448007e-12
2.369403e-09
-2.9783093e-12
2.3692471e-09
2.8228834e-12
2.3693949e-09
-2.6779092e-12
2.3692547e-09
2.5425786e-12
2.3693879e-09
-2.4168265e-12
2.3692613e-09
2.2997284e-12
2.3693819e-09
-2.191352e-12
2.3692669e-09
2.0908653e-12
2.3693767e-09
-1.9983335e-12
2.3692717e-09
1.9130582e-12
2.3693724e-09
-1.8350817e-12
2.3692757e-09
1.7638251e-12
2.3693688e-09
-1.6992879e-12
2.3692789e-09
1.6410793e-12
2.3693658e-09
-1.5889707e-12
2.3692815e-09
1.5427693e-12
2.3693636e-09
-1.5034472e-12
2.369284e-09
1.4644881e-12
2.3693632e-09
-1.4432201e-12
2.3692869e-09
1.4177578e-12
2.3693557e-09
-1.3226205e-12
2.3692425e-09
1.7260609e-12
-1.251098e-12
2.4218869e-09
2.447327e-08
2.7135035e-09
-2.0697353e-09
2.5607577e-09
2.0431338e-09
2.5698286e-09
-2.1123838e-10
2.5581442e-09
3.5926186e-10
2.5670418e-09
-3.5755192e-11
2.5603244e-09
8.2646313e-11
2.5582385e-09
2.5213426e-11
2.5583562e-09
1.1125477e-11
2.5571561e-09
3.8281777e-12
2.5573298e-09
5.7022089e-12
2.5573547e-09
-5.3606658e-12
2.5572094e-09
6.3582562e-12
2.5574671e-09
-6.5287805e-12
2.5571977e-09
6.441153e-12
2.5574624e-09
-6.0958221e-12
2.5571981e-09
5.8685232e-12
2.5574406e-09
-5.4748368e-12
2.5572056e-09
5.2100166e-12
2.5574241e-09
-4.8863626e-12
2.5572156e-09
4.6272218e-12
2.5574114e-09
-4.3576572e-12
2.5572257e-09
4.1208159e-12
2.5574008e-09
-3.890091e-12
2.5572351e-09
3.6790634e-12
2.5573917e-09
-3.4788937e-12
2.5572435e-09
3.2929264e-12
2.5573837e-09
-3.118513e-12
2.557251e-09
2.9556689e-12
2.5573768e-09
-2.8037955e-12
2.5572574e-09
2.6619859e-12
2.5573709e-09
-2.5302488e-12
2.5572631e-09
2.4075405e-12
2.5573657e-09
-2.2940078e-12
2.5572679e-09
2.188709e-12
2.5573613e-09
-2.091777e-12
2.5572719e-09
2.0024204e-12
2.5573576e-09
-1.9207368e-12
2.5572754e-09
1.8460696e-12
2.5573545e-09
-1.7784606e-12
2.5572781e-09
1.7174642e-12
2.557352e-09
-1.6628516e-12
2.5572804e-09
1.6144374e-12
2.5573501e-09
-1.5732315e-12
2.5572826e-09
1.5320629e-12
2.55735e-09
-1.5106498e-12
2.5572854e-09
1.4823204e-12
2.5573434e-09
-1.3805467e-12
2.5572435e-09
1.8259209e-12
-1.2942659e-12
2.5675438e-09
2.5367351e-08
2.8523785e-09
-2.35457e-09
2.730558e-09
2.1649543e-09
2.7389629e-09
-2.1964328e-10
2.7365915e-09
3.6163335e-10
2.7456778e-09
-4.4841504e-11
2.7409744e-09
8.7349716e-11
2.739487e-09
2.6700863e-11
2.7398177e-09
1.0794844e-11
2.7385682e-09
5.0776244e-12
2.7388691e-09
5.4013514e-12
2.7388198e-09
-5.3113537e-12
2.7387459e-09
6.4321164e-12
2.7389503e-09
-6.7332351e-12
2.7387324e-09
6.6590373e-12
2.7389499e-09
-6.3133449e-12
2.7387301e-09
6.0883139e-12
2.7389304e-09
-5.6751562e-12
2.7387351e-09
5.4053598e-12
2.7389161e-09
-5.0673589e-12
2.738743e-09
4.8003307e-12
2.7389052e-09
-4.5199301e-12
2.7387512e-09
4.2748204e-12
2.7388963e-09
-4.0352111e-12
2.738759e-09
3.8164231e-12
2.7388888e-09
-3.6086557e-12
2.738766e-09
3.4157003e-12
2.7388822e-09
-3.2346923e-12
2.7387722e-09
3.0656741e-12
2.7388764e-09
-2.9080632e-12
2.7387776e-09
2.7608607e-12
2.7388715e-09
-2.62415e-12
2.7387822e-09
2.4967735e-12
2.7388672e-09
-2.3789583e-12
2.7387862e-09
2.2696574e-12
2.7388635e-09
-2.1690727e-12
2.7387896e-09
2.0763233e-12
2.7388604e-09
-1.9915637e-12
2.7387925e-09
1.9140618e-12
2.7388579e-09
-1.8439037e-12
2.7387948e-09
1.7805908e-12
2.7388558e-09
-1.7238957e-12
2.7387966e-09
1.6736462e-12
2.7388542e-09
-1.6308689e-12
2.7387985e-09
1.587804e-12
2.7388543e-09
-1.5664793e-12
2.7388013e-09
1.5353401e-12
2.7388486e-09
-1.4278291e-12
2.7387624e-09
1.912092e-12
-1.3257484e-12
2.7152588e-09
2.6113717e-08
2.9940664e-09
-2.6333776e-09
2.8953338e-09
2.2636869e-09
2.9020981e-09
-2.2640755e-10
2.9086976e-09
3.5503391e-10
2.9178106e-09
-5.3954538e-11
2.9151658e-09
8.9994518e-11
2.914281e-09
2.7585762e-11
2.9147743e-09
1.0301564e-11
2.9135031e-09
6.3488206e-12
2.91393e-09
4.9744881e-12
2.9138049e-09
-5.1862636e-12
2.9137996e-09
6.437333e-12
2.9139517e-09
-6.8853228e-12
2.9137841e-09
6.8266163e-12
2.9139553e-09
-6.4845893e-12
2.9137792e-09
6.2644601e-12
2.913938e-09
-5.8340536e-12
2.9137817e-09
5.561703e-12
2.9139258e-09
-5.2114698e-12
2.9137875e-09
4.9386331e-12
2.9139169e-09
-4.6493028e-12
2.9137939e-09
4.3977364e-12
2.9139097e-09
-4.1509304e-12
2.9138001e-09
3.9259729e-12
2.9139036e-09
-3.7120959e-12
2.9138057e-09
3.5135512e-12
2.9138983e-09
-3.3272564e-12
2.9138107e-09
3.1532909e-12
2.9138937e-09
-2.9910873e-12
2.913815e-09
2.8395629e-12
2.9138897e-09
-2.6988749e-12
2.9138187e-09
2.5677588e-12
2.9138863e-09
-2.4465217e-12
2.9138219e-09
2.334017e-12
2.9138834e-09
-2.2305152e-12
2.9138246e-09
2.1350514e-12
2.9138809e-09
-2.0478362e-12
2.9138269e-09
1.968067e-12
2.9138789e-09
-1.8958742e-12
2.9138288e-09
1.8307086e-12
2.9138772e-09
-1.7723464e-12
2.9138302e-09
1.7206333e-12
2.913876e-09
-1.6765922e-12
2.9138318e-09
1.6319486e-12
2.9138762e-09
-1.6109188e-12
2.9138345e-09
1.5770751e-12
2.9138714e-09
-1.4647443e-12
2.9137992e-09
1.9843655e-12
-1.3462171e-12
2.8529143e-09
2.6722428e-08
3.1200451e-09
-2.9005084e-09
3.0549305e-09
2.3288014e-09
3.0593115e-09
-2.3078845e-10
3.0745637e-09
3.3978164e-10
3.0837686e-09
-6.315937e-11
3.0829651e-09
9.0798034e-11
3.0826387e-09
2.7912204e-11
3.0832269e-09
9.7133822e-12
3.0819611e-09
7.6146408e-12
3.0825132e-09
4.4223437e-12
3.0823103e-09
-4.9833484e-12
3.0823706e-09
6.3770492e-12
3.0824712e-09
-6.9860218e-12
3.0823526e-09
6.9452542e-12
3.0824786e-09
-6.6106346e-12
3.0823452e-09
6.3978934e-12
3.0824635e-09
-5.9524393e-12
3.0823454e-09
5.6798481e-12
3.0824534e-09
-5.3194742e-12
3.0823492e-09
5.0428437e-12
3.0824463e-09
-4.7464584e-12
3.0823539e-09
4.4902047e-12
3.0824408e-09
-4.2378592e-12
3.0823585e-09
4.0082921e-12
3.0824361e-09
-3.7897659e-12
3.0823627e-09
3.5870054e-12
3.0824321e-09
-3.3967072e-12
3.0823664e-09
3.2189993e-12
3.0824287e-09
-3.0533261e-12
3.0823697e-09
2.8985314e-12
3.0824257e-09
-2.7548431e-12
3.0823725e-09
2.6208989e-12
3.0824231e-09
-2.4970833e-12
3.082375e-09
2.3821577e-12
3.0824209e-09
-2.2764597e-12
3.082377e-09
2.1789463e-12
3.0824191e-09
-2.0898835e-12
3.0823787e-09
2.0084029e-12
3.0824175e-09
-1.9346792e-12
3.0823801e-09
1.8681155e-12
3.0824163e-09
-1.8084935e-12
3.0823812e-09
1.7556808e-12
3.0824153e-09
-1.7106775e-12
3.0823825e-09
1.6647748e-12
3.0824158e-09
-1.644219e-12
3.082385e-09
1.6078229e-12
3.0824119e-09
-1.4915933e-12
3.0823536e-09
2.0426453e-12
-1.3563829e-12
3.0024631e-09
2.718159e-08
3.2512008e-09
-3.1492461e-09
3.2099449e-09
2.3700574e-09
3.2105565e-09
-2.3140004e-10
3.2343646e-09
3.1597353e-10
3.2436671e-09
-7.2461795e-11
3.2443868e-09
9.007836e-11
3.2445694e-09
2.7729672e-11
3.2451764e-09
9.1063502e-12
3.2439455e-09
8.8455472e-12
3.2446188e-09
3.7490261e-12
3.2443365e-09
-4.7010542e-12
3.2444589e-09
6.2547151e-12
3.2445091e-09
-7.0362449e-12
3.2444379e-09
7.0164426e-12
3.2445199e-09
-6.6926642e-12
3.2444281e-09
6.4896607e-12
3.244507e-09
-6.031344e-12
3.2444261e-09
5.7607135e-12
3.2444989e-09
-5.3922667e-12
3.2444279e-09
5.1137887e-12
3.2444937e-09
-4.8121887e-12
3.2444309e-09
4.552971e-12
3.2444898e-09
-4.2967082e-12
3.244434e-09
4.0640555e-12
3.2444865e-09
-3.8423083e-12
3.2444369e-09
3.6366753e-12
3.2444838e-09
-3.4436284e-12
3.2444394e-09
3.2633566e-12
3.2444814e-09
-3.095311e-12
3.2444417e-09
2.9382741e-12
3.2444794e-09
-2.7925395e-12
3.2444436e-09
2.6566576e-12
3.2444776e-09
-2.5310867e-12
3.2444453e-09
2.4145048e-12
3.2444761e-09
-2.3073136e-12
3.2444467e-09
2.2083997e-12
3.2444749e-09
-2.1180822e-12
3.2444478e-09
2.0354328e-12
3.2444738e-09
-1.9606693e-12
3.2444488e-09
1.8931512e-12
3.244473e-09
-1.832667e-12
3.2444495e-09
1.7791094e-12
3.2444723e-09
-1.7334388e-12
3.2444505e-09
1.6865956e-12
3.2444729e-09
-1.6666668e-12
3.2444528e-09
1.6279137e-12
3.2444699e-09
-1.5086988e-12
3.2444256e-09
2.0869369e-12
-1.3569774e-12
3.1379308e-09
2.7505284e-08
3.3687506e-09
-3.3800659e-09
3.3602424e-09
2.3785656e-09
3.3574651e-09
-2.2862262e-10
3.3882383e-09
2.8520031e-10
3.3974968e-09
-8.1720298e-11
3.3994438e-09
8.813144e-11
3.4000641e-09
2.710942e-11
3.4006238e-09
8.5466135e-12
3.3994667e-09
1.0002719e-11
3.4002448e-09
2.9708813e-12
3.3998839e-09
-4.3401779e-12
3.4000646e-09
6.0740513e-12
3.4000652e-09
-7.0368735e-12
3.4000398e-09
7.0417761e-12
3.4000791e-09
-6.7319654e-12
3.4000278e-09
6.5409059e-12
3.4000684e-09
-6.0719129e-12
3.4000238e-09
5.8053189e-12
3.4000623e-09
-5.4308493e-12
3.4000237e-09
5.1523928e-12
3.4000589e-09
-4.8473837e-12
3.400025e-09
4.5868725e-12
3.4000566e-09
-4.3282767e-12
3.4000266e-09
4.0940215e-12
3.4000548e-09
-3.8704456e-12
3.4000282e-09
3.6632487e-12
3.4000533e-09
-3.4686746e-12
3.4000296e-09
3.2869869e-12
3.400052e-09
-3.1176366e-12
3.4000309e-09
2.9593584e-12
3.4000508e-09
-2.8125051e-12
3.4000319e-09
2.6755521e-12
3.4000499e-09
-2.5490257e-12
3.4000329e-09
2.4315312e-12
3.4000491e-09
-2.32353e-12
3.4000336e-09
2.2238465e-12
3.4000484e-09
-2.13285e-12
3.4000343e-09
2.0495592e-12
3.4000478e-09
-1.9742329e-12
3.4000348e-09
1.9061914e-12
3.4000474e-09
-1.8452316e-12
3.4000352e-09
1.7912733e-12
3.400047e-09
-1.7452225e-12
3.4000358e-09
1.6977546e-12
3.4000477e-09
-1.6785802e-12
3.4000379e-09
1.6377058e-12
3.4000456e-09
-1.5164023e-12
3.4000152e-09
2.1173379e-12
-1.3487378e-12
3.277496e-09
2.7689413e-08
3.4901082e-09
-3.5926782e-09
3.5058481e-09
2.3628257e-09
3.5006395e-09
-2.2341398e-10
3.5363613e-09
2.4947847e-10
3.5452496e-09
-9.0608581e-11
3.5481341e-09
8.5247007e-11
3.5490982e-09
2.6145375e-11
3.5495743e-09
8.0704453e-12
3.548538e-09
1.103906e-11
3.549387e-09
2.1218986e-12
3.5489526e-09
-3.9057479e-12
3.5491878e-09
5.8388258e-12
3.5491396e-09
-6.9887637e-12
3.5491584e-09
7.0229602e-12
3.5491563e-09
-6.7299017e-12
3.5491444e-09
6.5528752e-12
3.5491478e-09
-6.075383e-12
3.5491384e-09
5.814783e-12
3.5491438e-09
-5.4363144e-12
3.5491365e-09
5.1596719e-12
3.5491422e-09
-4.8530184e-12
3.5491362e-09
4.5928289e-12
3.5491414e-09
-4.3334417e-12
3.5491364e-09
4.0990222e-12
3.5491409e-09
-3.8749696e-12
3.5491367e-09
3.6674786e-12
3.5491406e-09
-3.4725622e-12
3.549137e-09
3.2905721e-12
3.5491403e-09
-3.1209518e-12
3.5491373e-09
2.9624027e-12
3.5491401e-09
-2.8153292e-12
3.5491375e-09
2.6781447e-12
3.5491399e-09
-2.5514374e-12
3.5491377e-09
2.4337505e-12
3.5491398e-09
-2.3256003e-12
3.5491378e-09
2.2257583e-12
3.5491396e-09
-2.1346397e-12
3.549138e-09
2.0512181e-12
3.5491395e-09
-1.9757904e-12
3.5491381e-09
1.9076427e-12
3.5491394e-09
-1.8465817e-12
3.5491381e-09
1.7925554e-12
3.5491393e-09
-1.7464032e-12
3.5491385e-09
1.6986209e-12
3.5491402e-09
-1.680304e-12
3.5491403e-09
1.6375802e-12
3.549139e-09
-1.5150617e-12
3.5491223e-09
2.1340282e-12
-1.3323945e-12
3.4253759e-09
2.7725662e-08
3.5986149e-09
-3.7659172e-09
3.6456814e-09
2.3157592e-09
3.6406203e-09
-2.1835286e-10
3.6785959e-09
2.1150297e-10
3.6868444e-09
-9.8857046e-11
3.6904425e-09
8.1648842e-11
3.6916523e-09
2.4935651e-11
3.6920371e-09
7.6856719e-12
3.691165e-09
1.1911131e-11
3.6920396e-09
1.2473302e-12
3.6915417e-09
-3.40788e-12
3.6918285e-09
5.552079e-12
3.6917325e-09
-6.892827e-12
3.6917937e-09
6.9617488e-12
3.6917517e-09
-6.6879272e-12
3.6917777e-09
6.5268949e-12
3.6917453e-09
-6.0430825e-12
3.6917698e-09
5.7903083e-12
3.6917433e-09
-5.409838e-12
3.6917663e-09
5.1367199e-12
3.6917434e-09
-4.8301434e-12
3.6917644e-09
4.5718306e-12
3.6917441e-09
-4.3131475e-12
3.6917632e-09
4.0799527e-12
3.6917449e-09
-3.8567313e-12
3.6917623e-09
3.6501735e-12
3.6917458e-09
-3.4560594e-12
3.6917615e-09
3.274843e-12
3.6917465e-09
-3.1059513e-12
3.6917608e-09
2.9480688e-12
3.6917471e-09
-2.8016419e-12
3.6917602e-09
2.6650365e-12
3.6917477e-09
-2.538895e-12
3.6917597e-09
2.4217107e-12
3.6917482e-09
-2.3140488e-12
3.6917593e-09
2.2146376e-12
3.6917486e-09
-2.1239338e-12
3.6917589e-09
2.0408738e-12
3.6917489e-09
-1.9657893e-12
3.6917586e-09
1.8979379e-12
3.6917492e-09
-1.8371369e-12
3.6917584e-09
1.7833628e-12
3.6917494e-09
-1.7373791e-12
3.6917584e-09
1.6895858e-12
3.6917503e-09
-1.6722069e-12
3.6917599e-09
1.6279367e-12
3.6917499e-09
-1.5050487e-12
3.6917467e-09
2.1372615e-12
-1.3086612e-12
3.5481525e-09
2.7639135e-08
3.7082569e-09
-3.9260216e-09
3.7803293e-09
2.2436868e-09
3.7763838e-09
-2.1440734e-10
3.8148583e-09
1.7302852e-10
3.8222489e-09
-1.0624761e-10
3.8263508e-09
7.7546966e-11
3.8277186e-09
2.3567827e-11
3.8280212e-09
7.3830692e-12
3.8273426e-09
1.258975e-11
3.8281967e-09
3.9323044e-13
3.8276497e-09
-2.8609113e-12
3.8279863e-09
5.2154754e-12
3.8278436e-09
-6.7501108e-12
3.8279454e-09
6.8598823e-12
3.8278651e-09
-6.6076025e-12
3.8279276e-09
6.4643492e-12
3.827861e-09
-5.9764285e-12
3.8279181e-09
5.7331675e-12
3.8278609e-09
-5.3526709e-12
3.8279129e-09
5.0846982e-12
3.8278627e-09
-4.779875e-12
3.8279096e-09
4.5249287e-12
3.8278648e-09
-4.2683958e-12
3.827907e-09
4.0377613e-12
3.8278669e-09
-3.8166321e-12
3.8279049e-09
3.6121885e-12
3.8278688e-09
-3.4199785e-12
3.8279031e-09
3.2405714e-12
3.8278705e-09
-3.0733688e-12
3.8279015e-09
2.9170545e-12
3.827872e-09
-2.7721071e-12
3.8279002e-09
2.6368603e-12
3.8278733e-09
-2.5120022e-12
3.827899e-09
2.3959887e-12
3.8278744e-09
-2.2894271e-12
3.827898e-09
2.1910132e-12
3.8278753e-09
-2.1012397e-12
3.8278972e-09
2.0190144e-12
3.8278761e-09
-1.9447002e-12
3.8278965e-09
1.8775315e-12
3.8278767e-09
-1.8173377e-12
3.8278959e-09
1.7641228e-12
3.8278771e-09
-1.7185678e-12
3.8278956e-09
1.6710584e-12
3.8278781e-09
-1.6546768e-12
3.8278969e-09
1.6091902e-12
3.8278786e-09
-1.4867467e-12
3.8278885e-09
2.1273578e-12
-1.2782269e-12
3.697077e-09
2.7403683e-08
3.8121139e-09
-4.0410585e-09
3.9097206e-09
2.1460802e-09
3.9077842e-09
-2.1247092e-10
3.9449763e-09
1.3583643e-10
3.9513899e-09
-1.1266112e-10
3.9558356e-09
7.3101268e-11
3.9572959e-09
2.2107538e-11
3.9575335e-09
7.1455021e-12
3.9570623e-09
1.3060931e-11
3.9578548e-09
-3.9930834e-13
3.9572753e-09
-2.2813693e-12
3.9576612e-09
4.8295118e-12
3.9574729e-09
-6.5617828e-12
3.9576136e-09
6.7191161e-12
3.9574966e-09
-6.4905651e-12
3.9575942e-09
6.3666836e-12
3.9574947e-09
-5.8769124e-12
3.9575832e-09
5.6446971e-12
3.9574966e-09
-5.2661277e-12
3.9575765e-09
5.0048261e-12
3.9575e-09
-4.7033847e-12
3.9575717e-09
4.4532253e-12
3.9575035e-09
-4.2002364e-12
3.9575679e-09
3.9734411e-12
3.9575069e-09
-3.7556149e-12
3.9575646e-09
3.5544177e-12
3.9575098e-09
-3.3651682e-12
3.9575618e-09
3.1885629e-12
3.9575124e-09
-3.0239695e-12
3.9575594e-09
2.8700873e-12
3.9575147e-09
-2.7274172e-12
3.9575573e-09
2.5942757e-12
3.9575167e-09
-2.4713876e-12
3.9575555e-09
2.3571848e-12
3.9575184e-09
-2.2523092e-12
3.9575539e-09
2.1554349e-12
3.9575198e-09