/*--------------------------------*- C++ -*----------------------------------*\
| =========                 |                                                 |
| \\      /  F ield         | OpenFOAM: The Open Source CFD Toolbox           |
|  \\    /   O peration     | Version:  2312                                  |
|   \\  /    A nd           | Website:  www.openfoam.com                      |
|    \\/     M anipulation  |                                                 |
\*---------------------------------------------------------------------------*/
FoamFile
{
    version     2.0;
    format      ascii;
    arch        "LSB;label=32;scalar=64";
    class       surfaceScalarField;
    location    "5";
    object      phi_0;
}
// * * * * * * * * * * * * * * * * * * * * * * * * * * * * * * * * * * * * * //

dimensions      [0 3 -1 0 0 0 0];

oriented        oriented;

internalField   nonuniform List<scalar> 
7870
(
1.6834807e-10
3.2932769e-09
1.7905823e-10
-1.0710172e-11
1.3080817e-10
4.825007e-11
1.4050113e-10
-9.692973e-12
1.3427819e-10
6.222948e-12
1.3499199e-10
-7.1382246e-13
1.3315271e-10
1.8392917e-12
1.335421e-10
-3.8941973e-13
1.3262869e-10
9.1340783e-13
1.3325267e-10
-6.2399225e-13
1.3255064e-10
7.0202413e-13
1.3318331e-10
-6.3267358e-13
1.3256669e-10
6.1662414e-13
1.3314455e-10
-5.7786e-13
1.3259607e-10
5.4848571e-13
1.3311105e-10
-5.1496482e-13
1.3262489e-10
4.8616131e-13
1.3308181e-10
-4.5690698e-13
1.3265095e-10
4.3085881e-13
1.3305659e-10
-4.0563506e-13
1.3267395e-10
3.8264127e-13
1.3303477e-10
-3.6081227e-13
1.326941e-10
3.4067125e-13
1.330158e-10
-3.2169984e-13
1.327117e-10
3.0410036e-13
1.3299928e-10
-2.8757737e-13
1.3272706e-10
2.7221864e-13
1.3298488e-10
-2.5782635e-13
1.3274044e-10
2.4444714e-13
1.3297237e-10
-2.3193271e-13
1.3275205e-10
2.2031434e-13
1.3296153e-10
-2.0947372e-13
1.3276209e-10
1.9943552e-13
1.3295219e-10
-1.9010244e-13
1.327707e-10
1.814955e-13
1.3294423e-10
-1.7353353e-13
1.32778e-10
1.6623478e-13
1.3293753e-10
-1.5953138e-13
1.3278409e-10
1.5343911e-13
1.3293199e-10
-1.479011e-13
1.3278906e-10
1.4293172e-13
1.3292754e-10
-1.3848423e-13
1.3279298e-10
1.345616e-13
1.3292415e-10
-1.3116669e-13
1.3279594e-10
1.2820605e-13
1.3292169e-10
-1.2574134e-13
1.3279732e-10
1.2436991e-13
1.3291749e-10
-1.2017905e-13
1.3278988e-10
1.276105e-13
-1.1591115e-13
4.4137955e-10
6.3135224e-09
5.0140305e-10
-7.07337e-11
3.9255697e-10
1.5709618e-10
4.0426563e-10
-2.1401675e-11
3.9032662e-10
2.0161982e-11
3.9082705e-10
-1.2143122e-12
3.8714463e-10
5.5217177e-12
3.8701185e-10
-2.5669714e-13
3.8555303e-10
2.3722298e-12
3.8627458e-10
-1.3455774e-12
3.8526931e-10
1.7072945e-12
3.8614515e-10
-1.5085163e-12
3.8526408e-10
1.4977053e-12
3.8609019e-10
-1.4039531e-12
3.8530021e-10
1.3384816e-12
3.860415e-10
-1.2562269e-12
3.8533956e-10
1.1881117e-12
3.8599859e-10
-1.1159244e-12
3.8537632e-10
1.0531442e-12
3.8596191e-10
-9.912146e-13
3.854092e-10
9.35352e-13
3.8593033e-10
-8.819363e-13
3.8543817e-10
8.3283207e-13
3.8590294e-10
-7.8646934e-13
3.8546355e-10
7.4348656e-13
3.8587909e-10
-7.0311769e-13
3.8548574e-10
6.6557053e-13
3.8585831e-10
-6.3040131e-13
3.8550509e-10
5.9767314e-13
3.8584024e-10
-5.6708328e-13
3.855219e-10
5.3865047e-13
3.8582457e-10
-5.1214384e-13
3.8553643e-10
4.8757071e-13
3.8581108e-10
-4.6474416e-13
3.855489e-10
4.4367e-13
3.8579956e-10
-4.2419266e-13
3.8555948e-10
4.0631823e-13
3.8578986e-10
-3.8991651e-13
3.8556831e-10
3.749938e-13
3.8578185e-10
-3.6144012e-13
3.8557552e-10
3.4926537e-13
3.8577541e-10
-3.3837539e-13
3.8558121e-10
3.287578e-13
3.8577051e-10
-3.2046169e-13
3.855856e-10
3.1311742e-13
3.8576708e-10
-3.0722876e-13
3.8558766e-10
3.037977e-13
3.8575976e-10
-2.9228026e-13
3.8556933e-10
3.1803837e-13
-2.8256065e-13
7.3339813e-10
9.0417493e-09
7.9510888e-10
-1.3244448e-10
6.4604264e-10
3.0616244e-10
6.6053181e-10
-3.5890899e-11
6.3946636e-10
4.1227457e-11
6.3958562e-10
-1.3336405e-12
6.3467847e-10
1.0428869e-11
6.3367558e-10
7.4612308e-13
6.3215559e-10
3.8922226e-12
6.3259916e-10
-1.7891795e-12
6.3167418e-10
2.6322807e-12
6.3245157e-10
-2.2859119e-12
6.3163436e-10
2.3149319e-12
6.3240402e-10
-2.1735968e-12
6.316604e-10
2.0821184e-12
6.3235807e-10
-1.953871e-12
6.3169458e-10
1.8516198e-12
6.3231669e-10
-1.7380107e-12
6.3172817e-10
1.6416667e-12
6.3228165e-10
-1.5446793e-12
6.3175882e-10
1.458183e-12
6.3225171e-10
-1.3748175e-12
6.3178605e-10
1.2984928e-12
6.3222581e-10
-1.2262297e-12
6.3181001e-10
1.1592924e-12
6.3220327e-10
-1.0963851e-12
6.3183099e-10
1.0378493e-12
6.3218362e-10
-9.8303246e-13
6.3184932e-10
9.3197413e-13
6.3216651e-10
-8.8427859e-13
6.3186526e-10
8.3990062e-13
6.3215168e-10
-7.9855808e-13
6.3187906e-10
7.6019183e-13
6.3213889e-10
-7.2457947e-13
6.3189089e-10
6.9166854e-13
6.3212798e-10
-6.612747e-13
6.3190094e-10
6.333553e-13
6.3211878e-10
-6.0775569e-13
6.3190933e-10
5.8444198e-13
6.3211118e-10
-5.6328164e-13
6.3191618e-10
5.4425664e-13
6.3210505e-10
-5.2724559e-13
6.3192161e-10
5.1220267e-13
6.3210042e-10
-4.9926951e-13
6.319259e-10
4.8764033e-13
6.3209732e-10
-4.7865164e-13
6.3192785e-10
4.7326243e-13
6.3208842e-10
-4.5284991e-13
6.3190017e-10
5.0629695e-13
-4.3914183e-13
9.3316878e-10
1.1570206e-08
1.0682982e-09
-2.6757396e-10
8.9251339e-10
4.8194732e-10
9.0988342e-10
-5.3260985e-11
8.8146097e-10
6.9649928e-11
8.8149957e-10
-1.3723113e-12
8.7551472e-10
1.6413729e-11
8.7374937e-10
2.5114059e-12
8.7223912e-10
5.4024754e-12
8.7241779e-10
-1.9678954e-12
8.7158861e-10
3.4614673e-12
8.7227009e-10
-2.9673914e-12
8.7152134e-10
3.0636973e-12
8.7223362e-10
-2.8858557e-12
8.7153884e-10
2.7769145e-12
8.7219111e-10
-2.60611e-12
8.7156813e-10
2.474611e-12
8.7215145e-10
-2.3213048e-12
8.7159856e-10
2.19456e-12
8.7211818e-10
-2.0642863e-12
8.7162691e-10
1.9494546e-12
8.7208996e-10
-1.8378584e-12
8.7165232e-10
1.7361348e-12
8.7206561e-10
-1.6395236e-12
8.7167477e-10
1.5501398e-12
8.7204443e-10
-1.4660525e-12
8.7169448e-10
1.3878023e-12
8.7202596e-10
-1.3145132e-12
8.7171172e-10
1.2462123e-12
8.7200986e-10
-1.1824235e-12
8.7172673e-10
1.1230324e-12
8.7199589e-10
-1.0677238e-12
8.7173972e-10
1.0163629e-12
8.7198385e-10
-9.6870889e-13
8.7175088e-10
9.2464198e-13
8.7197357e-10
-8.8396337e-13
8.7176035e-10
8.4657371e-13
8.719649e-10
-8.1230545e-13
8.7176827e-10
7.810778e-13
8.7195773e-10
-7.5274443e-13
8.7177473e-10
7.2725543e-13
8.7195195e-10
-7.044643e-13
8.7177986e-10
6.8429255e-13
8.7194759e-10
-6.6699414e-13
8.7178402e-10
6.5120574e-13
8.7194483e-10
-6.3946277e-13
8.7178605e-10
6.3205002e-13
8.7193507e-10
-6.0186997e-13
8.7175121e-10
6.9015161e-13
-5.8533331e-13
1.19065e-09
1.3841181e-08
1.3315382e-09
-4.0846222e-10
1.1302368e-09
6.8324875e-10
1.1520883e-09
-7.511251e-11
1.1163122e-09
1.0542606e-10
1.1165676e-09
-1.6277437e-12
1.1096241e-09
2.3357162e-11
1.1072328e-09
4.9026443e-12
1.1058038e-09
6.8315178e-12
1.1057328e-09
-1.896907e-12
1.1050127e-09
4.1815592e-12
1.1056011e-09
-3.5558089e-12
1.1049247e-09
3.7401093e-12
1.1055789e-09
-3.5400188e-12
1.1049352e-09
3.4206451e-12
1.1055404e-09
-3.211343e-12
1.1049599e-09
3.0551661e-12
1.1055027e-09
-2.8641056e-12
1.1049872e-09
2.7100876e-12
1.1054714e-09
-2.5484351e-12
1.1050132e-09
2.4076014e-12
1.1054449e-09
-2.2695887e-12
1.1050367e-09
2.1443406e-12
1.1054222e-09
-2.0250083e-12
1.1050576e-09
1.9147415e-12
1.1054025e-09
-1.8108972e-12
1.105076e-09
1.7142618e-12
1.1053852e-09
-1.6237341e-12
1.1050921e-09
1.5393307e-12
1.1053702e-09
-1.4605151e-12
1.1051061e-09
1.3870921e-12
1.1053572e-09
-1.3187372e-12
1.1051183e-09
1.2552253e-12
1.1053459e-09
-1.1963193e-12
1.1051287e-09
1.1418182e-12
1.1053363e-09
-1.0915271e-12
1.1051376e-09
1.0452784e-12
1.1053282e-09
-1.0029064e-12
1.105145e-09
9.6427365e-13
1.1053215e-09
-9.2923171e-13
1.105151e-09
8.9769212e-13
1.1053161e-09
-8.6948785e-13
1.1051559e-09
8.4450837e-13
1.105312e-09
-8.2313183e-13
1.1051599e-09
8.0334177e-13
1.1053096e-09
-7.8920195e-13
1.105162e-09
7.7963243e-13
1.1052994e-09
-7.3926518e-13
1.1051219e-09
8.6768755e-13
-7.1981783e-13
1.391081e-09
1.5911725e-08
1.5709464e-09
-5.8832763e-10
1.3617898e-09
8.9240538e-10
1.3873483e-09
-1.0067106e-10
1.3440249e-09
1.4874946e-10
1.3447914e-09
-2.3942595e-12
1.3369973e-09
3.1151265e-11
1.334137e-09
7.7628125e-12
1.332852e-09
8.1165397e-12
1.3325482e-09
-1.5931659e-12
1.3319471e-09
4.782698e-12
1.3324457e-09
-4.0544503e-12
1.3318444e-09
4.341474e-12
1.3324402e-09
-4.1358732e-12
1.3318492e-09
4.0116988e-12
1.3324063e-09
-3.7684404e-12
1.3318697e-09
3.5918247e-12
1.3323707e-09
-3.3651266e-12
1.3318939e-09
3.1869084e-12
1.3323414e-09
-2.9958887e-12
1.3319176e-09
2.8314038e-12
1.3323169e-09
-2.6688582e-12
1.3319392e-09
2.5219971e-12
1.3322958e-09
-2.3816239e-12
1.3319585e-09
2.2520812e-12
1.3322775e-09
-2.1299498e-12
1.3319755e-09
2.0163028e-12
1.3322616e-09
-1.9098142e-12
1.3319904e-09
1.810492e-12
1.3322477e-09
-1.7177577e-12
1.3320034e-09
1.6313257e-12
1.3322356e-09
-1.5508828e-12
1.3320147e-09
1.4761024e-12
1.3322251e-09
-1.4067693e-12
1.3320244e-09
1.3425908e-12
1.3322162e-09
-1.2833914e-12
1.3320326e-09
1.2289257e-12
1.3322087e-09
-1.1790429e-12
1.3320395e-09
1.1335409e-12
1.3322025e-09
-1.0922794e-12
1.3320451e-09
1.0551257e-12
1.3321975e-09
-1.0218963e-12
1.3320495e-09
9.9245142e-13
1.3321937e-09
-9.6729647e-13
1.3320534e-09
9.4369382e-13
1.3321917e-09
-9.2751904e-13
1.3320557e-09
9.1563027e-13
1.3321814e-09
-8.6501254e-13
1.3320118e-09
1.0372612e-12
-8.4154724e-13
1.6026543e-09
1.7770695e-08
1.8041602e-09
-7.8983358e-10
1.5852479e-09
1.1113177e-09
1.6139451e-09
-1.2936825e-10
1.5647207e-09
1.9797382e-10
1.5662201e-09
-3.8937545e-12
1.5576517e-09
3.9719698e-11
1.5544813e-09
1.0933118e-11
1.5533865e-09
9.2114305e-12
1.5528687e-09
-1.0754225e-12
1.5523929e-09
5.2585104e-12
1.5528051e-09
-4.4667347e-12
1.5522804e-09
4.8662456e-12
1.5528181e-09
-4.673607e-12
1.5522808e-09
4.549084e-12
1.5527891e-09
-4.2767254e-12
1.5522973e-09
4.0835971e-12
1.5527557e-09
-3.8235011e-12
1.5523186e-09
3.6240849e-12
1.5527285e-09
-3.4057832e-12
1.5523399e-09
3.2199948e-12
1.5527059e-09
-3.0348456e-12
1.5523596e-09
2.8683023e-12
1.5526865e-09
-2.708604e-12
1.5523772e-09
2.5614201e-12
1.5526698e-09
-2.4225037e-12
1.5523928e-09
2.2932502e-12
1.5526551e-09
-2.1721098e-12
1.5524065e-09
2.0590849e-12
1.5526423e-09
-1.9535704e-12
1.5524185e-09
1.8551835e-12
1.5526312e-09
-1.7636402e-12
1.5524288e-09
1.6785027e-12
1.5526216e-09
-1.5995943e-12
1.5524377e-09
1.5265215e-12
1.5526135e-09
-1.4591418e-12
1.5524453e-09
1.3971245e-12
1.5526066e-09
-1.3403449e-12
1.5524516e-09
1.2885297e-12
1.5526009e-09
-1.2415557e-12
1.5524567e-09
1.1992417e-12
1.5525962e-09
-1.1613909e-12
1.5524609e-09
1.1278393e-12
1.5525928e-09
-1.0992146e-12
1.5524645e-09
1.0720168e-12
1.5525911e-09
-1.0541648e-12
1.5524669e-09
1.0397919e-12
1.5525811e-09
-9.7913872e-13
1.5524208e-09
1.1974853e-12
-9.4995314e-13
1.7838988e-09
1.9448422e-08
2.0106837e-09
-1.0166185e-09
1.8000709e-09
1.3219305e-09
1.827939e-09
-1.572364e-10
1.77783e-09
2.4808285e-10
1.780725e-09
-6.7888785e-12
1.7715796e-09
4.8865167e-11
1.7682808e-09
1.42318e-11
1.7674071e-09
1.0085161e-11
1.7666974e-09
-3.6580988e-13
1.7663508e-09
5.6051686e-12
1.7666802e-09
-4.7961876e-12
1.7662328e-09
5.3137274e-12
1.7667129e-09
-5.1537308e-12
1.7662297e-09
5.0323064e-12
1.7666889e-09
-4.7358983e-12
1.7662426e-09
4.529883e-12
1.7666579e-09
-4.2387168e-12
1.7662609e-09
4.0210173e-12
1.7666327e-09
-3.77757e-12
1.7662799e-09
3.5728055e-12
1.7666121e-09
-3.3670102e-12
1.7662977e-09
3.18272e-12
1.7665945e-09
-3.0054334e-12
1.7663137e-09
2.8422586e-12
1.7665793e-09
-2.6880801e-12
1.7663279e-09
2.5446459e-12
1.7665659e-09
-2.4101843e-12
1.7663403e-09
2.2846954e-12
1.7665543e-09
-2.1675606e-12
1.7663512e-09
2.0582958e-12
1.7665442e-09
-1.95666e-12
1.7663606e-09
1.8620982e-12
1.7665355e-09
-1.7744849e-12
1.7663687e-09
1.69332e-12
1.7665281e-09
-1.6185048e-12
1.7663756e-09
1.549618e-12
1.7665218e-09
-1.4865701e-12
1.7663813e-09
1.4290121e-12
1.7665166e-09
-1.3768456e-12
1.766386e-09
1.3298373e-12
1.7665124e-09
-1.2877804e-12
1.7663898e-09
1.2504921e-12
1.7665093e-09
-1.2187122e-12
1.7663931e-09
1.1881615e-12
1.7665079e-09
-1.1689789e-12
1.7663957e-09
1.1519725e-12
1.7664983e-09
-1.0817148e-12
1.7663486e-09
1.3471971e-12
-1.0448334e-12
1.9614742e-09
2.0948572e-08
2.2122574e-09
-1.2674017e-09
2.0062619e-09
1.5279261e-09
2.0273142e-09
-1.7828869e-10
1.9833574e-09
2.9203961e-10
1.9882417e-09
-1.1673249e-11
1.9787979e-09
5.8308981e-11
1.9755474e-09
1.748224e-11
1.9749137e-09
1.071883e-11
1.9740379e-09
5.1001175e-13
1.9738221e-09
5.8209638e-12
1.9740719e-09
-5.046059e-12
1.9737017e-09
5.6840083e-12
1.9741249e-09
-5.5769248e-12
1.9736959e-09
5.4613216e-12
1.974106e-09
-5.1459417e-12
1.9737054e-09
4.9304212e-12
1.9740773e-09
-4.610549e-12
1.9737209e-09
4.3773945e-12
1.9740543e-09
-4.1109647e-12
1.9737376e-09
3.8895209e-12
1.9740357e-09
-3.66505e-12
1.9737535e-09
3.4649418e-12
1.9740198e-09
-3.2718139e-12
1.9737678e-09
3.0943044e-12
1.9740061e-09
-2.9263981e-12
1.9737805e-09
2.7702212e-12
1.9739941e-09
-2.623782e-12
1.9737917e-09
2.4870824e-12
1.9739837e-09
-2.3595012e-12
1.9738015e-09
2.2404501e-12
1.9739746e-09
-2.1297429e-12
1.97381e-09
2.0267036e-12
1.9739668e-09
-1.9312681e-12
1.9738173e-09
1.8428258e-12
1.9739601e-09
-1.7613305e-12
1.9738235e-09
1.6862673e-12
1.9739545e-09
-1.6175889e-12
1.9738286e-09
1.5548681e-12
1.9739498e-09
-1.4980369e-12
1.9738328e-09
1.4468084e-12
1.973946e-09
-1.4009679e-12
1.9738362e-09
1.3603207e-12
1.9739432e-09
-1.3257037e-12
1.9738393e-09
1.2920633e-12
1.9739422e-09
-1.2718799e-12
1.973842e-09
1.2521197e-12
1.9739332e-09
-1.1728524e-12
1.9737949e-09
1.4854334e-12
-1.1262445e-12
2.1133416e-09
2.2296856e-08
2.3887497e-09
-1.5428099e-09
2.2014617e-09
1.7152141e-09
2.2153933e-09
-1.9222037e-10
2.1817127e-09
3.2572021e-10
2.188593e-09
-1.855358e-11
2.1793228e-09
6.7579136e-11
2.1762868e-09
2.0518155e-11
2.1759074e-09
1.1098283e-11
2.1748928e-09
1.5245756e-12
2.174808e-09
5.9056992e-12
2.1749811e-09
-5.2190941e-12
2.1746873e-09
5.9778088e-12
2.1750544e-09
-5.9440157e-12
2.1746793e-09
5.8364413e-12
2.1750405e-09
-5.5070871e-12
2.1746857e-09
5.2852307e-12
2.1750142e-09
-4.9390228e-12
2.1746984e-09
4.6931509e-12
2.1749934e-09
-4.4059125e-12
2.1747129e-09
4.1700465e-12
2.1749767e-09
-3.9288723e-12
2.1747268e-09
3.7148608e-12
2.1749626e-09
-3.5076396e-12
2.1747395e-09
3.3174499e-12
2.1749504e-09
-3.1373538e-12
2.1747507e-09
2.9698767e-12
2.1749398e-09
-2.8128093e-12
2.1747607e-09
2.6661597e-12
2.1749305e-09
-2.5293125e-12
2.1747694e-09
2.401575e-12
2.1749225e-09
-2.2828244e-12
2.1747769e-09
2.1722618e-12
2.1749155e-09
-2.0698929e-12
2.1747834e-09
1.9749945e-12
2.1749096e-09
-1.88758e-12
2.1747888e-09
1.8070391e-12
2.1749046e-09
-1.7333725e-12
2.1747934e-09
1.6660734e-12
2.1749005e-09
-1.6051096e-12
2.1747972e-09
1.5501389e-12
2.1748971e-09
-1.5009414e-12
2.1748001e-09
1.4573174e-12
2.1748946e-09
-1.4201823e-12
2.174803e-09
1.3837332e-12
2.1748939e-09
-1.3628582e-12
2.1748058e-09
1.3402619e-12
2.1748856e-09
-1.2527011e-12
2.1747597e-09
1.6114111e-12
-1.1944396e-12
2.2815325e-09
2.3476948e-08
2.5608707e-09
-1.8221481e-09
2.3847723e-09
1.8913126e-09
2.3953157e-09
-2.0276386e-10
2.3732238e-09
3.4781216e-10
2.3814894e-09
-2.6819225e-11
2.3731394e-09
7.5929093e-11
2.3705101e-09
2.314738e-11
2.3703877e-09
1.1220734e-11
2.3692646e-09
2.6475953e-12
2.36931e-09
5.8602651e-12
2.3694083e-09
-5.3173797e-12
2.3691898e-09
6.1963924e-12
2.3695017e-09
-6.255928e-12
2.3691799e-09
6.1582887e-12
2.3694926e-09
-5.8197617e-12
2.3691832e-09
5.5945817e-12
2.3694686e-09
-5.2243716e-12
2.3691933e-09
4.9684405e-12
2.36945e-09
-4.6625581e-12
2.3692055e-09
4.4144857e-12
2.3694352e-09
-4.1585713e-12
2.3692176e-09
3.9325509e-12
2.3694229e-09
-3.7129779e-12
2.3692286e-09
3.5117545e-12
2.3694122e-09
-3.3210033e-12
2.3692384e-09
3.1436666e-12
2.369403e-09
-2.9773193e-12
2.3692471e-09
2.8219814e-12
2.3693949e-09
-2.6770488e-12
2.3692547e-09
2.5417262e-12
2.3693878e-09
-2.4159606e-12
2.3692613e-09
2.2988308e-12
2.3693818e-09
-2.1904176e-12
2.3692669e-09
2.0898859e-12
2.3693766e-09
-1.9973131e-12
2.3692717e-09
1.9119942e-12
2.3693723e-09
-1.8339819e-12
2.3692757e-09
1.7626899e-12
2.3693687e-09
-1.6981256e-12
2.369279e-09
1.6398914e-12
2.3693658e-09
-1.5877647e-12
2.3692815e-09
1.5415471e-12
2.3693636e-09
-1.5022124e-12
2.3692841e-09
1.4632495e-12
2.3693632e-09
-1.4419685e-12
2.3692869e-09
1.4164977e-12
2.3693557e-09
-1.3214466e-12
2.3692426e-09
1.7245117e-12
-1.2498248e-12
2.4211622e-09
2.4517411e-08
2.7098044e-09
-2.1107903e-09
2.5612275e-09
2.0398895e-09
2.570063e-09
-2.1159933e-10
2.5581405e-09
3.5973466e-10
2.5670445e-09
-3.5723372e-11
2.5603289e-09
8.2644731e-11
2.5582393e-09
2.5236907e-11
2.5583576e-09
1.1102435e-11
2.5571561e-09
3.849033e-12
2.5573299e-09
5.6865391e-12
2.5573544e-09
-5.341865e-12
2.5572092e-09
6.3415668e-12
2.5574669e-09
-6.5136412e-12
2.5571975e-09
6.4277259e-12
2.5574624e-09
-6.0845772e-12
2.557198e-09
5.8589446e-12
2.5574407e-09
-5.4670198e-12
2.5572055e-09
5.2036046e-12
2.5574242e-09
-4.8812261e-12
2.5572156e-09
4.6231166e-12
2.5574114e-09
-4.3544092e-12
2.5572257e-09
4.1182494e-12
2.5574008e-09
-3.8880528e-12
2.5572351e-09
3.6774285e-12
2.5573917e-09
-3.477547e-12
2.5572435e-09
3.2917835e-12
2.5573837e-09
-3.1174974e-12
2.557251e-09
2.9547273e-12
2.5573768e-09
-2.802884e-12
2.5572575e-09
2.6610737e-12
2.5573708e-09
-2.5293163e-12
2.5572631e-09
2.4065715e-12
2.5573657e-09
-2.2929986e-12
2.5572679e-09
2.1876527e-12
2.5573613e-09
-2.0906783e-12
2.557272e-09
2.0012777e-12
2.5573576e-09
-1.9195582e-12
2.5572754e-09
1.844856e-12
2.5573545e-09
-1.7772203e-12
2.5572782e-09
1.7161991e-12
2.557352e-09
-1.661569e-12
2.5572804e-09
1.6131393e-12
2.5573501e-09
-1.5719213e-12
2.5572826e-09
1.5307503e-12
2.55735e-09
-1.5093234e-12
2.5572855e-09
1.4809871e-12
2.5573433e-09
-1.3793077e-12
2.5572436e-09
1.8242667e-12
-1.2929241e-12
2.573765e-09
2.5405271e-08
2.858609e-09
-2.3956344e-09
2.7308392e-09
2.1676594e-09
2.7388993e-09
-2.1965947e-10
2.7365955e-09
3.6203846e-10
2.7456792e-09
-4.4807146e-11
2.7409761e-09
8.7347842e-11
2.7394881e-09
2.6724793e-11
2.739819e-09
1.07716e-11
2.7385684e-09
5.0995236e-12
2.7388691e-09
5.3859214e-12
2.7388196e-09
-5.2923842e-12
2.7387456e-09
6.415535e-12
2.7389502e-09
-6.7182005e-12
2.7387322e-09
6.645784e-12
2.7389499e-09
-6.3023142e-12
2.7387299e-09
6.0789574e-12
2.7389305e-09
-5.66756e-12
2.738735e-09
5.3991514e-12
2.7389161e-09
-5.062401e-12
2.7387429e-09
4.796375e-12
2.7389053e-09
-4.5167995e-12
2.7387512e-09
4.2723404e-12
2.7388964e-09
-4.0332295e-12
2.738759e-09
3.8148183e-12
2.7388888e-09
-3.6073157e-12
2.738766e-09
3.4145443e-12
2.7388821e-09
-3.2336474e-12
2.7387722e-09
3.0646901e-12
2.7388764e-09
-2.9070995e-12
2.7387776e-09
2.7598889e-12
2.7388714e-09
-2.6231526e-12
2.7387822e-09
2.4957362e-12
2.7388671e-09
-2.3778786e-12
2.7387862e-09
2.2685297e-12
2.7388635e-09
-2.1679021e-12
2.7387896e-09
2.0751092e-12
2.7388604e-09
-1.990314e-12
2.7387925e-09
1.912778e-12
2.7388579e-09
-1.842594e-12
2.7387948e-09
1.7792572e-12
2.7388558e-09
-1.7225454e-12
2.7387966e-09
1.6722814e-12
2.7388542e-09
-1.6294926e-12
2.7387985e-09
1.5864266e-12
2.7388543e-09
-1.5650873e-12
2.7388013e-09
1.5339429e-12
2.7388486e-09
-1.4265339e-12
2.7387625e-09
1.910344e-12
-1.3243486e-12
2.7154826e-09
2.6151414e-08
2.9905415e-09
-2.6706933e-09
2.8956333e-09
2.2625676e-09
2.9022726e-09
-2.2629881e-10
2.9086734e-09
3.5563765e-10
2.9177961e-09
-5.3929967e-11
2.9151675e-09
8.9976436e-11
2.9142831e-09
2.7609136e-11
2.9147756e-09
1.027917e-11
2.9135035e-09
6.3715398e-12
2.9139298e-09
4.9596257e-12
2.9138048e-09
-5.1673792e-12
2.9137993e-09
6.4210885e-12
2.9139517e-09
-6.8705672e-12
2.9137838e-09
6.8136815e-12
2.9139554e-09
-6.473882e-12
2.9137789e-09
6.2554077e-12
2.9139381e-09
-5.8267357e-12
2.9137816e-09
5.5557357e-12
2.9139259e-09
-5.2067131e-12
2.9137874e-09
4.9348381e-12
2.9139169e-09
-4.646293e-12
2.9137939e-09
4.3953411e-12
2.9139097e-09
-4.149001e-12
2.9138001e-09
3.9243926e-12
2.9139036e-09
-3.7107569e-12
2.9138057e-09
3.5123774e-12
2.9138983e-09
-3.3261788e-12
2.9138107e-09
3.152263e-12
2.9138937e-09
-2.9900714e-12
2.913815e-09
2.8385332e-12
2.9138897e-09
-2.6978158e-12
2.9138188e-09
2.5666579e-12
2.9138862e-09
-2.4453773e-12
2.913822e-09
2.3328246e-12
2.9138833e-09
-2.2292802e-12
2.9138247e-09
2.1337737e-12
2.9138809e-09
-2.0465239e-12
2.9138269e-09
1.9667218e-12
2.9138788e-09
-1.8945042e-12
2.9138288e-09
1.8293159e-12
2.9138772e-09
-1.7709378e-12
2.9138303e-09
1.7192112e-12
2.9138759e-09
-1.6751592e-12
2.9138318e-09
1.630516e-12
2.9138762e-09
-1.6094706e-12
2.9138345e-09
1.5756237e-12
2.9138714e-09
-1.4634016e-12
2.9137992e-09
1.9825355e-12
-1.3447699e-12
2.8598433e-09
2.6753195e-08
3.1259962e-09
-2.9368463e-09
3.0550743e-09
2.3334896e-09
3.0591266e-09
-2.303511e-10
3.0745414e-09
3.4022282e-10
3.0837541e-09
-6.3142706e-11
3.082965e-09
9.0765542e-11
3.0826409e-09
2.793311e-11
3.0832279e-09
9.6921889e-12
3.0819616e-09
7.6378039e-12
3.082513e-09
4.4082893e-12
3.0823104e-09
-4.9647851e-12
3.0823701e-09
6.3613308e-12
3.0824713e-09
-6.971689e-12
3.0823522e-09
6.932749e-12
3.0824787e-09
-6.6003296e-12
3.0823449e-09
6.3892007e-12
3.0824636e-09
-5.9454341e-12
3.0823452e-09
5.6741411e-12
3.0824535e-09
-5.3149267e-12
3.0823491e-09
5.0392096e-12
3.0824464e-09
-4.7435652e-12
3.0823538e-09
4.4878876e-12
3.0824408e-09
-4.2359748e-12
3.0823585e-09
4.0067294e-12
3.0824361e-09
-3.7884225e-12
3.0823627e-09
3.5858099e-12
3.0824321e-09
-3.3955951e-12
3.0823665e-09
3.2179274e-12
3.0824286e-09
-3.0522598e-12
3.0823697e-09
2.8974472e-12
3.0824256e-09
-2.7537272e-12
3.0823726e-09
2.6197402e-12
3.0824231e-09
-2.495881e-12
3.082375e-09
2.3809081e-12
3.0824209e-09
-2.2751685e-12
3.082377e-09
2.1776138e-12
3.082419e-09
-2.0885177e-12
3.0823787e-09
2.0070056e-12
3.0824175e-09
-1.9332582e-12
3.0823801e-09
1.8666731e-12
3.0824162e-09
-1.8070362e-12
3.0823812e-09
1.7542109e-12
3.0824153e-09
-1.7091974e-12
3.0823825e-09
1.6632964e-12
3.0824157e-09
-1.6427242e-12
3.082385e-09
1.6063269e-12
3.0824119e-09
-1.490212e-12
3.0823536e-09
2.0407456e-12
-1.3548986e-12
3.0023644e-09
2.7212456e-08
3.2472796e-09
-3.1817615e-09
3.2098294e-09
2.3709398e-09
3.2105636e-09
-2.3108533e-10
3.2343181e-09
3.1646836e-10
3.2436389e-09
-7.2463598e-11
3.2443865e-09
9.0017899e-11
3.2445721e-09
2.7747499e-11
3.2451773e-09
9.0869416e-12
3.2439462e-09
8.8689026e-12
3.2446185e-09
3.7360077e-12
3.2443367e-09
-4.6830119e-12
3.2444584e-09
6.2396753e-12
3.2445091e-09
-7.022442e-12
3.2444375e-09
7.004445e-12
3.24452e-09
-6.6828118e-12
3.2444278e-09
6.4813594e-12
3.2445071e-09
-6.0246668e-12
3.244426e-09
5.7552714e-12
3.244499e-09
-5.3879259e-12
3.2444279e-09
5.1103085e-12
3.2444937e-09
-4.8094034e-12
3.2444309e-09
4.5507229e-12
3.2444898e-09
-4.2948607e-12
3.244434e-09
4.0625039e-12
3.2444865e-09
-3.8409562e-12
3.2444369e-09
3.6354558e-12
3.2444838e-09
-3.4424815e-12
3.2444394e-09
3.2622423e-12
3.2444814e-09
-3.0941977e-12
3.2444417e-09
2.9371402e-12
3.2444793e-09
-2.7913728e-12
3.2444436e-09
2.6554482e-12
3.2444776e-09
-2.5298344e-12
3.2444453e-09
2.4132066e-12
3.2444761e-09
-2.3059753e-12
3.2444467e-09
2.2070218e-12
3.2444748e-09
-2.1166724e-12
3.2444479e-09
2.0339931e-12
3.2444738e-09
-1.9592072e-12
3.2444488e-09
1.8916688e-12
3.2444729e-09
-1.8311708e-12
3.2444496e-09
1.7776014e-12
3.2444723e-09
-1.7319213e-12
3.2444505e-09
1.6850811e-12
3.2444729e-09
-1.6651351e-12
3.2444528e-09
1.6263829e-12
3.2444699e-09
-1.5072877e-12
3.2444257e-09
2.0849803e-12
-1.3554663e-12
3.1432457e-09
2.7530835e-08
3.3738246e-09
-3.4123405e-09
3.3602027e-09
2.3845618e-09
3.3571736e-09
-2.280563e-10
3.388197e-09
2.85445e-10
3.3974751e-09
-8.174178e-11
3.3994431e-09
8.8049917e-11
3.4000668e-09
2.7123706e-11
3.4006244e-09
8.5292869e-12
3.3994675e-09
1.0025857e-11
3.4002443e-09
2.9591474e-12
3.3998841e-09
-4.32282e-12
3.400064e-09
6.0598016e-12
3.4000653e-09
-7.0236726e-12
3.4000394e-09
7.0303332e-12
3.4000792e-09
-6.7225907e-12
3.4000276e-09
6.5330075e-12
3.4000685e-09
-6.0655641e-12
3.4000236e-09
5.8001355e-12
3.4000624e-09
-5.4267057e-12
3.4000237e-09
5.1490556e-12
3.400059e-09
-4.8446958e-12
3.400025e-09
4.5846843e-12
3.4000566e-09
-4.326459e-12
3.4000266e-09
4.0924762e-12
3.4000548e-09
-3.8690822e-12
3.4000282e-09
3.662005e-12
3.4000532e-09
-3.4674948e-12
3.4000296e-09
3.2858339e-12
3.4000519e-09
-3.1164814e-12
3.4000309e-09
2.9581812e-12
3.4000508e-09
-2.811295e-12
3.4000319e-09
2.6743001e-12
3.4000498e-09
-2.5477322e-12
3.4000329e-09
2.4301935e-12
3.400049e-09
-2.3221539e-12
3.4000336e-09
2.2224327e-12
3.4000484e-09
-2.1314059e-12
3.4000343e-09
2.0480869e-12
3.4000478e-09
-1.9727395e-12
3.4000348e-09
1.904679e-12
3.4000473e-09
-1.8437063e-12
3.4000352e-09
1.7897371e-12
3.400047e-09
-1.7436775e-12
3.4000358e-09
1.6962136e-12
3.4000477e-09
-1.6770212e-12
3.4000379e-09
1.6361499e-12
3.4000456e-09
-1.5149702e-12
3.4000153e-09
2.1153372e-12
-1.3472098e-12
3.2846494e-09
2.7707811e-08
3.4861958e-09
-3.6138869e-09
3.5054542e-09
2.3653033e-09
3.5005818e-09
-2.2318397e-10
3.5362956e-09
2.4973132e-10
3.5452196e-09
-9.0665902e-11
3.5481333e-09
8.5136226e-11
3.5491009e-09
2.6156067e-11
3.5495748e-09
8.0553381e-12
3.5485389e-09
1.1061718e-11
3.5493864e-09
2.1116536e-12
3.5489528e-09
-3.8892236e-12
3.5491872e-09
5.82543e-12
3.5491398e-09
-6.9762068e-12
3.549158e-09
7.0120922e-12
3.5491565e-09
-6.7210097e-12
3.5491441e-09
6.545377e-12
3.5491479e-09
-6.0693528e-12
3.5491382e-09
5.8098459e-12
3.5491439e-09
-5.4323549e-12
3.5491365e-09
5.1564653e-12
3.5491422e-09
-4.8504177e-12
3.5491362e-09
4.5906925e-12
3.5491414e-09
-4.3316486e-12
3.5491364e-09
4.0974805e-12
3.5491409e-09
-3.8735946e-12
3.5491367e-09
3.6662126e-12
3.5491405e-09
-3.4713531e-12
3.549137e-09
3.2893857e-12
3.5491403e-09
-3.1197611e-12
3.5491373e-09
2.9611897e-12
3.5491401e-09
-2.814084e-12
3.5491375e-09
2.6768591e-12
3.5491399e-09
-2.550112e-12
3.5491377e-09
2.432383e-12
3.5491397e-09
-2.3241963e-12
3.5491378e-09
2.2243185e-12
3.5491396e-09
-2.1331714e-12
3.549138e-09
2.0497231e-12
3.5491395e-09
-1.9742756e-12
3.5491381e-09
1.9061101e-12
3.5491394e-09
-1.8450373e-12
3.5491381e-09
1.7910009e-12
3.5491393e-09
-1.7448405e-12
3.5491385e-09
1.6970631e-12
3.5491402e-09
-1.6787275e-12
3.5491403e-09
1.6360088e-12
3.549139e-09
-1.5136174e-12
3.5491223e-09
2.1319964e-12
-1.3308593e-12
3.4180061e-09
2.775143e-08
3.6018363e-09
-3.7977171e-09
3.6455719e-09
2.3215677e-09
3.6403369e-09
-2.1794904e-10
3.6785505e-09
2.1151778e-10
3.686825e-09
-9.8940504e-11
3.6904425e-09
8.1518705e-11
3.6916553e-09
2.4943255e-11
3.6920375e-09
7.6731512e-12
3.691166e-09
1.1933158e-11
3.6920389e-09
1.2387142e-12
3.691542e-09
-3.3922855e-12
3.6918279e-09
5.5395631e-12
3.6917326e-09
-6.8809299e-12
3.6917933e-09
6.9514549e-12
3.6917518e-09
-6.6795083e-12
3.6917774e-09
6.5197844e-12
3.6917454e-09
-6.0373551e-12
3.6917697e-09
5.7856025e-12
3.6917434e-09
-5.4060487e-12
3.6917662e-09
5.1336326e-12
3.6917434e-09
-4.8276213e-12
3.6917644e-09
4.5697405e-12
3.6917441e-09
-4.3113761e-12
3.6917632e-09
4.0784142e-12
3.6917449e-09
-3.8553467e-12
3.6917623e-09
3.648889e-12
3.6917457e-09
-3.4548265e-12
3.6917615e-09
3.2736299e-12
3.6917465e-09
-3.1047331e-12
3.6917608e-09
2.9468286e-12
3.6917471e-09
-2.8003706e-12
3.6917602e-09
2.6637266e-12
3.6917477e-09
-2.5375474e-12
3.6917597e-09
2.4203232e-12
3.6917482e-09
-2.3126268e-12
3.6917593e-09
2.2131819e-12
3.6917486e-09
-2.1224512e-12
3.6917589e-09
2.0393662e-12
3.6917489e-09
-1.9642631e-12
3.6917586e-09
1.8963951e-12
3.6917492e-09
-1.8355831e-12
3.6917584e-09
1.7817996e-12
3.6917494e-09
-1.7358082e-12
3.6917584e-09
1.6880208e-12
3.6917503e-09
-1.6706225e-12
3.6917599e-09
1.6263594e-12
3.6917499e-09
-1.5036009e-12
3.6917467e-09
2.1352118e-12
-1.3071281e-12
3.559882e-09
2.7653173e-08
3.7059809e-09
-3.943816e-09
3.7799987e-09
2.24755e-09
3.776396e-09
-2.1434642e-10
3.8147962e-09
1.7311759e-10
3.8222287e-09
-1.0637309e-10
3.8263513e-09
7.7396168e-11
3.8277217e-09
2.3572819e-11
3.8280215e-09
7.3732978e-12
3.8273436e-09
1.2611064e-11
3.828196e-09
3.8631039e-13
3.82765e-09
-2.8463157e-12
3.8279858e-09
5.2038314e-12
3.8278437e-09
-6.7388708e-12
3.827945e-09
6.8501465e-12
3.8278652e-09
-6.5996396e-12
3.8279274e-09
6.4576084e-12
3.827861e-09
-5.9709867e-12
3.827918e-09
5.7286779e-12
3.827861e-09
-5.3490397e-12
3.8279129e-09
5.0817211e-12
3.8278627e-09
-4.7774257e-12
3.8279096e-09
4.5228819e-12
3.8278648e-09
-4.2666459e-12
3.827907e-09
4.0362283e-12
3.8278669e-09
-3.8152419e-12
3.8279049e-09
3.6108912e-12
3.8278688e-09
-3.4187288e-12
3.8279031e-09
3.2393395e-12
3.8278705e-09
-3.0721316e-12
3.8279015e-09
2.9157961e-12
3.827872e-09
-2.7708194e-12
3.8279002e-09
2.6355361e-12
3.8278733e-09
-2.5106423e-12
3.827899e-09
2.3945912e-12
3.8278744e-09
-2.2879971e-12
3.827898e-09
2.1895515e-12
3.8278753e-09
-2.0997528e-12
3.8278972e-09
2.017504e-12
3.8278761e-09
-1.9431724e-12
3.8278965e-09
1.8759882e-12
3.8278767e-09
-1.8157842e-12
3.8278959e-09
1.7625607e-12
3.8278771e-09
-1.7169986e-12
3.8278956e-09
1.6694957e-12
3.8278781e-09
-1.6530941e-12
3.8278969e-09
1.6076164e-12
3.8278786e-09
-1.4853038e-12
3.8278885e-09
2.1253031e-12
-1.2767051e-12
3.6836265e-09
2.7431171e-08
3.8130507e-09
-4.0732403e-09
3.9095961e-09
2.1510047e-09
3.9075116e-09
-2.1226205e-10
3.9449318e-09
1.3569742e-10
3.9513788e-09
-1.1282012e-10
3.9558368e-09
7.2938213e-11
3.9572991e-09
2.211036e-11
3.9575337e-09
7.1386957e-12
3.9570632e-09
1.3081557e-11
3.9578541e-09
-4.045332e-13
3.9572755e-09
-2.2677934e-12
3.9576607e-09
4.8187131e-12
3.957473e-09
-6.551182e-12
3.9576133e-09
6.7099152e-12
3.9574967e-09
-6.4830367e-12
3.957594e-09
6.3602938e-12
3.9574948e-09
-5.8717396e-12
3.9575831e-09
5.6404108e-12
3.9574967e-09
-5.2626451e-12
3.9575764e-09
5.0019532e-12
3.9575e-09
-4.7010054e-12
3.9575717e-09
4.4512218e-12
3.9575036e-09
-4.1985104e-12
3.9575679e-09
3.9719179e-12
3.9575068e-09
-3.7542251e-12
3.9575646e-09
3.5531148e-12
3.9575098e-09
-3.3639096e-12
3.9575618e-09
3.187321e-12
3.9575124e-09
-3.0227225e-12
3.9575594e-09
2.8688205e-12
3.9575147e-09
-2.7261227e-12
3.9575573e-09
2.5929469e-12
3.9575167e-09
-2.4700254e-12
3.9575555e-09
2.3557873e-12
3.9575184e-09
-2.2508812e-12
3.9575539e-09
2.1539772e-12
3.9575198e-09
-2.0656036e-12
3.9575526e-09