/*--------------------------------*- C++ -*----------------------------------*\
| =========                 |                                                 |
| \\      /  F ield         | OpenFOAM: The Open Source CFD Toolbox           |
|  \\    /   O peration     | Version:  2312                                  |
|   \\  /    A nd           | Website:  www.openfoam.com                      |
|    \\/     M anipulation  |                                                 |
\*---------------------------------------------------------------------------*/
FoamFile
{
    version     2.0;
    format      ascii;
    arch        "LSB;label=32;scalar=64";
    class       volSymmTensorField;
    location    "5";
    object      sigma;
}
// * * * * * * * * * * * * * * * * * * * * * * * * * * * * * * * * * * * * * //

dimensions      [0 2 -2 0 0 0 0];

internalField   nonuniform List<symmTensor> 
4000
(
(-4.0388858 -1.81803 0 -0.76367089 0 0)
(-13.106921 -0.7168984 0 -0.01241895 0 0)
(-4.284405 -0.37881143 0 -0.0024123942 0 0)
(-4.7242993 -0.39530248 0 0.00027152976 0 0)
(-4.2651151 -0.37774431 0 -0.00021072813 0 0)
(-4.1594966 -0.37224201 0 2.6144348e-05 0 0)
(-4.1920408 -0.37415134 0 -6.4558996e-05 0 0)
(-4.0637859 -0.36791732 0 1.3936228e-05 0 0)
(-4.1285047 -0.37115675 0 -3.3618739e-05 0 0)
(-4.0515781 -0.36734857 0 2.2610133e-05 0 0)
(-4.1092108 -0.37024863 0 -2.5627702e-05 0 0)
(-4.054432 -0.36748907 0 2.2873622e-05 0 0)
(-4.1025823 -0.36993094 0 -2.2309907e-05 0 0)
(-4.0578805 -0.3676601 0 2.0848598e-05 0 0)
(-4.0990639 -0.3697569 0 -1.9789108e-05 0 0)
(-4.0605473 -0.36779512 0 1.8569938e-05 0 0)
(-4.0964654 -0.36962592 0 -1.7539802e-05 0 0)
(-4.0627678 -0.36790844 0 1.6484835e-05 0 0)
(-4.0943035 -0.36951627 0 -1.5555682e-05 0 0)
(-4.0647151 -0.36800779 0 1.4647215e-05 0 0)
(-4.0924362 -0.36942147 0 -1.3825894e-05 0 0)
(-4.066438 -0.36809551 0 1.3039169e-05 0 0)
(-4.0907988 -0.36933846 0 -1.2318068e-05 0 0)
(-4.0679659 -0.36817308 0 1.1633371e-05 0 0)
(-4.0893515 -0.36926523 0 -1.1001718e-05 0 0)
(-4.069325 -0.36824189 0 1.0404409e-05 0 0)
(-4.0880643 -0.36920027 0 -9.8519368e-06 0 0)
(-4.0705384 -0.36830314 0 9.3308488e-06 0 0)
(-4.0869138 -0.36914236 0 -8.8486954e-06 0 0)
(-4.0716264 -0.36835788 0 8.3950432e-06 0 0)
(-4.0858806 -0.36909051 0 -7.9757944e-06 0 0)
(-4.0726061 -0.36840701 0 7.5825118e-06 0 0)
(-4.0849484 -0.36904389 0 -7.2200125e-06 0 0)
(-4.0734923 -0.3684513 0 6.8813222e-06 0 0)
(-4.0841033 -0.36900177 0 -6.5704564e-06 0 0)
(-4.0742981 -0.3684914 0 6.2815857e-06 0 0)
(-4.0833329 -0.36896354 0 -6.0180929e-06 0 0)
(-4.075035 -0.36852789 0 5.7750852e-06 0 0)
(-4.0826262 -0.36892864 0 -5.5554401e-06 0 0)
(-4.0757134 -0.36856131 0 5.3550381e-06 0 0)
(-4.081973 -0.36889658 0 -5.1763896e-06 0 0)
(-4.0763431 -0.36859212 0 5.0160565e-06 0 0)
(-4.0813641 -0.36886691 0 -4.8759892e-06 0 0)
(-4.0769337 -0.36862079 0 4.7546103e-06 0 0)
(-4.0807926 -0.36883927 0 -4.6508825e-06 0 0)
(-4.0774961 -0.36864785 0 4.5655868e-06 0 0)
(-4.0802448 -0.36881316 0 -4.5179871e-06 0 0)
(-4.077988 -0.36867168 0 4.3990877e-06 0 0)
(-4.0795129 -0.36877985 0 -4.6095766e-06 0 0)
(-4.0778496 -0.36866539 0 4.4454246e-06 0 0)
(-3.172942 -1.5538382 0 -0.69159471 0 0)
(-10.718449 -0.6959941 0 -0.026101167 0 0)
(-5.0568019 -0.43040588 0 -0.0071525378 0 0)
(-4.3758851 -0.37872992 0 0.00026959296 0 0)
(-3.9642688 -0.36562988 0 -0.00052890176 0 0)
(-3.837641 -0.35760016 0 3.6851361e-06 0 0)
(-3.8799269 -0.36030702 0 -0.00012174912 0 0)
(-3.7709724 -0.35444474 0 -1.9744683e-05 0 0)
(-3.822801 -0.35725324 0 -4.5349854e-05 0 0)
(-3.7580114 -0.35374706 0 1.5769004e-05 0 0)
(-3.8051314 -0.35634235 0 -2.8144406e-05 0 0)
(-3.759456 -0.35381804 0 2.2942796e-05 0 0)
(-3.7994549 -0.35604972 0 -2.3847648e-05 0 0)
(-3.7621495 -0.35396305 0 2.2125255e-05 0 0)
(-3.7965627 -0.35589444 0 -2.1293618e-05 0 0)
(-3.7643326 -0.35408446 0 1.9925525e-05 0 0)
(-3.7944093 -0.35577546 0 -1.8923672e-05 0 0)
(-3.7661703 -0.35418785 0 1.7742868e-05 0 0)
(-3.7926023 -0.3556747 0 -1.6784123e-05 0 0)
(-3.7677903 -0.35427902 0 1.5785679e-05 0 0)
(-3.7910371 -0.3555873 0 -1.4916636e-05 0 0)
(-3.7692285 -0.35435977 0 1.4061896e-05 0 0)
(-3.7896627 -0.35551063 0 -1.3290617e-05 0 0)
(-3.7705069 -0.35443136 0 1.2550448e-05 0 0)
(-3.788446 -0.35544288 0 -1.1871543e-05 0 0)
(-3.7716461 -0.35449498 0 1.1226995e-05 0 0)
(-3.7873627 -0.35538268 0 -1.0631819e-05 0 0)
(-3.7726647 -0.3545517 0 1.0069803e-05 0 0)
(-3.7863934 -0.35532896 0 -9.5498031e-06 0 0)
(-3.7735789 -0.35460246 0 9.0605714e-06 0 0)
(-3.7855223 -0.35528082 0 -8.6082024e-06 0 0)
(-3.7744027 -0.35464805 0 8.1841206e-06 0 0)
(-3.784736 -0.35523749 0 -7.7929688e-06 0 0)
(-3.7751484 -0.35468916 0 7.4278592e-06 0 0)
(-3.7840229 -0.35519835 0 -7.0925382e-06 0 0)
(-3.7758267 -0.3547264 0 6.7813244e-06 0 0)
(-3.7833726 -0.35516281 0 -6.497333e-06 0 0)
(-3.7764474 -0.35476031 0 6.2358324e-06 0 0)
(-3.7827758 -0.35513036 0 -5.9994767e-06 0 0)
(-3.7770193 -0.35479135 0 5.7842838e-06 0 0)
(-3.7822239 -0.35510055 0 -5.5926863e-06 0 0)
(-3.7775506 -0.35481998 0 5.4212931e-06 0 0)
(-3.781709 -0.35507294 0 -5.2718979e-06 0 0)
(-3.7780493 -0.35484662 0 5.144786e-06 0 0)
(-3.7812249 -0.35504721 0 -5.0332665e-06 0 0)
(-3.7785261 -0.35487181 0 4.9499665e-06 0 0)
(-3.7807662 -0.3550233 0 -4.918228e-06 0 0)
(-3.7789669 -0.3548956 0 4.7121776e-06 0 0)
(-3.7802042 -0.35499717 0 -5.3240365e-06 0 0)
(-3.7789635 -0.35489573 0 4.717049e-06 0 0)
(-3.2086027 -1.5590838 0 -0.67982062 0 0)
(-8.9155916 -0.64060723 0 -0.031050318 0 0)
(-5.0128861 -0.44377194 0 -0.010872413 0 0)
(-4.2557963 -0.37321982 0 2.4551421e-05 0 0)
(-3.7753951 -0.35756063 0 -0.00079103474 0 0)
(-3.6322629 -0.34788412 0 -1.5251905e-05 0 0)
(-3.6731767 -0.35080383 0 -0.00015637341 0 0)
(-3.5787135 -0.34534057 0 -4.8892205e-05 0 0)
(-3.6246778 -0.34793825 0 -5.1217027e-05 0 0)
(-3.5671769 -0.34462992 0 7.602468e-06 0 0)
(-3.6085143 -0.3470447 0 -2.7485631e-05 0 0)
(-3.5680707 -0.34466741 0 2.0494856e-05 0 0)
(-3.6033593 -0.34676593 0 -2.2581198e-05 0 0)
(-3.5703657 -0.34479849 0 2.0806793e-05 0 0)
(-3.6008077 -0.34662158 0 -2.0234122e-05 0 0)
(-3.5722829 -0.34491213 0 1.88833e-05 0 0)
(-3.5989146 -0.34651028 0 -1.8012363e-05 0 0)
(-3.5739046 -0.34500944 0 1.6847615e-05 0 0)
(-3.5973207 -0.34641544 0 -1.5972112e-05 0 0)
(-3.5753366 -0.34509541 0 1.5003313e-05 0 0)
(-3.5959379 -0.34633302 0 -1.4191609e-05 0 0)
(-3.5766098 -0.34517168 0 1.3371301e-05 0 0)
(-3.5947226 -0.34626062 0 -1.2643676e-05 0 0)
(-3.577743 -0.3452394 0 1.1936861e-05 0 0)
(-3.5936458 -0.34619658 0 -1.1293485e-05 0 0)
(-3.5787538 -0.34529965 0 1.0679155e-05 0 0)
(-3.5926864 -0.34613963 0 -1.0113911e-05 0 0)
(-3.5796582 -0.34535343 0 9.5785708e-06 0 0)
(-3.5918276 -0.34608875 0 -9.0841822e-06 0 0)
(-3.5804703 -0.34540158 0 8.6182356e-06 0 0)
(-3.5910555 -0.34604311 0 -8.1879053e-06 0 0)
(-3.5812024 -0.34544487 0 7.7840189e-06 0 0)
(-3.5903583 -0.34600203 0 -7.4118314e-06 0 0)
(-3.5818651 -0.34548392 0 7.0641359e-06 0 0)
(-3.5897259 -0.34596489 0 -6.7450778e-06 0 0)
(-3.582468 -0.3455193 0 6.4487794e-06 0 0)
(-3.5891492 -0.34593116 0 -6.1786513e-06 0 0)
(-3.5830196 -0.34555153 0 5.929829e-06 0 0)
(-3.5886199 -0.34590035 0 -5.7052142e-06 0 0)
(-3.5835278 -0.34558105 0 5.500715e-06 0 0)
(-3.5881303 -0.34587203 0 -5.3190597e-06 0 0)
(-3.5839999 -0.34560828 0 5.1566677e-06 0 0)
(-3.5876734 -0.34584578 0 -5.0157024e-06 0 0)
(-3.5844431 -0.34563362 0 4.8971642e-06 0 0)
(-3.5872434 -0.34582129 0 -4.7911093e-06 0 0)
(-3.5848671 -0.3456576 0 4.7203477e-06 0 0)
(-3.5868369 -0.34579861 0 -4.697663e-06 0 0)
(-3.5852659 -0.34568082 0 4.467145e-06 0 0)
(-3.586353 -0.34577569 0 -5.2944756e-06 0 0)
(-3.5853191 -0.3456824 0 4.8161822e-06 0 0)
(-2.9742885 -1.44001 0 -0.60662458 0 0)
(-7.8927471 -0.60739355 0 -0.033932389 0 0)
(-4.9158549 -0.45423692 0 -0.014543543 0 0)
(-4.1433849 -0.3678538 0 -0.00018500038 0 0)
(-3.6066031 -0.35020952 0 -0.0011181506 0 0)
(-3.4375802 -0.3383554 0 -4.0331657e-05 0 0)
(-3.4731839 -0.34130128 0 -0.0001916763 0 0)
(-3.3906026 -0.3362228 0 -8.2003741e-05 0 0)
(-3.432288 -0.33862303 0 -5.4686649e-05 0 0)
(-3.3808518 -0.33551338 0 -3.3632471e-06 0 0)
(-3.4176055 -0.33775169 0 -2.4638597e-05 0 0)
(-3.3813517 -0.33551703 0 1.5946671e-05 0 0)
(-3.4128725 -0.3374855 0 -1.9356461e-05 0 0)
(-3.383302 -0.33563354 0 1.7680841e-05 0 0)
(-3.4105834 -0.33735135 0 -1.7463915e-05 0 0)
(-3.3849975 -0.33573938 0 1.6241936e-05 0 0)
(-3.4088946 -0.33724734 0 -1.5595366e-05 0 0)
(-3.3864443 -0.33583071 0 1.4535758e-05 0 0)
(-3.407468 -0.33715813 0 -1.3826557e-05 0 0)
(-3.3877244 -0.33591158 0 1.2964484e-05 0 0)
(-3.4062279 -0.3370804 0 -1.2281741e-05 0 0)
(-3.3888642 -0.33598346 0 1.1563307e-05 0 0)
(-3.4051369 -0.33701205 0 -1.0941276e-05 0 0)
(-3.3898799 -0.33604737 0 1.0326728e-05 0 0)
(-3.4041697 -0.33695151 0 -9.7727196e-06 0 0)
(-3.3907867 -0.33610431 0 9.2400038e-06 0 0)
(-3.4033075 -0.33689762 0 -8.7516034e-06 0 0)
(-3.3915984 -0.33615518 0 8.287726e-06 0 0)
(-3.4025355 -0.33684945 0 -7.8598147e-06 0 0)
(-3.3923275 -0.33620077 0 7.456095e-06 0 0)
(-3.4018414 -0.33680621 0 -7.0833031e-06 0 0)
(-3.3929847 -0.33624176 0 6.7333298e-06 0 0)
(-3.4012149 -0.33676727 0 -6.4107738e-06 0 0)
(-3.3935795 -0.33627877 0 6.109485e-06 0 0)
(-3.4006468 -0.33673205 0 -5.8329473e-06 0 0)
(-3.3941205 -0.33631231 0 5.5762286e-06 0 0)
(-3.4001288 -0.33670005 0 -5.3421433e-06 0 0)
(-3.3946153 -0.33634286 0 5.1266434e-06 0 0)
(-3.3996537 -0.33667082 0 -4.9321182e-06 0 0)
(-3.3950709 -0.33637087 0 4.7551541e-06 0 0)
(-3.3992145 -0.33664393 0 -4.5981094e-06 0 0)
(-3.395494 -0.33639673 0 4.4578519e-06 0 0)
(-3.3988048 -0.336619 0 -4.3363026e-06 0 0)
(-3.395891 -0.3364208 0 4.2356596e-06 0 0)
(-3.3984193 -0.33659569 0 -4.141945e-06 0 0)
(-3.3962707 -0.33644359 0 4.088531e-06 0 0)
(-3.3980563 -0.33657418 0 -4.0771736e-06 0 0)
(-3.396634 -0.33646629 0 3.8091563e-06 0 0)
(-3.39764 -0.33655425 0 -4.8707267e-06 0 0)
(-3.3967378 -0.33646963 0 4.4193345e-06 0 0)
(-2.7976615 -1.3342472 0 -0.54436025 0 0)
(-6.8948593 -0.57330864 0 -0.035639805 0 0)
(-4.7175115 -0.4587742 0 -0.017773106 0 0)
(-4.0204891 -0.36261696 0 -0.0004688015 0 0)
(-3.4521316 -0.34327839 0 -0.0014811515 0 0)
(-3.253964 -0.32901392 0 -6.5990974e-05 0 0)
(-3.2793163 -0.33175048 0 -0.00022261177 0 0)
(-3.2066809 -0.32704247 0 -0.00010984955 0 0)
(-3.2451187 -0.32929355 0 -5.6845446e-05 0 0)
(-3.1990517 -0.32637812 0 -1.3151241e-05 0 0)
(-3.2320804 -0.32846351 0 -2.190323e-05 0 0)
(-3.1993994 -0.32635871 0 1.1816178e-05 0 0)
(-3.2277597 -0.32821054 0 -1.6313309e-05 0 0)
(-3.2010755 -0.32646289 0 1.4789628e-05 0 0)
(-3.2256909 -0.32808557 0 -1.4851929e-05 0 0)
(-3.2025841 -0.32656186 0 1.376878e-05 0 0)
(-3.2241738 -0.3279882 0 -1.3317824e-05 0 0)
(-3.2038845 -0.32664789 0 1.2361248e-05 0 0)
(-3.2228893 -0.32790412 0 -1.1804897e-05 0 0)
(-3.2050377 -0.3267242 0 1.1044013e-05 0 0)
(-3.2217704 -0.32783068 0 -1.0481564e-05 0 0)
(-3.2060657 -0.32679212 0 9.859068e-06 0 0)
(-3.220785 -0.32776601 0 -9.3359879e-06 0 0)
(-3.2069826 -0.32685261 0 8.8082209e-06 0 0)
(-3.2199108 -0.32770867 0 -8.3381652e-06 0 0)
(-3.2078018 -0.32690656 0 7.8822215e-06 0 0)
(-3.2191312 -0.32765759 0 -7.4661425e-06 0 0)
(-3.2085354 -0.32695479 0 7.069523e-06 0 0)
(-3.218433 -0.32761189 0 -6.7042668e-06 0 0)
(-3.2091944 -0.32699804 0 6.3591413e-06 0 0)
(-3.2178055 -0.32757087 0 -6.0406327e-06 0 0)
(-3.2097884 -0.32703695 0 5.7414366e-06 0 0)
(-3.2172391 -0.32753391 0 -5.465724e-06 0 0)
(-3.2103258 -0.32707207 0 5.2081321e-06 0 0)
(-3.2167258 -0.32750047 0 -4.9717136e-06 0 0)
(-3.2108143 -0.32710392 0 4.7522268e-06 0 0)
(-3.2162582 -0.32747009 0 -4.5521004e-06 0 0)
(-3.2112608 -0.32713293 0 4.367875e-06 0 0)
(-3.2158295 -0.32744233 0 -4.2016018e-06 0 0)
(-3.2116717 -0.32715954 0 4.0503542e-06 0 0)
(-3.2154335 -0.32741679 0 -3.9162362e-06 0 0)
(-3.212053 -0.3271841 0 3.7964066e-06 0 0)
(-3.2150643 -0.32739309 0 -3.6926522e-06 0 0)
(-3.2124104 -0.32720698 0 3.6079069e-06 0 0)
(-3.2147172 -0.3273709 0 -3.5249186e-06 0 0)
(-3.2127519 -0.32722864 0 3.4863636e-06 0 0)
(-3.2143913 -0.32735047 0 -3.4795508e-06 0 0)
(-3.2130823 -0.32725068 0 3.1822432e-06 0 0)
(-3.2140299 -0.32733289 0 -4.4121767e-06 0 0)
(-3.2132203 -0.32725548 0 3.9896976e-06 0 0)
(-2.8104437 -1.3149805 0 -0.52361041 0 0)
(-5.9190377 -0.53802249 0 -0.037556147 0 0)
(-4.440657 -0.45619514 0 -0.020033668 0 0)
(-3.8373128 -0.35582418 0 -0.00095409348 0 0)
(-3.2992847 -0.33677989 0 -0.0019406449 0 0)
(-3.0818992 -0.32001276 0 -0.00010716658 0 0)
(-3.0935807 -0.32227822 0 -0.00025569566 0 0)
(-3.0277583 -0.31783005 0 -0.000132954 0 0)
(-3.0633392 -0.31995857 0 -5.8299835e-05 0 0)
(-3.022048 -0.31723141 0 -2.1377618e-05 0 0)
(-3.0518607 -0.31917944 0 -1.9698542e-05 0 0)
(-3.0223449 -0.31719571 0 8.4384428e-06 0 0)
(-3.047932 -0.31893973 0 -1.3814364e-05 0 0)
(-3.0237896 -0.31728886 0 1.2457566e-05 0 0)
(-3.0460534 -0.31882304 0 -1.2715409e-05 0 0)
(-3.025132 -0.31738147 0 1.1760044e-05 0 0)
(-3.0446847 -0.31873174 0 -1.1460518e-05 0 0)
(-3.0263033 -0.31746261 0 1.0588387e-05 0 0)
(-3.0435247 -0.31865241 0 -1.0156397e-05 0 0)
(-3.027345 -0.3175347 0 9.4769326e-06 0 0)
(-3.0425124 -0.31858295 0 -9.0127561e-06 0 0)
(-3.0282747 -0.31759896 0 8.4679237e-06 0 0)
(-3.0416199 -0.31852171 0 -8.0254072e-06 0 0)
(-3.0291047 -0.31765626 0 7.5682416e-06 0 0)
(-3.0408276 -0.31846736 0 -7.1664208e-06 0 0)
(-3.0298467 -0.31770741 0 6.7731141e-06 0 0)
(-3.0401208 -0.3184189 0 -6.4158166e-06 0 0)
(-3.0305114 -0.31775317 0 6.0741692e-06 0 0)
(-3.0394879 -0.31837553 0 -5.7598753e-06 0 0)
(-3.0311085 -0.31779422 0 5.4626977e-06 0 0)
(-3.0389191 -0.31833658 0 -5.1883792e-06 0 0)
(-3.0316465 -0.31783116 0 4.9307655e-06 0 0)
(-3.0384059 -0.31830149 0 -4.6932092e-06 0 0)
(-3.0321332 -0.31786451 0 4.4714129e-06 0 0)
(-3.037941 -0.31826974 0 -4.2676788e-06 0 0)
(-3.0325753 -0.31789475 0 4.0786854e-06 0 0)
(-3.0375178 -0.3182409 0 -3.9062107e-06 0 0)
(-3.0329791 -0.3179223 0 3.7475744e-06 0 0)
(-3.03713 -0.31821453 0 -3.6042669e-06 0 0)
(-3.0333506 -0.31794756 0 3.4740097e-06 0 0)
(-3.0367721 -0.31819027 0 -3.3584527e-06 0 0)
(-3.033695 -0.3179709 0 3.2551868e-06 0 0)
(-3.0364387 -0.31816776 0 -3.1657211e-06 0 0)
(-3.0340175 -0.31799263 0 3.0935917e-06 0 0)
(-3.0361254 -0.31814665 0 -3.0188687e-06 0 0)
(-3.0343253 -0.3180132 0 2.9921637e-06 0 0)
(-3.0358321 -0.31812723 0 -2.9859361e-06 0 0)
(-3.0346259 -0.31803451 0 2.6650291e-06 0 0)
(-3.0355175 -0.3181116 0 -4.0124972e-06 0 0)
(-3.0347869 -0.31804061 0 3.6023148e-06 0 0)
(-2.7576835 -1.2182221 0 -0.45383266 0 0)
(-4.9284455 -0.50494884 0 -0.038789877 0 0)
(-4.1648904 -0.45220924 0 -0.021224827 0 0)
(-3.5776845 -0.34641756 0 -0.0018024837 0 0)
(-3.1129226 -0.32879639 0 -0.0023955572 0 0)
(-2.9086935 -0.31082412 0 -0.00014497216 0 0)
(-2.9123793 -0.3127503 0 -0.00028624319 0 0)
(-2.8533937 -0.30857865 0 -0.0001501468 0 0)
(-2.8865806 -0.31060712 0 -5.894267e-05 0 0)
(-2.8497657 -0.30807031 0 -2.8179422e-05 0 0)
(-2.8768257 -0.30989567 0 -1.7827716e-05 0 0)
(-2.8501937 -0.30802817 0 5.621012e-06 0 0)
(-2.8733294 -0.30967128 0 -1.1696489e-05 0 0)
(-2.8514716 -0.30811232 0 1.0525253e-05 0 0)
(-2.871632 -0.30956256 0 -1.0911615e-05 0 0)
(-2.8526709 -0.30819913 0 1.0080851e-05 0 0)
(-2.8703963 -0.30947698 0 -9.897721e-06 0 0)
(-2.8537277 -0.30827571 0 9.0990575e-06 0 0)
(-2.8693474 -0.30940217 0 -8.7701546e-06 0 0)
(-2.8546702 -0.30834383 0 8.1586938e-06 0 0)
(-2.8684305 -0.30933649 0 -7.7771312e-06 0 0)
(-2.8555122 -0.30840463 0 7.2971001e-06 0 0)
(-2.8676212 -0.30927849 0 -6.9223329e-06 0 0)
(-2.8562644 -0.3084589 0 6.5242846e-06 0 0)
(-2.8669023 -0.30922698 0 -6.1798175e-06 0 0)
(-2.8569373 -0.30850738 0 5.8391012e-06 0 0)
(-2.8662609 -0.30918103 0 -5.5312313e-06 0 0)
(-2.8575402 -0.30855078 0 5.2358231e-06 0 0)
(-2.8656865 -0.30913988 0 -4.9644164e-06 0 0)
(-2.8580818 -0.30858973 0 4.7076198e-06 0 0)
(-2.8651704 -0.30910293 0 -4.4705188e-06 0 0)
(-2.8585697 -0.30862477 0 4.2479534e-06 0 0)
(-2.864705 -0.30906964 0 -4.0425511e-06 0 0)
(-2.8590108 -0.30865641 0 3.8509387e-06 0 0)
(-2.8642835 -0.30903952 0 -3.6747546e-06 0 0)
(-2.8594113 -0.3086851 0 3.5114759e-06 0 0)
(-2.8639001 -0.30901215 0 -3.3623062e-06 0 0)
(-2.859777 -0.30871124 0 3.2252413e-06 0 0)
(-2.863549 -0.30898713 0 -3.101276e-06 0 0)
(-2.8601132 -0.30873521 0 2.9886952e-06 0 0)
(-2.8632251 -0.30896411 0 -2.8887419e-06 0 0)
(-2.8604246 -0.30875736 0 2.7993806e-06 0 0)
(-2.8629237 -0.30894274 0 -2.7219032e-06 0 0)
(-2.860716 -0.30877799 0 2.6602002e-06 0 0)
(-2.8626404 -0.30892268 0 -2.5924046e-06 0 0)
(-2.8609937 -0.3087975 0 2.5756016e-06 0 0)
(-2.8623759 -0.30890424 0 -2.5679697e-06 0 0)
(-2.8612672 -0.30881802 0 2.23053e-06 0 0)
(-2.8621017 -0.30889024 0 -3.6521798e-06 0 0)
(-2.8614426 -0.30882525 0 3.2502245e-06 0 0)
(-2.7749176 -1.1841639 0 -0.42774211 0 0)
(-3.9965455 -0.48322838 0 -0.044935125 0 0)
(-3.8353393 -0.44042718 0 -0.021278838 0 0)
(-3.3480163 -0.34661441 0 -0.0046261277 0 0)
(-2.9513581 -0.32282605 0 -0.0030816459 0 0)
(-2.7458175 -0.30203161 0 -0.00022939624 0 0)
(-2.7400175 -0.30338177 0 -0.00032580841 0 0)
(-2.6843007 -0.29930526 0 -0.00016393457 0 0)
(-2.7152713 -0.30125292 0 -5.8699109e-05 0 0)
(-2.6824174 -0.29889931 0 -3.3726571e-05 0 0)
(-2.7070295 -0.30061367 0 -1.6115343e-05 0 0)
(-2.683 -0.29885728 0 3.1959391e-06 0 0)
(-2.7039445 -0.30040527 0 -9.8289795e-06 0 0)
(-2.6841448 -0.29893378 0 8.8535857e-06 0 0)
(-2.7024126 -0.300304 0 -9.3237547e-06 0 0)
(-2.6852176 -0.29901515 0 8.6156754e-06 0 0)
(-2.7012949 -0.30022375 0 -8.5243055e-06 0 0)
(-2.6861715 -0.29908741 0 7.793201e-06 0 0)
(-2.7003454 -0.3001532 0 -7.5525773e-06 0 0)
(-2.687025 -0.29915178 0 7.0009423e-06 0 0)
(-2.6995142 -0.30009111 0 -6.6915444e-06 0 0)
(-2.6877882 -0.29920929 0 6.2681263e-06 0 0)
(-2.6987797 -0.30003621 0 -5.9527778e-06 0 0)
(-2.6884706 -0.29926066 0 5.6064578e-06 0 0)
(-2.698127 -0.29998742 0 -5.3123531e-06 0 0)
(-2.6890812 -0.2993066 0 5.017755e-06 0 0)
(-2.6975445 -0.29994386 0 -4.753334e-06 0 0)
(-2.6896284 -0.29934773 0 4.4985422e-06 0 0)
(-2.6970229 -0.29990486 0 -4.2648727e-06 0 0)
(-2.6901198 -0.29938465 0 4.0435873e-06 0 0)
(-2.6965544 -0.29986983 0 -3.8392593e-06 0 0)
(-2.6905624 -0.29941787 0 3.6475372e-06 0 0)
(-2.696132 -0.29983827 0 -3.4704613e-06 0 0)
(-2.6909625 -0.29944786 0 3.3054211e-06 0 0)
(-2.6957498 -0.29980972 0 -3.1535112e-06 0 0)
(-2.6913255 -0.29947505 0 3.0128714e-06 0 0)
(-2.6954022 -0.29978378 0 -2.8842336e-06 0 0)
(-2.6916568 -0.29949982 0 2.7661552e-06 0 0)
(-2.6950842 -0.29976006 0 -2.659223e-06 0 0)
(-2.6919612 -0.29952255 0 2.5621916e-06 0 0)
(-2.6947909 -0.29973824 0 -2.4759636e-06 0 0)
(-2.6922431 -0.29954354 0 2.3988143e-06 0 0)
(-2.6945182 -0.29971797 0 -2.3318842e-06 0 0)
(-2.6925066 -0.2995631 0 2.2792095e-06 0 0)
(-2.694262 -0.29969894 0 -2.2176736e-06 0 0)
(-2.6927573 -0.2995816 0 2.209364e-06 0 0)
(-2.6940231 -0.29968142 0 -2.1995406e-06 0 0)
(-2.693006 -0.29960128 0 1.8519047e-06 0 0)
(-2.6937839 -0.2996688 0 -3.312391e-06 0 0)
(-2.6931897 -0.29960947 0 2.9214867e-06 0 0)
(-2.8284935 -1.1311954 0 -0.38492687 0 0)
(-3.3038532 -0.45750143 0 -0.046785233 0 0)
(-3.4868801 -0.41461854 0 -0.018697958 0 0)
(-3.0472121 -0.33618639 0 -0.0061270919 0 0)
(-2.7692565 -0.3138193 0 -0.0033184259 0 0)
(-2.5800382 -0.29273884 0 -0.00029383491 0 0)
(-2.5709278 -0.29388799 0 -0.0003584555 0 0)
(-2.5204423 -0.29002866 0 -0.00017255237 0 0)
(-2.5490431 -0.29188598 0 -5.7481803e-05 0 0)
(-2.5199024 -0.28971547 0 -3.7908213e-05 0 0)
(-2.542373 -0.29133074 0 -1.4410674e-05 0 0)
(-2.5207353 -0.28968167 0 1.1297773e-06 0 0)
(-2.5397348 -0.29114075 0 -8.143376e-06 0 0)
(-2.5218084 -0.28975284 0 7.390622e-06 0 0)
(-2.5383742 -0.29104706 0 -7.9023361e-06 0 0)
(-2.5227799 -0.28982945 0 7.3187091e-06 0 0)
(-2.5373677 -0.29097195 0 -7.297374e-06 0 0)
(-2.5236441 -0.28989772 0 6.6309298e-06 0 0)
(-2.5365087 -0.29090547 0 -6.4658442e-06 0 0)
(-2.5244181 -0.28995856 0 5.9683619e-06 0 0)
(-2.5357549 -0.29084679 0 -5.7225693e-06 0 0)
(-2.5251105 -0.29001295 0 5.3496119e-06 0 0)
(-2.5350882 -0.29079485 0 -5.0870857e-06 0 0)
(-2.5257298 -0.29006157 0 4.7868168e-06 0 0)
(-2.5344953 -0.29074865 0 -4.5376184e-06 0 0)
(-2.5262841 -0.29010506 0 4.2841339e-06 0 0)
(-2.5339663 -0.2907074 0 -4.0585195e-06 0 0)
(-2.5267808 -0.29014402 0 3.8399859e-06 0 0)
(-2.5334926 -0.29067046 0 -3.6400597e-06 0 0)
(-2.5272268 -0.29017899 0 3.4505047e-06 0 0)
(-2.5330672 -0.29063728 0 -3.2755014e-06 0 0)
(-2.5276284 -0.29021045 0 3.111353e-06 0 0)
(-2.5326839 -0.29060739 0 -2.9596311e-06 0 0)
(-2.5279912 -0.29023885 0 2.8183507e-06 0 0)
(-2.5323373 -0.29058035 0 -2.6881684e-06 0 0)
(-2.5283203 -0.29026459 0 2.5677695e-06 0 0)
(-2.5320221 -0.29055579 0 -2.4575058e-06 0 0)
(-2.5286206 -0.29028805 0 2.3563972e-06 0 0)
(-2.5317339 -0.29053333 0 -2.2647004e-06 0 0)
(-2.5288962 -0.29030957 0 2.1815588e-06 0 0)
(-2.5314684 -0.29051266 0 -2.1075937e-06 0 0)
(-2.5291513 -0.29032946 0 2.04134e-06 0 0)
(-2.5312216 -0.29049347 0 -1.9838356e-06 0 0)
(-2.5293896 -0.29034799 0 1.9390986e-06 0 0)
(-2.5309898 -0.29047542 0 -1.8833693e-06 0 0)
(-2.529616 -0.29036549 0 1.8823001e-06 0 0)
(-2.5307739 -0.29045879 0 -1.8700178e-06 0 0)
(-2.5298421 -0.29038432 0 1.5176892e-06 0 0)
(-2.5305651 -0.29044734 0 -2.9871642e-06 0 0)
(-2.5300294 -0.29039331 0 2.6140396e-06 0 0)
(-2.8873343 -1.0623235 0 -0.33383139 0 0)
(-2.8780879 -0.4273505 0 -0.044931119 0 0)
(-3.1910806 -0.41271674 0 -0.02352418 0 0)
(-2.7691906 -0.33106188 0 -0.0089013979 0 0)
(-2.5987463 -0.30556105 0 -0.0035261638 0 0)
(-2.4215236 -0.28387651 0 -0.00044367495 0 0)
(-2.4083699 -0.28445873 0 -0.00039488227 0 0)
(-2.3618449 -0.2807351 0 -0.00017613199 0 0)
(-2.3882101 -0.28251494 0 -5.4892198e-05 0 0)
(-2.3624029 -0.28052122 0 -4.0611131e-05 0 0)
(-2.3829428 -0.28204849 0 -1.2575899e-05 0 0)
(-2.3634707 -0.28050244 0 -5.8115023e-07 0 0)
(-2.3807163 -0.28187818 0 -6.5979396e-06 0 0)
(-2.3644894 -0.28056992 0 6.1104333e-06 0 0)
(-2.3795131 -0.28179189 0 -6.6240965e-06 0 0)
(-2.365372 -0.2806422 0 6.165645e-06 0 0)
(-2.3786069 -0.28172159 0 -6.1970096e-06 0 0)
(-2.3661553 -0.28070672 0 5.591965e-06 0 0)
(-2.3778294 -0.28165895 0 -5.4918675e-06 0 0)
(-2.3668574 -0.28076422 0 5.0435364e-06 0 0)
(-2.3771458 -0.28160352 0 -4.8540478e-06 0 0)
(-2.3674858 -0.28081564 0 4.5262807e-06 0 0)
(-2.3765405 -0.2815544 0 -4.3109181e-06 0 0)
(-2.3680479 -0.28086163 0 4.051847e-06 0 0)
(-2.3760021 -0.28151068 0 -3.8428733e-06 0 0)
(-2.368551 -0.28090279 0 3.6262177e-06 0 0)
(-2.3755216 -0.28147164 0 -3.4354231e-06 0 0)
(-2.3690018 -0.28093966 0 3.2494088e-06 0 0)
(-2.3750915 -0.28143667 0 -3.0797897e-06 0 0)
(-2.3694065 -0.28097274 0 2.9187146e-06 0 0)
(-2.3747054 -0.28140527 0 -2.7700639e-06 0 0)
(-2.3697708 -0.28100251 0 2.630673e-06 0 0)
(-2.3743577 -0.28137699 0 -2.5017391e-06 0 0)
(-2.3700997 -0.28102938 0 2.3817926e-06 0 0)
(-2.3740434 -0.28135141 0 -2.2711369e-06 0 0)
(-2.370398 -0.28105373 0 2.1689092e-06 0 0)
(-2.3737578 -0.28132817 0 -2.0751535e-06 0 0)
(-2.3706699 -0.28107593 0 1.9892738e-06 0 0)
(-2.3734967 -0.28130693 0 -1.9112586e-06 0 0)
(-2.3709195 -0.28109628 0 1.8405756e-06 0 0)
(-2.3732563 -0.28128737 0 -1.7776103e-06 0 0)
(-2.3711504 -0.2811151 0 1.7211221e-06 0 0)
(-2.3730329 -0.28126921 0 -1.6720746e-06 0 0)
(-2.3713659 -0.28113264 0 1.6343474e-06 0 0)
(-2.3728232 -0.28125211 0 -1.5840626e-06 0 0)
(-2.3715703 -0.28114919 0 1.589057e-06 0 0)
(-2.3726281 -0.28123634 0 -1.5743913e-06 0 0)
(-2.3717756 -0.28116714 0 1.2221194e-06 0 0)
(-2.372446 -0.28122588 0 -2.6751814e-06 0 0)
(-2.3719631 -0.2811768 0 2.3282659e-06 0 0)
(-2.9189933 -1.0533286 0 -0.32522889 0 0)
(-2.5310193 -0.41018744 0 -0.046775933 0 0)
(-2.8936367 -0.39020264 0 -0.022070088 0 0)
(-2.5144002 -0.31582494 0 -0.0087597905 0 0)
(-2.4286375 -0.2943738 0 -0.0031296637 0 0)
(-2.2730115 -0.27502121 0 -0.00057715947 0 0)
(-2.2550627 -0.27512487 0 -0.00041846536 0 0)
(-2.2092716 -0.27143262 0 -0.00017140756 0 0)
(-2.2330798 -0.27314485 0 -4.8585704e-05 0 0)
(-2.2100295 -0.27131718 0 -4.0960191e-05 0 0)
(-2.2287454 -0.27276634 0 -1.0140012e-05 0 0)
(-2.2112102 -0.27131906 0 -1.8059346e-06 0 0)
(-2.2268637 -0.27261683 0 -5.105663e-06 0 0)
(-2.2121862 -0.27138468 0 5.0124006e-06 0 0)
(-2.2258117 -0.27253808 0 -5.4601311e-06 0 0)
(-2.2129973 -0.27145331 0 5.1406013e-06 0 0)
(-2.2250015 -0.2724725 0 -5.204252e-06 0 0)
(-2.213711 -0.27151441 0 4.6605245e-06 0 0)
(-2.2242998 -0.27241356 0 -4.61494e-06 0 0)
(-2.2143491 -0.27156878 0 4.2122446e-06 0 0)
(-2.2236806 -0.27236123 0 -4.0723688e-06 0 0)
(-2.2149195 -0.27161739 0 3.7854932e-06 0 0)
(-2.2231314 -0.2723148 0 -3.6123171e-06 0 0)
(-2.2154296 -0.27166088 0 3.3903321e-06 0 0)
(-2.2226427 -0.27227346 0 -3.2175271e-06 0 0)
(-2.215886 -0.2716998 0 3.0340239e-06 0 0)
(-2.2222066 -0.27223654 0 -2.8746052e-06 0 0)
(-2.216295 -0.27173466 0 2.7178834e-06 0 0)
(-2.2218164 -0.27220348 0 -2.5756003e-06 0 0)
(-2.216662 -0.27176594 0 2.4401906e-06 0 0)
(-2.2214662 -0.27217379 0 -2.3153181e-06 0 0)
(-2.2169921 -0.27179408 0 2.1982405e-06 0 0)
(-2.221151 -0.27214706 0 -2.0898687e-06 0 0)
(-2.2172902 -0.27181947 0 1.9891483e-06 0 0)
(-2.2208661 -0.27212288 0 -1.8961082e-06 0 0)
(-2.2175604 -0.27184249 0 1.8102524e-06 0 0)
(-2.2206074 -0.27210092 0 -1.7313845e-06 0 0)
(-2.2178066 -0.27186346 0 1.6592212e-06 0 0)
(-2.2203711 -0.27208085 0 -1.5935394e-06 0 0)
(-2.2180324 -0.2718827 0 1.5340735e-06 0 0)
(-2.2201535 -0.27206236 0 -1.4810153e-06 0 0)
(-2.2182412 -0.27190049 0 1.4333178e-06 0 0)
(-2.2199515 -0.27204519 0 -1.3918903e-06 0 0)
(-2.218436 -0.27191707 0 1.3603843e-06 0 0)
(-2.2197619 -0.27202902 0 -1.3152569e-06 0 0)
(-2.2186204 -0.2719327 0 1.325225e-06 0 0)
(-2.2195855 -0.27201407 0 -1.3085152e-06 0 0)
(-2.2188066 -0.27194977 0 9.6043919e-07 0 0)
(-2.2194268 -0.27200446 0 -2.375497e-06 0 0)
(-2.2189917 -0.27195997 0 2.0640386e-06 0 0)
(-3.0101687 -0.96763687 0 -0.26386812 0 0)
(-2.2952943 -0.38640049 0 -0.042146955 0 0)
(-2.6760984 -0.37648305 0 -0.021773046 0 0)
(-2.3401155 -0.30722733 0 -0.0092187191 0 0)
(-2.2789419 -0.28475129 0 -0.0029160139 0 0)
(-2.1261841 -0.26591776 0 -0.00065498038 0 0)
(-2.1058241 -0.26566589 0 -0.00040943513 0 0)
(-2.0624469 -0.26213608 0 -0.00015514438 0 0)
(-2.0834038 -0.26377045 0 -3.9152389e-05 0 0)
(-2.0628318 -0.26210542 0 -3.9087129e-05 0 0)
(-2.0798267 -0.26348473 0 -7.0281921e-06 0 0)
(-2.06402 -0.2621325 0 -2.530053e-06 0 0)
(-2.0782068 -0.26335712 0 -3.6104781e-06 0 0)
(-2.0649322 -0.26219764 0 4.094015e-06 0 0)
(-2.0772771 -0.26328582 0 -4.3838551e-06 0 0)
(-2.0656714 -0.26226304 0 4.2298733e-06 0 0)
(-2.0765495 -0.26322472 0 -4.3025228e-06 0 0)
(-2.0663198 -0.26232092 0 3.8222196e-06 0 0)
(-2.0759156 -0.26316927 0 -3.82152e-06 0 0)
(-2.0668989 -0.26237232 0 3.4616531e-06 0 0)
(-2.0753547 -0.2631199 0 -3.3656521e-06 0 0)
(-2.0674164 -0.26241825 0 3.1159814e-06 0 0)
(-2.0748568 -0.26307604 0 -2.9807584e-06 0 0)
(-2.0678789 -0.26245935 0 2.7923203e-06 0 0)
(-2.0744136 -0.26303698 0 -2.6522221e-06 0 0)
(-2.0682927 -0.26249612 0 2.4987017e-06 0 0)
(-2.0740182 -0.2630021 0 -2.367706e-06 0 0)
(-2.0686633 -0.26252905 0 2.2374894e-06 0 0)
(-2.0736644 -0.26297086 0 -2.1199851e-06 0 0)
(-2.0689958 -0.26255859 0 2.0078046e-06 0 0)
(-2.0733471 -0.26294283 0 -1.904488e-06 0 0)
(-2.0692948 -0.26258517 0 1.8076054e-06 0 0)
(-2.0730616 -0.26291758 0 -1.7178709e-06 0 0)
(-2.0695646 -0.26260914 0 1.634548e-06 0 0)
(-2.0728037 -0.26289475 0 -1.5574701e-06 0 0)
(-2.069809 -0.26263087 0 1.4864249e-06 0 0)
(-2.0725696 -0.26287402 0 -1.4210431e-06 0 0)
(-2.0700317 -0.26265067 0 1.3612843e-06 0 0)
(-2.0723558 -0.26285507 0 -1.306771e-06 0 0)
(-2.0702359 -0.26266883 0 1.2574471e-06 0 0)
(-2.0721592 -0.26283761 0 -1.2133535e-06 0 0)
(-2.0704246 -0.26268563 0 1.1736073e-06 0 0)
(-2.0719766 -0.2628214 0 -1.1390785e-06 0 0)
(-2.0706005 -0.26270129 0 1.1131259e-06 0 0)
(-2.0718053 -0.26280611 0 -1.072927e-06 0 0)
(-2.0707668 -0.26271604 0 1.0868656e-06 0 0)
(-2.0716459 -0.26279196 0 -1.0686349e-06 0 0)
(-2.0709355 -0.26273223 0 7.2836126e-07 0 0)
(-2.0715079 -0.26278307 0 -2.0871586e-06 0 0)
(-2.0711161 -0.26274285 0 1.82072e-06 0 0)
(-3.0316241 -0.9646197 0 -0.26006442 0 0)
(-2.1382481 -0.37221346 0 -0.042944024 0 0)
(-2.4907757 -0.35753591 0 -0.020104355 0 0)
(-2.1812814 -0.29448486 0 -0.0086588215 0 0)
(-2.1325382 -0.27392978 0 -0.0025365407 0 0)
(-1.9886371 -0.25663124 0 -0.00063048881 0 0)
(-1.9657324 -0.25627694 0 -0.0003664878 0 0)
(-1.9221956 -0.25285866 0 -0.00012834752 0 0)
(-1.9396462 -0.2544103 0 -2.5312537e-05 0 0)
(-1.9209875 -0.25289187 0 -3.4354189e-05 0 0)
(-1.9362458 -0.25420624 0 -2.7865633e-06 0 0)
(-1.9219276 -0.25294393 0 -2.5968155e-06 0 0)
(-1.934739 -0.25409925 0 -2.0146269e-06 0 0)
(-1.9227296 -0.2530089 0 3.3719457e-06 0 0)
(-1.9338974 -0.25403491 0 -3.3655886e-06 0 0)
(-1.923396 -0.25307136 0 3.4261721e-06 0 0)
(-1.9332426 -0.25397808 0 -3.4757871e-06 0 0)
(-1.9239849 -0.25312626 0 3.066713e-06 0 0)
(-1.9326709 -0.25392599 0 -3.0995968e-06 0 0)
(-1.9245107 -0.25317487 0 2.7817495e-06 0 0)
(-1.9321639 -0.25387946 0 -2.7238677e-06 0 0)
(-1.92498 -0.25321826 0 2.508659e-06 0 0)
(-1.9317131 -0.25383807 0 -2.4075289e-06 0 0)
(-1.9253991 -0.25325706 0 2.2496883e-06 0 0)
(-1.9313117 -0.2538012 0 -2.1392546e-06 0 0)
(-1.9257738 -0.25329177 0 2.0129925e-06 0 0)
(-1.9309536 -0.25376828 0 -1.9078489e-06 0 0)
(-1.9261092 -0.25332285 0 1.8017162e-06 0 0)
(-1.9306333 -0.2537388 0 -1.706765e-06 0 0)
(-1.9264101 -0.25335073 0 1.6156883e-06 0 0)
(-1.9303462 -0.25371235 0 -1.5319913e-06 0 0)
(-1.9266805 -0.25337579 0 1.4534519e-06 0 0)
(-1.9300879 -0.25368853 0 -1.3806757e-06 0 0)
(-1.9269244 -0.2533984 0 1.3131508e-06 0 0)
(-1.9298547 -0.25366701 0 -1.2505918e-06 0 0)
(-1.9271454 -0.25341889 0 1.1929917e-06 0 0)
(-1.9296432 -0.25364745 0 -1.1398726e-06 0 0)
(-1.9273465 -0.25343756 0 1.0913715e-06 0 0)
(-1.92945 -0.25362958 0 -1.0470108e-06 0 0)
(-1.9275309 -0.25345469 0 1.0068902e-06 0 0)
(-1.9292724 -0.25361312 0 -9.7094106e-07 0 0)
(-1.9277013 -0.25347054 0 9.3841617e-07 0 0)
(-1.9291077 -0.25359782 0 -9.1015732e-07 0 0)
(-1.92786 -0.25348531 0 8.8918713e-07 0 0)
(-1.9289531 -0.25358339 0 -8.537248e-07 0 0)