/*--------------------------------*- C++ -*----------------------------------*\
| =========                 |                                                 |
| \\      /  F ield         | OpenFOAM: The Open Source CFD Toolbox           |
|  \\    /   O peration     | Version:  2312                                  |
|   \\  /    A nd           | Website:  www.openfoam.com                      |
|    \\/     M anipulation  |                                                 |
\*---------------------------------------------------------------------------*/
FoamFile
{
    version     2.0;
    format      ascii;
    arch        "LSB;label=32;scalar=64";
    class       volScalarField;
    location    "5";
    object      T;
}
// * * * * * * * * * * * * * * * * * * * * * * * * * * * * * * * * * * * * * //

dimensions      [0 0 0 1 0 0 0];

internalField   nonuniform List<scalar> 
4000
(
325.20569
324.06208
323.83325
323.76605
323.68898
323.63544
323.5836
323.53741
323.49258
323.45087
323.40916
323.36974
323.32996
323.29185
323.25343
323.21617
323.17876
323.14208
323.10543
323.06917
323.03313
322.99718
322.96164
322.92591
322.89078
322.85522
322.82044
322.785
322.75053
322.71518
322.68098
322.6457
322.61173
322.57649
322.54275
322.50753
322.474
322.43877
322.40545
322.37019
322.33708
322.30176
322.26888
322.23346
322.20084
322.16525
322.13297
322.09707
322.06539
322.02827
327.13937
325.29753
324.6875
324.55213
324.38839
324.29465
324.20618
324.13452
324.06702
324.0088
323.95066
323.89929
323.84693
323.79953
323.75123
323.70638
323.66108
323.61798
323.57498
323.53313
323.49196
323.45103
323.41134
323.37108
323.33263
323.29288
323.25549
323.21611
323.17962
323.14052
323.10485
323.06593
323.03098
322.99219
322.95791
322.91917
322.88553
322.84676
322.81375
322.7749
322.74252
322.70348
322.67178
322.63245
322.60152
322.56169
322.53178
322.49101
322.46292
322.41865
328.33373
326.48585
325.53447
325.33262
325.08449
324.95103
324.82649
324.7295
324.63963
324.56494
324.49055
324.42725
324.36245
324.30573
324.24766
324.19519
324.1421
324.09255
324.04328
323.99581
323.94958
323.90363
323.85986
323.81505
323.77333
323.72937
323.68939
323.64606
323.6076
323.56472
323.5276
323.48504
323.44914
323.40677
323.37199
323.3297
323.29598
323.25367
323.22098
323.17852
323.14689
323.10413
323.07362
323.03037
323.00115
322.95708
322.92954
322.88391
322.85938
322.80835
329.12313
327.58469
326.36177
326.09992
325.77251
325.60093
325.44166
325.31986
325.20829
325.11733
325.02712
324.95196
324.87503
324.80903
324.74143
324.68134
324.62064
324.56463
324.50924
324.45614
324.40496
324.35399
324.30623
324.25685
324.21195
324.16375
324.12127
324.07396
324.03359
323.98692
323.94842
323.9022
323.86538
323.81943
323.78417
323.73835
323.70457
323.65871
323.62637
323.5803
323.54944
323.50296
323.47366
323.42649
323.39899
323.35068
323.32551
323.27507
323.25398
323.19678
329.67046
328.56098
327.15351
326.84388
326.44593
326.23938
326.0478
325.90232
325.77024
325.66345
325.55818
325.47139
325.38285
325.30769
325.23093
325.16329
325.09529
325.03284
324.97158
324.91285
324.85692
324.80093
324.74935
324.69539
324.64743
324.59501
324.55013
324.49884
324.45665
324.40619
324.36638
324.31649
324.27883
324.2293
324.19363
324.14426
324.11047
324.06106
324.02912
323.97944
323.94937
323.89918
323.87111
323.82005
323.79426
323.74176
323.71893
323.66377
323.64594
323.58323
330.06123
329.39023
327.89286
327.55269
327.09695
326.86043
326.6402
326.47292
326.3221
326.20034
326.08109
325.98312
325.88373
325.79967
325.71432
325.63928
325.56441
325.49562
325.42882
325.36453
325.30413
325.24315
325.18797
325.12947
325.07865
325.022
324.9749
324.91964
324.87576
324.82152
324.78051
324.72697
324.68855
324.63546
324.59944
324.54654
324.51281
324.45986
324.42836
324.37511
324.34587
324.292
324.26517
324.21026
324.18618
324.12956
324.109
324.04929
324.03445
323.96694
330.34667
330.06345
328.56516
328.2141
327.71714
327.45744
327.21351
327.0272
326.86005
326.72459
326.59285
326.48443
326.37521
326.28269
326.1895
326.10735
326.02617
325.95125
325.87934
325.80963
325.74511
325.67925
325.62076
325.55779
325.50434
325.44354
325.39439
325.33522
325.28982
325.23183
325.18976
325.13261
325.09356
325.03693
325.00067
324.94428
324.91068
324.85424
324.82324
324.76645
324.73808
324.68058
324.65501
324.59633
324.57393
324.51331
324.49492
324.43089
324.41872
324.3471
330.55897
330.58274
329.15918
328.81686
328.29822
328.02357
327.7621
327.56038
327.37996
327.23258
327.09023
326.97238
326.85462
326.75428
326.6542
326.56538
326.4786
326.39784
326.32139
326.24649
326.17829
326.10772
326.04627
325.97896
325.92318
325.85833
325.80739
325.74439
325.69767
325.63602
325.59306
325.53237
325.49281
325.43272
325.39633
325.33652
325.30313
325.24327
325.21282
325.15259
325.12511
325.06409
325.03977
324.97744
324.95668
324.89224
324.87588
324.80785
324.79794
324.72289
330.71995
330.96143
329.66921
329.35226
328.83288
328.55226
328.28037
328.06764
327.87759
327.72053
327.56984
327.4439
327.31916
327.21188
327.10603
327.01113
326.91962
326.83346
326.75313
326.67335
326.602
326.52697
326.463
326.39156
326.33378
326.26505
326.2126
326.14591
326.09811
326.03293
325.98926
325.92515
325.88525
325.8218
325.7854
325.72227
325.68919
325.62603
325.5962
325.53263
325.50608
325.44167
325.4186
325.35279
325.33359
325.26555
325.25106
325.17938
325.17135
325.09345
330.84479
331.21959
330.09431
329.81526
329.31535
329.03779
328.76317
328.5444
328.3488
328.18473
328.02831
327.8959
327.76599
327.65286
327.54256
327.44235
327.34709
327.25609
327.17267
327.08844
327.01455
326.9354
326.86939
326.79409
326.73473
326.66235
326.60871
326.53854
326.48991
326.42137
326.37722
326.30984
326.26977
326.20313
326.16685
326.10056
326.06788
326.00156
325.97242
325.90567
325.88009
325.81246
325.79061
325.72153
325.70381
325.63246
325.61964
325.54473
325.53819
325.45797
330.94431
331.3815
330.43865
330.20491
329.74184
329.47571
329.20613
328.98659
328.78979
328.62173
328.46242
328.32545
328.19237
328.07466
327.96139
327.85679
327.75891
327.66376
327.5781
327.48996
327.41423
327.33138
327.2639
327.18507
327.12458
327.04884
326.99439
326.92098
326.87184
326.80017
326.75578
326.68534
326.6453
326.57565
326.53964
326.47037
326.43822
326.36893
326.34054
326.27083
326.24622
326.1756
326.15495
326.08285
326.06651
325.99216
325.98081
325.90311
325.8977
325.81562
331.0261
331.47196
330.70993
330.52408
330.11076
329.86323
329.60601
329.39093
329.19735
329.02848
328.86927
328.72982
328.59571
328.4749
328.36024
328.25232
328.15303
328.05454
327.96761
327.87618
327.79937
327.71332
327.64497
327.56306
327.50193
327.42319
327.36832
327.292
327.24267
327.16815
327.12378
327.05055
327.01073
326.93832
326.90275
326.83075
326.79922
326.72721
326.69964
326.62719
326.60359
326.53024
326.51075
326.43594
326.42087
326.34389
326.33378
326.25375
326.24918
326.16563
331.09543
331.51414
330.91847
330.7786
330.42285
330.1994
329.96093
329.75515
329.56899
329.40253
329.24644
329.1067
328.97377
328.85142
328.73704
328.62698
328.52757
328.42665
328.33944
328.24546
328.16837
328.07972
328.01116
327.92665
327.86541
327.78409
327.72925
327.65038
327.60121
327.52417
327.48012
327.40438
327.36503
327.29014
327.25518
327.18071
327.14994
327.07548
327.0488
326.97391
326.95133
326.87556
326.85718
326.77999
326.76608
326.68686
326.6778
326.59589
326.59191
326.50724
331.15586
331.52724
331.07541
330.97639
330.68103
330.48519
330.27044
330.07812
329.90319
329.74219
329.59209
329.45425
329.32469
329.20243
329.09001
328.97906
328.88084
328.77847
328.69204
328.5963
328.51977
328.42918
328.36109
328.27454
328.21375
328.13033
328.07596
327.99497
327.94633
327.86715
327.82371
327.74583
327.70717
327.63015
327.59597
327.51936
327.48947
327.41287
327.38715
327.31015
327.28859
327.21075
327.19344
327.11426
327.10138
327.02034
327.01214
326.9288
326.92523
326.83975
331.20968
331.52587
331.19186
331.12651
330.89001
330.72329
330.53557
330.35993
330.19938
330.04657
329.90509
329.77122
329.64709
329.52654
329.41772
329.30716
329.21144
329.10866
329.02405
328.9274
328.85228
328.76047
328.69353
328.60555
328.54577
328.46079
328.40736
328.32472
328.27699
328.1961
328.15357
328.07395
328.03622
327.95742
327.92421
327.84582
327.81693
327.73856
327.71387
327.63511
327.6146
327.53505
327.51876
327.43799
327.42604
327.34361
327.33611
327.25176
327.24846
327.16248
331.25842
331.51995
331.27779
331.23829
331.0558
330.91781
330.75866
330.60183
330.45804
330.31566
330.18501
330.05699
329.94018
329.82287
329.71919
329.61026
329.5183
329.41614
329.33438
329.23768
329.16482
329.07252
329.00744
328.91866
328.86047
328.77449
328.72247
328.63868
328.59224
328.51011
328.46879
328.38786
328.3513
328.27114
328.23907
328.15931
328.13153
328.05178
328.02818
327.94807
327.92861
327.84776
327.83245
327.7505
327.73938
327.656
327.64906
327.56411
327.56101
327.4748
331.30295
331.51527
331.34176
331.3205
331.18506
331.07383
330.94315
330.80614
330.6806
330.5503
330.43222
330.31163
330.20372
330.09104
329.99386
329.88776
329.8007
329.70017
329.62223
329.52636
329.45654
329.36451
329.30195
329.21305
329.157
329.07061
329.02046
328.93605
328.89128
328.80839
328.7686
328.68681
328.65166
328.57058
328.53983
328.4591
328.43257
328.35184
328.32941
328.24835
328.22996
328.14823
328.13387
328.05117
328.0408
327.95689
327.95042
327.86526
327.8623
327.77616
331.34388
331.51454
331.39051
331.3809
331.28451
331.19697
331.09327
330.97599
330.86932
330.75211
330.64778
330.53583
330.43808
330.33119
330.24167
330.13947
330.05832
329.96037
329.88712
329.79291
329.72689
329.63587
329.57645
329.48809
329.43471
329.34851
329.30066
329.21619
329.17345
329.09031
329.05233
328.97015
328.93665
328.85509
328.82584
328.74458
328.71941
328.63814
328.61695
328.53536
328.51807
328.43589
328.42244
328.33942
328.32975
328.24572
328.23967
328.15466
328.15182
328.06603
331.38159
331.51843
331.42912
331.4259
331.3605
331.29291
331.21369
331.11514
331.02711
330.92336
330.83338
330.73089
330.64415
330.54399
330.46303
330.36563
330.29124
330.19673
330.1289
330.03714
329.97557
329.88627
329.83057
329.74338
329.69315
329.60774
329.56259
329.47861
329.43824
329.35536
329.31947
329.2374
329.20574
329.12418
329.09658
329.01525
328.99156
328.91019
328.89029
328.80862
328.79244
328.71024
328.69769
328.61478
328.60576
328.52202
328.51633
328.43183
328.4291
328.34396
331.41634
331.52637
331.46118
331.46046
331.41868
331.3671
331.30918
331.22764
331.15733
331.06682
330.99123
330.89859
330.82335
330.73056
330.65878
330.5669
330.49991
330.40956
330.34778
330.25915
330.20259
330.11566
330.06416
329.97878
329.93211
329.84806
329.80599
329.72303
329.68532
329.60322
329.56966
329.48818
329.45857
329.37747
329.35168
329.27072
329.2486
329.16757
329.14903
329.06772
329.05267
328.97088
328.95922
328.87682
328.86843
328.78537
328.78003
328.69638
328.69378
328.60957
331.44841
331.53737
331.48903
331.48823
331.46376
331.42441
331.38436
331.31764
331.26358
331.18557
331.12394
331.04115
330.97749
330.89243
330.83015
330.74432
330.68516
330.59955
330.54426
330.45937
330.40824
330.32428
330.27737
330.19435
330.15161
330.06945
330.03076
329.94934
329.91455
329.83372
329.8027
329.72229
329.6949
329.61472
329.59086
329.51073
329.49028
329.41002
329.39289
329.31235
329.29846
329.2175
329.20673
329.12525
329.11748
329.03547
329.03048
328.94798
328.94552
328.86254
331.47798
331.5503
331.51413
331.51174
331.49951
331.46901
331.44342
331.38912
331.34947
331.28285
331.23432
331.16105
331.10869
331.03144
330.97872
330.89924
330.84811
330.76767
330.71915
330.63848
330.59309
330.51258
330.47057
330.39041
330.35186
330.27209
330.23702
330.15762
330.12597
330.04687
330.01858
329.93968
329.91466
329.83583
329.81401
329.73513
329.71643
329.63737
329.6217
329.54235
329.52963
329.44989
329.44003
329.35984
329.35269
329.27206
329.26743
329.18642
329.18411
329.10265
331.50528
331.56426
331.53728
331.53258
331.52876
331.50431
331.49003
331.44573
331.41847
331.36187
331.32527
331.26089
331.21928
331.14966
331.10628
331.03328
330.99017
330.91517
330.87352
330.79742
330.75793
330.68129
330.64436
330.56747
330.53332
330.45637
330.4251
330.34815
330.3198
330.24285
330.21742
330.14045
330.11791
330.04085
330.02116
329.94393
329.92704
329.84957
329.8354
329.75762
329.74611
329.66796
329.65901
329.58047
329.57394
329.49503
329.49078
329.41153
329.4094
329.32974
331.53051
331.57856
331.5589
331.55174
331.55356
331.53294
331.52724
331.49069
331.47375
331.42568
331.39966
331.34335
331.31165
331.24931
331.21482
331.14821
331.11293
331.04347
331.00865
330.93735
330.9038
330.83131
330.79954
330.72628
330.69662
330.62284
330.59548
330.52135
330.4964
330.422
330.39952
330.32486
330.30487
330.22996
330.21246
330.13726
330.12221
330.0467
330.03407
329.95821
329.94793
329.87171
329.86368
329.78711
329.78123
329.70433
329.70047
329.62326
329.62133
329.54374
331.55388
331.59278
331.57918
331.56972
331.57527
331.55687
331.55749
331.5267
331.51812
331.47709
331.46018
331.411
331.38823
331.33262
331.30641
331.24595
331.21812
331.15418
331.12598
331.05958
331.03187
330.96373
330.9371
330.86771
330.84255
330.77225
330.74884
330.67784
330.65634
330.58479
330.56531
330.4933
330.47591
330.40348
330.38819
330.31536
330.30219
330.22897
330.21788
330.14427
330.13522
330.06124
330.05415
329.97984
329.97462
329.9
329.89656
329.82165
329.81992
329.74465
331.57558
331.60666
331.59821
331.58677
331.59479
331.57749
331.58263
331.55595
331.55397
331.51857
331.50931
331.46624
331.45132
331.4018
331.38311
331.32843
331.30755
331.24896
331.22705
331.16554
331.14347
331.07977
331.05815
330.9928
330.97208
330.90546
330.88596
330.81835
330.80028
330.73186
330.71538
330.64629
330.6315
330.56184
330.54878
330.47861
330.46731
330.39667
330.38713
330.31605
330.30824
330.23678
330.23063
330.15883
330.15429
330.08218
330.07918
330.00679
330.00528
329.93256
331.59576
331.62007
331.61602
331.60297
331.61267
331.59574
331.60404
331.58018
331.58325
331.55221
331.54921
331.51127
331.50308
331.45894
331.44692
331.39758
331.38302
331.32953
331.31347
331.25674
331.24
331.18074
331.16392
331.10269
331.08627
331.02347
331.00778
330.94372
330.92902
330.86394
330.85041
330.78448
330.77225
330.7056
330.69474
330.62747
330.61803
330.55021
330.54221
330.47391
330.46732
330.39861
330.39341
330.32435
330.32048
330.25112
330.24855
330.1789
330.17761
330.10764
331.61456
331.63294
331.63266
331.61835
331.62922
331.61225
331.62271
331.60068
331.60751
331.57977
331.58176
331.54801
331.54545
331.50598
331.49974
331.45522
331.4463
331.39757
331.38685
331.33471
331.3229
331.26801
331.2557
331.19859
331.18624
331.12734
331.1153
331.05492
331.04346
330.98187
330.97119
330.90859
330.89885
330.8354
330.82669
330.76252
330.7549
330.69011
330.6836
330.61829
330.61291
330.54714
330.54287
330.47674
330.47355
330.4071
330.40497
330.33823
330.33716
330.27012
331.63211
331.64527
331.64816
331.63288
331.6446
331.62739
331.63929
331.6184
331.62795
331.60263
331.60849
331.57811
331.58014
331.54464
331.5433
331.50306
331.49907
331.45471
331.44875
331.40094
331.39363
331.34295
331.3348
331.28175
331.27321
331.21819
331.20959
331.15294
331.14456
331.08654
331.0786
331.01944
331.01209
330.95198
330.94533
330.8844
330.87854
330.81693
330.81188
330.7497
330.7455
330.68283
330.67948
330.61642
330.6139
330.55051
330.54882
330.48514
330.48429
330.42031
331.64851
331.65707
331.66256
331.64656
331.6589
331.64138
331.65422
331.63401
331.64546
331.62189
331.63065
331.60294
331.60861
331.57643
331.57916
331.54266
331.54287
331.50248
331.50068
331.4569
331.45359
331.40692
331.40254
331.35343
331.34837
331.29718
331.29177
331.23884
331.23333
331.17893
331.17354
331.1179
331.1128
331.05611
331.05142
330.99384
330.98965
330.93133
330.92768
330.86874
330.86567
330.80622
330.80375
330.74388
330.74201
330.68179
330.68054
330.62002
330.61939
330.55859
331.66384
331.66833
331.67592
331.65937
331.67216
331.65434
331.66778
331.64795
331.66068
331.63837
331.64924
331.6236
331.63208
331.60267
331.60865
331.5754
331.57911
331.54226
331.54402
331.50395
331.50413
331.46124
331.4602
331.41485
331.41293
331.36547
331.36295
331.31368
331.31081
331.26
331.25699
331.20486
331.20186
331.14863
331.14577
331.0916
331.08897
331.03401
331.03168
330.97606
330.97407
330.9179
330.91627
330.85966
330.85842
330.80145
330.80061
330.74334
330.74291
330.68538
331.67817
331.67905
331.68827
331.67131
331.6844
331.66634
331.68012
331.66053
331.67407
331.65265
331.665
331.64098
331.65155
331.62441
331.63295
331.60248
331.60903
331.57532
331.58005
331.54335
331.54651
331.50712
331.50899
331.4672
331.46805
331.42417
331.42424
331.37853
331.37804
331.33075
331.3299
331.28126
331.28019
331.2304
331.22923
331.17846
331.1773
331.12571
331.12461
331.07233
331.07135
331.0185
331.01767
330.96436
330.96372
330.91003
330.90959
330.8556
330.85537
330.80114
331.69156
331.68922
331.69963
331.68237
331.69562
331.67738
331.69133
331.67192
331.68593
331.66518
331.6785
331.65576
331.66782
331.64255
331.65302
331.62493
331.6337
331.60276
331.6099
331.57625
331.58189
331.54572
331.55006
331.51161
331.51485
331.47436
331.4767
331.43441
331.43603
331.39217
331.39324
331.34802
331.34867
331.30229
331.30265
331.25526
331.25542
331.20719
331.20721
331.15827
331.15822
331.1087
331.1086
331.0586
331.05851
331.00812
331.00804
330.95735
330.95731
330.90639
331.70404
331.69879
331.71001
331.69252
331.70582
331.6875
331.70148
331.68224
331.69647
331.67626
331.69016
331.66844
331.68152
331.65779
331.66966
331.64359
331.65406
331.62554
331.63458
331.60365
331.61131
331.57808
331.58447
331.54911
331.55437
331.51708
331.52135
331.48233
331.48577
331.4452
331.44795
331.40604
331.40823
331.36515
331.36688
331.3228
331.32415
331.27922
331.28026
331.23462
331.23541
331.18917
331.18975
331.14303
331.14343
331.09632
331.09658
331.04917
331.0493
331.00167
331.7156
331.70772
331.7194
331.70175
331.71499
331.69667
331.71059
331.69155
331.70582
331.68608
331.70028
331.67942
331.69311
331.67068
331.6835
331.65917
331.67088
331.64447
331.65495
331.62645
331.63568
331.60512
331.61316
331.58065
331.58757
331.55326
331.55915
331.5232
331.52818
331.49076
331.49495
331.45621
331.45972
331.41985
331.42276
331.3819
331.38429
331.34258
331.34452
331.3021
331.30363
331.26062
331.2618
331.2183
331.21915
331.17526
331.17583
331.13164
331.13192
331.08753
331.72618
331.7159
331.72775
331.71003
331.72313
331.7049
331.71867
331.6999
331.71408
331.6948
331.70906
331.68896
331.70297
331.68166
331.69507
331.67223
331.68478
331.66023
331.67175
331.6454
331.65582
331.62768
331.63698
331.60709
331.61532
331.58377
331.59097
331.5579
331.56415
331.52968
331.53508
331.49937
331.50399
331.46717
331.47109
331.43332
331.43661
331.39802
331.40073
331.36143
331.36362
331.32373
331.32544
331.28507
331.28632
331.24558
331.2464
331.20537
331.20579
331.16456
331.73563
331.72321
331.73503
331.71732
331.73022
331.71218
331.72575
331.70732
331.72131
331.70251
331.71669
331.69728
331.71137
331.69105
331.70476
331.68324
331.69629
331.67337
331.68559
331.66116
331.67242
331.64644
331.65669
331.62917
331.6384
331.60939
331.61762
331.58721
331.59448
331.56278
331.56915
331.53628
331.54181
331.50791
331.51266
331.47784
331.48188
331.44626
331.44962
331.41332
331.41606
331.37919
331.38134
331.34401
331.3456
331.30789
331.30894
331.27097
331.27149
331.23334
331.74367
331.72951
331.74117
331.7236
331.73627
331.71852
331.73185
331.71383
331.72757
331.70928
331.72325
331.70452
331.71853
331.69911
331.71288
331.69254
331.70583
331.68436
331.69698
331.67427
331.68606
331.66204
331.67293
331.64756
331.65751
331.63083
331.63981
331.61186
331.6199
331.59077
331.59789
331.56769
331.57394
331.54276
331.54819
331.51615
331.52079
331.488
331.49189
331.45845
331.46165
331.42766
331.43018
331.39574
331.39761
331.36282
331.36406
331.32902
331.32964
331.29442
331.75002
331.73466
331.74615
331.72886
331.74129
331.72393
331.737
331.71946
331.73291
331.71517
331.72886
331.71081
331.72459
331.70603
331.71969
331.70042
331.71372
331.69357
331.70633
331.68516
331.69724
331.67497
331.68624
331.66283
331.67323
331.64867
331.65816
331.63248
331.64106
331.61431
331.62198
331.59425
331.60103
331.57241
331.57834
331.54892
331.55402
331.52389
331.52821
331.49747
331.50102
331.46976
331.47257
331.44089
331.44299
331.41097
331.41236
331.38011
331.3808
331.3484
331.75442
331.73859
331.74996
331.73312
331.74531
331.72845
331.74123
331.72425
331.73737
331.72023
331.73359
331.71622
331.72969
331.71195
331.72536
331.70708
331.72024
331.70127
331.714
331.69421
331.70635
331.68566
331.6971
331.67545
331.68609
331.66345
331.67324
331.64963
331.65854
331.63398
331.64201
331.61656
331.62371
331.59746
331.60374
331.57675
331.58219
331.55456
331.55917
331.53097
331.53478
331.5061
331.50913
331.48005
331.48231
331.45292
331.45442
331.42481
331.42556
331.3958
331.7569
331.74132
331.75267
331.73641
331.7484
331.73212
331.74461
331.72825
331.74102
331.72453
331.73751
331.72084
331.73393
331.71699
331.73006
331.71271
331.72559
331.70771
331.72023
331.70171
331.71374
331.69447
331.70589
331.68582
331.69652
331.67562
331.68552
331.66378
331.67285
331.65029
331.65851
331.63516
331.64252
331.61845
331.62494
331.60022
331.60586
331.58054
331.58536
331.55952
331.56351
331.53722
331.5404
331.51376
331.51613
331.4892
331.49079
331.46365
331.46444
331.43718
331.75773
331.74297
331.75438
331.73884
331.75063
331.73501
331.7472
331.7315
331.74391
331.7281
331.74067
331.72472
331.73739
331.72124
331.73389
331.71743
331.72993
331.71306
331.72526
331.70788
331.71966
331.70169
331.71292
331.69429
331.70487
331.68554
331.6954
331.67536
331.68443
331.66368
331.67194
331.65051
331.65794
331.63587
331.64246
331.6198
331.62555
331.60237
331.60728
331.58363
331.58771
331.56366
331.56692
331.54254
331.54499
331.52034
331.52198
331.49715
331.49796
331.47302
331.7574
331.74377
331.75524
331.74049
331.7521
331.73719
331.74908
331.73408
331.74611
331.73101
331.74316
331.72794
331.74015
331.72477
331.73696
331.72134
331.7334
331.71746
331.72925
331.71292
331.72433
331.70753
331.71845
331.70112
331.71145
331.69354
331.70321
331.6847
331.69365
331.67454
331.68271
331.66302
331.6704
331.65015
331.65672
331.63596
331.64171
331.62049
331.62542
331.60378
331.60788
331.58589
331.58917
331.56688
331.56935
331.54682
331.54847
331.52578
331.5266
331.50381
331.7564
331.74394
331.75542
331.74151
331.75292
331.73876
331.75032
331.73605
331.74769
331.73332
331.74502
331.73055
331.74228
331.72766
331.73934
331.72454
331.73608
331.72102
331.73232
331.71696
331.72792
331.71217
331.72269
331.70652
331.71651
331.69987
331.70924
331.69211
331.70081
331.68318
331.69116
331.67303
331.68026
331.66166
331.66812
331.64908
331.65475
331.63531
331.64018
331.62037
331.62444
331.60433
331.60759
331.58721
331.58966
331.56908
331.57072
331.54999
331.55081
331.53
331.75513
331.74372
331.7551
331.74201
331.75318
331.73979
331.75101
331.73748
331.74872
331.73509
331.74634
331.73259
331.74382
331.72995
331.7411
331.72707
331.73807
331.72383
331.73459
331.72011
331.73054
331.71576
331.72579
331.71068
331.72022
331.70473
331.71371
331.69782
331.70618
331.68987
331.69756
331.68085
331.68784
331.67073
331.67699
331.65951
331.66501
331.64719
331.65193
331.6338
331.63777
331.61937
331.62256
331.60393
331.60633
331.58753
331.58913
331.5702
331.571
331.55199
331.75379
331.74326
331.75442
331.74212
331.75301
331.74038
331.75124
331.73846
331.74927
331.73637
331.74715
331.73413
331.74484
331.7317
331.74229
331.729
331.73941
331.72594
331.73611
331.72244
331.7323
331.7184
331.72788
331.71371
331.72274
331.70827
331.71679
331.70201
331.70995
331.69483
331.70216
331.68671
331.69339
331.67762
331.68361
331.66753
331.67282
331.65645
331.66101
331.64439
331.64822
331.63137
331.63444
331.6174
331.61972
331.60253
331.60408
331.58677
331.58755
331.57018
331.75247
331.74268
331.7535
331.74193
331.7525
331.74061
331.75109
331.73903
331.74941
331.73723
331.74752
331.73521
331.74538
331.73293
331.74294
331.73035
331.74014
331.72739
331.73694
331.72402
331.73326
331.72015
331.72903
331.71571
331.72418
331.71063
331.71863
331.70483
331.7123
331.69824
331.70515
331.69083
331.69713
331.68255
331.68823
331.6734
331.67842
331.66336
331.6677
331.65243
331.65607
331.64062
331.64355
331.62794
331.63015
331.61441
331.61589
331.60006
331.60081
331.58492
331.75117
331.74204
331.75242
331.74153
331.75173
331.74056
331.75062
331.73927
331.7492
331.73771
331.7475
331.73586
331.74547
331.73368
331.74308
331.73114
331.7403
331.72821
331.7371
331.72486
331.73345
331.72106
331.72931
331.71675
331.72462
331.71188
331.71932
331.7064
331.71335
331.70024
331.70668
331.69336
331.69925
331.68573
331.69104
331.67733
331.68204
331.66815
331.67222
331.65817
331.66159
331.64739
331.65015
331.63583
331.63791
331.62348
331.62488
331.61037
331.61107
331.59651
331.74988
331.74137
331.75123
331.74098
331.75076
331.74027
331.7499
331.73923
331.74869
331.73785
331.74711
331.73611
331.74514
331.73396
331.74274
331.7314
331.73989
331.7284
331.73662
331.72499
331.73291
331.72115
331.72875
331.71687
331.7241
331.7121
331.71894
331.70679
331.7132
331.70092
331.70686
331.69443
331.69987
331.6873
331.69221
331.6795
331.68386
331.67101
331.67479
331.66182
331.66501
331.65193
331.6545
331.64131
331.64326
331.62999
331.6313
331.61797
331.61863
331.60526
331.74858
331.7407
331.74998
331.74032
331.74966
331.73981
331.74898
331.73895
331.74791
331.73769
331.74639
331.73598
331.74439
331.73378
331.74189
331.73109
331.73891
331.72796
331.73548
331.7244
331.73162
331.72044
331.72735
331.71608
331.72266
331.7113
331.71753
331.70607
331.71191
331.70037
331.70578
331.69414
331.69911
331.68738
331.69187
331.68005
331.68404
331.67212
331.67559
331.66358
331.66651
331.65442
331.65679
331.64462
331.64641
331.63419
331.63539
331.62312
331.62373
331.61142
331.74726
331.74001
331.74867
331.73959
331.74845
331.73921
331.7479
331.73846
331.74689
331.73723
331.74535
331.73546
331.74323
331.73311
331.74054
331.73022
331.73733
331.72685
331.73366
331.72307
331.72958
331.7189
331.72513
331.71439
331.72031
331.70952
331.71512
331.70427
331.70953
331.69864
331.70352
331.69258
331.69706
331.68607
331.69014
331.67909
331.68271
331.67161
331.67475
331.6636
331.66626
331.65505
331.6572
331.64595
331.64758
331.63628
331.63737
331.62604
331.62659
331.61523
331.74591
331.73932
331.74733
331.73879
331.74716
331.7385
331.74668
331.73778
331.74565
331.73648
331.74397
331.73453
331.74162
331.73193
331.73865
331.72874
331.73512
331.72505
331.73113
331.72096
331.72676
331.71652
331.72205
331.71178
331.71704
331.70675
331.71172
331.70142
331.70609
331.69577
331.70012
331.68979
331.69379
331.68345
331.68708
331.67673
331.67996
331.66959
331.67241
331.66201
331.66439
331.65397
331.6559
331.64545
331.64692
331.63644
331.63742
331.62692
331.62742
331.61689
331.74452
331.73862
331.74594
331.73794
331.74581
331.73768
331.74534
331.7369
331.74417
331.73542
331.74223
331.73317
331.73953
331.73019
331.73616
331.7266
331.73222
331.72251
331.72784
331.71804
331.72311
331.71326
331.71809
331.70824
331.71283
331.70298
331.70733
331.69751
331.70159
331.69179
331.6956
331.68582
331.68934
331.67958
331.68278
331.67304
331.67589
331.66616
331.66865
331.65892
331.66104
331.65131
331.65302
331.64328
331.64458
331.63483
331.6357
331.62594
331.62638
331.61659
331.74309
331.7379
331.74452
331.73705
331.74441
331.73676
331.74385
331.73581
331.74242
331.734
331.74008
331.73131
331.7369
331.72783
331.73302
331.72373
331.72859
331.71916
331.72374
331.71424
331.71859
331.70908
331.71322
331.70372
331.70766
331.69821
331.70194
331.69254
331.69606
331.68671
331.69
331.68071
331.68375
331.67451
331.67728
331.66808
331.67056
331.6614
331.66357
331.65444
331.65629
331.64717
331.64867
331.63956
331.6407
331.6316
331.63236
331.62325
331.62363
331.61451
331.7416
331.73717
331.74306
331.73612
331.74295
331.73573
331.7422
331.73447
331.74036
331.73216
331.73745
331.72887
331.73365
331.72477
331.72915
331.72007
331.72413
331.71494
331.71876
331.70952
331.71315
331.70393
331.70738
331.69821
331.70151
331.6924
331.69554
331.68651
331.68948
331.68054
331.68332
331.67446
331.67704
331.66827
331.67062
331.66192
331.66404
331.65539
331.65725
331.64865
331.65023
331.64167
331.64295
331.63441
331.63539
331.62686
331.62752
331.61899
331.61932
331.61078
331.74004
331.73643
331.74156
331.73515
331.74141
331.73456
331.74034
331.7328
331.73789
331.72981
331.73424
331.72577
331.72968
331.72092
331.72445
331.71552
331.71878
331.70977
331.71283
331.70381
331.70673
331.69776
331.70055
331.69165
331.69433
331.68554
331.6881
331.67942
331.68185
331.67328
331.67557
331.66711
331.66925
331.66089
331.66286
331.65459
331.65636
331.64818
331.64974
331.64162
331.64295
331.63488
331.63596
331.62792
331.62875
331.62074
331.62129
331.61328
331.61356
331.60554
331.73839
331.73567
331.74001
331.73414
331.73977
331.73318
331.73818
331.73072
331.7349
331.72684
331.73033
331.72187
331.72487
331.71616
331.71883
331.70999
331.71244
331.70357
331.70588
331.69705
331.69926
331.69051
331.69266
331.68402
331.6861
331.6776
331.6796
331.67124
331.67316
331.66493
331.66676
331.65867
331.66039
331.65241
331.654
331.64614
331.64759
331.63982
331.6411
331.63341
331.6345
331.62688
331.62777
331.62019
331.62088
331.61332
331.61379
331.60624
331.60648
331.59892
331.73666
331.73492
331.7384
331.73306
331.73797
331.73152
331.73563
331.72808
331.73127
331.72309
331.72559
331.71706
331.71911
331.71038
331.71217
331.70338
331.70503
331.69626
331.69784
331.68916
331.69071
331.68216
331.68368
331.67528
331.67679
331.66856
331.67004
331.66197
331.66342
331.65551
331.65691
331.64915
331.65048
331.64286
331.6441
331.63661
331.63775
331.63037
331.63138
331.62409
331.62496
331.61775
331.61846
331.6113
331.61185
331.60472
331.60509
331.59797
331.59816
331.59103
331.73481
331.7342
331.73673
331.73189
331.73592
331.72947
331.73252
331.72473
331.72683
331.71842
331.71986
331.71118
331.71225
331.70346
331.70437
331.69559
331.69646
331.68777
331.68864
331.6801
331.68101
331.67264
331.67358
331.66541
331.66639
331.6584
331.65941
331.65161
331.65262
331.64501
331.64601
331.63857
331.63954
331.63225
331.63317
331.62603
331.62689
331.61987
331.62063
331.61372