/*--------------------------------*- C++ -*----------------------------------*\
| =========                 |                                                 |
| \\      /  F ield         | OpenFOAM: The Open Source CFD Toolbox           |
|  \\    /   O peration     | Version:  2312                                  |
|   \\  /    A nd           | Website:  www.openfoam.com                      |
|    \\/     M anipulation  |                                                 |
\*---------------------------------------------------------------------------*/
FoamFile
{
    version     2.0;
    format      ascii;
    arch        "LSB;label=32;scalar=64";
    class       surfaceScalarField;
    location    "6";
    object      phi;
}
// * * * * * * * * * * * * * * * * * * * * * * * * * * * * * * * * * * * * * //

dimensions      [0 3 -1 0 0 0 0];

oriented        oriented;

internalField   nonuniform List<scalar> 
7870
(
1.7745828e-10
3.2841667e-09
1.8005071e-10
-2.5924305e-12
1.3082138e-10
4.922932e-11
1.4051216e-10
-9.6907849e-12
1.3429945e-10
6.2127101e-12
1.3497245e-10
-6.7300276e-13
1.3317591e-10
1.7965496e-12
1.3352981e-10
-3.5390664e-13
1.326378e-10
8.9201975e-13
1.3324641e-10
-6.0860869e-13
1.3255446e-10
6.9195512e-13
1.3318188e-10
-6.2743017e-13
1.3256672e-10
6.1516878e-13
1.331459e-10
-5.7918544e-13
1.3259415e-10
5.5175336e-13
1.3311349e-10
-5.1934778e-13
1.3262228e-10
4.9121101e-13
1.3308446e-10
-4.6219285e-13
1.326483e-10
4.3616765e-13
1.3305909e-10
-4.1079758e-13
1.3267151e-10
3.8758071e-13
1.3303701e-10
-3.6550123e-13
1.3269191e-10
3.4510175e-13
1.3301783e-10
-3.2590937e-13
1.3270972e-10
3.0810931e-13
1.3300116e-10
-2.9144298e-13
1.327252e-10
2.7596899e-13
1.3298672e-10
-2.615153e-13
1.3273862e-10
2.4810118e-13
1.3297421e-10
-2.3559301e-13
1.3275021e-10
2.2400221e-13
1.3296343e-10
-2.1321588e-13
1.3276018e-10
2.0324713e-13
1.3295418e-10
-1.9399759e-13
1.327687e-10
1.8548329e-13
1.3294631e-10
-1.7761853e-13
1.3277589e-10
1.7042073e-13
1.3293971e-10
-1.6381628e-13
1.3278189e-10
1.5782233e-13
1.3293426e-10
-1.5237648e-13
1.3278677e-10
1.4749533e-13
1.3292989e-10
-1.4312764e-13
1.3279062e-10
1.3927766e-13
1.3292656e-10
-1.3594832e-13
1.3279352e-10
1.3304059e-13
1.3292414e-10
-1.306175e-13
1.3279482e-10
1.29321e-13
1.3291983e-10
-1.2501516e-13
1.3278703e-10
1.3280759e-13
-1.2086435e-13
4.4608871e-10
6.299703e-09
5.0103086e-10
-5.7534604e-11
3.9243992e-10
1.5782025e-10
4.0429328e-10
-2.1544151e-11
3.9035923e-10
2.0146758e-11
3.9079405e-10
-1.1078256e-12
3.8718686e-10
5.4037556e-12
3.8699828e-10
-1.6533256e-13
3.855634e-10
2.3269305e-12
3.8626753e-10
-1.3127509e-12
3.8527297e-10
1.6865348e-12
3.8614472e-10
-1.4992031e-12
3.8526291e-10
1.4970003e-12
3.8609321e-10
-1.4095178e-12
3.8529675e-10
1.3482219e-12
3.8604553e-10
-1.2681412e-12
3.8533551e-10
1.201232e-12
3.8600259e-10
-1.1292909e-12
3.8537243e-10
1.0663277e-12
3.8596551e-10
-1.0038782e-12
3.8540572e-10
9.4736976e-13
3.8593351e-10
-8.9327813e-13
3.8543509e-10
8.4352263e-13
3.859058e-10
-7.9660744e-13
3.8546075e-10
7.5315364e-13
3.8588177e-10
-7.1244589e-13
3.8548309e-10
6.746496e-13
3.8586093e-10
-6.3935089e-13
3.8550247e-10
6.0657014e-13
3.858429e-10
-5.76018e-13
3.8551922e-10
5.4767996e-13
3.8582733e-10
-5.2132668e-13
3.8553364e-10
4.9694393e-13
3.8581398e-10
-4.7433899e-13
3.8554596e-10
4.5350573e-13
3.8580262e-10
-4.3427966e-13
3.8555638e-10
4.1666153e-13
3.8579307e-10
-4.0051179e-13
3.8556506e-10
3.8583537e-13
3.8578519e-10
-3.72514e-13
3.8557213e-10
3.6055854e-13
3.8577887e-10
-3.4986814e-13
3.8557772e-10
3.4042975e-13
3.8577407e-10
-3.3229868e-13
3.8558203e-10
3.2507872e-13
3.8577071e-10
-3.1930154e-13
3.8558397e-10
3.1605975e-13
3.8576313e-10
-3.041722e-13
3.8556475e-10
3.3118231e-13
-2.9495181e-13
7.0952594e-10
9.0518021e-09
7.964125e-10
-1.4442118e-10
6.4665861e-10
3.0757413e-10
6.6063277e-10
-3.5518324e-11
6.3949642e-10
4.1283121e-11
6.3954855e-10
-1.1599702e-12
6.3472876e-10
1.0223574e-11
6.3366994e-10
8.9348383e-13
6.3216069e-10
3.8362016e-12
6.3259545e-10
-1.7475205e-12
6.3167506e-10
2.6069517e-12
6.3245326e-10
-2.2774246e-12
6.3163176e-10
2.3185078e-12
6.3240815e-10
-2.1859337e-12
6.316564e-10
2.0999789e-12
6.3236241e-10
-1.9741705e-12
6.3169051e-10
1.8731259e-12
6.3232058e-10
-1.7593669e-12
6.3172452e-10
1.6623835e-12
6.3228499e-10
-1.5643464e-12
6.3175565e-10
1.4767089e-12
6.3225459e-10
-1.3922137e-12
6.3178326e-10
1.3148605e-12
6.322284e-10
-1.24174e-12
6.3180745e-10
1.1741101e-12
6.3220573e-10
-1.1107114e-12
6.3182854e-10
1.0518459e-12
6.3218607e-10
-9.9687349e-13
6.3184685e-10
9.4579013e-13
6.3216904e-10
-8.9819793e-13
6.318627e-10
8.5401511e-13
6.3215433e-10
-8.129497e-13
6.3187636e-10
7.7491635e-13
6.321417e-10
-7.396797e-13
6.3188804e-10
7.0716999e-13
6.3213095e-10
-6.771905e-13
6.3189792e-10
6.4968793e-13
6.321219e-10
-6.244972e-13
6.3190616e-10
6.0157845e-13
6.3211443e-10
-5.8079101e-13
6.3191288e-10
5.621146e-13
6.3210843e-10
-5.4542128e-13
6.319182e-10
5.3066071e-13
6.3210389e-10
-5.17992e-13
6.3192242e-10
5.0654846e-13
6.3210086e-10
-4.9774729e-13
6.3192426e-10
4.9266781e-13
6.320916e-10
-4.715164e-13
6.3189523e-10
5.2755369e-13
-4.5897362e-13
9.5740642e-10
1.1556021e-08
1.0692435e-09
-2.5625829e-10
8.9246256e-10
4.8435506e-10
9.0997014e-10
-5.3025918e-11
8.8148182e-10
6.9771451e-11
8.8145816e-10
-1.1363215e-12
8.7557013e-10
1.611163e-11
8.7375252e-10
2.7110836e-12
8.7223875e-10
5.3499994e-12
8.7241692e-10
-1.9256973e-12
8.7158726e-10
3.4366326e-12
8.7227327e-10
-2.9634522e-12
8.7151788e-10
3.0739077e-12
8.7223837e-10
-2.9064461e-12
8.7153469e-10
2.8036595e-12
8.7219543e-10
-2.6349291e-12
8.7156428e-10
2.504269e-12
8.7215505e-10
-2.3501477e-12
8.7159526e-10
2.222178e-12
8.7212117e-10
-2.0902598e-12
8.7162409e-10
1.9737889e-12
8.7209252e-10
-1.8606349e-12
8.7164983e-10
1.757554e-12
8.7206794e-10
-1.659836e-12
8.7167246e-10
1.5695978e-12
8.7204668e-10
-1.4849238e-12
8.7169221e-10
1.4063173e-12
8.7202824e-10
-1.3328936e-12
8.717094e-10
1.2646369e-12
8.7201226e-10
-1.2010513e-12
8.7172429e-10
1.1419845e-12
8.7199844e-10
-1.0870989e-12
8.7173713e-10
1.0362309e-12
8.7198657e-10
-9.8911901e-13
8.7174812e-10
9.4562245e-13
8.7197645e-10
-9.0552637e-13
8.7175742e-10
8.6871678e-13
8.7196794e-10
-8.3501458e-13
8.7176519e-10
8.0432945e-13
8.719609e-10
-7.7650701e-13
8.7177152e-10
7.514928e-13
8.7195523e-10
-7.2913352e-13
8.7177655e-10
7.0934309e-13
8.7195096e-10
-6.9240613e-13
8.7178066e-10
6.7685419e-13
8.7194829e-10
-6.6538124e-13
8.7178256e-10
6.5839231e-13
8.7193807e-10
-6.2702725e-13
8.7174603e-10
7.195963e-13
-6.1254492e-13
1.1635729e-09
1.3854073e-08
1.3312866e-09
-4.2397199e-10
1.1312331e-09
6.8440857e-10
1.1523443e-09
-7.4137152e-11
1.1163268e-09
1.0578892e-10
1.1165256e-09
-1.3350562e-12
1.1096852e-09
2.2952017e-11
1.1072445e-09
5.1517468e-12
1.1057987e-09
6.7959017e-12
1.1057337e-09
-1.8607933e-12
1.1050098e-09
4.1605649e-12
1.1056051e-09
-3.5586898e-12
1.1049209e-09
3.7580797e-12
1.1055838e-09
-3.5693809e-12
1.1049312e-09
3.4562808e-12
1.1055445e-09
-3.248257e-12
1.1049564e-09
3.0923326e-12
1.1055059e-09
-2.8996543e-12
1.1049843e-09
2.7437903e-12
1.105474e-09
-2.5799063e-12
1.1050108e-09
2.4369831e-12
1.1054472e-09
-2.2970449e-12
1.1050346e-09
2.1701825e-12
1.1054243e-09
-2.049563e-12
1.1050556e-09
1.9383488e-12
1.1054045e-09
-1.8338824e-12
1.1050739e-09
1.736919e-12
1.1053874e-09
-1.6463228e-12
1.1050899e-09
1.562072e-12
1.1053725e-09
-1.4835897e-12
1.1051038e-09
1.4106449e-12
1.1053596e-09
-1.3428765e-12
1.1051158e-09
1.280031e-12
1.1053485e-09
-1.2218416e-12
1.1051261e-09
1.168085e-12
1.1053391e-09
-1.1185463e-12
1.1051348e-09
1.0730403e-12
1.1053311e-09
-1.0313891e-12
1.105142e-09
9.934428e-13
1.1053245e-09
-9.590452e-13
1.1051479e-09
9.2810157e-13
1.1053192e-09
-9.0043769e-13
1.1051527e-09
8.7593304e-13
1.1053153e-09
-8.5501098e-13
1.1051566e-09
8.3549737e-13
1.1053129e-09
-8.2171604e-13
1.1051587e-09
8.1267096e-13
1.1053023e-09
-7.7061992e-13
1.1051165e-09
9.053066e-13
-7.5424467e-13
1.4055928e-09
1.5910105e-08
1.5716823e-09
-5.900615e-10
1.3618541e-09
8.9423675e-10
1.3875072e-09
-9.9790266e-11
1.3440051e-09
1.4929105e-10
1.3447423e-09
-2.0723115e-12
1.3370606e-09
3.0633743e-11
1.3341541e-09
8.0582759e-12
1.3328429e-09
8.1070474e-12
1.3325499e-09
-1.5677521e-12
1.3319435e-09
4.7669705e-12
1.3324498e-09
-4.0650272e-12
1.3318407e-09
4.3672419e-12
1.332445e-09
-4.1737274e-12
1.3318456e-09
4.0556513e-12
1.33241e-09
-3.8126192e-12
1.3318667e-09
3.6355875e-12
1.3323735e-09
-3.4064326e-12
1.3318915e-09
3.2257862e-12
1.3323436e-09
-3.0320067e-12
1.3319155e-09
2.8650631e-12
1.3323188e-09
-2.7003066e-12
1.3319373e-09
2.5516572e-12
1.3322976e-09
-2.4098934e-12
1.3319566e-09
2.2793786e-12
1.3322794e-09
-2.1566501e-12
1.3319736e-09
2.0427536e-12
1.3322636e-09
-1.9363049e-12
1.3319884e-09
1.8372768e-12
1.3322498e-09
-1.7450319e-12
1.3320012e-09
1.6592509e-12
1.3322379e-09
-1.5795716e-12
1.3320123e-09
1.5056392e-12
1.3322277e-09
-1.4372015e-12
1.3320218e-09
1.3739427e-12
1.3322189e-09
-1.3156636e-12
1.3320299e-09
1.2621001e-12
1.3322116e-09
-1.2130876e-12
1.3320366e-09
1.1684102e-12
1.3322055e-09
-1.1279196e-12
1.3320421e-09
1.0914766e-12
1.3322005e-09
-1.0588889e-12
1.3320465e-09
1.0300062e-12
1.3321968e-09
-1.0053932e-12
1.3320502e-09
9.8209642e-13
1.3321949e-09
-9.6637375e-13
1.3320525e-09
9.5509209e-13
1.3321841e-09
-9.0225887e-13
1.3320065e-09
1.0829561e-12
-8.8292969e-13
1.5724634e-09
1.7799266e-08
1.8014799e-09
-8.19078e-10
1.5862038e-09
1.1095129e-09
1.6142081e-09
-1.277946e-10
1.5646808e-09
1.9881835e-10
1.5661754e-09
-3.5669182e-12
1.5577222e-09
3.9087021e-11
1.5545003e-09
1.1280116e-11
1.553375e-09
9.2323723e-12
1.5528701e-09
-1.0628211e-12
1.5523892e-09
5.2478414e-12
1.5528089e-09
-4.4846858e-12
1.5522771e-09
4.8990006e-12
1.5528225e-09
-4.719097e-12
1.5522777e-09
4.6003789e-12
1.5527922e-09
-4.3270915e-12
1.5522949e-09
4.1328925e-12
1.552758e-09
-3.8695452e-12
1.5523166e-09
3.6672048e-12
1.5527303e-09
-3.4457077e-12
1.5523381e-09
3.2571916e-12
1.5527075e-09
-3.0696389e-12
1.5523579e-09
2.9012204e-12
1.5526881e-09
-2.740104e-12
1.5523755e-09
2.5919894e-12
1.5526715e-09
-2.4525563e-12
1.552391e-09
2.3231769e-12
1.552657e-09
-2.2022206e-12
1.5524046e-09
2.0896584e-12
1.5526444e-09
-1.9848095e-12
1.5524164e-09
1.8872598e-12
1.5526335e-09
-1.7966648e-12
1.5524265e-09
1.7125609e-12
1.5526241e-09
-1.6347264e-12
1.5524353e-09
1.5627458e-12
1.552616e-09
-1.4964494e-12
1.5524427e-09
1.4354874e-12
1.5526093e-09
-1.3797201e-12
1.5524488e-09
1.3288598e-12
1.5526037e-09
-1.2827752e-12
1.5524539e-09
1.2412786e-12
1.5525992e-09
-1.2041629e-12
1.5524579e-09
1.1712534e-12
1.5525958e-09
-1.1432517e-12
1.5524615e-09
1.1163789e-12
1.5525942e-09
-1.099077e-12
1.5524639e-09
1.0853729e-12
1.5525836e-09
-1.021956e-12
1.5524155e-09
1.2510779e-12
-9.9795501e-13
1.7956572e-09
1.9465234e-08
2.01013e-09
-1.0335508e-09
1.7997807e-09
1.3198622e-09
1.8279166e-09
-1.5593056e-10
1.7777262e-09
2.4900878e-10
1.7806649e-09
-6.5056534e-12
1.7716477e-09
4.810429e-11
1.7682948e-09
1.4632935e-11
1.7673941e-09
1.0133173e-11
1.7666976e-09
-3.6636885e-13
1.7663475e-09
5.5979285e-12
1.7666832e-09
-4.8203631e-12
1.7662301e-09
5.35208e-12
1.7667167e-09
-5.2056422e-12
1.7662273e-09
5.089753e-12
1.7666914e-09
-4.7912579e-12
1.7662407e-09
4.5836034e-12
1.7666596e-09
-4.2884827e-12
1.7662594e-09
4.0674795e-12
1.7666342e-09
-3.82051e-12
1.7662785e-09
3.6128562e-12
1.7666134e-09
-3.4045596e-12
1.7662963e-09
3.2183909e-12
1.7665959e-09
-3.0397308e-12
1.7663122e-09
2.8757254e-12
1.7665808e-09
-2.7211597e-12
1.7663262e-09
2.5777599e-12
1.7665677e-09
-2.443656e-12
1.7663385e-09
2.318818e-12
1.7665562e-09
-2.202539e-12
1.7663492e-09
2.0943045e-12
1.7665463e-09
-1.993805e-12
1.7663584e-09
1.9004609e-12
1.7665378e-09
-1.8140962e-12
1.7663664e-09
1.7341898e-12
1.7665305e-09
-1.660613e-12
1.7663731e-09
1.592926e-12
1.7665244e-09
-1.5310228e-12
1.7663787e-09
1.4745407e-12
1.7665193e-09
-1.4233724e-12
1.7663833e-09
1.3772793e-12
1.7665152e-09
-1.3360417e-12
1.766387e-09
1.299468e-12
1.7665121e-09
-1.2683847e-12
1.7663903e-09
1.2381685e-12
1.7665109e-09
-1.2196369e-12
1.7663929e-09
1.203339e-12
1.7665007e-09
-1.1297659e-12
1.7663434e-09
1.4084343e-12
-1.0990567e-12
1.9358305e-09
2.0991029e-08
2.206204e-09
-1.3039243e-09
2.0053659e-09
1.5207002e-09
2.0270184e-09
-1.7758307e-10
1.9831762e-09
2.9285099e-10
1.9881754e-09
-1.1504782e-11
1.9788736e-09
5.7406092e-11
1.975554e-09
1.7952494e-11
1.9749014e-09
1.0785777e-11
1.9740366e-09
4.9841561e-13
1.9738197e-09
5.8148805e-12
1.974074e-09
-5.0746656e-12
1.9736998e-09
5.7262747e-12
1.974128e-09
-5.6338708e-12
1.9736941e-09
5.5236487e-12
1.9741079e-09
-5.2050952e-12
1.9737041e-09
4.9874839e-12
1.9740786e-09
-4.663079e-12
1.9737197e-09
4.4263657e-12
1.9740554e-09
-4.1562035e-12
1.9737365e-09
3.9318134e-12
1.9740368e-09
-3.7048337e-12
1.9737522e-09
3.5029211e-12
1.974021e-09
-3.3085275e-12
1.9737664e-09
3.1303384e-12
1.9740075e-09
-2.9622141e-12
1.973779e-09
2.806261e-12
1.9739957e-09
-2.6603739e-12
1.97379e-09
2.5245262e-12
1.9739855e-09
-2.3979981e-12
1.9737996e-09
2.280172e-12
1.9739766e-09
-2.1707871e-12
1.9738079e-09
2.0691441e-12
1.973969e-09
-1.9751244e-12
1.9738151e-09
1.8880975e-12
1.9739624e-09
-1.8079855e-12
1.9738211e-09
1.7342557e-12
1.9739569e-09
-1.6668436e-12
1.9738261e-09
1.6053086e-12
1.9739523e-09
-1.549574e-12
1.9738303e-09
1.4993485e-12
1.9739486e-09
-1.4544022e-12
1.9738336e-09
1.4145339e-12
1.9739459e-09
-1.3806789e-12
1.9738367e-09
1.3473737e-12
1.973945e-09
-1.3279443e-12
1.9738394e-09
1.3089091e-12
1.9739354e-09
-1.2257829e-12
1.9737899e-09
1.5539919e-12
-1.1862411e-12
2.1325466e-09
2.2320107e-08
2.3864439e-09
-1.5578216e-09
2.1988288e-09
1.7083153e-09
2.2146444e-09
-1.9339874e-10
2.1814412e-09
3.2605423e-10
2.1884866e-09
-1.8550192e-11
2.1793899e-09
6.6502792e-11
2.1762804e-09
2.1062068e-11
2.1758963e-09
1.1169809e-11
2.1748895e-09
1.505221e-12
2.1748066e-09
5.8978791e-12
2.174982e-09
-5.2501619e-12
2.1746862e-09
6.0221544e-12
2.1750569e-09
-6.0046018e-12
2.1746781e-09
5.9024059e-12
2.1750419e-09
-5.5688968e-12
2.1746847e-09
5.3446357e-12
2.1750151e-09
-4.9934481e-12
2.1746976e-09
4.7438898e-12
2.1749942e-09
-4.45282e-12
2.174712e-09
4.2140489e-12
2.1749776e-09
-3.9704394e-12
2.1747257e-09
3.7547643e-12
2.1749637e-09
-3.5464387e-12
2.1747382e-09
3.3557605e-12
2.1749517e-09
-3.1756464e-12
2.1747493e-09
3.0086023e-12
2.1749413e-09
-2.8522948e-12
2.1747591e-09
2.7067035e-12
2.1749322e-09
-2.571108e-12
2.1747676e-09
2.4447859e-12
2.1749244e-09
-2.3275372e-12
2.174775e-09
2.2185402e-12
2.1749176e-09
-2.1177436e-12
2.1747813e-09
2.0244057e-12
2.1749118e-09
-1.9385071e-12
2.1747866e-09
1.8594206e-12
2.1749069e-09
-1.7871295e-12
2.1747911e-09
1.7211145e-12
2.1749029e-09
-1.6613344e-12
2.1747948e-09
1.607444e-12
2.1748996e-09
-1.5592058e-12
2.1747977e-09
1.5164167e-12
2.1748971e-09
-1.4801007e-12
2.1748005e-09
1.4439795e-12
2.1748965e-09
-1.423962e-12
2.1748033e-09
1.4020848e-12
2.1748877e-09
-1.310139e-12
2.1747548e-09
1.6869029e-12
-1.2597205e-12
2.2550674e-09
2.3526665e-08
2.5519635e-09
-1.8547177e-09
2.3822652e-09
1.8780136e-09
2.3944619e-09
-2.0559541e-10
2.3728721e-09
3.4764403e-10
2.381359e-09
-2.7037131e-11
2.3732081e-09
7.4653702e-11
2.3704966e-09
2.3773603e-11
2.3703806e-09
1.1285802e-11
2.3692602e-09
2.6256544e-12
2.3693098e-09
5.8482991e-12
2.3694083e-09
-5.3487114e-12
2.3691894e-09
6.2410957e-12
2.3695036e-09
-6.3188133e-12
2.3691792e-09
6.2267523e-12
2.3694935e-09
-5.8831996e-12
2.3691827e-09
5.6554354e-12
2.3694692e-09
-5.2799342e-12
2.3691928e-09
5.0203046e-12
2.3694505e-09
-4.7105966e-12
2.3692048e-09
4.4597452e-12
2.3694359e-09
-4.2015393e-12
2.3692167e-09
3.9740511e-12
2.3694238e-09
-3.7535768e-12
2.3692275e-09
3.5520863e-12
2.3694134e-09
-3.3615373e-12
2.3692371e-09
3.1848545e-12
2.3694043e-09
-3.0194801e-12
2.3692456e-09
2.8654058e-12
2.3693965e-09
-2.7219188e-12
2.3692531e-09
2.5881937e-12
2.3693896e-09
-2.4640991e-12
2.3692595e-09
2.3486915e-12
2.3693837e-09
-2.2419939e-12
2.369265e-09
2.1431537e-12
2.3693787e-09
-2.0522157e-12
2.3692696e-09
1.9684585e-12
2.3693744e-09
-1.8919178e-12
2.3692735e-09
1.8219956e-12
2.3693709e-09
-1.7586906e-12
2.3692767e-09
1.7016032e-12
2.369368e-09
-1.6504909e-12
2.3692793e-09
1.6051557e-12
2.3693659e-09
-1.5666886e-12
2.3692818e-09
1.5280392e-12
2.3693656e-09
-1.5077185e-12
2.3692847e-09
1.4829395e-12
2.3693576e-09
-1.3830022e-12
2.369238e-09
1.8064889e-12
-1.3198692e-12
2.4261818e-09
2.4562108e-08
2.704309e-09
-2.132845e-09
2.5577797e-09
2.0245429e-09
2.5689663e-09
-2.167821e-10
2.5577842e-09
3.5882619e-10
2.5669438e-09
-3.6196706e-11
2.5603995e-09
8.1198008e-11
2.55822e-09
2.5953123e-11
2.5583553e-09
1.1150486e-11
2.5571504e-09
3.8305829e-12
2.5573305e-09
5.66815e-12
2.5573533e-09
-5.371479e-12
2.5572094e-09
6.3849677e-12
2.5574682e-09
-6.5776671e-12
2.5571973e-09
6.49767e-12
2.5574629e-09
-6.1487568e-12
2.5571978e-09
5.9204755e-12
2.557441e-09
-5.5230773e-12
2.5572052e-09
5.2560545e-12
2.5574246e-09
-4.9299473e-12
2.557215e-09
4.6692566e-12
2.557412e-09
-4.398458e-12
2.557225e-09
4.1610685e-12
2.5574016e-09
-3.9302041e-12
2.5572341e-09
3.7195532e-12
2.5573927e-09
-3.5201057e-12
2.5572424e-09
3.3352199e-12
2.557385e-09
-3.1621182e-12
2.5572496e-09
3.0008101e-12
2.5573783e-09
-2.8505967e-12
2.5572559e-09
2.7105531e-12
2.5573725e-09
-2.5806221e-12
2.5572614e-09
2.4597411e-12
2.5573674e-09
-2.3480119e-12
2.5572661e-09
2.244473e-12
2.5573631e-09
-2.1492374e-12
2.5572701e-09
2.0614913e-12
2.5573595e-09
-1.9813259e-12
2.5572734e-09
1.9080662e-12
2.5573565e-09
-1.8417535e-12
2.5572762e-09
1.7819347e-12
2.557354e-09
-1.7283643e-12
2.5572783e-09
1.6808563e-12
2.5573522e-09
-1.6405454e-12
2.5572806e-09
1.5996677e-12
2.5573521e-09
-1.5793016e-12
2.5572835e-09
1.5516099e-12
2.557345e-09
-1.4445747e-12
2.5572393e-09
1.9122271e-12
-1.3671867e-12
2.5423293e-09
2.5481404e-08
2.8473536e-09
-2.4378693e-09
2.7278455e-09
2.144051e-09
2.7377924e-09
-2.2672905e-10
2.7362184e-09
3.6040025e-10
2.7456278e-09
-4.5606099e-11
2.7410523e-09
8.5773463e-11
2.739473e-09
2.7532436e-11
2.7398234e-09
1.0800132e-11
2.7385625e-09
5.091448e-12
2.7388709e-09
5.3598226e-12
2.7388177e-09
-5.3183291e-12
2.7387464e-09
6.4562595e-12
2.7389511e-09
-6.7823431e-12
2.7387324e-09
6.7163674e-12
2.7389501e-09
-6.3664839e-12
2.73873e-09
6.1405239e-12
2.7389305e-09
-5.7235829e-12
2.7387348e-09
5.4517452e-12
2.7389163e-09
-5.1114399e-12
2.7387425e-09
4.8430868e-12
2.7389057e-09
-4.5616634e-12
2.7387505e-09
4.3162424e-12
2.7388971e-09
-4.0767159e-12
2.7387581e-09
3.8585282e-12
2.7388897e-09
-3.6516934e-12
2.7387649e-09
3.4600199e-12
2.7388833e-09
-3.2805105e-12
2.7387709e-09
3.1132019e-12
2.7388777e-09
-2.9574115e-12
2.7387762e-09
2.8121211e-12
2.7388729e-09
-2.6773503e-12
2.7387807e-09
2.5519221e-12
2.7388687e-09
-2.4360199e-12
2.7387846e-09
2.3285768e-12
2.7388652e-09
-2.2297764e-12
2.7387879e-09
2.1387155e-12
2.7388622e-09
-2.0555431e-12
2.7387907e-09
1.9795093e-12
2.7388597e-09
-1.9107002e-12
2.738793e-09
1.8486106e-12
2.7388576e-09
-1.7929941e-12
2.7387948e-09
1.7436828e-12
2.7388561e-09
-1.701832e-12
2.7387967e-09
1.6590342e-12
2.7388563e-09
-1.6388527e-12
2.7387996e-09
1.608288e-12
2.7388501e-09
-1.4950901e-12
2.7387586e-09
2.0037365e-12
-1.4022664e-12
2.7077762e-09
2.6235252e-08
2.9835542e-09
-2.7136473e-09
2.891915e-09
2.2356901e-09
2.900854e-09
-2.3566804e-10
2.9083254e-09
3.5292883e-10
2.9178407e-09
-5.5121347e-11
2.9152549e-09
8.8359239e-11
2.9142768e-09
2.8510571e-11
2.9147868e-09
1.0290123e-11
2.9134977e-09
6.3805764e-12
2.9139324e-09
4.9250789e-12
2.9138021e-09
-5.1880291e-12
2.9138005e-09
6.4579325e-12
2.9139521e-09
-6.9340251e-12
2.9137843e-09
6.884204e-12
2.9139552e-09
-6.5374453e-12
2.9137793e-09
6.3164842e-12
2.913938e-09
-5.8823048e-12
2.9137816e-09
5.6081195e-12
2.9139259e-09
-5.2557789e-12
2.9137872e-09
4.9818707e-12
2.9139172e-09
-4.6917512e-12
2.9137934e-09
4.440122e-12
2.9139103e-09
-4.1936268e-12
2.9137993e-09
3.9694922e-12
2.9139044e-09
-3.756753e-12
2.9138047e-09
3.559681e-12
2.9138993e-09
-3.3750599e-12
2.9138095e-09
3.2029632e-12
2.9138949e-09
-3.0427253e-12
2.9138137e-09
2.8932423e-12
2.913891e-09
-2.7546113e-12
2.9138174e-09
2.6255477e-12
2.9138877e-09
-2.5063164e-12
2.9138205e-09
2.3957513e-12
2.9138848e-09
-2.2941066e-12
2.9138232e-09
2.2003946e-12
2.9138824e-09
-2.1148223e-12
2.9138254e-09
2.0365691e-12
2.9138804e-09
-1.9657667e-12
2.9138272e-09
1.9018596e-12
2.9138788e-09
-1.8446031e-12
2.9138286e-09
1.7938522e-12
2.9138776e-09
-1.7507607e-12
2.9138302e-09
1.7063567e-12
2.9138779e-09
-1.6865612e-12
2.913833e-09
1.6532137e-12
2.9138727e-09
-1.5348107e-12
2.9137957e-09
2.0807659e-12
-1.4257686e-12
2.8229e-09
2.6873977e-08
3.1134308e-09
-3.0041782e-09
3.0517807e-09
2.2973402e-09
3.057799e-09
-2.4168629e-10
3.07424e-09
3.3648778e-10
3.0838725e-09
-6.4753835e-11
3.0830582e-09
8.9173561e-11
3.0826473e-09
2.8921472e-11
3.0832457e-09
9.6917219e-12
3.0819563e-09
7.6700413e-12
3.0825164e-09
4.3649635e-12
3.0823071e-09
-4.9787292e-12
3.0823717e-09
6.3933522e-12
3.0824714e-09
-7.0338239e-12
3.082353e-09
7.0026822e-12
3.0824783e-09
-6.6628144e-12
3.0823454e-09
6.4493803e-12
3.0824633e-09
-6.000222e-12
3.0823454e-09
5.7260405e-12
3.0824534e-09
-5.3637894e-12
3.0823489e-09
5.0863598e-12
3.0824466e-09
-4.7894306e-12
3.0823534e-09
4.5333666e-12
3.0824413e-09
-4.2815575e-12
3.0823578e-09
4.053029e-12
3.0824369e-09
-3.8358348e-12
3.0823618e-09
3.6347242e-12
3.082433e-09
-3.446259e-12
3.0823654e-09
3.2705621e-12
3.0824297e-09
-3.1069816e-12
3.0823686e-09
2.9543394e-12
3.0824268e-09
-2.8128072e-12
3.0823714e-09
2.6810017e-12
3.0824243e-09
-2.5592676e-12
3.0823737e-09
2.4463469e-12
3.0824222e-09
-2.3425633e-12
3.0823757e-09
2.2468506e-12
3.0824204e-09
-2.1594729e-12
3.0823774e-09
2.0795438e-12
3.0824189e-09
-2.0072407e-12
3.0823788e-09
1.9419604e-12
3.0824176e-09
-1.8834624e-12
3.0823798e-09
1.8316281e-12
3.0824167e-09
-1.7875895e-12
3.0823811e-09
1.7418958e-12
3.0824172e-09
-1.7226594e-12
3.0823838e-09
1.6866684e-12
3.082413e-09
-1.5640252e-12
3.0823506e-09
2.143182e-12
-1.4383979e-12
2.992378e-09
2.7343224e-08
3.2418571e-09
-3.2536573e-09
3.2064601e-09
2.3327373e-09
3.209095e-09
-2.4432122e-10
3.2340636e-09
3.1151916e-10
3.2438101e-09
-7.4500317e-11
3.2444829e-09
8.8500818e-11
3.2445907e-09
2.8813622e-11
3.2452e-09
9.0824652e-12
3.243941e-09
8.9290587e-12
3.2446225e-09
3.6834688e-12
3.2443329e-09
-4.6891444e-12
3.2444601e-09
6.2661237e-12
3.2445091e-09
-7.0828067e-12
3.2444384e-09
7.0733978e-12
3.2445194e-09
-6.7438715e-12
3.2444284e-09
6.5403314e-12
3.2445066e-09
-6.0784301e-12
3.2444262e-09
5.8064745e-12
3.2444988e-09
-5.4364056e-12
3.2444278e-09
5.1574076e-12
3.2444939e-09
-4.8555131e-12
3.2444305e-09
4.5967328e-12
3.2444902e-09
-4.3412238e-12
3.2444334e-09
4.1098126e-12
3.2444872e-09
-3.8895765e-12
3.2444361e-09
3.6857531e-12
3.2444846e-09
-3.4946798e-12
3.2444386e-09
3.3165419e-12
3.2444823e-09
-3.1506966e-12
3.2444407e-09
2.9959037e-12
3.2444803e-09
-2.8524053e-12
3.2444426e-09
2.71873e-12
3.2444786e-09
-2.5952988e-12
3.2444442e-09
2.4807706e-12
3.2444772e-09
-2.3755358e-12
3.2444456e-09
2.278457e-12
3.244476e-09
-2.1898537e-12
3.2444467e-09
2.1087793e-12
3.2444749e-09
-2.0354556e-12
3.2444477e-09
1.969236e-12
3.2444741e-09
-1.9098854e-12
3.2444484e-09
1.8573152e-12
3.2444734e-09
-1.8126163e-12
3.2444494e-09
1.7659499e-12
3.2444741e-09
-1.747418e-12
3.2444518e-09
1.7089693e-12
3.2444709e-09
-1.5830456e-12
3.2444231e-09
2.1909589e-12
-1.4408844e-12
3.1110011e-09
2.7693848e-08
3.3628316e-09
-3.5054879e-09
3.3570669e-09
2.338502e-09
3.3557175e-09
-2.429718e-10
3.3879613e-09
2.7927533e-10
3.3976594e-09
-8.4198381e-11
3.3995366e-09
8.6623642e-11
3.4000949e-09
2.825532e-11
3.4006502e-09
8.5272042e-12
3.3994612e-09
1.0118073e-11
3.4002487e-09
2.8959396e-12
3.3998798e-09
-4.3202502e-12
3.4000659e-09
6.0800729e-12
3.400065e-09
-7.082001e-12
3.4000404e-09
7.0980314e-12
3.4000785e-09
-6.7819869e-12
3.4000283e-09
6.5905447e-12
3.400068e-09
-6.1181252e-12
3.400024e-09
5.8504819e-12
3.4000622e-09
-5.4746581e-12
3.4000237e-09
5.1959598e-12
3.4000591e-09
-4.8909007e-12
3.4000247e-09
4.6310641e-12
3.4000569e-09
-4.3734249e-12
3.4000262e-09
4.1405973e-12
3.4000553e-09
-3.9186924e-12
3.4000276e-09
3.7134449e-12
3.4000539e-09
-3.5209641e-12
3.4000289e-09
3.3415122e-12
3.4000527e-09
-3.174449e-12
3.4000301e-09
3.0184862e-12
3.4000516e-09
-2.8739299e-12
3.4000311e-09
2.7392328e-12
3.4000507e-09
-2.6148871e-12
3.400032e-09
2.4994787e-12
3.4000499e-09
-2.3934607e-12
3.4000328e-09
2.2956328e-12
3.4000493e-09
-2.2063666e-12
3.4000334e-09
2.1246626e-12
3.4000487e-09
-2.050785e-12
3.4000339e-09
1.9840476e-12
3.4000482e-09
-1.924223e-12
3.4000343e-09
1.8712543e-12
3.4000479e-09
-1.8261748e-12
3.4000349e-09
1.7788502e-12
3.4000487e-09
-1.7611418e-12
3.4000372e-09
1.7204639e-12
3.4000463e-09
-1.5922053e-12
3.4000131e-09
2.224168e-12
-1.4339683e-12
3.2770015e-09
2.7878472e-08
3.4832815e-09
-3.7117679e-09
3.5024914e-09
2.3192921e-09
3.4990048e-09
-2.394853e-10
3.5360583e-09
2.4222185e-10
3.5453842e-09
-9.3524276e-11
3.5482172e-09
8.3790704e-11
3.5491354e-09
2.7337122e-11
3.5496018e-09
8.0608382e-12
3.548531e-09
1.1188815e-11
3.5493914e-09
2.0355897e-12
3.5489482e-09
-3.8770588e-12
3.5491891e-09
5.8391466e-12
3.5491394e-09
-7.0323507e-12
3.5491591e-09
7.0783803e-12
3.5491557e-09
-6.7785843e-12
3.5491449e-09
6.601322e-12
3.5491473e-09
-6.1205839e-12
3.5491386e-09
5.859212e-12
3.5491436e-09
-5.4796604e-12
3.5491365e-09
5.2030446e-12
3.5491422e-09
-4.8965746e-12
3.549136e-09
4.6372802e-12
3.5491416e-09
-4.379034e-12
3.549136e-09
4.1462076e-12
3.5491413e-09
-3.9239641e-12
3.5491362e-09
3.7185401e-12
3.5491411e-09
-3.5258143e-12
3.5491364e-09
3.3461403e-12
3.5491409e-09
-3.1788725e-12
3.5491367e-09
3.02269e-12
3.5491407e-09
-2.8779547e-12
3.5491369e-09
2.7430573e-12
3.5491405e-09
-2.6185545e-12
3.549137e-09
2.5029701e-12
3.5491404e-09
-2.3968152e-12
3.5491372e-09
2.2988357e-12
3.5491403e-09
-2.2094514e-12
3.5491373e-09
2.1276173e-12
3.5491402e-09
-2.0536372e-12
3.5491374e-09
1.9867902e-12
3.5491401e-09
-1.9268585e-12
3.5491375e-09
1.8738173e-12
3.5491399e-09
-1.8286291e-12
3.5491378e-09
1.7809565e-12
3.5491409e-09
-1.7641652e-12
3.5491398e-09
1.7215258e-12
3.5491395e-09
-1.5918563e-12
3.5491207e-09
2.242969e-12
-1.4183867e-12
3.4002177e-09
2.7939879e-08
3.5926328e-09
-3.904183e-09
3.6427512e-09
2.2691737e-09
3.639014e-09
-2.3574812e-10
3.6783221e-09
2.0291374e-10
3.6869533e-09
-1.021555e-10
3.6905161e-09
8.0227991e-11
3.6916932e-09
2.6159943e-11
3.6920639e-09
7.6902417e-12
3.6911566e-09
1.2096096e-11
3.6920445e-09
1.1476778e-12
3.6915371e-09
-3.3697134e-12
3.6918297e-09
5.5465626e-12
3.6917322e-09
-6.9348655e-12
3.6917944e-09
7.0162591e-12
3.6917509e-09
-6.7351757e-12
3.6917782e-09
6.5740279e-12
3.6917448e-09
-6.0871667e-12
3.6917701e-09
5.8338875e-12
3.6917431e-09
-5.452602e-12
3.6917663e-09
5.1797621e-12
3.6917434e-09
-4.8735862e-12
3.6917643e-09
4.6163679e-12
3.6917442e-09
-4.358988e-12
3.6917629e-09
4.1275287e-12
3.6917452e-09
-3.9062308e-12
3.6917619e-09
3.7018342e-12
3.6917461e-09
-3.5099851e-12
3.6917611e-09
3.3311429e-12
3.6917469e-09
-3.1646478e-12
3.6917604e-09
3.0091626e-12
3.6917475e-09
-2.8650961e-12
3.6917598e-09
2.7307912e-12
3.6917481e-09
-2.6068612e-12
3.6917593e-09
2.4917806e-12
3.6917486e-09
-2.3861119e-12
3.6917589e-09
2.2885573e-12
3.691749e-09
-2.1995801e-12
3.6917585e-09
2.1180976e-12
3.6917493e-09
-2.0444503e-12
3.6917582e-09
1.9778878e-12
3.6917496e-09
-1.918203e-12
3.691758e-09
1.8654034e-12
3.6917497e-09
-1.8203699e-12
3.691758e-09
1.7726534e-12
3.6917507e-09
-1.7568492e-12
3.6917597e-09
1.7125502e-12
3.6917502e-09
-1.5823668e-12
3.6917456e-09
2.247601e-12
-1.3948631e-12
3.5558704e-09
2.7845634e-08
3.7041417e-09
-4.0524543e-09
3.777652e-09
2.1956634e-09
3.7753156e-09
-2.3341171e-10
3.8146069e-09
1.6362238e-10
3.8223266e-09
-1.098752e-10
3.826413e-09
7.6141613e-11
3.8277604e-09
2.4812595e-11
3.8280462e-09
7.4044192e-12
3.8273335e-09
1.2808801e-11
3.8282024e-09
2.7883923e-13
3.8276452e-09
-2.8125967e-12
3.8279876e-09
5.2042004e-12
3.8278433e-09
-6.790641e-12
3.8279461e-09
6.9134751e-12
3.8278643e-09
-6.6533533e-12
3.8279282e-09
6.5100835e-12
3.8278604e-09
-6.0193074e-12
3.8279184e-09
5.7757966e-12
3.8278606e-09
-5.3947388e-12
3.8279131e-09
5.127275e-12
3.8278625e-09
-4.823048e-12
3.8279095e-09
4.5693715e-12
3.8278648e-09
-4.3142795e-12
3.8279069e-09
4.0854981e-12
3.827867e-09
-3.866382e-12
3.8279047e-09
3.6641699e-12
3.827869e-09
-3.4742758e-12
3.8279029e-09
3.2972787e-12
3.8278707e-09
-3.1324957e-12
3.8279013e-09
2.9785897e-12
3.8278722e-09
-2.8360064e-12
3.8279e-09
2.7030562e-12
3.8278735e-09
-2.5804006e-12
3.8278988e-09
2.4664773e-12
3.8278746e-09
-2.3618935e-12
3.8278978e-09
2.2653179e-12
3.8278755e-09
-2.1772522e-12
3.827897e-09
2.0965848e-12
3.8278762e-09
-2.0236883e-12
3.8278963e-09
1.9577891e-12
3.8278768e-09
-1.8986917e-12
3.8278958e-09
1.8464352e-12
3.8278772e-09
-1.8018107e-12
3.8278955e-09
1.7543464e-12
3.8278783e-09
-1.7395775e-12
3.8278969e-09
1.69395e-12
3.8278786e-09
-1.5641191e-12
3.8278878e-09
2.2383745e-12
-1.3640994e-12
3.6845439e-09
2.7622715e-08
3.8074332e-09
-4.1753436e-09
3.9078028e-09
2.0952938e-09
3.9068903e-09
-2.3249925e-10
3.9447724e-09
1.2574032e-10
3.95145e-09
-1.165528e-10
3.9558877e-09
7.1703893e-11
3.9573366e-09
2.3363717e-11
3.9575559e-09
7.1851747e-12
3.9570532e-09
1.3311437e-11
3.957861e-09
-5.2897955e-13
3.9572709e-09
-2.2224648e-12
3.9576624e-09
4.8126892e-12
3.9574727e-09
-6.600906e-12
3.9576143e-09
6.7718155e-12
3.9574957e-09
-6.5347893e-12
3.9575949e-09
6.4109521e-12
3.9574941e-09
-5.9185117e-12
3.9575836e-09
5.6862809e-12
3.9574962e-09
-5.3073867e-12
3.9575767e-09
5.0467987e-12
3.9574998e-09
-4.7461252e-12
3.9575718e-09
4.497384e-12
3.9575035e-09
-4.245948e-12
3.9575679e-09
4.0210973e-12
3.9575068e-09
-3.8053489e-12
3.9575646e-09
3.6064294e-12
3.9575098e-09
-3.4195234e-12
3.9575618e-09
3.2453425e-12
3.9575125e-09
-3.0831709e-12
3.9575594e-09
2.9316891e-12
3.9575147e-09
-2.7913687e-12
3.9575573e-09
2.6605036e-12
3.9575167e-09
-2.5397939e-12
3.9575555e-09
2.4276538e-12
3.9575183e-09
-2.3247279e-12
3.957554e-09
2.2296622e-12
3.9575197e-09
-2.1429909e-12
3.9575527e-09
2.0635822e-12