/*--------------------------------*- C++ -*----------------------------------*\
| =========                 |                                                 |
| \\      /  F ield         | OpenFOAM: The Open Source CFD Toolbox           |
|  \\    /   O peration     | Version:  2312                                  |
|   \\  /    A nd           | Website:  www.openfoam.com                      |
|    \\/     M anipulation  |                                                 |
\*---------------------------------------------------------------------------*/
FoamFile
{
    version     2.0;
    format      ascii;
    arch        "LSB;label=32;scalar=64";
    class       surfaceScalarField;
    location    "6";
    object      phi_0;
}
// * * * * * * * * * * * * * * * * * * * * * * * * * * * * * * * * * * * * * //

dimensions      [0 3 -1 0 0 0 0];

oriented        oriented;

internalField   nonuniform List<scalar> 
7870
(
1.8097647e-10
3.2806485e-09
1.8027127e-10
7.052118e-13
1.3081935e-10
4.9451916e-11
1.4052059e-10
-9.7012307e-12
1.3430782e-10
6.2127637e-12
1.3497177e-10
-6.6394523e-13
1.3317439e-10
1.7973813e-12
1.335318e-10
-3.5741356e-13
1.3263575e-10
8.9604488e-13
1.3324858e-10
-6.1283313e-13
1.3255268e-10
6.958929e-13
1.3318328e-10
-6.305918e-13
1.3256577e-10
6.1750691e-13
1.3314655e-10
-5.8076996e-13
1.3259386e-10
5.5268017e-13
1.3311366e-10
-5.1978999e-13
1.3262241e-10
4.9125786e-13
1.330844e-10
-4.6198595e-13
1.3264862e-10
4.3578099e-13
1.3305893e-10
-4.1031254e-13
1.3267187e-10
3.8705975e-13
1.3303684e-10
-3.6496969e-13
1.3269223e-10
3.4461114e-13
1.3301767e-10
-3.2544751e-13
1.3270995e-10
3.0771624e-13
1.3300104e-10
-2.9108963e-13
1.3272535e-10
2.7568354e-13
1.3298662e-10
-2.6126713e-13
1.3273871e-10
2.4790716e-13
1.3297413e-10
-2.354292e-13
1.3275026e-10
2.2387589e-13
1.3296337e-10
-2.131122e-13
1.327602e-10
2.0316638e-13
1.3295413e-10
-1.9393304e-13
1.327687e-10
1.8543099e-13
1.3294628e-10
-1.7757742e-13
1.327759e-10
1.7038501e-13
1.3293968e-10
-1.6378807e-13
1.3278189e-10
1.5779565e-13
1.3293424e-10
-1.5235473e-13
1.3278677e-10
1.4747323e-13
1.3292988e-10
-1.4310873e-13
1.3279062e-10
1.3925773e-13
1.3292655e-10
-1.3593039e-13
1.3279353e-10
1.3302161e-13
1.3292413e-10
-1.3059972e-13
1.3279483e-10
1.2930232e-13
1.3291983e-10
-1.249975e-13
1.3278704e-10
1.3278844e-13
-1.2084624e-13
4.6291746e-10
6.2793561e-09
5.0324021e-10
-3.9617521e-11
3.9248823e-10
1.602039e-10
4.0428073e-10
-2.1493712e-11
3.9037686e-10
2.0116614e-11
3.9079671e-10
-1.0837773e-12
3.871814e-10
5.4126662e-12
3.870024e-10
-1.7840769e-13
3.8556006e-10
2.3383579e-12
3.8627079e-10
-1.3235499e-12
3.8527062e-10
1.6960467e-12
3.8614648e-10
-1.5064267e-12
3.8526182e-10
1.5021513e-12
3.8609388e-10
-1.4128102e-12
3.8529657e-10
1.3499913e-12
3.8604559e-10
-1.2687872e-12
3.8533584e-10
1.2010078e-12
3.8600238e-10
-1.1285171e-12
3.8537297e-10
1.0651898e-12
3.8596523e-10
-1.0025631e-12
3.8540627e-10
9.4601089e-13
3.8593324e-10
-8.9194211e-13
3.8543554e-10
8.4230282e-13
3.8590558e-10
-7.9549108e-13
3.8546109e-10
7.5220393e-13
3.858816e-10
-7.1161337e-13
3.854833e-10
6.7397397e-13
3.858608e-10
-6.3877676e-13
3.8550259e-10
6.061184e-13
3.858428e-10
-5.756438e-13
3.8551928e-10
5.4738971e-13
3.8582726e-10
-5.2109138e-13
3.8553366e-10
4.9676012e-13
3.8581392e-10
-4.7419219e-13
3.8554597e-10
4.5338699e-13
3.8580257e-10
-4.3418491e-13
3.8555638e-10
4.1657985e-13
3.8579304e-10
-4.0044521e-13
3.8556506e-10
3.8577336e-13
3.8578517e-10
-3.7246127e-13
3.8557214e-10
3.6050617e-13
3.8577885e-10
-3.498214e-13
3.8557773e-10
3.4038173e-13
3.8577405e-10
-3.3225399e-13
3.8558204e-10
3.2503251e-13
3.857707e-10
-3.1925726e-13
3.8558399e-10
3.1601389e-13
3.8576312e-10
-3.0412868e-13
3.8556477e-10
3.3113423e-13
-2.9490659e-13
7.0527682e-10
9.0357043e-09
7.931957e-10
-1.2753637e-10
6.4650254e-10
3.0689705e-10
6.6069519e-10
-3.5686337e-11
6.395185e-10
4.1293283e-11
6.395567e-10
-1.1219651e-12
6.3472008e-10
1.0249263e-11
6.3367448e-10
8.6720815e-13
6.3215778e-10
3.8550231e-12
6.3259831e-10
-1.7640623e-12
6.3167333e-10
2.6209956e-12
6.3245446e-10
-2.2875224e-12
6.3163118e-10
2.3254075e-12
6.324084e-10
-2.1899951e-12
6.3165654e-10
2.1018419e-12
6.3236221e-10
-1.9744287e-12
6.3169102e-10
1.8722045e-12
6.3232024e-10
-1.757729e-12
6.3172512e-10
1.6603119e-12
6.3228467e-10
-1.5621061e-12
6.317562e-10
1.4744791e-12
6.3225434e-10
-1.3900907e-12
6.3178368e-10
1.312951e-12
6.3222821e-10
-1.2400331e-12
6.3180775e-10
1.1726665e-12
6.3220559e-10
-1.1094715e-12
6.3182872e-10
1.0508409e-12
6.3218597e-10
-9.9603479e-13
6.3184695e-10
9.4512952e-13
6.3216896e-10
-8.9765882e-13
6.3186275e-10
8.5359612e-13
6.3215427e-10
-8.1261321e-13
6.3187638e-10
7.7465296e-13
6.3214165e-10
-7.3946935e-13
6.3188804e-10
7.0699956e-13
6.3213091e-10
-6.7705273e-13
6.3189792e-10
6.4956917e-13
6.3212187e-10
-6.2439783e-13
6.3190616e-10
6.014863e-13
6.3211441e-10
-5.8071007e-13
6.3191288e-10
5.6203502e-13
6.3210841e-10
-5.4534807e-13
6.3191821e-10
5.3058652e-13
6.3210388e-10
-5.1792132e-13
6.3192243e-10
5.0647636e-13
6.3210085e-10
-4.9767714e-13
6.3192427e-10
4.9259576e-13
6.3209159e-10
-4.7144806e-13
6.3189525e-10
5.274765e-13
-4.5890138e-13
9.4469854e-10
1.1552631e-08
1.0730794e-09
-2.5591725e-10
8.9275703e-10
4.8721947e-10
9.0996933e-10
-5.2898617e-11
8.8150421e-10
6.9758386e-11
8.8146979e-10
-1.0875384e-12
8.7555988e-10
1.6159151e-11
8.7375626e-10
2.6708392e-12
8.7223693e-10
5.3743211e-12
8.7241905e-10
-1.9461708e-12
8.715863e-10
3.4537264e-12
8.722739e-10
-2.9750967e-12
8.7151779e-10
3.0814954e-12
8.7223825e-10
-2.9104195e-12
8.7153511e-10
2.8049726e-12
8.7219505e-10
-2.6343343e-12
8.7156491e-10
2.5023441e-12
8.7215466e-10
-2.3474638e-12
8.7159588e-10
2.2190893e-12
8.7212086e-10
-2.0870794e-12
8.7162461e-10
1.9707212e-12
8.720923e-10
-1.8577857e-12
8.7165021e-10
1.755031e-12
8.7206779e-10
-1.65762e-12
8.7167271e-10
1.5677401e-12
8.7204658e-10
-1.4833509e-12
8.7169236e-10
1.4050489e-12
8.7202816e-10
-1.3318481e-12
8.7170947e-10
1.2638157e-12
8.720122e-10
-1.2003876e-12
8.7172432e-10
1.141469e-12
8.7199839e-10
-1.0866871e-12
8.7173714e-10
1.035908e-12
8.7198653e-10
-9.8886065e-13
8.7174811e-10
9.4541215e-13
8.7197642e-10
-9.0535439e-13
8.7175742e-10
8.6856757e-13
8.7196791e-10
-8.3488723e-13
8.7176519e-10
8.0421083e-13
8.7196088e-10
-7.7640048e-13
8.7177152e-10
7.5138811e-13
8.7195521e-10
-7.2903541e-13
8.7177656e-10
7.0924409e-13
8.7195095e-10
-6.9231059e-13
8.7178067e-10
6.7675729e-13
8.7194828e-10
-6.652862e-13
8.7178258e-10
6.5829502e-13
8.7193807e-10
-6.2693531e-13
8.7174605e-10
7.1949008e-13
-6.1244591e-13
1.1878868e-09
1.3826369e-08
1.3278057e-09
-3.9583609e-10
1.1307647e-09
6.8426043e-10
1.1524449e-09
-7.457875e-11
1.1163538e-09
1.058494e-10
1.1165391e-09
-1.2728019e-12
1.1096748e-09
2.3023385e-11
1.107247e-09
5.0987222e-12
1.1057981e-09
6.8231673e-12
1.1057351e-09
-1.8831873e-12
1.1050096e-09
4.1792271e-12
1.1056052e-09
-3.5706408e-12
1.1049212e-09
3.7654222e-12
1.1055834e-09
-3.572559e-12
1.1049318e-09
3.4565596e-12
1.105544e-09
-3.2464939e-12
1.1049571e-09
3.0892343e-12
1.1055055e-09
-2.8958557e-12
1.1049849e-09
2.7396919e-12
1.1054737e-09
-2.5758398e-12
1.1050112e-09
2.4331595e-12
1.105447e-09
-2.2935652e-12
1.1050349e-09
2.1671429e-12
1.1054242e-09
-2.0469325e-12
1.1050558e-09
1.9361613e-12
1.1054044e-09
-1.832053e-12
1.105074e-09
1.7354507e-12
1.1053873e-09
-1.6451251e-12
1.10509e-09
1.5611334e-12
1.1053724e-09
-1.4828371e-12
1.1051038e-09
1.4100603e-12
1.1053596e-09
-1.3424112e-12
1.1051158e-09
1.279665e-12
1.1053485e-09
-1.2215476e-12
1.1051261e-09
1.1678441e-12
1.105339e-09
-1.1183467e-12
1.1051347e-09
1.0728658e-12
1.1053311e-09
-1.0312373e-12
1.105142e-09
9.9330061e-13
1.1053245e-09
-9.5891499e-13
1.1051479e-09
9.2797357e-13
1.1053192e-09
-9.003159e-13
1.1051527e-09
8.7581055e-13
1.1053152e-09
-8.5489156e-13
1.1051566e-09
8.3537684e-13
1.1053129e-09
-8.2159706e-13
1.1051587e-09
8.1254953e-13
1.1053023e-09
-7.7050558e-13
1.1051166e-09
9.0517178e-13
-7.5411944e-13
1.3753082e-09
1.5912686e-08
1.5744417e-09
-5.9496952e-10
1.3622228e-09
8.9647934e-10
1.387538e-09
-9.9893986e-11
1.3440358e-09
1.4935165e-10
1.3447542e-09
-1.9912263e-12
1.3370507e-09
3.0726898e-11
1.3341552e-09
7.9941904e-12
1.3328435e-09
8.134848e-12
1.3325506e-09
-1.590281e-12
1.3319439e-09
4.7859028e-12
1.3324495e-09
-4.0762332e-12
1.3318413e-09
4.3736042e-12
1.3324444e-09
-4.1756001e-12
1.3318464e-09
4.0545904e-12
1.3324094e-09
-3.8095319e-12
1.3318674e-09
3.6312726e-12
1.3323731e-09
-3.4015514e-12
1.331892e-09
3.2207581e-12
1.3323434e-09
-3.027159e-12
1.3319159e-09
2.8605993e-12
1.3323187e-09
-2.6963108e-12
1.3319376e-09
2.5482091e-12
1.3322976e-09
-2.4069446e-12
1.3319568e-09
2.2769458e-12
1.3322794e-09
-2.1546348e-12
1.3319737e-09
2.0411446e-12
1.3322635e-09
-1.9350024e-12
1.3319884e-09
1.836259e-12
1.3322498e-09
-1.7442199e-12
1.3320012e-09
1.6586202e-12
1.3322379e-09
-1.5790698e-12
1.3320123e-09
1.505243e-12
1.3322276e-09
-1.4368813e-12
1.3320218e-09
1.3736782e-12
1.3322189e-09
-1.3154416e-12
1.3320298e-09
1.2619039e-12
1.3322115e-09
-1.212914e-12
1.3320366e-09
1.1682464e-12
1.3322054e-09
-1.1277674e-12
1.3320421e-09
1.0913266e-12
1.3322005e-09
-1.0587447e-12
1.3320465e-09
1.0298613e-12
1.3321968e-09
-1.0052511e-12
1.3320502e-09
9.8195333e-13
1.3321949e-09
-9.6623197e-13
1.3320525e-09
9.5494761e-13
1.3321841e-09
-9.0212345e-13
1.3320065e-09
1.0827934e-12
-8.827791e-13
1.6081937e-09
1.7766117e-08
1.7995343e-09
-7.8631009e-10
1.5855583e-09
1.1104553e-09
1.6143105e-09
-1.2864616e-10
1.5647154e-09
1.9894676e-10
1.5661861e-09
-3.4619265e-12
1.5577135e-09
3.9199475e-11
1.5545005e-09
1.1207239e-11
1.5533765e-09
9.2587545e-12
1.5528702e-09
-1.0839837e-12
1.5523901e-09
5.2659965e-12
1.5528083e-09
-4.4943589e-12
1.552278e-09
4.9038805e-12
1.5528218e-09
-4.7193655e-12
1.5522785e-09
4.5978513e-12
1.5527917e-09
-4.3226648e-12
1.5522955e-09
4.1274255e-12
1.5527577e-09
-3.8636894e-12
1.5523171e-09
3.6613783e-12
1.5527301e-09
-3.440216e-12
1.5523385e-09
3.2522203e-12
1.5527074e-09
-3.0652494e-12
1.5523582e-09
2.8974714e-12
1.5526881e-09
-2.7369301e-12
1.5523757e-09
2.5893886e-12
1.5526714e-09
-2.4504192e-12
1.5523911e-09
2.3214778e-12
1.5526569e-09
-2.2008538e-12
1.5524046e-09
2.0885922e-12
1.5526443e-09
-1.9839619e-12
1.5524164e-09
1.8866005e-12
1.5526334e-09
-1.7961399e-12
1.5524265e-09
1.7121439e-12
1.552624e-09
-1.634387e-12
1.5524352e-09
1.5624626e-12
1.552616e-09
-1.4962084e-12
1.5524426e-09
1.4352722e-12
1.5526093e-09
-1.3795267e-12
1.5524488e-09
1.3286761e-12
1.5526037e-09
-1.2826023e-12
1.5524539e-09
1.2411078e-12
1.5525991e-09
-1.2039974e-12
1.5524579e-09
1.1710873e-12
1.5525958e-09
-1.143088e-12
1.5524615e-09
1.1162145e-12
1.5525942e-09
-1.0989135e-12
1.5524639e-09
1.0852067e-12
1.5525836e-09
-1.0218008e-12
1.5524155e-09
1.2508882e-12
-9.9778013e-13
1.7631873e-09
1.9464555e-08
2.0115192e-09
-1.034642e-09
1.800083e-09
1.3218916e-09
1.8279404e-09
-1.5650356e-10
1.7777676e-09
2.4911957e-10
1.7806717e-09
-6.3660643e-12
1.7716401e-09
4.8231062e-11
1.7682944e-09
1.4552902e-11
1.7673962e-09
1.0156907e-11
1.7666974e-09
-3.8509131e-13
1.7663488e-09
5.6145584e-12
1.7666824e-09
-4.8279903e-12
1.7662311e-09
5.3552202e-12
1.766716e-09
-5.2042056e-12
1.766228e-09
5.085784e-12
1.766691e-09
-4.7855888e-12
1.7662413e-09
4.5771245e-12
1.7666594e-09
-4.2818101e-12
1.7662598e-09
4.061014e-12
1.7666341e-09
-3.8145251e-12
1.7662788e-09
3.6075138e-12
1.7666134e-09
-3.399895e-12
1.7662965e-09
3.2144423e-12
1.7665959e-09
-3.036415e-12
1.7663123e-09
2.8730246e-12
1.7665808e-09
-2.7189542e-12
1.7663263e-09
2.5760132e-12
1.7665677e-09
-2.4422568e-12
1.7663385e-09
2.3177279e-12
1.7665562e-09
-2.2016737e-12
1.7663492e-09
2.0936299e-12
1.7665463e-09
-1.9932662e-12
1.7663584e-09
1.90003e-12
1.7665378e-09
-1.8137424e-12
1.7663664e-09
1.7338912e-12
1.7665305e-09
-1.6603556e-12
1.7663731e-09
1.5926936e-12
1.7665244e-09
-1.5308113e-12
1.7663787e-09
1.4743383e-12
1.7665193e-09
-1.4231802e-12
1.7663833e-09
1.3770889e-12
1.7665152e-09
-1.3358562e-12
1.766387e-09
1.2992819e-12
1.7665121e-09
-1.2682007e-12
1.7663903e-09
1.237984e-12
1.7665109e-09
-1.2194532e-12
1.7663929e-09
1.2031522e-12
1.7665007e-09
-1.1295924e-12
1.7663434e-09
1.4082187e-12
-1.0988588e-12
1.9605051e-09
2.0965675e-08
2.2046624e-09
-1.2787992e-09
2.0049178e-09
1.5216362e-09
2.0271425e-09
-1.787283e-10
1.9832168e-09
2.9304535e-10
1.9881816e-09
-1.1330942e-11
1.9788685e-09
5.7544159e-11
1.9755536e-09
1.7867848e-11
1.974904e-09
1.0806417e-11
1.9740361e-09
4.828628e-13
1.9738211e-09
5.8295315e-12
1.9740732e-09
-5.0800259e-12
1.9737007e-09
5.7276258e-12
1.9741274e-09
-5.6307933e-12
1.9736948e-09
5.5183767e-12
1.9741076e-09
-5.1983564e-12
1.9737045e-09
4.98018e-12
1.9740785e-09
-4.6557717e-12
1.9737201e-09
4.4194303e-12
1.9740554e-09
-4.1498755e-12
1.9737367e-09
3.926229e-12
1.9740368e-09
-3.7000028e-12
1.9737524e-09
3.4988615e-12
1.9740211e-09
-3.3051415e-12
1.9737665e-09
3.1275934e-12
1.9740075e-09
-2.959984e-12
1.973779e-09
2.8044992e-12
1.9739957e-09
-2.6589672e-12
1.97379e-09
2.52343e-12
1.9739855e-09
-2.3971283e-12
1.9737996e-09
2.2794912e-12
1.9739766e-09
-2.1702412e-12
1.9738079e-09
2.0687037e-12
1.9739689e-09
-1.9747593e-12
1.973815e-09
1.8877859e-12
1.9739624e-09
-1.8077136e-12
1.9738211e-09
1.7340076e-12
1.9739569e-09
-1.6666152e-12
1.9738261e-09
1.6050888e-12
1.9739523e-09
-1.5493636e-12
1.9738303e-09
1.4991397e-12
1.9739486e-09
-1.4541979e-12
1.9738336e-09
1.414329e-12
1.9739459e-09
-1.3804759e-12
1.9738367e-09
1.3471705e-12
1.973945e-09
-1.3277416e-12
1.9738394e-09
1.3087033e-12
1.9739354e-09
-1.2255925e-12
1.9737899e-09
1.5537519e-12
-1.1860216e-12
2.0949368e-09
2.2332363e-08
2.3869504e-09
-1.5708128e-09
2.1994544e-09
1.7091321e-09
2.2146933e-09
-1.9396717e-10
2.1814895e-09
3.2624918e-10
2.1884913e-09
-1.8332709e-11
2.1793866e-09
6.6648778e-11
2.1762801e-09
2.0974361e-11
2.175899e-09
1.1187456e-11
2.1748889e-09
1.4930532e-12
2.174808e-09
5.9103627e-12
2.1749813e-09
-5.2532587e-12
2.174687e-09
6.0218373e-12
2.1750563e-09
-6.0000605e-12
2.1746787e-09
5.8960421e-12
2.1750416e-09
-5.5613022e-12
2.1746851e-09
5.3367119e-12
2.175015e-09
-4.9856924e-12
2.1746978e-09
4.7366476e-12
2.1749942e-09
-4.4462878e-12
2.1747121e-09
4.2083377e-12
2.1749777e-09
-3.9655356e-12
2.1747258e-09
3.7506681e-12
2.1749637e-09
-3.5430403e-12
2.1747383e-09
3.3530161e-12
2.1749517e-09
-3.1734249e-12
2.1747494e-09
3.0068502e-12
2.1749413e-09
-2.8508982e-12
2.1747591e-09
2.7056141e-12
2.1749322e-09
-2.5702424e-12
2.1747676e-09
2.4441052e-12
2.1749243e-09
-2.3269883e-12
2.1747749e-09
2.2180933e-12
2.1749176e-09
-2.1173696e-12
2.1747813e-09
2.0240828e-12
2.1749118e-09
-1.9382221e-12
2.1747866e-09
1.859158e-12
2.1749069e-09
-1.7868856e-12
2.1747911e-09
1.7208784e-12
2.1749028e-09
-1.6611072e-12
2.1747948e-09
1.6072182e-12
2.1748996e-09
-1.5589842e-12
2.1747977e-09
1.5161945e-12
2.1748971e-09
-1.4798802e-12
2.1748005e-09
1.443759e-12
2.1748965e-09
-1.4237417e-12
2.1748034e-09
1.4018615e-12
2.1748877e-09
-1.3099331e-12
2.1747548e-09
1.68664e-12
-1.2594809e-12
2.2682245e-09
2.3525763e-08
2.5505512e-09
-1.8531396e-09
2.3820445e-09
1.8776389e-09
2.3946282e-09
-2.0655088e-10
2.3729164e-09
3.4796095e-10
2.3813652e-09
-2.6781501e-11
2.3732082e-09
7.4805728e-11
2.3704968e-09
2.3685793e-11
2.3703832e-09
1.1301017e-11
2.3692595e-09
2.6168377e-12
2.3693111e-09
5.8586536e-12
2.3694076e-09
-5.3497297e-12
2.3691901e-09
6.2393336e-12
2.3695032e-09
-6.313056e-12
2.3691796e-09
6.2195403e-12
2.3694933e-09
-5.8749764e-12
2.369183e-09
5.6470949e-12
2.3694692e-09
-5.2719055e-12
2.3691929e-09
5.0129029e-12
2.3694506e-09
-4.7039815e-12
2.369205e-09
4.4540042e-12
2.3694361e-09
-4.1966393e-12
2.3692167e-09
3.9699771e-12
2.3694239e-09
-3.750211e-12
2.3692275e-09
3.5493752e-12
2.3694135e-09
-3.3593486e-12
2.3692372e-09
3.1831291e-12
2.3694044e-09
-3.0181059e-12
2.3692456e-09
2.8643313e-12
2.3693965e-09
-2.7210632e-12
2.369253e-09
2.5875168e-12
2.3693896e-09
-2.4635498e-12
2.3692595e-09
2.3482401e-12
2.3693837e-09
-2.2416125e-12
2.369265e-09
2.1428208e-12
2.3693787e-09
-2.0519188e-12
2.3692696e-09
1.9681827e-12
2.3693744e-09
-1.8916596e-12
2.3692735e-09
1.8217447e-12
2.3693709e-09
-1.7584479e-12
2.3692767e-09
1.7013619e-12
2.369368e-09
-1.6502535e-12
2.3692793e-09
1.6049177e-12
2.3693659e-09
-1.566452e-12
2.3692818e-09
1.527803e-12
2.3693656e-09
-1.5074822e-12
2.3692847e-09
1.4827001e-12
2.3693576e-09
-1.3827824e-12
2.369238e-09
1.8062048e-12
-1.319611e-12
2.4006767e-09
2.4586712e-08
2.70484e-09
-2.1573029e-09
2.5584382e-09
2.0240407e-09
2.5690555e-09
-2.1716812e-10
2.5578267e-09
3.5918973e-10
2.5669504e-09
-3.5905227e-11
2.5604014e-09
8.1354738e-11
2.5582201e-09
2.5867097e-11
2.5583574e-09
1.1163636e-11
2.5571496e-09
3.8246639e-12
2.5573317e-09
5.6765084e-12
2.5573527e-09
-5.3707083e-12
2.55721e-09
6.3820383e-12
2.557468e-09
-6.5709681e-12
2.5571976e-09
6.4898578e-12
2.5574628e-09
-6.1401233e-12
2.557198e-09
5.9119043e-12
2.557441e-09
-5.5149306e-12
2.5572053e-09
5.2486188e-12
2.5574247e-09
-4.9233493e-12
2.5572151e-09
4.6635637e-12
2.5574121e-09
-4.3936213e-12
2.557225e-09
4.1570615e-12
2.5574017e-09
-3.9269033e-12
2.5572342e-09
3.7168994e-12
2.5573928e-09
-3.5179661e-12
2.5572424e-09
3.333533e-12
2.557385e-09
-3.1607737e-12
2.5572496e-09
2.9997558e-12
2.5573783e-09
-2.8497544e-12
2.5572559e-09
2.7098824e-12
2.5573724e-09
-2.5800742e-12
2.5572614e-09
2.4592864e-12
2.5573674e-09
-2.3476242e-12
2.5572661e-09
2.2441311e-12
2.5573631e-09
-2.1489299e-12
2.5572701e-09
2.0612035e-12
2.5573595e-09
-1.9810548e-12
2.5572734e-09
1.9078018e-12
2.5573565e-09
-1.8414969e-12
2.5572762e-09
1.7816793e-12
2.557354e-09
-1.7281126e-12
2.5572783e-09
1.680604e-12
2.5573522e-09
-1.6402945e-12
2.5572806e-09
1.5994173e-12
2.5573521e-09
-1.5790509e-12
2.5572835e-09
1.5513561e-12
2.557345e-09
-1.4443425e-12
2.5572393e-09
1.9119236e-12
-1.3669116e-12
2.5662822e-09
2.5482054e-08
2.8467647e-09
-2.4377853e-09
2.7275922e-09
2.1432132e-09
2.7379414e-09
-2.2751727e-10
2.7362539e-09
3.6087716e-10
2.7456293e-09
-4.5280551e-11
2.7410558e-09
8.5928182e-11
2.739473e-09
2.744986e-11
2.7398251e-09
1.0811587e-11
2.7385618e-09
5.0879102e-12
2.7388719e-09
5.3664303e-12
2.7388173e-09
-5.3161085e-12
2.7387469e-09
6.4524534e-12
2.7389509e-09
-6.7749738e-12
2.7387326e-09
6.7081858e-12
2.7389501e-09
-6.3576357e-12
2.7387301e-09
6.131883e-12
2.7389307e-09
-5.7154476e-12
2.7387349e-09
5.4443772e-12
2.7389165e-09
-5.1049378e-12
2.7387426e-09
4.8375011e-12
2.7389059e-09
-4.5569341e-12
2.7387506e-09
4.312334e-12
2.7388972e-09
-4.0735027e-12
2.7387581e-09
3.8559469e-12
2.7388898e-09
-3.6496135e-12
2.7387649e-09
3.4583781e-12
2.7388833e-09
-3.2792003e-12
2.7387709e-09
3.1121707e-12
2.7388777e-09
-2.9565843e-12
2.7387762e-09
2.8114579e-12
2.7388729e-09
-2.6768048e-12
2.7387807e-09
2.5514653e-12
2.7388687e-09
-2.4356269e-12
2.7387846e-09
2.3282273e-12
2.7388651e-09
-2.2294595e-12
2.7387879e-09
2.1384173e-12
2.7388621e-09
-2.0552606e-12
2.7387907e-09
1.9792331e-12
2.7388596e-09
-1.9104314e-12
2.738793e-09
1.8483428e-12
2.7388576e-09
-1.7927299e-12
2.7387948e-09
1.7434179e-12
2.7388561e-09
-1.7015684e-12
2.7387967e-09
1.6587713e-12
2.7388562e-09
-1.6385891e-12
2.7387996e-09
1.6080214e-12
2.7388501e-09
-1.494847e-12
2.7387586e-09
2.0034156e-12
-1.4019762e-12
2.6904603e-09
2.6253219e-08
2.9841296e-09
-2.7314546e-09
2.8925699e-09
2.2347728e-09
2.9009647e-09
-2.3591203e-10
2.9083585e-09
3.5348333e-10
2.917843e-09
-5.4765058e-11
2.9152601e-09
8.8511066e-11
2.9142765e-09
2.8433457e-11
2.9147878e-09
1.0300281e-11
2.913497e-09
6.378759e-12
2.9139332e-09
4.9301723e-12
2.9138018e-09
-5.1847087e-12
2.9138008e-09
6.4535171e-12
2.9139521e-09
-6.9262376e-12
2.9137844e-09
6.8758523e-12
2.9139553e-09
-6.5285489e-12
2.9137793e-09
6.3079046e-12
2.9139382e-09
-5.8742837e-12
2.9137816e-09
5.6008973e-12
2.9139261e-09
-5.2494312e-12
2.9137872e-09
4.9764349e-12
2.9139174e-09
-4.6871595e-12
2.9137934e-09
4.4363334e-12
2.9139104e-09
-4.1905153e-12
2.9137994e-09
3.966993e-12
2.9139045e-09
-3.7547384e-12
2.9138048e-09
3.5580884e-12
2.9138993e-09
-3.373786e-12
2.9138095e-09
3.2019567e-12
2.9138949e-09
-3.0419141e-12
2.9138137e-09
2.8925876e-12
2.913891e-09
-2.7540691e-12
2.9138174e-09
2.6250898e-12
2.9138877e-09
-2.5059194e-12
2.9138205e-09
2.3953954e-12
2.9138848e-09
-2.2937819e-12
2.9138231e-09
2.2000874e-12
2.9138824e-09
-2.1145302e-12
2.9138254e-09
2.0362828e-12
2.9138804e-09
-1.9654874e-12
2.9138272e-09
1.9015811e-12
2.9138788e-09
-1.8443281e-12
2.9138286e-09
1.7935764e-12
2.9138775e-09
-1.7504861e-12
2.9138302e-09
1.706083e-12
2.9138779e-09
-1.6862863e-12
2.913833e-09
1.652936e-12
2.9138727e-09
-1.5345583e-12
2.9137957e-09
2.0804295e-12
-1.425465e-12
2.8538827e-09
2.6860961e-08
3.1149191e-09
-2.992491e-09
3.0517312e-09
2.2979608e-09
3.0579359e-09
-2.4211666e-10
3.0742652e-09
3.3715404e-10
3.083873e-09
-6.4372894e-11
3.0830648e-09
8.9319299e-11
3.0826467e-09
2.8851488e-11
3.0832463e-09
9.7007227e-12
3.0819556e-09
7.6693961e-12
3.082517e-09
4.3688312e-12
3.0823069e-09
-4.9746413e-12
3.0823719e-09
6.388561e-12
3.0824715e-09
-7.0258345e-12
3.082353e-09
6.9943251e-12
3.0824785e-09
-6.6540027e-12
3.0823454e-09
6.440964e-12
3.0824635e-09
-5.992392e-12
3.0823454e-09
5.7190209e-12
3.0824536e-09
-5.357637e-12
3.082349e-09
5.0811024e-12
3.0824468e-09
-4.7849961e-12
3.0823534e-09
4.5297106e-12
3.0824414e-09
-4.2785559e-12
3.0823578e-09
4.0506168e-12
3.0824369e-09
-3.8338886e-12
3.0823618e-09
3.6331822e-12
3.0824331e-09
-3.4450225e-12
3.0823654e-09
3.2695809e-12
3.0824297e-09
-3.1061873e-12
3.0823686e-09
2.9536941e-12
3.0824268e-09
-2.8122693e-12
3.0823713e-09
2.6805439e-12
3.0824243e-09
-2.5588679e-12
3.0823737e-09
2.4459862e-12
3.0824222e-09
-2.3422324e-12
3.0823757e-09
2.2465362e-12
3.0824203e-09
-2.1591729e-12
3.0823774e-09
2.0792492e-12
3.0824188e-09
-2.0069527e-12
3.0823788e-09
1.9416731e-12
3.0824176e-09
-1.8831782e-12
3.0823798e-09
1.8313432e-12
3.0824167e-09
-1.7873055e-12
3.0823811e-09
1.7416129e-12
3.0824172e-09
-1.7223749e-12
3.0823838e-09
1.6863812e-12
3.082413e-09
-1.5637648e-12
3.0823506e-09
2.1428321e-12
-1.4380828e-12
2.9738717e-09
2.7348715e-08
3.2413422e-09
-3.2599615e-09
3.2070729e-09
2.3322301e-09
3.2092212e-09
-2.4426495e-10
3.2340953e-09
3.122799e-10
3.2438163e-09
-7.4093908e-11
3.2444913e-09
8.8644228e-11
3.2445904e-09
2.8752488e-11
3.2452001e-09
9.0909345e-12
3.2439405e-09
8.9290625e-12
3.2446228e-09
3.6864396e-12
3.2443328e-09
-4.6845786e-12
3.2444602e-09
6.2611505e-12
3.2445092e-09
-7.0747923e-12
3.2444383e-09
7.0651626e-12
3.2445196e-09
-6.7352465e-12
3.2444284e-09
6.5321528e-12
3.2445069e-09
-6.0708463e-12
3.2444262e-09
5.7996959e-12
3.2444991e-09
-5.4304752e-12
3.2444278e-09
5.1523463e-12
3.2444941e-09
-4.8512471e-12
3.2444305e-09
4.5932164e-12
3.2444903e-09
-4.3383357e-12
3.2444334e-09
4.1074896e-12
3.2444872e-09
-3.8876995e-12
3.2444361e-09
3.6842626e-12
3.2444846e-09
-3.493481e-12
3.2444386e-09
3.3155866e-12
3.2444823e-09
-3.1499197e-12
3.2444407e-09
2.9952688e-12
3.2444803e-09
-2.8518729e-12
3.2444426e-09
2.7182737e-12
3.2444786e-09
-2.5948981e-12
3.2444442e-09
2.4804069e-12
3.2444772e-09
-2.3752004e-12
3.2444456e-09
2.2781373e-12
3.244476e-09
-2.1895476e-12
3.2444467e-09
2.1084782e-12
3.2444749e-09
-2.0351608e-12
3.2444477e-09
1.9689416e-12
3.2444741e-09
-1.909594e-12
3.2444484e-09
1.8570229e-12
3.2444734e-09
-1.8123248e-12
3.2444494e-09
1.7656595e-12
3.2444741e-09
-1.7471257e-12
3.2444518e-09
1.7086744e-12
3.2444709e-09
-1.5827789e-12
3.2444231e-09
2.1905977e-12
-1.4405597e-12
3.1366029e-09
2.7673737e-08
3.3647958e-09
-3.4881544e-09
3.357102e-09
2.339924e-09
3.3558523e-09
-2.4301521e-10
3.3879826e-09
2.8014954e-10
3.3976669e-09
-8.3778184e-11
3.3995459e-09
8.6765206e-11
3.4000945e-09
2.8203861e-11
3.4006501e-09
8.5353763e-12
3.3994608e-09
1.0118315e-11
3.4002488e-09
2.8983804e-12
3.3998798e-09
-4.3154772e-12
3.4000658e-09
6.0750627e-12
3.4000652e-09
-7.0740995e-12
3.4000403e-09
7.090012e-12
3.4000787e-09
-6.7736212e-12
3.4000282e-09
6.5826554e-12
3.4000682e-09
-6.1108234e-12
3.400024e-09
5.8439685e-12
3.4000624e-09
-5.4689654e-12
3.4000237e-09
5.191104e-12
3.4000592e-09
-4.8868086e-12
3.4000248e-09
4.6276898e-12
3.4000571e-09
-4.3706519e-12
3.4000262e-09
4.138364e-12
3.4000554e-09
-3.9168849e-12
3.4000276e-09
3.7120058e-12
3.4000539e-09
-3.5198034e-12
3.4000289e-09
3.3405835e-12
3.4000527e-09
-3.1736904e-12
3.4000301e-09
3.0178628e-12
3.4000516e-09
-2.8734043e-12
3.4000311e-09
2.7387797e-12
3.4000507e-09
-2.614487e-12
3.400032e-09
2.4991137e-12
3.4000499e-09
-2.3931227e-12
3.4000327e-09
2.2953095e-12
3.4000492e-09
-2.2060564e-12
3.4000334e-09
2.124357e-12
3.4000487e-09
-2.0504853e-12
3.4000339e-09
1.9837481e-12
3.4000482e-09
-1.9239262e-12
3.4000343e-09
1.8709564e-12
3.4000478e-09
-1.8258775e-12
3.400035e-09
1.7785541e-12
3.4000487e-09
-1.7608432e-12
3.4000372e-09
1.720163e-12
3.4000463e-09
-1.5919338e-12
3.4000131e-09
2.2237977e-12
-1.433636e-12
3.2541192e-09
2.7881243e-08
3.480651e-09
-3.7146862e-09
3.5027691e-09
2.3178059e-09
3.4990276e-09
-2.3927373e-10
3.5360821e-09
2.4309499e-10
3.5453986e-09
-9.3094612e-11
3.5482286e-09
8.393516e-11
3.5491357e-09
2.7296795e-11
3.5496016e-09
8.0694675e-12
3.5485308e-09
1.1189096e-11
3.5493913e-09
2.0378096e-12
3.5489482e-09
-3.8723004e-12
3.549189e-09
5.8342023e-12
3.5491396e-09
-7.0246634e-12
3.549159e-09
7.0706406e-12
3.5491559e-09
-6.7705272e-12
3.5491448e-09
6.5937544e-12
3.5491476e-09
-6.1135861e-12
3.5491386e-09
5.8529771e-12
3.5491438e-09
-5.4742132e-12
3.5491365e-09
5.1983983e-12
3.5491424e-09
-4.8926582e-12
3.549136e-09
4.6340486e-12
3.5491417e-09
-4.3763757e-12
3.549136e-09
4.1440636e-12
3.5491414e-09
-3.9222257e-12
3.5491362e-09
3.7171527e-12
3.5491411e-09
-3.5246921e-12
3.5491364e-09
3.345239e-12
3.5491409e-09
-3.1781333e-12
3.5491366e-09
3.0220795e-12
3.5491407e-09
-2.8774375e-12
3.5491368e-09
2.7426091e-12
3.5491405e-09
-2.6181567e-12
3.549137e-09
2.5026057e-12
3.5491404e-09
-2.3964766e-12
3.5491372e-09
2.2985109e-12
3.5491403e-09
-2.209139e-12
3.5491373e-09
2.127309e-12
3.5491402e-09
-2.0533343e-12
3.5491374e-09
1.9864874e-12
3.5491401e-09
-1.926558e-12
3.5491375e-09
1.8735156e-12
3.5491399e-09
-1.8283277e-12
3.5491378e-09
1.7806564e-12
3.5491409e-09
-1.7638622e-12
3.5491398e-09
1.7212206e-12
3.5491395e-09
-1.5915814e-12
3.5491207e-09
2.2425918e-12
-1.4180487e-12
3.4153075e-09
2.792756e-08
3.5953347e-09
-3.8947134e-09
3.6427706e-09
2.2703701e-09
3.63907e-09
-2.3557318e-10
3.6783358e-09
2.038292e-10
3.6869721e-09
-1.0173083e-10
3.6905281e-09
8.0379129e-11
3.6916942e-09
2.6130684e-11
3.6920637e-09
7.6999021e-12
3.6911564e-09
1.2096462e-11
3.6920443e-09
1.1498585e-12
3.6915372e-09
-3.3651515e-12
3.6918296e-09
5.5417431e-12
3.6917324e-09
-6.9274646e-12
3.6917942e-09
7.0088377e-12
3.6917512e-09
-6.7274586e-12
3.6917782e-09
6.5668e-12
3.6917451e-09
-6.080484e-12
3.6917701e-09
5.8279368e-12
3.6917433e-09
-5.4474028e-12
3.6917664e-09
5.1753259e-12
3.6917435e-09
-4.8698452e-12
3.6917643e-09
4.6132782e-12
3.6917444e-09
-4.3564439e-12
3.691763e-09
4.1254736e-12
3.6917453e-09
-3.9045617e-12
3.6917619e-09
3.7004988e-12
3.6917461e-09
-3.5089021e-12
3.6917611e-09
3.33027e-12
3.6917469e-09
-3.1639294e-12
3.6917604e-09
3.0085666e-12
3.6917475e-09
-2.864589e-12
3.6917598e-09
2.7303496e-12
3.6917481e-09
-2.6064678e-12
3.6917593e-09
2.4914188e-12
3.6917486e-09
-2.3857746e-12
3.6917589e-09
2.2882329e-12
3.691749e-09
-2.1992672e-12
3.6917585e-09
2.1177886e-12
3.6917493e-09
-2.0441462e-12
3.6917582e-09
1.9775835e-12
3.6917496e-09
-1.9179006e-12
3.691758e-09
1.8650997e-12
3.6917497e-09
-1.8200662e-12
3.691758e-09
1.7723509e-12
3.6917507e-09
-1.7565434e-12
3.6917597e-09
1.7122424e-12
3.6917502e-09
-1.5820901e-12
3.6917456e-09
2.2472193e-12
-1.3945214e-12
3.5381191e-09
2.7851066e-08
3.7011857e-09
-4.0577799e-09
3.7778256e-09
2.1937301e-09
3.7752656e-09
-2.3301317e-10
3.814622e-09
1.6447283e-10
3.8223451e-09
-1.0945392e-10
3.8264256e-09
7.6298554e-11
3.8277623e-09
2.4794067e-11
3.8280462e-09
7.4159817e-12
3.8273332e-09
1.2809446e-11
3.828202e-09
2.8101156e-13
3.8276452e-09
-2.8083482e-12
3.8279874e-09
5.1995417e-12
3.8278436e-09
-6.7835705e-12
3.827946e-09
6.906393e-12
3.8278646e-09
-6.6459934e-12
3.8279282e-09
6.503203e-12
3.8278606e-09
-6.0129444e-12
3.8279184e-09
5.7701312e-12
3.8278608e-09
-5.3897874e-12
3.8279131e-09
5.1230478e-12
3.8278627e-09
-4.819481e-12
3.8279096e-09
4.5664227e-12
3.827865e-09
-4.3118488e-12
3.8279069e-09
4.0835317e-12
3.8278671e-09
-3.8647823e-12
3.8279047e-09
3.6628873e-12
3.827869e-09
-3.4732332e-12
3.8279029e-09
3.2964358e-12
3.8278707e-09
-3.1317997e-12
3.8279013e-09
2.9780101e-12
3.8278722e-09
-2.8355113e-12
3.8278999e-09
2.7026234e-12
3.8278735e-09
-2.5800135e-12
3.8278988e-09
2.4661201e-12
3.8278746e-09
-2.3615593e-12
3.8278978e-09
2.2649959e-12
3.8278755e-09
-2.1769409e-12
3.827897e-09
2.0962768e-12
3.8278762e-09
-2.0233847e-12
3.8278963e-09
1.957485e-12
3.8278768e-09
-1.8983892e-12
3.8278958e-09
1.8461312e-12
3.8278772e-09
-1.8015064e-12
3.8278955e-09
1.7540433e-12
3.8278783e-09
-1.7392706e-12
3.8278969e-09
1.6936415e-12
3.8278786e-09
-1.5638422e-12
3.8278878e-09
2.2379905e-12
-1.3637561e-12
3.695975e-09
2.7616716e-08
3.8110082e-09
-4.1728132e-09
3.9079203e-09
2.0968181e-09
3.906922e-09
-2.3201485e-10
3.9447809e-09
1.2661391e-10
3.9514675e-09
-1.1614056e-10
3.9558998e-09
7.1866305e-11
3.9573391e-09
2.3354738e-11
3.9575559e-09
7.1991503e-12
3.9570528e-09
1.3312532e-11
3.9578606e-09
-5.2682564e-13
3.9572709e-09
-2.2186015e-12
3.9576622e-09
4.8082149e-12
3.9574729e-09
-6.5941886e-12
3.9576142e-09
6.7650821e-12
3.957496e-09
-6.5277942e-12
3.9575948e-09
6.4044205e-12
3.9574943e-09
-5.9124689e-12
3.9575836e-09
5.680899e-12
3.9574965e-09
-5.3026814e-12
3.9575767e-09
5.0427787e-12
3.9575e-09
-4.7427311e-12
3.9575718e-09
4.4945753e-12
3.9575036e-09
-4.2436306e-12
3.9575679e-09
4.01922e-12
3.9575069e-09
-3.8038195e-12
3.9575646e-09
3.6052006e-12
3.9575099e-09
-3.4185226e-12
3.9575618e-09
3.2445311e-12
3.9575125e-09
-3.0824991e-12
3.9575593e-09
2.9311276e-12
3.9575147e-09
-2.7908875e-12
3.9575573e-09
2.6600813e-12
3.9575167e-09
-2.5394149e-12
3.9575555e-09
2.427303e-12
3.9575183e-09
-2.3243988e-12
3.957554e-09
2.2293444e-12
3.9575197e-09
-2.1426829e-12
3.9575527e-09