/*--------------------------------*- C++ -*----------------------------------*\
| =========                 |                                                 |
| \\      /  F ield         | OpenFOAM: The Open Source CFD Toolbox           |
|  \\    /   O peration     | Version:  2312                                  |
|   \\  /    A nd           | Website:  www.openfoam.com                      |
|    \\/     M anipulation  |                                                 |
\*---------------------------------------------------------------------------*/
FoamFile
{
    version     2.0;
    format      ascii;
    arch        "LSB;label=32;scalar=64";
    class       volScalarField;
    location    "6";
    object      T;
}
// * * * * * * * * * * * * * * * * * * * * * * * * * * * * * * * * * * * * * //

dimensions      [0 0 0 1 0 0 0];

internalField   nonuniform List<scalar> 
4000
(
312.47905
311.77978
311.64201
311.6038
311.55951
311.5297
311.50093
311.47567
311.45121
311.42872
311.40619
311.38512
311.36378
311.34353
311.32303
311.3033
311.28342
311.26405
311.24465
311.22554
311.20652
311.1876
311.16888
311.15011
311.13164
311.11297
311.09472
311.07614
311.05807
311.03955
311.02165
311.00317
310.98542
310.96696
310.94935
310.93091
310.91343
310.89499
310.87763
310.85918
310.84195
310.82346
310.80637
310.78783
310.77088
310.75226
310.7355
310.71672
310.70029
310.68087
313.66666
312.53868
312.16581
312.08539
311.98752
311.93273
311.88117
311.84004
311.80137
311.76856
311.73567
311.70711
311.67779
311.65168
311.62487
311.60035
311.57539
311.55195
311.52843
311.50577
311.48337
311.46128
311.43979
311.41814
311.39741
311.37608
311.356
311.33491
311.3154
311.29448
311.27547
311.25468
311.23611
311.21541
311.19725
311.17659
311.15882
311.13816
311.12077
311.10008
311.08306
311.06228
311.04566
311.02472
311.00855
310.98735
310.97175
310.95006
310.93545
310.91192
314.39995
313.26876
312.68524
312.56364
312.41359
312.33413
312.2601
312.20319
312.15049
312.10739
312.06425
312.02819
311.99099
311.95902
311.92596
311.89662
311.86665
311.83913
311.81152
311.78529
311.75956
311.73429
311.71007
311.68552
311.66257
311.63855
311.61667
311.59306
311.57212
311.54881
311.52869
311.5056
311.48622
311.46326
311.44457
311.42169
311.40364
311.38076
311.36334
311.3404
311.32361
311.30052
311.28439
311.26104
311.24565
311.22188
311.20744
311.18284
311.17004
311.14262
314.88502
313.94428
313.19274
313.03389
312.83482
312.73166
312.63601
312.56364
312.49732
312.44404
312.39093
312.34743
312.30252
312.2647
312.22555
312.1914
312.15653
312.12491
312.09331
312.06351
312.03452
312.00605
311.97917
311.9517
311.92658
311.89987
311.87624
311.8501
311.82777
311.80205
311.78087
311.75545
311.7353
311.71008
311.69088
311.66576
311.64746
311.62236
311.60493
311.57973
311.56318
311.53778
311.52215
311.4964
311.4818
311.45546
311.44217
311.4147
311.40364
311.37263
315.22119
314.54389
313.67843
313.48994
313.24722
313.12233
313.00654
312.9194
312.84019
312.77702
312.71438
312.66358
312.61129
312.56771
312.5227
312.48378
312.44419
312.40849
312.37306
312.33969
312.30755
312.27589
312.24644
312.21607
312.18885
312.15945
312.13414
312.10546
312.0818
312.05367
312.03147
312.00373
311.98285
311.95536
311.9357
311.90834
311.88982
311.86249
311.84508
311.81763
311.80134
311.77364
311.75852
311.73037
311.71657
311.68767
311.67553
311.64523
311.63583
311.60156
315.4612
315.05326
314.13214
313.92454
313.64602
313.50248
313.3688
313.26806
313.17706
313.10451
313.03303
312.97521
312.91601
312.86681
312.81629
312.7727
312.72865
312.68895
312.64989
312.61299
312.57788
312.54306
312.51118
312.47791
312.44872
312.41663
312.38974
312.35854
312.33363
312.30309
312.27995
312.24989
312.22834
312.19859
312.1785
312.14892
312.13022
312.10066
312.08331
312.05362
312.03761
312.00763
311.99303
311.96252
311.94951
311.9181
311.90708
311.87403
311.86615
311.829
315.63662
315.46656
314.54464
314.33017
314.02604
313.86805
313.71954
313.6069
313.50559
313.42446
313.34505
313.28065
313.21517
313.16064
313.10507
313.05698
313.00884
312.96524
312.92283
312.88248
312.84463
312.8067
312.77257
312.73646
312.70544
312.67071
312.64235
312.60866
312.58261
312.54969
312.52569
312.49333
312.47118
312.4392
312.41875
312.38697
312.36813
312.33638
312.31911
312.28722
312.27151
312.23928
312.22522
312.19238
312.18016
312.1463
312.13634
312.10068
312.09415
312.05449
315.7671
315.78518
314.90921
314.69991
314.38219
314.21482
314.05529
313.93298
313.82326
313.73463
313.64846
313.57812
313.50715
313.44768
313.38765
313.33533
313.28353
313.23623
313.19082
313.14716
313.10684
313.06591
313.02976
312.99088
312.95823
312.92091
312.89124
312.85511
312.82805
312.7928
312.76805
312.73344
312.71077
312.67659
312.65586
312.62191
312.603
312.5691
312.55196
312.5179
312.50253
312.4681
312.45459
312.41948
312.40803
312.37182
312.36287
312.32476
312.31937
312.27755
315.86604
316.01722
315.22215
315.0284
314.70998
314.53878
314.3726
314.24334
314.12745
314.03272
313.94118
313.86572
313.79025
313.72638
313.66258
313.60641
313.55148
313.50074
313.45274
313.40598
313.36352
313.31974
313.28184
313.24032
313.20624
313.16644
313.13565
313.09716
313.06923
313.03173
313.00635
312.96956
312.94648
312.91017
312.88923
312.85318
312.83426
312.79826
312.7813
312.74515
312.73014
312.69358
312.68063
312.64335
312.63264
312.5942
312.58617
312.5458
312.54137
312.4977
315.94289
316.17531
315.48305
315.31252
315.00585
314.83638
314.66829
314.53516
314.41562
314.31644
314.22114
314.14158
314.0627
313.99511
313.92837
313.86881
313.81138
313.75755
313.70744
313.65784
313.61362
313.5672
313.52785
313.48386
313.44861
313.40648
313.37476
313.33405
313.30542
313.26577
313.23989
313.20102
313.17765
313.1393
313.11824
313.08018
313.06131
313.02332
313.00658
312.96842
312.95381
312.91522
312.90282
312.86349
312.85349
312.81297
312.80577
312.76337
312.75969
312.71446
316.00409
316.27421
315.69433
315.55168
315.26745
315.10488
314.93967
314.80593
314.68543
314.58365
314.48637
314.40387
314.32283
314.25231
314.18353
314.12116
314.06192
314.00543
313.95375
313.90164
313.8561
313.8073
313.76686
313.72061
313.68448
313.64018
313.60778
313.56499
313.53585
313.4942
313.46799
313.42716
313.40361
313.36334
313.34226
313.3023
313.28357
313.24369
313.22722
313.18718
313.17298
313.1325
313.12064
313.07941
313.07007
313.02766
313.02118
312.97699
312.97389
312.92735
316.05451
316.32952
315.86083
315.7476
315.49377
315.34253
315.18473
315.0536
314.93488
314.83248
314.73506
314.65091
314.56905
314.49649
314.42667
314.36215
314.30185
314.24321
314.19055
314.13632
314.08992
314.03907
313.99791
313.94966
313.91296
313.86673
313.83389
313.78922
313.75979
313.71629
313.68992
313.64729
313.62371
313.58166
313.56068
313.51896
313.50044
313.45881
313.44267
313.40088
313.38713
313.3449
313.33359
313.29062
313.2819
313.23779
313.23194
313.18621
313.18353
313.1359
316.09716
316.35516
315.98883
315.90384
315.68526
315.54873
315.40229
315.27677
315.16244
315.0614
314.96571
314.88126
314.79994
314.72633
314.65651
314.59056
314.53001
314.46976
314.41676
314.36086
314.31412
314.26157
314.2201
314.17017
314.13322
314.08532
314.05232
314.00599
313.9765
313.93137
313.90502
313.86076
313.8373
313.79365
313.77287
313.72956
313.71133
313.66812
313.65237
313.60901
313.59571
313.55193
313.54114
313.49664
313.48848
313.4429
313.43757
313.39056
313.38818
313.33966
316.13439
316.36316
316.0852
316.02525
315.84367
315.72407
315.59205
315.47471
315.36713
315.26934
315.17718
315.09379
315.01437
314.94071
314.87192
314.80532
314.74534
314.6841
314.63141
314.57433
314.52777
314.47393
314.43259
314.38131
314.34448
314.29519
314.26233
314.2146
314.18527
314.13874
314.1126
314.06695
314.04375
313.9987
313.97825
313.93354
313.9157
313.87109
313.85578
313.81103
313.79823
313.75308
313.74281
313.69698
313.68934
313.64254
313.63763
313.5896
313.58742
313.53821
316.16748
316.36228
316.15671
316.1174
315.9719
315.87016
315.75462
315.64748
315.54861
315.45576
315.36874
315.2877
315.21146
315.13875
315.07202
315.00556
314.94696
314.88537
314.83366
314.77592
314.73007
314.67539
314.63461
314.58235
314.54599
314.49565
314.46322
314.41439
314.38547
314.33779
314.31207
314.26525
314.24248
314.19625
314.17625
314.13036
314.11299
314.06721
314.05239
314.00648
313.99418
313.94789
313.93813
313.89122
313.88403
313.83626
313.83171
313.78289
313.78085
313.73112
316.19745
316.35869
316.20952
316.18601
316.07362
315.98952
315.89144
315.79581
315.70713
315.62061
315.54012
315.46259
315.39071
315.3199
315.25619
315.19065
315.13421
315.07291
315.02281
314.96495
314.92035
314.86527
314.82549
314.77265
314.73713
314.68609
314.65438
314.60476
314.57649
314.52796
314.50285
314.45514
314.43295
314.38579
314.36636
314.31953
314.30272
314.25599
314.24173
314.19487
314.18311
314.13592
314.12665
314.0789
314.07215
314.02364
314.01938
313.97003
313.96809
313.91802
316.22478
316.35584
316.24883
316.23647
316.15291
316.08526
316.00458
315.92111
315.84355
315.7644
315.69152
315.61848
315.55196
315.48391
315.42407
315.36017
315.30663
315.24625
315.19836
315.14092
315.09807
315.04306
315.0047
314.9517
314.91737
314.86598
314.83529
314.7852
314.75784
314.70875
314.68445
314.63612
314.61468
314.56686
314.54812
314.5006
314.48444
314.43701
314.42335
314.37581
314.36461
314.31676
314.30799
314.25965
314.25329
314.20431
314.2003
314.15064
314.14877
314.09854
316.2499
316.35545
316.27879
316.27354
316.21391
316.16082
316.09665
316.02529
315.95926
315.88811
315.82358
315.75579
315.6954
315.63084
315.5756
315.51401
315.46399
315.40511
315.35999
315.30349
315.26285
315.20838
315.17184
315.11908
315.08627
315.03492
315.00553
314.95531
314.92908
314.87975
314.85645
314.80779
314.78725
314.73904
314.72111
314.67317
314.65775
314.60988
314.59689
314.54891
314.53829
314.49005
314.48177
314.4331
314.42711
314.3779
314.37412
314.32437
314.32257
314.27236
316.27301
316.35784
316.30252
316.30115
316.26052
316.21969
316.17051
316.11065
316.05602
315.9931
315.93732
315.87528
315.82158
315.76108
315.711
315.6523
315.60633
315.54948
315.5076
315.45252
315.41452
315.36102
315.32666
315.27454
315.24356
315.1926
315.16478
315.11477
315.08989
315.04063
315.01852
314.96982
314.95033
314.90202
314.88501
314.83692
314.82232
314.77428
314.762
314.71386
314.70385
314.65547
314.64768
314.59894
314.59331
314.54413
314.54054
314.49093
314.4892
314.4392
316.29432
316.36273
316.32222
316.32237
316.2962
316.26521
316.22908
316.17967
316.13588
316.08107
316.03408
315.97804
315.93133
315.8753
315.83079
315.77541
315.7339
315.67955
315.64129
315.58806
315.55305
315.50093
315.46906
315.41796
315.38909
315.33888
315.31285
315.26338
315.24006
315.19118
315.17042
315.12199
315.10367
315.05554
315.03957
314.9916
314.97789
314.92995
314.91844
314.87039
314.86102
314.81276
314.80548
314.75691
314.75163
314.70271
314.69933
314.65006
314.6484
314.5988
316.31396
316.36946
316.33933
316.33943
316.32385
316.30036
316.27518
316.23488
316.20106
316.1539
316.11544
316.06542
316.02577
315.97443
315.9357
315.88397
315.84721
315.79569
315.76135
315.71035
315.6786
315.62823
315.59911
315.54938
315.52284
315.47371
315.44968
315.40107
315.37947
315.33128
315.31201
315.26413
315.24711
315.19944
315.18459
315.13702
315.12428
315.0767
315.066
315.01831
315.00961
314.96172
314.95495
314.9068
314.90188
314.85344
314.85027
314.80155
314.79998
314.75096
316.33208
316.37737
316.35474
316.35387
316.34577
316.32773
316.31141
316.27874
316.25375
316.21357
316.18313
316.13892
316.10618
316.05959
316.02667
315.9788
315.94691
315.89851
315.86827
315.81979
315.79151
315.74319
315.71701
315.66896
315.64493
315.59719
315.57533
315.52787
315.50813
315.46091
315.44326
315.39622
315.38059
315.33365
315.32
315.27309
315.26137
315.21441
315.20457
315.15748
315.14947
315.1022
315.09596
315.04846
315.04391
314.99617
314.99321
314.94524
314.94377
314.89552
316.34882
316.38591
316.36894
316.36668
316.36372
316.34938
316.34
316.31347
316.29608
316.26204
316.23892
316.20014
316.17396
316.13203
316.10481
316.06086
316.03386
315.98875
315.96268
315.91695
315.89224
315.84622
315.82311
315.777
315.75563
315.70953
315.68995
315.64391
315.62615
315.58017
315.56423
315.51828
315.50413
315.45818
315.44579
315.39979
315.38914
315.34304
315.33409
315.28785
315.28055
315.23412
315.22843
315.1818
315.17763
315.13079
315.12806
315.08102
315.07966
315.03236
316.3643
316.39467
316.3822
316.37844
316.37893
316.36694
316.36282
316.34105
316.33
316.30119
316.28455
316.25071
316.23061
316.1931
316.17132
316.13125
316.10903
316.06726
316.04536
316.00251
315.98142
315.93788
315.91791
315.87395
315.85529
315.81107
315.79386
315.74946
315.73376
315.68924
315.67508
315.63046
315.61784
315.57311
315.56204
315.51718
315.50764
315.46263
315.45459
315.40941
315.40285
315.35748
315.35234
315.30678
315.30301
315.25726
315.25478
315.20884
315.2076
315.16143
316.37864
316.40337
316.39464
316.38948
316.39226
316.38162
316.38138
316.36314
316.35723
316.33273
316.32169
316.29219
316.27757
316.24417
316.22746
316.19112
316.17346
316.13503
316.11717
316.07728
316.05975
316.01882
316.00197
315.96032
315.94441
315.90224
315.88742
315.84487
315.83126
315.78842
315.77606
315.73298
315.72193
315.67863
315.6689
315.62539
315.61698
315.57326
315.56617
315.52225
315.51643
315.47232
315.46775
315.42344
315.42007
315.37559
315.37337
315.32871
315.32759
315.28271
316.39196
316.41186
316.40631
316.39995
316.40425
316.39427
316.3968
316.38108
316.37923
316.35817
316.35184
316.32608
316.31628
316.28658
316.27448
316.24166
316.22825
316.19306
316.17906
316.14211
316.12803
316.08977
316.07598
316.03675
316.02354
315.98356
315.97113
315.93058
315.91905
315.87805
315.86752
315.82615
315.81668
315.77498
315.76661
315.72463
315.71736
315.67513
315.66897
315.6265
315.62144
315.57875
315.57476
315.53187
315.52892
315.48586
315.4839
315.44067
315.43968
315.39624
316.40435
316.42007
316.41724
316.40989
316.41523
316.40547
316.40995
316.39594
316.3972
316.3788
316.37633
316.3537
316.34804
316.32161
316.31362
316.28403
316.27451
316.2424
316.23199
316.19793
316.18711
316.15153
316.14068
316.10391
316.09332
316.05563
316.04552
316.00709
315.99762
315.95859
315.94986
315.91034
315.90244
315.8625
315.85547
315.81518
315.80905
315.76845
315.76323
315.72236
315.71805
315.67694
315.67353
315.63221
315.62968
315.58818
315.58649
315.54482
315.54397
315.5021
316.41591
316.42795
316.42744
316.41932
316.4254
316.4156
316.42141
316.40851
316.4121
316.39571
316.39631
316.37623
316.37404
316.35046
316.34603
316.31936
316.3133
316.28408
316.27694
316.24566
316.23787
316.20492
316.19684
316.16254
316.15446
316.11908
316.11122
316.07497
316.06749
316.03053
316.02356
315.986
315.97962
315.94157
315.93585
315.89737
315.89236
315.85352
315.84923
315.81008
315.80653
315.76712
315.76429
315.72465
315.72254
315.68272
315.68131
315.64132
315.64061
315.60043
316.4267
316.43551
316.43695
316.42823
316.43485
316.42488
316.4316
316.41938
316.42465
316.40973
316.41273
316.39469
316.39534
316.37416
316.37276
316.34868
316.34566
316.31909
316.31489
316.28621
316.28119
316.25078
316.24526
316.2134
316.20765
316.17461
316.16886
316.13483
316.12925
316.09441
316.08912
316.0536
316.0487
316.01261
316.00817
315.9716
315.96767
315.93069
315.9273
315.88998
315.88716
315.84955
315.84729
315.80945
315.80775
315.76971
315.76857
315.73035
315.72978
315.69138
316.43678
316.44275
316.44579
316.43662
316.44364
316.43347
316.44077
316.42895
316.43541
316.42154
316.42635
316.40992
316.41283
316.39366
316.39477
316.37296
316.37254
316.34836
316.34672
316.32049
316.31793
316.28993
316.28674
316.25724
316.25365
316.2229
316.21911
316.18731
316.1835
316.15081
316.1471
316.11367
316.11016
316.0761
316.07287
316.03827
316.03538
316.00034
315.99782
315.96241
315.96029
315.92456
315.92285
315.88687
315.88558
315.84939
315.84853
315.81216
315.81173
315.77519
316.44622
316.44966
316.454
316.44448
316.45179
316.44141
316.44911
316.4375
316.44477
316.43164
316.43777
316.42259
316.42725
316.40975
316.41288
316.39303
316.39478
316.37274
316.37331
316.34931
316.34892
316.32319
316.32206
316.29483
316.29318
316.26466
316.26266
316.23305
316.23087
316.20033
316.19809
316.16675
316.16454
316.13253
316.13044
316.09786
316.09595
316.06289
316.06119
316.02773
316.02628
315.99249
315.99131
315.95725
315.95636
315.92207
315.92147
315.88701
315.88671
315.85208
316.45505
316.45624
316.46159
316.4518
316.45932
316.44877
316.4567
316.44521
316.453
316.44039
316.44746
316.43325
316.43922
316.42309
316.42781
316.40964
316.41315
316.393
316.39541
316.37344
316.37491
316.35128
316.35196
316.32687
316.32694
316.30057
316.30018
316.2727
316.27199
316.24356
316.24266
316.2134
316.21239
316.18244
316.1814
316.15084
316.14984
316.11878
316.11785
316.08637
316.08555
316.05373
316.05304
316.02094
316.02041
315.98807
315.98772
315.9552
315.95502
315.92235
316.46331
316.46249
316.46858
316.45858
316.46623
316.45555
316.4636
316.45219
316.46029
316.44808
316.45576
316.44231
316.44922
316.43421
316.44014
316.4234
316.42831
316.40982
316.41374
316.3936
316.39661
316.37493
316.37715
316.35406
316.35561
316.33128
316.3323
316.30688
316.30748
316.2811
316.2814
316.25419
316.25426
316.22633
316.22625
316.1977
316.19753
316.16847
316.16824
316.13875
316.13851
316.10866
316.10844
316.07829
316.07811
316.04773
316.04761
316.01705
316.01698
315.98628
316.47101
316.46839
316.47497
316.46481
316.47251
316.46175
316.46985
316.45852
316.46678
316.45487
316.46293
316.45009
316.45764
316.44356
316.45037
316.43484
316.44082
316.42379
316.4289
316.41039
316.41467
316.39475
316.39825
316.37703
316.37984
316.35743
316.35966
316.33619
316.33794
316.31353
316.31488
316.28965
316.29068
316.26473
316.2655
316.23894
316.23951
316.21242
316.21284
316.18531
316.1856
316.1577
316.15791
316.12971
316.12985
316.10142
316.1015
316.07289
316.07293
316.04419
316.47816
316.47389
316.48076
316.47047
316.47816
316.46738
316.47546
316.46423
316.47254
316.46089
316.46916
316.45682
316.46478
316.45146
316.45889
316.4444
316.45116
316.4354
316.44142
316.42437
316.42964
316.41133
316.41586
316.39635
316.40021
316.37958
316.38283
316.36121
316.36393
316.3414
316.34366
316.32033
316.32219
316.29816
316.29968
316.27504
316.27627
316.2511
316.25209
316.22648
316.22725
316.20128
316.20186
316.17559
316.17601
316.1495
316.14978
316.1231
316.12323
316.09643
316.48472
316.47894
316.48591
316.47555
316.48317
316.47243
316.48044
316.46936
316.47763
316.46624
316.47458
316.46267
316.47086
316.4582
316.46602
316.45242
316.45971
316.44506
316.45175
316.43599
316.44201
316.42515
316.4305
316.41255
316.41724
316.39828
316.40236
316.38245
316.38598
316.36523
316.36824
316.34673
316.34929
316.3271
316.32926
316.30647
316.30827
316.28497
316.28645
316.26271
316.26389
316.2398
316.24071
316.21632
316.21699
316.19237
316.19281
316.16802
316.16824
316.14333
316.49059
316.48345
316.49041
316.48003
316.48755
316.4769
316.48481
316.47391
316.48209
316.47097
316.47928
316.46778
316.47604
316.46397
316.47199
316.45917
316.4668
316.45313
316.46026
316.44566
316.45222
316.43666
316.44261
316.42609
316.43142
316.41398
316.41871
316.40042
316.40458
316.3855
316.38913
316.36933
316.37247
316.35203
316.35472
316.3337
316.33598
316.31447
316.31636
316.29442
316.29596
316.27367
316.27487
316.2523
316.25318
316.23039
316.23097
316.20801
316.2083
316.18524
316.49561
316.48736
316.49422
316.48389
316.49129
316.48079
316.48858
316.47791
316.48596
316.47513
316.48334
316.47223
316.48046
316.46891
316.477
316.46488
316.47269
316.45988
316.46728
316.4537
316.46062
316.44623
316.4526
316.43737
316.44317
316.42713
316.43235
316.41553
316.42019
316.40265
316.40677
316.38857
316.39218
316.37337
316.37649
316.35716
316.35982
316.34001
316.34224
316.32203
316.32385
316.3033
316.30474
316.28391
316.28497
316.26393
316.26464
316.24344
316.24379
316.2225
316.49958
316.49056
316.49731
316.48712
316.4944
316.48411
316.49177
316.48137
316.48927
316.47875
316.48681
316.47609
316.48421
316.47316
316.48121
316.46972
316.47756
316.46553
316.47305
316.4604
316.46751
316.45417
316.4608
316.44675
316.45285
316.43808
316.44364
316.42819
316.4332
316.41709
316.42157
316.40486
316.40882
316.39155
316.395
316.37724
316.3802
316.362
316.3645
316.34592
316.34797
316.32907
316.33069
316.31153
316.31274
316.29337
316.29417
316.27466
316.27506
316.25546
316.50238
316.49301
316.49969
316.48974
316.4969
316.48689
316.4944
316.48432
316.49204
316.48186
316.48974
316.47941
316.48737
316.4768
316.48472
316.47382
316.4816
316.47027
316.47779
316.46596
316.47314
316.46075
316.4675
316.4545
316.46078
316.44717
316.45293
316.43872
316.44396
316.42918
316.43389
316.41856
316.42276
316.40692
316.41061
316.39432
316.3975
316.38081
316.38351
316.36646
316.36868
316.35134
316.3531
316.33551
316.33683
316.31905
316.31992
316.30201
316.30245
316.28445
316.50398
316.49472
316.50139
316.49177
316.49882
316.48916
316.49651
316.48678
316.49431
316.48451
316.49217
316.48226
316.49
316.47991
316.48764
316.47729
316.48491
316.47423
316.48166
316.47058
316.47771
316.46617
316.47293
316.46089
316.46722
316.45466
316.46051
316.44743
316.4528
316.43921
316.44407
316.43
316.43435
316.41983
316.42367
316.40874
316.41207
316.39678
316.39961
316.38399
316.38634
316.37044
316.37231
316.35619
316.35759
316.3413
316.34223
316.32581
316.32628
316.30979
316.50456
316.49578
316.50248
316.49328
316.50023
316.49094
316.49813
316.48879
316.49612
316.48671
316.49415
316.48466
316.49216
316.48253
316.49003
316.4802
316.48762
316.47753
316.48478
316.47439
316.48139
316.47063
316.4773
316.46612
316.4724
316.46079
316.46663
316.45458
316.45996
316.44747
316.45238
316.43947
316.44388
316.43057
316.43448
316.42081
316.42422
316.41022
316.41313
316.39883
316.40125
316.38671
316.38864
316.37389
316.37533
316.36043
316.36139
316.34638
316.34686
316.33178
316.50442
316.4963
316.50306
316.49431
316.50116
316.4923
316.49931
316.49039
316.4975
316.48852
316.49571
316.48665
316.49389
316.48472
316.49195
316.48263
316.48979
316.48026
316.48728
316.47751
316.4843
316.47424
316.48075
316.47035
316.4765
316.46575
316.4715
316.46037
316.46569
316.4542
316.45907
316.44721
316.4516
316.4394
316.44332
316.4308
316.43422
316.42141
316.42434
316.41127
316.41371
316.40042
316.40237
316.3889
316.39036
316.37674
316.37772
316.364
316.36449
316.35072
316.50386
316.49644
316.50322
316.49496
316.5017
316.49328
316.50011
316.49162
316.49851
316.48995
316.4969
316.48827
316.49523
316.48651
316.49346
316.48461
316.49148
316.48248
316.48922
316.48003
316.48656
316.47714
316.48341
316.47372
316.47968
316.46969
316.47528
316.46499
316.47018
316.45958
316.46434
316.45344
316.45776
316.44656
316.45042
316.43894
316.44233
316.4306
316.43351
316.42156
316.42398
316.41184
316.41378
316.40147
316.40293
316.3905
316.39148
316.37896
316.37945
316.36688
316.50313
316.49633
316.50306
316.49529
316.5019
316.49393
316.50058
316.49252
316.49919
316.49106
316.49774
316.48955
316.49622
316.48795
316.49458
316.4862
316.49275
316.48424
316.49066
316.482
316.48824
316.4794
316.48539
316.47634
316.48204
316.47275
316.47811
316.46857
316.47357
316.46378
316.46839
316.45834
316.46253
316.45224
316.45599
316.44546
316.44876
316.43802
316.44086
316.42993
316.43231
316.4212
316.42311
316.41187
316.4133
316.40195
316.40291
316.39149
316.39197
316.3805
316.50236
316.49608
316.50269
316.49538
316.50184
316.49432
316.50076
316.49314
316.49957
316.49188
316.49828
316.49052
316.49689
316.48905
316.49536
316.48742
316.49363
316.48559
316.49166
316.4835
316.4894
316.48108
316.48676
316.47828
316.48368
316.47501
316.48012
316.47125
316.47601
316.46694
316.47134
316.46207
316.46608
316.4566
316.4602
316.45053
316.45371
316.44386
316.4466
316.43659
316.43888
316.42873
316.43057
316.4203
316.42169
316.41133
316.41226
316.40183
316.40229
316.39183
316.5016
316.49576
316.50217
316.49529
316.50157
316.49449
316.50071
316.49352
316.4997
316.49243
316.49856
316.49121
316.49728
316.48985
316.49582
316.4883
316.49415
316.48654
316.49225
316.48453
316.49007
316.48224
316.48757
316.4796
316.48468
316.47657
316.48137
316.47311
316.4776
316.46917
316.47333
316.46474
316.46854
316.45979
316.46321
316.45431
316.45733
316.44828
316.45089
316.44171
316.4439
316.4346
316.43637
316.42697
316.4283
316.41882
316.41971
316.41019
316.41063
316.40108
316.50085
316.49539
316.50156
316.49508
316.50114
316.49448
316.50047
316.4937
316.49962
316.49276
316.49859
316.49165
316.49739
316.49035
316.49597
316.48884
316.49433
316.48711
316.49244
316.48514
316.4903
316.4829
316.48786
316.48036
316.48509
316.47747
316.48194
316.47422
316.47841
316.47056
316.47444
316.46647
316.47003
316.46193
316.46514
316.45692
316.45976
316.45143
316.45389
316.44545
316.44752
316.43899
316.44065
316.43204
316.4333
316.42463
316.42547
316.41675
316.41718
316.40843
316.50011
316.49502
316.50088
316.49477
316.5006
316.49434
316.50008
316.49371
316.49935
316.49289
316.49841
316.49185
316.49725
316.49058
316.49583
316.48907
316.49417
316.48731
316.49225
316.48532
316.49008
316.48308
316.48765
316.48056
316.48492
316.47776
316.48188
316.47463
316.4785
316.47116
316.47476
316.46733
316.47063
316.46311
316.46609
316.45848
316.46112
316.45343
316.45572
316.44795
316.44987
316.44203
316.44358
316.43568
316.43685
316.4289
316.42968
316.4217
316.42209
316.41408
316.49936
316.49463
316.50016
316.49441
316.49997
316.4941
316.49956
316.49358
316.49893
316.49283
316.49803
316.49182
316.49686
316.49053
316.4954
316.48897
316.49367
316.48714
316.49167
316.48508
316.48944
316.48278
316.48696
316.48024
316.48422
316.47745
316.48122
316.47439
316.47793
316.47104
316.47433
316.46739
316.47041
316.46341
316.46614
316.45908
316.4615
316.45438
316.45649
316.44931
316.45109
316.44385
316.44529
316.43801
316.4391
316.43178
316.43251
316.42517
316.42553
316.41818
316.49861
316.49425
316.49941
316.49399
316.49928
316.49377
316.49895
316.49332
316.49836
316.4926
316.49746
316.49157
316.49623
316.49021
316.49468
316.48853
316.49282
316.48659
316.4907
316.48441
316.48835
316.48201
316.48578
316.47939
316.48299
316.47657
316.47997
316.47352
316.47671
316.47023
316.47321
316.4667
316.46943
316.46289
316.46536
316.45878
316.46099
316.45437
316.45629
316.44964
316.45126
316.44457
316.44588
316.43916
316.44015
316.4334
316.43407
316.42731
316.42764
316.42086
316.49784
316.49386
316.49864
316.49354
316.49854
316.49337
316.49826
316.49295
316.49766
316.4922
316.4967
316.49108
316.49534
316.48958
316.49364
316.48775
316.49161
316.48564
316.48932
316.48329
316.48681
316.48074
316.48411
316.47802
316.48122
316.47511
316.47814
316.47203
316.47488
316.46876
316.47142
316.46529
316.46773
316.46159
316.46382
316.45766
316.45964
316.45347
316.4552
316.44901
316.45047
316.44427
316.44545
316.43922
316.44012
316.43388
316.43448
316.42823
316.42853
316.42227
316.49705
316.49346
316.49785
316.49307
316.49777
316.49291
316.49749
316.49247
316.49683
316.49162
316.49572
316.49034
316.49418
316.48864
316.49226
316.48659
316.49001
316.48425
316.48751
316.4817
316.4848
316.47898
316.48193
316.4761
316.47891
316.47308
316.47575
316.46993
316.47244
316.46664
316.46898
316.46319
316.46535
316.45957
316.46154
316.45576
316.45752
316.45175
316.45328
316.44751
316.44881
316.44303
316.44408
316.4383
316.4391
316.43331
316.43384
316.42805
316.42832
316.42251
316.49623
316.49306
316.49704
316.49257
316.49697
316.4924
316.49665
316.49187
316.49584
316.49084
316.49451
316.48931
316.49271
316.48734
316.4905
316.48501
316.48798
316.48241
316.48523
316.47962
316.4823
316.47668
316.47923
316.47363
316.47605
316.47047
316.47278
316.46722
316.4694
316.46388
316.46591
316.46043
316.46231
316.45685
316.45856
316.45313
316.45466
316.44925
316.45059
316.44519
316.44633
316.44093
316.44185
316.43646
316.43716
316.43177
316.43225
316.42685
316.42709
316.42169
316.49538
316.49265
316.4962
316.49205
316.49613
316.49182
316.49571
316.49112
316.49467
316.48982
316.49303
316.48796
316.49088
316.48564
316.48833
316.48298
316.48549
316.48007
316.48245
316.47701
316.47926
316.47383
316.47598
316.47058
316.47263
316.46727
316.46922
316.46391
316.46576
316.46049
316.46223
316.45701
316.45862
316.45345
316.45492
316.44979
316.45111
316.44601
316.44717
316.4421
316.44308
316.43803
316.43883
316.43378
316.43439
316.42935
316.42976
316.42473
316.42494
316.4199
316.4945
316.49223
316.49534
316.4915
316.49525
316.49117
316.49465
316.49019
316.49328
316.48851
316.49122
316.48623
316.48865
316.48349
316.4857
316.48044
316.48249
316.4772
316.47913
316.47383
316.47567
316.4704
316.47216
316.46694
316.46863
316.46347
316.46508
316.45998
316.46152
316.45649
316.45793
316.45296
316.45431
316.4494
316.45064
316.44578
316.4469
316.44208
316.44306
316.43829
316.43912
316.43437
316.43505
316.43032
316.43084
316.42612
316.42647
316.42176
316.42193
316.41721
316.49356
316.49181
316.49446
316.49093
316.49432
316.4904
316.49343
316.48902
316.49159
316.48684
316.48902
316.48405
316.48594
316.48083
316.48254
316.47736
316.47894
316.47374
316.47523
316.47006
316.47149
316.46637
316.46775
316.46269
316.46403
316.45905
316.46034
316.45544
316.45668
316.45186
316.45303
316.44829
316.44939
316.44472
316.44573
316.44113
316.44205
316.43749
316.4383
316.43379
316.43449
316.43001
316.43058
316.42613
316.42657
316.42213
316.42243
316.418
316.41815
316.41372
316.49258
316.49139
316.49355
316.49033
316.49329
316.48947
316.49198
316.48754
316.48954
316.48475
316.48635
316.48135
316.4827
316.4776
316.4788
316.47366
316.47477
316.46965
316.47072
316.46565
316.46669
316.4617
316.46272
316.45782
316.45882
316.45401
316.45499
316.45028
316.45123
316.44661
316.44753
316.443
316.44387
316.43942
316.44023
316.43585
316.43659
316.43227
316.43292
316.42866
316.42922
316.425
316.42546
316.42127
316.42162
316.41745
316.41769
316.41352
316.41364
316.40948
316.49153
316.49099
316.4926
316.48968
316.49213
316.48831
316.49023
316.48567
316.48704
316.48213
316.48312
316.47806
316.47884
316.47372
316.47441
316.4693
316.46996
316.4649
316.46555
316.46058
316.46125
316.45638
316.45706
316.45229
316.45299
316.44834
316.44904
316.4445
316.44519
316.44076
316.44144
316.4371
316.43776
316.43352
316.43413
316.42997
316.43054
316.42644
316.42695
316.42292
316.42336
316.41937
316.41973