/*--------------------------------*- C++ -*----------------------------------*\
| =========                 |                                                 |
| \\      /  F ield         | OpenFOAM: The Open Source CFD Toolbox           |
|  \\    /   O peration     | Version:  2312                                  |
|   \\  /    A nd           | Website:  www.openfoam.com                      |
|    \\/     M anipulation  |                                                 |
\*---------------------------------------------------------------------------*/
FoamFile
{
    version     2.0;
    format      ascii;
    arch        "LSB;label=32;scalar=64";
    class       surfaceScalarField;
    location    "9";
    object      phi_0;
}
// * * * * * * * * * * * * * * * * * * * * * * * * * * * * * * * * * * * * * //

dimensions      [0 3 -1 0 0 0 0];

oriented        oriented;

internalField   nonuniform List<scalar> 
7870
(
1.8583399e-10
3.275791e-09
1.7999484e-10
5.8391523e-12
1.3083321e-10
4.9161638e-11
1.405368e-10
-9.7035984e-12
1.3429678e-10
6.2400326e-12
1.3499682e-10
-7.0005569e-13
1.331556e-10
1.841218e-12
1.3354151e-10
-3.8591949e-13
1.3262577e-10
9.1573022e-13
1.3325508e-10
-6.2931499e-13
1.3254802e-10
7.0706043e-13
1.331867e-10
-6.3868577e-13
1.3256345e-10
6.2325695e-13
1.3314858e-10
-5.8513137e-13
1.3259212e-10
5.5646077e-13
1.3311547e-10
-5.233411e-13
1.3262042e-10
4.9504505e-13
1.3308655e-10
-4.661209e-13
1.3264612e-10
4.4043199e-13
1.3306159e-10
-4.1546598e-13
1.3266888e-10
3.927063e-13
1.3303992e-10
-3.7103873e-13
1.3268891e-10
3.510133e-13
1.3302101e-10
-3.3210211e-13
1.327065e-10
3.145166e-13
1.3300447e-10
-2.9796845e-13
1.3272192e-10
2.8254977e-13
1.3298999e-10
-2.6807407e-13
1.327354e-10
2.5459172e-13
1.3297736e-10
-2.4196404e-13
1.3274714e-10
2.3022607e-13
1.329664e-10
-2.192654e-13
1.3275729e-10
2.0911024e-13
1.3295696e-10
-1.9966556e-13
1.32766e-10
1.9095528e-13
1.329489e-10
-1.8289805e-13
1.3277339e-10
1.7551409e-13
1.3294212e-10
-1.6873405e-13
1.3277955e-10
1.6257491e-13
1.3293652e-10
-1.5697779e-13
1.3278457e-10
1.5195773e-13
1.3293203e-10
-1.4746622e-13
1.3278853e-10
1.435051e-13
1.3292861e-10
-1.4008082e-13
1.3279152e-10
1.370889e-13
1.3292612e-10
-1.3459587e-13
1.3279285e-10
1.3326428e-13
1.3292168e-10
-1.288297e-13
1.3278483e-10
1.368544e-13
-1.2457443e-13
4.6883667e-10
6.2685794e-09
5.0265711e-10
-2.7981305e-11
3.9241152e-10
1.5940726e-10
4.0429299e-10
-2.1585102e-11
3.9036003e-10
2.0173007e-11
3.9083582e-10
-1.1758779e-12
3.8715531e-10
5.5217319e-12
3.8700908e-10
-2.3971974e-13
3.8554684e-10
2.3779628e-12
3.8627746e-10
-1.3599552e-12
3.8526569e-10
1.7188323e-12
3.8615022e-10
-1.5232131e-12
3.8525957e-10
1.5139108e-12
3.8609639e-10
-1.4219439e-12
3.8529442e-10
1.358431e-12
3.8604819e-10
-1.2770932e-12
3.8533292e-10
1.2103223e-12
3.860057e-10
-1.1388969e-12
3.8536912e-10
1.0770223e-12
3.8596935e-10
-1.0156919e-12
3.8540166e-10
9.6039233e-13
3.8593796e-10
-9.0733626e-13
3.8543049e-10
8.5848615e-13
3.8591062e-10
-8.1223156e-13
3.8545589e-10
7.6924881e-13
3.858867e-10
-7.2878198e-13
3.854782e-10
6.9105781e-13
3.8586578e-10
-6.5565624e-13
3.8549772e-10
6.2265365e-13
3.8584752e-10
-5.917684e-13
3.8551472e-10
5.6302985e-13
3.8583167e-10
-5.3622009e-13
3.8552943e-10
5.1135503e-13
3.8581802e-10
-4.8825263e-13
3.8554205e-10
4.6692488e-13
3.8580637e-10
-4.4721556e-13
3.8555275e-10
4.2913467e-13
3.8579656e-10
-4.1254838e-13
3.8556167e-10
3.9746508e-13
3.8578846e-10
-3.8377003e-13
3.8556895e-10
3.7147444e-13
3.8578196e-10
-3.6047943e-13
3.855747e-10
3.5076961e-13
3.8577702e-10
-3.4240643e-13
3.8557913e-10
3.349784e-13
3.8577357e-10
-3.290344e-13
3.8558113e-10
3.2570747e-13
3.8576576e-10
-3.1346096e-13
3.8556134e-10
3.4128009e-13
-3.0403861e-13
6.9745247e-10
9.0327519e-09
7.9505542e-10
-1.2558428e-10
6.4662473e-10
3.0783797e-10
6.6069178e-10
-3.5652184e-11
6.394984e-10
4.1366396e-11
6.3959446e-10
-1.2719741e-12
6.3469783e-10
1.0418356e-11
6.3367033e-10
7.8775125e-13
6.3214697e-10
3.9013148e-12
6.32601e-10
-1.814e-12
6.3167105e-10
2.6487774e-12
6.3245653e-10
-2.3086955e-12
6.3163034e-10
2.3401065e-12
6.3241039e-10
-2.2019781e-12
6.3165481e-10
2.1140204e-12
6.3236484e-10
-1.9871162e-12
6.3168801e-10
1.8871606e-12
6.3232379e-10
-1.774668e-12
6.3172104e-10
1.6797833e-12
6.3228902e-10
-1.5836695e-12
6.3175139e-10
1.4980243e-12
6.3225921e-10
-1.4151472e-12
6.3177854e-10
1.3391574e-12
6.3223329e-10
-1.266986e-12
6.3180256e-10
1.199981e-12
6.3221063e-10
-1.136853e-12
6.318237e-10
1.0779843e-12
6.321908e-10
-1.0227549e-12
6.3184223e-10
9.7122951e-13
6.321735e-10
-9.2304267e-13
6.3185837e-10
8.7816607e-13
6.3215848e-10
-8.3633655e-13
6.3187233e-10
7.9750667e-13
6.3214554e-10
-7.6146119e-13
6.3188431e-10
7.2815494e-13
6.321345e-10
-6.9740282e-13
6.3189447e-10
6.6916595e-13
6.3212521e-10
-6.432846e-13
6.3190295e-10
6.197263e-13
6.3211753e-10
-5.983517e-13
6.3190986e-10
5.7914383e-13
6.3211136e-10
-5.6197382e-13
6.3191534e-10
5.4679017e-13
6.3210669e-10
-5.3376056e-13
6.3191968e-10
5.2198848e-13
6.3210358e-10
-5.1293368e-13
6.3192156e-10
5.0772528e-13
6.3209403e-10
-4.8593056e-13
6.3189166e-10
5.4364944e-13
-4.73175e-13
9.7754311e-10
1.1516834e-08
1.0739754e-09
-2.2201661e-10
8.9242574e-10
4.8938769e-10
9.0991176e-10
-5.3138237e-11
8.814801e-10
6.979806e-11
8.8150276e-10
-1.2946749e-12
8.7554173e-10
1.6379388e-11
8.7374207e-10
2.5873816e-12
8.7222796e-10
5.4154203e-12
8.7241835e-10
-2.0044113e-12
8.7158606e-10
3.4810736e-12
8.7227488e-10
-2.9975254e-12
8.7151783e-10
3.0971658e-12
8.7224014e-10
-2.9242759e-12
8.7153343e-10
2.8207361e-12
8.7219794e-10
-2.6516167e-12
8.7156165e-10
2.5234655e-12
8.7215853e-10
-2.371544e-12
8.7159152e-10
2.2467991e-12
8.7212545e-10
-2.1175906e-12
8.7161964e-10
2.0038398e-12
8.7209727e-10
-1.8927802e-12
8.7164503e-10
1.7914056e-12
8.7207284e-10
-1.6948023e-12
8.716676e-10
1.605229e-12
8.7205149e-10
-1.5207524e-12
8.716875e-10
1.4419797e-12
8.7203282e-10
-1.368074e-12
8.7170495e-10
1.299099e-12
8.7201652e-10
-1.2346169e-12
8.7172016e-10
1.1745343e-12
8.7200238e-10
-1.1185603e-12
8.7173331e-10
1.0665725e-12
8.7199019e-10
-1.0183393e-12
8.717446e-10
9.7374725e-13
8.719798e-10
-9.3259692e-13
8.7175417e-10
8.9479079e-13
8.7197105e-10
-8.6015553e-13
8.7176216e-10
8.2860964e-13
8.7196381e-10
-7.9999876e-13
8.7176868e-10
7.7427299e-13
8.7195798e-10
-7.5127579e-13
8.7177385e-10
7.3091998e-13
8.719536e-10
-7.135028e-13
8.7177808e-10
6.9750579e-13
8.7195085e-10
-6.8570381e-13
8.7178003e-10
6.7854239e-13
8.7194032e-10
-6.4621798e-13
8.717424e-10
7.4156798e-13
-6.315861e-13
1.1739611e-09
1.3804498e-08
1.328795e-09
-3.7685051e-10
1.1307512e-09
6.8743153e-10
1.15238e-09
-7.4767108e-11
1.1163198e-09
1.0585829e-10
1.116564e-09
-1.5388795e-12
1.1096602e-09
2.3283112e-11
1.1072242e-09
5.0234022e-12
1.1057903e-09
6.8493057e-12
1.1057318e-09
-1.9459465e-12
1.1050107e-09
4.2021555e-12
1.1056057e-09
-3.5924875e-12
1.1049216e-09
3.7812128e-12
1.1055856e-09
-3.5881803e-12
1.1049299e-09
3.4763944e-12
1.1055473e-09
-3.2690202e-12
1.1049535e-09
3.1173063e-12
1.1055097e-09
-2.9277893e-12
1.1049803e-09
2.7762667e-12
1.1054785e-09
-2.6157687e-12
1.1050061e-09
2.4761691e-12
1.105452e-09
-2.3386524e-12
1.1050297e-09
2.213696e-12
1.1054292e-09
-2.0942227e-12
1.1050508e-09
1.9835951e-12
1.1054092e-09
-1.8791549e-12
1.1050694e-09
1.7817823e-12
1.1053917e-09
-1.6904195e-12
1.1050857e-09
1.6051297e-12
1.1053765e-09
-1.5254208e-12
1.1050999e-09
1.4511206e-12
1.1053633e-09
-1.381933e-12
1.1051122e-09
1.3176442e-12
1.1053519e-09
-1.2580277e-12
1.1051228e-09
1.2028861e-12
1.1053422e-09
-1.1520245e-12
1.1051317e-09
1.1052733e-12
1.105334e-09
-1.0624615e-12
1.1051392e-09
1.0234474e-12
1.1053273e-09
-9.8807435e-13
1.1051453e-09
9.5625193e-13
1.1053218e-09
-9.2780096e-13
1.1051501e-09
9.0259913e-13
1.1053177e-09
-8.8108746e-13
1.1051542e-09
8.6101722e-13
1.1053153e-09
-8.4684331e-13
1.1051563e-09
8.3757989e-13
1.1053043e-09
-7.9423621e-13
1.1051129e-09
9.3297222e-13
-7.7780601e-13
1.3972804e-09
1.5868842e-08
1.5773159e-09
-5.568861e-10
1.3618507e-09
9.0289676e-10
1.3874347e-09
-1.0035117e-10
1.3439875e-09
1.4930552e-10
1.3447689e-09
-2.3202544e-12
1.3370381e-09
3.1013875e-11
1.3341253e-09
7.9361638e-12
1.3328361e-09
8.1385254e-12
1.3325454e-09
-1.6553002e-12
1.3319457e-09
4.8018899e-12
1.3324501e-09
-4.0969074e-12
1.3318417e-09
4.3896235e-12
1.3324471e-09
-4.1935677e-12
1.3318441e-09
4.0794298e-12
1.3324133e-09
-3.8382084e-12
1.3318634e-09
3.6671866e-12
1.3323777e-09
-3.4420514e-12
1.3318872e-09
3.2667496e-12
1.3323483e-09
-3.0768552e-12
1.3319108e-09
2.9136697e-12
1.3323236e-09
-2.7514884e-12
1.3319325e-09
2.6047929e-12
1.3323024e-09
-2.4640722e-12
1.331952e-09
2.333957e-12
1.3322839e-09
-2.2109962e-12
1.3319693e-09
2.0963831e-12
1.3322677e-09
-1.9888369e-12
1.3319844e-09
1.8884197e-12
1.3322536e-09
-1.794602e-12
1.3319976e-09
1.7071205e-12
1.3322413e-09
-1.6256941e-12
1.332009e-09
1.5500033e-12
1.3322308e-09
-1.479846e-12
1.3320188e-09
1.4149276e-12
1.3322218e-09
-1.3550743e-12
1.332027e-09
1.3000337e-12
1.3322142e-09
-1.2496508e-12
1.332034e-09
1.2037146e-12
1.332208e-09
-1.1620774e-12
1.3320396e-09
1.1246023e-12
1.3322029e-09
-1.0910914e-12
1.3320441e-09
1.0613907e-12
1.3321991e-09
-1.0360892e-12
1.332048e-09
1.01213e-12
1.3321971e-09
-9.9596331e-13
1.3320503e-09
9.8441368e-13
1.332186e-09
-9.2994879e-13
1.3320029e-09
1.1160817e-12
-9.1065428e-13
1.5995585e-09
1.7730909e-08
1.8002961e-09
-7.5762368e-10
1.5853539e-09
1.117839e-09
1.614337e-09
-1.2933433e-10
1.5646675e-09
1.9897504e-10
1.5661924e-09
-3.8451617e-12
1.5577016e-09
3.9504656e-11
1.554465e-09
1.117277e-11
1.5533688e-09
9.2347144e-12
1.5528639e-09
-1.1504569e-12
1.552392e-09
5.273838e-12
1.5528094e-09
-4.5142965e-12
1.552278e-09
4.9209692e-12
1.5528252e-09
-4.7407106e-12
1.5522757e-09
4.6288685e-12
1.552796e-09
-4.3584771e-12
1.5522912e-09
4.1720375e-12
1.5527625e-09
-3.9133604e-12
1.5523121e-09
3.7171833e-12
1.5527351e-09
-3.4998525e-12
1.5523334e-09
3.3153384e-12
1.5527123e-09
-3.1303374e-12
1.5523533e-09
2.9637734e-12
1.5526927e-09
-2.8034761e-12
1.5523712e-09
2.6554804e-12
1.5526757e-09
-2.5154875e-12
1.552387e-09
2.3850361e-12
1.5526608e-09
-2.2626221e-12
1.5524009e-09
2.1483057e-12
1.5526478e-09
-2.0415347e-12
1.552413e-09
1.9419444e-12
1.5526366e-09
-1.8492866e-12
1.5524235e-09
1.7631246e-12
1.5526269e-09
-1.6832967e-12
1.5524325e-09
1.6094015e-12
1.5526187e-09
-1.5413e-12
1.5524401e-09
1.4786488e-12
1.5526117e-09
-1.4213204e-12
1.5524464e-09
1.369028e-12
1.552606e-09
-1.3216423e-12
1.5524516e-09
1.2789749e-12
1.5526013e-09
-1.2408133e-12
1.5524558e-09
1.2069769e-12
1.5525979e-09
-1.178198e-12
1.5524594e-09
1.1505636e-12
1.5525963e-09
-1.1327781e-12
1.5524619e-09
1.1187522e-12
1.5525853e-09
-1.0533678e-12
1.552412e-09
1.2893849e-12
-1.029463e-12
1.7799297e-09
1.9412604e-08
2.0147556e-09
-9.9244963e-10
1.799721e-09
1.3328736e-09
1.8281272e-09
-1.5774052e-10
1.7777115e-09
2.4939068e-10
1.7806642e-09
-6.7978783e-12
1.7716255e-09
4.8543416e-11
1.7682549e-09
1.4543312e-11
1.7673877e-09
1.0101929e-11
1.7666905e-09
-4.5332068e-13
1.7663502e-09
5.6141158e-12
1.7666843e-09
-4.8483741e-12
1.7662306e-09
5.374653e-12
1.7667201e-09
-5.2301743e-12
1.7662248e-09
5.1241824e-12
1.7666958e-09
-4.8294467e-12
1.7662367e-09
4.6311339e-12
1.7666644e-09
-4.3410639e-12
1.7662548e-09
4.1268175e-12
1.766639e-09
-3.8840652e-12
1.7662739e-09
3.6804667e-12
1.7666181e-09
-3.4745327e-12
1.7662918e-09
3.28999e-12
1.7666002e-09
-3.1118238e-12
1.7663081e-09
2.9475851e-12
1.7665847e-09
-2.7920825e-12
1.7663225e-09
2.6472273e-12
1.7665712e-09
-2.5112919e-12
1.7663351e-09
2.3843342e-12
1.7665594e-09
-2.265792e-12
1.7663461e-09
2.1551919e-12
1.7665492e-09
-2.0523327e-12
1.7663557e-09
1.9566525e-12
1.7665404e-09
-1.8680436e-12
1.7663638e-09
1.7859903e-12
1.7665329e-09
-1.7104004e-12
1.7663707e-09
1.640833e-12
1.7665266e-09
-1.5771986e-12
1.7663765e-09
1.5191293e-12
1.7665214e-09
-1.4665225e-12
1.7663812e-09
1.4191351e-12
1.7665172e-09
-1.3767426e-12
1.766385e-09
1.3391447e-12
1.766514e-09
-1.307206e-12
1.7663884e-09
1.2761362e-12
1.7665128e-09
-1.2570931e-12
1.7663911e-09
1.2404151e-12
1.7665023e-09
-1.1645491e-12
1.7663401e-09
1.4516065e-12
-1.1339562e-12
1.954783e-09
2.0919446e-08
2.2065514e-09
-1.244218e-09
2.0057157e-09
1.5337093e-09
2.0276368e-09
-1.7966161e-10
1.9832009e-09
2.9382655e-10
1.9881834e-09
-1.1780388e-11
1.9788526e-09
5.7874269e-11
1.9755093e-09
1.7886563e-11
1.9748938e-09
1.0717374e-11
1.9740289e-09
4.1158075e-13
1.9738218e-09
5.8212286e-12
1.9740759e-09
-5.1025043e-12
1.9736997e-09
5.7508401e-12
1.9741322e-09
-5.6626262e-12
1.9736912e-09
5.5652303e-12
1.9741127e-09
-5.2509701e-12
1.9736998e-09
5.0440497e-12
1.9740835e-09
-4.724774e-12
1.9737152e-09
4.4951778e-12
1.9740602e-09
-4.2290609e-12
1.973732e-09
4.0086066e-12
1.9740411e-09
-3.7836586e-12
1.9737481e-09
3.5830389e-12
1.974025e-09
-3.3887389e-12
1.9737627e-09
3.2099156e-12
1.9740111e-09
-3.04045e-12
1.9737756e-09
2.8826474e-12
1.9739989e-09
-2.7345574e-12
1.973787e-09
2.5962363e-12
1.9739883e-09
-2.467122e-12
1.9737969e-09
2.3466278e-12
1.9739792e-09
-2.2346113e-12
1.9738054e-09
2.13038e-12
1.9739713e-09
-2.0338911e-12
1.9738128e-09
1.94451e-12
1.9739646e-09
-1.8622009e-12
1.973819e-09
1.7864219e-12
1.9739589e-09
-1.7171291e-12
1.9738242e-09
1.6538705e-12
1.9739542e-09
-1.5965773e-12
1.9738284e-09
1.544949e-12
1.9739504e-09
-1.4987524e-12
1.9738318e-09
1.4577746e-12
1.9739476e-09
-1.4229962e-12
1.973835e-09
1.3887532e-12
1.9739467e-09
-1.3687951e-12
1.9738378e-09
1.3493179e-12
1.9739368e-09
-1.263589e-12
1.9737867e-09
1.6016812e-12
-1.2241358e-12
2.1117228e-09
2.2269348e-08
2.3905027e-09
-1.522998e-09
2.2007139e-09
1.7234981e-09
2.2153664e-09
-1.9431418e-10
2.1814913e-09
3.277017e-10
2.1884864e-09
-1.8775539e-11
2.179361e-09
6.699963e-11
2.1762314e-09
2.1016204e-11
2.1758875e-09
1.1061228e-11
2.1748817e-09
1.4173467e-12
2.1748078e-09
5.895107e-12
2.1749849e-09
-5.2795805e-12
2.1746855e-09
6.0502289e-12
2.1750617e-09
-6.038814e-12
2.1746748e-09
5.9521712e-12
2.175047e-09
-5.6231034e-12
2.1746804e-09
5.4106176e-12
2.17502e-09
-5.0643413e-12
2.1746931e-09
4.8220391e-12
2.1749987e-09
-4.5346474e-12
2.1747078e-09
4.299548e-12
2.1749816e-09
-4.0575287e-12
2.1747219e-09
3.8427383e-12
2.1749673e-09
-3.6340576e-12
2.1747349e-09
3.4423199e-12
2.1749549e-09
-3.2604517e-12
2.1747463e-09
3.0911706e-12
2.1749441e-09
-2.9323035e-12
2.1747564e-09
2.7839076e-12
2.1749347e-09
-2.6454286e-12
2.1747652e-09
2.5161644e-12
2.1749266e-09
-2.3960409e-12
2.1747728e-09
2.2842322e-12
2.1749196e-09
-2.1807692e-12
2.1747793e-09
2.084896e-12
2.1749137e-09
-1.9966406e-12
2.1747848e-09
1.9153586e-12
2.1749087e-09
-1.8410582e-12
2.1747894e-09
1.7732019e-12
2.1749045e-09
-1.71176e-12
2.1747931e-09
1.6563736e-12
2.1749012e-09
-1.6068029e-12
2.1747961e-09
1.5628309e-12
2.1748986e-09
-1.5255333e-12
2.174799e-09
1.4883982e-12
2.1748981e-09
-1.4678449e-12
2.1748019e-09
1.4454607e-12
2.1748889e-09
-1.3506224e-12
2.1747519e-09
1.7387346e-12
-1.3002152e-12
2.2714233e-09
2.345955e-08
2.5529539e-09
-1.8045286e-09
2.3839248e-09
1.8925272e-09
2.3952768e-09
-2.0566621e-10
2.3728944e-09
3.500842e-10
2.3813677e-09
-2.7248892e-11
2.3731769e-09
7.5190412e-11
2.3704418e-09
2.3751215e-11
2.3703697e-09
1.1133362e-11
2.369252e-09
2.5349888e-12
2.36931e-09
5.8371974e-12
2.369412e-09
-5.3816571e-12
2.3691882e-09
6.2740218e-12
2.3695089e-09
-6.3595073e-12
2.3691757e-09
6.2854295e-12
2.3694987e-09
-5.9460795e-12
2.3691784e-09
5.7309119e-12
2.3694739e-09
-5.3598343e-12
2.3691885e-09
5.1074106e-12
2.3694547e-09
-4.8008542e-12
2.369201e-09
4.5533015e-12
2.3694396e-09
-4.296167e-12
2.3692133e-09
4.0691101e-12
2.369427e-09
-3.8478096e-12
2.3692245e-09
3.6448305e-12
2.3694162e-09
-3.4521246e-12
2.3692345e-09
3.272837e-12
2.3694068e-09
-3.1045721e-12
2.3692433e-09
2.9473919e-12
2.3693986e-09
-2.8007556e-12
2.3692509e-09
2.6638466e-12
2.3693916e-09
-2.5366652e-12
2.3692576e-09
2.4182528e-12
2.3693855e-09
-2.30872e-12
2.3692632e-09
2.20719e-12
2.3693803e-09
-2.1137601e-12
2.369268e-09
2.0276835e-12
2.369376e-09
-1.9490252e-12
2.369272e-09
1.8771624e-12
2.3693724e-09
-1.812109e-12
2.3692753e-09
1.753447e-12
2.3693694e-09
-1.7009331e-12
2.3692779e-09
1.6543533e-12
2.3693672e-09
-1.6148559e-12
2.3692805e-09
1.5751253e-12
2.3693669e-09
-1.5542706e-12
2.3692835e-09
1.5289176e-12
2.3693587e-09
-1.4258214e-12
2.3692353e-09
1.8620668e-12
-1.3625746e-12
2.4128257e-09
2.4508349e-08
2.7085305e-09
-2.1002334e-09
2.5598787e-09
2.041179e-09
2.5695968e-09
-2.1538434e-10
2.557808e-09
3.6187301e-10
2.5669272e-09
-3.6368114e-11
2.5603524e-09
8.1765232e-11
2.5581578e-09
2.5945686e-11
2.5583429e-09
1.0948312e-11
2.5571422e-09
3.7356914e-12
2.5573297e-09
5.6496272e-12
2.5573578e-09
-5.409671e-12
2.557208e-09
6.423833e-12
2.557474e-09
-6.6255137e-12
2.5571938e-09
6.5656383e-12
2.557468e-09
-6.220315e-12
2.5571937e-09
6.0052205e-12
2.5574454e-09
-5.611532e-12
2.5572013e-09
5.3515158e-12
2.5574284e-09
-5.0279175e-12
2.5572116e-09
4.7700802e-12
2.5574152e-09
-4.4997907e-12
2.557222e-09
4.2623614e-12
2.5574044e-09
-4.0301999e-12
2.5572316e-09
3.8176466e-12
2.5573951e-09
-3.6156626e-12
2.5572401e-09
3.427835e-12
2.5573871e-09
-3.2515449e-12
2.5572476e-09
3.0868651e-12
2.5573801e-09
-2.9332714e-12
2.5572541e-09
2.7898365e-12
2.5573741e-09
-2.6566392e-12
2.5572598e-09
2.532591e-12
2.5573689e-09
-2.417886e-12
2.5572646e-09
2.3115292e-12
2.5573645e-09
-2.2136905e-12
2.5572687e-09
2.123523e-12
2.5573608e-09
-2.0411516e-12
2.5572721e-09
1.9658699e-12
2.5573577e-09
-1.8977383e-12
2.5572749e-09
1.8362807e-12
2.5573552e-09
-1.7812523e-12
2.5572771e-09
1.7324494e-12
2.5573533e-09
-1.6910688e-12
2.5572794e-09
1.6490512e-12
2.5573533e-09
-1.6281613e-12
2.5572824e-09
1.5998275e-12
2.557346e-09
-1.4893928e-12
2.5572369e-09
1.9711377e-12
-1.4117227e-12
2.5667511e-09
2.5403223e-08
2.849092e-09
-2.3825743e-09
2.7293023e-09
2.1609687e-09
2.7384229e-09
-2.2450496e-10
2.7361684e-09
3.6412758e-10
2.7455479e-09
-4.5747705e-11
2.7409904e-09
8.6322793e-11
2.7394058e-09
2.7530255e-11
2.7398097e-09
1.0544352e-11
2.7385543e-09
4.9911284e-12
2.7388692e-09
5.3347259e-12
2.7388227e-09
-5.3632144e-12
2.7387448e-09
6.5017482e-12
2.7389569e-09
-6.8376367e-12
2.7387289e-09
6.793629e-12
2.738955e-09
-6.4464026e-12
2.7387262e-09
6.2340307e-12
2.7389346e-09
-5.8199121e-12
2.7387314e-09
5.554778e-12
2.7389197e-09
-5.2162644e-12
2.7387395e-09
4.9502826e-12
2.7389085e-09
-4.6687921e-12
2.738748e-09
4.4228665e-12
2.7388994e-09
-4.1815913e-12
2.738756e-09
3.9611162e-12
2.7388917e-09
-3.7513999e-12
2.738763e-09
3.556485e-12
2.738885e-09
-3.3735276e-12
2.7387693e-09
3.20262e-12
2.7388793e-09
-3.0432548e-12
2.7387747e-09
2.8944009e-12
2.7388743e-09
-2.7562167e-12
2.7387794e-09
2.6274896e-12
2.73887e-09
-2.5084986e-12
2.7387834e-09
2.3981353e-12
2.7388663e-09
-2.2966436e-12
2.7387868e-09
2.2030808e-12
2.7388633e-09
-2.1176327e-12
2.7387896e-09
2.039513e-12
2.7388607e-09
-1.9688299e-12
2.7387919e-09
1.9050513e-12
2.7388586e-09
-1.8479326e-12
2.7387938e-09
1.7972871e-12
2.738857e-09
-1.7543361e-12
2.7387957e-09
1.7103488e-12
2.7388572e-09
-1.6896608e-12
2.7387987e-09
1.658386e-12
2.7388509e-09
-1.5415753e-12
2.7387565e-09
2.0655533e-12
-1.4482647e-12
2.6970204e-09
2.6167828e-08
2.9872053e-09
-2.6727592e-09
2.8936165e-09
2.2545575e-09
2.9013042e-09
-2.3219268e-10
2.9082624e-09
3.5716941e-10
2.9177256e-09
-5.521096e-11
2.9151789e-09
8.8869519e-11
2.9142021e-09
2.8506965e-11
2.9147723e-09
9.9741982e-12
2.9134892e-09
6.2741871e-12
2.91393e-09
4.8939159e-12
2.9138074e-09
-5.2406193e-12
2.9137989e-09
6.5103102e-12
2.9139579e-09
-6.99667e-12
2.9137811e-09
6.9704108e-12
2.9139598e-09
-6.6251161e-12
2.9137759e-09
6.4180078e-12
2.9139416e-09
-5.9856449e-12
2.9137786e-09
5.7177996e-12
2.9139288e-09
-5.366499e-12
2.9137847e-09
5.0944735e-12
2.9139196e-09
-4.8037222e-12
2.9137913e-09
4.5511487e-12
2.9139122e-09
-4.3024869e-12
2.9137976e-09
4.0757191e-12
2.913906e-09
-3.8597941e-12
2.9138033e-09
3.6592238e-12
2.9139007e-09
-3.4709358e-12
2.9138082e-09
3.2950527e-12
2.9138961e-09
-3.131082e-12
2.9138126e-09
2.9778984e-12
2.9138921e-09
-2.8357386e-12
2.9138163e-09
2.703274e-12
2.9138887e-09
-2.5808677e-12
2.9138195e-09
2.4673046e-12
2.9138858e-09
-2.3629027e-12
2.9138222e-09
2.2666285e-12
2.9138833e-09
-2.1787292e-12
2.9138245e-09
2.0983428e-12
2.9138813e-09
-2.0256261e-12
2.9138263e-09
1.9599932e-12
2.9138796e-09
-1.9012022e-12
2.9138278e-09
1.8490885e-12
2.9138784e-09
-1.8048748e-12
2.9138295e-09
1.7592406e-12
2.9138788e-09
-1.7389621e-12
2.9138323e-09
1.704838e-12
2.9138734e-09
-1.5826377e-12
2.9137939e-09
2.145053e-12
-1.4728743e-12
2.8518605e-09
2.6777593e-08
3.1157764e-09
-2.9366752e-09
3.0530515e-09
2.3172825e-09
3.0583469e-09
-2.3748816e-10
3.074125e-09
3.4139137e-10
3.083706e-09
-6.4792039e-11
3.0829663e-09
8.9609222e-11
3.0825665e-09
2.8906702e-11
3.0832307e-09
9.3100199e-12
3.0819475e-09
7.5574178e-12
3.0825135e-09
4.3278925e-12
3.0823124e-09
-5.0395807e-12
3.0823703e-09
6.4524818e-12
3.082477e-09
-7.1033735e-12
3.0823502e-09
7.0971816e-12
3.0824825e-09
-6.7573896e-12
3.0823425e-09
6.5579899e-12
3.0824665e-09
-6.1095742e-12
3.0823429e-09
5.8413482e-12
3.0824558e-09
-5.4793837e-12
3.0823469e-09
5.2033668e-12
3.0824485e-09
-4.905272e-12
3.0823518e-09
4.647863e-12
3.0824428e-09
-4.3935129e-12
3.0823565e-09
4.1620508e-12
3.0824381e-09
-3.9414119e-12
3.0823607e-09
3.7365901e-12
3.0824341e-09
-3.5442808e-12
3.0823645e-09
3.3646494e-12
3.0824306e-09
-3.1972147e-12
3.0823677e-09
3.0407684e-12
3.0824276e-09
-2.8956225e-12
3.0823705e-09
2.7603422e-12
3.0824251e-09
-2.6353724e-12
3.082373e-09
2.5193995e-12
3.0824229e-09
-2.4128138e-12
3.082375e-09
2.314498e-12
3.082421e-09
-2.2247595e-12
3.0823767e-09
2.1426659e-12
3.0824195e-09
-2.0684223e-12
3.0823781e-09
2.0013922e-12
3.0824182e-09
-1.9413386e-12
3.0823792e-09
1.8881233e-12
3.0824173e-09
-1.8429484e-12
3.0823805e-09
1.7959932e-12
3.0824179e-09
-1.7763024e-12
3.0823832e-09
1.7394709e-12
3.0824135e-09
-1.612875e-12
3.082349e-09
2.2094975e-12
-1.4862712e-12
2.9784034e-09
2.7260814e-08
3.2433434e-09
-3.2016152e-09
3.2078113e-09
2.3528146e-09
3.2094412e-09
-2.3911804e-10
3.2339125e-09
3.1692006e-10
3.2436251e-09
-7.4504688e-11
3.2443798e-09
8.8854486e-11
3.2445062e-09
2.8780353e-11
3.2451848e-09
8.631362e-12
3.2439312e-09
8.8109736e-12
3.2446193e-09
3.6398075e-12
3.244338e-09
-4.7582968e-12
3.244459e-09
6.3315011e-12
3.2445142e-09
-7.1585355e-12
3.2444361e-09
7.1752834e-12
3.2445231e-09
-6.844331e-12
3.2444261e-09
6.6549601e-12
3.2445092e-09
-6.1927114e-12
3.2444243e-09
5.9263341e-12
3.2445007e-09
-5.5558252e-12
3.2444263e-09
5.277806e-12
3.2444953e-09
-4.9742572e-12
3.2444294e-09
4.7137789e-12
3.2444912e-09
-4.4554037e-12
3.2444325e-09
4.2208075e-12
3.244488e-09
-3.9969142e-12
3.2444354e-09
3.7892113e-12
3.2444852e-09
-3.5941574e-12
3.2444379e-09
3.4119752e-12
3.2444829e-09
-3.2421889e-12
3.2444401e-09
3.0835208e-12
3.2444809e-09
-2.9363529e-12
3.2444421e-09
2.7991558e-12
3.2444791e-09
-2.6724524e-12
3.2444437e-09
2.5548401e-12
3.2444777e-09
-2.4467783e-12
3.2444451e-09
2.3470741e-12
3.2444764e-09
-2.2560925e-12
3.2444463e-09
2.1728374e-12
3.2444754e-09
-2.0975608e-12
3.2444472e-09
2.0295796e-12
3.2444745e-09
-1.9686633e-12
3.244448e-09
1.9147036e-12
3.2444739e-09
-1.8688623e-12
3.2444489e-09
1.8209118e-12
3.2444746e-09
-1.8019584e-12
3.2444515e-09
1.7626088e-12
3.2444712e-09
-1.632607e-12
3.2444218e-09
2.258858e-12
-1.4892014e-12
3.1325263e-09
2.7589913e-08
3.3640958e-09
-3.4331847e-09
3.3579624e-09
2.358948e-09
3.3561447e-09
-2.3730033e-10
3.3877804e-09
2.8528438e-10
3.3974645e-09
-8.4188906e-11
3.3994238e-09
8.6895239e-11
3.4000096e-09
2.8194505e-11
3.400635e-09
8.0060029e-12
3.3994495e-09
9.9963633e-12
3.4002457e-09
2.8436284e-12
3.3998846e-09
-4.397181e-12
3.4000652e-09
6.15091e-12
3.4000696e-09
-7.1629574e-12
3.4000387e-09
7.2062215e-12
3.4000816e-09
-6.8871888e-12
3.4000265e-09
6.7100457e-12
3.40007e-09
-6.2362088e-12
3.4000225e-09
5.9737981e-12
3.4000636e-09
-5.5968541e-12
3.4000226e-09
5.3187487e-12
3.40006e-09
-5.0116006e-12
3.400024e-09
4.7497652e-12
3.4000576e-09
-4.488987e-12
3.4000256e-09
4.252772e-12
3.4000558e-09
-4.0270438e-12
3.4000272e-09
3.8177913e-12
3.4000543e-09
-3.621233e-12
3.4000286e-09
3.4376636e-12
3.400053e-09
-3.2666053e-12
3.4000298e-09
3.1067267e-12
3.4000519e-09
-2.9584724e-12
3.4000308e-09
2.820232e-12
3.400051e-09
-2.6926002e-12
3.4000317e-09
2.5740969e-12
3.4000502e-09
-2.465246e-12
3.4000325e-09
2.3647878e-12
3.4000495e-09
-2.2731417e-12
3.4000331e-09
2.1892553e-12
3.400049e-09
-2.113425e-12
3.4000336e-09
2.0449259e-12
3.4000485e-09
-1.9835357e-12
3.400034e-09
1.9291783e-12
3.4000481e-09
-1.8829575e-12
3.4000347e-09
1.8343353e-12
3.400049e-09
-1.8162413e-12
3.400037e-09
1.774607e-12
3.4000465e-09
-1.6421748e-12
3.4000122e-09
2.293206e-12
-1.4824209e-12
3.2562555e-09
2.7795282e-08
3.4824152e-09
-3.6593443e-09
3.5033775e-09
2.3379857e-09
3.4991664e-09
-2.3308924e-10
3.535873e-09
2.4857778e-10
3.545204e-09
-9.351999e-11
3.5480991e-09
8.4000157e-11
3.5490528e-09
2.7240826e-11
3.549586e-09
7.4727833e-12
3.5485162e-09
1.1066146e-11
3.5493888e-09
1.9710035e-12
3.5489523e-09
-3.9607299e-12
3.5491889e-09
5.9143992e-12
3.5491434e-09
-7.1174787e-12
3.549158e-09
7.191655e-12
3.5491581e-09
-6.8873344e-12
3.5491437e-09
6.7245058e-12
3.5491488e-09
-6.2413391e-12
3.5491377e-09
5.9848965e-12
3.5491445e-09
-5.6036062e-12
3.549136e-09
5.3272509e-12
3.5491427e-09
-5.0183161e-12
3.5491357e-09
4.7567758e-12
3.5491419e-09
-4.4951699e-12
3.5491358e-09
4.2588018e-12
3.5491414e-09
-4.0326132e-12
3.5491361e-09
3.8230999e-12
3.5491411e-09
-3.6262368e-12
3.5491364e-09
3.4424064e-12
3.5491409e-09
-3.2711205e-12
3.5491366e-09
3.1110101e-12
3.5491407e-09
-2.9625741e-12
3.5491368e-09
2.8241357e-12
3.5491406e-09
-2.6963542e-12
3.549137e-09
2.5776841e-12
3.5491404e-09
-2.4687082e-12
3.5491371e-09
2.3681102e-12
3.5491403e-09
-2.2763591e-12
3.5491372e-09
2.1923544e-12
3.5491402e-09
-2.116434e-12
3.5491373e-09
2.0478364e-12
3.5491401e-09
-1.9863488e-12
3.5491374e-09
1.9319286e-12
3.54914e-09
-1.8856071e-12
3.5491377e-09
1.836632e-12
3.549141e-09
-1.8194933e-12
3.5491398e-09
1.7758476e-12
3.5491395e-09
-1.6419387e-12
3.54912e-09
2.3127038e-12
-1.4666833e-12
3.40836e-09
2.7848547e-08
3.5947317e-09
-3.845716e-09
3.6433608e-09
2.2893566e-09
3.6390133e-09
-2.2874177e-10
3.6780736e-09
2.0951747e-10
3.6867747e-09
-1.0222106e-10
3.6903918e-09
8.0383065e-11
3.6916149e-09
2.6017607e-11
3.6920471e-09
7.0405851e-12
3.6911385e-09
1.1974771e-11
3.6920429e-09
1.066611e-12
3.6915407e-09
-3.4585064e-12
3.6918299e-09
5.6251245e-12
3.6917355e-09
-7.0230329e-12
3.6917938e-09
7.1333406e-12
3.6917528e-09
-6.8462602e-12
3.6917776e-09
6.6997066e-12
3.6917457e-09
-6.209482e-12
3.6917697e-09
5.9608827e-12
3.6917434e-09
-5.5773071e-12
3.6917663e-09
5.3044523e-12
3.6917434e-09
-4.9954954e-12
3.6917644e-09
4.7358366e-12
3.6917441e-09
-4.474927e-12
3.6917631e-09
4.2398172e-12
3.691745e-09
-4.0144947e-12
3.6917621e-09
3.8059629e-12
3.6917458e-09
-3.6099514e-12
3.6917613e-09
3.4269459e-12
3.6917466e-09
-3.2564387e-12
3.6917606e-09
3.0970402e-12
3.6917473e-09
-2.9492942e-12
3.69176e-09
2.8114729e-12
3.6917479e-09
-2.6842921e-12
3.6917595e-09
2.5661536e-12
3.6917484e-09
-2.4576927e-12
3.691759e-09
2.3575468e-12
3.6917489e-09
-2.2662299e-12
3.6917586e-09
2.1826016e-12
3.6917492e-09
-2.1070377e-12
3.6917583e-09
2.0387459e-12
3.6917495e-09
-1.9775242e-12
3.6917581e-09
1.9233635e-12
3.6917497e-09
-1.8772112e-12
3.6917581e-09
1.8281956e-12
3.6917507e-09
-1.8120836e-12
3.6917598e-09
1.7667351e-12
3.6917501e-09
-1.6322759e-12
3.6917453e-09
2.3175951e-12
-1.4427284e-12
3.536355e-09
2.7773817e-08
3.7026327e-09
-4.0119937e-09
3.7779248e-09
2.2140645e-09
3.7747993e-09
-2.2561636e-10
3.8143054e-09
1.7001148e-10
3.822142e-09
-1.1005778e-10
3.8262848e-09
7.624034e-11
3.8276882e-09
2.4614159e-11
3.8280284e-09
6.7003924e-12
3.827313e-09
1.2690146e-11
3.8282021e-09
1.7749343e-13
3.8276481e-09
-2.9044815e-12
3.8279882e-09
5.2850026e-12
3.8278459e-09
-6.8807101e-12
3.8279462e-09
7.0330644e-12
3.8278655e-09
-6.7655836e-12
3.8279281e-09
6.637092e-12
3.8278608e-09
-6.1421147e-12
3.8279186e-09
5.9030876e-12
3.8278605e-09
-5.5192602e-12
3.8279134e-09
5.2515612e-12
3.8278622e-09
-4.9442954e-12
3.82791e-09
4.6880337e-12
3.8278644e-09
-4.4292899e-12
3.8279074e-09
4.196792e-12
3.8278665e-09
-3.9736109e-12
3.8279052e-09
3.7672536e-12
3.8278685e-09
-3.5732044e-12
3.8279034e-09
3.3920671e-12
3.8278702e-09
-3.2233046e-12
3.8279017e-09
3.0655249e-12
3.8278718e-09
-2.919306e-12
3.8279003e-09
2.782885e-12
3.8278731e-09
-2.6570252e-12
3.8278991e-09
2.5400893e-12
3.8278742e-09
-2.4327579e-12
3.8278981e-09
2.333633e-12
3.8278752e-09
-2.2432677e-12
3.8278973e-09
2.1604912e-12
3.827876e-09
-2.0857126e-12
3.8278966e-09
2.018115e-12
3.8278766e-09
-1.9575084e-12
3.827896e-09
1.9039163e-12
3.827877e-09
-1.8581936e-12
3.8278958e-09
1.8094417e-12
3.8278781e-09
-1.7944048e-12
3.8278971e-09
1.7476923e-12
3.8278784e-09
-1.6135781e-12
3.8278878e-09
2.3081977e-12
-1.4112741e-12
3.6842385e-09
2.7551204e-08
3.8089178e-09
-4.136673e-09
3.9074418e-09
2.1155405e-09
3.9061937e-09
-2.2436826e-10
3.9444007e-09
1.3180453e-10
3.9512505e-09
-1.1690765e-10
3.9557584e-09
7.1732475e-11
3.9572715e-09
2.3100953e-11
3.957537e-09
6.4349143e-12
3.9570316e-09
1.3195515e-11
3.9578624e-09
-6.533021e-13
3.9572731e-09
-2.3152057e-12
3.9576634e-09
4.8947595e-12
3.9574744e-09
-6.6917612e-12
3.9576149e-09
6.8926383e-12
3.9574963e-09
-6.647021e-12
3.9575953e-09
6.5381711e-12
3.957494e-09
-6.040796e-12
3.9575841e-09
5.8129055e-12
3.9574957e-09
-5.4308329e-12
3.9575774e-09
5.1698421e-12
3.9574991e-09
-4.8659275e-12
3.9575726e-09
4.614503e-12
3.9575027e-09
-4.3593377e-12
3.9575687e-09
4.130744e-12
3.957506e-09
-3.9109267e-12
3.9575654e-09
3.7078847e-12
3.957509e-09
-3.5168613e-12
3.9575625e-09
3.3385906e-12
3.9575117e-09
-3.1724975e-12
3.95756e-09
3.0172048e-12
3.957514e-09
-2.8733138e-12
3.9575579e-09
2.7390429e-12
3.9575161e-09
-2.6151934e-12
3.957556e-09
2.5001026e-12
3.9575178e-09
-2.3944883e-12
3.9575545e-09
2.296929e-12
3.9575192e-09
-2.2080103e-12
3.9575532e-09
2.1265406e-12
3.9575204e-09
-2.0529576e-12
3.9575521e-09
1.986426e-12
3.9575214e-09