/*--------------------------------*- C++ -*----------------------------------*\
| =========                 |                                                 |
| \\      /  F ield         | OpenFOAM: The Open Source CFD Toolbox           |
|  \\    /   O peration     | Version:  2312                                  |
|   \\  /    A nd           | Website:  www.openfoam.com                      |
|    \\/     M anipulation  |                                                 |
\*---------------------------------------------------------------------------*/
FoamFile
{
    version     2.0;
    format      ascii;
    arch        "LSB;label=32;scalar=64";
    class       volSymmTensorField;
    location    "9";
    object      sigma_0;
}
// * * * * * * * * * * * * * * * * * * * * * * * * * * * * * * * * * * * * * //

dimensions      [0 2 -2 0 0 0 0];

internalField   nonuniform List<symmTensor> 
4000
(
(-4.0834739 -1.8361398 0 -0.77102254 0 0)
(-13.198057 -0.72062224 0 -0.012579844 0 0)
(-4.2939431 -0.37927286 0 -0.002436591 0 0)
(-4.7241154 -0.39530138 0 0.00027240864 0 0)
(-4.2666462 -0.37783582 0 -0.00021123865 0 0)
(-4.1585236 -0.37219324 0 2.6018907e-05 0 0)
(-4.1929775 -0.37420273 0 -6.4629968e-05 0 0)
(-4.0633333 -0.3678895 0 1.3864397e-05 0 0)
(-4.1287991 -0.37117391 0 -3.3673511e-05 0 0)
(-4.0512279 -0.36732878 0 2.2734699e-05 0 0)
(-4.109532 -0.37026541 0 -2.5738318e-05 0 0)
(-4.054145 -0.36747428 0 2.3024248e-05 0 0)
(-4.1028935 -0.36994601 0 -2.2494685e-05 0 0)
(-4.0575868 -0.36764608 0 2.1070862e-05 0 0)
(-4.0993958 -0.36977232 0 -2.0051352e-05 0 0)
(-4.0602107 -0.36777951 0 1.8861148e-05 0 0)
(-4.096829 -0.36964269 0 -1.7861218e-05 0 0)
(-4.0623963 -0.36789117 0 1.6827756e-05 0 0)
(-4.0946894 -0.36953427 0 -1.5918125e-05 0 0)
(-4.0643265 -0.36798945 0 1.5022875e-05 0 0)
(-4.0928285 -0.36944012 0 -1.4211828e-05 0 0)
(-4.0660497 -0.36807683 0 1.3430734e-05 0 0)
(-4.0911827 -0.36935707 0 -1.2712746e-05 0 0)
(-4.0675918 -0.36815474 0 1.2027974e-05 0 0)
(-4.0897153 -0.36928321 0 -1.1394633e-05 0 0)
(-4.0689747 -0.3682244 0 1.0793697e-05 0 0)
(-4.0884008 -0.36921718 0 -1.0236883e-05 0 0)
(-4.0702175 -0.36828687 0 9.7104807e-06 0 0)
(-4.0872192 -0.36915794 0 -9.2229773e-06 0 0)
(-4.0713373 -0.36834301 0 8.763662e-06 0 0)
(-4.0861538 -0.36910465 0 -8.3391323e-06 0 0)
(-4.0723489 -0.36839361 0 7.9406385e-06 0 0)
(-4.0851899 -0.36905655 0 -7.5735082e-06 0 0)
(-4.0732661 -0.36843935 0 7.2304323e-06 0 0)
(-4.0843146 -0.36901301 0 -6.9158049e-06 0 0)
(-4.0741013 -0.36848084 0 6.6234603e-06 0 0)
(-4.0835155 -0.36897342 0 -6.3570745e-06 0 0)
(-4.074866 -0.36851866 0 6.1114317e-06 0 0)
(-4.0827816 -0.36893724 0 -5.8896534e-06 0 0)
(-4.0755708 -0.36855333 0 5.6873176e-06 0 0)
(-4.0821026 -0.36890395 0 -5.5071574e-06 0 0)
(-4.0762258 -0.36858534 0 5.3454609e-06 0 0)
(-4.0814689 -0.36887311 0 -5.2043505e-06 0 0)
(-4.0768409 -0.36861516 0 5.0821573e-06 0 0)
(-4.0808735 -0.36884436 0 -4.9777238e-06 0 0)
(-4.0774276 -0.36864335 0 4.891826e-06 0 0)
(-4.0803015 -0.36881713 0 -4.8457952e-06 0 0)
(-4.0779384 -0.36866808 0 4.7211518e-06 0 0)
(-4.0795284 -0.368782 0 -4.948296e-06 0 0)
(-4.077775 -0.36866062 0 4.7807127e-06 0 0)
(-3.2201491 -1.5720606 0 -0.69856546 0 0)
(-10.782776 -0.69943033 0 -0.026388705 0 0)
(-5.0764331 -0.43155715 0 -0.0072273147 0 0)
(-4.3769936 -0.37880516 0 0.00026477824 0 0)
(-3.9652027 -0.36569991 0 -0.00053087236 0 0)
(-3.8365934 -0.35754603 0 3.26953e-06 0 0)
(-3.8806901 -0.36034928 0 -0.0001215471 0 0)
(-3.770655 -0.35442536 0 -2.0146818e-05 0 0)
(-3.8230838 -0.35726911 0 -4.5382183e-05 0 0)
(-3.757677 -0.35372763 0 1.5930915e-05 0 0)
(-3.8054379 -0.35635866 0 -2.8221573e-05 0 0)
(-3.7591717 -0.35380278 0 2.3099873e-05 0 0)
(-3.7997631 -0.35606561 0 -2.4045764e-05 0 0)
(-3.7618564 -0.35394783 0 2.2373271e-05 0 0)
(-3.796891 -0.35591127 0 -2.1597239e-05 0 0)
(-3.7640048 -0.35406749 0 2.0256031e-05 0 0)
(-3.7947597 -0.35579355 0 -1.929168e-05 0 0)
(-3.7658186 -0.35416946 0 1.8130127e-05 0 0)
(-3.7929643 -0.35569367 0 -1.7192943e-05 0 0)
(-3.7674314 -0.35425996 0 1.6205936e-05 0 0)
(-3.7913971 -0.35560649 0 -1.5346931e-05 0 0)
(-3.7688767 -0.35434077 0 1.449612e-05 0 0)
(-3.790009 -0.3555294 0 -1.3726832e-05 0 0)
(-3.7701728 -0.35441304 0 1.2984991e-05 0 0)
(-3.7887704 -0.35546073 0 -1.23031e-05 0 0)
(-3.7713365 -0.35447776 0 1.1653567e-05 0 0)
(-3.7876603 -0.35539928 0 -1.1052921e-05 0 0)
(-3.7723828 -0.35453583 0 1.0484549e-05 0 0)
(-3.7866622 -0.35534414 0 -9.9583612e-06 0 0)
(-3.7733258 -0.35458804 0 9.4627466e-06 0 0)
(-3.7857623 -0.35529452 0 -9.004548e-06 0 0)
(-3.774178 -0.3546351 0 8.5748054e-06 0 0)
(-3.7849481 -0.35524976 0 -8.1787099e-06 0 0)
(-3.7749508 -0.35467763 0 7.8089685e-06 0 0)
(-3.7842084 -0.35520922 0 -7.469741e-06 0 0)
(-3.7756549 -0.35471621 0 7.154947e-06 0 0)
(-3.783533 -0.35517237 0 -6.8680297e-06 0 0)
(-3.7762999 -0.35475139 0 6.6038804e-06 0 0)
(-3.7829123 -0.35513869 0 -6.3654342e-06 0 0)
(-3.7768951 -0.35478364 0 6.1483586e-06 0 0)
(-3.7823376 -0.35510769 0 -5.9553574e-06 0 0)
(-3.7774488 -0.35481343 0 5.7827177e-06 0 0)
(-3.7818005 -0.35507895 0 -5.6324182e-06 0 0)
(-3.7779693 -0.35484119 0 5.5048575e-06 0 0)
(-3.781295 -0.35505212 0 -5.3926004e-06 0 0)
(-3.778468 -0.3548675 0 5.3093226e-06 0 0)
(-3.7808153 -0.35502716 0 -5.2814312e-06 0 0)
(-3.7789281 -0.35489232 0 5.0620318e-06 0 0)
(-3.7802213 -0.35499962 0 -5.7203553e-06 0 0)
(-3.778911 -0.3548917 0 5.0867865e-06 0 0)
(-3.2452014 -1.5766909 0 -0.68781177 0 0)
(-8.9736224 -0.64530632 0 -0.031508906 0 0)
(-5.0294188 -0.44503543 0 -0.010986254 0 0)
(-4.2560981 -0.37327415 0 1.8797495e-05 0 0)
(-3.775591 -0.3575938 0 -0.00079259585 0 0)
(-3.6310467 -0.34781764 0 -1.5336179e-05 0 0)
(-3.6737997 -0.3508377 0 -0.00015571954 0 0)
(-3.5784516 -0.34532478 0 -4.9470303e-05 0 0)
(-3.6249524 -0.34795376 0 -5.1249022e-05 0 0)
(-3.5668632 -0.34461082 0 7.7721375e-06 0 0)
(-3.6088055 -0.34706065 0 -2.751408e-05 0 0)
(-3.5677955 -0.34465189 0 2.0637558e-05 0 0)
(-3.6036569 -0.34678216 0 -2.2763077e-05 0 0)
(-3.5700802 -0.34478264 0 2.1045266e-05 0 0)
(-3.601125 -0.34663905 0 -2.0534876e-05 0 0)
(-3.5719669 -0.3448945 0 1.9205715e-05 0 0)
(-3.5992497 -0.34652895 0 -1.8375085e-05 0 0)
(-3.5735698 -0.34499054 0 1.7225527e-05 0 0)
(-3.5976626 -0.34643479 0 -1.637163e-05 0 0)
(-3.5749988 -0.34507606 0 1.5411707e-05 0 0)
(-3.5962743 -0.34635235 0 -1.4609231e-05 0 0)
(-3.5762818 -0.34515262 0 1.3791194e-05 0 0)
(-3.5950433 -0.34627932 0 -1.3064741e-05 0 0)
(-3.5774339 -0.3452212 0 1.2355246e-05 0 0)
(-3.5939442 -0.3462142 0 -1.1708355e-05 0 0)
(-3.5784689 -0.34528269 0 1.1088538e-05 0 0)
(-3.5929589 -0.34615589 0 -1.0517629e-05 0 0)
(-3.5793998 -0.34533788 0 9.9757974e-06 0 0)
(-3.592073 -0.34610355 0 -9.4752913e-06 0 0)
(-3.5802387 -0.34538752 0 9.0030621e-06 0 0)
(-3.5912742 -0.34605644 0 -8.567137e-06 0 0)
(-3.5809968 -0.34543226 0 8.1578155e-06 0 0)
(-3.5905515 -0.34601393 0 -7.7809966e-06 0 0)
(-3.5816843 -0.3454727 0 7.4289423e-06 0 0)
(-3.589895 -0.34597544 0 -7.106305e-06 0 0)
(-3.5823105 -0.3455094 0 6.8066999e-06 0 0)
(-3.5892954 -0.34594042 0 -6.5339561e-06 0 0)
(-3.5828843 -0.34554287 0 6.2827384e-06 0 0)
(-3.5887444 -0.3459084 0 -6.0563171e-06 0 0)
(-3.5834137 -0.34557357 0 5.8501673e-06 0 0)
(-3.5882339 -0.34587892 0 -5.667379e-06 0 0)
(-3.5839064 -0.34560194 0 5.5039658e-06 0 0)
(-3.5877566 -0.34585156 0 -5.3623596e-06 0 0)
(-3.5843696 -0.34562838 0 5.2437284e-06 0 0)
(-3.5873069 -0.34582598 0 -5.1370239e-06 0 0)
(-3.5848138 -0.34565346 0 5.0670649e-06 0 0)
(-3.5868812 -0.34580228 0 -5.0490673e-06 0 0)
(-3.5852311 -0.34567777 0 4.8025245e-06 0 0)
(-3.5863694 -0.34577813 0 -5.6923071e-06 0 0)
(-3.5852764 -0.34567871 0 5.2022802e-06 0 0)
(-3.0101936 -1.4527147 0 -0.61021652 0 0)
(-7.9324807 -0.61058398 0 -0.034379527 0 0)
(-4.9344686 -0.45585599 0 -0.014727486 0 0)
(-4.1481631 -0.36816736 0 -0.00020738798 0 0)
(-3.6076568 -0.35030026 0 -0.0011250435 0 0)
(-3.4364452 -0.33829217 0 -4.1071819e-05 0 0)
(-3.4737701 -0.34133174 0 -0.00019069102 0 0)
(-3.3903913 -0.33621035 0 -8.2809344e-05 0 0)
(-3.4325727 -0.33863937 0 -5.4747139e-05 0 0)
(-3.3805516 -0.33549422 0 -3.1997283e-06 0 0)
(-3.4178923 -0.33776785 0 -2.4613276e-05 0 0)
(-3.3810786 -0.33550085 0 1.6069953e-05 0 0)
(-3.4131665 -0.33750241 0 -1.9514575e-05 0 0)
(-3.383019 -0.33561684 0 1.7899882e-05 0 0)
(-3.4108949 -0.33736962 0 -1.77487e-05 0 0)
(-3.3846895 -0.33572103 0 1.6539292e-05 0 0)
(-3.4092188 -0.33726662 0 -1.5932657e-05 0 0)
(-3.3861232 -0.33581136 0 1.488091e-05 0 0)
(-3.4077942 -0.33717778 0 -1.4190718e-05 0 0)
(-3.3874046 -0.33589207 0 1.3332685e-05 0 0)
(-3.4065452 -0.33709977 0 -1.2656592e-05 0 0)
(-3.3885567 -0.33596449 0 1.1937491e-05 0 0)
(-3.405437 -0.33703057 0 -1.1314916e-05 0 0)
(-3.3895921 -0.33602944 0 1.0696221e-05 0 0)
(-3.4044473 -0.33696881 0 -1.0137956e-05 0 0)
(-3.3905224 -0.33608771 0 9.5993523e-06 0 0)
(-3.4035603 -0.3369135 0 -9.1053092e-06 0 0)
(-3.3913592 -0.33614004 0 8.6352197e-06 0 0)
(-3.4027629 -0.33686385 0 -8.2016853e-06 0 0)
(-3.3921132 -0.33618711 0 7.7923175e-06 0 0)
(-3.4020442 -0.33681915 0 -7.4146387e-06 0 0)
(-3.3927943 -0.33622953 0 7.0599833e-06 0 0)
(-3.4013943 -0.33677882 0 -6.7335378e-06 0 0)
(-3.3934117 -0.33626789 0 6.4286165e-06 0 0)
(-3.400804 -0.33674228 0 -6.1491712e-06 0 0)
(-3.3939741 -0.33630271 0 5.8897742e-06 0 0)
(-3.4002652 -0.33670904 0 -5.6536327e-06 0 0)
(-3.3944892 -0.33633448 0 5.4362465e-06 0 0)
(-3.3997701 -0.33667862 0 -5.2403585e-06 0 0)
(-3.3949644 -0.33636364 0 5.0621408e-06 0 0)
(-3.3993117 -0.3366506 0 -4.9043127e-06 0 0)
(-3.3954064 -0.33639061 0 4.7633397e-06 0 0)
(-3.3988831 -0.33662456 0 -4.6414095e-06 0 0)
(-3.3958219 -0.33641577 0 4.5410208e-06 0 0)
(-3.3984794 -0.33660018 0 -4.4466179e-06 0 0)
(-3.3962203 -0.33643965 0 4.3946277e-06 0 0)
(-3.3980986 -0.33657767 0 -4.3885857e-06 0 0)
(-3.3966014 -0.33646347 0 4.1001221e-06 0 0)
(-3.3976581 -0.33655667 0 -5.2422645e-06 0 0)
(-3.3967028 -0.33646634 0 4.7867067e-06 0 0)
(-2.8191764 -1.3497642 0 -0.55388634 0 0)
(-6.9357603 -0.57848661 0 -0.036456955 0 0)
(-4.7330748 -0.46054106 0 -0.018045736 0 0)
(-4.0205732 -0.36270523 0 -0.00048159505 0 0)
(-3.4507657 -0.34324531 0 -0.0014833437 0 0)
(-3.2521954 -0.32891373 0 -6.4959643e-05 0 0)
(-3.2796624 -0.33176575 0 -0.00022054611 0 0)
(-3.2064549 -0.32702902 0 -0.00011062251 0 0)
(-3.2453964 -0.32931012 0 -5.6925127e-05 0 0)
(-3.1987553 -0.32635842 0 -1.2987035e-05 0 0)
(-3.2323634 -0.32848 0 -2.1831769e-05 0 0)
(-3.1991258 -0.32634169 0 1.1928097e-05 0 0)
(-3.2280512 -0.32822821 0 -1.6451847e-05 0 0)
(-3.2007936 -0.32644526 0 1.499285e-05 0 0)
(-3.2259975 -0.32810466 0 -1.5121458e-05 0 0)
(-3.2022828 -0.3265428 0 1.40416e-05 0 0)
(-3.2244884 -0.32800804 0 -1.3629184e-05 0 0)
(-3.2035755 -0.32662813 0 1.2673212e-05 0 0)
(-3.2232014 -0.32792402 0 -1.2133109e-05 0 0)
(-3.2047338 -0.32670458 0 1.1371705e-05 0 0)
(-3.2220706 -0.32785002 0 -1.0813516e-05 0 0)
(-3.2057763 -0.32677328 0 1.0187798e-05 0 0)
(-3.2210666 -0.32778431 0 -9.6627704e-06 0 0)
(-3.2067134 -0.32683496 0 9.1297717e-06 0 0)
(-3.22017 -0.32772565 0 -8.6550143e-06 0 0)
(-3.2075555 -0.32689032 0 8.1930911e-06 0 0)
(-3.2193667 -0.3276731 0 -7.7716087e-06 0 0)
(-3.2083127 -0.32694003 0 7.3692612e-06 0 0)
(-3.2186448 -0.32762592 0 -6.9989983e-06 0 0)
(-3.2089948 -0.32698474 0 6.6489667e-06 0 0)
(-3.2179945 -0.32758346 0 -6.3263189e-06 0 0)
(-3.2096107 -0.32702504 0 6.0232264e-06 0 0)
(-3.2174067 -0.32754515 0 -5.7443484e-06 0 0)
(-3.2101689 -0.32706149 0 5.4838344e-06 0 0)
(-3.2168731 -0.32751043 0 -5.2451278e-06 0 0)
(-3.210677 -0.32709457 0 5.0235484e-06 0 0)
(-3.2163862 -0.32747884 0 -4.8218561e-06 0 0)
(-3.2111422 -0.32712477 0 4.6361977e-06 0 0)
(-3.2159391 -0.32744993 0 -4.4689285e-06 0 0)
(-3.2115712 -0.3271525 0 4.3167617e-06 0 0)
(-3.2155253 -0.32742327 0 -4.182126e-06 0 0)
(-3.21197 -0.32717817 0 4.0618121e-06 0 0)
(-3.2151387 -0.32739849 0 -3.9578468e-06 0 0)
(-3.2123446 -0.32720211 0 3.8735819e-06 0 0)
(-3.2147745 -0.32737524 0 -3.7897629e-06 0 0)
(-3.2127035 -0.32722485 0 3.7531146e-06 0 0)
(-3.2144321 -0.32735381 0 -3.7516134e-06 0 0)
(-3.2130509 -0.32724804 0 3.4301782e-06 0 0)
(-3.2140494 -0.32733529 0 -4.7544093e-06 0 0)
(-3.2131905 -0.32725251 0 4.3341061e-06 0 0)
(-2.804627 -1.312059 0 -0.52232372 0 0)
(-5.9350822 -0.53890508 0 -0.03759719 0 0)
(-4.4507187 -0.45717237 0 -0.020176444 0 0)
(-3.8468163 -0.35634289 0 -0.00097926944 0 0)
(-3.3026207 -0.33698914 0 -0.0019566831 0 0)
(-3.0810553 -0.31995709 0 -0.00010882343 0 0)
(-3.0941241 -0.32230331 0 -0.00025379946 0 0)
(-3.0276289 -0.31782107 0 -0.00013417401 0 0)
(-3.0636595 -0.31997781 0 -5.8472452e-05 0 0)
(-3.0217717 -0.31721174 0 -2.1233e-05 0 0)
(-3.0521485 -0.31919671 0 -1.9594694e-05 0 0)
(-3.0220735 -0.31717783 0 8.5472554e-06 0 0)
(-3.0482222 -0.31895825 0 -1.3940215e-05 0 0)
(-3.0235098 -0.31727032 0 1.2651109e-05 0 0)
(-3.0463545 -0.31884288 0 -1.2973865e-05 0 0)
(-3.024838 -0.31736177 0 1.2012765e-05 0 0)
(-3.0449891 -0.31875204 0 -1.1749971e-05 0 0)
(-3.0260066 -0.31744255 0 1.0871705e-05 0 0)
(-3.0438226 -0.31867247 0 -1.0453486e-05 0 0)
(-3.0270568 -0.31751507 0 9.7695455e-06 0 0)
(-3.042796 -0.31860219 0 -9.3077218e-06 0 0)
(-3.0280025 -0.31758032 0 8.7576798e-06 0 0)
(-3.0418841 -0.31853974 0 -8.3122665e-06 0 0)
(-3.0288529 -0.31763893 0 7.8492193e-06 0 0)
(-3.0410698 -0.31848398 0 -7.4425741e-06 0 0)
(-3.0296169 -0.31769154 0 7.0434624e-06 0 0)
(-3.0403405 -0.31843403 0 -6.6811693e-06 0 0)
(-3.0303037 -0.31773878 0 6.3343912e-06 0 0)
(-3.0396856 -0.3183892 0 -6.0157461e-06 0 0)
(-3.0309222 -0.31778127 0 5.7144047e-06 0 0)
(-3.0390957 -0.31834886 0 -5.4366466e-06 0 0)
(-3.0314804 -0.31781956 0 5.175855e-06 0 0)
(-3.0385628 -0.31831245 0 -4.9357632e-06 0 0)
(-3.0319861 -0.31785418 0 4.7116576e-06 0 0)
(-3.0380793 -0.31827946 0 -4.5061457e-06 0 0)
(-3.0324463 -0.31788563 0 4.3155425e-06 0 0)
(-3.0376383 -0.31824944 0 -4.1418864e-06 0 0)
(-3.0328675 -0.31791433 0 3.9821759e-06 0 0)
(-3.0372334 -0.31822194 0 -3.8381454e-06 0 0)
(-3.0332557 -0.3179407 0 3.7072218e-06 0 0)
(-3.0368589 -0.31819659 0 -3.5913314e-06 0 0)
(-3.0336164 -0.31796511 0 3.4877413e-06 0 0)
(-3.0365093 -0.31817301 0 -3.3981674e-06 0 0)
(-3.033955 -0.3179879 0 3.3266577e-06 0 0)
(-3.03618 -0.31815085 0 -3.2509267e-06 0 0)
(-3.0342789 -0.31800953 0 3.2265136e-06 0 0)
(-3.0358713 -0.31813045 0 -3.225309e-06 0 0)
(-3.0345958 -0.31803201 0 2.8772423e-06 0 0)
(-3.0355379 -0.31811398 0 -4.3291612e-06 0 0)
(-3.0347615 -0.31803792 0 3.9251005e-06 0 0)
(-2.799765 -1.2490999 0 -0.47120146 0 0)
(-4.9661131 -0.5138477 0 -0.04098442 0 0)
(-4.1777214 -0.45545894 0 -0.02195114 0 0)
(-3.5765348 -0.34663027 0 -0.0018538455 0 0)
(-3.1097837 -0.32870114 0 -0.002402561 0 0)
(-2.9059511 -0.31066981 0 -0.00014185021 0 0)
(-2.9120804 -0.31272972 0 -0.00028175358 0 0)
(-2.8531696 -0.30856497 0 -0.00015114262 0 0)
(-2.8868522 -0.31062543 0 -5.9177179e-05 0 0)
(-2.8494762 -0.30804942 0 -2.8056048e-05 0 0)
(-2.8771071 -0.30991346 0 -1.7703555e-05 0 0)
(-2.8499205 -0.30800924 0 5.7300945e-06 0 0)
(-2.8736161 -0.30969059 0 -1.1812798e-05 0 0)
(-2.8511943 -0.30809291 0 1.0712072e-05 0 0)
(-2.8719263 -0.30958304 0 -1.1160207e-05 0 0)
(-2.8523852 -0.30817892 0 1.0315462e-05 0 0)
(-2.8706895 -0.30949761 0 -1.0167045e-05 0 0)
(-2.8534439 -0.30825549 0 9.3562287e-06 0 0)
(-2.8696307 -0.30942224 0 -9.0390285e-06 0 0)
(-2.8543977 -0.30832432 0 8.4197733e-06 0 0)
(-2.8686977 -0.30935552 0 -8.0391585e-06 0 0)
(-2.8552568 -0.30838628 0 7.5524432e-06 0 0)
(-2.8678686 -0.30929619 0 -7.1742378e-06 0 0)
(-2.8560292 -0.30844194 0 6.770004e-06 0 0)
(-2.8671285 -0.30924321 0 -6.4208465e-06 0 0)
(-2.856723 -0.30849191 0 6.0746809e-06 0 0)
(-2.8664659 -0.30919577 0 -5.7623367e-06 0 0)
(-2.8573466 -0.30853677 0 5.4624457e-06 0 0)
(-2.865871 -0.3091532 0 -5.187352e-06 0 0)
(-2.8579078 -0.30857711 0 4.9270997e-06 0 0)
(-2.8653356 -0.30911489 0 -4.6872053e-06 0 0)
(-2.8584142 -0.30861346 0 4.4621029e-06 0 0)
(-2.864852 -0.30908032 0 -4.2547144e-06 0 0)
(-2.8588729 -0.30864634 0 4.0613147e-06 0 0)
(-2.8644134 -0.309049 0 -3.8837789e-06 0 0)
(-2.8592901 -0.30867619 0 3.7192868e-06 0 0)
(-2.8640134 -0.30902048 0 -3.5692454e-06 0 0)
(-2.8596718 -0.30870346 0 3.4313913e-06 0 0)
(-2.8636465 -0.30899437 0 -3.3069149e-06 0 0)
(-2.8600236 -0.30872851 0 3.1938618e-06 0 0)
(-2.8633072 -0.30897027 0 -3.0937113e-06 0 0)
(-2.8603503 -0.30875172 0 3.0041405e-06 0 0)
(-2.8629905 -0.30894785 0 -2.9266257e-06 0 0)
(-2.8606567 -0.30877339 0 2.8656289e-06 0 0)
(-2.8626923 -0.30892676 0 -2.7966611e-06 0 0)
(-2.8609495 -0.30879395 0 2.7824812e-06 0 0)
(-2.8624134 -0.30890734 0 -2.7794304e-06 0 0)
(-2.8612384 -0.30881565 0 2.4125834e-06 0 0)
(-2.8621225 -0.30889257 0 -3.9455814e-06 0 0)
(-2.861421 -0.30882282 0 3.5523904e-06 0 0)
(-2.7791997 -1.1858189 0 -0.42889128 0 0)
(-3.9982222 -0.47947388 0 -0.043810826 0 0)
(-3.8397497 -0.44000713 0 -0.02112597 0 0)
(-3.3543687 -0.34670875 0 -0.0045757071 0 0)
(-2.9558684 -0.32312405 0 -0.0031034825 0 0)
(-2.7458226 -0.3020246 0 -0.0002350053 0 0)
(-2.7408756 -0.30342484 0 -0.00032389628 0 0)
(-2.6841604 -0.29929371 0 -0.00016619411 0 0)
(-2.7156522 -0.30127681 0 -5.8954406e-05 0 0)
(-2.6821616 -0.29887869 0 -3.3618959e-05 0 0)
(-2.7073244 -0.30063274 0 -1.5957852e-05 0 0)
(-2.6827334 -0.29883755 0 3.3125111e-06 0 0)
(-2.7042293 -0.30042538 0 -9.9345038e-06 0 0)
(-2.6838727 -0.29891364 0 9.034523e-06 0 0)
(-2.7026989 -0.30032498 0 -9.561341e-06 0 0)
(-2.6849416 -0.29899458 0 8.8321019e-06 0 0)
(-2.7015759 -0.30024453 0 -8.7732448e-06 0 0)
(-2.6859014 -0.29906718 0 8.0248203e-06 0 0)
(-2.7006137 -0.30017315 0 -7.7942512e-06 0 0)
(-2.6867683 -0.29913249 0 7.2321598e-06 0 0)
(-2.699765 -0.30010983 0 -6.922796e-06 0 0)
(-2.6875493 -0.2991913 0 6.4916998e-06 0 0)
(-2.6990109 -0.3000535 0 -6.1727488e-06 0 0)
(-2.6882512 -0.29924413 0 5.8202398e-06 0 0)
(-2.6983379 -0.30000322 0 -5.5218018e-06 0 0)
(-2.6888815 -0.29929154 0 5.2222531e-06 0 0)
(-2.6977356 -0.29995821 0 -4.9539698e-06 0 0)
(-2.6894478 -0.2993341 0 4.6953728e-06 0 0)
(-2.6971952 -0.29991781 0 -4.4586809e-06 0 0)
(-2.6899573 -0.29937236 0 4.2346097e-06 0 0)
(-2.6967089 -0.29988148 0 -4.0280859e-06 0 0)
(-2.6904169 -0.29940685 0 3.8343991e-06 0 0)
(-2.6962699 -0.29984869 0 -3.6558195e-06 0 0)
(-2.6908331 -0.29943803 0 3.4894388e-06 0 0)
(-2.6958718 -0.29981898 0 -3.3365374e-06 0 0)
(-2.6912116 -0.29946635 0 3.1950127e-06 0 0)
(-2.6955089 -0.29979192 0 -3.0657566e-06 0 0)
(-2.6915578 -0.29949222 0 2.9471186e-06 0 0)
(-2.6951761 -0.29976713 0 -2.8398434e-06 0 0)
(-2.6918767 -0.29951601 0 2.7424918e-06 0 0)
(-2.6948684 -0.29974425 0 -2.6561702e-06 0 0)
(-2.6921728 -0.29953805 0 2.5788956e-06 0 0)
(-2.6945814 -0.29972295 0 -2.5119805e-06 0 0)
(-2.6924504 -0.29955864 0 2.4600617e-06 0 0)
(-2.6943112 -0.29970289 0 -2.3972166e-06 0 0)
(-2.6927152 -0.29957816 0 2.3918106e-06 0 0)
(-2.6940589 -0.29968441 0 -2.3860524e-06 0 0)
(-2.6929786 -0.29959903 0 2.0074561e-06 0 0)
(-2.6938047 -0.29967108 0 -3.5834339e-06 0 0)
(-2.6931712 -0.29960729 0 3.2033019e-06 0 0)
(-2.8664167 -1.134504 0 -0.38267257 0 0)
(-3.332232 -0.46666657 0 -0.049065814 0 0)
(-3.5045963 -0.41851025 0 -0.019371301 0 0)
(-3.0470281 -0.33723379 0 -0.0063571799 0 0)
(-2.7634788 -0.31375581 0 -0.0033520615 0 0)
(-2.5749179 -0.29248616 0 -0.00028888833 0 0)
(-2.5691718 -0.2937971 0 -0.00035020306 0 0)
(-2.5201145 -0.29001513 0 -0.00017447666 0 0)
(-2.5492572 -0.29190541 0 -5.8055831e-05 0 0)
(-2.519607 -0.28969328 0 -3.7932903e-05 0 0)
(-2.5426492 -0.29135011 0 -1.4280447e-05 0 0)
(-2.5204674 -0.28966094 0 1.2367836e-06 0 0)
(-2.5400131 -0.29116145 0 -8.2418332e-06 0 0)
(-2.5215428 -0.28973211 0 7.5635225e-06 0 0)
(-2.5386508 -0.29106837 0 -8.1271874e-06 0 0)
(-2.5225152 -0.2898087 0 7.5158576e-06 0 0)
(-2.5376353 -0.29099273 0 -7.5250628e-06 0 0)
(-2.5233885 -0.28987763 0 6.8369408e-06 0 0)
(-2.5367614 -0.29092516 0 -6.6807979e-06 0 0)
(-2.5241773 -0.28993961 0 6.1708365e-06 0 0)
(-2.5359897 -0.29086512 0 -5.9246535e-06 0 0)
(-2.5248875 -0.28999539 0 5.5434713e-06 0 0)
(-2.5353038 -0.2908117 0 -5.2775136e-06 0 0)
(-2.5255255 -0.29004549 0 4.97131e-06 0 0)
(-2.5346919 -0.29076401 0 -4.7183125e-06 0 0)
(-2.5260981 -0.29009043 0 4.4604823e-06 0 0)
(-2.5341445 -0.29072134 0 -4.2316733e-06 0 0)
(-2.5266123 -0.29013077 0 4.010018e-06 0 0)
(-2.5336535 -0.29068306 0 -3.8077143e-06 0 0)
(-2.5270749 -0.29016703 0 3.6159951e-06 0 0)
(-2.5332118 -0.29064863 0 -3.4393376e-06 0 0)
(-2.5274922 -0.2901997 0 3.2737279e-06 0 0)
(-2.5328132 -0.29061755 0 -3.1209193e-06 0 0)
(-2.5278698 -0.29022926 0 2.9786763e-06 0 0)
(-2.5324518 -0.29058939 0 -2.8478023e-06 0 0)
(-2.5282133 -0.29025611 0 2.7267881e-06 0 0)
(-2.5321225 -0.29056373 0 -2.6161104e-06 0 0)
(-2.5285273 -0.29028063 0 2.5146258e-06 0 0)
(-2.5318205 -0.29054023 0 -2.4227175e-06 0 0)
(-2.5288166 -0.29030319 0 2.339374e-06 0 0)
(-2.5315415 -0.29051852 0 -2.2653921e-06 0 0)
(-2.529085 -0.29032411 0 2.1990741e-06 0 0)
(-2.5312813 -0.29049831 0 -2.1416221e-06 0 0)
(-2.5293365 -0.29034365 0 2.0976611e-06 0 0)
(-2.5310363 -0.29047924 0 -2.0405142e-06 0 0)
(-2.5295761 -0.29036216 0 2.0425734e-06 0 0)
(-2.5308078 -0.29046167 0 -2.0338023e-06 0 0)
(-2.5298161 -0.29038217 0 1.6495652e-06 0 0)
(-2.5305857 -0.29044955 0 -3.2362869e-06 0 0)
(-2.5300136 -0.29039136 0 2.8757289e-06 0 0)
(-2.8899402 -1.0905665 0 -0.3526448 0 0)
(-2.860026 -0.42590842 0 -0.045469024 0 0)
(-3.1933176 -0.41143591 0 -0.023058384 0 0)
(-2.7698935 -0.33044572 0 -0.0087205775 0 0)
(-2.601989 -0.30573255 0 -0.0035323054 0 0)
(-2.4229201 -0.28394757 0 -0.00045529811 0 0)
(-2.4097964 -0.28452894 0 -0.00039340849 0 0)
(-2.3615932 -0.28071148 0 -0.00017926234 0 0)
(-2.3886499 -0.28254271 0 -5.479504e-05 0 0)
(-2.3621627 -0.28049918 0 -4.0480392e-05 0 0)
(-2.3832393 -0.28206934 0 -1.2349828e-05 0 0)
(-2.3632143 -0.28048119 0 -4.4855327e-07 0 0)
(-2.3809885 -0.28189943 0 -6.6769094e-06 0 0)
(-2.3642322 -0.28054881 0 6.2763102e-06 0 0)
(-2.3797778 -0.28181332 0 -6.8329778e-06 0 0)
(-2.3651195 -0.28062145 0 6.3426671e-06 0 0)
(-2.3788599 -0.28174219 0 -6.4022701e-06 0 0)
(-2.3659146 -0.2806869 0 5.77247e-06 0 0)
(-2.3780664 -0.28167827 0 -5.6805421e-06 0 0)
(-2.3666324 -0.28074569 0 5.2184462e-06 0 0)
(-2.3773649 -0.28162138 0 -5.0285438e-06 0 0)
(-2.3672781 -0.28079856 0 4.6924181e-06 0 0)
(-2.3767413 -0.28157076 0 -4.4740648e-06 0 0)
(-2.3678578 -0.28084602 0 4.2095123e-06 0 0)
(-2.3761851 -0.28152559 0 -3.9973965e-06 0 0)
(-2.3683778 -0.28088858 0 3.7770581e-06 0 0)
(-2.3756877 -0.28148518 0 -3.5837534e-06 0 0)
(-2.3688447 -0.28092678 0 3.395276e-06 0 0)
(-2.3752418 -0.28144893 0 -3.2238827e-06 0 0)
(-2.3692645 -0.2809611 0 3.0612019e-06 0 0)
(-2.3748408 -0.28141632 0 -2.911374e-06 0 0)
(-2.3696432 -0.28099204 0 2.770953e-06 0 0)
(-2.3744789 -0.2813869 0 -2.6412836e-06 0 0)
(-2.3699858 -0.28102002 0 2.5206868e-06 0 0)
(-2.374151 -0.28136023 0 -2.409583e-06 0 0)
(-2.3702974 -0.28104545 0 2.3069567e-06 0 0)
(-2.3738522 -0.28133593 0 -2.2129481e-06 0 0)
(-2.3705823 -0.28106869 0 2.1268365e-06 0 0)
(-2.3735782 -0.28131366 0 -2.04871e-06 0 0)
(-2.3708445 -0.28109007 0 1.9779156e-06 0 0)
(-2.3733252 -0.28129309 0 -1.9149888e-06 0 0)
(-2.3710879 -0.28110989 0 1.8584789e-06 0 0)
(-2.3730893 -0.28127391 0 -1.809509e-06 0 0)
(-2.3713158 -0.28112842 0 1.7725537e-06 0 0)
(-2.3728672 -0.28125582 0 -1.7207721e-06 0 0)
(-2.3715325 -0.28114597 0 1.7290599e-06 0 0)
(-2.3726601 -0.28123911 0 -1.7173425e-06 0 0)
(-2.371751 -0.2811651 0 1.3327404e-06 0 0)
(-2.3724662 -0.28122802 0 -2.90272e-06 0 0)
(-2.3719496 -0.28117506 0 2.5701886e-06 0 0)
(-2.9669727 -1.0247807 0 -0.30204303 0 0)
(-2.5371387 -0.41385936 0 -0.046913238 0 0)
(-2.9089557 -0.39396054 0 -0.02273993 0 0)
(-2.5187432 -0.31728368 0 -0.0090638119 0 0)
(-2.4263896 -0.29454108 0 -0.0031891227 0 0)
(-2.2674571 -0.27470743 0 -0.00056476121 0 0)
(-2.2527564 -0.27499251 0 -0.00040638655 0 0)
(-2.2088116 -0.27141052 0 -0.00017353897 0 0)
(-2.2332815 -0.27316496 0 -4.8917794e-05 0 0)
(-2.2097423 -0.27129373 0 -4.1028908e-05 0 0)
(-2.2290129 -0.27278697 0 -9.9776354e-06 0 0)
(-2.210957 -0.27129707 0 -1.6968709e-06 0 0)
(-2.2271264 -0.27263825 0 -5.1755137e-06 0 0)
(-2.2119407 -0.27136338 0 5.1661201e-06 0 0)
(-2.2260643 -0.27255944 0 -5.6511347e-06 0 0)
(-2.2127592 -0.27143274 0 5.2963245e-06 0 0)
(-2.2252397 -0.27249278 0 -5.3863487e-06 0 0)
(-2.2134858 -0.27149499 0 4.8157006e-06 0 0)
(-2.2245212 -0.27243241 0 -4.7780636e-06 0 0)
(-2.2141396 -0.27155075 0 4.3608699e-06 0 0)
(-2.2238844 -0.27237858 0 -4.2209517e-06 0 0)
(-2.2147265 -0.27160083 0 3.9258944e-06 0 0)
(-2.2233181 -0.27233067 0 -3.7503729e-06 0 0)
(-2.2152529 -0.27164575 0 3.5234901e-06 0 0)
(-2.222813 -0.27228792 0 -3.3482633e-06 0 0)
(-2.2157249 -0.27168602 0 3.161752e-06 0 0)
(-2.2223615 -0.27224969 0 -3.0004865e-06 0 0)
(-2.2161484 -0.27172214 0 2.8419102e-06 0 0)
(-2.2219567 -0.2722154 0 -2.6983957e-06 0 0)
(-2.2165293 -0.27175461 0 2.5618658e-06 0 0)
(-2.2215929 -0.27218456 0 -2.4362231e-06 0 0)
(-2.2168727 -0.27178387 0 2.3184748e-06 0 0)
(-2.2212646 -0.27215672 0 -2.2096553e-06 0 0)
(-2.2171834 -0.27181035 0 2.1085363e-06 0 0)
(-2.2209671 -0.27213149 0 -2.0152417e-06 0 0)
(-2.2174659 -0.27183441 0 1.9291576e-06 0 0)
(-2.2206961 -0.27210849 0 -1.8501614e-06 0 0)
(-2.2177242 -0.2718564 0 1.7778771e-06 0 0)
(-2.2204477 -0.2720874 0 -1.7121593e-06 0 0)
(-2.2179619 -0.27187664 0 1.65265e-06 0 0)
(-2.2202183 -0.27206792 0 -1.5996683e-06 0 0)
(-2.2181824 -0.27189542 0 1.5519782e-06 0 0)
(-2.2200046 -0.27204976 0 -1.5106444e-06 0 0)
(-2.2183888 -0.27191298 0 1.4798876e-06 0 0)
(-2.2198034 -0.2720326 0 -1.4332138e-06 0 0)
(-2.2185848 -0.27192959 0 1.4465793e-06 0 0)
(-2.2196157 -0.27201673 0 -1.4322702e-06 0 0)
(-2.2187834 -0.27194782 0 1.0519047e-06 0 0)
(-2.2194464 -0.27200651 0 -2.5817283e-06 0 0)
(-2.2189802 -0.27195842 0 2.2866553e-06 0 0)
(-2.9827238 -1.0055038 0 -0.29007342 0 0)
(-2.2874587 -0.38864711 0 -0.044707045 0 0)
(-2.6790013 -0.37608461 0 -0.02181243 0 0)
(-2.3394925 -0.30659683 0 -0.0091361926 0 0)
(-2.2801745 -0.28467908 0 -0.002905625 0 0)
(-2.1278141 -0.26592396 0 -0.00065015431 0 0)
(-2.1071619 -0.26570429 0 -0.00040288728 0 0)
(-2.0621919 -0.26210125 0 -0.00015670313 0 0)
(-2.0838704 -0.26379858 0 -3.8010825e-05 0 0)
(-2.0626323 -0.26208299 0 -3.8771785e-05 0 0)
(-2.0801244 -0.26350694 0 -6.6885742e-06 0 0)
(-2.0637903 -0.26211073 0 -2.3733556e-06 0 0)
(-2.0784626 -0.26337882 0 -3.6464277e-06 0 0)
(-2.0647 -0.26217648 0 4.2392769e-06 0 0)
(-2.0775152 -0.26330694 0 -4.5535096e-06 0 0)
(-2.0654475 -0.26224282 0 4.3639365e-06 0 0)
(-2.0767718 -0.26324453 0 -4.4608638e-06 0 0)
(-2.0661098 -0.262302 0 3.9527416e-06 0 0)
(-2.0761213 -0.26318758 0 -3.9599561e-06 0 0)
(-2.0667044 -0.26235485 0 3.5855039e-06 0 0)
(-2.0755439 -0.2631367 0 -3.4900341e-06 0 0)
(-2.0672374 -0.26240222 0 3.2326284e-06 0 0)
(-2.0750301 -0.2630914 0 -3.0958136e-06 0 0)
(-2.0677149 -0.26244469 0 2.9031302e-06 0 0)
(-2.0745719 -0.263051 0 -2.7613416e-06 0 0)
(-2.0681428 -0.26248275 0 2.6054582e-06 0 0)
(-2.0741624 -0.26301486 0 -2.4732312e-06 0 0)
(-2.0685267 -0.26251689 0 2.3416988e-06 0 0)
(-2.0737954 -0.26298245 0 -2.2234359e-06 0 0)
(-2.0688719 -0.26254757 0 2.1105435e-06 0 0)
(-2.0734655 -0.26295331 0 -2.0067951e-06 0 0)
(-2.069183 -0.26257522 0 1.9095327e-06 0 0)
(-2.073168 -0.262927 0 -1.8195812e-06 0 0)
(-2.0694646 -0.26260025 0 1.7360578e-06 0 0)
(-2.0728984 -0.26290314 0 -1.658876e-06 0 0)
(-2.0697205 -0.26262299 0 1.5877341e-06 0 0)
(-2.0726528 -0.2628814 0 -1.5223187e-06 0 0)
(-2.0699544 -0.26264379 0 1.4625231e-06 0 0)
(-2.0724278 -0.26286146 0 -1.4080294e-06 0 0)
(-2.0701697 -0.26266293 0 1.3587126e-06 0 0)
(-2.0722201 -0.26284303 0 -1.314721e-06 0 0)
(-2.0703694 -0.2626807 0 1.275001e-06 0 0)
(-2.0720265 -0.26282584 0 -1.2405753e-06 0 0)
(-2.0705561 -0.26269732 0 1.2153348e-06 0 0)
(-2.0718443 -0.26280958 0 -1.1735688e-06 0 0)
(-2.0707332 -0.26271303 0 1.1909482e-06 0 0)
(-2.0716744 -0.26279451 0 -1.1746047e-06 0 0)
(-2.0709136 -0.26273037 0 8.0248813e-07 0 0)
(-2.0715268 -0.26278504 0 -2.2723124e-06 0 0)
(-2.0711063 -0.26274148 0 2.0245545e-06 0 0)
(-3.0910962 -0.93412802 0 -0.23861812 0 0)
(-2.1496451 -0.3722399 0 -0.041489574 0 0)
(-2.50459 -0.35980982 0 -0.020380601 0 0)
(-2.1897833 -0.29578347 0 -0.0088893173 0 0)
(-2.1356589 -0.27426691 0 -0.002584184 0 0)
(-1.9866673 -0.25644699 0 -0.00061206739 0 0)
(-1.9647167 -0.25619576 0 -0.00035444724 0 0)
(-1.9215975 -0.25281679 0 -0.00012819451 0 0)
(-1.9399007 -0.25443107 0 -2.4126952e-05 0 0)
(-1.9207213 -0.25286714 0 -3.4111106e-05 0 0)
(-1.9364954 -0.25422726 0 -2.4803911e-06 0 0)
(-1.9216955 -0.25292151 0 -2.4581056e-06 0 0)
(-1.9349761 -0.25412042 0 -2.032351e-06 0 0)
(-1.9225098 -0.25298785 0 3.5036356e-06 0 0)
(-1.9341203 -0.25405553 0 -3.5120492e-06 0 0)
(-1.9231874 -0.25305159 0 3.5389861e-06 0 0)
(-1.9334495 -0.25399732 0 -3.6099703e-06 0 0)
(-1.9237902 -0.25310792 0 3.1737055e-06 0 0)
(-1.9328616 -0.2539437 0 -3.2144446e-06 0 0)
(-1.9243307 -0.25315798 0 2.8824808e-06 0 0)
(-1.9323391 -0.25389569 0 -2.8258141e-06 0 0)
(-1.9248143 -0.25320277 0 2.6034992e-06 0 0)
(-1.9318738 -0.25385293 0 -2.5015636e-06 0 0)
(-1.9252469 -0.25324288 0 2.3401492e-06 0 0)
(-1.9314588 -0.25381478 0 -2.2287184e-06 0 0)
(-1.9256345 -0.25327881 0 2.1006847e-06 0 0)
(-1.9310879 -0.25378066 0 -1.9948541e-06 0 0)
(-1.925982 -0.25331104 0 1.887867e-06 0 0)
(-1.9307555 -0.25375007 0 -1.7925543e-06 0 0)
(-1.9262945 -0.25334 0 1.7010993e-06 0 0)
(-1.9304568 -0.25372255 0 -1.617243e-06 0 0)
(-1.9265761 -0.25336611 0 1.5385534e-06 0 0)
(-1.9301874 -0.25369771 0 -1.4657405e-06 0 0)
(-1.9268309 -0.25338974 0 1.3981674e-06 0 0)
(-1.9299433 -0.25367518 0 -1.3356197e-06 0 0)
(-1.9270625 -0.25341122 0 1.2780225e-06 0 0)
(-1.9297211 -0.25365464 0 -1.224941e-06 0 0)
(-1.9272741 -0.25343086 0 1.176466e-06 0 0)
(-1.9295175 -0.2536358 0 -1.1321657e-06 0 0)
(-1.9274689 -0.25344895 0 1.092089e-06 0 0)
(-1.9293295 -0.25361838 0 -1.0562579e-06 0 0)
(-1.9276495 -0.25346575 0 1.0237707e-06 0 0)
(-1.9291545 -0.25360213 0 -9.9561948e-07 0 0)
(-1.9278183 -0.25348147 0 9.7531327e-07 0 0)