/*--------------------------------*- C++ -*----------------------------------*\
| =========                 |                                                 |
| \\      /  F ield         | OpenFOAM: The Open Source CFD Toolbox           |
|  \\    /   O peration     | Version:  2312                                  |
|   \\  /    A nd           | Website:  www.openfoam.com                      |
|    \\/     M anipulation  |                                                 |
\*---------------------------------------------------------------------------*/
FoamFile
{
    version     2.0;
    format      ascii;
    arch        "LSB;label=32;scalar=64";
    class       surfaceScalarField;
    location    "3";
    object      phi_0;
}
// * * * * * * * * * * * * * * * * * * * * * * * * * * * * * * * * * * * * * //

dimensions      [0 3 -1 0 0 0 0];

oriented        oriented;

internalField   nonuniform List<scalar> 
7870
(
1.020603e-10
2.3556897e-09
1.0154874e-10
5.115575e-13
9.4556153e-11
6.9925898e-12
9.3961187e-11
5.9496406e-13
9.508934e-11
-1.1281532e-12
9.3654193e-11
1.4351456e-12
9.4992578e-11
-1.3383847e-12
9.3708752e-11
1.2838264e-12
9.4921318e-11
-1.2125663e-12
9.3776059e-11
1.145259e-12
9.4854116e-11
-1.0780571e-12
9.3837752e-11
1.0163638e-12
9.4794741e-11
-9.5698855e-13
9.3892806e-11
9.0193449e-13
9.4742609e-11
-8.4980249e-13
9.3941495e-11
8.0111359e-13
9.4696772e-11
-7.5527698e-13
9.398441e-11
7.123618e-13
9.4656459e-11
-6.7204841e-13
9.4022166e-11
6.3429313e-13
9.4621031e-11
-5.9886522e-13
9.4055327e-11
5.6570452e-13
9.4589942e-11
-5.3461553e-13
9.4084396e-11
5.0554575e-13
9.4562717e-11
-4.7832001e-13
9.4109819e-11
4.5289718e-13
9.4538938e-11
-4.2911875e-13
9.4131985e-11
4.0695365e-13
9.4518243e-11
-3.8625887e-13
9.4151232e-11
3.6701144e-13
9.4500315e-11
-3.4908335e-13
9.4167858e-11
3.3245771e-13
9.4484879e-11
-3.170211e-13
9.4182118e-11
3.0276116e-13
9.4471696e-11
-2.8957863e-13
9.4194232e-11
2.7746444e-13
9.4460565e-11
-2.6633293e-13
9.4204387e-11
2.5617731e-13
9.4451312e-11
-2.4692491e-13
9.4212742e-11
2.385705e-13
9.4443796e-11
-2.3105439e-13
9.4219425e-11
2.2437174e-13
9.4437899e-11
-2.1847442e-13
9.4224533e-11
2.1336627e-13
9.4433509e-11
-2.0897624e-13
9.4228136e-11
2.0537283e-13
9.4430823e-11
-2.0268715e-13
9.423207e-11
1.9875377e-13
9.4437042e-11
-2.0497292e-13
1.9092852e-13
2.7956205e-10
4.5338776e-09
2.9242268e-10
-1.2349076e-11
2.7442306e-10
2.4992205e-11
2.7368372e-10
1.3342995e-12
2.7494194e-10
-2.386366e-12
2.7288168e-10
3.4954022e-12
2.7477528e-10
-3.2319902e-12
2.7293939e-10
3.1197155e-12
2.7468198e-10
-2.9551509e-12
2.7303358e-10
2.7936627e-12
2.7458509e-10
-2.6295712e-12
2.7312128e-10
2.4801782e-12
2.7449915e-10
-2.3348673e-12
2.7320026e-10
2.2008277e-12
2.74424e-10
-2.0735367e-12
2.7327035e-10
1.9547626e-12
2.7435803e-10
-1.842959e-12
2.7333219e-10
1.7382037e-12
2.7430004e-10
-1.6399041e-12
2.7338661e-10
1.5477283e-12
2.7424909e-10
-1.4613476e-12
2.7343441e-10
1.3803871e-12
2.7420438e-10
-1.3045851e-12
2.7347631e-10
1.233614e-12
2.7416522e-10
-1.1672297e-12
2.7351295e-10
1.1051642e-12
2.7413102e-10
-1.0471837e-12
2.735449e-10
9.9307283e-13
2.7410125e-10
-9.4260947e-13
2.7357264e-10
8.956224e-13
2.7407546e-10
-8.5190391e-13
2.735966e-10
8.113174e-13
2.7405325e-10
-7.7367283e-13
2.7361715e-10
7.3886112e-13
2.7403428e-10
-7.0671174e-13
2.7363461e-10
6.7713741e-13
2.7401827e-10
-6.4998822e-13
2.7364925e-10
6.2519382e-13
2.7400495e-10
-6.0262537e-13
2.7366129e-10
5.8222609e-13
2.7399413e-10
-5.6389034e-13
2.7367093e-10
5.4756912e-13
2.7398564e-10
-5.3317877e-13
2.736783e-10
5.2070129e-13
2.7397928e-10
-5.099549e-13
2.7368343e-10
5.0122625e-13
2.739753e-10
-4.9455438e-13
2.7368983e-10
4.8421719e-13
2.739911e-10
-5.0624424e-13
4.6447518e-13
4.4832368e-10
6.543304e-09
4.764019e-10
-4.0427301e-11
4.4930254e-10
5.2091563e-11
4.491214e-10
1.5154375e-12
4.4976379e-10
-3.0287556e-12
4.4786109e-10
5.3981057e-12
4.4960269e-10
-4.9735919e-12
4.4789313e-10
4.8292742e-12
4.4953076e-10
-4.5927786e-12
4.4797849e-10
4.34593e-12
4.4943948e-10
-4.0905584e-12
4.4805962e-10
3.860033e-12
4.4935793e-10
-3.6331718e-12
4.4813367e-10
3.4250787e-12
4.4928698e-10
-3.2268402e-12
4.4819969e-10
3.0420525e-12
4.4922486e-10
-2.8681278e-12
4.4825802e-10
2.7050411e-12
4.4917029e-10
-2.552176e-12
4.4830937e-10
2.408648e-12
4.4912235e-10
-2.2743277e-12
4.4835448e-10
2.1482611e-12
4.4908028e-10
-2.030389e-12
4.4839402e-10
1.9198809e-12
4.4904344e-10
-1.8166496e-12
4.4842859e-10
1.7200122e-12
4.4901125e-10
-1.6298456e-12
4.4845873e-10
1.5455967e-12
4.4898323e-10
-1.4671168e-12
4.484849e-10
1.3939612e-12
4.4895896e-10
-1.3259678e-12
4.485075e-10
1.2627779e-12
4.4893805e-10
-1.2042278e-12
4.4852689e-10
1.1500282e-12
4.489202e-10
-1.1000217e-12
4.4854336e-10
1.0539748e-12
4.4890511e-10
-1.0117424e-12
4.4855717e-10
9.7313494e-13
4.4889257e-10
-9.3802378e-13
4.4856854e-10
9.0625527e-13
4.4888238e-10
-8.7772411e-13
4.4857765e-10
8.5229895e-13
4.4887437e-10
-8.2989903e-13
4.4858461e-10
8.1045653e-13
4.4886832e-10
-7.9366771e-13
4.4858938e-10
7.80175e-13
4.4886444e-10
-7.6962421e-13
4.485966e-10
7.5206244e-13
4.4888869e-10
-7.9833378e-13
7.2085358e-13
6.1589083e-10
8.3851631e-09
6.5420976e-10
-7.8746239e-11
6.1952513e-10
8.6776198e-11
6.1984512e-10
1.195439e-12
6.1994659e-10
-3.1302214e-12
6.182252e-10
7.1194943e-12
6.198217e-10
-6.5700922e-12
6.1824463e-10
6.4063432e-12
6.1977522e-10
-6.1233664e-12
6.1832254e-10
5.7986048e-12
6.1968998e-10
-5.4579992e-12
6.1839712e-10
5.1528928e-12
6.1961302e-10
-4.8490655e-12
6.184661e-10
4.5719952e-12
6.1954642e-10
-4.3071644e-12
6.1852788e-10
4.0605964e-12
6.1948826e-10
-3.8285096e-12
6.1858255e-10
3.6107522e-12
6.1943721e-10
-3.4068376e-12
6.186307e-10
3.215163e-12
6.1939237e-10
-3.0359986e-12
6.1867299e-10
2.8676414e-12
6.1935302e-10
-2.7104142e-12
6.1871006e-10
2.5628404e-12
6.1931854e-10
-2.425137e-12
6.1874246e-10
2.296092e-12
6.1928843e-10
-2.1758109e-12
6.1877071e-10
2.0633132e-12
6.1926221e-10
-1.958617e-12
6.1879524e-10
1.8609349e-12
6.1923949e-10
-1.7702238e-12
6.1881642e-10
1.6858494e-12
6.1921993e-10
-1.6077322e-12
6.1883459e-10
1.5353613e-12
6.1920321e-10
-1.4686384e-12
6.1885004e-10
1.4071512e-12
6.1918909e-10
-1.3507962e-12
6.1886299e-10
1.2992389e-12
6.1917734e-10
-1.25238e-12
6.1887365e-10
1.2099488e-12
6.1916779e-10
-1.1718638e-12
6.1888219e-10
1.1378935e-12
6.1916027e-10
-1.1079806e-12
6.1888874e-10
1.0819925e-12
6.1915456e-10
-1.0594872e-12
6.1889314e-10
1.0415967e-12
6.1915071e-10
-1.027196e-12
6.1890074e-10
1.0020315e-12
6.1918136e-10
-1.0789553e-12
9.603399e-13
7.7058284e-10
1.007233e-08
8.2516822e-10
-1.3333162e-10
7.8513514e-10
1.2680928e-10
7.8585336e-10
4.7721179e-13
7.8548923e-10
-2.7660932e-12
7.8397441e-10
8.6343097e-12
7.8543214e-10
-8.0278175e-12
7.8399346e-10
7.8450266e-12
7.8541507e-10
-7.5449798e-12
7.840653e-10
7.148374e-12
7.8533636e-10
-6.7290598e-12
7.8413339e-10
6.3558625e-12
7.852642e-10
-5.9798785e-12
7.8419718e-10
5.6390173e-12
7.8520213e-10
-5.3121119e-12
7.842546e-10
5.0081269e-12
7.8514806e-10
-4.7219682e-12
7.8430549e-10
4.4533237e-12
7.8510064e-10
-4.2019882e-12
7.8435032e-10
3.9654829e-12
7.8505899e-10
-3.744669e-12
7.843897e-10
3.5369336e-12
7.8502244e-10
-3.3431536e-12
7.8442421e-10
3.1610707e-12
7.8499042e-10
-2.9913472e-12
7.8445438e-10
2.8321334e-12
7.8496244e-10
-2.6838772e-12
7.8448067e-10
2.5450849e-12
7.8493809e-10
-2.4160324e-12
7.845035e-10
2.2955224e-12
7.8491698e-10
-2.183703e-12
7.8452321e-10
2.079612e-12
7.8489879e-10
-1.9833117e-12
7.8454013e-10
1.8940284e-12
7.8488326e-10
-1.8117692e-12
7.845545e-10
1.7359106e-12
7.8487013e-10
-1.6664276e-12
7.8456655e-10
1.6028152e-12
7.8485921e-10
-1.5450325e-12
7.8457648e-10
1.4926717e-12
7.8485032e-10
-1.445699e-12
7.8458445e-10
1.4037645e-12
7.8484332e-10
-1.3668555e-12
7.8459056e-10
1.3347575e-12
7.8483795e-10
-1.3068825e-12
7.8459458e-10
1.2849652e-12
7.8483411e-10
-1.2667233e-12
7.8460228e-10
1.2338629e-12
7.8486951e-10
-1.3461821e-12
1.1817581e-12
9.3026752e-10
1.1599813e-08
9.8994189e-10
-1.93006e-10
9.4602868e-10
1.7072249e-10
9.4712e-10
-6.1410949e-13
9.4639046e-10
-2.036552e-12
9.4511024e-10
9.9145268e-12
9.464353e-10
-9.3528827e-12
9.4513945e-10
9.1408853e-12
9.464508e-10
-8.856332e-12
9.4520649e-10
8.3926843e-12
9.4637901e-10
-7.9015867e-12
9.4526818e-10
7.4666974e-12
9.4631185e-10
-7.0235465e-12
9.453267e-10
6.6241648e-12
9.4625441e-10
-6.2398236e-12
9.4537965e-10
5.8828912e-12
9.4620453e-10
-5.5468456e-12
9.4542665e-10
5.2311994e-12
9.4616081e-10
-4.936152e-12
9.4546807e-10
4.6582231e-12
9.4612243e-10
-4.3990249e-12
9.4550446e-10
4.1549044e-12
9.4608874e-10
-3.9274366e-12
9.4553634e-10
3.7134713e-12
9.4605923e-10
-3.5142351e-12
9.4556421e-10
3.3271525e-12
9.4603344e-10
-3.1531098e-12
9.455885e-10
2.9900302e-12
9.4601099e-10
-2.8385245e-12
9.4560958e-10
2.6969311e-12
9.4599153e-10
-2.565651e-12
9.4562779e-10
2.4433512e-12
9.4597476e-10
-2.3302852e-12
9.4564341e-10
2.225383e-12
9.4596044e-10
-2.1287967e-12
9.4565668e-10
2.0396655e-12
9.4594833e-10
-1.9580744e-12
9.4566782e-10
1.883327e-12
9.4593825e-10
-1.8154663e-12
9.4567699e-10
1.7539309e-12
9.4593005e-10
-1.6987553e-12
9.4568436e-10
1.6494564e-12
9.4592359e-10
-1.6060841e-12
9.4569002e-10
1.5683265e-12
9.4591858e-10
-1.5354479e-12
9.4569367e-10
1.5098783e-12
9.4591475e-10
-1.4878049e-12
9.4570123e-10
1.44738e-12
9.4595343e-10
-1.5983743e-12
1.3840923e-12
1.0698118e-09
1.2987751e-08
1.1476196e-09
-2.7081386e-10
1.1023635e-09
2.1597863e-10
1.1036143e-09
-1.8649875e-12
1.1026447e-09
-1.0669478e-12
1.1016332e-09
1.092603e-11
1.1028324e-09
-1.055203e-11
1.1016824e-09
1.029087e-11
1.1028829e-09
-1.00568e-11
1.1017457e-09
9.5298107e-12
1.1028183e-09
-8.9741577e-12
1.1018011e-09
8.4838489e-12
1.1027563e-09
-7.9786641e-12
1.1018544e-09
7.5260781e-12
1.1027036e-09
-7.089025e-12
1.1019028e-09
6.6836877e-12
1.1026579e-09
-6.302003e-12
1.1019458e-09
5.9433116e-12
1.102618e-09
-5.6083139e-12
1.1019838e-09
5.2924329e-12
1.1025829e-09
-4.9981615e-12
1.1020171e-09
4.7207052e-12
1.1025521e-09
-4.4624556e-12
1.1020463e-09
4.2192836e-12
1.1025251e-09
-3.9930786e-12
1.1020718e-09
3.7804697e-12
1.1025016e-09
-3.582861e-12
1.1020941e-09
3.3975383e-12
1.1024811e-09
-3.2255111e-12
1.1021134e-09
3.0646108e-12
1.1024633e-09
-2.9155426e-12
1.10213e-09
2.7765692e-12
1.1024479e-09
-2.6481768e-12
1.1021443e-09
2.528973e-12
1.1024348e-09
-2.4192881e-12
1.1021565e-09
2.3180035e-12
1.1024238e-09
-2.2253411e-12
1.1021667e-09
2.1403965e-12
1.1024146e-09
-2.0633185e-12
1.1021751e-09
1.9933786e-12
1.102407e-09
-1.9306975e-12
1.1021819e-09
1.8746474e-12
1.1024011e-09
-1.825356e-12
1.1021871e-09
1.7823998e-12
1.1023965e-09
-1.7448992e-12
1.1021903e-09
1.7160515e-12
1.1023927e-09
-1.6901719e-12
1.1021976e-09
1.6424855e-12
1.1024334e-09
-1.8341628e-12
1.5667882e-12
1.2214005e-09
1.4224101e-08
1.2998691e-09
-3.4928253e-10
1.254002e-09
2.6184576e-10
1.2552884e-09
-3.1514326e-12
1.2542434e-09
-2.1908335e-14
1.2535458e-09
1.1623648e-11
1.2546254e-09
-1.1631634e-11
1.2536225e-09
1.1293759e-11
1.2547118e-09
-1.1146075e-11
1.2536827e-09
1.0558845e-11
1.2546545e-09
-9.945957e-12
1.253732e-09
9.4063916e-12
1.2545977e-09
-8.8444037e-12
1.2537799e-09
8.3439444e-12
1.2545498e-09
-7.8589571e-12
1.2538237e-09
7.4098e-12
1.2545084e-09
-6.9867587e-12
1.2538627e-09
6.5890233e-12
1.2544723e-09
-6.2178648e-12
1.2538972e-09
5.8675437e-12
1.2544405e-09
-5.5415347e-12
1.2539274e-09
5.2338276e-12
1.2544127e-09
-4.9477236e-12
1.2539539e-09
4.6780515e-12
1.2543883e-09
-4.4274407e-12
1.2539771e-09
4.1916744e-12
1.254367e-09
-3.9727377e-12
1.2539973e-09
3.7672386e-12
1.2543484e-09
-3.5766366e-12
1.2540148e-09
3.3982256e-12
1.2543323e-09
-3.2330554e-12
1.2540299e-09
3.0789606e-12
1.2543184e-09
-2.9366931e-12
1.2540429e-09
2.8045196e-12
1.2543065e-09
-2.6829751e-12
1.2540539e-09
2.5706689e-12
1.2542965e-09
-2.4679813e-12
1.2540631e-09
2.3737883e-12
1.2542882e-09
-2.2883615e-12
1.2540708e-09
2.2107972e-12
1.2542814e-09
-2.1413155e-12
1.2540769e-09
2.0791356e-12
1.254276e-09
-2.0244762e-12
1.2540816e-09
1.9767898e-12
1.2542718e-09
-1.9350615e-12
1.2540845e-09
1.9033062e-12
1.254268e-09
-1.8736703e-12
1.2540914e-09
1.8191542e-12
1.2543096e-09
-2.0524169e-12
1.7296465e-12
1.3493159e-09
1.5332535e-08
1.4445213e-09
-4.4448799e-10
1.4010908e-09
3.0527628e-10
1.4021351e-09
-4.1957626e-12
1.4011808e-09
9.3241753e-13
1.4008493e-09
1.1955144e-11
1.4018162e-09
-1.2598495e-11
1.4009602e-09
1.2149688e-11
1.4019382e-09
-1.212402e-11
1.4010174e-09
1.1479661e-11
1.4018881e-09
-1.0816654e-11
1.4010605e-09
1.0233966e-11
1.4018365e-09
-9.6204332e-12
1.401103e-09
9.0774341e-12
1.4017934e-09
-8.5493106e-12
1.4011422e-09
8.0609378e-12
1.4017563e-09
-7.6008322e-12
1.4011773e-09
7.1680758e-12
1.4017239e-09
-6.7645522e-12
1.4012082e-09
6.383323e-12
1.4016955e-09
-6.0289169e-12
1.4012353e-09
5.6940613e-12
1.4016706e-09
-5.3830351e-12
1.4012591e-09
5.0895841e-12
1.4016488e-09
-4.8171351e-12
1.4012799e-09
4.5605925e-12
1.4016297e-09
-4.3225697e-12
1.401298e-09
4.0989715e-12
1.4016131e-09
-3.8917458e-12
1.4013137e-09
3.6976287e-12
1.4015987e-09
-3.5180463e-12
1.4013272e-09
3.3503897e-12
1.4015862e-09
-3.1957019e-12
1.4013389e-09
3.0518968e-12
1.4015756e-09
-2.9197352e-12
1.4013488e-09
2.7975448e-12
1.4015667e-09
-2.6858811e-12
1.401357e-09
2.5833934e-12
1.4015592e-09
-2.4904897e-12
1.4013639e-09
2.4060853e-12
1.4015531e-09
-2.3305109e-12
1.4013694e-09
2.2628277e-12
1.4015483e-09
-2.2033546e-12
1.4013736e-09
2.1514106e-12
1.4015444e-09
-2.1058582e-12
1.4013762e-09
2.0715592e-12
1.4015408e-09
-2.038248e-12
1.4013825e-09
1.9774281e-12
1.4015823e-09
-2.2522192e-12
1.8727145e-12
1.490975e-09
1.629931e-08
1.5846602e-09
-5.3817326e-10
1.5435149e-09
3.4642157e-10
1.5442331e-09
-4.9139066e-12
1.543475e-09
1.690501e-12
1.5435451e-09
1.1885032e-11
1.5444051e-09
-1.3458543e-11
1.5436953e-09
1.2859575e-11
1.5445623e-09
-1.2991047e-11
1.5437493e-09
1.2292633e-11
1.5445191e-09
-1.1586431e-11
1.5437864e-09
1.0966692e-11
1.5444728e-09
-1.0306877e-11
1.5438236e-09
9.7266472e-12
1.5444345e-09
-9.1601821e-12
1.5438582e-09
8.6371929e-12
1.5444017e-09
-8.1443028e-12
1.5438892e-09
7.6805493e-12
1.5443731e-09
-7.2484428e-12
1.5439166e-09
6.8398393e-12
1.544348e-09
-6.4603649e-12
1.5439406e-09
6.1014641e-12
1.544326e-09
-5.7684376e-12
1.5439617e-09
5.4539291e-12
1.5443068e-09
-5.1622006e-12
1.5439801e-09
4.8872629e-12
1.5442899e-09
-4.6323888e-12
1.5439961e-09
4.3927679e-12
1.5442752e-09
-4.170863e-12
1.54401e-09
3.9628438e-12
1.5442625e-09
-3.7705339e-12
1.544022e-09
3.5908743e-12
1.5442515e-09
-3.4252168e-12
1.5440323e-09
3.2711176e-12
1.5442421e-09
-3.1295779e-12
1.5440411e-09
2.9986402e-12
1.5442342e-09
-2.8790471e-12
1.5440484e-09
2.7692182e-12
1.5442276e-09
-2.6697075e-12
1.5440544e-09
2.5792476e-12
1.5442222e-09
-2.4982876e-12
1.5440593e-09
2.4257282e-12
1.544218e-09
-2.361996e-12
1.5440631e-09
2.3062691e-12
1.5442146e-09
-2.2573024e-12
1.5440653e-09
2.2208154e-12
1.544211e-09
-2.1839444e-12
1.544071e-09
2.1174124e-12
1.5442516e-09
-2.4328463e-12
1.9962289e-12
1.6127958e-09
1.7144264e-08
1.7168982e-09
-6.4227563e-10
1.6812166e-09
3.8210314e-10
1.6817623e-09
-5.4595728e-12
1.6812039e-09
2.248861e-12
1.6816443e-09
1.1444675e-11
1.6823956e-09
-1.4209816e-11
1.681828e-09
1.342715e-11
1.6825845e-09
-1.3747588e-11
1.6818784e-09
1.299873e-11
1.6825479e-09
-1.2255893e-11
1.6819094e-09
1.1605136e-11
1.6825068e-09
-1.0904266e-11
1.6819414e-09
1.0292076e-11
1.6824733e-09
-9.6920342e-12
1.6819714e-09
9.1390035e-12
1.6824447e-09
-8.6175763e-12
1.6819984e-09
8.1268318e-12
1.6824199e-09
-7.6698942e-12
1.6820223e-09
7.2374348e-12
1.6823981e-09
-6.8361933e-12
1.6820433e-09
6.4563367e-12
1.682379e-09
-6.1042079e-12
1.6820616e-09
5.7713508e-12
1.6823623e-09
-5.4628809e-12
1.6820776e-09
5.1719171e-12
1.6823476e-09
-4.9024085e-12
1.6820916e-09
4.6488311e-12
1.6823349e-09
-4.4141765e-12
1.6821037e-09
4.1940497e-12
1.6823238e-09
-3.9906838e-12
1.6821141e-09
3.8005716e-12
1.6823143e-09
-3.6253839e-12
1.6821231e-09
3.4623209e-12
1.6823062e-09
-3.312633e-12
1.6821307e-09
3.1740788e-12
1.6822993e-09
-3.0475954e-12
1.6821371e-09
2.9313739e-12
1.6822935e-09
-2.8261203e-12
1.6821424e-09
2.7303858e-12
1.6822888e-09
-2.6447427e-12
1.6821466e-09
2.5679321e-12
1.6822851e-09
-2.5004927e-12
1.68215e-09
2.4414566e-12
1.6822821e-09
-2.3894894e-12
1.6821518e-09
2.3511597e-12
1.6822787e-09
-2.3108812e-12
1.6821569e-09
2.2392728e-12
1.6823178e-09
-2.5937525e-12
2.1005801e-12
1.7449298e-09
1.7857084e-08
1.845377e-09
-7.427228e-10
1.8141564e-09
4.1332374e-10
1.8147256e-09
-6.0288117e-12
1.8143914e-09
2.5830655e-12
1.8151493e-09
1.0686823e-11
1.8157885e-09
-1.484901e-11
1.8153585e-09
1.3857154e-11
1.8160052e-09
-1.4394304e-11
1.8154045e-09
1.3599392e-11
1.8159747e-09
-1.2826043e-11
1.8154295e-09
1.2150262e-11
1.8159388e-09
-1.1413506e-11
1.8154563e-09
1.0774563e-11
1.8159099e-09
-1.0145662e-11
1.8154818e-09
9.5671207e-12
1.8158856e-09
-9.0213536e-12
1.8155048e-09
8.5075887e-12
1.8158644e-09
-8.0295254e-12
1.8155252e-09
7.5766979e-12
1.8158459e-09
-7.1569498e-12
1.8155431e-09
6.7591994e-12
1.8158297e-09
-6.3908306e-12
1.8155587e-09
6.0423086e-12
1.8158155e-09
-5.7196044e-12
1.8155724e-09
5.4149618e-12
1.815803e-09
-5.1330085e-12
1.8155843e-09
4.8675206e-12
1.8157922e-09
-4.6220222e-12
1.8155947e-09
4.3915649e-12
1.8157828e-09
-4.1787949e-12
1.8156036e-09
3.9797653e-12
1.8157747e-09
-3.7964701e-12
1.8156112e-09
3.6257606e-12
1.8157677e-09
-3.4691397e-12
1.8156177e-09
3.3240888e-12
1.8157619e-09
-3.1917422e-12
1.8156232e-09
3.0700674e-12
1.815757e-09
-2.9599251e-12
1.8156277e-09
2.8596898e-12
1.815753e-09
-2.7700589e-12
1.8156313e-09
2.6896167e-12
1.8157498e-09
-2.6190165e-12
1.8156341e-09
2.5571425e-12
1.8157472e-09
-2.5025897e-12
1.8156357e-09
2.4627511e-12
1.815744e-09
-2.4192543e-12
1.8156401e-09
2.3432312e-12
1.8157809e-09
-2.734555e-12
2.1862835e-12
1.8614826e-09
1.8453351e-08
1.9662634e-09
-8.4750358e-10
1.9424061e-09
4.3718103e-10
1.9430884e-09
-6.7111107e-12
1.9430324e-09
2.6390838e-12
1.9440604e-09
9.6587946e-12
1.9445843e-09
-1.537285e-11
1.9442871e-09
1.4154323e-11
1.9448247e-09
-1.4931934e-11
1.9443275e-09
1.4096591e-11
1.9447996e-09
-1.329817e-11
1.9443465e-09
1.2603433e-11
1.9447688e-09
-1.1835816e-11
1.9443681e-09
1.1175281e-11
1.9447446e-09
-1.0522157e-11
1.9443891e-09
9.9225791e-12
1.9447244e-09
-9.356601e-12
1.9444082e-09
8.8237365e-12
1.9447069e-09
-8.3281921e-12
1.9444251e-09
7.8584401e-12
1.9446916e-09
-7.423392e-12
1.94444e-09
7.0107701e-12
1.9446781e-09
-6.6289769e-12
1.944453e-09
6.2674389e-12
1.9446664e-09
-5.9329664e-12
1.9444644e-09
5.6169606e-12
1.9446561e-09
-5.324717e-12
1.9444743e-09
5.0493373e-12
1.9446471e-09
-4.7948707e-12
1.9444828e-09
4.5558358e-12
1.9446393e-09
-4.3352867e-12
1.9444903e-09
4.128854e-12
1.9446326e-09
-3.938851e-12
1.9444966e-09
3.7617939e-12
1.9446269e-09
-3.5994366e-12
1.944502e-09
3.4489933e-12
1.944622e-09
-3.3117945e-12
1.9445065e-09
3.1855928e-12
1.944618e-09
-3.0714032e-12
1.9445103e-09
2.9674302e-12
1.9446147e-09
-2.8744961e-12
1.9445133e-09
2.7910345e-12
1.9446121e-09
-2.7178125e-12
1.9445156e-09
2.6535669e-12
1.9446099e-09
-2.5968421e-12
1.9445168e-09
2.5558159e-12
1.9446069e-09
-2.5093258e-12
1.9445206e-09
2.4295627e-12
1.944641e-09
-2.8550199e-12
2.2539522e-12
1.9842865e-09
1.8926815e-08
2.0842204e-09
-9.4743753e-10
2.0659707e-09
4.5543082e-10
2.0668833e-09
-7.6237563e-12
2.0671283e-09
2.3941113e-12
2.0683822e-09
8.4048417e-12
2.0687837e-09
-1.5774333e-11
2.0686139e-09
1.4324126e-11
2.0690433e-09
-1.5361369e-11
2.0686473e-09
1.4492647e-11
2.069023e-09
-1.3673902e-11
2.0686601e-09
1.2966324e-11
2.068997e-09
-1.2172721e-11
2.0686766e-09
1.1495683e-11
2.0689773e-09
-1.0822878e-11
2.0686933e-09
1.0206666e-11
2.0689612e-09
-9.6245233e-12
2.0687085e-09
9.0764157e-12
2.0689473e-09
-8.5669619e-12
2.068722e-09
8.0836718e-12
2.0689351e-09
-7.6364666e-12
2.0687339e-09
7.2119451e-12
2.0689244e-09
-6.8194865e-12
2.0687444e-09
6.447536e-12
2.0689151e-09
-6.1037124e-12
2.0687534e-09
5.7786195e-12
2.0689069e-09
-5.4781974e-12
2.0687613e-09
5.1949093e-12
2.0688998e-09
-4.9333128e-12
2.0687682e-09
4.6874225e-12
2.0688936e-09
-4.4606878e-12
2.0687741e-09
4.2483394e-12
2.0688883e-09
-4.0530014e-12
2.0687792e-09
3.8708729e-12
2.0688837e-09
-3.7039521e-12
2.0687835e-09
3.549201e-12
2.0688798e-09
-3.4081418e-12
2.0687871e-09
3.2783233e-12
2.0688766e-09
-3.1609113e-12
2.0687901e-09
3.0539508e-12
2.068874e-09
-2.9583856e-12
2.0687925e-09
2.8725064e-12
2.0688719e-09
-2.7971919e-12
2.0687944e-09
2.7310345e-12
2.0688701e-09
-2.6725481e-12
2.0687953e-09
2.6306425e-12
2.0688674e-09
-2.5814179e-12
2.0687984e-09
2.4985909e-12
2.0688984e-09
-2.9550487e-12
2.3042754e-12
2.0964127e-09
1.9288152e-08
2.194969e-09
-1.0459938e-09
2.1849124e-09
4.6548738e-10
2.1861314e-09
-8.8427647e-12
2.1866687e-09
1.856803e-12
2.1881136e-09
6.9599406e-12
2.1883858e-09
-1.6046494e-11
2.1883384e-09
1.4371567e-11
2.188661e-09
-1.5684024e-11
2.1883636e-09
1.4790091e-11
2.1886449e-09
-1.3955204e-11
2.1883703e-09
1.3240886e-11
2.1886236e-09
-1.2426019e-11
2.1883818e-09
1.173748e-11
2.1886084e-09
-1.1049426e-11
2.1883941e-09
1.0420896e-11
2.1885962e-09
-9.8265394e-12
2.1884056e-09
9.2669687e-12
2.1885857e-09
-8.7470929e-12
2.1884158e-09
8.253583e-12
2.1885766e-09
-7.7972891e-12
2.1884248e-09
7.363779e-12
2.1885687e-09
-6.9633497e-12
2.1884327e-09
6.5835369e-12
2.1885617e-09
-6.2327228e-12
2.1884395e-09
5.9007713e-12
2.1885556e-09
-5.5942332e-12
2.1884455e-09
5.3049788e-12
2.1885502e-09
-5.0380485e-12
2.1884507e-09
4.7869887e-12
2.1885456e-09
-4.5556249e-12
2.1884551e-09
4.3388168e-12
2.1885416e-09
-4.1394847e-12
2.188459e-09
3.9535338e-12
2.1885382e-09
-3.7831958e-12
2.1884622e-09
3.6251988e-12
2.1885353e-09
-3.4812479e-12
2.1884649e-09
3.3487036e-12
2.1885329e-09
-3.2288757e-12
2.1884672e-09
3.1196618e-12
2.1885309e-09
-3.0221223e-12
2.188469e-09
2.9344154e-12
2.1885293e-09
-2.8575263e-12
2.1884705e-09
2.7899089e-12
2.188528e-09
-2.7300659e-12
2.1884711e-09
2.6875751e-12
2.1885255e-09
-2.6359062e-12
2.1884734e-09
2.5506846e-12
2.1885531e-09
-3.0346669e-12
2.3379981e-12
2.2114505e-09
1.9534452e-08
2.3035614e-09
-1.1381047e-09
2.2993856e-09
4.6966314e-10
2.3008689e-09
-1.032602e-11
2.3016413e-09
1.0843614e-12
2.3032569e-09
5.344328e-12
2.3033913e-09
-1.6180861e-11
2.3034606e-09
1.4302228e-11
2.303678e-09
-1.5901413e-11
2.3034763e-09
1.4991787e-11
2.3036654e-09
-1.4144284e-11
2.303477e-09
1.3429335e-11
2.3036487e-09
-1.2597745e-11
2.3034836e-09
1.1902612e-11
2.3036377e-09
-1.1203614e-11
2.3034917e-09
1.0566987e-11
2.3036294e-09
-9.9642585e-12
2.3034994e-09
9.3969166e-12
2.3036223e-09
-8.870012e-12
2.3035064e-09
8.3695226e-12
2.3036162e-09
-7.9071262e-12
2.3035125e-09
7.4674697e-12
2.3036109e-09
-7.0616917e-12
2.3035179e-09
6.6765053e-12
2.3036062e-09
-6.3209982e-12
2.3035226e-09
5.984363e-12
2.3036021e-09
-5.6737167e-12
2.3035267e-09
5.3803906e-12
2.3035985e-09
-5.1098745e-12
2.3035302e-09
4.85529e-12
2.3035954e-09
-4.6208125e-12
2.3035332e-09
4.4009651e-12
2.3035927e-09
-4.1989447e-12
2.3035358e-09
4.0103898e-12
2.3035904e-09
-3.8377505e-12
2.3035381e-09
3.677543e-12
2.3035885e-09
-3.5316442e-12
2.3035399e-09
3.3972427e-12
2.3035868e-09
-3.2757843e-12
2.3035415e-09
3.1650335e-12
2.3035855e-09
-3.0661601e-12
2.3035427e-09
2.977201e-12
2.3035844e-09
-2.899242e-12
2.3035437e-09
2.830607e-12
2.3035835e-09
-2.7698051e-12
2.303544e-09
2.7270094e-12
2.3035813e-09
-2.6732145e-12
2.3035458e-09
2.5862541e-12
2.3036051e-09
-3.0940126e-12
2.3559055e-12
2.3200592e-09
1.9672143e-08
2.4054016e-09
-1.2234471e-09
2.4093686e-09
4.6569616e-10
2.4111523e-09
-1.2109818e-11
2.4120393e-09
1.9743056e-13
2.4138124e-09
3.5711999e-12
2.4137998e-09
-1.6168293e-11
2.4139803e-09
1.4121723e-11
2.4140943e-09
-1.601539e-11
2.4139853e-09
1.5100778e-11
2.4140847e-09
-1.4243627e-11
2.4139799e-09
1.3534097e-11
2.4140723e-09
-1.2690157e-11
2.4139817e-09
1.1993217e-11
2.4140655e-09
-1.128745e-11
2.4139857e-09
1.0646832e-11
2.4140609e-09
-1.003946e-11
2.4139899e-09
9.4679406e-12
2.4140572e-09
-8.9372979e-12
2.4139937e-09
8.4329818e-12
2.414054e-09
-7.967379e-12
2.4139971e-09
7.5243405e-12
2.4140512e-09
-7.1157575e-12
2.414e-09
6.7276184e-12
2.4140487e-09
-6.3696471e-12
2.4140026e-09
6.030443e-12
2.4140465e-09
-5.7176361e-12
2.4140048e-09
5.4220809e-12
2.4140446e-09
-5.1496754e-12
2.4140068e-09
4.8931652e-12
2.414043e-09
-4.6570446e-12
2.4140084e-09
4.4355385e-12
2.4140416e-09
-4.2320968e-12
2.4140098e-09
4.0421222e-12
2.4140404e-09
-3.8682649e-12
2.414011e-09
3.7068536e-12
2.4140393e-09
-3.5599224e-12
2.4140121e-09
3.4245085e-12
2.4140385e-09
-3.3021822e-12
2.4140129e-09
3.1905908e-12
2.4140377e-09
-3.0910046e-12
2.4140136e-09
3.0013536e-12
2.4140372e-09
-2.9228152e-12
2.4140142e-09
2.8535938e-12
2.4140366e-09
-2.7922223e-12
2.4140142e-09
2.7493874e-12
2.4140348e-09
-2.6938094e-12
2.4140153e-09
2.6057478e-12
2.4140546e-09
-3.133326e-12
2.3588083e-12
2.4280931e-09
1.9701799e-08
2.5055187e-09
-1.3008727e-09
2.5149764e-09
4.5623844e-10
2.5170322e-09
-1.4165646e-11
2.5178613e-09
-6.3164903e-13
2.5197835e-09
1.6490207e-12
2.5196124e-09
-1.599724e-11
2.5198976e-09
1.3836577e-11
2.51991e-09
-1.602784e-11
2.5198905e-09
1.5120332e-11
2.5199028e-09
-1.4255931e-11
2.5198791e-09
1.3557798e-11
2.5198946e-09
-1.2705701e-11
2.5198762e-09
1.2011614e-11
2.5198919e-09
-1.1303107e-11
2.5198762e-09
1.0662489e-11
2.5198908e-09
-1.0054073e-11
2.5198769e-09
9.4818623e-12
2.5198903e-09
-8.9506621e-12
2.5198777e-09
8.4455771e-12
2.5198899e-09
-7.9795676e-12
2.5198784e-09
7.535828e-12
2.5198895e-09
-7.126899e-12
2.519879e-09
6.7381537e-12
2.5198892e-09
-6.3798734e-12
2.5198795e-09
6.0401503e-12
2.5198889e-09
-5.7270666e-12
2.5198799e-09
5.4310675e-12
2.5198887e-09
-5.1584131e-12
2.5198803e-09
4.9015266e-12
2.5198885e-09
-4.6651852e-12
2.5198806e-09
4.4433585e-12
2.5198883e-09
-4.2397212e-12
2.5198809e-09
4.0494742e-12
2.5198881e-09
-3.8754466e-12
2.5198811e-09
3.7138066e-12
2.5198879e-09
-3.566729e-12
2.5198813e-09
3.4311209e-12
2.5198878e-09
-3.308664e-12
2.5198815e-09
3.1969069e-12
2.5198877e-09
-3.0972097e-12
2.5198816e-09
3.0074094e-12
2.5198876e-09
-2.9287666e-12
2.5198818e-09
2.8593781e-12
2.5198874e-09
-2.797816e-12
2.5198816e-09
2.7551935e-12
2.519886e-09
-2.6981963e-12
2.5198821e-09
2.6096484e-12
2.5199017e-09
-3.1529404e-12
2.3475318e-12
2.5333289e-09
1.9626221e-08
2.5993031e-09
-1.3668468e-09
2.6160783e-09
4.394632e-10
2.6184477e-09
-1.6535029e-11
2.6191152e-09
-1.2991217e-12
2.6211675e-09
-4.0329141e-13
2.6208284e-09
-1.5658158e-11
2.6212113e-09
1.3453621e-11
2.6211247e-09
-1.5941159e-11
2.6211913e-09
1.5053688e-11
2.6211196e-09
-1.418423e-11
2.6211742e-09
1.3503156e-11
2.6211156e-09
-1.2647038e-11
2.6211669e-09
1.1960256e-11
2.6211168e-09
-1.1252922e-11
2.6211631e-09
1.0616144e-11
2.6211192e-09
-1.0010161e-11
2.6211604e-09
9.4406271e-12
2.6211217e-09
-8.9119352e-12
2.6211582e-09
8.4090363e-12
2.621124e-09
-7.9453179e-12
2.6211563e-09
7.5034671e-12
2.621126e-09
-7.0965622e-12
2.6211547e-09
6.7094779e-12
2.6211278e-09
-6.3529658e-12
2.6211532e-09
6.0147036e-12
2.6211293e-09
-5.7031588e-12
2.6211519e-09
5.4084406e-12
2.6211306e-09
-5.1371189e-12
2.6211508e-09
4.8813527e-12
2.6211318e-09
-4.6461616e-12
2.6211499e-09
4.4253061e-12
2.6211328e-09
-4.2226549e-12
2.621149e-09
4.0332436e-12
2.6211336e-09
-3.8600559e-12
2.6211483e-09
3.699129e-12
2.6211343e-09
-3.5527592e-12
2.6211477e-09
3.4177469e-12
2.6211349e-09
-3.295871e-12
2.6211472e-09
3.1845997e-12
2.6211354e-09
-3.0853713e-12
2.6211468e-09
2.9959467e-12
2.6211357e-09
-2.9176575e-12
2.6211466e-09
2.8485082e-12
2.6211359e-09
-2.7871231e-12
2.6211462e-09
2.7449502e-12
2.6211349e-09
-2.6869144e-12
2.6211461e-09
2.5984708e-12
2.6211464e-09
-3.153273e-12
2.3229051e-12
2.6343428e-09
1.9449628e-08
2.6917996e-09
-1.4243036e-09
2.7128319e-09
4.1843089e-10
2.7152768e-09
-1.8979878e-11
2.7157983e-09
-1.8206436e-12
2.7179578e-09
-2.562785e-12
2.7174469e-09
-1.5147273e-11
2.7179208e-09
1.2979676e-11
2.7177379e-09
-1.5758198e-11
2.7178875e-09
1.490405e-11
2.7177351e-09
-1.4031847e-11
2.7178653e-09
1.337298e-11
2.7177353e-09
-1.251701e-11
2.7178538e-09
1.1841715e-11
2.7177403e-09
-1.113937e-11
2.7178463e-09
1.0510105e-11
2.717746e-09
-9.9099082e-12
2.7178404e-09
9.3462876e-12
2.7177515e-09
-8.8230515e-12
2.7178354e-09
8.3251832e-12
2.7177564e-09
-7.8663481e-12
2.717831e-09
7.4288807e-12
2.7177607e-09
-7.0262764e-12
2.7178271e-09
6.643036e-12
2.7177644e-09
-6.2902876e-12
2.7178238e-09
5.9553932e-12
2.7177677e-09
-5.6471317e-12
2.7178208e-09
5.3553543e-12
2.7177706e-09
-5.0868849e-12
2.7178183e-09
4.8336796e-12
2.7177731e-09
-4.6009566e-12
2.717816e-09
4.382316e-12
2.7177752e-09
-4.1817866e-12
2.7178141e-09
3.9942773e-12
2.717777e-09
-3.8229005e-12
2.7178125e-09
3.6635927e-12
2.7177785e-09
-3.5187517e-12
2.7178112e-09
3.3850954e-12
2.7177798e-09
-3.2644841e-12
2.7178101e-09
3.1543259e-12
2.7177808e-09
-3.0561243e-12
2.7178092e-09
2.9675802e-12
2.7177816e-09
-2.8900855e-12
2.7178085e-09
2.8215677e-12
2.7177821e-09
-2.7607145e-12
2.7178079e-09
2.7192146e-12
2.7177815e-09
-2.6605337e-12
2.7178072e-09
2.5727579e-12
2.7177887e-09
-3.134817e-12
2.2857539e-12
2.7358008e-09
1.9171577e-08
2.7784474e-09
-1.4669502e-09
2.8050606e-09
3.9181767e-10
2.807484e-09
-2.1403272e-11
2.8079297e-09
-2.2663738e-12
2.8101495e-09
-4.7825863e-12
2.8094682e-09
-1.4466006e-11
2.8100263e-09
1.2421609e-11
2.8097498e-09
-1.5481747e-11
2.8099791e-09
1.4674836e-11
2.8097494e-09
-1.3802211e-11
2.8099522e-09
1.3170231e-11
2.8097537e-09
-1.2318579e-11
2.8099368e-09
1.1658687e-11
2.8097624e-09
-1.0965039e-11
2.8099258e-09
1.0346786e-11
2.8097714e-09
-9.7555986e-12
2.8099167e-09
9.2009919e-12
2.8097797e-09
-8.6860369e-12
2.809909e-09
8.1959281e-12
2.8097871e-09
-7.7444582e-12
2.8099022e-09
7.3137673e-12
2.8097936e-09
-6.9176436e-12
2.8098963e-09
6.540342e-12
2.8097993e-09
-6.1932683e-12
2.8098911e-09
5.8635705e-12
2.8098042e-09
-5.5602629e-12
2.8098865e-09
5.2730195e-12
2.8098085e-09
-5.008858e-12
2.8098826e-09
4.7595954e-12
2.8098122e-09
-4.5306026e-12
2.8098792e-09
4.3153696e-12
2.8098155e-09
-4.1180497e-12
2.8098763e-09
3.9334653e-12
2.8098182e-09
-3.7648295e-12
2.8098738e-09
3.60801e-12
2.8098205e-09
-3.4654842e-12
2.8098717e-09
3.3339133e-12