/*--------------------------------*- C++ -*----------------------------------*\
| =========                 |                                                 |
| \\      /  F ield         | OpenFOAM: The Open Source CFD Toolbox           |
|  \\    /   O peration     | Version:  2312                                  |
|   \\  /    A nd           | Website:  www.openfoam.com                      |
|    \\/     M anipulation  |                                                 |
\*---------------------------------------------------------------------------*/
FoamFile
{
    version     2.0;
    format      ascii;
    arch        "LSB;label=32;scalar=64";
    class       volSymmTensorField;
    location    "3";
    object      sigma_0;
}
// * * * * * * * * * * * * * * * * * * * * * * * * * * * * * * * * * * * * * //

dimensions      [0 2 -2 0 0 0 0];

internalField   nonuniform List<symmTensor> 
4000
(
(-1.4179124 -0.61974417 0 -0.23052251 0 0)
(-2.8602656 -0.30961234 0 -0.00084046976 0 0)
(-1.9734357 -0.25687349 0 -0.00027423482 0 0)
(-2.1397603 -0.26719433 0 -3.2612781e-05 0 0)
(-2.0102206 -0.25865761 0 4.4529422e-05 0 0)
(-2.1019853 -0.26491952 0 -5.4022972e-05 0 0)
(-2.0159927 -0.2590245 0 4.9751681e-05 0 0)
(-2.0941943 -0.2644051 0 -4.7728675e-05 0 0)
(-2.021194 -0.25938071 0 4.4980754e-05 0 0)
(-2.0894952 -0.26408663 0 -4.2496187e-05 0 0)
(-2.0252857 -0.25966395 0 3.997311e-05 0 0)
(-2.0855512 -0.26381752 0 -3.7707176e-05 0 0)
(-2.0288617 -0.25991165 0 3.54844e-05 0 0)
(-2.0821031 -0.26358185 0 -3.3462401e-05 0 0)
(-2.0320434 -0.26013176 0 3.1512717e-05 0 0)
(-2.0790579 -0.2633736 0 -2.9722772e-05 0 0)
(-2.0348737 -0.26032733 0 2.8009896e-05 0 0)
(-2.0763595 -0.26318902 0 -2.6430758e-05 0 0)
(-2.0373907 -0.26050106 0 2.4925428e-05 0 0)
(-2.073964 -0.26302515 0 -2.3535105e-05 0 0)
(-2.0396303 -0.26065546 0 2.2213157e-05 0 0)
(-2.0718342 -0.26287947 0 -2.099129e-05 0 0)
(-2.0416253 -0.26079283 0 1.9832025e-05 0 0)
(-2.0699377 -0.26274978 0 -1.8760391e-05 0 0)
(-2.0434052 -0.26091523 0 1.7745806e-05 0 0)
(-2.0682456 -0.26263415 0 -1.6808281e-05 0 0)
(-2.0449962 -0.26102449 0 1.5922655e-05 0 0)
(-2.0667324 -0.26253082 0 -1.5105059e-05 0 0)
(-2.0464221 -0.26112223 0 1.4334666e-05 0 0)
(-2.0653752 -0.26243826 0 -1.3624586e-05 0 0)
(-2.0477038 -0.26120992 0 1.2957488e-05 0 0)
(-2.0641538 -0.26235508 0 -1.2344113e-05 0 0)
(-2.0488605 -0.26128888 0 1.1769967e-05 0 0)
(-2.0630496 -0.26228003 0 -1.1243941e-05 0 0)
(-2.0499092 -0.26136027 0 1.0753856e-05 0 0)
(-2.0620463 -0.26221201 0 -1.0307158e-05 0 0)
(-2.0508654 -0.26142516 0 9.8935664e-06 0 0)
(-2.0611289 -0.26215 0 -9.5194044e-06 0 0)
(-2.0517433 -0.2614845 0 9.1759579e-06 0 0)
(-2.0602837 -0.26209309 0 -8.8686934e-06 0 0)
(-2.0525556 -0.26153919 0 8.5902223e-06 0 0)
(-2.0594985 -0.26204043 0 -8.3453611e-06 0 0)
(-2.0533144 -0.26159001 0 8.127839e-06 0 0)
(-2.0587614 -0.26199126 0 -7.9423313e-06 0 0)
(-2.0540303 -0.26163768 0 7.7825631e-06 0 0)
(-2.0580605 -0.26194477 0 -7.6552224e-06 0 0)
(-2.0547129 -0.2616828 0 7.5611203e-06 0 0)
(-2.0574009 -0.26190111 0 -7.4432e-06 0 0)
(-2.055476 -0.26173198 0 7.6274197e-06 0 0)
(-2.0572083 -0.26188823 0 -7.4314739e-06 0 0)
(-1.258564 -0.56987283 0 -0.21652563 0 0)
(-2.52312 -0.2942157 0 -0.0029179509 0 0)
(-1.8928872 -0.25283622 0 -0.00084511017 0 0)
(-1.9758504 -0.25677607 0 -3.3881579e-05 0 0)
(-1.86817 -0.24925205 0 2.9990444e-05 0 0)
(-1.9446959 -0.25491221 0 -6.0003732e-05 0 0)
(-1.870934 -0.2494299 0 5.2995357e-05 0 0)
(-1.9380004 -0.25444376 0 -5.2051771e-05 0 0)
(-1.8752943 -0.24975293 0 4.9296362e-05 0 0)
(-1.9340151 -0.25415265 0 -4.6701137e-05 0 0)
(-1.8788021 -0.25001693 0 4.3903782e-05 0 0)
(-1.9306281 -0.25390186 0 -4.1472141e-05 0 0)
(-1.8818691 -0.25024818 0 3.9001092e-05 0 0)
(-1.9276585 -0.25368144 0 -3.6797041e-05 0 0)
(-1.8845995 -0.25045382 0 3.4645227e-05 0 0)
(-1.9250355 -0.2534866 0 -3.2682312e-05 0 0)
(-1.8870294 -0.2506366 0 3.0798141e-05 0 0)
(-1.9227112 -0.2533139 0 -2.9062922e-05 0 0)
(-1.889191 -0.25079899 0 2.7408991e-05 0 0)
(-1.9206478 -0.25316057 0 -2.5880357e-05 0 0)
(-1.8911149 -0.25094334 0 2.4428488e-05 0 0)
(-1.918813 -0.25302424 0 -2.3084929e-05 0 0)
(-1.8928292 -0.25107179 0 2.1811924e-05 0 0)
(-1.9171789 -0.25290287 0 -2.0633636e-05 0 0)
(-1.8943591 -0.25118627 0 1.9519608e-05 0 0)
(-1.9157207 -0.25279462 0 -1.8488902e-05 0 0)
(-1.8957273 -0.25128847 0 1.7516568e-05 0 0)
(-1.9144162 -0.25269787 0 -1.6617856e-05 0 0)
(-1.8969539 -0.25137993 0 1.5772146e-05 0 0)
(-1.9132459 -0.25261118 0 -1.4991784e-05 0 0)
(-1.8980571 -0.25146201 0 1.4259609e-05 0 0)
(-1.912192 -0.25253325 0 -1.3585714e-05 0 0)
(-1.8990533 -0.25153594 0 1.2955747e-05 0 0)
(-1.9112389 -0.25246292 0 -1.2378057e-05 0 0)
(-1.8999572 -0.25160282 0 1.1840582e-05 0 0)
(-1.9103723 -0.25239914 0 -1.1350331e-05 0 0)
(-1.9007821 -0.25166364 0 1.0897118e-05 0 0)
(-1.9095792 -0.25234097 0 -1.0486927e-05 0 0)
(-1.9015401 -0.2517193 0 1.0111125e-05 0 0)
(-1.9088481 -0.25228755 0 -9.7749529e-06 0 0)
(-1.9022424 -0.25177062 0 9.4711369e-06 0 0)
(-1.908168 -0.25223809 0 -9.2043551e-06 0 0)
(-1.9028992 -0.25181834 0 8.9685463e-06 0 0)
(-1.9075289 -0.25219188 0 -8.7687791e-06 0 0)
(-1.9035199 -0.25186316 0 8.5973583e-06 0 0)
(-1.9069203 -0.25214817 0 -8.4675082e-06 0 0)
(-1.9041115 -0.25190549 0 8.3775773e-06 0 0)
(-1.9063371 -0.25210623 0 -8.2078939e-06 0 0)
(-1.9047425 -0.25194809 0 8.7810742e-06 0 0)
(-1.906079 -0.25208753 0 -8.0877306e-06 0 0)
(-1.182932 -0.54076864 0 -0.20362091 0 0)
(-2.2885189 -0.27928521 0 -0.0034157939 0 0)
(-1.8108937 -0.24835142 0 -0.0012681097 0 0)
(-1.8737672 -0.2501405 0 -5.7962369e-05 0 0)
(-1.7754739 -0.24291528 0 1.386052e-05 0 0)
(-1.8432544 -0.24823213 0 -5.9498764e-05 0 0)
(-1.7767754 -0.2430065 0 5.0293221e-05 0 0)
(-1.836995 -0.24778103 0 -5.0219234e-05 0 0)
(-1.7806163 -0.24331024 0 4.7801229e-05 0 0)
(-1.8334216 -0.24750673 0 -4.533198e-05 0 0)
(-1.7837707 -0.24356229 0 4.2594734e-05 0 0)
(-1.8303816 -0.24726824 0 -4.0283195e-05 0 0)
(-1.786528 -0.2437829 0 3.7853248e-05 0 0)
(-1.8277118 -0.24705813 0 -3.573493e-05 0 0)
(-1.7889826 -0.24397909 0 3.3632544e-05 0 0)
(-1.8253533 -0.24687237 0 -3.1735634e-05 0 0)
(-1.7911676 -0.24415349 0 2.9900634e-05 0 0)
(-1.8232636 -0.2467077 0 -2.8220261e-05 0 0)
(-1.7931117 -0.24430847 0 2.6611513e-05 0 0)
(-1.8214084 -0.24656148 0 -2.5130035e-05 0 0)
(-1.7948423 -0.24444625 0 2.371857e-05 0 0)
(-1.8197588 -0.24643147 0 -2.241603e-05 0 0)
(-1.7963847 -0.24456887 0 2.117878e-05 0 0)
(-1.8182895 -0.2463157 0 -2.0036285e-05 0 0)
(-1.7977615 -0.24467816 0 1.8953736e-05 0 0)
(-1.8169782 -0.24621243 0 -1.7954248e-05 0 0)
(-1.7989929 -0.24477576 0 1.7009523e-05 0 0)
(-1.815805 -0.24612011 0 -1.613799e-05 0 0)
(-1.8000972 -0.24486313 0 1.5316395e-05 0 0)
(-1.8147523 -0.24603736 0 -1.4559633e-05 0 0)
(-1.8010906 -0.24494156 0 1.3848434e-05 0 0)
(-1.8138042 -0.24596295 0 -1.3194956e-05 0 0)
(-1.8019879 -0.24501222 0 1.2583142e-05 0 0)
(-1.8129464 -0.24589577 0 -1.2023044e-05 0 0)
(-1.8028023 -0.24507617 0 1.1501197e-05 0 0)
(-1.8121662 -0.24583482 0 -1.1026043e-05 0 0)
(-1.8035458 -0.24513435 0 1.0586223e-05 0 0)
(-1.811452 -0.24577919 0 -1.0188954e-05 0 0)
(-1.8042292 -0.24518763 0 9.8246025e-06 0 0)
(-1.8107932 -0.24572808 0 -9.4995231e-06 0 0)
(-1.8048627 -0.24523677 0 9.2056011e-06 0 0)
(-1.8101801 -0.24568073 0 -8.9485347e-06 0 0)
(-1.8054554 -0.24528251 0 8.7216232e-06 0 0)
(-1.8096036 -0.24563645 0 -8.5311349e-06 0 0)
(-1.8060159 -0.2453255 0 8.3678932e-06 0 0)
(-1.8090541 -0.24559454 0 -8.2511625e-06 0 0)
(-1.8065504 -0.2453661 0 8.1714052e-06 0 0)
(-1.8085245 -0.24555401 0 -7.9969988e-06 0 0)
(-1.807112 -0.24540549 0 8.794261e-06 0 0)
(-1.8082473 -0.24553426 0 -8.2998675e-06 0 0)
(-1.1286948 -0.51073891 0 -0.18638741 0 0)
(-2.1019717 -0.26792221 0 -0.0040208837 0 0)
(-1.726916 -0.24374594 0 -0.0017302369 0 0)
(-1.7749858 -0.24354042 0 -8.5040464e-05 0 0)
(-1.6847701 -0.23659436 0 -1.1310041e-05 0 0)
(-1.7451729 -0.24156198 0 -5.3918088e-05 0 0)
(-1.6846975 -0.23658517 0 4.2740565e-05 0 0)
(-1.7391678 -0.24112216 0 -4.3736792e-05 0 0)
(-1.6880417 -0.23686774 0 4.2038398e-05 0 0)
(-1.735916 -0.24086364 0 -3.9897987e-05 0 0)
(-1.6908922 -0.23710778 0 3.7477173e-05 0 0)
(-1.7331611 -0.24063711 0 -3.5498268e-05 0 0)
(-1.6933884 -0.23731779 0 3.332369e-05 0 0)
(-1.7307385 -0.24043704 0 -3.1481628e-05 0 0)
(-1.6956104 -0.23750453 0 2.961715e-05 0 0)
(-1.728598 -0.24026009 0 -2.7954188e-05 0 0)
(-1.6975885 -0.23767057 0 2.6334324e-05 0 0)
(-1.7267015 -0.24010323 0 -2.485685e-05 0 0)
(-1.6993489 -0.23781813 0 2.3439114e-05 0 0)
(-1.725018 -0.23996393 0 -2.2135257e-05 0 0)
(-1.7009162 -0.23794933 0 2.0892118e-05 0 0)
(-1.7235211 -0.23984005 0 -1.9745406e-05 0 0)
(-1.7023133 -0.23806613 0 1.8655947e-05 0 0)
(-1.722188 -0.23972972 0 -1.7650063e-05 0 0)
(-1.7035604 -0.23817025 0 1.669692e-05 0 0)
(-1.7209982 -0.23963129 0 -1.5816941e-05 0 0)
(-1.704676 -0.23826325 0 1.4985201e-05 0 0)
(-1.7199338 -0.23954328 0 -1.4217896e-05 0 0)
(-1.7056766 -0.23834652 0 1.3494596e-05 0 0)
(-1.7189786 -0.23946436 0 -1.2828372e-05 0 0)
(-1.706577 -0.2384213 0 1.2202302e-05 0 0)
(-1.7181183 -0.23939337 0 -1.1627054e-05 0 0)
(-1.7073902 -0.2384887 0 1.1088527e-05 0 0)
(-1.71734 -0.23932925 0 -1.0595556e-05 0 0)
(-1.7081285 -0.23854973 0 1.0136308e-05 0 0)
(-1.716632 -0.23927105 0 -9.7182278e-06 0 0)
(-1.7088025 -0.23860529 0 9.3313182e-06 0 0)
(-1.715984 -0.2392179 0 -8.9819794e-06 0 0)
(-1.7094222 -0.23865619 0 8.6617127e-06 0 0)
(-1.7153861 -0.23916903 0 -8.3762162e-06 0 0)
(-1.7099967 -0.23870319 0 8.1183452e-06 0 0)
(-1.7148298 -0.23912372 0 -7.8932387e-06 0 0)
(-1.7105343 -0.23874697 0 7.6950832e-06 0 0)
(-1.7143066 -0.23908131 0 -7.5298487e-06 0 0)
(-1.7110428 -0.23878815 0 7.3880329e-06 0 0)
(-1.7138079 -0.23904115 0 -7.2934481e-06 0 0)
(-1.7115276 -0.23882708 0 7.2290627e-06 0 0)
(-1.7133246 -0.23900198 0 -7.0426891e-06 0 0)
(-1.7120281 -0.23886345 0 8.0770957e-06 0 0)
(-1.7130294 -0.23898083 0 -7.6688819e-06 0 0)
(-1.0915515 -0.48841455 0 -0.17357604 0 0)
(-1.9183388 -0.25644959 0 -0.0045266271 0 0)
(-1.6357333 -0.23838116 0 -0.0021191447 0 0)
(-1.678314 -0.23695558 0 -0.00012613625 0 0)
(-1.5957531 -0.23025095 0 -3.8068821e-05 0 0)
(-1.6500807 -0.23490494 0 -4.8795832e-05 0 0)
(-1.5948089 -0.23015511 0 3.5404881e-05 0 0)
(-1.6442835 -0.23447191 0 -3.7274818e-05 0 0)
(-1.5976994 -0.23041733 0 3.6358098e-05 0 0)
(-1.6412917 -0.23422722 0 -3.4473918e-05 0 0)
(-1.6002805 -0.23064623 0 3.2390888e-05 0 0)
(-1.6387829 -0.23401179 0 -3.0727828e-05 0 0)
(-1.6025508 -0.23084648 0 2.881371e-05 0 0)
(-1.6365757 -0.23382109 0 -2.7242829e-05 0 0)
(-1.6045715 -0.2310245 0 2.5617651e-05 0 0)
(-1.634625 -0.23365237 0 -2.4185935e-05 0 0)
(-1.6063707 -0.23118278 0 2.2781629e-05 0 0)
(-1.6328969 -0.23350279 0 -2.1505157e-05 0 0)
(-1.6079721 -0.23132347 0 2.0278494e-05 0 0)
(-1.631363 -0.23336995 0 -1.9150795e-05 0 0)
(-1.609398 -0.23144859 0 1.807587e-05 0 0)
(-1.6299993 -0.23325181 0 -1.7083805e-05 0 0)
(-1.6106691 -0.23155998 0 1.6141926e-05 0 0)
(-1.6287848 -0.23314657 0 -1.5271678e-05 0 0)
(-1.611804 -0.2316593 0 1.4447672e-05 0 0)
(-1.627701 -0.23305267 0 -1.3686385e-05 0 0)
(-1.6128192 -0.23174802 0 1.2967325e-05 0 0)
(-1.6267314 -0.23296868 0 -1.2303549e-05 0 0)
(-1.6137299 -0.23182749 0 1.1678219e-05 0 0)
(-1.6258614 -0.23289336 0 -1.1101923e-05 0 0)
(-1.6145493 -0.23189887 0 1.0560643e-05 0 0)
(-1.6250778 -0.23282559 0 -1.0063073e-05 0 0)
(-1.6152896 -0.23196324 0 9.5974814e-06 0 0)
(-1.624369 -0.23276434 0 -9.1711158e-06 0 0)
(-1.6159616 -0.23202154 0 8.7740913e-06 0 0)
(-1.6237243 -0.23270873 0 -8.4125624e-06 0 0)
(-1.6165751 -0.23207464 0 8.0781433e-06 0 0)
(-1.6231341 -0.23265792 0 -7.7761641e-06 0 0)
(-1.6171392 -0.23212331 0 7.4994732e-06 0 0)
(-1.6225898 -0.23261117 0 -7.2528715e-06 0 0)
(-1.617662 -0.23216828 0 7.0303669e-06 0 0)
(-1.6220832 -0.23256781 0 -6.8362804e-06 0 0)
(-1.6181512 -0.23221019 0 6.665843e-06 0 0)
(-1.6216071 -0.23252719 0 -6.5243267e-06 0 0)
(-1.618614 -0.23224966 0 6.4022479e-06 0 0)
(-1.6211533 -0.23248871 0 -6.3267522e-06 0 0)
(-1.619055 -0.23228699 0 6.272226e-06 0 0)
(-1.6207121 -0.23245092 0 -6.075659e-06 0 0)
(-1.6195034 -0.23232086 0 7.2796041e-06 0 0)
(-1.6204085 -0.23242879 0 -6.9614774e-06 0 0)
(-1.0461778 -0.45956358 0 -0.15699997 0 0)
(-1.7460079 -0.24508147 0 -0.004786361 0 0)
(-1.5431167 -0.23253295 0 -0.0024121275 0 0)
(-1.5831947 -0.23034864 0 -0.00018414749 0 0)
(-1.5084987 -0.22388909 0 -6.6944994e-05 0 0)
(-1.557749 -0.22825508 0 -4.5564332e-05 0 0)
(-1.5072126 -0.22371974 0 2.9120886e-05 0 0)
(-1.5522222 -0.22782784 0 -3.1789686e-05 0 0)
(-1.509705 -0.2239622 0 3.1629764e-05 0 0)
(-1.5494543 -0.22759554 0 -2.9890324e-05 0 0)
(-1.5120396 -0.2241804 0 2.8117847e-05 0 0)
(-1.5471637 -0.22739057 0 -2.6709366e-05 0 0)
(-1.5141068 -0.22437138 0 2.5017687e-05 0 0)
(-1.5451495 -0.22720877 0 -2.3673511e-05 0 0)
(-1.5159474 -0.22454112 0 2.2250774e-05 0 0)
(-1.5433692 -0.22704787 0 -2.1012769e-05 0 0)
(-1.5175863 -0.22469204 0 1.9790877e-05 0 0)
(-1.5417921 -0.22690521 0 -1.8682706e-05 0 0)
(-1.5190451 -0.2248262 0 1.7617762e-05 0 0)
(-1.5403924 -0.2267785 0 -1.663757e-05 0 0)
(-1.5203443 -0.22494553 0 1.5704981e-05 0 0)
(-1.5391481 -0.22666581 0 -1.4842448e-05 0 0)
(-1.5215025 -0.22505177 0 1.4025398e-05 0 0)
(-1.53804 -0.22656541 0 -1.3268792e-05 0 0)
(-1.5225367 -0.22514652 0 1.255397e-05 0 0)
(-1.5370512 -0.22647581 0 -1.1892151e-05 0 0)
(-1.523462 -0.22523118 0 1.1268323e-05 0 0)
(-1.5361667 -0.22639566 0 -1.0691321e-05 0 0)
(-1.5242921 -0.22530702 0 1.0148759e-05 0 0)
(-1.535373 -0.22632376 0 -9.6478393e-06 0 0)
(-1.525039 -0.22537516 0 9.178164e-06 0 0)
(-1.5346582 -0.22625904 0 -8.745696e-06 0 0)
(-1.5257138 -0.22543663 0 8.3416668e-06 0 0)
(-1.5340116 -0.22620055 0 -7.9711048e-06 0 0)
(-1.5263264 -0.22549232 0 7.6265678e-06 0 0)
(-1.5334235 -0.2261474 0 -7.3123836e-06 0 0)
(-1.5268858 -0.22554307 0 7.0221957e-06 0 0)
(-1.5328853 -0.22609884 0 -6.7598061e-06 0 0)
(-1.5274 -0.22558961 0 6.5197619e-06 0 0)
(-1.5323889 -0.22605413 0 -6.3055721e-06 0 0)
(-1.5278766 -0.22563262 0 6.1126881e-06 0 0)
(-1.531927 -0.22601263 0 -5.9442676e-06 0 0)
(-1.5283225 -0.22567273 0 5.7968177e-06 0 0)
(-1.531493 -0.22597374 0 -5.67454e-06 0 0)
(-1.5287442 -0.22571054 0 5.5683552e-06 0 0)
(-1.5310795 -0.22593689 0 -5.5076592e-06 0 0)
(-1.5291459 -0.22574633 0 5.4586247e-06 0 0)
(-1.5306764 -0.22590049 0 -5.2521578e-06 0 0)
(-1.5295484 -0.225778 0 6.5738922e-06 0 0)
(-1.5303708 -0.22587754 0 -6.3211803e-06 0 0)
(-1.0159915 -0.43937605 0 -0.14558056 0 0)
(-1.585632 -0.23439194 0 -0.0050910438 0 0)
(-1.4502323 -0.22618722 0 -0.0025892825 0 0)
(-1.4894256 -0.22371881 0 -0.00026699165 0 0)
(-1.4229468 -0.21751074 0 -0.00010107595 0 0)
(-1.4680531 -0.22161064 0 -4.4871158e-05 0 0)
(-1.4219306 -0.21728133 0 2.3305837e-05 0 0)
(-1.4629239 -0.22118836 0 -2.7123174e-05 0 0)
(-1.424101 -0.21750409 0 2.7598941e-05 0 0)
(-1.4603599 -0.22096707 0 -2.5938834e-05 0 0)
(-1.4262092 -0.21771171 0 2.4455781e-05 0 0)
(-1.4582651 -0.22077205 0 -2.3254671e-05 0 0)
(-1.4280915 -0.21789376 0 2.175727e-05 0 0)
(-1.4564259 -0.22059883 0 -2.0606924e-05 0 0)
(-1.4297688 -0.21805551 0 1.9358145e-05 0 0)
(-1.4548005 -0.22044547 0 -1.8286639e-05 0 0)
(-1.4312623 -0.21819933 0 1.7221375e-05 0 0)
(-1.4533606 -0.22030948 0 -1.6257831e-05 0 0)
(-1.432592 -0.2183272 0 1.5331805e-05 0 0)
(-1.4520828 -0.22018869 0 -1.4478331e-05 0 0)
(-1.4337763 -0.21844093 0 1.366803e-05 0 0)
(-1.4509469 -0.22008125 0 -1.2916757e-05 0 0)
(-1.4348322 -0.21854221 0 1.2206956e-05 0 0)
(-1.4499354 -0.21998552 0 -1.1547955e-05 0 0)
(-1.4357751 -0.21863254 0 1.0926936e-05 0 0)
(-1.4490329 -0.21990007 0 -1.0350542e-05 0 0)
(-1.4366189 -0.21871328 0 9.808526e-06 0 0)
(-1.4482255 -0.21982362 0 -9.3060416e-06 0 0)
(-1.4373759 -0.21878561 0 8.8345759e-06 0 0)
(-1.4475011 -0.21975503 0 -8.3983801e-06 0 0)
(-1.4380571 -0.21885063 0 7.9902049e-06 0 0)
(-1.4468486 -0.21969327 0 -7.6136288e-06 0 0)
(-1.4386727 -0.21890929 0 7.262465e-06 0 0)
(-1.4462585 -0.21963743 0 -6.9397996e-06 0 0)
(-1.4392315 -0.21896246 0 6.6403199e-06 0 0)
(-1.4457217 -0.21958668 0 -6.3667539e-06 0 0)
(-1.4397417 -0.21901093 0 6.1145125e-06 0 0)
(-1.4452305 -0.21954028 0 -5.886057e-06 0 0)
(-1.4402108 -0.21905539 0 5.6774138e-06 0 0)
(-1.4447775 -0.21949755 0 -5.4909559e-06 0 0)
(-1.4406455 -0.21909652 0 5.3233858e-06 0 0)
(-1.4443561 -0.21945787 0 -5.1768331e-06 0 0)
(-1.4410522 -0.21913488 0 5.0489052e-06 0 0)
(-1.4439601 -0.21942066 0 -4.942809e-06 0 0)
(-1.4414368 -0.21917107 0 4.849914e-06 0 0)
(-1.4435832 -0.21938539 0 -4.8012545e-06 0 0)
(-1.4418031 -0.21920537 0 4.7553229e-06 0 0)
(-1.4432149 -0.21935039 0 -4.5413656e-06 0 0)
(-1.4421648 -0.21923509 0 5.9371418e-06 0 0)
(-1.442912 -0.21932682 0 -5.739025e-06 0 0)
(-0.98343877 -0.41686297 0 -0.13307934 0 0)
(-1.4368971 -0.22401525 0 -0.0052770981 0 0)
(-1.3598049 -0.21951806 0 -0.0026504432 0 0)
(-1.3971377 -0.2170579 0 -0.00036749758 0 0)
(-1.3390298 -0.21109457 0 -0.00013575029 0 0)
(-1.3808348 -0.21495925 0 -4.4997002e-05 0 0)
(-1.33892 -0.21083604 0 1.7966759e-05 0 0)
(-1.3763318 -0.21455165 0 -2.2986938e-05 0 0)
(-1.3408985 -0.21104304 0 2.4009285e-05 0 0)
(-1.3739831 -0.21434135 0 -2.2398966e-05 0 0)
(-1.342809 -0.21124053 0 2.1186402e-05 0 0)
(-1.372068 -0.2141559 0 -2.0163029e-05 0 0)
(-1.3445231 -0.21141392 0 1.8841749e-05 0 0)
(-1.3703884 -0.21399096 0 -1.7864114e-05 0 0)
(-1.3460517 -0.21156794 0 1.677076e-05 0 0)
(-1.3689041 -0.2138449 0 -1.5848483e-05 0 0)
(-1.347413 -0.2117049 0 1.4922962e-05 0 0)
(-1.3675893 -0.21371537 0 -1.4089056e-05 0 0)
(-1.3486251 -0.21182666 0 1.3287013e-05 0 0)
(-1.3664227 -0.21360031 0 -1.2547081e-05 0 0)
(-1.3497048 -0.21193498 0 1.184595e-05 0 0)
(-1.3653857 -0.21349795 0 -1.1194338e-05 0 0)
(-1.3506676 -0.21203146 0 1.0580297e-05 0 0)
(-1.3644623 -0.21340675 0 -1.0008706e-05 0 0)
(-1.3515274 -0.21211752 0 9.4714491e-06 0 0)
(-1.3636383 -0.21332532 0 -8.9715406e-06 0 0)
(-1.352297 -0.21219445 0 8.5025836e-06 0 0)
(-1.3629013 -0.21325245 0 -8.0668048e-06 0 0)
(-1.3529874 -0.2122634 0 7.6588319e-06 0 0)
(-1.3622399 -0.21318706 0 -7.2805641e-06 0 0)
(-1.3536089 -0.21232538 0 6.92731e-06 0 0)
(-1.3616443 -0.21312817 0 -6.6007475e-06 0 0)
(-1.3541704 -0.21238133 0 6.2967896e-06 0 0)
(-1.3611056 -0.2130749 0 -6.0169727e-06 0 0)
(-1.3546803 -0.21243205 0 5.7577186e-06 0 0)
(-1.3606156 -0.21302648 0 -5.5204762e-06 0 0)
(-1.3551459 -0.21247831 0 5.3020971e-06 0 0)
(-1.3601672 -0.21298218 0 -5.1039677e-06 0 0)
(-1.3555739 -0.21252076 0 4.9233187e-06 0 0)
(-1.3597537 -0.21294137 0 -4.7616121e-06 0 0)
(-1.3559705 -0.21256005 0 4.6165634e-06 0 0)
(-1.359369 -0.21290345 0 -4.4894712e-06 0 0)
(-1.3563416 -0.21259672 0 4.3788291e-06 0 0)
(-1.3590077 -0.21286788 0 -4.2869954e-06 0 0)
(-1.3566925 -0.21263133 0 4.2057844e-06 0 0)
(-1.3586638 -0.21283414 0 -4.167354e-06 0 0)
(-1.3570266 -0.21266416 0 4.1233974e-06 0 0)
(-1.3583273 -0.21280055 0 -3.9045765e-06 0 0)
(-1.357352 -0.21269216 0 5.3386167e-06 0 0)
(-1.3580307 -0.21277654 0 -5.1919964e-06 0 0)
(-0.9552252 -0.39326265 0 -0.11919659 0 0)
(-1.3014741 -0.21426987 0 -0.0053959827 0 0)
(-1.271931 -0.21230623 0 -0.0025456688 0 0)
(-1.3067381 -0.21043049 0 -0.00049696033 0 0)
(-1.257282 -0.20468772 0 -0.00017226518 0 0)
(-1.2961912 -0.2083086 0 -4.5660874e-05 0 0)
(-1.2582361 -0.20438504 0 1.3207054e-05 0 0)
(-1.2924233 -0.20791698 0 -1.9173368e-05 0 0)
(-1.2601098 -0.20457861 0 2.0798974e-05 0 0)
(-1.2903021 -0.2077181 0 -1.916782e-05 0 0)
(-1.2618526 -0.20476674 0 1.8229121e-05 0 0)
(-1.2885563 -0.20754204 0 -1.7352844e-05 0 0)
(-1.2634153 -0.20493185 0 1.6196812e-05 0 0)
(-1.2870235 -0.20738516 0 -1.5373917e-05 0 0)
(-1.2648086 -0.20507842 0 1.4422146e-05 0 0)
(-1.2856685 -0.20724615 0 -1.3635323e-05 0 0)
(-1.2660493 -0.20520874 0 1.2836447e-05 0 0)
(-1.2844683 -0.20712287 0 -1.212042e-05 0 0)
(-1.267154 -0.20532461 0 1.1430684e-05 0 0)
(-1.2834033 -0.20701335 0 -1.0793992e-05 0 0)
(-1.2681382 -0.2054277 0 1.019176e-05 0 0)
(-1.2824567 -0.20691591 0 -9.6307455e-06 0 0)
(-1.269016 -0.20551953 0 9.103463e-06 0 0)
(-1.2816138 -0.20682908 0 -8.6113124e-06 0 0)
(-1.2698001 -0.20560146 0 8.1499503e-06 0 0)
(-1.2808617 -0.20675154 0 -7.7195399e-06 0 0)
(-1.2705018 -0.20567472 0 7.3167836e-06 0 0)
(-1.2801889 -0.20668214 0 -6.9416038e-06 0 0)
(-1.2711315 -0.20574038 0 6.5911653e-06 0 0)
(-1.2795853 -0.20661985 0 -6.2655126e-06 0 0)
(-1.2716984 -0.20579943 0 5.9620248e-06 0 0)
(-1.2790416 -0.20656373 0 -5.6808794e-06 0 0)
(-1.2722107 -0.20585274 0 5.4196937e-06 0 0)
(-1.2785498 -0.20651295 0 -5.1787777e-06 0 0)
(-1.2726759 -0.2059011 0 4.955964e-06 0 0)
(-1.2781025 -0.20646678 0 -4.7516869e-06 0 0)
(-1.2731006 -0.20594521 0 4.5639705e-06 0 0)
(-1.2776931 -0.20642453 0 -4.3933457e-06 0 0)
(-1.2734912 -0.20598572 0 4.238024e-06 0 0)
(-1.2773157 -0.20638558 0 -4.0987398e-06 0 0)
(-1.2738531 -0.20602321 0 3.9740289e-06 0 0)
(-1.2769646 -0.20634937 0 -3.8645197e-06 0 0)
(-1.2741917 -0.20605824 0 3.7694192e-06 0 0)
(-1.2766348 -0.20631539 0 -3.6903605e-06 0 0)
(-1.2745118 -0.20609131 0 3.6196162e-06 0 0)
(-1.2763212 -0.20628315 0 -3.5899546e-06 0 0)
(-1.2748167 -0.20612273 0 3.5473838e-06 0 0)
(-1.2760139 -0.20625096 0 -3.3261207e-06 0 0)
(-1.2751094 -0.20614917 0 4.7679072e-06 0 0)
(-1.275726 -0.20622666 0 -4.674156e-06 0 0)
(-0.93591949 -0.37573248 0 -0.10926414 0 0)
(-1.1790908 -0.2045325 0 -0.005311309 0 0)
(-1.1842853 -0.20505934 0 -0.0024932645 0 0)
(-1.2215927 -0.20363949 0 -0.00052191419 0 0)
(-1.17839 -0.1982209 0 -0.00018431188 0 0)
(-1.2144648 -0.2016583 0 -4.2814542e-05 0 0)
(-1.1800333 -0.19793139 0 9.3689184e-06 0 0)
(-1.2112416 -0.20128671 0 -1.5698387e-05 0 0)
(-1.1817758 -0.19811197 0 1.7867692e-05 0 0)
(-1.2093131 -0.2010978 0 -1.6235412e-05 0 0)
(-1.1833589 -0.19829059 0 1.5537213e-05 0 0)
(-1.207719 -0.20093055 0 -1.4794855e-05 0 0)
(-1.1847815 -0.19844761 0 1.3789648e-05 0 0)
(-1.2063201 -0.2007814 0 -1.3107256e-05 0 0)
(-1.1860505 -0.19858698 0 1.2284316e-05 0 0)
(-1.2050836 -0.20064921 0 -1.1620938e-05 0 0)
(-1.1871808 -0.19871088 0 1.0937098e-05 0 0)
(-1.2039884 -0.20053196 0 -1.0328556e-05 0 0)
(-1.1881873 -0.19882106 0 9.7408287e-06 0 0)
(-1.2030167 -0.20042779 0 -9.1982512e-06 0 0)
(-1.1890841 -0.1989191 0 8.6858611e-06 0 0)
(-1.202153 -0.20033511 0 -8.2074139e-06 0 0)
(-1.1898841 -0.19900644 0 7.7589545e-06 0 0)
(-1.2013839 -0.2002525 0 -7.3391853e-06 0 0)
(-1.1905987 -0.19908438 0 6.9467813e-06 0 0)
(-1.2006977 -0.20017872 0 -6.5796794e-06 0 0)
(-1.1912384 -0.19915408 0 6.2370762e-06 0 0)
(-1.2000839 -0.20011267 0 -5.9170878e-06 0 0)
(-1.1918125 -0.19921657 0 5.6189296e-06 0 0)
(-1.199533 -0.20005337 0 -5.341188e-06 0 0)
(-1.1923294 -0.19927278 0 5.0829217e-06 0 0)
(-1.1990369 -0.19999994 0 -4.8431248e-06 0 0)
(-1.1927965 -0.19932355 0 4.6208025e-06 0 0)
(-1.1985882 -0.19995158 0 -4.4152943e-06 0 0)
(-1.1932208 -0.19936961 0 4.2255856e-06 0 0)
(-1.19818 -0.19990758 0 -4.0513038e-06 0 0)
(-1.1936082 -0.19941165 0 3.8914334e-06 0 0)
(-1.1978065 -0.1998673 0 -3.7458205e-06 0 0)
(-1.1939645 -0.19945026 0 3.6134815e-06 0 0)
(-1.1974621 -0.19983016 0 -3.4945654e-06 0 0)
(-1.1942946 -0.19948602 0 3.388279e-06 0 0)
(-1.1971417 -0.19979562 0 -3.2947049e-06 0 0)
(-1.1946034 -0.19951945 0 3.2136285e-06 0 0)
(-1.1968409 -0.19976318 0 -3.1460566e-06 0 0)
(-1.1948954 -0.19955103 0 3.0847482e-06 0 0)
(-1.1965549 -0.1997324 0 -3.0625756e-06 0 0)
(-1.1951735 -0.19958106 0 3.0211328e-06 0 0)
(-1.1962744 -0.19970159 0 -2.7995961e-06 0 0)
(-1.1954369 -0.19960609 0 4.2229527e-06 0 0)
(-1.1959971 -0.19967715 0 -4.1853516e-06 0 0)
(-0.91794756 -0.35269771 0 -0.095257119 0 0)
(-1.0746019 -0.19567615 0 -0.005157541 0 0)
(-1.0979549 -0.19792654 0 -0.0025060733 0 0)
(-1.1421425 -0.19667502 0 -0.000424932 0 0)
(-1.1023248 -0.19164098 0 -0.00015785108 0 0)
(-1.1355965 -0.19498214 0 -3.0083499e-05 0 0)
(-1.1042799 -0.19146335 0 8.6228002e-06 0 0)
(-1.1327429 -0.1946561 0 -1.1810492e-05 0 0)
(-1.1058936 -0.1916414 0 1.5401824e-05 0 0)
(-1.1309945 -0.19447964 0 -1.3503849e-05 0 0)
(-1.1073353 -0.19181188 0 1.3101875e-05 0 0)
(-1.129543 -0.19432122 0 -1.2455518e-05 0 0)
(-1.1086311 -0.19196123 0 1.1596789e-05 0 0)
(-1.128268 -0.1941796 0 -1.1039258e-05 0 0)
(-1.1097867 -0.19209366 0 1.0334884e-05 0 0)
(-1.1271408 -0.19405401 0 -9.7837923e-06 0 0)
(-1.1108157 -0.19221138 0 9.20481e-06 0 0)
(-1.1261422 -0.19394259 0 -8.6944043e-06 0 0)
(-1.1117322 -0.19231606 0 8.1995185e-06 0 0)
(-1.1252561 -0.19384359 0 -7.742905e-06 0 0)
(-1.1125488 -0.19240922 0 7.3122719e-06 0 0)
(-1.1244687 -0.1937555 0 -6.9092287e-06 0 0)
(-1.1132773 -0.19249222 0 6.5325034e-06 0 0)
(-1.1237675 -0.19367697 0 -6.1788208e-06 0 0)
(-1.1139282 -0.19256631 0 5.8491781e-06 0 0)
(-1.1231418 -0.19360683 0 -5.5398666e-06 0 0)
(-1.1145109 -0.19263257 0 5.2520154e-06 0 0)
(-1.1225821 -0.19354402 0 -4.9823971e-06 0 0)
(-1.115034 -0.19269199 0 4.7318282e-06 0 0)
(-1.1220799 -0.19348762 0 -4.4978045e-06 0 0)
(-1.115505 -0.19274546 0 4.2807029e-06 0 0)
(-1.1216275 -0.19343678 0 -4.0786286e-06 0 0)
(-1.1159307 -0.19279376 0 3.8916826e-06 0 0)
(-1.1212183 -0.19339075 0 -3.7184703e-06 0 0)
(-1.1163174 -0.19283761 0 3.5588927e-06 0 0)
(-1.1208461 -0.19334886 0 -3.4119617e-06 0 0)
(-1.1166705 -0.19287763 0 3.2774282e-06 0 0)
(-1.1205054 -0.1933105 0 -3.1546107e-06 0 0)
(-1.1169953 -0.19291442 0 3.0431704e-06 0 0)
(-1.1201914 -0.19327512 0 -2.9428013e-06 0 0)
(-1.1172962 -0.1929485 0 2.8532451e-06 0 0)
(-1.1198993 -0.19324219 0 -2.7741542e-06 0 0)
(-1.1175777 -0.19298036 0 2.7057694e-06 0 0)
(-1.119625 -0.19321125 0 -2.6485688e-06 0 0)
(-1.1178439 -0.19301049 0 2.5958183e-06 0 0)
(-1.1193644 -0.19318189 0 -2.5800242e-06 0 0)
(-1.1180974 -0.19303918 0 2.5397109e-06 0 0)
(-1.1191086 -0.19315244 0 -2.3198986e-06 0 0)
(-1.1183344 -0.19306293 0 3.702492e-06 0 0)
(-1.1188433 -0.19312798 0 -3.7253738e-06 0 0)
(-0.90501682 -0.33889782 0 -0.087713229 0 0)
(-0.98821658 -0.18678268 0 -0.0045015661 0 0)
(-1.0134761 -0.19022378 0 -0.0026115531 0 0)
(-1.0625685 -0.18991996 0 -0.00047807948 0 0)
(-1.0283587 -0.18517101 0 -0.00016270332 0 0)
(-1.0592334 -0.18834075 0 -2.6437307e-05 0 0)
(-1.0309424 -0.18500319 0 5.9938279e-06 0 0)
(-1.056911 -0.18803183 0 -8.7637061e-06 0 0)
(-1.0324814 -0.18516946 0 1.3019599e-05 0 0)
(-1.0553417 -0.18786444 0 -1.1041979e-05 0 0)
(-1.0337959 -0.18533107 0 1.0866345e-05 0 0)
(-1.054021 -0.18771415 0 -1.0318428e-05 0 0)
(-1.0349743 -0.18547285 0 9.5907846e-06 0 0)
(-1.0528597 -0.18757973 0 -9.1482738e-06 0 0)
(-1.0360252 -0.18559856 0 8.5518755e-06 0 0)
(-1.0518328 -0.1874605 0 -8.1037968e-06 0 0)
(-1.0369611 -0.1857103 0 7.6203813e-06 0 0)
(-1.0509232 -0.1873547 0 -7.1999669e-06 0 0)
(-1.0377947 -0.18580967 0 6.7897252e-06 0 0)
(-1.0501162 -0.1872607 0 -6.4119033e-06 0 0)
(-1.0385375 -0.18589811 0 6.0558296e-06 0 0)
(-1.0493989 -0.18717704 0 -5.7218713e-06 0 0)
(-1.0392003 -0.18597692 0 5.4105785e-06 0 0)
(-1.0487602 -0.18710246 0 -5.117425e-06 0 0)
(-1.0397926 -0.18604728 0 4.8450391e-06 0 0)
(-1.0481903 -0.18703583 0 -4.588644e-06 0 0)
(-1.0403229 -0.18611022 0 4.3507489e-06 0 0)
(-1.0476805 -0.18697615 0 -4.1272424e-06 0 0)
(-1.040799 -0.18616668 0 3.9200988e-06 0 0)
(-1.047223 -0.18692255 0 -3.7260891e-06 0 0)
(-1.0412278 -0.1862175 0 3.546553e-06 0 0)
(-1.0468109 -0.18687422 0 -3.3789987e-06 0 0)
(-1.0416154 -0.18626342 0 3.2243364e-06 0 0)
(-1.046438 -0.18683045 0 -3.0806721e-06 0 0)
(-1.0419675 -0.18630511 0 2.9485899e-06 0 0)
(-1.046099 -0.18679061 0 -2.8266762e-06 0 0)
(-1.0422891 -0.18634319 0 2.7152581e-06 0 0)
(-1.0457886 -0.1867541 0 -2.6132824e-06 0 0)
(-1.0425849 -0.1863782 0 2.5208985e-06 0 0)
(-1.0455025 -0.18672042 0 -2.4374749e-06 0 0)
(-1.042859 -0.18641065 0 2.3631566e-06 0 0)
(-1.0452364 -0.18668905 0 -2.2972794e-06 0 0)
(-1.0431154 -0.186441 0 2.2404213e-06 0 0)
(-1.0449865 -0.18665958 0 -2.1926343e-06 0 0)
(-1.0433578 -0.18646971 0 2.1476945e-06 0 0)
(-1.0447492 -0.18663159 0 -2.1373208e-06 0 0)
(-1.0435887 -0.18649709 0 2.0983267e-06 0 0)
(-1.0445162 -0.18660349 0 -1.8820894e-06 0 0)
(-1.0438017 -0.18651966 0 3.2050291e-06 0 0)
(-1.0442638 -0.18657912 0 -3.2933649e-06 0 0)
(-0.88733354 -0.31685378 0 -0.075236091 0 0)
(-0.90979127 -0.17888901 0 -0.0041212967 0 0)
(-0.9375232 -0.18270121 0 -0.0024437385 0 0)
(-0.98663982 -0.1829373 0 -0.00042503815 0 0)
(-0.95703918 -0.17861073 0 -0.00013913618 0 0)
(-0.98548566 -0.18166778 0 -1.5622266e-05 0 0)
(-0.95999783 -0.17852627 0 5.7502812e-06 0 0)
(-0.98369775 -0.18140503 0 -5.3500665e-06 0 0)
(-0.96152218 -0.17869282 0 1.1023451e-05 0 0)
(-0.98232979 -0.18125069 0 -8.7289051e-06 0 0)
(-0.96274027 -0.17884762 0 8.8354032e-06 0 0)
(-0.98114066 -0.18110898 0 -8.352425e-06 0 0)
(-0.96381619 -0.17898242 0 7.7536431e-06 0 0)
(-0.98008697 -0.18098165 0 -7.4135299e-06 0 0)
(-0.96477207 -0.1791017 0 6.9171087e-06 0 0)
(-0.97915345 -0.18086859 0 -6.5632637e-06 0 0)
(-0.96562252 -0.17920768 0 6.1673689e-06 0 0)
(-0.97832609 -0.18076825 0 -5.8296283e-06 0 0)
(-0.96637984 -0.17930192 0 5.4967676e-06 0 0)
(-0.97759193 -0.18067907 0 -5.1913635e-06 0 0)
(-0.96705482 -0.17938581 0 4.9034424e-06 0 0)
(-0.97693943 -0.1805997 0 -4.6329664e-06 0 0)
(-0.96765712 -0.17946058 0 4.381492e-06 0 0)
(-0.97635843 -0.18052892 0 -4.1439422e-06 0 0)
(-0.96819541 -0.17952733 0 3.9239092e-06 0 0)
(-0.97583998 -0.18046568 0 -3.7161116e-06 0 0)
(-0.96867748 -0.17958707 0 3.5239015e-06 0 0)
(-0.97537614 -0.18040903 0 -3.3427327e-06 0 0)
(-0.96911032 -0.17964067 0 3.1753077e-06 0 0)
(-0.97495987 -0.18035814 0 -3.0180292e-06 0 0)
(-0.96950017 -0.17968892 0 2.8728556e-06 0 0)
(-0.97458493 -0.18031223 0 -2.7369829e-06 0 0)
(-0.96985266 -0.17973253 0 2.6118533e-06 0 0)
(-0.97424569 -0.18027065 0 -2.4953023e-06 0 0)
(-0.97017288 -0.17977214 0 2.3883718e-06 0 0)
(-0.97393713 -0.18023279 0 -2.2894085e-06 0 0)
(-0.97046541 -0.17980833 0 2.1991317e-06 0 0)
(-0.97365473 -0.18019809 0 -2.116269e-06 0 0)
(-0.97073444 -0.17984162 0 2.0413072e-06 0 0)
(-0.97339434 -0.18016605 0 -1.9734149e-06 0 0)
(-0.9709838 -0.17987249 0 1.913014e-06 0 0)
(-0.9731522 -0.18013621 0 -1.8592351e-06 0 0)
(-0.97121702 -0.17990137 0 1.8128789e-06 0 0)