/*--------------------------------*- C++ -*----------------------------------*\
| =========                 |                                                 |
| \\      /  F ield         | OpenFOAM: The Open Source CFD Toolbox           |
|  \\    /   O peration     | Version:  2312                                  |
|   \\  /    A nd           | Website:  www.openfoam.com                      |
|    \\/     M anipulation  |                                                 |
\*---------------------------------------------------------------------------*/
FoamFile
{
    version     2.0;
    format      ascii;
    arch        "LSB;label=32;scalar=64";
    class       volScalarField;
    location    "3";
    object      T;
}
// * * * * * * * * * * * * * * * * * * * * * * * * * * * * * * * * * * * * * //

dimensions      [0 0 0 1 0 0 0];

internalField   nonuniform List<scalar> 
4000
(
309.86573
311.05313
311.21387
311.29479
311.35098
311.40501
311.44617
311.49101
311.52675
311.567
311.60005
311.63752
311.66903
311.70463
311.73518
311.76943
311.79935
311.83258
311.86206
311.8945
311.92366
311.95547
311.98438
312.01569
312.04441
312.07531
312.10386
312.13443
312.16283
312.19314
312.2214
312.2515
312.27962
312.30956
312.33755
312.36736
312.3952
312.42493
312.4526
312.48227
312.50976
312.53941
312.56669
312.59634
312.62338
312.65307
312.67981
312.70964
312.73588
312.76646
307.74731
309.89899
310.32119
310.5085
310.62183
310.72857
310.79687
310.87609
310.92812
310.99359
311.03757
311.0947
311.13406
311.18559
311.22206
311.26955
311.30412
311.34856
311.38181
311.42388
311.45616
311.49635
311.5279
311.56658
311.59753
311.635
311.66544
311.70193
311.73192
311.76762
311.79719
311.83227
311.86142
311.89602
311.92475
311.95898
311.98727
312.02124
312.04904
312.08285
312.1101
312.14382
312.17046
312.20418
312.23009
312.26395
312.28895
312.32322
312.34674
312.38318
306.35411
308.77397
309.43426
309.72538
309.89513
310.05388
310.14926
310.26246
310.33084
310.42127
310.47625
310.55285
310.60014
310.66742
310.7099
310.77049
310.80979
310.86533
310.9024
310.95401
310.98947
311.03797
311.07219
311.11819
311.15141
311.19539
311.22776
311.27012
311.30173
311.34279
311.37368
311.41371
311.44391
311.48315
311.51264
311.55128
311.58002
311.61823
311.64616
311.68409
311.71112
311.74892
311.77491
311.81273
311.83751
311.87555
311.89882
311.93756
311.95838
312.00047
305.38406
307.70616
308.56216
308.95029
309.17435
309.38342
309.50551
309.65184
309.73653
309.85134
309.91739
310.01303
310.06834
310.15107
310.19966
310.27309
310.31721
310.38363
310.42463
310.4856
310.52433
310.58098
310.61795
310.67113
310.70669
310.75708
310.79143
310.83957
310.87284
310.91919
310.95144
310.99637
311.02764
311.07147
311.10173
311.14475
311.17395
311.21639
311.24445
311.28651
311.31331
311.35519
311.38055
311.42246
311.44614
311.48838
311.50995
311.55314
311.57135
311.61878
304.68026
306.72103
307.71675
308.18995
308.46425
308.72066
308.86854
309.04654
309.14729
309.28556
309.36265
309.47667
309.54007
309.63773
309.69252
309.77839
309.82743
309.90441
309.94944
310.0195
310.06158
310.12616
310.16597
310.22615
310.26411
310.32076
310.35714
310.41095
310.44592
310.49745
310.5311
310.58084
310.6132
310.66157
310.69262
310.73996
310.76964
310.81626
310.84447
310.89063
310.91721
310.96317
310.98791
311.03391
311.05651
311.10293
311.12286
311.17049
311.18623
311.23861
304.15396
305.83733
306.91119
307.45253
307.77059
308.0699
308.24192
308.44946
308.56568
308.7261
308.81403
308.94551
309.01695
309.12885
309.18988
309.28764
309.34169
309.42878
309.47792
309.55671
309.60223
309.67444
309.71715
309.78409
309.82452
309.88722
309.92569
309.98499
310.0217
310.07829
310.11335
310.1678
310.20127
310.25408
310.28593
310.33753
310.3677
310.41845
310.44681
310.49703
310.52341
310.5734
310.59754
310.64762
310.66917
310.71977
310.73811
310.79012
310.80358
310.86052
303.75199
305.06676
306.15822
306.74692
307.09991
307.4361
307.62975
307.86396
307.99468
308.17549
308.27383
308.42157
308.50088
308.62613
308.69334
308.8023
308.86136
308.95801
309.01129
309.09836
309.14736
309.22683
309.2725
309.34589
309.38883
309.45734
309.49792
309.56251
309.60099
309.66245
309.69895
309.75797
309.79255
309.8497
309.88235
309.93811
309.96877
310.02357
310.05209
310.10632
310.13249
310.18648
310.21005
310.26416
310.2847
310.33942
310.35627
310.41256
310.42398
310.48508
303.43964
304.41293
305.46878
306.08197
306.45901
306.82463
307.03646
307.29375
307.4375
307.63652
307.74459
307.90707
307.99393
308.13141
308.20465
308.32395
308.38796
308.49348
308.5509
308.64569
308.69819
308.78447
308.83311
308.91258
308.95805
309.03205
309.07477
309.14439
309.18464
309.25078
309.28872
309.35213
309.38782
309.44916
309.4826
309.54242
309.57354
309.63231
309.66097
309.71913
309.74511
309.80303
309.82603
309.88411
309.9037
309.96246
309.97792
310.03837
310.048
310.11287
303.1938
303.87335
304.85092
305.46571
305.85454
306.24093
306.46667
306.74271
306.89758
307.11218
307.22899
307.40444
307.4983
307.64671
307.72569
307.85432
307.92311
308.03671
308.09818
308.20005
308.256
308.34856
308.40015
308.48527
308.53324
308.61238
308.65722
308.73158
308.77358
308.84415
308.8835
308.9511
308.98789
309.05324
309.08745
309.15117
309.18275
309.24536
309.27415
309.33612
309.36191
309.42366
309.44612
309.50808
309.52677
309.58947
309.60366
309.66809
309.67621
309.74451
302.99771
303.43964
304.30915
304.90458
305.29252
305.69023
305.92487
306.21478
306.37837
306.60555
306.72981
306.91617
307.01629
307.17412
307.2584
307.39522
307.46852
307.58929
307.65462
307.76284
307.82212
307.92037
307.97482
308.0651
308.11551
308.19939
308.24628
308.32505
308.36876
308.44347
308.48419
308.55575
308.59358
308.66274
308.69769
308.76514
308.79714
308.86344
308.89234
308.95799
308.98358
309.04903
309.07098
309.13668
309.15454
309.22103
309.23409
309.30228
309.30918
309.38058
302.8394
303.10005
303.84439
304.40298
304.77782
305.17717
305.41525
305.71371
305.88324
306.11965
306.24981
306.44478
306.55023
306.7158
306.80477
306.94849
307.0259
307.15284
307.22177
307.33553
307.39794
307.50122
307.55838
307.65328
307.70601
307.79418
307.84303
307.92583
307.97115
308.0497
308.09171
308.16695
308.20575
308.27851
308.31412
308.3851
308.41747
308.48728
308.51626
308.58544
308.61081
308.67981
308.70126
308.77055
308.78764
308.85775
308.86981
308.94152
308.94746
309.02168
302.70978
302.84039
303.45415
303.96289
304.31391
304.70554
304.94141
305.2429
305.41529
305.65738
305.79162
305.99272
306.10236
306.27384
306.36677
306.51598
306.59701
306.72899
306.80117
306.91957
306.98485
307.09244
307.15209
307.25101
307.30589
307.39786
307.44853
307.53494
307.58176
307.66379
307.70698
307.78561
307.82529
307.90138
307.93758
308.01187
308.04453
308.11766
308.14666
308.21917
308.2443
308.31667
308.33764
308.41033
308.42671
308.50021
308.51142
308.58638
308.5916
308.66839
302.60208
302.64594
303.13322
303.58394
303.90256
304.278
304.50621
304.80521
304.97725
305.22132
305.35767
305.56228
305.67483
305.85028
305.94628
306.09949
306.18351
306.31937
306.39432
306.51643
306.58422
306.69534
306.75721
306.85952
306.91632
307.01155
307.06384
307.15343
307.20157
307.2867
307.33093
307.41262
307.45306
307.5322
307.56888
307.64622
307.67911
307.7553
307.78428
307.8599
307.88477
307.96029
307.98078
308.05664
308.07238
308.14903
308.15952
308.23744
308.24214
308.32128
302.51118
302.50241
302.87433
303.26355
303.54383
303.89598
304.11154
304.40283
304.57131
304.81371
304.95006
305.15553
305.26956
305.44697
305.54507
305.70072
305.78701
305.9255
306.00269
306.1275
306.19737
306.31121
306.37496
306.47998
306.53841
306.63635
306.69001
306.7823
306.83156
306.91939
306.96449
307.04889
307.08994
307.17181
307.20885
307.28896
307.32197
307.40098
307.42986
307.50833
307.5329
307.61132
307.63135
307.71013
307.72529
307.80481
307.8147
307.89529
307.89963
307.9809
302.43324
302.39706
302.66905
302.99737
303.2361
303.55955
303.75829
304.03718
304.19905
304.43625
304.5705
304.77419
304.88823
305.06558
305.16469
305.32119
305.40895
305.5488
305.62761
305.75409
305.82556
305.94126
306.00649
306.11352
306.17326
306.2733
306.32807
306.42254
306.47269
306.56278
306.60854
306.69527
306.73676
306.82103
306.85829
306.94086
306.97388
307.05541
307.08411
307.16517
307.1894
307.27045
307.29
307.37142
307.38604
307.46814
307.47754
307.56048
307.5646
307.64779
302.36541
302.31908
302.50854
302.77974
302.97634
303.26755
303.4463
303.70881
303.86135
304.09013
304.22025
304.41962
304.53218
304.70748
304.80648
304.96225
305.05061
305.19055
305.2703
305.39741
305.46992
305.58664
305.65289
305.7612
305.82186
305.9234
305.97895
306.07509
306.12586
306.21776
306.26394
306.35261
306.39434
306.48064
306.51796
306.60266
306.63556
306.71932
306.74774
306.83108
306.85491
306.93829
306.95737
307.04111
307.05524
307.1396
307.1486
307.23359
307.23756
307.32246
302.30559
302.25991
302.38423
302.60429
302.76041
303.01767
303.17438
303.41742
303.55838
303.7759
303.90003
304.09276
304.20238
304.37374
304.4715
304.62501
304.71308
304.85185
304.93181
305.0585
305.13148
305.24833
305.31511
305.42398
305.48515
305.58757
305.64355
305.74082
305.79189
305.88513
305.93149
306.02167
306.06343
306.15139
306.18859
306.27508
306.30772
306.39336
306.42141
306.50671
306.53009
306.61547
306.63405
306.7198
306.73347
306.81975
306.82842
306.91514
306.91902
307.00542
302.25225
302.21309
302.28829
302.46438
302.58343
302.80671
302.94049
303.16191
303.28959
303.49352
303.61005
303.79407
303.8994
304.06507
304.1605
304.31028
304.39717
304.53356
304.613
304.73827
304.81108
304.92722
304.99401
305.1027
305.16394
305.26661
305.32264
305.4205
305.47156
305.56566
305.61192
305.70318
305.74474
305.83397
305.87086
305.95876
305.99101
306.07817
306.10575
306.19267
306.21552
306.30256
306.32064
306.40804
306.42126
306.50912
306.51751
306.60564
306.60947
306.69713
302.20426
302.1741
302.21393
302.35359
302.44013
302.63081
302.74185
302.94049
303.05378
303.24236
303.34998
303.52355
303.6234
303.78183
303.8739
304.01862
304.10346
304.23632
304.31451
304.43738
304.50941
304.624
304.69027
304.79808
304.85893
304.96123
305.01691
305.11481
305.16553
305.26001
305.30588
305.39779
305.4389
305.52899
305.56538
305.65432
305.686
305.77434
305.80132
305.8895
305.91177
306.00011
306.01764
306.10634
306.11913
306.20821
306.21634
306.30557
306.30935
306.39803
302.16082
302.13992
302.15556
302.26602
302.32521
302.48577
302.57516
302.75075
302.84918
303.02122
303.119
303.28073
303.37411
303.52398
303.61177
303.75025
303.83222
303.96053
304.03675
304.15633
304.22695
304.33922
304.40443
304.51067
304.57066
304.67199
304.72693
304.82434
304.87437
304.96873
305.01393
305.10604
305.14646
305.23701
305.27269
305.36227
305.39325
305.48237
305.50865
305.59771
305.61932
305.70859
305.72554
305.81518
305.82752
305.91748
305.92537
306.01538
306.0191
306.10853
302.12131
302.10877
302.10877
302.19652
302.23364
302.36724
302.4368
302.5899
302.67355
302.82846
302.91583
303.06475
303.15088
303.29115
303.37387
303.5051
303.58347
303.70631
303.77989
303.89537
303.96399
304.07322
304.13684
304.24088
304.29955
304.39934
304.45313
304.54953
304.59851
304.6923
304.73652
304.82839
304.86788
304.95847
304.99324
305.08308
305.11318
305.20272
305.22818
305.31775
305.33862
305.42845
305.44478
305.53498
305.54687
305.63735
305.64498
305.73544
305.7391
305.82899
302.08529
302.07963
302.07024
302.14078
302.16082
302.271
302.32305
302.45485
302.52433
302.66205
302.73882
302.87434
302.95272
303.08259
303.15963
303.28281
303.35694
303.47354
303.54388
303.65454
303.72061
303.82615
303.88768
303.98892
304.04583
304.14354
304.1958
304.29069
304.3383
304.43105
304.47401
304.56522
304.60353
304.69375
304.72742
304.81712
304.84619
304.93575
304.96028
305.04998
305.07003
305.16005
305.17572
305.26611
305.27752
305.36816
305.37552
305.46612
305.46969
305.55976
302.05239
302.05207
302.03759
302.09533
302.10278
302.19312
302.23026
302.34242
302.39875
302.51972
302.58604
302.70795
302.7783
302.89729
302.9682
303.08272
303.1521
303.26184
303.32843
303.43367
303.49668
303.59796
303.65695
303.75487
303.8096
303.90474
303.9551
304.04802
304.09394
304.18521
304.22663
304.31676
304.35366
304.44311
304.47549
304.56467
304.59256
304.68177
304.70525
304.79471
304.81386
304.9037
304.91865
305.00887
305.01977
305.11023
305.1173
305.20771
305.21116
305.3011
302.02233
302.02593
302.00917
302.05751
302.05615
302.13008
302.15496
302.24948
302.29398
302.39902
302.45533
302.56378
302.62607
302.73397
302.79846
302.90394
302.96819
303.0706
303.13301
303.23235
303.29189
303.38843
303.44448
303.5386
303.59079
303.68291
303.73103
303.82157
303.86548
303.95488
303.99449
304.08316
304.11842
304.20674
304.23764
304.32591
304.3525
304.44097
304.4633
304.55215
304.57034
304.65963
304.67381
304.76351
304.77386
304.8638
304.87054
304.96044
304.96376
305.05326
301.99484
302.00121
301.9839
302.02534
302.01823
302.07884
302.09402
302.17303
302.20721
302.29745
302.34445
302.43987
302.49429
302.59113
302.64912
302.74537
302.80424
302.89903
302.95694
303.05002
303.10574
303.19716
303.24992
303.33986
303.38918
303.47789
303.52347
303.61124
303.65289
303.74003
303.77761
303.86444
303.89788
303.98468
304.01395
304.10096
304.1261
304.21349
304.23457
304.32246
304.3396
304.428
304.44136
304.53019
304.53996
304.62905
304.63543
304.72451
304.72767
304.81642
301.96972
301.97799
301.96109
301.99738
301.9869
302.03688
302.04469
302.11034
302.13578
302.21254
302.2511
302.33418
302.38112
302.46716
302.51871
302.60574
302.65911
302.74613
302.79933
302.88591
302.93755
303.02357
303.07276
303.15822
303.20439
303.28937
303.33216
303.41682
303.45597
303.54052
303.57587
303.66052
303.69196
303.77691
303.8044
303.88981
303.91339
303.99936
304.01911
304.10569
304.12173
304.20889
304.22139
304.30902
304.31817
304.40609
304.41209
304.50004
304.50301
304.5907
301.94678
301.9563
301.94033
301.97266
301.96057
302.00213
302.00463
302.05894
302.07723
302.14194
302.17306
302.24466
302.28464
302.36033
302.40566
302.48364
302.53154
302.61078
302.65916
302.73914
302.78652
302.86695
302.91237
302.9931
303.03592
303.1169
303.15669
303.23797
303.27443
303.3561
303.38904
303.47122
303.5005
303.5833
303.60888
303.69238
303.7143
303.79853
303.81687
303.90182
303.9167
304.00231
304.01391
304.10003
304.10853
304.19498
304.20055
304.28708
304.28985
304.37619
301.92585
301.93619
301.92139
301.95054
301.93805
301.97299
301.97187
302.01674
302.02936
302.08348
302.10819
302.16931
302.20296
302.26892
302.30835
302.37762
302.42015
302.49176
302.5353
302.60868
302.65172
302.72647
302.76798
302.84384
302.88314
302.95994
302.99657
303.07424
303.10786
303.1864
303.21679
303.29622
303.32324
303.4036
303.42719
303.50848
303.52867
303.61086
303.62773
303.71076
303.72444
303.8082
303.81886
303.90318
303.911
303.99569
304.00082
304.08565
304.0882
304.1729
301.90678
301.91765
301.9041
301.93057
301.91851
301.94823
301.94487
301.98193
301.99022
302.03518
302.05453
302.10622
302.13424
302.19119
302.22515
302.28614
302.32354
302.38776
302.42656
302.49343
302.53212
302.60119
302.63873
302.70964
302.74534
302.81782
302.85119
302.92507
302.95576
303.03095
303.0587
303.13517
303.15982
303.23751
303.25902
303.33785
303.35625
303.43614
303.45149
303.53234
303.54477
303.62642
303.63611
303.71837
303.72547
303.80814
303.81282
303.89567
303.89799
303.98079
301.88946
301.90066
301.88839
301.91251
301.90135
301.92691
301.92237
301.95305
301.95818
301.99532
302.01029
302.05362
302.07676
302.12547
302.15445
302.20772
302.24027
302.29745
302.33166
302.39223
302.42663
302.4901
302.52369
302.58964
302.62171
302.6898
302.71986
302.78983
302.81751
302.88922
302.91426
302.98757
303.00982
303.08461
303.10401
303.18016
303.19672
303.27408
303.28788
303.3663
303.37747
303.45676
303.46546
303.54541
303.5518
303.6322
303.6364
303.71704
303.71913
303.79976
301.87377
301.88518
301.87418
301.89617
301.8862
301.90839
301.90344
301.92891
301.93186
301.96238
301.9739
302.00992
302.02889
302.07019
302.09472
302.14086
302.16895
302.2195
302.24936
302.30387
302.33414
302.39216
302.42186
302.48291
302.51138
302.57505
302.6018
302.66781
302.69247
302.76057
302.78288
302.8529
302.87271
302.94445
302.9617
303.03498
303.04969
303.12432
303.13657
303.21234
303.22224
303.29895
303.30665
303.38408
303.38973
303.46765
303.47137
303.54958
303.55143
303.62968
301.85962
301.87118
301.86143
301.88144
301.87277
301.89216
301.88735
301.90857
301.91013
301.93512
301.94398
301.97368
301.98919
302.02389
302.04453
302.08418
302.10819
302.15258
302.17838
302.22718
302.2535
302.30626
302.33221
302.38847
302.41342
302.47273
302.49622
302.55822
302.5799
302.64433
302.66393
302.73054
302.74793
302.81648
302.8316
302.90184
302.91472
302.98643
302.99713
303.07008
303.07872
303.15266
303.15937
303.23408
303.239
303.31425
303.31749
303.39306
303.39467
303.47034
301.84696
301.85861
301.85009
301.86824
301.86089
301.8779
301.87358
301.89132
301.8921
301.91247
301.91937
301.94367
301.95635
301.98526
302.00254
302.03634
302.05672
302.09545
302.11751
302.16095
302.18357
302.23134
302.25371
302.30534
302.3269
302.38192
302.40224
302.46028
302.47903
302.53976
302.5567
302.61984
302.63485
302.70011
302.71313
302.78023
302.79128
302.85995
302.86912
302.9391
302.94648
303.01752
303.02324
303.09508
303.09927
303.17169
303.17444
303.24722
303.24858
303.32149
301.83575
301.84745
301.8401
301.85651
301.85042
301.86536
301.86173
301.87658
301.87705
301.89358
301.8991
301.9188
301.92924
301.95311
301.96755
301.99615
302.01332
302.0469
302.06558
302.10406
302.12326
302.16632
302.18533
302.23253
302.25086
302.30173
302.31901
302.37314
302.38907
302.44611
302.46048
302.52012
302.5328
302.59471
302.60569
302.66955
302.67884
302.74436
302.75204
302.81893
302.82509
302.89308
302.89785
302.96668
302.97016
303.0396
303.04189
303.11172
303.11285
303.18286
301.82598
301.83765
301.83143
301.84619
301.84126
301.85435
301.85152
301.86394
301.86441
301.87776
301.88236
301.89818
301.90689
301.9264
301.93848
301.9625
301.97689
302.00584
302.0215
302.05542
302.0715
302.11017
302.12607
302.16906
302.18437
302.23123
302.24564
302.29595
302.3092
302.3626
302.3745
302.43064
302.4411
302.49963
302.50864
302.56922
302.5768
302.6391
302.64533
302.70905
302.71403
302.77889
302.78272
302.84845
302.85124
302.91761
302.91943
302.98621
302.98712
303.0541
301.81768
301.82922
301.82402
301.83722
301.83332
301.84474
301.84271
301.85308
301.85376
301.86445
301.8685
301.88106
301.88846
301.90424
301.9144
301.9344
301.94643
301.97124
301.98424
302.01402
302.02729
302.06189
302.07495
302.11399
302.1265
302.16954
302.18126
302.22788
302.2386
302.28844
302.29801
302.35069
302.35904
302.41419
302.42133
302.47859
302.48455
302.54359
302.54845
302.60894
302.61279
302.67445
302.67739
302.73994
302.74207
302.80527
302.80666
302.87031
302.871
302.93487
301.81088
301.8221
301.81782
301.82952
301.82653
301.83641
301.83515
301.84374
301.84476
301.85323
301.85698
301.86681
301.87326
301.88586
301.89449
301.911
301.92104
301.94218
301.95288
301.97893
301.98971
302.02057
302.03106
302.0664
302.07637
302.11578
302.12502
302.16811
302.17648
302.22285
302.23024
302.27952
302.28589
302.33771
302.34308
302.39704
302.40147
302.45723
302.46079
302.51803
302.52081
302.57923
302.58133
302.64065
302.64216
302.70215
302.70313
302.76358
302.76406
302.82476
301.80558
301.81627
301.81275
301.82301
301.82081
301.82925
301.8287
301.83572
301.83715
301.84373
301.84739
301.85492
301.8607
301.87061
301.87804
301.89154
301.89994
301.91785
301.92659
301.94927
301.95789
301.98533
301.99354
302.02546
302.03312
302.06912
302.07612
302.11582
302.12204
302.16507
302.17045
302.21642
302.22096
302.26948
302.27321
302.3239
302.3269
302.37941
302.38175
302.43574
302.43752
302.49269
302.494
302.55009
302.55101
302.60777
302.60836
302.66559
302.66587
302.72336
301.80175
301.81164
301.80871
301.8176
301.81605
301.82317
301.82323
301.82887
301.83071
301.8357
301.83938
301.84499
301.85032
301.85795
301.86446
301.87536
301.88244
301.89751
301.90461
301.9243
301.93105
301.95538
301.96161
301.99035
301.99598
302.02879
302.03376
302.07026
302.07453
302.11435
302.11791
302.16066
302.16353
302.20884
302.21107
302.25854
302.26023
302.30951
302.31074
302.3615
302.36236
302.4143
302.41488
302.46773
302.4681
302.52164
302.52186
302.57587
302.57597
302.63025
301.79926
301.8081
301.80562
301.8132
301.81217
301.81805
301.81865
301.82305
301.82529
301.82891
301.83269
301.83667
301.84172
301.84742
301.85325
301.86193
301.86795
301.88055
301.88629
301.90331
301.90848
301.93001
301.93452
301.96036
301.9642
301.99403
301.99722
302.03069
302.03323
302.06999
302.0719
302.11157
302.11292
302.15512
302.15599
302.20032
302.20082
302.24693
302.24714
302.29472
302.29474
302.34349
302.3434
302.39305
302.39293
302.44326
302.44315
302.49395
302.49389
302.54497
301.79789
301.8055
301.80334
301.80967
301.80906
301.81381
301.81485
301.81815
301.82074
301.82317
301.8271
301.8297
301.8346
301.83866
301.84399
301.85077
301.85597
301.86641
301.87106
301.88571
301.88957
301.90856
301.91162
301.9348
301.9371
301.96417
301.96581
301.99644
301.99746
302.03131
302.03178
302.06849
302.06849
302.10768
302.10734
302.14862
302.14805
302.19108
302.19038
302.23484
302.2341
302.27971
302.27902
302.32553
302.32495
302.37212
302.37172
302.41936
302.41915
302.46707
301.79736
301.80369
301.80173
301.80691
301.80663
301.81034
301.81173
301.81404
301.81693
301.81834
301.82242
301.82386
301.82868
301.83136
301.83634
301.84148
301.84606
301.85463
301.85841
301.87096
301.87376
301.89047
301.89232
301.91307
301.91408
301.9386
301.9389
301.96688
301.96658
301.99769
301.99689
302.03078
302.02961
302.06591
302.06451
302.10285
302.10133
302.14138
302.13986
302.1813
302.17988
302.22244
302.22121
302.26464
302.26366
302.30774
302.30707
302.35161
302.35127
302.3961
301.79737
301.80246
301.80066
301.80478
301.80477
301.80753
301.8092
301.81063
301.81378
301.81429
301.81852
301.81897
301.82376
301.82527
301.83001
301.83375
301.83787
301.8448
301.84791
301.85861
301.86057
301.87523
301.8761
301.89463
301.89457
301.91673
301.91592
301.94142
301.94001
301.96854
301.96666
301.99788
301.9957
302.02924
302.02691
302.06243
302.06009
302.09726
302.09504
302.13355
302.13154
302.17114
302.16944
302.20988
302.20855
302.24962
302.24872
302.29024
302.28978
302.33158
301.79766
301.80166
301.80001
301.80319
301.80337
301.8053
301.80718
301.80784
301.81117
301.81092
301.81527
301.81487
301.81966
301.82017
301.82476
301.82729
301.8311
301.83659
301.83921
301.84826
301.84958
301.86239
301.86249
301.879
301.87808
301.89807
301.89635
301.91955
301.91721
301.94331
301.94054
301.96923
301.9662
301.99712
301.99401
302.02683
302.0238
302.0582
302.05537
302.09107
302.08856
302.1253
302.1232
302.16074
302.15912
302.19728
302.19617
302.23477
302.23421
302.27309
301.79803
301.80114
301.79964
301.802
301.80235
301.80355
301.80559
301.80557
301.80904
301.80812
301.81257
301.81144
301.81625
301.8159
301.8204
301.82189
301.82548
301.82972
301.832
301.83958
301.84042
301.85157
301.85108
301.86575
301.86417
301.88216
301.87971
301.90077
301.89769
301.92153
301.91802
301.94433
301.9406
301.96904
301.96529
301.99554
301.99193
302.02369
302.02037
302.05336
302.05044
302.08443
302.08199
302.11676
302.11489
302.15024
302.14897
302.18475
302.18411
302.22016
301.79837
301.8008
301.79947
301.80114
301.80162
301.80219
301.80434
301.80374
301.8073
301.80581
301.81032
301.80858
301.8134
301.81232
301.81677
301.81736
301.82081
301.82395
301.826
301.83227
301.83278
301.84243
301.84153
301.85452
301.85244
301.86859
301.8656
301.88467
301.88101
301.90273
301.89865
301.92272
301.91844
301.94454
301.94027
301.96809
301.96402
301.99327
301.98954
302.01997
302.0167
302.04807
302.04536
302.07748
302.07539
302.10807
302.10666
302.13974
302.13903
302.17237
301.79864
301.80056
301.79942
301.80052
301.80111
301.80115
301.80337
301.80228
301.80589
301.80392
301.80845
301.80619
301.81101
301.80931
301.81373
301.81353
301.81691
301.81908
301.82099
301.8261
301.82641
301.8347
301.83352
301.84498
301.84255
301.85701
301.85362
301.87086
301.86678
301.88652
301.88201
301.90399
301.89928
301.92318
301.91852
301.94404
301.93961
301.96649
301.96245
301.99044
301.98691
302.01579
302.01287
302.04245
302.04021
302.07033
302.06881
302.09931
302.09855
302.12931
301.79882
301.80036
301.79943
301.80007
301.80076
301.80036
301.80262
301.80112
301.80473
301.80237
301.80689
301.80419
301.809
301.80676
301.81117
301.81029
301.81364
301.81495
301.8168
301.82086
301.82107
301.82813
301.82679
301.83685
301.83421
301.84711
301.84347
301.859
301.85464
301.87255
301.86773
301.88775
301.88275
301.90458
301.89964
301.923
301.91831
301.94295
301.93868
301.96437
301.96064
301.98717
301.98408
302.01128
302.00891
302.03661
302.03501
302.06307
302.06226
302.09057
301.79893
301.80019
301.79946
301.79974
301.80051
301.79977
301.80203
301.80021
301.80379
301.8011
301.80557
301.80251
301.80729
301.8046
301.80898
301.80752
301.81087
301.81141
301.81327
301.81638
301.81658
301.82251
301.82112
301.82989
301.82716
301.83863
301.83485
301.8488
301.84428
301.86048
301.85549
301.87368
301.86849
301.88839
301.88326
301.9046
301.89974
301.92228
301.91785
301.94137
301.93751
301.96182
301.95863
301.98356
301.98112
302.00653
302.00487
302.03062
302.02979
302.05578
301.79898
301.80002
301.79949
301.7995
301.80033
301.79932
301.80156
301.79949
301.803
301.80006
301.80445
301.8011
301.80581
301.80275
301.8071
301.80513
301.80849
301.80836
301.81026
301.81252
301.81276
301.81767
301.81632
301.82391
301.82118
301.83132
301.82752
301.84001
301.83542
301.85004
301.84497
301.86146
301.85619
301.87429
301.86906
301.88851
301.88356
301.90413
301.89962
301.92111
301.91717
301.9394
301.93615
301.95896
301.95646
301.97972
301.97804
302.00162
302.00077
302.02457
301.79899
301.79986
301.7995
301.7993
301.80018
301.79897
301.80118
301.79892
301.80233
301.7992
301.80347
301.79989
301.80451
301.80113
301.80545
301.80304
301.80642
301.80569
301.80766
301.80914
301.80949
301.81346
301.81222
301.81872
301.81608
301.82499
301.82125
301.83238
301.82784
301.84098
301.83593
301.85084
301.84557
301.86198
301.85675
301.87443
301.86946
301.8882
301.88366
301.90325
301.8993
301.91958
301.91631
301.93713
301.93462
301.95586
301.95416
301.97571
301.97486
301.99662
301.79897
301.7997
301.79948
301.79914
301.80005
301.7987
301.80084
301.79845
301.80173
301.79846
301.80259
301.79884
301.80334
301.79971
301.80397
301.80118
301.80458
301.80332
301.80538
301.80617
301.80666
301.80977
301.80868
301.81417
301.81169
301.81947
301.81587
301.82574
301.82132
301.83309
301.82814
301.84157
301.83638
301.85123
301.84606
301.8621
301.85718
301.87419
301.8697
301.88752
301.88359
301.90205
301.8988
301.91777
301.91527
301.93464
301.93295
301.9526
301.95174
301.97159
301.79892
301.79953
301.79944
301.79899
301.79992
301.79847
301.80052
301.79805
301.80117
301.79781
301.80177
301.7979
301.80225
301.79842
301.80261
301.7995
301.80291
301.80118
301.80334
301.8035
301.80415
301.80648
301.80559
301.81016
301.80789
301.81461
301.81121
301.81992
301.81568
301.82618
301.82139
301.83346
301.82841
301.84181
301.83676
301.85127
301.84645
301.86188
301.85747
301.87364
301.86978
301.88655
301.88335
301.9006
301.89814
301.91576
301.91409
301.93197
301.93113
301.9492
301.79884
301.79937
301.79937
301.79885
301.79977
301.79826
301.8002
301.79768
301.80062
301.79721
301.80097
301.79702
301.80121
301.79723
301.80132
301.79794
301.80136
301.79922
301.80148
301.80107
301.8019
301.80351
301.80285
301.80656
301.80454
301.81029
301.80714
301.81477
301.81077
301.82009
301.81552
301.82632
301.82147
301.83352
301.82864
301.84174
301.83707
301.85102
301.84674
301.86138
301.85763
301.87283
301.86972
301.88537
301.88297
301.89896
301.89734
301.91358
301.91276
301.92918
301.79874
301.7992
301.79927
301.7987
301.79959
301.79805
301.79985
301.79731
301.80005
301.79663
301.80016
301.79617
301.80017
301.79609
301.80006
301.79647
301.79987
301.79738
301.79973
301.79882
301.79983
301.80079
301.80037
301.8033
301.80156
301.80641
301.80355
301.81017
301.80646
301.81468
301.81038
301.82
301.81539
301.82619
301.82154
301.83332
301.82884
301.84143
301.8373
301.85054
301.84692
301.86067
301.85767
301.87184
301.86952
301.88401
301.88244
301.89717
301.89637
301.91126
301.79862
301.79903
301.79914
301.79854
301.79938
301.79782
301.79947
301.79692
301.79943
301.79603
301.79931
301.79533
301.7991
301.79497
301.79879
301.79505
301.79841
301.79563
301.79805
301.7967
301.79788
301.79826
301.79809
301.8003
301.79886
301.80288
301.80033
301.80603
301.80263
301.80983
301.80584
301.81437
301.81004
301.81968
301.81528
301.82585
301.82159
301.83292
301.82898
301.84092
301.83746
301.84988
301.847
301.8598
301.85758
301.87069
301.86918
301.88251
301.88175
301.89523
301.79848
301.79886
301.79899
301.79836
301.79912
301.79754
301.79901
301.79648
301.79875
301.79538
301.7984
301.79445
301.79799
301.79384
301.79749
301.79364
301.79694
301.79392
301.7964
301.79466
301.79602
301.79586
301.79595
301.79751
301.79637
301.79962
301.79741
301.80225
301.79918
301.80545
301.80178
301.8093
301.80528
301.81386
301.80973
301.81919
301.81517
301.82534
301.82162
301.83235
301.82907
301.84026
301.83753
301.84908
301.84697
301.8588
301.85737
301.86941
301.86869
301.88087
301.79832
301.79868
301.79882
301.79816
301.79881
301.79721
301.79848
301.79596
301.79797
301.79465
301.7974
301.79351
301.79679
301.79266
301.79613
301.79222
301.79543
301.79223
301.79475
301.79268
301.79419
301.79357
301.7939
301.79487
301.79403
301.79659
301.79471
301.79876
301.79605
301.80145
301.79812
301.80472
301.80102
301.80862
301.80479
301.81321
301.80946
301.81856
301.81507
301.8247
301.82162
301.83168
301.8291
301.8395
301.83751
301.84817
301.84682
301.85768
301.85699
301.86799
301.79814
301.7985
301.79861
301.7979
301.79842
301.79679
301.79784
301.79534
301.79708
301.79383
301.79629
301.79248
301.7955
301.79143
301.7947
301.79076
301.79387
301.79053
301.79307
301.79073
301.79237
301.79134
301.79191
301.79234
301.7918
301.79372
301.79219
301.79551
301.79315
301.79776
301.79479
301.80052
301.79716
301.80385
301.80034
301.80781
301.80434
301.81246
301.80921
301.81784
301.81495
301.82398