/*--------------------------------*- C++ -*----------------------------------*\
| =========                 |                                                 |
| \\      /  F ield         | OpenFOAM: The Open Source CFD Toolbox           |
|  \\    /   O peration     | Version:  2312                                  |
|   \\  /    A nd           | Website:  www.openfoam.com                      |
|    \\/     M anipulation  |                                                 |
\*---------------------------------------------------------------------------*/
FoamFile
{
    version     2.0;
    format      ascii;
    arch        "LSB;label=32;scalar=64";
    class       volVectorField;
    location    "3";
    object      U_0;
}
// * * * * * * * * * * * * * * * * * * * * * * * * * * * * * * * * * * * * * //

dimensions      [0 1 -1 0 0 0 0];

internalField   nonuniform List<vector> 
4000
(
(0.0023315106 0.0004248195 0)
(0.0030395833 -6.8309447e-06 0)
(0.0024285526 -3.4615602e-07 0)
(0.0025693538 2.2627449e-07 0)
(0.0024864451 -2.6100406e-07 0)
(0.002543473 2.3545874e-07 0)
(0.0024907161 -2.2230062e-07 0)
(0.0025386114 2.0880049e-07 0)
(0.0024939926 -1.960774e-07 0)
(0.0025357155 1.8452706e-07 0)
(0.0024965237 -1.7376245e-07 0)
(0.0025333124 1.6359421e-07 0)
(0.0024987292 -1.5412038e-07 0)
(0.0025312147 1.451871e-07 0)
(0.0025006886 -1.3682202e-07 0)
(0.0025293611 1.2896201e-07 0)
(0.0025024299 -1.215874e-07 0)
(0.0025277173 1.1467097e-07 0)
(0.0025039775 -1.0817867e-07 0)
(0.0025262568 1.0209696e-07 0)
(0.002505354 -9.6389369e-08 0)
(0.0025249569 9.1048432e-08 0)
(0.0025065801 -8.6039027e-08 0)
(0.0025237982 8.1356924e-08 0)
(0.0025076741 -7.6969509e-08 0)
(0.0025227631 7.2874538e-08 0)
(0.0025086524 -6.9042246e-08 0)
(0.0025218363 6.54717e-08 0)
(0.0025095297 -6.2136041e-08 0)
(0.0025210038 5.9035164e-08 0)
(0.002510319 -5.6145113e-08 0)
(0.0025202533 5.3466301e-08 0)
(0.0025110322 -5.0977583e-08 0)
(0.0025195736 4.8679655e-08 0)
(0.0025116798 -4.655409e-08 0)
(0.0025189546 4.4601692e-08 0)
(0.0025122714 -4.2806656e-08 0)
(0.0025183872 4.1169781e-08 0)
(0.0025128158 -3.9677783e-08 0)
(0.0025178629 3.8331369e-08 0)
(0.0025133211 -3.7119693e-08 0)
(0.0025173741 3.6043418e-08 0)
(0.0025137946 -3.5094044e-08 0)
(0.0025169135 3.4272254e-08 0)
(0.002514243 -3.3573686e-08 0)
(0.0025164737 3.2990928e-08 0)
(0.0025146731 -3.2550557e-08 0)
(0.0025160622 3.2217308e-08 0)
(0.0025151722 -3.1738703e-08 0)
(0.002515974 3.397286e-08 0)
(0.0062501744 0.0011594992 0)
(0.0085518335 1.8603756e-06 0)
(0.0071223809 4.8449115e-06 0)
(0.0074457839 3.0426802e-07 0)
(0.0072174852 -6.0495566e-07 0)
(0.0073838231 8.1618806e-07 0)
(0.0072288067 -7.5655082e-07 0)
(0.0073704678 7.2841892e-07 0)
(0.0072384988 -6.8851995e-07 0)
(0.0073620703 6.5064411e-07 0)
(0.0072459882 -6.1241469e-07 0)
(0.0073549809 5.7749417e-07 0)
(0.0072525239 -5.4370543e-07 0)
(0.007348773 5.1246332e-07 0)
(0.007258333 -4.8282894e-07 0)
(0.007343284 4.5517351e-07 0)
(0.007263497 -4.2913085e-07 0)
(0.0073384145 4.0474718e-07 0)
(0.0072680876 -3.8184675e-07 0)
(0.0073340864 3.6039258e-07 0)
(0.0072721721 -3.4026872e-07 0)
(0.0073302333 3.2142478e-07 0)
(0.0072758114 -3.0376599e-07 0)
(0.0073267971 2.8724662e-07 0)
(0.00727906 -2.7178243e-07 0)
(0.0073237263 2.5733556e-07 0)
(0.0072819665 -2.4382963e-07 0)
(0.0073209748 2.3123409e-07 0)
(0.0072845744 -2.1947979e-07 0)
(0.0073185018 2.085424e-07 0)
(0.0072869225 -1.9835972e-07 0)
(0.0073162705 1.8891234e-07 0)
(0.0072890459 -1.8014497e-07 0)
(0.0073142476 1.7204214e-07 0)
(0.007290976 -1.6455526e-07 0)
(0.0073124032 1.5767207e-07 0)
(0.0072927416 -1.5135047e-07 0)
(0.00731071 1.455807e-07 0)
(0.0072943686 -1.4032692e-07 0)
(0.0073091432 1.3558144e-07 0)
(0.0072958811 -1.3131481e-07 0)
(0.0073076795 1.2752056e-07 0)
(0.0072973014 -1.2417509e-07 0)
(0.0073062974 1.2127859e-07 0)
(0.0072986497 -1.1879017e-07 0)
(0.0073049742 1.1676182e-07 0)
(0.0072999435 -1.1525143e-07 0)
(0.0073037106 1.1295238e-07 0)
(0.0073013653 -1.1727628e-07 0)
(0.0073032507 1.0869755e-07 0)
(0.010015035 0.001838137 0)
(0.013788482 -9.9584278e-06 0)
(0.011697655 1.231725e-05 0)
(0.012197297 5.0023311e-07 0)
(0.011822667 -9.2730842e-07 0)
(0.012102471 1.4771921e-06 0)
(0.011842394 -1.3618742e-06 0)
(0.012081008 1.3188687e-06 0)
(0.011858825 -1.251024e-06 0)
(0.012067011 1.1832868e-06 0)
(0.011871443 -1.1137224e-06 0)
(0.012055093 1.0506978e-06 0)
(0.011882457 -9.8903847e-07 0)
(0.012044641 9.3233077e-07 0)
(0.011892248 -8.7837863e-07 0)
(0.012035395 8.2808013e-07 0)
(0.011900952 -7.8071665e-07 0)
(0.01202719 7.3634073e-07 0)
(0.01190869 -6.9470504e-07 0)
(0.012019897 6.5565419e-07 0)
(0.011915576 -6.1906857e-07 0)
(0.012013404 5.847684e-07 0)
(0.011921712 -5.5266354e-07 0)
(0.012007612 5.2259563e-07 0)
(0.01192719 -4.9447938e-07 0)
(0.012002434 4.6818461e-07 0)
(0.011932093 -4.4362744e-07 0)
(0.011997794 4.2070296e-07 0)
(0.011936493 -3.9932942e-07 0)
(0.011993623 3.7942306e-07 0)
(0.011940456 -3.6090604e-07 0)
(0.011989857 3.4371132e-07 0)
(0.01194404 -3.2776664e-07 0)
(0.011986442 3.1301837e-07 0)
(0.011947301 -2.9940095e-07 0)
(0.011983327 2.8687138e-07 0)
(0.011950284 -2.7537158e-07 0)
(0.011980466 2.6486688e-07 0)
(0.011953035 -2.5530697e-07 0)
(0.011977816 2.4666399e-07 0)
(0.011955595 -2.388966e-07 0)
(0.011975339 2.3198095e-07 0)
(0.011958 -2.2588437e-07 0)
(0.011972997 2.2059769e-07 0)
(0.011960286 -2.1603846e-07 0)
(0.011970753 2.1235418e-07 0)
(0.011962482 -2.0951925e-07 0)
(0.011968593 2.0494043e-07 0)
(0.011964843 -2.1580902e-07 0)
(0.011967644 1.9655738e-07 0)
(0.013922519 0.0025317239 0)
(0.018818862 -1.4910538e-05 0)
(0.016150018 2.2702452e-05 0)
(0.016823361 4.6492146e-07 0)
(0.01630189 -1.0691999e-06 0)
(0.01669966 2.0971113e-06 0)
(0.016331295 -1.9320854e-06 0)
(0.016670452 1.8801554e-06 0)
(0.016354797 -1.7915432e-06 0)
(0.016650742 1.6959119e-06 0)
(0.01637273 -1.5962465e-06 0)
(0.016633831 1.5066089e-06 0)
(0.016388388 -1.4179418e-06 0)
(0.01661898 1.3368077e-06 0)
(0.016402306 -1.2594129e-06 0)
(0.016605838 1.1872979e-06 0)
(0.01641468 -1.1194285e-06 0)
(0.016594176 1.0557642e-06 0)
(0.01642568 -9.9612133e-07 0)
(0.016583808 9.4008824e-07 0)
(0.01643547 -8.8768227e-07 0)
(0.016574576 8.3846607e-07 0)
(0.016444195 -7.9247691e-07 0)
(0.01656634 7.493355e-07 0)
(0.016451985 -7.0905775e-07 0)
(0.016558978 6.7133213e-07 0)
(0.016458956 -6.3615106e-07 0)
(0.016552379 6.0326221e-07 0)
(0.016465214 -5.7264025e-07 0)
(0.016546446 5.4408232e-07 0)
(0.016470851 -5.1755135e-07 0)
(0.01654109 4.9288382e-07 0)
(0.016475951 -4.7003692e-07 0)
(0.016536231 4.4887873e-07 0)
(0.01648059 -4.293649e-07 0)
(0.016531798 4.1138886e-07 0)
(0.016484837 -3.9490782e-07 0)
(0.016527725 3.7983523e-07 0)
(0.016488754 -3.6613212e-07 0)
(0.016523952 3.5372827e-07 0)
(0.016492399 -3.4259182e-07 0)
(0.016520423 3.3266258e-07 0)
(0.016495826 -3.2391691e-07 0)
(0.016517087 3.1632164e-07 0)
(0.016499084 -3.0975418e-07 0)
(0.016513887 3.044987e-07 0)
(0.016502215 -3.0034116e-07 0)
(0.016510794 2.9322773e-07 0)
(0.016505531 -3.1330896e-07 0)
(0.016509232 2.810267e-07 0)
(0.017388445 0.0030350915 0)
(0.023604301 -4.0187623e-05 0)
(0.020481947 3.5218844e-05 0)
(0.021323848 3.1124668e-07 0)
(0.020655194 -1.0228964e-06 0)
(0.021175292 2.6433909e-06 0)
(0.020695624 -2.4460204e-06 0)
(0.021138678 2.3878675e-06 0)
(0.02072651 -2.2882117e-06 0)
(0.021113152 2.167431e-06 0)
(0.020749936 -2.0401709e-06 0)
(0.021091097 1.9265262e-06 0)
(0.020770391 -1.8127739e-06 0)
(0.021071705 1.7092993e-06 0)
(0.020788574 -1.6102583e-06 0)
(0.021054541 1.5180874e-06 0)
(0.020804737 -1.4313355e-06 0)
(0.021039307 1.3499107e-06 0)
(0.020819107 -1.2737006e-06 0)
(0.021025763 1.2020238e-06 0)
(0.020831896 -1.1350655e-06 0)
(0.021013702 1.0721083e-06 0)
(0.020843294 -1.0133478e-06 0)
(0.021002942 9.5816379e-07 0)
(0.020853471 -9.0669893e-07 0)
(0.020993324 8.5844462e-07 0)
(0.02086258 -8.1349008e-07 0)
(0.020984703 7.7142424e-07 0)
(0.020870756 -7.3229357e-07 0)
(0.02097695 6.9576816e-07 0)
(0.020878122 -6.6186359e-07 0)
(0.020969951 6.3031439e-07 0)
(0.020884786 -6.0111613e-07 0)
(0.020963602 5.7405506e-07 0)
(0.020890848 -5.4911485e-07 0)
(0.020957809 5.26123e-07 0)
(0.020896398 -5.0505727e-07 0)
(0.020952485 4.8577771e-07 0)
(0.020901517 -4.6826035e-07 0)
(0.020947554 4.5239197e-07 0)
(0.020906281 -4.3815298e-07 0)
(0.020942942 4.2544635e-07 0)
(0.020910761 -4.1426005e-07 0)
(0.02093858 4.0453614e-07 0)
(0.020915021 -3.9610432e-07 0)
(0.020934398 3.8943219e-07 0)
(0.020919116 -3.8398399e-07 0)
(0.020930341 3.7429805e-07 0)
(0.020923399 -4.0548588e-07 0)
(0.020928065 3.5864242e-07 0)
(0.021325805 0.0037005566 0)
(0.028184274 -4.5857436e-05 0)
(0.024689607 4.9528019e-05 0)
(0.025697088 -5.9027514e-08 0)
(0.024882855 -8.345001e-07 0)
(0.025529027 3.1121953e-06 0)
(0.024935803 -2.9087782e-06 0)
(0.025485333 2.8438622e-06 0)
(0.02497431 -2.7436673e-06 0)
(0.025453923 2.5998472e-06 0)
(0.025003363 -2.4474838e-06 0)
(0.02542661 2.3122269e-06 0)
(0.025028734 -2.175242e-06 0)
(0.025402568 2.0513861e-06 0)
(0.025051286 -1.9324194e-06 0)
(0.025381282 1.8218547e-06 0)
(0.025071332 -1.7177713e-06 0)
(0.025362389 1.620031e-06 0)
(0.025089155 -1.5286281e-06 0)
(0.02534559 1.4425746e-06 0)
(0.025105016 -1.3622742e-06 0)
(0.025330631 1.2866888e-06 0)
(0.025119153 -1.2162188e-06 0)
(0.025317286 1.1499685e-06 0)
(0.025131775 -1.0882458e-06 0)
(0.025305356 1.0303177e-06 0)
(0.025143073 -9.7640101e-07 0)
(0.025294662 9.2590397e-07 0)
(0.025153214 -8.7897007e-07 0)
(0.025285046 8.351254e-07 0)
(0.02516235 -7.9445798e-07 0)
(0.025276365 7.5658725e-07 0)
(0.025170617 -7.2156308e-07 0)
(0.025268489 6.8907966e-07 0)
(0.025178137 -6.5916126e-07 0)
(0.025261303 6.3156172e-07 0)
(0.025185021 -6.0628916e-07 0)
(0.0252547 5.8314427e-07 0)
(0.025191371 -5.6212609e-07 0)
(0.025248583 5.4307364e-07 0)
(0.02519728 -5.2598601e-07 0)
(0.025242862 5.1072487e-07 0)
(0.025202836 -4.9729537e-07 0)
(0.025237452 4.8561068e-07 0)
(0.025208121 -4.7545033e-07 0)
(0.025232264 4.6750108e-07 0)
(0.0252132 -4.6077721e-07 0)
(0.025227223 4.4853789e-07 0)
(0.025218461 -4.9219205e-07 0)
(0.025224145 4.2934447e-07 0)
(0.02445348 0.0040190623 0)
(0.032499882 -8.6486339e-05 0)
(0.028783138 6.4288719e-05 0)
(0.029941325 -3.9272058e-07 0)
(0.028984985 -5.2292838e-07 0)
(0.029760455 3.4993532e-06 0)
(0.029052269 -3.3277824e-06 0)
(0.029710042 3.2511555e-06 0)
(0.029098559 -3.161719e-06 0)
(0.029672716 2.9963029e-06 0)
(0.029133331 -2.8212287e-06 0)
(0.02964007 2.6664958e-06 0)
(0.029163701 -2.5079944e-06 0)
(0.029611303 2.3655447e-06 0)
(0.029190694 -2.2282376e-06 0)
(0.029585828 2.100802e-06 0)
(0.029214686 -1.9808143e-06 0)
(0.029563214 1.868084e-06 0)
(0.029236018 -1.7627526e-06 0)
(0.029543108 1.6634852e-06 0)
(0.029255002 -1.5709552e-06 0)
(0.029525202 1.483763e-06 0)
(0.029271922 -1.40256e-06 0)
(0.029509229 1.3261399e-06 0)
(0.029287031 -1.2550141e-06 0)
(0.029494948 1.188197e-06 0)
(0.029300554 -1.1260639e-06 0)
(0.029482148 1.0678208e-06 0)
(0.029312693 -1.0137324e-06 0)
(0.029470638 9.6316375e-07 0)
(0.029323628 -9.1629506e-07 0)
(0.029460246 8.7261727e-07 0)
(0.029333523 -8.3225027e-07 0)
(0.029450818 7.9478579e-07 0)
(0.029342524 -7.6030148e-07 0)
(0.029442216 7.2846909e-07 0)
(0.029350765 -6.9933763e-07 0)
(0.029434312 6.7264151e-07 0)
(0.029358365 -6.4841096e-07 0)
(0.02942699 6.2643199e-07 0)
(0.029365439 -6.0672905e-07 0)
(0.029420143 5.8911797e-07 0)
(0.029372089 -5.736271e-07 0)
(0.029413668 5.6013496e-07 0)
(0.029378414 -5.4837173e-07 0)
(0.029407461 5.3927028e-07 0)
(0.029384493 -5.3127442e-07 0)
(0.029401421 5.165556e-07 0)
(0.029390736 -5.735417e-07 0)
(0.029397467 4.9347494e-07 0)
(0.028393926 0.0046427335 0)
(0.036644997 -9.0084678e-05 0)
(0.032757647 7.9762922e-05 0)
(0.03405417 -6.5701918e-07 0)
(0.032961419 -1.3677419e-07 0)
(0.033869283 3.7962703e-06 0)
(0.033045446 -3.705232e-06 0)
(0.033812491 3.6100939e-06 0)
(0.033099584 -3.5431377e-06 0)
(0.033769232 3.3571958e-06 0)
(0.033140123 -3.1618429e-06 0)
(0.033731209 2.9896735e-06 0)
(0.033175541 -2.811373e-06 0)
(0.033697674 2.6520833e-06 0)
(0.033207017 -2.4980073e-06 0)
(0.03366797 2.3552056e-06 0)
(0.033234995 -2.2207239e-06 0)
(0.0336416 2.0943157e-06 0)
(0.033259869 -1.9763039e-06 0)
(0.033618153 1.8649744e-06 0)
(0.033282007 -1.7613135e-06 0)
(0.033597272 1.6635265e-06 0)
(0.033301737 -1.5725544e-06 0)
(0.033578644 1.4868524e-06 0)
(0.033319356 -1.4071672e-06 0)
(0.033561991 1.3322386e-06 0)
(0.033335125 -1.2626259e-06 0)
(0.033547063 1.1973148e-06 0)
(0.033349281 -1.1367127e-06 0)
(0.033533639 1.0800096e-06 0)
(0.033362035 -1.0274946e-06 0)
(0.03352152 9.7851914e-07 0)
(0.033373574 -9.3328698e-07 0)
(0.033510525 8.9127861e-07 0)
(0.033384072 -8.5263601e-07 0)
(0.033500493 8.1694225e-07 0)
(0.033393682 -7.8429573e-07 0)
(0.033491275 7.543595e-07 0)
(0.033402546 -7.2720215e-07 0)
(0.033482736 7.0255243e-07 0)
(0.033410794 -6.804659e-07 0)
(0.033474751 6.6070848e-07 0)
(0.033418549 -6.4333674e-07 0)
(0.033467201 6.2819005e-07 0)
(0.033425924 -6.149516e-07 0)
(0.033459965 6.0482015e-07 0)
(0.033433013 -5.9556196e-07 0)
(0.033452918 5.78486e-07 0)
(0.03344024 -6.492714e-07 0)
(0.033448029 5.5105176e-07 0)
(0.031365831 0.0048531779 0)
(0.040495915 -0.00014571921 0)
(0.03662126 9.3999693e-05 0)
(0.038035256 -1.0966339e-06 0)
(0.036812141 2.048397e-07 0)
(0.037855221 3.9716751e-06 0)
(0.036915698 -4.0451579e-06 0)
(0.037792412 3.9201597e-06 0)
(0.036977676 -3.8875229e-06 0)
(0.037743214 3.6822032e-06 0)
(0.037023988 -3.4689124e-06 0)
(0.037699797 3.281371e-06 0)
(0.037064473 -3.0850049e-06 0)
(0.037661476 2.9106494e-06 0)
(0.037100451 -2.741394e-06 0)
(0.037627526 2.5847527e-06 0)
(0.037132428 -2.4372012e-06 0)
(0.037597385 2.298448e-06 0)
(0.037160859 -2.1690158e-06 0)
(0.037570584 2.046794e-06 0)
(0.037186162 -1.9331112e-06 0)
(0.037546716 1.8257566e-06 0)
(0.037208714 -1.7259889e-06 0)
(0.037525423 1.6319065e-06 0)
(0.037228853 -1.5445145e-06 0)
(0.037506387 1.4622629e-06 0)
(0.037246879 -1.3859149e-06 0)
(0.037489323 1.3142242e-06 0)
(0.03726306 -1.2477559e-06 0)
(0.037473977 1.1855163e-06 0)
(0.037277639 -1.1279157e-06 0)
(0.037460123 1.0741595e-06 0)
(0.03729083 -1.0245448e-06 0)
(0.037447554 9.7843594e-07 0)
(0.037302831 -9.3604732e-07 0)
(0.037436085 8.96869e-07 0)
(0.037313816 -8.6105575e-07 0)
(0.037425547 8.2819555e-07 0)
(0.037323949 -7.984006e-07 0)
(0.037415786 7.7133984e-07 0)
(0.037333379 -7.4710427e-07 0)
(0.037406657 7.254077e-07 0)
(0.037342243 -7.0633899e-07 0)
(0.037398028 6.8969407e-07 0)
(0.037350673 -6.7511297e-07 0)
(0.037389758 6.6407353e-07 0)
(0.037358775 -6.5357385e-07 0)
(0.037381702 6.3430267e-07 0)
(0.037366984 -7.1901496e-07 0)
(0.037375829 6.0202888e-07 0)
(0.035191791 0.0053480595 0)
(0.044226046 -0.000147478 0)
(0.040364807 0.00010930598 0)
(0.041887618 -1.8510943e-06 0)
(0.040538337 3.8175494e-07 0)
(0.041718047 3.9894092e-06 0)
(0.040663315 -4.3552566e-06 0)
(0.04164954 4.179593e-06 0)
(0.040733084 -4.1953073e-06 0)
(0.041594425 3.9710369e-06 0)
(0.040785149 -3.7423148e-06 0)
(0.041545624 3.5413893e-06 0)
(0.040830694 -3.3287276e-06 0)
(0.041502523 3.1410768e-06 0)
(0.040871169 -2.9582442e-06 0)
(0.041464333 2.7892979e-06 0)
(0.040907141 -2.6301071e-06 0)
(0.041430426 2.4803511e-06 0)
(0.040939124 -2.3407628e-06 0)
(0.041400274 2.2088276e-06 0)
(0.040967588 -2.0862356e-06 0)
(0.041373422 1.9703493e-06 0)
(0.040992959 -1.8627626e-06 0)
(0.041349467 1.7612077e-06 0)
(0.041015615 -1.6669639e-06 0)
(0.041328049 1.5781842e-06 0)
(0.041035895 -1.4958477e-06 0)
(0.04130885 1.4184704e-06 0)
(0.0410541 -1.3467858e-06 0)
(0.041291585 1.2796118e-06 0)
(0.041070502 -1.2174887e-06 0)
(0.041275996 1.159472e-06 0)
(0.041085345 -1.1059597e-06 0)
(0.041261854 1.0561969e-06 0)
(0.041098847 -1.0104762e-06 0)
(0.041248949 9.6819292e-07 0)
(0.041111209 -9.2956237e-07 0)
(0.041237092 8.9409629e-07 0)
(0.04112261 -8.6195432e-07 0)
(0.041226108 8.3274448e-07 0)
(0.04113322 -8.065962e-07 0)
(0.041215837 7.8316979e-07 0)
(0.041143194 -7.6258896e-07 0)
(0.041206128 7.4460388e-07 0)
(0.041152678 -7.2881599e-07 0)
(0.041196825 7.1698875e-07 0)
(0.041161794 -7.0528031e-07 0)
(0.041187762 6.8400216e-07 0)
(0.041170978 -7.8247383e-07 0)
(0.041180866 6.4643573e-07 0)
(0.038251662 0.005535274 0)
(0.047663866 -0.00021349926 0)
(0.043979517 0.00012188555 0)
(0.045616903 -1.7934247e-06 0)
(0.044143954 6.6111109e-07 0)
(0.045457972 3.9140926e-06 0)
(0.044288682 -4.6214761e-06 0)
(0.045383661 4.3927412e-06 0)
(0.044366042 -4.465706e-06 0)
(0.045322652 4.2241391e-06 0)
(0.044423809 -3.9821009e-06 0)
(0.045268499 3.7698468e-06 0)
(0.044474384 -3.5426296e-06 0)
(0.045220647 3.3434529e-06 0)
(0.044519328 -3.1486371e-06 0)
(0.045178242 2.9689183e-06 0)
(0.044559272 -2.7995109e-06 0)
(0.04514059 2.6400931e-06 0)
(0.044594786 -2.4916061e-06 0)
(0.045107107 2.3511348e-06 0)
(0.044626394 -2.22074e-06 0)
(0.045077288 2.0973554e-06 0)
(0.044654567 -1.9829211e-06 0)
(0.045050685 1.8748005e-06 0)
(0.044679726 -1.7745557e-06 0)
(0.045026899 1.6800407e-06 0)
(0.044702247 -1.5924586e-06 0)
(0.045005577 1.5100863e-06 0)
(0.044722466 -1.433832e-06 0)
(0.044986402 1.3623244e-06 0)
(0.044740682 -1.2962389e-06 0)
(0.044969088 1.2344808e-06 0)
(0.044757167 -1.1775531e-06 0)
(0.04495338 1.1245815e-06 0)
(0.044772164 -1.0759409e-06 0)
(0.044939046 1.0309311e-06 0)
(0.044785894 -9.8983172e-07 0)
(0.044925875 9.5207745e-07 0)
(0.044798559 -9.1787793e-07 0)
(0.044913675 8.8678024e-07 0)
(0.044810343 -8.5895432e-07 0)
(0.044902267 8.3400699e-07 0)
(0.044821421 -8.1209899e-07 0)
(0.044891483 7.9293213e-07 0)
(0.044831955 -7.7607501e-07 0)
(0.044881153 7.6357696e-07 0)
(0.04484208 -7.5070435e-07 0)
(0.044871089 7.2762578e-07 0)
(0.044852231 -8.3943409e-07 0)
(0.044863141 6.8437557e-07 0)
(0.041932654 0.0058770065 0)
(0.051030748 -0.00021431942 0)
(0.047464599 0.00013406984 0)
(0.049221845 -1.6977202e-06 0)
(0.047630398 8.5909589e-07 0)
(0.04907486 3.7218061e-06 0)
(0.047792059 -4.8509211e-06 0)
(0.04899457 4.5590519e-06 0)
(0.047876759 -4.6994426e-06 0)
(0.048927702 4.4417779e-06 0)
(0.047940151 -4.1886007e-06 0)
(0.048868251 3.9669966e-06 0)
(0.047995703 -3.7269707e-06 0)
(0.048815697 3.5180107e-06 0)
(0.048045072 -3.3127965e-06 0)
(0.048769119 3.1238227e-06 0)
(0.048088947 -2.9456084e-06 0)
(0.048727759 2.777859e-06 0)
(0.048127956 -2.6217175e-06 0)
(0.048690979 2.473879e-06 0)
(0.048162676 -2.3367764e-06 0)
(0.048658222 2.2069202e-06 0)
(0.048193624 -2.0865993e-06 0)
(0.048628997 1.9728125e-06 0)
(0.048221262 -1.8674082e-06 0)
(0.048602866 1.7679451e-06 0)
(0.048246003 -1.6758527e-06 0)
(0.048579441 1.5891713e-06 0)
(0.048268215 -1.5089873e-06 0)
(0.048558374 1.433742e-06 0)
(0.048288229 -1.3642486e-06 0)
(0.048539351 1.2992638e-06 0)
(0.048306341 -1.2393984e-06 0)
(0.048522091 1.18366e-06 0)
(0.048322819 -1.1325074e-06 0)
(0.048506341 1.0851467e-06 0)
(0.048337906 -1.0419229e-06 0)
(0.048491869 1.0021952e-06 0)
(0.048351822 -9.662248e-07 0)
(0.048478462 9.3349877e-07 0)
(0.048364771 -9.0422865e-07 0)
(0.048465926 8.7796824e-07 0)
(0.048376944 -8.5491604e-07 0)
(0.048454077 8.3472503e-07 0)
(0.048388518 -8.1693694e-07 0)
(0.048442729 8.0388139e-07 0)
(0.048399643 -7.8990154e-07 0)
(0.048431675 7.6523971e-07 0)
(0.048410749 -8.8974298e-07 0)
(0.048422654 7.1600431e-07 0)
(0.045063195 0.0060444976 0)
(0.054116809 -0.00028188351 0)
(0.050825688 0.00014120919 0)
(0.052700683 -2.1781027e-06 0)
(0.050997572 8.8097314e-07 0)
(0.052568537 3.4083282e-06 0)
(0.051173644 -5.0477216e-06 0)
(0.052482094 4.6793192e-06 0)
(0.051265429 -4.8968181e-06 0)
(0.052409407 4.624571e-06 0)
(0.05133434 -4.3621735e-06 0)
(0.052344727 4.1332504e-06 0)
(0.051394798 -3.8821035e-06 0)
(0.052287536 3.665096e-06 0)
(0.051448529 -3.4510404e-06 0)
(0.052236843 3.2543155e-06 0)
(0.05149628 -3.0686822e-06 0)
(0.052191827 2.8939183e-06 0)
(0.051538736 -2.7313482e-06 0)
(0.052151795 2.5772989e-06 0)
(0.051576525 -2.4345669e-06 0)
(0.05211614 2.2992537e-06 0)
(0.051610208 -2.1739933e-06 0)
(0.052084329 2.05543e-06 0)
(0.051640291 -1.9456961e-06 0)
(0.052055885 1.8420623e-06 0)
(0.051667221 -1.7461842e-06 0)
(0.052030386 1.655872e-06 0)
(0.051691401 -1.5723889e-06 0)
(0.052007451 1.4939947e-06 0)
(0.051713188 -1.4216401e-06 0)
(0.051986742 1.3539373e-06 0)
(0.051732906 -1.2916048e-06 0)
(0.051967951 1.2335358e-06 0)
(0.051750847 -1.1802736e-06 0)
(0.051950802 1.1309328e-06 0)
(0.051767272 -1.0859248e-06 0)
(0.051935045 1.0445352e-06 0)
(0.051782424 -1.0070768e-06 0)
(0.051920447 9.7297866e-07 0)
(0.051796524 -9.4249426e-07 0)
(0.051906797 9.1512608e-07 0)
(0.051809777 -8.9111106e-07 0)
(0.051893896 8.7005233e-07 0)
(0.051822379 -8.5147155e-07 0)
(0.051881542 8.3796771e-07 0)
(0.051834493 -8.2294968e-07 0)
(0.051869512 7.9692863e-07 0)
(0.051846539 -9.3330059e-07 0)
(0.051859406 7.4151162e-07 0)
(0.04855822 0.006243962 0)
(0.057171954 -0.00028163613 0)
(0.05406133 0.00014995906 0)
(0.056055123 -2.4106927e-06 0)
(0.054245518 8.5304032e-07 0)
(0.055939037 3.0271154e-06 0)
(0.05443364 -5.2013689e-06 0)
(0.055846068 4.7570609e-06 0)
(0.05453222 -5.0577818e-06 0)
(0.055767609 4.773274e-06 0)
(0.054606526 -4.503315e-06 0)
(0.055697787 4.2691072e-06 0)
(0.0546718 -4.0084938e-06 0)
(0.055636039 3.7851457e-06 0)
(0.054729816 -3.5637811e-06 0)
(0.055581304 3.3607848e-06 0)
(0.054781374 -3.1690966e-06 0)
(0.055532698 2.9886149e-06 0)
(0.054827216 -2.8208197e-06 0)
(0.05548947 2.6616988e-06 0)
(0.054868018 -2.5143967e-06 0)
(0.055450969 2.3746267e-06 0)
(0.054904391 -2.2453564e-06 0)
(0.055416616 2.1228926e-06 0)
(0.054936875 -2.0096432e-06 0)
(0.055385899 1.902605e-06 0)
(0.054965958 -1.8036528e-06 0)
(0.05535836 1.7103771e-06 0)
(0.05499207 -1.6242145e-06 0)
(0.05533359 1.5432511e-06 0)
(0.055015601 -1.4685719e-06 0)
(0.055311222 1.3986519e-06 0)
(0.055036899 -1.3343149e-06 0)
(0.055290926 1.274345e-06 0)
(0.055056277 -1.2193682e-06 0)
(0.055272402 1.1684127e-06 0)
(0.05507402 -1.1219542e-06 0)
(0.05525538 1.0792088e-06 0)
(0.055090388 -1.0405402e-06 0)
(0.05523961 1.0053226e-06 0)
(0.05510562 -9.7385046e-07 0)
(0.055224864 9.4557718e-07 0)
(0.055119937 -9.2077718e-07 0)
(0.055210926 8.9900518e-07 0)
(0.05513355 -8.7976919e-07 0)
(0.055197584 8.6592202e-07 0)
(0.055146637 -8.4994667e-07 0)
(0.055184594 8.227919e-07 0)
(0.055159606 -9.7005152e-07 0)
(0.055173398 7.6111748e-07 0)
(0.051744241 0.0063861223 0)
(0.059966402 -0.00035036033 0)
(0.057173327 0.00015329134 0)
(0.05928667 -2.7318186e-06 0)
(0.05737386 7.3309409e-07 0)
(0.059186186 2.5762546e-06 0)
(0.057572167 -5.3142911e-06 0)
(0.059086319 4.7928586e-06 0)
(0.057677273 -5.1829606e-06 0)
(0.059002164 4.8886532e-06 0)
(0.05775684 -4.6126269e-06 0)
(0.058927305 4.375178e-06 0)
(0.057826826 -4.1066929e-06 0)
(0.058861098 3.8786906e-06 0)
(0.057889035 -3.6515118e-06 0)
(0.058802406 3.4436994e-06 0)
(0.057944319 -3.2472895e-06 0)
(0.058750284 3.0623642e-06 0)
(0.057993475 -2.8905214e-06 0)
(0.058703928 2.7274472e-06 0)
(0.058037229 -2.5766106e-06 0)
(0.058662639 2.4333647e-06 0)
(0.058076233 -2.3009943e-06 0)
(0.058625799 2.1754898e-06 0)
(0.05811107 -2.0595221e-06 0)
(0.058592855 1.9498304e-06 0)
(0.05814226 -1.8485001e-06 0)
(0.058563319 1.752916e-06 0)
(0.058170267 -1.6646799e-06 0)
(0.058536751 1.5817156e-06 0)
(0.058195506 -1.5052373e-06 0)
(0.058512758 1.433591e-06 0)
(0.058218351 -1.3677019e-06 0)
(0.058490985 1.3062521e-06 0)
(0.058239138 -1.2499477e-06 0)
(0.058471113 1.1977352e-06 0)
(0.058258173 -1.1501537e-06 0)
(0.058452851 1.106353e-06 0)
(0.058275733 -1.0667464e-06 0)
(0.058435933 1.0306567e-06 0)
(0.058292075 -9.9841824e-07 0)
(0.058420112 9.6943843e-07 0)
(0.058307436 -9.4402846e-07 0)
(0.058405158 9.2169533e-07 0)
(0.05832204 -9.0194017e-07 0)
(0.058390845 8.8785007e-07 0)
(0.058336081 -8.7100911e-07 0)
(0.058376917 8.4294583e-07 0)
(0.058349954 -9.9998554e-07 0)
(0.058364632 7.7506102e-07 0)
(0.055082699 0.0064617894 0)
(0.062763785 -0.00034710995 0)
(0.060167349 0.00015713913 0)
(0.062397867 -3.1106558e-06 0)
(0.060381979 5.1361808e-07 0)
(0.062309936 2.0684531e-06 0)
(0.060589391 -5.3814674e-06 0)
(0.06220272 4.7891162e-06 0)
(0.060700728 -5.2727091e-06 0)
(0.062112949 4.9716302e-06 0)
(0.060785402 -4.6908095e-06 0)
(0.062033171 4.4521549e-06 0)
(0.060859982 -4.1773447e-06 0)
(0.061962612 3.9463399e-06 0)
(0.06092628 -3.7148046e-06 0)
(0.061900061 3.5035993e-06 0)
(0.060985199 -3.3037675e-06 0)
(0.061844508 3.1156446e-06 0)
(0.061037588 -2.9409015e-06 0)
(0.061795101 2.7749678e-06 0)
(0.061084221 -2.6216069e-06 0)
(0.061751093 2.4758448e-06 0)
(0.061125793 -2.341261e-06 0)
(0.061711823 2.2135558e-06 0)
(0.061162926 -2.0956463e-06 0)
(0.061676707 1.984036e-06 0)
(0.061196172 -1.8810066e-06 0)
(0.061645221 1.7837535e-06 0)
(0.061226028 -1.6940352e-06 0)
(0.061616898 1.6096255e-06 0)
(0.061252934 -1.5318605e-06 0)
(0.061591318 1.4589674e-06 0)
(0.06127729 -1.3919679e-06 0)
(0.061568103 1.3294499e-06 0)
(0.061299454 -1.272195e-06 0)
(0.061546915 1.2190756e-06 0)
(0.061319751 -1.1706895e-06 0)
(0.061527441 1.1261268e-06 0)
(0.061338476 -1.0858478e-06 0)
(0.061509399 1.049128e-06 0)
(0.061355903 -1.0163398e-06 0)
(0.061492528 9.8684807e-07 0)
(0.061372284 -9.6099834e-07 0)
(0.061476581 9.3825308e-07 0)
(0.061387858 -9.181127e-07 0)
(0.06146132 9.0387546e-07 0)
(0.061402833 -8.8627062e-07 0)
(0.061446474 8.5751972e-07 0)
(0.061417587 -1.0231296e-06 0)
(0.061433108 7.8359991e-07 0)
(0.058315724 0.0065706786 0)
(0.065323546 -0.00041152786 0)
(0.063038959 0.00015554952 0)
(0.065392001 -3.6973151e-06 0)
(0.063269615 2.3754188e-07 0)
(0.06531019 1.505017e-06 0)
(0.06348543 -5.4019253e-06 0)
(0.065195136 4.7471298e-06 0)
(0.063602697 -5.327714e-06 0)
(0.065099849 5.0231606e-06 0)
(0.063692316 -4.7386532e-06 0)
(0.065015284 4.5008131e-06 0)
(0.06377136 -4.2211661e-06 0)
(0.064940494 3.988775e-06 0)
(0.063841633 -3.7542971e-06 0)
(0.06487419 3.5410883e-06 0)
(0.063904086 -3.3390969e-06 0)
(0.064815303 3.1489917e-06 0)
(0.063959618 -2.9724631e-06 0)
(0.064762928 2.8047361e-06 0)
(0.06400905 -2.6498314e-06 0)
(0.064716274 2.502488e-06 0)
(0.06405312 -2.3665521e-06 0)
(0.064674643 2.2374654e-06 0)
(0.064092486 -2.1183692e-06 0)
(0.064637413 2.0055552e-06 0)
(0.064127733 -1.9014862e-06 0)
(0.06460403 1.8031878e-06 0)
(0.064159387 -1.7125614e-06 0)
(0.064573998 1.6272474e-06 0)
(0.064187917 -1.5486935e-06 0)
(0.064546874 1.475021e-06 0)
(0.064213744 -1.4073398e-06 0)
(0.064522256 1.344154e-06 0)
(0.064237248 -1.2863156e-06 0)
(0.064499785 1.2326296e-06 0)
(0.064258773 -1.1837494e-06 0)
(0.064479132 1.1387108e-06 0)
(0.064278633 -1.0980173e-06 0)
(0.064459996 1.0609029e-06 0)
(0.064297117 -1.0277752e-06 0)
(0.0644421 9.9796065e-07 0)
(0.064314492 -9.7183752e-07 0)
(0.064425186 9.4882594e-07 0)
(0.064331011 -9.2843163e-07 0)
(0.064409 9.1413822e-07 0)
(0.064346895 -8.9587997e-07 0)
(0.064393264 8.6665775e-07 0)
(0.064362507 -1.0395487e-06 0)
(0.064378829 7.8699974e-07 0)
(0.06149097 0.006535896 0)
(0.067910476 -0.00040470981 0)
(0.065791489 0.00015501041 0)
(0.068271862 -4.3976122e-06 0)
(0.066036671 -9.5194151e-08 0)
(0.068186972 8.7518646e-07 0)
(0.066260437 -5.3763379e-06 0)
(0.068063465 4.6674542e-06 0)
(0.066383286 -5.3491424e-06 0)
(0.067962763 5.044118e-06 0)
(0.066477676 -4.7570865e-06 0)
(0.067873555 4.5219746e-06 0)
(0.066561044 -4.238951e-06 0)
(0.067794665 4.0067383e-06 0)
(0.066635169 -3.7706896e-06 0)
(0.067724724 3.556826e-06 0)
(0.066701046 -3.3538973e-06 0)
(0.067662605 3.1629903e-06 0)
(0.066759624 -2.9857549e-06 0)
(0.067607354 2.8172706e-06 0)
(0.066811769 -2.6617721e-06 0)
(0.067558136 2.5137557e-06 0)
(0.06685826 -2.377302e-06 0)
(0.067514216 2.2476285e-06 0)
(0.06689979 -2.1280763e-06 0)
(0.067474936 2.0147535e-06 0)
(0.066936978 -1.9102839e-06 0)
(0.067439713 1.8115449e-06 0)
(0.066970376 -1.720567e-06 0)
(0.067408025 1.6348736e-06 0)
(0.06700048 -1.5560133e-06 0)
(0.067379401 1.4820146e-06 0)
(0.067027734 -1.4140676e-06 0)
(0.067353422 1.3506032e-06 0)
(0.067052539 -1.2925364e-06 0)
(0.067329706 1.2386145e-06 0)
(0.067075257 -1.1895402e-06 0)
(0.067307908 1.1443026e-06 0)
(0.067096218 -1.1034449e-06 0)
(0.06728771 1.0661648e-06 0)
(0.067115729 -1.0329016e-06 0)
(0.06726882 1.0029486e-06 0)
(0.067134069 -9.767126e-07 0)
(0.067250965 9.5357645e-07 0)
(0.067151505 -9.3305634e-07 0)
(0.067233882 9.1879302e-07 0)
(0.067168274 -8.9999949e-07 0)
(0.067217281 8.7051452e-07 0)
(0.067184718 -1.0493379e-06 0)
(0.067201796 7.8553562e-07 0)
(0.064732398 0.0066057435 0)
(0.070281873 -0.00046188264 0)
(0.068421867 0.00014916445 0)
(0.071033557 -5.219066e-06 0)
(0.068683796 -3.7049028e-07 0)
(0.070940051 2.0386266e-07 0)
(0.068914505 -5.2956985e-06 0)
(0.070807582 4.5543022e-06 0)
(0.069042571 -5.3370634e-06 0)
(0.070701592 5.0358028e-06 0)
(0.069141559 -4.7470018e-06 0)
(0.070607903 4.5165507e-06 0)
(0.069229106 -4.2315476e-06 0)
(0.070525055 4.0010268e-06 0)
(0.069306952 -3.764735e-06 0)
(0.070451601 3.5515209e-06 0)
(0.069376136 -3.3488358e-06 0)
(0.070386361 3.1582696e-06 0)
(0.069437656 -2.9813696e-06 0)
(0.070328331 2.8131302e-06 0)
(0.069492423 -2.6579545e-06 0)
(0.070276636 2.5101437e-06 0)
(0.069541252 -2.3739774e-06 0)
(0.070230503 2.2444867e-06 0)
(0.069584874 -2.1251846e-06 0)
(0.070189243 2.0120247e-06 0)
(0.069623937 -1.9077712e-06 0)
(0.070152242 1.8091771e-06 0)
(0.069659022 -1.7183848e-06 0)
(0.070118951 1.6328201e-06 0)
(0.069690648 -1.554119e-06 0)
(0.070088879 1.4802328e-06 0)
(0.069719282 -1.4124212e-06 0)
(0.070061583 1.349054e-06 0)
(0.069745344 -1.291102e-06 0)
(0.070036663 1.2372637e-06 0)
(0.069769216 -1.188286e-06 0)
(0.070013756 1.1431179e-06 0)
(0.069791244 -1.1023375e-06 0)
(0.069992529 1.0651127e-06 0)
(0.069811747 -1.0319108e-06 0)
(0.069972677 1.0019969e-06 0)
(0.069831022 -9.7580415e-07 0)
(0.069953912 9.5268122e-07 0)
(0.069849347 -9.3215984e-07 0)
(0.069935961 9.1800805e-07 0)
(0.069866972 -8.988036e-07 0)
(0.069918524 8.6925743e-07 0)
(0.06988422 -1.0526245e-06 0)
(0.06990201 7.7948239e-07 0)
(0.067710416 0.006472742 0)
(0.072691531 -0.00045051314 0)
(0.070945292 0.00014412366 0)
(0.073670291 -5.8378053e-06 0)
(0.071211273 -5.4788477e-07 0)
(0.073569007 -4.9566661e-07 0)
(0.071447699 -5.1527825e-06 0)
(0.073427374 4.4112377e-06 0)
(0.071580618 -5.2918529e-06 0)