/*--------------------------------*- C++ -*----------------------------------*\
| =========                 |                                                 |
| \\      /  F ield         | OpenFOAM: The Open Source CFD Toolbox           |
|  \\    /   O peration     | Version:  2312                                  |
|   \\  /    A nd           | Website:  www.openfoam.com                      |
|    \\/     M anipulation  |                                                 |
\*---------------------------------------------------------------------------*/
FoamFile
{
    version     2.0;
    format      ascii;
    arch        "LSB;label=32;scalar=64";
    class       volScalarField;
    location    "9";
    object      T;
}
// * * * * * * * * * * * * * * * * * * * * * * * * * * * * * * * * * * * * * //

dimensions      [0 0 0 1 0 0 0];

internalField   nonuniform List<scalar> 
4000
(
318.76937
317.84097
317.65687
317.60483
317.54469
317.50382
317.46422
317.42931
317.39541
317.36417
317.33283
317.30346
317.27371
317.24543
317.21679
317.18921
317.16139
317.13428
317.10709
317.08033
317.05364
317.02712
317.00084
316.97451
316.94857
316.92237
316.89672
316.87063
316.84522
316.81921
316.79402
316.76806
316.74308
316.71715
316.69235
316.66643
316.64181
316.61589
316.59143
316.5655
316.54121
316.51523
316.49112
316.46507
316.44116
316.41498
316.39134
316.36493
316.34175
316.31444
320.34435
318.84743
318.35173
318.24397
318.11292
318.03921
317.96946
317.91364
317.86092
317.81613
317.77109
317.73193
317.69163
317.65572
317.61876
317.58494
317.55044
317.51805
317.48545
317.45408
317.42298
317.39236
317.36247
317.3324
317.30353
317.27388
317.24587
317.21653
317.18927
317.16015
317.13355
317.1046
317.0786
317.04975
317.02429
316.99549
316.97056
316.94175
316.91732
316.88845
316.86453
316.83553
316.81215
316.78293
316.76016
316.73057
316.70859
316.67829
316.65769
316.62481
321.31659
319.81509
319.04072
318.87861
318.67852
318.57236
318.47293
318.39632
318.32503
318.26671
318.20812
318.15916
318.10844
318.06489
318.0197
317.97961
317.93852
317.90082
317.86286
317.82688
317.7914
317.75666
317.72321
317.6894
317.65763
317.62451
317.59417
317.56157
317.53247
317.50025
317.47226
317.4403
317.4133
317.38152
317.35543
317.32373
317.29851
317.26679
317.24241
317.2106
317.18707
317.15503
317.1324
317.1
317.07838
317.04536
317.02505
316.99088
316.97284
316.93468
321.96017
320.71086
319.71379
319.50261
319.23762
319.10032
318.97231
318.87534
318.78604
318.71435
318.64258
318.58386
318.52299
318.4718
318.41858
318.37224
318.32469
318.28168
318.23849
318.19786
318.15813
318.11925
318.08232
318.04474
318.01015
317.97354
317.94094
317.90506
317.87419
317.83884
317.8095
317.77453
317.74657
317.71184
317.68516
317.65054
317.62507
317.59044
317.56613
317.53136
317.50824
317.47317
317.4513
317.41572
317.39526
317.35883
317.34018
317.30216
317.28661
317.24359
322.40567
321.50547
320.3579
320.10772
319.78493
319.61907
319.46448
319.34808
319.24173
319.15704
319.07269
319.00442
318.93381
318.87508
318.81415
318.76159
318.70784
318.65954
318.61132
318.56606
318.52222
318.4792
318.43893
318.39758
318.36028
318.32018
318.28541
318.24624
318.21368
318.1752
318.14458
318.10659
318.07774
318.04005
318.01282
317.97529
317.9496
317.91206
317.88786
317.85014
317.82745
317.78936
317.76826
317.72952
317.71022
317.67041
317.6534
317.61161
317.5984
317.55102
322.72411
322.18106
320.95956
320.68432
320.31411
320.12377
319.9456
319.8113
319.68938
319.59237
319.49634
319.41887
319.33915
319.2731
319.20491
319.14626
319.08667
319.03315
318.98018
318.93034
318.88263
318.8355
318.79208
318.74697
318.70712
318.66354
318.62673
318.58429
318.55014
318.50854
318.47674
318.43573
318.40606
318.36543
318.33772
318.29728
318.27143
318.23099
318.20694
318.16629
318.14407
318.10296
318.08266
318.04079
318.02265
317.97951
317.96411
317.91865
317.90761
317.85638
322.95662
322.72892
321.50652
321.22245
320.81831
320.60901
320.41132
320.2614
320.12588
320.01761
319.91112
319.82503
319.73703
319.66401
319.58919
319.52468
319.45971
319.40113
319.34378
319.28946
319.23818
319.18701
319.14068
319.09188
319.04967
319.00265
318.96398
318.9183
318.88271
318.83801
318.80515
318.76116
318.73076
318.68722
318.65911
318.61579
318.58985
318.54653
318.52269
318.47913
318.45741
318.41334
318.39386
318.34891
318.33192
318.28554
318.27167
318.22274
318.2136
318.15904
323.12954
323.15158
321.98999
321.71294
321.29078
321.06922
320.85706
320.69447
320.54787
320.42978
320.31437
320.22051
320.1253
320.04583
319.96514
319.89512
319.82537
319.76197
319.7007
319.64209
319.58759
319.53253
319.48358
319.43119
319.38688
319.33651
319.29618
319.24733
319.21046
319.16273
319.12894
319.08202
319.05102
319.00462
318.97621
318.93006
318.9041
318.85796
318.83438
318.78799
318.7668
318.71984
318.70117
318.65324
318.63738
318.58788
318.57545
318.52327
318.51577
318.45836
323.26064
323.45955
322.405
322.14868
321.72556
321.49906
321.27823
321.10659
320.9519
320.82581
320.70336
320.6028
320.50167
320.41645
320.33084
320.2558
320.18196
320.11409
320.04945
319.9868
319.92953
319.87078
319.81957
319.76375
319.71763
319.66404
319.62228
319.57038
319.53243
319.48178
319.44723
319.39746
319.366
319.31681
319.2882
319.23932
319.21342
319.16455
319.14128
319.09214
319.07152
319.02177
319.00393
318.95314
318.93836
318.88592
318.87481
318.81964
318.8135
318.75369
323.36237
323.66952
322.75105
322.52552
322.11796
321.89386
321.67064
321.49401
321.33458
321.20269
321.07533
320.96941
320.86383
320.77376
320.6843
320.60485
320.52776
320.45586
320.3885
320.32215
320.26263
320.20045
320.14739
320.08836
320.04077
319.98414
319.94123
319.88643
319.84764
319.79419
319.75906
319.70658
319.6748
319.62296
319.59427
319.54276
319.51701
319.46553
319.44264
319.39088
319.37086
319.31846
319.30143
319.24795
319.2342
319.17902
319.1691
319.11126
319.10619
319.04437
323.44341
323.80102
323.0313
322.84269
322.46488
322.24999
322.03072
321.8534
321.69282
321.55758
321.42765
321.31791
321.20954
321.11565
321.02357
320.94046
320.86104
320.78568
320.71631
320.6467
320.58549
320.52022
320.46579
320.40382
320.35513
320.2957
320.25196
320.19445
320.15507
320.09901
320.06352
320.00849
319.97656
319.92221
319.89358
319.83959
319.8141
319.76015
319.73771
319.68347
319.66409
319.6092
319.59299
319.537
319.52421
319.46655
319.45767
319.39749
319.39324
319.32976
323.51005
323.87452
323.25218
323.1025
322.76501
322.56517
322.35582
322.18207
322.02396
321.88798
321.75795
321.6461
321.5367
321.44019
321.34678
321.26088
321.18013
321.10197
321.03138
320.95902
320.89675
320.82881
320.7735
320.70895
320.65957
320.59762
320.55339
320.49344
320.45374
320.39529
320.35966
320.30229
320.27039
320.21373
320.1853
320.12901
320.10388
320.04765
320.02573
319.96921
319.95049
319.89332
319.8779
319.81965
319.80775
319.74788
319.73989
319.67773
319.67408
319.60924
323.56649
323.90869
323.42197
323.30968
323.01895
322.83861
322.64437
322.47817
322.32598
322.19189
322.06424
321.95206
321.84345
321.74559
321.65225
321.56451
321.4835
321.40327
321.3323
321.25777
321.19512
321.12498
321.06934
321.00259
320.95297
320.88886
320.84449
320.78239
320.74267
320.6821
320.64658
320.5871
320.55543
320.49669
320.46861
320.41025
320.38559
320.32729
320.30596
320.24738
320.22935
320.17015
320.1555
320.09525
320.08416
320.02239
320.01515
319.95134
319.94812
319.88219
323.61572
323.91934
323.54982
323.47069
323.22904
323.07109
322.89603
322.74075
322.59761
322.4679
322.34501
322.23429
322.12827
322.0304
321.9385
321.84994
321.76975
321.68825
321.61777
321.54172
321.47938
321.40758
321.35218
321.28369
321.23429
321.16839
321.12427
321.06037
321.02095
320.95856
320.9234
320.86211
320.83086
320.7703
320.74273
320.68256
320.65848
320.59837
320.57768
320.51732
320.5
320.43903
320.42513
320.36317
320.35283
320.28947
320.28285
320.21775
320.21481
320.14806
323.65953
323.91818
323.64467
323.59289
323.39913
323.26479
323.1116
322.96987
322.83838
322.71529
322.5993
322.49175
322.39003
322.29346
322.20437
322.11603
322.03774
321.95581
321.88668
321.8098
321.74848
321.67559
321.62101
321.55127
321.50258
321.43532
321.39184
321.32651
321.28771
321.22385
321.18931
321.12651
321.09591
321.03383
321.00691
320.94522
320.92183
320.8602
320.84024
320.77836
320.76179
320.69934
320.68617
320.62282
320.61314
320.54854
320.54243
320.47636
320.47363
320.40628
323.6992
323.91337
323.71471
323.68387
323.53408
323.42305
323.29299
323.16656
323.04865
322.93401
322.82677
322.72392
322.62805
322.53404
322.44901
322.36193
322.28657
322.20506
322.13814
322.06113
322.00153
321.92815
321.87496
321.8045
321.75698
321.68882
321.64638
321.58003
321.54217
321.47721
321.44355
321.37961
321.34985
321.28658
321.26049
321.19758
321.175
321.11216
321.09299
321.02991
321.0141
320.9505
320.93805
320.87363
320.86456
320.79906
320.79336
320.72666
320.72407
320.65636
323.7354
323.90951
323.76684
323.75079
323.6393
323.54999
323.443
323.33267
323.22959
323.12475
323.02769
322.93083
322.84213
322.75181
322.67199
322.58711
322.51566
322.43539
322.37146
322.29504
322.23782
322.16457
322.11334
322.04268
321.9968
321.92823
321.8872
321.82027
321.78367
321.71801
321.6855
321.62076
321.59206
321.52794
321.50284
321.43906
321.4174
321.35367
321.33537
321.27142
321.2564
321.19198
321.18023
321.11508
321.10657
321.04051
321.03516
320.96813
320.96565
320.89782
323.76867
323.9089
323.80658
323.79994
323.72027
323.65017
323.56505
323.47077
323.38302
323.28881
323.20291
323.11303
323.03255
322.94687
322.87321
322.79142
322.72471
322.64645
322.58626
322.5111
322.45688
322.38437
322.3356
322.26529
322.2215
322.15299
322.11376
322.04669
322.01166
321.94571
321.91458
321.84945
321.82199
321.75741
321.73344
321.66913
321.64851
321.58424
321.56687
321.5024
321.4882
321.4233
321.41224
321.34671
321.33872
321.27243
321.26739
321.20033
321.19794
321.13023
323.79929
323.912
323.83804
323.83655
323.78216
323.72824
323.66296
323.58389
323.5113
323.42803
323.35379
323.27156
323.20001
323.11975
323.053
322.97505
322.91377
322.83822
322.78238
322.70913
322.65846
322.58726
322.54144
322.47201
322.4307
322.36274
322.32564
322.25888
322.2257
322.15988
322.13037
322.06524
322.03922
321.97454
321.95185
321.88739
321.8679
321.80345
321.78706
321.72242
321.70907
321.64405
321.63367
321.5681
321.56062
321.49442
321.48966
321.42286
321.42056
321.35322
323.82752
323.91843
323.86415
323.86466
323.82954
323.7886
323.74061
323.67535
323.61718
323.54465
323.48213
323.40787
323.34567
323.27134
323.21203
323.1385
323.0832
323.01096
322.95998
322.8892
322.84255
322.7732
322.73074
322.66267
322.62421
322.55727
322.52261
322.45659
322.42552
322.36024
322.33257
322.26783
322.24342
322.17901
322.15774
322.09348
322.07522
322.01095
321.99562
321.93115
321.91869
321.85388
321.8442
321.77892
321.77192
321.70614
321.70166
321.63539
321.6332
321.56645
323.85354
323.9273
323.88684
323.88726
323.86626
323.83524
323.80174
323.74851
323.70356
323.64118
323.59003
323.52376
323.47097
323.40288
323.35129
323.28262
323.23365
323.1652
323.11946
323.05164
323.00937
322.94234
322.90357
322.83734
322.80203
322.73654
322.70457
322.63972
322.61098
322.54664
322.52101
322.45703
322.43439
322.37063
322.35088
322.2872
322.27026
322.2065
322.19229
322.12834
322.11679
322.05253
322.04355
321.9789
321.97239
321.90731
321.90312
321.83764
321.83557
321.76968
323.87754
323.93775
323.90727
323.90637
323.89538
323.87154
323.84978
323.80661
323.77339
323.72024
323.67977
323.62121
323.57764
323.51585
323.47204
323.40848
323.36603
323.30171
323.26146
323.19699
323.15936
323.09506
323.06024
322.99625
322.96432
322.90069
322.87163
322.80833
322.78211
322.71908
322.69563
322.63279
322.61204
322.54929
322.53117
322.4684
322.45285
322.38997
322.37692
322.31382
322.30321
322.23982
322.23156
322.16783
322.16182
322.09774
322.09384
322.02943
322.02748
321.96269
323.89971
323.94903
323.9261
323.92332
323.91921
323.90026
323.88769
323.85262
323.82949
323.78446
323.75373
323.70237
323.66756
323.61194
323.57574
323.51738
323.48146
323.4215
323.38683
323.32601
323.29316
323.23192
323.20122
323.13981
323.11143
323.05
323.02401
322.96261
322.93905
322.87769
322.85654
322.79518
322.77642
322.71501
322.6986
322.63708
322.62298
322.56129
322.54944
322.48751
322.47787
322.41565
322.40813
322.34561
322.34012
322.2773
322.27371
322.2106
322.2088
322.14534
323.92021
323.9606
323.94369
323.93888
323.93941
323.92356
323.91797
323.88916
323.87445
323.83632
323.81422
323.76939
323.74268
323.69294
323.66399
323.61078
323.58123
323.52572
323.49661
323.43961
323.41159
323.35365
323.32714
323.2686
323.24385
323.18493
323.16211
323.10292
323.08211
323.02272
323.00396
322.94439
322.92769
322.86793
322.85329
322.79333
322.78072
322.72051
322.70991
322.64943
322.64078
322.58002
322.57325
322.51221
322.50724
322.44593
322.44267
322.3811
322.37946
322.31756
323.93921
323.97211
323.96018
323.95348
323.9571
323.94303
323.94259
323.91842
323.91054
323.87809
323.86344
323.82437
323.80497
323.76065
323.73847
323.69021
323.66675
323.61566
323.59194
323.53887
323.5156
323.46113
323.43879
323.38333
323.36224
323.30606
323.28644
323.22972
323.2117
323.15456
323.13823
323.08072
323.06613
323.0083
322.99546
322.93732
322.92624
322.86779
322.85844
322.79969
322.79204
322.733
322.72699
322.66767
322.66325
322.60367
322.60075
322.54093
322.53947
322.47933
323.95685
323.98334
323.97565
323.96732
323.973
323.9598
323.96306
323.9422
323.9397
323.91179
323.9034
323.86926
323.85628
323.81688
323.80085
323.75724
323.73946
323.69267
323.67409
323.62493
323.60626
323.55534
323.53708
323.48483
323.46736
323.41409
323.39766
323.34361
323.32838
323.2737
323.25981
323.2046
323.19212
323.13645
323.12543
323.06935
323.0598
323.00335
322.99526
322.93847
322.93184
322.87473
322.8695
322.81212
322.80825
322.75062
322.74806
322.69018
322.68889
322.63072
323.97327
323.9942
323.99014
323.98048
323.98757
323.97465
323.98051
323.96189
323.96352
323.93912
323.93586
323.90586
323.89839
323.86333
323.85276
323.81344
323.80084
323.75814
323.74435
323.69902
323.6847
323.63732
323.62299
323.57402
323.56005
323.50982
323.49649
323.44526
323.43278
323.38073
323.36925
323.31652
323.30613
323.25283
323.2436
323.1898
323.18176
323.12752
323.12069
323.06606
323.06043
323.00547
323.00101
322.94576
322.94245
322.88693
322.88474
322.82898
322.82788
322.77185
323.98858
324.00463
324.00367
323.99295
324.00105
323.98807
323.99573
323.97856
323.98328
323.96151
323.96235
323.93571
323.93286
323.90156
323.89574
323.86029
323.85231
323.81344
323.80401
323.76236
323.75209
323.7082
323.69755
323.65187
323.64123
323.59409
323.58375
323.53543
323.5256
323.47632
323.46717
323.41707
323.40872
323.35794
323.35047
323.2991
323.29255
323.24069
323.23509
323.1828
323.17816
323.1255
323.12182
323.06884
323.0661
323.01286
323.01103
322.95755
322.95663
322.90289
324.00288
324.01464
324.01629
324.00475
324.01358
324.00038
324.00925
323.99296
323.99993
323.98008
323.9841
323.96016
323.9611
323.93297
323.93119
323.89918
323.89525
323.85988
323.85436
323.81618
323.80959
323.76907
323.76184
323.71939
323.71186
323.66783
323.6603
323.61494
323.60764
323.56119
323.55427
323.5069
323.50051
323.45237
323.44659
323.39778
323.39268
323.34332
323.33893
323.28909
323.28543
323.2352
323.23228
323.18172
323.17952
323.12869
323.12722
323.07614
323.0754
323.02408
324.01625
324.02421
324.02802
324.01585
324.02523
324.01175
324.02143
324.00565
324.0142
323.99573
324.00216
323.98034
323.98427
323.95882
323.96037
323.93137
323.93089
323.8987
323.89661
323.86166
323.85835
323.82104
323.8169
323.77759
323.77293
323.73195
323.72704
323.68464
323.67969
323.63611
323.6313
323.58671
323.58218
323.53674
323.53258
323.48642
323.48269
323.43593
323.43269
323.38542
323.38269
323.335
323.33281
323.28476
323.28311
323.23477
323.23366
323.18508
323.18452
323.1357
324.02876
324.03335
324.0389
324.02625
324.03604
324.02228
324.03249
324.01699
324.02662
324.00912
324.0173
323.99713
324.00339
323.98013
323.98439
323.95798
323.96039
323.93104
323.93188
323.8999
323.89947
323.86517
323.86378
323.82748
323.8254
323.78739
323.78486
323.74538
323.7426
323.70188
323.69902
323.65723
323.65442
323.61173
323.60908
323.56562
323.56319
323.51908
323.51693
323.47228
323.47045
323.42536
323.42387
323.3784
323.37727
323.3315
323.33074
323.28472
323.28434
323.2381
324.04046
324.04206
324.04897
324.03594
324.04601
324.03202
324.04256
324.02721
324.03755
324.02073
324.03015
324.01125
324.01926
323.9978
324.00418
323.97999
323.98475
323.95792
323.96121
323.93192
323.93395
323.90246
323.90346
323.87002
323.87022
323.83506
323.83466
323.79802
323.7972
323.75929
323.75821
323.71919
323.71798
323.67802
323.67677
323.63602
323.63479
323.59337
323.59224
323.55024
323.54925
323.50678
323.50596
323.46311
323.46247
323.41931
323.41888
323.37547
323.37525
323.33164
324.0514
324.05033
324.05824
324.04492
324.05517
324.041
324.05172
324.03648
324.04723
324.03092
324.04117
324.02326
324.03252
324.01255
324.02053
323.99824
324.00485
323.98022
323.98552
323.95866
323.96275
323.93383
323.93688
323.9061
323.90828
323.87583
323.8773
323.8434
323.84432
323.80914
323.80965
323.77336
323.77357
323.73633
323.73633
323.69827
323.69815
323.6594
323.6592
323.61986
323.61964
323.57982
323.5796
323.53938
323.5392
323.49867
323.49854
323.45776
323.45769
323.41672
324.0616
324.05812
324.06672
324.05318
324.0635
324.04922
324.06001
324.04487
324.05585
324.03993
324.05069
324.03357
324.04369
324.02493
324.03409
324.01341
324.02145
323.99874
324.00563
323.98094
323.98671
323.96014
323.96489
323.93658
323.94043
323.91054
323.91362
323.88231
323.88475
323.85219
323.8541
323.82045
323.82193
323.78733
323.78847
323.75305
323.75391
323.71779
323.71844
323.68173
323.68221
323.64501
323.64535
323.60775
323.60798
323.57006
323.57021
323.53205
323.53212
323.49378
324.07106
324.06539
324.0744
324.06069
324.07099
324.05667
324.06745
324.05245
324.0635
324.04793
324.05896
324.0425
324.05316
324.03542
324.04539
324.02608
324.03515
324.01414
324.02223
323.99948
324.00657
323.98213
323.98825
323.96222
323.96745
323.93994
323.94437
323.91552
323.91924
323.88919
323.89229
323.86118
323.86376
323.83171
323.83384
323.80099
323.80272
323.76917
323.77057
323.73643
323.73753
323.70291
323.70375
323.66872
323.66933
323.63399
323.63439
323.5988
323.599
323.56325
324.07974
324.07207
324.08125
324.06743
324.07764
324.06336
324.07406
324.05925
324.07026
324.05503
324.06615
324.05027
324.06122
324.04435
324.05483
324.0367
324.0465
324.02695
324.03592
324.0149
324.02298
324.00047
324.00766
323.98372
323.99005
323.96475
323.97027
323.94372
323.9485
323.92082
323.92492
323.89623
323.89973
323.87014
323.8731
323.84272
323.84521
323.81415
323.81619
323.78455
323.7862
323.75407
323.75535
323.72284
323.72378
323.69095
323.69157
323.65851
323.65883
323.62561
324.08751
324.07805
324.08723
324.07337
324.08345
324.06928
324.07986
324.06529
324.07619
324.06131
324.0724
324.05704
324.0681
324.05199
324.06275
324.04566
324.0559
324.03765
324.04722
324.02772
324.03652
324.01574
324.02373
324.00168
324.00885
323.98559
323.99197
323.96756
323.97318
323.94772
323.95264
323.92622
323.93049
323.90322
323.90689
323.87887
323.88197
323.8533
323.85589
323.82666
323.82876
323.79906
323.80071
323.77062
323.77185
323.74146
323.74227
323.71166
323.71207
323.68131
324.09416
324.08321
324.09228
324.0785
324.08841
324.07444
324.08485
324.07059
324.08132
324.06683
324.07779
324.06295
324.07396
324.05856
324.0694
324.05323
324.06369
324.04659
324.05652
324.03838
324.04765
324.02843
324.03697
324.01665
324.02443
324.00302
324.01005
323.98761
323.99388
323.97048
323.97604
323.95175
323.95662
323.93155
323.93577
323.90999
323.9136
323.8872
323.89024
323.8633
323.86578
323.83839
323.84036
323.81259
323.81406
323.78601
323.78698
323.75872
323.75921
323.73082
324.09943
324.08744
324.0964
324.08279
324.09253
324.07885
324.08908
324.07518
324.08571
324.07164
324.0824
324.06807
324.07894
324.0642
324.07498
324.05965
324.07015
324.05409
324.06417
324.04726
324.05678
324.03896
324.04784
324.02908
324.03726
324.01755
324.02502
324.00439
324.01113
323.98963
323.99566
323.97336
323.97868
323.95565
323.96031
323.93662
323.94064
323.91637
323.91976
323.89499
323.89778
323.87258
323.87479
323.84925
323.8509
323.82508
323.82618
323.80017
323.80072
323.77459
324.10314
324.09069
324.09956
324.08628
324.09585
324.08253
324.09256
324.07909
324.08939
324.07578
324.08629
324.07249
324.08313
324.06903
324.07963
324.06508
324.0755
324.06037
324.07044
324.05463
324.06424
324.04768
324.05672
324.03936
324.04777
324.0296
324.03733
324.01836
324.02539
324.00565
324.01199
323.99152
323.99716
323.97604
323.981
323.95927
323.96357
323.9413
323.94495
323.92222
323.92524
323.90211
323.90451
323.88106
323.88285
323.85914
323.86034
323.83645
323.83705
323.81306
324.10528
324.09296
324.10183
324.08898
324.09841
324.08553
324.09535
324.08236
324.0924
324.07929
324.08952
324.07627
324.08663
324.07314
324.0835
324.06968
324.07989
324.06562
324.07556
324.06075
324.07029
324.05487
324.06391
324.04782
324.0563
324.03952
324.04737
324.0299
324.03709
324.01895
324.02546
324.00668
324.01251
323.99314
323.99829
323.97838
323.98286
323.96246
323.96628
323.94545
323.94862
323.92743
323.92996
323.90847
323.91036
323.88864
323.8899
323.86801
323.86865
323.84666
324.10605
324.09435
324.10328
324.09098
324.10027
324.08789
324.09749
324.08502
324.09479
324.08222
324.09215
324.07945
324.08949
324.07662
324.08666
324.07353
324.08346
324.06999
324.07969
324.06579
324.07515
324.06076
324.06968
324.05474
324.06315
324.04763
324.05546
324.03936
324.04656
324.02988
324.03645
324.0192
324.02511
324.00735
324.01259
323.99435
323.99893
323.98025
323.98416
323.9651
323.96836
323.94896
323.95156
323.9319
323.93385
323.91398
323.91528
323.89526
323.89591
323.8758
324.10586
324.09503
324.10404
324.09235
324.10151
324.08968
324.09906
324.08713
324.09663
324.08461
324.09422
324.0821
324.09178
324.07952
324.0892
324.07674
324.08633
324.0736
324.08298
324.06992
324.079
324.06554
324.07424
324.06033
324.06856
324.05418
324.06188
324.04701
324.05413
324.03876
324.04528
324.02943
324.03532
324.01902
324.02426
324.00755
324.01214
323.99504
323.99898
323.98154
323.98482
323.96709
323.96972
323.95174
323.95372
323.93555
323.93687
323.91858
323.91924
323.90087
324.10511
324.09521
324.10424
324.09321
324.10221
324.09097
324.10011
324.08876
324.09796
324.08651
324.09578
324.08424
324.09356
324.0819
324.09119
324.07937
324.08856
324.07653
324.08553
324.07324
324.08197
324.06936
324.07775
324.06478
324.07274
324.05938
324.06685
324.05309
324.06003
324.04586
324.05223
324.03765
324.04342
324.02846
324.03362
324.01829
324.02283
324.00717
324.01107
323.99511
323.99837
323.98216
323.98477
323.96835
323.97031
323.95372
323.95504
323.93833
323.93899
323.92222
324.10412
324.09505
324.10403
324.09364
324.10247
324.09183
324.10071
324.08994
324.09884
324.08797
324.09689
324.08594
324.09486
324.08379
324.09267
324.08146
324.09022
324.07885
324.08743
324.07584
324.08417
324.07233
324.08033
324.06821
324.07583
324.06339
324.07057
324.0578
324.06448
324.05138
324.05753
324.04409
324.04968
324.03592
324.04093
324.02686
324.03128
324.01693
324.02074
324.00613
324.00932
323.99449
323.99705
323.98204
323.98397
323.96882
323.97011
323.95485
323.9555
323.94019
324.10307
324.0947
324.10352
324.09375
324.10237
324.09233
324.10094
324.09075
324.09933
324.08905
324.0976
324.08722
324.09574
324.08525
324.09368
324.08306
324.09137
324.0806
324.08872
324.07778
324.08566
324.07453
324.0821
324.07074
324.07796
324.06635
324.07316
324.06129
324.06765
324.05551
324.06137
324.04896
324.05431
324.04162
324.04643
324.0335
324.03774
324.02457
324.02824
324.01486
324.01793
324.00436
324.00684
323.99311
323.99498
323.98113
323.98238
323.96845
323.96908
323.95509
324.10203
324.09424
324.10281
324.09362
324.102
324.09254
324.10085
324.09124
324.09949
324.08977
324.09795
324.08813
324.09622
324.08629
324.09427
324.0842
324.09203
324.08183
324.08946
324.07912
324.08651
324.07601
324.08312
324.07244
324.07922
324.06835
324.07476
324.06368
324.06967
324.05838
324.06392
324.05242
324.05748
324.04576
324.05032
324.0384
324.04243
324.03032
324.03381
324.02153
324.02446
324.01202
324.01439
324.00182
324.0036
323.99094
323.99213
323.97939
323.97999
323.96721
324.10101
324.09374
324.10197
324.09332
324.10141
324.09252
324.10051
324.09146
324.09936
324.09019
324.09798
324.08869
324.09635
324.08694
324.09444
324.0849
324.09222
324.08255
324.08967
324.07987
324.08675
324.07683
324.08344
324.07337
324.07968
324.06947
324.07543
324.06506
324.07065
324.06012
324.06529
324.0546
324.05934
324.04848
324.05275
324.04174
324.04553
324.03437
324.03765
324.02635
324.02911
324.01769
324.01992
324.00839
324.01008
323.99847
323.9996
323.98794
323.98851
323.97681
324.1
324.09322
324.10104
324.09289
324.10066
324.09231
324.09997
324.09146
324.09898
324.09034
324.09771
324.08893
324.09613
324.08721
324.09422
324.08516
324.09196
324.08277
324.08935
324.08005
324.0864
324.07699
324.08308
324.07357
324.07937
324.06975
324.07524
324.06551
324.07066
324.06081
324.06559
324.05562
324.06
324.04991
324.05387
324.04367
324.04718
324.03687
324.03992
324.0295
324.03207
324.02156
324.02364
324.01304
324.01462
324.00396
324.00501
323.99431
323.99484
323.98411
324.09898
324.09269
324.10006
324.09238
324.0998
324.09196
324.09926
324.09126
324.09839
324.09024
324.09718
324.08887
324.09559
324.08711
324.0936
324.08498
324.09124
324.08248
324.08852
324.07966
324.08546
324.07651
324.08207
324.07304
324.07833
324.06923
324.07424
324.06507
324.06977
324.06052
324.06488
324.05555
324.05956
324.05015
324.05378
324.0443
324.04752
324.03796
324.04076
324.03113
324.0335
324.02379
324.02571
324.01594
324.01739
324.00758
324.00856
323.99871
323.9992
323.98933
324.09795
324.09216
324.09904
324.0918
324.09886
324.0915
324.09842
324.09089
324.09761
324.08991
324.09639
324.08849
324.0947
324.08663
324.09258
324.08434
324.09004
324.08168
324.08714
324.07868
324.08392
324.07538
324.08039
324.0718
324.07657
324.06793
324.07244
324.06377
324.068
324.05929
324.06323
324.05447
324.05809
324.04929
324.05257
324.04372
324.04665
324.03775
324.0403
324.03136
324.03351
324.02453
324.02627
324.01725
324.01857
324.00951
324.0104
324.00132
324.00176
323.99266
324.0969
324.09161
324.09798
324.09118
324.09785
324.09094
324.09747
324.09037
324.09665
324.08934
324.09532
324.0878
324.09347
324.08574
324.09113
324.08322
324.08835
324.08032
324.0852
324.07709
324.08176
324.07358
324.07804
324.06983
324.07407
324.06585
324.06986
324.06163
324.0654
324.05715
324.06066
324.05241
324.05564
324.04738
324.05031
324.04203
324.04465
324.03635
324.03863
324.03031
324.03224
324.0239
324.02547
324.01709
324.01829
324.0099
324.0107
324.00229
324.00269
323.99427
324.09581
324.09107
324.0969
324.09052
324.09679
324.09031
324.09642
324.0897
324.0955
324.08853
324.09398
324.08676
324.09186
324.08441
324.08921
324.08159
324.08612
324.07837
324.08267
324.07485
324.07895
324.07109
324.07499
324.06713
324.07084
324.06298
324.0665
324.05865
324.06196
324.05414
324.05722
324.04941
324.05226
324.04447
324.04706
324.03928
324.0416
324.03382
324.03584
324.02807
324.02978
324.022
324.0234
324.01561
324.01667
324.00887
324.00958
324.00177
324.00213
323.99431
324.09469
324.09051
324.09578
324.08983
324.09569
324.08959
324.09525
324.08885
324.09414
324.08744
324.09231
324.08532
324.08982
324.0826
324.08678
324.07938
324.0833
324.07579
324.0795
324.07193
324.07545
324.06787
324.07123
324.06366
324.06685
324.05931
324.06234
324.05485
324.0577
324.05025
324.05292
324.04551
324.04798
324.04061
324.04286
324.03553
324.03755
324.03023
324.032
324.02471
324.02621
324.01893
324.02016
324.01288
324.01381
324.00654
324.00717
323.99989
324.00021
323.99292
324.09352
324.08994
324.09463
324.0891
324.09454
324.08879
324.09396
324.08781
324.09253
324.08601
324.09026
324.08344
324.08729
324.08023
324.08377
324.07655
324.07984
324.07253
324.07563
324.06829
324.07123
324.06389
324.0667
324.0594
324.06208
324.05484
324.05739
324.05021
324.05262
324.0455
324.04777
324.04072
324.04282
324.03583
324.03775
324.03082
324.03254
324.02565
324.02717
324.02031
324.02161
324.01477
324.01583
324.00902
324.00982
324.00301
324.00356
323.99675
323.99703
323.99022
324.0923
324.08936
324.09345
324.08834
324.09334
324.08788
324.09251
324.08652
324.0906
324.08419
324.08776
324.08103
324.08419
324.07724
324.08011
324.07302
324.07568
324.06852
324.07102
324.06386
324.06624
324.05911
324.0614
324.05433
324.05652
324.04953
324.05162
324.04472
324.04671
324.0399
324.04178
324.03505
324.0368
324.03015
324.03176
324.02518
324.02664
324.02012
324.0214
324.01493
324.01602
324.0096
324.01049
324.00409
324.00477
323.99838
323.99885
323.99247
323.9927
323.98631
324.09101
324.08877
324.09224
324.08755
324.09205
324.08681
324.09082
324.0849
324.08827
324.08188
324.08471
324.07801
324.08045
324.07355
324.07573
324.06873
324.07075
324.06371
324.06562
324.05861
324.06044
324.0535
324.05527
324.04841
324.05012
324.04338
324.04503
324.03839
324.03997
324.03344
324.03495
324.02852
324.02994
324.0236
324.02491
324.01867
324.01986
324.01368
324.01474
324.00862
324.00953
324.00346
324.0042
323.99817
323.99874
323.99273
323.99311
323.98712
323.98731
323.9813
324.08966
324.08819
324.09098
324.08671
324.09064
324.08552
324.08883
324.08285
324.08544
324.07897
324.08101
324.07426
324.07596
324.06906
324.07055
324.06359
324.06497
324.05803
324.05936
324.05248
324.05378
324.047
324.04828
324.04163
324.04289
324.03636
324.0376
324.0312
324.03241
324.02614
324.0273
324.02115
324.02225
324.01621
324.01724
324.0113
324.01224
324.00638
324.00722
324.00144
324.00216
323.99643
323.99702
323.99133
323.99179
323.98613
323.98644
323.98079
323.98094
323.97528
324.08821
324.08763
324.08967
324.0858
324.08904
324.08392
324.0864
324.08025
324.08198
324.07533
324.07654
324.06969
324.07061
324.06367
324.06447
324.05753
324.05829
324.05143
324.05219
324.04544
324.04623
324.03961
324.04042
324.03395
324.03479
324.02848
324.02933
324.02316
324.02402
324.01799
324.01883
324.01294
324.01376
324.00799
324.00876
324.0031
324.00382
323.99826
323.9989
323.99341
323.99397
323.98855
323.98901