/*--------------------------------*- C++ -*----------------------------------*\
| =========                 |                                                 |
| \\      /  F ield         | OpenFOAM: The Open Source CFD Toolbox           |
|  \\    /   O peration     | Version:  2312                                  |
|   \\  /    A nd           | Website:  www.openfoam.com                      |
|    \\/     M anipulation  |                                                 |
\*---------------------------------------------------------------------------*/
FoamFile
{
    version     2.0;
    format      ascii;
    arch        "LSB;label=32;scalar=64";
    class       volVectorField;
    location    "9";
    object      U_0;
}
// * * * * * * * * * * * * * * * * * * * * * * * * * * * * * * * * * * * * * //

dimensions      [0 1 -1 0 0 0 0];

internalField   nonuniform List<vector> 
4000
(
(0.0033947898 0.00064292644 0)
(0.0064254325 -9.4193583e-06 0)
(0.003154991 -1.2185462e-07 0)
(0.0038613979 -6.9588733e-07 0)
(0.0036073231 9.6276848e-08 0)
(0.0035845015 -1.9988812e-07 0)
(0.0035910236 1.0259165e-07 0)
(0.0035353061 -1.6887743e-07 0)
(0.0035645227 1.2246451e-07 0)
(0.0035304383 -1.2809072e-07 0)
(0.003556348 1.1385111e-07 0)
(0.003531964 -1.0794354e-07 0)
(0.0035533955 1.0054949e-07 0)
(0.0035335525 -9.4435346e-08 0)
(0.0035518058 8.8636208e-08 0)
(0.0035347464 -8.344327e-08 0)
(0.0035506437 7.8515735e-08 0)
(0.0035357355 -7.4032802e-08 0)
(0.0035496825 6.9797624e-08 0)
(0.003536601 -6.5884552e-08 0)
(0.0035488543 6.2215492e-08 0)
(0.0035373649 -5.8794879e-08 0)
(0.0035481293 5.5598172e-08 0)
(0.0035380413 -5.2604741e-08 0)
(0.0035474887 4.9810638e-08 0)
(0.0035386431 -4.7189491e-08 0)
(0.003546918 4.4745149e-08 0)
(0.0035391816 -4.2451978e-08 0)
(0.0035464063 4.0316648e-08 0)
(0.0035396661 -3.8315982e-08 0)
(0.0035459448 3.645741e-08 0)
(0.0035401045 -3.4720436e-08 0)
(0.0035455262 3.311232e-08 0)
(0.0035405031 -3.1615108e-08 0)
(0.0035451446 3.0235446e-08 0)
(0.0035408677 -2.8957761e-08 0)
(0.0035447946 2.7787888e-08 0)
(0.0035412031 -2.6712507e-08 0)
(0.0035444714 2.5736585e-08 0)
(0.0035415141 -2.484899e-08 0)
(0.0035441707 2.405374e-08 0)
(0.0035418048 -2.3342142e-08 0)
(0.0035438882 2.271706e-08 0)
(0.0035420798 -2.217116e-08 0)
(0.0035436211 2.1714171e-08 0)
(0.0035423436 -2.1316075e-08 0)
(0.0035433602 2.1039836e-08 0)
(0.0035425662 -2.0837899e-08 0)
(0.0035429845 2.034186e-08 0)
(0.0035424597 -2.2448479e-08 0)
(0.0080350846 0.0016768571 0)
(0.016834276 1.6261125e-05 0)
(0.0099448578 3.3807013e-05 0)
(0.011041372 -5.4293924e-06 0)
(0.010481182 4.0519633e-06 0)
(0.010381986 -3.2770538e-07 0)
(0.010426146 1.1521581e-06 0)
(0.010259177 -1.4487921e-07 0)
(0.010347733 5.3658178e-07 0)
(0.010247141 -3.3847297e-07 0)
(0.010324101 4.0099153e-07 0)
(0.010252026 -3.581706e-07 0)
(0.010315759 3.5266644e-07 0)
(0.010256761 -3.3088727e-07 0)
(0.010311201 3.1536877e-07 0)
(0.010260291 -2.9650052e-07 0)
(0.010307796 2.8071388e-07 0)
(0.010263225 -2.6423243e-07 0)
(0.010304951 2.4976444e-07 0)
(0.010265802 -2.3557645e-07 0)
(0.010302488 2.2270723e-07 0)
(0.010268084 -2.104129e-07 0)
(0.010300324 1.9906917e-07 0)
(0.01027011 -1.8834495e-07 0)
(0.010298405 1.7837438e-07 0)
(0.010271919 -1.6899144e-07 0)
(0.010296691 1.6024544e-07 0)
(0.01027354 -1.5203756e-07 0)
(0.010295152 1.4438826e-07 0)
(0.010275002 -1.3722809e-07 0)
(0.010293761 1.3056795e-07 0)
(0.010276326 -1.2435304e-07 0)
(0.010292499 1.1859097e-07 0)
(0.010277531 -1.1323586e-07 0)
(0.010291346 1.0829385e-07 0)
(0.010278633 -1.0372573e-07 0)
(0.010290288 9.9536631e-08 0)
(0.010279649 -9.5693089e-08 0)
(0.01028931 9.2199433e-08 0)
(0.010280593 -8.9027143e-08 0)
(0.010288398 8.6180649e-08 0)
(0.010281476 -8.3636134e-08 0)
(0.010287539 8.1391351e-08 0)
(0.010282314 -7.9456736e-08 0)
(0.010286724 7.775682e-08 0)
(0.010283121 -7.6365603e-08 0)
(0.010285937 7.5636223e-08 0)
(0.010283851 -7.2974748e-08 0)
(0.010284915 7.8436132e-08 0)
(0.010283735 -7.0883161e-08 0)
(0.011201092 0.0022704943 0)
(0.025866266 -3.6465504e-05 0)
(0.016505334 7.6030802e-05 0)
(0.018038405 -9.1959451e-06 0)
(0.017158955 9.67791e-06 0)
(0.016991547 -4.064931e-07 0)
(0.017083727 2.5612256e-06 0)
(0.016803863 4.0762268e-08 0)
(0.016958314 1.0356854e-06 0)
(0.016788569 -5.4002968e-07 0)
(0.016919927 7.2630671e-07 0)
(0.01679782 -6.3780044e-07 0)
(0.016906301 6.3973987e-07 0)
(0.016805994 -6.0101422e-07 0)
(0.016898714 5.7550159e-07 0)
(0.016811999 -5.4094015e-07 0)
(0.016892976 5.1314642e-07 0)
(0.016816984 -4.8271739e-07 0)
(0.016888157 4.5668114e-07 0)
(0.016821365 -4.3061594e-07 0)
(0.016883973 4.0724419e-07 0)
(0.016825251 -3.8472952e-07 0)
(0.01688029 3.6404333e-07 0)
(0.016828707 -3.4442534e-07 0)
(0.016877017 3.262064e-07 0)
(0.016831796 -3.0904488e-07 0)
(0.01687409 2.9304719e-07 0)
(0.016834569 -2.7803335e-07 0)
(0.016871457 2.6403469e-07 0)
(0.01683707 -2.509357e-07 0)
(0.016869078 2.387445e-07 0)
(0.016839337 -2.2737375e-07 0)
(0.016866917 2.1682537e-07 0)
(0.0168414 -2.0702691e-07 0)
(0.016864944 1.9797904e-07 0)
(0.01684329 -1.8961958e-07 0)
(0.016863133 1.81949e-07 0)
(0.016845031 -1.7491389e-07 0)
(0.016861457 1.685147e-07 0)
(0.016846648 -1.6270539e-07 0)
(0.016859893 1.5748857e-07 0)
(0.016848164 -1.5282363e-07 0)
(0.01685842 1.487021e-07 0)
(0.016849601 -1.4515811e-07 0)
(0.016857019 1.4198717e-07 0)
(0.016850988 -1.3949001e-07 0)
(0.016855669 1.3809688e-07 0)
(0.016852275 -1.325348e-07 0)
(0.016853999 1.4614818e-07 0)
(0.016852269 -1.2883738e-07 0)
(0.017568191 0.0037739171 0)
(0.03444084 -3.7462361e-05 0)
(0.02280527 0.000131452 0)
(0.024847272 -1.4691011e-05 0)
(0.023642043 1.7825355e-05 0)
(0.023414095 -4.2463578e-07 0)
(0.02356297 4.379961e-06 0)
(0.023169626 5.0696763e-07 0)
(0.023396375 1.5547983e-06 0)
(0.02315483 -6.558904e-07 0)
(0.023343923 1.0287379e-06 0)
(0.023169292 -8.9081636e-07 0)
(0.02332514 9.1070967e-07 0)
(0.023181156 -8.578696e-07 0)
(0.023314471 8.2535549e-07 0)
(0.02318977 -7.7577947e-07 0)
(0.023306303 7.3742929e-07 0)
(0.023196918 -6.9327645e-07 0)
(0.023299408 6.5647032e-07 0)
(0.023203208 -6.1882607e-07 0)
(0.023293406 5.8545708e-07 0)
(0.023208792 -5.5304311e-07 0)
(0.023288111 5.2337926e-07 0)
(0.023213766 -4.9516654e-07 0)
(0.0232834 4.6898645e-07 0)
(0.023218215 -4.4431154e-07 0)
(0.023279183 4.2130053e-07 0)
(0.023222212 -3.9971284e-07 0)
(0.023275388 3.7956836e-07 0)
(0.023225819 -3.6073306e-07 0)
(0.023271957 3.4318676e-07 0)
(0.023229087 -3.2683628e-07 0)
(0.023268841 3.1165388e-07 0)
(0.023232063 -2.9756419e-07 0)
(0.023265996 2.8454137e-07 0)
(0.023234787 -2.7252052e-07 0)
(0.023263384 2.6147945e-07 0)
(0.023237297 -2.5136196e-07 0)
(0.023260968 2.4214948e-07 0)
(0.023239628 -2.3379253e-07 0)
(0.023258714 2.2628011e-07 0)
(0.023241813 -2.1956468e-07 0)
(0.02325659 2.1362264e-07 0)
(0.023243885 -2.0853023e-07 0)
(0.023254569 2.038943e-07 0)
(0.023245887 -2.0038854e-07 0)
(0.023252626 1.983359e-07 0)
(0.023247771 -1.8935471e-07 0)
(0.023250305 2.1432329e-07 0)
(0.023248002 -1.8472124e-07 0)
(0.020521379 0.0040588485 0)
(0.04196536 -0.00012514282 0)
(0.028870789 0.00019444919 0)
(0.03149177 -2.1803162e-05 0)
(0.029929397 2.8524848e-05 0)
(0.029651461 -4.4886563e-07 0)
(0.02986222 6.5385517e-06 0)
(0.029356692 1.2217662e-06 0)
(0.029661685 2.054022e-06 0)
(0.029346179 -6.7954134e-07 0)
(0.029595957 1.2909743e-06 0)
(0.029366575 -1.1068798e-06 0)
(0.029572165 1.1532909e-06 0)
(0.029382335 -1.090966e-06 0)
(0.029558379 1.0544649e-06 0)
(0.029393674 -9.9133263e-07 0)
(0.029547698 9.4427923e-07 0)
(0.029403089 -8.8718335e-07 0)
(0.029538634 8.4085357e-07 0)
(0.029411383 -7.9238884e-07 0)
(0.029530725 7.4994828e-07 0)
(0.029418754 -7.0834943e-07 0)
(0.029523735 6.7045234e-07 0)
(0.029425327 -6.3428679e-07 0)
(0.029517508 6.0077134e-07 0)
(0.029431211 -5.6914974e-07 0)
(0.02951193 5.3966357e-07 0)
(0.0294365 -5.1199944e-07 0)
(0.029506909 4.8617652e-07 0)
(0.029441272 -4.6203998e-07 0)
(0.029502369 4.395451e-07 0)
(0.029445596 -4.1859356e-07 0)
(0.029498247 3.9912932e-07 0)
(0.029449532 -3.8107549e-07 0)
(0.029494485 3.6438029e-07 0)
(0.029453134 -3.4897748e-07 0)
(0.029491031 3.3482268e-07 0)
(0.029456452 -3.2185796e-07 0)
(0.029487838 3.1004624e-07 0)
(0.029459533 -2.9933527e-07 0)
(0.029484859 2.8970161e-07 0)
(0.02946242 -2.810894e-07 0)
(0.029482053 2.7346296e-07 0)
(0.029465157 -2.6694495e-07 0)
(0.029479384 2.6091456e-07 0)
(0.029467799 -2.5654842e-07 0)
(0.029476819 2.5381849e-07 0)
(0.029470312 -2.4121687e-07 0)
(0.029473844 2.7981049e-07 0)
(0.029470891 -2.3603592e-07 0)
(0.025061493 0.0049470718 0)
(0.049340679 -0.00013531184 0)
(0.034747983 0.00026835058 0)
(0.037939327 -3.0799697e-05 0)
(0.036018265 4.1781952e-05 0)
(0.035704806 -6.3055022e-07 0)
(0.035979827 8.9742796e-06 0)
(0.035365901 2.1236142e-06 0)
(0.035753869 2.5120079e-06 0)
(0.035363105 -6.1966979e-07 0)
(0.035675755 1.5115402e-06 0)
(0.035389976 -1.289562e-06 0)
(0.035647132 1.368633e-06 0)
(0.035409772 -1.3022984e-06 0)
(0.035630224 1.2641531e-06 0)
(0.035423919 -1.1889913e-06 0)
(0.03561697 1.1348354e-06 0)
(0.03543568 -1.0655378e-06 0)
(0.035605666 1.0108004e-06 0)
(0.035446054 -9.5222318e-07 0)
(0.035595777 9.0155284e-07 0)
(0.035455283 -8.5143579e-07 0)
(0.035587024 8.0599018e-07 0)
(0.035463521 -7.6247329e-07 0)
(0.03557922 7.2220357e-07 0)
(0.035470899 -6.8416886e-07 0)
(0.035572224 6.4871081e-07 0)
(0.035477533 -6.1544049e-07 0)
(0.035565926 5.8437814e-07 0)
(0.035483518 -5.5535274e-07 0)
(0.035560233 5.2829205e-07 0)
(0.035488941 -5.030988e-07 0)
(0.035555064 4.7968465e-07 0)
(0.035493875 -4.5797714e-07 0)
(0.035550348 4.3789477e-07 0)
(0.03549839 -4.1937518e-07 0)
(0.035546021 4.0234852e-07 0)
(0.035502547 -3.8675959e-07 0)
(0.035542021 3.7255005e-07 0)
(0.035506406 -3.5966848e-07 0)
(0.035538291 3.4807721e-07 0)
(0.03551002 -3.3771329e-07 0)
(0.035534779 3.2853006e-07 0)
(0.035513444 -3.2069935e-07 0)
(0.035531438 3.1334193e-07 0)
(0.035516748 -3.0825135e-07 0)
(0.035528232 3.0479619e-07 0)
(0.035519912 -2.884839e-07 0)
(0.0355246 3.4234773e-07 0)
(0.035520934 -2.8260719e-07 0)
(0.029677499 0.0057193591 0)
(0.055516381 -0.00022991902 0)
(0.040462937 0.00033456232 0)
(0.044144489 -3.7107485e-05 0)
(0.041914541 5.8344601e-05 0)
(0.041578087 -8.9989784e-07 0)
(0.041915832 1.1708061e-05 0)
(0.041198612 3.1673635e-06 0)
(0.041672607 2.9128849e-06 0)
(0.041206113 -4.8476933e-07 0)
(0.041583067 1.6902648e-06 0)
(0.0412398 -1.4424682e-06 0)
(0.041549801 1.5583448e-06 0)
(0.041263708 -1.4940183e-06 0)
(0.041529785 1.4559916e-06 0)
(0.041280714 -1.3703253e-06 0)
(0.041513921 1.31043e-06 0)
(0.041294878 -1.2296132e-06 0)
(0.041500324 1.1674568e-06 0)
(0.041307389 -1.099415e-06 0)
(0.041488404 1.0412729e-06 0)
(0.04131853 -9.8324899e-07 0)
(0.041477837 9.308781e-07 0)
(0.041328481 -8.8056352e-07 0)
(0.041468409 8.3407265e-07 0)
(0.041337399 -7.9011786e-07 0)
(0.041459954 7.4915211e-07 0)
(0.041345416 -7.1071122e-07 0)
(0.041452341 6.7481563e-07 0)
(0.041352651 -6.412839e-07 0)
(0.041445461 6.1001212e-07 0)
(0.041359203 -5.8091068e-07 0)
(0.041439216 5.5385441e-07 0)
(0.041365164 -5.2878138e-07 0)
(0.04143352 5.0557637e-07 0)
(0.041370616 -4.8418611e-07 0)
(0.041428295 4.6451195e-07 0)
(0.041375635 -4.465058e-07 0)
(0.041423467 4.3008531e-07 0)
(0.041380291 -4.1520344e-07 0)
(0.041418967 4.0180641e-07 0)
(0.041384651 -3.8982548e-07 0)
(0.041414731 3.7920441e-07 0)
(0.04138878 -3.7016405e-07 0)
(0.041410702 3.6154564e-07 0)
(0.04139276 -3.5585584e-07 0)
(0.041406839 3.5160882e-07 0)
(0.041396591 -3.3160415e-07 0)
(0.041402551 4.0180564e-07 0)
(0.041398136 -3.245401e-07 0)
(0.033572984 0.0060862288 0)
(0.061244663 -0.00026566296 0)
(0.046170281 0.00040071819 0)
(0.04987051 -4.6229706e-05 0)
(0.047590379 7.5369261e-05 0)
(0.047264611 -1.7279417e-06 0)
(0.047667836 1.4624263e-05 0)
(0.046855873 4.2801616e-06 0)
(0.047417474 3.2445152e-06 0)
(0.046875587 -2.8201558e-07 0)
(0.047317676 1.8259823e-06 0)
(0.046916298 -1.5672501e-06 0)
(0.047279966 1.7224694e-06 0)
(0.046944349 -1.6666469e-06 0)
(0.047256872 1.6300689e-06 0)
(0.046964243 -1.5354832e-06 0)
(0.047238378 1.4710676e-06 0)
(0.046980848 -1.379429e-06 0)
(0.047222455 1.3107921e-06 0)
(0.046995536 -1.2339403e-06 0)
(0.047208465 1.1690666e-06 0)
(0.047008627 -1.1037504e-06 0)
(0.04719605 1.045073e-06 0)
(0.047020326 -9.8851728e-07 0)
(0.047184964 9.3633943e-07 0)
(0.047030813 -8.8696075e-07 0)
(0.047175021 8.4095454e-07 0)
(0.047040242 -7.977819e-07 0)
(0.047166069 7.5746269e-07 0)
(0.047048749 -7.1981008e-07 0)
(0.047157978 6.8468504e-07 0)
(0.047056453 -6.5201142e-07 0)
(0.047150637 6.2162347e-07 0)
(0.047063459 -5.9347519e-07 0)
(0.047143944 5.6741427e-07 0)
(0.047069865 -5.4340125e-07 0)
(0.047137805 5.2130588e-07 0)
(0.047075761 -5.0109116e-07 0)
(0.047132134 4.8264838e-07 0)
(0.047081229 -4.6593818e-07 0)
(0.047126851 4.5088897e-07 0)
(0.047086347 -4.3742762e-07 0)
(0.047121878 4.2549005e-07 0)
(0.047091192 -4.153436e-07 0)
(0.047117151 4.0553838e-07 0)
(0.047095858 -3.9937074e-07 0)
(0.047112621 3.942673e-07 0)
(0.047100365 -3.7067898e-07 0)
(0.047107681 4.5780734e-07 0)
(0.047102502 -3.6175812e-07 0)
(0.038482446 0.0068439385 0)
(0.065664258 -0.00038838284 0)
(0.051977932 0.00048137903 0)
(0.05504962 -5.4815402e-05 0)
(0.053051433 9.1346638e-05 0)
(0.052763071 -2.911579e-06 0)
(0.053237081 1.7757214e-05 0)
(0.052338734 5.424042e-06 0)
(0.052988182 3.4946482e-06 0)
(0.052371875 -1.8784054e-08 0)
(0.052879435 1.9175642e-06 0)
(0.05241969 -1.6648867e-06 0)
(0.05283746 1.8608034e-06 0)
(0.052451875 -1.8202147e-06 0)
(0.052811325 1.7861392e-06 0)
(0.052474664 -1.6842321e-06 0)
(0.052790192 1.6164296e-06 0)
(0.052493733 -1.514687e-06 0)
(0.052771923 1.4404875e-06 0)
(0.052510623 -1.3555014e-06 0)
(0.05275584 1.284639e-06 0)
(0.052525687 -1.2126626e-06 0)
(0.052741554 1.1483085e-06 0)
(0.052539155 -1.0860838e-06 0)
(0.052728792 1.0287665e-06 0)
(0.052551231 -9.7447422e-07 0)
(0.052717342 9.2390795e-07 0)
(0.052562088 -8.764547e-07 0)
(0.052707035 8.3213337e-07 0)
(0.052571883 -7.9075587e-07 0)
(0.052697721 7.5214572e-07 0)
(0.05258075 -7.1624483e-07 0)
(0.052689272 6.8284444e-07 0)
(0.052588813 -6.5191866e-07 0)
(0.05268157 6.2327603e-07 0)
(0.052596183 -5.968945e-07 0)
(0.052674508 5.7261056e-07 0)
(0.052602964 -5.5040129e-07 0)
(0.052667987 5.3013028e-07 0)
(0.052609251 -5.1176841e-07 0)
(0.052661913 4.9522525e-07 0)
(0.052615135 -4.8042425e-07 0)
(0.052656198 4.6729597e-07 0)
(0.052620702 -4.5614943e-07 0)
(0.052650765 4.4524099e-07 0)
(0.052626059 -4.387129e-07 0)
(0.052645563 4.3269787e-07 0)
(0.052631247 -4.0570598e-07 0)
(0.052639974 5.0993786e-07 0)
(0.052634032 -3.9419704e-07 0)
(0.042710431 0.0070997314 0)
(0.069808862 -0.00045260821 0)
(0.057643284 0.0005531329 0)
(0.05978398 -6.2455178e-05 0)
(0.058329117 0.00010420071 0)
(0.058060985 -4.7955608e-06 0)
(0.058621982 2.0898679e-05 0)
(0.057647615 6.5177814e-06 0)
(0.058384481 3.6563409e-06 0)
(0.05769524 2.9551696e-07 0)
(0.058268221 1.9645377e-06 0)
(0.057750162 -1.7364517e-06 0)
(0.058222134 1.9733656e-06 0)
(0.057786444 -1.954898e-06 0)
(0.058192998 1.924121e-06 0)
(0.057812119 -1.8164893e-06 0)
(0.058169231 1.7463469e-06 0)
(0.05783366 -1.635234e-06 0)
(0.058148606 1.5563648e-06 0)
(0.057852764 -1.4639366e-06 0)
(0.058130421 1.3878256e-06 0)
(0.057869813 -1.3098336e-06 0)
(0.058114254 1.2404381e-06 0)
(0.05788506 -1.1731267e-06 0)
(0.058099806 1.1112257e-06 0)
(0.057898732 -1.0525384e-06 0)
(0.058086844 9.9790056e-07 0)
(0.057911025 -9.466249e-07 0)
(0.058075174 8.9873009e-07 0)
(0.057922112 -8.5402951e-07 0)
(0.058064633 8.1230836e-07 0)
(0.057932147 -7.7352992e-07 0)
(0.058055071 7.3744122e-07 0)
(0.05794127 -7.0403968e-07 0)
(0.058046358 6.7309358e-07 0)
(0.057949608 -6.4460111e-07 0)
(0.05803837 6.1836459e-07 0)
(0.057957277 -5.9437762e-07 0)
(0.058030994 5.7247532e-07 0)
(0.057964387 -5.5264089e-07 0)
(0.058024127 5.3476443e-07 0)
(0.057971038 -5.1876695e-07 0)
(0.058017667 5.0457614e-07 0)
(0.057977329 -4.9253651e-07 0)
(0.058011527 4.806158e-07 0)
(0.057983379 -4.7383807e-07 0)
(0.05800565 4.6686843e-07 0)
(0.057989247 -4.3670534e-07 0)
(0.057999421 5.5785835e-07 0)
(0.057992727 -4.2188345e-07 0)
(0.047863961 0.0077708563 0)
(0.073174603 -0.00055913754 0)
(0.062941087 0.00060074571 0)
(0.06425717 -6.8738105e-05 0)
(0.06345105 0.00011336352 0)
(0.063147313 -7.4625002e-06 0)
(0.063822623 2.3833866e-05 0)
(0.062783816 7.5053473e-06 0)
(0.063606174 3.7222506e-06 0)
(0.062845931 6.5126644e-07 0)
(0.063483946 1.9668498e-06 0)
(0.062907883 -1.7828436e-06 0)
(0.063433859 2.060455e-06 0)
(0.062948197 -2.0709493e-06 0)
(0.063401762 2.0441135e-06 0)
(0.062976736 -1.9322978e-06 0)
(0.063375372 1.8608046e-06 0)
(0.063000746 -1.7410532e-06 0)
(0.063352396 1.6583876e-06 0)
(0.063022063 -1.559217e-06 0)
(0.063332111 1.4785924e-06 0)
(0.063041096 -1.3952353e-06 0)
(0.063314064 1.3214346e-06 0)
(0.063058121 -1.2496231e-06 0)
(0.063297932 1.1836965e-06 0)
(0.063073388 -1.1211362e-06 0)
(0.063283458 1.0629179e-06 0)
(0.063087113 -1.0082802e-06 0)
(0.06327043 9.5724257e-07 0)
(0.063099491 -9.0962219e-07 0)
(0.063258663 8.6516564e-07 0)
(0.063110692 -8.2386026e-07 0)
(0.063247991 7.8540846e-07 0)
(0.063120873 -7.4983342e-07 0)
(0.063238268 7.1686291e-07 0)
(0.063130176 -6.8651741e-07 0)
(0.063229356 6.5856497e-07 0)
(0.063138731 -6.3301745e-07 0)
(0.063221129 6.0968139e-07 0)
(0.06314666 -5.8855385e-07 0)
(0.06321347 5.6950534e-07 0)
(0.063154077 -5.5245513e-07 0)
(0.063206268 5.3733077e-07 0)
(0.063161091 -5.2450487e-07 0)
(0.063199423 5.1166849e-07 0)
(0.063167829 -5.0474366e-07 0)
(0.063192872 4.9679073e-07 0)
(0.063174375 -4.6372672e-07 0)
(0.063186012 6.0130636e-07 0)
(0.063178586 -4.449194e-07 0)
(0.052181451 0.0078501892 0)
(0.076400452 -0.00064647729 0)
(0.06801202 0.0006566512 0)
(0.068570305 -7.0650923e-05 0)
(0.068434898 0.00011953605 0)
(0.068025587 -1.0549318e-05 0)
(0.068840826 2.6302317e-05 0)
(0.067748304 8.3253249e-06 0)
(0.068653208 3.6976489e-06 0)
(0.067824133 1.0387276e-06 0)
(0.06852655 1.9251949e-06 0)
(0.067893001 -1.8046744e-06 0)
(0.068472512 2.1224953e-06 0)
(0.067937262 -2.1686754e-06 0)
(0.068437498 2.1462854e-06 0)
(0.067968631 -2.0317835e-06 0)
(0.068408508 1.959867e-06 0)
(0.067995094 -1.8322128e-06 0)
(0.068383196 1.7466011e-06 0)
(0.068018612 -1.6413948e-06 0)
(0.068360822 1.5569835e-06 0)
(0.068039617 -1.4689148e-06 0)
(0.068340908 1.3913424e-06 0)
(0.06805841 -1.3156182e-06 0)
(0.068323103 1.2462235e-06 0)
(0.06807526 -1.1803116e-06 0)
(0.068307128 1.1190032e-06 0)
(0.068090408 -1.0614628e-06 0)
(0.068292751 1.0077122e-06 0)
(0.068104067 -9.5757373e-07 0)
(0.068279766 9.1075635e-07 0)
(0.068116425 -8.67273e-07 0)
(0.068267993 8.2678216e-07 0)
(0.068127656 -7.8933436e-07 0)
(0.068257268 7.5461733e-07 0)
(0.068137917 -7.2267539e-07 0)
(0.068247439 6.9324267e-07 0)
(0.068147351 -6.6635063e-07 0)
(0.068238367 6.4177754e-07 0)
(0.068156094 -6.1953556e-07 0)
(0.068229923 5.9947563e-07 0)
(0.068164271 -5.8151613e-07 0)
(0.068221984 5.6558691e-07 0)
(0.068172 -5.5208086e-07 0)
(0.06821444 5.3842991e-07 0)
(0.068179422 -5.3145141e-07 0)
(0.06820722 5.2250263e-07 0)
(0.068186637 -4.8683498e-07 0)
(0.068199739 6.4007787e-07 0)
(0.068191609 -4.6345732e-07 0)
(0.057753975 0.0085111945 0)
(0.079038713 -0.00074881877 0)
(0.072869893 0.00070243584 0)
(0.072748294 -7.3494706e-05 0)
(0.073260896 0.00012180951 0)
(0.072712172 -1.3771035e-05 0)
(0.073680662 2.8151945e-05 0)
(0.072542494 8.9574824e-06 0)
(0.073525574 3.5940354e-06 0)
(0.072629996 1.4496369e-06 0)
(0.073395997 1.8408046e-06 0)
(0.072705656 -1.801893e-06 0)
(0.073337987 2.1601554e-06 0)
(0.072753752 -2.2483284e-06 0)
(0.073300098 2.2308898e-06 0)
(0.072787907 -2.1151125e-06 0)
(0.07326854 2.0436667e-06 0)
(0.072816797 -1.9088395e-06 0)
(0.073240918 1.8211157e-06 0)
(0.072842494 -1.7105823e-06 0)
(0.073216479 1.6231031e-06 0)
(0.07286545 -1.5309757e-06 0)
(0.073194717 1.4502609e-06 0)
(0.072885989 -1.3712089e-06 0)
(0.073175259 1.2989001e-06 0)
(0.072904405 -1.2301547e-06 0)
(0.073157801 1.1662434e-06 0)
(0.072920959 -1.1062559e-06 0)
(0.07314209 1.0502188e-06 0)
(0.072935882 -9.9796045e-07 0)
(0.073127904 9.4915361e-07 0)
(0.072949384 -9.0383786e-07 0)
(0.073115043 8.6162912e-07 0)
(0.072961652 -8.2260617e-07 0)
(0.073103328 7.8641798e-07 0)
(0.072972858 -7.5313345e-07 0)
(0.073092593 7.2245393e-07 0)
(0.072983161 -6.9443113e-07 0)
(0.073082687 6.6881597e-07 0)
(0.072992708 -6.4563641e-07 0)
(0.073073467 6.2472429e-07 0)
(0.073001635 -6.0599783e-07 0)
(0.073064801 5.8939146e-07 0)
(0.073010071 -5.7531023e-07 0)
(0.073056566 5.6094926e-07 0)
(0.073018167 -5.54001e-07 0)
(0.073048685 5.4406094e-07 0)
(0.07302604 -5.0610505e-07 0)
(0.073040597 6.740187e-07 0)
(0.073031794 -4.7768563e-07 0)
(0.062074599 0.0084178908 0)
(0.081667128 -0.00084744477 0)
(0.077607159 0.00073703734 0)
(0.076774357 -7.6399913e-05 0)
(0.077921764 0.00012106342 0)
(0.07722966 -1.686365e-05 0)
(0.078345973 2.9337943e-05 0)
(0.077167233 9.382104e-06 0)
(0.078223308 3.4257862e-06 0)
(0.077263598 1.8739371e-06 0)
(0.078092259 1.7142921e-06 0)
(0.077345973 -1.7741702e-06 0)
(0.078030187 2.1741979e-06 0)
(0.077397768 -2.3101848e-06 0)
(0.077989467 2.2982252e-06 0)
(0.077434655 -2.1825184e-06 0)
(0.077955382 2.1123924e-06 0)
(0.077465936 -1.9711277e-06 0)
(0.077925484 1.8821017e-06 0)
(0.07749378 -1.7669528e-06 0)
(0.077899012 1.6771123e-06 0)
(0.077518657 -1.5815763e-06 0)
(0.077875433 1.4983403e-06 0)
(0.077540915 -1.4165404e-06 0)
(0.077854348 1.3418649e-06 0)
(0.077560871 -1.2707982e-06 0)
(0.077835432 1.2047653e-06 0)
(0.077578807 -1.1427803e-06 0)
(0.07781841 1.084878e-06 0)
(0.077594974 -1.0308921e-06 0)
(0.077803042 9.8046221e-07 0)
(0.077609599 -9.3365445e-07 0)
(0.077789111 8.9004451e-07 0)
(0.077622887 -8.4973953e-07 0)
(0.077776423 8.1235161e-07 0)
(0.077635024 -7.7797451e-07 0)
(0.077764797 7.4627832e-07 0)
(0.077646181 -7.1733531e-07 0)
(0.07775407 6.9087029e-07 0)
(0.077656518 -6.6692744e-07 0)
(0.077744088 6.4532016e-07 0)
(0.077666182 -6.2596726e-07 0)
(0.077734706 6.088097e-07 0)
(0.077675314 -5.9425677e-07 0)
(0.077725793 5.7929272e-07 0)
(0.077684071 -5.7244881e-07 0)
(0.077717261 5.6153945e-07 0)
(0.077692591 -5.2162156e-07 0)
(0.07770858 7.0302058e-07 0)
(0.07769914 -4.8781947e-07 0)
(0.068090982 0.0090099892 0)
(0.083910258 -0.00093003936 0)
(0.08222073 0.00076460651 0)
(0.080663922 -7.8086561e-05 0)
(0.082407743 0.00011721437 0)
(0.081589687 -2.0041447e-05 0)
(0.082838228 2.9870196e-05 0)
(0.081623636 9.6089673e-06 0)
(0.082746341 3.2172271e-06 0)
(0.081725012 2.3038216e-06 0)
(0.082615285 1.5461183e-06 0)
(0.081814066 -1.7205919e-06 0)
(0.082549029 2.1656329e-06 0)
(0.081869403 -2.3544552e-06 0)
(0.082505517 2.3486847e-06 0)
(0.081908957 -2.2342726e-06 0)
(0.082468954 2.1663017e-06 0)
(0.081942585 -2.0193266e-06 0)
(0.082436827 1.9297899e-06 0)
(0.081972535 -1.8107341e-06 0)
(0.082408362 1.7192256e-06 0)
(0.081999295 -1.6209245e-06 0)
(0.082383003 1.5357781e-06 0)
(0.082023237 -1.4518018e-06 0)
(0.082360324 1.3752982e-06 0)
(0.082044701 -1.3024139e-06 0)
(0.08233998 1.2347325e-06 0)
(0.08206399 -1.1711914e-06 0)
(0.082321675 1.1118375e-06 0)
(0.082081375 -1.056509e-06 0)
(0.082305149 1.0048158e-06 0)
(0.082097101 -9.5684981e-07 0)
(0.082290171 9.1214947e-07 0)
(0.082111387 -8.7084978e-07 0)
(0.082276529 8.3252852e-07 0)
(0.082124434 -7.973039e-07 0)
(0.082264032 7.648169e-07 0)
(0.082136428 -7.3516007e-07 0)
(0.082252501 7.0803385e-07 0)
(0.082147539 -6.834986e-07 0)
(0.082241772 6.6135034e-07 0)
(0.082157926 -6.4150904e-07 0)
(0.08223169 6.2392394e-07 0)
(0.082167739 -6.090009e-07 0)
(0.082222112 5.9354212e-07 0)
(0.082177143 -5.8686684e-07 0)
(0.082212942 5.7502724e-07 0)
(0.082186293 -5.3347857e-07 0)
(0.082203683 7.2701772e-07 0)
(0.082193645 -4.9409281e-07 0)
(0.072545622 0.0088580219 0)
(0.086205357 -0.0010347755 0)
(0.086729148 0.00077918072 0)
(0.08440922 -8.0120232e-05 0)
(0.086720764 0.00011028339 0)
(0.085798667 -2.3251997e-05 0)
(0.087158262 2.984707e-05 0)
(0.08591232 9.6488048e-06 0)
(0.08709444 2.9904583e-06 0)
(0.086014465 2.7308086e-06 0)
(0.086964967 1.3363607e-06 0)
(0.086110029 -1.640258e-06 0)
(0.086894431 2.1355228e-06 0)
(0.086168735 -2.3813844e-06 0)
(0.08684817 2.3826932e-06 0)
(0.086210885 -2.2707181e-06 0)
(0.086809189 2.2056972e-06 0)
(0.086246807 -2.0537488e-06 0)
(0.086774886 1.9644602e-06 0)
(0.086278814 -1.8422066e-06 0)
(0.086744478 1.7497034e-06 0)
(0.086307411 -1.6492728e-06 0)
(0.086717381 1.562813e-06 0)
(0.086332996 -1.4772212e-06 0)
(0.086693148 1.3994163e-06 0)
(0.086355931 -1.3252072e-06 0)
(0.086671411 1.2563401e-06 0)
(0.08637654 -1.1916743e-06 0)
(0.086651854 1.1312734e-06 0)
(0.086395114 -1.0749782e-06 0)
(0.0866342 1.0223733e-06 0)
(0.086411912 -9.7357494e-07 0)
(0.0866182 9.2808794e-07 0)
(0.086427172 -8.8607403e-07 0)
(0.086603629 8.4707968e-07 0)
(0.086441108 -8.1124679e-07 0)
(0.086590281 7.7818962e-07 0)
(0.086453917 -7.480205e-07 0)
(0.086577966 7.2041741e-07 0)
(0.086465783 -6.9545668e-07 0)
(0.086566509 6.7291806e-07 0)
(0.086476875 -6.5272343e-07 0)
(0.086555743 6.3483152e-07 0)
(0.086487352 -6.1963784e-07 0)
(0.086545516 6.0379311e-07 0)
(0.086497388 -5.9734105e-07 0)
(0.086535723 5.8462666e-07 0)
(0.086507151 -5.4177873e-07 0)
(0.086525904 7.4598296e-07 0)
(0.086515308 -4.9675137e-07 0)
(0.078659553 0.0092961595 0)
(0.088312174 -0.0010955121 0)
(0.091062356 0.00078904471 0)
(0.088083887 -7.9838227e-05 0)
(0.090870286 0.00010073629 0)
(0.089855426 -2.6508342e-05 0)
(0.091306265 2.9369331e-05 0)
(0.090033321 9.5235959e-06 0)
(0.091266957 2.7676862e-06 0)
(0.090132619 3.1432638e-06 0)
(0.091141122 1.0877142e-06 0)
(0.090233949 -1.5326365e-06 0)
(0.091066328 2.0851144e-06 0)
(0.090295834 -2.3911761e-06 0)
(0.09101736 2.4007598e-06 0)
(0.0903405 -2.2922295e-06 0)
(0.090976028 2.230942e-06 0)
(0.090378657 -2.0747503e-06 0)
(0.09093961 1.9864421e-06 0)
(0.090412665 -1.861693e-06 0)
(0.090907313 1.7688481e-06 0)
(0.090443049 -1.666912e-06 0)
(0.090878529 1.5797192e-06 0)
(0.090470231 -1.4930599e-06 0)
(0.090852786 1.4144669e-06 0)
(0.090494594 -1.3394131e-06 0)
(0.090829695 1.2698111e-06 0)
(0.090516486 -1.2044404e-06 0)
(0.090808922 1.1433861e-06 0)
(0.090536214 -1.0864899e-06 0)
(0.090790171 1.0333156e-06 0)
(0.090554055 -9.8400168e-07 0)
(0.090773178 9.3802363e-07 0)
(0.090570261 -8.9556822e-07 0)
(0.090757704 8.5615409e-07 0)
(0.09058506 -8.199455e-07 0)
(0.09074353 7.8653295e-07 0)
(0.090598662 -7.5604744e-07 0)
(0.090730453 7.2814694e-07 0)
(0.090611261 -7.0292303e-07 0)
(0.090718287 6.8014072e-07 0)
(0.090623038 -6.5972431e-07 0)
(0.090706857 6.41643e-07 0)
(0.090634161 -6.2627567e-07 0)
(0.090696 6.101534e-07 0)
(0.09064481 -6.0396973e-07 0)
(0.090685601 5.9045135e-07 0)
(0.090655167 -5.4663236e-07 0)
(0.090675239 7.5992423e-07 0)
(0.090664125 -4.9604673e-07 0)
(0.08307084 0.0091303617 0)
(0.090500066 -0.0011989732 0)
(0.095185085 0.00078451465 0)
(0.091716359 -7.890866e-05 0)
(0.094865677 8.9247221e-05 0)
(0.0937583 -2.966715e-05 0)
(0.095282822 2.854556e-05 0)
(0.093986109 9.2621304e-06 0)
(0.095263139 2.5701354e-06 0)
(0.09408049 3.5238416e-06 0)
(0.095143472 8.0715277e-07 0)
(0.094185897 -1.3988208e-06 0)
(0.095064659 2.0154646e-06 0)
(0.094250765 -2.3841876e-06 0)
(0.09501303 2.4033759e-06 0)
(0.094297858 -2.2992618e-06 0)
(0.094969419 2.2424278e-06 0)
(0.094338182 -2.0827404e-06 0)
(0.094930955 1.9961015e-06 0)
(0.094374129 -1.8695562e-06 0)
(0.094896829 1.7769962e-06 0)
(0.094406244 -1.6741661e-06 0)
(0.094866411 1.5868017e-06 0)
(0.094434971 -1.499608e-06 0)
(0.094839207 1.4207241e-06 0)
(0.094460718 -1.3452916e-06 0)
(0.094814806 1.2753917e-06 0)
(0.094483851 -1.209723e-06 0)
(0.094792856 1.1483973e-06 0)
(0.094504696 -1.0912543e-06 0)
(0.094773043 1.0378425e-06 0)
(0.094523547 -9.8831991e-07 0)
(0.09475509 9.4213743e-07 0)
(0.094540669 -8.9950467e-07 0)
(0.094738741 8.5991634e-07 0)
(0.094556303 -8.235574e-07 0)
(0.094723766 7.8999766e-07 0)
(0.094570673 -7.5938559e-07 0)
(0.094709952 7.3136163e-07 0)
(0.094583983 -7.0603182e-07 0)
(0.0946971 6.8314798e-07 0)
(0.094596423 -6.6263745e-07 0)
(0.094685027 6.444804e-07 0)
(0.094608171 -6.2903379e-07 0)
(0.094673559 6.127412e-07 0)
(0.094619414 -6.0686212e-07 0)
(0.094662571 5.9262456e-07 0)
(0.094630345 -5.4815655e-07 0)
(0.094651687 7.6888124e-07 0)
(0.094640095 -4.9223149e-07 0)
(0.08903952 0.0093573561 0)
(0.092644388 -0.0012337083 0)
(0.099030916 0.00077593718 0)
(0.095336074 -7.6586048e-05 0)
(0.098704516 7.6474886e-05 0)
(0.097503483 -3.2686303e-05 0)
(0.099088064 2.7446245e-05 0)
(0.097769804 8.8948565e-06 0)
(0.099082762 2.4092497e-06 0)
(0.097858794 3.8561476e-06 0)
(0.098971691 5.0738648e-07 0)
(0.097965895 -1.2413219e-06 0)
(0.098889371 1.9276763e-06 0)
(0.098033577 -2.3607449e-06 0)
(0.098835129 2.391101e-06 0)
(0.098083004 -2.2922975e-06 0)
(0.09878932 2.2405922e-06 0)
(0.098125422 -2.0781622e-06 0)
(0.098748883 1.9938416e-06 0)
(0.098163242 -1.8661909e-06 0)
(0.098712994 1.7745149e-06 0)
(0.098197027 -1.6713869e-06 0)
(0.098681001 1.5843913e-06 0)
(0.098227245 -1.4971801e-06 0)
(0.098652387 1.4184852e-06 0)
(0.098254326 -1.3431245e-06 0)
(0.098626723 1.2733488e-06 0)
(0.098278656 -1.2077749e-06 0)
(0.098603636 1.1465467e-06 0)
(0.098300579 -1.0894988e-06 0)
(0.0985828 1.03617e-06 0)
(0.098320403 -9.8673503e-07 0)
(0.098563919 9.40625e-07 0)
(0.098338409 -8.9806987e-07 0)
(0.098546727 8.5854459e-07 0)
(0.09835485 -8.2225275e-07 0)
(0.09853098 7.8874696e-07 0)
(0.098369961 -7.581915e-07 0)
(0.098516454 7.3021217e-07 0)
(0.098383956 -7.0492823e-07 0)
(0.09850294 6.8208024e-07 0)
(0.098397036 -6.6159895e-07 0)
(0.098490246 6.4347576e-07 0)
(0.098409388 -6.2804134e-07 0)
(0.098478189 6.1168383e-07 0)
(0.098421203 -6.0613703e-07 0)
(0.098466633 5.9127769e-07 0)
(0.098432686 -5.4647439e-07 0)
(0.098455245 7.7292236e-07 0)
(0.098443215 -4.8555533e-07 0)
(0.093725352 0.0092552651 0)
(0.094784899 -0.0013328872 0)
(0.10264546 0.00075059 0)
(0.098898062 -7.589968e-05 0)
(0.10238449 6.3251553e-05 0)
(0.10108919 -3.5436406e-05 0)
(0.10272194 2.614572e-05 0)
(0.10138355 8.4531386e-06 0)
(0.10272625 2.2830413e-06 0)
(0.10146763 4.128299e-06 0)
(0.10262549 2.0460636e-07 0)
(0.10157392 -1.0640985e-06 0)