/*--------------------------------*- C++ -*----------------------------------*\
| =========                 |                                                 |
| \\      /  F ield         | OpenFOAM: The Open Source CFD Toolbox           |
|  \\    /   O peration     | Version:  2312                                  |
|   \\  /    A nd           | Website:  www.openfoam.com                      |
|    \\/     M anipulation  |                                                 |
\*---------------------------------------------------------------------------*/
FoamFile
{
    version     2.0;
    format      ascii;
    arch        "LSB;label=32;scalar=64";
    class       volScalarField;
    location    "2";
    object      p;
}
// * * * * * * * * * * * * * * * * * * * * * * * * * * * * * * * * * * * * * //

dimensions      [0 2 -2 0 0 0 0];

internalField   nonuniform List<scalar> 
4000
(
26.552996
25.479122
25.190072
24.338637
24.089223
23.290645
23.017633
22.251244
21.950938
21.211311
20.886136
20.17003
19.822834
19.127449
18.760822
18.08369
17.699942
17.038879
16.640062
15.993134
15.581068
14.946559
14.522857
13.899248
13.465343
12.851283
12.408447
11.802735
11.352102
10.753667
10.296252
9.7041309
9.2408466
8.6541733
8.185843
7.6038331
7.1312053
6.5531432
6.0769035
5.5021311
5.0229122
4.4508194
3.9692113
3.3992263
2.9157844
2.3473659
1.8626194
1.2952473
0.80970441
0.24286619
26.548064
25.477612
25.190214
24.338648
24.089214
23.290657
23.017623
22.251254
21.950929
21.21132
20.886127
20.170038
19.822827
19.127456
18.760815
18.083696
17.699936
17.038885
16.640057
15.993139
15.581063
14.946563
14.522853
13.899252
13.465339
12.851286
12.408443
11.802738
11.352099
10.75367
10.29625
9.7041336
9.2408441
8.6541758
8.1858406
7.6038354
7.1312031
6.5531453
6.0769014
5.5021331
5.0229103
4.4508213
3.9692094
3.3992281
2.9157826
2.3473676
1.8626177
1.2952491
0.8097026
0.24286901
26.539543
25.476534
25.190478
24.338637
24.089222
23.290655
23.017625
22.251253
21.95093
21.211319
20.886128
20.170037
19.822828
19.127455
18.760816
18.083696
17.699937
17.038884
16.640058
15.993138
15.581064
14.946563
14.522854
13.899251
13.465339
12.851286
12.408444
11.802738
11.3521
10.753669
10.29625
9.7041332
9.2408444
8.6541755
8.1858409
7.6038352
7.1312034
6.5531451
6.0769016
5.5021328
5.0229105
4.450821
3.9692096
3.3992279
2.9157828
2.3473674
1.8626178
1.2952489
0.80970264
0.24286992
26.528131
25.475404
25.190764
24.338624
24.089236
23.290649
23.01763
22.251247
21.950935
21.211314
20.886133
20.170033
19.822831
19.127452
18.76082
18.083692
17.69994
17.038881
16.640061
15.993136
15.581066
14.946561
14.522856
13.899249
13.465341
12.851284
12.408445
11.802736
11.352101
10.753668
10.296251
9.7041318
9.2408457
8.6541742
8.1858421
7.603834
7.1312046
6.553144
6.0769027
5.5021318
5.0229116
4.45082
3.9692106
3.3992269
2.9157838
2.3473665
1.8626187
1.295248
0.80970343
0.24287
26.518949
25.474357
25.191006
24.338617
24.08925
23.290643
23.017635
22.251242
21.950939
21.21131
20.886137
20.170029
19.822835
19.127448
18.760823
18.08369
17.699943
17.038879
16.640063
15.993133
15.581068
14.946558
14.522858
13.899247
13.465343
12.851282
12.408447
11.802735
11.352103
10.753666
10.296253
9.7041305
9.240847
8.654173
8.1858433
7.6038328
7.1312056
6.5531429
6.0769037
5.5021308
5.0229125
4.4508191
3.9692115
3.399226
2.9157846
2.3473657
1.8626196
1.2952471
0.80970421
0.24286998
26.507621
25.473073
25.191182
24.338621
24.089266
23.290639
23.017639
22.251238
21.950943
21.211307
20.88614
20.170026
19.822838
19.127446
18.760825
18.083687
17.699945
17.038877
16.640065
15.993131
15.58107
14.946557
14.522859
13.899246
13.465345
12.851281
12.408448
11.802734
11.352104
10.753665
10.296254
9.7041295
9.2408479
8.6541721
8.1858442
7.603832
7.1312065
6.5531421
6.0769045
5.50213
5.0229132
4.4508184
3.9692122
3.3992253
2.9157853
2.347365
1.8626203
1.2952464
0.80970486
0.24287
26.499562
25.472137
25.191273
24.338647
24.089286
23.290637
23.017642
22.251235
21.950945
21.211304
20.886142
20.170024
19.82284
19.127444
18.760827
18.083685
17.699947
17.038875
16.640067
15.99313
15.581072
14.946555
14.522861
13.899245
13.465346
12.85128
12.408449
11.802733
11.352105
10.753664
10.296255
9.7041287
9.2408487
8.6541713
8.1858449
7.6038313
7.1312071
6.5531415
6.0769052
5.5021294
5.0229139
4.4508178
3.9692128
3.3992247
2.9157859
2.3473644
1.8626208
1.2952458
0.80970543
0.24287003
26.490109
25.470913
25.191242
24.338708
24.089311
23.290636
23.017645
22.251232
21.950948
21.211302
20.886144
20.170022
19.822842
19.127442
18.760829
18.083684
17.699948
17.038874
16.640068
15.993129
15.581073
14.946554
14.522862
13.899244
13.465347
12.851279
12.40845
11.802732
11.352106
10.753664
10.296255
9.7041279
9.2408495
8.6541706
8.1858456
7.6038306
7.1312078
6.5531409
6.0769057
5.5021289
5.0229144
4.4508173
3.9692133
3.3992242
2.9157864
2.3473639
1.8626213
1.2952452
0.80970596
0.24287003
26.482145
25.470171
25.191133
24.338769
24.08933
23.290635
23.017647
22.251229
21.95095
21.211299
20.886146
20.17002
19.822844
19.12744
18.760831
18.083682
17.69995
17.038872
16.640069
15.993127
15.581074
14.946553
14.522863
13.899243
13.465348
12.851278
12.408451
11.802731
11.352107
10.753663
10.296256
9.7041273
9.2408501
8.65417
8.1858462
7.6038301
7.1312083
6.5531403
6.0769063
5.5021284
5.0229149
4.4508168
3.9692138
3.3992238
2.9157869
2.3473635
1.8626218
1.2952447
0.80970646
0.24287002
26.475219
25.468983
25.191029
24.338753
24.089327
23.290628
23.017649
22.251227
21.950952
21.211297
20.886148
20.170018
19.822845
19.127438
18.760832
18.083681
17.699951
17.038871
16.64007
15.993126
15.581075
14.946552
14.522864
13.899242
13.465349
12.851277
12.408452
11.80273
11.352107
10.753662
10.296257
9.7041267
9.2408507
8.6541695
8.1858467
7.6038295
7.1312088
6.5531399
6.0769067
5.5021279
5.0229153
4.4508163
3.9692142
3.3992234
2.9157873
2.347363
1.8626222
1.2952443
0.80970692
0.24286999
26.466157
25.46788
25.19104
24.338677
24.089305
23.290618
23.017649
22.251224
21.950953
21.211296
20.88615
20.170016
19.822847
19.127437
18.760833
18.08368
17.699952
17.03887
16.640071
15.993125
15.581076
14.946551
14.522865
13.899241
13.465349
12.851277
12.408453
11.80273
11.352108
10.753662
10.296257
9.7041261
9.2408512
8.654169
8.1858472
7.6038291
7.1312092
6.5531394
6.0769071
5.5021275
5.0229157
4.450816
3.9692146
3.399223
2.9157876
2.3473627
1.8626225
1.2952439
0.80970736
0.24286995
26.459621
25.466386
25.191048
24.338623
24.089283
23.290609
23.017648
22.251222
21.950955
21.211294
20.886151
20.170015
19.822848
19.127436
18.760834
18.083678
17.699953
17.038869
16.640072
15.993124
15.581077
14.94655
14.522865
13.89924
13.46535
12.851276
12.408453
11.802729
11.352108
10.753661
10.296258
9.7041256
9.2408516
8.6541685
8.1858476
7.6038287
7.1312096
6.553139
6.0769075
5.5021271
5.0229161
4.4508156
3.9692149
3.3992227
2.915788
2.3473624
1.8626228
1.2952435
0.80970778
0.24286989
26.451881
25.465156
25.190941
24.338573
24.089258
23.2906
23.017648
22.251219
21.950956
21.211293
20.886152
20.170014
19.822849
19.127435
18.760835
18.083677
17.699954
17.038868
16.640073
15.993124
15.581078
14.94655
14.522866
13.89924
13.465351
12.851275
12.408454
11.802728
11.352109
10.753661
10.296258
9.7041252
9.2408521
8.6541681
8.185848
7.6038283
7.13121
6.5531387
6.0769078
5.5021268
5.0229164
4.4508153
3.9692152
3.3992224
2.9157883
2.3473621
1.8626231
1.2952432
0.80970817
0.24286983
26.446412
25.463888
25.190649
24.338493
24.089227
23.290589
23.017646
22.251217
21.950957
21.211291
20.886154
20.170013
19.82285
19.127434
18.760836
18.083677
17.699955
17.038867
16.640074
15.993123
15.581078
14.946549
14.522867
13.899239
13.465351
12.851275
12.408454
11.802728
11.352109
10.75366
10.296259
9.7041248
9.2408524
8.6541678
8.1858483
7.603828
7.1312103
6.5531384
6.0769081
5.5021265
5.0229167
4.450815
3.9692155
3.3992221
2.9157885
2.3473618
1.8626234
1.2952429
0.80970854
0.24286976
26.43987
25.462717
25.190281
24.338402
24.089193
23.290577
23.017645
22.251215
21.950958
21.21129
20.886155
20.170012
19.822851
19.127433
18.760837
18.083676
17.699956
17.038866
16.640075
15.993122
15.581079
14.946548
14.522867
13.899239
13.465352
12.851274
12.408455
11.802728
11.35211
10.75366
10.296259
9.7041244
9.2408528
8.6541674
8.1858486
7.6038277
7.1312106
6.5531381
6.0769084
5.5021262
5.022917
4.4508148
3.9692158
3.3992218
2.9157888
2.3473615
1.8626236
1.2952426
0.80970889
0.24286969
26.435103
25.461401
25.189859
24.338314
24.089159
23.290565
23.017642
22.251212
21.950959
21.211289
20.886156
20.170011
19.822852
19.127432
18.760838
18.083675
17.699957
17.038866
16.640075
15.993122
15.581079
14.946548
14.522868
13.899238
13.465352
12.851274
12.408455
11.802727
11.35211
10.753659
10.296259
9.7041241
9.2408531
8.6541671
8.1858489
7.6038274
7.1312109
6.5531378
6.0769087
5.502126
5.0229172
4.4508145
3.969216
3.3992216
2.915789
2.3473613
1.8626239
1.2952424
0.80970923
0.24286961
26.429553
25.460116
25.189439
24.338219
24.089124
23.29055
23.017639
22.25121
21.950959
21.211287
20.886157
20.17001
19.822853
19.127431
18.760839
18.083674
17.699957
17.038865
16.640076
15.993121
15.58108
14.946547
14.522868
13.899238
13.465353
12.851274
12.408456
11.802727
11.352111
10.753659
10.29626
9.7041238
9.2408534
8.6541668
8.1858492
7.6038271
7.1312111
6.5531376
6.0769089
5.5021258
5.0229174
4.4508143
3.9692162
3.3992214
2.9157892
2.3473611
1.8626241
1.2952422
0.80970954
0.24286953
26.425488
25.458812
25.189037
24.338099
24.089081
23.290532
23.017634
22.251206
21.950959
21.211286
20.886157
20.170009
19.822854
19.12743
18.76084
18.083674
17.699958
17.038865
16.640076
15.993121
15.58108
14.946547
14.522869
13.899237
13.465353
12.851273
12.408456
11.802726
11.352111
10.753659
10.29626
9.7041235
9.2408537
8.6541666
8.1858495
7.6038269
7.1312114
6.5531374
6.0769091
5.5021255
5.0229176
4.4508141
3.9692164
3.3992212
2.9157894
2.3473609
1.8626242
1.295242
0.80970984
0.24286944
26.420894
25.457538
25.188696
24.337964
24.08903
23.290511
23.017627
22.251202
21.950959
21.211285
20.886158
20.170008
19.822854
19.12743
18.76084
18.083673
17.699958
17.038864
16.640077
15.99312
15.581081
14.946547
14.522869
13.899237
13.465353
12.851273
12.408456
11.802726
11.352111
10.753658
10.29626
9.7041233
9.2408539
8.6541663
8.1858497
7.6038267
7.1312116
6.5531372
6.0769093
5.5021254
5.0229178
4.4508139
3.9692166
3.399221
2.9157896
2.3473607
1.8626244
1.2952418
0.80971013
0.24286936
26.417509
25.456348
25.188351
24.337847
24.088978
23.29049
23.01762
22.251198
21.950958
21.211284
20.886158
20.170007
19.822855
19.127429
18.760841
18.083672
17.699959
17.038864
16.640077
15.99312
15.581081
14.946546
14.522869
13.899236
13.465354
12.851273
12.408457
11.802726
11.352111
10.753658
10.29626
9.704123
9.2408541
8.6541661
8.1858499
7.6038265
7.1312118
6.553137
6.0769095
5.5021252
5.022918
4.4508137
3.9692168
3.3992208
2.9157898
2.3473606
1.8626246
1.2952416
0.80971039
0.24286927
26.413789
25.455197
25.187994
24.337758
24.088936
23.290474
23.017615
22.251195
21.950958
21.211282
20.886159
20.170006
19.822855
19.127428
18.760841
18.083672
17.699959
17.038863
16.640078
15.993119
15.581082
14.946546
14.52287
13.899236
13.465354
12.851272
12.408457
11.802726
11.352112
10.753658
10.296261
9.7041228
9.2408543
8.6541659
8.1858501
7.6038263
7.131212
6.5531368
6.0769097
5.502125
5.0229182
4.4508136
3.9692169
3.3992207
2.9157899
2.3473604
1.8626247
1.2952415
0.80971065
0.24286919
26.410984
25.454205
25.187624
24.337675
24.088908
23.290465
23.017612
22.251193
21.950958
21.211281
20.886159
20.170006
19.822856
19.127428
18.760842
18.083671
17.69996
17.038863
16.640078
15.993119
15.581082
14.946545
14.52287
13.899236
13.465354
12.851272
12.408457
11.802725
11.352112
10.753658
10.296261
9.7041226
9.2408545
8.6541657
8.1858503
7.6038261
7.1312121
6.5531366
6.0769098
5.5021249
5.0229183
4.4508134
3.9692171
3.3992205
2.91579
2.3473603
1.8626249
1.2952413
0.80971089
0.2428691
26.408001
25.45322
25.187282
24.337586
24.088886
23.290464
23.017611
22.251191
21.950958
21.211281
20.88616
20.170005
19.822856
19.127427
18.760842
18.083671
17.69996
17.038862
16.640079
15.993119
15.581082
14.946545
14.52287
13.899236
13.465354
12.851272
12.408457
11.802725
11.352112
10.753658
10.296261
9.7041224
9.2408547
8.6541656
8.1858504
7.6038259
7.1312123
6.5531365
6.07691
5.5021247
5.0229184
4.4508133
3.9692172
3.3992204
2.9157902
2.3473601
1.862625
1.2952412
0.80971111
0.24286902
26.405675
25.452426
25.186963
24.337497
24.088865
23.290467
23.017612
22.251191
21.950959
21.21128
20.88616
20.170005
19.822857
19.127427
18.760843
18.083671
17.699961
17.038862
16.640079
15.993118
15.581083
14.946545
14.522871
13.899235
13.465355
12.851271
12.408458
11.802725
11.352112
10.753657
10.296261
9.7041223
9.2408549
8.6541654
8.1858506
7.6038258
7.1312124
6.5531363
6.0769101
5.5021246
5.0229186
4.4508132
3.9692173
3.3992203
2.9157903
2.34736
1.8626251
1.2952411
0.80971132
0.24286894
26.403312
25.451602
25.186678
24.337418
24.088842
23.290474
23.017613
22.25119
21.950959
21.211279
20.886161
20.170004
19.822857
19.127427
18.760843
18.08367
17.699961
17.038862
16.640079
15.993118
15.581083
14.946545
14.522871
13.899235
13.465355
12.851271
12.408458
11.802725
11.352112
10.753657
10.296261
9.7041221
9.240855
8.6541653
8.1858507
7.6038257
7.1312126
6.5531362
6.0769102
5.5021245
5.0229187
4.4508131
3.9692174
3.3992202
2.9157904
2.3473599
1.8626252
1.295241
0.80971152
0.24286886
26.401335
25.450989
25.186419
24.337349
24.088817
23.290481
23.017614
22.25119
21.95096
21.211279
20.886161
20.170004
19.822858
19.127426
18.760843
18.08367
17.699961
17.038861
16.64008
15.993118
15.581083
14.946544
14.522871
13.899235
13.465355
12.851271
12.408458
11.802724
11.352113
10.753657
10.296262
9.7041219
9.2408552
8.6541651
8.1858509
7.6038255
7.1312127
6.5531361
6.0769104
5.5021244
5.0229188
4.450813
3.9692175
3.3992201
2.9157905
2.3473598
1.8626253
1.2952409
0.8097117
0.24286879
26.399515
25.450317
25.186187
24.337292
24.088792
23.290489
23.017616
22.25119
21.95096
21.211278
20.886161
20.170003
19.822858
19.127426
18.760844
18.08367
17.699962
17.038861
16.64008
15.993117
15.581083
14.946544
14.522871
13.899235
13.465355
12.851271
12.408458
11.802724
11.352113
10.753657
10.296262
9.7041218
9.2408553
8.654165
8.185851
7.6038254
7.1312128
6.553136
6.0769105
5.5021243
5.0229189
4.4508129
3.9692176
3.39922
2.9157906
2.3473597
1.8626254
1.2952408
0.80971186
0.24286872
26.39779
25.449854
25.185983
24.337244
24.08877
23.290496
23.017618
22.251191
21.950961
21.211278
20.886162
20.170003
19.822858
19.127425
18.760844
18.083669
17.699962
17.038861
16.64008
15.993117
15.581084
14.946544
14.522872
13.899234
13.465355
12.851271
12.408458
11.802724
11.352113
10.753657
10.296262
9.7041217
9.2408554
8.6541649
8.1858511
7.6038253
7.1312129
6.5531359
6.0769105
5.5021242
5.022919
4.4508128
3.9692177
3.3992199
2.9157907
2.3473596
1.8626255
1.2952407
0.80971202
0.24286865
26.39645
25.449331
25.185806
24.337205
24.08875
23.2905
23.017621
22.251193
21.950962
21.211278
20.886162
20.170002
19.822859
19.127425
18.760844
18.083669
17.699962
17.038861
16.64008
15.993117
15.581084
14.946544
14.522872
13.899234
13.465356
12.851271
12.408458
11.802724
11.352113
10.753657
10.296262
9.7041216
9.2408555
8.6541648
8.1858512
7.6038252
7.131213
6.5531358
6.0769106
5.5021241
5.022919
4.4508127
3.9692178
3.3992198
2.9157907
2.3473596
1.8626255
1.2952407
0.80971216
0.24286859
26.394949
25.448989
25.185658
24.337175
24.088735
23.290503
23.017623
22.251195
21.950963
21.211278
20.886162
20.170002
19.822859
19.127425
18.760844
18.083669
17.699962
17.03886
16.64008
15.993117
15.581084
14.946544
14.522872
13.899234
13.465356
12.85127
12.408458
11.802724
11.352113
10.753656
10.296262
9.7041215
9.2408556
8.6541647
8.1858513
7.6038251
7.1312131
6.5531357
6.0769107
5.502124
5.0229191
4.4508126
3.9692179
3.3992198
2.9157908
2.3473595
1.8626256
1.2952406
0.80971228
0.24286853
26.393963
25.448603
25.185536
24.337152
24.088725
23.290504
23.017625
22.251198
21.950964
21.211278
20.886163
20.170002
19.822859
19.127425
18.760845
18.083669
17.699962
17.03886
16.640081
15.993117
15.581084
14.946543
14.522872
13.899234
13.465356
12.85127
12.408459
11.802724
11.352113
10.753656
10.296262
9.7041214
9.2408557
8.6541646
8.1858513
7.6038251
7.1312131
6.5531357
6.0769108
5.502124
5.0229192
4.4508126
3.9692179
3.3992197
2.9157909
2.3473594
1.8626256
1.2952406
0.80971239
0.24286848
26.392739
25.448368
25.185443
24.337137
24.088718
23.290506
23.017625
22.251201
21.950965
21.211278
20.886163
20.170001
19.822859
19.127424
18.760845
18.083668
17.699963
17.03886
16.640081
15.993116
15.581084
14.946543
14.522872
13.899234
13.465356
12.85127
12.408459
11.802724
11.352113
10.753656
10.296262
9.7041213
9.2408558
8.6541646
8.1858514
7.603825
7.1312132
6.5531356
6.0769108
5.5021239
5.0229192
4.4508125
3.969218
3.3992197
2.9157909
2.3473594
1.8626257
1.2952405
0.80971248
0.24286844
26.392018
25.448096
25.185372
24.337128
24.088714
23.290508
23.017625
22.251204
21.950966
21.211278
20.886163
20.170001
19.822859
19.127424
18.760845
18.083668
17.699963
17.03886
16.640081
15.993116
15.581084
14.946543
14.522872
13.899234
13.465356
12.85127
12.408459
11.802724
11.352113
10.753656
10.296262
9.7041212
9.2408558
8.6541645
8.1858515
7.6038249
7.1312132
6.5531355
6.0769109
5.5021238
5.0229193
4.4508125
3.969218
3.3992196
2.915791
2.3473593
1.8626257
1.2952405
0.80971255
0.2428684
26.391099
25.447951
25.185324
24.337124
24.088712
23.290511
23.017624
22.251207
21.950967
21.211278
20.886163
20.170001
19.822859
19.127424
18.760845
18.083668
17.699963
17.03886
16.640081
15.993116
15.581085
14.946543
14.522872
13.899234
13.465356
12.85127
12.408459
11.802724
11.352114
10.753656
10.296262
9.7041212
9.2408559
8.6541644
8.1858515
7.6038249
7.1312133
6.5531355
6.0769109
5.5021238
5.0229193
4.4508124
3.9692181
3.3992196
2.915791
2.3473593
1.8626258
1.2952405
0.8097126
0.24286837
26.390624
25.447761
25.18529
24.337125
24.088713
23.290514
23.017623
22.25121
21.950968
21.211278
20.886164
20.170001
19.82286
19.127424
18.760845
18.083668
17.699963
17.03886
16.640081
15.993116
15.581085
14.946543
14.522872
13.899234
13.465356
12.85127
12.408459
11.802724
11.352114
10.753656
10.296262
9.7041211
9.2408559
8.6541644
8.1858516
7.6038248
7.1312133
6.5531355
6.076911
5.5021238
5.0229194
4.4508124
3.9692181
3.3992195
2.915791
2.3473593
1.8626258
1.2952405
0.80971263
0.24286836
26.389979
25.447677
25.185272
24.337128
24.088714
23.290517
23.017622
22.251213
21.950969
21.211278
20.886164
20.170001
19.82286
19.127424
18.760845
18.083668
17.699963
17.038859
16.640081
15.993116
15.581085
14.946543
14.522873
13.899234
13.465356
12.85127
12.408459
11.802723
11.352114
10.753656
10.296263
9.7041211
9.240856
8.6541643
8.1858516
7.6038248
7.1312134
6.5531354
6.076911
5.5021237
5.0229194
4.4508124
3.9692181
3.3992195
2.9157911
2.3473593
1.8626258
1.2952405
0.80971263
0.24286835
26.389743
25.447536
25.185258
24.337132
24.088715
23.29052
23.017621
22.251215
21.950971
21.211278
20.886164
20.17
19.82286
19.127423
18.760845
18.083668
17.699963
17.038859
16.640081
15.993116
15.581085
14.946543
14.522873
13.899234
13.465356
12.85127
12.408459
11.802723
11.352114
10.753656
10.296263
9.7041211
9.240856
8.6541643
8.1858516
7.6038248
7.1312134
6.5531354
6.076911
5.5021237
5.0229194
4.4508124
3.9692181
3.3992195
2.9157911
2.3473592
1.8626258
1.2952405
0.8097126
0.24286836
26.389354
25.447482
25.185251
24.337134
24.088717
23.290522
23.01762
22.251215
21.950972
21.211278
20.886164
20.17
19.82286
19.127423
18.760845
18.083668
17.699963
17.038859
16.640081
15.993116
15.581085
14.946543
14.522873
13.899233
13.465356
12.85127
12.408459
11.802723
11.352114
10.753656
10.296263
9.704121
9.240856
8.6541643
8.1858517
7.6038248
7.1312134
6.5531354
6.076911
5.5021237
5.0229194
4.4508123
3.9692181
3.3992195
2.9157911
2.3473593
1.8626258
1.2952405
0.80971254
0.24286838
26.389358
25.447372
25.185241
24.337135
24.088718
23.290523
23.017619
22.251215
21.950973
21.211278
20.886164
20.17
19.82286
19.127423
18.760845
18.083668
17.699963
17.038859
16.640081
15.993116
15.581085
14.946543
14.522873
13.899233
13.465356
12.85127
12.408459
11.802723
11.352114
10.753656
10.296263
9.704121
9.240856
8.6541643
8.1858517
7.6038248
7.1312134
6.5531354
6.076911
5.5021237
5.0229194
4.4508124
3.9692181
3.3992195
2.915791
2.3473593
1.8626257
1.2952405
0.80971247
0.2428684
26.389172
25.447364
25.185238
24.337135
24.088718
23.290523
23.017619
22.251215
21.950975
21.211278
20.886164
20.17
19.82286
19.127423
18.760845
18.083667
17.699963
17.038859
16.640081
15.993116
15.581085
14.946543
14.522873
13.899233
13.465356
12.85127
12.408459
11.802723
11.352114
10.753656
10.296263
9.704121
9.240856
8.6541643
8.1858516
7.6038248
7.1312134
6.5531354
6.076911
5.5021237
5.0229194
4.4508124
3.9692181
3.3992195
2.915791
2.3473593
1.8626257
1.2952406
0.80971242
0.24286842
26.389305
25.447333
25.185236
24.337135
24.088718
23.290523
23.017619
22.251215
21.950975
21.211278
20.886164
20.17
19.82286
19.127423
18.760845
18.083667
17.699963
17.038859
16.640081
15.993116
15.581085
14.946543
14.522873
13.899233
13.465356
12.85127
12.408459
11.802723
11.352114
10.753656
10.296263
9.704121
9.240856
8.6541643
8.1858516
7.6038248
7.1312134
6.5531354
6.076911
5.5021237
5.0229194
4.4508124
3.9692181
3.3992195
2.915791
2.3473593
1.8626257
1.2952406
0.80971242
0.24286842
26.389211
25.447416
25.185244
24.337135
24.088718
23.290523
23.017619
22.251215
21.950974
21.211278
20.886164
20.17
19.82286
19.127423
18.760845
18.083668
17.699963
17.038859
16.640081
15.993116
15.581085
14.946543
14.522873
13.899233
13.465356
12.85127
12.408459
11.802723
11.352114
10.753656
10.296263
9.704121
9.240856
8.6541643
8.1858517
7.6038248
7.1312134
6.5531354
6.076911
5.5021237
5.0229194
4.4508124
3.9692181
3.3992195
2.915791
2.3473593
1.8626257
1.2952405
0.80971247
0.2428684
26.389476
25.447462
25.18525
24.337134
24.088717
23.290522
23.01762
22.251215
21.950972
21.211278
20.886164
20.17
19.82286
19.127423
18.760845
18.083668
17.699963
17.038859
16.640081
15.993116
15.581085
14.946543
14.522873
13.899233
13.465356
12.85127
12.408459
11.802723
11.352114
10.753656
10.296263
9.704121
9.240856
8.6541643
8.1858517
7.6038248
7.1312134
6.5531354
6.076911
5.5021237
5.0229194
4.4508123
3.9692181
3.3992195
2.9157911
2.3473593
1.8626258
1.2952405
0.80971254
0.24286838
26.38958
25.447595
25.185261
24.337131
24.088715
23.29052
23.017621
22.251215
21.950971
21.211278
20.886164
20.17
19.82286
19.127423
18.760845
18.083668
17.699963
17.038859
16.640081
15.993116
15.581085
14.946543
14.522873
13.899234
13.465356
12.85127
12.408459
11.802723
11.352114
10.753656
10.296263
9.7041211
9.240856
8.6541643
8.1858516
7.6038248
7.1312134
6.5531354
6.076911
5.5021237
5.0229194
4.4508124
3.9692181
3.3992195
2.9157911
2.3473593
1.8626258
1.2952405
0.8097126
0.24286836
26.390092
25.447669
25.185272
24.337127
24.088714
23.290517
23.017622
22.251213
21.950969
21.211278
20.886164
20.170001
19.82286
19.127424
18.760845
18.083668
17.699963
17.038859
16.640081
15.993116
15.581085
14.946543
14.522873
13.899234
13.465356
12.85127
12.408459
11.802723
11.352114
10.753656
10.296263
9.7041211
9.240856
8.6541643
8.1858516
7.6038248
7.1312134
6.5531354
6.076911
5.5021237
5.0229194
4.4508124
3.9692181
3.3992195
2.9157911
2.3473593
1.8626258
1.2952405
0.80971263
0.24286835
26.390438
25.447836
25.185295
24.337124
24.088713
23.290514
23.017623
22.25121
21.950968
21.211278
20.886164
20.170001
19.82286
19.127424
18.760845
18.083668
17.699963
17.03886
16.640081
15.993116
15.581085
14.946543
14.522872
13.899234
13.465356
12.85127
12.408459
11.802724
11.352114
10.753656
10.296262
9.7041211
9.2408559
8.6541644
8.1858516
7.6038248
7.1312133
6.5531355
6.076911
5.5021238
5.0229194
4.4508124
3.9692181
3.3992195
2.915791
2.3473593
1.8626258
1.2952405
0.80971263
0.24286836
26.391211
25.447956
25.185325
24.337124
24.088713
23.290511
23.017625
22.251207
21.950967
21.211278
20.886163
20.170001
19.822859
19.127424
18.760845
18.083668
17.699963
17.03886
16.640081
15.993116
15.581085
14.946543
14.522872
13.899234
13.465356
12.85127
12.408459
11.802724
11.352114
10.753656
10.296262
9.7041212
9.2408559
8.6541644
8.1858515
7.6038249
7.1312133
6.5531355
6.0769109
5.5021238
5.0229193
4.4508124
3.9692181
3.3992196
2.915791
2.3473593
1.8626258
1.2952405
0.8097126
0.24286837
26.391798
25.448188
25.185378
24.337127
24.088714
23.290509
23.017625
22.251204
21.950966
21.211278
20.886163
20.170001
19.822859
19.127424
18.760845
18.083668
17.699963
17.03886
16.640081
15.993116
15.581084
14.946543
14.522872
13.899234
13.465356
12.85127
12.408459
11.802724
11.352113
10.753656
10.296262
9.7041212
9.2408558
8.6541645
8.1858515
7.6038249
7.1312132
6.5531355
6.0769109
5.5021238
5.0229193
4.4508125
3.969218
3.3992196
2.915791
2.3473593
1.8626257
1.2952405
0.80971255
0.2428684
26.392864
25.448385
25.185446
24.337136
24.088718
23.290506
23.017626
22.251201
21.950965
21.211278
20.886163
20.170001
19.822859
19.127424
18.760845
18.083668
17.699963
17.03886
16.640081
15.993116
15.581084
14.946543
14.522872
13.899234
13.465356
12.85127
12.408459
11.802724
11.352113
10.753656
10.296262
9.7041213
9.2408558
8.6541646
8.1858514
7.603825
7.1312132
6.5531356
6.0769108
5.5021239
5.0229192
4.4508125
3.969218
3.3992197
2.9157909
2.3473594
1.8626257
1.2952405
0.80971248
0.24286844
26.393702
25.448714
25.185543
24.337151
24.088725
23.290504
23.017625
22.251198
21.950964
21.211278
20.886163
20.170002
19.822859
19.127425
18.760845
18.083669
17.699962
17.03886
16.640081
15.993117
15.581084
14.946543
14.522872
13.899234
13.465356
12.85127
12.408459
11.802724
11.352113
10.753656
10.296262
9.7041214
9.2408557
8.6541646
8.1858513
7.6038251
7.1312131
6.5531357
6.0769108
5.502124
5.0229192
4.4508126
3.9692179
3.3992197
2.9157909
2.3473594
1.8626256
1.2952406
0.80971239
0.24286848
26.395071
25.449012
25.185662
24.337174
24.088736
23.290503
23.017624
22.251195
21.950963
21.211278
20.886162
20.170002
19.822859
19.127425
18.760844
18.083669
17.699962
17.03886
16.64008
15.993117
15.581084
14.946544
14.522872
13.899234
13.465356
12.85127
12.408458
11.802724
11.352113
10.753656
10.296262
9.7041215
9.2408556
8.6541647
8.1858513
7.6038251
7.1312131
6.5531357
6.0769107
5.502124
5.0229191
4.4508126
3.9692179
3.3992198
2.9157908
2.3473595
1.8626256
1.2952406
0.80971228
0.24286853
26.396201
25.44947
25.185814
24.337205
24.088751
23.2905
23.017621
22.251193
21.950962
21.211278
20.886162
20.170002
19.822859
19.127425
18.760844
18.083669
17.699962
17.038861
16.64008
15.993117
15.581084
14.946544
14.522872
13.899234
13.465356
12.851271
12.408458
11.802724
11.352113
10.753657
10.296262
9.7041216
9.2408555
8.6541648
8.1858512
7.6038252
7.131213
6.5531358
6.0769106
5.5021241
5.022919
4.4508127
3.9692178
3.3992198
2.9157907
2.3473596
1.8626255
1.2952407
0.80971216
0.24286859
26.397812
25.449874
25.185988
24.337243
24.08877
23.290496
23.017619
22.251191
21.950961
21.211278
20.886162
20.170003
19.822858
19.127425
18.760844
18.083669
17.699962
17.038861
16.64008
15.993117
15.581084
14.946544
14.522872
13.899234
13.465355
12.851271
12.408458
11.802724
11.352113
10.753657
10.296262
9.7041217
9.2408554
8.6541649
8.1858511
7.6038253
7.1312129
6.5531359
6.0769105
5.5021242
5.022919
4.4508128
3.9692177
3.3992199
2.9157907
2.3473596
1.8626255
1.2952407
0.80971202
0.24286865
26.399371
25.450482
25.186195
24.337291
24.088793
23.290489
23.017616
22.25119
21.95096
21.211278
20.886161
20.170003
19.822858
19.127426
18.760844
18.08367
17.699962
17.038861
16.64008
15.993117
15.581083
14.946544
14.522871
13.899235
13.465355
12.851271
12.408458
11.802724
11.352113
10.753657
10.296262
9.7041218
9.2408553
8.654165
8.185851
7.6038254
7.1312128
6.553136
6.0769105
5.5021243
5.0229189
4.4508129
3.9692176
3.39922
2.9157906
2.3473597
1.8626254
1.2952408
0.80971186
0.24286872
26.401206
25.451015
25.186426
24.337349
24.088818
23.290482
23.017614
22.25119
21.95096
21.211279
20.886161
20.170004
19.822858
19.127426
18.760843
18.08367
17.699961
17.038861
16.64008
15.993118
15.581083
14.946544
14.522871
13.899235
13.465355
12.851271
12.408458
11.802724
11.352113
10.753657
10.296262
9.7041219
9.2408552
8.6541651
8.1858509
7.6038255
7.1312127
6.5531361
6.0769104
5.5021244
5.0229188
4.450813
3.9692175
3.3992201
2.9157905
2.3473598
1.8626253
1.2952409
0.8097117
0.24286879
26.403284
25.451779
25.186685
24.337417
24.088843
23.290474
23.017613
22.25119
21.950959
21.211279
20.886161
20.170004
19.822857
19.127427
18.760843
18.08367
17.699961
17.038862
16.640079
15.993118
15.581083
14.946545
14.522871
13.899235
13.465355
12.851271
12.408458
11.802725
11.352112
10.753657
10.296261
9.7041221
9.240855
8.6541653
8.1858507
7.6038257
7.1312126
6.5531362
6.0769102
5.5021245
5.0229187
4.4508131
3.9692174
3.3992202
2.9157904
2.3473599
1.8626252
1.295241
0.80971151
0.24286886
26.405408
25.452473
25.186972
24.337497
24.088866
23.290467
23.017612
22.251191
21.950959
21.21128
20.88616
20.170005
19.822857
19.127427
18.760843
18.083671
17.699961
17.038862
16.640079
15.993118
15.581083
14.946545
14.522871
13.899235
13.465355
12.851271
12.408458
11.802725
11.352112
10.753657
10.296261
9.7041223
9.2408549
8.6541654
8.1858506
7.6038258
7.1312124
6.5531363
6.0769101
5.5021246
5.0229186
4.4508132
3.9692173
3.3992203
2.9157903
2.34736
1.8626251
1.2952411
0.80971132
0.24286894
26.408064
25.453397
25.187287
24.337585
24.088887
23.290464
23.017612
22.251192
21.950958
21.211281
20.88616
20.170005
19.822856
19.127427
18.760842
18.083671
17.69996
17.038862
16.640079
15.993119
15.581082
14.946545
14.52287
13.899236
13.465354
12.851272
12.408457
11.802725
11.352112
10.753658
10.296261
9.7041224
9.2408547
8.6541656
8.1858504
7.6038259
7.1312123
6.5531365
6.07691
5.5021247
5.0229184
4.4508133
3.9692172
3.3992204
2.9157902
2.3473601
1.862625
1.2952412
0.80971111
0.24286902
26.41061
25.454282
25.187636
24.337674
24.088908
23.290465
23.017612
22.251193
21.950958
21.211281
20.886159
20.170006
19.822856
19.127428
18.760842
18.083671
17.69996
17.038863
16.640078
15.993119
15.581082
14.946545
14.52287
13.899236
13.465354
12.851272
12.408457
11.802725
11.352112
10.753658
10.296261
9.7041226
9.2408545