/*--------------------------------*- C++ -*----------------------------------*\
| =========                 |                                                 |
| \\      /  F ield         | OpenFOAM: The Open Source CFD Toolbox           |
|  \\    /   O peration     | Version:  2312                                  |
|   \\  /    A nd           | Website:  www.openfoam.com                      |
|    \\/     M anipulation  |                                                 |
\*---------------------------------------------------------------------------*/
FoamFile
{
    version     2.0;
    format      ascii;
    arch        "LSB;label=32;scalar=64";
    class       surfaceScalarField;
    location    "2";
    object      phi;
}
// * * * * * * * * * * * * * * * * * * * * * * * * * * * * * * * * * * * * * //

dimensions      [0 3 -1 0 0 0 0];

oriented        oriented;

internalField   nonuniform List<scalar> 
7870
(
1.0168017e-10
2.3560698e-09
1.0147387e-10
2.0630761e-13
9.4549196e-11
6.9246742e-12
9.3962575e-11
5.8662174e-13
9.5090461e-11
-1.1278835e-12
9.3649405e-11
1.4410565e-12
9.4998936e-11
-1.3495309e-12
9.3701788e-11
1.2971484e-12
9.4929306e-11
-1.2275175e-12
9.3767687e-11
1.1616195e-12
9.4863093e-11
-1.095405e-12
9.3828343e-11
1.0347505e-12
9.4804638e-11
-9.7629567e-13
9.3882497e-11
9.2214088e-13
9.4753349e-11
-8.7085172e-13
9.3930378e-11
8.2297083e-13
9.4708283e-11
-7.7790417e-13
9.3972561e-11
7.3572169e-13
9.4668667e-11
-6.961061e-13
9.4009658e-11
6.5900941e-13
9.463386e-11
-6.2420284e-13
9.4042239e-11
5.9162132e-13
9.4603312e-11
-5.6107251e-13
9.4070813e-11
5.3249856e-13
9.4576541e-11
-5.0572792e-13
9.4095825e-11
4.8071632e-13
9.4553133e-11
-4.5730836e-13
9.4117662e-11
4.3547107e-13
9.4532728e-11
-4.1506619e-13
9.4136659e-11
3.9606934e-13
9.4515016e-11
-3.7835705e-13
9.4153104e-11
3.6191223e-13
9.449973e-11
-3.4662615e-13
9.4167243e-11
3.3248707e-13
9.4486644e-11
-3.1940061e-13
9.4179285e-11
3.0735842e-13
9.4475564e-11
-2.962792e-13
9.4189408e-11
2.8615644e-13
9.446633e-11
-2.769222e-13
9.4197757e-11
2.6857329e-13
9.445881e-11
-2.6105305e-13
9.4204453e-11
2.5435664e-13
9.4452893e-11
-2.4843984e-13
9.4209584e-11
2.4330877e-13
9.4448473e-11
-2.3888832e-13
9.421321e-11
2.3526218e-13
9.4445802e-11
-2.3259153e-13
9.4217481e-11
2.2832087e-13
9.4453231e-11
-2.3575027e-13
2.1992559e-13
2.7847668e-10
4.5353432e-09
2.9232722e-10
-1.3644231e-11
2.7440572e-10
2.4846179e-11
2.7369231e-10
1.3000281e-12
2.7494024e-10
-2.3758032e-12
2.7287533e-10
3.505971e-12
2.7478467e-10
-3.2588697e-12
2.7292931e-10
3.1525014e-12
2.74694e-10
-2.9922052e-12
2.7302126e-10
2.8343656e-12
2.7459835e-10
-2.6724949e-12
2.7310741e-10
2.5256881e-12
2.7451372e-10
-2.3825997e-12
2.7318507e-10
2.2507845e-12
2.7443978e-10
-2.1255649e-12
2.7325397e-10
2.0087888e-12
2.7437495e-10
-1.8988878e-12
2.7331473e-10
1.7959443e-12
2.7431799e-10
-1.6993696e-12
2.7336818e-10
1.6088197e-12
2.7426795e-10
-1.5239706e-12
2.7341514e-10
1.4444342e-12
2.7422402e-10
-1.369959e-12
2.7345632e-10
1.3002009e-12
2.7418552e-10
-1.2349277e-12
2.7349237e-10
1.1738619e-12
2.7415185e-10
-1.1167789e-12
2.7352386e-10
1.0634579e-12
2.7412248e-10
-1.0136912e-12
2.7355125e-10
9.6730112e-13
2.7409699e-10
-9.2409413e-13
2.7357497e-10
8.8393093e-13
2.7407498e-10
-8.4663573e-13
2.7359537e-10
8.1209917e-13
2.7405613e-10
-7.801659e-13
2.7361274e-10
7.5074739e-13
2.7404017e-10
-7.2370706e-13
2.7362736e-10
6.9897187e-13
2.7402686e-10
-6.7642903e-13
2.7363941e-10
6.5602496e-13
2.7401602e-10
-6.3766267e-13
2.7364909e-10
6.2129031e-13
2.7400748e-10
-6.0683709e-13
2.736565e-10
5.9428899e-13
2.7400107e-10
-5.8345055e-13
2.7366166e-10
5.7467131e-13
2.7399707e-10
-5.6800761e-13
2.7366871e-10
5.5668955e-13
2.7401579e-10
-5.8283458e-13
5.3565949e-13
4.4976735e-10
6.5433258e-09
4.7611338e-10
-3.999027e-11
4.4922168e-10
5.1737889e-11
4.4913823e-10
1.3834865e-12
4.4975706e-10
-2.9946359e-12
4.4785597e-10
5.4070686e-12
4.4961182e-10
-5.0147167e-12
4.4788356e-10
4.8807566e-12
4.4954278e-10
-4.6514214e-12
4.4796652e-10
4.4106285e-12
4.4945241e-10
-4.1583895e-12
4.4804612e-10
3.9319806e-12
4.4937207e-10
-3.7085489e-12
4.4811888e-10
3.503976e-12
4.4930231e-10
-3.3089957e-12
4.4818373e-10
3.1273687e-12
4.4924129e-10
-2.9564524e-12
4.4824101e-10
2.7962296e-12
4.4918773e-10
-2.6460912e-12
4.4829142e-10
2.5051278e-12
4.4914067e-10
-2.3732198e-12
4.4833572e-10
2.2493887e-12
4.4909936e-10
-2.1335966e-12
4.4837458e-10
2.0249802e-12
4.4906313e-10
-1.9234786e-12
4.484086e-10
1.828389e-12
4.4903143e-10
-1.7396076e-12
4.4843832e-10
1.6565676e-12
4.4900378e-10
-1.5791516e-12
4.4846418e-10
1.506898e-12
4.4897976e-10
-1.4396731e-12
4.4848658e-10
1.3771089e-12
4.4895902e-10
-1.3190701e-12
4.4850585e-10
1.2652625e-12
4.4894125e-10
-1.2155586e-12
4.4852228e-10
1.1697179e-12
4.4892619e-10
-1.1276209e-12
4.485361e-10
1.0890673e-12
4.4891363e-10
-1.0539614e-12
4.485475e-10
1.0221526e-12
4.4890339e-10
-9.935509e-13
4.4855667e-10
9.6801327e-13
4.4889532e-10
-9.4548749e-13
4.485637e-10
9.2590832e-13
4.4888919e-10
-9.0894371e-13
4.4856848e-10
8.9537647e-13
4.4888527e-10
-8.8479519e-13
4.4857656e-10
8.6540284e-13
4.4891384e-10
-9.2011812e-13
8.3246861e-13
6.1234871e-10
8.3887271e-09
6.5395369e-10
-8.1595254e-11
6.1946267e-10
8.622892e-11
6.1986858e-10
9.7757421e-13
6.1993606e-10
-3.0621116e-12
6.1822126e-10
7.1218716e-12
6.1983052e-10
-6.6239667e-12
6.182356e-10
6.4756756e-12
6.1978716e-10
-6.2029868e-12
6.1831098e-10
5.8868137e-12
6.1970254e-10
-5.5499439e-12
6.1838404e-10
5.2504713e-12
6.196267e-10
-4.9512017e-12
6.1845175e-10
4.6789234e-12
6.1956126e-10
-4.418502e-12
6.1851239e-10
4.176231e-12
6.1950417e-10
-3.9482323e-12
6.1856604e-10
3.7343621e-12
6.194541e-10
-3.5341483e-12
6.1861328e-10
3.3459437e-12
6.194101e-10
-3.1700387e-12
6.186548e-10
3.0046883e-12
6.1937146e-10
-2.8502574e-12
6.1869123e-10
2.7052107e-12
6.1933757e-10
-2.5698148e-12
6.1872314e-10
2.4428205e-12
6.193079e-10
-2.3243692e-12
6.1875101e-10
2.2134543e-12
6.1928201e-10
-2.1101483e-12
6.1877528e-10
2.0136293e-12
6.1925951e-10
-1.9239036e-12
6.187963e-10
1.8403153e-12
6.1924007e-10
-1.7628333e-12
6.188144e-10
1.6909328e-12
6.192234e-10
-1.6245658e-12
6.1882982e-10
1.5633014e-12
6.1920928e-10
-1.5070782e-12
6.1884281e-10
1.4555377e-12
6.1919748e-10
-1.408637e-12
6.1885353e-10
1.3661047e-12
6.1918786e-10
-1.3278828e-12
6.1886216e-10
1.293716e-12
6.1918027e-10
-1.2635947e-12
6.1886879e-10
1.2373846e-12
6.1917444e-10
-1.2145989e-12
6.1887321e-10
1.1966123e-12
6.1917051e-10
-1.182094e-12
6.1888179e-10
1.1541241e-12
6.1920659e-10
-1.2449183e-12
1.1105395e-12
7.7554313e-10
1.0070934e-08
8.2482963e-10
-1.3088175e-10
7.8497702e-10
1.2608154e-10
7.8588006e-10
7.4537896e-14
7.8547429e-10
-2.656333e-12
7.8397178e-10
8.6243814e-12
7.8544065e-10
-8.0928416e-12
7.8398499e-10
7.9313453e-12
7.8542687e-10
-7.6448668e-12
7.840542e-10
7.2594829e-12
7.8534847e-10
-6.8442135e-12
7.8412078e-10
6.4781618e-12
7.8527738e-10
-6.1077988e-12
7.8418332e-10
5.7729809e-12
7.8521642e-10
-5.4516036e-12
7.8423963e-10
5.1530246e-12
7.851634e-10
-4.8720051e-12
7.8428953e-10
4.6082379e-12
7.8511692e-10
-4.3615445e-12
7.8433349e-10
4.1293758e-12
7.8507608e-10
-3.9126294e-12
7.8437214e-10
3.7086288e-12
7.850402e-10
-3.5183187e-12
7.8440606e-10
3.3393499e-12
7.8500871e-10
-3.1724663e-12
7.8443578e-10
3.0157587e-12
7.8498114e-10
-2.869731e-12
7.8446175e-10
2.7328467e-12
7.8495706e-10
-2.6054667e-12
7.8448436e-10
2.4863358e-12
7.8493613e-10
-2.3756776e-12
7.8450396e-10
2.2724908e-12
7.8491803e-10
-2.1769115e-12
7.8452083e-10
2.0881388e-12
7.8490252e-10
-2.006255e-12
7.8453522e-10
1.9306024e-12
7.8488936e-10
-1.8612177e-12
7.8454734e-10
1.7975537e-12
7.8487836e-10
-1.7396551e-12
7.8455735e-10
1.6871085e-12
7.8486938e-10
-1.6399121e-12
7.8456543e-10
1.5976735e-12
7.8486229e-10
-1.5604549e-12
7.8457164e-10
1.5280315e-12
7.8485679e-10
-1.4997518e-12
7.8457569e-10
1.4777184e-12
7.8485281e-10
-1.4592167e-12
7.8458443e-10
1.4225024e-12
7.8489446e-10
-1.5549525e-12
1.3683944e-12
9.2267756e-10
1.1606006e-08
9.8945245e-10
-1.9765664e-10
9.459169e-10
1.696171e-10
9.4715133e-10
-1.1598944e-12
9.4637368e-10
-1.8786743e-12
9.45109e-10
9.8890635e-12
9.4644344e-10
-9.4272788e-12
9.4513154e-10
9.2432468e-12
9.4646238e-10
-8.9757035e-12
9.4519589e-10
8.5259668e-12
9.4639063e-10
-8.0389499e-12
9.4525608e-10
7.6127144e-12
9.4632447e-10
-7.1761942e-12
9.4531337e-10
6.7840879e-12
9.4626812e-10
-6.4063609e-12
9.4536524e-10
6.0559137e-12
9.4621926e-10
-5.7260257e-12
9.4541128e-10
5.4162089e-12
9.4617645e-10
-5.1267066e-12
9.4545189e-10
4.8539369e-12
9.4613883e-10
-4.5995687e-12
9.4548759e-10
4.3598603e-12
9.4610576e-10
-4.1364891e-12
9.4551894e-10
3.9261735e-12
9.4607674e-10
-3.7302609e-12
9.4554641e-10
3.5460879e-12
9.460513e-10
-3.3746238e-12
9.4557042e-10
3.2137287e-12
9.4602908e-10
-3.0641336e-12
9.4559133e-10
2.9240895e-12
9.4600976e-10
-2.7941039e-12
9.4560946e-10
2.672784e-12
9.4599304e-10
-2.560486e-12
9.4562508e-10
2.4560969e-12
9.459787e-10
-2.3598732e-12
9.456384e-10
2.2708988e-12
9.4596653e-10
-2.1893433e-12
9.4564964e-10
2.1144458e-12
9.4595635e-10
-2.0463706e-12
9.4565892e-10
1.9845415e-12
9.4594804e-10
-1.9290343e-12
9.4566641e-10
1.8793034e-12
9.4594146e-10
-1.8355025e-12
9.4567219e-10
1.7972981e-12
9.4593631e-10
-1.7638736e-12
9.4567586e-10
1.7381679e-12
9.4593228e-10
-1.7156351e-12
9.4568451e-10
1.6702774e-12
9.4597781e-10
-1.8482569e-12
1.6047409e-12
1.0790328e-09
1.2984724e-08
1.1475459e-09
-2.6616971e-10
1.1021554e-09
2.1500752e-10
1.1036478e-09
-2.6522839e-12
1.1026262e-09
-8.5699176e-13
1.1016337e-09
1.0881486e-11
1.1028402e-09
-1.0633771e-11
1.1016751e-09
1.0408401e-11
1.1028942e-09
-1.0194785e-11
1.1017357e-09
9.6844447e-12
1.1028294e-09
-9.1326432e-12
1.1017896e-09
8.6524996e-12
1.1027683e-09
-8.1549085e-12
1.1018416e-09
7.7108084e-12
1.1027166e-09
-7.2814208e-12
1.1018889e-09
6.8836124e-12
1.102672e-09
-6.5090647e-12
1.1019311e-09
6.1571103e-12
1.1026329e-09
-5.8285156e-12
1.1019683e-09
5.5185657e-12
1.1025985e-09
-5.2298368e-12
1.102001e-09
4.9574169e-12
1.1025683e-09
-4.7038383e-12
1.1020297e-09
4.4647958e-12
1.1025418e-09
-4.2423462e-12
1.1020549e-09
4.0329984e-12
1.1025185e-09
-3.8382688e-12
1.1020769e-09
3.6553553e-12
1.1024982e-09
-3.4854311e-12
1.1020961e-09
3.3262046e-12
1.1024805e-09
-3.178523e-12
1.1021127e-09
3.0405636e-12
1.1024652e-09
-2.9129494e-12
1.1021271e-09
2.7942249e-12
1.102452e-09
-2.6848576e-12
1.1021393e-09
2.5836499e-12
1.1024409e-09
-2.4909327e-12
1.1021496e-09
2.405711e-12
1.1024315e-09
-2.3282951e-12
1.1021581e-09
2.2579337e-12
1.1024239e-09
-2.1947955e-12
1.102165e-09
2.1381644e-12
1.1024179e-09
-2.0883091e-12
1.1021704e-09
2.0447694e-12
1.1024131e-09
-2.0065668e-12
1.1021737e-09
1.977563e-12
1.102409e-09
-1.9509684e-12
1.102182e-09
1.8972715e-12
1.1024569e-09
-2.1231725e-12
1.8188213e-12
1.2113219e-09
1.4231152e-08
1.2991773e-09
-3.5402513e-10
1.2538531e-09
2.6033181e-10
1.2553325e-09
-4.131677e-12
1.254227e-09
2.4850371e-13
1.2535478e-09
1.1560612e-11
1.2546327e-09
-1.171864e-11
1.2536157e-09
1.1425415e-11
1.2547227e-09
-1.1301812e-11
1.2536733e-09
1.0733902e-11
1.254665e-09
-1.0124414e-11
1.253721e-09
9.5965158e-12
1.2546092e-09
-9.0430445e-12
1.2537677e-09
8.5522543e-12
1.2545622e-09
-8.0759438e-12
1.2538105e-09
7.6353176e-12
1.2545218e-09
-7.2203472e-12
1.2538487e-09
6.8302056e-12
1.2544865e-09
-6.4662567e-12
1.2538824e-09
6.1225831e-12
1.2544554e-09
-5.8027723e-12
1.2539121e-09
5.500666e-12
1.254428e-09
-5.2197528e-12
1.2539382e-09
4.9546328e-12
1.254404e-09
-4.7081555e-12
1.2539611e-09
4.4759466e-12
1.2543829e-09
-4.2601379e-12
1.2539811e-09
4.0572241e-12
1.2543645e-09
-3.8688732e-12
1.2539985e-09
3.6922155e-12
1.2543485e-09
-3.5284827e-12
1.2540136e-09
3.3753959e-12
1.2543346e-09
-3.23388e-12
1.2540267e-09
3.1021176e-12
1.2543226e-09
-2.980817e-12
1.2540378e-09
2.868479e-12
1.2543125e-09
-2.7656202e-12
1.2540472e-09
2.6709969e-12
1.254304e-09
-2.5850886e-12
1.254055e-09
2.5069554e-12
1.254297e-09
-2.4368731e-12
1.2540613e-09
2.3739471e-12
1.2542915e-09
-2.3185741e-12
1.2540661e-09
2.2701527e-12
1.2542871e-09
-2.2275548e-12
1.2540691e-09
2.1956215e-12
1.2542831e-09
-2.1649631e-12
1.254077e-09
2.1033876e-12
1.2543321e-09
-2.3783085e-12
2.0102913e-12
1.3599712e-09
1.5328931e-08
1.4448938e-09
-4.3894767e-10
1.4008816e-09
3.0434402e-10
1.4021897e-09
-5.4398643e-12
1.4011665e-09
1.2717341e-12
1.4008536e-09
1.1873535e-11
1.4018232e-09
-1.2688231e-11
1.400954e-09
1.2294617e-11
1.4019487e-09
-1.2296566e-11
1.4010085e-09
1.1674148e-11
1.4018979e-09
-1.1013866e-11
1.4010501e-09
1.0444339e-11
1.4018473e-09
-9.8402043e-12
1.4010915e-09
9.3080219e-12
1.4018051e-09
-8.7895402e-12
1.4011298e-09
8.3106496e-12
1.4017689e-09
-7.8594952e-12
1.401164e-09
7.4351309e-12
1.4017373e-09
-7.0395651e-12
1.4011943e-09
6.6656382e-12
1.4017095e-09
-6.3180259e-12
1.4012209e-09
5.9892757e-12
1.401685e-09
-5.6839014e-12
1.4012443e-09
5.3953646e-12
1.4016635e-09
-5.1273722e-12
1.4012648e-09
4.8746304e-12
1.4016446e-09
-4.6399344e-12
1.4012828e-09
4.4190464e-12
1.4016281e-09
-4.2141751e-12
1.4012985e-09
4.0218477e-12
1.4016137e-09
-3.843715e-12
1.4013121e-09
3.6770224e-12
1.4016012e-09
-3.5230267e-12
1.4013238e-09
3.3795329e-12
1.4015905e-09
-3.2475131e-12
1.4013338e-09
3.1251563e-12
1.4015814e-09
-3.0131815e-12
1.4013423e-09
2.9100865e-12
1.4015738e-09
-2.8165373e-12
1.4013493e-09
2.7314017e-12
1.4015675e-09
-2.65507e-12
1.401355e-09
2.5864584e-12
1.4015625e-09
-2.5261098e-12
1.4013594e-09
2.4732684e-12
1.4015585e-09
-2.4266693e-12
1.401362e-09
2.3921694e-12
1.4015545e-09
-2.3574818e-12
1.4013693e-09
2.2886005e-12
1.4016035e-09
-2.6125174e-12
2.1790982e-12
1.4812645e-09
1.6305416e-08
1.5837312e-09
-5.4141438e-10
1.5433346e-09
3.4474066e-10
1.5442923e-09
-6.3975902e-12
1.5434635e-09
2.1004735e-12
1.5435513e-09
1.1785757e-11
1.5444117e-09
-1.354862e-11
1.5436895e-09
1.3016782e-11
1.5445724e-09
-1.3179452e-11
1.5437411e-09
1.2505497e-11
1.5445283e-09
-1.1801123e-11
1.5437767e-09
1.1196027e-11
1.5444829e-09
-1.0546444e-11
1.5438128e-09
9.9781353e-12
1.5444455e-09
-9.4222208e-12
1.5438465e-09
8.9096072e-12
1.5444135e-09
-8.4264875e-12
1.5438768e-09
7.9718601e-12
1.5443856e-09
-7.5483961e-12
1.5439036e-09
7.1476843e-12
1.5443611e-09
-6.7755339e-12
1.5439272e-09
6.423177e-12
1.5443395e-09
-6.0962042e-12
1.5439479e-09
5.7869129e-12
1.5443205e-09
-5.4999088e-12
1.5439661e-09
5.2289598e-12
1.5443038e-09
-4.9775605e-12
1.5439821e-09
4.740729e-12
1.5442891e-09
-4.5212404e-12
1.543996e-09
4.3150063e-12
1.5442764e-09
-4.1241207e-12
1.5440081e-09
3.9453458e-12
1.5442653e-09
-3.7802885e-12
1.5440185e-09
3.6263721e-12
1.5442558e-09
-3.4848487e-12
1.5440274e-09
3.3535868e-12
1.5442477e-09
-3.2335215e-12
1.5440349e-09
3.1228879e-12
1.5442409e-09
-3.022553e-12
1.5440412e-09
2.9311856e-12
1.5442354e-09
-2.8492979e-12
1.5440462e-09
2.7756169e-12
1.544231e-09
-2.7108372e-12
1.5440502e-09
2.6540401e-12
1.5442274e-09
-2.6038447e-12
1.5440524e-09
2.5671306e-12
1.5442234e-09
-2.5284903e-12
1.544059e-09
2.4529592e-12
1.5442714e-09
-2.8248729e-12
2.325414e-12
1.6205697e-09
1.7142596e-08
1.7174006e-09
-6.3824532e-10
1.681012e-09
3.8112925e-10
1.681805e-09
-7.1906172e-12
1.6811846e-09
2.7208774e-12
1.6816515e-09
1.1318873e-11
1.6824017e-09
-1.4298756e-11
1.6818228e-09
1.3595598e-11
1.6825943e-09
-1.3950865e-11
1.6818709e-09
1.3228872e-11
1.6825565e-09
-1.248673e-11
1.6819004e-09
1.185209e-11
1.6825162e-09
-1.1162228e-11
1.6819313e-09
1.0563009e-11
1.6824835e-09
-9.9743617e-12
1.6819606e-09
9.4325325e-12
1.6824557e-09
-8.9216256e-12
1.6819869e-09
8.4406701e-12
1.6824315e-09
-7.99299e-12
1.6820102e-09
7.5689418e-12
1.6824102e-09
-7.1754878e-12
1.6820308e-09
6.8025503e-12
1.6823914e-09
-6.4568151e-12
1.6820489e-09
6.1294169e-12
1.6823749e-09
-5.8258844e-12
1.6820648e-09
5.5390468e-12
1.6823603e-09
-5.2731129e-12
1.6820787e-09
5.0223563e-12
1.6823476e-09
-4.7901391e-12
1.6820909e-09
4.5717548e-12
1.6823365e-09
-4.3697543e-12
1.6821014e-09
4.1804155e-12
1.6823269e-09
-4.0057092e-12
1.6821105e-09
3.8426752e-12
1.6823186e-09
-3.6928556e-12
1.6821183e-09
3.5537998e-12
1.6823115e-09
-3.4266655e-12
1.682125e-09
3.3094244e-12
1.6823056e-09
-3.2031533e-12
1.6821304e-09
3.1063265e-12
1.6823007e-09
-3.0195776e-12
1.6821349e-09
2.9414402e-12
1.6822968e-09
-2.872774e-12
1.6821384e-09
2.8124894e-12
1.6822936e-09
-2.7591079e-12
1.6821402e-09
2.7205232e-12
1.6822898e-09
-2.6780517e-12
1.6821462e-09
2.5965797e-12
1.6823359e-09
-3.0146549e-12
2.4495984e-12
1.7368314e-09
1.7863515e-08
1.8443096e-09
-7.457235e-10
1.8139499e-09
4.1148903e-10
1.8147534e-09
-7.9941132e-12
1.8143683e-09
3.1058912e-12
1.8151575e-09
1.0529753e-11
1.8157939e-09
-1.4935168e-11
1.8153538e-09
1.4035718e-11
1.8160144e-09
-1.4611516e-11
1.8153977e-09
1.3845635e-11
1.8159826e-09
-1.3071644e-11
1.8154212e-09
1.2413429e-11
1.8159474e-09
-1.1688388e-11
1.815447e-09
1.1063404e-11
1.8159193e-09
-1.0446666e-11
1.8154718e-09
9.8800774e-12
1.8158956e-09
-9.345505e-12
1.8154942e-09
8.8421167e-12
1.815875e-09
-8.3738531e-12
1.8155141e-09
7.9298846e-12
1.8158569e-09
-7.5183171e-12
1.8155317e-09
7.1277925e-12
1.815841e-09
-6.7660968e-12
1.8155472e-09
6.4232177e-12
1.8158269e-09
-6.1056099e-12
1.8155608e-09
5.8051787e-12
1.8158145e-09
-5.526853e-12
1.8155727e-09
5.2641775e-12
1.8158036e-09
-5.0211011e-12
1.8155831e-09
4.792309e-12
1.8157942e-09
-4.5808134e-12
1.8155922e-09
4.3824176e-12
1.8157859e-09
-4.1994587e-12
1.8156e-09
4.0286029e-12
1.8157788e-09
-3.8716861e-12
1.8156067e-09
3.7259402e-12
1.8157727e-09
-3.5927492e-12
1.8156123e-09
3.4698264e-12
1.8157677e-09
-3.3584655e-12
1.815617e-09
3.2569453e-12
1.8157635e-09
-3.1660218e-12
1.8156209e-09
3.0840433e-12
1.8157601e-09
-3.0120321e-12
1.8156239e-09
2.9487264e-12
1.8157574e-09
-2.8925748e-12
1.8156254e-09
2.8524498e-12
1.8157537e-09
-2.8063142e-12
1.8156306e-09
2.7196475e-12
1.8157973e-09
-3.1813314e-12
2.552162e-12
1.8673839e-09
1.8453881e-08
1.9670086e-09
-8.4534819e-10
1.9421677e-09
4.3632994e-10
1.9431056e-09
-8.9320327e-12
1.9430014e-09
3.2101229e-12
1.9440696e-09
9.4615736e-12
1.9445892e-09
-1.5454814e-11
1.9442829e-09
1.4342047e-11
1.9448335e-09
-1.5162094e-11
1.9443214e-09
1.4357707e-11
1.9448068e-09
-1.3557099e-11
1.9443389e-09
1.2881341e-11
1.9447766e-09
-1.2126072e-11
1.9443596e-09
1.1480407e-11
1.9447531e-09
-1.0840131e-11
1.94438e-09
1.0253176e-11
1.9447335e-09
-9.698985e-12
1.9443986e-09
9.1770045e-12
1.9447164e-09
-8.691725e-12
1.9444151e-09
8.2312055e-12
1.9447015e-09
-7.8046618e-12
1.9444297e-09
7.3995095e-12
1.9446883e-09
-7.024607e-12
1.9444426e-09
6.668837e-12
1.9446766e-09
-6.3395684e-12
1.944454e-09
6.0278136e-12
1.9446663e-09
-5.7392073e-12
1.9444639e-09
5.4665899e-12
1.9446573e-09
-5.214495e-12
1.9444726e-09
4.9770171e-12
1.9446494e-09
-4.7576249e-12
1.9444802e-09
4.5516618e-12
1.9446425e-09
-4.3618307e-12
1.9444867e-09
4.184435e-12
1.9446366e-09
-4.0216018e-12
1.9444923e-09
3.8702583e-12
1.9446316e-09
-3.7320107e-12
1.9444971e-09
3.6043228e-12
1.9446273e-09
-3.4887056e-12
1.944501e-09
3.3832537e-12
1.9446238e-09
-3.2888388e-12
1.9445042e-09
3.203625e-12
1.944621e-09
-3.1288062e-12
1.9445068e-09
3.062946e-12
1.9446186e-09
-3.0044407e-12
1.944508e-09
2.9630951e-12
1.9446152e-09
-2.9135074e-12
1.9445124e-09
2.8224082e-12
1.9446557e-09
-3.3245464e-12
2.6337403e-12
1.9787703e-09
1.8932861e-08
2.0832162e-09
-9.4979404e-10
2.0657664e-09
4.5377973e-10
2.0668958e-09
-1.0061402e-11
2.0670923e-09
3.0136267e-12
2.0683926e-09
8.1612394e-12
2.0687883e-09
-1.5850531e-11
2.0686102e-09
1.4520132e-11
2.0690516e-09
-1.5603422e-11
2.0686419e-09
1.4767359e-11
2.0690295e-09
-1.3944661e-11
2.0686534e-09
1.3257436e-11
2.069004e-09
-1.2476723e-11
2.068669e-09
1.1815385e-11
2.0689849e-09
-1.1156021e-11
2.0686851e-09
1.0553015e-11
2.0689693e-09
-9.9831656e-12
2.0686999e-09
9.4463676e-12
2.0689558e-09
-8.9475659e-12
2.0687132e-09
8.4738082e-12
2.0689439e-09
-8.0353594e-12
2.0687249e-09
7.6184838e-12
2.0689333e-09
-7.2330756e-12
2.0687352e-09
6.8669649e-12
2.0689241e-09
-6.5284031e-12
2.0687443e-09
6.207554e-12
2.0689158e-09
-5.9107376e-12
2.0687523e-09
5.6301293e-12
2.0689086e-09
-5.3708249e-12
2.0687593e-09
5.1263563e-12
2.0689023e-09
-4.9006363e-12
2.0687654e-09
4.6885734e-12
2.0688968e-09
-4.4932244e-12
2.0687707e-09
4.3105519e-12
2.068892e-09
-4.1429669e-12
2.0687752e-09
3.9871024e-12
2.068888e-09
-3.8447824e-12
2.0687791e-09
3.7132342e-12
2.0688845e-09
-3.5941852e-12
2.0687822e-09
3.485551e-12
2.0688817e-09
-3.388314e-12
2.0687849e-09
3.3004692e-12
2.0688794e-09
-3.2233728e-12
2.068787e-09
3.155419e-12
2.0688775e-09
-3.0949776e-12
2.0687879e-09
3.052716e-12
2.0688743e-09
-2.9999318e-12
2.0687915e-09
2.9051703e-12
2.0689111e-09
-3.4441029e-12
2.695064e-12
2.1006768e-09
1.9289934e-08
2.1959108e-09
-1.045028e-09
2.1847553e-09
4.6493518e-10
2.1861413e-09
-1.1447352e-11
2.1866235e-09
2.5313829e-12
2.188125e-09
6.6598056e-12
2.1883901e-09
-1.6115696e-11
2.1883352e-09
1.4575076e-11
2.1886687e-09
-1.5936887e-11
2.188359e-09
1.507704e-11
2.1886506e-09
-1.4236242e-11
2.1883644e-09
1.3543592e-11
2.1886298e-09
-1.2742064e-11
2.1883752e-09
1.206996e-11
2.188615e-09
-1.1395843e-11
2.188387e-09
1.078101e-11
2.1886032e-09
-1.0199363e-11
2.1883981e-09
9.6514427e-12
2.1885931e-09
-9.1425262e-12
2.1884081e-09
8.6587741e-12
2.1885842e-09
-8.2114202e-12
2.188417e-09
7.785673e-12
2.1885763e-09
-7.392395e-12
2.1884248e-09
7.0184403e-12
2.1885693e-09
-6.6728993e-12
2.1884317e-09
6.3451462e-12
2.1885631e-09
-6.0421458e-12
2.1884378e-09
5.7554547e-12
2.1885577e-09
-5.4907092e-12
2.1884432e-09
5.2409136e-12
2.1885529e-09
-5.0104037e-12
2.1884478e-09
4.7936816e-12
2.1885487e-09
-4.5941446e-12
2.1884518e-09
4.4074361e-12
2.1885451e-09
-4.2362377e-12
2.1884553e-09
4.0769107e-12
2.188542e-09
-3.931484e-12
2.1884583e-09
3.7969645e-12
2.1885394e-09
-3.6752897e-12
2.1884607e-09
3.5642133e-12
2.1885372e-09
-3.4648162e-12
2.1884628e-09
3.3749303e-12
2.1885355e-09
-3.2960783e-12
2.1884644e-09
3.2264893e-12
2.1885339e-09
-3.1645251e-12
2.188465e-09
3.1216414e-12
2.188531e-09
-3.0659562e-12
2.1884679e-09
2.9682953e-12
2.1885638e-09
-3.5399535e-12
2.7369403e-12
2.2079635e-09
1.953972e-08
2.3026043e-09
-1.1396688e-09
2.2992332e-09
4.6830629e-10
2.3008831e-09
-1.3097302e-11
2.3015916e-09
1.8229066e-12
2.3032694e-09
4.9820109e-12
2.3033953e-09
-1.6241646e-11
2.303458e-09
1.4512469e-11
2.303685e-09
-1.6163959e-11
2.3034725e-09
1.5289534e-11
2.3036703e-09
-1.4433991e-11
2.3034719e-09
1.3741952e-11
2.3036539e-09
-1.2924047e-11
2.3034779e-09
1.2245985e-11
2.3036434e-09
-1.1561317e-11
2.3034856e-09
1.0938783e-11
2.3036353e-09
-1.034909e-11
2.3034931e-09
9.7936558e-12
2.3036285e-09
-9.2779386e-12
2.3034999e-09
8.7873603e-12
2.3036225e-09
-8.334018e-12
2.303506e-09
7.9021781e-12
2.3036172e-09
-7.503599e-12
2.3035114e-09
7.124242e-12
2.3036125e-09
-6.7739762e-12
2.3035162e-09
6.4414546e-12
2.3036083e-09
-6.1342439e-12
2.3035204e-09
5.8433413e-12
2.3036046e-09
-5.5748815e-12
2.3035241e-09
5.3213854e-12
2.3036013e-09
-5.0875848e-12
2.3035274e-09
4.8676129e-12
2.3035984e-09
-4.6651835e-12
2.3035302e-09
4.4756536e-12
2.3035959e-09
-4.301958e-12
2.3035326e-09
4.1402043e-12
2.3035937e-09
-3.992615e-12
2.3035347e-09
3.855996e-12
2.3035919e-09
-3.7324881e-12
2.3035364e-09
3.6196921e-12
2.3035904e-09
-3.5187785e-12
2.3035379e-09
3.4274365e-12
2.3035891e-09
-3.3473404e-12
2.3035391e-09
3.2765652e-12
2.303588e-09
-3.2134892e-12
2.3035394e-09
3.1702608e-12
2.3035855e-09
-3.1120078e-12
2.3035416e-09
3.0122012e-12
2.3036138e-09
-3.6121849e-12
2.7602297e-12
2.3225109e-09
1.967496e-08
2.4064086e-09
-1.2235664e-09
2.4092852e-09
4.6542965e-10
2.4111797e-09
-1.4991844e-11
2.4119827e-09
1.01997e-12
2.4138262e-09
3.1385386e-12
2.4138038e-09
-1.6219274e-11
2.4139782e-09
1.4338066e-11
2.4141006e-09
-1.6286399e-11
2.4139824e-09
1.5407806e-11
2.4140887e-09
-1.4540331e-11
2.4139758e-09
1.3854869e-11
2.4140766e-09
-1.3024852e-11
2.4139771e-09
1.2345515e-11
2.4140701e-09
-1.1654365e-11
2.4139808e-09
1.1028141e-11
2.4140657e-09
-1.0434036e-11
2.4139848e-09
9.8745965e-12
2.4140621e-09
-9.3552899e-12
2.4139885e-09
8.860967e-12
2.414059e-09
-8.4044678e-12
2.4139919e-09
7.9692461e-12
2.4140561e-09
-7.5678563e-12
2.4139949e-09
7.1854714e-12
2.4140536e-09
-6.8326701e-12
2.4139976e-09
6.4974648e-12
2.4140513e-09
-6.1879632e-12
2.414e-09
5.8946662e-12
2.4140493e-09
-5.6241691e-12
2.4140021e-09
5.3685587e-12
2.4140475e-09
-5.132928e-12
2.414004e-09
4.911081e-12
2.4140458e-09
-4.7070243e-12
2.4140056e-09
4.5158579e-12
2.4140444e-09
-4.3407488e-12
2.414007e-09
4.1775803e-12
2.4140432e-09
-4.0287487e-12
2.4140083e-09
3.8908815e-12
2.4140421e-09
-3.7663097e-12
2.4140093e-09
3.6525038e-12
2.4140412e-09
-3.5507067e-12
2.4140102e-09
3.4584751e-12
2.4140405e-09
-3.3776354e-12
2.4140109e-09
3.306118e-12
2.4140398e-09
-3.2423327e-12
2.414011e-09
3.1990266e-12
2.4140376e-09
-3.1385715e-12
2.4140124e-09
3.0373511e-12
2.4140612e-09
-3.6610103e-12
2.7658344e-12
2.426349e-09
1.9706361e-08
2.5045788e-09
-1.3017962e-09
2.5148648e-09
4.5514363e-10
2.517076e-09
-1.7203049e-11
2.5178042e-09
2.9181442e-13
2.5197987e-09
1.1439643e-12
2.5196162e-09
-1.6036769e-11
2.5198959e-09
1.4058362e-11
2.5199156e-09
-1.6306043e-11
2.5198883e-09
1.5435035e-11
2.5199059e-09
-1.4557908e-11
2.5198759e-09
1.3884895e-11
2.5198979e-09
-1.3046852e-11
2.5198726e-09
1.2370789e-11
2.5198953e-09
-1.1677079e-11
2.5198724e-09
1.1051058e-11
2.5198944e-09
-1.045605e-11
2.519873e-09
9.89601e-12
2.519894e-09
-9.3762176e-12
2.5198738e-09
8.8811406e-12
2.5198935e-09
-8.4242194e-12
2.5198745e-09
7.9882399e-12
2.5198931e-09
-7.5864512e-12
2.5198753e-09
7.2033461e-12
2.5198927e-09
-6.8501285e-12
2.5198759e-09
6.5142584e-12
2.5198923e-09
-6.2043238e-12
2.5198765e-09
5.910404e-12
2.5198919e-09
-5.6394973e-12
2.5198771e-09
5.3833132e-12
2.5198915e-09
-5.147267e-12
2.5198777e-09
4.9248813e-12
2.5198911e-09
-4.7204216e-12
2.5198781e-09
4.5287716e-12
2.5198907e-09
-4.3533051e-12
2.5198786e-09
4.189706e-12
2.5198903e-09
-4.0405263e-12
2.519879e-09
3.9022403e-12
2.51989e-09
-3.7773571e-12
2.5198793e-09
3.6632289e-12
2.5198898e-09
-3.5611593e-12
2.5198796e-09
3.4685973e-12
2.5198895e-09
-3.387501e-12
2.51988e-09
3.3156731e-12
2.5198892e-09
-3.2515755e-12
2.5198798e-09
3.2084422e-12
2.5198874e-09
-3.1461799e-12
2.5198805e-09
3.0442582e-12
2.5199062e-09
-3.6867548e-12
2.7546788e-12
2.534031e-09
1.963008e-08
2.6002924e-09
-1.3680576e-09
2.6160521e-09
4.3938399e-10
2.6185048e-09
-1.9655822e-11
2.6190541e-09
-2.5739715e-13
2.6211838e-09
-9.8581136e-13
2.6208321e-09
-1.5685027e-11
2.6212102e-09
1.3680215e-11
2.6211294e-09
-1.6225208e-11
2.6211901e-09
1.5374372e-11
2.6211219e-09
-1.4489698e-11
2.6211721e-09
1.3834684e-11
2.6211179e-09
-1.299264e-11
2.6211645e-09
1.2324191e-11
2.6211191e-09
-1.1631726e-11
2.6211605e-09
1.1009654e-11
2.6211216e-09
-1.0417125e-11
2.6211578e-09
9.8597717e-12
2.6211241e-09
-9.3424836e-12
2.6211557e-09
8.8495416e-12
2.6211263e-09
-8.3948374e-12
2.6211539e-09
7.9606441e-12
2.6211282e-09
-7.5607799e-12
2.6211524e-09
7.1791836e-12
2.6211299e-09
-6.8275953e-12
2.6211511e-09
6.4930195e-12
2.6211312e-09
-6.1844477e-12
2.62115e-09
5.8916133e-12
2.6211324e-09
-5.6218678e-12
2.6211491e-09
5.3666028e-12
2.6211333e-09
-5.1315115e-12
2.6211483e-09
4.9098823e-12
2.6211341e-09
-4.7062081e-12
2.6211477e-09
4.5151922e-12
2.6211348e-09
-4.340387e-12
2.6211472e-09
4.1773122e-12
2.6211353e-09
-4.0286511e-12
2.6211468e-09
3.8907513e-12
2.6211357e-09
-3.7662815e-12
2.6211464e-09
3.6525027e-12
2.621136e-09
-3.5507586e-12
2.6211462e-09
3.4584031e-12
2.6211363e-09
-3.3775237e-12
2.6211461e-09
3.3058101e-12
2.6211363e-09
-3.2417853e-12
2.6211457e-09
3.1990651e-12
2.6211349e-09
-3.1354142e-12
2.6211457e-09
3.0334738e-12
2.6211488e-09
-3.6898502e-12
2.7277032e-12
2.6343087e-09
1.9453521e-08
2.6909182e-09
-1.4246671e-09
2.7127612e-09
4.1754105e-10
2.7153387e-09
-2.2233368e-11
2.7157373e-09
-6.5594127e-13
2.7179755e-09
-3.2240994e-12
2.7174504e-09
-1.5159889e-11
2.7179203e-09
1.3210324e-11
2.7177418e-09
-1.6046683e-11
2.7178872e-09
1.5228954e-11
2.7177365e-09
-1.4338971e-11
2.7178642e-09
1.3706989e-11
2.7177365e-09
-1.2864995e-11
2.7178525e-09
1.2208232e-11
2.7177415e-09
-1.1520719e-11
2.7178449e-09
1.0906175e-11
2.7177472e-09
-1.0319389e-11
2.7178391e-09
9.7678831e-12
2.7177526e-09
-9.2559746e-12
2.7178342e-09
8.7679515e-12
2.7177573e-09
-8.3179979e-12
2.71783e-09
7.8880357e-12
2.7177615e-09
-7.4923328e-12
2.7178263e-09
7.114398e-12
2.7177651e-09
-6.7664065e-12
2.7178231e-09
6.4350092e-12
2.7177682e-09
-6.1295274e-12
2.7178204e-09
5.8394344e-12
2.7177709e-09
-5.5723654e-12
2.717818e-09
5.3194603e-12
2.7177731e-09
-5.0866424e-12
2.717816e-09
4.8670209e-12
2.7177751e-09
-4.6652747e-12
2.7178143e-09
4.4759733e-12
2.7177767e-09
-4.3028168e-12
2.7178128e-09
4.1411895e-12
2.7177781e-09
-3.9938835e-12
2.7178117e-09
3.8571491e-12
2.7177792e-09
-3.7337983e-12
2.7178107e-09
3.621015e-12
2.7177801e-09
-3.520169e-12
2.7178099e-09
3.4285477e-12
2.7177808e-09
-3.3483431e-12
2.7178094e-09
3.2771531e-12
2.7177812e-09
-3.2135785e-12
2.7178088e-09
3.1714952e-12
2.7177803e-09
-3.1068942e-12
2.7178081e-09
3.0055931e-12
2.7177891e-09
-3.6708213e-12
2.6858484e-12
2.7348956e-09
1.9176375e-08
2.7793801e-09
-1.4691516e-09
2.8050952e-09
3.9182601e-10
2.80755e-09
-2.4688201e-11
2.8078612e-09
-9.6710901e-13
2.810169e-09
-5.531898e-12
2.8094714e-09
-1.4462341e-11
2.8100263e-09
1.2655427e-11
2.8097528e-09
-1.5773189e-11
2.8099797e-09
1.5002108e-11
2.8097498e-09
-1.410912e-11
2.8099521e-09
1.3504721e-11
2.8097539e-09
-1.2666834e-11
2.8099366e-09
1.2025559e-11
2.8097625e-09
-1.1346602e-11
2.8099257e-09
1.0742991e-11
2.8097714e-09
-1.0165084e-11
2.8099168e-09
9.6224501e-12
2.8097795e-09
-9.1186763e-12
2.8099092e-09
8.638242e-12
2.8097867e-09
-8.1954694e-12
2.8099026e-09
7.7720937e-12
2.809793e-09
-7.3826928e-12
2.8098969e-09
7.0104845e-12
2.8097985e-09
-6.667977e-12
2.8098919e-09
6.3415755e-12
2.8098032e-09
-6.0408429e-12
2.8098876e-09
5.7550764e-12
2.8098073e-09
-5.4921368e-12
2.8098838e-09
5.2429787e-12
2.8098109e-09
-5.0137038e-12
2.8098806e-09
4.7972948e-12
2.8098139e-09
-4.5985794e-12
2.8098779e-09
4.4120332e-12
2.8098165e-09
-4.2414709e-12
2.8098755e-09
4.0821811e-12
2.8098187e-09
-3.9370363e-12
2.8098736e-09
3.8022185e-12