/*--------------------------------*- C++ -*----------------------------------*\
| =========                 |                                                 |
| \\      /  F ield         | OpenFOAM: The Open Source CFD Toolbox           |
|  \\    /   O peration     | Version:  2312                                  |
|   \\  /    A nd           | Website:  www.openfoam.com                      |
|    \\/     M anipulation  |                                                 |
\*---------------------------------------------------------------------------*/
FoamFile
{
    version     2.0;
    format      ascii;
    arch        "LSB;label=32;scalar=64";
    class       surfaceScalarField;
    location    "2";
    object      phi_0;
}
// * * * * * * * * * * * * * * * * * * * * * * * * * * * * * * * * * * * * * //

dimensions      [0 3 -1 0 0 0 0];

oriented        oriented;

internalField   nonuniform List<scalar> 
7870
(
1.0201058e-10
2.3557394e-09
1.0149888e-10
5.1169933e-13
9.4551147e-11
6.9477331e-12
9.3962476e-11
5.8867037e-13
9.5090976e-11
-1.1285017e-12
9.3649116e-11
1.4418607e-12
9.4999287e-11
-1.3501718e-12
9.370149e-11
1.2977972e-12
9.4929586e-11
-1.2280957e-12
9.3767435e-11
1.1621511e-12
9.4863326e-11
-1.0958907e-12
9.382812e-11
1.0352058e-12
9.4804851e-11
-9.7673103e-13
9.3882285e-11
9.2256639e-13
9.4753561e-11
-8.7127637e-13
9.3930161e-11
8.2340054e-13
9.4708505e-11
-7.7834433e-13
9.3972331e-11
7.3617481e-13
9.4668905e-11
-6.9657421e-13
9.4009412e-11
6.5949269e-13
9.4634113e-11
-6.2470093e-13
9.404198e-11
5.9213304e-13
9.4603577e-11
-5.6159638e-13
9.4070544e-11
5.3303283e-13
9.4576815e-11
-5.0627062e-13
9.4095549e-11
4.8126559e-13
9.4553412e-11
-4.5786237e-13
9.4117383e-11
4.3602822e-13
9.4533008e-11
-4.1562494e-13
9.413638e-11
3.9662833e-13
9.4515295e-11
-3.789151e-13
9.4152827e-11
3.6246834e-13
9.4500006e-11
-3.471795e-13
9.4166969e-11
3.3303699e-13
9.4486916e-11
-3.1994663e-13
9.4179016e-11
3.0790012e-13
9.4475832e-11
-2.9681631e-13
9.4189143e-11
2.8668879e-13
9.4466593e-11
-2.7744979e-13
9.4197497e-11
2.6909612e-13
9.4459068e-11
-2.6157121e-13
9.4204198e-11
2.5487041e-13
9.4453147e-11
-2.4894945e-13
9.4209332e-11
2.4381455e-13
9.4448723e-11
-2.3939064e-13
9.4212962e-11
2.3576158e-13
9.444605e-11
-2.3308897e-13
9.4217239e-11
2.288115e-13
9.4453499e-11
-2.362602e-13
2.2040112e-13
2.7935083e-10
4.5341386e-09
2.9222018e-10
-1.2357649e-11
2.7439588e-10
2.4772022e-11
2.7369333e-10
1.29122e-12
2.7494098e-10
-2.3761552e-12
2.7287502e-10
3.5078272e-12
2.7478519e-10
-3.2603491e-12
2.7292891e-10
3.1540793e-12
2.7469439e-10
-2.9935768e-12
2.7302091e-10
2.8356317e-12
2.7459867e-10
-2.6736486e-12
2.731071e-10
2.5267762e-12
2.7451402e-10
-2.3836462e-12
2.7318477e-10
2.2518156e-12
2.7444009e-10
-2.1266009e-12
2.7325365e-10
2.0098439e-12
2.7437528e-10
-1.8999734e-12
2.7331439e-10
1.7970657e-12
2.7431834e-10
-1.7005304e-12
2.7336782e-10
1.6100196e-12
2.7426832e-10
-1.525208e-12
2.7341475e-10
1.4457057e-12
2.7422442e-10
-1.3712601e-12
2.7345592e-10
1.3015268e-12
2.7418592e-10
-1.2362735e-12
2.7349197e-10
1.1752232e-12
2.7415226e-10
-1.118151e-12
2.7352345e-10
1.0648362e-12
2.7412289e-10
-1.0150722e-12
2.7355084e-10
9.6868169e-13
2.740974e-10
-9.2547153e-13
2.7357456e-10
8.8530261e-13
2.7407538e-10
-8.4799992e-13
2.7359497e-10
8.1345408e-13
2.7405653e-10
-7.815102e-13
2.7361235e-10
7.520803e-13
2.7404056e-10
-7.2502801e-13
2.7362697e-10
7.0028035e-13
2.7402725e-10
-6.7772486e-13
2.7363903e-10
6.5730869e-13
2.740164e-10
-6.3893475e-13
2.7364872e-10
6.2255065e-13
2.7400785e-10
-6.0808675e-13
2.7365614e-10
5.9552899e-13
2.7400143e-10
-5.8468148e-13
2.736613e-10
5.7589513e-13
2.7399743e-10
-5.6922593e-13
2.7366836e-10
5.5788876e-13
2.740162e-10
-5.8409985e-13
5.3681945e-13
4.4827466e-10
6.5436139e-09
4.7626234e-10
-4.0345332e-11
4.4924174e-10
5.1792615e-11
4.491389e-10
1.3940652e-12
4.497584e-10
-2.9956634e-12
4.4785586e-10
5.4103718e-12
4.4961231e-10
-5.0167996e-12
4.4788322e-10
4.8831631e-12
4.4954312e-10
-4.6534758e-12
4.4796622e-10
4.4125358e-12
4.494527e-10
-4.1601261e-12
4.4804584e-10
3.9336329e-12
4.4937235e-10
-3.7101512e-12
4.4811859e-10
3.5055709e-12
4.493026e-10
-3.3106114e-12
4.4818342e-10
3.1290262e-12
4.4924161e-10
-2.9581663e-12
4.4824067e-10
2.7980067e-12
4.4918808e-10
-2.6479345e-12
4.4829106e-10
2.5070352e-12
4.4914104e-10
-2.3751868e-12
4.4833534e-10
2.2514087e-12
4.4909974e-10
-2.1356625e-12
4.4837418e-10
2.0270839e-12
4.4906352e-10
-1.9256121e-12
4.484082e-10
1.8305444e-12
4.4903183e-10
-1.7417777e-12
4.4843792e-10
1.6587462e-12
4.4900418e-10
-1.5813329e-12
4.4846378e-10
1.5090766e-12
4.4898016e-10
-1.4418448e-12
4.4848619e-10
1.3792698e-12
4.4895941e-10
-1.3212173e-12
4.4850547e-10
1.2673935e-12
4.4894163e-10
-1.217672e-12
4.485219e-10
1.171812e-12
4.4892656e-10
-1.1296949e-12
4.4853572e-10
1.0911205e-12
4.4891399e-10
-1.0559941e-12
4.4854714e-10
1.0241649e-12
4.4890375e-10
-9.9554333e-13
4.4855631e-10
9.6998697e-13
4.4889567e-10
-9.4744355e-13
4.4856335e-10
9.2784807e-13
4.4888953e-10
-9.1086871e-13
4.4856814e-10
8.9728978e-13
4.4888561e-10
-8.8669877e-13
4.4857623e-10
8.6727267e-13
4.4891425e-10
-9.2212339e-13
8.3427366e-13
6.1540164e-10
8.3859623e-09
6.537599e-10
-7.8703595e-11
6.1943574e-10
8.611677e-11
6.1987095e-10
9.5885364e-13
6.1993685e-10
-3.0615649e-12
6.1822131e-10
7.1259108e-12
6.1983099e-10
-6.6264782e-12
6.1823533e-10
6.4788149e-12
6.1978746e-10
-6.2056047e-12
6.1831073e-10
5.8892709e-12
6.1970279e-10
-5.5521836e-12
6.1838379e-10
5.2526278e-12
6.1962695e-10
-4.953314e-12
6.1845148e-10
4.6810489e-12
6.1956154e-10
-4.4206735e-12
6.1851209e-10
4.1784737e-12
6.1950449e-10
-3.9505616e-12
6.1856571e-10
3.7367839e-12
6.1945444e-10
-3.5366638e-12
6.1861293e-10
3.3485478e-12
6.1941047e-10
-3.1727238e-12
6.1865443e-10
3.007445e-12
6.1937184e-10
-2.853074e-12
6.1869085e-10
2.7080755e-12
6.1933795e-10
-2.572717e-12
6.1872275e-10
2.4457501e-12
6.1930829e-10
-2.3273159e-12
6.1875062e-10
2.2164089e-12
6.192824e-10
-2.1131034e-12
6.1877489e-10
2.0165783e-12
6.1925989e-10
-1.926841e-12
6.1879592e-10
1.843236e-12
6.1924044e-10
-1.7657336e-12
6.1881402e-10
1.6938093e-12
6.1922377e-10
-1.6274161e-12
6.1882946e-10
1.5661239e-12
6.1920963e-10
-1.5098718e-12
6.1884245e-10
1.4583014e-12
6.1919783e-10
-1.411371e-12
6.1885318e-10
1.3688101e-12
6.191882e-10
-1.3305608e-12
6.1886182e-10
1.2963666e-12
6.191806e-10
-1.2662204e-12
6.1886846e-10
1.2399876e-12
6.1917477e-10
-1.2171807e-12
6.1887288e-10
1.1991783e-12
6.1917083e-10
-1.1846452e-12
6.1888148e-10
1.1566245e-12
6.19207e-10
-1.2476419e-12
1.1129499e-12
7.7043482e-10
1.0073277e-08
8.2495589e-10
-1.3322466e-10
7.8500954e-10
1.2606311e-10
7.8588175e-10
8.664215e-14
7.8547591e-10
-2.6557314e-12
7.8397203e-10
8.6297881e-12
7.8544106e-10
-8.0954996e-12
7.8398479e-10
7.9350837e-12
7.8542713e-10
-7.6479429e-12
7.8405399e-10
7.2624083e-12
7.8534869e-10
-6.8468896e-12
7.8412055e-10
6.4807739e-12
7.8527762e-10
-6.1103853e-12
7.8418306e-10
5.7756123e-12
7.852167e-10
-5.4543134e-12
7.8423933e-10
5.15584e-12
7.8516371e-10
-4.8749399e-12
7.842892e-10
4.6112959e-12
7.8511726e-10
-4.3647232e-12
7.8433314e-10
4.1326666e-12
7.8507644e-10
-3.9160201e-12
7.8437178e-10
3.7121056e-12
7.8504057e-10
-3.5218677e-12
7.8440569e-10
3.3429561e-12
7.8500909e-10
-3.1761156e-12
7.844354e-10
3.0194372e-12
7.8498151e-10
-2.8734271e-12
7.8446137e-10
2.7365498e-12
7.8495744e-10
-2.6091677e-12
7.8448399e-10
2.4900258e-12
7.849365e-10
-2.3793496e-12
7.8450359e-10
2.2761389e-12
7.8491839e-10
-2.1805309e-12
7.8452047e-10
2.0917258e-12
7.8490287e-10
-2.0098075e-12
7.8453487e-10
1.9341178e-12
7.8488969e-10
-1.8646949e-12
7.84547e-10
1.8009913e-12
7.8487869e-10
-1.7430545e-12
7.8455703e-10
1.69047e-12
7.848697e-10
-1.6432368e-12
7.8456511e-10
1.6009634e-12
7.848626e-10
-1.5637122e-12
7.8457133e-10
1.5312585e-12
7.848571e-10
-1.5029515e-12
7.8457538e-10
1.4808975e-12
7.8485311e-10
-1.4623749e-12
7.8458414e-10
1.4255932e-12
7.8489487e-10
-1.5583666e-12
1.3713656e-12
9.2972136e-10
1.1601306e-08
9.8932345e-10
-1.9282675e-10
9.4587656e-10
1.6950999e-10
9.471538e-10
-1.1905943e-12
9.4637405e-10
-1.8759879e-12
9.4510935e-10
9.8944878e-12
9.4644381e-10
-9.4299607e-12
9.451314e-10
9.2474966e-12
9.464626e-10
-8.9791399e-12
9.4519571e-10
8.5292938e-12
9.4639083e-10
-8.0420089e-12
9.4525586e-10
7.6157472e-12
9.4632471e-10
-7.1792309e-12
9.4531311e-10
6.7872094e-12
9.462684e-10
-6.409598e-12
9.4536494e-10
6.0592929e-12
9.4621956e-10
-5.7295573e-12
9.4541096e-10
5.4198928e-12
9.4617678e-10
-5.1305363e-12
9.4545154e-10
4.8578994e-12
9.4613917e-10
-4.6036483e-12
9.4548724e-10
4.36404e-12
9.4610612e-10
-4.14075e-12
9.4551858e-10
3.930497e-12
9.460771e-10
-3.734631e-12
9.4554604e-10
3.5504891e-12
9.4605166e-10
-3.3790415e-12
9.4557006e-10
3.2181491e-12
9.4602944e-10
-3.0685471e-12
9.4559098e-10
2.928486e-12
9.460101e-10
-2.798476e-12
9.4560912e-10
2.677124e-12
9.4599338e-10
-2.5647893e-12
9.4562475e-10
2.4603585e-12
9.4597903e-10
-2.3640904e-12
9.4563808e-10
2.2750691e-12
9.4596685e-10
-2.1934657e-12
9.4564932e-10
2.1185184e-12
9.4595666e-10
-2.0503945e-12
9.4565861e-10
1.9885189e-12
9.4594834e-10
-1.932967e-12
9.4566611e-10
1.8831914e-12
9.4594175e-10
-1.8393501e-12
9.456719e-10
1.8011087e-12
9.459366e-10
-1.7676497e-12
9.4567558e-10
1.7419194e-12
9.4593256e-10
-1.7193588e-12
9.4568424e-10
1.6739155e-12
9.459782e-10
-1.8523291e-12
1.6082252e-12
1.0695877e-09
1.2989468e-08
1.1474869e-09
-2.7072599e-10
1.1021912e-09
2.1480571e-10
1.1036503e-09
-2.6496756e-12
1.1026277e-09
-8.5341751e-13
1.1016343e-09
1.0887921e-11
1.1028405e-09
-1.063621e-11
1.101675e-09
1.041304e-11
1.1028944e-09
-1.0198514e-11
1.1017355e-09
9.6881237e-12
1.1028296e-09
-9.1360484e-12
1.1017894e-09
8.6559299e-12
1.1027685e-09
-8.1583793e-12
1.1018413e-09
7.7144099e-12
1.1027169e-09
-7.2851765e-12
1.1018887e-09
6.8875477e-12
1.1026723e-09
-6.5131843e-12
1.1019308e-09
6.1614097e-12
1.1026332e-09
-5.8329836e-12
1.1019679e-09
5.5231848e-12
1.1025989e-09
-5.2345862e-12
1.1020006e-09
4.9622751e-12
1.1025687e-09
-4.7087852e-12
1.1020294e-09
4.4698096e-12
1.1025421e-09
-4.2474081e-12
1.1020545e-09
4.0380893e-12
1.1025189e-09
-3.8433731e-12
1.1020766e-09
3.6604592e-12
1.1024985e-09
-3.490523e-12
1.1020957e-09
3.3312723e-12
1.1024808e-09
-3.1835581e-12
1.1021124e-09
3.0455577e-12
1.1024655e-09
-2.9178968e-12
1.1021267e-09
2.7991207e-12
1.1024523e-09
-2.6896999e-12
1.102139e-09
2.5884349e-12
1.1024412e-09
-2.4956595e-12
1.1021493e-09
2.4103775e-12
1.1024318e-09
-2.332904e-12
1.1021579e-09
2.2624858e-12
1.1024242e-09
-2.1992927e-12
1.1021648e-09
2.1426092e-12
1.1024181e-09
-2.0927054e-12
1.1021701e-09
2.0491206e-12
1.1024133e-09
-2.0108771e-12
1.1021734e-09
1.9818436e-12
1.1024093e-09
-1.9552134e-12
1.1021818e-09
1.9014147e-12
1.1024573e-09
-2.1278651e-12
1.8227679e-12
1.2222312e-09
1.4224987e-08
1.2993075e-09
-3.4780232e-10
1.253814e-09
2.6029921e-10
1.2553346e-09
-4.170237e-12
1.2542266e-09
2.5460482e-13
1.2535484e-09
1.156611e-11
1.254633e-09
-1.1720829e-11
1.2536156e-09
1.1430391e-11
1.2547229e-09
-1.1305781e-11
1.2536731e-09
1.07379e-11
1.2546652e-09
-1.0128142e-11
1.2537208e-09
9.6003316e-12
1.2546094e-09
-9.0469418e-12
1.2537675e-09
8.55633e-12
1.2545625e-09
-8.0802126e-12
1.2538102e-09
7.6398007e-12
1.2545221e-09
-7.2250436e-12
1.2538484e-09
6.8351055e-12
1.2544868e-09
-6.4713441e-12
1.2538821e-09
6.1278359e-12
1.2544557e-09
-5.8081667e-12
1.2539118e-09
5.506178e-12
1.2544284e-09
-5.2253574e-12
1.2539379e-09
4.9603049e-12
1.2544043e-09
-4.7138754e-12
1.2539607e-09
4.4816941e-12
1.2543833e-09
-4.2658952e-12
1.2539807e-09
4.0629736e-12
1.2543648e-09
-3.8746037e-12
1.2539982e-09
3.6979139e-12
1.2543488e-09
-3.5341405e-12
1.2540133e-09
3.3810031e-12
1.2543349e-09
-3.2394316e-12
1.2540264e-09
3.1076073e-12
1.2543229e-09
-2.986242e-12
1.2540375e-09
2.8738362e-12
1.2543128e-09
-2.7709087e-12
1.2540469e-09
2.6762141e-12
1.2543043e-09
-2.590237e-12
1.2540547e-09
2.5120381e-12
1.2542973e-09
-2.441893e-12
1.254061e-09
2.3789039e-12
1.2542918e-09
-2.3234741e-12
1.2540659e-09
2.2750008e-12
1.2542874e-09
-2.2323546e-12
1.2540688e-09
2.2003879e-12
1.2542833e-09
-2.1696852e-12
1.2540767e-09
2.1079908e-12
1.2543324e-09
-2.3835808e-12
2.014649e-12
1.3483697e-09
1.5334368e-08
1.444559e-09
-4.4399166e-10
1.4009028e-09
3.0395539e-10
1.4021924e-09
-5.4597655e-12
1.4011679e-09
1.2790717e-12
1.4008543e-09
1.1879727e-11
1.4018234e-09
-1.2689945e-11
1.4009539e-09
1.2299839e-11
1.4019489e-09
-1.2300755e-11
1.4010084e-09
1.1678448e-11
1.4018981e-09
-1.1017905e-11
1.4010499e-09
1.0448534e-11
1.4018475e-09
-9.8445227e-12
1.4010913e-09
9.3125667e-12
1.4018054e-09
-8.7943135e-12
1.4011295e-09
8.3156698e-12
1.4017692e-09
-7.8647541e-12
1.4011637e-09
7.4406139e-12
1.4017376e-09
-7.0452515e-12
1.4011939e-09
6.6715016e-12
1.4017098e-09
-6.324038e-12
1.4012206e-09
5.9954081e-12
1.4016854e-09
-5.6901293e-12
1.401244e-09
5.4016605e-12
1.4016638e-09
-5.1337139e-12
1.4012645e-09
4.8809943e-12
1.4016449e-09
-4.6463023e-12
1.4012825e-09
4.4254016e-12
1.4016284e-09
-4.2205046e-12
1.4012982e-09
4.0281364e-12
1.401614e-09
-3.8499533e-12
1.4013118e-09
3.6832001e-12
1.4016015e-09
-3.5291375e-12
1.4013236e-09
3.385571e-12
1.4015908e-09
-3.2534771e-12
1.4013336e-09
3.1310414e-12
1.4015817e-09
-3.018987e-12
1.4013421e-09
2.9158097e-12
1.401574e-09
-2.8221828e-12
1.4013491e-09
2.7369709e-12
1.4015678e-09
-2.6605655e-12
1.4013548e-09
2.5918832e-12
1.4015628e-09
-2.5314695e-12
1.4013592e-09
2.4785677e-12
1.4015588e-09
-2.431914e-12
1.4013618e-09
2.3973755e-12
1.4015547e-09
-2.3626344e-12
1.4013691e-09
2.2936202e-12
1.4016038e-09
-2.6183245e-12
2.1838141e-12
1.4923774e-09
1.629974e-08
1.5841349e-09
-5.3574914e-10
1.5433016e-09
3.4478867e-10
1.5442954e-09
-6.4535483e-12
1.5434622e-09
2.1122307e-12
1.5435519e-09
1.1790104e-11
1.5444119e-09
-1.3549995e-11
1.5436895e-09
1.3022248e-11
1.5445726e-09
-1.3183849e-11
1.543741e-09
1.2510094e-11
1.5445285e-09
-1.1805469e-11
1.5437765e-09
1.1200602e-11
1.5444831e-09
-1.0551181e-11
1.5438125e-09
9.9831432e-12
1.5444457e-09
-9.4274894e-12
1.5438462e-09
8.9151498e-12
1.5444138e-09
-8.4322896e-12
1.5438765e-09
7.9779019e-12
1.5443859e-09
-7.5546531e-12
1.5439033e-09
7.1541257e-12
1.5443614e-09
-6.7821296e-12
1.5439269e-09
6.4298973e-12
1.5443398e-09
-6.1030194e-12
1.5439476e-09
5.7937928e-12
1.5443207e-09
-5.5068312e-12
1.5439658e-09
5.2359009e-12
1.544304e-09
-4.9844998e-12
1.5439818e-09
4.7476461e-12
1.5442894e-09
-4.5281232e-12
1.5439957e-09
4.3218391e-12
1.5442766e-09
-4.1308943e-12
1.5440078e-09
3.9520482e-12
1.5442656e-09
-3.7869146e-12
1.5440182e-09
3.6329146e-12
1.5442561e-09
-3.4913053e-12
1.5440271e-09
3.3599536e-12
1.544248e-09
-3.2397979e-12
1.5440347e-09
3.1290706e-12
1.5442412e-09
-3.0286464e-12
1.5440409e-09
2.9371941e-12
1.5442356e-09
-2.855225e-12
1.544046e-09
2.781462e-12
1.5442312e-09
-2.7166092e-12
1.54405e-09
2.659745e-12
1.5442276e-09
-2.6094874e-12
1.5440522e-09
2.5727313e-12
1.5442236e-09
-2.5340279e-12
1.5440589e-09
2.4583489e-12
1.5442717e-09
-2.8311681e-12
2.3304367e-12
1.6103819e-09
1.7147108e-08
1.7168674e-09
-6.4223462e-10
1.6810075e-09
3.8064851e-10
1.6818069e-09
-7.2529204e-12
1.6811857e-09
2.7334109e-12
1.6816522e-09
1.1323644e-11
1.6824018e-09
-1.42996e-11
1.6818228e-09
1.3601244e-11
1.6825944e-09
-1.3955489e-11
1.6818708e-09
1.3233765e-11
1.6825567e-09
-1.2491384e-11
1.6819002e-09
1.1857042e-11
1.6825164e-09
-1.1167377e-11
1.6819311e-09
1.056847e-11
1.6824837e-09
-9.9801094e-12
1.6819603e-09
9.4385778e-12
1.6824559e-09
-8.9279472e-12
1.6819866e-09
8.4472438e-12
1.6824317e-09
-7.9997878e-12
1.6820099e-09
7.5759295e-12
1.6824104e-09
-7.1826314e-12
1.6820305e-09
6.8098162e-12
1.6823917e-09
-6.4641755e-12
1.6820486e-09
6.1368393e-12
1.6823751e-09
-5.8333448e-12
1.6820645e-09
5.5465179e-12
1.6823606e-09
-5.2805747e-12
1.6820785e-09
5.02979e-12
1.6823479e-09
-4.7975308e-12
1.6820906e-09
4.5790868e-12
1.6823367e-09
-4.3770165e-12
1.6821012e-09
4.1875957e-12
1.6823271e-09
-4.0128012e-12
1.6821103e-09
3.8496725e-12
1.6823188e-09
-3.6997576e-12
1.6821181e-09
3.5606009e-12
1.6823117e-09
-3.4333651e-12
1.6821247e-09
3.3160191e-12
1.6823057e-09
-3.2096503e-12
1.6821302e-09
3.1127279e-12
1.6823009e-09
-3.0258864e-12
1.6821347e-09
2.9476601e-12
1.682297e-09
-2.8789124e-12
1.6821382e-09
2.8185523e-12
1.6822938e-09
-2.7651027e-12
1.6821401e-09
2.7264709e-12
1.6822899e-09
-2.6839264e-12
1.682146e-09
2.6022954e-12
1.6823362e-09
-3.021388e-12
2.4548755e-12
1.7456636e-09
1.7859195e-08
1.8448391e-09
-7.4141015e-10
1.8139279e-09
4.1155972e-10
1.8147573e-09
-8.0823372e-12
1.814366e-09
3.1247478e-12
1.8151578e-09
1.0531879e-11
1.815794e-09
-1.4935877e-11
1.8153537e-09
1.4041561e-11
1.8160146e-09
-1.4616374e-11
1.8153975e-09
1.3850835e-11
1.8159827e-09
-1.3076604e-11
1.815421e-09
1.2418756e-11
1.8159476e-09
-1.1693941e-11
1.8154468e-09
1.1069303e-11
1.8159195e-09
-1.0452874e-11
1.8154715e-09
9.8866001e-12
1.8158959e-09
-9.3523161e-12
1.8154939e-09
8.8491877e-12
1.8158753e-09
-8.3811532e-12
1.8155139e-09
7.9373764e-12
1.8158572e-09
-7.5259659e-12
1.8155314e-09
7.1355643e-12
1.8158412e-09
-6.7739592e-12
1.8155469e-09
6.431136e-12
1.8158271e-09
-6.113561e-12
1.8155605e-09
5.8131354e-12
1.8158147e-09
-5.5347933e-12
1.8155725e-09
5.2720786e-12
1.8158039e-09
-5.0289509e-12
1.8155829e-09
4.8000892e-12
1.8157944e-09
-4.5885147e-12
1.8155919e-09
4.390026e-12
1.8157861e-09
-4.2069696e-12
1.8155998e-09
4.0360081e-12
1.815779e-09
-3.878984e-12
1.8156065e-09
3.7331265e-12
1.8157729e-09
-3.5998233e-12
1.8156122e-09
3.4767844e-12
1.8157678e-09
-3.3653142e-12
1.8156169e-09
3.2636905e-12
1.8157636e-09
-3.1726673e-12
1.8156207e-09
3.0905884e-12
1.8157603e-09
-3.0184881e-12
1.8156237e-09
2.9551006e-12
1.8157575e-09
-2.8988738e-12
1.8156253e-09
2.8586985e-12
1.8157538e-09
-2.8124799e-12
1.8156305e-09
2.7256421e-12
1.8157976e-09
-3.1884518e-12
2.5576443e-12
1.8592745e-09
1.845767e-08
1.9663466e-09
-8.4848232e-10
1.9421899e-09
4.3571646e-10
1.9431094e-09
-9.0018348e-12
1.9430013e-09
3.2328518e-12
1.94407e-09
9.4631784e-12
1.9445893e-09
-1.5455217e-11
1.9442828e-09
1.4348083e-11
1.9448336e-09
-1.5167209e-11
1.9443213e-09
1.4363216e-11
1.944807e-09
-1.3562363e-11
1.9443387e-09
1.2887035e-11
1.9447768e-09
-1.2132012e-11
1.9443594e-09
1.1486724e-11
1.9447533e-09
-1.0846771e-11
1.9443797e-09
1.0260145e-11
1.9447337e-09
-9.7062513e-12
1.9443983e-09
9.184536e-12
1.9447167e-09
-8.699489e-12
1.9444149e-09
8.2391616e-12
1.9447017e-09
-7.8127723e-12
1.9444295e-09
7.4077371e-12
1.9446885e-09
-7.0329225e-12
1.9444424e-09
6.6772038e-12
1.9446768e-09
-6.3479618e-12
1.9444537e-09
6.036203e-12
1.9446665e-09
-5.7475717e-12
1.9444637e-09
5.4749088e-12
1.9446575e-09
-5.2227546e-12
1.9444724e-09
4.9851969e-12
1.9446496e-09
-4.7657149e-12
1.94448e-09
4.5596481e-12
1.9446427e-09
-4.3697074e-12
1.9444865e-09
4.1921952e-12
1.9446368e-09
-4.0292459e-12
1.9444921e-09
3.8777799e-12
1.9446317e-09
-3.7394095e-12
1.9444969e-09
3.6115949e-12
1.9446275e-09
-3.4958606e-12
1.9445008e-09
3.3902949e-12
1.944624e-09
-3.2957694e-12
1.9445041e-09
3.2104491e-12
1.9446211e-09
-3.1355334e-12
1.9445067e-09
3.0695833e-12
1.9446188e-09
-3.0109976e-12
1.9445079e-09
2.9695966e-12
1.9446153e-09
-2.9199162e-12
1.9445123e-09
2.8286379e-12
1.9446559e-09
-3.3320006e-12
2.6393781e-12
1.9856029e-09
1.8929817e-08
2.0838546e-09
-9.4673406e-10
2.0657668e-09
4.5380431e-10
2.0668977e-09
-1.0132767e-11
2.0670896e-09
3.0410005e-12
2.0683929e-09
8.1598727e-12
2.0687885e-09
-1.5850865e-11
2.0686102e-09
1.4526438e-11
2.0690517e-09
-1.5608796e-11
2.0686418e-09
1.477318e-11
2.0690296e-09
-1.395022e-11
2.0686532e-09
1.3263482e-11
2.0690042e-09
-1.2483031e-11
2.0686688e-09
1.1822093e-11
2.0689851e-09
-1.1163063e-11
2.0686849e-09
1.0560394e-11
2.0689695e-09
-9.9908469e-12
2.0686997e-09
9.4543153e-12
2.068956e-09
-8.9557461e-12
2.0687129e-09
8.482178e-12
2.0689441e-09
-8.0438816e-12
2.0687247e-09
7.6271215e-12
2.0689335e-09
-7.2417951e-12
2.068735e-09
6.8757276e-12
2.0689242e-09
-6.537186e-12
2.0687441e-09
6.2163273e-12
2.068916e-09
-5.9194782e-12
2.0687521e-09
5.6388126e-12
2.0689088e-09
-5.3794391e-12
2.0687591e-09
5.1348809e-12
2.0689025e-09
-4.9090621e-12
2.0687652e-09
4.696885e-12
2.0688969e-09
-4.5014176e-12
2.0687705e-09
4.3186181e-12
2.0688922e-09
-4.1509054e-12
2.0687751e-09
3.9949083e-12
2.0688881e-09
-3.8524556e-12
2.0687789e-09
3.72077e-12
2.0688847e-09
-3.601593e-12
2.0687821e-09
3.492838e-12
2.0688818e-09
-3.3954843e-12
2.0687848e-09
3.3075219e-12
2.0688795e-09
-3.2303216e-12
2.0687869e-09
3.1622727e-12
2.0688776e-09
-3.1017443e-12
2.0687878e-09
3.0594249e-12
2.0688744e-09
-3.0065381e-12
2.0687914e-09
2.9115884e-12
2.0689113e-09
-3.4518382e-12
2.7008115e-12
2.0946705e-09
1.9292897e-08
2.19522e-09
-1.0472835e-09
2.1847501e-09
4.6427422e-10
2.1861408e-09
-1.1523475e-11
2.1866233e-09
2.5584234e-12
2.1881255e-09
6.6577234e-12
2.1883903e-09
-1.6115708e-11
2.1883351e-09
1.4581662e-11
2.1886688e-09
-1.5942535e-11
2.1883589e-09
1.5083163e-11
2.1886507e-09
-1.4242082e-11
2.1883642e-09
1.3549968e-11
2.1886299e-09
-1.274871e-11
2.188375e-09
1.2077025e-11
2.1886152e-09
-1.1403248e-11
2.1883868e-09
1.0788758e-11
2.1886034e-09
-1.0207416e-11
2.1883979e-09
9.6597617e-12
2.1885933e-09
-9.1510768e-12
2.1884079e-09
8.6675113e-12
2.1885844e-09
-8.2203044e-12
2.1884168e-09
7.7946644e-12
2.1885765e-09
-7.4014638e-12
2.1884247e-09
7.0275466e-12
2.1885695e-09
-6.6820188e-12
2.1884316e-09
6.3542456e-12
2.1885633e-09
-6.0512035e-12
2.1884377e-09
5.7644491e-12
2.1885579e-09
-5.4996267e-12
2.188443e-09
5.2497316e-12
2.1885531e-09
-5.0191123e-12
2.1884477e-09
4.8022656e-12
2.1885489e-09
-4.6025986e-12
2.1884517e-09
4.4157531e-12
2.1885452e-09
-4.2444195e-12
2.1884552e-09
4.0849498e-12
2.1885421e-09
-3.9393805e-12
2.1884582e-09
3.8047139e-12
2.1885395e-09
-3.6829048e-12
2.1884606e-09
3.5716982e-12
2.1885373e-09
-3.4721742e-12
2.1884627e-09
3.3821657e-12
2.1885356e-09
-3.3032029e-12
2.1884643e-09
3.2335112e-12
2.188534e-09
-3.171456e-12
2.1884649e-09
3.1285095e-12
2.1885311e-09
-3.0727128e-12
2.1884678e-09
2.9748594e-12
2.1885639e-09
-3.5479151e-12
2.7427519e-12
2.2130118e-09
1.9537635e-08
2.3033122e-09
-1.1375839e-09
2.2992394e-09
4.68347e-10
2.3008828e-09
-1.3166863e-11
2.3015889e-09
1.8522967e-12
2.3032698e-09
4.9769011e-12
2.3033956e-09
-1.6241558e-11
2.3034579e-09
1.451939e-11
2.3036852e-09
-1.6169869e-11
2.3034724e-09
1.5295948e-11
2.3036704e-09
-1.444009e-11
2.3034718e-09
1.374863e-11
2.3036541e-09
-1.2930999e-11
2.3034777e-09
1.2253369e-11
2.3036435e-09
-1.1569044e-11
2.3034854e-09
1.0946855e-11
2.3036355e-09
-1.0357465e-11
2.3034929e-09
9.8022938e-12
2.3036287e-09
-9.2868046e-12
2.3034998e-09
8.7964075e-12
2.3036227e-09
-8.3432083e-12
2.3035059e-09
7.9114725e-12
2.3036174e-09
-7.5129634e-12
2.3035113e-09
7.1336349e-12
2.3036126e-09
-6.7833753e-12
2.3035161e-09
6.4508278e-12
2.3036084e-09
-6.1435677e-12
2.3035203e-09
5.8525899e-12
2.3036047e-09
-5.5840437e-12
2.303524e-09
5.330439e-12
2.3036014e-09
-5.0965208e-12
2.3035272e-09
4.8764146e-12
2.3035985e-09
-4.6738476e-12
2.3035301e-09
4.4841713e-12
2.303596e-09
-4.3103298e-12
2.3035325e-09
4.1484247e-12
2.3035938e-09
-4.0006839e-12
2.3035346e-09
3.8639084e-12
2.303592e-09
-3.7402562e-12
2.3035363e-09
3.6273246e-12
2.3035905e-09
-3.5262793e-12
2.3035378e-09
3.4348044e-12
2.3035892e-09
-3.3545917e-12
2.303539e-09
3.2837098e-12
2.3035881e-09
-3.2205369e-12
2.3035393e-09
3.1772441e-12
2.3035855e-09
-3.1188707e-12
2.3035415e-09
3.0188654e-12
2.3036139e-09
-3.6203195e-12
2.7660645e-12
2.3183558e-09
1.9677029e-08
2.4057129e-09
-1.224941e-09
2.4092647e-09
4.6479516e-10
2.4111781e-09
-1.50803e-11
2.4119825e-09
1.0479153e-12
2.4138268e-09
3.1326628e-12
2.413804e-09
-1.6218827e-11
2.4139781e-09
1.4345312e-11
2.4141008e-09
-1.6292574e-11
2.4139823e-09
1.5414484e-11
2.4140888e-09
-1.4546661e-11
2.4139757e-09
1.3861814e-11
2.4140767e-09
-1.3032068e-11
2.4139769e-09
1.2353175e-11
2.4140702e-09
-1.1662365e-11
2.4139806e-09
1.1036486e-11
2.4140658e-09
-1.0442682e-11
2.4139846e-09
9.8835023e-12
2.4140622e-09
-9.36442e-12
2.4139884e-09
8.8702731e-12
2.4140591e-09
-8.4139095e-12
2.4139918e-09
7.9787821e-12
2.4140563e-09
-7.5774572e-12
2.4139948e-09
7.1950947e-12
2.4140537e-09
-6.8422923e-12
2.4139975e-09
6.5070504e-12
2.4140514e-09
-6.1974905e-12
2.4139999e-09
5.9041132e-12
2.4140494e-09
-5.6335229e-12
2.414002e-09
5.3777946e-12
2.4140475e-09
-5.1420365e-12
2.4140039e-09
4.920046e-12
2.4140459e-09
-4.7158412e-12
2.4140055e-09
4.5245199e-12
2.4140445e-09
-4.3492588e-12
2.414007e-09
4.1859303e-12
2.4140432e-09
-4.0369388e-12
2.4140082e-09
3.8989069e-12
2.4140422e-09
-3.7741862e-12
2.4140092e-09
3.6602365e-12
2.4140413e-09
-3.5582986e-12
2.4140101e-09
3.4659308e-12
2.4140405e-09
-3.3849686e-12
2.4140109e-09
3.3133381e-12
2.4140398e-09
-3.2494531e-12
2.414011e-09
3.2060783e-12
2.4140376e-09
-3.1454951e-12
2.4140124e-09
3.0440749e-12
2.4140613e-09
-3.6692628e-12
2.7716515e-12
2.4296874e-09
1.9705092e-08
2.5053023e-09
-1.300556e-09
2.5148858e-09
4.5521174e-10
2.5170769e-09
-1.7271408e-11
2.5178017e-09
3.2305177e-13
2.5197992e-09
1.1352363e-12
2.5196165e-09
-1.6036173e-11
2.5198959e-09
1.4065957e-11
2.5199157e-09
-1.6312456e-11
2.5198883e-09
1.5441949e-11
2.519906e-09
-1.4564431e-11
2.5198758e-09
1.3892068e-11
2.519898e-09
-1.3054291e-11
2.5198725e-09
1.2378677e-11
2.5198954e-09
-1.1685305e-11
2.5198723e-09
1.1059625e-11
2.5198945e-09
-1.0464912e-11
2.5198729e-09
9.9051255e-12
2.5198941e-09
-9.3855515e-12
2.5198737e-09
8.8906431e-12
2.5198936e-09
-8.4338523e-12
2.5198744e-09
7.9979634e-12
2.5198932e-09
-7.5962314e-12
2.5198752e-09
7.2131392e-12
2.5198928e-09
-6.8599136e-12
2.5198758e-09
6.5240018e-12
2.5198924e-09
-6.2140019e-12
2.5198765e-09
5.9199902e-12
2.5198919e-09
-5.6489817e-12
2.5198771e-09
5.3926718e-12
2.5198915e-09
-5.1564915e-12
2.5198776e-09
4.9339539e-12
2.5198911e-09
-4.7293402e-12
2.5198781e-09
4.5375275e-12
2.5198907e-09
-4.3618999e-12
2.5198785e-09
4.1981336e-12
2.5198904e-09
-4.0487869e-12
2.519879e-09
3.9103285e-12
2.5198901e-09
-3.785288e-12
2.5198793e-09
3.6710126e-12
2.5198898e-09
-3.5687991e-12
2.5198796e-09
3.4760916e-12
2.5198895e-09
-3.3948684e-12
2.5198799e-09
3.322925e-12
2.5198892e-09
-3.2587231e-12
2.5198798e-09
3.2155201e-12
2.5198874e-09
-3.1531225e-12
2.5198805e-09
3.0509976e-12
2.5199063e-09
-3.6950731e-12
2.7604427e-12
2.5315901e-09
1.9631252e-08
2.5996173e-09
-1.3685832e-09
2.6160271e-09
4.3880195e-10
2.6185043e-09
-1.9748595e-11
2.6190542e-09
-2.2686825e-13
2.6211845e-09
-9.9507452e-13
2.6208323e-09
-1.5684001e-11
2.6212102e-09
1.3688138e-11
2.6211295e-09
-1.6231843e-11
2.62119e-09
1.5381482e-11
2.621122e-09
-1.4496378e-11
2.621172e-09
1.3842038e-11
2.6211179e-09
-1.3000252e-11
2.6211644e-09
1.2332255e-11
2.6211192e-09
-1.1640121e-11
2.6211604e-09
1.1018386e-11
2.6211217e-09
-1.0426147e-11
2.6211577e-09
9.8690414e-12
2.6211242e-09
-9.351966e-12
2.6211556e-09
8.8591859e-12
2.6211264e-09
-8.4046034e-12
2.6211538e-09
7.97049e-12
2.6211283e-09
-7.5706772e-12
2.6211523e-09
7.1890879e-12
2.6211299e-09
-6.8374845e-12
2.6211511e-09
6.5028566e-12
2.6211313e-09
-6.1942113e-12
2.62115e-09
5.9012814e-12
2.6211324e-09
-5.6314285e-12
2.6211491e-09
5.3760299e-12
2.6211334e-09
-5.1407962e-12
2.6211483e-09
4.9190077e-12
2.6211341e-09
-4.7151704e-12
2.6211477e-09
4.5239853e-12
2.6211348e-09
-4.3490151e-12
2.6211472e-09
4.1857666e-12
2.6211353e-09
-4.0369318e-12
2.6211468e-09
3.8988532e-12
2.6211357e-09
-3.7742238e-12
2.6211464e-09
3.6602914e-12
2.621136e-09
-3.5583956e-12
2.6211462e-09
3.4658934e-12
2.6211363e-09
-3.3848828e-12
2.6211461e-09
3.3130485e-12
2.6211363e-09
-3.2489181e-12
2.6211457e-09
3.2061245e-12
2.6211349e-09
-3.1423326e-12
2.6211457e-09
3.0401909e-12
2.6211488e-09
-3.6981808e-12
2.7333785e-12
2.6360046e-09
1.9452997e-08
2.6916114e-09
-1.4241901e-09
2.7127951e-09
4.1761834e-10
2.7153418e-09
-2.2295293e-11
2.7157355e-09
-6.2061051e-13
2.7179761e-09
-3.235649e-12
2.7174507e-09
-1.5158616e-11
2.7179202e-09
1.3218579e-11
2.7177419e-09
-1.6053493e-11
2.7178872e-09
1.5236221e-11
2.7177365e-09
-1.434576e-11
2.7178641e-09
1.3714479e-11
2.7177366e-09
-1.2872729e-11
2.7178524e-09
1.2216419e-11
2.7177415e-09
-1.1529229e-11
2.7178449e-09
1.0915016e-11
2.7177473e-09
-1.0328513e-11
2.7178391e-09
9.7772451e-12
2.7177526e-09
-9.2655415e-12
2.7178341e-09
8.7776717e-12
2.7177574e-09
-8.3278338e-12
2.7178299e-09
7.8979478e-12
2.7177615e-09
-7.5022878e-12
2.7178263e-09
7.1243506e-12
2.7177651e-09
-6.7763377e-12
2.7178231e-09
6.4448844e-12
2.7177682e-09
-6.139323e-12
2.7178204e-09
5.8491241e-12
2.7177709e-09
-5.5819405e-12
2.717818e-09
5.3288957e-12
2.7177731e-09
-5.0959305e-12
2.717816e-09
4.8761433e-12
2.7177751e-09
-4.6742304e-12
2.7178143e-09
4.4847542e-12
2.7177767e-09
-4.3114256e-12
2.7178129e-09
4.1496196e-12
2.7177781e-09
-4.0021349e-12
2.7178117e-09
3.8652161e-12
2.7177792e-09
-3.7416992e-12
2.7178107e-09
3.6287611e-12
2.7177801e-09
-3.5277625e-12
2.71781e-09
3.4359866e-12
2.7177807e-09
-3.3556482e-12
2.7178094e-09
3.2843368e-12
2.7177812e-09
-3.2206533e-12
2.7178088e-09
3.1784967e-12
2.7177802e-09
-3.1137496e-12
2.7178082e-09
3.0122463e-12
2.7177891e-09
-3.679114e-12
2.6914052e-12
2.7340632e-09
1.9176684e-08
2.7787673e-09
-1.4688941e-09
2.8050674e-09
3.9131826e-10
2.8075501e-09
-2.4778067e-11
2.8078614e-09
-9.3186463e-13
2.8101697e-09
-5.5439918e-12
2.8094717e-09
-1.4460539e-11
2.8100263e-09
1.2663975e-11
2.8097529e-09
-1.578014e-11
2.8099796e-09
1.5009482e-11
2.8097499e-09
-1.4115973e-11
2.809952e-09
1.3512293e-11
2.809754e-09
-1.2674636e-11
2.8099366e-09
1.2033814e-11
2.8097625e-09
-1.1355168e-11
2.8099256e-09
1.0751882e-11
2.8097714e-09
-1.0174249e-11
2.8099168e-09
9.631846e-12
2.8097795e-09
-9.12827e-12
2.8099092e-09
8.6479816e-12
2.8097867e-09
-8.2053152e-12
2.8099026e-09
7.7820045e-12
2.809793e-09
-7.3926415e-12
2.8098969e-09
7.0204255e-12
2.8097984e-09
-6.6778904e-12
2.8098919e-09
6.3514233e-12
2.8098032e-09
-6.0506042e-12
2.8098876e-09
5.7647302e-12
2.8098073e-09
-5.5016722e-12
2.8098838e-09
5.2523685e-12
2.8098109e-09
-5.0229398e-12
2.8098806e-09
4.80636e-12
2.8098139e-09
-4.6074711e-12
2.8098779e-09
4.4207459e-12
2.8098165e-09
-4.2500102e-12
2.8098756e-09
4.0905375e-12
2.8098186e-09
-3.9452096e-12
2.8098736e-09