/*--------------------------------*- C++ -*----------------------------------*\
| =========                 |                                                 |
| \\      /  F ield         | OpenFOAM: The Open Source CFD Toolbox           |
|  \\    /   O peration     | Version:  2312                                  |
|   \\  /    A nd           | Website:  www.openfoam.com                      |
|    \\/     M anipulation  |                                                 |
\*---------------------------------------------------------------------------*/
FoamFile
{
    version     2.0;
    format      ascii;
    arch        "LSB;label=32;scalar=64";
    class       volSymmTensorField;
    location    "2";
    object      sigma_0;
}
// * * * * * * * * * * * * * * * * * * * * * * * * * * * * * * * * * * * * * //

dimensions      [0 2 -2 0 0 0 0];

internalField   nonuniform List<symmTensor> 
4000
(
(-1.4165055 -0.61925549 0 -0.23037265 0 0)
(-2.8602526 -0.30958005 0 -0.00083717518 0 0)
(-1.970516 -0.25668027 0 -0.00027265325 0 0)
(-2.1418581 -0.26732177 0 -3.2494938e-05 0 0)
(-2.0088033 -0.25856614 0 4.4650535e-05 0 0)
(-2.1031968 -0.26499651 0 -5.4366855e-05 0 0)
(-2.0149084 -0.25895312 0 5.0240757e-05 0 0)
(-2.0952808 -0.26447575 0 -4.8284666e-05 0 0)
(-2.0201607 -0.25931199 0 4.5583468e-05 0 0)
(-2.0905476 -0.26415568 0 -4.3144434e-05 0 0)
(-2.0242676 -0.25959594 0 4.0653206e-05 0 0)
(-2.0865757 -0.26388509 0 -3.842531e-05 0 0)
(-2.027866 -0.25984496 0 3.623599e-05 0 0)
(-2.0831006 -0.2636479 0 -3.4249794e-05 0 0)
(-2.0310716 -0.26006657 0 3.2332849e-05 0 0)
(-2.0800289 -0.26343809 0 -3.0576674e-05 0 0)
(-2.0339267 -0.26026371 0 2.8894623e-05 0 0)
(-2.0773031 -0.26325188 0 -2.7346677e-05 0 0)
(-2.0364703 -0.2604391 0 2.5869406e-05 0 0)
(-2.0748783 -0.26308626 0 -2.4507082e-05 0 0)
(-2.0387391 -0.26059533 0 2.3209818e-05 0 0)
(-2.0727164 -0.26293865 0 -2.2012274e-05 0 0)
(-2.0407667 -0.26073475 0 2.0874002e-05 0 0)
(-2.0707842 -0.26280679 0 -1.9822815e-05 0 0)
(-2.0425831 -0.26085944 0 1.8825418e-05 0 0)
(-2.0690525 -0.26268872 0 -1.7904494e-05 0 0)
(-2.0442149 -0.26097126 0 1.7032376e-05 0 0)
(-2.0674954 -0.26258268 0 -1.6227712e-05 0 0)
(-2.0456859 -0.26107185 0 1.5467435e-05 0 0)
(-2.0660903 -0.26248713 0 -1.4766983e-05 0 0)
(-2.0470169 -0.26116267 0 1.4106973e-05 0 0)
(-2.0648167 -0.26240068 0 -1.3500328e-05 0 0)
(-2.0482269 -0.26124502 0 1.2930687e-05 0 0)
(-2.0636567 -0.26232211 0 -1.2408972e-05 0 0)
(-2.0493328 -0.26132006 0 1.1921303e-05 0 0)
(-2.062594 -0.26225033 0 -1.1477001e-05 0 0)
(-2.0503495 -0.26138881 0 1.1064211e-05 0 0)
(-2.0616141 -0.26218435 0 -1.069098e-05 0 0)
(-2.0512909 -0.26145223 0 1.0347165e-05 0 0)
(-2.0607037 -0.26212328 0 -1.0039888e-05 0 0)
(-2.0521695 -0.26151114 0 9.760377e-06 0 0)
(-2.0598508 -0.26206631 0 -9.5149513e-06 0 0)
(-2.0529966 -0.26156634 0 9.2960852e-06 0 0)
(-2.0590442 -0.2620127 0 -9.1099576e-06 0 0)
(-2.0537826 -0.2616185 0 8.9488843e-06 0 0)
(-2.0582719 -0.26196166 0 -8.821451e-06 0 0)
(-2.0545364 -0.26166816 0 8.7282083e-06 0 0)
(-2.0575427 -0.26191353 0 -8.6022951e-06 0 0)
(-2.0553912 -0.26172305 0 8.823789e-06 0 0)
(-2.0573557 -0.26190105 0 -8.6085122e-06 0 0)
(-1.2570592 -0.56945715 0 -0.21646971 0 0)
(-2.5235456 -0.29423929 0 -0.0029274 0 0)
(-1.8900107 -0.25262816 0 -0.00084263096 0 0)
(-1.9776822 -0.25689175 0 -3.2705242e-05 0 0)
(-1.8669398 -0.24916686 0 2.9650573e-05 0 0)
(-1.9458152 -0.25498889 0 -6.0213141e-05 0 0)
(-1.8699254 -0.2493576 0 5.3496658e-05 0 0)
(-1.9390208 -0.25451576 0 -5.2662957e-05 0 0)
(-1.8743245 -0.24968276 0 4.99708e-05 0 0)
(-1.9350052 -0.25422312 0 -4.7437855e-05 0 0)
(-1.8778476 -0.24994766 0 4.4668597e-05 0 0)
(-1.9315907 -0.25397068 0 -4.228348e-05 0 0)
(-1.8809362 -0.25018033 0 3.9849169e-05 0 0)
(-1.9285949 -0.25374865 0 -3.7687026e-05 0 0)
(-1.8836899 -0.25038753 0 3.5572364e-05 0 0)
(-1.9259459 -0.25355218 0 -3.3648269e-05 0 0)
(-1.8861443 -0.25057196 0 3.1799122e-05 0 0)
(-1.9235944 -0.25337776 0 -3.0099361e-05 0 0)
(-1.8883325 -0.25073614 0 2.8477089e-05 0 0)
(-1.9215016 -0.25322254 0 -2.6979991e-05 0 0)
(-1.8902858 -0.25088247 0 2.5555674e-05 0 0)
(-1.9196346 -0.25308412 0 -2.42392e-05 0 0)
(-1.8920328 -0.25101313 0 2.2989395e-05 0 0)
(-1.9179649 -0.25296041 0 -2.18336e-05 0 0)
(-1.893599 -0.25113007 0 2.0738297e-05 0 0)
(-1.9164674 -0.25284955 0 -1.9725624e-05 0 0)
(-1.8950073 -0.25123501 0 1.8767742e-05 0 0)
(-1.91512 -0.25274993 0 -1.7882813e-05 0 0)
(-1.8962778 -0.25132949 0 1.7047705e-05 0 0)
(-1.9139031 -0.25266008 0 -1.6277375e-05 0 0)
(-1.8974286 -0.25141485 0 1.5552364e-05 0 0)
(-1.9127993 -0.25257875 0 -1.4885225e-05 0 0)
(-1.8984757 -0.2514923 0 1.4259519e-05 0 0)
(-1.9117931 -0.25250477 0 -1.3685896e-05 0 0)
(-1.8994337 -0.25156293 0 1.3150421e-05 0 0)
(-1.9108705 -0.25243713 0 -1.2662177e-05 0 0)
(-1.9003154 -0.25162771 0 1.2209239e-05 0 0)
(-1.9100189 -0.25237492 0 -1.1799456e-05 0 0)
(-1.9011328 -0.25168749 0 1.1422709e-05 0 0)
(-1.9092269 -0.25231728 0 -1.1086116e-05 0 0)
(-1.9018965 -0.25174309 0 1.0780834e-05 0 0)
(-1.9084842 -0.25226348 0 -1.0513166e-05 0 0)
(-1.9026165 -0.25179521 0 1.0275784e-05 0 0)
(-1.9077809 -0.25221282 0 -1.0075478e-05 0 0)
(-1.9033019 -0.25184453 0 9.9027611e-06 0 0)
(-1.9071065 -0.25216456 0 -9.7741721e-06 0 0)
(-1.9039588 -0.25189136 0 9.6870708e-06 0 0)
(-1.9064574 -0.252118 0 -9.5000197e-06 0 0)
(-1.9046672 -0.25193897 0 1.0176216e-05 0 0)
(-1.9061874 -0.25209849 0 -9.3903682e-06 0 0)
(-1.1805939 -0.54023883 0 -0.20362412 0 0)
(-2.2888754 -0.27928285 0 -0.003413056 0 0)
(-1.8081106 -0.24813216 0 -0.0012633343 0 0)
(-1.8754145 -0.25024832 0 -5.6206705e-05 0 0)
(-1.7743504 -0.24283256 0 1.3233701e-05 0 0)
(-1.8443185 -0.24830922 0 -5.960468e-05 0 0)
(-1.7758215 -0.24293356 0 5.0760472e-05 0 0)
(-1.8379659 -0.24785381 0 -5.0813393e-05 0 0)
(-1.7796952 -0.24323928 0 4.8462116e-05 0 0)
(-1.834363 -0.2475779 0 -4.6061776e-05 0 0)
(-1.7828649 -0.24349236 0 4.3344913e-05 0 0)
(-1.8312959 -0.24733764 0 -4.1082973e-05 0 0)
(-1.7856431 -0.24371447 0 3.8688116e-05 0 0)
(-1.8286007 -0.24712585 0 -3.6612802e-05 0 0)
(-1.78812 -0.24391229 0 3.4546997e-05 0 0)
(-1.8262167 -0.24693839 0 -3.2689344e-05 0 0)
(-1.7903289 -0.24408841 0 3.0888906e-05 0 0)
(-1.8241001 -0.24677191 0 -2.9244113e-05 0 0)
(-1.7922991 -0.24424526 0 2.7666457e-05 0 0)
(-1.8222159 -0.24662372 0 -2.621644e-05 0 0)
(-1.7940586 -0.24438512 0 2.4831812e-05 0 0)
(-1.8205344 -0.2464915 0 -2.3556108e-05 0 0)
(-1.795633 -0.24451006 0 2.2341282e-05 0 0)
(-1.8190301 -0.24637327 0 -2.1220905e-05 0 0)
(-1.7970453 -0.24462194 0 2.0156242e-05 0 0)
(-1.8176804 -0.24626728 0 -1.9174369e-05 0 0)
(-1.7983157 -0.24472239 0 1.8243232e-05 0 0)
(-1.8164656 -0.24617197 0 -1.738501e-05 0 0)
(-1.7994624 -0.24481287 0 1.6573205e-05 0 0)
(-1.8153679 -0.24608597 0 -1.5826012e-05 0 0)
(-1.8005015 -0.24489466 0 1.5121195e-05 0 0)
(-1.8143718 -0.24600807 0 -1.4474024e-05 0 0)
(-1.8014475 -0.24496893 0 1.3865745e-05 0 0)
(-1.8134633 -0.24593718 0 -1.3309317e-05 0 0)
(-1.8023133 -0.24503669 0 1.2788852e-05 0 0)
(-1.8126299 -0.24587231 0 -1.2315394e-05 0 0)
(-1.8031106 -0.24509887 0 1.1875325e-05 0 0)
(-1.8118603 -0.2458126 0 -1.1478194e-05 0 0)
(-1.8038501 -0.24515631 0 1.1112489e-05 0 0)
(-1.8111442 -0.24575725 0 -1.0786923e-05 0 0)
(-1.8045413 -0.24520975 0 1.0491329e-05 0 0)
(-1.8104721 -0.24570554 0 -1.023344e-05 0 0)
(-1.8051934 -0.2452599 0 1.0004972e-05 0 0)
(-1.8098354 -0.24565681 0 -9.8143555e-06 0 0)
(-1.8058146 -0.24530737 0 9.6501104e-06 0 0)
(-1.8092243 -0.24561037 0 -9.5361893e-06 0 0)
(-1.8064101 -0.24535247 0 9.4601998e-06 0 0)
(-1.8086324 -0.24556517 0 -9.266482e-06 0 0)
(-1.8070421 -0.24539657 0 1.020405e-05 0 0)
(-1.8083356 -0.24554422 0 -9.6504606e-06 0 0)
(-1.1261698 -0.51044435 0 -0.18660039 0 0)
(-2.1026826 -0.26799097 0 -0.0040418508 0 0)
(-1.7242951 -0.24352776 0 -0.0017258102 0 0)
(-1.7764328 -0.24363923 0 -8.2846455e-05 0 0)
(-1.6837512 -0.23651475 0 -1.224771e-05 0 0)
(-1.7461894 -0.24163933 0 -5.3875038e-05 0 0)
(-1.6837946 -0.23651194 0 4.3121423e-05 0 0)
(-1.7400958 -0.24119553 0 -4.4262306e-05 0 0)
(-1.6871639 -0.23679617 0 4.2630112e-05 0 0)
(-1.7368157 -0.24093539 0 -4.0562264e-05 0 0)
(-1.6900288 -0.23703734 0 3.8150702e-05 0 0)
(-1.734035 -0.24070702 0 -3.6221691e-05 0 0)
(-1.6925448 -0.23724889 0 3.4077792e-05 0 0)
(-1.7315878 -0.24050522 0 -3.2276754e-05 0 0)
(-1.6947882 -0.23743732 0 3.0445629e-05 0 0)
(-1.7294224 -0.24032651 0 -2.8819247e-05 0 0)
(-1.6967895 -0.23760515 0 2.7230915e-05 0 0)
(-1.7274996 -0.24016775 0 -2.5786133e-05 0 0)
(-1.6985755 -0.23775468 0 2.4396514e-05 0 0)
(-1.7257875 -0.24002637 0 -2.312125e-05 0 0)
(-1.7001711 -0.23788808 0 2.1902047e-05 0 0)
(-1.7242593 -0.23990017 0 -2.0779414e-05 0 0)
(-1.7015996 -0.23800731 0 1.9709709e-05 0 0)
(-1.7228917 -0.23978727 0 -1.8723391e-05 0 0)
(-1.7028814 -0.23811413 0 1.7785714e-05 0 0)
(-1.7216645 -0.239686 0 -1.6921097e-05 0 0)
(-1.704035 -0.23821009 0 1.6100802e-05 0 0)
(-1.7205595 -0.23959489 0 -1.5344842e-05 0 0)
(-1.7050766 -0.23829658 0 1.4629538e-05 0 0)
(-1.7195609 -0.23951263 0 -1.3971233e-05 0 0)
(-1.7060209 -0.23837481 0 1.3350043e-05 0 0)
(-1.7186545 -0.23943807 0 -1.2779737e-05 0 0)
(-1.7068808 -0.23844589 0 1.2243522e-05 0 0)
(-1.7178277 -0.23937017 0 -1.1753135e-05 0 0)
(-1.7076681 -0.23851079 0 1.1294343e-05 0 0)
(-1.717069 -0.239308 0 -1.0877141e-05 0 0)
(-1.7083932 -0.23857039 0 1.0489287e-05 0 0)
(-1.7163684 -0.23925074 0 -1.0139439e-05 0 0)
(-1.7090659 -0.23862548 0 9.8173237e-06 0 0)
(-1.7157163 -0.23919761 0 -9.5309829e-06 0 0)
(-1.7096949 -0.23867679 0 9.2711782e-06 0 0)
(-1.7151044 -0.23914794 0 -9.0450229e-06 0 0)
(-1.7102884 -0.23872497 0 8.8452391e-06 0 0)
(-1.7145245 -0.23910108 0 -8.6799295e-06 0 0)
(-1.7108539 -0.23877064 0 8.537148e-06 0 0)
(-1.713968 -0.2390564 0 -8.4463301e-06 0 0)
(-1.711396 -0.23881404 0 8.385964e-06 0 0)
(-1.7134258 -0.23901253 0 -8.1756829e-06 0 0)
(-1.7119606 -0.23885484 0 9.3908166e-06 0 0)
(-1.7131038 -0.23898975 0 -8.9372298e-06 0 0)
(-1.0885721 -0.4880604 0 -0.17380875 0 0)
(-1.9194308 -0.25648693 0 -0.004521696 0 0)
(-1.6333747 -0.2381584 0 -0.0021100954 0 0)
(-1.6795936 -0.23704724 0 -0.00012369522 0 0)
(-1.5948107 -0.23017326 0 -3.9181658e-05 0 0)
(-1.6510531 -0.23498253 0 -4.8608091e-05 0 0)
(-1.5939517 -0.23008162 0 3.5711561e-05 0 0)
(-1.6451721 -0.23454577 0 -3.7731268e-05 0 0)
(-1.5968611 -0.23034523 0 3.6881348e-05 0 0)
(-1.6421535 -0.23429948 0 -3.5070619e-05 0 0)
(-1.5994554 -0.23057531 0 3.2986752e-05 0 0)
(-1.63962 -0.23408217 0 -3.1373411e-05 0 0)
(-1.6017443 -0.23077713 0 2.9485645e-05 0 0)
(-1.6373891 -0.2338897 0 -2.7953379e-05 0 0)
(-1.6037856 -0.23095687 0 2.635821e-05 0 0)
(-1.6354143 -0.23371917 0 -2.4959979e-05 0 0)
(-1.6056074 -0.23111702 0 2.3584044e-05 0 0)
(-1.6336603 -0.23356761 0 -2.2337005e-05 0 0)
(-1.6072337 -0.23125978 0 2.1135386e-05 0 0)
(-1.6320983 -0.23343259 0 -2.0033103e-05 0 0)
(-1.6086874 -0.23138719 0 1.8979174e-05 0 0)
(-1.6307037 -0.23331201 0 -1.8008199e-05 0 0)
(-1.6099893 -0.23150113 0 1.7083413e-05 0 0)
(-1.6294554 -0.23320409 0 -1.6230008e-05 0 0)
(-1.6111581 -0.23160326 0 1.5419098e-05 0 0)
(-1.628335 -0.23310724 0 -1.4670804e-05 0 0)
(-1.6122102 -0.23169506 0 1.3961135e-05 0 0)
(-1.627326 -0.23302005 0 -1.3306662e-05 0 0)
(-1.6131606 -0.23177783 0 1.2687643e-05 0 0)
(-1.626414 -0.23294131 0 -1.2117571e-05 0 0)
(-1.6140223 -0.23185275 0 1.1579786e-05 0 0)
(-1.6255861 -0.23286989 0 -1.108577e-05 0 0)
(-1.6148073 -0.23192085 0 1.0621386e-05 0 0)
(-1.6248307 -0.23280481 0 -1.0196513e-05 0 0)
(-1.615526 -0.23198307 0 9.7991268e-06 0 0)
(-1.6241376 -0.23274519 0 -9.4376474e-06 0 0)
(-1.6161882 -0.23204024 0 9.1016731e-06 0 0)
(-1.6234975 -0.23269024 0 -8.798512e-06 0 0)
(-1.6168025 -0.23209312 0 8.519545e-06 0 0)
(-1.6229018 -0.23263923 0 -8.2716887e-06 0 0)
(-1.6173769 -0.2321424 0 8.0470007e-06 0 0)
(-1.6223428 -0.23259151 0 -7.8515342e-06 0 0)
(-1.6179188 -0.23218871 0 7.6793295e-06 0 0)
(-1.6218132 -0.23254645 0 -7.5375704e-06 0 0)
(-1.6184352 -0.23223264 0 7.41438e-06 0 0)
(-1.6213051 -0.23250348 0 -7.3431183e-06 0 0)
(-1.61893 -0.23227444 0 7.2919731e-06 0 0)
(-1.6208083 -0.23246098 0 -7.0674988e-06 0 0)
(-1.6194371 -0.2323125 0 8.482103e-06 0 0)
(-1.620473 -0.23243684 0 -8.1316999e-06 0 0)
(-1.0434485 -0.45872143 0 -0.15667844 0 0)
(-1.7478113 -0.24512999 0 -0.0047622891 0 0)
(-1.5410896 -0.23230835 0 -0.0023983883 0 0)
(-1.5843507 -0.23043297 0 -0.00018077829 0 0)
(-1.5076257 -0.22381275 0 -6.7939131e-05 0 0)
(-1.5586835 -0.22833315 0 -4.525805e-05 0 0)
(-1.5064002 -0.22364625 0 2.9352899e-05 0 0)
(-1.553075 -0.22790221 0 -3.2196376e-05 0 0)
(-1.5089043 -0.22388968 0 3.2094069e-05 0 0)
(-1.5502806 -0.22766826 0 -3.0431475e-05 0 0)
(-1.5112505 -0.22410905 0 2.8648379e-05 0 0)
(-1.5479663 -0.22746138 0 -2.7290123e-05 0 0)
(-1.5133352 -0.22430163 0 2.5620983e-05 0 0)
(-1.5459293 -0.22727778 0 -2.4313368e-05 0 0)
(-1.5151955 -0.22447313 0 2.2917732e-05 0 0)
(-1.5441254 -0.22711499 0 -2.1710434e-05 0 0)
(-1.5168564 -0.224626 0 2.0514163e-05 0 0)
(-1.5425229 -0.22697027 0 -1.9432482e-05 0 0)
(-1.5183398 -0.22476232 0 1.8389924e-05 0 0)
(-1.5410954 -0.22684128 0 -1.7432286e-05 0 0)
(-1.5196663 -0.22488404 0 1.6518157e-05 0 0)
(-1.5398206 -0.22672604 0 -1.5674036e-05 0 0)
(-1.5208547 -0.22499295 0 1.4871807e-05 0 0)
(-1.5386794 -0.22662285 0 -1.4129615e-05 0 0)
(-1.521922 -0.22509061 0 1.3425885e-05 0 0)
(-1.5376548 -0.2265302 0 -1.2774952e-05 0 0)
(-1.5228832 -0.22517844 0 1.2158781e-05 0 0)
(-1.5367319 -0.22644676 0 -1.1589276e-05 0 0)
(-1.5237517 -0.22525767 0 1.1051616e-05 0 0)
(-1.5358976 -0.22637135 0 -1.0555418e-05 0 0)
(-1.5245394 -0.22532942 0 1.0088084e-05 0 0)
(-1.5351401 -0.22630293 0 -9.6579354e-06 0 0)
(-1.5252571 -0.22539468 0 9.2542003e-06 0 0)
(-1.5344489 -0.22624055 0 -8.8841519e-06 0 0)
(-1.5259143 -0.22545433 0 8.5385833e-06 0 0)
(-1.5338147 -0.22618338 0 -8.2236938e-06 0 0)
(-1.5265199 -0.22550917 0 7.9314469e-06 0 0)
(-1.533229 -0.22613066 0 -7.6672468e-06 0 0)
(-1.5270818 -0.22555992 0 7.4245686e-06 0 0)
(-1.5326839 -0.22608168 0 -7.2087169e-06 0 0)
(-1.5276071 -0.22560724 0 7.0134181e-06 0 0)
(-1.5321725 -0.22603584 0 -6.8432446e-06 0 0)
(-1.5281027 -0.22565174 0 6.6938654e-06 0 0)
(-1.531688 -0.22599253 0 -6.5710719e-06 0 0)
(-1.5285749 -0.22569398 0 6.463551e-06 0 0)
(-1.5312235 -0.22595121 0 -6.4072692e-06 0 0)
(-1.5290273 -0.2257342 0 6.3605939e-06 0 0)
(-1.5307679 -0.22591012 0 -6.12273e-06 0 0)
(-1.5294836 -0.22576989 0 7.6769579e-06 0 0)
(-1.5304269 -0.22588482 0 -7.4000196e-06 0 0)
(-1.0162893 -0.44018117 0 -0.14614997 0 0)
(-1.5885486 -0.23448943 0 -0.0050530186 0 0)
(-1.4487705 -0.22598886 0 -0.0025744676 0 0)
(-1.4905391 -0.2237976 0 -0.00026165392 0 0)
(-1.4221376 -0.21743396 0 -0.00010140631 0 0)
(-1.4689428 -0.22168803 0 -4.4311528e-05 0 0)
(-1.4211544 -0.21720738 0 2.3525602e-05 0 0)
(-1.4637393 -0.22126289 0 -2.7474003e-05 0 0)
(-1.4233345 -0.21743114 0 2.8018147e-05 0 0)
(-1.4611518 -0.22104012 0 -2.6431321e-05 0 0)
(-1.4254541 -0.21764002 0 2.493072e-05 0 0)
(-1.4590347 -0.2208432 0 -2.3779973e-05 0 0)
(-1.4273531 -0.21782368 0 2.2301808e-05 0 0)
(-1.4571735 -0.22066814 0 -2.1186158e-05 0 0)
(-1.4290495 -0.21798724 0 1.9961833e-05 0 0)
(-1.4555249 -0.22051283 0 -1.8918514e-05 0 0)
(-1.4305646 -0.21813309 0 1.7876374e-05 0 0)
(-1.4540599 -0.22037469 0 -1.693666e-05 0 0)
(-1.4319184 -0.21826321 0 1.6030625e-05 0 0)
(-1.4527546 -0.22025152 0 -1.5197138e-05 0 0)
(-1.4331296 -0.21837945 0 1.4403036e-05 0 0)
(-1.4515887 -0.22014143 0 -1.3667796e-05 0 0)
(-1.4342152 -0.2184835 0 1.2970807e-05 0 0)
(-1.4505447 -0.2200428 0 -1.2324071e-05 0 0)
(-1.4351905 -0.21857685 0 1.1712385e-05 0 0)
(-1.4496071 -0.21995421 0 -1.114503e-05 0 0)
(-1.4360691 -0.21866084 0 1.0609159e-05 0 0)
(-1.4487625 -0.21987438 0 -1.0112592e-05 0 0)
(-1.4368632 -0.21873665 0 9.6448138e-06 0 0)
(-1.4479988 -0.21980221 0 -9.2120314e-06 0 0)
(-1.4375837 -0.21880533 0 8.8052043e-06 0 0)
(-1.4473053 -0.2197367 0 -8.4298754e-06 0 0)
(-1.4382404 -0.21886783 0 8.0782231e-06 0 0)
(-1.4466724 -0.21967694 0 -7.7552278e-06 0 0)
(-1.4388418 -0.21892498 0 7.4541473e-06 0 0)
(-1.4460917 -0.21962214 0 -7.1792248e-06 0 0)
(-1.4393961 -0.21897755 0 6.9244869e-06 0 0)
(-1.4455553 -0.21957158 0 -6.6936684e-06 0 0)
(-1.4399104 -0.21902624 0 6.4820863e-06 0 0)
(-1.4450561 -0.21952459 0 -6.2936107e-06 0 0)
(-1.4403912 -0.21907165 0 6.1234137e-06 0 0)
(-1.4445878 -0.21948057 0 -5.9747617e-06 0 0)
(-1.4408448 -0.21911438 0 5.8447332e-06 0 0)
(-1.4441443 -0.21943898 0 -5.7378341e-06 0 0)
(-1.4412769 -0.21915497 0 5.6433646e-06 0 0)
(-1.4437193 -0.21939928 0 -5.5991662e-06 0 0)
(-1.4416908 -0.21919366 0 5.5544229e-06 0 0)
(-1.4433015 -0.21935962 0 -5.306377e-06 0 0)
(-1.442102 -0.21922726 0 6.9492778e-06 0 0)
(-1.4429608 -0.21933339 0 -6.7325723e-06 0 0)
(-0.9804264 -0.4137869 0 -0.13103563 0 0)
(-1.4394797 -0.22394472 0 -0.0051526484 0 0)
(-1.3584654 -0.21930007 0 -0.0026285411 0 0)
(-1.3982263 -0.21713356 0 -0.0003612902 0 0)
(-1.3383239 -0.21102257 0 -0.00013643278 0 0)
(-1.381715 -0.21503922 0 -4.4663375e-05 0 0)
(-1.3381966 -0.21076326 0 1.8015347e-05 0 0)
(-1.3771199 -0.21462689 0 -2.3338931e-05 0 0)
(-1.3401686 -0.21097 0 2.4374941e-05 0 0)
(-1.3747433 -0.21441474 0 -2.2851612e-05 0 0)
(-1.3420871 -0.2111686 0 2.1610472e-05 0 0)
(-1.3728058 -0.21422731 0 -2.0638783e-05 0 0)
(-1.3438169 -0.2113436 0 1.9333281e-05 0 0)
(-1.3711047 -0.2140605 0 -1.8388597e-05 0 0)
(-1.345364 -0.2114995 0 1.7317118e-05 0 0)
(-1.3695977 -0.21391241 0 -1.642063e-05 0 0)
(-1.3467464 -0.21163855 0 1.5515839e-05 0 0)
(-1.3682581 -0.21378063 0 -1.4703266e-05 0 0)
(-1.3479823 -0.21176268 0 1.3918955e-05 0 0)
(-1.3670643 -0.21366308 0 -1.3196629e-05 0 0)
(-1.3490884 -0.21187361 0 1.2509586e-05 0 0)
(-1.3659977 -0.21355797 0 -1.1871828e-05 0 0)
(-1.3500803 -0.21197296 0 1.1268748e-05 0 0)
(-1.3650423 -0.21346377 0 -1.0707475e-05 0 0)
(-1.3509718 -0.21206214 0 1.017795e-05 0 0)
(-1.3641842 -0.21337911 0 -9.6854197e-06 0 0)
(-1.3517752 -0.21214241 0 9.2212403e-06 0 0)
(-1.363411 -0.21330279 0 -8.7899804e-06 0 0)
(-1.3525016 -0.21221489 0 8.3846065e-06 0 0)
(-1.3627117 -0.21323376 0 -8.0086004e-06 0 0)
(-1.3531608 -0.2122806 0 7.6558143e-06 0 0)
(-1.3620766 -0.21317107 0 -7.3295651e-06 0 0)
(-1.3537618 -0.21234041 0 7.0244314e-06 0 0)
(-1.3614969 -0.21311385 0 -6.7435595e-06 0 0)
(-1.3543123 -0.21239514 0 6.4822129e-06 0 0)
(-1.360965 -0.21306136 0 -6.2430584e-06 0 0)
(-1.3548198 -0.21244551 0 6.0218078e-06 0 0)
(-1.3604736 -0.21301291 0 -5.8208461e-06 0 0)
(-1.3552906 -0.21249217 0 5.6369993e-06 0 0)
(-1.3600164 -0.21296785 0 -5.4729781e-06 0 0)
(-1.3557309 -0.21253572 0 5.3251118e-06 0 0)
(-1.3595874 -0.21292563 0 -5.1956133e-06 0 0)
(-1.3561462 -0.21257671 0 5.0827113e-06 0 0)
(-1.3591813 -0.21288571 0 -4.9898046e-06 0 0)
(-1.3565418 -0.21261569 0 4.9067919e-06 0 0)
(-1.3587923 -0.21284761 0 -4.8727827e-06 0 0)
(-1.3569207 -0.21265287 0 4.8288208e-06 0 0)
(-1.3584092 -0.21280939 0 -4.5739544e-06 0 0)
(-1.3572916 -0.21268462 0 6.263686e-06 0 0)
(-1.3580732 -0.21278244 0 -6.1031549e-06 0 0)
(-0.95734101 -0.39559685 0 -0.12069839 0 0)
(-1.3039044 -0.21440738 0 -0.0054165191 0 0)
(-1.2707375 -0.21215522 0 -0.0025449911 0 0)
(-1.3076549 -0.21048328 0 -0.00048734678 0 0)
(-1.2565287 -0.20460521 0 -0.00017194104 0 0)
(-1.2969881 -0.20838476 0 -4.5080341e-05 0 0)
(-1.2575274 -0.20431091 0 1.3250316e-05 0 0)
(-1.2931702 -0.20799191 0 -1.9486371e-05 0 0)
(-1.2594093 -0.20450521 0 2.1127461e-05 0 0)
(-1.2910294 -0.20779161 0 -1.9581265e-05 0 0)
(-1.2611622 -0.20469462 0 1.860715e-05 0 0)
(-1.289263 -0.20761361 0 -1.7782994e-05 0 0)
(-1.2627402 -0.2048614 0 1.6639441e-05 0 0)
(-1.2877093 -0.2074548 0 -1.5847761e-05 0 0)
(-1.2641515 -0.2050099 0 1.4915284e-05 0 0)
(-1.2863319 -0.2073137 0 -1.4151931e-05 0 0)
(-1.265413 -0.20514241 0 1.3371446e-05 0 0)
(-1.2851071 -0.20718807 0 -1.267437e-05 0 0)
(-1.2665412 -0.20526074 0 1.2000202e-05 0 0)
(-1.2840152 -0.20707596 0 -1.1378878e-05 0 0)
(-1.2675515 -0.20536655 0 1.0788746e-05 0 0)
(-1.2830395 -0.20697567 0 -1.0239569e-05 0 0)
(-1.2684578 -0.20546135 0 9.7215269e-06 0 0)
(-1.2821654 -0.20688574 0 -9.2379093e-06 0 0)
(-1.2692726 -0.20554648 0 8.7828099e-06 0 0)
(-1.28138 -0.20680489 0 -8.3582775e-06 0 0)
(-1.2700072 -0.20562315 0 7.959059e-06 0 0)
(-1.2806721 -0.20673197 0 -7.5871476e-06 0 0)
(-1.2706717 -0.20569241 0 7.238339e-06 0 0)
(-1.2800318 -0.20666599 0 -6.9139314e-06 0 0)
(-1.2712748 -0.20575522 0 6.6101356e-06 0 0)
(-1.2794502 -0.20660603 0 -6.3284904e-06 0 0)
(-1.2718248 -0.20581243 0 6.0655351e-06 0 0)
(-1.2789193 -0.20655129 0 -5.822947e-06 0 0)
(-1.2723288 -0.20586481 0 5.5976266e-06 0 0)
(-1.278432 -0.20650105 0 -5.3909725e-06 0 0)
(-1.2727934 -0.20591302 0 5.2000663e-06 0 0)
(-1.2779819 -0.20645465 0 -5.0262158e-06 0 0)
(-1.2732245 -0.20595772 0 4.8674914e-06 0 0)
(-1.2775631 -0.20641148 0 -4.7256551e-06 0 0)
(-1.2736277 -0.20599945 0 4.5979674e-06 0 0)
(-1.2771702 -0.20637101 0 -4.4857923e-06 0 0)
(-1.2740079 -0.20603875 0 4.3882863e-06 0 0)
(-1.2767982 -0.20633273 0 -4.3079067e-06 0 0)
(-1.2743701 -0.20607614 0 4.2351568e-06 0 0)
(-1.2764421 -0.20629618 0 -4.2097996e-06 0 0)
(-1.2747169 -0.20611185 0 4.1660686e-06 0 0)
(-1.2760911 -0.20625941 0 -3.9074344e-06 0 0)
(-1.2750517 -0.20614193 0 5.6081761e-06 0 0)
(-1.275763 -0.20623194 0 -5.5052117e-06 0 0)
(-0.93295731 -0.37546017 0 -0.10956409 0 0)
(-1.1808571 -0.20475775 0 -0.0053718646 0 0)
(-1.1836003 -0.20489872 0 -0.0024797049 0 0)
(-1.2220295 -0.20371746 0 -0.00053086017 0 0)
(-1.1776205 -0.19815418 0 -0.00018893964 0 0)
(-1.2151983 -0.20173859 0 -4.3563991e-05 0 0)
(-1.1793544 -0.1978591 0 8.9792196e-06 0 0)
(-1.2119552 -0.20136226 0 -1.6092152e-05 0 0)
(-1.1811067 -0.19803868 0 1.8132412e-05 0 0)
(-1.2100091 -0.20117145 0 -1.6620213e-05 0 0)
(-1.1826994 -0.19821844 0 1.5870893e-05 0 0)
(-1.2083952 -0.20100218 0 -1.5183111e-05 0 0)
(-1.1841368 -0.19837714 0 1.4186657e-05 0 0)
(-1.2069758 -0.20085104 0 -1.3533781e-05 0 0)
(-1.1854236 -0.19851851 0 1.2727586e-05 0 0)
(-1.2057172 -0.20071667 0 -1.20854e-05 0 0)
(-1.1865744 -0.19864469 0 1.1417684e-05 0 0)
(-1.2045977 -0.20059698 0 -1.0825812e-05 0 0)
(-1.187604 -0.19875743 0 1.0251591e-05 0 0)
(-1.2035995 -0.20049012 0 -9.7222731e-06 0 0)
(-1.1885264 -0.19885828 0 9.2201156e-06 0 0)
(-1.2027072 -0.20039449 0 -8.7516352e-06 0 0)
(-1.1893542 -0.19894868 0 8.3108255e-06 0 0)
(-1.2019076 -0.2003087 0 -7.8979573e-06 0 0)
(-1.1900988 -0.1990299 0 7.5104796e-06 0 0)
(-1.201189 -0.20023153 0 -7.1478982e-06 0 0)
(-1.1907703 -0.19910307 0 6.807718e-06 0 0)
(-1.2005412 -0.20016191 0 -6.4898893e-06 0 0)
(-1.1913779 -0.19916922 0 6.1925033e-06 0 0)
(-1.1999551 -0.20009888 0 -5.9151168e-06 0 0)
(-1.1919296 -0.19922922 0 5.6558697e-06 0 0)
(-1.1994226 -0.20004158 0 -5.414875e-06 0 0)
(-1.1924328 -0.19928391 0 5.1902801e-06 0 0)
(-1.1989365 -0.19998925 0 -4.982584e-06 0 0)
(-1.192894 -0.19933399 0 4.7900315e-06 0 0)
(-1.1984903 -0.19994119 0 -4.612992e-06 0 0)
(-1.1933192 -0.19938011 0 4.4496811e-06 0 0)
(-1.1980781 -0.19989679 0 -4.3005263e-06 0 0)
(-1.1937138 -0.19942289 0 4.1646329e-06 0 0)
(-1.1976946 -0.19985546 0 -4.0429844e-06 0 0)
(-1.1940828 -0.19946284 0 3.933596e-06 0 0)
(-1.1973348 -0.1998167 0 -3.8371398e-06 0 0)
(-1.1944309 -0.19950049 0 3.7535409e-06 0 0)
(-1.1969943 -0.19978002 0 -3.6844282e-06 0 0)
(-1.1947624 -0.19953633 0 3.6209396e-06 0 0)
(-1.1966685 -0.19974499 0 -3.6028866e-06 0 0)
(-1.1950798 -0.1995706 0 3.5592127e-06 0 0)
(-1.196347 -0.19970968 0 -3.2995299e-06 0 0)
(-1.195382 -0.19959917 0 4.9804522e-06 0 0)
(-1.1960294 -0.19968186 0 -4.9388438e-06 0 0)
(-0.91290536 -0.35235277 0 -0.095677658 0 0)
(-1.0757237 -0.19581644 0 -0.005186064 0 0)
(-1.0970517 -0.19773494 0 -0.0024862392 0 0)
(-1.1424175 -0.19675539 0 -0.00043606026 0 0)
(-1.1014689 -0.1915686 0 -0.00016352647 0 0)
(-1.1362332 -0.19505885 0 -3.1046605e-05 0 0)
(-1.1036031 -0.19138943 0 8.1447884e-06 0 0)
(-1.1334119 -0.1947309 0 -1.219406e-05 0 0)
(-1.1052501 -0.19156784 0 1.5630126e-05 0 0)
(-1.1316577 -0.19455315 0 -1.385712e-05 0 0)
(-1.1067057 -0.19173974 0 1.3394904e-05 0 0)
(-1.1301887 -0.19439278 0 -1.2804664e-05 0 0)
(-1.1080165 -0.19189086 0 1.1950776e-05 0 0)
(-1.128894 -0.19424912 0 -1.1421264e-05 0 0)
(-1.1091896 -0.19202537 0 1.0730978e-05 0 0)
(-1.1277449 -0.19412126 0 -1.0198924e-05 0 0)
(-1.1102388 -0.19214546 0 9.6338357e-06 0 0)
(-1.1267223 -0.19400731 0 -9.1379371e-06 0 0)
(-1.1111779 -0.19225279 0 8.6545894e-06 0 0)
(-1.1258103 -0.19390552 0 -8.2092607e-06 0 0)
(-1.1120196 -0.19234885 0 7.7871143e-06 0 0)
(-1.1249947 -0.19381439 0 -7.3923128e-06 0 0)
(-1.1127752 -0.19243499 0 7.0217697e-06 0 0)
(-1.1242638 -0.19373261 0 -6.6735012e-06 0 0)
(-1.1134552 -0.19251243 0 6.3475712e-06 0 0)
(-1.1236067 -0.19365901 0 -6.0415653e-06 0 0)
(-1.1140687 -0.19258222 0 5.7551418e-06 0 0)
(-1.1230142 -0.19359258 0 -5.4867062e-06 0 0)
(-1.114624 -0.19264534 0 5.2361638e-06 0 0)
(-1.1224781 -0.19353242 0 -5.0017256e-06 0 0)
(-1.1151283 -0.19270262 0 4.7830694e-06 0 0)
(-1.1219909 -0.1934777 0 -4.5792083e-06 0 0)
(-1.1155884 -0.19275485 0 4.3895773e-06 0 0)
(-1.1215461 -0.1934277 0 -4.2137596e-06 0 0)
(-1.1160102 -0.1928027 0 4.0510781e-06 0 0)
(-1.1211377 -0.19338177 0 -3.901093e-06 0 0)
(-1.1163991 -0.19284679 0 3.7629275e-06 0 0)
(-1.1207605 -0.19333931 0 -3.636325e-06 0 0)
(-1.1167601 -0.1928877 0 3.5212367e-06 0 0)
(-1.1204095 -0.19329978 0 -3.4180127e-06 0 0)
(-1.1170977 -0.19292592 0 3.325269e-06 0 0)
(-1.1200803 -0.19326269 0 -3.2431305e-06 0 0)
(-1.117416 -0.19296196 0 3.1721313e-06 0 0)
(-1.1197687 -0.19322758 0 -3.1132027e-06 0 0)
(-1.1177192 -0.19299627 0 3.0581331e-06 0 0)
(-1.1194708 -0.19319404 0 -3.0462165e-06 0 0)
(-1.1180097 -0.19302912 0 3.0027208e-06 0 0)
(-1.1191766 -0.19316017 0 -2.7444669e-06 0 0)
(-1.1182823 -0.19305633 0 4.3791567e-06 0 0)
(-1.1188713 -0.19313217 0 -4.4041193e-06 0 0)
(-0.90013094 -0.33820548 0 -0.087854797 0 0)
(-0.98825873 -0.18681613 0 -0.0045372438 0 0)
(-1.013305 -0.19012053 0 -0.002560372 0 0)
(-1.06327 -0.18998044 0 -0.00047018382 0 0)
(-1.0276818 -0.185095 0 -0.00016497033 0 0)
(-1.0599012 -0.18841845 0 -2.6689083e-05 0 0)
(-1.0303214 -0.18493064 0 5.5398102e-06 0 0)
(-1.0575575 -0.18810708 0 -9.1406814e-06 0 0)
(-1.0318709 -0.18509624 0 1.320863e-05 0 0)
(-1.0559751 -0.18793786 0 -1.1367475e-05 0 0)
(-1.0331964 -0.18525912 0 1.1120768e-05 0 0)
(-1.0546367 -0.18778552 0 -1.0630543e-05 0 0)
(-1.0343894 -0.18540271 0 9.9040229e-06 0 0)
(-1.0534559 -0.18764898 0 -9.4878522e-06 0 0)
(-1.0354575 -0.18553057 0 8.903018e-06 0 0)
(-1.0524076 -0.1875274 0 -8.4718386e-06 0 0)
(-1.0364133 -0.18564477 0 8.0001852e-06 0 0)
(-1.0514744 -0.18741899 0 -7.5922118e-06 0 0)
(-1.0372691 -0.18574688 0 7.1916472e-06 0 0)
(-1.0506418 -0.18732211 0 -6.8232586e-06 0 0)
(-1.0380364 -0.18583831 0 6.4740407e-06 0 0)
(-1.0498971 -0.18723533 0 -6.1467376e-06 0 0)
(-1.0387257 -0.18592034 0 5.8402787e-06 0 0)
(-1.0492295 -0.18715742 0 -5.5511933e-06 0 0)
(-1.0393461 -0.1859941 0 5.2814265e-06 0 0)
(-1.0486292 -0.18708729 0 -5.0272523e-06 0 0)
(-1.0399061 -0.18606062 0 4.7899023e-06 0 0)
(-1.0480878 -0.18702395 0 -4.5667305e-06 0 0)
(-1.0404131 -0.1861208 0 4.3589672e-06 0 0)
(-1.0475978 -0.18696657 0 -4.1638896e-06 0 0)
(-1.0408737 -0.18617545 0 3.982319e-06 0 0)
(-1.0471525 -0.18691435 0 -3.8124952e-06 0 0)
(-1.041294 -0.18622529 0 3.6548191e-06 0 0)
(-1.0467458 -0.18686662 0 -3.5082266e-06 0 0)
(-1.0416795 -0.18627097 0 3.3728519e-06 0 0)
(-1.0463724 -0.18682276 0 -3.2476678e-06 0 0)
(-1.0420349 -0.18631308 0 3.132492e-06 0 0)
(-1.0460275 -0.1867822 0 -3.0265638e-06 0 0)
(-1.0423648 -0.18635216 0 2.9304904e-06 0 0)
(-1.0457066 -0.18674443 0 -2.8441463e-06 0 0)
(-1.0426733 -0.1863887 0 2.766593e-06 0 0)
(-1.0454057 -0.18670897 0 -2.6975505e-06 0 0)
(-1.0429642 -0.18642315 0 2.6380211e-06 0 0)
(-1.0451209 -0.18667538 0 -2.5883569e-06 0 0)
(-1.0432413 -0.18645598 0 2.5409958e-06 0 0)
(-1.0448487 -0.1866433 0 -2.5342119e-06 0 0)
(-1.0435067 -0.18648744 0 2.4912276e-06 0 0)
(-1.0445799 -0.18661087 0 -2.2366835e-06 0 0)
(-1.0437525 -0.18651339 0 3.8027025e-06 0 0)
(-1.0442882 -0.18658283 0 -3.9003162e-06 0 0)
(-0.88424644 -0.31650225 0 -0.075291617 0 0)
(-0.91136124 -0.17895851 0 -0.0040786088 0 0)
(-0.93707885 -0.18253257 0 -0.0024100266 0 0)
(-0.98693679 -0.18301257 0 -0.000432603 0 0)
(-0.95627187 -0.1785382 0 -0.00014466001 0 0)
(-0.98605738 -0.18174317 0 -1.6413168e-05 0 0)
(-0.95938428 -0.17845269 0 5.2206331e-06 0 0)
(-0.9843039 -0.18147933 0 -5.7020554e-06 0 0)
(-0.96093852 -0.17861957 0 1.1188898e-05 0 0)
(-0.98293177 -0.18132373 0 -9.0237781e-06 0 0)
(-0.96217043 -0.17877596 0 9.0537605e-06 0 0)
(-0.98172641 -0.18118001 0 -8.6293215e-06 0 0)
(-0.96326091 -0.17891265 0 8.027636e-06 0 0)
(-0.98065362 -0.1810505 0 -7.712514e-06 0 0)
(-0.96423373 -0.17903417 0 7.2249781e-06 0 0)
(-0.97969894 -0.180935 0 -6.8860691e-06 0 0)
(-0.96510363 -0.17914269 0 6.4998311e-06 0 0)
(-0.97884846 -0.18083195 0 -6.1725985e-06 0 0)
(-0.96588272 -0.17923975 0 5.8476391e-06 0 0)
(-0.97808933 -0.18073982 0 -5.5499504e-06 0 0)
(-0.96658151 -0.17932671 0 5.2673649e-06 0 0)
(-0.97741019 -0.18065726 0 -5.0020931e-06 0 0)
(-0.96720943 -0.17940475 0 4.7542145e-06 0 0)
(-0.97680111 -0.18058311 0 -4.5195202e-06 0 0)
(-0.9677749 -0.17947496 0 4.3011207e-06 0 0)
(-0.97625337 -0.18051632 0 -4.0945892e-06 0 0)
(-0.96828545 -0.17953831 0 3.902147e-06 0 0)
(-0.97575923 -0.18045599 0 -3.7205844e-06 0 0)
(-0.96874783 -0.17959564 0 3.5519923e-06 0 0)
(-0.97531191 -0.1804013 0 -3.3931025e-06 0 0)
(-0.96916807 -0.17964772 0 3.2455024e-06 0 0)
(-0.97490529 -0.18035152 0 -3.1069783e-06 0 0)
(-0.96955162 -0.17969524 0 2.9785877e-06 0 0)
(-0.97453394 -0.180306 0 -2.8588768e-06 0 0)
(-0.96990339 -0.17973881 0 2.7485354e-06 0 0)
(-0.974193 -0.18026415 0 -2.6461647e-06 0 0)
(-0.97022779 -0.179779 0 2.5520596e-06 0 0)
(-0.97387803 -0.18022544 0 -2.4651481e-06 0 0)
(-0.97052895 -0.1798163 0 2.3865104e-06 0 0)
(-0.97358498 -0.18018937 0 -2.3156888e-06 0 0)
(-0.97081054 -0.17985119 0 2.2520454e-06 0 0)
(-0.97331018 -0.18015551 0 -2.1950368e-06 0 0)
(-0.97107608 -0.1798841 0 2.1459807e-06 0 0)