/*--------------------------------*- C++ -*----------------------------------*\
| =========                 |                                                 |
| \\      /  F ield         | OpenFOAM: The Open Source CFD Toolbox           |
|  \\    /   O peration     | Version:  2312                                  |
|   \\  /    A nd           | Website:  www.openfoam.com                      |
|    \\/     M anipulation  |                                                 |
\*---------------------------------------------------------------------------*/
FoamFile
{
    version     2.0;
    format      ascii;
    arch        "LSB;label=32;scalar=64";
    class       volScalarField;
    location    "2";
    object      T;
}
// * * * * * * * * * * * * * * * * * * * * * * * * * * * * * * * * * * * * * //

dimensions      [0 0 0 1 0 0 0];

internalField   nonuniform List<scalar> 
4000
(
329.07574
327.96543
327.81297
327.73484
327.67983
327.62668
327.58572
327.54111
327.50521
327.46487
327.43146
327.39371
327.36174
327.32573
327.29465
327.25988
327.22939
327.19557
327.1655
327.13241
327.10266
327.07019
327.04072
327.0088
326.97961
326.94818
326.91927
326.88832
326.85969
326.82917
326.80081
326.77068
326.74257
326.71277
326.68487
326.65534
326.62762
326.59831
326.57072
326.54155
326.51408
326.485
326.45761
326.42857
326.40127
326.3722
326.34503
326.31582
326.28895
326.25898
331.05196
329.04238
328.64649
328.46935
328.36143
328.25912
328.19327
328.11656
328.06585
328.00194
327.95871
327.90256
327.86364
327.8127
327.77646
327.72925
327.6948
327.6504
327.6172
327.57501
327.54278
327.50242
327.47104
327.43232
327.40176
327.36453
327.33482
327.29899
327.27012
327.23559
327.20753
327.17416
327.14684
327.11447
327.0878
327.05625
327.0301
326.99919
326.97346
326.94299
326.91759
326.88739
326.86227
326.83217
326.80732
326.77713
326.75266
326.72207
326.6985
326.66574
332.35164
330.09213
329.47461
329.20085
329.04067
328.88989
328.79918
328.69074
328.62517
328.53794
328.48482
328.41047
328.36452
328.29879
328.25733
328.1978
328.15931
328.10444
328.06805
328.01684
327.98207
327.9339
327.90054
327.85505
327.82306
327.78005
327.74945
327.70875
327.67955
327.641
327.61314
327.57652
327.54991
327.51495
327.48941
327.45582
327.43118
327.39865
327.37471
327.34294
327.31956
327.28824
327.26534
327.23419
327.21175
327.18046
327.15865
327.12671
327.10638
327.07107
333.25657
331.08848
330.28883
329.92481
329.71431
329.51663
329.4014
329.26205
329.18164
329.07163
329.00856
328.91639
328.86331
328.78312
328.73632
328.66472
328.62211
328.55696
328.5173
328.45723
328.41983
328.36397
328.32853
328.27638
328.24283
328.1941
328.16248
328.11694
328.08726
328.0447
328.0169
327.97701
327.95096
327.91339
327.88885
327.8532
327.82993
327.79578
327.77352
327.74044
327.719
327.68656
327.6658
327.63362
327.61353
327.58116
327.56196
327.52869
327.51151
327.47403
333.91313
332.00767
331.07807
330.63491
330.37791
330.1361
329.99719
329.8283
329.73327
329.60136
329.52834
329.41898
329.35872
329.26453
329.21231
329.12902
329.08218
329.00707
328.96402
328.89535
328.85521
328.79187
328.75423
328.69556
328.66033
328.60597
328.57317
328.52285
328.49252
328.44596
328.41804
328.37487
328.34919
328.30899
328.28528
328.24755
328.22549
328.1897
328.16899
328.13458
328.11496
328.08142
328.06271
328.02951
328.01168
327.97826
327.96159
327.92707
327.91287
327.87364
334.4041
332.83224
331.83007
331.32354
331.02603
330.74427
330.5832
330.38677
330.27765
330.12506
330.04229
329.91659
329.84918
329.74164
329.68397
329.58949
329.53835
329.45371
329.40719
329.33026
329.28728
329.21672
329.17677
329.1118
329.07473
329.01489
328.98075
328.92573
328.89456
328.84403
328.81577
328.76935
328.74381
328.70098
328.67788
328.63806
328.61701
328.57957
328.56023
328.5245
328.50655
328.47191
328.45512
328.42093
328.40527
328.37085
328.35658
328.3209
328.30947
328.26894
334.7791
333.55124
332.53292
331.9824
331.65261
331.33651
331.1556
330.93431
330.81201
330.64039
330.54823
330.40735
330.33293
330.21289
330.14979
330.04479
329.98933
329.89567
329.84564
329.76088
329.71499
329.63756
329.5952
329.52418
329.48517
329.42003
329.38439
329.32478
329.29257
329.23815
329.20934
329.15967
329.13406
329.08859
329.06586
329.02394
329.00369
328.96459
328.94642
328.90938
328.89292
328.8572
328.84219
328.80704
328.7934
328.75805
328.74603
328.70932
328.70038
328.65901
335.07052
334.16132
333.17643
332.60323
332.25129
331.9078
331.71024
331.46747
331.33332
331.14472
331.0438
330.88913
330.80802
330.67651
330.60813
330.4934
330.43368
330.33165
330.2781
330.18603
330.1372
330.05333
330.00849
329.93177
329.89069
329.8205
329.78321
329.71919
329.68575
329.62754
329.59795
329.54509
329.51916
329.47107
329.44848
329.40445
329.38477
329.344
329.32679
329.28843
329.27328
329.23648
329.22309
329.18703
329.17524
329.13904
329.1291
329.09152
329.08476
329.04295
335.29988
334.66479
333.75311
333.17855
332.81585
332.45308
332.24282
331.98261
331.83838
331.63526
331.52648
331.35971
331.27237
331.13063
331.05723
330.93372
330.86988
330.76022
330.70323
330.60447
330.55272
330.4629
330.41556
330.33353
330.29031
330.21539
330.17632
330.1081
330.07327
330.01141
329.98082
329.92486
329.89837
329.8477
329.82499
329.77888
329.75951
329.71708
329.70059
329.66093
329.64687
329.60904
329.59706
329.56013
329.55003
329.51305
329.505
329.46671
329.46181
329.41994
335.48282
335.06951
334.25874
333.70235
333.34071
332.96747
332.74915
332.47606
332.32396
332.10914
331.99369
331.81673
331.72385
331.57327
331.49526
331.36406
331.29633
331.17991
331.11962
331.01486
330.96027
330.86509
330.81527
330.72839
330.68301
330.60371
330.56278
330.49064
330.45427
330.38894
330.35718
330.29823
330.27096
330.21777
330.19471
330.14653
330.12724
330.08316
330.06716
330.0262
330.01302
329.97416
329.9634
329.92566
329.91705
329.8794
329.87301
329.8342
329.83083
329.78919
335.63052
335.38642
334.69249
334.17055
333.82132
333.44664
333.22534
332.94434
332.78694
332.56354
332.44285
332.25785
332.16029
332.00246
331.92036
331.78268
331.71141
331.58919
331.52584
331.41586
331.35858
331.25866
331.20646
331.11526
331.06775
330.98448
330.94166
330.86591
330.82791
330.75934
330.72625
330.66445
330.63621
330.58059
330.55695
330.50675
330.4873
330.44159
330.42586
330.3836
330.37109
330.33123
330.32148
330.28297
330.27565
330.23743
330.23245
330.19333
330.19116
330.15
335.75145
335.62879
335.05668
334.58131
334.25446
333.88707
333.66802
333.38428
333.22442
332.99576
332.87151
332.68079
332.57959
332.41621
332.33072
332.18785
332.11352
331.98654
331.92043
331.80608
331.74634
331.6424
331.58796
331.49301
331.44345
331.35669
331.31199
331.233
331.19332
331.12178
331.08725
331.02279
330.99342
330.93549
330.91107
330.85892
330.83909
330.79179
330.77609
330.73257
330.7205
330.67967
330.67072
330.63149
330.62524
330.58655
330.58275
330.54349
330.54224
330.50173
335.85193
335.81032
335.35621
334.93498
334.63848
334.28629
334.07455
333.79321
333.63387
333.4034
333.27741
333.08341
332.97976
332.81265
332.72456
332.57792
332.50107
332.37045
332.30199
332.18419
332.12227
332.01506
331.95859
331.86053
331.80906
331.71933
331.67283
331.59101
331.54965
331.47545
331.43943
331.37254
331.3419
331.28182
331.25644
331.20244
331.18203
331.13319
331.11731
331.07257
331.06072
331.01895
331.01058
330.97069
330.96529
330.92623
330.92337
330.88414
330.88354
330.84381
335.93673
335.94433
335.59784
335.23398
334.97337
334.64299
334.44317
334.16909
334.01326
333.78438
333.65861
333.46381
333.35901
333.19003
333.10026
332.95131
332.8726
332.7395
332.66917
332.54887
332.48514
332.37546
332.31724
332.21674
332.16356
332.07142
332.02324
331.93905
331.89606
331.81957
331.78203
331.71298
331.68101
331.61894
331.59249
331.53675
331.51559
331.46528
331.44904
331.4031
331.39127
331.3486
331.3406
331.30011
331.29534
331.25601
331.25385
331.2148
331.21463
331.17574
336.00944
336.04271
335.78945
335.48239
335.26062
334.95709
334.77306
334.51062
334.36111
334.13711
334.0135
333.82035
333.71578
333.54684
333.45636
333.30658
333.22674
333.09236
333.02072
332.89891
332.83379
332.72247
332.66282
332.5606
332.50595
332.412
332.36232
332.27625
332.23175
332.15336
332.11434
332.04342
332.01008
331.94626
331.91864
331.8613
331.83927
331.78757
331.7708
331.72373
331.71174
331.6682
331.66038
331.61933
331.61498
331.57547
331.57379
331.53503
331.53511
331.4971
336.07271
336.11553
335.93928
335.68549
335.50307
335.2297
335.0644
334.8173
334.67663
334.46052
334.34095
334.1518
334.04884
333.88177
333.79163
333.6425
333.5623
333.42786
333.3555
333.23319
333.16714
333.05504
332.99434
332.89111
332.8353
332.74017
332.68921
332.6018
332.55594
332.47608
332.43567
332.36322
332.32853
332.26319
332.23437
332.1756
332.1526
332.09963
332.0822
332.03405
332.02174
331.97738
331.96955
331.92801
331.92387
331.88426
331.88284
331.84448
331.84465
331.80752
336.12851
336.17079
336.05532
335.84923
335.7046
335.46297
335.31829
335.08941
334.95967
334.75407
334.64027
334.4573
334.35729
334.19386
334.10508
333.95805
333.87831
333.745
333.67254
333.55074
333.48428
333.37224
333.3109
333.20741
333.15077
333.05509
333.00313
332.91491
332.8679
332.78703
332.74536
332.67175
332.63579
332.56921
332.53919
332.47918
332.45516
332.40104
332.38285
332.33371
332.32094
332.27582
332.26782
332.22583
332.22172
332.18208
332.18075
332.14284
332.14299
332.10672
336.17827
336.21452
336.14489
335.9798
335.86978
335.65989
335.53666
335.32797
335.21075
335.01783
334.91129
334.73642
334.64061
334.48244
334.39604
334.25247
334.17398
334.04295
333.97107
333.85073
333.7844
333.67326
333.61173
333.50871
333.45161
333.35602
333.30337
333.21491
333.16699
333.08558
333.04283
332.96844
332.93131
332.8638
332.83262
332.77161
332.74656
332.69143
332.67242
332.62239
332.60906
332.56324
332.55493
332.51255
332.5083
332.46868
332.46727
332.42986
332.4299
332.39446
336.22303
336.25093
336.21431
336.08321
336.00352
335.82408
335.72211
335.5347
335.431
335.25239
335.15433
334.98917
334.89866
334.7472
334.66411
334.52526
334.44882
334.32114
334.25047
334.13255
334.06687
333.95746
333.89619
333.79434
333.73719
333.64232
333.58931
333.50116
333.45261
333.37114
333.32754
333.25278
333.21464
333.14651
333.11428
333.05249
333.02644
332.97048
332.95063
332.89981
332.88585
332.83941
332.83067
332.78795
332.78342
332.74387
332.74226
332.70536
332.70522
332.67056
336.26356
336.28284
336.26881
336.16494
336.11077
335.95946
335.87773
335.71181
335.6221
335.45888
335.37016
335.21598
335.1317
334.98818
334.90924
334.77622
334.70255
334.57921
334.51039
334.39574
334.33126
334.22433
334.16379
334.06381
334.00699
333.91346
333.86044
333.77315
333.72427
333.64324
333.59902
333.52431
333.48535
333.41695
333.38379
333.3215
333.29451
333.23791
333.21723
333.16576
333.15112
333.10415
333.09489
333.05189
333.04697
333.00752
333.0056
332.96922
332.96883
332.93492
336.3004
336.31193
336.31249
336.22981
336.19624
336.07009
336.00689
335.86194
335.78612
335.63884
335.55999
335.4177
335.34035
335.20574
335.13167
335.00542
334.93519
334.81706
334.75067
334.64007
334.57731
334.47357
334.4142
334.31673
334.26065
334.16904
334.11637
334.03048
333.98158
333.90146
333.85691
333.78265
333.74311
333.67477
333.64085
333.57832
333.55052
333.49348
333.47202
333.42003
333.40471
333.3573
333.34747
333.30425
333.29886
333.25954
333.25722
333.22134
333.22069
333.18746
336.33399
336.33912
336.34844
336.28184
336.2642
336.1599
336.11308
335.98797
335.92548
335.79416
335.72536
335.5955
335.52554
335.40058
335.33195
335.21322
335.14699
335.0348
334.97137
334.86552
334.80495
334.70504
334.64728
334.55289
334.49794
334.4088
334.35683
334.27284
334.22426
334.1455
334.1009
334.02751
333.98762
333.9197
333.88523
333.82274
333.79426
333.73699
333.71484
333.66249
333.64652
333.59876
333.58835
333.54497
333.53904
333.49988
333.4971
333.46172
333.46077
333.42818
336.36467
336.36484
336.37891
336.32425
336.31838
336.23257
336.19971
336.09286
336.04275
335.92699
335.86809
335.75084
335.68853
335.57367
335.51086
335.40024
335.33845
335.23281
335.17278
335.07227
335.01431
334.91878
334.86302
334.77225
334.7188
334.63261
334.5817
334.50007
334.45212
334.37515
334.33081
334.25868
334.2187
334.15155
334.11673
334.05456
334.02559
333.96832
333.94559
333.89303
333.87648
333.82849
333.8175
333.77403
333.76754
333.72855
333.72528
333.69036
333.6891
333.65711
336.39271
336.38923
336.40543
336.35953
336.36191
336.29137
336.27002
336.17955
336.14059
336.0396
335.99019
335.88541
335.83076
335.7262
335.66946
335.56731
335.51031
335.41165
335.35539
335.26067
335.2057
335.11502
335.06161
334.97491
334.92329
334.8405
334.79096
334.7121
334.66511
334.59033
334.54653
334.47602
334.43624
334.37017
334.33526
334.2737
334.24441
334.18736
334.1642
334.11162
334.09456
334.04647
334.03492
333.99144
333.98438
333.9456
333.94181
333.90735
333.90577
333.87434
336.41834
336.41228
336.429
336.38954
336.3973
336.33915
336.32691
336.25083
336.22162
336.13433
336.09376
336.00104
335.95386
335.85957
335.80897
335.71547
335.66346
335.57208
335.51987
335.43129
335.3796
335.29413
335.24338
335.16111
335.11163
335.0326
334.98474
334.90903
334.86327
334.79104
334.74808
334.67953
334.64021
334.57554
334.54077
334.48009
334.45071
334.39411
334.37067
334.31824
334.30079
334.25272
334.24068
334.19726
334.18965
334.15111
334.14681
334.11278
334.11088
334.07997
336.44177
336.43393
336.45027
336.41559
336.42655
336.37825
336.37298
336.30926
336.28833
336.21349
336.18095
336.09963
336.05957
335.97529
335.93077
335.84591
335.79899
335.71502
335.66704
335.58483
335.53664
335.45665
335.40881
335.33126
335.28417
335.20921
335.16328
335.09103
335.04678
334.97741
334.93555
334.86927
334.83067
334.76769
334.73331
334.67378
334.64451
334.58858
334.56504
334.51295
334.49523
334.44731
334.43487
334.3916
334.38348
334.34521
334.34041
334.30682
334.3046
334.27418
336.46316
336.45413
336.46962
336.4386
336.45114
336.41061
336.4104
336.35713
336.34301
336.27928
336.25383
336.18311
336.14966
336.07499
336.03632
335.95995
335.91807
335.84154
335.79786
335.72213
335.67759
335.60325
335.5585
335.48589
335.4414
335.37074
335.32697
335.25842
335.21591
335.14966
335.10915
335.04541
335.00778
334.94675
334.913
334.85485
334.82591
334.77087
334.74742
334.69583
334.67799
334.63037
334.61762
334.57459
334.56602
334.52806
334.5228
334.48963
334.48711
334.45716
336.48267
336.47286
336.48729
336.45919
336.47216
336.43773
336.44099
336.39641
336.38773
336.33372
336.31441
336.25334
336.22592
336.16027
336.12714
336.05895
336.022
335.95277
335.91339
335.84413
335.80332
335.73471
335.69317
335.62562
335.58389
335.51769
335.47626
335.4116
335.37105
335.30813
335.26918
335.20819
335.17176
335.1129
335.08002
335.02346
334.99508
334.94112
334.91795
334.86705
334.84924
334.80205
334.7891
334.74641
334.73746
334.69986
334.69417
334.66143
334.65864
334.62914
336.50044
336.49012
336.50341
336.47775
336.49041
336.46075
336.46622
336.42878
336.42428
336.37867
336.36451
336.31212
336.29005
336.23277
336.20476
336.14434
336.1121
336.04993
336.01478
335.95188
335.9148
335.8519
335.81364
335.7512
335.71233
335.65067
335.61172
335.55109
335.51264
335.45321
335.41601
335.35796
335.32294
335.26644
335.23462
335.17987
335.15224
335.09955
335.07684
335.02679
335.00916
334.96254
334.94951
334.90725
334.89802
334.86083
334.85477
334.82247
334.81942
334.79038
336.5166
336.50592
336.51806
336.49452
336.50642
336.48054
336.48723
336.4556
336.4542
336.41573
336.4058
336.36108
336.34368
336.29402
336.27068
336.21752
336.1897
336.13427
336.10318
336.04646
336.01305
335.95576
335.92078
335.86342
335.82747
335.77039
335.73401
335.67746
335.64125
335.58541
335.55011
335.49513
335.46168
335.4077
335.37714
335.32435
335.29766
335.24641
335.22434
335.17529
335.158
335.11209
335.09911
335.05738
335.04795
335.01122
335.00486
334.97302
334.96975
334.94115
336.53123
336.5203
336.53131
336.50968
336.52057
336.49771
336.50491
336.47799
336.47877
336.44631
336.43975
336.40172
336.38831
336.34551
336.32633
336.27987
336.25612
336.20704
336.17979
336.12898
336.09912
336.04727
336.01553
335.96316
335.93013
335.87759
335.84383
335.79137
335.75749
335.70528
335.67201
335.62017
335.58845
335.5371
335.50795
335.45726
335.43168
335.38202
335.36075
335.31285
335.29605
335.25096
335.23815
335.19706
335.18753
335.15133
335.14474
335.11338
335.10991
335.08177
336.54443
336.53331
336.5432
336.52332
336.5331
336.51272
336.51993
336.49681
336.49904
336.47159
336.46764
336.43538
336.4253
336.38859
336.37306
336.33269
336.31264
336.26944
336.24578
336.20055
336.17408
336.12745
336.09884
336.0513
336.02115
335.97306
335.94193
335.89353
335.86201
335.81344
335.78227
335.73363
335.70374
335.65511
335.6275
335.57902
335.55469
335.50674
335.48641
335.43979
335.42361
335.37948
335.36696
335.32659
335.31707
335.28146
335.2747
335.24385
335.24024
335.21255
336.55625
336.54497
336.55379
336.53553
336.54419
336.52589
336.53278
336.51275
336.51585
336.49255
336.49056
336.46322
336.45585
336.42449
336.4121
336.3772
336.36046
336.32267
336.3023
336.26228
336.23898
336.19728
336.17169
336.12877
336.10143
336.05764
336.0291
335.98467
335.95552
335.91056
335.88153
335.83609
335.8081
335.76223
335.73627
335.69007
335.66711
335.62098
335.60171
335.55649
335.54105
335.49797
335.48586
335.4463
335.43689
335.40193
335.39508
335.36478
335.36106
335.33385
336.56672
336.55532
336.5631
336.54635
336.55395
336.53744
336.54382
336.52633
336.52987
336.50998
336.5094
336.48623
336.48103
336.45432
336.44458
336.41455
336.4007
336.36782
336.35043
336.31521
336.29486
336.25777
336.23501
336.19649
336.17183
336.13217
336.10616
336.06556
336.03876
335.99732
335.97045
335.92817
335.90212
335.85902
335.83478
335.79091
335.76941
335.72516
335.70706
335.66333
335.64874
335.60681
335.59522
335.55656
335.54734
335.51309
335.50624
335.47651
335.47272
335.44601
336.57585
336.56439
336.57119
336.55586
336.56248
336.54755
336.55332
336.53793
336.5416
336.52453
336.52493
336.50526
336.50175
336.47903
336.47149
336.44574
336.43441
336.40592
336.39119
336.36035
336.34268
336.30987
336.28976
336.25534
336.23324
336.19748
336.17389
336.13697
336.11246
336.07442
336.04969
336.01051
335.98642
335.94605
335.92357
335.88205
335.86207
335.81977
335.80292
335.76074
335.74709
335.7064
335.69542
335.65772
335.6488
335.6153
335.60852
335.5794
335.57559
335.54939
336.58362
336.57219
336.5781
336.5641
336.56985
336.55635
336.56149
336.54786
336.55146
336.53672
336.53775
336.52099
336.51877
336.49945
336.49371
336.4717
336.4625
336.43792
336.42552
336.39863
336.38339
336.35449
336.33681
336.3062
336.28648
336.25438
336.23311
336.19966
336.17736
336.14258
336.11993
336.08375
336.0616
336.02393
336.00321
335.96404
335.94561
335.90529
335.88974
335.84918
335.83653
335.79714
335.78685
335.75018
335.74164
335.70895
335.70231
335.67383
335.67004
335.64438
336.59001
336.57875
336.58387
336.57114
336.57613
336.56393
336.56846
336.55635
336.55975
336.54694
336.54834
336.53401
336.53274
336.5163
336.512
336.4932
336.4858
336.46464
336.45427
336.43091
336.41783
336.39248
336.377
336.34989
336.33238
336.30369
336.28458
336.25439
336.2342
336.20251
336.18187
336.14857
336.12831
336.09326
336.07429
336.03744
336.02056
335.98223
335.968
335.9291
335.91751
335.87947
335.86994
335.83434
335.82626
335.79442
335.78799
335.76018
335.75645
335.73134
336.59498
336.58411
336.58857
336.57705
336.5814
336.5704
336.57438
336.56359
336.56671
336.55552
336.5571
336.54479
336.5442
336.53018
336.527
336.51096
336.50503
336.48686
336.47822
336.45798
336.44679
336.42463
336.41113
336.3872
336.37171
336.34613
336.32904
336.30189
336.28367
336.25488
336.23616
336.2056
336.18716
336.15464
336.13737
336.10279
336.08746
336.05111
336.03821
336.00099
335.99049
335.95383
335.9451
335.91063
335.90306
335.8721
335.86594
335.83882
335.8352
335.81067
336.59858
336.58832
336.59228
336.58191
336.58574
336.57584
336.57933
336.56971
336.57253
336.56271
336.56434
336.55371
336.55357
336.54158
336.53926
336.52555
336.52082
336.50522
336.49804
336.48053
336.47099
336.45164
336.43991
336.41883
336.40516
336.38243
336.36719
336.34283
336.32645
336.30037
336.28346
336.25547
336.23878
336.20867
336.19304
336.16066
336.14683
336.11244
336.10085
336.06532
336.0559
336.02067
336.01277
335.97944
335.97245
335.94238
335.93656
335.91014
335.90667
335.88273
336.60089
336.59149
336.59508
336.58581
336.58921
336.58035
336.58343
336.57483
336.57736
336.56871
336.57029
336.56106
336.56122
336.55091
336.54923
336.53748
336.5337
336.5203
336.51433
336.49919
336.49104
336.47418
336.46399
336.44545
336.43342
336.41325
336.39968
336.37787
336.36319
336.33961
336.32437
336.2988
336.28375
336.25592
336.24185
336.2116
336.19921
336.16673
336.15642
336.12258
336.11423
336.08042
336.07337
336.04121
336.03482
336.00568
336.00023
335.97454
335.97124
335.94791
336.6021
336.59373
336.59708
336.58885
336.59193
336.58402
336.58674
336.57908
336.58133
336.57367
336.57516
336.56709
336.56742
336.55851
336.55728
336.54716
336.54413
336.53257
336.52759
336.51447
336.50751
336.49281
336.48394
336.46766
336.45706
336.43918
336.42712
336.40762
336.39448
336.37319
336.3595
336.33616
336.32263
336.29697
336.28436
336.25614
336.2451
336.2145
336.20541
336.17323
336.16593
336.13355
336.12734
336.09635
336.0906
336.06238
336.05735
336.03239
336.02929
336.00657
336.60246
336.59519
336.5984
336.59114
336.59396
336.58692
336.58937
336.58253
336.58454
336.57773
336.5791
336.572
336.5724
336.56463
336.56372
336.55494
336.55247
336.54246
336.53826
336.52686
336.52088
336.50803
336.5003
336.48597
336.47663
336.46078
336.45006
336.43262
336.42087
336.40165
336.38938
336.36811
336.35598
336.33233
336.32107
336.29479
336.28502
336.25622
336.24828
336.21773
336.21144
336.18047
336.1751
336.14527
336.14017
336.11288
336.10829
336.08406
336.0812
336.05909
336.60222
336.59604
336.59914
336.59278
336.5954
336.58916
336.59137
336.58527
336.58707
336.581
336.58223
336.57593
336.57633
336.56949
336.56878
336.5611
336.55903
336.55029
336.5467
336.53674
336.53155
336.52028
336.5135
336.50087
336.4926
336.47853
336.46898
336.45338
336.44287
336.42552
336.41452
336.39514
336.38428
336.36251
336.35248
336.32804
336.31943
336.29237
336.2855
336.25654
336.25119
336.22161
336.21705
336.18838
336.18392
336.15755
336.15344
336.12994
336.12732
336.10583
336.60161
336.59642
336.59944
336.59387
336.59633
336.59081
336.59284
336.58739
336.58901
336.58356
336.58464
336.579
336.57935
336.57326
336.57264
336.56584
336.56405
336.55634
336.55321
336.54443
336.53988
336.52993
336.52394
336.51274
336.50539
336.49286
336.48433
336.47035
336.46093
336.44526
336.43539
336.41773
336.40801
336.38797
336.37906
336.35634
336.34879
336.3234
336.3175
336.29009
336.28562
336.2574
336.2536
336.22607
336.22225
336.19679
336.19315
336.17037
336.16801
336.14713
336.60083
336.59646
336.59938
336.59451
336.59685
336.59194
336.59383
336.58895
336.59041
336.58548
336.58642
336.5813
336.58157
336.57605
336.57547
336.56935
336.56773
336.56083
336.55803
336.55021
336.54614
336.53729
336.53194
336.52195
336.51537
336.50416
336.4965
336.48393
336.47546
336.46128
336.45241
336.4363
336.42759
336.40915
336.40124
336.38013
336.37352
336.34972
336.34469
336.31878
336.3151
336.28822
336.28513
336.25872
336.25552
336.23095
336.22779
336.20571
336.20363
336.18334
336.59997
336.59625
336.59907
336.59478
336.59701
336.59265
336.59442
336.59002
336.59133
336.58683
336.58761
336.5829
336.58305
336.57798
336.57735
336.57175
336.5702
336.56394
336.56135
336.55429
336.55059
336.54262
336.53777
336.5288
336.52285
336.51275
336.50583
336.49448
336.48683
336.47396
336.46596
336.45124
336.44343
336.42645
336.41941
336.3998
336.39403
336.37173
336.36748
336.343
336.34004
336.31444
336.31201
336.28668
336.28408
336.26037
336.25769
336.2363
336.23449
336.21478
336.59908
336.59587
336.59855
336.59474
336.59688
336.59297
336.59464
336.59064
336.59181
336.58764
336.58826
336.58385
336.58384
336.57908
336.57836
336.57313
336.57159
336.56579
336.56332
336.55684
336.5534
336.54612
336.54167
336.53351
336.52808
336.51892
336.51262
336.5023
336.49535
336.48363
336.47638
336.4629
336.45586
336.44021
336.43393
336.41572
336.41067
336.38979
336.38622
336.36312
336.36078
336.33644
336.33459
336.31032
336.30826
336.2854
336.28318
336.26245
336.26092
336.24177
336.59817
336.59536
336.59789
336.59446
336.59652
336.59298
336.59455
336.59085
336.59188
336.58795
336.58839
336.58417
336.58398
336.57942
336.57855
336.57356
336.57195
336.56647
336.56405
336.55799
336.55471
336.54798
336.54381
336.53631
336.53128
336.5229
336.5171
336.50767
336.50131
336.49058
336.48397
336.4716
336.46522
336.45078
336.44514
336.42823
336.42379
336.40426
336.40124
336.37947
336.37766
336.35453
336.3532
336.32995
336.3284
336.30636
336.30458
336.28449
336.28322
336.26462
336.59724
336.59474
336.59711
336.59398
336.59596
336.5927
336.59417
336.59068
336.59156
336.58776
336.588
336.58387
336.58347
336.57899
336.57793
336.57307
336.57134
336.56605
336.56361
336.55784
336.55464
336.54831
336.54435
336.53736
336.53264
336.52488
336.5195
336.51081
336.50494
336.49506
336.489
336.4776
336.47178
336.45843
336.45334
336.43762
336.43369
336.41542
336.41288
336.39237
336.391
336.36903
336.36814
336.34589
336.34479
336.32355
336.32217
336.30271
336.30169
336.28361
336.59626
336.59402
336.59624
336.59334
336.59523
336.59217
336.59352
336.59015
336.59084
336.58708
336.58708
336.58294
336.58229
336.57779
336.57651
336.57166
336.56977
336.56457
336.56204
336.55645
336.55328
336.54722
336.54339
336.53678
336.5323
336.52504
336.51999
336.51191
336.50645
336.4973
336.49169
336.48115
336.4758
336.46344
336.4588
336.44418
336.44066
336.42358
336.42141
336.4021
336.40108
336.38023
336.37971
336.35842
336.35771
336.33725
336.33625
336.31739
336.3166
336.29901
336.59522
336.59321
336.59529
336.59254
336.59435
336.5914
336.59261
336.58925
336.58972
336.58589
336.58561
336.58136
336.58041
336.5758
336.57426
336.56934
336.56724
336.56203
336.55938
336.55386
336.55066
336.54478
336.54102
336.53469
336.53038
336.52351
336.51872
336.51115
336.50601
336.49749
336.49226
336.48247
336.4775
336.46603
336.46175
336.44815
336.44496
336.42899
336.4271
336.40893
336.40818
336.38841
336.38817
336.36782
336.36745
336.34774
336.34707
336.32879
336.32823
336.31111
336.59411
336.59231
336.59427
336.59161
336.59332
336.59038
336.59142
336.58795
336.58815
336.58413
336.58354
336.57907
336.5778
336.57298
336.57115
336.56607
336.56373
336.55844
336.55563
336.55011
336.54684
336.54104
336.53731
336.53117
336.52698
336.5204
336.51581
336.50865
336.50378
336.49579
336.49086
336.48174
336.47709
336.46641
336.46242
336.44975
336.44681
336.43188
336.43019
336.41311
336.41254
336.39381
336.39378
336.37435
336.37424
336.35526
336.35489
336.33717
336.33681
336.32015
336.59291
336.59131
336.59316
336.59054
336.59214
336.58911
336.58991
336.58622
336.58609
336.58177
336.5808
336.57602
336.57438
336.56929
336.56713
336.56182
336.55922
336.55377
336.55078
336.54518
336.54182
336.53604
336.5323
336.52628
336.52216
336.51581
336.51137
336.50454
336.49988
336.49234
336.48767
336.47911
336.47472
336.46476
336.461
336.44918
336.44641
336.43247
336.43091
336.41486
336.41439
336.39666
336.39677
336.37823
336.37832
336.36007
336.35994
336.34277
336.34258
336.32636
336.59162
336.59022
336.59198
336.58933
336.59078
336.58754
336.58803
336.58398
336.58344
336.57871
336.57732
336.57213
336.5701
336.56464
336.56214
336.55655
336.55367
336.54801
336.54482
336.5391
336.53561
336.5298
336.52602
336.52007
336.516
336.5098
336.50549
336.49891
336.49443
336.48727
336.4828
336.47475
336.47056
336.46124
336.45765
336.44662
336.44397
336.43094
336.42944
336.41437
336.41394
336.39718
336.39736
336.37968
336.37993
336.36239
336.36245
336.34582
336.34578
336.32999
336.59023
336.58903
336.5907
336.58795
336.58919
336.58561
336.5857
336.58115
336.58013
336.57487
336.573
336.56732
336.56486
336.55899
336.55612
336.55019
336.54703
336.54112
336.53772
336.53184
336.52822
336.52234
336.51851
336.51257
336.50853
336.50244
336.49822
336.49185
336.48752
336.48067
336.47638
336.46877
336.46475
336.456
336.45254
336.44223
336.43965
336.42747
336.42598
336.41184
336.41139
336.39556
336.39574
336.37892
336.37925
336.36241
336.36262
336.34653
336.3466
336.33124
336.58871
336.58775
336.58932
336.58638
336.58732
336.58324
336.58282
336.57763
336.57603
336.57014
336.56773
336.56149
336.55857
336.55224
336.549
336.5427
336.53925
336.53306
336.52946
336.52339
336.51965
336.51366
336.50978
336.50383
336.4998
336.49379
336.48964
336.48344
336.47924
336.47265
336.46851
336.46128
336.4574
336.44916
336.4458
336.43615
336.43361
336.42221
336.42069
336.40744
336.40691
336.39198
336.39211
336.37612
336.37648
336.36035
336.36065
336.34511
336.34526
336.33033
336.58707
336.58637
336.5878
336.58455
336.58506
336.58031
336.57925
336.57327
336.57102
336.56439
336.5614
336.55455
336.55115
336.54432
336.5407
336.53402
336.53029
336.52382
336.52001
336.51374
336.50988
336.50378
336.49985
336.49386
336.48985
336.48388
336.47981
336.47374
336.46965
336.4633
336.45928
336.45239
336.44862
336.44086
336.43756
336.42852
336.42597
336.41532
336.41373
336.40131
336.40067
336.38661
336.38664
336.37147
336.37181
336.35638
336.35674
336.34173
336.34195
336.32745
336.58528
336.5849
336.5861
336.58239
336.5823
336.57668
336.57484
336.56793
336.56494
336.5575
336.5539
336.54638
336.54251
336.53516
336.53118
336.52411
336.52011
336.51334
336.50936
336.50289
336.49892
336.4927
336.48873
336.4827
336.47871
336.47278
336.46877
336.46282
336.45882
336.45268
336.44877
336.44219
336.43852
336.43118
336.42794
336.41945
336.41689
336.40692
336.40524
336.39361
336.39282
336.37959
336.3795
336.36513
336.36541
336.35067
336.35104
336.3366
336.33684
336.3228
336.58333
336.58334
336.58416
336.57978
336.57887
336.57217
336.5694
336.56143
336.55764
336.54932
336.54509
336.5369
336.53255
336.52468
336.52036
336.51291
336.50867
336.50163
336.49748
336.49083
336.48677
336.48044
336.47644
336.47037
336.46641
336.46051
336.45657
336.45073
336.44683
336.44087
336.43708
336.43077
336.42719
336.42023
336.41703
336.40905
336.40646
336.39714
336.39535
336.38446
336.38351
336.37109
336.37083