/*--------------------------------*- C++ -*----------------------------------*\
| =========                 |                                                 |
| \\      /  F ield         | OpenFOAM: The Open Source CFD Toolbox           |
|  \\    /   O peration     | Version:  2312                                  |
|   \\  /    A nd           | Website:  www.openfoam.com                      |
|    \\/     M anipulation  |                                                 |
\*---------------------------------------------------------------------------*/
FoamFile
{
    version     2.0;
    format      ascii;
    arch        "LSB;label=32;scalar=64";
    class       volVectorField;
    location    "2";
    object      U;
}
// * * * * * * * * * * * * * * * * * * * * * * * * * * * * * * * * * * * * * //

dimensions      [0 1 -1 0 0 0 0];

internalField   nonuniform List<vector> 
4000
(
(0.0023133378 0.00042292778 0)
(0.0030373707 -6.5062638e-06 0)
(0.0024269269 -3.6743426e-07 0)
(0.0025704432 2.2703756e-07 0)
(0.002485634 -2.6307535e-07 0)
(0.0025440888 2.3721869e-07 0)
(0.0024901465 -2.2420519e-07 0)
(0.0025391749 2.1091328e-07 0)
(0.0024934416 -1.9838944e-07 0)
(0.0025362736 1.870211e-07 0)
(0.0024959701 -1.764407e-07 0)
(0.0025338643 1.6643003e-07 0)
(0.0024981834 -1.5710731e-07 0)
(0.002531755 1.4831265e-07 0)
(0.0025001559 -1.4008053e-07 0)
(0.0025298865 1.3234537e-07 0)
(0.0025019134 -1.2509098e-07 0)
(0.0025282255 1.1828813e-07 0)
(0.002503479 -1.1190499e-07 0)
(0.0025267462 1.0592604e-07 0)
(0.002504875 -1.0031662e-07 0)
(0.0025254264 9.5067167e-08 0)
(0.0025061218 -9.014406e-08 0)
(0.0025242462 8.5541357e-08 0)
(0.0025072381 -8.1227828e-08 0)
(0.0025231881 7.7199819e-08 0)
(0.0025082403 -7.3428943e-08 0)
(0.0025222365 6.9912933e-08 0)
(0.0025091434 -6.662645e-08 0)
(0.0025213772 6.3568378e-08 0)
(0.0025099606 -6.0716172e-08 0)
(0.0025205979 5.8069473e-08 0)
(0.0025107036 -5.5608531e-08 0)
(0.0025198873 5.3333404e-08 0)
(0.002511383 -5.122692e-08 0)
(0.0025192356 4.9289514e-08 0)
(0.0025120082 -4.7506487e-08 0)
(0.0025186337 4.5878438e-08 0)
(0.002512588 -4.4393102e-08 0)
(0.0025180733 4.3050853e-08 0)
(0.0025131302 -4.1841915e-08 0)
(0.0025175469 4.0766799e-08 0)
(0.0025136419 -3.9817719e-08 0)
(0.0025170477 3.8995316e-08 0)
(0.0025141295 -3.829631e-08 0)
(0.002516568 3.7711513e-08 0)
(0.0025145995 -3.7273871e-08 0)
(0.0025161185 3.6944096e-08 0)
(0.0025151535 -3.6413326e-08 0)
(0.0025160404 3.9021842e-08 0)
(0.0061927044 0.0011491929 0)
(0.0085513444 -6.2923706e-08 0)
(0.0071179742 4.8540559e-06 0)
(0.0074490104 3.058503e-07 0)
(0.0072150232 -6.0307293e-07 0)
(0.0073858118 8.1922999e-07 0)
(0.0072269313 -7.6286185e-07 0)
(0.0073723256 7.3600993e-07 0)
(0.0072366788 -6.9706726e-07 0)
(0.0073639032 6.6001491e-07 0)
(0.0072441748 -6.2232708e-07 0)
(0.0073567807 5.8800281e-07 0)
(0.0072507463 -5.5473387e-07 0)
(0.0073505272 5.2400642e-07 0)
(0.0072566047 -4.9485186e-07 0)
(0.0073449842 4.6765907e-07 0)
(0.0072618256 -4.4205588e-07 0)
(0.0073400551 4.1809178e-07 0)
(0.0072664782 -3.955899e-07 0)
(0.007335663 3.7451262e-07 0)
(0.0072706289 -3.5474298e-07 0)
(0.0073317417 3.3622983e-07 0)
(0.0072743387 -3.1887867e-07 0)
(0.0073282327 3.0264211e-07 0)
(0.0072776628 -2.8743656e-07 0)
(0.0073250837 2.7322344e-07 0)
(0.0072806503 -2.5992716e-07 0)
(0.0073222485 2.4751763e-07 0)
(0.007283345 -2.359268e-07 0)
(0.0073196857 2.251309e-07 0)
(0.0072857861 -2.1506923e-07 0)
(0.0073173585 2.057234e-07 0)
(0.0072880084 -1.9703964e-07 0)
(0.0073152337 1.8900401e-07 0)
(0.0072900434 -1.8156993e-07 0)
(0.0073132818 1.7472613e-07 0)
(0.0072919191 -1.6843265e-07 0)
(0.0073114761 1.626802e-07 0)
(0.0072936612 -1.5743511e-07 0)
(0.0073097919 1.5269158e-07 0)
(0.0072952932 -1.4842128e-07 0)
(0.007308207 1.4461829e-07 0)
(0.0072968366 -1.4126113e-07 0)
(0.0073067002 1.3835156e-07 0)
(0.007298311 -1.3584548e-07 0)
(0.007305249 1.3380684e-07 0)
(0.0072997326 -1.3230655e-07 0)
(0.007303859 1.2980182e-07 0)
(0.0073013135 -1.349427e-07 0)
(0.0073033958 1.2527201e-07 0)
(0.010096992 0.0018711055 0)
(0.013783349 -6.7824665e-06 0)
(0.011687637 1.2178373e-05 0)
(0.012202754 4.6254273e-07 0)
(0.011818414 -9.2216333e-07 0)
(0.012105983 1.4806482e-06 0)
(0.011839062 -1.3731394e-06 0)
(0.012084309 1.3328117e-06 0)
(0.011855589 -1.2668293e-06 0)
(0.01207026 1.2006851e-06 0)
(0.011868232 -1.1320232e-06 0)
(0.012058273 1.070105e-06 0)
(0.011879319 -1.0093822e-06 0)
(0.012047733 9.536234e-07 0)
(0.011889202 -9.0055166e-07 0)
(0.012038388 8.5110516e-07 0)
(0.011898009 -8.0455235e-07 0)
(0.012030076 7.60949e-07 0)
(0.011905859 -7.2004806e-07 0)
(0.012022668 6.8169027e-07 0)
(0.011912864 -6.4575658e-07 0)
(0.012016052 6.1206254e-07 0)
(0.011919127 -5.8052112e-07 0)
(0.012010129 5.5096787e-07 0)
(0.01192474 -5.2332185e-07 0)
(0.012004812 4.9745044e-07 0)
(0.011929788 -4.7327219e-07 0)
(0.012000022 4.5068013e-07 0)
(0.011934343 -4.295994e-07 0)
(0.01199569 4.0994329e-07 0)
(0.011938472 -3.9163977e-07 0)
(0.011991754 3.7462091e-07 0)
(0.011942232 -3.5882062e-07 0)
(0.011988158 3.441852e-07 0)
(0.011945678 -3.3065538e-07 0)
(0.011984853 3.1818819e-07 0)
(0.011948857 -3.0673028e-07 0)
(0.011981793 2.9624639e-07 0)
(0.011951811 -2.8669335e-07 0)
(0.011978937 2.7804503e-07 0)
(0.01195458 -2.7026324e-07 0)
(0.011976246 2.6332272e-07 0)
(0.011957202 -2.5719606e-07 0)
(0.011973686 2.518768e-07 0)
(0.011959709 -2.4727493e-07 0)
(0.011971218 2.4357034e-07 0)
(0.011962128 -2.4073598e-07 0)
(0.011968834 2.3570113e-07 0)
(0.011964757 -2.4857119e-07 0)
(0.011967848 2.2681933e-07 0)
(0.013735823 0.0024672411 0)
(0.01881664 -2.0500739e-05 0)
(0.016138745 2.2618738e-05 0)
(0.016831046 4.2820481e-07 0)
(0.016295762 -1.050315e-06 0)
(0.016704843 2.099631e-06 0)
(0.016326354 -1.9480352e-06 0)
(0.016675345 1.9003091e-06 0)
(0.016349997 -1.8145944e-06 0)
(0.016655551 1.7213916e-06 0)
(0.016367982 -1.6228937e-06 0)
(0.016638528 1.5348795e-06 0)
(0.016383755 -1.4475473e-06 0)
(0.016623542 1.3677978e-06 0)
(0.016397815 -1.2916814e-06 0)
(0.016610251 1.2208092e-06 0)
(0.016410343 -1.1541226e-06 0)
(0.016598428 1.0915836e-06 0)
(0.016421511 -1.0330128e-06 0)
(0.016587888 9.779861e-07 0)
(0.016431477 -9.2652632e-07 0)
(0.016578474 8.7818491e-07 0)
(0.01644039 -8.3301035e-07 0)
(0.016570043 7.9060753e-07 0)
(0.016448382 -7.5100542e-07 0)
(0.016562473 7.1388154e-07 0)
(0.01645557 -6.792388e-07 0)
(0.016555651 6.4681836e-07 0)
(0.016462058 -6.16608e-07 0)
(0.01654948 5.8839703e-07 0)
(0.016467941 -5.6216123e-07 0)
(0.01654387 5.3773192e-07 0)
(0.016473302 -5.1507874e-07 0)
(0.016538744 4.9406687e-07 0)
(0.016478215 -4.7466541e-07 0)
(0.016534031 4.5676307e-07 0)
(0.016482748 -4.4032939e-07 0)
(0.016529665 4.2527128e-07 0)
(0.016486963 -4.1156425e-07 0)
(0.016525589 3.9913851e-07 0)
(0.016490917 -3.8796898e-07 0)
(0.016521748 3.7798963e-07 0)
(0.01649466 -3.6919014e-07 0)
(0.016518091 3.6153641e-07 0)
(0.016498242 -3.5489431e-07 0)
(0.016514564 3.4960953e-07 0)
(0.016501701 -3.4543087e-07 0)
(0.01651114 3.375503e-07 0)
(0.016505397 -3.6127351e-07 0)
(0.016509488 3.2473135e-07 0)
(0.017651932 0.0031456404 0)
(0.023605107 -3.2406289e-05 0)
(0.020463352 3.497383e-05 0)
(0.021333766 1.9170555e-07 0)
(0.020647006 -9.9636578e-07 0)
(0.0211823 2.642381e-06 0)
(0.020688927 -2.4659239e-06 0)
(0.02114531 2.4139107e-06 0)
(0.020720002 -2.3182021e-06 0)
(0.021119662 2.2007184e-06 0)
(0.020743511 -2.0747798e-06 0)
(0.021097447 1.9632658e-06 0)
(0.02076413 -1.851216e-06 0)
(0.021077868 1.7495493e-06 0)
(0.020782507 -1.6521682e-06 0)
(0.021060499 1.5616167e-06 0)
(0.020798882 -1.4764061e-06 0)
(0.021045046 1.3964449e-06 0)
(0.020813479 -1.3216286e-06 0)
(0.021031269 1.2512566e-06 0)
(0.020826508 -1.1855239e-06 0)
(0.021018961 1.1236947e-06 0)
(0.020838162 -1.0659828e-06 0)
(0.021007937 1.0117431e-06 0)
(0.020848614 -9.6114e-07 0)
(0.020998035 9.1364994e-07 0)
(0.020858016 -8.6937642e-07 0)
(0.02098911 8.2789603e-07 0)
(0.020866506 -7.8928013e-07 0)
(0.020981034 7.5318229e-07 0)
(0.020874205 -7.1963935e-07 0)
(0.020973693 6.8837526e-07 0)
(0.020881221 -6.5940678e-07 0)
(0.020966982 6.3251245e-07 0)
(0.020887654 -6.0769713e-07 0)
(0.020960811 5.8477969e-07 0)
(0.02089359 -5.637544e-07 0)
(0.020955094 5.4447103e-07 0)
(0.02089911 -5.2692975e-07 0)
(0.020949755 5.1101554e-07 0)
(0.020904288 -4.9671848e-07 0)
(0.020944724 4.8393043e-07 0)
(0.020909192 -4.7265877e-07 0)
(0.020939933 4.6284462e-07 0)
(0.020913886 -4.5429991e-07 0)
(0.020935311 4.4759175e-07 0)
(0.020918419 -4.4208477e-07 0)
(0.02093081 4.312908e-07 0)
(0.020923201 -4.6808349e-07 0)
(0.020928371 4.1498372e-07 0)
(0.020928507 0.003543076 0)
(0.028176789 -5.7576857e-05 0)
(0.024671149 4.9165154e-05 0)
(0.025709324 -1.8996352e-07 0)
(0.024872595 -7.8690554e-07 0)
(0.025538009 3.1066696e-06 0)
(0.024927207 -2.9323273e-06 0)
(0.025493844 2.8753556e-06 0)
(0.024965952 -2.7802996e-06 0)
(0.02546227 2.6406539e-06 0)
(0.024995128 -2.4896708e-06 0)
(0.025434744 2.3570468e-06 0)
(0.025020717 -2.2221087e-06 0)
(0.025410459 2.1004745e-06 0)
(0.02504352 -1.9835347e-06 0)
(0.025388909 1.8749555e-06 0)
(0.025063839 -1.7727582e-06 0)
(0.025369734 1.6768065e-06 0)
(0.025081952 -1.587106e-06 0)
(0.025352636 1.5026394e-06 0)
(0.025098123 -1.4238258e-06 0)
(0.025337358 1.3496025e-06 0)
(0.02511259 -1.2803983e-06 0)
(0.025323672 1.2152803e-06 0)
(0.025125566 -1.1545901e-06 0)
(0.025311376 1.0975687e-06 0)
(0.025137242 -1.0444573e-06 0)
(0.025300292 9.9464732e-07 0)
(0.025147787 -9.4831429e-07 0)
(0.02529026 9.0496166e-07 0)
(0.025157351 -8.6470713e-07 0)
(0.025281139 8.2715423e-07 0)
(0.025166069 -7.9238119e-07 0)
(0.025272801 7.6007139e-07 0)
(0.025174062 -7.3027877e-07 0)
(0.025265131 7.02742e-07 0)
(0.02518144 -6.7749486e-07 0)
(0.025258026 6.5431933e-07 0)
(0.025188301 -6.3324804e-07 0)
(0.02525139 6.1411726e-07 0)
(0.025194736 -5.969383e-07 0)
(0.025245137 5.8155563e-07 0)
(0.025200832 -5.680051e-07 0)
(0.025239182 5.5619316e-07 0)
(0.025206667 -5.4587563e-07 0)
(0.025233438 5.3788413e-07 0)
(0.025212302 -5.3104477e-07 0)
(0.025227833 5.173419e-07 0)
(0.025218183 -5.6880742e-07 0)
(0.0252245 4.9744814e-07 0)
(0.024922951 0.0042159944 0)
(0.032522061 -7.1225025e-05 0)
(0.028757233 6.4087049e-05 0)
(0.029955895 -6.403222e-07 0)
(0.028972508 -4.6780668e-07 0)
(0.029771559 3.4872783e-06 0)
(0.029041645 -3.3539193e-06 0)
(0.029720567 3.287912e-06 0)
(0.02908822 -3.2046842e-06 0)
(0.02968303 3.0443678e-06 0)
(0.029123158 -2.8706341e-06 0)
(0.029650113 2.7190387e-06 0)
(0.029153804 -2.5629116e-06 0)
(0.029621042 2.4230911e-06 0)
(0.029181109 -2.2881674e-06 0)
(0.02959524 2.1630704e-06 0)
(0.02920544 -2.0453023e-06 0)
(0.029572278 1.9346702e-06 0)
(0.029227132 -1.8313339e-06 0)
(0.0295518 1.7339195e-06 0)
(0.029246501 -1.6431235e-06 0)
(0.029533497 1.5575113e-06 0)
(0.029263832 -1.477774e-06 0)
(0.029517099 1.4026551e-06 0)
(0.02927938 -1.3327128e-06 0)
(0.029502365 1.2669294e-06 0)
(0.029293372 -1.2057106e-06 0)
(0.02948908 1.1482367e-06 0)
(0.029306012 -1.0948215e-06 0)
(0.029477054 1.0447939e-06 0)
(0.029317477 -9.9837558e-07 0)
(0.029466119 9.5503334e-07 0)
(0.02932793 -9.1492751e-07 0)
(0.029456121 8.7763156e-07 0)
(0.029337515 -8.4326323e-07 0)
(0.029446923 8.1147268e-07 0)
(0.029346362 -7.8233951e-07 0)
(0.029438402 7.5557384e-07 0)
(0.02935459 -7.3125327e-07 0)
(0.029430444 7.0915701e-07 0)
(0.029362309 -6.893245e-07 0)
(0.029422943 6.7154676e-07 0)
(0.029369619 -6.5589101e-07 0)
(0.029415802 6.4222816e-07 0)
(0.029376617 -6.3025805e-07 0)
(0.029408915 6.2110798e-07 0)
(0.029383376 -6.1292107e-07 0)
(0.029402184 5.9637604e-07 0)
(0.029390366 -6.635379e-07 0)
(0.02939787 5.7248469e-07 0)
(0.027867539 0.0044270497 0)
(0.036633783 -0.00010981528 0)
(0.032732178 7.9045761e-05 0)
(0.034071433 -9.6657555e-07 0)
(0.032946809 -5.9402565e-08 0)
(0.033882633 3.7772542e-06 0)
(0.033032658 -3.7339655e-06 0)
(0.033825151 3.6516013e-06 0)
(0.033087136 -3.5921916e-06 0)
(0.033781636 3.4122193e-06 0)
(0.033127891 -3.2181018e-06 0)
(0.033743281 3.0495696e-06 0)
(0.033163646 -2.873958e-06 0)
(0.033709378 2.7176964e-06 0)
(0.033195501 -2.5663476e-06 0)
(0.033679279 2.426227e-06 0)
(0.033223887 -2.2942838e-06 0)
(0.033652488 2.1702692e-06 0)
(0.033249197 -2.0545313e-06 0)
(0.033628591 1.9453031e-06 0)
(0.033271799 -1.8436033e-06 0)
(0.03360723 1.7475936e-06 0)
(0.033292027 -1.6582701e-06 0)
(0.033588088 1.5740202e-06 0)
(0.033310178 -1.4956554e-06 0)
(0.033570884 1.4218669e-06 0)
(0.033326517 -1.3532594e-06 0)
(0.033555371 1.2887857e-06 0)
(0.033341277 -1.2289125e-06 0)
(0.033541325 1.1727842e-06 0)
(0.033354669 -1.1207431e-06 0)
(0.033528551 1.0721083e-06 0)
(0.03336688 -1.0271335e-06 0)
(0.033516871 9.8527621e-07 0)
(0.033378078 -9.467295e-07 0)
(0.033506125 9.1104509e-07 0)
(0.033388415 -8.7836388e-07 0)
(0.033496169 8.4831258e-07 0)
(0.033398029 -8.2102015e-07 0)
(0.033486869 7.962065e-07 0)
(0.033407048 -7.7394454e-07 0)
(0.033478105 7.539666e-07 0)
(0.03341559 -7.3638389e-07 0)
(0.033469761 7.210188e-07 0)
(0.033423766 -7.0751919e-07 0)
(0.033461716 6.9733219e-07 0)
(0.033431663 -6.8778833e-07 0)
(0.033453847 6.6853135e-07 0)
(0.033439767 -7.5195491e-07 0)
(0.033448478 6.4006443e-07 0)
(0.031882698 0.0050624926 0)
(0.040547392 -0.00012187841 0)
(0.036589754 9.4127028e-05 0)
(0.038055361 -1.4278543e-06 0)
(0.036795255 3.0902105e-07 0)
(0.037870962 3.9488043e-06 0)
(0.036900638 -4.074372e-06 0)
(0.037807329 3.9664472e-06 0)
(0.036963001 -3.9422953e-06 0)
(0.037757824 3.7438852e-06 0)
(0.037009582 -3.5316282e-06 0)
(0.03771401 3.3482263e-06 0)
(0.03705047 -3.15485e-06 0)
(0.037675253 2.9839122e-06 0)
(0.037086896 -2.8177144e-06 0)
(0.037640837 2.6640792e-06 0)
(0.037119356 -2.5193698e-06 0)
(0.037610197 2.3832857e-06 0)
(0.037148303 -2.2563859e-06 0)
(0.037582863 2.1364945e-06 0)
(0.037174158 -2.024983e-06 0)
(0.037558425 1.9195854e-06 0)
(0.037197301 -1.8216296e-06 0)
(0.037536521 1.7291296e-06 0)
(0.037218072 -1.6431729e-06 0)
(0.037516831 1.5621531e-06 0)
(0.037236772 -1.4868855e-06 0)
(0.037499073 1.4160807e-06 0)
(0.037253669 -1.3503841e-06 0)
(0.037482993 1.2887385e-06 0)
(0.037269002 -1.2316224e-06 0)
(0.037468366 1.1781976e-06 0)
(0.037282984 -1.1288268e-06 0)
(0.03745499 1.082841e-06 0)
(0.037295808 -1.0405189e-06 0)
(0.037442682 1.0013101e-06 0)
(0.037307647 -9.6541736e-07 0)
(0.037431279 9.3238524e-07 0)
(0.037318659 -9.0240416e-07 0)
(0.037420627 8.7512822e-07 0)
(0.037328989 -8.5066797e-07 0)
(0.037410589 8.2869429e-07 0)
(0.037338772 -8.0936071e-07 0)
(0.037401033 7.9244426e-07 0)
(0.037348137 -7.7754441e-07 0)
(0.03739182 7.66442e-07 0)
(0.037357181 -7.5554627e-07 0)
(0.037382805 7.3374912e-07 0)
(0.037366401 -8.3359397e-07 0)
(0.03737632 7.0011056e-07 0)
(0.034690322 0.0051715819 0)
(0.044209347 -0.0001732203 0)
(0.040332248 0.00010824774 0)
(0.041910307 -2.2802004e-06 0)
(0.040519108 5.2086456e-07 0)
(0.041736283 3.9623763e-06 0)
(0.040645864 -4.3849296e-06 0)
(0.041666824 4.2301258e-06 0)
(0.040716071 -4.2555248e-06 0)
(0.04161135 4.0390237e-06 0)
(0.040768462 -3.8110748e-06 0)
(0.041562084 3.6147848e-06 0)
(0.040814478 -3.4053991e-06 0)
(0.041518477 3.2215416e-06 0)
(0.040855474 -3.0420793e-06 0)
(0.041479744 2.8764486e-06 0)
(0.040892009 -2.7203832e-06 0)
(0.041445255 2.5735532e-06 0)
(0.040924594 -2.436738e-06 0)
(0.041414481 2.3073406e-06 0)
(0.040953703 -2.1871064e-06 0)
(0.041386961 2.0733331e-06 0)
(0.040979765 -1.9677026e-06 0)
(0.041362292 1.8678417e-06 0)
(0.04100316 -1.7751338e-06 0)
(0.041340112 1.6876559e-06 0)
(0.041024226 -1.6064567e-06 0)
(0.041320104 1.5300008e-06 0)
(0.041043265 -1.4591142e-06 0)
(0.041301984 1.3925393e-06 0)
(0.041060543 -1.3308981e-06 0)
(0.041285499 1.2731927e-06 0)
(0.041076303 -1.2198977e-06 0)
(0.041270421 1.1702193e-06 0)
(0.041090758 -1.1245268e-06 0)
(0.041256548 1.0821629e-06 0)
(0.041104103 -1.0434046e-06 0)
(0.041243692 1.0077057e-06 0)
(0.041116518 -9.7531971e-07 0)
(0.041231683 9.4583736e-07 0)
(0.041128164 -9.1940863e-07 0)
(0.041220367 8.9564055e-07 0)
(0.041139193 -8.7474099e-07 0)
(0.041209593 8.5642901e-07 0)
(0.041149749 -8.4026212e-07 0)
(0.041199211 8.2836376e-07 0)
(0.041159946 -8.1613372e-07 0)
(0.041189048 7.9200709e-07 0)
(0.041170278 -9.0809544e-07 0)
(0.041181397 7.5260773e-07 0)
(0.038603433 0.0056769683 0)
(0.04772671 -0.00018550867 0)
(0.043943592 0.00012213257 0)
(0.045641683 -2.3672979e-06 0)
(0.044121757 7.927852e-07 0)
(0.045478757 3.8740277e-06 0)
(0.044268734 -4.651829e-06 0)
(0.045403416 4.447067e-06 0)
(0.044346589 -4.5310685e-06 0)
(0.045341995 4.2980728e-06 0)
(0.04440474 -4.0564682e-06 0)
(0.045287306 3.8493444e-06 0)
(0.044455857 -3.6256721e-06 0)
(0.045238873 3.4306494e-06 0)
(0.044501401 -3.2394972e-06 0)
(0.045195844 3.0633797e-06 0)
(0.044541991 -2.8973606e-06 0)
(0.045157522 2.7411009e-06 0)
(0.0445782 -2.5956024e-06 0)
(0.045123321 2.4578544e-06 0)
(0.044610552 -2.3299848e-06 0)
(0.045092731 2.2088503e-06 0)
(0.044639523 -2.0964954e-06 0)
(0.045065303 1.9901588e-06 0)
(0.044665535 -1.8915276e-06 0)
(0.04504064 1.7983705e-06 0)
(0.044688961 -1.7119678e-06 0)
(0.045018387 1.6305332e-06 0)
(0.044710136 -1.5550918e-06 0)
(0.044998231 1.4841752e-06 0)
(0.044729357 -1.4185575e-06 0)
(0.044979891 1.3570778e-06 0)
(0.04474689 -1.3003332e-06 0)
(0.044963115 1.2473991e-06 0)
(0.044762975 -1.1987411e-06 0)
(0.044947677 1.1535957e-06 0)
(0.044777826 -1.1123093e-06 0)
(0.04493337 1.0742512e-06 0)
(0.044791642 -1.039746e-06 0)
(0.044920006 1.0083161e-06 0)
(0.044804602 -9.8015246e-07 0)
(0.044907412 9.5479882e-07 0)
(0.044816876 -9.3251111e-07 0)
(0.044895422 9.1295783e-07 0)
(0.044828623 -8.9566032e-07 0)
(0.04488387 8.8308216e-07 0)
(0.04483997 -8.6955163e-07 0)
(0.044872564 8.4332147e-07 0)
(0.044851409 -9.7516519e-07 0)
(0.044863708 7.9765928e-07 0)
(0.041519126 0.0057688214 0)
(0.051012145 -0.00024304125 0)
(0.047426523 0.00013247533 0)
(0.049248674 -2.3447178e-06 0)
(0.047605349 1.0285165e-06 0)
(0.049098295 3.6755363e-06 0)
(0.047769514 -4.880364e-06 0)
(0.049016887 4.616935e-06 0)
(0.047854768 -4.7696145e-06 0)
(0.048949558 4.5212731e-06 0)
(0.047918606 -4.268126e-06 0)
(0.048889497 4.0521373e-06 0)
(0.047974777 -3.8159046e-06 0)
(0.048836283 3.6114383e-06 0)
(0.048024827 -3.4101566e-06 0)
(0.048788994 3.2250495e-06 0)
(0.048069439 -3.0504605e-06 0)
(0.048746871 2.8860792e-06 0)
(0.048109241 -2.7331211e-06 0)
(0.04870927 2.5881669e-06 0)
(0.048144811 -2.4537305e-06 0)
(0.048675633 2.3262367e-06 0)
(0.048176669 -2.2080988e-06 0)
(0.048645467 2.0961676e-06 0)
(0.048205279 -1.9924415e-06 0)
(0.048618336 1.8943709e-06 0)
(0.04823105 -1.8034822e-06 0)
(0.048593853 1.7177442e-06 0)
(0.048254349 -1.6383723e-06 0)
(0.048571673 1.5636977e-06 0)
(0.048275501 -1.4946467e-06 0)
(0.048551489 1.429899e-06 0)
(0.048294798 -1.3701712e-06 0)
(0.048533023 1.3144146e-06 0)
(0.048312503 -1.2631919e-06 0)
(0.048516029 1.2156323e-06 0)
(0.048328851 -1.1721616e-06 0)
(0.048500278 1.1320581e-06 0)
(0.048344061 -1.0957153e-06 0)
(0.048485565 1.0625931e-06 0)
(0.04835833 -1.0329231e-06 0)
(0.048471699 1.0061847e-06 0)
(0.048371842 -9.8269446e-07 0)
(0.0484585 9.620574e-07 0)
(0.048384775 -9.4376683e-07 0)
(0.048445786 9.3062131e-07 0)
(0.048397267 -9.1583734e-07 0)
(0.048433342 8.8775148e-07 0)
(0.048409802 -1.0346151e-06 0)
(0.048423254 8.3539793e-07 0)
(0.045295721 0.0061239805 0)
(0.054199042 -0.00025269548 0)
(0.050783319 0.00014218321 0)
(0.052730101 -2.8203663e-06 0)
(0.050969374 1.0654937e-06 0)
(0.052594699 3.350885e-06 0)
(0.051148422 -5.0755685e-06 0)
(0.052507062 4.7404897e-06 0)
(0.051240813 -4.9714629e-06 0)
(0.052433861 4.7092366e-06 0)
(0.051310236 -4.4463843e-06 0)
(0.052368495 4.2235556e-06 0)
(0.05137139 -3.9764263e-06 0)
(0.052310561 3.7642306e-06 0)
(0.051425889 -3.554351e-06 0)
(0.052259066 3.3617284e-06 0)
(0.051474472 -3.1799328e-06 0)
(0.052213187 3.0087186e-06 0)
(0.051517825 -2.8494981e-06 0)
(0.052172226 2.6984705e-06 0)
(0.051556576 -2.5585262e-06 0)
(0.052135576 2.4256685e-06 0)
(0.05159129 -2.3026734e-06 0)
(0.052102702 2.1860164e-06 0)
(0.051622469 -2.0780019e-06 0)
(0.052073129 1.9757836e-06 0)
(0.051650561 -1.8811203e-06 0)
(0.052046438 1.7917393e-06 0)
(0.051675962 -1.7090588e-06 0)
(0.052022255 1.6312039e-06 0)
(0.051699026 -1.5592567e-06 0)
(0.052000243 1.4917393e-06 0)
(0.051720071 -1.4294937e-06 0)
(0.051980104 1.3713454e-06 0)
(0.051739381 -1.3179557e-06 0)
(0.051961567 1.2683507e-06 0)
(0.051757214 -1.2230264e-06 0)
(0.051944386 1.1811806e-06 0)
(0.051773806 -1.1432819e-06 0)
(0.051928335 1.1087236e-06 0)
(0.051789371 -1.0777778e-06 0)
(0.051913209 1.049863e-06 0)
(0.051804112 -1.0253453e-06 0)
(0.05189881 1.0037783e-06 0)
(0.051818219 -9.8463398e-07 0)
(0.051884943 9.7102933e-07 0)
(0.051831846 -9.5505623e-07 0)
(0.051871376 9.2536302e-07 0)
(0.051845464 -1.0862804e-06 0)
(0.051860036 8.6603612e-07 0)
(0.048273796 0.0061941964 0)
(0.057162009 -0.0003115105 0)
(0.054017945 0.0001481871 0)
(0.056087371 -3.2265537e-06 0)
(0.054214238 1.0530139e-06 0)
(0.055968014 2.9538e-06 0)
(0.054405669 -5.2280987e-06 0)
(0.055873767 4.8210443e-06 0)
(0.0545049 -5.1365722e-06 0)
(0.055794738 4.8626904e-06 0)
(0.054579787 -4.591723e-06 0)
(0.05572415 4.3640761e-06 0)
(0.054645839 -4.107676e-06 0)
(0.055661574 3.8894298e-06 0)
(0.054704714 -3.6724544e-06 0)
(0.055605941 3.4737712e-06 0)
(0.054757205 -3.2861035e-06 0)
(0.055556365 3.1093284e-06 0)
(0.054804053 -2.9450271e-06 0)
(0.055512095 2.7890395e-06 0)
(0.054845936 -2.644619e-06 0)
(0.055472476 2.5073728e-06 0)
(0.054883463 -2.3804313e-06 0)
(0.055436933 2.259907e-06 0)
(0.054917177 -2.1484075e-06 0)
(0.055404953 2.0427874e-06 0)
(0.054947556 -1.945045e-06 0)
(0.055376084 1.8526803e-06 0)
(0.054975031 -1.7672965e-06 0)
(0.055349923 1.6868315e-06 0)
(0.054999982 -1.612516e-06 0)
(0.055326109 1.5427238e-06 0)
(0.055022751 -1.4784142e-06 0)
(0.055304317 1.4182978e-06 0)
(0.055043647 -1.3631315e-06 0)
(0.055284257 1.3118401e-06 0)
(0.055062945 -1.2649987e-06 0)
(0.055265663 1.2217188e-06 0)
(0.055080902 -1.182539e-06 0)
(0.055248291 1.1467953e-06 0)
(0.055097748 -1.1147971e-06 0)
(0.05523192 1.0859026e-06 0)
(0.055113702 -1.0605408e-06 0)
(0.055216336 1.0382005e-06 0)
(0.055128969 -1.0183412e-06 0)
(0.055201332 1.0043817e-06 0)
(0.055143718 -9.8729639e-07 0)
(0.055186657 9.5625654e-07 0)
(0.055158403 -1.1300904e-06 0)
(0.055174055 8.897837e-07 0)
(0.051877204 0.0064144395 0)
(0.060060859 -0.00032054364 0)
(0.05712924 0.00015423293 0)
(0.059322137 -3.5431407e-06 0)
(0.057339223 9.4394455e-07 0)
(0.059218029 2.4861546e-06 0)
(0.05754138 -5.3385311e-06 0)
(0.059116819 4.8595197e-06 0)
(0.057647181 -5.2655451e-06 0)
(0.059032036 4.9823785e-06 0)
(0.0577274 -4.7047258e-06 0)
(0.058956328 4.4742854e-06 0)
(0.057798251 -4.2101803e-06 0)
(0.0588892 3.9875422e-06 0)
(0.057861414 -3.7649351e-06 0)
(0.05882951 3.5616132e-06 0)
(0.057917738 -3.3693787e-06 0)
(0.058776308 3.1882865e-06 0)
(0.057968015 -3.0200512e-06 0)
(0.05872879 2.8601984e-06 0)
(0.058012972 -2.7123182e-06 0)
(0.058686257 2.5716463e-06 0)
(0.058053263 -2.4416473e-06 0)
(0.058648091 2.3180962e-06 0)
(0.058089464 -2.2038863e-06 0)
(0.058613747 2.0956063e-06 0)
(0.058122092 -1.9954701e-06 0)
(0.058582738 1.900761e-06 0)
(0.058151606 -1.8132741e-06 0)
(0.058554632 1.7307591e-06 0)
(0.058178412 -1.6545938e-06 0)
(0.058529045 1.58301e-06 0)
(0.058202878 -1.5170864e-06 0)
(0.058505627 1.4554205e-06 0)
(0.058225332 -1.3988626e-06 0)
(0.058484068 1.3462439e-06 0)
(0.058246073 -1.2982046e-06 0)
(0.058464084 1.2537851e-06 0)
(0.058265373 -1.2135982e-06 0)
(0.058445411 1.1769189e-06 0)
(0.05828348 -1.1440925e-06 0)
(0.058427815 1.1144231e-06 0)
(0.058300628 -1.088387e-06 0)
(0.058411065 1.0654246e-06 0)
(0.058317036 -1.0449894e-06 0)
(0.058394941 1.0307745e-06 0)
(0.058332889 -1.0126704e-06 0)
(0.058379178 9.8053549e-07 0)
(0.058348622 -1.1659834e-06 0)
(0.058365312 9.0691984e-07 0)
(0.054900172 0.0064574392 0)
(0.0627602 -0.00037697535 0)
(0.060120102 0.00015546684 0)
(0.062436742 -4.0478674e-06 0)
(0.060344168 7.5197327e-07 0)
(0.062344713 1.9587778e-06 0)
(0.060555732 -5.4033878e-06 0)
(0.062236077 4.8581056e-06 0)
(0.060667803 -5.3587083e-06 0)
(0.062145619 5.0692035e-06 0)
(0.060753207 -4.7860699e-06 0)
(0.062064906 4.554853e-06 0)
(0.060828741 -4.2845546e-06 0)
(0.061993332 4.0591424e-06 0)
(0.060896094 -3.8323267e-06 0)
(0.061929675 3.625762e-06 0)
(0.060956164 -3.4302286e-06 0)
(0.061872927 3.2460397e-06 0)
(0.061009794 -3.0749955e-06 0)
(0.061822233 2.9123456e-06 0)
(0.061057759 -2.7619882e-06 0)
(0.061776848 2.6188268e-06 0)
(0.061100753 -2.4866394e-06 0)
(0.061736116 2.3608865e-06 0)
(0.061139391 -2.2447346e-06 0)
(0.061699455 2.1345111e-06 0)
(0.061174221 -2.032646e-06 0)
(0.061666349 1.9362273e-06 0)
(0.061205732 -1.8472164e-06 0)
(0.061636339 1.7632002e-06 0)
(0.061234356 -1.6856913e-06 0)
(0.061609013 1.6127932e-06 0)
(0.061260485 -1.5456911e-06 0)
(0.061584002 1.4828841e-06 0)
(0.061284469 -1.4253095e-06 0)
(0.061560973 1.3717096e-06 0)
(0.061306624 -1.3227974e-06 0)
(0.061539624 1.2775369e-06 0)
(0.061327241 -1.2366072e-06 0)
(0.061519677 1.1992349e-06 0)
(0.061346585 -1.1657959e-06 0)
(0.061500878 1.1355415e-06 0)
(0.061364904 -1.1090094e-06 0)
(0.061482985 1.0855787e-06 0)
(0.061382433 -1.0647045e-06 0)
(0.061465762 1.0503298e-06 0)
(0.061399369 -1.0313106e-06 0)
(0.061448934 9.9833884e-07 0)
(0.061416127 -1.1939902e-06 0)
(0.061433808 9.1770135e-07 0)
(0.058344994 0.0065584641 0)
(0.065425021 -0.00038255934 0)
(0.062991343 0.00015665472 0)
(0.065434927 -4.5951961e-06 0)
(0.063228456 4.9061708e-07 0)
(0.065347948 1.3720333e-06 0)
(0.063448858 -5.4208305e-06 0)
(0.065231401 4.8182202e-06 0)
(0.063566893 -5.4167698e-06 0)
(0.065135361 5.1240801e-06 0)
(0.063657323 -4.8365324e-06 0)
(0.065049772 4.6065272e-06 0)
(0.063737414 -4.3314913e-06 0)
(0.064973868 4.1048887e-06 0)
(0.063808848 -3.8752446e-06 0)
(0.064906348 3.6667905e-06 0)
(0.063872567 -3.4691913e-06 0)
(0.064846144 3.2830902e-06 0)
(0.063929466 -3.1103208e-06 0)
(0.064792353 2.9459175e-06 0)
(0.063980364 -2.7940457e-06 0)
(0.064744186 2.6493132e-06 0)
(0.064025995 -2.5157799e-06 0)
(0.06470095 2.388627e-06 0)
(0.06406701 -2.2712672e-06 0)
(0.064662028 2.1598093e-06 0)
(0.06410399 -2.0568666e-06 0)
(0.064626875 1.9593489e-06 0)
(0.064137451 -1.8693858e-06 0)
(0.064595004 1.784404e-06 0)
(0.064167852 -1.7060453e-06 0)
(0.06456598 1.632295e-06 0)
(0.064195605 -1.564444e-06 0)
(0.064539411 1.5008972e-06 0)
(0.064221084 -1.442674e-06 0)
(0.064514946 1.3884378e-06 0)
(0.064244621 -1.3389566e-06 0)
(0.064492264 1.2931373e-06 0)
(0.064266527 -1.2517278e-06 0)
(0.064471069 1.2139028e-06 0)
(0.064287079 -1.1800663e-06 0)
(0.064451095 1.1494254e-06 0)
(0.064306543 -1.1225598e-06 0)
(0.064432083 1.0988071e-06 0)
(0.064325167 -1.0776303e-06 0)
(0.064413788 1.0631862e-06 0)
(0.064343162 -1.0433701e-06 0)
(0.064395919 1.0098043e-06 0)
(0.06436092 -1.2141367e-06 0)
(0.064379545 9.2244725e-07 0)
(0.061394713 0.0065675689 0)
(0.0679136 -0.0004333872 0)
(0.065738436 0.0001534353 0)
(0.068318722 -5.4438336e-06 0)
(0.065992453 1.9685003e-07 0)
(0.06822776 7.1932784e-07 0)
(0.066220916 -5.3916045e-06 0)
(0.068102672 4.7405349e-06 0)
(0.066344568 -5.4407757e-06 0)
(0.068001149 5.1478822e-06 0)
(0.066439854 -4.8570109e-06 0)
(0.067910825 4.6301094e-06 0)
(0.066524367 -4.351756e-06 0)
(0.067830717 4.1254907e-06 0)
(0.066599762 -3.8943527e-06 0)
(0.067759446 3.6853303e-06 0)
(0.066667025 -3.4868545e-06 0)
(0.067695885 3.2999968e-06 0)
(0.066727099 -3.1265598e-06 0)
(0.067639084 2.9614141e-06 0)
(0.066780847 -2.8089515e-06 0)
(0.067588213 2.6635349e-06 0)
(0.066829043 -2.5294742e-06 0)
(0.067542541 2.4017034e-06 0)
(0.066872371 -2.2838615e-06 0)
(0.06750142 2.171848e-06 0)
(0.066911443 -2.0684555e-06 0)
(0.067464274 1.9704419e-06 0)
(0.066946802 -1.8800731e-06 0)
(0.067430592 1.7946473e-06 0)
(0.066978931 -1.7159181e-06 0)
(0.067399914 1.64177e-06 0)
(0.067008268 -1.5735825e-06 0)
(0.067371827 1.5096846e-06 0)
(0.067035202 -1.4511683e-06 0)
(0.067345963 1.3966251e-06 0)
(0.067060086 -1.3468849e-06 0)
(0.067321982 1.3007926e-06 0)
(0.067083247 -1.2591542e-06 0)
(0.067299572 1.2211081e-06 0)
(0.067104977 -1.1870793e-06 0)
(0.067278452 1.1562327e-06 0)
(0.067125557 -1.129205e-06 0)
(0.067258351 1.1052791e-06 0)
(0.067145247 -1.0839324e-06 0)
(0.06723901 1.0695054e-06 0)
(0.067164275 -1.0490183e-06 0)
(0.06722013 1.0151048e-06 0)
(0.067183006 -1.22654e-06 0)
(0.067202525 9.2143776e-07 0)
(0.064664423 0.0065619016 0)
(0.070387262 -0.00043472225 0)
(0.068369405 0.00015030021 0)
(0.071084372 -6.184515e-06 0)
(0.068636337 -4.3479911e-08 0)
(0.070983869 2.4108155e-08 0)
(0.068872013 -5.3062461e-06 0)
(0.070849754 4.6292721e-06 0)
(0.069000916 -5.4308338e-06 0)
(0.070742871 5.1418608e-06 0)
(0.069100891 -4.8483891e-06 0)
(0.070647971 4.6264835e-06 0)
(0.069189684 -4.3461762e-06 0)
(0.070563798 4.1217257e-06 0)
(0.069268913 -3.8903872e-06 0)
(0.070488896 3.6820639e-06 0)
(0.069339607 -3.4838639e-06 0)
(0.070422085 3.2973621e-06 0)
(0.069402756 -3.1242689e-06 0)
(0.070362368 2.9593628e-06 0)
(0.069459266 -2.8072103e-06 0)
(0.070308876 2.6619739e-06 0)
(0.069509946 -2.5281743e-06 0)
(0.070260843 2.4005408e-06 0)
(0.069555517 -2.2829036e-06 0)
(0.070217588 2.1710035e-06 0)
(0.069596617 -2.0677726e-06 0)
(0.07017851 1.9698385e-06 0)
(0.069633818 -1.8796022e-06 0)
(0.070143069 1.7942381e-06 0)
(0.069667626 -1.7156029e-06 0)
(0.070110786 1.6414935e-06 0)
(0.069698499 -1.5733745e-06 0)
(0.070081227 1.5095054e-06 0)
(0.069726846 -1.4510434e-06 0)
(0.070054003 1.3965203e-06 0)
(0.069753038 -1.346807e-06 0)
(0.070028761 1.3007083e-06 0)
(0.069777417 -1.2590906e-06 0)
(0.070005171 1.2210515e-06 0)
(0.069800293 -1.1870342e-06 0)
(0.069982939 1.1561721e-06 0)
(0.069821956 -1.1291354e-06 0)
(0.069961779 1.1051762e-06 0)
(0.069842682 -1.0837909e-06 0)
(0.069941423 1.0694624e-06 0)
(0.069862712 -1.0484416e-06 0)
(0.069921563 1.0144077e-06 0)
(0.069882387 -1.231299e-06 0)
(0.069902749 9.1501116e-07 0)
(0.067697191 0.0065320159 0)
(0.072702846 -0.00047711409 0)
(0.070887153 0.00014265355 0)
(0.073724415 -6.9649473e-06 0)
(0.071160759 -1.7816335e-07 0)
(0.073615883 -7.0203189e-07 0)
(0.071402223 -5.1595476e-06 0)
(0.07347252 4.4875205e-06 0)
(0.07153602 -5.3873867e-06 0)