/*--------------------------------*- C++ -*----------------------------------*\
| =========                 |                                                 |
| \\      /  F ield         | OpenFOAM: The Open Source CFD Toolbox           |
|  \\    /   O peration     | Version:  2312                                  |
|   \\  /    A nd           | Website:  www.openfoam.com                      |
|    \\/     M anipulation  |                                                 |
\*---------------------------------------------------------------------------*/
FoamFile
{
    version     2.0;
    format      ascii;
    arch        "LSB;label=32;scalar=64";
    class       volVectorField;
    location    "6";
    object      U_0;
}
// * * * * * * * * * * * * * * * * * * * * * * * * * * * * * * * * * * * * * //

dimensions      [0 1 -1 0 0 0 0];

internalField   nonuniform List<vector> 
4000
(
(0.003124993 0.00059928948 0)
(0.0064381691 -1.1985404e-05 0)
(0.0031554727 1.4265131e-08 0)
(0.0038608839 -6.9855167e-07 0)
(0.0036069213 8.9346481e-08 0)
(0.0035849096 -1.9398055e-07 0)
(0.003590126 9.5752905e-08 0)
(0.0035363043 -1.6297371e-07 0)
(0.0035637991 1.1795882e-07 0)
(0.0035310562 -1.2486517e-07 0)
(0.0035558716 1.1141603e-07 0)
(0.0035323253 -1.0622955e-07 0)
(0.003553122 9.932993e-08 0)
(0.0035337458 -9.3559505e-08 0)
(0.0035516645 8.7968061e-08 0)
(0.0035348461 -8.2876267e-08 0)
(0.0035505701 7.7973433e-08 0)
(0.0035357949 -7.3463208e-08 0)
(0.0035496324 6.916845e-08 0)
(0.003536652 -6.5180499e-08 0)
(0.0035488038 6.1433502e-08 0)
(0.0035374223 -5.7938423e-08 0)
(0.0035480694 5.4679376e-08 0)
(0.0035381084 -5.1633894e-08 0)
(0.0035474191 4.8804655e-08 0)
(0.0035387176 -4.6159066e-08 0)
(0.0035468424 4.3705847e-08 0)
(0.003539259 -4.1412229e-08 0)
(0.0035463293 3.9287954e-08 0)
(0.0035397421 -3.7303908e-08 0)
(0.0035458705 3.5468903e-08 0)
(0.0035401758 -3.3758528e-08 0)
(0.0035454577 3.2180077e-08 0)
(0.0035405675 -3.071365e-08 0)
(0.0035450836 2.9365053e-08 0)
(0.003540924 -2.8118247e-08 0)
(0.003544742 2.6977809e-08 0)
(0.003541251 -2.5930854e-08 0)
(0.0035444274 2.4981018e-08 0)
(0.0035415535 -2.4118017e-08 0)
(0.0035441351 2.3344684e-08 0)
(0.0035418361 -2.2653242e-08 0)
(0.0035438607 2.2045607e-08 0)
(0.0035421032 -2.1515303e-08 0)
(0.0035436013 2.1071081e-08 0)
(0.0035423595 -2.0684347e-08 0)
(0.0035433479 2.0415892e-08 0)
(0.0035425758 -2.0219329e-08 0)
(0.0035429831 1.9737942e-08 0)
(0.0035424725 -2.1782878e-08 0)
(0.0076990378 0.0016293615 0)
(0.016858426 2.0890073e-05 0)
(0.0099490673 3.4512871e-05 0)
(0.011042352 -5.365763e-06 0)
(0.010479473 4.0408121e-06 0)
(0.010383719 -3.0699142e-07 0)
(0.010423597 1.1269706e-06 0)
(0.010261767 -1.2950657e-07 0)
(0.010345976 5.2624036e-07 0)
(0.010248647 -3.2951169e-07 0)
(0.010322971 3.9511769e-07 0)
(0.010252873 -3.5388839e-07 0)
(0.010315117 3.4964705e-07 0)
(0.010257217 -3.285789e-07 0)
(0.010310852 3.1331665e-07 0)
(0.010260552 -2.9453572e-07 0)
(0.010307579 2.7856989e-07 0)
(0.010263418 -2.6186883e-07 0)
(0.010304767 2.4708704e-07 0)
(0.010265993 -2.3260622e-07 0)
(0.01030229 2.1945125e-07 0)
(0.010268298 -2.0691842e-07 0)
(0.0103001 1.9538747e-07 0)
(0.010270349 -1.8452544e-07 0)
(0.010298161 1.7447698e-07 0)
(0.010272171 -1.6505594e-07 0)
(0.01029644 1.5632229e-07 0)
(0.010273792 -1.4815376e-07 0)
(0.010294905 1.4057829e-07 0)
(0.010275242 -1.335074e-07 0)
(0.01029353 1.2695524e-07 0)
(0.010276546 -1.2085502e-07 0)
(0.010292289 1.1521383e-07 0)
(0.010277727 -1.0998037e-07 0)
(0.010291163 1.0515776e-07 0)
(0.010278803 -1.0070608e-07 0)
(0.010290132 9.6626313e-08 0)
(0.010279792 -9.2887005e-08 0)
(0.01028918 8.9488213e-08 0)
(0.010280709 -8.6404583e-08 0)
(0.010288294 8.3636745e-08 0)
(0.010281568 -8.1164147e-08 0)
(0.01028746 7.8981771e-08 0)
(0.010282381 -7.7101806e-08 0)
(0.010286668 7.5449105e-08 0)
(0.010283165 -7.4097513e-08 0)
(0.010285903 7.3386521e-08 0)
(0.010283874 -7.0803108e-08 0)
(0.010284911 7.6105276e-08 0)
(0.010283763 -6.8758598e-08 0)
(0.01171352 0.0025426164 0)
(0.02577368 -4.569486e-05 0)
(0.016496603 7.4998416e-05 0)
(0.018041734 -9.2855572e-06 0)
(0.01715573 9.6461208e-06 0)
(0.016994969 -3.6647229e-07 0)
(0.01707956 2.5149421e-06 0)
(0.016807865 6.4961099e-08 0)
(0.016955721 1.0206796e-06 0)
(0.016790782 -5.2539416e-07 0)
(0.016918303 7.1756226e-07 0)
(0.01679902 -6.3129693e-07 0)
(0.016905396 6.3521892e-07 0)
(0.016806638 -5.9744852e-07 0)
(0.016898204 5.720808e-07 0)
(0.0168124 -5.3748782e-07 0)
(0.016892619 5.091799e-07 0)
(0.016817322 -4.7825575e-07 0)
(0.016887816 4.5156633e-07 0)
(0.016821726 -4.2493864e-07 0)
(0.016883594 4.0102731e-07 0)
(0.016825658 -3.7808841e-07 0)
(0.016879865 3.5707318e-07 0)
(0.016829151 -3.3723203e-07 0)
(0.016876565 3.1889461e-07 0)
(0.016832255 -3.0169505e-07 0)
(0.016873635 2.8574412e-07 0)
(0.01683502 -2.7082934e-07 0)
(0.01687102 2.5698559e-07 0)
(0.016837494 -2.440699e-07 0)
(0.016868673 2.3209067e-07 0)
(0.016839721 -2.2094279e-07 0)
(0.016866555 2.1062512e-07 0)
(0.01684174 -2.0105679e-07 0)
(0.016864629 1.9223317e-07 0)
(0.016843581 -1.8409056e-07 0)
(0.016862865 1.7662324e-07 0)
(0.016845275 -1.6978033e-07 0)
(0.016861235 1.6355638e-07 0)
(0.016846846 -1.5790958e-07 0)
(0.016859716 1.5283748e-07 0)
(0.016848318 -1.4830397e-07 0)
(0.016858286 1.4429719e-07 0)
(0.016849714 -1.4085264e-07 0)
(0.016856925 1.3776992e-07 0)
(0.016851062 -1.3534346e-07 0)
(0.016855614 1.3398483e-07 0)
(0.016852312 -1.2858726e-07 0)
(0.016853992 1.4180232e-07 0)
(0.016852307 -1.2496058e-07 0)
(0.015882908 0.0032965931 0)
(0.034378977 -4.6243594e-05 0)
(0.022816314 0.00013211809 0)
(0.024854938 -1.4539935e-05 0)
(0.023637369 1.7814231e-05 0)
(0.023419181 -3.6554333e-07 0)
(0.023557395 4.3138905e-06 0)
(0.023174816 5.3532076e-07 0)
(0.023393129 1.5393066e-06 0)
(0.023157597 -6.3744186e-07 0)
(0.023341925 1.0191237e-06 0)
(0.023170757 -8.8330943e-07 0)
(0.023324027 9.0550582e-07 0)
(0.023181961 -8.5350098e-07 0)
(0.023313806 8.2070298e-07 0)
(0.023190322 -7.7081845e-07 0)
(0.023305779 7.3147488e-07 0)
(0.023197436 -6.8650299e-07 0)
(0.023298869 6.4867104e-07 0)
(0.023203781 -6.1020394e-07 0)
(0.023292802 5.7606181e-07 0)
(0.023209433 -5.4307188e-07 0)
(0.023287448 5.1297605e-07 0)
(0.023214451 -4.8449325e-07 0)
(0.023282709 4.5819289e-07 0)
(0.02321891 -4.3351273e-07 0)
(0.023278498 4.1061349e-07 0)
(0.023222884 -3.8920806e-07 0)
(0.023274738 3.6932014e-07 0)
(0.023226444 -3.5077666e-07 0)
(0.023271362 3.3355807e-07 0)
(0.02322965 -3.1754607e-07 0)
(0.023268312 3.0270943e-07 0)
(0.023232556 -2.8896092e-07 0)
(0.023265538 2.7626826e-07 0)
(0.023235209 -2.6456428e-07 0)
(0.023262997 2.538192e-07 0)
(0.02323765 -2.4398004e-07 0)
(0.023260649 2.3502095e-07 0)
(0.023239915 -2.2689803e-07 0)
(0.023258459 2.19594e-07 0)
(0.023242037 -2.1306728e-07 0)
(0.023256396 2.0729025e-07 0)
(0.023244049 -2.023399e-07 0)
(0.023254434 1.9783268e-07 0)
(0.023245993 -1.9442566e-07 0)
(0.023252546 1.9242246e-07 0)
(0.023247824 -1.8370858e-07 0)
(0.023250292 2.0794552e-07 0)
(0.02324805 -1.7913812e-07 0)
(0.021318374 0.0045696156 0)
(0.041916377 -0.0001224308 0)
(0.028863519 0.00019305097 0)
(0.031500856 -2.1929431e-05 0)
(0.029923695 2.8498877e-05 0)
(0.029658104 -3.705457e-07 0)
(0.029855521 6.4579243e-06 0)
(0.029362819 1.2491877e-06 0)
(0.029657962 2.0420547e-06 0)
(0.029349361 -6.590852e-07 0)
(0.029593683 1.2822931e-06 0)
(0.029368243 -1.0993817e-06 0)
(0.029570875 1.1480025e-06 0)
(0.029383297 -1.0860654e-06 0)
(0.029557543 1.0485863e-06 0)
(0.02939441 -9.8475979e-07 0)
(0.029546968 9.3614828e-07 0)
(0.029403832 -8.7790516e-07 0)
(0.029537851 8.301863e-07 0)
(0.029412214 -7.806802e-07 0)
(0.029529851 7.3727685e-07 0)
(0.029419671 -6.950047e-07 0)
(0.029522794 6.5662012e-07 0)
(0.029426289 -6.201863e-07 0)
(0.029516546 5.8658642e-07 0)
(0.02943217 -5.5502787e-07 0)
(0.029510991 5.2574298e-07 0)
(0.029437415 -4.9836575e-07 0)
(0.029506028 4.7291379e-07 0)
(0.029442115 -4.4918737e-07 0)
(0.02950157 4.2714005e-07 0)
(0.02944635 -4.0664412e-07 0)
(0.029497541 3.8763935e-07 0)
(0.02945019 -3.700343e-07 0)
(0.029493875 3.537709e-07 0)
(0.029453696 -3.3877917e-07 0)
(0.029490516 3.2500762e-07 0)
(0.029456921 -3.1240087e-07 0)
(0.029487414 3.009152e-07 0)
(0.029459914 -2.9050367e-07 0)
(0.029484521 2.8113711e-07 0)
(0.029462717 -2.7276573e-07 0)
(0.029481796 2.6535055e-07 0)
(0.029465375 -2.590129e-07 0)
(0.029479204 2.5314968e-07 0)
(0.029467941 -2.4890552e-07 0)
(0.029476713 2.462399e-07 0)
(0.029470383 -2.3401517e-07 0)
(0.029473823 2.7147702e-07 0)
(0.029470947 -2.2886774e-07 0)
(0.024059579 0.0045447187 0)
(0.049175148 -0.00016259818 0)
(0.034757195 0.00026613715 0)
(0.037951057 -3.0637955e-05 0)
(0.03601196 4.181306e-05 0)
(0.03571281 -5.3005048e-07 0)
(0.035972311 8.8818848e-06 0)
(0.035372735 2.146661e-06 0)
(0.035749818 2.5065654e-06 0)
(0.035366595 -5.9823306e-07 0)
(0.035673274 1.504911e-06 0)
(0.035391817 -1.2824718e-06 0)
(0.035645666 1.3633792e-06 0)
(0.035410912 -1.2967731e-06 0)
(0.035629181 1.2568001e-06 0)
(0.035424883 -1.1805391e-06 0)
(0.035615985 1.1242449e-06 0)
(0.035436698 -1.0535197e-06 0)
(0.035604589 9.9707671e-07 0)
(0.03544719 -9.3730388e-07 0)
(0.035594591 8.8554174e-07 0)
(0.035456514 -8.3471207e-07 0)
(0.035585771 7.88776e-07 0)
(0.035464789 -7.4503541e-07 0)
(0.03557796 7.0475407e-07 0)
(0.035472145 -6.6687722e-07 0)
(0.035571011 6.3173144e-07 0)
(0.035478708 -5.9886565e-07 0)
(0.0355648 5.6829791e-07 0)
(0.035484592 -5.3980432e-07 0)
(0.035559218 5.1331203e-07 0)
(0.035489896 -4.8868907e-07 0)
(0.035554171 4.6584429e-07 0)
(0.035494707 -4.4468771e-07 0)
(0.035549579 4.2513273e-07 0)
(0.035499098 -4.071119e-07 0)
(0.035545372 3.9054918e-07 0)
(0.035503138 -3.7539145e-07 0)
(0.035541487 3.6157444e-07 0)
(0.035506885 -3.4905205e-07 0)
(0.035537865 3.3778129e-07 0)
(0.035510395 -3.2770567e-07 0)
(0.035534454 3.1877574e-07 0)
(0.03551372 -3.1116001e-07 0)
(0.03553121 3.0400599e-07 0)
(0.035516929 -2.9905641e-07 0)
(0.035528095 2.9568114e-07 0)
(0.035520003 -2.7985902e-07 0)
(0.035524568 3.3214237e-07 0)
(0.035520998 -2.7398115e-07 0)
(0.030192734 0.0060809699 0)
(0.05546631 -0.00021826561 0)
(0.040469167 0.00033254026 0)
(0.04415031 -3.6839591e-05 0)
(0.041907216 5.834423e-05 0)
(0.041587092 -7.86337e-07 0)
(0.04190776 1.1608117e-05 0)
(0.041205965 3.1832394e-06 0)
(0.041668335 2.9159887e-06 0)
(0.041209841 -4.6283177e-07 0)
(0.041580407 1.6862493e-06 0)
(0.041241816 -1.4357784e-06 0)
(0.041548133 1.5529226e-06 0)
(0.041265068 -1.4875686e-06 0)
(0.041528485 1.4467854e-06 0)
(0.04128196 -1.3596593e-06 0)
(0.041512626 1.297075e-06 0)
(0.041296224 -1.2146273e-06 0)
(0.041498907 1.1505141e-06 0)
(0.041308874 -1.0811972e-06 0)
(0.041486867 1.0218966e-06 0)
(0.041320109 -9.6318012e-07 0)
(0.041476243 9.1036187e-07 0)
(0.04133008 -8.5990834e-07 0)
(0.04146683 8.1350668e-07 0)
(0.041338948 -7.6982735e-07 0)
(0.041458452 7.2929815e-07 0)
(0.041346865 -6.9138896e-07 0)
(0.041450958 6.5611485e-07 0)
(0.041353965 -6.2323735e-07 0)
(0.041444221 5.9265203e-07 0)
(0.041360367 -5.6423124e-07 0)
(0.041438129 5.3784855e-07 0)
(0.041366174 -5.1342197e-07 0)
(0.041432586 4.9083332e-07 0)
(0.041371476 -4.7002232e-07 0)
(0.041427508 4.5088634e-07 0)
(0.041376351 -4.3337789e-07 0)
(0.041422819 4.1741073e-07 0)
(0.041380873 -4.0294199e-07 0)
(0.041418449 3.8991415e-07 0)
(0.041385107 -3.7826438e-07 0)
(0.041414335 3.6793493e-07 0)
(0.041389117 -3.5914058e-07 0)
(0.041410423 3.5075985e-07 0)
(0.041392983 -3.4522599e-07 0)
(0.04140667 3.41076e-07 0)
(0.041396705 -3.2167519e-07 0)
(0.041402506 3.898159e-07 0)
(0.041398207 -3.1458133e-07 0)
(0.032881932 0.0057969972 0)
(0.061046638 -0.00029903814 0)
(0.046192894 0.00039887469 0)
(0.049868325 -4.5680209e-05 0)
(0.047582519 7.5393996e-05 0)
(0.047274591 -1.5742996e-06 0)
(0.047659524 1.4524178e-05 0)
(0.046863613 4.2876263e-06 0)
(0.047413032 3.2572033e-06 0)
(0.04687953 -2.596991e-07 0)
(0.047314831 1.824765e-06 0)
(0.046918521 -1.560653e-06 0)
(0.047278049 1.7165033e-06 0)
(0.046945984 -1.6588678e-06 0)
(0.047255257 1.6185979e-06 0)
(0.046965829 -1.5222734e-06 0)
(0.04723672 1.4546799e-06 0)
(0.046982571 -1.3612987e-06 0)
(0.047220652 1.2905289e-06 0)
(0.046997407 -1.2123974e-06 0)
(0.047206545 1.146361e-06 0)
(0.04701058 -1.0804241e-06 0)
(0.047194092 1.0213848e-06 0)
(0.047022275 -9.648054e-07 0)
(0.047183051 9.1284123e-07 0)
(0.04703268 -8.6386959e-07 0)
(0.047173219 8.1843372e-07 0)
(0.047041973 -7.7592277e-07 0)
(0.047164421 7.3635216e-07 0)
(0.047050311 -6.9947254e-07 0)
(0.047156509 6.651471e-07 0)
(0.047057831 -6.3325771e-07 0)
(0.047149353 6.0364035e-07 0)
(0.047064652 -5.7622632e-07 0)
(0.047142842 5.5086303e-07 0)
(0.04707088 -5.2750235e-07 0)
(0.047136877 5.0601222e-07 0)
(0.047076606 -4.8635513e-07 0)
(0.047131369 4.6842024e-07 0)
(0.047081916 -4.5217163e-07 0)
(0.047126239 4.3753518e-07 0)
(0.047086886 -4.2444348e-07 0)
(0.047121411 4.1283187e-07 0)
(0.047091591 -4.0295912e-07 0)
(0.047116819 3.9342353e-07 0)
(0.047096123 -3.8742298e-07 0)
(0.047112419 3.8243518e-07 0)
(0.047100502 -3.5956217e-07 0)
(0.04710762 4.4413193e-07 0)
(0.047102579 -3.5059526e-07 0)
(0.038869457 0.0071456311 0)
(0.065585855 -0.00038201381 0)
(0.05195304 0.00047746998 0)
(0.055033032 -5.441863e-05 0)
(0.053041587 9.1154565e-05 0)
(0.052772893 -2.7755343e-06 0)
(0.053228433 1.7646605e-05 0)
(0.052346882 5.4225076e-06 0)
(0.052983586 3.5187449e-06 0)
(0.052376059 4.3975897e-09 0)
(0.052876367 1.9190835e-06 0)
(0.052422176 -1.6578946e-06 0)
(0.052835233 1.8538154e-06 0)
(0.05245385 -1.8106808e-06 0)
(0.052809333 1.7720105e-06 0)
(0.052476647 -1.6682023e-06 0)
(0.052788119 1.5968095e-06 0)
(0.052495878 -1.4933134e-06 0)
(0.052769696 1.4168799e-06 0)
(0.052512913 -1.3306825e-06 0)
(0.052753511 1.2587075e-06 0)
(0.052528038 -1.1862288e-06 0)
(0.052739215 1.1216299e-06 0)
(0.052541469 -1.0595216e-06 0)
(0.052726533 1.0025562e-06 0)
(0.052553425 -9.4881176e-07 0)
(0.052715233 8.9895134e-07 0)
(0.052564107 -8.5228918e-07 0)
(0.052705118 8.0883851e-07 0)
(0.052573695 -7.6834676e-07 0)
(0.052696018 7.3064126e-07 0)
(0.052582345 -6.9561986e-07 0)
(0.052687787 6.6307822e-07 0)
(0.052590191 -6.3296575e-07 0)
(0.052680298 6.0509369e-07 0)
(0.052597354 -5.7942941e-07 0)
(0.052673437 5.5581046e-07 0)
(0.052603939 -5.3421166e-07 0)
(0.052667104 5.1449702e-07 0)
(0.052610045 -4.9663933e-07 0)
(0.052661206 4.8054757e-07 0)
(0.052615758 -4.6615012e-07 0)
(0.052655656 4.5337825e-07 0)
(0.052621164 -4.4252964e-07 0)
(0.05265038 4.3192036e-07 0)
(0.052626368 -4.2556673e-07 0)
(0.052645326 4.196874e-07 0)
(0.052631409 -3.9351781e-07 0)
(0.052639898 4.9468789e-07 0)
(0.052634115 -3.8196208e-07 0)
(0.04196836 0.0069192976 0)
(0.069658452 -0.0004858259 0)
(0.05760206 0.00054749649 0)
(0.059759086 -6.2602122e-05 0)
(0.058318039 0.00010376322 0)
(0.058071098 -4.6354199e-06 0)
(0.058613395 2.0791013e-05 0)
(0.057656213 6.5067933e-06 0)
(0.058379671 3.6910169e-06 0)
(0.057699708 3.1967513e-07 0)
(0.058264865 1.9684823e-06 0)
(0.05775298 -1.728483e-06 0)
(0.058219527 1.9648687e-06 0)
(0.057788825 -1.9432131e-06 0)
(0.058190569 1.9070121e-06 0)
(0.057814552 -1.7974429e-06 0)
(0.058166698 1.7233861e-06 0)
(0.057836265 -1.6106048e-06 0)
(0.058145925 1.5294728e-06 0)
(0.057855498 -1.4359638e-06 0)
(0.058127662 1.3588373e-06 0)
(0.057872575 -1.2804955e-06 0)
(0.058111522 1.210997e-06 0)
(0.057887746 -1.1439559e-06 0)
(0.058097195 1.0825532e-06 0)
(0.057901257 -1.0245556e-06 0)
(0.058084424 9.707571e-07 0)
(0.057913334 -9.203958e-07 0)
(0.058072987 8.7348634e-07 0)
(0.057924177 -8.2977503e-07 0)
(0.058062695 7.8905407e-07 0)
(0.05793396 -7.5124048e-07 0)
(0.058053385 7.1608898e-07 0)
(0.057942835 -6.8357048e-07 0)
(0.058044913 6.5345898e-07 0)
(0.057950936 -6.2574054e-07 0)
(0.058037154 6.0022105e-07 0)
(0.057958384 -5.7689056e-07 0)
(0.058029992 5.5558669e-07 0)
(0.057965288 -5.3629345e-07 0)
(0.058023324 5.1890189e-07 0)
(0.057971746 -5.0333744e-07 0)
(0.058017051 4.8952945e-07 0)
(0.057977856 -4.7780874e-07 0)
(0.058011088 4.6621397e-07 0)
(0.057983732 -4.5961463e-07 0)
(0.058005379 4.5280188e-07 0)
(0.057989433 -4.2356201e-07 0)
(0.057999329 5.411552e-07 0)
(0.057992814 -4.0870923e-07 0)
(0.047754411 0.0078627512 0)
(0.073117813 -0.00055866554 0)
(0.062866814 0.0005957153 0)
(0.064232213 -6.8756043e-05 0)
(0.063441341 0.00011283454 0)
(0.063157325 -7.3188559e-06 0)
(0.063813748 2.3705521e-05 0)
(0.062793011 7.4859985e-06 0)
(0.0636011 3.7714325e-06 0)
(0.062850769 6.7749694e-07 0)
(0.063480235 1.9730682e-06 0)
(0.062911111 -1.7732724e-06 0)
(0.063430802 2.0500222e-06 0)
(0.062951048 -2.0567994e-06 0)
(0.063398842 2.0238022e-06 0)
(0.062979665 -1.9101428e-06 0)
(0.063372342 1.8344938e-06 0)
(0.063003839 -1.7132487e-06 0)
(0.063349238 1.6283506e-06 0)
(0.063025258 -1.5282822e-06 0)
(0.06332891 1.4467725e-06 0)
(0.06304428 -1.3632434e-06 0)
(0.063310932 1.2894942e-06 0)
(0.063061184 -1.2181144e-06 0)
(0.063294967 1.1528319e-06 0)
(0.063076245 -1.0910999e-06 0)
(0.063280728 1.0338466e-06 0)
(0.063089713 -9.8023806e-07 0)
(0.063267972 9.3028962e-07 0)
(0.063101808 -8.8375154e-07 0)
(0.063256491 8.403795e-07 0)
(0.063112722 -8.0011376e-07 0)
(0.063246104 7.6266731e-07 0)
(0.063122623 -7.2803542e-07 0)
(0.063236652 6.959546e-07 0)
(0.063131662 -6.6643156e-07 0)
(0.063227996 6.3924074e-07 0)
(0.06313997 -6.1438873e-07 0)
(0.063220007 5.9168707e-07 0)
(0.063147669 -5.7113208e-07 0)
(0.063212571 5.5259705e-07 0)
(0.063154871 -5.3600492e-07 0)
(0.063205577 5.2128592e-07 0)
(0.063161682 -5.0879663e-07 0)
(0.063198929 4.9631024e-07 0)
(0.063168227 -4.8956447e-07 0)
(0.063192566 4.8179055e-07 0)
(0.063174586 -4.4974335e-07 0)
(0.063185903 5.832795e-07 0)
(0.063178677 -4.3093755e-07 0)
(0.051680221 0.0078421338 0)
(0.076258401 -0.00067678031 0)
(0.067954111 0.00065229091 0)
(0.068552458 -7.090844e-05 0)
(0.068423805 0.00011869883 0)
(0.068036801 -1.0417161e-05 0)
(0.06883212 2.6167527e-05 0)
(0.067758271 8.3025801e-06 0)
(0.068647748 3.7609439e-06 0)
(0.067829411 1.0671335e-06 0)
(0.068522401 1.9332669e-06 0)
(0.067896711 -1.792982e-06 0)
(0.06846894 2.1097914e-06 0)
(0.067940638 -2.1518629e-06 0)
(0.068434042 2.1226679e-06 0)
(0.067972091 -2.0065368e-06 0)
(0.068404954 1.9302984e-06 0)
(0.067998697 -1.8013973e-06 0)
(0.068379545 1.7136318e-06 0)
(0.068022278 -1.6077468e-06 0)
(0.068357173 1.5226041e-06 0)
(0.068043226 -1.4345537e-06 0)
(0.068337375 1.3571931e-06 0)
(0.06806185 -1.2820601e-06 0)
(0.068319784 1.2134503e-06 0)
(0.068078449 -1.1484962e-06 0)
(0.068304088 1.0882684e-06 0)
(0.068093297 -1.0318599e-06 0)
(0.068290023 9.7929061e-07 0)
(0.068106634 -9.3031532e-07 0)
(0.068277361 8.8465524e-07 0)
(0.068118671 -8.4227525e-07 0)
(0.068265905 8.0284752e-07 0)
(0.068129591 -7.663934e-07 0)
(0.068255482 7.3261221e-07 0)
(0.068139559 -7.0153316e-07 0)
(0.068245935 6.7289917e-07 0)
(0.068148721 -6.4673509e-07 0)
(0.068237126 6.2282622e-07 0)
(0.068157211 -6.011828e-07 0)
(0.068228927 5.8166001e-07 0)
(0.06816515 -5.6417943e-07 0)
(0.068221218 5.486742e-07 0)
(0.068172657 -5.3551938e-07 0)
(0.068213891 5.222395e-07 0)
(0.068179865 -5.1543788e-07 0)
(0.068206878 5.0669073e-07 0)
(0.068186873 -4.7212526e-07 0)
(0.068199613 6.208632e-07 0)
(0.068191703 -4.487969e-07 0)
(0.05778633 0.0085559468 0)
(0.078986229 -0.00075770656 0)
(0.072795012 0.00069551249 0)
(0.07273304 -7.4579719e-05 0)
(0.073250401 0.00012083388 0)
(0.072726353 -1.3586461e-05 0)
(0.073672088 2.8020063e-05 0)
(0.072553204 8.9285853e-06 0)
(0.073519641 3.673927e-06 0)
(0.072635791 1.4805735e-06 0)
(0.073391339 1.8506596e-06 0)
(0.072709914 -1.787606e-06 0)
(0.073333847 2.1449969e-06 0)
(0.072757697 -2.2287773e-06 0)
(0.073296073 2.2039859e-06 0)
(0.072791924 -2.0868977e-06 0)
(0.073264444 2.0110234e-06 0)
(0.072820922 -1.8752533e-06 0)
(0.073236768 1.7854859e-06 0)
(0.072846634 -1.6745173e-06 0)
(0.07321238 1.5864705e-06 0)
(0.072869482 -1.4945562e-06 0)
(0.073190786 1.4142094e-06 0)
(0.072889803 -1.3359018e-06 0)
(0.07317159 1.2645077e-06 0)
(0.072907921 -1.1968383e-06 0)
(0.073154455 1.1341095e-06 0)
(0.072924132 -1.075344e-06 0)
(0.073139097 1.0205669e-06 0)
(0.072938697 -9.6954027e-07 0)
(0.073125269 9.2195143e-07 0)
(0.072951843 -8.7779178e-07 0)
(0.073112757 8.3669354e-07 0)
(0.07296377 -7.987054e-07 0)
(0.073101373 7.6349057e-07 0)
(0.072974656 -7.3110148e-07 0)
(0.073090947 7.0125065e-07 0)
(0.072984661 -6.7398176e-07 0)
(0.073081328 6.4905485e-07 0)
(0.072993931 -6.2649456e-07 0)
(0.073072376 6.0613859e-07 0)
(0.073002599 -5.8790769e-07 0)
(0.07306396 5.7174022e-07 0)
(0.073010792 -5.5802179e-07 0)
(0.073055963 5.4405005e-07 0)
(0.073018654 -5.3727388e-07 0)
(0.073048309 5.2755824e-07 0)
(0.073026302 -4.9078096e-07 0)
(0.073040454 6.5375715e-07 0)
(0.073031891 -4.6247212e-07 0)
(0.061847889 0.0084474911 0)
(0.081548519 -0.00087583822 0)
(0.077558631 0.00073192866 0)
(0.07676815 -7.7048115e-05 0)
(0.077909795 0.00011992726 0)
(0.07724588 -1.6724203e-05 0)
(0.078337286 2.9205799e-05 0)
(0.077178901 9.3562459e-06 0)
(0.078216798 3.5244408e-06 0)
(0.07726998 1.9075324e-06 0)
(0.078087025 1.7256228e-06 0)
(0.077350833 -1.7570398e-06 0)
(0.078025436 2.1565e-06 0)
(0.077402316 -2.2879582e-06 0)
(0.077984849 2.2681672e-06 0)
(0.077439245 -2.1515544e-06 0)
(0.077950734 2.0769364e-06 0)
(0.077470587 -1.9350701e-06 0)
(0.077920835 1.8441301e-06 0)
(0.077498393 -1.7287992e-06 0)
(0.077894468 1.6385564e-06 0)
(0.077523108 -1.5434229e-06 0)
(0.077871109 1.4607027e-06 0)
(0.077545097 -1.3797877e-06 0)
(0.077850334 1.3061438e-06 0)
(0.077564709 -1.2362564e-06 0)
(0.077831785 1.1714941e-06 0)
(0.077582261 -1.1108067e-06 0)
(0.077815155 1.0542299e-06 0)
(0.077598033 -1.0015315e-06 0)
(0.07780018 9.5236862e-07 0)
(0.077612269 -9.0675886e-07 0)
(0.07778663 8.6429681e-07 0)
(0.077625186 -8.2505874e-07 0)
(0.077774301 7.8867329e-07 0)
(0.077636975 -7.5521673e-07 0)
(0.077763011 7.2437224e-07 0)
(0.077647809 -6.9620297e-07 0)
(0.077752595 6.7044449e-07 0)
(0.077657846 -6.4713667e-07 0)
(0.077742902 6.2609992e-07 0)
(0.07766723 -6.0725526e-07 0)
(0.077733792 5.9054784e-07 0)
(0.077676098 -5.7636642e-07 0)
(0.077725136 5.6180668e-07 0)
(0.077684603 -5.5512786e-07 0)
(0.07771685 5.4446545e-07 0)
(0.077692878 -5.0579316e-07 0)
(0.077708419 6.8185684e-07 0)
(0.077699239 -4.7217413e-07 0)
(0.06819216 0.00904876 0)
(0.083921186 -0.00093819803 0)
(0.0821611 0.00075722043 0)
(0.080654237 -8.0066905e-05 0)
(0.082395441 0.0001158217 0)
(0.08160859 -1.9896401e-05 0)
(0.082829502 2.9763308e-05 0)
(0.08163626 9.5865279e-06 0)
(0.082739184 3.336507e-06 0)
(0.081732043 2.3400397e-06 0)
(0.082609423 1.5589626e-06 0)
(0.081819568 -1.7004286e-06 0)
(0.082543638 2.1454782e-06 0)
(0.081874572 -2.3297215e-06 0)
(0.082500295 2.315705e-06 0)
(0.081914125 -2.2008572e-06 0)
(0.082463755 2.1283548e-06 0)
(0.081947759 -1.9811427e-06 0)
(0.082431683 1.8898258e-06 0)
(0.081977613 -1.7708418e-06 0)
(0.08240338 1.6790883e-06 0)
(0.082004156 -1.5813687e-06 0)
(0.082378294 1.4968716e-06 0)
(0.082027778 -1.4139062e-06 0)
(0.082355974 1.3385348e-06 0)
(0.082048853 -1.266918e-06 0)
(0.082336039 1.2005796e-06 0)
(0.082067718 -1.138398e-06 0)
(0.082318163 1.0804212e-06 0)
(0.082084672 -1.0264239e-06 0)
(0.082302066 9.7603519e-07 0)
(0.082099977 -9.2929874e-07 0)
(0.082287498 8.8577405e-07 0)
(0.082113863 -8.4556471e-07 0)
(0.082274244 8.0826707e-07 0)
(0.082126536 -7.7398086e-07 0)
(0.082262107 7.42362e-07 0)
(0.082138183 -7.1349278e-07 0)
(0.082250911 6.8708603e-07 0)
(0.082148971 -6.6319668e-07 0)
(0.082240494 6.4162899e-07 0)
(0.082159056 -6.2230471e-07 0)
(0.082230703 6.0517751e-07 0)
(0.082168585 -5.906319e-07 0)
(0.082221402 5.7558948e-07 0)
(0.082177718 -5.6907038e-07 0)
(0.082212497 5.5749963e-07 0)
(0.082186605 -5.1725379e-07 0)
(0.082203505 7.0509902e-07 0)
(0.082193746 -4.7813208e-07 0)
(0.072379759 0.0088622772 0)
(0.086133713 -0.0010655292 0)
(0.086691104 0.00077282395 0)
(0.08440899 -8.120318e-05 0)
(0.086709191 0.00010889963 0)
(0.085819112 -2.3099702e-05 0)
(0.087149282 2.9763531e-05 0)
(0.085925892 9.6345384e-06 0)
(0.087086546 3.1319653e-06 0)
(0.086022217 2.7693911e-06 0)
(0.086958439 1.3508147e-06 0)
(0.086116198 -1.61709e-06 0)
(0.086888388 2.1130844e-06 0)
(0.086174534 -2.3544122e-06 0)
(0.086842343 2.3471077e-06 0)
(0.086216628 -2.2352049e-06 0)
(0.086803445 2.1656276e-06 0)
(0.086252496 -2.0138099e-06 0)
(0.086769258 1.9228724e-06 0)
(0.086284347 -1.8009337e-06 0)
(0.086739069 1.7083305e-06 0)
(0.086312673 -1.6086441e-06 0)
(0.086712298 1.5229508e-06 0)
(0.086337889 -1.4384784e-06 0)
(0.08668847 1.36189e-06 0)
(0.08636039 -1.2890204e-06 0)
(0.086667183 1.221554e-06 0)
(0.086380537 -1.1582952e-06 0)
(0.086648093 1.0993103e-06 0)
(0.086398644 -1.044378e-06 0)
(0.086630899 9.9310413e-07 0)
(0.08641499 -9.4555692e-07 0)
(0.08661534 9.0126423e-07 0)
(0.086429822 -8.6035589e-07 0)
(0.086601183 8.223987e-07 0)
(0.086443358 -7.8751531e-07 0)
(0.08658822 7.5533641e-07 0)
(0.086455796 -7.2596316e-07 0)
(0.086576263 6.9908724e-07 0)
(0.086467317 -6.7477869e-07 0)
(0.086565139 6.5282647e-07 0)
(0.086478086 -6.3315397e-07 0)
(0.086554685 6.1572433e-07 0)
(0.08648826 -6.0091135e-07 0)
(0.086544754 5.8549199e-07 0)
(0.086498006 -5.7918564e-07 0)
(0.086535244 5.6676095e-07 0)
(0.086507487 -5.2526315e-07 0)
(0.086525709 7.2345802e-07 0)
(0.086515409 -4.8058658e-07 0)
(0.078806087 0.0093661642 0)
(0.088387133 -0.0011009185 0)
(0.091021821 0.00078276055 0)
(0.088079645 -8.1870441e-05 0)
(0.090858865 9.9071202e-05 0)
(0.089876758 -2.6372174e-05 0)
(0.091296994 2.9314409e-05 0)
(0.090047751 9.5194033e-06 0)
(0.091258246 2.9321826e-06 0)
(0.090141179 3.1835182e-06 0)
(0.091133896 1.104339e-06 0)
(0.090240796 -1.5066422e-06 0)
(0.091059628 2.0606583e-06 0)
(0.090302262 -2.3623148e-06 0)
(0.091010936 2.3629333e-06 0)
(0.090346809 -2.2550174e-06 0)
(0.090969751 2.1891404e-06 0)
(0.090384847 -2.0334446e-06 0)
(0.090933511 1.9436042e-06 0)
(0.09041864 -1.8193985e-06 0)
(0.09090149 1.7265807e-06 0)
(0.090448699 -1.6255335e-06 0)
(0.090873082 1.539206e-06 0)
(0.090475463 -1.453757e-06 0)
(0.090847789 1.3764476e-06 0)
(0.090499352 -1.3027897e-06 0)
(0.090825189 1.2346311e-06 0)
(0.090520743 -1.1707016e-06 0)
(0.090804917 1.1110898e-06 0)
(0.09053997 -1.055577e-06 0)
(0.090786659 1.0037499e-06 0)
(0.090557329 -9.5569943e-07 0)
(0.090770136 9.109257e-07 0)
(0.090573079 -8.6958328e-07 0)
(0.090755102 8.3121269e-07 0)
(0.090587454 -7.959582e-07 0)
(0.090741337 7.6342807e-07 0)
(0.090600662 -7.337413e-07 0)
(0.09072864 7.0657077e-07 0)
(0.090612895 -6.8200089e-07 0)
(0.090716828 6.5980683e-07 0)
(0.090624329 -6.399141e-07 0)
(0.09070573 6.2229625e-07 0)
(0.090635129 -6.0731037e-07 0)
(0.090695187 5.916195e-07 0)
(0.09064547 -5.8556983e-07 0)
(0.090685089 5.7236062e-07 0)
(0.090655528 -5.2992899e-07 0)
(0.090675028 7.3694223e-07 0)
(0.090664226 -4.7978387e-07 0)
(0.083023305 0.0090966769 0)
(0.090437889 -0.0012326815 0)
(0.0951502 0.00077762726 0)
(0.091719896 -8.0817735e-05 0)
(0.094854676 8.7460109e-05 0)
(0.093779578 -2.954258e-05 0)
(0.095273188 2.8509438e-05 0)
(0.094001296 9.2716778e-06 0)
(0.095253563 2.7577847e-06 0)
(0.09408994 3.5647995e-06 0)
(0.095135534 8.2708048e-07 0)
(0.094193425 -1.3703318e-06 0)
(0.095057315 1.9893643e-06 0)
(0.094257812 -2.3538056e-06 0)
(0.095006023 2.3637315e-06 0)
(0.094304718 -2.2607597e-06 0)
(0.094962625 2.1993033e-06 0)
(0.094344857 -2.0404545e-06 0)
(0.094924401 1.9523864e-06 0)
(0.094380532 -1.8265908e-06 0)
(0.094890606 1.7341668e-06 0)
(0.094412268 -1.6323495e-06 0)
(0.094860613 1.545931e-06 0)
(0.094440532 -1.4600204e-06 0)
(0.094833902 1.3824711e-06 0)
(0.094465764 -1.3084755e-06 0)
(0.09481003 1.2400478e-06 0)
(0.09448836 -1.1758418e-06 0)
(0.094788616 1.1159734e-06 0)
(0.094508673 -1.0602237e-06 0)
(0.094769326 1.0081654e-06 0)
(0.094527012 -9.5990987e-07 0)
(0.09475187 9.149336e-07 0)
(0.094543652 -8.7341396e-07 0)
(0.094735987 8.3486874e-07 0)
(0.094558838 -7.9946238e-07 0)
(0.094721444 7.6678353e-07 0)
(0.094572791 -7.36968e-07 0)
(0.094708031 7.0967212e-07 0)
(0.094585713 -6.8499403e-07 0)
(0.094695554 6.626965e-07 0)
(0.094597791 -6.4270785e-07 0)
(0.094683832 6.2501241e-07 0)
(0.094609198 -6.099456e-07 0)
(0.094672697 5.9408751e-07 0)
(0.094620115 -5.8832982e-07 0)
(0.094662028 5.7441914e-07 0)
(0.094630729 -5.3136571e-07 0)
(0.09465146 7.4559095e-07 0)
(0.094640196 -4.7597115e-07 0)
(0.089343133 0.0094612584 0)
(0.092715552 -0.0012361994 0)
(0.098988946 0.00076967338 0)
(0.095347653 -7.9076052e-05 0)
(0.098695906 7.4533026e-05 0)
(0.097525197 -3.2545466e-05 0)
(0.099078145 2.7435808e-05 0)
(0.097785639 8.9224943e-06 0)
(0.099072341 2.6191346e-06 0)
(0.097869142 3.897038e-06 0)
(0.098963029 5.3201943e-07 0)
(0.097974087 -1.2108805e-06 0)
(0.098881398 1.9003006e-06 0)
(0.098041226 -2.3292567e-06 0)
(0.098827558 2.3500648e-06 0)
(0.098090396 -2.2529295e-06 0)
(0.098782029 2.1965479e-06 0)
(0.098132565 -2.0352792e-06 0)
(0.098741891 1.94961e-06 0)
(0.098170055 -1.822894e-06 0)
(0.098706387 1.7314422e-06 0)
(0.098203412 -1.6294312e-06 0)
(0.098674865 1.5434436e-06 0)
(0.098233123 -1.4575712e-06 0)
(0.098646785 1.3802458e-06 0)
(0.09825965 -1.3063488e-06 0)
(0.098621686 1.2380609e-06 0)
(0.098283409 -1.1739594e-06 0)
(0.098599168 1.1141922e-06 0)
(0.098304769 -1.0585378e-06 0)
(0.098578884 1.0065599e-06 0)
(0.098324054 -9.5838719e-07 0)
(0.098560527 9.1347762e-07 0)
(0.098341552 -8.7202879e-07 0)
(0.098543825 8.3353979e-07 0)
(0.09835752 -7.9819322e-07 0)
(0.098528533 7.6556145e-07 0)
(0.098372193 -7.3579551e-07 0)
(0.098514429 7.0853796e-07 0)
(0.09838578 -6.8389948e-07 0)
(0.09850131 6.6163228e-07 0)
(0.098398479 -6.416679e-07 0)
(0.098488985 6.2400166e-07 0)
(0.098410472 -6.0894315e-07 0)
(0.098477279 5.9302035e-07 0)
(0.098421943 -5.8758178e-07 0)
(0.098466058 5.7306496e-07 0)
(0.098433093 -5.2969353e-07 0)
(0.098455003 7.4947132e-07 0)
(0.098443315 -4.6939264e-07 0)
(0.093868811 0.0091896689 0)
(0.094739957 -0.0013667411 0)
(0.10261018 0.000742712 0)
(0.098929141 -7.8216647e-05 0)
(0.10237822 6.1384156e-05 0)
(0.10111147 -3.5253332e-05 0)
(0.10271176 2.615464e-05 0)
(0.10139989 8.5020203e-06 0)
(0.10271506 2.5129863e-06 0)
(0.10147882 4.1685534e-06 0)
(0.10261611 2.3549746e-07 0)
(0.10158275 -1.0323287e-06 0)