/*--------------------------------*- C++ -*----------------------------------*\
| =========                 |                                                 |
| \\      /  F ield         | OpenFOAM: The Open Source CFD Toolbox           |
|  \\    /   O peration     | Version:  2312                                  |
|   \\  /    A nd           | Website:  www.openfoam.com                      |
|    \\/     M anipulation  |                                                 |
\*---------------------------------------------------------------------------*/
FoamFile
{
    version     2.0;
    format      ascii;
    arch        "LSB;label=32;scalar=64";
    class       volScalarField;
    location    "2";
    object      p;
}
// * * * * * * * * * * * * * * * * * * * * * * * * * * * * * * * * * * * * * //

dimensions      [0 2 -2 0 0 0 0];

internalField   nonuniform List<scalar> 
4000
(
32.45542
30.954332
30.342071
29.316024
28.890644
27.989941
27.58333
26.726543
26.303657
25.47246
25.029584
24.219004
23.757411
22.964843
22.486492
21.709825
21.216566
20.453975
19.947488
19.197357
18.67916
17.940042
17.411499
16.682099
16.144436
15.423593
14.877909
14.164581
13.611862
12.905113
12.34625
11.645235
11.08103
10.384983
9.8161665
9.1243906
8.5516304
7.8634848
7.2873962
6.6022886
6.0234429
5.3408206
4.7597536
4.0790959
3.4963152
2.8171263
2.233117
1.5549177
0.97014643
0.29246474
32.442645
30.952278
30.342561
29.316018
28.890632
27.989955
27.583324
26.726552
26.30365
25.472468
25.029577
24.219011
23.757405
22.964849
22.486486
21.709831
21.21656
20.45398
19.947483
19.197362
18.679155
17.940046
17.411495
16.682103
16.144432
15.423596
14.877905
14.164584
13.611859
12.905116
12.346247
11.645238
11.081027
10.384986
9.8161641
9.124393
8.5516282
7.863487
7.287394
6.6022906
6.0234408
5.3408226
4.7597517
4.0790978
3.4963133
2.8171282
2.2331151
1.5549196
0.97014449
0.29246805
32.427813
30.951319
30.343398
29.315954
28.890637
27.989962
27.583333
26.726551
26.303652
25.472466
25.029579
24.21901
23.757406
22.964848
22.486487
21.70983
21.216561
20.453979
19.947484
19.197361
18.679156
17.940045
17.411496
16.682102
16.144433
15.423596
14.877906
14.164583
13.61186
12.905116
12.346248
11.645237
11.081028
10.384985
9.8161646
9.1243925
8.5516286
7.8634866
7.2873944
6.6022902
6.0234412
5.3408222
4.759752
4.0790975
3.4963136
2.8171278
2.2331154
1.5549192
0.97014463
0.29246919
32.407293
30.949543
30.344273
29.315867
28.890644
27.989967
27.583344
26.726546
26.303657
25.472462
25.029583
24.219006
23.75741
22.964844
22.486491
21.709826
21.216565
20.453976
19.947487
19.197358
18.679159
17.940043
17.411498
16.6821
16.144435
15.423594
14.877908
14.164582
13.611862
12.905114
12.346249
11.645235
11.081029
10.384984
9.816166
9.1243911
8.55163
7.8634853
7.2873957
6.602289
6.0234424
5.340821
4.7597532
4.0790963
3.4963148
2.8171267
2.2331165
1.5549181
0.97014559
0.2924694
32.387799
30.947991
30.345087
29.31575
28.890647
27.989974
27.583353
26.726542
26.303662
25.472457
25.029587
24.219002
23.757413
22.964841
22.486494
21.709824
21.216567
20.453974
19.94749
19.197356
18.679161
17.940041
17.4115
16.682098
16.144437
15.423592
14.87791
14.16458
13.611863
12.905113
12.346251
11.645234
11.081031
10.384982
9.8161673
9.1243899
8.5516312
7.8634841
7.2873969
6.6022879
6.0234435
5.3408199
4.7597543
4.0790953
3.4963158
2.8171257
2.2331175
1.554917
0.97014651
0.29246949
32.371531
30.94576
30.345738
29.315597
28.890652
27.98998
27.58336
26.726538
26.303665
25.472454
25.02959
24.218999
23.757416
22.964838
22.486496
21.709821
21.216569
20.453972
19.947492
19.197354
18.679163
17.940039
17.411502
16.682096
16.144439
15.42359
14.877911
14.164579
13.611865
12.905111
12.346252
11.645233
11.081032
10.384981
9.8161683
9.1243889
8.5516321
7.8634832
7.2873977
6.602287
6.0234444
5.3408191
4.7597551
4.0790945
3.4963166
2.8171249
2.2331183
1.5549161
0.97014728
0.29246962
32.349783
30.943966
30.34628
29.315435
28.890671
27.989989
27.583366
26.726534
26.303668
25.472451
25.029592
24.218997
23.757418
22.964836
22.486498
21.709819
21.216571
20.45397
19.947493
19.197352
18.679164
17.940037
17.411503
16.682095
16.14444
15.423589
14.877912
14.164578
13.611866
12.90511
12.346253
11.645232
11.081032
10.38498
9.8161691
9.1243881
8.5516329
7.8634825
7.2873985
6.6022863
6.0234451
5.3408184
4.7597558
4.0790938
3.4963172
2.8171243
2.2331189
1.5549154
0.97014795
0.29246975
32.334457
30.94265
30.346356
29.315445
28.890731
27.990004
27.583372
26.726531
26.30367
25.472449
25.029594
24.218995
23.75742
22.964835
22.4865
21.709818
21.216573
20.453969
19.947495
19.197351
18.679166
17.940036
17.411504
16.682094
16.144441
15.423588
14.877913
14.164577
13.611866
12.90511
12.346254
11.645231
11.081033
10.38498
9.8161698
9.1243875
8.5516335
7.8634818
7.2873991
6.6022857
6.0234457
5.3408178
4.7597563
4.0790933
3.4963178
2.8171237
2.2331195
1.5549148
0.97014857
0.29246984
32.315724
30.941543
30.345688
29.315761
28.890843
27.990025
27.583378
26.726527
26.303671
25.472446
25.029596
24.218993
23.757422
22.964833
22.486501
21.709816
21.216574
20.453967
19.947496
19.19735
18.679167
17.940035
17.411505
16.682093
16.144442
15.423587
14.877914
14.164576
13.611867
12.905109
12.346254
11.645231
11.081034
10.384979
9.8161704
9.1243869
8.5516341
7.8634813
7.2873996
6.6022852
6.0234462
5.3408173
4.7597569
4.0790928
3.4963183
2.8171232
2.23312
1.5549142
0.97014915
0.2924699
32.302285
30.940095
30.345122
29.316021
28.890916
27.990033
27.583379
26.726523
26.303672
25.472444
25.029597
24.218992
23.757423
22.964832
22.486503
21.709815
21.216575
20.453966
19.947497
19.197349
18.679168
17.940034
17.411506
16.682092
16.144442
15.423587
14.877915
14.164575
13.611868
12.905108
12.346255
11.64523
11.081034
10.384979
9.816171
9.1243863
8.5516346
7.8634808
7.2874001
6.6022847
6.0234467
5.3408168
4.7597573
4.0790923
3.4963188
2.8171228
2.2331204
1.5549137
0.9701497
0.29246994
32.28613
30.937423
30.345641
29.315719
28.890845
27.990006
27.583369
26.726516
26.303672
25.472442
25.029598
24.21899
23.757424
22.96483
22.486504
21.709814
21.216576
20.453965
19.947498
19.197348
18.679168
17.940033
17.411507
16.682091
16.144443
15.423586
14.877915
14.164574
13.611869
12.905108
12.346255
11.645229
11.081035
10.384978
9.8161715
9.1243859
8.5516351
7.8634803
7.2874006
6.6022842
6.0234471
5.3408164
4.7597577
4.0790919
3.4963192
2.8171224
2.2331208
1.5549132
0.97015021
0.29246996
32.274956
30.935341
30.346172
29.315051
28.890706
27.989959
27.583353
26.726507
26.303671
25.472439
25.029599
24.218989
23.757425
22.964829
22.486505
21.709813
21.216577
20.453964
19.947499
19.197347
18.679169
17.940033
17.411508
16.682091
16.144444
15.423585
14.877916
14.164574
13.611869
12.905107
12.346256
11.645229
11.081035
10.384978
9.8161719
9.1243854
8.5516355
7.8634799
7.287401
6.6022839
6.0234475
5.340816
4.7597581
4.0790915
3.4963195
2.817122
2.2331211
1.5549128
0.9701507
0.29246996
32.262136
30.932709
30.34577
29.314557
28.890616
27.989919
27.583339
26.726499
26.30367
25.472437
25.0296
24.218987
23.757426
22.964828
22.486506
21.709812
21.216578
20.453964
19.9475
19.197346
18.67917
17.940032
17.411508
16.68209
16.144444
15.423585
14.877916
14.164573
13.61187
12.905107
12.346256
11.645228
11.081036
10.384977
9.8161723
9.124385
8.5516359
7.8634795
7.2874013
6.6022835
6.0234478
5.3408157
4.7597584
4.0790912
3.4963198
2.8171217
2.2331214
1.5549124
0.97015116
0.29246995
32.252113
30.930589
30.344705
29.314385
28.890595
27.989898
27.58333
26.726492
26.303669
25.472435
25.0296
24.218986
23.757427
22.964827
22.486507
21.709811
21.216579
20.453963
19.9475
19.197346
18.679171
17.940031
17.411509
16.68209
16.144445
15.423584
14.877917
14.164573
13.61187
12.905106
12.346257
11.645228
11.081036
10.384977
9.8161727
9.1243847
8.5516362
7.8634792
7.2874016
6.6022832
6.0234481
5.3408154
4.7597587
4.0790909
3.4963201
2.8171214
2.2331217
1.5549121
0.9701516
0.29246993
32.2444
30.927687
30.343104
29.314418
28.890602
27.989885
27.583323
26.726487
26.303668
25.472433
25.029601
24.218985
23.757428
22.964826
22.486507
21.70981
21.21658
20.453962
19.947501
19.197345
18.679171
17.940031
17.411509
16.682089
16.144445
15.423584
14.877917
14.164573
13.61187
12.905106
12.346257
11.645228
11.081037
10.384976
9.816173
9.1243844
8.5516365
7.8634789
7.2874019
6.6022829
6.0234484
5.3408151
4.759759
4.0790907
3.4963204
2.8171211
2.233122
1.5549118
0.97015202
0.2924699
32.233089
30.924923
30.341338
29.314433
28.890557
27.989857
27.583308
26.726478
26.303666
25.472431
25.029601
24.218984
23.757429
22.964826
22.486508
21.70981
21.21658
20.453962
19.947501
19.197344
18.679172
17.94003
17.41151
16.682089
16.144446
15.423583
14.877918
14.164572
13.611871
12.905105
12.346258
11.645227
11.081037
10.384976
9.8161733
9.1243841
8.5516368
7.8634787
7.2874022
6.6022827
6.0234486
5.3408149
4.7597592
4.0790904
3.4963206
2.8171209
2.2331222
1.5549116
0.97015241
0.29246985
32.225186
30.921774
30.339855
29.314208
28.890408
27.989801
27.583282
26.726464
26.303661
25.472427
25.029601
24.218983
23.757429
22.964825
22.486509
21.709809
21.216581
20.453961
19.947502
19.197344
18.679172
17.94003
17.41151
16.682088
16.144446
15.423583
14.877918
14.164572
13.611871
12.905105
12.346258
11.645227
11.081037
10.384976
9.8161735
9.1243838
8.551637
7.8634784
7.2874024
6.6022824
6.0234489
5.3408147
4.7597594
4.0790902
3.4963208
2.8171207
2.2331224
1.5549113
0.97015279
0.2924698
32.215937
30.918962
30.338859
29.313712
28.890171
27.989728
27.583248
26.726448
26.303655
25.472424
25.0296
24.218981
23.75743
22.964824
22.486509
21.709809
21.216581
20.45396
19.947502
19.197344
18.679173
17.940029
17.411511
16.682088
16.144447
15.423583
14.877918
14.164571
13.611871
12.905105
12.346258
11.645227
11.081037
10.384976
9.8161738
9.1243836
8.5516373
7.8634782
7.2874026
6.6022822
6.0234491
5.3408145
4.7597596
4.07909
3.496321
2.8171205
2.2331226
1.5549111
0.97015315
0.29246975
32.210253
30.916058
30.338131
29.31313
28.88992
27.989658
27.583214
26.726433
26.30365
25.47242
25.029599
24.21898
23.75743
22.964823
22.48651
21.709808
21.216582
20.45396
19.947503
19.197343
18.679173
17.940029
17.411511
16.682088
16.144447
15.423582
14.877919
14.164571
13.611872
12.905105
12.346258
11.645227
11.081038
10.384975
9.816174
9.1243834
8.5516375
7.863478
7.2874028
6.602282
6.0234493
5.3408143
4.7597598
4.0790898
3.4963212
2.8171203
2.2331228
1.5549109
0.97015348
0.29246969
32.203228
30.913574
30.337369
29.312647
28.889721
27.989606
27.583189
26.726423
26.303645
25.472417
25.029599
24.218979
23.75743
22.964822
22.48651
21.709807
21.216582
20.453959
19.947503
19.197343
18.679173
17.940029
17.411511
16.682087
16.144447
15.423582
14.877919
14.164571
13.611872
12.905104
12.346259
11.645226
11.081038
10.384975
9.8161742
9.1243832
8.5516377
7.8634778
7.287403
6.6022818
6.0234494
5.3408141
4.75976
4.0790896
3.4963214
2.8171201
2.2331229
1.5549108
0.97015381
0.29246963
32.198732
30.911185
30.336479
29.312279
28.889577
27.989569
27.583172
26.726419
26.303643
25.472416
25.029599
24.218978
23.75743
22.964822
22.486511
21.709807
21.216583
20.453959
19.947504
19.197342
18.679174
17.940028
17.411512
16.682087
16.144448
15.423582
14.877919
14.164571
13.611872
12.905104
12.346259
11.645226
11.081038
10.384975
9.8161744
9.124383
8.5516378
7.8634776
7.2874032
6.6022817
6.0234496
5.3408139
4.7597601
4.0790895
3.4963215
2.81712
2.2331231
1.5549106
0.97015411
0.29246957
32.193126
30.909159
30.335559
29.311966
28.889463
27.98954
27.583157
26.726418
26.303642
25.472414
25.029599
24.218977
23.757431
22.964821
22.486511
21.709806
21.216583
20.453959
19.947504
19.197342
18.679174
17.940028
17.411512
16.682087
16.144448
15.423582
14.877919
14.16457
13.611872
12.905104
12.346259
11.645226
11.081038
10.384975
9.8161746
9.1243828
8.551638
7.8634775
7.2874033
6.6022815
6.0234497
5.3408138
4.7597603
4.0790894
3.4963217
2.8171198
2.2331232
1.5549105
0.9701544
0.2924695
32.189522
30.907231
30.334679
29.311678
28.889364
27.989515
27.583143
26.72642
26.303642
25.472414
25.029599
24.218976
23.757431
22.964821
22.486511
21.709806
21.216583
20.453958
19.947504
19.197342
18.679174
17.940028
17.411512
16.682086
16.144448
15.423581
14.87792
14.16457
13.611873
12.905104
12.346259
11.645226
11.081038
10.384975
9.8161747
9.1243827
8.5516382
7.8634773
7.2874035
6.6022814
6.0234499
5.3408137
4.7597604
4.0790892
3.4963218
2.8171197
2.2331233
1.5549104
0.97015467
0.29246943
32.185085
30.90556
30.333877
29.311415
28.889276
27.989494
27.583128
26.726423
26.303643
25.472413
25.029599
24.218976
23.757431
22.96482
22.486511
21.709806
21.216584
20.453958
19.947505
19.197341
18.679175
17.940028
17.411513
16.682086
16.144448
15.423581
14.87792
14.16457
13.611873
12.905103
12.346259
11.645226
11.081039
10.384974
9.8161749
9.1243825
8.5516383
7.8634772
7.2874036
6.6022813
6.02345
5.3408135
4.7597605
4.0790891
3.4963219
2.8171196
2.2331234
1.5549102
0.97015493
0.29246937
32.182221
30.904013
30.333154
29.311179
28.889198
27.989475
27.583112
26.726427
26.303643
25.472413
25.029599
24.218975
23.757431
22.96482
22.486512
21.709805
21.216584
20.453958
19.947505
19.197341
18.679175
17.940027
17.411513
16.682086
16.144448
15.423581
14.87792
14.16457
13.611873
12.905103
12.34626
11.645225
11.081039
10.384974
9.816175
9.1243824
8.5516384
7.8634771
7.2874037
6.6022811
6.0234501
5.3408134
4.7597607
4.079089
3.496322
2.8171194
2.2331235
1.5549102
0.97015517
0.2924693
32.178731
30.902669
30.332509
29.310974
28.889132
27.98946
27.583096
26.726432
26.303645
25.472413
25.0296
24.218975
23.757432
22.964819
22.486512
21.709805
21.216584
20.453957
19.947505
19.197341
18.679175
17.940027
17.411513
16.682086
16.144449
15.423581
14.87792
14.16457
13.611873
12.905103
12.34626
11.645225
11.081039
10.384974
9.8161751
9.1243823
8.5516385
7.863477
7.2874038
6.602281
6.0234502
5.3408133
4.7597608
4.0790889
3.4963221
2.8171193
2.2331236
1.5549101
0.97015539
0.29246924
32.176459
30.901481
30.331947
29.310799
28.889076
27.989449
27.583081
26.726436
26.303646
25.472413
25.0296
24.218975
23.757432
22.964819
22.486512
21.709805
21.216584
20.453957
19.947505
19.197341
18.679175
17.940027
17.411513
16.682086
16.144449
15.423581
14.87792
14.16457
13.611873
12.905103
12.34626
11.645225
11.081039
10.384974
9.8161752
9.1243822
8.5516386
7.8634769
7.2874039
6.6022809
6.0234503
5.3408132
4.7597608
4.0790888
3.4963222
2.8171193
2.2331237
1.55491
0.9701556
0.29246918
32.173737
30.900439
30.331454
29.310652
28.889032
27.989441
27.583067
26.72644
26.303647
25.472415
25.029601
24.218974
23.757432
22.964819
22.486512
21.709804
21.216585
20.453957
19.947506
19.19734
18.679175
17.940027
17.411513
16.682085
16.144449
15.42358
14.87792
14.164569
13.611873
12.905103
12.34626
11.645225
11.081039
10.384974
9.8161753
9.1243821
8.5516387
7.8634768
7.287404
6.6022809
6.0234504
5.3408132
4.7597609
4.0790887
3.4963223
2.8171192
2.2331238
1.55491
0.97015579
0.29246912
32.17192
30.899561
30.331041
29.310531
28.888996
27.989437
27.583056
26.726443
26.303648
25.472416
25.029602
24.218974
23.757432
22.964818
22.486513
21.709804
21.216585
20.453957
19.947506
19.19734
18.679176
17.940027
17.411513
16.682085
16.144449
15.42358
14.877921
14.164569
13.611873
12.905103
12.34626
11.645225
11.081039
10.384974
9.8161754
9.124382
8.5516388
7.8634767
7.2874041
6.6022808
6.0234505
5.3408131
4.759761
4.0790886
3.4963224
2.8171191
2.2331238
1.5549099
0.97015597
0.29246907
32.169831
30.898773
30.330683
29.310433
28.88897
27.989434
27.583047
26.726446
26.303648
25.472418
25.029603
24.218974
23.757433
22.964818
22.486513
21.709804
21.216585
20.453956
19.947506
19.19734
18.679176
17.940026
17.411514
16.682085
16.144449
15.42358
14.877921
14.164569
13.611874
12.905103
12.34626
11.645225
11.081039
10.384974
9.8161755
9.1243819
8.5516389
7.8634766
7.2874042
6.6022807
6.0234505
5.340813
4.7597611
4.0790886
3.4963224
2.817119
2.2331239
1.5549099
0.97015613
0.29246902
32.168288
30.898123
30.330398
29.310358
28.888952
27.989434
27.58304
26.726449
26.303647
25.472421
25.029603
24.218974
23.757433
22.964818
22.486513
21.709804
21.216585
20.453956
19.947506
19.19734
18.679176
17.940026
17.411514
16.682085
16.144449
15.42358
14.877921
14.164569
13.611874
12.905103
12.34626
11.645225
11.081039
10.384974
9.8161756
9.1243819
8.551639
7.8634765
7.2874042
6.6022806
6.0234506
5.3408129
4.7597611
4.0790885
3.4963225
2.817119
2.2331239
1.5549098
0.97015626
0.29246897
32.16673
30.897563
30.330157
29.310302
28.888942
27.989436
27.583034
26.726452
26.303645
25.472423
25.029604
24.218974
23.757433
22.964818
22.486513
21.709803
21.216585
20.453956
19.947506
19.19734
18.679176
17.940026
17.411514
16.682085
16.144449
15.42358
14.877921
14.164569
13.611874
12.905103
12.34626
11.645225
11.081039
10.384974
9.8161757
9.1243818
8.551639
7.8634765
7.2874043
6.6022806
6.0234507
5.3408129
4.7597612
4.0790885
3.4963226
2.8171189
2.233124
1.5549098
0.97015638
0.29246893
32.165454
30.8971
30.329986
29.310267
28.888938
27.98944
27.583031
26.726455
26.303643
25.472426
25.029605
24.218974
23.757433
22.964817
22.486513
21.709803
21.216585
20.453956
19.947506
19.19734
18.679176
17.940026
17.411514
16.682085
16.14445
15.42358
14.877921
14.164569
13.611874
12.905102
12.34626
11.645225
11.081039
10.384974
9.8161757
9.1243817
8.5516391
7.8634764
7.2874044
6.6022805
6.0234507
5.3408128
4.7597612
4.0790884
3.4963226
2.8171189
2.233124
1.5549098
0.97015648
0.2924689
32.164307
30.896753
30.329853
29.310247
28.888941
27.989446
27.583029
26.726459
26.303641
25.472428
25.029606
24.218975
23.757433
22.964817
22.486513
21.709803
21.216585
20.453956
19.947506
19.19734
18.679176
17.940026
17.411514
16.682085
16.14445
15.42358
14.877921
14.164569
13.611874
12.905102
12.34626
11.645225
11.08104
10.384974
9.8161758
9.1243817
8.5516391
7.8634764
7.2874044
6.6022805
6.0234508
5.3408128
4.7597613
4.0790884
3.4963226
2.8171188
2.2331241
1.5549098
0.97015655
0.29246887
32.163372
30.896452
30.32978
29.310244
28.888949
27.989453
27.583029
26.726463
26.303639
25.472431
25.029607
24.218975
23.757434
22.964817
22.486513
21.709803
21.216585
20.453956
19.947506
19.197339
18.679176
17.940026
17.411514
16.682085
16.14445
15.42358
14.877921
14.164569
13.611874
12.905102
12.346261
11.645225
11.08104
10.384974
9.8161758
9.1243816
8.5516392
7.8634763
7.2874044
6.6022805
6.0234508
5.3408128
4.7597613
4.0790884
3.4963227
2.8171188
2.2331241
1.5549097
0.97015659
0.29246886
32.162559
30.896275
30.32973
29.31025
28.888961
27.989461
27.583029
26.726466
26.303637
25.472432
25.029608
24.218975
23.757434
22.964817
22.486513
21.709803
21.216585
20.453956
19.947506
19.197339
18.679176
17.940026
17.411514
16.682085
16.14445
15.42358
14.877921
14.164569
13.611874
12.905102
12.346261
11.645225
11.08104
10.384973
9.8161758
9.1243816
8.5516392
7.8634763
7.2874045
6.6022804
6.0234508
5.3408127
4.7597613
4.0790883
3.4963227
2.8171188
2.2331241
1.5549097
0.9701566
0.29246886
32.161999
30.896093
30.329722
29.310264
28.888974
27.989469
27.58303
26.72647
26.303635
25.472434
25.029609
24.218975
23.757434
22.964817
22.486513
21.709803
21.216585
20.453955
19.947506
19.197339
18.679176
17.940026
17.411514
16.682085
16.14445
15.42358
14.877921
14.164569
13.611874
12.905102
12.346261
11.645225
11.08104
10.384973
9.8161759
9.1243816
8.5516392
7.8634763
7.2874045
6.6022804
6.0234508
5.3408127
4.7597613
4.0790883
3.4963227
2.8171188
2.2331241
1.5549098
0.97015656
0.29246887
32.161516
30.896022
30.329716
29.310279
28.888988
27.989476
27.583032
26.726472
26.303634
25.472434
25.02961
24.218976
23.757434
22.964817
22.486513
21.709802
21.216585
20.453955
19.947506
19.197339
18.679176
17.940026
17.411514
16.682085
16.14445
15.42358
14.877921
14.164569
13.611874
12.905102
12.346261
11.645225
11.08104
10.384973
9.8161759
9.1243816
8.5516392
7.8634763
7.2874045
6.6022804
6.0234508
5.3408127
4.7597613
4.0790883
3.4963227
2.8171188
2.2331241
1.5549098
0.97015648
0.29246891
32.161307
30.895924
30.329732
29.310293
28.888998
27.989482
27.583034
26.726474
26.303634
25.472434
25.029611
24.218976
23.757434
22.964817
22.486513
21.709802
21.216585
20.453955
19.947506
19.197339
18.679176
17.940026
17.411514
16.682084
16.14445
15.42358
14.877921
14.164569
13.611874
12.905102
12.346261
11.645224
11.08104
10.384973
9.8161759
9.1243816
8.5516392
7.8634763
7.2874045
6.6022804
6.0234508
5.3408127
4.7597613
4.0790883
3.4963227
2.8171188
2.233124
1.5549098
0.97015638
0.29246895
32.1611
30.895957
30.329732
29.310298
28.889005
27.989485
27.583035
26.726475
26.303633
25.472434
25.029612
24.218976
23.757434
22.964817
22.486513
21.709802
21.216585
20.453955
19.947506
19.197339
18.679176
17.940026
17.411514
16.682084
16.14445
15.42358
14.877921
14.164569
13.611874
12.905102
12.346261
11.645225
11.08104
10.384973
9.8161759
9.1243816
8.5516392
7.8634763
7.2874045
6.6022804
6.0234508
5.3408128
4.7597613
4.0790884
3.4963226
2.8171188
2.233124
1.5549098
0.9701563
0.29246898
32.161141
30.89594
30.329743
29.310295
28.889006
27.989485
27.583035
26.726475
26.303633
25.472434
25.029612
24.218976
23.757434
22.964817
22.486513
21.709802
21.216585
20.453955
19.947506
19.197339
18.679176
17.940026
17.411514
16.682084
16.14445
15.42358
14.877921
14.164569
13.611874
12.905102
12.346261
11.645225
11.08104
10.384973
9.8161759
9.1243816
8.5516392
7.8634763
7.2874045
6.6022804
6.0234508
5.3408128
4.7597613
4.0790884
3.4963226
2.8171188
2.233124
1.5549098
0.9701563
0.29246898
32.161158
30.896044
30.329734
29.31028
28.889001
27.989483
27.583034
26.726475
26.303634
25.472434
25.029611
24.218976
23.757434
22.964817
22.486513
21.709802
21.216585
20.453955
19.947506
19.197339
18.679176
17.940026
17.411514
16.682084
16.14445
15.42358
14.877921
14.164569
13.611874
12.905102
12.346261
11.645224
11.08104
10.384973
9.8161759
9.1243816
8.5516392
7.8634763
7.2874045
6.6022804
6.0234508
5.3408127
4.7597613
4.0790883
3.4963227
2.8171188
2.233124
1.5549098
0.97015638
0.29246895
32.161432
30.896117
30.32974
29.310262
28.888992
27.989479
27.583033
26.726473
26.303634
25.472434
25.029611
24.218976
23.757434
22.964817
22.486513
21.709802
21.216585
20.453955
19.947506
19.197339
18.679176
17.940026
17.411514
16.682085
16.14445
15.42358
14.877921
14.164569
13.611874
12.905102
12.346261
11.645225
11.08104
10.384973
9.8161759
9.1243816
8.5516392
7.8634763
7.2874045
6.6022804
6.0234508
5.3408127
4.7597613
4.0790883
3.4963227
2.8171188
2.2331241
1.5549098
0.97015648
0.29246891
32.161736
30.89633
30.329736
29.310239
28.888981
27.989473
27.583032
26.726471
26.303635
25.472434
25.02961
24.218975
23.757434
22.964817
22.486513
21.709803
21.216585
20.453955
19.947506
19.197339
18.679176
17.940026
17.411514
16.682085
16.14445
15.42358
14.877921
14.164569
13.611874
12.905102
12.346261
11.645225
11.08104
10.384973
9.8161759
9.1243816
8.5516392
7.8634763
7.2874045
6.6022804
6.0234508
5.3408127
4.7597613
4.0790883
3.4963227
2.8171188
2.2331241
1.5549098
0.97015656
0.29246887
32.162332
30.896496
30.329768
29.31022
28.88897
27.989466
27.583032
26.726468
26.303637
25.472433
25.029608
24.218975
23.757434
22.964817
22.486513
21.709803
21.216585
20.453956
19.947506
19.197339
18.679176
17.940026
17.411514
16.682085
16.14445
15.42358
14.877921
14.164569
13.611874
12.905102
12.346261
11.645225
11.08104
10.384973
9.8161758
9.1243816
8.5516392
7.8634763
7.2874045
6.6022804
6.0234508
5.3408127
4.7597613
4.0790883
3.4963227
2.8171188
2.2331241
1.5549097
0.9701566
0.29246886
32.163005
30.896807
30.329809
29.310206
28.888961
27.989459
27.583032
26.726464
26.303639
25.472431
25.029607
24.218975
23.757434
22.964817
22.486513
21.709803
21.216585
20.453956
19.947506
19.197339
18.679176
17.940026
17.411514
16.682085
16.14445
15.42358
14.877921
14.164569
13.611874
12.905102
12.346261
11.645225
11.08104
10.384974
9.8161758
9.1243816
8.5516392
7.8634763
7.2874044
6.6022805
6.0234508
5.3408128
4.7597613
4.0790884
3.4963227
2.8171188
2.2331241
1.5549097
0.97015659
0.29246886
32.163935
30.897103
30.329907
29.310205
28.888955
27.989453
27.583033
26.726461
26.303642
25.472429
25.029606
24.218975
23.757433
22.964817
22.486513
21.709803
21.216585
20.453956
19.947506
19.19734
18.679176
17.940026
17.411514
16.682085
16.14445
15.42358
14.877921
14.164569
13.611874
12.905102
12.34626
11.645225
11.08104
10.384974
9.8161758
9.1243817
8.5516391
7.8634764
7.2874044
6.6022805
6.0234508
5.3408128
4.7597613
4.0790884
3.4963226
2.8171188
2.2331241
1.5549098
0.97015655
0.29246887
32.164965
30.89756
30.33003
29.310217
28.888954
27.989449
27.583035
26.726457
26.303644
25.472426
25.029605
24.218974
23.757433
22.964817
22.486513
21.709803
21.216585
20.453956
19.947506
19.19734
18.679176
17.940026
17.411514
16.682085
16.14445
15.42358
14.877921
14.164569
13.611874
12.905102
12.34626
11.645225
11.081039
10.384974
9.8161757
9.1243817
8.5516391
7.8634764
7.2874044
6.6022805
6.0234507
5.3408128
4.7597612
4.0790884
3.4963226
2.8171189
2.233124
1.5549098
0.97015648
0.2924689
32.166263
30.898047
30.330226
29.310248
28.88896
27.989446
27.583039
26.726454
26.303646
25.472423
25.029605
24.218974
23.757433
22.964818
22.486513
21.709803
21.216585
20.453956
19.947506
19.19734
18.679176
17.940026
17.411514
16.682085
16.144449
15.42358
14.877921
14.164569
13.611874
12.905103
12.34626
11.645225
11.081039
10.384974
9.8161757
9.1243818
8.551639
7.8634765
7.2874043
6.6022806
6.0234507
5.3408129
4.7597612
4.0790885
3.4963226
2.8171189
2.233124
1.5549098
0.97015638
0.29246893
32.167583
30.898675
30.330455
29.310297
28.888973
27.989446
27.583045
26.726451
26.303648
25.472421
25.029604
24.218974
23.757433
22.964818
22.486513
21.709804
21.216585
20.453956
19.947506
19.19734
18.679176
17.940026
17.411514
16.682085
16.144449
15.42358
14.877921
14.164569
13.611874
12.905103
12.34626
11.645225
11.081039
10.384974
9.8161756
9.1243819
8.551639
7.8634765
7.2874042
6.6022806
6.0234506
5.3408129
4.7597611
4.0790885
3.4963225
2.817119
2.2331239
1.5549098
0.97015626
0.29246897
32.169369
30.899389
30.330766
29.310368
28.888994
27.989448
27.583053
26.726449
26.303649
25.472419
25.029603
24.218974
23.757433
22.964818
22.486513
21.709804
21.216585
20.453956
19.947506
19.19734
18.679176
17.940026
17.411514
16.682085
16.144449
15.42358
14.877921
14.164569
13.611874
12.905103
12.34626
11.645225
11.081039
10.384974
9.8161755
9.1243819
8.5516389
7.8634766
7.2874042
6.6022807
6.0234505
5.340813
4.7597611
4.0790886
3.4963224
2.817119
2.2331239
1.5549099
0.97015613
0.29246902
32.170936
30.900219
30.331115
29.31046
28.889023
27.989451
27.583063
26.726446
26.303649
25.472417
25.029602
24.218974
23.757432
22.964818
22.486513
21.709804
21.216585
20.453957
19.947506
19.19734
18.679176
17.940027
17.411513
16.682085
16.144449
15.42358
14.877921
14.164569
13.611873
12.905103
12.34626
11.645225
11.081039
10.384974
9.8161754
9.124382
8.5516388
7.8634767
7.2874041
6.6022808
6.0234505
5.3408131
4.759761
4.0790886
3.4963224
2.8171191
2.2331238
1.5549099
0.97015597
0.29246907
32.173332
30.901177
30.331551
29.310576
28.889061
27.989458
27.583075
26.726443
26.303648
25.472415
25.029601
24.218974
23.757432
22.964819
22.486512
21.709804
21.216585
20.453957
19.947506
19.19734
18.679175
17.940027
17.411513
16.682085
16.144449
15.42358
14.87792
14.164569
13.611873
12.905103
12.34626
11.645225
11.081039
10.384974
9.8161753
9.1243821
8.5516387
7.8634768
7.287404
6.6022809
6.0234504
5.3408132
4.7597609
4.0790887
3.4963223
2.8171192
2.2331238
1.55491
0.97015579
0.29246912
32.175254
30.902281
30.332041
29.310717
28.889109
27.989467
27.58309
26.72644
26.303647
25.472414
25.029601
24.218975
23.757432
22.964819
22.486512
21.709805
21.216584
20.453957
19.947505
19.197341
18.679175
17.940027
17.411513
16.682086
16.144449
15.423581
14.87792
14.16457
13.611873
12.905103
12.34626
11.645225
11.081039
10.384974
9.8161752
9.1243822
8.5516386
7.8634769
7.2874039
6.6022809
6.0234503
5.3408132
4.7597608
4.0790888
3.4963222
2.8171193
2.2331237
1.55491
0.9701556
0.29246918
32.178376
30.90353
30.332623
29.310887
28.889166
27.989479
27.583106
26.726436
26.303646
25.472413
25.0296
24.218975
23.757432
22.964819
22.486512
21.709805
21.216584
20.453957
19.947505
19.197341
18.679175
17.940027
17.411513
16.682086
16.144449
15.423581
14.87792
14.16457
13.611873
12.905103
12.34626
11.645225
11.081039
10.384974
9.8161751
9.1243823
8.5516385
7.863477
7.2874038
6.602281
6.0234502
5.3408133
4.7597608
4.0790889
3.4963221
2.8171193
2.2331236
1.5549101
0.97015539
0.29246924
32.180832
30.90498
30.333274
29.311088
28.889235
27.989496
27.583122
26.726432
26.303645
25.472413
25.0296
24.218975
23.757431
22.96482
22.486512
21.709805
21.216584
20.453958
19.947505
19.197341
18.679175
17.940027
17.411513
16.682086
16.144448
15.423581
14.87792
14.16457
13.611873
12.905103
12.34626
11.645225
11.081039
10.384974
9.816175
9.1243824
8.5516384
7.8634771
7.2874037
6.6022811
6.0234501
5.3408134
4.7597607
4.079089
3.496322
2.8171194
2.2331235
1.5549102
0.97015517
0.2924693
32.184875
30.906566
30.334018
29.31132
28.889316
27.989516
27.583139
26.726428
26.303644
25.472414
25.029599
24.218976
23.757431
22.96482
22.486512
21.709806
21.216584
20.453958
19.947505
19.197341
18.679175
17.940028
17.411513
16.682086
16.144448
15.423581
14.87792
14.16457
13.611873
12.905103
12.346259
11.645226
11.081039
10.384974
9.8161749
9.1243825
8.5516383
7.8634772
7.2874036
6.6022813
6.02345
5.3408135
4.7597605
4.0790891
3.4963219
2.8171196
2.2331234
1.5549102
0.97015493
0.29246937
32.188019
30.908411
30.334841
29.31158
28.889406
27.989538
27.583154
26.726425
26.303644
25.472414
25.029599
24.218977
23.757431
22.964821
22.486511
21.709806
21.216583
20.453958
19.947504
19.197342
18.679174
17.940028
17.411512
16.682086
16.144448
15.423581
14.87792
14.16457
13.611873
12.905104
12.346259
11.645226
11.081038
10.384975
9.8161747
9.1243827
8.5516382
7.8634773
7.2874035
6.6022814
6.0234499
5.3408137
4.7597604
4.0790892
3.4963218
2.8171197
2.2331233
1.5549104
0.97015467
0.29246943
32.19324
30.910383
30.33574
29.311865
28.889507
27.989564
27.583169
26.726424
26.303644
25.472415
25.029599
24.218977
23.757431
22.964821
22.486511
21.709806
21.216583
20.453959
19.947504
19.197342
18.679174
17.940028
17.411512
16.682087
16.144448
15.423582
14.877919
14.16457
13.611872
12.905104
12.346259
11.645226
11.081038
10.384975