/*--------------------------------*- C++ -*----------------------------------*\
| =========                 |                                                 |
| \\      /  F ield         | OpenFOAM: The Open Source CFD Toolbox           |
|  \\    /   O peration     | Version:  2312                                  |
|   \\  /    A nd           | Website:  www.openfoam.com                      |
|    \\/     M anipulation  |                                                 |
\*---------------------------------------------------------------------------*/
FoamFile
{
    version     2.0;
    format      ascii;
    arch        "LSB;label=32;scalar=64";
    class       surfaceScalarField;
    location    "2";
    object      phi_0;
}
// * * * * * * * * * * * * * * * * * * * * * * * * * * * * * * * * * * * * * //

dimensions      [0 3 -1 0 0 0 0];

oriented        oriented;

internalField   nonuniform List<scalar> 
7870
(
1.3305318e-10
2.8151968e-09
1.3356503e-10
-5.1185888e-13
1.1285683e-10
2.0708206e-11
1.1389353e-10
-1.0367034e-12
1.1436447e-10
-4.7094032e-13
1.1283939e-10
1.5250798e-12
1.1382748e-10
-9.8809543e-13
1.1262282e-10
1.204661e-12
1.1372573e-10
-1.1029032e-12
1.1263882e-10
1.0869079e-12
1.136661e-10
-1.0272771e-12
1.1268159e-10
9.8451041e-13
1.1361291e-10
-9.3132022e-13
1.127258e-10
8.8711326e-13
1.135668e-10
-8.4100679e-13
1.1276687e-10
7.9993345e-13
1.1352664e-10
-7.5976429e-13
1.1280382e-10
7.2281594e-13
1.1349136e-10
-6.8754136e-13
1.1283667e-10
6.5469011e-13
1.1346029e-10
-6.2361727e-13
1.1286573e-10
5.945584e-13
1.1343291e-10
-5.6717908e-13
1.1289136e-10
5.4155369e-13
1.1340881e-10
-5.1745867e-13
1.129139e-10
4.9491752e-13
1.1338765e-10
-4.7375644e-13
1.1293367e-10
4.539858e-13
1.1336913e-10
-4.3545795e-13
1.1295094e-10
4.1818051e-13
1.1335297e-10
-4.0202611e-13
1.1296597e-10
3.8700254e-13
1.1333897e-10
-3.7299817e-13
1.1297894e-10
3.6002251e-13
1.1332692e-10
-3.4797988e-13
1.1299005e-10
3.3687814e-13
1.1331668e-10
-3.2663588e-13
1.1299942e-10
3.1726206e-13
1.1330811e-10
-3.0868669e-13
1.1300719e-10
3.0091857e-13
1.1330109e-10
-2.9390205e-13
1.1301345e-10
2.8764062e-13
1.1329554e-10
-2.8208672e-13
1.1301825e-10
2.7728187e-13
1.1329132e-10
-2.7306679e-13
1.130217e-10
2.6961842e-13
1.1328925e-10
-2.6754483e-13
1.1302791e-10
2.613373e-13
1.1330202e-10
-2.7411305e-13
2.5360038e-13
3.5517338e-10
5.4082734e-09
3.8106002e-10
-2.6398511e-11
3.3011739e-10
7.165085e-11
3.306749e-10
-1.5942235e-12
3.3095846e-10
-7.5449646e-13
3.285071e-10
3.9764382e-12
3.2951687e-10
-1.9978655e-12
3.2777425e-10
2.9472804e-12
3.293109e-10
-2.6395455e-12
3.2774844e-10
2.6493626e-12
3.2922339e-10
-2.5022214e-12
3.2779903e-10
2.4088776e-12
3.2914277e-10
-2.2750671e-12
3.2785909e-10
2.1707975e-12
3.2907428e-10
-2.0561987e-12
3.279172e-10
1.9570126e-12
3.2901563e-10
-1.8581863e-12
3.2797021e-10
1.7682365e-12
3.2896452e-10
-1.681855e-12
3.2801756e-10
1.6016509e-12
3.2891964e-10
-1.525696e-12
3.2805952e-10
1.4546749e-12
3.2888013e-10
-1.3877877e-12
3.2809655e-10
1.3251329e-12
3.2884537e-10
-1.2662759e-12
3.2812914e-10
1.2111467e-12
3.2881484e-10
-1.1594522e-12
3.2815773e-10
1.1110901e-12
3.2878809e-10
-1.0658192e-12
3.2818273e-10
1.0235466e-12
3.2876477e-10
-9.8406636e-13
3.2820447e-10
9.4729982e-13
3.2874453e-10
-9.1306406e-13
3.2822326e-10
8.8130149e-13
3.2872713e-10
-8.5185413e-13
3.2823934e-10
8.2466997e-13
3.2871232e-10
-7.9961679e-13
3.2825292e-10
7.7665728e-13
3.2869991e-10
-7.5567305e-13
3.2826419e-10
7.3663826e-13
3.2868975e-10
-7.1946302e-13
3.2827328e-10
7.0410866e-13
3.286817e-10
-6.9050404e-13
3.2828025e-10
6.7873167e-13
3.2867548e-10
-6.6829752e-13
3.2828505e-10
6.6005337e-13
3.286723e-10
-6.5480276e-13
3.2829597e-10
6.3767529e-13
3.2870382e-10
-6.8197083e-13
6.2005751e-13
5.5898458e-10
7.7975389e-09
6.1532502e-10
-8.2738962e-11
5.4124417e-10
1.4573171e-10
5.4206004e-10
-2.4101025e-12
5.4158654e-10
-2.809965e-13
5.3891446e-10
6.6485169e-12
5.3932647e-10
-2.4098668e-12
5.3769468e-10
4.579071e-12
5.3907474e-10
-4.0195993e-12
5.3761048e-10
4.1136204e-12
5.3899443e-10
-3.8861674e-12
5.3764396e-10
3.7593507e-12
5.389136e-10
-3.5447082e-12
5.3769586e-10
3.3885459e-12
5.3884638e-10
-3.206724e-12
5.3774926e-10
3.0541328e-12
5.3879007e-10
-2.8989949e-12
5.3779893e-10
2.7593801e-12
5.3874152e-10
-2.6244463e-12
5.378436e-10
2.4995731e-12
5.3869905e-10
-2.3811526e-12
5.3788328e-10
2.2704491e-12
5.3866172e-10
-2.1662282e-12
5.3791833e-10
2.0685214e-12
5.3862888e-10
-1.9768222e-12
5.379492e-10
1.8908252e-12
5.3860002e-10
-1.8102736e-12
5.379763e-10
1.7348155e-12
5.3857474e-10
-1.6642583e-12
5.38e-10
1.598285e-12
5.3855267e-10
-1.5367362e-12
5.3802063e-10
1.479341e-12
5.3853351e-10
-1.4259498e-12
5.3803846e-10
1.3763512e-12
5.3851702e-10
-1.3304148e-12
5.3805374e-10
1.2879514e-12
5.3850298e-10
-1.248854e-12
5.3806666e-10
1.2129764e-12
5.384912e-10
-1.1802135e-12
5.3807738e-10
1.1504552e-12
5.3848155e-10
-1.1236282e-12
5.3808605e-10
1.0996014e-12
5.3847388e-10
-1.0783326e-12
5.3809269e-10
1.0599251e-12
5.3846782e-10
-1.0434254e-12
5.3809704e-10
1.0308353e-12
5.3846468e-10
-1.022447e-12
5.3811037e-10
9.9198198e-13
5.3851227e-10
-1.0838665e-12
9.6749137e-13
7.6967326e-10
9.9761156e-09
8.4009919e-10
-1.5316491e-10
7.4636375e-10
2.3946716e-10
7.4767425e-10
-3.7206218e-12
7.4660099e-10
7.9227354e-13
7.4370217e-10
9.5473293e-12
7.4358137e-10
-2.2890572e-12
7.4207914e-10
6.0812965e-12
7.4330897e-10
-5.2494205e-12
7.4195024e-10
5.4723485e-12
7.4324134e-10
-5.1772646e-12
7.4196919e-10
5.0315071e-12
7.4316135e-10
-4.7368646e-12
7.4201335e-10
4.5365478e-12
7.4309584e-10
-4.2892137e-12
7.4206202e-10
4.0879516e-12
7.4304212e-10
-3.8790946e-12
7.4210822e-10
3.6932821e-12
7.4299628e-10
-3.5125094e-12
7.4215006e-10
3.3457965e-12
7.4295635e-10
-3.1874436e-12
7.4218733e-10
3.0394726e-12
7.4292128e-10
-2.9001859e-12
7.4222028e-10
2.7695259e-12
7.4289044e-10
-2.6469818e-12
7.4224932e-10
2.5319415e-12
7.4286333e-10
-2.424279e-12
7.4227483e-10
2.3233137e-12
7.4283956e-10
-2.2289841e-12
7.4229715e-10
2.140686e-12
7.4281879e-10
-2.0583769e-12
7.423166e-10
1.981538e-12
7.4280076e-10
-1.9101117e-12
7.4233342e-10
1.843691e-12
7.4278522e-10
-1.7822188e-12
7.4234784e-10
1.7253312e-12
7.4277198e-10
-1.6729897e-12
7.4236005e-10
1.6249084e-12
7.4276086e-10
-1.5810251e-12
7.4237019e-10
1.5411232e-12
7.4275174e-10
-1.5051746e-12
7.4237841e-10
1.472926e-12
7.4274448e-10
-1.4443977e-12
7.423847e-10
1.4196998e-12
7.4273859e-10
-1.3973122e-12
7.4238858e-10
1.3808424e-12
7.4273525e-10
-1.3691171e-12
7.4240329e-10
1.3239452e-12
7.427952e-10
-1.4757762e-12
1.2953502e-12
9.4924955e-10
1.1975116e-08
1.0523088e-09
-2.5622416e-10
9.4557171e-10
3.4620424e-10
9.4763673e-10
-5.7856493e-12
9.4597127e-10
2.4577404e-12
9.4285438e-10
1.2664211e-11
9.4227783e-10
-1.7125017e-12
9.4092766e-10
7.4314718e-12
9.4201343e-10
-6.3351861e-12
9.4076733e-10
6.7184483e-12
9.4196386e-10
-6.3737939e-12
9.4077423e-10
6.2211364e-12
9.4188575e-10
-5.8483794e-12
9.4081111e-10
5.6111919e-12
9.4182242e-10
-5.300524e-12
9.4085506e-10
5.0553142e-12
9.4177156e-10
-4.7955942e-12
9.4089769e-10
4.5671444e-12
9.417286e-10
-4.3434203e-12
9.4093659e-10
4.1378079e-12
9.4169134e-10
-3.9421862e-12
9.4097134e-10
3.7594685e-12
9.4165865e-10
-3.5874908e-12
9.410021e-10
3.4260706e-12
9.4162989e-10
-3.2747712e-12
9.4102923e-10
3.1325983e-12
9.416046e-10
-2.9996474e-12
9.4105308e-10
2.8748372e-12
9.4158242e-10
-2.7583213e-12
9.4107396e-10
2.6491398e-12
9.4156303e-10
-2.5474406e-12
9.4109216e-10
2.452401e-12
9.4154617e-10
-2.3641146e-12
9.4110792e-10
2.281935e-12
9.4153163e-10
-2.20593e-12
9.4112144e-10
2.1355195e-12
9.4151923e-10
-2.0707761e-12
9.411329e-10
2.0112419e-12
9.415088e-10
-1.9569329e-12
9.4114243e-10
1.9075026e-12
9.4150024e-10
-1.8629926e-12
9.4115017e-10
1.8230007e-12
9.4149342e-10
-1.787646e-12
9.411561e-10
1.7570194e-12
9.4148775e-10
-1.7289593e-12
9.4115951e-10
1.7090774e-12
9.4148412e-10
-1.6937244e-12
9.411749e-10
1.6331603e-12
9.4155332e-10
-1.8541945e-12
1.6010175e-12
1.1402348e-09
1.3783131e-08
1.2561447e-09
-3.7213409e-10
1.1388583e-09
4.6349059e-10
1.1419318e-09
-8.8591377e-12
1.139667e-09
4.7226044e-12
1.1363654e-09
1.5965777e-11
1.1354137e-09
-7.6076369e-13
1.134241e-09
8.6040884e-12
1.1351891e-09
-7.2832248e-12
1.1340616e-09
7.8459052e-12
1.1351626e-09
-7.4747076e-12
1.1340589e-09
7.3248172e-12
1.1350872e-09
-6.8767519e-12
1.1340889e-09
6.609533e-12
1.1350265e-09
-6.2381123e-12
1.1341282e-09
5.9536527e-12
1.1349787e-09
-5.646141e-12
1.1341672e-09
5.3786866e-12
1.1349388e-09
-5.1150321e-12
1.134203e-09
4.8735515e-12
1.1349043e-09
-4.6434226e-12
1.1342352e-09
4.4285656e-12
1.134874e-09
-4.2263515e-12
1.1342637e-09
4.0364443e-12
1.1348474e-09
-3.8585458e-12
1.1342888e-09
3.6912182e-12
1.134824e-09
-3.5348658e-12
1.1343109e-09
3.3879361e-12
1.1348035e-09
-3.2508708e-12
1.1343303e-09
3.122302e-12
1.1347855e-09
-3.0026309e-12
1.1343472e-09
2.8906814e-12
1.1347699e-09
-2.7867528e-12
1.1343619e-09
2.6899226e-12
1.1347564e-09
-2.6004238e-12
1.1343745e-09
2.5174277e-12
1.1347448e-09
-2.4411583e-12
1.1343851e-09
2.3709586e-12
1.1347351e-09
-2.3069485e-12
1.134394e-09
2.2486325e-12
1.1347272e-09
-2.1961482e-12
1.1344013e-09
2.148918e-12
1.1347208e-09
-2.1071922e-12
1.1344068e-09
2.0710149e-12
1.1347154e-09
-2.0375365e-12
1.1344098e-09
2.0147096e-12
1.1347114e-09
-1.9954001e-12
1.1344253e-09
1.9192972e-12
1.1347871e-09
-2.2160461e-12
1.8822484e-12
1.3093706e-09
1.5422011e-08
1.4472456e-09
-5.1000919e-10
1.3264062e-09
5.8433008e-10
1.330563e-09
-1.3015998e-11
1.3276462e-09
7.6393921e-12
1.324244e-09
1.9368e-11
1.3229896e-09
4.9364852e-13
1.3220207e-09
9.5729633e-12
1.3228371e-09
-8.099598e-12
1.321833e-09
8.8500131e-12
1.3228379e-09
-8.4796328e-12
1.3218228e-09
8.3399489e-12
1.3227662e-09
-7.8201816e-12
1.3218464e-09
7.5293248e-12
1.3227084e-09
-7.1000805e-12
1.321881e-09
6.7810145e-12
1.3226639e-09
-6.4289546e-12
1.3219164e-09
6.1261688e-12
1.322627e-09
-5.8257066e-12
1.3219491e-09
5.5514492e-12
1.3225954e-09
-5.2896451e-12
1.3219786e-09
5.0453184e-12
1.3225676e-09
-4.8153784e-12
1.3220048e-09
4.5993127e-12
1.3225433e-09
-4.397021e-12
1.3220279e-09
4.2065713e-12
1.3225218e-09
-4.0287416e-12
1.3220482e-09
3.8614626e-12
1.3225029e-09
-3.7055257e-12
1.3220661e-09
3.5591075e-12
1.3224864e-09
-3.4229165e-12
1.3220817e-09
3.295386e-12
1.322472e-09
-3.1770635e-12
1.3220952e-09
3.0667221e-12
1.3224596e-09
-2.9647985e-12
1.3221068e-09
2.870186e-12
1.3224489e-09
-2.7832913e-12
1.3221167e-09
2.703236e-12
1.32244e-09
-2.6302712e-12
1.3221249e-09
2.5637377e-12
1.3224326e-09
-2.5038845e-12
1.3221316e-09
2.449941e-12
1.3224267e-09
-2.4023194e-12
1.3221368e-09
2.3609838e-12
1.3224216e-09
-2.3223762e-12
1.3221392e-09
2.2970598e-12
1.3224173e-09
-2.2734716e-12
1.3221545e-09
2.1821068e-12
1.3224971e-09
-2.5586725e-12
2.1376119e-12
1.4804085e-09
1.6889852e-08
1.6305145e-09
-6.6011525e-10
1.5082329e-09
7.0661167e-10
1.5133082e-09
-1.8091242e-11
1.5098799e-09
1.106766e-11
1.5064847e-09
2.2763249e-11
1.5050019e-09
1.9763693e-12
1.504265e-09
1.0309885e-11
1.5049572e-09
-8.7918043e-12
1.5040807e-09
9.7265557e-12
1.5049902e-09
-9.3891068e-12
1.5040656e-09
9.2645135e-12
1.504923e-09
-8.6775463e-12
1.5040834e-09
8.3689124e-12
1.5048684e-09
-7.8851037e-12
1.5041134e-09
7.5359846e-12
1.5048272e-09
-7.1427594e-12
1.5041451e-09
6.8083285e-12
1.5047936e-09
-6.4742507e-12
1.5041747e-09
6.1703463e-12
1.5047648e-09
-5.8797441e-12
1.5042015e-09
5.608657e-12
1.5047396e-09
-5.3535376e-12
1.5042253e-09
5.1136823e-12
1.5047175e-09
-4.8892314e-12
1.5042463e-09
4.6777232e-12
1.504698e-09
-4.4803743e-12
1.5042649e-09
4.2945495e-12
1.5046808e-09
-4.121441e-12
1.5042812e-09
3.9587396e-12
1.5046658e-09
-3.8075051e-12
1.5042954e-09
3.665747e-12
1.5046526e-09
-3.5343014e-12
1.5043077e-09
3.4116144e-12
1.5046413e-09
-3.2983526e-12
1.5043184e-09
3.193111e-12
1.5046316e-09
-3.0965106e-12
1.5043274e-09
3.0074328e-12
1.5046234e-09
-2.9262768e-12
1.5043349e-09
2.8522092e-12
1.5046166e-09
-2.7856088e-12
1.5043411e-09
2.7254941e-12
1.5046112e-09
-2.6724648e-12
1.5043459e-09
2.6263737e-12
1.5046064e-09
-2.5829588e-12
1.5043479e-09
2.5555928e-12
1.5046019e-09
-2.5274341e-12
1.5043626e-09
2.4214103e-12
1.5046837e-09
-2.8797858e-12
2.3663098e-12
1.6395468e-09
1.8198555e-08
1.8002907e-09
-8.2085909e-10
1.6838807e-09
8.2302169e-10
1.6894121e-09
-2.3622735e-11
1.6863108e-09
1.4169023e-11
1.6831295e-09
2.5944503e-11
1.6814787e-09
3.6272424e-12
1.6809862e-09
1.080237e-11
1.6815555e-09
-9.3611593e-12
1.6808067e-09
1.0475435e-11
1.6816205e-09
-1.0202906e-11
1.6807874e-09
1.0097613e-11
1.6815579e-09
-9.4480709e-12
1.6807995e-09
9.1272484e-12
1.6815068e-09
-8.5923313e-12
1.6808251e-09
8.2176304e-12
1.6814691e-09
-7.7867183e-12
1.6808531e-09
7.4243209e-12
1.6814387e-09
-7.0598649e-12
1.6808796e-09
6.7294576e-12
1.6814128e-09
-6.4129595e-12
1.6809036e-09
6.1178433e-12
1.6813902e-09
-5.8401088e-12
1.680925e-09
5.5788526e-12
1.6813703e-09
-5.3344947e-12
1.680944e-09
5.1040176e-12
1.6813527e-09
-4.8891151e-12
1.6809607e-09
4.6865664e-12
1.6813373e-09
-4.4980044e-12
1.6809754e-09
4.3206056e-12
1.6813237e-09
-4.1558167e-12
1.6809883e-09
4.0012037e-12
1.6813119e-09
-3.8579182e-12
1.6809994e-09
3.7240649e-12
1.6813017e-09
-3.6005668e-12
1.6810091e-09
3.4857025e-12
1.6812929e-09
-3.3803269e-12
1.6810172e-09
3.2830693e-12
1.6812855e-09
-3.1944963e-12
1.6810241e-09
3.1135937e-12
1.6812793e-09
-3.0408764e-12
1.6810297e-09
2.9751443e-12
1.6812744e-09
-2.9172077e-12
1.681034e-09
2.8667736e-12
1.68127e-09
-2.8189008e-12
1.6810357e-09
2.7899008e-12
1.6812652e-09
-2.7569353e-12
1.6810495e-09
2.6371073e-12
1.6813471e-09
-3.1774333e-12
2.5679983e-12
1.7881357e-09
1.935867e-08
1.9636604e-09
-9.9638381e-10
1.8542329e-09
9.3244917e-10
1.8580386e-09
-2.7428427e-11
1.8565958e-09
1.5611867e-11
1.8540904e-09
2.844983e-11
1.8523887e-09
5.3289459e-12
1.852172e-09
1.1019139e-11
1.8526274e-09
-9.8165975e-12
1.8520086e-09
1.1094285e-11
1.8527282e-09
-1.0922548e-11
1.8519875e-09
1.0838351e-11
1.8526711e-09
-1.0131688e-11
1.8519947e-09
9.803676e-12
1.8526237e-09
-9.2213886e-12
1.8520159e-09
8.8254303e-12
1.8525896e-09
-8.3603948e-12
1.8520402e-09
7.973676e-12
1.8525625e-09
-7.5821012e-12
1.8520636e-09
7.2283336e-12
1.8525395e-09
-6.8888474e-12
1.8520849e-09
6.5724386e-12
1.8525194e-09
-6.274656e-12
1.8521039e-09
5.9943987e-12
1.8525018e-09
-5.7323853e-12
1.8521208e-09
5.4850328e-12
1.8524862e-09
-5.2545541e-12
1.8521357e-09
5.0371148e-12
1.8524725e-09
-4.8348174e-12
1.8521488e-09
4.644316e-12
1.8524604e-09
-4.4674682e-12
1.8521602e-09
4.3013807e-12
1.8524499e-09
-4.1475457e-12
1.8521702e-09
4.0037182e-12
1.8524407e-09
-3.871089e-12
1.8521788e-09
3.7476132e-12
1.8524329e-09
-3.6344009e-12
1.8521861e-09
3.5298198e-12
1.8524263e-09
-3.4346118e-12
1.8521923e-09
3.347579e-12
1.8524208e-09
-3.269384e-12
1.8521973e-09
3.1985985e-12
1.8524164e-09
-3.1362602e-12
1.8522013e-09
3.0819019e-12
1.8524123e-09
-3.0299463e-12
1.8522025e-09
2.9997039e-12
1.8524073e-09
-2.9617598e-12
1.8522153e-09
2.8291666e-12
1.8524878e-09
-3.4499732e-12
2.7426891e-12
1.940107e-09
2.0366813e-08
2.1151159e-09
-1.1713928e-09
2.0186857e-09
1.0288794e-09
2.0207132e-09
-2.9455931e-11
2.0209476e-09
1.5377445e-11
2.0194551e-09
2.9942368e-11
2.0177641e-09
7.0199475e-12
2.0178348e-09
1.0948401e-11
2.0181785e-09
-1.0160289e-11
2.0176885e-09
1.1584296e-11
2.0183146e-09
-1.1548674e-11
2.0176661e-09
1.1486847e-11
2.018263e-09
-1.0728529e-11
2.0176686e-09
1.0398069e-11
2.0182194e-09
-9.7722666e-12
2.0176856e-09
9.3592624e-12
2.0181889e-09
-8.8637061e-12
2.0177063e-09
8.4562653e-12
2.0181651e-09
-8.0408339e-12
2.0177266e-09
7.6668277e-12
2.018145e-09
-7.3072515e-12
2.0177451e-09
6.9722782e-12
2.0181275e-09
-6.6570035e-12
2.0177617e-09
6.3601375e-12
2.0181121e-09
-6.0827138e-12
2.0177765e-09
5.8205837e-12
2.0180985e-09
-5.5764902e-12
2.0177896e-09
5.345992e-12
2.0180864e-09
-5.1316781e-12
2.0178011e-09
4.9296712e-12
2.0180759e-09
-4.742257e-12
2.0178112e-09
4.5660798e-12
2.0180666e-09
-4.4029844e-12
2.01782e-09
4.2503748e-12
2.0180586e-09
-4.1097243e-12
2.0178276e-09
3.9786571e-12
2.0180517e-09
-3.8585474e-12
2.017834e-09
3.7474985e-12
2.0180458e-09
-3.6464394e-12
2.0178394e-09
3.5539898e-12
2.018041e-09
-3.4709573e-12
2.0178439e-09
3.3956873e-12
2.0180371e-09
-3.3294595e-12
2.0178474e-09
3.2716022e-12
2.0180334e-09
-3.2159586e-12
2.0178483e-09
3.1848347e-12
2.0180284e-09
-3.1418204e-12
2.0178599e-09
2.9976394e-12
2.018106e-09
-3.6960521e-12
2.8906871e-12
2.0722603e-09
2.1242802e-08
2.2586624e-09
-1.3577948e-09
2.1765307e-09
1.1110111e-09
2.1791958e-09
-3.2121091e-11
2.179813e-09
1.4760278e-11
2.179316e-09
3.043934e-11
2.1776306e-09
8.7053575e-12
2.1779792e-09
1.0599866e-11
2.1782094e-09
-1.0390509e-11
2.1778459e-09
1.1947846e-11
2.1783796e-09
-1.2082391e-11
2.1778229e-09
1.2043482e-11
2.1783336e-09
-1.1239218e-11
2.1778211e-09
1.091064e-11
2.1782941e-09
-1.0245337e-11
2.1778341e-09
9.8193406e-12
2.1782672e-09
-9.2968978e-12
2.1778512e-09
8.8722685e-12
2.1782466e-09
-8.4362268e-12
2.1778684e-09
8.0450719e-12
2.1782294e-09
-7.668279e-12
2.1778843e-09
7.3174472e-12
2.1782145e-09
-6.9872134e-12
2.1778985e-09
6.6761188e-12
2.1782013e-09
-6.3855073e-12
2.1779112e-09
6.1106795e-12
2.1781896e-09
-5.8549277e-12
2.1779224e-09
5.6131958e-12
2.1781793e-09
-5.3885671e-12
2.1779323e-09
5.1766451e-12
2.1781702e-09
-4.9801495e-12
2.177941e-09
4.7952617e-12
2.1781622e-09
-4.62419e-12
2.1779486e-09
4.4639923e-12
2.1781553e-09
-4.3164223e-12
2.1779552e-09
4.178778e-12
2.1781494e-09
-4.0527095e-12
2.1779608e-09
3.9360548e-12
2.1781443e-09
-3.8299289e-12
2.1779655e-09
3.7327738e-12
2.1781401e-09
-3.6455471e-12
2.1779694e-09
3.5663663e-12
2.1781367e-09
-3.4967603e-12
2.1779725e-09
3.4358319e-12
2.1781335e-09
-3.3769132e-12
2.177973e-09
3.3452415e-12
2.1781284e-09
-3.2971443e-12
2.1779834e-09
3.1426448e-12
2.1782019e-09
-3.9145868e-12
3.0125358e-12
2.2218914e-09
2.1969161e-08
2.3915637e-09
-1.5274671e-09
2.3284545e-09
1.1741203e-09
2.3330256e-09
-3.6692229e-11
2.333068e-09
1.4717937e-11
2.3336369e-09
2.9870461e-11
2.3319697e-09
1.0372541e-11
2.3325984e-09
9.9711685e-12
2.3327179e-09
-1.0510025e-11
2.3324797e-09
1.2186031e-11
2.332923e-09
-1.2525672e-11
2.3324577e-09
1.2508794e-11
2.3328833e-09
-1.1664796e-11
2.332452e-09
1.1341934e-11
2.3328479e-09
-1.0641306e-11
2.3324611e-09
1.0206194e-11
2.3328247e-09
-9.6605093e-12
2.3324748e-09
9.222145e-12
2.3328073e-09
-8.7687115e-12
2.3324889e-09
8.3634484e-12
2.3327929e-09
-7.9722763e-12
2.3325021e-09
7.6082596e-12
2.3327805e-09
-7.2655661e-12
2.332514e-09
6.9425942e-12
2.3327695e-09
-6.6409924e-12
2.3325246e-09
6.3555337e-12
2.3327597e-09
-6.0900456e-12
2.3325341e-09
5.8388874e-12
2.3327511e-09
-5.6056328e-12
2.3325424e-09
5.3853751e-12
2.3327435e-09
-5.1812668e-12
2.3325497e-09
4.9890405e-12
2.3327368e-09
-4.8112643e-12
2.3325561e-09
4.6446618e-12
2.332731e-09
-4.4912699e-12
2.3325617e-09
4.3480637e-12
2.332726e-09
-4.2169673e-12
2.3325665e-09
4.0955595e-12
2.3327217e-09
-3.9851462e-12
2.3325704e-09
3.8839998e-12
2.3327181e-09
-3.7932171e-12
2.3325738e-09
3.7106984e-12
2.3327152e-09
-3.6382276e-12
2.3325764e-09
3.5746595e-12
2.3327124e-09
-3.5128909e-12
2.3325767e-09
3.4809718e-12
2.3327074e-09
-3.4278678e-12
2.3325857e-09
3.2643837e-12
2.3327758e-09
-4.1047453e-12
3.1089712e-12
2.3393233e-09
2.2578088e-08
2.519195e-09
-1.7073388e-09
2.4747377e-09
1.2185777e-09
2.4813146e-09
-4.3269147e-11
2.480844e-09
1.5188471e-11
2.4824349e-09
2.8279617e-11
2.4807983e-09
1.2009081e-11
2.4817019e-09
9.0676429e-12
2.481709e-09
-1.051716e-11
2.4815921e-09
1.2302926e-11
2.481946e-09
-1.2879518e-11
2.4815706e-09
1.2884187e-11
2.4819122e-09
-1.2006403e-11
2.4815612e-09
1.16929e-11
2.481881e-09
-1.0961135e-11
2.4815666e-09
1.0520646e-11
2.4818614e-09
-9.9553412e-12
2.481577e-09
9.5066115e-12
2.4818472e-09
-9.0389571e-12
2.4815881e-09
8.622572e-12
2.4818356e-09
-8.2198097e-12
2.4815986e-09
7.8452383e-12
2.4818256e-09
-7.492542e-12
2.4816082e-09
7.1600135e-12
2.4818168e-09
-6.8495783e-12
2.4816168e-09
6.5555205e-12
2.481809e-09
-6.2822001e-12
2.4816244e-09
6.0234023e-12
2.481802e-09
-5.78318e-12
2.4816312e-09
5.5561464e-12
2.4817958e-09
-5.3458761e-12
2.4816372e-09
5.1476661e-12
2.4817904e-09
-4.964443e-12
2.4816424e-09
4.7926119e-12
2.4817856e-09
-4.6344787e-12
2.481647e-09
4.4867114e-12
2.4817815e-09
-4.3515104e-12
2.4816509e-09
4.226203e-12
2.481778e-09
-4.1122761e-12
2.4816542e-09
4.007844e-12
2.4817751e-09
-3.9141417e-12
2.4816569e-09
3.8288584e-12
2.4817727e-09
-3.7540302e-12
2.4816591e-09
3.6882533e-12
2.4817703e-09
-3.6240711e-12
2.4816591e-09
3.5921777e-12
2.4817655e-09
-3.5342232e-12
2.4816667e-09
3.3631202e-12
2.4818279e-09
-4.26593e-12
3.1808802e-12
2.485547e-09
2.3040791e-08
2.6408992e-09
-1.862691e-09
2.6155161e-09
1.2439607e-09
2.6234838e-09
-5.1236879e-11
2.6231923e-09
1.5479964e-11
2.6256949e-09
2.5777043e-11
2.6241135e-09
1.359049e-11
2.6252889e-09
7.8922573e-12
2.625183e-09
-1.0411248e-11
2.6251831e-09
1.2302786e-11
2.6254487e-09
-1.3145104e-11
2.6251615e-09
1.317138e-11
2.6254206e-09
-1.226544e-11
2.6251487e-09
1.1964783e-11
2.6253936e-09
-1.1206047e-11
2.6251504e-09
1.0763784e-11
2.6253775e-09
-1.0182434e-11
2.6251575e-09
9.7266154e-12
2.6253664e-09
-9.247855e-12
2.6251657e-09
8.8232651e-12
2.6253576e-09
-8.4116448e-12
2.6251737e-09
8.029098e-12
2.62535e-09
-7.668805e-12
2.625181e-09
7.3289942e-12
2.6253433e-09
-7.0118435e-12
2.6251876e-09
6.7111915e-12
2.6253373e-09
-6.4318935e-12
2.6251935e-09
6.1672123e-12
2.625332e-09
-5.9216569e-12
2.6251987e-09
5.6893852e-12
2.6253272e-09
-5.4743771e-12
2.6252034e-09
5.2715222e-12
2.625323e-09
-5.0840884e-12
2.6252074e-09
4.9081853e-12
2.6253193e-09
-4.7463805e-12
2.625211e-09
4.5950472e-12
2.6253161e-09
-4.4566508e-12
2.6252141e-09
4.3282806e-12
2.6253134e-09
-4.2116034e-12
2.6252166e-09
4.1045892e-12
2.6253111e-09
-4.0085939e-12
2.6252188e-09
3.9211136e-12
2.6253092e-09
-3.844434e-12
2.6252206e-09
3.77688e-12
2.6253073e-09
-3.7107255e-12
2.6252203e-09
3.679098e-12
2.6253027e-09
-3.6165361e-12
2.6252266e-09
3.4391973e-12
2.6253584e-09
-4.3977607e-12
3.2292668e-12
2.595378e-09
2.3393663e-08
2.7592208e-09
-2.0265338e-09
2.7511489e-09
1.2520327e-09
2.7591195e-09
-5.9207553e-11
2.7601959e-09
1.4403639e-11
2.7634159e-09
2.255697e-11
2.7619238e-09
1.508264e-11
2.7633641e-09
6.4519744e-12
2.7631424e-09
-1.018959e-11
2.7632539e-09
1.2191338e-11
2.7634319e-09
-1.3323146e-11
2.7632306e-09
1.3372645e-11
2.7634086e-09
-1.2443433e-11
2.7632143e-09
1.2159148e-11
2.7633857e-09
-1.1377468e-11
2.7632125e-09
1.0936939e-11
2.7633731e-09
-1.0343037e-11
2.7632164e-09
9.8833204e-12
2.7633651e-09
-9.3964909e-12
2.7632218e-09
8.9665455e-12
2.7633589e-09
-8.5487307e-12
2.7632273e-09
8.160729e-12
2.7633536e-09
-7.7951869e-12
2.7632323e-09
7.4503238e-12
2.763349e-09
-7.1285211e-12
2.7632369e-09
6.8232309e-12
2.7633448e-09
-6.5397821e-12
2.7632411e-09
6.2709416e-12
2.7633411e-09
-6.021646e-12
2.7632448e-09
5.7856445e-12
2.7633378e-09
-5.5672959e-12
2.7632482e-09
5.3611085e-12
2.7633348e-09
-5.1706787e-12
2.7632511e-09
4.9918461e-12
2.7633321e-09
-4.827415e-12
2.7632537e-09
4.6734891e-12
2.7633298e-09
-4.5327931e-12
2.7632559e-09
4.402193e-12
2.7633278e-09
-4.2835184e-12
2.7632578e-09
4.1746119e-12
2.7633262e-09
-4.0769446e-12
2.7632594e-09
3.9878312e-12
2.7633248e-09
-3.9097959e-12
2.7632608e-09
3.8408935e-12
2.7633233e-09
-3.773213e-12
2.7632603e-09
3.742066e-12
2.763319e-09
-3.6752131e-12
2.7632652e-09
3.4930147e-12
2.7633675e-09
-4.5000608e-12
3.2552207e-12
2.7359125e-09
2.3606e-08
2.8740108e-09
-2.1646321e-09
2.8818201e-09
1.2442234e-09
2.8887043e-09
-6.6091812e-11
2.8918795e-09
1.1228528e-11
2.8956112e-09
1.8825277e-11
2.8942319e-09
1.6461874e-11
2.8959246e-09
4.7593193e-12
2.8955852e-09
-9.850212e-12
2.8958028e-09
1.197375e-11
2.8958947e-09
-1.3415098e-11
2.8957773e-09
1.3490067e-11
2.8958763e-09
-1.2542385e-11
2.8957578e-09
1.2277657e-11
2.8958574e-09
-1.147712e-11
2.8957527e-09
1.1041617e-11
2.8958483e-09
-1.0438621e-11
2.8957536e-09
9.9780696e-12
2.8958432e-09
-9.486142e-12
2.8957562e-09
9.0536007e-12
2.8958396e-09
-8.6321853e-12
2.8957592e-09
8.2411827e-12
2.8958367e-09
-7.8726752e-12
2.8957621e-09
7.5249297e-12
2.895834e-09
-7.2004885e-12
2.8957648e-09
6.8924784e-12
2.8958316e-09
-6.6066446e-12
2.8957673e-09
6.3353277e-12
2.8958295e-09
-6.0838534e-12
2.8957695e-09
5.8455991e-12
2.8958275e-09
-5.6252729e-12
2.8957716e-09
5.4170418e-12
2.8958257e-09
-5.2248021e-12
2.8957734e-09
5.0441553e-12
2.8958241e-09
-4.8781268e-12
2.895775e-09
4.7225708e-12
2.8958227e-09
-4.5804515e-12
2.8957764e-09
4.4484318e-12
2.8958214e-09
-4.3284976e-12
2.8957776e-09
4.2183827e-12
2.8958203e-09
-4.1196501e-12
2.8957787e-09
4.0294579e-12
2.8958195e-09
-3.9505584e-12
2.8957796e-09
3.8807344e-12
2.8958184e-09
-3.8119727e-12
2.895779e-09
3.7814902e-12
2.8958145e-09
-3.7107403e-12
2.8957825e-09
3.5250462e-12
2.8958552e-09
-4.5728407e-12
3.2598928e-12
2.8481402e-09
2.370611e-08
2.9853901e-09
-2.301882e-09
3.0076161e-09
1.2219974e-09
3.0131242e-09
-7.1599938e-11
3.0183438e-09
6.0089369e-12
3.0223121e-09
1.4856943e-11
3.0210581e-09
1.7715907e-11
3.0229721e-09
2.8452648e-12
3.0225122e-09
-9.390308e-12
3.0228299e-09
1.165614e-11
3.0228371e-09
-1.3422373e-11
3.0228013e-09
1.3525931e-11
3.0228235e-09
-1.2564576e-11
3.022779e-09
1.2322128e-11
3.0228088e-09
-1.1506948e-11
3.0227709e-09
1.1079495e-11
3.0228032e-09
-1.0470847e-11
3.0227689e-09
1.0012376e-11
3.022801e-09
-9.5182524e-12
3.0227688e-09
9.0857795e-12
3.0227999e-09
-8.6632824e-12
3.0227694e-09
8.2716572e-12
3.0227991e-09
-7.9024003e-12
3.0227702e-09
7.5538853e-12
3.0227985e-09
-7.2287545e-12
3.0227711e-09
6.9198823e-12
3.0227978e-09
-6.6333941e-12
3.0227719e-09
6.3612427e-12
3.0227971e-09
-6.1091006e-12
3.0227727e-09
5.8700327e-12
3.0227965e-09
-5.649058e-12
3.0227735e-09
5.4400382e-12
3.0227958e-09
-5.247147e-12
3.0227742e-09
5.0657814e-12
3.0227952e-09
-4.8991539e-12
3.0227749e-09
4.7429025e-12
3.0227947e-09
-4.6002184e-12
3.0227755e-09
4.4675814e-12
3.0227941e-09
-4.3471109e-12
3.0227761e-09
4.2364528e-12
3.0227937e-09
-4.1372532e-12
3.0227766e-09
4.0465295e-12
3.0227933e-09
-3.9672434e-12
3.0227771e-09
3.8969187e-12
3.0227926e-09
-3.82752e-12
3.0227763e-09
3.7978637e-12
3.0227892e-09
-3.7236717e-12
3.0227784e-09
3.5358154e-12
3.0228219e-09
-4.6162864e-12
3.244472e-12
2.9854185e-09
2.3668942e-08
3.0927912e-09
-2.4092547e-09
3.1282954e-09
1.1864932e-09
3.1331924e-09
-7.6496903e-11
3.1396701e-09
-4.688319e-13
3.1435654e-09
1.0961713e-11
3.1424397e-09
1.8841584e-11
3.1445108e-09
7.7416108e-13
3.1439272e-09
-8.8066547e-12
3.1443367e-09
1.1246644e-11
3.1442599e-09
-1.3345635e-11
3.1443027e-09
1.3483112e-11
3.1442505e-09
-1.251229e-11
3.1442779e-09
1.2294667e-11
3.14424e-09
-1.1469033e-11
3.1442671e-09
1.1052444e-11
3.1442377e-09
-1.0441532e-11
3.1442622e-09
9.987913e-12
3.1442384e-09
-9.4944207e-12
3.1442596e-09
9.0645753e-12
3.1442397e-09
-8.643436e-12
3.1442579e-09
8.2534877e-12
3.1442411e-09
-7.8856239e-12
3.1442566e-09
7.5383808e-12
3.1442423e-09
-7.2144514e-12
3.1442557e-09
6.9065287e-12
3.1442433e-09
-6.621046e-12
3.1442549e-09
6.3496523e-12
3.1442441e-09
-6.0983153e-12
3.1442543e-09
5.8598344e-12
3.1442448e-09
-5.6394996e-12
3.1442539e-09
5.4309161e-12
3.1442453e-09
-5.2384975e-12
3.1442536e-09
5.057475e-12
3.1442456e-09
-4.8912263e-12
3.1442533e-09
4.7351988e-12
3.1442459e-09
-4.5927839e-12
3.1442532e-09
4.4603043e-12
3.1442461e-09
-4.3400018e-12
3.1442531e-09
4.2294567e-12
3.1442462e-09
-4.1303703e-12
3.1442531e-09
4.0396492e-12
3.1442463e-09
-3.9604475e-12
3.1442531e-09
3.8900387e-12
3.1442461e-09
-3.8204403e-12
3.1442522e-09
3.7917441e-12
3.1442431e-09
-3.7146294e-12
3.144253e-09
3.5259141e-12
3.1442675e-09
-4.630744e-12
3.2101678e-12
3.0976553e-09
2.3519536e-08
3.1959693e-09
-2.5075687e-09
3.243779e-09
1.1386836e-09
3.2487982e-09
-8.1516169e-11
3.2557486e-09
-7.4191982e-12
3.2593427e-09
7.3675647e-12
3.2583873e-09
1.979698e-11
3.2605306e-09
-1.3690814e-12
3.259828e-09
-8.1040926e-12
3.2603225e-09
1.0752171e-11
3.2601629e-09
-1.3186054e-11
3.2602815e-09
1.3364511e-11
3.2601573e-09
-1.2388059e-11
3.2602544e-09
1.2197517e-11
3.260151e-09
-1.1365631e-11
3.260241e-09
1.0962484e-11
3.2601521e-09
-1.0352648e-11
3.2602335e-09
9.9065009e-12
3.2601555e-09
-9.4163829e-12
3.2602285e-09
8.9916185e-12
3.2601592e-09
-8.574192e-12
3.2602246e-09
8.1881334e-12
3.2601627e-09
-7.8237292e-12
3.2602213e-09
7.4797335e-12
3.2601657e-09
-7.1588236e-12
3.2602186e-09
6.8535921e-12
3.2601683e-09
-6.5707343e-12
3.2602163e-09
6.3016415e-12
3.2601705e-09
-6.0525252e-12
3.2602144e-09
5.8159875e-12
3.2601724e-09
-5.5975411e-12
3.2602128e-09
5.3905789e-12
3.260174e-09
-5.1997245e-12
3.2602114e-09
5.0200821e-12
3.2601753e-09
-4.8551541e-12
3.2602103e-09
4.7002368e-12
3.2601764e-09
-4.5589037e-12
3.2602093e-09
4.4273448e-12
3.2601772e-09
-4.3078967e-12
3.2602086e-09
4.1980978e-12
3.2601779e-09
-4.0996937e-12
3.2602081e-09
4.0094991e-12
3.2601785e-09
-3.9308359e-12
3.2602078e-09
3.8607512e-12
3.2601787e-09
-3.7913847e-12
3.2602067e-09
3.7637644e-12
3.2601763e-09
-3.6842917e-12
3.2602063e-09
3.495976e-12
3.2601922e-09
-4.6167095e-12
3.1581929e-12
3.2287103e-09
2.3239076e-08
3.2957742e-09
-2.5746327e-09
3.3542545e-09
1.0802033e-09
3.3595503e-09
-8.6812012e-11
3.3664008e-09
-1.4269618e-11
3.3696284e-09
4.139931e-12
3.3689004e-09
2.0525021e-11
3.3710199e-09
-3.4886268e-12
3.3702121e-09
-7.2962794e-12
3.3707867e-09
1.0177566e-11
3.370546e-09
-1.2945332e-11
3.3707375e-09
1.3173006e-11
3.370544e-09
-1.219462e-11
3.3707085e-09
1.2033071e-11
3.370542e-09
-1.1199149e-11
3.3706927e-09
1.0811785e-11
3.3705464e-09
-1.0206301e-11
3.3706828e-09
9.7700905e-12
3.3705524e-09
-9.2860072e-12
3.3706754e-09
8.86866e-12
3.3705584e-09
-8.4572151e-12
3.3706693e-09
8.07717e-12
3.3705638e-09
-7.7182115e-12
3.3706642e-09
7.3793578e-12
3.3705686e-09
-7.0632218e-12
3.3706598e-09
6.7623698e-12
3.3705728e-09
-6.4836779e-12
3.370656e-09
6.2183728e-12
3.3705764e-09
-5.9728497e-12
3.3706528e-09
5.7395663e-12
3.3705795e-09
-5.5242111e-12
3.37065e-09
5.32002e-12
3.3705821e-09
-5.1317818e-12
3.3706476e-09
4.9545177e-12
3.3705843e-09
-4.7918281e-12
3.3706457e-09
4.6388881e-12
3.3705862e-09
-4.4994209e-12
3.370644e-09
4.3695137e-12
3.3705877e-09
-4.2515839e-12