/*--------------------------------*- C++ -*----------------------------------*\
| =========                 |                                                 |
| \\      /  F ield         | OpenFOAM: The Open Source CFD Toolbox           |
|  \\    /   O peration     | Version:  2312                                  |
|   \\  /    A nd           | Website:  www.openfoam.com                      |
|    \\/     M anipulation  |                                                 |
\*---------------------------------------------------------------------------*/
FoamFile
{
    version     2.0;
    format      ascii;
    arch        "LSB;label=32;scalar=64";
    class       volSymmTensorField;
    location    "2";
    object      sigma_0;
}
// * * * * * * * * * * * * * * * * * * * * * * * * * * * * * * * * * * * * * //

dimensions      [0 2 -2 0 0 0 0];

internalField   nonuniform List<symmTensor> 
4000
(
(-2.2785824 -1.0117378 0 -0.40516152 0 0)
(-5.661455 -0.44135165 0 -0.0029466652 0 0)
(-2.919381 -0.3129865 0 -0.00085813913 0 0)
(-3.1203443 -0.3225397 0 9.7071831e-06 0 0)
(-2.9307968 -0.31238295 0 2.3659105e-05 0 0)
(-3.0426153 -0.31874252 0 -5.6328464e-05 0 0)
(-2.9152327 -0.31152607 0 3.7177386e-05 0 0)
(-3.0071184 -0.31681649 0 -4.5031798e-05 0 0)
(-2.9191793 -0.31174144 0 4.0781637e-05 0 0)
(-2.9976669 -0.31629693 0 -4.0160294e-05 0 0)
(-2.9237765 -0.31200454 0 3.7845183e-05 0 0)
(-2.9927368 -0.31601807 0 -3.6255964e-05 0 0)
(-2.9274299 -0.31221704 0 3.4263223e-05 0 0)
(-2.9889179 -0.31579905 0 -3.264682e-05 0 0)
(-2.9307017 -0.3124077 0 3.093213e-05 0 0)
(-2.9856404 -0.31561025 0 -2.9436334e-05 0 0)
(-2.9336782 -0.31258098 0 2.7947018e-05 0 0)
(-2.9827421 -0.31544307 0 -2.660295e-05 0 0)
(-2.9363707 -0.31273751 0 2.529771e-05 0 0)
(-2.9801522 -0.31529366 0 -2.4103139e-05 0 0)
(-2.9387992 -0.3128785 0 2.2954934e-05 0 0)
(-2.9778265 -0.31515955 0 -2.1898258e-05 0 0)
(-2.9409905 -0.31300552 0 2.0887413e-05 0 0)
(-2.9757303 -0.3150388 0 -1.9955346e-05 0 0)
(-2.9429717 -0.31312015 0 1.9066176e-05 0 0)
(-2.9738345 -0.31492972 0 -1.8245948e-05 0 0)
(-2.9447687 -0.31322389 0 1.7465222e-05 0 0)
(-2.9721132 -0.31483087 0 -1.6745474e-05 0 0)
(-2.9464046 -0.3133181 0 1.6061922e-05 0 0)
(-2.9705438 -0.31474093 0 -1.5432675e-05 0 0)
(-2.9479004 -0.31340401 0 1.4836661e-05 0 0)
(-2.9691061 -0.31465874 0 -1.4289347e-05 0 0)
(-2.9492749 -0.31348269 0 1.3772633e-05 0 0)
(-2.9677819 -0.31458327 0 -1.3299928e-05 0 0)
(-2.9505452 -0.31355514 0 1.2855618e-05 0 0)
(-2.9665551 -0.3145136 0 -1.2451359e-05 0 0)
(-2.9517261 -0.31362222 0 1.2073611e-05 0 0)
(-2.9654111 -0.31444889 0 -1.1732714e-05 0 0)
(-2.9528316 -0.31368472 0 1.141677e-05 0 0)
(-2.9643368 -0.31438839 0 -1.113508e-05 0 0)
(-2.9538741 -0.31374336 0 1.0877253e-05 0 0)
(-2.9633201 -0.31433144 0 -1.065163e-05 0 0)
(-2.954865 -0.31379877 0 1.044899e-05 0 0)
(-2.9623497 -0.31427739 0 -1.0278352e-05 0 0)
(-2.9558128 -0.31385146 0 1.0127953e-05 0 0)
(-2.9614111 -0.31422546 0 -1.0011118e-05 0 0)
(-2.9567298 -0.31390194 0 9.9397822e-06 0 0)
(-2.9605532 -0.31417779 0 -9.7684148e-06 0 0)
(-2.9579046 -0.3139643 0 1.0137704e-05 0 0)
(-2.9606613 -0.31418342 0 -9.8784772e-06 0 0)
(-1.9647929 -0.91532703 0 -0.37826925 0 0)
(-4.872984 -0.42165244 0 -0.0080570746 0 0)
(-2.9823068 -0.32110202 0 -0.0025739616 0 0)
(-2.8829191 -0.30972925 0 -2.4021045e-05 0 0)
(-2.7154896 -0.30073548 0 -1.5137425e-06 0 0)
(-2.8138719 -0.30671958 0 -7.6464406e-05 0 0)
(-2.706435 -0.30010384 0 2.1429218e-05 0 0)
(-2.7832188 -0.30489515 0 -5.0570445e-05 0 0)
(-2.7080936 -0.30016425 0 4.1742612e-05 0 0)
(-2.7750625 -0.30441535 0 -4.3707115e-05 0 0)
(-2.7117794 -0.30039219 0 4.0833519e-05 0 0)
(-2.7709019 -0.30416127 0 -3.9666462e-05 0 0)
(-2.7148634 -0.30058864 0 3.7270843e-05 0 0)
(-2.7676355 -0.30395676 0 -3.5705957e-05 0 0)
(-2.7176477 -0.30076666 0 3.3734356e-05 0 0)
(-2.7648222 -0.30377954 0 -3.2171277e-05 0 0)
(-2.7201878 -0.30092886 0 3.0511933e-05 0 0)
(-2.7623345 -0.30362259 0 -2.9069437e-05 0 0)
(-2.7224888 -0.30107553 0 2.7635795e-05 0 0)
(-2.7601115 -0.30348234 0 -2.6341288e-05 0 0)
(-2.7245665 -0.30120774 0 2.5087128e-05 0 0)
(-2.7581142 -0.3033564 0 -2.3937833e-05 0 0)
(-2.7264432 -0.30132694 0 2.2835804e-05 0 0)
(-2.7563125 -0.30324292 0 -2.1820628e-05 0 0)
(-2.7281419 -0.3014346 0 2.0851804e-05 0 0)
(-2.7546815 -0.30314033 0 -1.9957773e-05 0 0)
(-2.7296844 -0.30153214 0 1.9107141e-05 0 0)
(-2.7531992 -0.30304726 0 -1.832236e-05 0 0)
(-2.7310905 -0.30162082 0 1.7577523e-05 0 0)
(-2.7518461 -0.30296249 0 -1.6891252e-05 0 0)
(-2.7323778 -0.30170176 0 1.6241756e-05 0 0)
(-2.7506052 -0.30288495 0 -1.5644802e-05 0 0)
(-2.7335623 -0.30177598 0 1.5081696e-05 0 0)
(-2.7494609 -0.30281368 0 -1.4566194e-05 0 0)
(-2.7346584 -0.30184439 0 1.4082196e-05 0 0)
(-2.7483995 -0.30274781 0 -1.3641552e-05 0 0)
(-2.7356789 -0.3019078 0 1.3230382e-05 0 0)
(-2.7474086 -0.30268657 0 -1.2859301e-05 0 0)
(-2.7366355 -0.30196694 0 1.2516009e-05 0 0)
(-2.7464768 -0.30262926 0 -1.2210231e-05 0 0)
(-2.7375389 -0.30202249 0 1.1931315e-05 0 0)
(-2.745594 -0.30257526 0 -1.1687833e-05 0 0)
(-2.738399 -0.30207503 0 1.1470595e-05 0 0)
(-2.7447504 -0.30252399 0 -1.1290671e-05 0 0)
(-2.7392235 -0.30212507 0 1.1129673e-05 0 0)
(-2.7439325 -0.30247466 0 -1.1019007e-05 0 0)
(-2.7400165 -0.30217257 0 1.0969797e-05 0 0)
(-2.743154 -0.30242705 0 -1.0669659e-05 0 0)
(-2.7409564 -0.30222401 0 1.1742867e-05 0 0)
(-2.7430624 -0.3024213 0 -1.0707022e-05 0 0)
(-1.8634883 -0.87336717 0 -0.35597692 0 0)
(-4.277695 -0.39498366 0 -0.0097151505 0 0)
(-2.8958515 -0.32042456 0 -0.0038793938 0 0)
(-2.7530952 -0.30262556 0 -0.00012368269 0 0)
(-2.5767698 -0.29293184 0 -2.2075493e-05 0 0)
(-2.6652102 -0.29862772 0 -8.7066668e-05 0 0)
(-2.5699723 -0.29241236 0 5.122735e-06 0 0)
(-2.6384685 -0.29692601 0 -5.0680627e-05 0 0)
(-2.5710322 -0.29241266 0 3.8042308e-05 0 0)
(-2.6310723 -0.29646711 0 -4.2053334e-05 0 0)
(-2.5742389 -0.29262257 0 3.897221e-05 0 0)
(-2.6273502 -0.29622774 0 -3.8262836e-05 0 0)
(-2.5769949 -0.29280974 0 3.5761462e-05 0 0)
(-2.624425 -0.29603301 0 -3.4420292e-05 0 0)
(-2.5794897 -0.29297975 0 3.2429244e-05 0 0)
(-2.6219012 -0.29586374 0 -3.0988362e-05 0 0)
(-2.5817672 -0.29313474 0 2.9356672e-05 0 0)
(-2.6196694 -0.29571381 0 -2.7992978e-05 0 0)
(-2.5838317 -0.29327495 0 2.6601091e-05 0 0)
(-2.617675 -0.2955798 0 -2.5365957e-05 0 0)
(-2.5856971 -0.2934014 0 2.4154567e-05 0 0)
(-2.6158825 -0.29545943 0 -2.3054032e-05 0 0)
(-2.587383 -0.29351547 0 2.1991577e-05 0 0)
(-2.614265 -0.29535091 0 -2.1018085e-05 0 0)
(-2.58891 -0.29361857 0 2.0084616e-05 0 0)
(-2.6127999 -0.29525273 0 -1.9226599e-05 0 0)
(-2.5902974 -0.29371205 0 1.840712e-05 0 0)
(-2.6114674 -0.2951636 0 -1.7653635e-05 0 0)
(-2.591563 -0.29379709 0 1.6936019e-05 0 0)
(-2.6102505 -0.29508235 0 -1.6276908e-05 0 0)
(-2.5927224 -0.29387477 0 1.5651099e-05 0 0)
(-2.6091336 -0.29500796 0 -1.5077668e-05 0 0)
(-2.59379 -0.29394607 0 1.4535033e-05 0 0)
(-2.6081031 -0.29493952 0 -1.4039865e-05 0 0)
(-2.5947784 -0.29401184 0 1.357356e-05 0 0)
(-2.6071467 -0.29487622 0 -1.3150418e-05 0 0)
(-2.5956993 -0.29407286 0 1.2754459e-05 0 0)
(-2.6062532 -0.29481731 0 -1.2398517e-05 0 0)
(-2.5965629 -0.29412982 0 1.2068309e-05 0 0)
(-2.6054124 -0.29476214 0 -1.1775722e-05 0 0)
(-2.597379 -0.29418336 0 1.1508369e-05 0 0)
(-2.6046154 -0.2947101 0 -1.1276631e-05 0 0)
(-2.5981564 -0.29423405 0 1.1070104e-05 0 0)
(-2.6038531 -0.29466064 0 -1.0902396e-05 0 0)
(-2.5989023 -0.29428238 0 1.0749897e-05 0 0)
(-2.6031134 -0.29461306 0 -1.0660209e-05 0 0)
(-2.5996192 -0.29432818 0 1.0625232e-05 0 0)
(-2.6024004 -0.29456628 0 -1.029344e-05 0 0)
(-2.6004459 -0.29437468 0 1.175496e-05 0 0)
(-2.6022251 -0.29455769 0 -1.1016605e-05 0 0)
(-1.7711717 -0.82556255 0 -0.32857109 0 0)
(-3.8635129 -0.37753295 0 -0.011423932 0 0)
(-2.7935212 -0.31950309 0 -0.0053462935 0 0)
(-2.6306029 -0.29579703 0 -0.00023182102 0 0)
(-2.4442593 -0.28527457 0 -5.6898083e-05 0 0)
(-2.5217053 -0.29055182 0 -9.6307281e-05 0 0)
(-2.4364419 -0.28471532 0 -1.6000866e-05 0 0)
(-2.498188 -0.28896095 0 -4.6853824e-05 0 0)
(-2.4370709 -0.28466199 0 3.0431953e-05 0 0)
(-2.4914503 -0.28852192 0 -3.6736931e-05 0 0)
(-2.4398762 -0.28485375 0 3.3679742e-05 0 0)
(-2.4880837 -0.28829664 0 -3.3589907e-05 0 0)
(-2.4423577 -0.28503154 0 3.1154877e-05 0 0)
(-2.4854358 -0.28811145 0 -3.0195365e-05 0 0)
(-2.4446126 -0.28519348 0 2.8333668e-05 0 0)
(-2.4831469 -0.28794993 0 -2.7154163e-05 0 0)
(-2.4466722 -0.28534119 0 2.5683908e-05 0 0)
(-2.4811219 -0.28780682 0 -2.4520492e-05 0 0)
(-2.4485401 -0.28547491 0 2.3289615e-05 0 0)
(-2.4793122 -0.28767888 0 -2.2220526e-05 0 0)
(-2.4502289 -0.28559558 0 2.1157405e-05 0 0)
(-2.4776854 -0.2875639 0 -2.0199559e-05 0 0)
(-2.4517561 -0.28570452 0 1.9269605e-05 0 0)
(-2.4762168 -0.28746017 0 -1.8420521e-05 0 0)
(-2.4531402 -0.28580305 0 1.7604064e-05 0 0)
(-2.4748861 -0.28736626 0 -1.6854787e-05 0 0)
(-2.4543985 -0.28589246 0 1.6138021e-05 0 0)
(-2.4736755 -0.28728094 0 -1.5479596e-05 0 0)
(-2.4555469 -0.28597386 0 1.4851731e-05 0 0)
(-2.4725693 -0.28720309 0 -1.4275446e-05 0 0)
(-2.4565995 -0.2860483 0 1.3727721e-05 0 0)
(-2.4715538 -0.28713176 0 -1.322613e-05 0 0)
(-2.4575692 -0.28611667 0 1.275098e-05 0 0)
(-2.4706165 -0.28706608 0 -1.2317739e-05 0 0)
(-2.4584673 -0.2861798 0 1.1909403e-05 0 0)
(-2.4697463 -0.28700527 0 -1.1539132e-05 0 0)
(-2.4593043 -0.28623843 0 1.1192412e-05 0 0)
(-2.4689333 -0.28694862 0 -1.0881129e-05 0 0)
(-2.4600896 -0.28629321 0 1.0592163e-05 0 0)
(-2.4681681 -0.28689552 0 -1.033671e-05 0 0)
(-2.4608317 -0.28634474 0 1.0103387e-05 0 0)
(-2.4674427 -0.28684539 0 -9.9017776e-06 0 0)
(-2.4615388 -0.28639359 0 9.7226793e-06 0 0)
(-2.4667489 -0.28679771 0 -9.5796868e-06 0 0)
(-2.4622177 -0.28644024 0 9.4457634e-06 0 0)
(-2.4660758 -0.2867518 0 -9.3823665e-06 0 0)
(-2.4628691 -0.2864844 0 9.3634674e-06 0 0)
(-2.4654187 -0.2867058 0 -8.9763482e-06 0 0)
(-2.4635966 -0.28652626 0 1.0860487e-05 0 0)
(-2.4651669 -0.28669377 0 -1.0229236e-05 0 0)
(-1.6980527 -0.78199098 0 -0.30240842 0 0)
(-3.4494135 -0.35958853 0 -0.012857228 0 0)
(-2.6522399 -0.31586403 0 -0.0066391084 0 0)
(-2.5071784 -0.28892686 0 -0.00034265894 0 0)
(-2.3182672 -0.27774149 0 -9.779157e-05 0 0)
(-2.3831069 -0.28249389 0 -0.00010630018 0 0)
(-2.3061264 -0.27699054 0 -3.4519165e-05 0 0)
(-2.3620763 -0.28100266 0 -4.2917224e-05 0 0)
(-2.3063712 -0.27690058 0 2.336592e-05 0 0)
(-2.3559073 -0.28058358 0 -3.1547551e-05 0 0)
(-2.3088442 -0.27707733 0 2.8625691e-05 0 0)
(-2.3528441 -0.28037128 0 -2.9037277e-05 0 0)
(-2.3110922 -0.27724685 0 2.6701388e-05 0 0)
(-2.3504361 -0.28019503 0 -2.6087523e-05 0 0)
(-2.3131429 -0.27740146 0 2.4361749e-05 0 0)
(-2.3483505 -0.28004078 0 -2.3429125e-05 0 0)
(-2.3150163 -0.27754251 0 2.2119044e-05 0 0)
(-2.3465044 -0.27990402 0 -2.1147254e-05 0 0)
(-2.3167161 -0.27767026 0 2.0074062e-05 0 0)
(-2.3448541 -0.27978172 0 -1.9164545e-05 0 0)
(-2.3182537 -0.27778562 0 1.8245982e-05 0 0)
(-2.3433702 -0.27967175 0 -1.7425516e-05 0 0)
(-2.3196449 -0.27788983 0 1.6624535e-05 0 0)
(-2.3420303 -0.27957247 0 -1.5895343e-05 0 0)
(-2.3209065 -0.27798416 0 1.5192666e-05 0 0)
(-2.3408156 -0.27948254 0 -1.4548244e-05 0 0)
(-2.322054 -0.27806981 0 1.3931324e-05 0 0)
(-2.3397102 -0.27940076 0 -1.3364589e-05 0 0)
(-2.3231017 -0.27814787 0 1.2823928e-05 0 0)
(-2.3386999 -0.27932609 0 -1.2327548e-05 0 0)
(-2.3240625 -0.27821929 0 1.1855657e-05 0 0)
(-2.3377721 -0.27925762 0 -1.1423346e-05 0 0)
(-2.3249478 -0.27828495 0 1.1013695e-05 0 0)
(-2.3369155 -0.27919452 0 -1.0640123e-05 0 0)
(-2.3257681 -0.27834562 0 1.0287971e-05 0 0)
(-2.3361203 -0.27913606 0 -9.9685277e-06 0 0)
(-2.3265326 -0.278402 0 9.6694195e-06 0 0)
(-2.3353772 -0.27908156 0 -9.4008931e-06 0 0)
(-2.3272499 -0.27845473 0 9.1515857e-06 0 0)
(-2.3346779 -0.27903042 0 -8.9313695e-06 0 0)
(-2.3279279 -0.27850437 0 8.7304016e-06 0 0)
(-2.334015 -0.27898211 0 -8.5568117e-06 0 0)
(-2.3285738 -0.27855147 0 8.4031268e-06 0 0)
(-2.3333811 -0.27893613 0 -8.2818727e-06 0 0)
(-2.329194 -0.27859649 0 8.1639529e-06 0 0)
(-2.3327665 -0.27889185 0 -8.1219671e-06 0 0)
(-2.3297883 -0.27863912 0 8.1082677e-06 0 0)
(-2.3321616 -0.27884684 0 -7.6758474e-06 0 0)
(-2.3304338 -0.27867733 0 9.8681755e-06 0 0)
(-2.3318577 -0.27883196 0 -9.3418797e-06 0 0)
(-1.6459944 -0.74520019 0 -0.27935271 0 0)
(-3.0687743 -0.34052046 0 -0.01333067 0 0)
(-2.4982595 -0.31068466 0 -0.0076938291 0 0)
(-2.3814068 -0.28185128 0 -0.00043934981 0 0)
(-2.1968015 -0.27027105 0 -0.00014688582 0 0)
(-2.2493141 -0.27447015 0 -0.000118833 0 0)
(-2.1793194 -0.26925343 0 -5.0608565e-05 0 0)
(-2.2300432 -0.27305115 0 -3.9718515e-05 0 0)
(-2.1791176 -0.26913366 0 1.7499605e-05 0 0)
(-2.2243256 -0.27265016 0 -2.7207442e-05 0 0)
(-2.1812833 -0.26929668 0 2.4475092e-05 0 0)
(-2.2215238 -0.2724498 0 -2.5252254e-05 0 0)
(-2.1833209 -0.26945848 0 2.3012761e-05 0 0)
(-2.2193291 -0.27228207 0 -2.2680389e-05 0 0)
(-2.18519 -0.26960621 0 2.1066726e-05 0 0)
(-2.2174254 -0.27213475 0 -2.0339966e-05 0 0)
(-2.1868979 -0.26974095 0 1.916207e-05 0 0)
(-2.2157389 -0.27200402 0 -1.8349414e-05 0 0)
(-2.1884479 -0.26986305 0 1.74072e-05 0 0)
(-2.2142308 -0.27188706 0 -1.6629547e-05 0 0)
(-2.1898508 -0.26997337 0 1.5831376e-05 0 0)
(-2.2128743 -0.27178183 0 -1.5124155e-05 0 0)
(-2.1911209 -0.27007309 0 1.443065e-05 0 0)
(-2.211649 -0.27168678 0 -1.3800216e-05 0 0)
(-2.1922732 -0.27016343 0 1.319235e-05 0 0)
(-2.2105378 -0.27160061 0 -1.2634269e-05 0 0)
(-2.1933219 -0.27024552 0 1.2100525e-05 0 0)
(-2.2095262 -0.27152219 0 -1.160929e-05 0 0)
(-2.1942799 -0.27032038 0 1.1141256e-05 0 0)
(-2.2086013 -0.27145055 0 -1.0710658e-05 0 0)
(-2.1951588 -0.27038893 0 1.0301904e-05 0 0)
(-2.2077518 -0.27138481 0 -9.9266075e-06 0 0)
(-2.1959689 -0.270452 0 9.5714587e-06 0 0)
(-2.2069673 -0.27132417 0 -9.2469653e-06 0 0)
(-2.1967196 -0.27051031 0 8.9415305e-06 0 0)
(-2.2062389 -0.27126795 0 -8.6638343e-06 0 0)
(-2.1974195 -0.27056455 0 8.404254e-06 0 0)
(-2.2055582 -0.27121551 0 -8.1707485e-06 0 0)
(-2.1980763 -0.2706153 0 7.9542774e-06 0 0)
(-2.2049177 -0.27116628 0 -7.7627835e-06 0 0)
(-2.1986969 -0.27066311 0 7.5884254e-06 0 0)
(-2.2043105 -0.27111973 0 -7.4373992e-06 0 0)
(-2.1992882 -0.2707085 0 7.3043377e-06 0 0)
(-2.2037302 -0.2710754 0 -7.1999915e-06 0 0)
(-2.1998559 -0.27075194 0 7.0943749e-06 0 0)
(-2.203168 -0.27103273 0 -7.0686696e-06 0 0)
(-2.2003994 -0.27079309 0 7.0540023e-06 0 0)
(-2.2026109 -0.27098882 0 -6.5834445e-06 0 0)
(-2.2009736 -0.27082823 0 8.9951729e-06 0 0)
(-2.2022715 -0.27097135 0 -8.5324518e-06 0 0)
(-1.6115037 -0.69976796 0 -0.24746529 0 0)
(-2.7092006 -0.32354429 0 -0.01398864 0 0)
(-2.336128 -0.30419524 0 -0.008523156 0 0)
(-2.2503637 -0.27453228 0 -0.00057944291 0 0)
(-2.0783194 -0.2628652 0 -0.00021873841 0 0)
(-2.1198941 -0.26646788 0 -0.00013364894 0 0)
(-2.0559321 -0.26149745 0 -6.4054407e-05 0 0)
(-2.1019665 -0.26509881 0 -3.6438572e-05 0 0)
(-2.0553506 -0.26136088 0 1.2758607e-05 0 0)
(-2.0966423 -0.26471888 0 -2.3394382e-05 0 0)
(-2.0572418 -0.2615131 0 2.1016475e-05 0 0)
(-2.0940734 -0.2645305 0 -2.2009762e-05 0 0)
(-2.0590886 -0.26166782 0 1.9885223e-05 0 0)
(-2.092071 -0.26437109 0 -1.9778737e-05 0 0)
(-2.0607938 -0.26180899 0 1.8263403e-05 0 0)
(-2.0903323 -0.26423051 0 -1.7711514e-05 0 0)
(-2.0623523 -0.26193768 0 1.6645507e-05 0 0)
(-2.0887906 -0.26410562 0 -1.5968729e-05 0 0)
(-2.0637671 -0.26205432 0 1.5137538e-05 0 0)
(-2.0874112 -0.26399381 0 -1.4472202e-05 0 0)
(-2.0650483 -0.26215978 0 1.3776271e-05 0 0)
(-2.08617 -0.26389316 0 -1.3165347e-05 0 0)
(-2.066209 -0.26225519 0 1.2563207e-05 0 0)
(-2.0850483 -0.26380219 0 -1.2016695e-05 0 0)
(-2.0672627 -0.26234167 0 1.1489434e-05 0 0)
(-2.0840308 -0.26371965 0 -1.1004705e-05 0 0)
(-2.0682222 -0.26242032 0 1.0541701e-05 0 0)
(-2.083104 -0.26364449 0 -1.0114601e-05 0 0)
(-2.069099 -0.26249209 0 9.7083284e-06 0 0)
(-2.0822564 -0.26357578 0 -9.3336136e-06 0 0)
(-2.0699038 -0.26255786 0 8.9785522e-06 0 0)
(-2.0814776 -0.26351267 0 -8.651681e-06 0 0)
(-2.0706459 -0.2626184 0 8.3428732e-06 0 0)
(-2.0807584 -0.26345443 0 -8.0600637e-06 0 0)
(-2.0713339 -0.26267443 0 7.7943385e-06 0 0)
(-2.0800904 -0.2634004 0 -7.5520687e-06 0 0)
(-2.0719753 -0.26272657 0 7.3260709e-06 0 0)
(-2.0794662 -0.26334997 0 -7.1222596e-06 0 0)
(-2.0725773 -0.26277539 0 6.9336249e-06 0 0)
(-2.0788788 -0.26330259 0 -6.7664275e-06 0 0)
(-2.0731462 -0.26282141 0 6.6145545e-06 0 0)
(-2.078322 -0.26325777 0 -6.4824845e-06 0 0)
(-2.0736881 -0.26286512 0 6.3667232e-06 0 0)
(-2.0777901 -0.26321507 0 -6.2762569e-06 0 0)
(-2.0742084 -0.262907 0 6.1808109e-06 0 0)
(-2.0772751 -0.26317396 0 -6.1682946e-06 0 0)
(-2.0747062 -0.26294671 0 6.1495727e-06 0 0)
(-2.0767622 -0.26313127 0 -5.6510735e-06 0 0)
(-2.0752182 -0.26297926 0 8.2050932e-06 0 0)
(-2.0764004 -0.26311154 0 -7.7891657e-06 0 0)
(-1.6000709 -0.67499759 0 -0.23057877 0 0)
(-2.3744476 -0.30805382 0 -0.015068566 0 0)
(-2.1712466 -0.29608447 0 -0.0089262009 0 0)
(-2.1058574 -0.2661774 0 -0.00074427106 0 0)
(-1.9578155 -0.25531031 0 -0.00032236936 0 0)
(-1.9947346 -0.2585396 0 -0.00016051524 0 0)
(-1.9363059 -0.25377313 0 -8.0962849e-05 0 0)
(-1.9780674 -0.25717073 0 -3.4775418e-05 0 0)
(-1.9352405 -0.25359443 0 8.2161733e-06 0 0)
(-1.9728962 -0.2567942 0 -2.0080688e-05 0 0)
(-1.9367725 -0.2537289 0 1.7963359e-05 0 0)
(-1.9704808 -0.25661376 0 -1.9124833e-05 0 0)
(-1.9384216 -0.25387548 0 1.7117235e-05 0 0)
(-1.968643 -0.25646189 0 -1.7199982e-05 0 0)
(-1.9399744 -0.25401015 0 1.5775944e-05 0 0)
(-1.9670532 -0.2563278 0 -1.5377543e-05 0 0)
(-1.9413971 -0.25413296 0 1.4411001e-05 0 0)
(-1.9656431 -0.25620856 0 -1.3854799e-05 0 0)
(-1.9426893 -0.25424434 0 1.3121786e-05 0 0)
(-1.9643808 -0.25610175 0 -1.2556221e-05 0 0)
(-1.9438601 -0.2543451 0 1.1950717e-05 0 0)
(-1.9632445 -0.25600553 0 -1.142529e-05 0 0)
(-1.9449214 -0.25443631 0 1.0903991e-05 0 0)
(-1.9622171 -0.2559185 0 -1.0431984e-05 0 0)
(-1.9458854 -0.25451907 0 9.9760686e-06 0 0)
(-1.9612847 -0.25583949 0 -9.5564551e-06 0 0)
(-1.9467637 -0.25459437 0 9.156079e-06 0 0)
(-1.9604352 -0.25576749 0 -8.7859224e-06 0 0)
(-1.9475669 -0.25466314 0 8.4343485e-06 0 0)
(-1.959658 -0.25570161 0 -8.1092533e-06 0 0)
(-1.9483043 -0.2547262 0 7.8017557e-06 0 0)
(-1.9589436 -0.25564108 0 -7.5178852e-06 0 0)
(-1.9489846 -0.2547843 0 7.2501343e-06 0 0)
(-1.9582837 -0.25558517 0 -7.0043457e-06 0 0)
(-1.9496154 -0.25483809 0 6.7738001e-06 0 0)
(-1.9576708 -0.25553328 0 -6.562989e-06 0 0)
(-1.9502037 -0.25488818 0 6.3667285e-06 0 0)
(-1.9570979 -0.25548481 0 -6.1892632e-06 0 0)
(-1.9507558 -0.25493511 0 6.0252624e-06 0 0)
(-1.9565589 -0.25543925 0 -5.8796006e-06 0 0)
(-1.9512776 -0.25497938 0 5.7475597e-06 0 0)
(-1.956048 -0.25539613 0 -5.6322395e-06 0 0)
(-1.9517746 -0.25502145 0 5.5316762e-06 0 0)
(-1.95556 -0.25535502 0 -5.45325e-06 0 0)
(-1.9522518 -0.25506179 0 5.3668312e-06 0 0)
(-1.9550881 -0.25531546 0 -5.365347e-06 0 0)
(-1.9527082 -0.25510008 0 5.3414417e-06 0 0)
(-1.9546159 -0.25527407 0 -4.8244091e-06 0 0)
(-1.9531655 -0.25513043 0 7.4569293e-06 0 0)
(-1.9542415 -0.25525238 0 -7.084769e-06 0 0)
(-1.5891212 -0.63394118 0 -0.20235896 0 0)
(-2.0673419 -0.29288936 0 -0.015943906 0 0)
(-2.0292146 -0.28843473 0 -0.0089937347 0 0)
(-1.9712463 -0.25960712 0 -0.0013263268 0 0)
(-1.8327881 -0.24739973 0 -0.00044716211 0 0)
(-1.8697714 -0.25038915 0 -0.00017621378 0 0)
(-1.8179795 -0.24590948 0 -8.8855239e-05 0 0)
(-1.8570525 -0.2491889 0 -3.0803799e-05 0 0)
(-1.8182259 -0.24580028 0 5.1017555e-06 0 0)
(-1.8528219 -0.24886227 0 -1.6766114e-05 0 0)
(-1.8197993 -0.24593871 0 1.53581e-05 0 0)
(-1.8506925 -0.24869756 0 -1.647101e-05 0 0)
(-1.821325 -0.24608074 0 1.46465e-05 0 0)
(-1.8490249 -0.2485542 0 -1.4864992e-05 0 0)
(-1.8227459 -0.2462096 0 1.353674e-05 0 0)
(-1.8475734 -0.24842657 0 -1.3270965e-05 0 0)
(-1.8240456 -0.24632681 0 1.2395912e-05 0 0)
(-1.8462839 -0.24831283 0 -1.1947562e-05 0 0)
(-1.8252262 -0.2464331 0 1.1303016e-05 0 0)
(-1.8451286 -0.24821084 0 -1.0827258e-05 0 0)
(-1.8262964 -0.24652932 0 1.0303008e-05 0 0)
(-1.8440881 -0.24811891 0 -9.8546195e-06 0 0)
(-1.8272671 -0.24661649 0 9.4059747e-06 0 0)
(-1.8431469 -0.2480357 0 -9.0011153e-06 0 0)
(-1.8281494 -0.24669562 0 8.6093212e-06 0 0)
(-1.8422924 -0.24796011 0 -8.2484114e-06 0 0)
(-1.8289537 -0.24676769 0 7.9043573e-06 0 0)
(-1.8415134 -0.24789117 0 -7.5855432e-06 0 0)
(-1.8296895 -0.24683355 0 7.283169e-06 0 0)
(-1.8408005 -0.24782806 0 -7.0028314e-06 0 0)
(-1.8303654 -0.24689398 0 6.7381304e-06 0 0)
(-1.8401451 -0.24777002 0 -6.4930499e-06 0 0)
(-1.8309891 -0.24694969 0 6.2622508e-06 0 0)
(-1.8395395 -0.24771639 0 -6.0498685e-06 0 0)
(-1.8315677 -0.24700131 0 5.8509858e-06 0 0)
(-1.8389769 -0.24766658 0 -5.6685529e-06 0 0)
(-1.8321073 -0.2470494 0 5.4990606e-06 0 0)
(-1.838451 -0.24762003 0 -5.3453598e-06 0 0)
(-1.8326139 -0.24709448 0 5.2035013e-06 0 0)
(-1.8379562 -0.24757626 0 -5.0772474e-06 0 0)
(-1.8330926 -0.24713702 0 4.9630005e-06 0 0)
(-1.8374873 -0.2475348 0 -4.8627244e-06 0 0)
(-1.8335486 -0.24717747 0 4.7757394e-06 0 0)
(-1.8370396 -0.24749526 0 -4.7079418e-06 0 0)
(-1.8339864 -0.24721629 0 4.6297855e-06 0 0)
(-1.836607 -0.24745722 0 -4.6374712e-06 0 0)
(-1.8344051 -0.24725319 0 4.6080599e-06 0 0)
(-1.8361725 -0.24741718 0 -4.0807157e-06 0 0)
(-1.8348139 -0.24728166 0 6.7371039e-06 0 0)
(-1.8357931 -0.24739383 0 -6.4140003e-06 0 0)
(-1.5859027 -0.61131444 0 -0.18772961 0 0)
(-1.8279136 -0.28136517 0 -0.017200663 0 0)
(-1.8611784 -0.27250666 0 -0.0075027413 0 0)
(-1.834937 -0.25315539 0 -0.0019616853 0 0)
(-1.7246598 -0.24069034 0 -0.00067312326 0 0)
(-1.7548965 -0.24266553 0 -0.00021637578 0 0)
(-1.7066617 -0.23825463 0 -0.0001066525 0 0)
(-1.7414608 -0.24129577 0 -2.9500288e-05 0 0)
(-1.7054855 -0.23804076 0 1.5438655e-06 0 0)
(-1.7368756 -0.24094808 0 -1.3956631e-05 0 0)
(-1.7065266 -0.23815255 0 1.2974124e-05 0 0)
(-1.7347642 -0.24078573 0 -1.4073915e-05 0 0)
(-1.7078393 -0.23828505 0 1.2416517e-05 0 0)
(-1.7332123 -0.24064853 0 -1.274767e-05 0 0)
(-1.7091246 -0.23840755 0 1.1512284e-05 0 0)
(-1.7318821 -0.24052686 0 -1.1362533e-05 0 0)
(-1.71031 -0.23851926 0 1.0571817e-05 0 0)
(-1.7307023 -0.24041841 0 -1.022006e-05 0 0)
(-1.7113883 -0.23862063 0 9.6556383e-06 0 0)
(-1.7296451 -0.24032109 0 -9.2608926e-06 0 0)
(-1.7123665 -0.23871246 0 8.8099706e-06 0 0)
(-1.7286924 -0.2402333 0 -8.4311957e-06 0 0)
(-1.7132542 -0.23879572 0 8.048084e-06 0 0)
(-1.7278302 -0.24015379 0 -7.7039439e-06 0 0)
(-1.7140616 -0.23887135 0 7.3700032e-06 0 0)
(-1.7270471 -0.2400815 0 -7.0621931e-06 0 0)
(-1.714798 -0.23894028 0 6.7689718e-06 0 0)
(-1.7263329 -0.24001553 0 -6.4966203e-06 0 0)
(-1.7154721 -0.23900331 0 6.2386762e-06 0 0)
(-1.7256791 -0.2399551 0 -5.9988506e-06 0 0)
(-1.7160916 -0.23906119 0 5.7728143e-06 0 0)
(-1.7250778 -0.23989949 0 -5.5628545e-06 0 0)
(-1.7166634 -0.23911458 0 5.3654528e-06 0 0)
(-1.7245221 -0.23984808 0 -5.1833284e-06 0 0)
(-1.717194 -0.23916407 0 5.0130669e-06 0 0)
(-1.7240057 -0.2398003 0 -4.8563405e-06 0 0)
(-1.717689 -0.23921021 0 4.71104e-06 0 0)
(-1.7235231 -0.23975563 0 -4.5788534e-06 0 0)
(-1.7181537 -0.23925348 0 4.4570068e-06 0 0)
(-1.723069 -0.2397136 0 -4.3483121e-06 0 0)
(-1.7185929 -0.23929433 0 4.2501008e-06 0 0)
(-1.7226387 -0.23967377 0 -4.1634147e-06 0 0)
(-1.7190111 -0.2393332 0 4.0886281e-06 0 0)
(-1.7222278 -0.23963578 0 -4.0302683e-06 0 0)
(-1.7194127 -0.23937052 0 3.9597563e-06 0 0)
(-1.7218314 -0.23959924 0 -3.974877e-06 0 0)
(-1.7197969 -0.23940606 0 3.9402471e-06 0 0)
(-1.7214319 -0.23956061 0 -3.4097574e-06 0 0)
(-1.7201625 -0.2394329 0 6.042872e-06 0 0)
(-1.7210535 -0.23953586 0 -5.7780698e-06 0 0)
(-1.5851418 -0.57374683 0 -0.16307617 0 0)
(-1.6380748 -0.26491767 0 -0.015591209 0 0)
(-1.717002 -0.26710736 0 -0.0093797915 0 0)
(-1.7055067 -0.24352464 0 -0.0017317932 0 0)
(-1.6075947 -0.23214841 0 -0.00061568033 0 0)
(-1.638319 -0.23440312 0 -0.00019014561 0 0)
(-1.5954671 -0.23033287 0 -9.839773e-05 0 0)
(-1.6280794 -0.23330264 0 -2.1836866e-05 0 0)
(-1.5955404 -0.23023361 0 4.3108447e-07 0 0)
(-1.6244106 -0.23301802 0 -1.0791988e-05 0 0)
(-1.5967095 -0.23035687 0 1.1034597e-05 0 0)
(-1.6225819 -0.23287282 0 -1.1819387e-05 0 0)
(-1.5979395 -0.23048645 0 1.0426687e-05 0 0)
(-1.6211803 -0.23274405 0 -1.081077e-05 0 0)
(-1.5991168 -0.2306038 0 9.6803987e-06 0 0)
(-1.6199672 -0.23262852 0 -9.6263307e-06 0 0)
(-1.6001995 -0.23071034 0 8.9159616e-06 0 0)
(-1.6188892 -0.23252522 0 -8.6499338e-06 0 0)
(-1.6011842 -0.23080699 0 8.158701e-06 0 0)
(-1.6179222 -0.23243242 0 -7.8370584e-06 0 0)
(-1.6020779 -0.23089458 0 7.4525542e-06 0 0)
(-1.6170503 -0.23234865 0 -7.1368495e-06 0 0)
(-1.6028895 -0.23097405 0 6.8130391e-06 0 0)
(-1.6162608 -0.23227271 0 -6.5239678e-06 0 0)
(-1.603628 -0.2310463 0 6.2423703e-06 0 0)
(-1.6155434 -0.23220362 0 -5.982754e-06 0 0)
(-1.6043021 -0.23111218 0 5.7355594e-06 0 0)
(-1.6148889 -0.23214054 0 -5.5053896e-06 0 0)
(-1.6049193 -0.23117248 0 5.2876891e-06 0 0)
(-1.6142895 -0.23208271 0 -5.0846674e-06 0 0)
(-1.6054868 -0.23122787 0 4.8936705e-06 0 0)
(-1.6137381 -0.23202947 0 -4.7156248e-06 0 0)
(-1.6060109 -0.231279 0 4.5485054e-06 0 0)
(-1.6132284 -0.23198022 0 -4.3938906e-06 0 0)
(-1.6064972 -0.23132642 0 4.2495873e-06 0 0)
(-1.6127548 -0.23193443 0 -4.1162317e-06 0 0)
(-1.606951 -0.23137065 0 3.9928843e-06 0 0)
(-1.612312 -0.23189159 0 -3.8802622e-06 0 0)
(-1.6073771 -0.23141215 0 3.7765565e-06 0 0)
(-1.6118955 -0.23185127 0 -3.6838255e-06 0 0)
(-1.6077798 -0.23145134 0 3.6001364e-06 0 0)
(-1.6115008 -0.23181305 0 -3.525781e-06 0 0)
(-1.6081632 -0.23148865 0 3.462006e-06 0 0)
(-1.611124 -0.23177656 0 -3.4120876e-06 0 0)
(-1.6085315 -0.2315245 0 3.3487547e-06 0 0)
(-1.6107609 -0.2317415 0 -3.3697531e-06 0 0)
(-1.6088838 -0.23155869 0 3.3305881e-06 0 0)
(-1.610394 -0.2317043 0 -2.8032511e-06 0 0)
(-1.6092108 -0.23158411 0 5.372537e-06 0 0)
(-1.6100211 -0.23167842 0 -5.1776984e-06 0 0)
(-1.5850555 -0.55472514 0 -0.15145386 0 0)
(-1.4903893 -0.25466195 0 -0.01594477 0 0)
(-1.568344 -0.25664857 0 -0.0095397071 0 0)
(-1.5881683 -0.23368473 0 -0.0011838853 0 0)
(-1.5072575 -0.22437339 0 -0.00052227042 0 0)
(-1.531355 -0.2264399 0 -0.0001555681 0 0)
(-1.4911238 -0.22258158 0 -9.1670571e-05 0 0)
(-1.5200608 -0.22539061 0 -1.4686411e-05 0 0)
(-1.4899204 -0.22246124 0 -7.1065239e-07 0 0)
(-1.5160686 -0.22510661 0 -7.9433457e-06 0 0)
(-1.4906341 -0.22256634 0 9.2779379e-06 0 0)
(-1.5142444 -0.22496467 0 -9.7571853e-06 0 0)
(-1.4916776 -0.22268735 0 8.6234981e-06 0 0)
(-1.5129349 -0.22484157 0 -9.0388269e-06 0 0)
(-1.4927374 -0.22279875 0 8.0142706e-06 0 0)
(-1.5118226 -0.22473159 0 -8.0409987e-06 0 0)
(-1.4937228 -0.22290017 0 7.4067829e-06 0 0)
(-1.5108372 -0.22463323 0 -7.2170496e-06 0 0)
(-1.4946211 -0.22299224 0 6.7929928e-06 0 0)
(-1.5099533 -0.2245448 0 -6.5374972e-06 0 0)
(-1.495437 -0.22307574 0 6.2134095e-06 0 0)
(-1.5091559 -0.2244649 0 -5.9550532e-06 0 0)
(-1.4961784 -0.22315154 0 5.6850809e-06 0 0)
(-1.5084336 -0.22439242 0 -5.4461696e-06 0 0)
(-1.4968535 -0.2232205 0 5.2120982e-06 0 0)
(-1.5077769 -0.22432644 0 -4.9964092e-06 0 0)
(-1.4974699 -0.22328344 0 4.7910229e-06 0 0)
(-1.5071776 -0.22426616 0 -4.5993282e-06 0 0)
(-1.4980347 -0.22334106 0 4.4182108e-06 0 0)
(-1.5066285 -0.22421086 0 -4.2487707e-06 0 0)
(-1.4985542 -0.22339404 0 4.0896477e-06 0 0)
(-1.5061232 -0.22415993 0 -3.9407364e-06 0 0)
(-1.4990341 -0.22344297 0 3.8011824e-06 0 0)
(-1.5056561 -0.22411278 0 -3.6716963e-06 0 0)
(-1.4994796 -0.22348837 0 3.5510308e-06 0 0)
(-1.505222 -0.22406893 0 -3.4390329e-06 0 0)
(-1.4998953 -0.22353073 0 3.3356782e-06 0 0)
(-1.5048161 -0.22402789 0 -3.240932e-06 0 0)
(-1.5002857 -0.22357049 0 3.15376e-06 0 0)
(-1.5044343 -0.22398924 0 -3.0756142e-06 0 0)
(-1.5006546 -0.22360806 0 3.0051315e-06 0 0)
(-1.5040726 -0.22395259 0 -2.9420485e-06 0 0)
(-1.5010058 -0.22364383 0 2.888267e-06 0 0)
(-1.5037274 -0.2239176 0 -2.8459681e-06 0 0)
(-1.5013431 -0.22367823 0 2.7894284e-06 0 0)
(-1.5033951 -0.22388398 0 -2.8148929e-06 0 0)
(-1.501666 -0.22371109 0 2.7722238e-06 0 0)
(-1.5030586 -0.22384825 0 -2.2536228e-06 0 0)
(-1.5019583 -0.22373527 0 4.7243475e-06 0 0)
(-1.5026947 -0.22382146 0 -4.6125345e-06 0 0)
(-1.5811631 -0.51830837 0 -0.12978962 0 0)
(-1.3678854 -0.24235991 0 -0.014877074 0 0)
(-1.4377678 -0.24524129 0 -0.0092291833 0 0)
(-1.4793134 -0.22541165 0 -0.0010448573 0 0)
(-1.4047971 -0.21660226 0 -0.00050560142 0 0)
(-1.4257236 -0.21843016 0 -0.0001314791 0 0)
(-1.3886977 -0.21476052 0 -8.3881298e-05 0 0)
(-1.4150113 -0.21744483 0 -7.1597233e-06 0 0)
(-1.3874671 -0.2146665 0 -1.166414e-06 0 0)
(-1.4113201 -0.21718809 0 -5.1139994e-06 0 0)
(-1.3880843 -0.21476975 0 7.7829137e-06 0 0)
(-1.4096494 -0.21705643 0 -7.8242845e-06 0 0)
(-1.389025 -0.2148859 0 6.9991869e-06 0 0)
(-1.4084538 -0.21694027 0 -7.4057439e-06 0 0)
(-1.3899883 -0.21499219 0 6.4959975e-06 0 0)
(-1.4074391 -0.2168359 0 -6.587029e-06 0 0)
(-1.3908858 -0.21508877 0 6.0267296e-06 0 0)
(-1.4065399 -0.21674235 0 -5.9043536e-06 0 0)
(-1.3917047 -0.21517643 0 5.5424788e-06 0 0)
(-1.405733 -0.21665815 0 -5.3468855e-06 0 0)
(-1.3924488 -0.21525596 0 5.0779804e-06 0 0)
(-1.4050045 -0.216582 0 -4.8719426e-06 0 0)
(-1.3931255 -0.21532822 0 4.6510233e-06 0 0)
(-1.4043443 -0.21651289 0 -4.4579661e-06 0 0)
(-1.3937419 -0.215394 0 4.2671778e-06 0 0)
(-1.4037438 -0.21644992 0 -4.0916941e-06 0 0)
(-1.3943052 -0.21545407 0 3.9244165e-06 0 0)
(-1.4031955 -0.21639236 0 -3.7679508e-06 0 0)
(-1.3948215 -0.21550911 0 3.620199e-06 0 0)
(-1.4026931 -0.21633952 0 -3.4815344e-06 0 0)
(-1.3952965 -0.21555973 0 3.3515019e-06 0 0)
(-1.4022306 -0.21629083 0 -3.229302e-06 0 0)
(-1.3957355 -0.21560651 0 3.1149272e-06 0 0)
(-1.401803 -0.21624575 0 -3.0084955e-06 0 0)
(-1.396143 -0.21564993 0 2.9094317e-06 0 0)
(-1.4014055 -0.21620378 0 -2.8170347e-06 0 0)
(-1.3965235 -0.21569047 0 2.7319676e-06 0 0)
(-1.401034 -0.2161645 0 -2.6536366e-06 0 0)
(-1.3968807 -0.21572853 0 2.5815775e-06 0 0)
(-1.4006844 -0.2161275 0 -2.5168312e-06 0 0)
(-1.3972182 -0.21576451 0 2.4584172e-06 0 0)
(-1.4003533 -0.2160924 0 -2.405686e-06 0 0)
(-1.3975396 -0.21579877 0 2.3610144e-06 0 0)
(-1.4000374 -0.21605887 0 -2.3256487e-06 0 0)