/*--------------------------------*- C++ -*----------------------------------*\
| =========                 |                                                 |
| \\      /  F ield         | OpenFOAM: The Open Source CFD Toolbox           |
|  \\    /   O peration     | Version:  2312                                  |
|   \\  /    A nd           | Website:  www.openfoam.com                      |
|    \\/     M anipulation  |                                                 |
\*---------------------------------------------------------------------------*/
FoamFile
{
    version     2.0;
    format      ascii;
    arch        "LSB;label=32;scalar=64";
    class       volSymmTensorField;
    location    "2";
    object      sigma;
}
// * * * * * * * * * * * * * * * * * * * * * * * * * * * * * * * * * * * * * //

dimensions      [0 2 -2 0 0 0 0];

internalField   nonuniform List<symmTensor> 
4000
(
(-2.2643325 -1.0067824 0 -0.40374802 0 0)
(-5.6634843 -0.44142484 0 -0.0029137331 0 0)
(-2.9189457 -0.31297389 0 -0.00085769934 0 0)
(-3.1214512 -0.32258689 0 9.5563646e-06 0 0)
(-2.9306772 -0.31237259 0 2.3357296e-05 0 0)
(-3.0425759 -0.31874111 0 -5.6193371e-05 0 0)
(-2.9153151 -0.31152982 0 3.7092524e-05 0 0)
(-3.0070397 -0.31681236 0 -4.4961716e-05 0 0)
(-2.9192508 -0.31174545 0 4.071162e-05 0 0)
(-2.9975953 -0.31629279 0 -4.009245e-05 0 0)
(-2.9238423 -0.31200847 0 3.7781984e-05 0 0)
(-2.9926734 -0.31601428 0 -3.6196726e-05 0 0)
(-2.9274879 -0.31222055 0 3.4208159e-05 0 0)
(-2.988863 -0.31579575 0 -3.2594904e-05 0 0)
(-2.9307524 -0.31241077 0 3.0882964e-05 0 0)
(-2.9855922 -0.31560737 0 -2.9389159e-05 0 0)
(-2.9337234 -0.31258368 0 2.790145e-05 0 0)
(-2.9826986 -0.3154405 0 -2.6558469e-05 0 0)
(-2.9364119 -0.31273994 0 2.5254078e-05 0 0)
(-2.9801122 -0.31529132 0 -2.4060033e-05 0 0)
(-2.9388376 -0.31288075 0 2.2912256e-05 0 0)
(-2.9777891 -0.31515738 0 -2.1855828e-05 0 0)
(-2.9410266 -0.31300762 0 2.0845222e-05 0 0)
(-2.9756951 -0.31503675 0 -1.9913305e-05 0 0)
(-2.9430058 -0.31312213 0 1.9024336e-05 0 0)
(-2.9738012 -0.3149278 0 -1.8204268e-05 0 0)
(-2.9448008 -0.31322576 0 1.742377e-05 0 0)
(-2.9720819 -0.31482905 0 -1.6704236e-05 0 0)
(-2.9464347 -0.31331986 0 1.6020975e-05 0 0)
(-2.9705146 -0.31473922 0 -1.5392007e-05 0 0)
(-2.9479284 -0.31340565 0 1.4796342e-05 0 0)
(-2.9690791 -0.31465716 0 -1.4249366e-05 0 0)
(-2.9493007 -0.31348422 0 1.3733048e-05 0 0)
(-2.9677572 -0.31458181 0 -1.3260721e-05 0 0)
(-2.9505686 -0.31355653 0 1.2816834e-05 0 0)
(-2.9665329 -0.31451227 0 -1.2412975e-05 0 0)
(-2.9517471 -0.31362348 0 1.2035655e-05 0 0)
(-2.9653914 -0.3144477 0 -1.1695151e-05 0 0)
(-2.95285 -0.31368583 0 1.1379623e-05 0 0)
(-2.9643197 -0.31438736 0 -1.1098304e-05 0 0)
(-2.9538897 -0.31374432 0 1.0840854e-05 0 0)
(-2.9633059 -0.31433055 0 -1.0615561e-05 0 0)
(-2.9548779 -0.31379959 0 1.0413248e-05 0 0)
(-2.9623382 -0.31427666 0 -1.0242877e-05 0 0)
(-2.9558229 -0.31385212 0 1.0092738e-05 0 0)
(-2.9614025 -0.31422487 0 -9.9760829e-06 0 0)
(-2.956737 -0.31390244 0 9.904842e-06 0 0)
(-2.9605474 -0.31417735 0 -9.7339773e-06 0 0)
(-2.9579078 -0.3139646 0 1.0101799e-05 0 0)
(-2.9606546 -0.31418294 0 -9.8435782e-06 0 0)
(-1.9851787 -0.92370955 0 -0.38172917 0 0)
(-4.8748398 -0.42196354 0 -0.0081344159 0 0)
(-2.9817188 -0.32108909 0 -0.0025775046 0 0)
(-2.8836899 -0.3097633 0 -2.3805804e-05 0 0)
(-2.7156168 -0.30073904 0 -2.4437584e-06 0 0)
(-2.8138324 -0.30671568 0 -7.6194703e-05 0 0)
(-2.706519 -0.3001085 0 2.1332235e-05 0 0)
(-2.7831486 -0.30489076 0 -5.049655e-05 0 0)
(-2.7081566 -0.30016828 0 4.1666631e-05 0 0)
(-2.7750001 -0.30441133 0 -4.3631841e-05 0 0)
(-2.7118358 -0.30039591 0 4.0765291e-05 0 0)
(-2.7708474 -0.30415773 0 -3.9602302e-05 0 0)
(-2.7149131 -0.30059191 0 3.7211788e-05 0 0)
(-2.767588 -0.30395369 0 -3.5649964e-05 0 0)
(-2.7176916 -0.30076953 0 3.3681204e-05 0 0)
(-2.7647799 -0.30377682 0 -3.2119944e-05 0 0)
(-2.7202276 -0.30093143 0 3.0462111e-05 0 0)
(-2.7622959 -0.30362013 0 -2.9020535e-05 0 0)
(-2.7225255 -0.30107789 0 2.758763e-05 0 0)
(-2.7600755 -0.30348006 0 -2.629353e-05 0 0)
(-2.7246009 -0.30120994 0 2.5039716e-05 0 0)
(-2.7580804 -0.30335426 0 -2.3890603e-05 0 0)
(-2.7264757 -0.30132901 0 2.278879e-05 0 0)
(-2.7562807 -0.3032409 0 -2.1773746e-05 0 0)
(-2.7281726 -0.30143656 0 2.0805133e-05 0 0)
(-2.7546515 -0.30313842 0 -1.991128e-05 0 0)
(-2.7297133 -0.30153399 0 1.9060926e-05 0 0)
(-2.753171 -0.30304547 0 -1.8276404e-05 0 0)
(-2.7311175 -0.30162255 0 1.7531918e-05 0 0)
(-2.7518199 -0.30296082 0 -1.6845992e-05 0 0)
(-2.7324028 -0.30170337 0 1.619692e-05 0 0)
(-2.750581 -0.3028834 0 -1.5600379e-05 0 0)
(-2.7335853 -0.30177746 0 1.5037751e-05 0 0)
(-2.7494389 -0.30281225 0 -1.4522706e-05 0 0)
(-2.7346792 -0.30184574 0 1.4039214e-05 0 0)
(-2.7483798 -0.30274652 0 -1.3599044e-05 0 0)
(-2.7356974 -0.30190902 0 1.3188384e-05 0 0)
(-2.7473912 -0.30268542 0 -1.2817777e-05 0 0)
(-2.7366516 -0.30196802 0 1.2474969e-05 0 0)
(-2.7464619 -0.30262826 0 -1.2169626e-05 0 0)
(-2.7375526 -0.30202341 0 1.1891155e-05 0 0)
(-2.7455816 -0.30257441 0 -1.1648053e-05 0 0)
(-2.7384101 -0.30207581 0 1.1431185e-05 0 0)
(-2.7447404 -0.30252328 0 -1.1251556e-05 0 0)
(-2.7392321 -0.3021257 0 1.1090858e-05 0 0)
(-2.7439251 -0.30247411 0 -1.0980355e-05 0 0)
(-2.7400225 -0.30217305 0 1.0931168e-05 0 0)
(-2.7431492 -0.30242665 0 -1.0631993e-05 0 0)
(-2.7409592 -0.30222432 0 1.1701099e-05 0 0)
(-2.7430577 -0.3024209 0 -1.0669426e-05 0 0)
(-1.850652 -0.86732075 0 -0.35296389 0 0)
(-4.278602 -0.39480265 0 -0.0096214311 0 0)
(-2.8957519 -0.32043487 0 -0.0038788853 0 0)
(-2.7537409 -0.3026576 0 -0.00012399039 0 0)
(-2.576923 -0.29293936 0 -2.3541896e-05 0 0)
(-2.6651849 -0.29862343 0 -8.6752184e-05 0 0)
(-2.5700583 -0.29241752 0 5.0328551e-06 0 0)
(-2.6384045 -0.29692152 0 -5.060987e-05 0 0)
(-2.5710905 -0.29241667 0 3.7970695e-05 0 0)
(-2.6310156 -0.29646318 0 -4.1979612e-05 0 0)
(-2.5742897 -0.29262614 0 3.8907569e-05 0 0)
(-2.6273011 -0.29622436 0 -3.8201535e-05 0 0)
(-2.5770396 -0.29281285 0 3.5705558e-05 0 0)
(-2.6243821 -0.29603008 0 -3.4366945e-05 0 0)
(-2.5795295 -0.2929825 0 3.2378536e-05 0 0)
(-2.6218627 -0.29586112 0 -3.0939117e-05 0 0)
(-2.5818036 -0.29313722 0 2.9308726e-05 0 0)
(-2.619634 -0.29571141 0 -2.7945714e-05 0 0)
(-2.5838656 -0.29327725 0 2.6554422e-05 0 0)
(-2.6176418 -0.29557757 0 -2.531955e-05 0 0)
(-2.5857289 -0.29340356 0 2.4108441e-05 0 0)
(-2.6158513 -0.29545733 0 -2.3008012e-05 0 0)
(-2.5874131 -0.29351751 0 2.1945738e-05 0 0)
(-2.6142355 -0.29534892 0 -2.0972342e-05 0 0)
(-2.5889384 -0.29362051 0 2.0039089e-05 0 0)
(-2.6127721 -0.29525085 0 -1.9181241e-05 0 0)
(-2.5903242 -0.29371387 0 1.8362043e-05 0 0)
(-2.6114414 -0.29516183 0 -1.760882e-05 0 0)
(-2.591588 -0.29379879 0 1.6891578e-05 0 0)
(-2.6102263 -0.2950807 0 -1.6232816e-05 0 0)
(-2.5927455 -0.29387636 0 1.5607453e-05 0 0)
(-2.6091114 -0.29500644 0 -1.5034443e-05 0 0)
(-2.5938111 -0.29394753 0 1.4492307e-05 0 0)
(-2.608083 -0.29493813 0 -1.3997603e-05 0 0)
(-2.5947975 -0.29401317 0 1.3531821e-05 0 0)
(-2.6071286 -0.29487496 0 -1.3109167e-05 0 0)
(-2.5957162 -0.29407405 0 1.2713728e-05 0 0)
(-2.6062373 -0.2948162 0 -1.2358255e-05 0 0)
(-2.5965776 -0.29413087 0 1.202855e-05 0 0)
(-2.6053988 -0.29476116 0 -1.1736399e-05 0 0)
(-2.5973914 -0.29418426 0 1.1469489e-05 0 0)
(-2.604604 -0.29470927 0 -1.1238132e-05 0 0)
(-2.5981665 -0.2942348 0 1.1031975e-05 0 0)
(-2.6038441 -0.29465997 0 -1.0864551e-05 0 0)
(-2.5989101 -0.29428298 0 1.0712338e-05 0 0)
(-2.6031068 -0.29461253 0 -1.0622742e-05 0 0)
(-2.5996246 -0.29432864 0 1.0587786e-05 0 0)
(-2.6023961 -0.29456591 0 -1.0257096e-05 0 0)
(-2.6004486 -0.29437498 0 1.1713063e-05 0 0)
(-2.6022212 -0.29455733 0 -1.0978077e-05 0 0)
(-1.779792 -0.82952538 0 -0.33054163 0 0)
(-3.865659 -0.37814588 0 -0.011575988 0 0)
(-2.793075 -0.31952185 0 -0.0053590287 0 0)
(-2.6310221 -0.29581504 0 -0.00023155086 0 0)
(-2.44446 -0.285287 0 -5.8766655e-05 0 0)
(-2.521702 -0.29054787 0 -9.591414e-05 0 0)
(-2.4365309 -0.28472079 0 -1.6077794e-05 0 0)
(-2.4981328 -0.28895671 0 -4.6797847e-05 0 0)
(-2.4371244 -0.28466585 0 3.0372668e-05 0 0)
(-2.4913992 -0.28851818 0 -3.6672413e-05 0 0)
(-2.439922 -0.28485712 0 3.3625496e-05 0 0)
(-2.4880392 -0.28829343 0 -3.3537437e-05 0 0)
(-2.4423983 -0.2850345 0 3.1107518e-05 0 0)
(-2.4853966 -0.28810864 0 -3.0149512e-05 0 0)
(-2.4446492 -0.28519612 0 2.8289875e-05 0 0)
(-2.4831112 -0.2879474 0 -2.7111183e-05 0 0)
(-2.4467059 -0.28534361 0 2.5641811e-05 0 0)
(-2.4810889 -0.28780448 0 -2.44787e-05 0 0)
(-2.4485717 -0.28547717 0 2.3248175e-05 0 0)
(-2.4792811 -0.28767668 0 -2.217915e-05 0 0)
(-2.4502587 -0.28559771 0 2.1116179e-05 0 0)
(-2.4776561 -0.28756182 0 -2.0158352e-05 0 0)
(-2.4517843 -0.28570653 0 1.9228534e-05 0 0)
(-2.4761892 -0.28745821 0 -1.8379511e-05 0 0)
(-2.4531668 -0.28580496 0 1.7563251e-05 0 0)
(-2.4748601 -0.28736441 0 -1.6814133e-05 0 0)
(-2.4544235 -0.28589425 0 1.6097655e-05 0 0)
(-2.4736511 -0.2872792 0 -1.5439487e-05 0 0)
(-2.4555702 -0.28597554 0 1.4811993e-05 0 0)
(-2.4725468 -0.28720148 0 -1.4236055e-05 0 0)
(-2.456621 -0.28604985 0 1.3688769e-05 0 0)
(-2.4715331 -0.28713027 0 -1.3187591e-05 0 0)
(-2.4575888 -0.2861181 0 1.271293e-05 0 0)
(-2.4705977 -0.28706472 0 -1.2280139e-05 0 0)
(-2.458485 -0.28618109 0 1.1872309e-05 0 0)
(-2.4697295 -0.28700404 0 -1.1502504e-05 0 0)
(-2.45932 -0.28623958 0 1.1156289e-05 0 0)
(-2.4689185 -0.28694754 0 -1.0845463e-05 0 0)
(-2.4601032 -0.28629422 0 1.0556973e-05 0 0)
(-2.4681555 -0.28689458 0 -1.0301933e-05 0 0)
(-2.4608432 -0.28634561 0 1.0069038e-05 0 0)
(-2.4674322 -0.28684459 0 -9.8677843e-06 0 0)
(-2.4615482 -0.28639432 0 9.6890313e-06 0 0)
(-2.4667406 -0.28679706 0 -9.546297e-06 0 0)
(-2.4622249 -0.28644081 0 9.4126539e-06 0 0)
(-2.4660696 -0.2867513 0 -9.34931e-06 0 0)
(-2.4628742 -0.28648483 0 9.3304054e-06 0 0)
(-2.4654148 -0.28670545 0 -8.9445878e-06 0 0)
(-2.4635992 -0.28652655 0 1.0821599e-05 0 0)
(-2.4651637 -0.28669345 0 -1.0193725e-05 0 0)
(-1.7074225 -0.78704529 0 -0.30514772 0 0)
(-3.4504429 -0.35930773 0 -0.012755278 0 0)
(-2.6522562 -0.31586724 0 -0.0066330468 0 0)
(-2.5074939 -0.28894397 0 -0.00034246146 0 0)
(-2.3184624 -0.27775646 0 -0.0001001179 0 0)
(-2.3831224 -0.28249057 0 -0.00010586764 0 0)
(-2.3062164 -0.27699607 0 -3.4582201e-05 0 0)
(-2.3620302 -0.28099872 0 -4.2870882e-05 0 0)
(-2.3064204 -0.2769042 0 2.3322755e-05 0 0)
(-2.3558614 -0.28058005 0 -3.1490451e-05 0 0)
(-2.3088858 -0.27708051 0 2.8582065e-05 0 0)
(-2.3528035 -0.28036823 0 -2.8992871e-05 0 0)
(-2.3111293 -0.27724967 0 2.6662019e-05 0 0)
(-2.3503998 -0.28019233 0 -2.6048557e-05 0 0)
(-2.3131768 -0.27740402 0 2.4324343e-05 0 0)
(-2.3483173 -0.28003832 0 -2.3391965e-05 0 0)
(-2.3150479 -0.27754488 0 2.2082418e-05 0 0)
(-2.3464734 -0.27990172 0 -2.1110636e-05 0 0)
(-2.3167458 -0.27767249 0 2.0037608e-05 0 0)
(-2.3448249 -0.27977955 0 -1.9128017e-05 0 0)
(-2.3182817 -0.27778773 0 1.8209531e-05 0 0)
(-2.3433426 -0.2796697 0 -1.7389029e-05 0 0)
(-2.3196715 -0.27789182 0 1.6588149e-05 0 0)
(-2.3420042 -0.27957054 0 -1.5859005e-05 0 0)
(-2.3209315 -0.27798604 0 1.5156524e-05 0 0)
(-2.3407911 -0.27948071 0 -1.4512262e-05 0 0)
(-2.3220775 -0.27807158 0 1.3895621e-05 0 0)
(-2.3396873 -0.27939905 0 -1.3329148e-05 0 0)
(-2.3231236 -0.27814951 0 1.2788855e-05 0 0)
(-2.3386787 -0.27932451 0 -1.2292817e-05 0 0)
(-2.3240826 -0.27822081 0 1.1821356e-05 0 0)
(-2.3377527 -0.27925616 0 -1.1389449e-05 0 0)
(-2.3249662 -0.27828634 0 1.0980273e-05 0 0)
(-2.336898 -0.27919319 0 -1.0607135e-05 0 0)
(-2.3257846 -0.27834688 0 1.025547e-05 0 0)
(-2.3361046 -0.27913486 0 -9.936479e-06 0 0)
(-2.3265473 -0.27840313 0 9.637847e-06 0 0)
(-2.3353634 -0.2790805 0 -9.3697517e-06 0 0)
(-2.3272627 -0.27845571 0 9.1209038e-06 0 0)
(-2.3346661 -0.27902951 0 -8.9010787e-06 0 0)
(-2.3279387 -0.27850521 0 8.7005103e-06 0 0)
(-2.3340052 -0.27898134 0 -8.5272637e-06 0 0)
(-2.3285826 -0.27855216 0 8.373904e-06 0 0)
(-2.3333733 -0.2789355 0 -8.252895e-06 0 0)
(-2.3292007 -0.27859705 0 8.1352355e-06 0 0)
(-2.3327608 -0.27889138 0 -8.0932556e-06 0 0)
(-2.3297931 -0.27863953 0 8.0795935e-06 0 0)
(-2.3321579 -0.27884652 0 -7.6486645e-06 0 0)
(-2.3304363 -0.27867761 0 9.8326861e-06 0 0)
(-2.331855 -0.27883168 0 -9.3097089e-06 0 0)
(-1.641635 -0.73647368 0 -0.27242988 0 0)
(-3.0697334 -0.34081109 0 -0.013313334 0 0)
(-2.4986527 -0.31075446 0 -0.0077059999 0 0)
(-2.381487 -0.2818508 0 -0.00043849773 0 0)
(-2.1969851 -0.27028613 0 -0.00014901955 0 0)
(-2.2493451 -0.27446699 0 -0.00011826884 0 0)
(-2.1794123 -0.26925901 0 -5.0656043e-05 0 0)
(-2.230009 -0.27304775 0 -3.9693727e-05 0 0)
(-2.179165 -0.26913718 0 1.7463104e-05 0 0)
(-2.2242854 -0.27264688 0 -2.7158915e-05 0 0)
(-2.1813215 -0.26929971 0 2.4439113e-05 0 0)
(-2.2214867 -0.2724469 0 -2.5214462e-05 0 0)
(-2.1833552 -0.26946119 0 2.297954e-05 0 0)
(-2.2192954 -0.27227945 0 -2.2646783e-05 0 0)
(-2.1852217 -0.2696087 0 2.1034269e-05 0 0)
(-2.2173942 -0.27213233 0 -2.0307346e-05 0 0)
(-2.1869275 -0.26974328 0 1.9129749e-05 0 0)
(-2.2157097 -0.27200175 0 -1.831691e-05 0 0)
(-2.1884759 -0.26986524 0 1.737475e-05 0 0)
(-2.2142032 -0.27188491 0 -1.6596946e-05 0 0)
(-2.1898773 -0.26997545 0 1.57988e-05 0 0)
(-2.2128482 -0.2717798 0 -1.5091532e-05 0 0)
(-2.191146 -0.27007507 0 1.4398123e-05 0 0)
(-2.2116244 -0.27168486 0 -1.3767742e-05 0 0)
(-2.1922968 -0.27016529 0 1.3160071e-05 0 0)
(-2.2105147 -0.27159881 0 -1.2602162e-05 0 0)
(-2.193344 -0.27024726 0 1.2068707e-05 0 0)
(-2.2095047 -0.27152051 0 -1.1577739e-05 0 0)
(-2.1943005 -0.270322 0 1.111007e-05 0 0)
(-2.2085814 -0.27144899 0 -1.0679816e-05 0 0)
(-2.1951777 -0.27039043 0 1.0271483e-05 0 0)
(-2.2077336 -0.27138338 0 -9.8965865e-06 0 0)
(-2.1959861 -0.27045336 0 9.5418972e-06 0 0)
(-2.2069509 -0.27132287 0 -9.2178278e-06 0 0)
(-2.1967351 -0.27051154 0 8.9128614e-06 0 0)
(-2.2062242 -0.27126679 0 -8.6355998e-06 0 0)
(-2.1974332 -0.27056564 0 8.3764803e-06 0 0)
(-2.2055453 -0.27121449 0 -8.1433975e-06 0 0)
(-2.1980881 -0.27061625 0 7.9273577e-06 0 0)
(-2.2049067 -0.27116539 0 -7.7362406e-06 0 0)
(-2.198707 -0.27066392 0 7.5622694e-06 0 0)
(-2.2043014 -0.27111899 0 -7.4115683e-06 0 0)
(-2.1992964 -0.27070917 0 7.2788136e-06 0 0)
(-2.2037229 -0.2710748 0 -7.1747011e-06 0 0)
(-2.1998622 -0.27075247 0 7.0693483e-06 0 0)
(-2.2031626 -0.27103227 0 -7.0436358e-06 0 0)
(-2.2004039 -0.27079348 0 7.0290261e-06 0 0)
(-2.2026074 -0.27098851 0 -6.5600838e-06 0 0)
(-2.2009761 -0.2708285 0 8.9626738e-06 0 0)
(-2.2022692 -0.2709711 0 -8.5033916e-06 0 0)
(-1.6199513 -0.70964208 0 -0.25428676 0 0)
(-2.7095852 -0.32354872 0 -0.014084782 0 0)
(-2.3360096 -0.30414833 0 -0.0085143709 0 0)
(-2.2503341 -0.27453341 0 -0.00058078269 0 0)
(-2.0785424 -0.26289412 0 -0.00022251226 0 0)
(-2.1199529 -0.26646934 0 -0.00013358553 0 0)
(-2.0560275 -0.26150427 0 -6.4265328e-05 0 0)
(-2.1019383 -0.26509597 0 -3.6462018e-05 0 0)
(-2.055393 -0.26136416 0 1.2728041e-05 0 0)
(-2.096605 -0.26471572 0 -2.3348995e-05 0 0)
(-2.0572762 -0.26151594 0 2.0988945e-05 0 0)
(-2.0940388 -0.26452769 0 -2.1976031e-05 0 0)
(-2.0591202 -0.26167044 0 1.9857389e-05 0 0)
(-2.0920395 -0.26436855 0 -1.9749171e-05 0 0)
(-2.0608234 -0.26181143 0 1.8234987e-05 0 0)
(-2.0903029 -0.26422814 0 -1.7682533e-05 0 0)
(-2.0623802 -0.26193997 0 1.661671e-05 0 0)
(-2.0887629 -0.26410338 0 -1.5939613e-05 0 0)
(-2.0637936 -0.26205649 0 1.5108416e-05 0 0)
(-2.087385 -0.26399169 0 -1.4442894e-05 0 0)
(-2.0650734 -0.26216184 0 1.3746983e-05 0 0)
(-2.0861453 -0.26389116 0 -1.3136011e-05 0 0)
(-2.0662327 -0.26225714 0 1.2533966e-05 0 0)
(-2.0850251 -0.26380029 0 -1.1987523e-05 0 0)
(-2.0672849 -0.2623435 0 1.146047e-05 0 0)
(-2.084009 -0.26371788 0 -1.0975927e-05 0 0)
(-2.0682429 -0.26242203 0 1.0513209e-05 0 0)
(-2.0830838 -0.26364284 0 -1.0086387e-05 0 0)
(-2.0691183 -0.26249368 0 9.6804793e-06 0 0)
(-2.0822378 -0.26357425 0 -9.3061092e-06 0 0)
(-2.0699215 -0.26255932 0 8.9514609e-06 0 0)
(-2.0814606 -0.26351127 0 -8.6249865e-06 0 0)
(-2.070662 -0.26261974 0 8.3166263e-06 0 0)
(-2.080743 -0.26345317 0 -8.0342308e-06 0 0)
(-2.0713483 -0.26267563 0 7.7689589e-06 0 0)
(-2.0800767 -0.26339927 0 -7.5271173e-06 0 0)
(-2.0719881 -0.26272763 0 7.3015564e-06 0 0)
(-2.0794542 -0.26334898 0 -7.0981498e-06 0 0)
(-2.0725883 -0.26277631 0 6.9099371e-06 0 0)
(-2.0788685 -0.26330174 0 -6.743101e-06 0 0)
(-2.0731555 -0.26282219 0 6.5915932e-06 0 0)
(-2.0783135 -0.26325705 0 -6.4598445e-06 0 0)
(-2.0736957 -0.26286577 0 6.344377e-06 0 0)
(-2.0777833 -0.26321449 0 -6.25414e-06 0 0)
(-2.0742143 -0.26290751 0 6.1589428e-06 0 0)
(-2.0772701 -0.26317352 0 -6.1463925e-06 0 0)
(-2.0747104 -0.26294708 0 6.127792e-06 0 0)
(-2.0767589 -0.26313098 0 -5.6310221e-06 0 0)
(-2.0752206 -0.26297952 0 8.1753289e-06 0 0)
(-2.0763984 -0.26311132 0 -7.7629437e-06 0 0)
(-1.5966018 -0.66610292 0 -0.2242337 0 0)
(-2.3736512 -0.30809586 0 -0.014991536 0 0)
(-2.1725642 -0.29626258 0 -0.0089461483 0 0)
(-2.1053773 -0.26613639 0 -0.00074366354 0 0)
(-1.9573377 -0.25529468 0 -0.00032245396 0 0)
(-1.9946008 -0.25852979 0 -0.0001598843 0 0)
(-1.9363274 -0.25377588 0 -8.1040851e-05 0 0)
(-1.9780332 -0.25716766 0 -3.4845604e-05 0 0)
(-1.9352821 -0.25359767 0 8.1692503e-06 0 0)
(-1.9728665 -0.25679142 0 -2.0050236e-05 0 0)
(-1.9368071 -0.25373176 0 1.7937008e-05 0 0)
(-1.9704501 -0.25661112 0 -1.9096803e-05 0 0)
(-1.9384518 -0.25387806 0 1.7092855e-05 0 0)
(-1.9686136 -0.25645941 0 -1.7174156e-05 0 0)
(-1.9400024 -0.25401255 0 1.5750779e-05 0 0)
(-1.9670255 -0.25632546 0 -1.5351726e-05 0 0)
(-1.9414234 -0.25413523 0 1.4385238e-05 0 0)
(-1.9656169 -0.25620635 0 -1.3828662e-05 0 0)
(-1.9427143 -0.25424649 0 1.3095611e-05 0 0)
(-1.964356 -0.25609965 0 -1.2529849e-05 0 0)
(-1.9438837 -0.25434713 0 1.1924358e-05 0 0)
(-1.9632211 -0.25600354 0 -1.13989e-05 0 0)
(-1.9449437 -0.25443824 0 1.0877712e-05 0 0)
(-1.9621952 -0.25591663 0 -1.0405789e-05 0 0)
(-1.9459064 -0.25452087 0 9.950088e-06 0 0)
(-1.9612642 -0.25583774 0 -9.5306757e-06 0 0)
(-1.9467833 -0.25459605 0 9.1305969e-06 0 0)
(-1.9604162 -0.25576586 0 -8.7607223e-06 0 0)
(-1.9475849 -0.2546647 0 8.4095093e-06 0 0)
(-1.9596405 -0.25570011 0 -8.0847617e-06 0 0)
(-1.9483209 -0.25472763 0 7.7776675e-06 0 0)
(-1.9589277 -0.25563971 0 -7.4941888e-06 0 0)
(-1.9489996 -0.2547856 0 7.2268715e-06 0 0)
(-1.9582694 -0.25558394 0 -6.9814871e-06 0 0)
(-1.9496288 -0.25483926 0 6.7513777e-06 0 0)
(-1.957658 -0.25553218 0 -6.5409787e-06 0 0)
(-1.9502155 -0.25488921 0 6.3451427e-06 0 0)
(-1.9570868 -0.25548385 0 -6.1680744e-06 0 0)
(-1.9507661 -0.25493601 0 6.00447e-06 0 0)
(-1.9565493 -0.25543842 0 -5.8591584e-06 0 0)
(-1.9512863 -0.25498014 0 5.7274731e-06 0 0)
(-1.9560401 -0.25539544 0 -5.6124576e-06 0 0)
(-1.9517817 -0.25502207 0 5.5121737e-06 0 0)
(-1.9555537 -0.25535446 0 -5.4339692e-06 0 0)
(-1.9522573 -0.25506227 0 5.3478039e-06 0 0)
(-1.9550834 -0.25531504 0 -5.3462818e-06 0 0)
(-1.9527121 -0.25510043 0 5.3225215e-06 0 0)
(-1.9546129 -0.25527379 0 -4.8072675e-06 0 0)
(-1.9531678 -0.25513068 0 7.429766e-06 0 0)
(-1.9542398 -0.25525219 0 -7.0612719e-06 0 0)
(-1.5893161 -0.6424838 0 -0.20866716 0 0)
(-2.0660178 -0.29298163 0 -0.01613273 0 0)
(-2.029216 -0.28826052 0 -0.0089425495 0 0)
(-1.9712419 -0.25969804 0 -0.0013567271 0 0)
(-1.8331252 -0.24746726 0 -0.00045557504 0 0)
(-1.8697792 -0.25039965 0 -0.00017782668 0 0)
(-1.8180281 -0.24591943 0 -8.9678628e-05 0 0)
(-1.8570049 -0.24918737 0 -3.10509e-05 0 0)
(-1.818246 -0.24580331 0 5.0280207e-06 0 0)
(-1.8527823 -0.2488593 0 -1.6741868e-05 0 0)
(-1.8198248 -0.24594125 0 1.5337783e-05 0 0)
(-1.8506606 -0.24869487 0 -1.6444862e-05 0 0)
(-1.8213519 -0.2460832 0 1.4626362e-05 0 0)
(-1.8489966 -0.24855174 0 -1.4841741e-05 0 0)
(-1.822772 -0.24621196 0 1.3514645e-05 0 0)
(-1.8475472 -0.24842426 0 -1.3247826e-05 0 0)
(-1.8240705 -0.24632905 0 1.237289e-05 0 0)
(-1.8462591 -0.24831064 0 -1.1924091e-05 0 0)
(-1.8252498 -0.24643522 0 1.1279518e-05 0 0)
(-1.8451052 -0.24820877 0 -1.0803566e-05 0 0)
(-1.8263187 -0.24653133 0 1.0279353e-05 0 0)
(-1.844066 -0.24811696 0 -9.8309501e-06 0 0)
(-1.8272881 -0.24661838 0 9.3824228e-06 0 0)
(-1.8431262 -0.24803386 0 -8.9776695e-06 0 0)
(-1.8281691 -0.2466974 0 8.5861039e-06 0 0)
(-1.8422731 -0.24795839 0 -8.2254059e-06 0 0)
(-1.828972 -0.24676934 0 7.8816437e-06 0 0)
(-1.8414956 -0.24788958 0 -7.5631212e-06 0 0)
(-1.8297064 -0.24683507 0 7.2611045e-06 0 0)
(-1.8407841 -0.24782659 0 -6.9811096e-06 0 0)
(-1.8303809 -0.24689538 0 6.7168027e-06 0 0)
(-1.8401302 -0.24776869 0 -6.4721072e-06 0 0)
(-1.8310031 -0.24695096 0 6.2417282e-06 0 0)
(-1.8395261 -0.24771519 0 -6.0297378e-06 0 0)
(-1.8315802 -0.24700244 0 5.8312754e-06 0 0)
(-1.838965 -0.24766551 0 -5.6492456e-06 0 0)
(-1.8321184 -0.24705039 0 5.4801533e-06 0 0)
(-1.8384407 -0.2476191 0 -5.3268315e-06 0 0)
(-1.8326234 -0.24709534 0 5.1853605e-06 0 0)
(-1.8379474 -0.24757546 0 -5.0594397e-06 0 0)
(-1.8331007 -0.24713775 0 4.9455282e-06 0 0)
(-1.83748 -0.24753413 0 -4.8455527e-06 0 0)
(-1.8335552 -0.24717807 0 4.7588349e-06 0 0)
(-1.8370337 -0.24749472 0 -4.6912542e-06 0 0)
(-1.8339915 -0.24721676 0 4.6133344e-06 0 0)
(-1.8366026 -0.24745682 0 -4.6209654e-06 0 0)
(-1.8344087 -0.24725353 0 4.5917595e-06 0 0)
(-1.8361697 -0.24741693 0 -4.0662397e-06 0 0)
(-1.8348161 -0.2472819 0 6.7124713e-06 0 0)
(-1.8357917 -0.24739367 0 -6.3930595e-06 0 0)
(-1.5845508 -0.60271942 0 -0.18193047 0 0)
(-1.8259747 -0.28109698 0 -0.01703454 0 0)
(-1.8628803 -0.27263298 0 -0.007485559 0 0)
(-1.8347245 -0.25310486 0 -0.0019602521 0 0)
(-1.7240328 -0.2406403 0 -0.00066709828 0 0)
(-1.7546027 -0.24264662 0 -0.00021567624 0 0)
(-1.7065932 -0.23825338 0 -0.00010672585 0 0)
(-1.7413987 -0.24129196 0 -2.9673986e-05 0 0)
(-1.7055093 -0.23804339 0 1.4732547e-06 0 0)
(-1.7368478 -0.24094545 0 -1.3944589e-05 0 0)
(-1.7065567 -0.23815526 0 1.2951343e-05 0 0)
(-1.7347378 -0.24078324 0 -1.405359e-05 0 0)
(-1.7078664 -0.23828755 0 1.2397891e-05 0 0)
(-1.7331865 -0.24064615 0 -1.2727589e-05 0 0)
(-1.7091496 -0.23840989 0 1.1492491e-05 0 0)
(-1.7318573 -0.24052458 0 -1.1341959e-05 0 0)
(-1.7103336 -0.23852148 0 1.0551222e-05 0 0)
(-1.7306789 -0.24041624 0 -1.0199062e-05 0 0)
(-1.7114107 -0.23862273 0 9.634608e-06 0 0)
(-1.729623 -0.24031904 0 -9.2396923e-06 0 0)
(-1.7123875 -0.23871445 0 8.7888139e-06 0 0)
(-1.7286716 -0.24023137 0 -8.4100525e-06 0 0)
(-1.7132741 -0.23879758 0 8.0270779e-06 0 0)
(-1.7278108 -0.24015198 0 -7.6830581e-06 0 0)
(-1.7140801 -0.2388731 0 7.3493502e-06 0 0)
(-1.7270289 -0.24007981 0 -7.0417638e-06 0 0)
(-1.7148152 -0.2389419 0 6.7488411e-06 0 0)
(-1.7263162 -0.24001398 0 -6.4767783e-06 0 0)
(-1.7154879 -0.2390048 0 6.2191843e-06 0 0)
(-1.7256638 -0.23995367 0 -5.9796993e-06 0 0)
(-1.716106 -0.23906255 0 5.7540436e-06 0 0)
(-1.7250639 -0.2398982 0 -5.5444596e-06 0 0)
(-1.7166765 -0.23911581 0 5.3474609e-06 0 0)
(-1.7245096 -0.23984692 0 -5.165715e-06 0 0)
(-1.7172057 -0.23916517 0 4.9958549e-06 0 0)
(-1.7239947 -0.23979927 0 -4.8395133e-06 0 0)
(-1.7176993 -0.23921118 0 4.6945993e-06 0 0)
(-1.7235135 -0.23975473 0 -4.5627808e-06 0 0)
(-1.7181626 -0.23925432 0 4.4412948e-06 0 0)
(-1.7230608 -0.23971283 0 -4.3329213e-06 0 0)
(-1.7186004 -0.23929504 0 4.2350347e-06 0 0)
(-1.7226319 -0.23967314 0 -4.1486308e-06 0 0)
(-1.7190172 -0.23933377 0 4.0740973e-06 0 0)
(-1.7222224 -0.23963527 0 -4.0159468e-06 0 0)
(-1.7194175 -0.23937097 0 3.945674e-06 0 0)
(-1.7218274 -0.23959886 0 -3.9607414e-06 0 0)
(-1.7198002 -0.23940638 0 3.9263316e-06 0 0)
(-1.7214293 -0.23956036 0 -3.3976621e-06 0 0)
(-1.7201645 -0.23943313 0 6.0206949e-06 0 0)
(-1.7210523 -0.23953572 0 -5.7595724e-06 0 0)
(-1.583843 -0.58219204 0 -0.16892552 0 0)
(-1.638048 -0.26510324 0 -0.015789448 0 0)
(-1.7174605 -0.26701164 0 -0.0093847682 0 0)
(-1.7053895 -0.24354947 0 -0.0017519631 0 0)
(-1.6077715 -0.23219604 0 -0.00062216506 0 0)
(-1.6382601 -0.23441234 0 -0.00019248607 0 0)
(-1.5954772 -0.23034221 0 -9.9423987e-05 0 0)
(-1.6280236 -0.23330144 0 -2.2160168e-05 0 0)
(-1.5955485 -0.23023638 0 3.5251159e-07 0 0)
(-1.6243712 -0.23301516 0 -1.077531e-05 0 0)
(-1.5967291 -0.23035924 0 1.1019139e-05 0 0)
(-1.6225524 -0.2328702 0 -1.179945e-05 0 0)
(-1.5979627 -0.23048881 0 1.0411395e-05 0 0)
(-1.6211548 -0.23274165 0 -1.0792621e-05 0 0)
(-1.59914 -0.23060609 0 9.6630483e-06 0 0)
(-1.6199436 -0.23262626 0 -9.6079491e-06 0 0)
(-1.6002217 -0.23071253 0 8.8976633e-06 0 0)
(-1.6188669 -0.23252309 0 -8.6312084e-06 0 0)
(-1.6012053 -0.23080906 0 8.1399788e-06 0 0)
(-1.6179013 -0.23243041 0 -7.818188e-06 0 0)
(-1.6020978 -0.23089654 0 7.433758e-06 0 0)
(-1.6170307 -0.23234675 0 -7.1180853e-06 0 0)
(-1.6029081 -0.23097589 0 6.7944183e-06 0 0)
(-1.6162425 -0.23227094 0 -6.505486e-06 0 0)
(-1.6036454 -0.23104801 0 6.2241308e-06 0 0)
(-1.6155264 -0.23220198 0 -5.9647419e-06 0 0)
(-1.6043181 -0.23111377 0 5.7178362e-06 0 0)
(-1.6148733 -0.23213902 0 -5.4879592e-06 0 0)
(-1.6049341 -0.23117393 0 5.2705995e-06 0 0)
(-1.6142752 -0.23208132 0 -5.067908e-06 0 0)
(-1.6055003 -0.23122919 0 4.8772784e-06 0 0)
(-1.6137252 -0.23202821 0 -4.699597e-06 0 0)
(-1.606023 -0.23128019 0 4.5328636e-06 0 0)
(-1.6132168 -0.23197909 0 -4.3786114e-06 0 0)
(-1.606508 -0.23132748 0 4.2346908e-06 0 0)
(-1.6127445 -0.23193343 0 -4.1017072e-06 0 0)
(-1.6069606 -0.23137158 0 3.9787196e-06 0 0)
(-1.6123031 -0.23189072 0 -3.866446e-06 0 0)
(-1.6073853 -0.23141295 0 3.7630904e-06 0 0)
(-1.6118879 -0.23185053 0 -3.6706606e-06 0 0)
(-1.6077867 -0.23145202 0 3.5872757e-06 0 0)
(-1.6114945 -0.23181243 0 -3.5131965e-06 0 0)
(-1.6081689 -0.2314892 0 3.4496613e-06 0 0)
(-1.611119 -0.23177608 0 -3.3999454e-06 0 0)
(-1.6085358 -0.23152492 0 3.3368321e-06 0 0)
(-1.6107572 -0.23174113 0 -3.3577683e-06 0 0)
(-1.6088868 -0.23155899 0 3.3188722e-06 0 0)
(-1.6103916 -0.23170408 0 -2.7933527e-06 0 0)
(-1.6092127 -0.23158433 0 5.3527524e-06 0 0)
(-1.61002 -0.23167829 0 -5.1614603e-06 0 0)
(-1.5812846 -0.54539161 0 -0.14597064 0 0)
(-1.4888397 -0.25404677 0 -0.015663851 0 0)
(-1.5698593 -0.25662293 0 -0.0094882839 0 0)
(-1.5878199 -0.2337323 0 -0.0012102693 0 0)
(-1.506954 -0.22436844 0 -0.00052470878 0 0)
(-1.5311392 -0.22642711 0 -0.00015612172 0 0)
(-1.4910779 -0.22258022 0 -9.1637563e-05 0 0)
(-1.5200053 -0.22538615 0 -1.4676386e-05 0 0)
(-1.4899365 -0.22246306 0 -6.7846735e-07 0 0)
(-1.5160404 -0.22510373 0 -7.8983252e-06 0 0)
(-1.4906584 -0.22256877 0 9.2721671e-06 0 0)
(-1.5142198 -0.22496218 0 -9.7381241e-06 0 0)
(-1.4917012 -0.22268974 0 8.6103834e-06 0 0)
(-1.5129115 -0.22483923 0 -9.0229264e-06 0 0)
(-1.4927596 -0.22280103 0 7.9989129e-06 0 0)
(-1.5118004 -0.22472937 0 -8.0247813e-06 0 0)
(-1.4937438 -0.22290233 0 7.3905932e-06 0 0)
(-1.5108162 -0.22463112 0 -7.2004966e-06 0 0)
(-1.4946409 -0.22299428 0 6.7764534e-06 0 0)
(-1.5099336 -0.22454281 0 -6.5208404e-06 0 0)
(-1.4954556 -0.22307766 0 6.1968358e-06 0 0)
(-1.5091375 -0.22446303 0 -5.9385378e-06 0 0)
(-1.4961959 -0.22315334 0 5.6687237e-06 0 0)
(-1.5084164 -0.22439069 0 -5.4299592e-06 0 0)
(-1.4968697 -0.22322217 0 5.1961291e-06 0 0)
(-1.507761 -0.22432483 0 -4.9806731e-06 0 0)
(-1.497485 -0.22328498 0 4.7755753e-06 0 0)
(-1.5071629 -0.22426468 0 -4.5841635e-06 0 0)
(-1.4980485 -0.22334248 0 4.4033749e-06 0 0)
(-1.5066151 -0.22420951 0 -4.2342571e-06 0 0)
(-1.4985668 -0.22339533 0 4.0754835e-06 0 0)
(-1.5061112 -0.22415871 0 -3.9269224e-06 0 0)
(-1.4990454 -0.22344412 0 3.7877337e-06 0 0)
(-1.5056453 -0.22411169 0 -3.6585923e-06 0 0)
(-1.4994896 -0.22348939 0 3.5382879e-06 0 0)
(-1.5052125 -0.22406796 0 -3.4266407e-06 0 0)
(-1.4999041 -0.22353162 0 3.3236301e-06 0 0)
(-1.5048079 -0.22402705 0 -3.2292174e-06 0 0)
(-1.5002933 -0.22357126 0 3.1423664e-06 0 0)
(-1.5044273 -0.22398853 0 -3.0645083e-06 0 0)
(-1.500661 -0.22360871 0 2.9943168e-06 0 0)
(-1.5040668 -0.22395201 0 -2.9314893e-06 0 0)
(-1.501011 -0.22364436 0 2.8779327e-06 0 0)
(-1.5037228 -0.22391714 0 -2.8358271e-06 0 0)
(-1.5013471 -0.22367863 0 2.7795069e-06 0 0)
(-1.5033916 -0.22388364 0 -2.8049148e-06 0 0)
(-1.5016688 -0.22371138 0 2.7625151e-06 0 0)
(-1.5030564 -0.22384804 0 -2.2456893e-06 0 0)
(-1.5019601 -0.22373547 0 4.7068908e-06 0 0)
(-1.5026938 -0.22382135 0 -4.5984304e-06 0 0)
(-1.5780896 -0.52420001 0 -0.13357813 0 0)
(-1.368125 -0.24256934 0 -0.015034221 0 0)
(-1.4380683 -0.24521537 0 -0.0092307479 0 0)
(-1.4792813 -0.22540325 0 -0.0010482822 0 0)
(-1.40508 -0.21662056 0 -0.00050567096 0 0)
(-1.4257656 -0.21843111 0 -0.00013193462 0 0)
(-1.3887714 -0.21476549 0 -8.3890149e-05 0 0)
(-1.4150069 -0.21744294 0 -7.0725317e-06 0 0)
(-1.3874993 -0.21466908 0 -1.0864639e-06 0 0)
(-1.4112981 -0.21718544 0 -5.047396e-06 0 0)
(-1.3881078 -0.21477214 0 7.7887501e-06 0 0)
(-1.4096258 -0.21705395 0 -7.8035501e-06 0 0)
(-1.3890468 -0.21488823 0 6.9894053e-06 0 0)
(-1.4084314 -0.21693794 0 -7.3912997e-06 0 0)
(-1.3900091 -0.21499443 0 6.4827946e-06 0 0)
(-1.4074181 -0.2168337 0 -6.5727457e-06 0 0)
(-1.3909056 -0.2150909 0 6.0125914e-06 0 0)
(-1.4065202 -0.21674028 0 -5.8898515e-06 0 0)
(-1.3917233 -0.21517844 0 5.5280253e-06 0 0)
(-1.4057144 -0.2166562 0 -5.3323403e-06 0 0)
(-1.3924663 -0.21525785 0 5.0635445e-06 0 0)
(-1.4049872 -0.21658018 0 -4.8575776e-06 0 0)
(-1.3931418 -0.21532998 0 4.6368174e-06 0 0)
(-1.4043282 -0.21651119 0 -4.4439188e-06 0 0)
(-1.3937571 -0.21539563 0 4.2533742e-06 0 0)
(-1.4037289 -0.21644835 0 -4.0781186e-06 0 0)
(-1.3943192 -0.21545557 0 3.9111153e-06 0 0)
(-1.4031819 -0.21639092 0 -3.7549299e-06 0 0)
(-1.3948343 -0.21551048 0 3.6074918e-06 0 0)
(-1.4026807 -0.21633822 0 -3.4691329e-06 0 0)
(-1.3953081 -0.21556098 0 3.3394325e-06 0 0)
(-1.4022195 -0.21628965 0 -3.2175659e-06 0 0)
(-1.3957459 -0.21560762 0 3.1035355e-06 0 0)
(-1.401793 -0.21624469 0 -2.9974287e-06 0 0)
(-1.3961523 -0.21565092 0 2.8987042e-06 0 0)
(-1.4013967 -0.21620286 0 -2.8066404e-06 0 0)
(-1.3965316 -0.21569133 0 2.7218881e-06 0 0)
(-1.4010263 -0.2161637 0 -2.6438687e-06 0 0)
(-1.3968877 -0.21572927 0 2.5721177e-06 0 0)
(-1.4006779 -0.21612682 0 -2.5076357e-06 0 0)
(-1.3972241 -0.21576513 0 2.4494912e-06 0 0)
(-1.400348 -0.21609184 0 -2.3970068e-06 0 0)
(-1.3975444 -0.21579927 0 2.352545e-06 0 0)
(-1.4000332 -0.21605843 0 -2.3173632e-06 0 0)