/*--------------------------------*- C++ -*----------------------------------*\
| =========                 |                                                 |
| \\      /  F ield         | OpenFOAM: The Open Source CFD Toolbox           |
|  \\    /   O peration     | Version:  2312                                  |
|   \\  /    A nd           | Website:  www.openfoam.com                      |
|    \\/     M anipulation  |                                                 |
\*---------------------------------------------------------------------------*/
FoamFile
{
    version     2.0;
    format      ascii;
    arch        "LSB;label=32;scalar=64";
    class       volVectorField;
    location    "2";
    object      U;
}
// * * * * * * * * * * * * * * * * * * * * * * * * * * * * * * * * * * * * * //

dimensions      [0 1 -1 0 0 0 0];

internalField   nonuniform List<vector> 
4000
(
(0.0025746043 0.00050282241 0)
(0.0043042998 -1.0595325e-05 0)
(0.0028647372 -4.9944738e-07 0)
(0.0031145418 7.0720081e-08 0)
(0.0030013796 -2.1117635e-07 0)
(0.0030602788 1.974516e-07 0)
(0.0029945459 -2.2385908e-07 0)
(0.0030418679 1.9354159e-07 0)
(0.0029974455 -1.8581516e-07 0)
(0.0030369223 1.7441077e-07 0)
(0.0029999084 -1.6530164e-07 0)
(0.0030343835 1.5636535e-07 0)
(0.0030017716 -1.485062e-07 0)
(0.0030324658 1.407964e-07 0)
(0.0030034224 -1.337636e-07 0)
(0.0030308272 1.2701115e-07 0)
(0.0030049238 -1.2072618e-07 0)
(0.0030293748 1.1477155e-07 0)
(0.0030062845 -1.0918649e-07 0)
(0.0030280728 1.0392747e-07 0)
(0.0030075143 -9.8983129e-08 0)
(0.0030269004 9.4341817e-08 0)
(0.0030086257 -8.9977129e-08 0)
(0.0030258416 8.5887472e-08 0)
(0.0030096313 -8.2043754e-08 0)
(0.0030248827 7.8448179e-08 0)
(0.0030105439 -7.5072705e-08 0)
(0.0030240112 7.1920424e-08 0)
(0.0030113749 -6.8965749e-08 0)
(0.0030232161 6.621246e-08 0)
(0.0030121349 -6.3637524e-08 0)
(0.0030224871 6.1244721e-08 0)
(0.0030128335 -5.9013941e-08 0)
(0.003021815 5.6948682e-08 0)
(0.0030134796 -5.5031515e-08 0)
(0.0030211916 5.3265741e-08 0)
(0.0030140809 -5.1636628e-08 0)
(0.0030206093 5.0147077e-08 0)
(0.0030146447 -4.8784588e-08 0)
(0.0030200614 4.7551755e-08 0)
(0.0030151775 -4.6438735e-08 0)
(0.0030195415 4.544772e-08 0)
(0.0030156852 -4.4570734e-08 0)
(0.0030190437 4.3809645e-08 0)
(0.0030161723 -4.3166093e-08 0)
(0.0030185607 4.2613606e-08 0)
(0.0030166479 -4.2226985e-08 0)
(0.0030181289 4.1950361e-08 0)
(0.0030172919 -4.1186507e-08 0)
(0.0030182394 4.4877838e-08 0)
(0.0067323748 0.0013454079 0)
(0.011835367 -2.7387162e-06 0)
(0.0085605656 1.414883e-05 0)
(0.00898862 -5.1336134e-07 0)
(0.0087100854 -2.2081405e-07 0)
(0.0088840616 8.8920175e-07 0)
(0.0086914198 -5.1739083e-07 0)
(0.0088312162 6.8477495e-07 0)
(0.0086992178 -6.1939751e-07 0)
(0.0088175199 6.1572245e-07 0)
(0.0087065329 -5.813136e-07 0)
(0.0088102028 5.5829585e-07 0)
(0.0087121104 -5.2769179e-07 0)
(0.0088045016 5.030511e-07 0)
(0.0087170777 -4.7671134e-07 0)
(0.008799588 4.5356732e-07 0)
(0.0087215996 -4.3072518e-07 0)
(0.0087952238 4.0981946e-07 0)
(0.0087256981 -3.8979597e-07 0)
(0.0087913088 3.7117558e-07 0)
(0.0087294031 -3.5354577e-07 0)
(0.0087877814 3.3706112e-07 0)
(0.0087327528 -3.2152658e-07 0)
(0.0087845932 3.069838e-07 0)
(0.0087357867 -2.9331235e-07 0)
(0.0087817027 2.8051753e-07 0)
(0.0087385427 -2.6850974e-07 0)
(0.0087790724 2.5728682e-07 0)
(0.0087410557 -2.4677392e-07 0)
(0.0087766689 2.3696634e-07 0)
(0.0087433575 -2.2780062e-07 0)
(0.0087744617 2.1927323e-07 0)
(0.0087454771 -2.1132815e-07 0)
(0.0087724232 2.0396398e-07 0)
(0.0087474406 -1.9713289e-07 0)
(0.0087705288 1.908336e-07 0)
(0.0087492715 -1.8502469e-07 0)
(0.0087687559 1.7970667e-07 0)
(0.0087509915 -1.7484488e-07 0)
(0.0087670838 1.7043999e-07 0)
(0.0087526203 -1.6646378e-07 0)
(0.0087654939 1.62916e-07 0)
(0.0087541761 -1.5977236e-07 0)
(0.0087639677 1.5705762e-07 0)
(0.0087556733 -1.5466934e-07 0)
(0.0087624822 1.5274983e-07 0)
(0.0087571277 -1.5160709e-07 0)
(0.00876109 1.479034e-07 0)
(0.0087589236 -1.5657541e-07 0)
(0.0087610826 1.4404423e-07 0)
(0.011234438 0.0022815433 0)
(0.01881045 -1.0344935e-05 0)
(0.014100628 3.4940007e-05 0)
(0.014704392 -6.7891451e-07 0)
(0.014267706 -2.0534821e-07 0)
(0.014559583 1.7324985e-06 0)
(0.014237611 -7.5983732e-07 0)
(0.014474839 1.2476192e-06 0)
(0.014251351 -1.1055165e-06 0)
(0.014452783 1.1196265e-06 0)
(0.014263911 -1.0570383e-06 0)
(0.014440614 1.0198992e-06 0)
(0.014273425 -9.6249179e-07 0)
(0.014430968 9.1917943e-07 0)
(0.014281902 -8.702901e-07 0)
(0.014422613 8.2857733e-07 0)
(0.014289615 -7.8660707e-07 0)
(0.014415181 7.4860914e-07 0)
(0.014296603 -7.1198951e-07 0)
(0.014408512 6.7804569e-07 0)
(0.01430292 -6.4586099e-07 0)
(0.014402501 6.1577796e-07 0)
(0.014308632 -5.8743746e-07 0)
(0.014397067 5.6088781e-07 0)
(0.014313807 -5.3594758e-07 0)
(0.014392137 5.1258221e-07 0)
(0.01431851 -4.9067681e-07 0)
(0.014387649 4.7017835e-07 0)
(0.014322801 -4.50994e-07 0)
(0.014383545 4.3307685e-07 0)
(0.014326735 -4.1634692e-07 0)
(0.014379774 4.0076396e-07 0)
(0.014330359 -3.8625666e-07 0)
(0.014376288 3.7279524e-07 0)
(0.014333719 -3.6031784e-07 0)
(0.014373046 3.4879687e-07 0)
(0.014336855 -3.3818174e-07 0)
(0.014370009 3.2845257e-07 0)
(0.014339803 -3.1956068e-07 0)
(0.014367143 3.1149404e-07 0)
(0.014342597 -3.0421716e-07 0)
(0.014364415 2.9770896e-07 0)
(0.014345268 -2.9194326e-07 0)
(0.014361793 2.8695718e-07 0)
(0.014347843 -2.8251538e-07 0)
(0.014359239 2.7905969e-07 0)
(0.014350342 -2.7683863e-07 0)
(0.014356804 2.6909082e-07 0)
(0.01435331 -2.9068108e-07 0)
(0.014356479 2.6211342e-07 0)
(0.014940145 0.0028854165 0)
(0.025357669 -4.9711941e-05 0)
(0.019485685 6.2805213e-05 0)
(0.020264596 -8.9064785e-07 0)
(0.01967471 4.5845999e-08 0)
(0.02008623 2.6677698e-06 0)
(0.019633026 -8.1830389e-07 0)
(0.019973 1.7832215e-06 0)
(0.019653683 -1.5515998e-06 0)
(0.019942937 1.6010627e-06 0)
(0.019671874 -1.512989e-06 0)
(0.019925822 1.4666764e-06 0)
(0.019685559 -1.3819869e-06 0)
(0.01991205 1.3222079e-06 0)
(0.01969775 -1.2507692e-06 0)
(0.019900072 1.1916145e-06 0)
(0.019708834 -1.1309165e-06 0)
(0.019889406 1.0765495e-06 0)
(0.019718873 -1.0238459e-06 0)
(0.019879831 9.7513132e-07 0)
(0.019727945 -9.2889976e-07 0)
(0.019871199 8.8567799e-07 0)
(0.019736149 -8.4498924e-07 0)
(0.019863393 8.0682802e-07 0)
(0.019743584 -7.7102689e-07 0)
(0.019856311 7.3743383e-07 0)
(0.019750343 -7.0598182e-07 0)
(0.01984986 6.765043e-07 0)
(0.019756512 -6.4895546e-07 0)
(0.019843959 6.2318306e-07 0)
(0.019762168 -5.9915161e-07 0)
(0.019838534 5.7673135e-07 0)
(0.019767383 -5.5588531e-07 0)
(0.019833518 5.3651126e-07 0)
(0.019772219 -5.1857651e-07 0)
(0.019828851 5.0199055e-07 0)
(0.019776734 -4.8672545e-07 0)
(0.019824478 4.7271037e-07 0)
(0.019780981 -4.5991865e-07 0)
(0.019820348 4.4829354e-07 0)
(0.019785007 -4.3781709e-07 0)
(0.019816416 4.2842795e-07 0)
(0.019788859 -4.2011922e-07 0)
(0.019812636 4.1292665e-07 0)
(0.019792573 -4.0644596e-07 0)
(0.019808951 4.0157137e-07 0)
(0.019796178 -3.982458e-07 0)
(0.0198054 3.8573435e-07 0)
(0.019800334 -4.2533286e-07 0)
(0.019804544 3.7677389e-07 0)
(0.019433555 0.0037626749 0)
(0.031555904 -5.5468238e-05 0)
(0.024697813 9.6945178e-05 0)
(0.025672114 -1.4979879e-06 0)
(0.024930737 4.887249e-07 0)
(0.025463068 3.6620401e-06 0)
(0.024877573 -7.0064954e-07 0)
(0.025325584 2.2637737e-06 0)
(0.024906336 -1.940471e-06 0)
(0.025287851 2.0387308e-06 0)
(0.024930531 -1.9306705e-06 0)
(0.025265702 1.8800728e-06 0)
(0.02494861 -1.7688605e-06 0)
(0.025247638 1.6954696e-06 0)
(0.024964706 -1.6023996e-06 0)
(0.025231868 1.5276772e-06 0)
(0.024979331 -1.449406e-06 0)
(0.025217814 1.3801031e-06 0)
(0.024992569 -1.3124716e-06 0)
(0.025205193 1.2501792e-06 0)
(0.025004531 -1.1909623e-06 0)
(0.025193814 1.1356288e-06 0)
(0.025015348 -1.0835463e-06 0)
(0.025183521 1.0346699e-06 0)
(0.025025153 -9.8884473e-07 0)
(0.02517418 9.4580445e-07 0)
(0.025034068 -9.0554433e-07 0)
(0.02516567 8.6776901e-07 0)
(0.025042208 -8.324932e-07 0)
(0.025157884 7.994583e-07 0)
(0.025049673 -7.6867862e-07 0)
(0.025150723 7.3993195e-07 0)
(0.025056556 -7.1322218e-07 0)
(0.025144101 6.8837434e-07 0)
(0.025062942 -6.6538824e-07 0)
(0.025137938 6.4410647e-07 0)
(0.025068905 -6.2453488e-07 0)
(0.025132161 6.0654932e-07 0)
(0.025074514 -5.9013834e-07 0)
(0.025126706 5.7521029e-07 0)
(0.025079834 -5.617673e-07 0)
(0.025121511 5.4969779e-07 0)
(0.025084922 -5.3902497e-07 0)
(0.025116517 5.2978202e-07 0)
(0.025089832 -5.2136481e-07 0)
(0.025111649 5.1527072e-07 0)
(0.025094595 -5.1078074e-07 0)
(0.025106924 4.9322349e-07 0)
(0.025099961 -5.5445465e-07 0)
(0.02510535 4.8310696e-07 0)
(0.02307537 0.0042627431 0)
(0.03725198 -0.00012236396 0)
(0.029748239 0.00013394281 0)
(0.030932899 -2.4291739e-06 0)
(0.030034137 1.135425e-06 0)
(0.030689788 4.7197419e-06 0)
(0.029971519 -4.3981981e-07 0)
(0.030532217 2.684118e-06 0)
(0.030009725 -2.2783934e-06 0)
(0.030487161 2.4335937e-06 0)
(0.030040242 -2.31278e-06 0)
(0.030459925 2.2616975e-06 0)
(0.030062897 -2.1249263e-06 0)
(0.030437434 2.0404622e-06 0)
(0.030083056 -1.9267079e-06 0)
(0.030417739 1.8381487e-06 0)
(0.030101357 -1.7434323e-06 0)
(0.030400171 1.6605332e-06 0)
(0.030117916 -1.5790862e-06 0)
(0.03038439 1.504337e-06 0)
(0.030132877 -1.4331593e-06 0)
(0.030370159 1.3666812e-06 0)
(0.030146407 -1.3041087e-06 0)
(0.030357284 1.2453606e-06 0)
(0.030158672 -1.1903125e-06 0)
(0.030345597 1.1385625e-06 0)
(0.030169828 -1.0901869e-06 0)
(0.030334948 1.0447562e-06 0)
(0.030180014 -1.0023626e-06 0)
(0.030325202 9.6262102e-07 0)
(0.030189359 -9.2561914e-07 0)
(0.030316237 8.9102732e-07 0)
(0.030197978 -8.589063e-07 0)
(0.030307945 8.2899666e-07 0)
(0.030205974 -8.0134532e-07 0)
(0.030300226 7.75721e-07 0)
(0.030213443 -7.5216635e-07 0)
(0.030292992 7.3049864e-07 0)
(0.030220469 -7.1074109e-07 0)
(0.030286158 6.9275082e-07 0)
(0.030227131 -6.7655544e-07 0)
(0.030279651 6.6199663e-07 0)
(0.030233505 -6.4913012e-07 0)
(0.030273396 6.3798162e-07 0)
(0.030239655 -6.2771827e-07 0)
(0.030267301 6.2056786e-07 0)
(0.030245621 -6.148302e-07 0)
(0.030261357 5.9211415e-07 0)
(0.030252214 -6.7762494e-07 0)
(0.030258901 5.8072725e-07 0)
(0.027218022 0.0048763591 0)
(0.04269031 -0.00013130348 0)
(0.034640746 0.00017620093 0)
(0.036042466 -4.24156e-06 0)
(0.034983348 1.9500167e-06 0)
(0.035766131 5.8292603e-06 0)
(0.034915241 -5.9698743e-08 0)
(0.035592535 3.0436766e-06 0)
(0.034964298 -2.5702284e-06 0)
(0.035540481 2.7880462e-06 0)
(0.035001387 -2.6625761e-06 0)
(0.035508137 2.6139627e-06 0)
(0.035028755 -2.4526864e-06 0)
(0.035481125 2.3593665e-06 0)
(0.035053097 -2.2258543e-06 0)
(0.035457401 2.1250232e-06 0)
(0.03507518 -2.0149264e-06 0)
(0.035436224 1.919659e-06 0)
(0.035095152 -1.8254324e-06 0)
(0.035417195 1.7392569e-06 0)
(0.035113196 -1.6570553e-06 0)
(0.035400033 1.5803214e-06 0)
(0.035129515 -1.5081012e-06 0)
(0.035384502 1.4402575e-06 0)
(0.035144312 -1.3767196e-06 0)
(0.035370402 1.3169344e-06 0)
(0.035157772 -1.2610937e-06 0)
(0.035357551 1.2085964e-06 0)
(0.035170066 -1.1596427e-06 0)
(0.035345787 1.1137079e-06 0)
(0.035181348 -1.0709686e-06 0)
(0.035334963 1.0309733e-06 0)
(0.035191754 -9.9385695e-07 0)
(0.03532495 9.5926538e-07 0)
(0.035201411 -9.2730476e-07 0)
(0.035315628 8.9765529e-07 0)
(0.035210431 -8.7041977e-07 0)
(0.03530689 8.4534483e-07 0)
(0.035218917 -8.224845e-07 0)
(0.035298637 8.0165214e-07 0)
(0.035226964 -7.8290995e-07 0)
(0.035290777 7.6603193e-07 0)
(0.035234662 -7.5112686e-07 0)
(0.035283224 7.3819895e-07 0)
(0.03524209 -7.261849e-07 0)
(0.035275866 7.1814033e-07 0)
(0.035249293 -7.1103165e-07 0)
(0.035268667 6.831674e-07 0)
(0.035257127 -7.946998e-07 0)
(0.035265189 6.6985709e-07 0)
(0.031217113 0.0054540895 0)
(0.04756757 -0.00021118895 0)
(0.039380545 0.00021498879 0)
(0.040997276 -4.9495387e-06 0)
(0.03977681 3.1811509e-06 0)
(0.040691996 6.9759735e-06 0)
(0.03970904 3.9960098e-07 0)
(0.040506103 3.3278231e-06 0)
(0.039770404 -2.8217241e-06 0)
(0.040447445 3.1004202e-06 0)
(0.039814289 -2.9811448e-06 0)
(0.040410023 2.9366511e-06 0)
(0.039846481 -2.7523386e-06 0)
(0.040378428 2.652126e-06 0)
(0.039875096 -2.4998873e-06 0)
(0.040350605 2.3882891e-06 0)
(0.039901036 -2.2639028e-06 0)
(0.040325751 2.1574751e-06 0)
(0.039924489 -2.0515098e-06 0)
(0.040303411 1.9549311e-06 0)
(0.039945676 -1.8626555e-06 0)
(0.040283258 1.7765517e-06 0)
(0.039964842 -1.6955136e-06 0)
(0.040265017 1.619348e-06 0)
(0.039982222 -1.5480575e-06 0)
(0.040248453 1.4809144e-06 0)
(0.039998037 -1.4182421e-06 0)
(0.040233351 1.3592684e-06 0)
(0.040012485 -1.304315e-06 0)
(0.040219524 1.2526969e-06 0)
(0.040025746 -1.2047039e-06 0)
(0.0402068 1.1597476e-06 0)
(0.04003798 -1.1180527e-06 0)
(0.040195026 1.0791584e-06 0)
(0.040049335 -1.0432444e-06 0)
(0.040184064 1.0098971e-06 0)
(0.040059942 -9.7927851e-07 0)
(0.040173788 9.5106046e-07 0)
(0.040069922 -9.2535185e-07 0)
(0.040164081 9.0190059e-07 0)
(0.040079386 -8.8080858e-07 0)
(0.040154838 8.6179043e-07 0)
(0.040088439 -8.4500695e-07 0)
(0.040145957 8.304328e-07 0)
(0.040097174 -8.167622e-07 0)
(0.040137309 8.0795908e-07 0)
(0.040105644 -7.993842e-07 0)
(0.040128828 7.6653521e-07 0)
(0.040114727 -9.0506828e-07 0)
(0.040124206 7.5027615e-07 0)
(0.034987084 0.0057690728 0)
(0.05215046 -0.00022953643 0)
(0.043996531 0.00025145013 0)
(0.045751755 -5.3325256e-06 0)
(0.044411094 4.7512102e-06 0)
(0.045467623 8.172453e-06 0)
(0.044354174 9.5817665e-07 0)
(0.045273012 3.5424204e-06 0)
(0.044428589 -3.0288164e-06 0)
(0.045207834 3.371591e-06 0)
(0.04447928 -3.267602e-06 0)
(0.045165318 3.2293158e-06 0)
(0.044516343 -3.023258e-06 0)
(0.045129097 2.9181263e-06 0)
(0.044549286 -2.7482414e-06 0)
(0.04509713 2.6273817e-06 0)
(0.044579133 -2.4898413e-06 0)
(0.045068554 2.3734777e-06 0)
(0.044606112 -2.2568411e-06 0)
(0.045042861 2.1509017e-06 0)
(0.044630485 -2.0495034e-06 0)
(0.045019676 1.9549335e-06 0)
(0.044652536 -1.8659329e-06 0)
(0.044998687 1.7822362e-06 0)
(0.044672537 -1.7039346e-06 0)
(0.044979622 1.6301215e-06 0)
(0.044690742 -1.5612787e-06 0)
(0.044962237 1.4964297e-06 0)
(0.044707376 -1.4360423e-06 0)
(0.044946314 1.3792666e-06 0)
(0.044722647 -1.3265127e-06 0)
(0.044931659 1.2770482e-06 0)
(0.04473674 -1.2311984e-06 0)
(0.044918096 1.1883916e-06 0)
(0.044749821 -1.1488881e-06 0)
(0.044905467 1.1121686e-06 0)
(0.044762042 -1.0784775e-06 0)
(0.044893626 1.0474022e-06 0)
(0.044773541 -1.0190947e-06 0)
(0.044882441 9.9325346e-07 0)
(0.044784446 -9.7002588e-07 0)
(0.044871791 9.4904539e-07 0)
(0.044794876 -9.3054615e-07 0)
(0.044861559 9.1445776e-07 0)
(0.04480494 -8.9924904e-07 0)
(0.044851601 8.8984237e-07 0)
(0.044814697 -8.7969873e-07 0)
(0.044841819 8.4209467e-07 0)
(0.044825036 -1.0079644e-06 0)
(0.04483595 8.2179581e-07 0)
(0.039347274 0.0064067029 0)
(0.056170801 -0.00031981986 0)
(0.048542748 0.00029268076 0)
(0.050285665 -7.9220899e-06 0)
(0.048871182 5.2888569e-06 0)
(0.050089909 9.0889404e-06 0)
(0.048849884 1.5052294e-06 0)
(0.049892523 3.6558324e-06 0)
(0.048938969 -3.2015034e-06 0)
(0.049821287 3.5980879e-06 0)
(0.04899659 -3.5230666e-06 0)
(0.049773757 3.491116e-06 0)
(0.049038574 -3.2653153e-06 0)
(0.049732906 3.1568987e-06 0)
(0.04907588 -2.9706129e-06 0)
(0.049696774 2.8419379e-06 0)
(0.049109663 -2.6924221e-06 0)
(0.049664453 2.5673394e-06 0)
(0.049140192 -2.4411155e-06 0)
(0.049635383 2.3268633e-06 0)
(0.049167775 -2.2173221e-06 0)
(0.049609144 2.1151988e-06 0)
(0.049192734 -2.0190857e-06 0)
(0.049585384 1.9286573e-06 0)
(0.049215379 -1.8441014e-06 0)
(0.049563796 1.7643193e-06 0)
(0.049235994 -1.6899546e-06 0)
(0.049544104 1.6198425e-06 0)
(0.049254836 -1.5545976e-06 0)
(0.049526066 1.4931932e-06 0)
(0.049272139 -1.436177e-06 0)
(0.04950946 1.3826642e-06 0)
(0.049288109 -1.3330902e-06 0)
(0.049494088 1.2867663e-06 0)
(0.049302935 -1.2440416e-06 0)
(0.049479772 1.2042929e-06 0)
(0.049316788 -1.1678379e-06 0)
(0.049466349 1.1341807e-06 0)
(0.049329824 -1.1035412e-06 0)
(0.04945367 1.0755451e-06 0)
(0.049342185 -1.050387e-06 0)
(0.049441597 1.0276357e-06 0)
(0.049354008 -1.0075905e-06 0)
(0.049429999 9.9013048e-07 0)
(0.049365415 -9.7349712e-07 0)
(0.049418717 9.6360749e-07 0)
(0.049376476 -9.5184198e-07 0)
(0.049407624 9.0982216e-07 0)
(0.049388071 -1.1027824e-06 0)
(0.04940042 8.8430178e-07 0)
(0.042841008 0.0064658229 0)
(0.059973858 -0.00035460884 0)
(0.05294073 0.00033298468 0)
(0.054663689 -1.1153714e-05 0)
(0.053166381 4.8686167e-06 0)
(0.054561404 9.6593123e-06 0)
(0.053197564 2.0394153e-06 0)
(0.054364808 3.6735615e-06 0)
(0.053302007 -3.3362227e-06 0)
(0.054287638 3.7820301e-06 0)
(0.0533665 -3.7468992e-06 0)
(0.054235126 3.722322e-06 0)
(0.053413397 -3.4783377e-06 0)
(0.054189652 3.3683693e-06 0)
(0.053455075 -3.1668998e-06 0)
(0.054149353 3.0318511e-06 0)
(0.053492799 -2.8715502e-06 0)
(0.054113282 2.7389618e-06 0)
(0.053526886 -2.6042391e-06 0)
(0.054080829 2.4827212e-06 0)
(0.053557686 -2.3659953e-06 0)
(0.054051528 2.2572314e-06 0)
(0.053585561 -2.1548687e-06 0)
(0.054024988 2.0585091e-06 0)
(0.053610858 -1.9684445e-06 0)
(0.054000867 1.883391e-06 0)
(0.053633894 -1.8041727e-06 0)
(0.05397886 1.7294075e-06 0)
(0.053654955 -1.659876e-06 0)
(0.053958694 1.5943785e-06 0)
(0.053674299 -1.5335986e-06 0)
(0.053940127 1.4764989e-06 0)
(0.053692157 -1.4236301e-06 0)
(0.053922936 1.3741877e-06 0)
(0.053708738 -1.3286117e-06 0)
(0.053906924 1.2861663e-06 0)
(0.053724234 -1.2472646e-06 0)
(0.053891909 1.2113203e-06 0)
(0.053738815 -1.1786021e-06 0)
(0.053877726 1.1486872e-06 0)
(0.053752643 -1.1218197e-06 0)
(0.053864221 1.0974812e-06 0)
(0.053765868 -1.0760579e-06 0)
(0.053851248 1.0573629e-06 0)
(0.053778627 -1.039442e-06 0)
(0.053838635 1.0292108e-06 0)
(0.053790999 -1.0157626e-06 0)
(0.053826225 9.6967707e-07 0)
(0.053803848 -1.1889966e-06 0)
(0.053817615 9.3789002e-07 0)
(0.04758157 0.0071522609 0)
(0.063416004 -0.0004299069 0)
(0.057049719 0.00035680904 0)
(0.058966542 -1.082244e-05 0)
(0.057314147 4.8832522e-06 0)
(0.058886065 1.0042011e-05 0)
(0.057398715 2.6161579e-06 0)
(0.058689855 3.6047415e-06 0)
(0.057517985 -3.4320152e-06 0)
(0.058606645 3.9233431e-06 0)
(0.05758922 -3.9399206e-06 0)
(0.058549208 3.9227455e-06 0)
(0.057641011 -3.6625933e-06 0)
(0.058499143 3.552508e-06 0)
(0.057687049 -3.3372004e-06 0)
(0.058454698 3.1971415e-06 0)
(0.057728702 -3.0272663e-06 0)
(0.058414891 2.8883579e-06 0)
(0.057766337 -2.7462225e-06 0)
(0.058379064 2.6184743e-06 0)
(0.057800346 -2.4955394e-06 0)
(0.058346707 2.3810419e-06 0)
(0.057831134 -2.2732707e-06 0)
(0.05831739 2.1717767e-06 0)
(0.05785908 -2.076955e-06 0)
(0.058290738 1.9873298e-06 0)
(0.057884536 -1.9039004e-06 0)
(0.058266415 1.8250949e-06 0)
(0.057907815 -1.7518507e-06 0)
(0.058244122 1.6827893e-06 0)
(0.057929201 -1.6187427e-06 0)
(0.058223591 1.5585178e-06 0)
(0.057948949 -1.5027849e-06 0)
(0.058204579 1.4506214e-06 0)
(0.057967288 -1.4025628e-06 0)
(0.058186869 1.3577673e-06 0)
(0.057984428 -1.3167278e-06 0)
(0.058170259 1.2787733e-06 0)
(0.058000558 -1.2442468e-06 0)
(0.058154569 1.2126513e-06 0)
(0.058015855 -1.18428e-06 0)
(0.058139629 1.1585511e-06 0)
(0.058030484 -1.1359224e-06 0)
(0.058125279 1.1161392e-06 0)
(0.058044597 -1.0970561e-06 0)
(0.058111335 1.0865818e-06 0)
(0.058058283 -1.071452e-06 0)
(0.05809761 1.0217337e-06 0)
(0.05807238 -1.2662349e-06 0)
(0.058087536 9.8266246e-07 0)
(0.050778543 0.0069907241 0)
(0.066678955 -0.00048081821 0)
(0.060953904 0.00038132548 0)
(0.063169375 -1.1048991e-05 0)
(0.061312126 4.8228183e-06 0)
(0.06306219 1.0070099e-05 0)
(0.061452807 3.1811124e-06 0)
(0.062867178 3.4447517e-06 0)
(0.061587021 -3.4898002e-06 0)
(0.062778062 4.0231077e-06 0)
(0.061664939 -4.1022943e-06 0)
(0.062715806 4.092728e-06 0)
(0.061721597 -3.818278e-06 0)
(0.062661206 3.709484e-06 0)
(0.061771966 -3.4816813e-06 0)
(0.062612653 3.337944e-06 0)
(0.061817521 -3.1597075e-06 0)
(0.06256914 3.0156487e-06 0)
(0.061858678 -2.8671798e-06 0)
(0.062529961 2.7342255e-06 0)
(0.061895876 -2.6060213e-06 0)
(0.062494567 2.4866882e-06 0)
(0.061929558 -2.3743575e-06 0)
(0.062462488 2.2685183e-06 0)
(0.06196014 -2.1696707e-06 0)
(0.062433318 2.0761634e-06 0)
(0.061988004 -1.9891821e-06 0)
(0.06240669 1.9069396e-06 0)
(0.062013492 -1.830545e-06 0)
(0.062382278 1.7584515e-06 0)
(0.062036913 -1.6916305e-06 0)
(0.06235979 1.6287388e-06 0)
(0.062058544 -1.5705665e-06 0)
(0.062338962 1.516079e-06 0)
(0.062078636 -1.4659048e-06 0)
(0.062319558 1.4190898e-06 0)
(0.062097416 -1.376229e-06 0)
(0.062301358 1.3365604e-06 0)
(0.062115091 -1.3004765e-06 0)
(0.062284165 1.2674375e-06 0)
(0.062131853 -1.2377851e-06 0)
(0.062267794 1.21085e-06 0)
(0.062147883 -1.1871845e-06 0)
(0.062252071 1.1664513e-06 0)
(0.062163346 -1.146356e-06 0)
(0.062236799 1.1357628e-06 0)
(0.062178344 -1.1189419e-06 0)
(0.062221766 1.0659997e-06 0)
(0.062193677 -1.3341514e-06 0)
(0.062210184 1.0188852e-06 0)
(0.055746487 0.0076710144 0)
(0.069702492 -0.0005437551 0)
(0.064694743 0.00039970452 0)
(0.067226645 -1.2534133e-05 0)
(0.065164747 5.0246811e-06 0)
(0.067090275 9.779257e-06 0)
(0.065360645 3.7553998e-06 0)
(0.066896898 3.1981164e-06 0)
(0.065509494 -3.508101e-06 0)
(0.066801781 4.0824757e-06 0)
(0.065593877 -4.2344764e-06 0)
(0.06673476 4.2325799e-06 0)
(0.065655328 -3.9457695e-06 0)
(0.066675686 3.8395392e-06 0)
(0.065709977 -3.6006288e-06 0)
(0.066623076 3.4544862e-06 0)
(0.065759389 -3.2690972e-06 0)
(0.066575898 3.1210245e-06 0)
(0.065804031 -2.9672871e-06 0)
(0.066533405 2.8301317e-06 0)
(0.065844384 -2.6976113e-06 0)
(0.066495004 2.5743274e-06 0)
(0.065880933 -2.4582544e-06 0)
(0.06646019 2.34885e-06 0)
(0.065914127 -2.2467098e-06 0)
(0.066428523 2.1500065e-06 0)
(0.065944378 -2.0600987e-06 0)
(0.066399608 1.9750217e-06 0)
(0.065972058 -1.8960385e-06 0)
(0.066373094 1.821433e-06 0)
(0.065997498 -1.752325e-06 0)
(0.066348664 1.6872215e-06 0)
(0.066020999 -1.6270331e-06 0)
(0.066326034 1.5706145e-06 0)
(0.066042831 -1.5186874e-06 0)
(0.066304946 1.4701972e-06 0)
(0.06606324 -1.4258189e-06 0)
(0.066285167 1.3847097e-06 0)
(0.06608245 -1.3473378e-06 0)
(0.06626648 1.3130922e-06 0)
(0.066100667 -1.2823615e-06 0)
(0.066248687 1.2544186e-06 0)
(0.066118088 -1.2298887e-06 0)
(0.0662316 1.2083544e-06 0)
(0.066134893 -1.1873793e-06 0)
(0.06621501 1.1767428e-06 0)
(0.066151194 -1.1582912e-06 0)
(0.066198683 1.102603e-06 0)
(0.06616775 -1.3925431e-06 0)
(0.06618556 1.0467768e-06 0)
(0.058806208 0.0074118857 0)
(0.072573024 -0.00060062102 0)
(0.068336602 0.00040950747 0)
(0.071095344 -1.4859951e-05 0)
(0.068878071 5.1962195e-06 0)
(0.070969097 9.0814197e-06 0)
(0.069122242 4.2887768e-06 0)
(0.070778794 2.8505237e-06 0)
(0.069285588 -3.4922473e-06 0)
(0.070677634 4.1009371e-06 0)
(0.069376208 -4.3374537e-06 0)
(0.070605909 4.3426158e-06 0)
(0.069442358 -4.0455617e-06 0)
(0.070542436 3.9430179e-06 0)
(0.069501221 -3.6944156e-06 0)
(0.070485835 3.5470848e-06 0)
(0.069554433 -3.3557495e-06 0)
(0.070435049 3.204774e-06 0)
(0.069602508 -3.0468184e-06 0)
(0.070389289 2.9064479e-06 0)
(0.069645973 -2.7705173e-06 0)
(0.070347922 2.6441523e-06 0)
(0.069685349 -2.5251587e-06 0)
(0.070310409 2.4129551e-06 0)
(0.069721121 -2.3082282e-06 0)
(0.070276277 2.209e-06 0)
(0.069753732 -2.116806e-06 0)
(0.070245103 2.029482e-06 0)
(0.069783576 -1.9484556e-06 0)
(0.07021651 1.8718583e-06 0)
(0.069811014 -1.8009419e-06 0)
(0.070190159 1.7340754e-06 0)
(0.069836364 -1.6722848e-06 0)
(0.070165745 1.6143243e-06 0)
(0.069859917 -1.5610032e-06 0)
(0.070142993 1.5111618e-06 0)
(0.069881938 -1.4655768e-06 0)
(0.07012165 1.42332e-06 0)
(0.069902666 -1.3849049e-06 0)
(0.070101485 1.3496872e-06 0)
(0.069922325 -1.3180987e-06 0)
(0.070082286 1.28933e-06 0)
(0.069941122 -1.264102e-06 0)
(0.070063848 1.2419047e-06 0)
(0.069959254 -1.2202081e-06 0)
(0.070045955 1.2096348e-06 0)
(0.069976846 -1.189596e-06 0)
(0.070028349 1.1315902e-06 0)
(0.069994607 -1.4412136e-06 0)
(0.070013667 1.0667111e-06 0)
(0.063716143 0.0079325725 0)
(0.075306905 -0.00065382616 0)
(0.071908549 0.00041619592 0)
(0.074755737 -1.7757429e-05 0)
(0.072454662 4.9859376e-06 0)
(0.074698447 8.0659449e-06 0)
(0.072738079 4.782507e-06 0)
(0.074512845 2.4070895e-06 0)
(0.072915551 -3.4404124e-06 0)
(0.074405507 4.080605e-06 0)
(0.073012104 -4.4114162e-06 0)
(0.074329117 4.423556e-06 0)
(0.073082834 -4.1181251e-06 0)
(0.074261326 4.0204004e-06 0)
(0.073145828 -3.7634843e-06 0)
(0.074200811 3.6161495e-06 0)
(0.073202767 -3.4200445e-06 0)
(0.074146484 3.2672433e-06 0)
(0.073254213 -3.1060939e-06 0)
(0.074097514 2.9634702e-06 0)
(0.073300734 -2.8250456e-06 0)
(0.074053233 2.69645e-06 0)
(0.073342891 -2.5753174e-06 0)
(0.074013065 2.461067e-06 0)
(0.073381199 -2.3544581e-06 0)
(0.073976507 2.2533677e-06 0)
(0.073416131 -2.1594874e-06 0)
(0.073943108 2.0705005e-06 0)
(0.073448109 -1.9879725e-06 0)
(0.073912468 1.9098872e-06 0)
(0.073477513 -1.8376334e-06 0)
(0.073884225 1.769446e-06 0)
(0.073504685 -1.7064635e-06 0)
(0.073858053 1.6473438e-06 0)
(0.073529936 -1.5929804e-06 0)
(0.07383366 1.5421246e-06 0)
(0.073553546 -1.4956278e-06 0)
(0.073810776 1.4524896e-06 0)
(0.073575771 -1.4132959e-06 0)
(0.073789153 1.3773382e-06 0)
(0.07359685 -1.345089e-06 0)
(0.073768566 1.3156914e-06 0)
(0.073617005 -1.2899346e-06 0)
(0.073748798 1.2672232e-06 0)
(0.073636445 -1.2449402e-06 0)
(0.07372962 1.2344833e-06 0)
(0.073655311 -1.2129754e-06 0)
(0.073710758 1.1531427e-06 0)
(0.073674254 -1.4801091e-06 0)
(0.073694507 1.0789759e-06 0)
(0.067072787 0.0076929487 0)
(0.077938949 -0.00070647414 0)
(0.075411652 0.000415935 0)
(0.078223954 -2.1027715e-05 0)
(0.075898083 4.099772e-06 0)
(0.078278272 6.8354754e-06 0)
(0.076208521 5.2380887e-06 0)
(0.078098829 1.8744741e-06 0)
(0.07639947 -3.3509559e-06 0)
(0.077985207 4.0233363e-06 0)
(0.076501678 -4.4568186e-06 0)
(0.077904229 4.4760391e-06 0)
(0.076576875 -4.1641083e-06 0)
(0.077832228 4.072194e-06 0)
(0.07664391 -3.808379e-06 0)
(0.07776789 3.6621454e-06 0)
(0.076704496 -3.4624478e-06 0)
(0.0777101 3.3088605e-06 0)
(0.076759241 -3.1455247e-06 0)
(0.07765799 3.0015827e-06 0)
(0.076808756 -2.8615246e-06 0)
(0.077610854 2.7315284e-06 0)
(0.076853636 -2.6090413e-06 0)
(0.077568084 2.4934765e-06 0)
(0.076894431 -2.3856578e-06 0)
(0.077529147 2.2833492e-06 0)
(0.07693164 -2.1883959e-06 0)
(0.077493566 2.0983098e-06 0)
(0.07696571 -2.0148025e-06 0)
(0.077460916 1.9357309e-06 0)
(0.076997044 -1.8625988e-06 0)
(0.077430815 1.7935237e-06 0)
(0.077026007 -1.7297472e-06 0)
(0.077402917 1.6698446e-06 0)
(0.077052924 -1.6147851e-06 0)
(0.077376912 1.5632281e-06 0)
(0.077078095 -1.5161208e-06 0)
(0.077352513 1.4723871e-06 0)
(0.077101792 -1.4326499e-06 0)
(0.077329459 1.3961811e-06 0)
(0.077124266 -1.3634867e-06 0)
(0.077307509 1.3336372e-06 0)
(0.077145755 -1.3075133e-06 0)
(0.077286433 1.2844241e-06 0)
(0.077166479 -1.2617165e-06 0)
(0.077265994 1.2514658e-06 0)
(0.077186596 -1.2285809e-06 0)
(0.077245902 1.1673445e-06 0)
(0.077206697 -1.5091638e-06 0)
(0.077228081 1.0840103e-06 0)
(0.071984146 0.0080388882 0)
(0.080510059 -0.00075039524 0)
(0.078797327 0.00041297279 0)
(0.081548907 -2.3299689e-05 0)
(0.079210781 2.5365584e-06 0)
(0.081709464 5.5214495e-06 0)
(0.079534782 5.6647467e-06 0)
(0.081536657 1.266156e-06 0)
(0.079737517 -3.2197603e-06 0)
(0.081416606 3.9324735e-06 0)
(0.079845054 -4.4734944e-06 0)
(0.081331116 4.50108e-06 0)
(0.079924596 -4.1841012e-06 0)
(0.081255026 4.0990387e-06 0)
(0.079995574 -3.8296903e-06 0)
(0.081186969 3.6856188e-06 0)
(0.080059718 -3.4834747e-06 0)
(0.081125806 3.3300963e-06 0)
(0.080117681 -3.1655519e-06 0)
(0.081070633 3.0211958e-06 0)
(0.080170117 -2.8803753e-06 0)
(0.08102071 2.7497837e-06 0)
(0.080217657 -2.6266799e-06 0)
(0.080975398 2.5105162e-06 0)
(0.08026088 -2.4021563e-06 0)
(0.080934137 2.2992607e-06 0)
(0.080300315 -2.2038023e-06 0)
(0.080896422 2.1131757e-06 0)
(0.080336431 -2.0292044e-06 0)
(0.080861806 1.9496278e-06 0)
(0.080369655 -1.8760668e-06 0)
(0.080829887 1.8065279e-06 0)
(0.080400368 -1.7423501e-06 0)
(0.080800299 1.6820326e-06 0)
(0.080428917 -1.6266137e-06 0)
(0.080772716 1.5746808e-06 0)
(0.080455616 -1.5272451e-06 0)
(0.080746835 1.4831716e-06 0)
(0.080480753 -1.4431479e-06 0)
(0.080722379 1.406392e-06 0)
(0.080504593 -1.3734411e-06 0)
(0.080699095 1.3433328e-06 0)
(0.080527387 -1.3170056e-06 0)
(0.080676739 1.2936859e-06 0)
(0.080549369 -1.2706873e-06 0)
(0.080655066 1.2606756e-06 0)
(0.080570711 -1.2365829e-06 0)
(0.080633773 1.1744259e-06 0)
(0.080591942 -1.5284529e-06 0)
(0.080614394 1.0821348e-06 0)
(0.075530002 0.007796573 0)
(0.083006807 -0.00079369681 0)
(0.08201945 0.00040174432 0)
(0.08476397 -2.4643208e-05 0)
(0.082399157 6.4158313e-07 0)
(0.084992087 4.2241125e-06 0)
(0.082718851 6.0788035e-06 0)
(0.08482629 6.0301285e-07 0)
(0.082929949 -3.0433162e-06 0)
(0.084699644 3.8112243e-06 0)
(0.083042378 -4.4614709e-06 0)
(0.084609677 4.4996712e-06 0)
(0.083126111 -4.1788131e-06 0)
(0.08452962 4.1016142e-06 0)
(0.08320092 -3.8280803e-06 0)
(0.084457955 3.6871667e-06 0)
(0.083268521 -3.48371e-06 0)
(0.084393516 3.3314962e-06 0)
(0.083329613 -3.1666994e-06 0)
(0.084335365 3.0228015e-06 0)
(0.08338489 -2.882026e-06 0)
(0.084282731 2.75162e-06 0)
(0.083435019 -2.6286392e-06 0)
(0.084234945 2.5125677e-06 0)
(0.083480607 -2.4042983e-06 0)
(0.084191419 2.3014257e-06 0)
(0.08352221 -2.2060424e-06 0)
(0.084151625 2.1154091e-06 0)
(0.08356032 -2.0314675e-06 0)
(0.084115093 1.9518639e-06 0)
(0.083595386 -1.8783088e-06 0)
(0.084081401 1.808719e-06 0)
(0.083627807 -1.7445175e-06 0)
(0.084050166 1.6841442e-06 0)
(0.083657947 -1.6286958e-06 0)
(0.084021043 1.576686e-06 0)
(0.083686136 -1.5292103e-06 0)
(0.083993716 1.4850726e-06 0)
(0.083712677 -1.4449853e-06 0)
(0.083967893 1.4081627e-06 0)
(0.08373785 -1.3751636e-06 0)
(0.083943308 1.3449659e-06 0)
(0.083761917 -1.3185904e-06 0)
(0.083919704 1.295173e-06 0)
(0.083785125 -1.2720452e-06 0)
(0.083896829 1.262347e-06 0)
(0.083807662 -1.2371798e-06 0)
(0.083874368 1.1745048e-06 0)
(0.083829992 -1.5380224e-06 0)
(0.083853448 1.0738213e-06 0)
(0.08022357 0.007980292 0)
(0.085474993 -0.0008253098 0)
(0.085070906 0.00038842199 0)
(0.087873387 -2.5712624e-05 0)
(0.085457552 -1.5085961e-06 0)
(0.088123953 2.9907391e-06 0)
(0.085761906 6.4409071e-06 0)
(0.087967162 -1.0034285e-07 0)
(0.085976796 -2.8258193e-06 0)