/*--------------------------------*- C++ -*----------------------------------*\
| =========                 |                                                 |
| \\      /  F ield         | OpenFOAM: The Open Source CFD Toolbox           |
|  \\    /   O peration     | Version:  2312                                  |
|   \\  /    A nd           | Website:  www.openfoam.com                      |
|    \\/     M anipulation  |                                                 |
\*---------------------------------------------------------------------------*/
FoamFile
{
    version     2.0;
    format      ascii;
    arch        "LSB;label=32;scalar=64";
    class       volScalarField;
    location    "6";
    object      p;
}
// * * * * * * * * * * * * * * * * * * * * * * * * * * * * * * * * * * * * * //

dimensions      [0 2 -2 0 0 0 0];

internalField   nonuniform List<scalar> 
4000
(
39.837629
37.751389
36.00209
35.032463
33.871336
33.17637
32.217551
31.597819
30.703015
30.089867
29.219815
28.597182
27.742345
27.107764
26.265508
25.619381
24.788359
24.131706
23.310714
22.644655
21.832535
21.158165
20.353833
19.672175
18.874643
18.186627
17.395012
16.70147
15.914989
15.21666
14.434622
13.732159
12.953953
12.247936
11.473015
10.763966
9.9918376
9.2802273
8.5104427
7.7967003
7.0288482
6.3133698
5.5470679
4.8302234
4.0651123
3.347251
2.5829898
1.8644472
1.1007089
0.38180912
39.807697
37.749897
36.003463
35.032341
33.871424
33.176354
32.217567
31.597821
30.703022
30.089864
29.21982
28.597178
27.742349
27.10776
26.265512
25.619378
24.788362
24.131703
23.310717
22.644652
21.832537
21.158163
20.353835
19.672173
18.874645
18.186625
17.395013
16.701468
15.914991
15.216658
14.434624
13.732157
12.953954
12.247935
11.473016
10.763965
9.9918387
9.2802262
8.5104437
7.7966993
7.0288491
6.3133689
5.5470688
4.8302225
4.0651132
3.3472501
2.5829907
1.8644464
1.1007098
0.3818075
39.763683
37.749619
36.005733
35.032063
33.871573
33.176339
32.217589
31.597835
30.703023
30.089868
29.219819
28.59718
27.742348
27.107761
26.265511
25.619379
24.788362
24.131704
23.310716
22.644653
21.832537
21.158163
20.353834
19.672174
18.874644
18.186626
17.395013
16.701469
15.91499
15.216658
14.434624
13.732157
12.953954
12.247935
11.473016
10.763966
9.9918384
9.2802265
8.5104434
7.7966995
7.0288489
6.3133692
5.5470685
4.8302227
4.065113
3.3472503
2.5829904
1.8644466
1.1007097
0.38180695
39.731148
37.746728
36.007837
35.031674
33.871724
33.176316
32.217609
31.597851
30.703022
30.089874
29.219816
28.597183
27.742345
27.107764
26.265509
25.619381
24.788359
24.131706
23.310714
22.644655
21.832535
21.158165
20.353833
19.672175
18.874643
18.186627
17.395012
16.70147
15.914989
15.216659
14.434623
13.732158
12.953953
12.247936
11.473015
10.763966
9.9918376
9.2802272
8.5104427
7.7967002
7.0288482
6.3133698
5.5470679
4.8302233
4.0651124
3.3472509
2.5829899
1.8644472
1.1007092
0.38180683
39.683474
37.742005
36.009677
35.03122
33.871892
33.176281
32.217628
31.597864
30.70302
30.089878
29.219813
28.597186
27.742343
27.107766
26.265507
25.619383
24.788358
24.131707
23.310713
22.644656
21.832533
21.158166
20.353831
19.672176
18.874642
18.186628
17.395011
16.701471
15.914988
15.21666
14.434622
13.732159
12.953952
12.247937
11.473015
10.763967
9.991837
9.2802278
8.5104421
7.7967008
7.0288477
6.3133703
5.5470674
4.8302239
4.0651119
3.3472514
2.5829894
1.8644478
1.1007087
0.38180676
39.651205
37.738551
36.010819
35.030907
33.872118
33.176235
32.217647
31.597872
30.703017
30.089881
29.219811
28.597187
27.742341
27.107768
26.265505
25.619384
24.788356
24.131709
23.310711
22.644657
21.832532
21.158167
20.35383
19.672177
18.874641
18.186629
17.39501
16.701472
15.914988
15.216661
14.434621
13.73216
12.953952
12.247937
11.473014
10.763967
9.9918365
9.2802283
8.5104417
7.7967012
7.0288472
6.3133708
5.547067
4.8302243
4.0651115
3.3472518
2.582989
1.8644482
1.1007083
0.38180668
39.608482
37.735664
36.010814
35.031403
33.872457
33.176191
32.217666
31.597876
30.703014
30.089883
29.219808
28.597189
27.742339
27.107769
26.265504
25.619386
24.788355
24.13171
23.31071
22.644658
21.832532
21.158168
20.35383
19.672178
18.87464
18.18663
17.395009
16.701472
15.914987
15.216662
14.434621
13.73216
12.953951
12.247938
11.473014
10.763968
9.9918361
9.2802287
8.5104413
7.7967016
7.0288469
6.3133711
5.5470667
4.8302246
4.0651111
3.3472521
2.5829887
1.8644486
1.100708
0.38180661
39.570122
37.735601
36.009463
35.03285
33.872781
33.176146
32.217687
31.597876
30.703011
30.089885
29.219806
28.59719
27.742338
27.10777
26.265503
25.619387
24.788354
24.131711
23.310709
22.644659
21.832531
21.158169
20.353829
19.672178
18.874639
18.18663
17.395009
16.701473
15.914987
15.216662
14.43462
13.732161
12.953951
12.247938
11.473013
10.763968
9.9918357
9.280229
8.510441
7.7967019
7.0288466
6.3133714
5.5470664
4.8302249
4.0651109
3.3472524
2.5829884
1.8644489
1.1007077
0.38180655
39.539835
37.7329
36.008574
35.03457
33.872852
33.176111
32.217707
31.597873
30.703008
30.089885
29.219804
28.597191
27.742337
27.107771
26.265502
25.619388
24.788353
24.131711
23.310709
22.64466
21.83253
21.158169
20.353828
19.672179
18.874639
18.186631
17.395008
16.701473
15.914986
15.216662
14.43462
13.732161
12.95395
12.247939
11.473013
10.763969
9.9918354
9.2802293
8.5104407
7.7967022
7.0288463
6.3133717
5.5470661
4.8302251
4.0651106
3.3472527
2.5829882
1.8644492
1.1007074
0.38180651
39.513882
37.729362
36.00928
35.035656
33.872572
33.176109
32.217724
31.597864
30.703003
30.089885
29.219802
28.597191
27.742335
27.107772
26.265501
25.619388
24.788352
24.131712
23.310708
22.64466
21.832529
21.15817
20.353828
19.67218
18.874638
18.186631
17.395008
16.701474
15.914986
15.216663
14.434619
13.732161
12.95395
12.247939
11.473013
10.763969
9.9918352
9.2802296
8.5104404
7.7967024
7.0288461
6.3133719
5.5470659
4.8302253
4.0651104
3.3472529
2.582988
1.8644494
1.1007071
0.38180648
39.497057
37.72445
36.009236
35.035664
33.872034
33.176109
32.217722
31.597846
30.702995
30.089882
29.2198
28.597192
27.742334
27.107772
26.2655
25.619389
24.788352
24.131713
23.310707
22.644661
21.832529
21.158171
20.353827
19.67218
18.874638
18.186632
17.395007
16.701474
15.914985
15.216663
14.434619
13.732162
12.95395
12.247939
11.473012
10.763969
9.9918349
9.2802298
8.5104402
7.7967026
7.0288459
6.3133721
5.5470657
4.8302255
4.0651102
3.3472531
2.5829878
1.8644497
1.1007068
0.38180646
39.471973
37.719183
36.007627
35.03498
33.871436
33.176053
32.217687
31.597817
30.702985
30.089878
29.219796
28.597192
27.742333
27.107773
26.265499
25.61939
24.788351
24.131713
23.310707
22.644662
21.832528
21.158171
20.353827
19.67218
18.874638
18.186632
17.395007
16.701474
15.914985
15.216663
14.434619
13.732162
12.95395
12.247939
11.473012
10.763969
9.9918347
9.28023
8.51044
7.7967028
7.0288457
6.3133723
5.5470655
4.8302257
4.06511
3.3472532
2.5829876
1.8644499
1.1007066
0.38180644
39.44963
37.71232
36.00529
35.034095
33.870869
33.175917
32.217618
31.597777
30.702971
30.089872
29.219792
28.597191
27.742332
27.107773
26.265498
25.61939
24.788351
24.131714
23.310706
22.644662
21.832528
21.158171
20.353826
19.672181
18.874637
18.186632
17.395007
16.701475
15.914985
15.216664
14.434619
13.732162
12.953949
12.24794
11.473012
10.76397
9.9918345
9.2802302
8.5104398
7.796703
7.0288455
6.3133724
5.5470653
4.8302259
4.0651099
3.3472534
2.5829875
1.86445
1.1007063
0.38180644
39.426326
37.705657
36.002613
35.03311
33.870319
33.175716
32.217527
31.597729
30.702955
30.089864
29.219788
28.59719
27.74233
27.107774
26.265498
25.619391
24.78835
24.131714
23.310706
22.644662
21.832528
21.158172
20.353826
19.672181
18.874637
18.186633
17.395006
16.701475
15.914985
15.216664
14.434618
13.732162
12.953949
12.24794
11.473012
10.76397
9.9918344
9.2802304
8.5104397
7.7967032
7.0288454
6.3133726
5.5470652
4.830226
4.0651097
3.3472535
2.5829874
1.8644502
1.1007061
0.38180644
39.405464
37.69775
35.999705
35.032049
33.869748
33.175476
32.217425
31.597677
30.70294
30.089856
29.219783
28.597189
27.742329
27.107774
26.265497
25.619391
24.78835
24.131715
23.310705
22.644663
21.832527
21.158172
20.353826
19.672181
18.874637
18.186633
17.395006
16.701475
15.914984
15.216664
14.434618
13.732163
12.953949
12.24794
11.473011
10.76397
9.9918342
9.2802305
8.5104395
7.7967033
7.0288452
6.3133727
5.5470651
4.8302262
4.0651096
3.3472537
2.5829873
1.8644503
1.1007059
0.38180644
39.386023
37.691212
35.997044
35.03086
33.869134
33.175219
32.217321
31.597622
30.702927
30.089848
29.219778
28.597187
27.742327
27.107774
26.265496
25.619391
24.788349
24.131715
23.310705
22.644663
21.832527
21.158172
20.353826
19.672182
18.874636
18.186633
17.395006
16.701475
15.914984
15.216664
14.434618
13.732163
12.953949
12.24794
11.473011
10.76397
9.991834
9.2802307
8.5104394
7.7967034
7.0288451
6.3133729
5.5470649
4.8302263
4.0651095
3.3472538
2.5829872
1.8644505
1.1007057
0.38180645
39.373623
37.684124
35.994681
35.029502
33.868488
33.174964
32.217219
31.597569
30.702916
30.089841
29.219773
28.597186
27.742326
27.107774
26.265496
25.619392
24.788349
24.131715
23.310705
22.644663
21.832527
21.158173
20.353825
19.672182
18.874636
18.186633
17.395006
16.701476
15.914984
15.216665
14.434618
13.732163
12.953949
12.24794
11.473011
10.76397
9.9918339
9.2802308
8.5104393
7.7967036
7.028845
6.313373
5.5470648
4.8302264
4.0651094
3.3472539
2.5829871
1.8644506
1.1007055
0.38180646
39.35751
37.678181
35.992831
35.02806
33.867859
33.174726
32.217123
31.597519
30.702905
30.089835
29.21977
28.597185
27.742325
27.107774
26.265495
25.619392
24.788348
24.131716
23.310704
22.644664
21.832526
21.158173
20.353825
19.672182
18.874636
18.186634
17.395006
16.701476
15.914984
15.216665
14.434618
13.732163
12.953948
12.24794
11.473011
10.76397
9.9918338
9.2802309
8.5104392
7.7967037
7.0288449
6.3133731
5.5470647
4.8302265
4.0651093
3.347254
2.582987
1.8644507
1.1007053
0.38180647
39.348787
37.671992
35.991005
35.026653
33.867293
33.174518
32.217037
31.597476
30.702895
30.089829
29.219768
28.597184
27.742324
27.107774
26.265495
25.619392
24.788348
24.131716
23.310704
22.644664
21.832526
21.158173
20.353825
19.672182
18.874636
18.186634
17.395005
16.701476
15.914984
15.216665
14.434617
13.732163
12.953948
12.247941
11.473011
10.76397
9.9918337
9.280231
8.5104391
7.7967038
7.0288448
6.3133732
5.5470646
4.8302266
4.0651092
3.3472541
2.5829869
1.8644508
1.1007051
0.38180648
39.336673
37.666076
35.989094
35.025366
33.866809
33.174347
32.216963
31.59744
30.702886
30.089823
29.219768
28.597184
27.742323
27.107774
26.265494
25.619392
24.788347
24.131716
23.310704
22.644664
21.832526
21.158173
20.353825
19.672183
18.874635
18.186634
17.395005
16.701476
15.914984
15.216665
14.434617
13.732163
12.953948
12.247941
11.473011
10.763971
9.9918336
9.2802311
8.510439
7.7967039
7.0288447
6.3133733
5.5470645
4.8302267
4.0651091
3.3472542
2.5829868
1.8644509
1.1007049
0.3818065
39.328359
37.660717
35.987041
35.024253
33.866397
33.174208
32.216901
31.59741
30.702879
30.089817
29.219768
28.597183
27.742322
27.107774
26.265494
25.619393
24.788347
24.131716
23.310703
22.644664
21.832526
21.158174
20.353824
19.672183
18.874635
18.186634
17.395005
16.701476
15.914983
15.216665
14.434617
13.732164
12.953948
12.247941
11.473011
10.763971
9.9918335
9.2802312
8.5104389
7.7967039
7.0288446
6.3133733
5.5470645
4.8302267
4.065109
3.3472543
2.5829867
1.8644509
1.1007048
0.38180652
39.318459
37.656172
35.985115
35.023292
33.866038
33.174092
32.216849
31.597385
30.702874
30.089811
29.219769
28.597183
27.742322
27.107774
26.265493
25.619393
24.788347
24.131717
23.310703
22.644665
21.832525
21.158174
20.353824
19.672183
18.874635
18.186634
17.395005
16.701476
15.914983
15.216665
14.434617
13.732164
12.953948
12.247941
11.473011
10.763971
9.9918334
9.2802313
8.5104388
7.796704
7.0288445
6.3133734
5.5470644
4.8302268
4.065109
3.3472543
2.5829867
1.864451
1.1007046
0.38180654
39.312241
37.652053
35.983185
35.022424
33.865712
33.173991
32.216802
31.597363
30.702869
30.089804
29.219771
28.597183
27.742321
27.107774
26.265493
25.619393
24.788346
24.131717
23.310703
22.644665
21.832525
21.158174
20.353824
19.672183
18.874635
18.186635
17.395005
16.701477
15.914983
15.216665
14.434617
13.732164
12.953948
12.247941
11.473011
10.763971
9.9918333
9.2802314
8.5104387
7.7967041
7.0288444
6.3133735
5.5470643
4.8302269
4.0651089
3.3472544
2.5829866
1.864451
1.1007045
0.38180655
39.304877
37.648153
35.981411
35.021631
33.865416
33.173902
32.21676
31.597344
30.702866
30.089796
29.219773
28.597183
27.742321
27.107774
26.265493
25.619393
24.788346
24.131717
23.310703
22.644665
21.832525
21.158174
20.353824
19.672183
18.874635
18.186635
17.395005
16.701477
15.914983
15.216665
14.434617
13.732164
12.953948
12.247941
11.47301
10.763971
9.9918332
9.2802315
8.5104386
7.7967042
7.0288444
6.3133735
5.5470643
4.8302269
4.0651088
3.3472545
2.5829866
1.8644511
1.1007043
0.38180657
39.300107
37.644762
35.979705
35.020916
33.865147
33.173823
32.216721
31.597327
30.702862
30.089789
29.219774
28.597183
27.742321
27.107774
26.265492
25.619393
24.788346
24.131717
23.310703
22.644665
21.832525
21.158174
20.353824
19.672183
18.874635
18.186635
17.395005
16.701477
15.914983
15.216666
14.434617
13.732164
12.953948
12.247941
11.47301
10.763971
9.9918332
9.2802315
8.5104386
7.7967042
7.0288443
6.3133736
5.5470642
4.830227
4.0651088
3.3472545
2.5829865
1.8644511
1.1007042
0.38180659
39.294542
37.641503
35.978218
35.020286
33.86491
33.173756
32.216688
31.597312
30.702859
30.089782
29.219775
28.597183
27.742321
27.107775
26.265492
25.619393
24.788346
24.131717
23.310702
22.644665
21.832525
21.158174
20.353824
19.672184
18.874635
18.186635
17.395004
16.701477
15.914983
15.216666
14.434617
13.732164
12.953948
12.247941
11.47301
10.763971
9.9918331
9.2802316
8.5104385
7.7967043
7.0288443
6.3133737
5.5470642
4.830227
4.0651087
3.3472546
2.5829865
1.8644512
1.1007041
0.38180661
39.290779
37.638913
35.97686
35.019739
33.864704
33.1737
32.216659
31.5973
30.702857
30.089776
29.219775
28.597183
27.742322
27.107775
26.265492
25.619393
24.788345
24.131717
23.310702
22.644665
21.832524
21.158174
20.353823
19.672184
18.874634
18.186635
17.395004
16.701477
15.914983
15.216666
14.434617
13.732164
12.953948
12.247941
11.47301
10.763971
9.991833
9.2802316
8.5104385
7.7967043
7.0288442
6.3133737
5.5470641
4.8302271
4.0651087
3.3472546
2.5829864
1.8644512
1.100704
0.38180663
39.286602
37.636282
35.975709
35.019275
33.86453
33.173657
32.216635
31.59729
30.702855
30.089771
29.219776
28.597182
27.742323
27.107775
26.265492
25.619394
24.788345
24.131717
23.310702
22.644665
21.832524
21.158175
20.353823
19.672184
18.874634
18.186635
17.395004
16.701477
15.914983
15.216666
14.434617
13.732164
12.953947
12.247941
11.47301
10.763971
9.991833
9.2802317
8.5104384
7.7967044
7.0288442
6.3133738
5.5470641
4.8302271
4.0651086
3.3472547
2.5829864
1.8644512
1.1007039
0.38180665
39.283532
37.634388
35.974695
35.018888
33.864386
33.173625
32.216616
31.597282
30.702853
30.089766
29.219776
28.597181
27.742324
27.107776
26.265492
25.619394
24.788345
24.131718
23.310702
22.644666
21.832524
21.158175
20.353823
19.672184
18.874634
18.186635
17.395004
16.701477
15.914983
15.216666
14.434616
13.732164
12.953947
12.247941
11.47301
10.763971
9.9918329
9.2802317
8.5104384
7.7967044
7.0288441
6.3133738
5.547064
4.8302272
4.0651086
3.3472547
2.5829864
1.8644512
1.1007038
0.38180666
39.280524
37.6323
35.973851
35.018572
33.864273
33.173604
32.216602
31.597277
30.702853
30.089763
29.219777
28.597179
27.742325
27.107776
26.265492
25.619394
24.788345
24.131718
23.310702
22.644666
21.832524
21.158175
20.353823
19.672184
18.874634
18.186635
17.395004
16.701477
15.914983
15.216666
14.434616
13.732164
12.953947
12.247941
11.47301
10.763971
9.9918329
9.2802318
8.5104383
7.7967045
7.0288441
6.3133738
5.547064
4.8302272
4.0651086
3.3472547
2.5829863
1.8644513
1.1007037
0.38180668
39.277997
37.630989
35.973147
35.018324
33.864186
33.173593
32.216593
31.597275
30.702853
30.08976
29.219778
28.597178
27.742326
27.107776
26.265492
25.619394
24.788345
24.131718
23.310702
22.644666
21.832524
21.158175
20.353823
19.672184
18.874634
18.186635
17.395004
16.701477
15.914982
15.216666
14.434616
13.732164
12.953947
12.247941
11.47301
10.763971
9.9918329
9.2802318
8.5104383
7.7967045
7.028844
6.3133739
5.547064
4.8302272
4.0651085
3.3472548
2.5829863
1.8644513
1.1007036
0.38180669
39.276044
37.629358
35.972568
35.018132
33.864123
33.173591
32.216588
31.597274
30.702853
30.089758
29.219779
28.597176
27.742327
27.107777
26.265492
25.619394
24.788345
24.131718
23.310701
22.644666
21.832524
21.158175
20.353823
19.672184
18.874634
18.186635
17.395004
16.701477
15.914982
15.216666
14.434616
13.732164
12.953947
12.247941
11.47301
10.763971
9.9918328
9.2802319
8.5104383
7.7967045
7.028844
6.3133739
5.5470639
4.8302273
4.0651085
3.3472548
2.5829863
1.8644513
1.1007035
0.3818067
39.273745
37.628447
35.972119
35.017993
33.864082
33.173596
32.216587
31.597274
30.702854
30.089756
29.21978
28.597174
27.742328
27.107777
26.265492
25.619394
24.788345
24.131718
23.310701
22.644666
21.832524
21.158175
20.353823
19.672184
18.874634
18.186635
17.395004
16.701477
15.914982
15.216666
14.434616
13.732164
12.953947
12.247942
11.47301
10.763971
9.9918328
9.2802319
8.5104382
7.7967046
7.028844
6.3133739
5.5470639
4.8302273
4.0651085
3.3472548
2.5829862
1.8644513
1.1007035
0.38180671
39.272633
37.627244
35.971767
35.0179
33.86406
33.173607
32.216589
31.597276
30.702856
30.089755
29.219781
28.597173
27.742328
27.107778
26.265492
25.619394
24.788344
24.131718
23.310701
22.644666
21.832524
21.158175
20.353823
19.672184
18.874634
18.186635
17.395004
16.701477
15.914982
15.216666
14.434616
13.732164
12.953947
12.247942
11.47301
10.763971
9.9918328
9.2802319
8.5104382
7.7967046
7.028844
6.3133739
5.5470639
4.8302273
4.0651085
3.3472548
2.5829862
1.8644513
1.1007034
0.38180672
39.270635
37.626649
35.971537
35.017854
33.864056
33.173624
32.216594
31.59728
30.702858
30.089754
29.219782
28.597172
27.742329
27.107778
26.265493
25.619395
24.788344
24.131718
23.310701
22.644666
21.832524
21.158175
20.353823
19.672184
18.874634
18.186635
17.395004
16.701477
15.914982
15.216666
14.434616
13.732164
12.953947
12.247942
11.47301
10.763971
9.9918327
9.2802319
8.5104382
7.7967046
7.0288439
6.313374
5.5470639
4.8302273
4.0651084
3.3472549
2.5829862
1.8644513
1.1007034
0.38180672
39.270027
37.625847
35.97139
35.017845
33.864069
33.173646
32.216602
31.597285
30.70286
30.089755
29.219783
28.597171
27.742329
27.107778
26.265493
25.619395
24.788344
24.131718
23.310701
22.644666
21.832523
21.158175
20.353823
19.672184
18.874634
18.186635
17.395004
16.701478
15.914982
15.216666
14.434616
13.732164
12.953947
12.247942
11.47301
10.763971
9.9918327
9.2802319
8.5104382
7.7967046
7.0288439
6.313374
5.5470638
4.8302273
4.0651084
3.3472549
2.5829862
1.8644513
1.1007034
0.38180672
39.268588
37.625564
35.971342
35.017873
33.864094
33.173671
32.216612
31.59729
30.702863
30.089755
29.219784
28.597171
27.742329
27.107779
26.265493
25.619395
24.788344
24.131718
23.310701
22.644666
21.832523
21.158175
20.353823
19.672184
18.874634
18.186636
17.395004
16.701478
15.914982
15.216666
14.434616
13.732165
12.953947
12.247942
11.47301
10.763971
9.9918327
9.280232
8.5104381
7.7967046
7.0288439
6.313374
5.5470638
4.8302274
4.0651084
3.3472549
2.5829862
1.8644513
1.1007034
0.38180671
39.268517
37.625049
35.971329
35.017918
33.864127
33.173696
32.216623
31.597295
30.702866
30.089756
29.219785
28.597171
27.742328
27.107779
26.265493
25.619395
24.788344
24.131718
23.310701
22.644666
21.832523
21.158175
20.353823
19.672184
18.874634
18.186636
17.395004
16.701478
15.914982
15.216666
14.434616
13.732165
12.953947
12.247942
11.47301
10.763971
9.9918327
9.280232
8.5104381
7.7967046
7.0288439
6.313374
5.5470638
4.8302274
4.0651084
3.3472549
2.5829862
1.8644513
1.1007034
0.3818067
39.267614
37.624995
35.971376
35.017971
33.864158
33.173717
32.216632
31.5973
30.702868
30.089757
29.219786
28.597171
27.742329
27.107779
26.265494
25.619396
24.788344
24.131718
23.310701
22.644666
21.832523
21.158175
20.353823
19.672184
18.874634
18.186636
17.395004
16.701478
15.914982
15.216666
14.434616
13.732165
12.953947
12.247942
11.47301
10.763971
9.9918327
9.280232
8.5104381
7.7967046
7.0288439
6.313374
5.5470638
4.8302273
4.0651084
3.3472549
2.5829862
1.8644513
1.1007035
0.38180668
39.268002
37.624722
35.971397
35.018005
33.864178
33.173729
32.216637
31.597303
30.702869
30.089757
29.219786
28.597171
27.742329
27.107779
26.265494
25.619396
24.788344
24.131718
23.310701
22.644666
21.832523
21.158175
20.353823
19.672184
18.874634
18.186636
17.395004
16.701478
15.914982
15.216666
14.434616
13.732165
12.953947
12.247942
11.47301
10.763971
9.9918327
9.280232
8.5104381
7.7967046
7.0288439
6.313374
5.5470638
4.8302273
4.0651084
3.3472549
2.5829862
1.8644513
1.1007035
0.38180666
39.267528
37.624799
35.971411
35.018007
33.864179
33.173728
32.216637
31.597302
30.702869
30.089757
29.219786
28.597171
27.742329
27.107779
26.265494
25.619396
24.788344
24.131718
23.310701
22.644666
21.832523
21.158175
20.353823
19.672184
18.874634
18.186636
17.395004
16.701478
15.914982
15.216666
14.434616
13.732165
12.953947
12.247942
11.47301
10.763971
9.9918327
9.280232
8.5104381
7.7967046
7.0288439
6.313374
5.5470638
4.8302273
4.0651084
3.3472549
2.5829862
1.8644513
1.1007035
0.38180666
39.268402
37.624603
35.971344
35.017974
33.864163
33.173716
32.216632
31.5973
30.702868
30.089757
29.219785
28.597171
27.742328
27.107779
26.265493
25.619396
24.788344
24.131718
23.310701
22.644666
21.832523
21.158175
20.353823
19.672184
18.874634
18.186636
17.395004
16.701478
15.914982
15.216666
14.434616
13.732165
12.953947
12.247942
11.47301
10.763971
9.9918327
9.280232
8.5104381
7.7967046
7.0288439
6.313374
5.5470638
4.8302273
4.0651084
3.3472549
2.5829862
1.8644513
1.1007035
0.38180668
39.268327
37.624838
35.971311
35.01793
33.864137
33.173696
32.216623
31.597295
30.702865
30.089756
29.219785
28.597171
27.742328
27.107779
26.265493
25.619395
24.788344
24.131718
23.310701
22.644666
21.832523
21.158175
20.353823
19.672184
18.874634
18.186636
17.395004
16.701478
15.914982
15.216666
14.434616
13.732165
12.953947
12.247942
11.47301
10.763971
9.9918327
9.280232
8.5104381
7.7967046
7.0288439
6.313374
5.5470638
4.8302274
4.0651084
3.3472549
2.5829862
1.8644513
1.1007034
0.3818067
39.269653
37.624914
35.971276
35.01789
33.86411
33.173673
32.216614
31.59729
30.702863
30.089755
29.219784
28.597171
27.742328
27.107779
26.265493
25.619395
24.788344
24.131718
23.310701
22.644666
21.832523
21.158175
20.353823
19.672184
18.874634
18.186636
17.395004
16.701478
15.914982
15.216666
14.434616
13.732165
12.953947
12.247942
11.47301
10.763971
9.9918327
9.280232
8.5104381
7.7967046
7.0288439
6.313374
5.5470638
4.8302274
4.0651084
3.3472549
2.5829862
1.8644513
1.1007034
0.38180671
39.270028
37.625397
35.971348
35.017873
33.864091
33.173651
32.216605
31.597285
30.70286
30.089754
29.219783
28.597171
27.742329
27.107778
26.265493
25.619395
24.788344
24.131718
23.310701
22.644666
21.832523
21.158175
20.353823
19.672184
18.874634
18.186635
17.395004
16.701478
15.914982
15.216666
14.434616
13.732164
12.953947
12.247942
11.47301
10.763971
9.9918327
9.2802319
8.5104382
7.7967046
7.0288439
6.313374
5.5470638
4.8302273
4.0651084
3.3472549
2.5829862
1.8644513
1.1007034
0.38180672
39.271995
37.62574
35.971455
35.017887
33.864084
33.173631
32.216598
31.59728
30.702858
30.089754
29.219782
28.597172
27.742329
27.107778
26.265493
25.619395
24.788344
24.131718
23.310701
22.644666
21.832524
21.158175
20.353823
19.672184
18.874634
18.186635
17.395004
16.701477
15.914982
15.216666
14.434616
13.732164
12.953947
12.247942
11.47301
10.763971
9.9918327
9.2802319
8.5104382
7.7967046
7.0288439
6.313374
5.5470639
4.8302273
4.0651084
3.3472549
2.5829862
1.8644513
1.1007034
0.38180672
39.272817
37.626542
35.971714
35.017942
33.864093
33.173617
32.216594
31.597277
30.702856
30.089755
29.219781
28.597172
27.742328
27.107778
26.265492
25.619395
24.788344
24.131718
23.310701
22.644666
21.832524
21.158175
20.353823
19.672184
18.874634
18.186635
17.395004
16.701477
15.914982
15.216666
14.434616
13.732164
12.953947
12.247942
11.47301
10.763971
9.9918328
9.2802319
8.5104382
7.7967046
7.028844
6.3133739
5.5470639
4.8302273
4.0651085
3.3472548
2.5829862
1.8644513
1.1007034
0.38180672
39.27541
37.62722
35.972025
35.018043
33.864121
33.173608
32.216593
31.597275
30.702855
30.089756
29.21978
28.597174
27.742328
27.107778
26.265492
25.619394
24.788345
24.131718
23.310701
22.644666
21.832524
21.158175
20.353823
19.672184
18.874634
18.186635
17.395004
16.701477
15.914982
15.216666
14.434616
13.732164
12.953947
12.247942
11.47301
10.763971
9.9918328
9.2802319
8.5104382
7.7967046
7.028844
6.3133739
5.5470639
4.8302273
4.0651085
3.3472548
2.5829862
1.8644513
1.1007035
0.38180671
39.27666
37.628447
35.972511
35.018193
33.864168
33.173605
32.216596
31.597275
30.702854
30.089757
29.219779
28.597176
27.742327
27.107777
26.265492
25.619394
24.788345
24.131718
23.310701
22.644666
21.832524
21.158175
20.353823
19.672184
18.874634
18.186635
17.395004
16.701477
15.914982
15.216666
14.434616
13.732164
12.953947
12.247941
11.47301
10.763971
9.9918328
9.2802319
8.5104383
7.7967045
7.028844
6.3133739
5.5470639
4.8302273
4.0651085
3.3472548
2.5829863
1.8644513
1.1007035
0.38180671
39.279556
37.629373
35.973036
35.018395
33.864237
33.17361
32.216602
31.597277
30.702854
30.08976
29.219778
28.597177
27.742326
27.107777
26.265492
25.619394
24.788345
24.131718
23.310702
22.644666
21.832524
21.158175
20.353823
19.672184
18.874634
18.186635
17.395004
16.701477
15.914982
15.216666
14.434616
13.732164
12.953947
12.247941
11.47301
10.763971
9.9918329
9.2802318
8.5104383
7.7967045
7.028844
6.3133739
5.547064
4.8302272
4.0651085
3.3472548
2.5829863
1.8644513
1.1007036
0.38180669
39.281792
37.631104
35.973766
35.018654
33.86433
33.173622
32.216613
31.59728
30.702854
30.089762
29.219777
28.597179
27.742325
27.107776
26.265492
25.619394
24.788345
24.131718
23.310702
22.644666
21.832524
21.158175
20.353823
19.672184
18.874634
18.186635
17.395004
16.701477
15.914983
15.216666
14.434616
13.732164
12.953947
12.247941
11.47301
10.763971
9.9918329
9.2802318
8.5104383
7.7967045
7.0288441
6.3133738
5.547064
4.8302272
4.0651086
3.3472547
2.5829863
1.8644513
1.1007037
0.38180668
39.285109
37.632446
35.97457
35.018982
33.86445
33.173645
32.216628
31.597286
30.702855
30.089766
29.219776
28.597181
27.742324
27.107776
26.265492
25.619394
24.788345
24.131718
23.310702
22.644666
21.832524
21.158175
20.353823
19.672184
18.874634
18.186635
17.395004
16.701477
15.914983
15.216666
14.434616
13.732164
12.953947
12.247941
11.47301
10.763971
9.9918329
9.2802317
8.5104384
7.7967044
7.0288441
6.3133738
5.547064
4.8302272
4.0651086
3.3472547
2.5829864
1.8644512
1.1007038
0.38180666
39.288541
37.634747
35.975581
35.019378
33.8646
33.173679
32.216648
31.597293
30.702857
30.08977
29.219776
28.597182
27.742323
27.107775
26.265492
25.619394
24.788345
24.131717
23.310702
22.644665
21.832524
21.158175
20.353823
19.672184
18.874634
18.186635
17.395004
16.701477
15.914983
15.216666
14.434617
13.732164
12.953947
12.247941
11.47301
10.763971
9.991833
9.2802317
8.5104384
7.7967044
7.0288442
6.3133738
5.5470641
4.8302271
4.0651086
3.3472547
2.5829864
1.8644512
1.1007039
0.38180665
39.292602
37.636694
35.976716
35.019856
33.86478
33.173724
32.216673
31.597304
30.702859
30.089776
29.219775
28.597183
27.742322
27.107775
26.265492
25.619393
24.788345
24.131717
23.310702
22.644665
21.832524
21.158174
20.353823
19.672184
18.874634
18.186635
17.395004
16.701477
15.914983
15.216666
14.434617
13.732164
12.953948
12.247941
11.47301
10.763971
9.991833
9.2802316
8.5104385
7.7967043
7.0288442
6.3133737
5.5470641
4.8302271
4.0651087
3.3472546
2.5829864
1.8644512
1.100704
0.38180663
39.297371
37.639677
35.978038
35.020404
33.864989
33.173781
32.216703
31.597317
30.702862
30.089782
29.219775
28.597183
27.742321
27.107775
26.265492
25.619393
24.788346
24.131717
23.310702
22.644665
21.832525
21.158174
20.353824
19.672184
18.874635
18.186635
17.395004
16.701477
15.914983
15.216666
14.434617
13.732164
12.953948
12.247941
11.47301
10.763971
9.9918331
9.2802316
8.5104385
7.7967043
7.0288443
6.3133737
5.5470642
4.830227
4.0651087
3.3472546
2.5829865
1.8644512
1.1007041
0.38180661
39.302323
37.642359
35.979526
35.021039
33.86523
33.173849
32.216738
31.597332
30.702865
30.089789
29.219774
28.597183
27.742321
27.107774
26.265492
25.619393
24.788346
24.131717
23.310703
22.644665
21.832525
21.158174
20.353824
19.672183
18.874635
18.186635
17.395005
16.701477
15.914983
15.216666
14.434617
13.732164
12.953948
12.247941
11.47301
10.763971
9.9918332
9.2802315
8.5104386
7.7967042
7.0288443
6.3133736
5.5470642
4.830227
4.0651088
3.3472545
2.5829865
1.8644511
1.1007042
0.38180659
39.308623
37.646047
35.981152
35.021749
33.8655
33.173929
32.216777
31.59735
30.702868
30.089796
29.219773
28.597183
27.742321
27.107774
26.265492
25.619393
24.788346
24.131717
23.310703
22.644665
21.832525
21.158174
20.353824
19.672183
18.874635
18.186635
17.395005
16.701477
15.914983
15.216665
14.434617
13.732164
12.953948
12.247941
11.47301
10.763971
9.9918332
9.2802315
8.5104386
7.7967042
7.0288444
6.3133735
5.5470643
4.8302269
4.0651088
3.3472545
2.5829866
1.8644511
1.1007043
0.38180657
39.314691
37.649387
35.982949
35.022553
33.865805
33.174021
32.216821
31.59737
30.702873
30.089804
29.219771
28.597183
27.742321
27.107774
26.265493
25.619393
24.788346
24.131717
23.310703
22.644665
21.832525
21.158174
20.353824
19.672183
18.874635
18.186635
17.395005
16.701477
15.914983
15.216665
14.434617
13.732164
12.953948
12.247941
11.473011
10.763971
9.9918333
9.2802314
8.5104387
7.7967041
7.0288444
6.3133735
5.5470643
4.8302269
4.0651089
3.3472544
2.5829866
1.864451
1.1007045
0.38180656
39.322993
37.653641
35.984804
35.023443
33.866143
33.174128
32.21687
31.597392
30.702877
30.089811
29.219769
28.597183
27.742321
27.107774
26.265493
25.619393
24.788347
24.131717
23.310703
22.644665
21.832525
21.158174
20.353824
19.672183
18.874635
18.186634
17.395005
16.701476
15.914983