/*--------------------------------*- C++ -*----------------------------------*\
| =========                 |                                                 |
| \\      /  F ield         | OpenFOAM: The Open Source CFD Toolbox           |
|  \\    /   O peration     | Version:  2312                                  |
|   \\  /    A nd           | Website:  www.openfoam.com                      |
|    \\/     M anipulation  |                                                 |
\*---------------------------------------------------------------------------*/
FoamFile
{
    version     2.0;
    format      ascii;
    arch        "LSB;label=32;scalar=64";
    class       volSymmTensorField;
    location    "6";
    object      sigma;
}
// * * * * * * * * * * * * * * * * * * * * * * * * * * * * * * * * * * * * * //

dimensions      [0 2 -2 0 0 0 0];

internalField   nonuniform List<symmTensor> 
4000
(
(-3.8945778 -1.8009423 0 -0.77818164 0 0)
(-13.207381 -0.71973688 0 -0.012524139 0 0)
(-4.2892872 -0.37900693 0 -0.0024385856 0 0)
(-4.7264886 -0.39542276 0 0.00027233853 0 0)
(-4.2653599 -0.37774093 0 -0.00020991463 0 0)
(-4.1600031 -0.37228166 0 2.4887053e-05 0 0)
(-4.1918918 -0.37412775 0 -6.3724369e-05 0 0)
(-4.0642624 -0.36795608 0 1.335984e-05 0 0)
(-4.1283326 -0.37113506 0 -3.340044e-05 0 0)
(-4.0516226 -0.36736106 0 2.2518052e-05 0 0)
(-4.1092914 -0.37024412 0 -2.5644767e-05 0 0)
(-4.0542906 -0.36748837 0 2.2968537e-05 0 0)
(-4.1027852 -0.36993626 0 -2.24587e-05 0 0)
(-4.0576559 -0.36765219 0 2.1027698e-05 0 0)
(-4.0993132 -0.36976706 0 -1.9983561e-05 0 0)
(-4.0602988 -0.36778409 0 1.876495e-05 0 0)
(-4.0967116 -0.3696374 0 -1.7730035e-05 0 0)
(-4.0625355 -0.36789716 0 1.6665052e-05 0 0)
(-4.0945217 -0.3695271 0 -1.5724876e-05 0 0)
(-4.0645152 -0.36799764 0 1.4804878e-05 0 0)
(-4.0926191 -0.36943087 0 -1.3973156e-05 0 0)
(-4.0662726 -0.36808689 0 1.3177307e-05 0 0)
(-4.0909489 -0.36934633 0 -1.2448998e-05 0 0)
(-4.0678304 -0.36816591 0 1.1758782e-05 0 0)
(-4.0894746 -0.36927178 0 -1.1123547e-05 0 0)
(-4.069213 -0.3682359 0 1.0524167e-05 0 0)
(-4.0881669 -0.36920577 0 -9.971236e-06 0 0)
(-4.0704441 -0.36829805 0 9.4508246e-06 0 0)
(-4.0870012 -0.36914709 0 -8.9705293e-06 0 0)
(-4.0715451 -0.36835345 0 8.5194785e-06 0 0)
(-4.0859568 -0.36909468 0 -8.103598e-06 0 0)
(-4.0725344 -0.36840307 0 7.7140875e-06 0 0)
(-4.0850161 -0.36904764 0 -7.3557819e-06 0 0)
(-4.0734282 -0.36844772 0 7.0214217e-06 0 0)
(-4.084164 -0.3690052 0 -6.715043e-06 0 0)
(-4.0742405 -0.36848811 0 6.4305982e-06 0 0)
(-4.0833874 -0.36896669 0 -6.1715009e-06 0 0)
(-4.0749835 -0.36852488 0 5.9326881e-06 0 0)
(-4.0826746 -0.36893153 0 -5.7170844e-06 0 0)
(-4.0756681 -0.36855856 0 5.5204302e-06 0 0)
(-4.0820151 -0.3688992 0 -5.3453033e-06 0 0)
(-4.0763042 -0.36858964 0 5.1881463e-06 0 0)
(-4.0813996 -0.36886924 0 -5.0509666e-06 0 0)
(-4.0769017 -0.36861861 0 4.9321835e-06 0 0)
(-4.0808211 -0.36884131 0 -4.8306368e-06 0 0)
(-4.0774717 -0.368646 0 4.7471417e-06 0 0)
(-4.0802654 -0.36881485 0 -4.7022815e-06 0 0)
(-4.0779682 -0.36867004 0 4.5812063e-06 0 0)
(-4.0795144 -0.36878073 0 -4.8018024e-06 0 0)
(-4.0778099 -0.36866281 0 4.638285e-06 0 0)
(-3.2899693 -1.6235989 0 -0.73439475 0 0)
(-10.807731 -0.70251662 0 -0.027221023 0 0)
(-5.0752906 -0.43165654 0 -0.0072771881 0 0)
(-4.378939 -0.37891808 0 0.00026408207 0 0)
(-3.9645386 -0.36563127 0 -0.00052942335 0 0)
(-3.8377808 -0.35762626 0 1.904893e-06 0 0)
(-3.8799704 -0.36029415 0 -0.0001206777 0 0)
(-3.7712571 -0.35447188 0 -2.0475236e-05 0 0)
(-3.8228199 -0.35724535 0 -4.5303796e-05 0 0)
(-3.757927 -0.35374868 0 1.5745382e-05 0 0)
(-3.8052981 -0.35634623 0 -2.8215434e-05 0 0)
(-3.7592659 -0.35381113 0 2.3082318e-05 0 0)
(-3.7996778 -0.35605935 0 -2.4036236e-05 0 0)
(-3.7619265 -0.35395238 0 2.233789e-05 0 0)
(-3.7967957 -0.35590619 0 -2.1517993e-05 0 0)
(-3.7641107 -0.35407278 0 2.0141236e-05 0 0)
(-3.7946242 -0.355787 0 -1.9130721e-05 0 0)
(-3.7659718 -0.35417694 0 1.793488e-05 0 0)
(-3.7927875 -0.35568496 0 -1.6962728e-05 0 0)
(-3.767622 -0.35426956 0 1.5950703e-05 0 0)
(-3.7911917 -0.35559603 0 -1.5070437e-05 0 0)
(-3.7690886 -0.3543518 0 1.4206112e-05 0 0)
(-3.789791 -0.35551795 0 -1.3427791e-05 0 0)
(-3.7703904 -0.35442467 0 1.2682444e-05 0 0)
(-3.7885535 -0.35544906 0 -1.2000631e-05 0 0)
(-3.7715475 -0.35448928 0 1.1354722e-05 0 0)
(-3.7874546 -0.35538801 0 -1.0759975e-05 0 0)
(-3.7725794 -0.35454673 0 1.019948e-05 0 0)
(-3.7864738 -0.35533366 0 -9.6822687e-06 0 0)
(-3.7735036 -0.35459803 0 9.1964948e-06 0 0)
(-3.785594 -0.35528505 0 -8.7483787e-06 0 0)
(-3.7743351 -0.35464402 0 8.3288721e-06 0 0)
(-3.7848007 -0.35524137 0 -7.9427123e-06 0 0)
(-3.7750873 -0.35468545 0 7.5826535e-06 0 0)
(-3.7840814 -0.35520193 0 -7.2525157e-06 0 0)
(-3.7757715 -0.35472297 0 6.9463554e-06 0 0)
(-3.7834253 -0.35516611 0 -6.6673552e-06 0 0)
(-3.776398 -0.35475715 0 6.4105856e-06 0 0)
(-3.7828226 -0.35513339 0 -6.1787769e-06 0 0)
(-3.776976 -0.35478847 0 5.9677856e-06 0 0)
(-3.7822644 -0.35510329 0 -5.7801447e-06 0 0)
(-3.7775137 -0.35481741 0 5.6123202e-06 0 0)
(-3.7817428 -0.35507537 0 -5.4661703e-06 0 0)
(-3.7780194 -0.35484437 0 5.3421217e-06 0 0)
(-3.7812517 -0.35504931 0 -5.2329377e-06 0 0)
(-3.7785039 -0.35486993 0 5.1519679e-06 0 0)
(-3.7807856 -0.35502506 0 -5.1245832e-06 0 0)
(-3.7789511 -0.35489406 0 4.9115909e-06 0 0)
(-3.7802086 -0.3549983 0 -5.5508929e-06 0 0)
(-3.7789349 -0.35489348 0 4.9336891e-06 0 0)
(-3.149159 -1.5385915 0 -0.66999075 0 0)
(-8.9381707 -0.63749358 0 -0.030161518 0 0)
(-5.0268449 -0.44433199 0 -0.010844997 0 0)
(-4.258502 -0.37340519 0 2.2443219e-05 0 0)
(-3.7753745 -0.35755267 0 -0.00079190692 0 0)
(-3.6320866 -0.34789392 0 -1.6907778e-05 0 0)
(-3.6732872 -0.35079538 0 -0.00015502615 0 0)
(-3.5788807 -0.34535975 0 -4.9635468e-05 0 0)
(-3.6247942 -0.34793865 0 -5.13439e-05 0 0)
(-3.5670296 -0.34462532 0 7.626208e-06 0 0)
(-3.6087234 -0.34705334 0 -2.7584152e-05 0 0)
(-3.5678581 -0.34465703 0 2.0649456e-05 0 0)
(-3.6035895 -0.3467779 0 -2.2776498e-05 0 0)
(-3.5701458 -0.34478634 0 2.1020313e-05 0 0)
(-3.6010292 -0.34663411 0 -2.0456215e-05 0 0)
(-3.5720768 -0.34490016 0 1.9090565e-05 0 0)
(-3.5991107 -0.34652175 0 -1.8209736e-05 0 0)
(-3.5737253 -0.3449988 0 1.7027818e-05 0 0)
(-3.5974867 -0.34642532 0 -1.613891e-05 0 0)
(-3.575186 -0.34508637 0 1.5156472e-05 0 0)
(-3.5960761 -0.34634131 0 -1.4334241e-05 0 0)
(-3.5764842 -0.34516409 0 1.3504986e-05 0 0)
(-3.594838 -0.3462676 0 -1.2771196e-05 0 0)
(-3.5776372 -0.34523298 0 1.2059935e-05 0 0)
(-3.5937439 -0.34620253 0 -1.1414428e-05 0 0)
(-3.5786629 -0.34529411 0 1.0799339e-05 0 0)
(-3.5927716 -0.34614482 0 -1.02351e-05 0 0)
(-3.5795784 -0.34534853 0 9.7016897e-06 0 0)
(-3.5919031 -0.34609339 0 -9.210462e-06 0 0)
(-3.5803989 -0.34539716 0 8.7482039e-06 0 0)
(-3.5911236 -0.34604735 0 -8.3223259e-06 0 0)
(-3.5811376 -0.3454408 0 7.9231043e-06 0 0)
(-3.5904203 -0.34600594 0 -7.5559821e-06 0 0)
(-3.581806 -0.34548015 0 7.2133293e-06 0 0)
(-3.5897823 -0.34596852 0 -6.8994445e-06 0 0)
(-3.5824144 -0.34551582 0 6.6081339e-06 0 0)
(-3.5892001 -0.34593451 0 -6.3429433e-06 0 0)
(-3.5829715 -0.34554832 0 6.0987622e-06 0 0)
(-3.588665 -0.34590341 0 -5.8786295e-06 0 0)
(-3.5834856 -0.34557813 0 5.6782467e-06 0 0)
(-3.5881693 -0.34587478 0 -5.500503e-06 0 0)
(-3.5839641 -0.34560568 0 5.3416243e-06 0 0)
(-3.5877057 -0.34584821 0 -5.2038933e-06 0 0)
(-3.5844141 -0.34563137 0 5.0884921e-06 0 0)
(-3.5872689 -0.34582336 0 -4.9846847e-06 0 0)
(-3.5848456 -0.34565573 0 4.916636e-06 0 0)
(-3.5868552 -0.34580033 0 -4.8987814e-06 0 0)
(-3.5852512 -0.34567936 0 4.6594982e-06 0 0)
(-3.5863581 -0.34577686 0 -5.5235499e-06 0 0)
(-3.5852957 -0.34568031 0 5.0446501e-06 0 0)
(-2.947022 -1.4377074 0 -0.61130356 0 0)
(-7.9522186 -0.61317194 0 -0.034632027 0 0)
(-4.9429969 -0.45661749 0 -0.014811704 0 0)
(-4.1502119 -0.36830255 0 -0.00020848492 0 0)
(-3.6074952 -0.35026946 0 -0.0011247978 0 0)
(-3.4373099 -0.33835978 0 -4.2615286e-05 0 0)
(-3.4734115 -0.34130199 0 -0.00019036211 0 0)
(-3.3906935 -0.33623549 0 -8.2748293e-05 0 0)
(-3.432469 -0.33863042 0 -5.5056088e-05 0 0)
(-3.380671 -0.33550437 0 -3.2850344e-06 0 0)
(-3.4178324 -0.3377634 0 -2.4764082e-05 0 0)
(-3.3811355 -0.33550471 0 1.6104839e-05 0 0)
(-3.4130965 -0.33749852 0 -1.9540465e-05 0 0)
(-3.3830943 -0.33562093 0 1.7874344e-05 0 0)
(-3.4107885 -0.33736389 0 -1.7661634e-05 0 0)
(-3.3848096 -0.33572769 0 1.641871e-05 0 0)
(-3.409072 -0.33725838 0 -1.5762205e-05 0 0)
(-3.386283 -0.33582058 0 1.4684708e-05 0 0)
(-3.4076172 -0.33716748 0 -1.3963797e-05 0 0)
(-3.387589 -0.33590304 0 1.3089621e-05 0 0)
(-3.4063528 -0.33708825 0 -1.2398512e-05 0 0)
(-3.3887502 -0.33597625 0 1.1673057e-05 0 0)
(-3.4052425 -0.3370187 0 -1.1046754e-05 0 0)
(-3.3897825 -0.3360412 0 1.0429357e-05 0 0)
(-3.4042609 -0.33695728 0 -9.8745684e-06 0 0)
(-3.3907015 -0.3360989 0 9.3421623e-06 0 0)
(-3.403388 -0.33690273 0 -8.8555635e-06 0 0)
(-3.3915224 -0.33615033 0 8.3941749e-06 0 0)
(-3.402608 -0.33685408 0 -7.9697574e-06 0 0)
(-3.3922585 -0.33619633 0 7.5698762e-06 0 0)
(-3.4019076 -0.33681048 0 -7.201525e-06 0 0)
(-3.3929215 -0.33623766 0 6.8560735e-06 0 0)
(-3.4012755 -0.33677123 0 -6.5383431e-06 0 0)
(-3.3935216 -0.33627495 0 6.2417692e-06 0 0)
(-3.4007022 -0.33673573 0 -5.970032e-06 0 0)
(-3.3940677 -0.33630877 0 5.7178789e-06 0 0)
(-3.4001791 -0.33670345 0 -5.4883022e-06 0 0)
(-3.3945678 -0.33633961 0 5.2769956e-06 0 0)
(-3.3996984 -0.33667392 0 -5.0865253e-06 0 0)
(-3.3950292 -0.33636793 0 4.9132545e-06 0 0)
(-3.3992532 -0.33664671 0 -4.7597405e-06 0 0)
(-3.3954585 -0.33639413 0 4.622633e-06 0 0)
(-3.3988371 -0.33662142 0 -4.5039996e-06 0 0)
(-3.3958621 -0.33641856 0 4.4062882e-06 0 0)
(-3.3984448 -0.33659773 0 -4.3144274e-06 0 0)
(-3.3962492 -0.33644176 0 4.2638206e-06 0 0)
(-3.3980748 -0.33657585 0 -4.2575075e-06 0 0)
(-3.3966195 -0.33646491 0 3.9776362e-06 0 0)
(-3.397647 -0.33655546 0 -5.0867071e-06 0 0)
(-3.3967184 -0.33646774 0 4.6401096e-06 0 0)
(-2.8766203 -1.3874386 0 -0.57768393 0 0)
(-6.9010388 -0.57270718 0 -0.036271372 0 0)
(-4.7249714 -0.45896543 0 -0.017802044 0 0)
(-4.0226656 -0.36276274 0 -0.00046909254 0 0)
(-3.4513441 -0.34326668 0 -0.0014852123 0 0)
(-3.2529727 -0.32897802 0 -6.7024657e-05 0 0)
(-3.2794553 -0.33174903 0 -0.00022066391 0 0)
(-3.206669 -0.32704637 0 -0.00011043249 0 0)
(-3.24533 -0.32930568 0 -5.73888e-05 0 0)
(-3.1988503 -0.32636581 0 -1.3044869e-05 0 0)
(-3.2323115 -0.32847706 0 -2.2030162e-05 0 0)
(-3.1991891 -0.32634539 0 1.1960759e-05 0 0)
(-3.2279714 -0.32822387 0 -1.6473303e-05 0 0)
(-3.2008835 -0.32645036 0 1.4954914e-05 0 0)
(-3.2258781 -0.32809776 0 -1.5019936e-05 0 0)
(-3.2024143 -0.32655068 0 1.3912475e-05 0 0)
(-3.2243337 -0.32799867 0 -1.3453332e-05 0 0)
(-3.2037396 -0.32663833 0 1.2479511e-05 0 0)
(-3.2230238 -0.32791293 0 -1.191396e-05 0 0)
(-3.2049152 -0.32671612 0 1.1143016e-05 0 0)
(-3.221884 -0.32783813 0 -1.0574582e-05 0 0)
(-3.2059612 -0.32678524 0 9.9470676e-06 0 0)
(-3.2208825 -0.32777241 0 -9.4215519e-06 0 0)
(-3.2068919 -0.32684663 0 8.8924347e-06 0 0)
(-3.2199964 -0.3277143 0 -8.4227971e-06 0 0)
(-3.2077212 -0.32690123 0 7.9680891e-06 0 0)
(-3.219208 -0.32766266 0 -7.5544412e-06 0 0)
(-3.2084624 -0.32694994 0 7.1607363e-06 0 0)
(-3.2185031 -0.32761655 0 -6.7991612e-06 0 0)
(-3.2091274 -0.32699356 0 6.4579187e-06 0 0)
(-3.21787 -0.32757519 0 -6.1437248e-06 0 0)
(-3.2097265 -0.32703278 0 5.8488321e-06 0 0)
(-3.2172988 -0.32753794 0 -5.5776207e-06 0 0)
(-3.2102687 -0.32706818 0 5.3243658e-06 0 0)
(-3.2167807 -0.32750423 0 -5.0923147e-06 0 0)
(-3.210762 -0.32710031 0 4.8769397e-06 0 0)
(-3.216308 -0.32747356 0 -4.6808498e-06 0 0)
(-3.2112137 -0.32712962 0 4.5003493e-06 0 0)
(-3.2158739 -0.32744548 0 -4.3376697e-06 0 0)
(-3.2116302 -0.32715655 0 4.1896758e-06 0 0)
(-3.215472 -0.3274196 0 -4.0586745e-06 0 0)
(-3.2120176 -0.32718148 0 3.9416087e-06 0 0)
(-3.2150965 -0.32739552 0 -3.8404151e-06 0 0)
(-3.2123815 -0.32720474 0 3.7583402e-06 0 0)
(-3.2147427 -0.32737294 0 -3.6767652e-06 0 0)
(-3.2127301 -0.32722683 0 3.6410489e-06 0 0)
(-3.2144101 -0.32735212 0 -3.6390993e-06 0 0)
(-3.2130678 -0.32724937 0 3.3273362e-06 0 0)
(-3.2140384 -0.32733412 0 -4.6131721e-06 0 0)
(-3.2132037 -0.32725375 0 4.1997792e-06 0 0)
(-2.7958759 -1.2991835 0 -0.51166699 0 0)
(-5.937003 -0.54076701 0 -0.037773245 0 0)
(-4.4655955 -0.45903204 0 -0.020368958 0 0)
(-3.8474649 -0.35654292 0 -0.0010125957 0 0)
(-3.3016685 -0.33696453 0 -0.0019603627 0 0)
(-3.0814592 -0.3200013 0 -0.00011065373 0 0)
(-3.0939885 -0.3222953 0 -0.00025417671 0 0)
(-3.027773 -0.31783283 0 -0.00013393199 0 0)
(-3.0635994 -0.31997576 0 -5.9012265e-05 0 0)
(-3.0218505 -0.31721762 0 -2.1291588e-05 0 0)
(-3.0520877 -0.31919394 0 -1.9803641e-05 0 0)
(-3.0221471 -0.31718215 0 8.5567583e-06 0 0)
(-3.0481272 -0.31895283 0 -1.3942205e-05 0 0)
(-3.0236148 -0.31727676 0 1.2592276e-05 0 0)
(-3.0462223 -0.31883463 0 -1.28535e-05 0 0)
(-3.0249794 -0.31737091 0 1.1873205e-05 0 0)
(-3.0448283 -0.31874158 0 -1.1568299e-05 0 0)
(-3.0261729 -0.31745362 0 1.068053e-05 0 0)
(-3.0436462 -0.31866072 0 -1.0242103e-05 0 0)
(-3.0272337 -0.31752705 0 9.5547399e-06 0 0)
(-3.0426164 -0.31859005 0 -9.0868069e-06 0 0)
(-3.0281783 -0.31759235 0 8.5387751e-06 0 0)
(-3.0417107 -0.31852791 0 -8.0953914e-06 0 0)
(-3.0290196 -0.31765041 0 7.6381352e-06 0 0)
(-3.0409086 -0.3184729 0 -7.2376827e-06 0 0)
(-3.0297698 -0.31770212 0 6.84634e-06 0 0)
(-3.0401946 -0.31842396 0 -6.4919229e-06 0 0)
(-3.0304409 -0.3177483 0 6.1534859e-06 0 0)
(-3.0395559 -0.31838022 0 -5.8429533e-06 0 0)
(-3.0310431 -0.31778968 0 5.5496378e-06 0 0)
(-3.0389823 -0.31834098 0 -5.2794618e-06 0 0)
(-3.0315858 -0.31782691 0 5.025919e-06 0 0)
(-3.0384646 -0.3183056 0 -4.7925389e-06 0 0)
(-3.0320769 -0.31786053 0 4.5747236e-06 0 0)
(-3.0379951 -0.31827358 0 -4.3749529e-06 0 0)
(-3.0325237 -0.31789106 0 4.1896611e-06 0 0)
(-3.037567 -0.31824443 0 -4.0207958e-06 0 0)
(-3.0329326 -0.31791892 0 3.8654694e-06 0 0)
(-3.037174 -0.31821774 0 -3.7253443e-06 0 0)
(-3.0333095 -0.31794453 0 3.5979541e-06 0 0)
(-3.0368103 -0.31819312 0 -3.4851452e-06 0 0)
(-3.0336599 -0.31796824 0 3.384301e-06 0 0)
(-3.0364707 -0.31817021 0 -3.2970782e-06 0 0)
(-3.0339888 -0.31799038 0 3.2273727e-06 0 0)
(-3.0361508 -0.31814869 0 -3.1536617e-06 0 0)
(-3.0343035 -0.3180114 0 3.1298181e-06 0 0)
(-3.0358509 -0.31812886 0 -3.128124e-06 0 0)
(-3.0346114 -0.31803324 0 2.7906189e-06 0 0)
(-3.0355271 -0.31811286 0 -4.2003979e-06 0 0)
(-3.0347726 -0.31803903 0 3.801885e-06 0 0)
(-2.7590684 -1.2613888 0 -0.48649666 0 0)
(-4.9022735 -0.50522162 0 -0.040024371 0 0)
(-4.1602835 -0.4520349 0 -0.021346768 0 0)
(-3.5761674 -0.34664457 0 -0.0018770369 0 0)
(-3.1113661 -0.32880778 0 -0.0024108976 0 0)
(-2.9065301 -0.31072975 0 -0.0001459161 0 0)
(-2.9120384 -0.31273286 0 -0.00028280988 0 0)
(-2.8532812 -0.3085733 0 -0.00015092272 0 0)
(-2.886796 -0.31062412 0 -5.9725505e-05 0 0)
(-2.8495631 -0.3080552 0 -2.812899e-05 0 0)
(-2.8770372 -0.30991007 0 -1.7902897e-05 0 0)
(-2.8500129 -0.30801492 0 5.7053655e-06 0 0)
(-2.8735072 -0.30968381 0 -1.1791156e-05 0 0)
(-2.8513152 -0.30810089 0 1.0629992e-05 0 0)
(-2.8717837 -0.30957345 0 -1.1022336e-05 0 0)
(-2.8525345 -0.30818925 0 1.0166884e-05 0 0)
(-2.8705253 -0.30948621 0 -9.9818149e-06 0 0)
(-2.8536102 -0.30826726 0 9.1692573e-06 0 0)
(-2.8694578 -0.30941002 0 -8.836672e-06 0 0)
(-2.8545685 -0.30833656 0 8.2192806e-06 0 0)
(-2.8685264 -0.30934329 0 -7.8359467e-06 0 0)
(-2.8554227 -0.30839824 0 7.3542581e-06 0 0)
(-2.8677063 -0.30928453 0 -6.979927e-06 0 0)
(-2.8561841 -0.30845315 0 6.5827977e-06 0 0)
(-2.8669794 -0.30923247 0 -6.2404385e-06 0 0)
(-2.8568638 -0.30850211 0 5.9022285e-06 0 0)
(-2.866332 -0.3091861 0 -5.5975464e-06 0 0)
(-2.857472 -0.30854587 0 5.3055262e-06 0 0)
(-2.8657527 -0.30914464 0 -5.0378804e-06 0 0)
(-2.8580181 -0.30858512 0 4.7848646e-06 0 0)
(-2.8652322 -0.3091074 0 -4.5517014e-06 0 0)
(-2.8585101 -0.30862044 0 4.3329584e-06 0 0)
(-2.8647626 -0.30907383 0 -4.1314087e-06 0 0)
(-2.8589555 -0.30865236 0 3.9434359e-06 0 0)
(-2.8643368 -0.30904343 0 -3.7708351e-06 0 0)
(-2.8593605 -0.30868134 0 3.6108807e-06 0 0)
(-2.8639485 -0.30901575 0 -3.4649298e-06 0 0)
(-2.8597312 -0.30870781 0 3.3308008e-06 0 0)
(-2.8635922 -0.30899039 0 -3.2096474e-06 0 0)
(-2.8600727 -0.30873214 0 3.0995893e-06 0 0)
(-2.8632627 -0.30896699 0 -3.0020541e-06 0 0)
(-2.8603901 -0.30875468 0 2.9148104e-06 0 0)
(-2.8629552 -0.30894521 0 -2.8392942e-06 0 0)
(-2.8606877 -0.30877573 0 2.7797858e-06 0 0)
(-2.8626655 -0.30892471 0 -2.7126524e-06 0 0)
(-2.8609721 -0.3087957 0 2.6987372e-06 0 0)
(-2.8623945 -0.30890584 0 -2.695228e-06 0 0)
(-2.8612529 -0.30881679 0 2.3395898e-06 0 0)
(-2.862112 -0.3088915 0 -3.8280642e-06 0 0)
(-2.8614304 -0.3088238 0 3.4393497e-06 0 0)
(-2.848429 -1.1742572 0 -0.41143825 0 0)
(-4.0008366 -0.48522043 0 -0.044549553 0 0)
(-3.8391095 -0.44228121 0 -0.021662738 0 0)
(-3.3478084 -0.34701416 0 -0.0047369845 0 0)
(-2.9533412 -0.32302537 0 -0.0031105118 0 0)
(-2.7455129 -0.30201806 0 -0.0002364145 0 0)
(-2.740696 -0.30341685 0 -0.00032427754 0 0)
(-2.6843264 -0.29930423 0 -0.00016596536 0 0)
(-2.7155827 -0.3012753 0 -5.9487914e-05 0 0)
(-2.6822551 -0.29888551 0 -3.3711947e-05 0 0)
(-2.7072307 -0.30062793 0 -1.6132621e-05 0 0)
(-2.6828379 -0.2988448 0 3.2526192e-06 0 0)
(-2.7041025 -0.30041697 0 -9.8883225e-06 0 0)
(-2.6840046 -0.29892309 0 8.9319293e-06 0 0)
(-2.7025473 -0.30031412 0 -9.4093253e-06 0 0)
(-2.6850951 -0.29900592 0 8.6784153e-06 0 0)
(-2.7014109 -0.30023238 0 -8.5879622e-06 0 0)
(-2.6860651 -0.29907945 0 7.8450535e-06 0 0)
(-2.700446 -0.30016065 0 -7.6030978e-06 0 0)
(-2.6869315 -0.29914482 0 7.0473693e-06 0 0)
(-2.6996031 -0.30009768 0 -6.7378589e-06 0 0)
(-2.6877046 -0.29920307 0 6.3140907e-06 0 0)
(-2.6988599 -0.30004214 0 -6.0002229e-06 0 0)
(-2.6883944 -0.29925498 0 5.6556194e-06 0 0)
(-2.6982007 -0.29999288 0 -5.3641717e-06 0 0)
(-2.6890105 -0.29930132 0 5.0724632e-06 0 0)
(-2.6976131 -0.29994897 0 -4.8114088e-06 0 0)
(-2.6895622 -0.29934277 0 4.5600776e-06 0 0)
(-2.6970873 -0.29990968 0 -4.3300911e-06 0 0)
(-2.6900577 -0.29937997 0 4.1124458e-06 0 0)
(-2.6966148 -0.29987438 0 -3.9118129e-06 0 0)
(-2.6905042 -0.29941345 0 3.7236403e-06 0 0)
(-2.6961885 -0.29984254 0 -3.5500843e-06 0 0)
(-2.6909082 -0.29944373 0 3.3883421e-06 0 0)
(-2.695802 -0.2998137 0 -3.2396453e-06 0 0)
(-2.6912757 -0.29947122 0 3.1019679e-06 0 0)
(-2.6954498 -0.29978743 0 -2.976179e-06 0 0)
(-2.6916119 -0.29949634 0 2.8606861e-06 0 0)
(-2.6951266 -0.29976336 0 -2.7562211e-06 0 0)
(-2.6919216 -0.29951944 0 2.6613938e-06 0 0)
(-2.6948278 -0.29974114 0 -2.5772798e-06 0 0)
(-2.6922092 -0.29954085 0 2.5019681e-06 0 0)
(-2.6945491 -0.29972045 0 -2.4367432e-06 0 0)
(-2.6924788 -0.29956085 0 2.3860435e-06 0 0)
(-2.6942866 -0.29970096 0 -2.3248661e-06 0 0)
(-2.6927361 -0.29957981 0 2.3194623e-06 0 0)
(-2.6940414 -0.29968301 0 -2.3133111e-06 0 0)
(-2.692992 -0.29960009 0 1.9463504e-06 0 0)
(-2.6937946 -0.29967006 0 -3.4765377e-06 0 0)
(-2.6931792 -0.29960815 0 3.0998757e-06 0 0)
(-2.8723827 -1.135661 0 -0.3833279 0 0)
(-3.2957794 -0.45621775 0 -0.046662138 0 0)
(-3.4741617 -0.41700769 0 -0.019928054 0 0)
(-3.0396278 -0.33697376 0 -0.0064578173 0 0)
(-2.7659826 -0.31388892 0 -0.0033593589 0 0)
(-2.5763573 -0.29259251 0 -0.0002985436 0 0)
(-2.5695185 -0.29382574 0 -0.00035252735 0 0)
(-2.5201609 -0.29001808 0 -0.00017392832 0 0)
(-2.5491593 -0.2919014 0 -5.8384069e-05 0 0)
(-2.5197079 -0.28970066 0 -3.8001468e-05 0 0)
(-2.5425389 -0.29134341 0 -1.442013e-05 0 0)
(-2.5205902 -0.28966992 0 1.143029e-06 0 0)
(-2.5398765 -0.29115153 0 -8.1749898e-06 0 0)
(-2.5216857 -0.28974297 0 7.44408e-06 0 0)
(-2.5384957 -0.29105649 0 -7.9666811e-06 0 0)
(-2.5226709 -0.28982086 0 7.3611779e-06 0 0)
(-2.5374729 -0.29098007 0 -7.3441068e-06 0 0)
(-2.5235475 -0.2898902 0 6.6673755e-06 0 0)
(-2.5366012 -0.29091258 0 -6.503287e-06 0 0)
(-2.5243316 -0.28995186 0 6.0031389e-06 0 0)
(-2.535838 -0.29085318 0 -5.7586931e-06 0 0)
(-2.5250319 -0.29000685 0 5.3863981e-06 0 0)
(-2.5351642 -0.29080071 0 -5.1261906e-06 0 0)
(-2.5256571 -0.29005592 0 4.8282196e-06 0 0)
(-2.534566 -0.29075412 0 -4.5820656e-06 0 0)
(-2.526216 -0.29009976 0 4.3317015e-06 0 0)
(-2.5340327 -0.29071256 0 -4.1095213e-06 0 0)
(-2.5267166 -0.290139 0 3.8944216e-06 0 0)
(-2.5335552 -0.29067535 0 -3.6980326e-06 0 0)
(-2.5271662 -0.29017423 0 3.5119202e-06 0 0)
(-2.5331262 -0.29064191 0 -3.3403351e-06 0 0)
(-2.5275715 -0.29020595 0 3.1794389e-06 0 0)
(-2.5327391 -0.29061174 0 -3.030894e-06 0 0)
(-2.5279382 -0.29023465 0 2.892568e-06 0 0)
(-2.5323883 -0.2905844 0 -2.7652345e-06 0 0)
(-2.5282717 -0.29026071 0 2.6474481e-06 0 0)
(-2.5320686 -0.29055949 0 -2.5396789e-06 0 0)
(-2.5285767 -0.29028453 0 2.4408247e-06 0 0)
(-2.5317754 -0.29053666 0 -2.3512702e-06 0 0)
(-2.5288575 -0.29030644 0 2.2700359e-06 0 0)
(-2.5315044 -0.29051558 0 -2.1979002e-06 0 0)
(-2.5291183 -0.29032675 0 2.133225e-06 0 0)
(-2.5312517 -0.29049595 0 -2.0771897e-06 0 0)
(-2.5293626 -0.29034573 0 2.0342154e-06 0 0)
(-2.5310137 -0.29047743 0 -1.978582e-06 0 0)
(-2.5295953 -0.29036372 0 1.9804195e-06 0 0)
(-2.5307917 -0.29046035 0 -1.9713387e-06 0 0)
(-2.5298284 -0.29038316 0 1.5989692e-06 0 0)
(-2.5305761 -0.29044858 0 -3.13958e-06 0 0)
(-2.5300204 -0.29039212 0 2.7814222e-06 0 0)
(-2.9142144 -1.103299 0 -0.35658197 0 0)
(-2.8700897 -0.4311527 0 -0.046642816 0 0)
(-3.188103 -0.4132864 0 -0.023638643 0 0)
(-2.7661643 -0.3309969 0 -0.0088995749 0 0)
(-2.5991087 -0.30554934 0 -0.0035188797 0 0)
(-2.4218827 -0.28387827 0 -0.00045107118 0 0)
(-2.4093924 -0.28450138 0 -0.00039206874 0 0)
(-2.3619178 -0.28073114 0 -0.00017894576 0 0)
(-2.3885702 -0.28253861 0 -5.5277719e-05 0 0)
(-2.3623091 -0.28051012 0 -4.062045e-05 0 0)
(-2.3831185 -0.28206128 0 -1.2462068e-05 0 0)
(-2.3633492 -0.280492 0 -5.7048682e-07 0 0)
(-2.3808411 -0.28188816 0 -6.5933357e-06 0 0)
(-2.3643786 -0.28056077 0 6.146376e-06 0 0)
(-2.3796201 -0.28180062 0 -6.6693069e-06 0 0)
(-2.3652726 -0.28063412 0 6.191936e-06 0 0)
(-2.3787018 -0.28172925 0 -6.2294381e-06 0 0)
(-2.3660664 -0.28069953 0 5.6161172e-06 0 0)
(-2.3779147 -0.28166579 0 -5.5185812e-06 0 0)
(-2.3667768 -0.28075771 0 5.0689959e-06 0 0)
(-2.3772237 -0.28160977 0 -4.881893e-06 0 0)
(-2.3674114 -0.28080963 0 4.5556368e-06 0 0)
(-2.3766128 -0.28156021 0 -4.3431763e-06 0 0)
(-2.3679783 -0.28085599 0 4.0868193e-06 0 0)
(-2.3760701 -0.28151616 0 -3.8811135e-06 0 0)
(-2.3684852 -0.28089744 0 3.667683e-06 0 0)
(-2.3755859 -0.28147685 0 -3.4802863e-06 0 0)
(-2.3689395 -0.28093457 0 3.2975961e-06 0 0)
(-2.3751524 -0.28144163 0 -3.1313086e-06 0 0)
(-2.3693475 -0.28096791 0 2.9734324e-06 0 0)
(-2.3747629 -0.28140997 0 -2.827895e-06 0 0)
(-2.3697153 -0.28099795 0 2.6914409e-06 0 0)
(-2.3744115 -0.2813814 0 -2.5653352e-06 0 0)
(-2.3700481 -0.28102512 0 2.4480009e-06 0 0)
(-2.3740931 -0.28135551 0 -2.3398382e-06 0 0)
(-2.3703506 -0.28104981 0 2.239886e-06 0 0)
(-2.373803 -0.28133192 0 -2.148287e-06 0 0)
(-2.3706272 -0.28107237 0 2.0643493e-06 0 0)
(-2.373537 -0.28131028 0 -1.9881711e-06 0 0)
(-2.3708819 -0.28109313 0 1.9191189e-06 0 0)
(-2.3732913 -0.28129031 0 -1.8577179e-06 0 0)
(-2.3711183 -0.28111239 0 1.8025684e-06 0 0)
(-2.3730622 -0.28127168 0 -1.7547724e-06 0 0)
(-2.3713396 -0.28113039 0 1.7186031e-06 0 0)
(-2.3728465 -0.28125411 0 -1.6681903e-06 0 0)
(-2.3715502 -0.28114743 0 1.6760693e-06 0 0)
(-2.3726453 -0.28123787 0 -1.6641321e-06 0 0)
(-2.3717623 -0.28116601 0 1.291459e-06 0 0)
(-2.372457 -0.2812271 0 -2.815815e-06 0 0)
(-2.3719553 -0.28117573 0 2.4844929e-06 0 0)
(-2.9178591 -1.0300916 0 -0.31122504 0 0)
(-2.5215162 -0.40936612 0 -0.046644256 0 0)
(-2.8961062 -0.3912019 0 -0.022315295 0 0)
(-2.5157057 -0.31614373 0 -0.0088376358 0 0)
(-2.428335 -0.29441766 0 -0.0031396601 0 0)
(-2.2701054 -0.27486107 0 -0.00056988644 0 0)
(-2.2535921 -0.27504709 0 -0.00040867961 0 0)
(-2.2088263 -0.27141159 0 -0.00017206739 0 0)
(-2.2331262 -0.27315626 0 -4.8936477e-05 0 0)
(-2.2098519 -0.27130372 0 -4.1077487e-05 0 0)
(-2.2288635 -0.27277639 0 -1.0060153e-05 0 0)
(-2.2110947 -0.27130895 0 -1.8440351e-06 0 0)
(-2.2269737 -0.27262577 0 -5.0850771e-06 0 0)
(-2.2120897 -0.27137616 0 5.0305253e-06 0 0)
(-2.22591 -0.27254625 0 -5.4906804e-06 0 0)
(-2.2129088 -0.27144572 0 5.1534526e-06 0 0)
(-2.2250893 -0.27247981 0 -5.2254762e-06 0 0)
(-2.2136297 -0.27150752 0 4.6746532e-06 0 0)
(-2.2243795 -0.27242019 0 -4.6332753e-06 0 0)
(-2.2142737 -0.27156242 0 4.2301914e-06 0 0)
(-2.2237543 -0.27236739 0 -4.0936484e-06 0 0)
(-2.2148489 -0.27161143 0 3.8088101e-06 0 0)
(-2.2232006 -0.2723206 0 -3.6389821e-06 0 0)
(-2.2153628 -0.27165523 0 3.4199295e-06 0 0)
(-2.2227083 -0.27227898 0 -3.2504998e-06 0 0)
(-2.2158226 -0.27169441 0 3.0702016e-06 0 0)
(-2.2222689 -0.27224181 0 -2.9140656e-06 0 0)
(-2.2162345 -0.27172951 0 2.7604841e-06 0 0)
(-2.2218756 -0.2722085 0 -2.6212823e-06 0 0)
(-2.2166047 -0.27176104 0 2.4887899e-06 0 0)
(-2.2215221 -0.27217856 0 -2.3667077e-06 0 0)
(-2.2169382 -0.27178946 0 2.2522396e-06 0 0)
(-2.2212033 -0.27215153 0 -2.1463473e-06 0 0)
(-2.21724 -0.27181516 0 2.0479016e-06 0 0)
(-2.2209144 -0.27212702 0 -1.9570105e-06 0 0)
(-2.2175144 -0.27183853 0 1.8731079e-06 0 0)
(-2.2206513 -0.27210469 0 -1.7960766e-06 0 0)
(-2.2177652 -0.27185989 0 1.7255618e-06 0 0)
(-2.2204101 -0.27208421 0 -1.6614318e-06 0 0)
(-2.217996 -0.27187954 0 1.6033401e-06 0 0)
(-2.2201874 -0.2720653 0 -1.5515997e-06 0 0)
(-2.2182102 -0.27189778 0 1.5050202e-06 0 0)
(-2.2199798 -0.27204766 0 -1.4646437e-06 0 0)
(-2.2184106 -0.27191484 0 1.4344991e-06 0 0)
(-2.2197844 -0.27203099 0 -1.3890567e-06 0 0)
(-2.218601 -0.27193097 0 1.4018609e-06 0 0)
(-2.2196021 -0.27201557 0 -1.3874194e-06 0 0)
(-2.2187939 -0.27194867 0 1.018893e-06 0 0)
(-2.2194377 -0.27200565 0 -2.5042694e-06 0 0)
(-2.218985 -0.27195901 0 2.209063e-06 0 0)
(-3.0066918 -1.0174002 0 -0.29388965 0 0)
(-2.2935186 -0.39124155 0 -0.044798499 0 0)
(-2.6843088 -0.37783409 0 -0.022136399 0 0)
(-2.3443403 -0.30737028 0 -0.0092450343 0 0)
(-2.2803288 -0.28468079 0 -0.0028984991 0 0)
(-2.1266024 -0.26582054 0 -0.00063432232 0 0)
(-2.1066258 -0.26566701 0 -0.00039982774 0 0)
(-2.0625958 -0.26212927 0 -0.00015640674 0 0)
(-2.0837642 -0.26379088 0 -3.8677985e-05 0 0)
(-2.062815 -0.26209787 0 -3.9023976e-05 0 0)
(-2.079989 -0.26349595 0 -6.7871715e-06 0 0)
(-2.0639405 -0.26212421 0 -2.5430176e-06 0 0)
(-2.0783107 -0.26336573 0 -3.5543634e-06 0 0)
(-2.0648463 -0.26218982 0 4.1045967e-06 0 0)
(-2.0773648 -0.26329353 0 -4.4011516e-06 0 0)
(-2.0655894 -0.26225581 0 4.2326834e-06 0 0)
(-2.0766293 -0.26323171 0 -4.3146104e-06 0 0)
(-2.0662436 -0.26231423 0 3.8287358e-06 0 0)
(-2.0759897 -0.26317573 0 -3.8331168e-06 0 0)
(-2.0668277 -0.26236606 0 3.473799e-06 0 0)
(-2.0754245 -0.26312599 0 -3.3816344e-06 0 0)
(-2.067349 -0.26241232 0 3.1344553e-06 0 0)
(-2.074923 -0.26308184 0 -3.0027843e-06 0 0)
(-2.0678148 -0.26245368 0 2.817394e-06 0 0)
(-2.0744768 -0.26304253 0 -2.6806423e-06 0 0)
(-2.0682314 -0.26249068 0 2.5302234e-06 0 0)
(-2.0740785 -0.26300742 0 -2.4023197e-06 0 0)
(-2.0686048 -0.26252384 0 2.2750066e-06 0 0)
(-2.0737218 -0.26297594 0 -2.1602964e-06 0 0)
(-2.0689403 -0.26255364 0 2.0507261e-06 0 0)
(-2.0734013 -0.26294764 0 -1.9498656e-06 0 0)
(-2.0692426 -0.2625805 0 1.8552598e-06 0 0)
(-2.0731122 -0.26292209 0 -1.7676614e-06 0 0)
(-2.069516 -0.2626048 0 1.6862838e-06 0 0)
(-2.0728504 -0.26289892 0 -1.6110253e-06 0 0)
(-2.0697646 -0.26262689 0 1.5416266e-06 0 0)
(-2.072612 -0.26287781 0 -1.4777801e-06 0 0)
(-2.0699918 -0.26264708 0 1.4193951e-06 0 0)
(-2.0723935 -0.26285844 0 -1.3661681e-06 0 0)
(-2.0702008 -0.26266568 0 1.3179807e-06 0 0)
(-2.0721918 -0.26284054 0 -1.2749769e-06 0 0)
(-2.0703947 -0.26268293 0 1.2361452e-06 0 0)
(-2.0720039 -0.26282385 0 -1.2024835e-06 0 0)
(-2.0705761 -0.26269908 0 1.1777039e-06 0 0)
(-2.0718269 -0.26280806 0 -1.1370373e-06 0 0)
(-2.0707481 -0.26271433 0 1.1537352e-06 0 0)
(-2.0716619 -0.26279342 0 -1.1373377e-06 0 0)
(-2.0709232 -0.26273116 0 7.7683657e-07 0 0)
(-2.0715186 -0.26278423 0 -2.203974e-06 0 0)
(-2.0711104 -0.262742 0 1.9545731e-06 0 0)
(-3.0435943 -0.92811971 0 -0.24069125 0 0)
(-2.1446219 -0.36893813 0 -0.041132806 0 0)
(-2.500053 -0.35746767 0 -0.019838437 0 0)
(-2.1887505 -0.29454639 0 -0.0085716132 0 0)
(-2.1362445 -0.27401975 0 -0.0025187962 0 0)
(-1.9885638 -0.25652468 0 -0.00060074388 0 0)
(-1.9652708 -0.25622791 0 -0.00035468713 0 0)
(-1.9217327 -0.2528296 0 -0.00012705954 0 0)
(-1.9397108 -0.25441925 0 -2.4522253e-05 0 0)
(-1.920849 -0.25288052 0 -3.4317497e-05 0 0)
(-1.9363325 -0.25421421 0 -2.5919618e-06 0 0)
(-1.921835 -0.25293526 0 -2.6541355e-06 0 0)
(-1.9348238 -0.25410671 0 -1.954341e-06 0 0)
(-1.9226505 -0.25300135 0 3.3708286e-06 0 0)
(-1.9339778 -0.25404215 0 -3.3737827e-06 0 0)
(-1.9233217 -0.25306441 0 3.4213061e-06 0 0)
(-1.9333175 -0.25398484 0 -3.4807573e-06 0 0)
(-1.9239144 -0.25311975 0 3.067372e-06 0 0)
(-1.9327411 -0.25393235 0 -3.1060481e-06 0 0)
(-1.9244437 -0.25316869 0 2.7893055e-06 0 0)
(-1.9322304 -0.25388552 0 -2.7356915e-06 0 0)
(-1.9249158 -0.25321234 0 2.5231567e-06 0 0)
(-1.9317766 -0.25384389 0 -2.4257023e-06 0 0)
(-1.9253375 -0.25325136 0 2.2708625e-06 0 0)
(-1.9313726 -0.2538068 0 -2.1636773e-06 0 0)
(-1.9257147 -0.25328629 0 2.0403208e-06 0 0)
(-1.9310118 -0.25377365 0 -1.938033e-06 0 0)
(-1.9260528 -0.2533176 0 1.8345192e-06 0 0)
(-1.9306887 -0.25374393 0 -1.742054e-06 0 0)
(-1.9263565 -0.25334573 0 1.6532615e-06 0 0)
(-1.9303985 -0.2537172 0 -1.5716838e-06 0 0)
(-1.9266301 -0.25337109 0 1.4950885e-06 0 0)
(-1.9301368 -0.25369307 0 -1.4241145e-06 0 0)
(-1.9268776 -0.25339404 0 1.3582164e-06 0 0)
(-1.9298997 -0.25367119 0 -1.2971638e-06 0 0)
(-1.9271026 -0.2534149 0 1.2409199e-06 0 0)
(-1.9296839 -0.25365125 0 -1.1890544e-06 0 0)
(-1.9273081 -0.25343398 0 1.1416707e-06 0 0)
(-1.9294862 -0.25363295 0 -1.0983505e-06 0 0)
(-1.9274973 -0.25345155 0 1.0591463e-06 0 0)
(-1.9293037 -0.25361603 0 -1.0240765e-06 0 0)
(-1.9276726 -0.25346786 0 9.9227941e-07 0 0)
(-1.9291338 -0.25360025 0 -9.6471875e-07 0 0)
(-1.9278366 -0.25348312 0 9.4474168e-07 0 0)
(-1.9289738 -0.25358531 0 -9.0869095e-07 0 0)