/*--------------------------------*- C++ -*----------------------------------*\
| =========                 |                                                 |
| \\      /  F ield         | OpenFOAM: The Open Source CFD Toolbox           |
|  \\    /   O peration     | Version:  2312                                  |
|   \\  /    A nd           | Website:  www.openfoam.com                      |
|    \\/     M anipulation  |                                                 |
\*---------------------------------------------------------------------------*/
FoamFile
{
    version     2.0;
    format      ascii;
    arch        "LSB;label=32;scalar=64";
    class       volScalarField;
    location    "6";
    object      T;
}
// * * * * * * * * * * * * * * * * * * * * * * * * * * * * * * * * * * * * * //

dimensions      [0 0 0 1 0 0 0];

internalField   nonuniform List<scalar> 
4000
(
325.20533
324.06252
323.83328
323.76613
323.68902
323.63546
323.58361
323.53742
323.49257
323.45088
323.40915
323.36975
323.32995
323.29187
323.25342
323.2162
323.17875
323.1421
323.10543
323.0692
323.03313
322.9972
322.96163
322.92593
322.89077
322.85524
322.82043
322.78502
322.75052
322.7152
322.68097
322.64571
322.61172
322.5765
322.54274
322.50753
322.47399
322.43877
322.40544
322.37019
322.33708
322.30176
322.26887
322.23346
322.20083
322.16525
322.13296
322.09707
322.06539
322.02827
327.1384
325.29899
324.6876
324.55235
324.38849
324.29472
324.2062
324.13456
324.06697
324.00883
323.95061
323.89933
323.8469
323.79958
323.7512
323.70644
323.66106
323.61804
323.57497
323.5332
323.49195
323.45109
323.41133
323.37114
323.33262
323.29293
323.25547
323.21616
323.1796
323.14056
323.10482
323.06597
323.03096
322.99222
322.95789
322.91919
322.88551
322.84678
322.81373
322.77491
322.7425
322.7035
322.67176
322.63246
322.6015
322.5617
322.53177
322.49101
322.46291
322.41864
328.33197
326.48839
325.53467
325.33297
325.08466
324.95116
324.82652
324.72957
324.63955
324.56499
324.49046
324.42731
324.36238
324.30582
324.24762
324.19529
324.14207
324.09265
324.04327
323.99592
323.94956
323.90374
323.85984
323.81515
323.77331
323.72946
323.68936
323.64614
323.60757
323.56479
323.52757
323.4851
323.4491
323.40682
323.37195
323.32975
323.29594
323.2537
323.22094
323.17855
323.14685
323.10415
323.07359
323.03038
323.00112
322.95708
322.92951
322.88391
322.85935
322.80834
329.12151
327.58879
326.36211
326.10038
325.77275
325.60111
325.44172
325.31996
325.20818
325.11739
325.027
324.95205
324.87494
324.80915
324.74136
324.68147
324.62061
324.56477
324.50922
324.45629
324.40494
324.35414
324.30621
324.25699
324.21192
324.16387
324.12123
324.07407
324.03354
323.98702
323.94837
323.90228
323.86532
323.8195
323.78412
323.73841
323.70452
323.65875
323.62632
323.58034
323.54939
323.50299
323.47361
323.42651
323.39894
323.35069
323.32547
323.27506
323.25395
323.19675
329.66867
328.56542
327.15386
326.84443
326.44622
326.23963
326.04789
325.90246
325.7701
325.66354
325.55803
325.4715
325.38273
325.30783
325.23085
325.16346
325.09524
325.03303
324.97154
324.91304
324.8569
324.80111
324.74932
324.69556
324.6474
324.59516
324.55009
324.49898
324.4566
324.40631
324.36632
324.31659
324.27876
324.22939
324.19356
324.14433
324.1104
324.06112
324.02905
323.97949
323.94931
323.89921
323.87105
323.82007
323.7942
323.74177
323.71888
323.66376
323.6459
323.5832
330.05932
329.39498
327.89332
327.55331
327.09727
326.86075
326.64032
326.4731
326.32195
326.20044
326.08091
325.98324
325.88358
325.79983
325.71422
325.63948
325.56435
325.49584
325.42878
325.36476
325.3041
325.24337
325.18794
325.12968
325.07861
325.02219
324.97484
324.9198
324.8757
324.82166
324.78043
324.72709
324.68848
324.63556
324.59936
324.54663
324.51273
324.45993
324.42829
324.37516
324.3458
324.29204
324.2651
324.21028
324.18611
324.12957
324.10894
324.04927
324.0344
323.9669
330.34481
330.06798
328.56551
328.21476
327.71749
327.45782
327.21368
327.02743
326.85989
326.72472
326.59265
326.48457
326.37504
326.28287
326.18938
326.10758
326.0261
325.9515
325.87929
325.80989
325.74507
325.67951
325.62073
325.55803
325.5043
325.44375
325.39434
325.3354
325.28975
325.23199
325.18968
325.13275
325.09347
325.03705
325.00058
324.94438
324.91059
324.85432
324.82315
324.76651
324.73799
324.68063
324.65493
324.59635
324.57385
324.51332
324.49486
324.43088
324.41866
324.34706
330.55717
330.58673
329.15951
328.81753
328.29858
328.02401
327.76231
327.56065
327.37979
327.23273
327.09001
326.97254
326.85442
326.75448
326.65406
326.56562
326.47851
326.39812
326.32134
326.24677
326.17825
326.108
326.04624
325.97923
325.92313
325.85857
325.80733
325.7446
325.69759
325.63621
325.59297
325.53252
325.49272
325.43285
325.39623
325.33662
325.30303
325.24336
325.21273
325.15265
325.12502
325.06414
325.03969
324.97747
324.9566
324.89225
324.87581
324.80783
324.79788
324.72284
330.71819
330.96446
329.66931
329.35294
328.83325
328.55276
328.28062
328.06797
327.87742
327.72071
327.56961
327.44407
327.31894
327.21209
327.10587
327.01139
326.91952
326.83375
326.75307
326.67366
326.60196
326.52728
326.46296
326.39185
326.33374
326.26532
326.21254
326.14615
326.09803
326.03313
325.98917
325.92532
325.88515
325.82195
325.78529
325.72239
325.68908
325.62612
325.59609
325.5327
325.50599
325.44172
325.4185
325.35281
325.3335
325.26555
325.25099
325.17936
325.17129
325.0934
330.84326
331.22173
330.09427
329.81593
329.31573
329.03835
328.76346
328.54477
328.34864
328.18494
328.02806
327.89609
327.76576
327.65308
327.54238
327.44262
327.34698
327.2564
327.1726
327.08877
327.01451
326.93573
326.86935
326.7944
326.73468
326.66264
326.60865
326.53879
326.48984
326.42159
326.37713
326.31003
326.26967
326.20328
326.16674
326.10068
326.06777
326.00166
325.97231
325.90575
325.87998
325.81251
325.79051
325.72155
325.70372
325.63246
325.61956
325.5447
325.53812
325.45791
330.94286
331.38264
330.43837
330.20558
329.74223
329.47631
329.20645
328.98701
328.78965
328.62197
328.46216
328.32564
328.19211
328.0749
327.96119
327.85708
327.75878
327.66409
327.57803
327.49031
327.41418
327.33173
327.26386
327.18541
327.12454
327.04915
326.99433
326.92126
326.87177
326.8004
326.75569
326.68554
326.64519
326.57581
326.53953
326.47051
326.43811
326.36904
326.34043
326.2709
326.24611
326.17565
326.15485
326.08288
326.06642
325.99216
325.98073
325.90308
325.89763
325.81556
331.02493
331.47255
330.70952
330.52471
330.11115
329.86386
329.60635
329.39138
329.19721
329.02874
328.86901
328.73003
328.59545
328.47514
328.36003
328.25261
328.1529
328.05487
327.96752
327.87654
327.79931
327.71368
327.64493
327.56341
327.50189
327.42351
327.36827
327.29229
327.2426
327.16839
327.1237
327.05076
327.01063
326.93849
326.90264
326.83088
326.79911
326.72732
326.69952
326.62727
326.60348
326.53029
326.51064
326.43596
326.42078
326.34388
326.3337
326.25372
326.24911
326.16557
331.09434
331.51419
330.91794
330.77917
330.42321
330.20005
329.96127
329.75562
329.56888
329.40282
329.24619
329.10692
328.9735
328.85166
328.73682
328.62727
328.52742
328.42698
328.33935
328.24582
328.16831
328.08009
328.01112
327.92701
327.86537
327.78443
327.7292
327.65068
327.60114
327.52443
327.48003
327.4046
327.36493
327.29032
327.25507
327.18085
327.14983
327.07559
327.04868
326.97399
326.95121
326.87561
326.85707
326.78002
326.76599
326.68686
326.67772
326.59586
326.59184
326.50718
331.15496
331.52712
331.07486
330.97687
330.68133
330.48583
330.27076
330.07861
329.90308
329.74249
329.59184
329.45448
329.32441
329.20267
329.08978
328.97934
328.88068
328.77881
328.69194
328.59666
328.5197
328.42956
328.36105
328.2749
328.21371
328.13068
328.07592
327.99528
327.94627
327.86742
327.82363
327.74606
327.70708
327.63033
327.59586
327.5195
327.48935
327.41298
327.38703
327.31023
327.28848
327.21079
327.19333
327.11427
327.10128
327.02033
327.01205
326.92876
326.92515
326.83968
331.20882
331.5256
331.19129
331.1269
330.89024
330.72391
330.53585
330.36042
330.19928
330.04688
329.90484
329.77145
329.64681
329.52678
329.41749
329.30744
329.21127
329.10899
329.02395
328.92776
328.85221
328.76084
328.69349
328.60591
328.54574
328.46114
328.40732
328.32503
328.27693
328.19637
328.1535
328.07418
328.03613
327.95761
327.9241
327.84597
327.81681
327.73866
327.71375
327.63519
327.61449
327.53509
327.51866
327.438
327.42594
327.3436
327.33602
327.25172
327.24838
327.16241
331.25761
331.51971
331.27726
331.23857
331.05594
330.91839
330.75889
330.60231
330.45794
330.31598
330.18477
330.05723
329.9399
329.82311
329.71895
329.61054
329.51812
329.41646
329.33427
329.23804
329.16475
329.07289
329.00739
328.91903
328.86044
328.77484
328.72244
328.639
328.59219
328.51039
328.46873
328.38809
328.35122
328.27133
328.23898
328.15945
328.13142
328.05188
328.02807
327.94813
327.9285
327.8478
327.83235
327.75051
327.73929
327.65598
327.64898
327.56407
327.56093
327.47473
331.30211
331.51502
331.34126
331.32069
331.1851
331.07435
330.94332
330.8066
330.6805
330.55063
330.43199
330.31188
330.20345
330.09127
329.99362
329.88803
329.80052
329.70049
329.62211
329.52671
329.45647
329.36487
329.3019
329.21341
329.15697
329.07096
329.02042
328.93637
328.89124
328.80867
328.76854
328.68704
328.65158
328.57076
328.53974
328.45923
328.43246
328.35193
328.3293
328.24841
328.22985
328.14826
328.13376
328.05117
328.04071
327.95687
327.95034
327.86522
327.86222
327.77608
331.34302
331.51435
331.39004
331.38102
331.28445
331.19741
331.09336
330.97642
330.8692
330.75244
330.64755
330.53608
330.43781
330.33142
330.24143
330.13972
330.05814
329.96068
329.88699
329.79325
329.72681
329.63622
329.57641
329.48844
329.43467
329.34884
329.30063
329.2165
329.17341
329.09059
329.05228
328.97038
328.93658
328.85527
328.82575
328.74471
328.71931
328.63823
328.61684
328.53542
328.51796
328.43591
328.42234
328.33942
328.32965
328.2457
328.23958
328.15461
328.15174
328.06595
331.38065
331.51823
331.42869
331.42596
331.36036
331.29329
331.2137
331.11553
331.02698
330.92368
330.83316
330.73113
330.64389
330.54421
330.46279
330.36587
330.29105
330.19702
330.12878
330.03746
329.97549
329.88661
329.83052
329.74372
329.69311
329.60806
329.56257
329.47892
329.43821
329.35563
329.31942
329.23762
329.20568
329.12436
329.0965
329.01538
328.99146
328.91027
328.89018
328.80867
328.79233
328.71026
328.69759
328.61477
328.60566
328.52199
328.51624
328.43178
328.42902
328.34388
331.41535
331.52619
331.46078
331.46049
331.41846
331.3674
331.30913
331.22799
331.15718
331.06712
330.99102
330.89883
330.8231
330.73078
330.65854
330.56714
330.49972
330.40983
330.34765
330.25946
330.20251
330.11599
330.06411
329.9791
329.93208
329.84837
329.80596
329.72332
329.68529
329.60348
329.56962
329.4884
329.45852
329.37765
329.3516
329.27085
329.24851
329.16765
329.14893
329.06776
329.05256
328.97089
328.95912
328.87681
328.86833
328.78534
328.77994
328.69632
328.69369
328.60949
331.44733
331.53713
331.48865
331.48826
331.46348
331.42465
331.38424
331.31795
331.26342
331.18586
331.12373
331.04139
330.97725
330.89263
330.82992
330.74454
330.68497
330.59981
330.54413
330.45966
330.40816
330.32459
330.27732
330.19465
330.15157
330.06975
330.03073
329.94962
329.91453
329.83397
329.80267
329.7225
329.69486
329.61489
329.59079
329.51084
329.49019
329.41009
329.3928
329.31239
329.29835
329.2175
329.20663
329.12523
329.11738
329.03542
329.03038
328.94792
328.94544
328.86246
331.47685
331.55002
331.51375
331.51176
331.49919
331.4692
331.44325
331.38939
331.34929
331.28312
331.23411
331.16127
331.10846
331.03163
330.97849
330.89945
330.84793
330.76792
330.71902
330.63876
330.59301
330.51287
330.47052
330.39069
330.35182
330.27237
330.23699
330.15788
330.12595
330.04711
330.01856
329.93988
329.91462
329.83599
329.81395
329.73524
329.71635
329.63743
329.62161
329.54237
329.52953
329.44988
329.43992
329.35981
329.35258
329.27201
329.26734
329.18635
329.18403
329.10257
331.5041
331.56393
331.53689
331.53261
331.52842
331.50445
331.48982
331.44596
331.41827
331.36211
331.32506
331.26111
331.21905
331.14985
331.10606
331.03347
330.98999
330.91539
330.8734
330.79768
330.75786
330.68156
330.6443
330.56774
330.53328
330.45662
330.42507
330.34839
330.31978
330.24307
330.2174
330.14064
330.11788
330.041
330.02111
329.94404
329.92696
329.84963
329.83531
329.75764
329.74601
329.66794
329.6589
329.58043
329.57384
329.49497
329.49068
329.41146
329.40931
329.32966
331.52931
331.57819
331.5585
331.55177
331.5532
331.53305
331.527
331.49088
331.47354
331.4259
331.39945
331.34355
331.31143
331.24948
331.21461
331.14839
331.11275
331.04368
331.00853
330.93759
330.90372
330.83156
330.79949
330.72652
330.69658
330.62308
330.59545
330.52158
330.49638
330.4222
330.3995
330.32504
330.30484
330.2301
330.21241
330.13736
330.12215
330.04675
330.03398
329.95822
329.94782
329.87168
329.86357
329.78706
329.78112
329.70426
329.70037
329.62319
329.62124
329.54365
331.55268
331.59236
331.57878
331.56976
331.57492
331.55696
331.55722
331.52685
331.5179
331.47729
331.45998
331.41118
331.38802
331.33278
331.30621
331.24611
331.21795
331.15436
331.12586
331.0598
331.0318
330.96396
330.93705
330.86794
330.84251
330.77246
330.7488
330.67804
330.65632
330.58498
330.56529
330.49346
330.47588
330.4036
330.38815
330.31545
330.30213
330.22901
330.21779
330.14427
330.13512
330.06121
330.05405
329.97978
329.97451
329.89992
329.89645
329.82156
329.81982
329.74456
331.57437
331.6062
331.59779
331.58681
331.59445
331.57756
331.58235
331.55608
331.55374
331.51874
331.50911
331.46641
331.45112
331.40195
331.38291
331.32858
331.30738
331.24913
331.22693
331.16574
331.1434
331.07998
331.0581
330.99301
330.97204
330.90566
330.88593
330.81853
330.80025
330.73203
330.71536
330.64644
330.63148
330.56196
330.54874
330.47868
330.46725
330.3967
330.38705
330.31605
330.30814
330.23674
330.23052
330.15876
330.15417
330.0821
330.07907
330.00671
330.00518
329.93246
331.59457
331.61958
331.6156
331.60301
331.61235
331.59581
331.60376
331.58029
331.58302
331.55236
331.54902
331.51142
331.50289
331.45908
331.44674
331.39771
331.38286
331.32968
331.31336
331.25692
331.23993
331.18094
331.16388
331.10288
331.08622
331.02364
331.00774
330.94388
330.92899
330.86409
330.85039
330.78462
330.77223
330.7057
330.6947
330.62754
330.61797
330.55024
330.54213
330.4739
330.46723
330.39857
330.3933
330.32427
330.32037
330.25103
330.24844
330.1788
330.1775
330.10754
331.61339
331.63244
331.63223
331.61838
331.62891
331.61231
331.62243
331.60077
331.60728
331.5799
331.58157
331.54815
331.54527
331.5061
331.49957
331.45533
331.44615
331.3977
331.38674
331.33487
331.32283
331.26819
331.25566
331.19876
331.1862
331.12749
331.11526
331.05506
331.04343
330.982
330.97117
330.90871
330.89883
330.83549
330.82666
330.76257
330.75484
330.69012
330.68353
330.61826
330.61281
330.54709
330.54276
330.47666
330.47343
330.407
330.40486
330.33813
330.33705
330.27002
331.63097
331.64476
331.64772
331.63291
331.64431
331.62745
331.63902
331.61847
331.62772
331.60274
331.6083
331.57823
331.57996
331.54475
331.54314
331.50316
331.49892
331.45483
331.44864
331.40109
331.39356
331.34311
331.33476
331.2819
331.27317
331.21832
331.20955
331.15306
331.14453
331.08666
331.07858
331.01954
331.01207
330.95206
330.9453
330.88445
330.87849
330.81694
330.81181
330.74967
330.7454
330.68277
330.67937
330.61633
330.61378
330.5504
330.5487
330.48503
330.48417
330.42021
331.6474
331.65656
331.66213
331.64659
331.65863
331.64143
331.65397
331.63407
331.64524
331.62199
331.63048
331.60305
331.60844
331.57653
331.579
331.54275
331.54273
331.50258
331.50057
331.45703
331.45353
331.40707
331.4025
331.35356
331.34833
331.2973
331.29173
331.23894
331.2333
331.17902
331.17352
331.11798
331.11278
331.05617
331.05139
330.99388
330.9896
330.93133
330.92761
330.86871
330.86558
330.80615
330.80364
330.74378
330.74189
330.68168
330.68041
330.61991
330.61927
330.55848
331.66278
331.66783
331.6755
331.6594
331.67191
331.65439
331.66754
331.648
331.66047
331.63844
331.64907
331.6237
331.63193
331.60275
331.60851
331.57548
331.57897
331.54235
331.54392
331.50406
331.50407
331.46136
331.46016
331.41497
331.41289
331.36556
331.3629
331.31376
331.31077
331.26008
331.25696
331.20493
331.20184
331.14868
331.14574
331.09163
331.08893
331.034
331.03161
330.97602
330.97397
330.91783
330.91616
330.85956
330.8583
330.80134
330.80048
330.74322
330.74279
330.68526
331.67716
331.67857
331.68786
331.67133
331.68417
331.66639
331.67989
331.66056
331.67387
331.65271
331.66484
331.64107
331.65141
331.62448
331.63281
331.60254
331.6089
331.57539
331.57995
331.54345
331.54646
331.50723
331.50895
331.4673
331.46801
331.42425
331.42419
331.37859
331.378
331.33081
331.32986
331.28132
331.28016
331.23044
331.2292
331.17849
331.17725
331.1257
331.12454
331.07228
331.07125
331.01842
331.01756
330.96426
330.96359
330.90991
330.90946
330.85548
330.85525
330.80102
331.69061
331.68877
331.69924
331.68239
331.69541
331.67743
331.69113
331.67195
331.68574
331.66523
331.67835
331.65583
331.66769
331.64261
331.65289
331.62498
331.63358
331.60282
331.60981
331.57633
331.58184
331.54582
331.55002
331.5117
331.51481
331.47443
331.47665
331.43446
331.43598
331.39222
331.3932
331.34806
331.34865
331.30232
331.30262
331.25527
331.25537
331.20717
331.20715
331.15823
331.15813
331.10862
331.10849
331.0585
331.05838
331.008
331.00791
330.95723
330.95718
330.90627
331.70316
331.69838
331.70965
331.69254
331.70564
331.68755
331.70129
331.68226
331.69629
331.6763
331.69002
331.6685
331.68139
331.65784
331.66954
331.64363
331.65395
331.62559
331.6345
331.60371
331.61125
331.57816
331.58443
331.54919
331.55433
331.51713
331.5213
331.48236
331.48572
331.44523
331.44791
331.40607
331.4082
331.36518
331.36685
331.32281
331.3241
331.2792
331.2802
331.23457
331.23532
331.18909
331.18964
331.14292
331.1433
331.0962
331.09644
331.04904
331.04916
331.00154
331.71481
331.70735
331.71907
331.70177
331.71483
331.69672
331.71042
331.69158
331.70565
331.68612
331.70014
331.67947
331.693
331.67073
331.68339
331.6592
331.67077
331.6445
331.65487
331.6265
331.63563
331.60519
331.61312
331.58072
331.58753
331.5533
331.5591
331.52322
331.52813
331.49077
331.49491
331.45623
331.45969
331.41986
331.42272
331.38189
331.38424
331.34255
331.34445
331.30204
331.30355
331.26053
331.26169
331.21819
331.21902
331.17514
331.17569
331.13151
331.13179
331.08741
331.72548
331.71559
331.72746
331.71006
331.72298
331.70495
331.71852
331.69993
331.71392
331.69483
331.70894
331.689
331.70286
331.6817
331.69497
331.67226
331.68468
331.66025
331.67167
331.64544
331.65578
331.62773
331.63695
331.60714
331.61528
331.5838
331.59092
331.55791
331.5641
331.52969
331.53504
331.49938
331.50395
331.46718
331.47106
331.43331
331.43657
331.39798
331.40067
331.36137
331.36353
331.32365
331.32533
331.28496
331.28619
331.24545
331.24626
331.20524
331.20565
331.16444
331.73504
331.72295
331.73477
331.71735
331.73009
331.71222
331.72562
331.70734
331.72117
331.70253
331.71657
331.69731
331.71127
331.69109
331.70466
331.68326
331.6962
331.67339
331.68551
331.66119
331.67238
331.64649
331.65666
331.62922
331.63837
331.60942
331.61757
331.58722
331.59443
331.56278
331.5691
331.53628
331.54178
331.5079
331.51263
331.47782
331.48183
331.44622
331.44956
331.41326
331.41598
331.37911
331.38124
331.34389
331.34547
331.30776
331.30881
331.27083
331.27135
331.23321
331.7432
331.72931
331.74094
331.72363
331.73615
331.71856
331.73173
331.71385
331.72744
331.70929
331.72315
331.70455
331.71844
331.69914
331.71279
331.69255
331.70574
331.68437
331.6969
331.67429
331.68602
331.66208
331.6729
331.6476
331.65747
331.63084
331.63976
331.61186
331.61984
331.59076
331.59785
331.56768
331.5739
331.54275
331.54815
331.51613
331.52074
331.48796
331.49183
331.45839
331.46156
331.42757
331.43007
331.39563
331.39749
331.3627
331.36393
331.32888
331.3295
331.2943
331.74966
331.73452
331.74595
331.72889
331.74119
331.72397
331.73689
331.71948
331.73279
331.71518
331.72877
331.71083
331.72451
331.70605
331.71961
331.70042
331.71364
331.69357
331.70627
331.68518
331.6972
331.675
331.68622
331.66286
331.6732
331.64868
331.65811
331.63247
331.641
331.6143
331.62193
331.59424
331.60099
331.5724
331.5783
331.54889
331.55398
331.52385
331.52815
331.49741
331.50094
331.46967
331.47247
331.44078
331.44286
331.41085
331.41223
331.37998
331.38067
331.34827
331.75418
331.7385
331.7498
331.73315
331.74522
331.72848
331.74113
331.72426
331.73726
331.72024
331.7335
331.71624
331.72962
331.71196
331.72529
331.70709
331.72017
331.70127
331.71393
331.69422
331.70631
331.68569
331.69707
331.67547
331.68606
331.66345
331.6732
331.64961
331.65848
331.63396
331.64196
331.61654
331.62367
331.59744
331.6037
331.57673
331.58215
331.55451
331.55911
331.53091
331.5347
331.50601
331.50902
331.47994
331.48219
331.45279
331.45429
331.42467
331.42542
331.39568
331.75674
331.74127
331.75253
331.73644
331.74832
331.73215
331.74452
331.72826
331.74092
331.72453
331.73742
331.72085
331.73386
331.717
331.72999
331.71271
331.72552
331.7077
331.72018
331.70171
331.7137
331.69449
331.70586
331.68584
331.69648
331.67561
331.68547
331.66376
331.6728
331.65026
331.65846
331.63514
331.64247
331.61842
331.62491
331.60019
331.60582
331.5805
331.5853
331.55946
331.56343
331.53714
331.5403
331.51365
331.51602
331.48908
331.49065
331.46352
331.46431
331.43705
331.75764
331.74297
331.75426
331.73886
331.75056
331.73504
331.74712
331.73151
331.74382
331.7281
331.7406
331.72473
331.73733
331.72124
331.73383
331.71743
331.72987
331.71305
331.72521
331.70788
331.71963
331.7017
331.71289
331.6943
331.70484
331.68554
331.69535
331.67533
331.68438
331.66365
331.67189
331.65048
331.6579
331.63584
331.64242
331.61977
331.62551
331.60232
331.60723
331.58357
331.58764
331.56358
331.56683
331.54244
331.54487
331.52022
331.52185
331.49702
331.49783
331.4729
331.75734
331.74378
331.75514
331.74052
331.75203
331.73722
331.749
331.73409
331.74603
331.73101
331.74309
331.72795
331.7401
331.72478
331.73691
331.72134
331.73334
331.71745
331.7292
331.71292
331.7243
331.70754
331.71843
331.70113
331.71143
331.69353
331.70317
331.68468
331.6936
331.6745
331.68266
331.66299
331.67036
331.65012
331.65668
331.63593
331.64167
331.62044
331.62536
331.60372
331.60781
331.58581
331.58908
331.56678
331.56924
331.54671
331.54835
331.52565
331.52648
331.50369
331.75637
331.74397
331.75534
331.74153
331.75285
331.73878
331.75025
331.73606
331.74762
331.73332
331.74496
331.73055
331.74222
331.72766
331.73929
331.72453
331.73603
331.72102
331.73228
331.71696
331.72789
331.71218
331.72267
331.70653
331.71648
331.69986
331.7092
331.69209
331.70076
331.68315
331.69111
331.673
331.68022
331.66163
331.66808
331.64905
331.65471
331.63526
331.64013
331.62032
331.62437
331.60425
331.6075
331.58712
331.58956
331.56897
331.5706
331.54987
331.55069
331.52988
331.7551
331.74376
331.75504
331.74203
331.75312
331.73981
331.75095
331.73749
331.74866
331.73509
331.74628
331.7326
331.74377
331.72995
331.74106
331.72707
331.73802
331.72382
331.73455
331.7201
331.73051
331.71577
331.72578
331.71068
331.72019
331.70472
331.71367
331.69779
331.70613
331.68984
331.69752
331.68082
331.6878
331.6707
331.67695
331.65947
331.66497
331.64715
331.65189
331.63375
331.63771
331.6193
331.62247
331.60384
331.60623
331.58742
331.58902
331.57008
331.57088
331.55188
331.75377
331.74331
331.75436
331.74214
331.75296
331.74039
331.75118
331.73846
331.74922
331.73637
331.7471
331.73413
331.7448
331.7317
331.74224
331.72899
331.73936
331.72593
331.73607
331.72244
331.73227
331.7184
331.72786
331.71371
331.72272
331.70826
331.71676
331.70198
331.70991
331.6948
331.70212
331.68668
331.69335
331.67759
331.68357
331.6675
331.67278
331.65641
331.66097
331.64434
331.64815
331.6313
331.63436
331.61731
331.61962
331.60242
331.60397
331.58666
331.58744
331.57007
331.75245
331.74273
331.75345
331.74195
331.75245
331.74062
331.75103
331.73903
331.74936
331.73723
331.74747
331.73521
331.74534
331.73293
331.7429
331.73034
331.74011
331.72739
331.7369
331.72401
331.73323
331.72015
331.72902
331.71571
331.72416
331.71062
331.71859
331.7048
331.71226
331.69821
331.70511
331.6908
331.6971
331.68253
331.68819
331.67337
331.67838
331.66332
331.66765
331.65238
331.65601
331.64055
331.64347
331.62785
331.63005
331.61431
331.61578
331.59995
331.60069
331.58481
331.75116
331.74209
331.75237
331.74155
331.75168
331.74056
331.75057
331.73927
331.74915
331.73771
331.74745
331.73586
331.74543
331.73368
331.74305
331.73114
331.74027
331.72821
331.73707
331.72486
331.73343
331.72106
331.72929
331.71675
331.7246
331.71187
331.71929
331.70637
331.71331
331.70021
331.70664
331.69333
331.69921
331.68571
331.69101
331.67731
331.682
331.66811
331.67218
331.65812
331.66154
331.64733
331.65008
331.63574
331.63782
331.62338
331.62477
331.61027
331.61097
331.59642
331.74987
331.74142
331.75119
331.74099
331.75072
331.74028
331.74986
331.73923
331.74864
331.73785
331.74707
331.73611
331.7451
331.73396
331.7427
331.73139
331.73986
331.7284
331.73659
331.72499
331.73289
331.72116
331.72873
331.71687
331.72408
331.71209
331.7189
331.70677
331.71316
331.70089
331.70682
331.6944
331.69984
331.68728
331.69218
331.67948
331.68383
331.67098
331.67476
331.66178
331.66496
331.65187
331.65443
331.64124
331.64317
331.6299
331.6312
331.61788
331.61853
331.60517
331.74857
331.74075
331.74994
331.74034
331.74962
331.73981
331.74894
331.73895
331.74787
331.73769
331.74636
331.73597
331.74436
331.73378
331.74186
331.73109
331.73888
331.72795
331.73545
331.7244
331.73161
331.72044
331.72734
331.71608
331.72264
331.71129
331.7175
331.70605
331.71188
331.70034
331.70575
331.69412
331.69909
331.68736
331.69185
331.68002
331.68401
331.67209
331.67555
331.66354
331.66646
331.65436
331.65672
331.64455
331.64633
331.63411
331.6353
331.62303
331.62363
331.61134
331.74726
331.74006
331.74864
331.7396
331.74841
331.73921
331.74786
331.73846
331.74686
331.73723
331.74531
331.73545
331.7432
331.73311
331.74051
331.73022
331.7373
331.72685
331.73364
331.72307
331.72957
331.71891
331.72512
331.71439
331.72029
331.70951
331.71509
331.70426
331.7095
331.69862
331.70349
331.69256
331.69704
331.68605
331.69011
331.67907
331.68268
331.67158
331.67472
331.66356
331.66621
331.655
331.65714
331.64588
331.6475
331.6362
331.63729
331.62596
331.6265
331.61515
331.74591
331.73937
331.7473
331.7388
331.74713
331.7385
331.74665
331.73778
331.74562
331.73648
331.74394
331.73453
331.74159
331.73193
331.73862
331.72874
331.7351
331.72505
331.73111
331.72096
331.72674
331.71653
331.72204
331.71178
331.71702
331.70674
331.71169
331.7014
331.70606
331.69575
331.70009
331.68978
331.69377
331.68344
331.68706
331.67671
331.67994
331.66956
331.67238
331.66197
331.66435
331.65392
331.65585
331.64539
331.64685
331.63637
331.63734
331.62684
331.62733
331.61681
331.74452
331.73866
331.74592
331.73795
331.74578
331.73768
331.7453
331.7369
331.74414
331.73542
331.7422
331.73317
331.73951
331.73019
331.73614
331.7266
331.73221
331.72251
331.72783
331.71804
331.7231
331.71327
331.71808
331.70824
331.71281
331.70298
331.70731
331.69749
331.70157
331.69178
331.69558
331.68581
331.68932
331.67957
331.68276
331.67302
331.67587
331.66614
331.66862
331.65889
331.661
331.65126
331.65297
331.64322
331.64452
331.63476
331.63563
331.62587
331.6263
331.61652
331.74309
331.73795
331.7445
331.73706
331.74438
331.73676
331.74382
331.73581
331.7424
331.734
331.74006
331.73131
331.73688
331.72783
331.733
331.72374
331.72857
331.71917
331.72373
331.71425
331.71858
331.70909
331.71321
331.70373
331.70765
331.69821
331.70192
331.69253
331.69604
331.6867
331.68998
331.6807
331.68373
331.6745
331.67726
331.66807
331.67054
331.66139
331.66355
331.65442
331.65625
331.64713
331.64862
331.63951
331.64064
331.63153
331.63229
331.62318
331.62356
331.61444
331.7416
331.73722
331.74305
331.73613
331.74291
331.73573
331.74217
331.73447
331.74033
331.73217
331.73743
331.72888
331.73363
331.72478
331.72913
331.72007
331.72412
331.71495
331.71875
331.70954
331.71315
331.70394
331.70738
331.69822
331.70149
331.6924
331.69552
331.68651
331.68946
331.68053
331.6833
331.67446
331.67703
331.66826
331.67061
331.66191
331.66402
331.65538
331.65723
331.64862
331.6502
331.64163
331.64291
331.63436
331.63534
331.6268
331.62746
331.61893
331.61926
331.61071
331.74004
331.73647
331.74154
331.73516
331.74138
331.73455
331.74031
331.7328
331.73786
331.72982
331.73422
331.72577
331.72966
331.72092
331.72444
331.71553
331.71877
331.70978
331.71282
331.70383
331.70672
331.69777
331.70054
331.69166
331.69432
331.68554
331.68808
331.67941
331.68183
331.67328
331.67556
331.66711
331.66924
331.66089
331.66284
331.65459
331.65635
331.64817
331.64972
331.64159
331.64292
331.63484
331.63592
331.62788
331.6287
331.62068
331.62124
331.61323
331.6135
331.60548
331.73839
331.73571
331.74
331.73415
331.73974
331.73318
331.73815
331.73072
331.73488
331.72684
331.73031
331.72188
331.72485
331.71617
331.71882
331.71
331.71243
331.70358
331.70588
331.69706
331.69926
331.69053
331.69265
331.68403
331.68609
331.6776
331.67959
331.67124
331.67315
331.66493
331.66675
331.65867
331.66038
331.65242
331.65399
331.64614
331.64757
331.63981
331.64108
331.63339
331.63448
331.62685
331.62774
331.62015
331.62083
331.61328
331.61373
331.60619
331.60642
331.59887
331.73665
331.73496
331.73839
331.73307
331.73793
331.73152
331.7356
331.72808
331.73125
331.7231
331.72557
331.71707
331.71909
331.71039
331.71216
331.70339
331.70502
331.69627
331.69784
331.68918
331.6907
331.68217
331.68368
331.6753
331.67679
331.66856
331.67003
331.66197
331.66341
331.65551
331.6569
331.64915
331.65047
331.64286
331.64409
331.63661
331.63774
331.63036
331.63136
331.62407
331.62494
331.61772
331.61843
331.61126
331.61181
331.60467
331.60504
331.59792
331.59811
331.59098
331.73481
331.73425
331.73673
331.7319
331.73589
331.72946
331.7325
331.72474
331.72681
331.71843
331.71984
331.71119
331.71224
331.70347
331.70436
331.69561
331.69645
331.68778
331.68864
331.68012
331.681
331.67266
331.67358
331.66542
331.66638
331.65841
331.6594
331.65162
331.65261
331.64502
331.646
331.63858
331.63953
331.63226
331.63317
331.62604
331.62688
331.61986
331.62062
331.6137
331.61436
331.60752
331.60807
331.60129