/*--------------------------------*- C++ -*----------------------------------*\
| =========                 |                                                 |
| \\      /  F ield         | OpenFOAM: The Open Source CFD Toolbox           |
|  \\    /   O peration     | Version:  2312                                  |
|   \\  /    A nd           | Website:  www.openfoam.com                      |
|    \\/     M anipulation  |                                                 |
\*---------------------------------------------------------------------------*/
FoamFile
{
    version     2.0;
    format      ascii;
    arch        "LSB;label=32;scalar=64";
    class       volScalarField;
    location    "10";
    object      T;
}
// * * * * * * * * * * * * * * * * * * * * * * * * * * * * * * * * * * * * * //

dimensions      [0 0 0 1 0 0 0];

internalField   nonuniform List<scalar> 
4000
(
312.47903
311.77957
311.64201
311.60373
311.55949
311.52972
311.50094
311.47569
311.45122
311.42875
311.4062
311.38514
311.36379
311.34355
311.32303
311.30331
311.28342
311.26406
311.24464
311.22555
311.20651
311.18761
311.16887
311.15011
311.13163
311.11298
311.09472
311.07614
311.05807
311.03955
311.02165
311.00317
310.98541
310.96697
310.94935
310.93091
310.91342
310.89499
310.87763
310.85918
310.84194
310.82347
310.80636
310.78783
310.77088
310.75226
310.7355
310.71672
310.70029
310.68087
313.66699
312.53808
312.16581
312.08518
311.98746
311.9328
311.8812
311.84011
311.80139
311.76864
311.73569
311.70717
311.6778
311.65174
311.62487
311.60039
311.57538
311.55199
311.52841
311.50579
311.48334
311.4613
311.43977
311.41816
311.3974
311.3761
311.35599
311.33493
311.31538
311.2945
311.27546
311.2547
311.2361
311.21542
311.19724
311.1766
311.15881
311.13817
311.12076
311.10008
311.08305
311.06228
311.04565
311.02472
311.00854
310.98735
310.97174
310.95006
310.93544
310.91192
314.40031
313.26734
312.68522
312.56328
312.41349
312.33423
312.26016
312.20331
312.15053
312.10751
312.06428
312.02831
311.991
311.95911
311.92595
311.8967
311.86663
311.83918
311.81149
311.78534
311.75952
311.73432
311.71004
311.68555
311.66254
311.63858
311.61665
311.59309
311.5721
311.54884
311.52867
311.50562
311.4862
311.46328
311.44456
311.42171
311.40363
311.38078
311.36333
311.34041
311.32359
311.30053
311.28437
311.26105
311.24564
311.22188
311.20743
311.18285
311.17003
311.14262
314.88578
313.94251
313.19269
313.03341
312.83468
312.73179
312.63609
312.56381
312.49737
312.44421
312.39097
312.34758
312.30253
312.26483
312.22554
312.1915
312.1565
312.12498
312.09327
312.06357
312.03447
312.0061
311.97912
311.95175
311.92654
311.89991
311.87621
311.85014
311.82774
311.80209
311.78084
311.75548
311.73527
311.71011
311.69086
311.66579
311.64744
311.62238
311.60491
311.57975
311.56316
311.5378
311.52213
311.49641
311.48179
311.45546
311.44216
311.4147
311.40363
311.37262
315.22184
314.54147
313.67838
313.48935
313.24704
313.12249
313.00663
312.91961
312.84025
312.77723
312.71443
312.66378
312.61131
312.56787
312.52269
312.4839
312.44415
312.40859
312.37301
312.33976
312.30749
312.27596
312.24639
312.21612
312.1888
312.1595
312.13409
312.10551
312.08176
312.05372
312.03144
312.00377
311.98282
311.9554
311.93567
311.90837
311.88979
311.86251
311.84505
311.81765
311.80131
311.77365
311.75849
311.73038
311.71655
311.68768
311.67552
311.64523
311.63582
311.60156
315.46206
315.05081
314.13209
313.92389
313.6458
313.50266
313.36891
313.26831
313.17713
313.10476
313.03309
312.97545
312.91603
312.86701
312.81628
312.77285
312.72861
312.68906
312.64982
312.61307
312.57781
312.54313
312.51111
312.47797
312.44866
312.41669
312.38968
312.35859
312.33358
312.30315
312.27991
312.24994
312.2283
312.19863
312.17847
312.14896
312.13019
312.1007
312.08327
312.05365
312.03758
312.00765
311.99301
311.96253
311.94949
311.9181
311.90706
311.87403
311.86613
311.829
315.63743
315.46399
314.54462
314.3295
314.02579
313.86824
313.71964
313.60718
313.50567
313.42474
313.34511
313.28093
313.2152
313.16086
313.10506
313.05716
313.00879
312.96537
312.92275
312.88258
312.84455
312.80678
312.77249
312.73653
312.70537
312.67077
312.64229
312.60872
312.58255
312.54975
312.52564
312.49339
312.47114
312.43925
312.41871
312.38701
312.36809
312.33641
312.31907
312.28724
312.27148
312.2393
312.22519
312.19239
312.18013
312.1463
312.13632
312.10069
312.09413
312.05449
315.76789
315.78288
314.90927
314.69927
314.38193
314.21503
314.05538
313.93328
313.82333
313.73495
313.64853
313.57842
313.50719
313.44794
313.38764
313.33553
313.28348
313.23638
313.19074
313.14728
313.10676
313.066
313.02967
312.99096
312.95815
312.92098
312.89117
312.85518
312.82798
312.79287
312.76799
312.7335
312.71073
312.67665
312.65582
312.62196
312.60296
312.56913
312.55192
312.51793
312.5025
312.46812
312.45456
312.4195
312.408
312.37183
312.36285
312.32476
312.31935
312.27754
315.86683
316.01536
315.22232
315.02785
314.70971
314.53898
314.37268
314.24366
314.12753
314.03306
313.94125
313.86605
313.79029
313.72666
313.66258
313.60663
313.55143
313.50091
313.45266
313.4061
313.36342
313.31984
313.28174
313.2404
313.20615
313.16652
313.13557
313.09723
313.06916
313.0318
313.00629
312.96962
312.94643
312.91023
312.88918
312.85323
312.83421
312.7983
312.78126
312.74518
312.7301
312.69361
312.68059
312.64336
312.63261
312.59421
312.58615
312.5458
312.54135
312.49769
315.94354
316.17389
315.48334
315.31208
315.00557
314.83658
314.66835
314.53549
314.41569
314.3168
314.22122
314.14193
314.06275
313.99541
313.92837
313.86905
313.81133
313.75773
313.70735
313.65797
313.61352
313.5673
313.52775
313.48395
313.44852
313.40656
313.37467
313.33412
313.30534
313.26584
313.23983
313.20109
313.17759
313.13935
313.11819
313.08023
313.06126
313.02336
313.00653
312.96845
312.95377
312.91525
312.90278
312.8635
312.85346
312.81298
312.80574
312.76337
312.75967
312.71445
316.00475
316.27335
315.69473
315.55138
315.26716
315.10507
314.9397
314.80626
314.6855
314.58403
314.48644
314.40423
314.32288
314.25263
314.18354
314.12142
314.06188
314.00562
313.95367
313.90178
313.85599
313.80741
313.76675
313.72069
313.68437
313.64026
313.60768
313.56506
313.53577
313.49426
313.46792
313.42722
313.40355
313.3634
313.34221
313.30235
313.28352
313.24373
313.22718
313.18721
313.17294
313.13253
313.1206
313.07942
313.07004
313.02766
313.02115
312.97699
312.97386
312.92733
316.055
316.329
315.86132
315.74746
315.4935
315.34271
315.18473
315.05392
314.93494
314.83286
314.73513
314.65129
314.56909
314.49682
314.42668
314.36242
314.30181
314.2434
314.19047
314.13647
314.08982
314.03918
313.99779
313.94975
313.91285
313.86681
313.83379
313.78929
313.7597
313.71636
313.68985
313.64735
313.62364
313.58172
313.56062
313.51901
313.50039
313.45885
313.44263
313.40092
313.38708
313.34493
313.33355
313.29063
313.28186
313.2378
313.23191
313.18621
313.1835
313.13588
316.09765
316.35505
315.98936
315.90386
315.68501
315.54891
315.40225
315.27707
315.16248
315.06178
314.96577
314.88164
314.79999
314.72667
314.65651
314.59083
314.52997
314.46996
314.41668
314.36101
314.31401
314.26168
314.21998
314.17025
314.13311
314.08539
314.05221
314.00606
313.9764
313.93143
313.90493
313.86082
313.83723
313.7937
313.77281
313.72961
313.71128
313.66816
313.65232
313.60904
313.59567
313.55195
313.5411
313.49665
313.48844
313.44291
313.43754
313.39056
313.38815
313.33964
316.13476
316.36322
316.08574
316.02543
315.84346
315.72423
315.59198
315.475
315.36716
315.26972
315.17723
315.09417
315.01441
314.94105
314.87193
314.8056
314.7453
314.68431
314.63133
314.57448
314.52766
314.47404
314.43247
314.38139
314.34435
314.29526
314.26221
314.21466
314.18517
314.13879
314.11252
314.067
314.04368
313.99875
313.97818
313.93359
313.91564
313.87113
313.85573
313.81106
313.79818
313.7531
313.74277
313.697
313.6893
313.64254
313.6376
313.58959
313.58739
313.53818
316.16786
316.36253
316.15723
316.11772
315.97174
315.87031
315.75452
315.64774
315.54861
315.45612
315.36878
315.28806
315.2115
315.13909
315.07204
315.00584
314.94693
314.88558
314.83358
314.77607
314.72996
314.67549
314.63448
314.58242
314.54587
314.49571
314.4631
314.41444
314.38536
314.33784
314.31198
314.2653
314.2424
314.1963
314.17618
314.1304
314.11294
314.06724
314.05234
314.0065
313.99413
313.94791
313.93808
313.89122
313.884
313.83625
313.83167
313.78288
313.78082
313.7311
316.19774
316.35897
316.21
316.18644
316.07351
315.98967
315.8913
315.79604
315.70711
315.62096
315.54016
315.46295
315.39074
315.32023
315.2562
315.19092
315.13418
315.07312
315.02273
314.96509
314.92024
314.86537
314.82536
314.77272
314.737
314.68614
314.65426
314.6048
314.57638
314.528
314.50275
314.45517
314.43287
314.38583
314.36629
314.31957
314.30266
314.25602
314.24167
314.1949
314.18307
314.13594
314.12661
314.07891
314.07211
314.02364
314.01935
313.97002
313.96806
313.91799
316.22507
316.35616
316.24925
316.23698
316.15286
316.08541
316.00443
315.92131
315.84352
315.76473
315.69155
315.61882
315.55198
315.48422
315.42407
315.36044
315.30659
315.24644
315.19828
315.14105
315.09795
315.04315
315.00457
314.95176
314.91723
314.86603
314.83516
314.78523
314.75772
314.70878
314.68435
314.63614
314.61459
314.56689
314.54804
314.50062
314.48438
314.43703
314.4233
314.37583
314.36456
314.31677
314.30794
314.25965
314.25325
314.2043
314.20026
314.15062
314.14874
314.09851
316.25015
316.35573
316.27916
316.27411
316.21392
316.16097
316.09648
316.02546
315.9592
315.8884
315.8236
315.75611
315.69541
315.63113
315.5756
315.51427
315.46396
315.4053
315.35991
315.30362
315.26274
315.20847
315.17171
315.11913
315.08614
315.03495
315.0054
314.95533
314.92895
314.87977
314.85634
314.8078
314.78715
314.73906
314.72103
314.67319
314.65768
314.6099
314.59683
314.54893
314.53825
314.49006
314.48172
314.4331
314.42707
314.3779
314.37408
314.32435
314.32254
314.27233
316.27325
316.35812
316.30283
316.30175
316.26057
316.21985
316.17032
316.11078
316.05594
315.99337
315.93732
315.87557
315.82158
315.76135
315.711
315.65253
315.60629
315.54966
315.50752
315.45264
315.41441
315.3611
315.32653
315.27458
315.24343
315.19263
315.16464
315.11478
315.08976
315.04064
315.0184
314.96983
314.95023
314.90203
314.88493
314.83693
314.82225
314.77429
314.76194
314.71387
314.7038
314.65548
314.64764
314.59893
314.59327
314.54411
314.5405
314.49091
314.48916
314.43917
316.29454
316.36297
316.32247
316.32298
316.29629
316.26537
316.22888
316.17977
316.13579
316.08131
316.03407
315.97831
315.93132
315.87555
315.83077
315.77563
315.73387
315.67971
315.64121
315.58817
315.55294
315.501
315.46893
315.418
315.38895
315.33889
315.31272
315.26339
315.23993
315.19118
315.1703
315.12198
315.10356
315.05554
315.03948
314.9916
314.97782
314.92995
314.91838
314.8704
314.86097
314.81276
314.80543
314.7569
314.75159
314.70269
314.69929
314.65004
314.64837
314.59877
316.31417
316.36968
316.33952
316.34002
316.32396
316.30053
316.27499
316.23496
316.20094
316.1541
316.11542
316.06566
316.02575
315.97466
315.93567
315.88417
315.84716
315.79585
315.76127
315.71045
315.67849
315.62828
315.59897
315.5494
315.5227
315.47371
315.44954
315.40106
315.37933
315.33126
315.31188
315.26412
315.247
315.19943
315.1845
315.13701
315.1242
315.07669
315.06594
315.01831
315.00956
314.96171
314.9549
314.90679
314.90184
314.85342
314.85023
314.80152
314.79994
314.75092
316.33227
316.37758
316.35488
316.35442
316.34591
316.3279
316.31121
316.27878
316.25361
316.21374
316.18309
316.13914
316.10615
316.05979
316.02664
315.97898
315.94686
315.89865
315.86819
315.81988
315.79139
315.74323
315.71687
315.66897
315.64479
315.59718
315.57518
315.52785
315.50799
315.46089
315.44313
315.39619
315.38047
315.33363
315.3199
315.27308
315.26129
315.2144
315.2045
315.15747
315.14942
315.10219
315.09591
315.04844
315.04387
314.99615
314.99317
314.94521
314.94373
314.89548
316.34899
316.3861
316.36905
316.3672
316.36386
316.34956
316.33981
316.31349
316.29592
316.26217
316.23886
316.20033
316.17392
316.1322
316.10477
316.06102
316.03381
315.98887
315.9626
315.91702
315.89213
315.84625
315.82298
315.777
315.75549
315.70951
315.68981
315.64388
315.62601
315.58013
315.56409
315.51824
315.50401
315.45814
315.44569
315.39976
315.38906
315.34302
315.33402
315.28783
315.2805
315.23411
315.22838
315.18178
315.17758
315.13076
315.12802
315.08099
315.07962
315.03232
316.36446
316.39484
316.38228
316.37892
316.37908
316.36712
316.36263
316.34104
316.32982
316.30129
316.28448
316.25087
316.23056
316.19325
316.17128
316.13139
316.10897
316.06737
316.04527
316.00257
315.9813
315.93789
315.91777
315.87393
315.85515
315.81104
315.79371
315.74943
315.73362
315.6892
315.67494
315.63041
315.61772
315.57306
315.56193
315.51714
315.50755
315.4626
315.45452
315.40939
315.40279
315.35746
315.35229
315.30676
315.30296
315.25723
315.25473
315.20881
315.20756
315.16139
316.37878
316.40353
316.39469
316.38992
316.39241
316.38179
316.38119
316.36311
316.35704
316.33279
316.32161
316.29233
316.27751
316.24429
316.2274
316.19123
316.1734
316.13511
316.11708
316.07732
316.05962
316.01882
316.00183
315.9603
315.94426
315.9022
315.88728
315.84483
315.83111
315.78836
315.77593
315.73292
315.7218
315.67857
315.66879
315.62534
315.61688
315.57322
315.56609
315.52222
315.51637
315.47229
315.4677
315.42342
315.42003
315.37556
315.37332
315.32867
315.32755
315.28267
316.39209
316.41202
316.40634
316.40034
316.4044
316.39444
316.39663
316.38104
316.37903
316.3582
316.35174
316.32618
316.31621
316.28668
316.27442
316.24175
316.22818
316.19313
316.17897
316.14214
316.1279
316.08976
316.07584
316.03671
316.02339
315.98351
315.97098
315.93052
315.91891
315.87799
315.86739
315.82608
315.81655
315.77492
315.76649
315.72457
315.71726
315.67508
315.66889
315.62646
315.62137
315.57871
315.5747
315.53184
315.52887
315.48582
315.48385
315.44063
315.43964
315.39619
316.40446
316.42022
316.41725
316.41025
316.41537
316.40563
316.40978
316.39588
316.39699
316.37881
316.37622
316.35378
316.34796
316.3217
316.31355
316.2841
316.27444
316.24246
316.2319
316.19794
316.18699
316.1515
316.14054
316.10386
316.09318
316.05557
316.04538
316.00702
315.99748
315.95852
315.94972
315.91027
315.90231
315.86243
315.85535
315.81511
315.80895
315.76839
315.76315
315.72231
315.71798
315.6769
315.67347
315.63217
315.62963
315.58814
315.58645
315.54478
315.54393
315.50205
316.416
316.4281
316.42745
316.41964
316.42553
316.41576
316.42126
316.40844
316.41188
316.39569
316.39619
316.37629
316.37396
316.35052
316.34595
316.31941
316.31323
316.28412
316.27685
316.24566
316.23775
316.20488
316.1967
316.16248
316.15431
316.11902
316.11107
316.0749
316.06735
316.03045
316.02342
315.98592
315.97949
315.94149
315.93573
315.8973
315.89225
315.85345
315.84914
315.81003
315.80645
315.76707
315.76422
315.72461
315.72249
315.68268
315.68126
315.64127
315.64056
315.60038
316.42677
316.43565
316.43695
316.42852
316.43497
316.42503
316.43145
316.4193
316.42443
316.40969
316.4126
316.39473
316.39525
316.37421
316.37268
316.34872
316.34559
316.31912
316.31479
316.2862
316.28107
316.25073
316.24512
316.21333
316.20751
316.17453
316.16871
316.13475
316.1291
316.09432
316.08898
316.05351
316.04856
316.01252
316.00804
315.97151
315.96756
315.93062
315.92721
315.88992
315.88708
315.8495
315.84723
315.8094
315.8077
315.76966
315.76852
315.73031
315.72973
315.69133
316.43683
316.44287
316.44579
316.43688
316.44375
316.4336
316.44064
316.42886
316.43519
316.42148
316.4262
316.40993
316.41273
316.39369
316.39468
316.37298
316.37246
316.34837
316.34663
316.32047
316.31781
316.28988
316.2866
316.25717
316.25351
316.22282
316.21897
316.18723
316.18336
316.15072
316.14696
316.11357
316.11003
316.076
316.07274
316.03818
316.03527
316.00026
315.99772
315.96234
315.9602
315.9245
315.92278
315.88682
315.88553
315.84935
315.84848
315.81211
315.81168
315.77514
316.44625
316.44977
316.45399
316.4447
316.45189
316.44154
316.44898
316.43741
316.44454
316.43156
316.43762
316.42259
316.42715
316.40976
316.41279
316.39304
316.3947
316.37274
316.37321
316.34928
316.3488
316.32312
316.32192
316.29475
316.29303
316.26457
316.26252
316.23296
316.23073
316.20023
316.19795
316.16665
316.16441
316.13243
316.13032
316.09777
316.09583
316.0628
316.06109
316.02766
316.0262
315.99243
315.99124
315.9572
315.9563
315.92202
315.92142
315.88696
315.88665
315.85203
316.45506
316.45635
316.46157
316.452
316.45941
316.44889
316.45658
316.44512
316.45278
316.44031
316.4473
316.43323
316.43912
316.42309
316.42772
316.40964
316.41307
316.393
316.39532
316.37341
316.37479
316.35122
316.35183
316.32679
316.3268
316.30047
316.30004
316.2726
316.27186
316.24346
316.24252
316.2133
316.21226
316.18233
316.18127
316.15074
316.14972
316.11869
316.11775
316.08629
316.08547
316.05366
316.05297
316.02088
316.02035
315.98802
315.98766
315.95514
315.95496
315.92229
316.4633
316.4626
316.46856
316.45875
316.4663
316.45565
316.46349
316.4521
316.46008
316.44798
316.45561
316.44228
316.44912
316.4342
316.44006
316.42339
316.42822
316.40981
316.41365
316.39356
316.3965
316.37486
316.37701
316.35397
316.35548
316.33119
316.33217
316.30678
316.30735
316.281
316.28127
316.25408
316.25413
316.22622
316.22612
316.1976
316.19741
316.16837
316.16814
316.13866
316.13842
316.10859
316.10837
316.07823
316.07805
316.04768
316.04755
316.01699
316.01692
315.98622
316.47099
316.46848
316.47496
316.46496
316.47257
316.46184
316.46975
316.45843
316.46658
316.45476
316.46278
316.45005
316.45754
316.44354
316.45029
316.43483
316.44074
316.42377
316.42881
316.41035
316.41456
316.39468
316.39812
316.37693
316.37971
316.35733
316.35953
316.33609
316.33781
316.31343
316.31475
316.28954
316.29055
316.26462
316.26538
316.23883
316.23939
316.21232
316.21273
316.18522
316.18551
316.15763
316.15783
316.12965
316.12978
316.10136
316.10145
316.07284
316.07288
316.04414
316.47813
316.47397
316.48075
316.4706
316.47821
316.46746
316.47537
316.46415
316.47235
316.46079
316.46901
316.45677
316.46468
316.45144
316.45881
316.44438
316.45108
316.43537
316.44133
316.42432
316.42953
316.41125
316.41574
316.39625
316.40008
316.37948
316.38271
316.36111
316.3638
316.34129
316.34353
316.32022
316.32206
316.29805
316.29956
316.27493
316.27615
316.251
316.25198
316.22639
316.22716
316.2012
316.20178
316.17552
316.17594
316.14944
316.14972
316.12304
316.12318
316.09637
316.48468
316.47901
316.4859
316.47566
316.48322
316.4725
316.48036
316.46928
316.47746
316.46614
316.47444
316.46262
316.47076
316.45817
316.46593
316.45239
316.45964
316.44503
316.45167
316.43595
316.44192
316.42508
316.43038
316.41246
316.41711
316.39818
316.40223
316.38235
316.38586
316.36512
316.36812
316.34662
316.34917
316.32699
316.32914
316.30636
316.30816
316.28487
316.28634
316.26262
316.2638
316.23971
316.24063
316.21625
316.21692
316.19231
316.19275
316.16796
316.16818
316.14327
316.49054
316.48353
316.4904
316.48012
316.48758
316.47695
316.48474
316.47384
316.48193
316.47087
316.47914
316.46772
316.47594
316.46393
316.47191
316.45914
316.46673
316.4531
316.46019
316.44561
316.45213
316.43659
316.4425
316.426
316.4313
316.41388
316.4186
316.40032
316.40447
316.3854
316.38902
316.36922
316.37236
316.35192
316.3546
316.33359
316.33586
316.31436
316.31625
316.29433
316.29586
316.27359
316.27479
316.25223
316.25311
316.23032
316.23091
316.20795
316.20825
316.18518
316.49556
316.48742
316.49421
316.48397
316.49131
316.48084
316.48852
316.47784
316.48582
316.47503
316.48321
316.47217
316.48037
316.46888
316.47693
316.46485
316.47262
316.45984
316.46721
316.45366
316.46053
316.44616
316.45249
316.43728
316.44305
316.42703
316.43223
316.41543
316.42008
316.40255
316.40666
316.38847
316.39206
316.37327
316.37638
316.35705
316.35971
316.33991
316.34214
316.32193
316.32376
316.30322
316.30466
316.28384
316.2849
316.26387
316.26458
316.24338
316.24374
316.22244
316.49954
316.49061
316.4973
316.48719
316.49441
316.48415
316.49171
316.48131
316.48913
316.47866
316.48669
316.47603
316.48412
316.47313
316.48114
316.46969
316.4775
316.4655
316.47299
316.46035
316.46743
316.4541
316.4607
316.44666
316.45274
316.43799
316.44353
316.42809
316.43309
316.417
316.42147
316.40476
316.40871
316.39145
316.39489
316.37713
316.38009
316.3619
316.3644
316.34582
316.34788
316.32898
316.33061
316.31146
316.31267
316.29331
316.29411
316.2746
316.27501
316.25541
316.50233
316.49305
316.49968
316.48979
316.49691
316.48693
316.49435
316.48427
316.49192
316.48178
316.48963
316.47936
316.48729
316.47677
316.48466
316.47379
316.48154
316.47023
316.47773
316.46592
316.47306
316.46068
316.4674
316.45442
316.46067
316.44708
316.45283
316.43863
316.44386
316.42908
316.43379
316.41847
316.42266
316.40682
316.41051
316.39422
316.3974
316.38071
316.38341
316.36637
316.3686
316.35125
316.35303
316.33544
316.33676
316.31898
316.31986
316.30195
316.30239
316.28439
316.50394
316.49475
316.50138
316.49182
316.49883
316.48918
316.49646
316.48674
316.4942
316.48444
316.49208
316.48221
316.48993
316.47987
316.48758
316.47726
316.48486
316.4742
316.4816
316.47053
316.47764
316.46611
316.47284
316.46081
316.46712
316.45457
316.46042
316.44735
316.4527
316.43912
316.44397
316.42991
316.43425
316.41974
316.42357
316.40864
316.41197
316.39668
316.39952
316.3839
316.38625
316.37036
316.37224
316.35612
316.35752
316.34123
316.34217
316.32575
316.32622
316.30973
316.50452
316.49579
316.50247
316.49331
316.50023
316.49096
316.49809
316.48875
316.49603
316.48665
316.49407
316.48461
316.4921
316.4825
316.48997
316.48017
316.48757
316.47751
316.48473
316.47435
316.48132
316.47057
316.47721
316.46604
316.47231
316.46071
316.46654
316.4545
316.45988
316.44739
316.45229
316.43938
316.44378
316.43048
316.43439
316.42071
316.42412
316.41012
316.41303
316.39875
316.40117
316.38663
316.38856
316.37382
316.37527
316.36037
316.36134
316.34632
316.34681
316.33173
316.50438
316.49631
316.50304
316.49434
316.50116
316.49232
316.49928
316.49036
316.49743
316.48847
316.49564
316.48661
316.49383
316.48469
316.4919
316.4826
316.48974
316.48024
316.48723
316.47747
316.48425
316.47419
316.48067
316.47028
316.47642
316.46567
316.47142
316.46029
316.46561
316.45412
316.45898
316.44713
316.45152
316.43932
316.44323
316.43071
316.43413
316.42132
316.42425
316.41118
316.41363
316.40034
316.4023
316.38883
316.3903
316.37668
316.37766
316.36395
316.36444
316.35067
316.50383
316.49644
316.5032
316.49498
316.5017
316.49329
316.50008
316.4916
316.49845
316.48991
316.49683
316.48823
316.49518
316.48649
316.49341
316.48459
316.49144
316.48246
316.48917
316.47999
316.48651
316.47709
316.48335
316.47366
316.4796
316.46962
316.4752
316.46491
316.4701
316.4595
316.46427
316.45336
316.45768
316.44648
316.45033
316.43886
316.44224
316.43052
316.43343
316.42148
316.42391
316.41176
316.41371
316.40141
316.40287
316.39044
316.39142
316.3789
316.37939
316.36682
316.5031
316.49633
316.50305
316.49531
316.5019
316.49395
316.50056
316.4925
316.49913
316.49103
316.49769
316.48952
316.49618
316.48792
316.49454
316.48618
316.49271
316.48422
316.49063
316.48198
316.48819
316.47935
316.48533
316.47628
316.48197
316.47268
316.47805
316.46851
316.47351
316.46371
316.46832
316.45827
316.46245
316.45216
316.45591
316.44538
316.44868
316.43794
316.44079
316.42985
316.43223
316.42113
316.42304
316.41181
316.41324
316.4019
316.40286
316.39144
316.39192
316.38045
316.50233
316.49607
316.50268
316.49539
316.50184
316.49433
316.50074
316.49313
316.49953
316.49185
316.49824
316.4905
316.49686
316.48903
316.49533
316.4874
316.4936
316.48557
316.49163
316.48347
316.48935
316.48104
316.4867
316.47822
316.48362
316.47495
316.48005
316.47119
316.47595
316.46688
316.47128
316.462
316.46601
316.45653
316.46013
316.45046
316.45363
316.44378
316.44653
316.43651
316.43881
316.42866
316.43051
316.42024
316.42164
316.41127
316.41221
316.40178
316.40225
316.39178
316.50157
316.49575
316.50216
316.49531
316.50157
316.4945
316.5007
316.49352
316.49967
316.49241
316.49852
316.4912
316.49725
316.48983
316.49579
316.48828
316.49413
316.48652
316.49222
316.48451
316.49004
316.4822
316.48752
316.47955
316.48463
316.47652
316.48132
316.47305
316.47754
316.46912
316.47327
316.46468
316.46848
316.45973
316.46314
316.45424
316.45726
316.44821
316.45082
316.44164
316.44384
316.43454
316.43631
316.42691
316.42824
316.41877
316.41967
316.41014
316.41059
316.40103
316.50082
316.49538
316.50154
316.49509
316.50114
316.4945
316.50046
316.4937
316.49959
316.49275
316.49857
316.49164
316.49736
316.49034
316.49595
316.48883
316.4943
316.4871
316.49242
316.48512
316.49026
316.48287
316.48781
316.48031
316.48504
316.47742
316.48189
316.47417
316.47836
316.4705
316.47439
316.46641
316.46997
316.46187
316.46507
316.45685
316.4597
316.45136
316.45382
316.44539
316.44746
316.43893
316.4406
316.43199
316.43325
316.42458
316.42542
316.41671
316.41713
316.40839
316.50008
316.495
316.50087
316.49479
316.5006
316.49436
316.50007
316.49371
316.49933
316.49288
316.49839
316.49185
316.49723
316.49058
316.49581
316.48906
316.49415
316.4873
316.49223
316.4853
316.49006
316.48305
316.48761
316.48052
316.48488
316.47771
316.48184
316.47459
316.47846
316.47112
316.47471
316.46728
316.47057
316.46305
316.46603
316.45842
316.46106
316.45337
316.45566
316.44789
316.44982
316.44197
316.44353
316.43563
316.4368
316.42885
316.42964
316.42165
316.42205
316.41404
316.49934
316.49462
316.50015
316.49442
316.49997
316.49411
316.49956
316.49358
316.49891
316.49283
316.49802
316.49182
316.49685
316.49053
316.49539
316.48896
316.49365
316.48714
316.49166
316.48506
316.48941
316.48276
316.48692
316.48021
316.48418
316.47741
316.48118
316.47435
316.47788
316.471
316.47429
316.46734
316.47036
316.46335
316.46609
316.45902
316.46145
316.45432
316.45643
316.44925
316.45103
316.4438
316.44524
316.43796
316.43905
316.43174
316.43247
316.42513
316.4255
316.41814
316.49859
316.49423
316.4994
316.49401
316.49928
316.49378
316.49895
316.49333
316.49835
316.4926
316.49745
316.49157
316.49622
316.4902
316.49466
316.48853
316.49281
316.48659
316.49069
316.4844
316.48833
316.48199
316.48575
316.47936
316.48295
316.47653
316.47993
316.47348
316.47667
316.47019
316.47317
316.46665
316.46939
316.46284
316.46532
316.45873
316.46094
316.45432
316.45624
316.44958
316.45121
316.44452
316.44583
316.43911
316.44011
316.43336
316.43403
316.42727
316.4276
316.42083
316.49782
316.49384
316.49863
316.49356
316.49855
316.49339
316.49826
316.49296
316.49766
316.49221
316.49669
316.49108
316.49534
316.48958
316.49362
316.48775
316.4916
316.48563
316.48931
316.48328
316.4868
316.48073
316.48408
316.47799
316.48119
316.47508
316.47811
316.472
316.47485
316.46872
316.47138
316.46525
316.46769
316.46155
316.46377
316.45762
316.4596
316.45343
316.45515
316.44897
316.45043
316.44422
316.44541
316.43918
316.44008
316.43384
316.43445
316.42819
316.4285
316.42224
316.49703
316.49344
316.49784
316.49308
316.49778
316.49293
316.4975
316.49248
316.49683
316.49163
316.49572
316.49034
316.49417
316.48864
316.49225
316.48659
316.49
316.48425
316.4875
316.4817
316.48479
316.47896
316.48191
316.47608
316.47888
316.47306
316.47572
316.4699
316.47241
316.46661
316.46895
316.46315
316.46531
316.45953
316.4615
316.45572
316.45748
316.45171
316.45324
316.44747
316.44877
316.44299
316.44404
316.43826
316.43906
316.43327
316.43381
316.42801
316.42828
316.42248
316.49622
316.49304
316.49703
316.49258
316.49698
316.49242
316.49665
316.49188
316.49584
316.49085
316.49451
316.48932
316.4927
316.48734
316.4905
316.48501
316.48798
316.48241
316.48522
316.47962
316.48228
316.47667
316.47921
316.47361
316.47603
316.47045
316.47275
316.4672
316.46937
316.46385
316.46588
316.4604
316.46227
316.45681
316.45853
316.45309
316.45463
316.44921
316.45055
316.44515
316.44629
316.44089
316.44182
316.43643
316.43713
316.43174
316.43222
316.42682
316.42706
316.42166
316.49537
316.49263
316.4962
316.49206
316.49614
316.49184
316.49572
316.49113
316.49467
316.48983
316.49303
316.48797
316.49088
316.48565
316.48833
316.48298
316.48549
316.48008
316.48244
316.47701
316.47925
316.47382
316.47597
316.47057
316.47261
316.46725
316.4692
316.46389
316.46573
316.46047
316.4622
316.45699
316.45859
316.45342
316.45489
316.44976
316.45108
316.44598
316.44714
316.44206
316.44305
316.43799
316.43879
316.43375
316.43436
316.42933
316.42974
316.4247
316.42491
316.41987
316.49448
316.49221
316.49534
316.49152
316.49527
316.49119
316.49466
316.4902
316.49328
316.48852
316.49122
316.48624
316.48864
316.4835
316.48569
316.48045
316.48249
316.4772
316.47912
316.47383
316.47566
316.4704
316.47215
316.46693
316.46861
316.46345
316.46506
316.45997
316.4615
316.45646
316.45791
316.45294
316.45429
316.44937
316.45061
316.44575
316.44687
316.44205
316.44303
316.43825
316.43909
316.43434
316.43502
316.43029
316.43081
316.42609
316.42645
316.42173
316.42191
316.41719
316.49355
316.49179
316.49446
316.49096
316.49433
316.49042
316.49344
316.48903
316.49159
316.48685
316.48902
316.48406
316.48594
316.48084
316.48254
316.47736
316.47893
316.47374
316.47523
316.47006
316.47148
316.46636
316.46774
316.46268
316.46402
316.45904
316.46032
316.45542
316.45666
316.45184
316.45301
316.44827
316.44937
316.44469
316.44571
316.4411
316.44202
316.43746
316.43828
316.43377
316.43446
316.42999
316.43056
316.42611
316.42654
316.42211
316.4224
316.41798
316.41812
316.41369
316.49257
316.49138
316.49355
316.49035
316.49331
316.48949
316.49199
316.48756
316.48954
316.48476
316.48635
316.48136
316.4827
316.47761
316.47879
316.47367
316.47477
316.46966
316.47072
316.46565
316.46669
316.4617
316.46271
316.45781
316.45881
316.454
316.45498
316.45026
316.45122
316.4466
316.44751
316.44298
316.44385
316.43939
316.4402
316.43582
316.43656
316.43224
316.4329
316.42863
316.4292
316.42498
316.42544
316.42125
316.4216
316.41743
316.41767
316.4135
316.41362
316.40945
316.49152
316.49098
316.4926
316.4897
316.49215
316.48834
316.49024
316.48568
316.48704
316.48214
316.48312
316.47807
316.47884
316.47373
316.47441
316.46931
316.46995
316.46491
316.46555
316.46058
316.46124
316.45637
316.45705
316.45229
316.45298
316.44833
316.44902
316.44449
316.44518
316.44074
316.44142
316.43709
316.43774
316.4335
316.43411
316.42995
316.43052
316.42642
316.42693
316.42289
316.42334
316.41935
316.41971
316.41575