/*--------------------------------*- C++ -*----------------------------------*\
| =========                 |                                                 |
| \\      /  F ield         | OpenFOAM: The Open Source CFD Toolbox           |
|  \\    /   O peration     | Version:  2312                                  |
|   \\  /    A nd           | Website:  www.openfoam.com                      |
|    \\/     M anipulation  |                                                 |
\*---------------------------------------------------------------------------*/
FoamFile
{
    version     2.0;
    format      ascii;
    arch        "LSB;label=32;scalar=64";
    class       volSymmTensorField;
    location    "5";
    object      sigma_0;
}
// * * * * * * * * * * * * * * * * * * * * * * * * * * * * * * * * * * * * * //

dimensions      [0 2 -2 0 0 0 0];

internalField   nonuniform List<symmTensor> 
4000
(
(-3.8193742 -1.7534883 0 -0.75108794 0 0)
(-13.120821 -0.71716668 0 -0.012189217 0 0)
(-4.2858958 -0.37889343 0 -0.0024137305 0 0)
(-4.7242152 -0.39530233 0 0.00027118574 0 0)
(-4.2654901 -0.37777148 0 -0.00021115073 0 0)
(-4.1593177 -0.37222737 0 2.6255847e-05 0 0)
(-4.1921695 -0.37416311 0 -6.4642811e-05 0 0)
(-4.063721 -0.36791008 0 1.3937355e-05 0 0)
(-4.1285043 -0.3711596 0 -3.3583589e-05 0 0)
(-4.0516055 -0.36734804 0 2.2559313e-05 0 0)
(-4.1091608 -0.37024739 0 -2.5565793e-05 0 0)
(-4.0544892 -0.36749111 0 2.2808477e-05 0 0)
(-4.1025197 -0.36992827 0 -2.224552e-05 0 0)
(-4.0579405 -0.36766284 0 2.0788854e-05 0 0)
(-4.0990069 -0.36975414 0 -1.9734764e-05 0 0)
(-4.0605982 -0.36779766 0 1.8522325e-05 0 0)
(-4.0964202 -0.36962359 0 -1.7498547e-05 0 0)
(-4.0628065 -0.36791048 0 1.6450026e-05 0 0)
(-4.0942707 -0.36951449 0 -1.5526583e-05 0 0)
(-4.0647423 -0.3680093 0 1.4623413e-05 0 0)
(-4.0924139 -0.36942021 0 -1.3806607e-05 0 0)
(-4.0664559 -0.36809655 0 1.3023823e-05 0 0)
(-4.0907846 -0.36933761 0 -1.2305973e-05 0 0)
(-4.067977 -0.36817376 0 1.1623958e-05 0 0)
(-4.0893429 -0.36926469 0 -1.0994437e-05 0 0)
(-4.0693314 -0.36824231 0 1.039878e-05 0 0)
(-4.0880594 -0.36919994 0 -9.8475524e-06 0 0)
(-4.070542 -0.36830339 0 9.3273543e-06 0 0)
(-4.0869111 -0.36914217 0 -8.8458081e-06 0 0)
(-4.0716284 -0.36835802 0 8.3925339e-06 0 0)
(-4.085879 -0.3690904 0 -7.9734824e-06 0 0)
(-4.0726074 -0.3684071 0 7.5802721e-06 0 0)
(-4.0849473 -0.36904381 0 -7.21774e-06 0 0)
(-4.0734933 -0.36845136 0 6.8789664e-06 0 0)
(-4.0841023 -0.36900171 0 -6.567964e-06 0 0)
(-4.074299 -0.36849145 0 6.2789524e-06 0 0)
(-4.0833319 -0.36896349 0 -6.0152975e-06 0 0)
(-4.0750359 -0.36852794 0 5.7721466e-06 0 0)
(-4.0826252 -0.36892859 0 -5.5523551e-06 0 0)
(-4.0757144 -0.36856136 0 5.3518335e-06 0 0)
(-4.081972 -0.36889653 0 -5.1730704e-06 0 0)
(-4.076344 -0.36859217 0 5.0126487e-06 0 0)
(-4.0813632 -0.36886685 0 -4.8725005e-06 0 0)
(-4.0769345 -0.36862084 0 4.7510607e-06 0 0)
(-4.0807919 -0.36883923 0 -4.6472809e-06 0 0)
(-4.0774968 -0.36864789 0 4.561949e-06 0 0)
(-4.0802442 -0.36881312 0 -4.5142968e-06 0 0)
(-4.0779885 -0.36867171 0 4.3954403e-06 0 0)
(-4.0795128 -0.36877983 0 -4.6057223e-06 0 0)
(-4.0778504 -0.36866544 0 4.4415997e-06 0 0)
(-3.3682368 -1.6251115 0 -0.71535876 0 0)
(-10.730077 -0.69766008 0 -0.026590169 0 0)
(-5.0569433 -0.43040969 0 -0.0071611034 0 0)
(-4.3759252 -0.37872153 0 0.00027109603 0 0)
(-3.9644316 -0.36564714 0 -0.00052935259 0 0)
(-3.8375564 -0.35759192 0 3.6889442e-06 0 0)
(-3.8799704 -0.3603125 0 -0.00012181092 0 0)
(-3.7709631 -0.35444231 0 -1.9788891e-05 0 0)
(-3.8227699 -0.35725291 0 -4.5276117e-05 0 0)
(-3.7580532 -0.35374856 0 1.5698198e-05 0 0)
(-3.8050789 -0.35634002 0 -2.8067523e-05 0 0)
(-3.7595088 -0.35382066 0 2.2867194e-05 0 0)
(-3.7994015 -0.35604694 0 -2.3775594e-05 0 0)
(-3.7621985 -0.3539657 0 2.2060738e-05 0 0)
(-3.7965178 -0.35589195 0 -2.1235933e-05 0 0)
(-3.7643718 -0.35408669 0 1.9875952e-05 0 0)
(-3.7943752 -0.35577349 0 -1.8881288e-05 0 0)
(-3.766199 -0.35418955 0 1.770755e-05 0 0)
(-3.7925783 -0.35567326 0 -1.6754958e-05 0 0)
(-3.7678099 -0.35428023 0 1.5762091e-05 0 0)
(-3.7910212 -0.35558631 0 -1.4897753e-05 0 0)
(-3.7692411 -0.35436058 0 1.4047057e-05 0 0)
(-3.7896528 -0.35550999 0 -1.3279062e-05 0 0)
(-3.7705146 -0.35443187 0 1.2541573e-05 0 0)
(-3.7884402 -0.35544248 0 -1.1864743e-05 0 0)
(-3.7716505 -0.35449529 0 1.1221785e-05 0 0)
(-3.7873593 -0.35538245 0 -1.0627757e-05 0 0)
(-3.7726672 -0.35455188 0 1.0066543e-05 0 0)
(-3.7863915 -0.35532883 0 -9.5470489e-06 0 0)
(-3.7735804 -0.35460257 0 9.0581084e-06 0 0)
(-3.7855211 -0.35528073 0 -8.6058492e-06 0 0)
(-3.7744038 -0.35464813 0 8.1817675e-06 0 0)
(-3.784735 -0.35523743 0 -7.7905174e-06 0 0)
(-3.7751494 -0.35468923 0 7.4252724e-06 0 0)
(-3.7840219 -0.35519829 0 -7.0897712e-06 0 0)
(-3.7758277 -0.35472646 0 6.7783829e-06 0 0)
(-3.7833716 -0.35516275 0 -6.4942038e-06 0 0)
(-3.7764484 -0.35476037 0 6.2325411e-06 0 0)
(-3.7827748 -0.3551303 0 -5.9960258e-06 0 0)
(-3.7770203 -0.35479141 0 5.7807041e-06 0 0)
(-3.782223 -0.35510049 0 -5.5889863e-06 0 0)
(-3.7775515 -0.35482004 0 5.4175007e-06 0 0)
(-3.7817081 -0.35507289 0 -5.2680228e-06 0 0)
(-3.77805 -0.35484667 0 5.1408464e-06 0 0)
(-3.7812242 -0.35504717 0 -5.0292767e-06 0 0)
(-3.7785267 -0.35487186 0 4.9459352e-06 0 0)
(-3.7807657 -0.35502326 0 -4.9141197e-06 0 0)
(-3.7789674 -0.35489563 0 4.7081997e-06 0 0)
(-3.780204 -0.35499714 0 -5.3195117e-06 0 0)
(-3.7789641 -0.35489577 0 4.7128217e-06 0 0)
(-3.1429426 -1.5270215 0 -0.66132494 0 0)
(-8.9082568 -0.63752641 0 -0.030447239 0 0)
(-5.0156593 -0.443831 0 -0.010860286 0 0)
(-4.2562894 -0.37324583 0 2.3514101e-05 0 0)
(-3.7754589 -0.35757359 0 -0.00079189669 0 0)
(-3.6322124 -0.34787885 0 -1.531372e-05 0 0)
(-3.6731729 -0.35080544 0 -0.00015639581 0 0)
(-3.5787317 -0.34534076 0 -4.896013e-05 0 0)
(-3.6246321 -0.34793618 0 -5.1122088e-05 0 0)
(-3.5672253 -0.34463248 0 7.5263532e-06 0 0)
(-3.6084615 -0.34704183 0 -2.7407121e-05 0 0)
(-3.5681206 -0.34467027 0 2.0420176e-05 0 0)
(-3.6033114 -0.34676314 0 -2.2511348e-05 0 0)
(-3.5704087 -0.34480104 0 2.074556e-05 0 0)
(-3.6007694 -0.34661927 0 -2.0179776e-05 0 0)
(-3.572316 -0.34491416 0 1.8837177e-05 0 0)
(-3.5988864 -0.34650853 0 -1.7973221e-05 0 0)
(-3.5739283 -0.34501094 0 1.681528e-05 0 0)
(-3.5973013 -0.34641419 0 -1.5945635e-05 0 0)
(-3.5753524 -0.34509644 0 1.4982088e-05 0 0)
(-3.5959253 -0.34633218 0 -1.4174781e-05 0 0)
(-3.5766197 -0.34517235 0 1.3358217e-05 0 0)
(-3.5947149 -0.3462601 0 -1.2633597e-05 0 0)
(-3.5777489 -0.34523981 0 1.1929213e-05 0 0)
(-3.5936414 -0.34619627 0 -1.1287681e-05 0 0)
(-3.5787571 -0.34529989 0 1.0674749e-05 0 0)
(-3.5926839 -0.34613944 0 -1.011048e-05 0 0)
(-3.5796601 -0.34535357 0 9.5758043e-06 0 0)
(-3.5918261 -0.34608864 0 -9.0818039e-06 0 0)
(-3.5804716 -0.34540167 0 8.6160594e-06 0 0)
(-3.5910544 -0.34604304 0 -8.1857686e-06 0 0)
(-3.5812034 -0.34544493 0 7.7818315e-06 0 0)
(-3.5903574 -0.34600197 0 -7.4095105e-06 0 0)
(-3.5818661 -0.34548398 0 7.0616558e-06 0 0)
(-3.589725 -0.34596483 0 -6.7424054e-06 0 0)
(-3.5824689 -0.34551936 0 6.4459257e-06 0 0)
(-3.5891483 -0.3459311 0 -6.1756107e-06 0 0)
(-3.5830206 -0.34555159 0 5.9266285e-06 0 0)
(-3.5886189 -0.34590029 0 -5.7018607e-06 0 0)
(-3.5835287 -0.34558111 0 5.4972386e-06 0 0)
(-3.5881294 -0.34587197 0 -5.3154703e-06 0 0)
(-3.5840008 -0.34560834 0 5.152992e-06 0 0)
(-3.5876726 -0.34584573 0 -5.01195e-06 0 0)
(-3.5844438 -0.34563367 0 4.8933504e-06 0 0)
(-3.5872427 -0.34582124 0 -4.7872508e-06 0 0)
(-3.5848677 -0.34565764 0 4.7164437e-06 0 0)
(-3.5868364 -0.34579858 0 -4.6936764e-06 0 0)
(-3.5852663 -0.34568086 0 4.4633218e-06 0 0)
(-3.5863528 -0.34577566 0 -5.2899243e-06 0 0)
(-3.5853196 -0.34568244 0 4.8117598e-06 0 0)
(-2.9163285 -1.4208959 0 -0.6027101 0 0)
(-7.9083364 -0.61000035 0 -0.034011706 0 0)
(-4.9182465 -0.45451422 0 -0.014578001 0 0)
(-4.143747 -0.36786155 0 -0.00018433908 0 0)
(-3.6066424 -0.35021758 0 -0.0011187228 0 0)
(-3.4375606 -0.33835277 0 -4.050301e-05 0 0)
(-3.4731582 -0.34130049 0 -0.00019164666 0 0)
(-3.3906347 -0.33622454 0 -8.2091494e-05 0 0)
(-3.4322393 -0.33862017 0 -5.457745e-05 0 0)
(-3.3809 -0.33551633 0 -3.4368767e-06 0 0)
(-3.4175564 -0.33774873 0 -2.4566831e-05 0 0)
(-3.3813965 -0.33551983 0 1.5880747e-05 0 0)
(-3.4128307 -0.33748288 0 -1.9296165e-05 0 0)
(-3.3833387 -0.33563587 0 1.7629525e-05 0 0)
(-3.4105511 -0.33734928 0 -1.7418817e-05 0 0)
(-3.385025 -0.33574117 0 1.620445e-05 0 0)
(-3.4088713 -0.33724582 0 -1.5563968e-05 0 0)
(-3.3864635 -0.33583199 0 1.4510257e-05 0 0)
(-3.4074523 -0.33715707 0 -1.3806037e-05 0 0)
(-3.387737 -0.33591244 0 1.2948331e-05 0 0)
(-3.406218 -0.33707971 0 -1.2269204e-05 0 0)
(-3.388872 -0.335984 0 1.1553766e-05 0 0)
(-3.405131 -0.33701162 0 -1.0934099e-05 0 0)
(-3.3898845 -0.3360477 0 1.03214e-05 0 0)
(-3.4041663 -0.33695126 0 -9.768754e-06 0 0)
(-3.3907892 -0.3361045 0 9.2370223e-06 0 0)
(-3.4033056 -0.33689748 0 -8.7492673e-06 0 0)
(-3.3916 -0.33615529 0 8.2857894e-06 0 0)
(-3.4025342 -0.33684935 0 -7.8580667e-06 0 0)
(-3.3923286 -0.33620084 0 7.4543999e-06 0 0)
(-3.4018404 -0.33680614 0 -7.0815456e-06 0 0)
(-3.3929857 -0.33624183 0 6.731454e-06 0 0)
(-3.4012139 -0.33676721 0 -6.4087278e-06 0 0)
(-3.3935805 -0.33627883 0 6.1072626e-06 0 0)
(-3.4006458 -0.33673199 0 -5.8305336e-06 0 0)
(-3.3941215 -0.33631237 0 5.5736431e-06 0 0)
(-3.4001278 -0.33669999 0 -5.3393894e-06 0 0)
(-3.3946162 -0.33634293 0 5.1237498e-06 0 0)
(-3.3996528 -0.33667076 0 -4.9290949e-06 0 0)
(-3.3950719 -0.33637094 0 4.7520292e-06 0 0)
(-3.3992136 -0.33664387 0 -4.5948929e-06 0 0)
(-3.3954949 -0.33639679 0 4.4545671e-06 0 0)
(-3.398804 -0.33661894 0 -4.3329577e-06 0 0)
(-3.3958917 -0.33642085 0 4.232265e-06 0 0)
(-3.3984187 -0.33659564 0 -4.1385198e-06 0 0)
(-3.3962713 -0.33644363 0 4.0850636e-06 0 0)
(-3.3980558 -0.33657414 0 -4.0736243e-06 0 0)
(-3.3966343 -0.33646632 0 3.8058259e-06 0 0)
(-3.3976398 -0.33655422 0 -4.8664645e-06 0 0)
(-3.3967382 -0.33646967 0 4.4151192e-06 0 0)
(-2.8691717 -1.3716539 0 -0.5647909 0 0)
(-6.8932862 -0.57214519 0 -0.035908317 0 0)
(-4.7170725 -0.45873262 0 -0.017785364 0 0)
(-4.0215017 -0.36267696 0 -0.0004725914 0 0)
(-3.4521486 -0.34328986 0 -0.0014828818 0 0)
(-3.253942 -0.32901286 0 -6.6327323e-05 0 0)
(-3.2792696 -0.33174773 0 -0.00022252114 0 0)
(-3.2067144 -0.32704485 0 -0.00010993037 0 0)
(-3.2450706 -0.32929038 0 -5.673195e-05 0 0)
(-3.199096 -0.32638113 0 -1.3216809e-05 0 0)
(-3.2320364 -0.32846066 0 -2.1841856e-05 0 0)
(-3.1994384 -0.32636132 0 1.1760754e-05 0 0)
(-3.2277238 -0.32820816 0 -1.6263545e-05 0 0)
(-3.2011065 -0.32646497 0 1.474841e-05 0 0)
(-3.2256639 -0.32808376 0 -1.4815968e-05 0 0)
(-3.2026069 -0.32656341 0 1.3739563e-05 0 0)
(-3.2241548 -0.3279869 0 -1.3293716e-05 0 0)
(-3.2039001 -0.32664897 0 1.2342065e-05 0 0)
(-3.2228767 -0.32790324 0 -1.1789809e-05 0 0)
(-3.2050477 -0.32672491 0 1.1032413e-05 0 0)
(-3.2217626 -0.32783012 0 -1.047282e-05 0 0)
(-3.2060717 -0.32679256 0 9.8526018e-06 0 0)
(-3.2207804 -0.32776567 0 -9.3312815e-06 0 0)
(-3.2069861 -0.32685287 0 8.8048273e-06 0 0)
(-3.2199081 -0.32770848 0 -8.3356961e-06 0 0)
(-3.2078038 -0.32690671 0 7.880371e-06 0 0)
(-3.2191296 -0.32765747 0 -7.4646528e-06 0 0)
(-3.2085368 -0.32695488 0 7.0682114e-06 0 0)
(-3.2184319 -0.32761181 0 -6.7029832e-06 0 0)
(-3.2091955 -0.32699811 0 6.3577966e-06 0 0)
(-3.2178045 -0.3275708 0 -6.0391541e-06 0 0)
(-3.2097894 -0.32703701 0 5.739797e-06 0 0)
(-3.2172381 -0.32753384 0 -5.4638981e-06 0 0)
(-3.2103268 -0.32707214 0 5.2061281e-06 0 0)
(-3.2167248 -0.32750041 0 -4.9695316e-06 0 0)
(-3.2108153 -0.32710399 0 4.7498907e-06 0 0)
(-3.2162572 -0.32747003 0 -4.5496207e-06 0 0)
(-3.2112618 -0.327133 0 4.365279e-06 0 0)
(-3.2158285 -0.32744226 0 -4.1989017e-06 0 0)
(-3.2116726 -0.3271596 0 4.0475745e-06 0 0)
(-3.2154326 -0.32741673 0 -3.9133866e-06 0 0)
(-3.2120538 -0.32718416 0 3.793506e-06 0 0)
(-3.2150636 -0.32739303 0 -3.6897079e-06 0 0)
(-3.2124111 -0.32720703 0 3.6049243e-06 0 0)
(-3.2147166 -0.32737086 0 -3.5219191e-06 0 0)
(-3.2127524 -0.32722869 0 3.4833255e-06 0 0)
(-3.2143909 -0.32735043 0 -3.4764376e-06 0 0)
(-3.2130827 -0.32725071 0 3.1793952e-06 0 0)
(-3.2140297 -0.32733286 0 -4.4082436e-06 0 0)
(-3.2132206 -0.32725552 0 3.9857418e-06 0 0)
(-2.777781 -1.2852276 0 -0.50366794 0 0)
(-5.9180113 -0.53756942 0 -0.03708521 0 0)
(-4.4407684 -0.45617918 0 -0.020020585 0 0)
(-3.8371262 -0.35578197 0 -0.0009485193 0 0)
(-3.2992952 -0.33677467 0 -0.0019402395 0 0)
(-3.0818988 -0.32001114 0 -0.00010730989 0 0)
(-3.0935425 -0.32227457 0 -0.00025552142 0 0)
(-3.0277935 -0.31783266 0 -0.00013300965 0 0)
(-3.0632966 -0.31995548 0 -5.8189845e-05 0 0)
(-3.0220881 -0.3172343 0 -2.143412e-05 0 0)
(-3.0518227 -0.31917683 0 -1.9648963e-05 0 0)
(-3.0223784 -0.31719808 0 8.3928866e-06 0 0)
(-3.0479017 -0.31893762 0 -1.3774358e-05 0 0)
(-3.0238155 -0.31729068 0 1.2425188e-05 0 0)
(-3.0460311 -0.31882147 0 -1.2687329e-05 0 0)
(-3.0251506 -0.31738279 0 1.1737824e-05 0 0)
(-3.0446693 -0.31873064 0 -1.1442493e-05 0 0)
(-3.0263158 -0.31746351 0 1.0574408e-05 0 0)
(-3.0435147 -0.31865169 0 -1.0145712e-05 0 0)
(-3.0273528 -0.31753527 0 9.4689596e-06 0 0)
(-3.0425063 -0.31858251 0 -9.0069722e-06 0 0)
(-3.0282793 -0.31759931 0 8.4637998e-06 0 0)
(-3.0416163 -0.31852145 0 -8.0225322e-06 0 0)
(-3.0291074 -0.31765646 0 7.5662334e-06 0 0)
(-3.0408255 -0.31846721 0 -7.164985e-06 0 0)
(-3.0298483 -0.31770753 0 6.7720088e-06 0 0)
(-3.0401195 -0.3184188 0 -6.4148589e-06 0 0)
(-3.0305125 -0.31775325 0 6.0732279e-06 0 0)
(-3.0394869 -0.31837546 0 -5.7588546e-06 0 0)
(-3.0311095 -0.31779429 0 5.4615435e-06 0 0)
(-3.0389181 -0.31833652 0 -5.187054e-06 0 0)
(-3.0316475 -0.31783123 0 4.9292618e-06 0 0)
(-3.0384049 -0.31830142 0 -4.6915225e-06 0 0)
(-3.0321342 -0.31786458 0 4.4695594e-06 0 0)
(-3.03794 -0.31826967 0 -4.2656691e-06 0 0)
(-3.0325763 -0.31789482 0 4.0765438e-06 0 0)
(-3.0375168 -0.31824082 0 -3.903952e-06 0 0)
(-3.0329802 -0.31792237 0 3.7452227e-06 0 0)
(-3.0371291 -0.31821446 0 -3.6018353e-06 0 0)
(-3.0333515 -0.31794763 0 3.471518e-06 0 0)
(-3.0367712 -0.31819021 0 -3.3559101e-06 0 0)
(-3.0336958 -0.31797096 0 3.2526077e-06 0 0)
(-3.036438 -0.3181677 0 -3.1631119e-06 0 0)
(-3.0340182 -0.31799268 0 3.0909536e-06 0 0)
(-3.0361248 -0.31814661 0 -3.0162252e-06 0 0)
(-3.0343258 -0.31801325 0 2.9894838e-06 0 0)
(-3.0358316 -0.3181272 0 -2.9831896e-06 0 0)
(-3.0346263 -0.31803454 0 2.6625856e-06 0 0)
(-3.0355173 -0.31811157 0 -4.0088558e-06 0 0)
(-3.0347871 -0.31804064 0 3.5986065e-06 0 0)
(-2.7553758 -1.2325243 0 -0.46515377 0 0)
(-4.931633 -0.50547193 0 -0.039152462 0 0)
(-4.1669281 -0.45255533 0 -0.021276912 0 0)
(-3.5795459 -0.34658603 0 -0.0018198248 0 0)
(-3.1132789 -0.3288367 0 -0.002400681 0 0)
(-2.9087457 -0.31083015 0 -0.0001458456 0 0)
(-2.9123455 -0.31274717 0 -0.00028611164 0 0)
(-2.8534186 -0.30858099 0 -0.00015017091 0 0)
(-2.88654 -0.31060415 0 -5.8839451e-05 0 0)
(-2.8497987 -0.30807291 0 -2.8226068e-05 0 0)
(-2.8767925 -0.30989332 0 -1.7789611e-05 0 0)
(-2.8502216 -0.30803026 0 5.5841311e-06 0 0)
(-2.873304 -0.30966944 0 -1.1665134e-05 0 0)
(-2.8514929 -0.30811389 0 1.0500449e-05 0 0)
(-2.8716138 -0.30956122 0 -1.0890267e-05 0 0)
(-2.8526859 -0.30820024 0 1.006453e-05 0 0)
(-2.870384 -0.30947607 0 -9.884779e-06 0 0)
(-2.8537375 -0.30827644 0 9.0893676e-06 0 0)
(-2.8693397 -0.30940159 0 -8.7630442e-06 0 0)
(-2.8546762 -0.30834429 0 8.1536111e-06 0 0)
(-2.8684259 -0.30933614 0 -7.7736538e-06 0 0)
(-2.8555157 -0.3084049 0 7.2947545e-06 0 0)
(-2.8676185 -0.30927829 0 -6.9208048e-06 0 0)
(-2.8562666 -0.30845905 0 6.523259e-06 0 0)
(-2.8669007 -0.30922686 0 -6.179082e-06 0 0)
(-2.8569387 -0.30850748 0 5.8384751e-06 0 0)
(-2.8662597 -0.30918094 0 -5.5305942e-06 0 0)
(-2.8575413 -0.30855086 0 5.2350896e-06 0 0)
(-2.8656855 -0.30913981 0 -4.9635341e-06 0 0)
(-2.8580828 -0.3085898 0 4.7065627e-06 0 0)
(-2.8651694 -0.30910286 0 -4.4692768e-06 0 0)
(-2.8585707 -0.30862485 0 4.2465323e-06 0 0)
(-2.8647039 -0.30906956 0 -4.0409618e-06 0 0)
(-2.8590118 -0.30865649 0 3.8492009e-06 0 0)
(-2.8642825 -0.30903944 0 -3.6728861e-06 0 0)
(-2.8594124 -0.30868517 0 3.5094989e-06 0 0)
(-2.863899 -0.30901207 0 -3.3602383e-06 0 0)
(-2.859778 -0.30871131 0 3.2231017e-06 0 0)
(-2.863548 -0.30898706 0 -3.0990783e-06 0 0)
(-2.8601141 -0.30873528 0 2.9864542e-06 0 0)
(-2.8632243 -0.30896404 0 -2.886466e-06 0 0)
(-2.8604255 -0.30875742 0 2.7970802e-06 0 0)
(-2.8629229 -0.30894268 0 -2.7195837e-06 0 0)
(-2.8607167 -0.30877804 0 2.6578591e-06 0 0)
(-2.8626398 -0.30892264 0 -2.5900674e-06 0 0)
(-2.8609942 -0.30879754 0 2.5732292e-06 0 0)
(-2.8623755 -0.3089042 0 -2.5655396e-06 0 0)
(-2.8612676 -0.30881805 0 2.2284309e-06 0 0)
(-2.8621015 -0.30889021 0 -3.6488071e-06 0 0)
(-2.8614429 -0.30882528 0 3.2467536e-06 0 0)
(-2.775313 -1.1913529 0 -0.43313279 0 0)
(-3.9920556 -0.48229906 0 -0.044832567 0 0)
(-3.8348148 -0.44019871 0 -0.021234639 0 0)
(-3.3468764 -0.34643777 0 -0.0046033203 0 0)
(-2.9507977 -0.32276628 0 -0.0030763859 0 0)
(-2.7457285 -0.30202259 0 -0.00022858692 0 0)
(-2.7399624 -0.30337533 0 -0.00032534519 0 0)
(-2.6843381 -0.2993079 0 -0.00016390583 0 0)
(-2.7152415 -0.30125038 0 -5.8608551e-05 0 0)
(-2.6824489 -0.29890178 0 -3.3768392e-05 0 0)
(-2.7070032 -0.30061168 0 -1.6088615e-05 0 0)
(-2.683024 -0.29885913 0 3.1663938e-06 0 0)
(-2.703924 -0.3004037 0 -9.8054558e-06 0 0)
(-2.6841623 -0.29893512 0 8.8353119e-06 0 0)
(-2.702398 -0.30030288 0 -9.3083017e-06 0 0)
(-2.6852295 -0.29901606 0 8.6043991e-06 0 0)
(-2.7012853 -0.30022301 0 -8.5156703e-06 0 0)
(-2.6861791 -0.299088 0 7.7870806e-06 0 0)
(-2.7003395 -0.30015274 0 -7.5483776e-06 0 0)
(-2.6870296 -0.29915213 0 6.9981599e-06 0 0)
(-2.6995106 -0.30009084 0 -6.6898491e-06 0 0)
(-2.6877909 -0.29920949 0 6.2671108e-06 0 0)
(-2.6987776 -0.30003605 0 -5.9522176e-06 0 0)
(-2.6884723 -0.29926079 0 5.6061051e-06 0 0)
(-2.6981256 -0.29998731 0 -5.3120696e-06 0 0)
(-2.6890824 -0.29930669 0 5.017415e-06 0 0)
(-2.6975434 -0.29994378 0 -4.7528712e-06 0 0)
(-2.6896294 -0.29934781 0 4.497909e-06 0 0)
(-2.6970219 -0.29990479 0 -4.2640519e-06 0 0)
(-2.6901209 -0.29938472 0 4.0425744e-06 0 0)
(-2.6965533 -0.29986976 0 -3.8380644e-06 0 0)
(-2.6905635 -0.29941795 0 3.6461752e-06 0 0)
(-2.696131 -0.29983819 0 -3.468953e-06 0 0)
(-2.6909635 -0.29944794 0 3.3037872e-06 0 0)
(-2.6957488 -0.29980964 0 -3.1517734e-06 0 0)
(-2.6913266 -0.29947513 0 3.0110487e-06 0 0)
(-2.6954012 -0.2997837 0 -2.8823441e-06 0 0)
(-2.6916578 -0.2994999 0 2.7642136e-06 0 0)
(-2.6950832 -0.29975999 0 -2.6572422e-06 0 0)
(-2.6919621 -0.29952261 0 2.5601817e-06 0 0)
(-2.6947901 -0.29973817 0 -2.4739323e-06 0 0)
(-2.6922439 -0.2995436 0 2.396768e-06 0 0)
(-2.6945175 -0.29971792 0 -2.3298276e-06 0 0)
(-2.6925072 -0.29956316 0 2.2771374e-06 0 0)
(-2.6942614 -0.29969889 0 -2.2156124e-06 0 0)
(-2.6927577 -0.29958164 0 2.2072681e-06 0 0)
(-2.6940227 -0.29968139 0 -2.1973958e-06 0 0)
(-2.6930063 -0.29960131 0 1.8501105e-06 0 0)
(-2.6937837 -0.29966877 0 -3.3092785e-06 0 0)
(-2.6931899 -0.2996095 0 2.9182505e-06 0 0)
(-2.8194527 -1.1194452 0 -0.37755117 0 0)
(-3.300165 -0.45664614 0 -0.046466955 0 0)
(-3.4914812 -0.41453823 0 -0.018512674 0 0)
(-3.0513166 -0.3364801 0 -0.0061239961 0 0)
(-2.7705896 -0.31394183 0 -0.0033295953 0 0)
(-2.5802843 -0.29276069 0 -0.0002952272 0 0)
(-2.5709503 -0.29388868 0 -0.00035841187 0 0)
(-2.5204379 -0.29002947 0 -0.00017245361 0 0)
(-2.5490072 -0.2918835 0 -5.7388962e-05 0 0)
(-2.5199211 -0.28971741 0 -3.7938405e-05 0 0)
(-2.5423477 -0.29132892 0 -1.4394616e-05 0 0)
(-2.5207532 -0.28968321 0 1.1066724e-06 0 0)
(-2.5397174 -0.2911394 0 -8.1269758e-06 0 0)
(-2.5218221 -0.28975394 0 7.3780618e-06 0 0)
(-2.5383625 -0.29104614 0 -7.8919638e-06 0 0)
(-2.5227892 -0.28983018 0 7.311753e-06 0 0)
(-2.5373603 -0.29097136 0 -7.2923265e-06 0 0)
(-2.5236499 -0.28989818 0 6.6277232e-06 0 0)
(-2.5365041 -0.29090512 0 -6.4639545e-06 0 0)
(-2.5244215 -0.28995883 0 5.967347e-06 0 0)
(-2.5357522 -0.29084659 0 -5.7221934e-06 0 0)
(-2.5251126 -0.29001311 0 5.3495374e-06 0 0)
(-2.5350864 -0.29079473 0 -5.0871725e-06 0 0)
(-2.5257312 -0.29006167 0 4.7868825e-06 0 0)
(-2.5344941 -0.29074856 0 -4.5375883e-06 0 0)
(-2.5262852 -0.29010515 0 4.2839326e-06 0 0)
(-2.5339652 -0.29070732 0 -4.0581237e-06 0 0)
(-2.5267818 -0.2901441 0 3.83938e-06 0 0)
(-2.5334915 -0.29067038 0 -3.6392517e-06 0 0)
(-2.5272279 -0.29017907 0 3.449507e-06 0 0)
(-2.5330661 -0.2906372 0 -3.2743368e-06 0 0)
(-2.5276295 -0.29021053 0 3.1100423e-06 0 0)
(-2.5326829 -0.2906073 0 -2.9582001e-06 0 0)
(-2.5279923 -0.29023893 0 2.8168194e-06 0 0)
(-2.5323362 -0.29058027 0 -2.6865595e-06 0 0)
(-2.5283214 -0.29026467 0 2.5660984e-06 0 0)
(-2.5320211 -0.29055571 0 -2.4557895e-06 0 0)
(-2.5286215 -0.29028813 0 2.3546462e-06 0 0)
(-2.531733 -0.29053326 0 -2.2629261e-06 0 0)
(-2.5288971 -0.29030964 0 2.1797674e-06 0 0)
(-2.5314676 -0.2905126 0 -2.1057914e-06 0 0)
(-2.5291521 -0.29032952 0 2.0395305e-06 0 0)
(-2.5312209 -0.29049341 0 -1.9820224e-06 0 0)
(-2.5293902 -0.29034804 0 1.9372745e-06 0 0)
(-2.5309892 -0.29047537 0 -1.8815615e-06 0 0)
(-2.5296165 -0.29036553 0 1.8804576e-06 0 0)
(-2.5307735 -0.29045876 0 -1.8681346e-06 0 0)
(-2.5298424 -0.29038434 0 1.516169e-06 0 0)
(-2.5305649 -0.29044731 0 -2.9843083e-06 0 0)
(-2.5300296 -0.29039333 0 2.6110355e-06 0 0)
(-2.8599133 -1.0614653 0 -0.33616055 0 0)
(-2.8754427 -0.42832343 0 -0.045814627 0 0)
(-3.1917939 -0.4130056 0 -0.023717034 0 0)
(-2.7677346 -0.33082285 0 -0.0088885615 0 0)
(-2.5976236 -0.30544504 0 -0.0035160169 0 0)
(-2.4212932 -0.28385423 0 -0.0004409449 0 0)
(-2.4082788 -0.28444879 0 -0.00039400675 0 0)
(-2.3618911 -0.28073804 0 -0.00017605009 0 0)
(-2.3881938 -0.28251311 0 -5.4833571e-05 0 0)
(-2.3624288 -0.28052326 0 -4.0642782e-05 0 0)
(-2.3829273 -0.28204711 0 -1.2568734e-05 0 0)
(-2.3634879 -0.28050383 0 -5.9816672e-07 0 0)
(-2.3807038 -0.28187712 0 -6.5875449e-06 0 0)
(-2.3645007 -0.28057084 0 6.102808e-06 0 0)
(-2.3795044 -0.28179116 0 -6.6181177e-06 0 0)
(-2.3653792 -0.28064278 0 6.1622239e-06 0 0)
(-2.3786013 -0.28172114 0 -6.1948936e-06 0 0)
(-2.3661597 -0.28070707 0 5.5910363e-06 0 0)
(-2.377826 -0.28165868 0 -5.4917272e-06 0 0)
(-2.3668601 -0.28076442 0 5.0438055e-06 0 0)
(-2.3771437 -0.28160336 0 -4.8545788e-06 0 0)
(-2.3674875 -0.28081576 0 4.5268133e-06 0 0)
(-2.376539 -0.28155429 0 -4.3113845e-06 0 0)
(-2.3680491 -0.28086172 0 4.052127e-06 0 0)
(-2.3760009 -0.28151059 0 -3.8429451e-06 0 0)
(-2.3685521 -0.28090287 0 3.6260483e-06 0 0)
(-2.3755205 -0.28147155 0 -3.4350223e-06 0 0)
(-2.3690029 -0.28093974 0 3.2487854e-06 0 0)
(-2.3750904 -0.28143659 0 -3.0789694e-06 0 0)
(-2.3694076 -0.28097283 0 2.9177209e-06 0 0)
(-2.3747043 -0.28140518 0 -2.7689269e-06 0 0)
(-2.3697719 -0.2810026 0 2.6294159e-06 0 0)
(-2.3743566 -0.2813769 0 -2.5003893e-06 0 0)
(-2.3701008 -0.28102947 0 2.3803683e-06 0 0)
(-2.3740423 -0.28135132 0 -2.2696592e-06 0 0)
(-2.370399 -0.28105382 0 2.16739e-06 0 0)
(-2.3737568 -0.28132809 0 -2.0736077e-06 0 0)
(-2.3706709 -0.281076 0 1.9877081e-06 0 0)
(-2.3734958 -0.28130686 0 -1.9096822e-06 0 0)
(-2.3709203 -0.28109635 0 1.8389918e-06 0 0)
(-2.3732555 -0.28128731 0 -1.7760238e-06 0 0)
(-2.3711511 -0.28111516 0 1.7195342e-06 0 0)
(-2.3730323 -0.28126915 0 -1.6704878e-06 0 0)
(-2.3713665 -0.28113268 0 1.6327532e-06 0 0)
(-2.3728227 -0.28125207 0 -1.5824883e-06 0 0)
(-2.3715707 -0.28114922 0 1.587448e-06 0 0)
(-2.3726277 -0.28123631 0 -1.5727492e-06 0 0)
(-2.3717759 -0.28116717 0 1.2208464e-06 0 0)
(-2.3724458 -0.28122586 0 -2.6725786e-06 0 0)
(-2.3719632 -0.28117682 0 2.3254894e-06 0 0)
(-2.9064398 -1.0545655 0 -0.32753177 0 0)
(-2.5309939 -0.40719636 0 -0.045515525 0 0)
(-2.893186 -0.38962221 0 -0.021826516 0 0)
(-2.5166549 -0.31599982 0 -0.0087405447 0 0)
(-2.4300554 -0.29451188 0 -0.0031421753 0 0)
(-2.2733744 -0.27505187 0 -0.00057875477 0 0)
(-2.2551217 -0.27512876 0 -0.00041866196 0 0)
(-2.2092425 -0.2714318 0 -0.00017119104 0 0)
(-2.2330484 -0.27314284 0 -4.8499129e-05 0 0)
(-2.210037 -0.27131848 0 -4.0974473e-05 0 0)
(-2.2287264 -0.27276503 0 -1.0141405e-05 0 0)
(-2.2112202 -0.27132009 0 -1.8181272e-06 0 0)
(-2.2268523 -0.27261592 0 -5.1011801e-06 0 0)
(-2.2121941 -0.27138537 0 5.008744e-06 0 0)
(-2.2258047 -0.2725375 0 -5.4577814e-06 0 0)
(-2.2130026 -0.27145374 0 5.1400646e-06 0 0)
(-2.2249972 -0.27247216 0 -5.2043672e-06 0 0)
(-2.2137143 -0.27151467 0 4.6613126e-06 0 0)
(-2.2242972 -0.27241336 0 -4.6160323e-06 0 0)
(-2.2143512 -0.27156893 0 4.2133745e-06 0 0)
(-2.2236789 -0.27236111 0 -4.073459e-06 0 0)
(-2.2149209 -0.2716175 0 3.7863595e-06 0 0)
(-2.2231301 -0.27231471 0 -3.6129555e-06 0 0)
(-2.2154308 -0.27166097 0 3.3906753e-06 0 0)
(-2.2226416 -0.27227338 0 -3.2175959e-06 0 0)
(-2.2158871 -0.27169988 0 3.0338187e-06 0 0)
(-2.2222055 -0.27223645 0 -2.8741593e-06 0 0)
(-2.2162961 -0.27173475 0 2.7172234e-06 0 0)
(-2.2218152 -0.27220339 0 -2.574762e-06 0 0)
(-2.2166631 -0.27176603 0 2.4392042e-06 0 0)
(-2.2214651 -0.2721737 0 -2.3142161e-06 0 0)
(-2.2169932 -0.27179417 0 2.1970468e-06 0 0)
(-2.2211499 -0.27214696 0 -2.0886088e-06 0 0)
(-2.2172912 -0.27181956 0 1.9878381e-06 0 0)
(-2.2208651 -0.27212279 0 -1.8947659e-06 0 0)
(-2.2175613 -0.27184257 0 1.8088866e-06 0 0)
(-2.2206065 -0.27210084 0 -1.7300073e-06 0 0)
(-2.2178074 -0.27186354 0 1.657836e-06 0 0)
(-2.2203702 -0.27208077 0 -1.5921534e-06 0 0)
(-2.2180332 -0.27188277 0 1.5326875e-06 0 0)
(-2.2201528 -0.2720623 0 -1.4796323e-06 0 0)
(-2.2182419 -0.27190054 0 1.4319377e-06 0 0)
(-2.2199509 -0.27204514 0 -1.3905146e-06 0 0)
(-2.2184366 -0.27191711 0 1.3590038e-06 0 0)
(-2.2197614 -0.27202897 0 -1.3138987e-06 0 0)
(-2.2186208 -0.27193273 0 1.3238318e-06 0 0)
(-2.2195851 -0.27201404 0 -1.307096e-06 0 0)
(-2.2188069 -0.2719498 0 9.5938938e-07 0 0)
(-2.2194266 -0.27200443 0 -2.3731441e-06 0 0)
(-2.2189918 -0.27195999 0 2.0614838e-06 0 0)
(-3.0060541 -0.96491522 0 -0.26182034 0 0)
(-2.2939401 -0.38762356 0 -0.042686133 0 0)
(-2.676115 -0.37701581 0 -0.022004215 0 0)
(-2.3389786 -0.30724428 0 -0.0092635391 0 0)
(-2.2780045 -0.28469956 0 -0.00291922 0 0)
(-2.1258659 -0.26589834 0 -0.00065467554 0 0)
(-2.1056969 -0.26565356 0 -0.00040873258 0 0)
(-2.0624863 -0.26213846 0 -0.00015508326 0 0)
(-2.0833937 -0.26376903 0 -3.9124013e-05 0 0)
(-2.0628503 -0.26210691 0 -3.9105597e-05 0 0)
(-2.0798185 -0.26348385 0 -7.0353055e-06 0 0)
(-2.0640316 -0.26213345 0 -2.5368697e-06 0 0)
(-2.0782003 -0.26335649 0 -3.6100222e-06 0 0)
(-2.0649392 -0.26219821 0 4.0939113e-06 0 0)
(-2.0772724 -0.26328541 0 -4.3843772e-06 0 0)
(-2.0656756 -0.26226338 0 4.2314799e-06 0 0)
(-2.0765464 -0.26322447 0 -4.3043261e-06 0 0)
(-2.0663223 -0.26232112 0 3.824168e-06 0 0)
(-2.0759135 -0.26316912 0 -3.8234221e-06 0 0)
(-2.0669006 -0.26237244 0 3.4632861e-06 0 0)
(-2.0753533 -0.26311979 0 -3.3670257e-06 0 0)
(-2.0674177 -0.26241835 0 3.1169751e-06 0 0)
(-2.0748556 -0.26307595 0 -2.9814198e-06 0 0)
(-2.0678801 -0.26245944 0 2.7926266e-06 0 0)
(-2.0744125 -0.26303689 0 -2.6522253e-06 0 0)
(-2.0682938 -0.26249621 0 2.4984265e-06 0 0)
(-2.074017 -0.263002 0 -2.3672015e-06 0 0)
(-2.0686644 -0.26252915 0 2.2367927e-06 0 0)
(-2.0736633 -0.26297076 0 -2.1191373e-06 0 0)
(-2.0689969 -0.26255869 0 2.0068382e-06 0 0)
(-2.073346 -0.26294273 0 -1.9034352e-06 0 0)
(-2.0692959 -0.26258526 0 1.8064881e-06 0 0)
(-2.0730605 -0.26291748 0 -1.7167119e-06 0 0)
(-2.0695656 -0.26260924 0 1.6333601e-06 0 0)
(-2.0728027 -0.26289466 0 -1.5562679e-06 0 0)
(-2.06981 -0.26263096 0 1.485214e-06 0 0)
(-2.0725687 -0.26287394 0 -1.4198325e-06 0 0)
(-2.0700326 -0.26265075 0 1.3600752e-06 0 0)
(-2.072355 -0.26285499 0 -1.3055681e-06 0 0)
(-2.0702367 -0.2626689 0 1.2562496e-06 0 0)
(-2.0721585 -0.26283755 0 -1.2121631e-06 0 0)
(-2.0704253 -0.26268568 0 1.1724227e-06 0 0)
(-2.0719761 -0.26282134 0 -1.1379002e-06 0 0)
(-2.0706011 -0.26270133 0 1.1119447e-06 0 0)
(-2.0718049 -0.26280607 0 -1.0717692e-06 0 0)
(-2.0707672 -0.26271607 0 1.085673e-06 0 0)
(-2.0716456 -0.26279193 0 -1.0674223e-06 0 0)
(-2.0709357 -0.26273225 0 7.2751363e-07 0 0)
(-2.0715077 -0.26278305 0 -2.0850523e-06 0 0)
(-2.0711162 -0.26274287 0 1.8183803e-06 0 0)
(-3.0383414 -0.9583266 0 -0.2557921 0 0)
(-2.1400741 -0.36974352 0 -0.04155747 0 0)
(-2.4889003 -0.35684789 0 -0.01983614 0 0)
(-2.1809028 -0.29441654 0 -0.0086262359 0 0)
(-2.1328785 -0.2739657 0 -0.0025407874 0 0)
(-1.9890802 -0.25666563 0 -0.00063368379 0 0)
(-1.9658776 -0.25628439 0 -0.00036700527 0 0)
(-1.9221798 -0.25285796 0 -0.00012816501 0 0)
(-1.9396283 -0.25440907 0 -2.5249356e-05 0 0)
(-1.9209911 -0.25289275 0 -3.4361139e-05 0 0)
(-1.9362339 -0.25420544 0 -2.8014735e-06 0 0)
(-1.9219326 -0.25294457 0 -2.6011548e-06 0 0)
(-1.9347322 -0.25409872 0 -2.01905e-06 0 0)
(-1.9227336 -0.25300929 0 3.3738957e-06 0 0)
(-1.9338934 -0.25403459 0 -3.3685139e-06 0 0)
(-1.9233988 -0.25307159 0 3.4292752e-06 0 0)
(-1.9332401 -0.25397788 0 -3.4787041e-06 0 0)
(-1.9239868 -0.2531264 0 3.0694096e-06 0 0)
(-1.9326692 -0.25392587 0 -3.1019281e-06 0 0)
(-1.9245122 -0.25317497 0 2.7836184e-06 0 0)
(-1.9321626 -0.25387936 0 -2.7253147e-06 0 0)
(-1.9249812 -0.25321835 0 2.5096366e-06 0 0)
(-1.9317119 -0.25383798 0 -2.4081174e-06 0 0)
(-1.9254002 -0.25325715 0 2.2499009e-06 0 0)
(-1.9313106 -0.25380111 0 -2.1391642e-06 0 0)
(-1.9257749 -0.25329187 0 2.0126397e-06 0 0)
(-1.9309524 -0.25376817 0 -1.9072917e-06 0 0)
(-1.9261104 -0.25332295 0 1.8009964e-06 0 0)
(-1.9306322 -0.2537387 0 -1.7059252e-06 0 0)
(-1.9264112 -0.25335083 0 1.6147602e-06 0 0)
(-1.9303451 -0.25371225 0 -1.5310044e-06 0 0)
(-1.9266816 -0.25337589 0 1.4524252e-06 0 0)
(-1.9300869 -0.25368844 0 -1.3796285e-06 0 0)
(-1.9269254 -0.2533985 0 1.3120924e-06 0 0)
(-1.9298538 -0.25366692 0 -1.2495334e-06 0 0)
(-1.9271463 -0.25341898 0 1.1919362e-06 0 0)
(-1.9296423 -0.25364737 0 -1.1388263e-06 0 0)
(-1.9273473 -0.25343764 0 1.0903334e-06 0 0)
(-1.9294493 -0.25362951 0 -1.0459839e-06 0 0)
(-1.9275316 -0.25345476 0 1.0058722e-06 0 0)
(-1.9292718 -0.25361306 0 -9.6993269e-07 0 0)
(-1.9277019 -0.25347059 0 9.3741534e-07 0 0)
(-1.9291072 -0.25359777 0 -9.09164e-07 0 0)
(-1.9278604 -0.25348535 0 8.8819216e-07 0 0)
(-1.9289527 -0.25358335 0 -8.527536e-07 0 0)