/*--------------------------------*- C++ -*----------------------------------*\
| =========                 |                                                 |
| \\      /  F ield         | OpenFOAM: The Open Source CFD Toolbox           |
|  \\    /   O peration     | Version:  2312                                  |
|   \\  /    A nd           | Website:  www.openfoam.com                      |
|    \\/     M anipulation  |                                                 |
\*---------------------------------------------------------------------------*/
FoamFile
{
    version     2.0;
    format      ascii;
    arch        "LSB;label=32;scalar=64";
    class       volScalarField;
    location    "5";
    object      T;
}
// * * * * * * * * * * * * * * * * * * * * * * * * * * * * * * * * * * * * * //

dimensions      [0 0 0 1 0 0 0];

internalField   nonuniform List<scalar> 
4000
(
332.13889
330.7866
330.51948
330.444
330.35688
330.29766
330.24047
330.19
330.14114
330.09599
330.05084
330.00842
329.96557
329.92472
329.88348
329.84365
329.80361
329.76447
329.72534
329.68671
329.64831
329.61004
329.57223
329.53424
329.49692
329.45913
329.42222
329.38459
329.34805
329.31053
329.2743
329.23686
329.20092
329.16354
329.12786
329.09051
329.05508
329.01772
328.98253
328.94515
328.91021
328.87277
328.83808
328.80054
328.76614
328.72842
328.69441
328.65636
328.623
328.58366
334.43205
332.2507
331.53106
331.37423
331.18392
331.07666
330.97566
330.89467
330.81858
330.75357
330.6886
330.63176
330.57368
330.52156
330.46832
330.41925
330.36958
330.3226
330.27568
330.23021
330.18546
330.14109
330.09811
330.05456
330.01305
329.97012
329.92985
329.88739
329.8482
329.80609
329.76785
329.72598
329.6886
329.64688
329.6103
329.56866
329.53283
329.49119
329.45608
329.41437
329.37999
329.3381
329.30449
329.26229
329.22955
329.18683
329.15522
329.11151
329.08187
329.03446
335.84844
333.65903
332.53413
332.29796
332.00717
331.85244
331.70828
331.59694
331.49396
331.40914
331.32458
331.25331
331.18018
331.11677
331.05165
330.99332
330.93413
330.87929
330.82466
330.77232
330.72129
330.6708
330.6227
330.57359
330.52793
330.47984
330.43625
330.38895
330.34715
330.30042
330.26021
330.21388
330.1751
330.12904
330.09157
330.04564
330.00942
329.9635
329.92848
329.88243
329.84862
329.80228
329.76976
329.7229
329.69183
329.64411
329.61491
329.56554
329.5396
329.48453
336.78461
334.96142
333.51405
333.20621
332.82101
332.6207
332.43497
332.29391
332.16486
332.06044
331.95681
331.87122
331.7834
331.70873
331.63202
331.56442
331.49593
331.43321
331.37105
331.31183
331.25467
331.19803
331.14494
331.09023
331.04053
330.98726
330.94044
330.88827
330.84394
330.79257
330.75046
330.69966
330.65953
330.6091
330.57081
330.52057
330.48401
330.43378
330.3989
330.34849
330.3153
330.26449
330.23309
330.18157
330.15219
330.09947
330.07268
330.0177
329.99535
329.93322
337.4337
336.11866
334.45196
334.087
333.61775
333.37561
333.15119
332.98173
332.82801
332.70455
332.58273
332.48309
332.3812
332.29542
332.20757
332.13079
332.05336
331.9828
331.91339
331.8473
331.78425
331.72146
331.66357
331.60326
331.54968
331.49123
331.44131
331.38426
331.33752
331.28151
331.23758
331.1823
331.14091
331.08612
331.04706
330.99252
330.95566
330.90114
330.86643
330.81169
330.77914
330.72388
330.69361
330.63746
330.60977
330.5521
330.52769
330.46721
330.44824
330.37976
337.89714
337.10168
335.32795
334.92633
334.38814
334.11012
333.85136
333.65574
333.47946
333.33797
333.19926
333.08611
332.97105
332.87448
332.77615
332.69038
332.60452
332.52623
332.44998
332.37711
332.30848
332.2396
332.17718
332.1113
332.05406
331.99045
331.93762
331.87571
331.82671
331.76607
331.72046
331.66073
331.61817
331.55904
331.51931
331.46048
331.42341
331.36461
331.33014
331.27108
331.23922
331.17955
331.15044
331.0897
331.06369
331.00116
330.97906
330.91325
330.89739
330.82332
338.23566
337.89982
336.12457
335.70966
335.12222
334.81638
334.52916
334.31068
334.11471
333.9567
333.80288
333.67707
333.55006
333.44323
333.33531
333.24089
333.14727
333.06151
332.97893
332.89944
332.82566
332.75081
332.6842
332.61285
332.55223
332.48353
332.42803
332.36133
332.31026
332.24505
332.19792
332.13378
332.0902
332.02676
331.98647
331.9234
331.88622
331.82319
331.78903
331.7257
331.69458
331.63056
331.60263
331.53739
331.51304
331.44577
331.42589
331.355
331.34191
331.26298
338.48746
338.51552
336.82853
336.42367
335.81015
335.48626
335.17791
334.94088
334.72886
334.55645
334.38974
334.25251
334.11509
333.99876
333.88238
333.77984
333.67931
333.58642
333.4982
333.41235
333.33394
333.25333
333.18296
333.1063
333.04266
332.969
332.9111
332.83972
332.78683
332.71715
332.6687
332.60023
332.5558
332.48814
332.44742
332.38019
332.34299
332.27583
332.24204
332.17455
332.1442
332.07595
332.04921
331.9796
331.95688
331.88506
331.86726
331.79163
331.78089
331.69781
338.67838
338.9646
337.43301
337.05799
336.44324
336.11201
335.79098
335.54063
335.31687
335.13275
334.95585
334.8088
334.66281
334.53804
334.41455
334.30459
334.19817
334.09869
334.0056
333.91379
333.83139
333.74532
333.67169
333.58997
333.52371
333.4453
333.38535
333.30946
333.25502
333.18101
333.13148
333.05882
333.01372
332.94198
332.90098
332.82972
332.79262
332.72144
332.68812
332.6166
332.58708
332.51473
332.48918
332.4154
332.39423
332.31812
332.30222
332.22224
332.21345
332.12686
338.82644
339.27078
337.93688
337.60661
337.01464
336.6868
336.36222
336.10448
335.87384
335.68119
335.4972
335.34228
335.18988
335.05795
334.92892
334.81247
334.70135
334.59594
334.49892
334.40166
334.31599
334.22486
334.14857
334.0621
333.99372
333.91082
333.84923
333.76906
333.7134
333.63527
333.58491
333.50826
333.46271
333.38705
333.34595
333.27083
333.23396
333.15894
333.12617
333.0508
333.02215
332.94592
332.92155
332.84382
332.82414
332.74403
332.72984
332.64597
332.63872
332.54918
338.94448
339.46286
338.34506
338.06839
337.51982
337.20533
336.88646
336.62758
336.39526
336.19766
336.00997
335.84943
335.69301
335.55548
335.42265
335.30081
335.18632
335.07582
334.9759
334.87382
334.78572
334.69004
334.61175
334.52097
334.45099
334.36396
334.30116
334.21701
334.1605
334.07853
334.02764
333.94724
333.90148
333.82213
333.78112
333.70236
333.66585
333.58722
333.55509
333.47611
333.44836
333.3685
333.34529
333.26392
333.24562
333.16188
333.14918
333.0619
333.05582
332.96385
339.04149
339.57023
338.66666
338.44669
337.95689
337.66427
337.35982
337.10604
336.87727
336.67852
336.49071
336.32704
336.16915
336.02775
335.89303
335.76708
335.65068
335.53604
335.43436
335.32823
335.2386
335.13898
335.05943
334.96482
334.89385
334.80313
334.73959
334.65186
334.59488
334.5094
334.4583
334.37446
334.32874
334.246
334.20527
334.12315
334.08716
334.00518
333.97379
333.89147
333.86467
333.78149
333.75941
333.67473
333.65771
333.57075
333.55932
333.46913
333.46392
333.36995
339.1237
339.62033
338.9139
338.7484
338.32667
338.06247
337.78003
337.53712
337.31693
337.12087
336.93652
336.77233
336.6156
336.47221
336.33758
336.20893
336.09215
335.97447
335.87223
335.76293
335.67273
335.56988
335.48984
335.39202
335.32068
335.22677
335.16303
335.07214
335.01513
334.92653
334.87558
334.78865
334.74325
334.65746
334.61722
334.53207
334.49674
334.41175
334.38119
334.29588
334.27006
334.1839
334.16293
334.07532
334.05946
333.96972
333.95937
333.86678
333.86218
333.7666
339.19537
339.63594
339.09998
338.98289
338.63261
338.40105
338.14655
337.91946
337.71238
337.52264
337.34519
337.1831
337.03014
336.88671
336.75419
336.62433
336.50874
336.3892
336.28766
336.17612
336.08636
335.98107
335.90136
335.80098
335.72996
335.63343
335.57003
335.47649
335.41989
335.32864
335.27819
335.1886
335.1438
335.05536
335.01583
334.92803
334.89353
334.8059
334.77626
334.68833
334.66353
334.57478
334.55489
334.46479
334.44998
334.35793
334.34846
334.25397
334.24978
334.15297
339.25918
339.63439
339.23805
339.16089
338.88028
338.68318
338.46057
338.25314
338.06294
337.88278
337.71535
337.55784
337.41113
337.26959
337.14113
337.01158
336.89876
336.77858
336.679
336.56624
336.47795
336.37107
336.29253
336.19031
336.12029
336.02177
335.95928
335.86365
335.80793
335.71452
335.66495
335.57317
335.52927
335.43861
335.40002
335.30999
335.27648
335.18662
335.15802
335.06788
335.04413
334.95324
334.93439
334.84225
334.82839
334.73453
334.72578
334.62987
334.62597
334.52827
339.31698
339.62742
339.33994
339.29344
339.07678
338.9137
338.72484
338.53963
338.36914
338.20124
338.04649
337.8958
337.75758
337.61975
337.4972
337.36947
337.2609
337.14134
337.04494
336.932
336.84619
336.7386
336.66206
336.55878
336.49045
336.39061
336.3296
336.23249
336.17811
336.08309
336.03477
335.94131
335.89862
335.80621
335.7688
335.67701
335.64464
335.55301
335.52554
335.43365
335.411
335.31842
335.30058
335.20688
335.1939
335.09871
335.09055
334.99369
334.98999
334.89175
339.36978
339.62189
339.41579
339.39094
339.22999
339.09861
338.94341
338.78163
338.63266
338.479
338.339
338.19702
338.06919
337.93674
337.82173
337.69724
337.59431
337.47656
337.38451
337.27242
337.19006
337.08266
337.00894
336.90538
336.83941
336.73896
336.67999
336.58203
336.52945
336.43341
336.38672
336.29212
336.25092
336.15729
336.12128
336.02821
335.99716
335.90424
335.878
335.78484
335.76332
335.66954
335.6527
335.55794
335.54575
335.44973
335.44207
335.34472
335.34116
335.24272
339.4183
339.62105
339.47359
339.46259
339.34788
339.24457
339.12128
338.98285
338.85614
338.71794
338.59411
338.46229
338.34636
338.22069
338.11462
337.99464
337.89856
337.78377
337.69711
337.58689
337.50886
337.40255
337.33239
337.22935
337.16637
337.06604
337.00963
336.91148
336.86114
336.76468
336.71998
336.6248
336.58539
336.49108
336.45669
336.36286
336.33328
336.23958
336.21466
336.12074
336.10039
336.00591
335.99005
335.89473
335.88328
335.78692
335.7797
335.68228
335.67886
335.58057
339.46301
339.62569
339.51937
339.51595
339.43797
339.35831
339.26397
339.14771
339.04302
338.92073
338.81381
338.69313
338.59015
338.47237
338.37631
338.26193
338.17373
338.06292
337.98255
337.87513
337.80223
337.69785
337.63194
337.5302
337.4708
337.37129
337.31794
337.22025
337.17256
337.0763
337.03393
336.93875
336.9014
336.80695
336.77438
336.68034
336.65237
336.55841
336.53491
336.44074
336.4216
336.32693
336.31205
336.21667
336.20593
336.10969
336.10287
336.00581
336.00253
335.90473
339.50421
339.6351
339.55736
339.55694
339.50694
339.44626
339.37715
339.28103
339.19728
339.09064
339.0007
338.89164
338.80219
338.69307
338.60779
338.49988
338.42033
338.31436
338.24104
338.13724
338.07015
337.96848
337.90743
337.80771
337.75241
337.6544
337.60456
337.50797
337.46331
337.36785
337.32812
337.23351
337.19847
337.10443
337.07389
336.98015
336.95394
336.86024
336.83825
336.74433
336.72645
336.63209
336.6182
336.52324
336.5132
336.41755
336.41112
336.31482
336.31168
336.21475
339.54223
339.64815
339.59038
339.58988
339.56038
339.5142
339.46624
339.38769
339.32315
339.2313
339.15784
339.06043
338.98462
338.8846
338.81049
338.70969
338.63931
338.53889
338.47315
338.3737
338.31293
338.21469
338.15897
338.06195
338.01119
337.91532
337.86937
337.77449
337.73319
337.63911
337.60229
337.50882
337.4763
337.38322
337.35487
337.26196
337.23764
337.14471
337.12431
337.03115
337.01457
336.92101
336.90813
336.81406
336.80471
336.71009
336.70406
336.60891
336.60593
336.51022
339.57728
339.66348
339.62012
339.61775
339.60276
339.56709
339.53625
339.47241
339.42492
339.34655
339.28856
339.20239
339.13992
339.04912
338.98626
338.89293
338.83199
338.73763
338.67982
338.58529
338.53123
338.437
338.38698
338.29326
338.24738
338.15423
338.11248
338.01988
337.98221
337.89007
337.85638
337.76458
337.73477
337.64317
337.61716
337.5256
337.50327
337.4116
337.39287
337.30095
337.28572
337.19343
337.18157
337.08884
337.08021
336.98702
336.98141
336.88778
336.88499
336.79086
339.60964
339.68002
339.64755
339.64247
339.63743
339.60893
339.5915
339.53951
339.50668
339.44017
339.3963
339.32064
339.27085
339.18906
339.13721
339.0515
339.00001
338.91202
338.8623
338.77311
338.72597
338.63623
338.59216
338.50224
338.46147
338.37157
338.33425
338.24445
338.2106
338.1209
338.09052
338.0009
337.97395
337.88432
337.86076
337.77102
337.75078
337.66085
337.64384
337.55362
337.53977
337.44919
337.43839
337.34742
337.33952
337.24815
337.24299
337.15124
337.14866
337.05644
339.63955
339.69698
339.67317
339.66518
339.66682
339.64288
339.63561
339.5928
339.5722
339.51579
339.48442
339.41831
339.38024
339.30703
339.26569
339.1875
339.14523
339.06377
339.02207
338.93851
338.89834
338.81345
338.77543
338.68972
338.65421
338.56799
338.53523
338.44867
338.41879
338.33199
338.30505
338.21805
338.19407
338.10685
338.08583
337.99836
337.98026
337.89251
337.87727
337.78918
337.77675
337.68829
337.67857
337.58974
337.58259
337.49341
337.48872
337.39919
337.39684
337.30687
339.66725
339.71383
339.6972
339.68648
339.69255
339.67124
339.67145
339.63548
339.62479
339.57671
339.55613
339.49844
339.47093
339.40568
339.37411
339.30318
339.26971
339.19472
339.16083
339.08301
339.04973
338.96993
338.93794
338.85674
338.82652
338.74432
338.71619
338.63325
338.6074
338.52389
338.50045
338.41647
338.39552
338.31112
338.29269
338.2079
338.19198
338.10679
338.09336
338.00778
337.99679
337.91083
337.9022
337.81587
337.8095
337.72284
337.71864
337.63164
337.62953
337.54212
339.69296
339.73027
339.71975
339.70669
339.71569
339.69568
339.70125
339.67016
339.66728
339.62586
339.61435
339.56388
339.54567
339.48761
339.46493
339.40082
339.37555
339.30686
339.2804
339.20832
339.18168
339.10708
339.081
339.00451
338.97951
338.90159
338.87806
338.79903
338.77721
338.69731
338.67739
338.59677
338.57887
338.49763
338.48181
338.40003
338.38631
338.30404
338.29243
338.2097
338.20017
338.11702
338.10951
338.02599
338.02042
337.93657
337.93288
337.8487
337.84685
337.76228
339.71688
339.74615
339.74086
339.72588
339.73688
339.71732
339.72664
339.69887
339.70198
339.66573
339.66164
339.61723
339.60699
339.55528
339.5405
339.48267
339.46489
339.4022
339.38266
339.31619
339.29584
339.22645
339.20603
339.13435
339.11441
339.04095
339.0219
338.94701
338.92915
338.85311
338.83666
338.75967
338.74478
338.667
338.65377
338.5753
338.56378
338.48472
338.47491
338.39533
338.38725
338.30721
338.30081
338.22038
338.21562
338.13485
338.13168
338.05058
338.04899
337.96751
339.73917
339.7614
339.76058
339.7441
339.75649
339.73688
339.74877
339.72317
339.73074
339.69839
339.70021
339.66077
339.65719
339.61099
339.60307
339.55092
339.53982
339.48273
339.4695
339.40842
339.39392
339.32963
339.31455
339.24769
339.23257
339.16364
339.1489
339.07828
339.06426
338.99225
338.97918
338.90603
338.89408
338.81998
338.80928
338.73437
338.72499
338.64939
338.64137
338.56518
338.55853
338.48184
338.47655
338.39944
338.39549
338.31801
338.31538
338.23757
338.23624
338.15808
339.75997
339.77601
339.77895
339.76131
339.77472
339.75482
339.76843
339.74417
339.75497
339.72548
339.7319
339.69643
339.6983
339.65679
339.65468
339.60757
339.60231
339.55037
339.54278
339.48679
339.4776
339.41826
339.4081
339.34599
339.33538
339.27098
339.26032
339.19403
339.18365
339.1158
339.10595
339.03679
339.02767
338.95742
338.94916
338.87799
338.87069
338.79874
338.79245
338.71984
338.7146
338.64144
338.63725
338.56364
338.56049
338.48649
338.48439
338.41005
338.40899
338.33432
339.7794
339.78998
339.79602
339.77752
339.79167
339.77139
339.78613
339.76266
339.77573
339.7483
339.75817
339.72584
339.73204
339.69445
339.69716
339.65447
339.65419
339.60692
339.60426
339.55301
339.54857
339.49393
339.48824
339.43074
339.42425
339.36433
339.35745
339.2955
339.28852
339.22486
339.21805
339.15296
339.14652
339.08022
339.07429
339.00698
339.00167
338.9335
338.92888
338.86
338.8561
338.78663
338.78349
338.71353
338.71116
338.64079
338.6392
338.56849
338.56769
338.49666
339.79757
339.80331
339.81185
339.79269
339.80739
339.78674
339.8022
339.77917
339.79378
339.76781
339.78021
339.75033
339.75987
339.72552
339.73212
339.69324
339.69712
339.65402
339.65559
339.60869
339.6084
339.55818
339.55646
339.50337
339.50061
339.44504
339.4416
339.38392
339.38008
339.3206
339.31661
339.2556
339.25166
339.18936
339.18562
339.12224
339.1188
339.0545
339.05145
338.98639
338.98378
338.91809
338.91596
338.84975
338.84813
338.78149
338.7804
338.71341
338.71286
338.64556
339.81456
339.81601
339.82649
339.80683
339.8219
339.80094
339.81683
339.79407
339.80966
339.78474
339.7989
339.77091
339.78296
339.75128
339.76092
339.72531
339.73258
339.69316
339.69827
339.65533
339.65859
339.61247
339.61421
339.56528
339.56582
339.51443
339.51407
339.46054
339.45954
339.40417
339.40274
339.34579
339.34414
339.28585
339.28412
339.22468
339.22298
339.16259
339.16101
339.09981
339.09841
339.03655
339.03537
338.97297
338.97206
338.90921
338.90859
338.84538
338.84507
338.78158
339.83044
339.82805
339.83996
339.81993
339.83521
339.81403
339.83013
339.80756
339.82372
339.79958
339.81491
339.78841
339.80225
339.77276
339.78471
339.75189
339.76183
339.72565
339.73364
339.69426
339.70049
339.65815
339.66283
339.61781
339.6212
339.57378
339.57612
339.52659
339.5281
339.47672
339.47759
339.42462
339.42504
339.37069
339.37079
339.31527
339.31516
339.25866
339.25843
339.20109
339.2008
339.14278
339.14249
339.08391
339.08366
339.02462
339.02444
338.96505
338.96495
338.90529
339.84523
339.83938
339.85228
339.83195
339.84731
339.82601
339.84216
339.81978
339.83622
339.81269
339.82874
339.80343
339.81849
339.79081
339.80444
339.77399
339.78596
339.75261
339.76289
339.72669
339.73533
339.69643
339.70357
339.66217
339.66797
339.62429
339.62895
339.58322
339.58691
339.53937
339.54227
339.49315
339.4954
339.4449
339.44663
339.39497
339.39628
339.34361
339.3446
339.29109
339.29181
339.2376
339.23811
339.18333
339.18368
339.12843
339.12866
339.07306
339.07317
339.01731
339.85894
339.84995
339.86341
339.84288
339.85819
339.83687
339.85297
339.83081
339.84732
339.82433
339.84074
339.81643
339.83224
339.80608
339.82086
339.79243
339.80589
339.77502
339.78703
339.75368
339.76421
339.72844
339.73755
339.69948
339.70728
339.66708
339.67368
339.63154
339.63708
339.5932
339.59783
339.55241
339.55624
339.50948
339.51263
339.4647
339.46728
339.41835
339.42041
339.37064
339.37227
339.32179
339.32303
339.27198
339.27288
339.22137
339.22196
339.1701
339.17039
339.1183
339.87149
339.85964
339.87333
339.85269
339.86784
339.84661
339.86256
339.8407
339.85712
339.83465
339.85117
339.82773
339.84394
339.81907
339.83457
339.8079
339.82238
339.79368
339.80694
339.77611
339.78808
339.75512
339.76578
339.73075
339.74013
339.70316
339.71134
339.67256
339.67964
339.63921
339.64528
339.60338
339.60856
339.56536
339.56974
339.5254
339.52906
339.48375
339.48675
339.44061
339.44302
339.39618
339.39806
339.35065
339.35203
339.30417
339.30507
339.25688
339.25733
339.20891
339.88269
339.8683
339.88196
339.86132
339.87626
339.85523
339.87097
339.84948
339.8657
339.84377
339.86021
339.83757
339.85391
339.83019
339.84607
339.82093
339.83603
339.80923
339.82335
339.79476
339.80775
339.77733
339.78912
339.75688
339.76747
339.73346
339.74288
339.70722
339.71552
339.67832
339.68557
339.64699
339.65327
339.61346
339.61885
339.57794
339.58251
339.54066
339.54446
339.50181
339.50489
339.46156
339.46398
339.42009
339.42188
339.37756
339.37874
339.33409
339.33468
339.28983
339.89224
339.87576
339.88925
339.86876
339.88344
339.86273
339.87821
339.85718
339.87313
339.85178
339.86801
339.84614
339.8624
339.83973
339.85571
339.83193
339.84734
339.82224
339.83685
339.81027
339.82392
339.79577
339.80836
339.77863
339.7901
339.7588
339.76915
339.73635
339.74559
339.7114
339.71956
339.68409
339.69125
339.65462
339.66082
339.62316
339.62846
339.58991
339.59435
339.55503
339.55867
339.51869
339.52156
339.48105
339.48318
339.44226
339.44366
339.40243
339.40314
339.36171
339.89978
339.88186
339.89517
339.87499
339.88941
339.86914
339.88432
339.86384
339.87946
339.85875
339.87467
339.85357
339.8696
339.84791
339.86378
339.84125
339.85671
339.83312
339.84795
339.82315
339.83716
339.81106
339.82413
339.79667
339.80872
339.7799
339.79088
339.76072
339.77062
339.73921
339.74805
339.71546
339.72327
339.68962
339.69644
339.66184
339.6677
339.63226
339.63721
339.60104
339.60511
339.56833
339.57155
339.53426
339.53665
339.49897
339.50056
339.46258
339.46338
339.42522
339.90502
339.88651
339.8997
339.88002
339.89419
339.87448
339.88935
339.86951
339.88476
339.86474
339.88028
339.85997
339.87566
339.85491
339.87052
339.84913
339.86444
339.84223
339.85703
339.83385
339.84797
339.82371
339.837
339.81159
339.82395
339.79736
339.80872
339.78098
339.79131
339.76244
339.77173
339.74181
339.75007
339.71919
339.72644
339.69469
339.70096
339.66843
339.67375
339.64054
339.64494
339.61115
339.61464
339.58038
339.58299
339.54836
339.5501
339.5152
339.51607
339.481
339.90797
339.88974
339.90293
339.88392
339.89786
339.87883
339.89336
339.87423
339.88909
339.86981
339.88493
339.86543
339.88069
339.86086
339.87609
339.85578
339.87078
339.84983
339.86443
339.84271
339.85672
339.83412
339.8474
339.82385
339.83629
339.81173
339.82325
339.79769
339.80823
339.78169
339.79123
339.76376
339.77229
339.74395
339.75149
339.72236
339.7289
339.69907
339.70464
339.67419
339.67881
339.64783
339.65151
339.62009
339.62284
339.59108
339.59292
339.56091
339.56183
339.52968
339.90897
339.8917
339.90496
339.88679
339.90052
339.88224
339.89644
339.87807
339.89253
339.87403
339.88869
339.87002
339.8848
339.86587
339.88064
339.86135
339.87593
339.85615
339.87039
339.85
339.86373
339.84263
339.85572
339.83384
339.84617
339.82345
339.83493
339.81135
339.82191
339.79749
339.8071
339.78186
339.7905
339.76449
339.77215
339.74545
339.75213
339.72479
339.7305
339.7026
339.70734
339.67897
339.68275
339.65398
339.65682
339.62773
339.62963
339.60032
339.60127
339.57183
339.90858
339.89264
339.90599
339.88874
339.90227
339.88482
339.89867
339.88111
339.89514
339.87747
339.89164
339.87381
339.88807
339.87005
339.88428
339.86597
339.88004
339.86134
339.87511
339.85593
339.86926
339.84952
339.86227
339.84189
339.85395
339.83288
339.84415
339.82236
339.83279
339.81028
339.8198
339.79659
339.80519
339.78131
339.78896
339.76447
339.77117
339.74612
339.75186
339.72631
339.73109
339.70512
339.70894
339.68261
339.68548
339.65887
339.66079
339.63398
339.63494
339.60801
339.9074
339.89283
339.90622
339.88993
339.90323
339.88666
339.90014
339.88343
339.89702
339.88018
339.89385
339.87688
339.89059
339.87345
339.8871
339.86972
339.88321
339.86553
339.87874
339.86068
339.87349
339.85498
339.86727
339.84824
339.8599
339.84031
339.85126
339.83107
339.84123
339.82044
339.82975
339.80837
339.8168
339.79485
339.80238
339.7799
339.78651
339.76354
339.76922
339.74582
339.75056
339.72679
339.73059
339.7065
339.70936
339.68502
339.68693
339.66242
339.66338
339.63876
339.90589
339.89255
339.90585
339.89051
339.90355
339.88786
339.90097
339.88512
339.89824
339.88226
339.89541
339.87929
339.89241
339.87614
339.88918
339.8727
339.88555
339.86883
339.8814
339.86438
339.87658
339.85919
339.87091
339.85311
339.86426
339.846
339.8565
339.83776
339.84753
339.82828
339.83727
339.81753
339.82569
339.80548
339.81279
339.79212
339.79856
339.77748
339.78302
339.76157
339.7662
339.74443
339.74815
339.72611
339.72891
339.70666
339.70853
339.68612
339.68706
339.66456
339.90429
339.89199
339.90504
339.89062
339.90335
339.88855
339.90124
339.88625
339.8989
339.88376
339.89637
339.88109
339.89361
339.87818
339.89057
339.87495
339.88713
339.87129
339.88318
339.8671
339.87863
339.86225
339.87334
339.85664
339.8672
339.85013
339.86009
339.84264
339.85193
339.83407
339.84263
339.82437
339.83217
339.81352
339.82052
339.8015
339.80767
339.7883
339.79363
339.77395
339.77842
339.75846
339.76206
339.74187
339.74458
339.72421
339.72602
339.70552
339.70643
339.68584
339.90271
339.89129
339.90394
339.89038
339.90274
339.8888
339.90105
339.8869
339.89906
339.88475
339.8968
339.88234
339.89424
339.87961
339.89132
339.87651
339.88798
339.87296
339.88413
339.86891
339.87972
339.86426
339.87465
339.85893
339.86884
339.85284
339.86219
339.84588
339.85463
339.838
339.84607
339.82912
339.8365
339.81924
339.82587
339.80831
339.81417
339.79633
339.8014
339.7833
339.78755
339.76923
339.77266
339.75415
339.75673
339.73806
339.73979
339.72101
339.72188
339.70304
339.90116
339.89051
339.90264
339.88988
339.90182
339.88871
339.90049
339.88716
339.89879
339.8853
339.89676
339.88308
339.89433
339.88046
339.89147
339.87741
339.88813
339.87388
339.88429
339.86984
339.8799
339.86526
339.87492
339.86008
339.86928
339.85422
339.86292
339.84763
339.85577
339.84023
339.84776
339.83198
339.83887
339.82285
339.82906
339.8128
339.8183
339.80183
339.80659
339.78991
339.79391
339.77706
339.78028
339.76327
339.76571
339.74857
339.75021
339.73297
339.7338
339.71651
339.89961
339.8897
339.90123
339.88921
339.90066
339.88835
339.89963
339.88709
339.89817
339.88544
339.89628
339.88334
339.89391
339.88075
339.89102
339.87765
339.8876
339.87404
339.88366
339.86992
339.87918
339.86529
339.87417
339.86011
339.86857
339.85436
339.86236
339.84797
339.85546
339.8409
339.84784
339.8331
339.83946
339.82454
339.83029
339.81519
339.82029
339.80503
339.80945
339.79404
339.79776
339.78221
339.78522
339.76954
339.77182
339.75605
339.75757
339.74172
339.74249
339.7266
339.89804
339.88887
339.89972
339.8884
339.89933
339.88777
339.89852
339.88672
339.89723
339.88521
339.89541
339.88314
339.893
339.88048
339.88998
339.87723
339.88638
339.87343
339.88223
339.86913
339.87757
339.86433
339.87242
339.85906
339.86675
339.85328
339.86056
339.84697
339.85379
339.84008
339.84642
339.83259
339.8384
339.82445
339.8297
339.81564
339.82031
339.80613
339.81019
339.7959
339.79932
339.78493
339.7877
339.77322
339.77531
339.76076
339.76216
339.74755
339.74826
339.73361
339.89645
339.88803
339.89815
339.88749
339.89788
339.88703
339.89722
339.88611
339.896
339.88463
339.89414
339.88247
339.89157
339.87962
339.88832
339.87612
339.88443
339.87203
339.87999
339.86744
339.87505
339.86239
339.86966
339.85691
339.86383
339.85101
339.85755
339.84467
339.8508
339.83785
339.84356
339.83054
339.83578
339.82269
339.82744
339.81429
339.81851
339.80529
339.80897
339.79567
339.79878
339.78542
339.78794
339.77452
339.77642
339.76295
339.76423
339.75072
339.75136
339.73782
339.89482
339.88718
339.89654
339.88651
339.89633
339.88615
339.89575
339.88527
339.8945
339.88369
339.89246
339.88132
339.88962
339.87815
339.886
339.87427
339.88172
339.86979
339.87688
339.86481
339.87157
339.85942
339.86587
339.85366
339.85979
339.84755
339.85335
339.84109
339.84653
339.83425
339.83932
339.82701
339.83168
339.81936
339.82359
339.81124
339.81502
339.80264
339.80593
339.79352
339.79631
339.78387
339.78612
339.77365
339.77536
339.76285
339.764
339.75145
339.75203
339.73946
339.89315
339.88632
339.89487
339.88547
339.89471
339.88514
339.89413
339.88419
339.89271
339.88238
339.89035
339.87963
339.88707
339.876
339.88297
339.87162
339.87818
339.86664
339.87285
339.8612
339.8671
339.85539
339.86101
339.84927
339.85461
339.84289
339.84794
339.83623
339.84099
339.8293
339.83373
339.82207
339.82616
339.81451
339.81823
339.8066
339.80993
339.7983
339.8012
339.78958
339.79204
339.78041
339.78241
339.77077
339.77228
339.76062
339.76164
339.74996
339.75048
339.73878
339.89141
339.88543
339.89316
339.88438
339.89302
339.88402
339.89233
339.88285
339.89059
339.88064
339.88774
339.87734
339.88386
339.8731
339.87914
339.8681
339.87374
339.86252
339.86783
339.85653
339.86157
339.85023
339.85503
339.84371
339.84827
339.837
339.84132
339.8301
339.83418
339.82302
339.82683
339.81573
339.81926
339.80821
339.81143
339.80043
339.80332
339.79236
339.79488
339.78396
339.7861
339.77519
339.77693
339.76603
339.76735
339.75645
339.75734
339.74643
339.74688
339.73594
339.8896
339.88453
339.89139
339.88324
339.89125
339.88275
339.89034
339.8812
339.88808
339.87838
339.88453
339.87435
339.8799
339.86934
339.87441
339.8636
339.86829
339.85733
339.86174
339.85073
339.85491
339.8439
339.84788
339.83693
339.84073
339.82985
339.83347
339.82268
339.8261
339.81541
339.81862
339.80803
339.81101
339.8005
339.80323
339.79281
339.79526
339.7849
339.78705
339.77675
339.77858
339.76832
339.76981
339.75957
339.7607
339.75047
339.75124
339.74101
339.74139
339.73115
339.8877
339.88362
339.88957
339.88205
339.88939
339.88131
339.88808
339.87916
339.88508
339.8755
339.88062
339.87054
339.87505
339.86462
339.86867
339.85801
339.86175
339.85099
339.8545
339.84372
339.84705
339.83632
339.83951
339.82888
339.83194
339.82142
339.82435
339.81396
339.81675
339.80648
339.80912
339.79898
339.80144
339.79142
339.79368
339.78377
339.78581
339.77599
339.77779
339.76805
339.76958
339.75989
339.76115
339.7515
339.75246
339.74283
339.74348
339.73385
339.73418
339.72454
339.8857
339.88269
339.88769
339.8808
339.8874
339.87962
339.88546
339.8766
339.88145
339.87185
339.87586
339.86577
339.86919
339.85879
339.86181
339.85124
339.85401
339.84339
339.846
339.83542
339.83792
339.82744
339.82987
339.81952
339.82187
339.81168
339.81395
339.80392
339.80611
339.79624
339.79832
339.78861
339.79057
339.781
339.78282
339.77337
339.77503
339.7657
339.76716
339.75792
339.75918
339.75001
339.75104
339.74193
339.74272
339.73364
339.73417
339.7251
339.72536
339.71628
339.88359
339.88176
339.88574
339.87948
339.88521
339.87759
339.88235
339.87337
339.87702
339.86726
339.87008
339.85988
339.86215
339.85171
339.85368
339.84314
339.84495
339.83444
339.83617
339.82576
339.82746
339.8172
339.81889
339.80881
339.81048
339.80059
339.80225
339.79256
339.79418
339.78468
339.78625
339.77692
339.77842
339.76926
339.77067
339.76166
339.76295
339.75407
339.75522
339.74645
339.74745
339.73876
339.73958
339.73096
339.73158
339.723
339.72343
339.71485
339.71507
339.70649
339.88134
339.88087
339.88372
339.87804
339.88272
339.87507
339.87857
339.86927
339.8716
339.86154
339.86308
339.85268
339.85378
339.84324
339.84415
339.83361
339.83447
339.82404
339.82492
339.81467
339.8156
339.80555
339.80654
339.79671
339.79775
339.78816
339.78924
339.77987
339.78096
339.77181
339.7729
339.76395
339.76502
339.75626
339.75728
339.74868
339.74963
339.74118
339.74204
339.73371
339.73446
339.72622