/*--------------------------------*- C++ -*----------------------------------*\
| =========                 |                                                 |
| \\      /  F ield         | OpenFOAM: The Open Source CFD Toolbox           |
|  \\    /   O peration     | Version:  2312                                  |
|   \\  /    A nd           | Website:  www.openfoam.com                      |
|    \\/     M anipulation  |                                                 |
\*---------------------------------------------------------------------------*/
FoamFile
{
    version     2.0;
    format      ascii;
    arch        "LSB;label=32;scalar=64";
    class       surfaceScalarField;
    location    "1";
    object      phi_0;
}
// * * * * * * * * * * * * * * * * * * * * * * * * * * * * * * * * * * * * * //

dimensions      [0 3 -1 0 0 0 0];

oriented        oriented;

internalField   nonuniform List<scalar> 
7870
(
5.302932e-11
1.2932207e-09
5.1915701e-11
1.1136188e-12
5.1961503e-11
-4.5802632e-14
5.1195319e-11
7.6618338e-13
5.2070347e-11
-8.7502934e-13
5.1263404e-11
8.0694349e-13
5.2045526e-11
-7.821227e-13
5.1309848e-11
7.3567835e-13
5.2009604e-11
-6.9975576e-13
5.1347129e-11
6.6247507e-13
5.1975926e-11
-6.2879683e-13
5.1379399e-11
5.9652795e-13
5.1945775e-11
-5.6637574e-13
5.1407939e-11
5.3783592e-13
5.1918876e-11
-5.1093536e-13
5.1433388e-11
4.8548855e-13
5.1894806e-11
-4.61417e-13
5.1456192e-11
4.3861388e-13
5.1873186e-11
-4.1699236e-13
5.1476706e-11
3.964794e-13
5.1853703e-11
-3.7699566e-13
5.1495214e-11
3.5848918e-13
5.1836106e-11
-3.4089167e-13
5.1511938e-11
3.2416745e-13
5.1820198e-11
-3.0825872e-13
5.1527056e-11
2.9314104e-13
5.1805823e-11
-2.7876674e-13
5.1540703e-11
2.6511945e-13
5.1792865e-11
-2.5216164e-13
5.155298e-11
2.3988328e-13
5.1781234e-11
-2.282541e-13
5.1563965e-11
2.1726892e-13
5.1770868e-11
-2.06903e-13
5.1573712e-11
1.9715475e-13
5.1761717e-11
-1.8800531e-13
5.1582261e-11
1.7945593e-13
5.1753751e-11
-1.7148999e-13
5.1589639e-11
1.641117e-13
5.1746946e-11
-1.5730701e-13
5.1595865e-11
1.5108086e-13
5.1741287e-11
-1.4542237e-13
5.160095e-11
1.4033678e-13
5.1736765e-11
-1.3581476e-13
5.1604904e-11
1.3186115e-13
5.1733373e-11
-1.2846852e-13
5.1607729e-11
1.2564335e-13
5.1731114e-11
-1.2338468e-13
5.1609588e-11
1.215262e-13
5.1731412e-11
-1.2182442e-13
1.1660518e-13
1.4948889e-10
2.4899818e-09
1.5081818e-10
-2.1567558e-13
1.5025164e-10
5.2073793e-13
1.4926205e-10
1.7557738e-12
1.5053467e-10
-2.1476535e-12
1.4939967e-10
1.9419475e-12
1.5052638e-10
-1.9088307e-12
1.4947377e-10
1.7882892e-12
1.5047898e-10
-1.7049688e-12
1.4952841e-10
1.6130505e-12
1.5043155e-10
-1.531936e-12
1.4957478e-10
1.4532915e-12
1.503886e-10
-1.3801917e-12
1.4961568e-10
1.3107581e-12
1.5035016e-10
-1.2454171e-12
1.4965216e-10
1.1834906e-12
1.5031571e-10
-1.1249583e-12
1.496849e-10
1.0694253e-12
1.5028471e-10
-1.0168009e-12
1.4971438e-10
9.6680506e-13
1.5025673e-10
-9.1934143e-13
1.4974102e-10
8.7419842e-13
1.5023142e-10
-8.3129317e-13
1.4976512e-10
7.9046645e-13
1.5020852e-10
-7.5164904e-13
1.4978694e-10
7.1471826e-13
1.5018779e-10
-6.796198e-13
1.4980665e-10
6.4625873e-13
1.5016909e-10
-6.1459991e-13
1.498244e-10
5.8456962e-13
1.5015229e-10
-5.5614246e-13
1.4984029e-10
5.2926287e-13
1.501373e-10
-5.039126e-13
1.498544e-10
4.8005079e-13
1.5012406e-10
-4.576674e-13
1.4986678e-10
4.3673471e-13
1.5011254e-10
-4.1724121e-13
1.4987747e-10
3.99172e-13
1.5010268e-10
-3.8251634e-13
1.498865e-10
3.6726619e-13
1.5009449e-10
-3.5341367e-13
1.4989387e-10
3.4095526e-13
1.5008794e-10
-3.2988306e-13
1.4989961e-10
3.2019552e-13
1.5008302e-10
-3.1188576e-13
1.499037e-10
3.0496282e-13
1.5007974e-10
-2.9941622e-13
1.4990644e-10
2.9481913e-13
1.5008137e-10
-2.9675583e-13
2.8155913e-13
2.4288167e-10
3.5933501e-09
2.4725545e-10
-4.5894509e-12
2.4581352e-10
1.962665e-12
2.4504413e-10
2.5251556e-12
2.4625961e-10
-3.3631334e-12
2.4522525e-10
2.9763097e-12
2.4628846e-10
-2.9720372e-12
2.4530441e-10
2.7723411e-12
2.4624941e-10
-2.6499701e-12
2.4535715e-10
2.5053047e-12
2.4620606e-10
-2.3808416e-12
2.4540077e-10
2.2585863e-12
2.4616618e-10
-2.1456027e-12
2.4543907e-10
2.0378672e-12
2.4613032e-10
-1.936661e-12
2.4547327e-10
1.8405398e-12
2.4609808e-10
-1.7497676e-12
2.4550401e-10
1.6634985e-12
2.4606902e-10
-1.5818009e-12
2.4553176e-10
1.5040629e-12
2.4604272e-10
-1.4303024e-12
2.4555687e-10
1.3600451e-12
2.4601889e-10
-1.2933025e-12
2.4557964e-10
1.2297079e-12
2.4599727e-10
-1.1692714e-12
2.4560028e-10
1.1116998e-12
2.4597767e-10
-1.0570106e-12
2.4561896e-10
1.0049662e-12
2.4595996e-10
-9.5560097e-13
2.4563581e-10
9.0872499e-13
2.4594404e-10
-8.6437389e-13
2.456509e-10
8.2239744e-13
2.4592982e-10
-7.8282701e-13
2.4566432e-10
7.4554516e-13
2.4591724e-10
-7.1059282e-13
2.456761e-10
6.7787907e-13
2.4590629e-10
-6.4742897e-13
2.4568627e-10
6.1918376e-13
2.4589692e-10
-5.931609e-13
2.4569487e-10
5.6931529e-13
2.4588912e-10
-5.4766789e-13
2.4570189e-10
5.2818593e-13
2.4588289e-10
-5.1087984e-13
2.4570736e-10
4.9572589e-13
2.458782e-10
-4.8273036e-13
2.4571127e-10
4.7189821e-13
2.4587505e-10
-4.6320077e-13
2.4571396e-10
4.5590982e-13
2.4587825e-10
-4.610401e-13
4.3343633e-13
3.340128e-10
4.6055873e-09
3.4107478e-10
-1.1651435e-11
3.3889221e-10
4.1452322e-12
3.3831022e-10
3.1071456e-12
3.3946644e-10
-4.519354e-12
3.3853133e-10
3.9114167e-12
3.3952994e-10
-3.9706459e-12
3.3861461e-10
3.6876774e-12
3.394987e-10
-3.5340572e-12
3.3866527e-10
3.3387277e-12
3.3945934e-10
-3.1749016e-12
3.3870608e-10
3.0118427e-12
3.3942249e-10
-2.8620139e-12
3.3874177e-10
2.7185867e-12
3.393892e-10
-2.5840812e-12
3.3877367e-10
2.4560662e-12
3.3935918e-10
-2.3352745e-12
3.388024e-10
2.2202817e-12
3.3933205e-10
-2.1114442e-12
3.3882838e-10
2.007726e-12
3.3930744e-10
-1.9093583e-12
3.3885196e-10
1.8155313e-12
3.3928509e-10
-1.7264333e-12
3.3887336e-10
1.6414307e-12
3.3926477e-10
-1.560679e-12
3.388928e-10
1.4836668e-12
3.3924633e-10
-1.4105337e-12
3.3891043e-10
1.3408633e-12
3.3922963e-10
-1.274804e-12
3.3892634e-10
1.2120168e-12
3.392146e-10
-1.1526333e-12
3.3894061e-10
1.0963811e-12
3.3920116e-10
-1.0433729e-12
3.3895331e-10
9.9339124e-13
3.3918927e-10
-9.4655114e-13
3.3896446e-10
9.0268135e-13
3.391789e-10
-8.6186246e-13
3.389741e-10
8.2397612e-13
3.3917002e-10
-7.8908333e-13
3.3898225e-10
7.570922e-13
3.3916264e-10
-7.2806063e-13
3.3898891e-10
7.0191886e-13
3.3915673e-10
-6.7870427e-13
3.389941e-10
6.5836314e-13
3.3915229e-10
-6.4092157e-13
3.3899781e-10
6.2637587e-13
3.3914927e-10
-6.1466384e-13
3.3900042e-10
6.047653e-13
3.3915364e-10
-6.142671e-13
5.7280401e-13
4.226785e-10
5.5291588e-09
4.32225e-10
-2.1197935e-11
4.2948344e-10
6.8867828e-12
4.2906317e-10
3.5274195e-12
4.3015497e-10
-5.6111542e-12
4.2931792e-10
4.7484689e-12
4.3025072e-10
-4.9034517e-12
4.2940426e-10
4.5341385e-12
4.3022672e-10
-4.3565109e-12
4.2945265e-10
4.1127903e-12
4.3019124e-10
-3.9134898e-12
4.2949061e-10
3.7124731e-12
4.3015742e-10
-3.5288174e-12
4.2952369e-10
3.352321e-12
4.3012669e-10
-3.1870812e-12
4.2955327e-10
3.0294844e-12
4.300989e-10
-2.8808976e-12
4.2957997e-10
2.7392063e-12
4.3007371e-10
-2.6051728e-12
4.2960418e-10
2.477252e-12
4.3005081e-10
-2.3559829e-12
4.2962619e-10
2.2401509e-12
4.3002995e-10
-2.1301967e-12
4.2964621e-10
2.0251672e-12
4.3001096e-10
-1.9254239e-12
4.2966443e-10
1.8301925e-12
4.2999369e-10
-1.7397871e-12
4.2968098e-10
1.6535726e-12
4.2997803e-10
-1.5718534e-12
4.2969593e-10
1.4941126e-12
4.2996391e-10
-1.4206116e-12
4.2970935e-10
1.3509331e-12
4.2995127e-10
-1.2852913e-12
4.2972131e-10
1.2233514e-12
4.2994008e-10
-1.1653279e-12
4.2973181e-10
1.1109499e-12
4.2993032e-10
-1.0603694e-12
4.297409e-10
1.0133985e-12
4.2992197e-10
-9.70153e-13
4.2974858e-10
9.3047993e-13
4.2991501e-10
-8.9449265e-13
4.2975486e-10
8.6207123e-13
4.2990944e-10
-8.3328864e-13
4.2975975e-10
8.0805199e-13
4.2990525e-10
-7.864133e-13
4.2976326e-10
7.6835833e-13
4.2990238e-10
-7.5377628e-13
4.2976576e-10
7.4138722e-13
4.2990762e-10
-7.5613499e-13
6.9965445e-13
5.088465e-10
6.3665623e-09
5.2070773e-10
-3.3059165e-11
5.1758666e-10
1.0007853e-11
5.1730556e-10
3.8085105e-12
5.1832517e-10
-6.6307575e-12
5.1758497e-10
5.4886646e-12
5.1845094e-10
-5.7694226e-12
5.1767331e-10
5.3117676e-12
5.184336e-10
-5.1167947e-12
5.1771925e-10
4.8271359e-12
5.1840191e-10
-4.5961412e-12
5.1775434e-10
4.3600397e-12
5.1837107e-10
-4.1455455e-12
5.1778478e-10
3.9386088e-12
5.1834289e-10
-3.7451863e-12
5.1781205e-10
3.5603259e-12
5.1831732e-10
-3.3861673e-12
5.1783672e-10
3.2198131e-12
5.1829408e-10
-3.0625308e-12
5.1785913e-10
2.9121998e-12
5.1827289e-10
-2.7697422e-12
5.1787956e-10
2.6334855e-12
5.1825355e-10
-2.5041886e-12
5.1789818e-10
2.3805331e-12
5.182359e-10
-2.2631394e-12
5.1791516e-10
2.1509338e-12
5.1821982e-10
-2.0444435e-12
5.179306e-10
1.9427887e-12
5.1820521e-10
-1.8464662e-12
5.1794456e-10
1.7547541e-12
5.1819203e-10
-1.6680721e-12
5.1795712e-10
1.5858342e-12
5.1818022e-10
-1.5083859e-12
5.1796831e-10
1.4352541e-12
5.1816975e-10
-1.3667708e-12
5.1797815e-10
1.3025522e-12
5.1816062e-10
-1.2428383e-12
5.1798666e-10
1.1873566e-12
5.181528e-10
-1.1362916e-12
5.1799386e-10
1.089423e-12
5.1814629e-10
-1.0469223e-12
5.1799974e-10
1.0086151e-12
5.1814107e-10
-9.7461648e-13
5.1800433e-10
9.4478862e-13
5.1813713e-10
-9.1921468e-13
5.1800763e-10
8.9786461e-13
5.1813442e-10
-8.8056448e-13
5.1800998e-10
8.6582547e-13
5.1814028e-10
-8.8643309e-13
8.1398991e-13
5.9257164e-10
7.1202407e-09
6.0653232e-10
-4.7019846e-11
6.032001e-10
1.3340072e-11
6.0303854e-10
3.9700675e-12
6.03977e-10
-7.5692177e-12
6.0333236e-10
6.1332998e-12
6.041307e-10
-6.567758e-12
6.0342162e-10
6.0208468e-12
6.0411941e-10
-5.8145868e-12
6.0346494e-10
5.4816058e-12
6.0409138e-10
-5.2225796e-12
6.0349714e-10
4.9542841e-12
6.040635e-10
-4.7118992e-12
6.0352496e-10
4.477147e-12
6.0403785e-10
-4.2580759e-12
6.0354991e-10
4.0482684e-12
6.040145e-10
-3.8507498e-12
6.0357254e-10
3.6617709e-12
6.039932e-10
-3.483186e-12
6.0359315e-10
3.3122437e-12
6.0397373e-10
-3.1503172e-12
6.0361199e-10
2.9952298e-12
6.0395591e-10
-2.8481118e-12
6.036292e-10
2.7072466e-12
6.0393962e-10
-2.5735557e-12
6.0364491e-10
2.4456365e-12
6.0392474e-10
-2.3242686e-12
6.0365922e-10
2.2082978e-12
6.039112e-10
-2.0984437e-12
6.0367219e-10
1.9937615e-12
6.0389897e-10
-1.8948528e-12
6.0368385e-10
1.80095e-12
6.0388801e-10
-1.7125386e-12
6.0369426e-10
1.6289982e-12
6.0387829e-10
-1.5507981e-12
6.0370341e-10
1.4774271e-12
6.038698e-10
-1.4092226e-12
6.0371133e-10
1.3458238e-12
6.0386253e-10
-1.2874896e-12
6.0371803e-10
1.2339207e-12
6.0385647e-10
-1.1853643e-12
6.037235e-10
1.1415802e-12
6.0385162e-10
-1.1027309e-12
6.0372778e-10
1.0686269e-12
6.0384795e-10
-1.0393863e-12
6.0373085e-10
1.0149633e-12
6.038454e-10
-9.9510819e-13
6.0373304e-10
9.781807e-13
6.0385165e-10
-1.005035e-12
9.1594633e-13
6.7391474e-10
7.7925759e-09
6.8971284e-10
-6.281795e-11
6.8632108e-10
1.6731833e-11
6.8626071e-10
4.0304379e-12
6.8711065e-10
-8.4191667e-12
6.8655998e-10
6.6839732e-12
6.8729014e-10
-7.2979153e-12
6.8664911e-10
6.6618706e-12
6.8728428e-10
-6.4497557e-12
6.8668967e-10
6.0762255e-12
6.8725979e-10
-5.7927025e-12
6.8671897e-10
5.4951067e-12
6.872348e-10
-5.2277325e-12
6.8674418e-10
4.9677774e-12
6.8721167e-10
-4.7255636e-12
6.8676682e-10
4.4931161e-12
6.8719051e-10
-4.2744371e-12
6.8678741e-10
4.0648697e-12
6.8717115e-10
-3.866921e-12
6.8680622e-10
3.6771714e-12
6.871534e-10
-3.4974933e-12
6.8682345e-10
3.3251758e-12
6.8713711e-10
-3.1617655e-12
6.8683924e-10
3.0051194e-12
6.8712218e-10
-2.8564959e-12
6.8685367e-10
2.7141417e-12
6.8710851e-10
-2.5791116e-12
6.8686684e-10
2.4499652e-12
6.8709607e-10
-2.3276692e-12
6.8687879e-10
2.2110381e-12
6.8708481e-10
-2.1008739e-12
6.8688955e-10
1.9962107e-12
6.8707471e-10
-1.8976985e-12
6.8689915e-10
1.8045542e-12
6.8706575e-10
-1.7173948e-12
6.869076e-10
1.6355747e-12
6.8705791e-10
-1.5595401e-12
6.8691491e-10
1.4888306e-12
6.8705121e-10
-1.4237893e-12
6.8692109e-10
1.364037e-12
6.8704562e-10
-1.3098926e-12
6.8692615e-10
1.2610504e-12
6.8704114e-10
-1.2177238e-12
6.869301e-10
1.1796691e-12
6.8703776e-10
-1.1470422e-12
6.8693294e-10
1.119777e-12
6.8703537e-10
-1.0975372e-12
6.8693496e-10
1.0785952e-12
6.8704181e-10
-1.1118925e-12
1.0057534e-12
7.5292235e-10
8.3859036e-09
7.7026586e-10
-8.0161463e-11
7.6694574e-10
2.0051951e-11
7.6696763e-10
4.0085461e-12
7.6772651e-10
-9.1780485e-12
7.6726759e-10
7.1429007e-12
7.6792931e-10
-7.9596426e-12
7.6735567e-10
7.235514e-12
7.6792826e-10
-7.0223418e-12
7.6739331e-10
6.6111778e-12
7.6790716e-10
-6.3065582e-12
7.6741972e-10
5.982555e-12
7.6788502e-10
-5.6930367e-12
7.6744233e-10
5.410472e-12
7.6786436e-10
-5.1475911e-12
7.6746268e-10
4.8947969e-12
7.6784538e-10
-4.6571341e-12
7.6748124e-10
4.4290064e-12
7.6782795e-10
-4.2136231e-12
7.6749825e-10
4.0068675e-12
7.6781192e-10
-3.8111547e-12
7.6751388e-10
3.6232145e-12
7.6779716e-10
-3.4450419e-12
7.6752822e-10
3.2740523e-12
7.677836e-10
-3.1118663e-12
7.6754137e-10
2.9563645e-12
7.6777116e-10
-2.8089036e-12
7.6755339e-10
2.6677375e-12
7.6775982e-10
-2.5340985e-12
7.675643e-10
2.4065528e-12
7.6774954e-10
-2.2861175e-12
7.6757413e-10
2.1716236e-12
7.6774031e-10
-2.0638841e-12
7.6758291e-10
1.9619523e-12
7.6773213e-10
-1.8666068e-12
7.6759064e-10
1.7770576e-12
7.6772496e-10
-1.6938637e-12
7.6759733e-10
1.6164666e-12
7.6771883e-10
-1.5452946e-12
7.6760299e-10
1.4798788e-12
7.6771373e-10
-1.420627e-12
7.6760762e-10
1.3671582e-12
7.6770963e-10
-1.3197391e-12
7.6761123e-10
1.2780673e-12
7.6770653e-10
-1.2423382e-12
7.6761384e-10
1.2124676e-12
7.6770433e-10
-1.188025e-12
7.6761567e-10
1.1672552e-12
7.677108e-10
-1.2070238e-12
1.0837132e-12
8.296314e-10
8.9025222e-09
8.4820979e-10
-9.8739859e-11
8.4506951e-10
2.319223e-11
8.4515361e-10
3.9244445e-12
8.4582531e-10
-9.8497518e-12
8.45455e-10
7.5132162e-12
8.4604834e-10
-8.5529822e-12
8.4554124e-10
7.7426085e-12
8.4605144e-10
-7.5325441e-12
8.4557582e-10
7.086798e-12
8.4603361e-10
-6.7643402e-12
8.4559936e-10
6.4168081e-12
8.4601426e-10
-6.1079323e-12
8.456194e-10
5.8053251e-12
8.4599603e-10
-5.5242137e-12
8.4563748e-10
5.2533456e-12
8.459792e-10
-4.9988547e-12
8.4565403e-10
4.7541841e-12
8.4596369e-10
-4.5232799e-12
8.4566924e-10
4.3013173e-12
8.4594936e-10
-4.091277e-12
8.4568326e-10
3.8893204e-12
8.4593613e-10
-3.697917e-12
8.4569616e-10
3.5140281e-12
8.4592395e-10
-3.3396563e-12
8.45708e-10
3.1723075e-12
8.4591275e-10
-3.0136489e-12
8.4571885e-10
2.8616294e-12
8.4590252e-10
-2.7177604e-12
8.4572871e-10
2.5803505e-12
8.4589324e-10
-2.4506406e-12
8.4573761e-10
2.3272491e-12
8.458849e-10
-2.2111711e-12
8.4574556e-10
2.1012864e-12
8.4587749e-10
-1.9985379e-12
8.4575256e-10
1.9019904e-12
8.4587102e-10
-1.8123225e-12
8.4575861e-10
1.7288692e-12
8.4586547e-10
-1.6521503e-12
8.4576374e-10
1.5816117e-12
8.4586085e-10
-1.5177394e-12
8.4576792e-10
1.4600821e-12
8.4585715e-10
-1.40896e-12
8.457712e-10
1.3640128e-12
8.4585434e-10
-1.3254763e-12
8.4577356e-10
1.2932442e-12
8.4585232e-10
-1.2667866e-12
8.457752e-10
1.2443804e-12
8.4585869e-10
-1.290511e-12
1.1501714e-12
9.0407379e-10
9.3446984e-09
9.2356249e-10
-1.1822856e-10
9.2068735e-10
2.6067372e-11
9.2081414e-10
3.7976471e-12
9.214079e-10
-1.0443508e-11
9.21122e-10
7.7991121e-12
9.2164722e-10
-9.0782009e-12
9.212057e-10
8.1841268e-12
9.2165387e-10
-7.9807123e-12
9.2123711e-10
7.5035559e-12
9.2163915e-10
-7.1663731e-12
9.2125778e-10
6.7981757e-12
9.2162251e-10
-6.4726613e-12
9.2127529e-10
6.1525479e-12
9.2160669e-10
-5.8556032e-12
9.2129112e-10
5.5689105e-12
9.2159199e-10
-5.2997155e-12
9.2130567e-10
5.040503e-12
9.2157837e-10
-4.7959749e-12
9.2131909e-10
4.5605942e-12
9.2156574e-10
-4.3379275e-12
9.213315e-10
4.1235623e-12
9.2155404e-10
-3.9204545e-12
9.2134295e-10
3.725113e-12
9.2154323e-10
-3.5399315e-12
9.2135349e-10
3.3620391e-12
9.2153327e-10
-3.193428e-12
9.2136317e-10
3.0317323e-12
9.2152416e-10
-2.87875e-12
9.2137197e-10
2.7325338e-12
9.2151589e-10
-2.5945542e-12
9.2137991e-10
2.4632208e-12
9.2150844e-10
-2.3396995e-12
9.2138702e-10
2.2227025e-12
9.2150183e-10
-2.1133461e-12
9.2139328e-10
2.0105442e-12
9.2149605e-10
-1.9150933e-12
9.2139869e-10
1.8262291e-12
9.2149109e-10
-1.7445586e-12
9.2140327e-10
1.6694351e-12
9.2148697e-10
-1.6014396e-12
9.2140701e-10
1.5400418e-12
9.2148367e-10
-1.4856157e-12
9.2140994e-10
1.4377403e-12
9.2148115e-10
-1.396692e-12
9.2141205e-10
1.3623464e-12
9.2147934e-10
-1.3340724e-12
9.2141349e-10
1.3102288e-12
9.2148547e-10
-1.3624894e-12
1.2055232e-12
9.7627813e-10
9.7146703e-09
9.963402e-10
-1.3829063e-10
9.9379431e-10
2.8613257e-11
9.9394751e-10
3.644442e-12
9.9447519e-10
-1.0971187e-11
9.9426857e-10
8.0057381e-12
9.9472607e-10
-9.5357009e-12
9.9434902e-10
8.5611703e-12
9.9473565e-10
-8.3673355e-12
9.9437715e-10
7.8620584e-12
9.9472389e-10
-7.5131135e-12
9.9439498e-10
7.1270861e-12
9.947099e-10
-6.7875841e-12
9.9440999e-10
6.4524641e-12
9.9469642e-10
-6.1420349e-12
9.944236e-10
5.8417378e-12
9.9468382e-10
-5.559935e-12
9.9443616e-10
5.2881633e-12
9.9467208e-10
-5.0318862e-12
9.944478e-10
4.7848677e-12
9.9466114e-10
-4.5512593e-12
9.9445861e-10
4.3260855e-12
9.9465096e-10
-4.112796e-12
9.9446862e-10
3.90745e-12
9.9464152e-10
-3.7128366e-12
9.9447785e-10
3.5257126e-12
9.9463281e-10
-3.3483897e-12
9.9448634e-10
3.1781999e-12
9.9462482e-10
-3.0172308e-12
9.9449407e-10
2.8632777e-12
9.9461756e-10
-2.7180413e-12
9.9450106e-10
2.5797181e-12
9.9461102e-10
-2.4496597e-12
9.9450732e-10
2.3264058e-12
9.9460521e-10
-2.2112419e-12
9.9451282e-10
2.1029354e-12
9.9460013e-10
-2.0024037e-12
9.9451758e-10
1.9087771e-12
9.9459578e-10
-1.8227536e-12
9.9452161e-10
1.7436028e-12
9.9459215e-10
-1.6719838e-12
9.945249e-10
1.6072966e-12
9.9458925e-10
-1.5499667e-12
9.9452747e-10
1.4995159e-12
9.9458704e-10
-1.4562609e-12
9.9452933e-10
1.4200552e-12
9.9458543e-10
-1.3901672e-12
9.9453057e-10
1.3650846e-12
9.9459123e-10
-1.4231466e-12
1.2501892e-12
1.0462692e-09
1.0014651e-08
1.0665573e-09
-1.5857875e-10
1.0643855e-09
3.0785088e-11
1.0645544e-09
3.4755299e-12
1.0650278e-09
-1.1444639e-11
1.0648946e-09
8.138933e-12
1.0652849e-09
-9.9259379e-12
1.0649711e-09
8.87496e-12
1.0652968e-09
-8.6930345e-12
1.0649958e-09
8.1630322e-12
1.0652878e-09
-7.8051357e-12
1.0650108e-09
7.4040876e-12
1.0652764e-09
-7.0531726e-12
1.0650234e-09
6.7055053e-12
1.0652653e-09
-6.3838945e-12
1.0650348e-09
6.0721813e-12
1.0652547e-09
-5.7798279e-12
1.0650454e-09
5.4974562e-12
1.0652448e-09
-5.2312825e-12
1.0650553e-09
4.9743895e-12
1.0652355e-09
-4.731513e-12
1.0650645e-09
4.4971265e-12
1.0652269e-09
-4.275167e-12
1.0650731e-09
4.0612614e-12
1.0652188e-09
-3.8585877e-12
1.065081e-09
3.6635405e-12
1.0652114e-09
-3.4787548e-12
1.0650883e-09
3.3012589e-12
1.0652045e-09
-3.1334271e-12
1.065095e-09
2.9728087e-12
1.0651982e-09
-2.8213312e-12
1.065101e-09
2.6769902e-12
1.0651926e-09
-2.5413021e-12
1.0651064e-09
2.412647e-12
1.0651876e-09
-2.2924838e-12
1.0651111e-09
2.1794318e-12
1.0651832e-09
-2.0745221e-12
1.0651152e-09
1.9767922e-12
1.0651795e-09
-1.8870226e-12
1.0651187e-09
1.8043933e-12
1.0651764e-09
-1.7296581e-12
1.0651215e-09
1.6621398e-12
1.0651739e-09
-1.6023138e-12
1.0651237e-09
1.5496434e-12
1.065172e-09
-1.5044839e-12
1.0651254e-09
1.4666736e-12
1.0651706e-09
-1.4353835e-12
1.0651264e-09
1.4092643e-12
1.065176e-09
-1.4727119e-12
1.284627e-12
1.1140676e-09
1.0246833e-08
1.1342274e-09
-1.7873851e-10
1.1324558e-09
3.2556692e-11
1.1326369e-09
3.2944002e-12
1.1330663e-09
-1.1874022e-11
1.1330003e-09
8.2048911e-12
1.1333237e-09
-1.024938e-11
1.1330719e-09
9.1268259e-12
1.1333374e-09
-8.9585541e-12
1.1330931e-09
8.4073302e-12
1.1333311e-09
-8.043136e-12
1.1331054e-09
7.6298373e-12
1.1333222e-09
-7.2700091e-12
1.1331155e-09
6.9122085e-12
1.1333133e-09
-6.5816633e-12
1.1331248e-09
6.2606859e-12
1.1333047e-09
-5.9598063e-12
1.1331334e-09
5.6687689e-12
1.1332967e-09
-5.3945226e-12
1.1331416e-09
5.129504e-12
1.1332891e-09
-4.8790104e-12
1.1331492e-09
4.6369929e-12
1.1332819e-09
-4.4078667e-12
1.1331563e-09
4.1868417e-12
1.1332752e-09
-3.9774761e-12
1.1331629e-09
3.775818e-12
1.133269e-09
-3.584807e-12
1.133169e-09
3.4011923e-12
1.1332632e-09
-3.2276275e-12
1.1331746e-09
3.0614218e-12
1.133258e-09
-2.9047222e-12
1.1331797e-09
2.7553243e-12
1.1332533e-09
-2.6149208e-12
1.1331842e-09
2.481731e-12
1.1332491e-09
-2.3573768e-12
1.1331882e-09
2.2403391e-12
1.1332454e-09
-2.1317622e-12
1.1331916e-09
2.0305865e-12
1.1332423e-09
-1.9376764e-12
1.1331946e-09
1.8521352e-12
1.1332397e-09
-1.7747896e-12
1.1331969e-09
1.704898e-12
1.1332376e-09
-1.6429811e-12
1.1331988e-09
1.5884498e-12
1.133236e-09
-1.5416965e-12
1.1332001e-09
1.5025403e-12
1.1332348e-09
-1.470061e-12
1.133201e-09
1.443103e-12
1.1332397e-09
-1.5114565e-12
1.3093037e-12
1.1796878e-09
1.0413396e-08
1.1993627e-09
-1.9841346e-10
1.1980002e-09
3.3919166e-11
1.1981972e-09
3.0974261e-12
1.1985905e-09
-1.2267323e-11
1.1985855e-09
8.2098452e-12
1.1988427e-09
-1.0506493e-11
1.1986513e-09
9.3182027e-12
1.1988575e-09
-9.1647581e-12
1.1986689e-09
8.5959151e-12
1.1988537e-09
-8.2279184e-12
1.1986784e-09
7.8051057e-12
1.1988472e-09
-7.4387804e-12
1.1986862e-09
7.0732126e-12
1.1988405e-09
-6.7359288e-12
1.1986933e-09
6.4078005e-12
1.1988339e-09
-6.1003733e-12
1.1987001e-09
5.8025745e-12
1.1988276e-09
-5.5220519e-12
1.1987065e-09
5.250633e-12
1.1988217e-09
-4.9941573e-12
1.1987126e-09
4.746081e-12
1.198816e-09
-4.5112744e-12
1.1987183e-09
4.2845613e-12
1.1988106e-09
-4.06986e-12
1.1987236e-09
3.8628929e-12
1.1988057e-09
-3.6668985e-12
1.1987285e-09
3.4783525e-12
1.1988011e-09
-3.3001762e-12
1.198733e-09
3.1294571e-12
1.1987968e-09
-2.9685517e-12
1.1987371e-09
2.8150745e-12
1.198793e-09
-2.6708651e-12
1.1987408e-09
2.5340015e-12
1.1987897e-09
-2.4062683e-12
1.198744e-09
2.2860094e-12
1.1987867e-09
-2.1744713e-12
1.1987468e-09
2.0705144e-12
1.1987842e-09
-1.9750742e-12
1.1987491e-09
1.8871732e-12
1.1987821e-09
-1.8077277e-12
1.198751e-09
1.7359249e-12
1.1987804e-09
-1.6723274e-12
1.1987525e-09
1.6162941e-12
1.1987791e-09
-1.5682514e-12
1.1987536e-09
1.5280079e-12
1.1987781e-09
-1.4945599e-12
1.1987543e-09
1.4669627e-12
1.1987825e-09
-1.5396829e-12
1.324712e-12
1.2431314e-09
1.0516514e-08
1.2619744e-09
-2.1725645e-10
1.2610208e-09
3.4872765e-11
1.2612379e-09
2.8803114e-12
1.2616007e-09
-1.2630129e-11
1.2616505e-09
8.160084e-12
1.2618417e-09
-1.0697711e-11
1.2617093e-09
9.4506375e-12
1.2618572e-09
-9.312623e-12
1.2617232e-09
8.7298688e-12
1.2618557e-09
-8.3604029e-12
1.26173e-09
7.9307642e-12
1.2618515e-09
-7.560278e-12
1.2617355e-09
7.1892569e-12
1.2618469e-09
-6.8473688e-12
1.2617406e-09
6.5141597e-12
1.2618423e-09
-6.2021261e-12
1.2617455e-09
5.8994391e-12
1.2618378e-09
-5.6144026e-12
1.2617502e-09
5.3382886e-12
1.2618334e-09
-5.0774372e-12
1.2617547e-09
4.8248534e-12
1.2618292e-09
-4.5858389e-12
1.2617589e-09
4.3548585e-12
1.2618253e-09
-4.1361693e-12
1.261763e-09
3.9251938e-12
1.2618215e-09
-3.7254396e-12
1.2617667e-09
3.5331429e-12
1.261818e-09
-3.3514769e-12
1.2617701e-09
3.1773198e-12
1.2618148e-09
-3.0132227e-12
1.2617733e-09
2.8566252e-12
1.2618119e-09
-2.7095218e-12
1.2617761e-09
2.5698516e-12
1.2618093e-09
-2.4395459e-12
1.2617785e-09
2.316826e-12
1.2618071e-09
-2.203037e-12
1.2617806e-09
2.0969562e-12
1.2618052e-09
-1.9995906e-12
1.2617824e-09
1.9098981e-12
1.2618036e-09
-1.8288573e-12
1.2617839e-09
1.7556008e-12
1.2618023e-09
-1.6907272e-12
1.261785e-09
1.633551e-12
1.2618013e-09
-1.5845302e-12
1.2617859e-09
1.5434593e-12
1.2618006e-09
-1.5092612e-12
1.2617863e-09
1.4812166e-12
1.2618043e-09
-1.5577259e-12
1.3313417e-12
1.3043797e-09
1.0558385e-08
1.3220735e-09
-2.3495031e-10
1.3215329e-09
3.5413352e-11
1.3217579e-09
2.6553714e-12
1.3220958e-09
-1.2968088e-11
1.3221947e-09
8.0612402e-12
1.3223208e-09
-1.0823839e-11
1.3222458e-09
9.5256922e-12
1.3223364e-09
-9.4032681e-12
1.3222559e-09
8.8103686e-12
1.3223371e-09
-8.4416103e-12
1.3222601e-09
8.007794e-12
1.3223352e-09
-7.6353931e-12
1.3222633e-09
7.261179e-12
1.3223327e-09
-6.9167643e-12
1.3222663e-09
6.5804999e-12
1.32233e-09
-6.2657494e-12
1.3222694e-09
5.9600112e-12
1.3223272e-09
-5.6721902e-12
1.3222724e-09
5.3930562e-12
1.3223244e-09
-5.1294144e-12
1.3222754e-09
4.8738595e-12
1.3223216e-09
-4.6320866e-12
1.3222783e-09
4.3982441e-12
1.322319e-09
-4.1768963e-12
1.322281e-09
3.9631956e-12
1.3223164e-09
-3.760905e-12
1.3222836e-09
3.5660326e-12
1.3223141e-09
-3.381984e-12
1.3222859e-09
3.2054534e-12
1.3223119e-09
-3.0391704e-12
1.3222881e-09
2.8804243e-12
1.3223099e-09
-2.7313281e-12
1.32229e-09
2.5897064e-12
1.3223081e-09
-2.4576337e-12
1.3222917e-09
2.3332132e-12
1.3223066e-09
-2.2178734e-12
1.3222932e-09
2.1103296e-12
1.3223052e-09
-2.0116443e-12
1.3222944e-09
1.9207077e-12
1.3223041e-09
-1.8385781e-12
1.3222954e-09
1.7643271e-12
1.3223033e-09
-1.6985842e-12
1.3222962e-09
1.6406215e-12
1.3223026e-09
-1.5909245e-12
1.3222968e-09
1.5492835e-12
1.3223021e-09
-1.5145593e-12
1.322297e-09
1.4862592e-12
1.3223053e-09
-1.5659425e-12
1.3296985e-12
1.3633444e-09
1.054129e-08
1.3796478e-09
-2.5125369e-10
1.3796129e-09
3.5448176e-11
1.3797711e-09
2.4972496e-12
1.3800766e-09
-1.3273623e-11
1.380218e-09
7.9198723e-12
1.3802798e-09
-1.0885713e-11
1.3802606e-09
9.5449535e-12
1.3802953e-09
-9.4379803e-12
1.380267e-09
8.8386765e-12
1.3802981e-09
-8.4726881e-12
1.3802686e-09
8.0372659e-12
1.3802983e-09
-7.6651208e-12
1.3802696e-09
7.2899121e-12
1.3802978e-09
-6.9449831e-12
1.3802707e-09
6.607639e-12
1.3802969e-09
-6.2920197e-12
1.3802719e-09
5.9850298e-12
1.3802959e-09
-5.6961144e-12
1.3802733e-09
5.4156093e-12
1.3802946e-09
-5.1507276e-12
1.3802748e-09
4.8937099e-12
1.3802933e-09
-4.650609e-12
1.3802762e-09
4.4152926e-12
1.3802919e-09
-4.1926017e-12
1.3802777e-09
3.9774519e-12
1.3802906e-09
-3.7738224e-12
1.3802791e-09
3.5775357e-12
1.3802893e-09
-3.3922067e-12
1.3802804e-09
3.214363e-12
1.3802881e-09
-3.046892e-12
1.3802816e-09
2.8869423e-12
1.380287e-09
-2.7367518e-12
1.3802827e-09
2.5940357e-12
1.3802861e-09
-2.4609907e-12
1.3802836e-09
2.3356198e-12
1.3802852e-09
-2.2194292e-12
1.3802845e-09
2.111071e-12
1.3802845e-09
-2.0116613e-12
1.3802851e-09
1.9200422e-12
1.3802839e-09
-1.8373203e-12
1.3802857e-09
1.7625253e-12
1.3802834e-09
-1.6963109e-12
1.3802861e-09
1.6379155e-12
1.380283e-09
-1.5878494e-12
1.3802864e-09
1.5458949e-12
1.3802827e-09
-1.5108636e-12
1.3802865e-09
1.4824897e-12
1.3802853e-09
-1.5647137e-12
1.3202752e-12
1.4199723e-09
1.0467568e-08
1.4346866e-09
-2.6596805e-10
1.4353068e-09
3.4828035e-11
1.4352991e-09
2.5048632e-12
1.4355462e-09
-1.352068e-11
1.4357217e-09
7.7443763e-12
1.4357192e-09
-1.0883271e-11
1.4357538e-09
9.5103932e-12
1.4357339e-09
-9.4180362e-12
1.4357563e-09
8.8161973e-12
1.4357385e-09
-8.4548598e-12
1.4357554e-09
8.0203649e-12
1.4357408e-09
-7.6505491e-12
1.4357543e-09
7.276486e-12
1.4357423e-09
-6.932994e-12
1.4357534e-09
6.5964957e-12
1.4357432e-09
-6.2817978e-12
1.4357529e-09
5.9753135e-12
1.4357438e-09
-5.6869553e-12
1.4357527e-09
5.4066911e-12
1.4357441e-09
-5.1420938e-12
1.4357527e-09
4.8851003e-12
1.4357441e-09
-4.6420721e-12
1.4357528e-09
4.4066481e-12
1.4357441e-09
-4.1839039e-12
1.435753e-09
3.9685563e-12
1.4357439e-09
-3.7647802e-12
1.4357532e-09
3.5682288e-12
1.4357437e-09
-3.3826998e-12
1.4357535e-09
3.2045855e-12
1.4357435e-09
-3.0369097e-12
1.4357538e-09
2.8767104e-12
1.4357433e-09
-2.7263071e-12
1.435754e-09
2.5833348e-12
1.4357431e-09
-2.450106e-12
1.4357542e-09
2.3245304e-12
1.435743e-09
-2.2081739e-12
1.4357544e-09
2.099649e-12
1.4357428e-09
-2.0001076e-12
1.4357545e-09
1.9083408e-12
1.4357427e-09
-1.8255216e-12
1.4357546e-09
1.7506319e-12
1.4357427e-09
-1.6843436e-12
1.4357547e-09
1.6258639e-12
1.4357426e-09
-1.5757231e-12
1.4357548e-09
1.5337068e-12
1.4357425e-09
-1.498591e-12
1.4357547e-09
1.4703239e-12
1.4357444e-09
-1.554435e-12
1.3035734e-12
1.4743955e-09
1.0339422e-08
1.4872414e-09
-2.7881396e-10
1.4884901e-09
3.3579396e-11
1.4883226e-09
2.6723644e-12
1.4884986e-09
-1.3696734e-11
1.4887042e-09
7.5388477e-12
1.4886386e-09
-1.0817729e-11
1.4887253e-09
9.423742e-12
1.4886522e-09
-9.344939e-12
1.488724e-09
8.7444043e-12
1.4886586e-09
-8.3894742e-12
1.4887206e-09
7.9583625e-12
1.4886629e-09
-7.5928675e-12
1.4887174e-09
7.2220241e-12
1.4886662e-09
-6.8818492e-12
1.4887147e-09
6.5480664e-12
1.4886689e-09
-6.2360341e-12
1.4887124e-09
5.931769e-12
1.4886711e-09
-5.6455745e-12
1.4887106e-09
5.3671308e-12
1.4886728e-09
-5.1043005e-12
1.4887092e-09
4.8487833e-12
1.4886743e-09
-4.6072033e-12
1.4887079e-09
4.3730135e-12
1.4886755e-09
-4.1514861e-12
1.4887069e-09
3.9371787e-12
1.4886765e-09
-3.7344149e-12
1.488706e-09
3.5387275e-12
1.4886774e-09
-3.3540685e-12
1.4887053e-09
3.1767156e-12
1.4886781e-09
-3.0098045e-12
1.4887046e-09
2.8502744e-12
1.4886788e-09
-2.7005321e-12
1.488704e-09
2.5581388e-12
1.4886794e-09
-2.4254982e-12
1.4887035e-09
2.3004478e-12
1.4886799e-09
-2.1846058e-12
1.488703e-09
2.0765442e-12
1.4886804e-09
-1.9774487e-12
1.4887026e-09
1.8860811e-12
1.4886807e-09
-1.8036456e-12
1.4887023e-09
1.7290981e-12
1.488681e-09
-1.6631208e-12
1.488702e-09
1.6049002e-12
1.4886813e-09
-1.5549827e-12
1.4887018e-09
1.5131536e-12
1.4886814e-09
-1.4781677e-12
1.4887015e-09
1.4501759e-12
1.4886826e-09
-1.535518e-12
1.2800737e-12
1.5266898e-09
1.0158983e-08
1.5373339e-09
-2.8945801e-10
1.5390678e-09
3.1845451e-11
1.5388353e-09
2.9048749e-12
1.538931e-09
-1.3792462e-11
1.5391648e-09
7.3050896e-12
1.5390378e-09
-1.0690781e-11
1.5391748e-09
9.2867474e-12
1.5390502e-09
-9.2203211e-12
1.5391698e-09
8.6248563e-12
1.5390583e-09
-8.2779757e-12
1.539164e-09
7.8526322e-12
1.5390645e-09
-7.4933601e-12
1.5391588e-09
7.1277418e-12
1.5390696e-09
-6.7927011e-12
1.5391542e-09
6.4634466e-12
1.539074e-09
-6.1557611e-12
1.5391504e-09
5.8553795e-12
1.5390777e-09
-5.5729111e-12
1.539147e-09
5.2978231e-12
1.5390809e-09
-5.0382106e-12
1.5391441e-09
4.7855936e-12
1.5390837e-09
-4.5468008e-12
1.5391416e-09
4.315158e-12
1.5390862e-09
-4.0960849e-12
1.5391393e-09
3.8840227e-12
1.5390883e-09
-3.6834192e-12
1.5391373e-09
3.4897057e-12
1.5390902e-09
-3.3069576e-12
1.5391356e-09
3.1313733e-12
1.5390919e-09
-2.9661752e-12
1.539134e-09
2.8082376e-12
1.5390935e-09
-2.6600066e-12
1.5391326e-09
2.5190019e-12
1.5390948e-09
-2.3877105e-12
1.5391313e-09
2.2639056e-12
1.539096e-09
-2.1492379e-12
1.5391303e-09
2.0422652e-12
1.539097e-09