/*--------------------------------*- C++ -*----------------------------------*\
| =========                 |                                                 |
| \\      /  F ield         | OpenFOAM: The Open Source CFD Toolbox           |
|  \\    /   O peration     | Version:  2312                                  |
|   \\  /    A nd           | Website:  www.openfoam.com                      |
|    \\/     M anipulation  |                                                 |
\*---------------------------------------------------------------------------*/
FoamFile
{
    version     2.0;
    format      ascii;
    arch        "LSB;label=32;scalar=64";
    class       volSymmTensorField;
    location    "1";
    object      sigma_0;
}
// * * * * * * * * * * * * * * * * * * * * * * * * * * * * * * * * * * * * * //

dimensions      [0 2 -2 0 0 0 0];

internalField   nonuniform List<symmTensor> 
4000
(
(-0.38922987 -0.20732332 0 -0.070834994 0 0)
(-0.66935239 -0.14929253 0 -2.8613462e-05 0 0)
(-0.59239194 -0.14049982 0 4.1937871e-06 0 0)
(-0.63385255 -0.14542433 0 -3.0518361e-05 0 0)
(-0.59982548 -0.1413263 0 3.3571549e-05 0 0)
(-0.63227729 -0.14524497 0 -3.0962307e-05 0 0)
(-0.6023306 -0.14163039 0 2.9952956e-05 0 0)
(-0.63074348 -0.1450612 0 -2.8213999e-05 0 0)
(-0.60399375 -0.14183351 0 2.6840395e-05 0 0)
(-0.62927445 -0.14488517 0 -2.5443618e-05 0 0)
(-0.60539456 -0.14200457 0 2.415976e-05 0 0)
(-0.62795005 -0.14472644 0 -2.2947408e-05 0 0)
(-0.60662835 -0.14215503 0 2.1796668e-05 0 0)
(-0.62676942 -0.14458489 0 -2.0721028e-05 0 0)
(-0.60772653 -0.14228875 0 1.9692248e-05 0 0)
(-0.62571606 -0.14445858 0 -1.8729744e-05 0 0)
(-0.60870894 -0.14240819 0 1.7806756e-05 0 0)
(-0.62477307 -0.14434551 0 -1.6940838e-05 0 0)
(-0.60959136 -0.14251529 0 1.6109297e-05 0 0)
(-0.62392558 -0.14424391 0 -1.5327076e-05 0 0)
(-0.61038702 -0.14261171 0 1.4575327e-05 0 0)
(-0.62316098 -0.14415228 0 -1.3866586e-05 0 0)
(-0.61110715 -0.14269884 0 1.3185361e-05 0 0)
(-0.62246852 -0.14406932 0 -1.2542145e-05 0 0)
(-0.61176125 -0.14277786 0 1.1924265e-05 0 0)
(-0.62183915 -0.14399396 0 -1.1340465e-05 0 0)
(-0.6123574 -0.14284977 0 1.0780411e-05 0 0)
(-0.62126514 -0.14392526 0 -1.025138e-05 0 0)
(-0.61290258 -0.14291543 0 9.7450456e-06 0 0)
(-0.6207398 -0.14386243 0 -9.2674495e-06 0 0)
(-0.61340281 -0.14297559 0 8.8118318e-06 0 0)
(-0.62025737 -0.14380476 0 -8.3832239e-06 0 0)
(-0.61386334 -0.1430309 0 7.9761608e-06 0 0)
(-0.61981274 -0.14375166 0 -7.5948497e-06 0 0)
(-0.61428896 -0.14308194 0 7.2348637e-06 0 0)
(-0.61940125 -0.14370256 0 -6.8997434e-06 0 0)
(-0.61468398 -0.14312922 0 6.5858258e-06 0 0)
(-0.61901868 -0.14365696 0 -6.2961764e-06 0 0)
(-0.61505244 -0.14317325 0 6.0277446e-06 0 0)
(-0.61866101 -0.14361438 0 -5.7831537e-06 0 0)
(-0.61539822 -0.14321448 0 5.5598623e-06 0 0)
(-0.61832439 -0.14357439 0 -5.3601468e-06 0 0)
(-0.61572503 -0.14325335 0 5.1818919e-06 0 0)
(-0.6180051 -0.14353653 0 -5.0271309e-06 0 0)
(-0.61603656 -0.1432903 0 4.8941083e-06 0 0)
(-0.6176994 -0.14350039 0 -4.784845e-06 0 0)
(-0.61633645 -0.14332574 0 4.6982965e-06 0 0)
(-0.6174038 -0.14346554 0 -4.6318498e-06 0 0)
(-0.61663349 -0.1433606 0 4.6399346e-06 0 0)
(-0.61716452 -0.14343744 0 -4.5535906e-06 0 0)
(-0.35421311 -0.19349608 0 -0.066206694 0 0)
(-0.60723881 -0.14227762 0 -0.0002341623 0 0)
(-0.55111964 -0.13555128 0 -3.3333202e-05 0 0)
(-0.58668304 -0.13994368 0 -2.9815534e-05 0 0)
(-0.55642029 -0.13606792 0 3.8688428e-05 0 0)
(-0.58535038 -0.13979173 0 -3.3830186e-05 0 0)
(-0.55864623 -0.13635513 0 3.3988674e-05 0 0)
(-0.58400745 -0.13962127 0 -3.1641554e-05 0 0)
(-0.56012716 -0.13654789 0 3.0295969e-05 0 0)
(-0.58270223 -0.13945477 0 -2.866174e-05 0 0)
(-0.56137386 -0.13671025 0 2.7256137e-05 0 0)
(-0.58152107 -0.13930402 0 -2.5884989e-05 0 0)
(-0.5624736 -0.13685328 0 2.4601198e-05 0 0)
(-0.58046581 -0.1391693 0 -2.3391265e-05 0 0)
(-0.56345436 -0.13698063 0 2.2237652e-05 0 0)
(-0.57952251 -0.13904884 0 -2.1154455e-05 0 0)
(-0.56433335 -0.13709459 0 2.0116711e-05 0 0)
(-0.57867665 -0.13894081 0 -1.9140578e-05 0 0)
(-0.56512415 -0.13719695 0 1.8203691e-05 0 0)
(-0.57791543 -0.13884359 0 -1.7320299e-05 0 0)
(-0.56583811 -0.13728923 0 1.6471671e-05 0 0)
(-0.577228 -0.13875581 0 -1.5669807e-05 0 0)
(-0.56648484 -0.1373727 0 1.4899391e-05 0 0)
(-0.57660508 -0.13867628 0 -1.4170521e-05 0 0)
(-0.56707251 -0.13744845 0 1.3470689e-05 0 0)
(-0.57603886 -0.138604 0 -1.2808216e-05 0 0)
(-0.56760808 -0.13751738 0 1.2173067e-05 0 0)
(-0.57552263 -0.13853812 0 -1.1572027e-05 0 0)
(-0.56809761 -0.13758031 0 1.0997185e-05 0 0)
(-0.57505057 -0.1384779 0 -1.0454086e-05 0 0)
(-0.56854633 -0.13763792 0 9.9364401e-06 0 0)
(-0.57461761 -0.1384227 0 -9.44882e-06 0 0)
(-0.56895888 -0.13769081 0 8.9860975e-06 0 0)
(-0.57421922 -0.13837193 0 -8.5520609e-06 0 0)
(-0.5693395 -0.13773955 0 8.142749e-06 0 0)
(-0.57385123 -0.13832507 0 -7.7613358e-06 0 0)
(-0.56969207 -0.13778461 0 7.4044789e-06 0 0)
(-0.57350981 -0.13828164 0 -7.0749342e-06 0 0)
(-0.57002027 -0.13782648 0 6.769927e-06 0 0)
(-0.57319131 -0.13824118 0 -6.4918264e-06 0 0)
(-0.57032764 -0.13786561 0 6.2384621e-06 0 0)
(-0.57289217 -0.13820326 0 -6.0119229e-06 0 0)
(-0.57061761 -0.13790242 0 5.8103087e-06 0 0)
(-0.57260895 -0.13816743 0 -5.6355707e-06 0 0)
(-0.57089362 -0.13793735 0 5.4862966e-06 0 0)
(-0.57233813 -0.13813329 0 -5.3649165e-06 0 0)
(-0.57115909 -0.1379708 0 5.2708781e-06 0 0)
(-0.57207612 -0.13810037 0 -5.1982445e-06 0 0)
(-0.5714199 -0.13800323 0 5.2861025e-06 0 0)
(-0.57185234 -0.1380723 0 -5.0290164e-06 0 0)
(-0.33246781 -0.1836765 0 -0.061748924 0 0)
(-0.5675146 -0.1371681 0 -0.00011952056 0 0)
(-0.52341514 -0.13211757 0 -5.4328602e-05 0 0)
(-0.55614258 -0.13628818 0 -2.8303473e-05 0 0)
(-0.52830087 -0.13254949 0 3.9408407e-05 0 0)
(-0.55495992 -0.1361448 0 -3.2902383e-05 0 0)
(-0.53035126 -0.13282592 0 3.412447e-05 0 0)
(-0.55373269 -0.1359823 0 -3.1444267e-05 0 0)
(-0.53171466 -0.13301188 0 3.0264505e-05 0 0)
(-0.55253264 -0.13582202 0 -2.8585375e-05 0 0)
(-0.53286226 -0.13316855 0 2.7212992e-05 0 0)
(-0.55144431 -0.13567657 0 -2.5843144e-05 0 0)
(-0.5338757 -0.13330672 0 2.4569792e-05 0 0)
(-0.55047065 -0.13554638 0 -2.3366572e-05 0 0)
(-0.53478066 -0.1334299 0 2.221783e-05 0 0)
(-0.54959929 -0.13542984 0 -2.1140252e-05 0 0)
(-0.5355927 -0.13354026 0 2.0105069e-05 0 0)
(-0.54881716 -0.1353252 0 -1.9132669e-05 0 0)
(-0.53632402 -0.1336395 0 1.8196715e-05 0 0)
(-0.54811276 -0.13523094 0 -1.7315393e-05 0 0)
(-0.53698479 -0.13372904 0 1.6466527e-05 0 0)
(-0.54747629 -0.13514577 0 -1.5665361e-05 0 0)
(-0.53758364 -0.13381008 0 1.4893835e-05 0 0)
(-0.54689941 -0.13506857 0 -1.4164612e-05 0 0)
(-0.53812793 -0.13388364 0 1.3463062e-05 0 0)
(-0.54637507 -0.13499841 0 -1.279952e-05 0 0)
(-0.5386239 -0.13395059 0 1.2162214e-05 0 0)
(-0.5458972 -0.13493446 0 -1.1559531e-05 0 0)
(-0.53907704 -0.13401168 0 1.0982331e-05 0 0)
(-0.54546049 -0.13487604 0 -1.0437375e-05 0 0)
(-0.5394921 -0.13406758 0 9.9173322e-06 0 0)
(-0.54506033 -0.13482251 0 -9.4276923e-06 0 0)
(-0.53987331 -0.13411886 0 8.9626292e-06 0 0)
(-0.54469256 -0.13477334 0 -8.5266185e-06 0 0)
(-0.5402246 -0.13416605 0 8.1151846e-06 0 0)
(-0.54435331 -0.13472801 0 -7.7319478e-06 0 0)
(-0.54054953 -0.13420964 0 7.3731458e-06 0 0)
(-0.54403902 -0.13468605 0 -7.0420658e-06 0 0)
(-0.54085154 -0.13425008 0 6.7355412e-06 0 0)
(-0.54374626 -0.13464702 0 -6.4563399e-06 0 0)
(-0.54113396 -0.13428782 0 6.2019465e-06 0 0)
(-0.54347171 -0.13461047 0 -5.9747918e-06 0 0)
(-0.54140002 -0.13432327 0 5.7728107e-06 0 0)
(-0.54321209 -0.134576 0 -5.598378e-06 0 0)
(-0.54165296 -0.13435687 0 5.4499315e-06 0 0)
(-0.54296408 -0.13454317 0 -5.3306711e-06 0 0)
(-0.54189606 -0.13438903 0 5.2399891e-06 0 0)
(-0.54272413 -0.13451153 0 -5.1728726e-06 0 0)
(-0.54213436 -0.13442 0 5.3155176e-06 0 0)
(-0.54251359 -0.1344841 0 -5.1321385e-06 0 0)
(-0.31772194 -0.17512286 0 -0.056866496 0 0)
(-0.53138785 -0.13249593 0 -5.6149407e-05 0 0)
(-0.49619722 -0.1286641 0 -7.9413669e-05 0 0)
(-0.52648185 -0.13263426 0 -2.3688821e-05 0 0)
(-0.50081938 -0.12903096 0 3.6548625e-05 0 0)
(-0.52547121 -0.13249873 0 -2.8581702e-05 0 0)
(-0.50271745 -0.12929687 0 3.1140504e-05 0 0)
(-0.52434615 -0.13234408 0 -2.8252174e-05 0 0)
(-0.50397611 -0.12947613 0 2.7411819e-05 0 0)
(-0.52323843 -0.13218989 0 -2.5824919e-05 0 0)
(-0.50503557 -0.12962717 0 2.4628469e-05 0 0)
(-0.52223159 -0.13204961 0 -2.33855e-05 0 0)
(-0.50597223 -0.12976053 0 2.2247179e-05 0 0)
(-0.52132958 -0.13192386 0 -2.1163009e-05 0 0)
(-0.50680972 -0.12987957 0 2.0129621e-05 0 0)
(-0.5205214 -0.13181113 0 -1.915816e-05 0 0)
(-0.50756212 -0.12998635 0 1.8224037e-05 0 0)
(-0.51979528 -0.13170981 0 -1.7345623e-05 0 0)
(-0.50824042 -0.13008247 0 1.6499068e-05 0 0)
(-0.51914083 -0.13161846 0 -1.570117e-05 0 0)
(-0.50885373 -0.13016926 0 1.4931707e-05 0 0)
(-0.51854921 -0.13153586 0 -1.420477e-05 0 0)
(-0.50940983 -0.13024786 0 1.3503962e-05 0 0)
(-0.51801288 -0.13146096 0 -1.284106e-05 0 0)
(-0.50991532 -0.13031921 0 1.2202719e-05 0 0)
(-0.51752547 -0.13139288 0 -1.1598471e-05 0 0)
(-0.51037585 -0.13038415 0 1.101773e-05 0 0)
(-0.51708146 -0.13133086 0 -1.0468089e-05 0 0)
(-0.51079638 -0.13044339 0 9.9414469e-06 0 0)
(-0.51667602 -0.13127421 0 -9.4438379e-06 0 0)
(-0.51118124 -0.13049755 0 8.9689079e-06 0 0)
(-0.51630491 -0.13122237 0 -8.521511e-06 0 0)
(-0.5115343 -0.13054719 0 8.0964724e-06 0 0)
(-0.51596429 -0.13117479 0 -7.6977235e-06 0 0)
(-0.5118592 -0.13059281 0 7.3215054e-06 0 0)
(-0.5156506 -0.13113098 0 -6.9709774e-06 0 0)
(-0.51215924 -0.1306349 0 6.6428909e-06 0 0)
(-0.51536048 -0.13109049 0 -6.3400545e-06 0 0)
(-0.51243764 -0.13067389 0 6.0597587e-06 0 0)
(-0.51509074 -0.13105287 0 -5.80438e-06 0 0)
(-0.51269751 -0.13071022 0 5.5719529e-06 0 0)
(-0.51483823 -0.13101771 0 -5.3645753e-06 0 0)
(-0.51294191 -0.13074432 0 5.1804679e-06 0 0)
(-0.51459986 -0.13098458 0 -5.0217462e-06 0 0)
(-0.51317392 -0.13077659 0 4.887268e-06 0 0)
(-0.51437246 -0.13095306 0 -4.7803423e-06 0 0)
(-0.51339666 -0.13080744 0 4.7005419e-06 0 0)
(-0.51415257 -0.13092268 0 -4.6424894e-06 0 0)
(-0.51361438 -0.13083699 0 4.8415937e-06 0 0)
(-0.51395411 -0.13089583 0 -4.6986923e-06 0 0)
(-0.30420022 -0.16692561 0 -0.052180533 0 0)
(-0.4964731 -0.12786494 0 2.0572647e-05 0 0)
(-0.46939537 -0.12516214 0 -9.6438157e-05 0 0)
(-0.49763186 -0.12898267 0 -1.9968088e-05 0 0)
(-0.47399147 -0.12550852 0 3.310586e-05 0 0)
(-0.4968412 -0.12885575 0 -2.4093972e-05 0 0)
(-0.47576735 -0.12576497 0 2.787985e-05 0 0)
(-0.4958099 -0.12870834 0 -2.4823433e-05 0 0)
(-0.47693171 -0.12593786 0 2.4317682e-05 0 0)
(-0.49478548 -0.12855986 0 -2.2837869e-05 0 0)
(-0.4779117 -0.12608359 0 2.1825183e-05 0 0)
(-0.49385231 -0.12842447 0 -2.0718555e-05 0 0)
(-0.4787791 -0.12621241 0 1.9724357e-05 0 0)
(-0.49301515 -0.12830291 0 -1.8767296e-05 0 0)
(-0.4795557 -0.12632755 0 1.7857928e-05 0 0)
(-0.49226423 -0.12819381 0 -1.7000063e-05 0 0)
(-0.48025423 -0.12643095 0 1.6175227e-05 0 0)
(-0.49158892 -0.12809564 0 -1.5397855e-05 0 0)
(-0.48088457 -0.12652412 0 1.4648254e-05 0 0)
(-0.49097984 -0.12800705 0 -1.3940493e-05 0 0)
(-0.48145492 -0.12660831 0 1.3257505e-05 0 0)
(-0.490429 -0.1279269 0 -1.2611209e-05 0 0)
(-0.48197226 -0.12668458 0 1.1987799e-05 0 0)
(-0.48992959 -0.12785421 0 -1.1397229e-05 0 0)
(-0.48244255 -0.12675384 0 1.0828328e-05 0 0)
(-0.48947583 -0.12778813 0 -1.0289108e-05 0 0)
(-0.48287089 -0.12681686 0 9.7706545e-06 0 0)
(-0.4890627 -0.12772796 0 -9.2793597e-06 0 0)
(-0.48326178 -0.12687431 0 8.8085975e-06 0 0)
(-0.48868578 -0.12767304 0 -8.3633799e-06 0 0)
(-0.48361918 -0.1269268 0 7.9384273e-06 0 0)
(-0.48834118 -0.12762281 0 -7.5377354e-06 0 0)
(-0.48394665 -0.12697485 0 7.1571217e-06 0 0)
(-0.48802537 -0.12757678 0 -6.7997695e-06 0 0)
(-0.48424753 -0.12701897 0 6.4627578e-06 0 0)
(-0.487735 -0.12753445 0 -6.1484996e-06 0 0)
(-0.48452491 -0.1270596 0 5.8544298e-06 0 0)
(-0.48746696 -0.12749539 0 -5.5829277e-06 0 0)
(-0.4847818 -0.12709718 0 5.3317736e-06 0 0)
(-0.48721825 -0.12745917 0 -5.1029141e-06 0 0)
(-0.48502113 -0.12713215 0 4.8947663e-06 0 0)
(-0.48698588 -0.12742535 0 -4.7090357e-06 0 0)
(-0.48524578 -0.1271649 0 4.5443908e-06 0 0)
(-0.48676693 -0.12739354 0 -4.4026653e-06 0 0)
(-0.48545866 -0.12719587 0 4.2829935e-06 0 0)
(-0.4865584 -0.12736331 0 -4.1886116e-06 0 0)
(-0.48566276 -0.12722546 0 4.1190201e-06 0 0)
(-0.48635696 -0.12733418 0 -4.0685678e-06 0 0)
(-0.48586172 -0.12725366 0 4.3076593e-06 0 0)
(-0.48617076 -0.12730802 0 -4.2097879e-06 0 0)
(-0.29108061 -0.15896579 0 -0.047721136 0 0)
(-0.46323304 -0.12332465 0 0.00011122832 0 0)
(-0.44315901 -0.12162636 0 -0.00010464015 0 0)
(-0.4695932 -0.12533164 0 -1.7167612e-05 0 0)
(-0.44784407 -0.12198324 0 2.9826719e-05 0 0)
(-0.4690453 -0.12521482 0 -2.0165698e-05 0 0)
(-0.4495243 -0.12223129 0 2.5032264e-05 0 0)
(-0.46810368 -0.12507432 0 -2.1814213e-05 0 0)
(-0.45060289 -0.12239807 0 2.1605105e-05 0 0)
(-0.46715596 -0.1249313 0 -2.0215543e-05 0 0)
(-0.45150991 -0.1225387 0 1.9364643e-05 0 0)
(-0.46629056 -0.12480058 0 -1.8375979e-05 0 0)
(-0.45231364 -0.12266316 0 1.75083e-05 0 0)
(-0.46551314 -0.12468305 0 -1.6661619e-05 0 0)
(-0.45303417 -0.12277455 0 1.5861145e-05 0 0)
(-0.46481503 -0.12457743 0 -1.5102086e-05 0 0)
(-0.45368302 -0.1228747 0 1.4373161e-05 0 0)
(-0.46418664 -0.12448229 0 -1.3683837e-05 0 0)
(-0.45426908 -0.12296502 0 1.3019529e-05 0 0)
(-0.46361951 -0.12439637 0 -1.2390439e-05 0 0)
(-0.4547997 -0.12304669 0 1.1783611e-05 0 0)
(-0.46310644 -0.12431859 0 -1.1207796e-05 0 0)
(-0.45528117 -0.12312072 0 1.0652586e-05 0 0)
(-0.46264124 -0.12424804 0 -1.0125423e-05 0 0)
(-0.45571884 -0.12318793 0 9.6177866e-06 0 0)
(-0.46221868 -0.12418391 0 -9.1356194e-06 0 0)
(-0.45611733 -0.12324908 0 8.672249e-06 0 0)
(-0.4618342 -0.12412553 0 -8.2322896e-06 0 0)
(-0.45648073 -0.12330479 0 7.810969e-06 0 0)
(-0.46148375 -0.1240723 0 -7.4118098e-06 0 0)
(-0.45681266 -0.12335564 0 7.0311303e-06 0 0)
(-0.46116376 -0.12402367 0 -6.6716948e-06 0 0)
(-0.45711638 -0.12340214 0 6.3304569e-06 0 0)
(-0.46087094 -0.12397915 0 -6.009614e-06 0 0)
(-0.457395 -0.12344477 0 5.7073096e-06 0 0)
(-0.46060219 -0.12393828 0 -5.425151e-06 0 0)
(-0.4576514 -0.12348397 0 5.1613598e-06 0 0)
(-0.4603546 -0.12390062 0 -4.9175577e-06 0 0)
(-0.45788839 -0.12352017 0 4.6922038e-06 0 0)
(-0.46012532 -0.12386576 0 -4.4866335e-06 0 0)
(-0.45810873 -0.12355379 0 4.2999633e-06 0 0)
(-0.45991156 -0.12383328 0 -4.1333568e-06 0 0)
(-0.45831513 -0.12358523 0 3.9858857e-06 0 0)
(-0.45971055 -0.12380276 0 -3.8589054e-06 0 0)
(-0.45851037 -0.12361492 0 3.7520163e-06 0 0)
(-0.45951944 -0.1237738 0 -3.6681548e-06 0 0)
(-0.45869727 -0.12364325 0 3.606778e-06 0 0)
(-0.45933503 -0.12374591 0 -3.5619801e-06 0 0)
(-0.45887896 -0.12367015 0 3.8284873e-06 0 0)
(-0.45916089 -0.12372047 0 -3.7663384e-06 0 0)
(-0.27848722 -0.15128652 0 -0.043467363 0 0)
(-0.43165269 -0.11887127 0 0.00021699236 0 0)
(-0.41752406 -0.11806188 0 -0.00010452842 0 0)
(-0.44238133 -0.12167966 0 -1.4433778e-05 0 0)
(-0.42239107 -0.1184556 0 2.6688869e-05 0 0)
(-0.44207239 -0.12157513 0 -1.6711194e-05 0 0)
(-0.42399765 -0.11869639 0 2.251755e-05 0 0)
(-0.44121782 -0.12144141 0 -1.915408e-05 0 0)
(-0.42499823 -0.11885728 0 1.9205808e-05 0 0)
(-0.4403414 -0.12130366 0 -1.7894873e-05 0 0)
(-0.42583786 -0.11899297 0 1.7186455e-05 0 0)
(-0.43953884 -0.12117747 0 -1.6301482e-05 0 0)
(-0.42658265 -0.11911321 0 1.5545201e-05 0 0)
(-0.43881687 -0.12106384 0 -1.4795714e-05 0 0)
(-0.4272512 -0.11922095 0 1.4091157e-05 0 0)
(-0.43816784 -0.1209616 0 -1.3419229e-05 0 0)
(-0.42785392 -0.11931794 0 1.2774996e-05 0 0)
(-0.43758313 -0.12086941 0 -1.2163393e-05 0 0)
(-0.42839879 -0.11940549 0 1.1574399e-05 0 0)
(-0.4370551 -0.1207861 0 -1.101487e-05 0 0)
(-0.42889241 -0.1194847 0 1.0475399e-05 0 0)
(-0.43657726 -0.12071065 0 -9.9620261e-06 0 0)
(-0.42934042 -0.11955651 0 9.4672757e-06 0 0)
(-0.43614402 -0.12064219 0 -8.9963121e-06 0 0)
(-0.42974765 -0.11962172 0 8.5430778e-06 0 0)
(-0.43575063 -0.12057998 0 -8.1116079e-06 0 0)
(-0.43011826 -0.11968101 0 7.6971616e-06 0 0)
(-0.43539294 -0.12052338 0 -7.3028309e-06 0 0)
(-0.43045598 -0.119735 0 6.9255172e-06 0 0)
(-0.43506724 -0.12047181 0 -6.5674592e-06 0 0)
(-0.43076411 -0.11978423 0 6.2262229e-06 0 0)
(-0.43477024 -0.12042476 0 -5.9035127e-06 0 0)
(-0.43104567 -0.1198292 0 5.5973982e-06 0 0)
(-0.43449889 -0.12038174 0 -5.3091688e-06 0 0)
(-0.43130353 -0.11987035 0 5.0379109e-06 0 0)
(-0.43425031 -0.12034232 0 -4.7843556e-06 0 0)
(-0.43154038 -0.11990813 0 4.5474995e-06 0 0)
(-0.43402176 -0.12030606 0 -4.3284239e-06 0 0)
(-0.43175885 -0.11994296 0 4.1261373e-06 0 0)
(-0.43381056 -0.12027255 0 -3.941456e-06 0 0)
(-0.43196155 -0.11997524 0 3.7739357e-06 0 0)
(-0.43361409 -0.12024138 0 -3.6242732e-06 0 0)
(-0.43215104 -0.12000539 0 3.4920027e-06 0 0)
(-0.4334297 -0.12021214 0 -3.3781057e-06 0 0)
(-0.43232994 -0.12003381 0 3.2824349e-06 0 0)
(-0.43325471 -0.12018443 0 -3.2076646e-06 0 0)
(-0.43250091 -0.1200609 0 3.1530557e-06 0 0)
(-0.43308608 -0.12015777 0 -3.1124442e-06 0 0)
(-0.43266668 -0.12008654 0 3.3958421e-06 0 0)
(-0.43292373 -0.12013311 0 -3.3657109e-06 0 0)
(-0.26651578 -0.14390103 0 -0.03939689 0 0)
(-0.40171667 -0.11450799 0 0.00033473453 0 0)
(-0.39250284 -0.11447316 0 -9.7541744e-05 0 0)
(-0.41602636 -0.11802752 0 -1.1041037e-05 0 0)
(-0.39764582 -0.11492584 0 2.3708589e-05 0 0)
(-0.41591811 -0.11793644 0 -1.3570349e-05 0 0)
(-0.39919274 -0.11516044 0 2.0201213e-05 0 0)
(-0.41514737 -0.11780942 0 -1.6715441e-05 0 0)
(-0.40012236 -0.11531566 0 1.6998255e-05 0 0)
(-0.41433751 -0.11767679 0 -1.5761207e-05 0 0)
(-0.40089964 -0.11544655 0 1.5181786e-05 0 0)
(-0.41359338 -0.11755498 0 -1.4392038e-05 0 0)
(-0.40158973 -0.11556268 0 1.3737232e-05 0 0)
(-0.41292301 -0.11744515 0 -1.3076869e-05 0 0)
(-0.40220996 -0.11566688 0 1.2459943e-05 0 0)
(-0.41231972 -0.11734621 0 -1.186798e-05 0 0)
(-0.40276973 -0.11576077 0 1.1301181e-05 0 0)
(-0.41177578 -0.11725692 0 -1.076105e-05 0 0)
(-0.40327618 -0.11584559 0 1.024117e-05 0 0)
(-0.41128431 -0.11717616 0 -9.7457084e-06 0 0)
(-0.40373524 -0.11592238 0 9.2681746e-06 0 0)
(-0.41083944 -0.11710299 0 -8.8123864e-06 0 0)
(-0.40415197 -0.11599202 0 8.3733058e-06 0 0)
(-0.41043614 -0.11703661 0 -7.9543339e-06 0 0)
(-0.4045307 -0.11605524 0 7.551284e-06 0 0)
(-0.41007009 -0.11697631 0 -7.1667446e-06 0 0)
(-0.4048752 -0.1161127 0 6.7975659e-06 0 0)
(-0.40973751 -0.11692147 0 -6.445586e-06 0 0)
(-0.40518887 -0.11616499 0 6.1090258e-06 0 0)
(-0.409435 -0.11687156 0 -5.789063e-06 0 0)
(-0.40547472 -0.11621261 0 5.4844177e-06 0 0)
(-0.40915954 -0.11682607 0 -5.1959082e-06 0 0)
(-0.40573554 -0.11625604 0 4.922394e-06 0 0)
(-0.40890829 -0.11678454 0 -4.6644787e-06 0 0)
(-0.40597399 -0.11629573 0 4.4220003e-06 0 0)
(-0.40867856 -0.11674655 0 -4.1951341e-06 0 0)
(-0.40619259 -0.11633211 0 3.983408e-06 0 0)
(-0.40846777 -0.11671167 0 -3.78736e-06 0 0)
(-0.40639381 -0.11636557 0 3.6064671e-06 0 0)
(-0.40827343 -0.1166795 0 -3.4411239e-06 0 0)
(-0.40658009 -0.11639654 0 3.2913761e-06 0 0)
(-0.40809302 -0.11664963 0 -3.1575319e-06 0 0)
(-0.40675387 -0.1164254 0 3.0393585e-06 0 0)
(-0.40792407 -0.11662166 0 -2.9374883e-06 0 0)
(-0.40691761 -0.11645257 0 2.8520652e-06 0 0)
(-0.40776403 -0.11659518 0 -2.7854751e-06 0 0)
(-0.40707384 -0.11647844 0 2.7367884e-06 0 0)
(-0.40761002 -0.11656973 0 -2.6997012e-06 0 0)
(-0.4072249 -0.11650286 0 2.9918524e-06 0 0)
(-0.40745911 -0.11654588 0 -2.9908793e-06 0 0)
(-0.25514722 -0.13679771 0 -0.03550158 0 0)
(-0.3733904 -0.11023426 0 0.00046180474 0 0)
(-0.36810726 -0.11086324 0 -8.4880992e-05 0 0)
(-0.39054384 -0.11437625 0 -6.6850582e-06 0 0)
(-0.37362126 -0.11139421 0 2.1043935e-05 0 0)
(-0.39057982 -0.11429873 0 -1.0664181e-05 0 0)
(-0.37511433 -0.11162347 0 1.8034617e-05 0 0)
(-0.38988841 -0.11417831 0 -1.4448923e-05 0 0)
(-0.37597907 -0.11177324 0 1.493546e-05 0 0)
(-0.38914078 -0.11405064 0 -1.3770508e-05 0 0)
(-0.37669859 -0.11189946 0 1.3308738e-05 0 0)
(-0.3884511 -0.1139331 0 -1.2607921e-05 0 0)
(-0.37733782 -0.11201159 0 1.2046757e-05 0 0)
(-0.38782886 -0.11382698 0 -1.146931e-05 0 0)
(-0.37791302 -0.11211233 0 1.0933547e-05 0 0)
(-0.38726831 -0.11373126 0 -1.0416077e-05 0 0)
(-0.3784327 -0.11220319 0 9.9212892e-06 0 0)
(-0.3867625 -0.11364479 0 -9.4478388e-06 0 0)
(-0.37890325 -0.11228535 0 8.9922932e-06 0 0)
(-0.38630528 -0.11356655 0 -8.5567528e-06 0 0)
(-0.37932995 -0.11235976 0 8.1370239e-06 0 0)
(-0.38589134 -0.11349564 0 -7.7352456e-06 0 0)
(-0.37971735 -0.11242724 0 7.3482843e-06 0 0)
(-0.38551614 -0.11343131 0 -6.9781133e-06 0 0)
(-0.38006935 -0.11248849 0 6.6221637e-06 0 0)
(-0.38517577 -0.11337289 0 -6.2818068e-06 0 0)
(-0.38038935 -0.11254414 0 5.9551449e-06 0 0)
(-0.38486678 -0.11331981 0 -5.6430617e-06 0 0)
(-0.38068045 -0.11259473 0 5.3448768e-06 0 0)
(-0.38458606 -0.11327153 0 -5.0609557e-06 0 0)
(-0.38094541 -0.11264075 0 4.7907994e-06 0 0)
(-0.38433081 -0.1132276 0 -4.5345665e-06 0 0)
(-0.38118679 -0.11268267 0 4.2918315e-06 0 0)
(-0.38409839 -0.11318756 0 -4.0626264e-06 0 0)
(-0.38140708 -0.11272091 0 3.8474025e-06 0 0)
(-0.3838863 -0.11315099 0 -3.6457374e-06 0 0)
(-0.38160863 -0.11275589 0 3.4576687e-06 0 0)
(-0.38369211 -0.11311747 0 -3.2834198e-06 0 0)
(-0.38179374 -0.11278801 0 3.1227854e-06 0 0)
(-0.38351347 -0.11308662 0 -2.9758333e-06 0 0)
(-0.38196474 -0.11281767 0 2.8428633e-06 0 0)
(-0.38334802 -0.11305804 0 -2.7238799e-06 0 0)
(-0.38212391 -0.11284527 0 2.6189372e-06 0 0)
(-0.38319342 -0.11303132 0 -2.5284176e-06 0 0)
(-0.38227358 -0.1128712 0 2.4525563e-06 0 0)
(-0.38304725 -0.11300606 0 -2.3935239e-06 0 0)
(-0.38241613 -0.11289587 0 2.350105e-06 0 0)
(-0.3829068 -0.1129818 0 -2.315747e-06 0 0)
(-0.3825536 -0.1129191 0 2.6093765e-06 0 0)
(-0.38276692 -0.11295879 0 -2.637494e-06 0 0)
(-0.24432123 -0.12996025 0 -0.031779177 0 0)
(-0.34663857 -0.10604854 0 0.00059644686 0 0)
(-0.34438344 -0.10723686 0 -6.7357585e-05 0 0)
(-0.36591715 -0.11072514 0 -1.4404719e-06 0 0)
(-0.3503269 -0.107861 0 1.887494e-05 0 0)
(-0.3660544 -0.11066196 0 -7.9519851e-06 0 0)
(-0.35176677 -0.10808553 0 1.6007989e-05 0 0)
(-0.36543731 -0.11054803 0 -1.2339298e-05 0 0)
(-0.35257186 -0.10823005 0 1.3003507e-05 0 0)
(-0.36474799 -0.11042518 0 -1.1909936e-05 0 0)
(-0.35323776 -0.10835174 0 1.1555077e-05 0 0)
(-0.36410917 -0.1103118 0 -1.093764e-05 0 0)
(-0.35382959 -0.10845997 0 1.0462948e-05 0 0)
(-0.36353194 -0.11020929 0 -9.9627925e-06 0 0)
(-0.35436276 -0.10855732 0 9.5023916e-06 0 0)
(-0.3630114 -0.11011673 0 -9.0544094e-06 0 0)
(-0.35484493 -0.10864522 0 8.6265969e-06 0 0)
(-0.36254137 -0.11003304 0 -8.2155173e-06 0 0)
(-0.35528182 -0.10872475 0 7.8200709e-06 0 0)
(-0.36211631 -0.10995727 0 -7.440694e-06 0 0)
(-0.35567817 -0.10879681 0 7.0751006e-06 0 0)
(-0.36173145 -0.10988859 0 -6.7240324e-06 0 0)
(-0.35603802 -0.10886217 0 6.3859743e-06 0 0)
(-0.3613827 -0.10982629 0 -6.061795e-06 0 0)
(-0.35636489 -0.10892148 0 5.7501283e-06 0 0)
(-0.3610665 -0.10976974 0 -5.4514508e-06 0 0)
(-0.35666186 -0.10897532 0 5.1648937e-06 0 0)
(-0.36077971 -0.10971839 0 -4.8905538e-06 0 0)
(-0.35693173 -0.10902423 0 4.6286043e-06 0 0)
(-0.36051948 -0.10967175 0 -4.3787331e-06 0 0)
(-0.35717706 -0.10906866 0 4.1412074e-06 0 0)
(-0.36028322 -0.10962936 0 -3.9156105e-06 0 0)
(-0.3574002 -0.10910907 0 3.7020056e-06 0 0)
(-0.36006848 -0.10959079 0 -3.5000056e-06 0 0)
(-0.35760347 -0.10914587 0 3.3105392e-06 0 0)
(-0.35987291 -0.10955563 0 -3.1328524e-06 0 0)
(-0.35778905 -0.10917947 0 2.9672936e-06 0 0)
(-0.35969426 -0.10952347 0 -2.8137302e-06 0 0)
(-0.35795913 -0.10921026 0 2.6722489e-06 0 0)
(-0.35953028 -0.10949393 0 -2.5426588e-06 0 0)
(-0.35811588 -0.10923863 0 2.425573e-06 0 0)
(-0.35937876 -0.10946661 0 -2.320743e-06 0 0)
(-0.35826145 -0.10926498 0 2.2283194e-06 0 0)
(-0.35923749 -0.10944112 0 -2.1484499e-06 0 0)
(-0.35839805 -0.1092897 0 2.0815299e-06 0 0)
(-0.3591042 -0.10941706 0 -2.0294671e-06 0 0)
(-0.35852793 -0.10931318 0 1.9908309e-06 0 0)
(-0.35897632 -0.10939398 0 -1.9588313e-06 0 0)
(-0.35865283 -0.10933526 0 2.2479997e-06 0 0)
(-0.35884705 -0.10937184 0 -2.3041756e-06 0 0)
(-0.23397565 -0.12337303 0 -0.028226535 0 0)
(-0.32142064 -0.10194874 0 0.0007375152 0 0)
(-0.3213999 -0.10360003 0 -4.5466669e-05 0 0)
(-0.34211312 -0.10707238 0 4.4525862e-06 0 0)
(-0.32776761 -0.10432644 0 1.7309134e-05 0 0)
(-0.34233806 -0.10702605 0 -5.4065455e-06 0 0)
(-0.32915376 -0.10454668 0 1.4114573e-05 0 0)
(-0.34179086 -0.10691852 0 -1.0375553e-05 0 0)
(-0.32990384 -0.10468615 0 1.1192855e-05 0 0)
(-0.34115628 -0.10680037 0 -1.0170763e-05 0 0)
(-0.33051987 -0.10480343 0 9.9124119e-06 0 0)
(-0.34056509 -0.10669105 0 -9.373377e-06 0 0)
(-0.33106744 -0.10490785 0 8.9784344e-06 0 0)
(-0.34003004 -0.10659207 0 -8.5503655e-06 0 0)
(-0.33156125 -0.10500188 0 8.1599e-06 0 0)
(-0.33954706 -0.1065026 0 -7.7767942e-06 0 0)
(-0.33200825 -0.10508687 0 7.4114417e-06 0 0)
(-0.33911067 -0.10642165 0 -7.058691e-06 0 0)
(-0.33241354 -0.10516382 0 6.7193685e-06 0 0)
(-0.33871588 -0.10634832 0 -6.3926728e-06 0 0)
(-0.33278133 -0.10523356 0 6.0777844e-06 0 0)
(-0.33835843 -0.10628184 0 -5.7744372e-06 0 0)
(-0.33311524 -0.10529681 0 5.4823341e-06 0 0)
(-0.33803461 -0.10622155 0 -5.2014712e-06 0 0)
(-0.33341844 -0.10535418 0 4.9315319e-06 0 0)
(-0.33774121 -0.10616685 0 -4.6722313e-06 0 0)
(-0.33369371 -0.10540624 0 4.4234951e-06 0 0)
(-0.33747535 -0.10611724 0 -4.1848425e-06 0 0)
(-0.3339436 -0.10545347 0 3.9571507e-06 0 0)
(-0.33723443 -0.10607222 0 -3.7396137e-06 0 0)
(-0.33417045 -0.10549632 0 3.5329597e-06 0 0)
(-0.33701604 -0.10603136 0 -3.3363851e-06 0 0)
(-0.33437645 -0.10553523 0 3.1503896e-06 0 0)
(-0.33681791 -0.10599425 0 -2.9742465e-06 0 0)
(-0.33456374 -0.10557061 0 2.8092671e-06 0 0)
(-0.33663785 -0.10596049 0 -2.6542939e-06 0 0)
(-0.33473438 -0.10560284 0 2.5100017e-06 0 0)
(-0.33647373 -0.10592967 0 -2.3760967e-06 0 0)
(-0.3348904 -0.10563231 0 2.2528254e-06 0 0)
(-0.33632345 -0.10590142 0 -2.1398005e-06 0 0)
(-0.33503386 -0.10565941 0 2.0377677e-06 0 0)
(-0.33618491 -0.10587535 0 -1.946285e-06 0 0)
(-0.33516678 -0.10568453 0 1.8656741e-06 0 0)
(-0.33605605 -0.10585107 0 -1.7959157e-06 0 0)
(-0.33529124 -0.10570806 0 1.7373992e-06 0 0)
(-0.33593471 -0.10582819 0 -1.6918452e-06 0 0)
(-0.33540936 -0.10573038 0 1.6575579e-06 0 0)
(-0.33581849 -0.10580625 0 -1.6273562e-06 0 0)
(-0.33552264 -0.10575134 0 1.90677e-06 0 0)
(-0.33569935 -0.105785 0 -1.9915793e-06 0 0)
(-0.22405396 -0.11702286 0 -0.024840355 0 0)
(-0.29769035 -0.097932322 0 0.00088440187 0 0)
(-0.29921504 -0.099957846 0 -1.9700398e-05 0 0)
(-0.3191078 -0.10341704 0 1.0768163e-05 0 0)
(-0.30594566 -0.10079069 0 1.6353772e-05 0 0)
(-0.31942731 -0.10339093 0 -3.0159103e-06 0 0)
(-0.30727835 -0.101007 0 1.2341816e-05 0 0)
(-0.31894626 -0.10328971 0 -8.5465622e-06 0 0)
(-0.30797767 -0.10114159 0 9.4926102e-06 0 0)
(-0.31836319 -0.10317615 0 -8.5432926e-06 0 0)
(-0.30854726 -0.10125456 0 8.3713602e-06 0 0)
(-0.31781671 -0.10307079 0 -7.9064648e-06 0 0)
(-0.30905341 -0.10135526 0 7.5850051e-06 0 0)
(-0.31732127 -0.10297527 0 -7.2243435e-06 0 0)
(-0.30951031 -0.10144604 0 6.8988747e-06 0 0)
(-0.31687363 -0.10288885 0 -6.5764328e-06 0 0)
(-0.30992426 -0.10152817 0 6.2692749e-06 0 0)
(-0.31646892 -0.10281059 0 -5.9712349e-06 0 0)
(-0.3102998 -0.10160256 0 5.6844599e-06 0 0)
(-0.31610269 -0.10273968 0 -5.4072861e-06 0 0)
(-0.31064068 -0.10167 0 5.1400038e-06 0 0)
(-0.31577111 -0.10267539 0 -4.8815969e-06 0 0)
(-0.31095013 -0.10173116 0 4.6327352e-06 0 0)
(-0.31547085 -0.10261709 0 -4.3928272e-06 0 0)
(-0.31123099 -0.10178662 0 4.1622288e-06 0 0)
(-0.31519898 -0.10256424 0 -3.9401959e-06 0 0)
(-0.31148578 -0.10183689 0 3.7272345e-06 0 0)
(-0.3149529 -0.10251634 0 -3.5224491e-06 0 0)
(-0.31171683 -0.10188245 0 3.3271947e-06 0 0)
(-0.31473019 -0.10247294 0 -3.1402959e-06 0 0)
(-0.31192627 -0.10192374 0 2.9629339e-06 0 0)
(-0.31452864 -0.10243361 0 -2.7939793e-06 0 0)
(-0.31211614 -0.10196116 0 2.6341823e-06 0 0)
(-0.31434613 -0.10239795 0 -2.4826082e-06 0 0)
(-0.31228843 -0.10199512 0 2.3408259e-06 0 0)
(-0.31418062 -0.10236556 0 -2.207526e-06 0 0)
(-0.31244506 -0.10202599 0 2.0835206e-06 0 0)
(-0.31403011 -0.10233607 0 -1.9683085e-06 0 0)
(-0.31258795 -0.10205417 0 1.8622922e-06 0 0)
(-0.31389263 -0.10230909 0 -1.7649536e-06 0 0)
(-0.312719 -0.10208002 0 1.6772129e-06 0 0)
(-0.3137662 -0.10228425 0 -1.5984847e-06 0 0)
(-0.31284015 -0.10210393 0 1.529087e-06 0 0)
(-0.31364887 -0.10226116 0 -1.4688583e-06 0 0)
(-0.31295333 -0.10212628 0 1.4182572e-06 0 0)
(-0.31353863 -0.10223944 0 -1.3787695e-06 0 0)
(-0.31306054 -0.10214746 0 1.3485337e-06 0 0)
(-0.31343322 -0.10221863 0 -1.319978e-06 0 0)
(-0.31316307 -0.10216734 0 1.5854655e-06 0 0)
(-0.31332374 -0.10219827 0 -1.6983305e-06 0 0)
(-0.21450351 -0.11089724 0 -0.021616797 0 0)
(-0.2753979 -0.093995877 0 0.0010374158 0 0)
(-0.27786664 -0.096314665 0 8.7879961e-06 0 0)
(-0.29689122 -0.099759228 0 1.727333e-05 0 0)
(-0.28486248 -0.097253818 0 1.5918662e-05 0 0)
(-0.2973192 -0.099756542 0 -7.8193577e-07 0 0)
(-0.28614314 -0.09746653 0 1.0674663e-05 0 0)
(-0.29690108 -0.099661536 0 -6.8413975e-06 0 0)
(-0.28679565 -0.097596417 0 7.8928908e-06 0 0)
(-0.2963666 -0.099552482 0 -7.0182002e-06 0 0)
(-0.28732193 -0.097705191 0 6.9231e-06 0 0)
(-0.29586217 -0.099451005 0 -6.52865e-06 0 0)
(-0.28778927 -0.097802232 0 6.2748606e-06 0 0)
(-0.295404 -0.099358882 0 -5.9773829e-06 0 0)
(-0.28821149 -0.097889822 0 5.712351e-06 0 0)
(-0.29498966 -0.099275451 0 -5.4467855e-06 0 0)
(-0.28859433 -0.097969118 0 5.1940628e-06 0 0)
(-0.29461486 -0.09919986 0 -4.9474003e-06 0 0)
(-0.28894182 -0.098040987 0 4.7098657e-06 0 0)
(-0.29427562 -0.099131338 0 -4.4793483e-06 0 0)
(-0.28925729 -0.098106149 0 4.2568222e-06 0 0)
(-0.29396851 -0.099069217 0 -4.0409024e-06 0 0)
(-0.28954364 -0.09816523 0 3.832828e-06 0 0)
(-0.29369053 -0.099012908 0 -3.6316658e-06 0 0)
(-0.28980339 -0.098218775 0 3.4382836e-06 0 0)
(-0.29343903 -0.098961896 0 -3.2516133e-06 0 0)
(-0.29003884 -0.098267273 0 3.0725225e-06 0 0)
(-0.29321163 -0.098915709 0 -2.8998983e-06 0 0)
(-0.29025209 -0.098311177 0 2.7354265e-06 0 0)
(-0.29300612 -0.098873912 0 -2.5777434e-06 0 0)