/*--------------------------------*- C++ -*----------------------------------*\
| =========                 |                                                 |
| \\      /  F ield         | OpenFOAM: The Open Source CFD Toolbox           |
|  \\    /   O peration     | Version:  2312                                  |
|   \\  /    A nd           | Website:  www.openfoam.com                      |
|    \\/     M anipulation  |                                                 |
\*---------------------------------------------------------------------------*/
FoamFile
{
    version     2.0;
    format      ascii;
    arch        "LSB;label=32;scalar=64";
    class       volScalarField;
    location    "1";
    object      T;
}
// * * * * * * * * * * * * * * * * * * * * * * * * * * * * * * * * * * * * * //

dimensions      [0 0 0 1 0 0 0];

internalField   nonuniform List<scalar> 
4000
(
309.26119
310.16105
310.28972
310.37262
310.43358
310.48907
310.5324
310.57563
310.61198
310.6514
310.68661
310.72569
310.76143
310.80077
310.83707
310.87652
310.91317
310.95256
310.98943
311.02871
311.06574
311.10489
311.14205
311.18108
311.21836
311.25728
311.29466
311.33348
311.37096
311.40969
311.44725
311.48591
311.52354
311.56213
311.59982
311.63835
311.67609
311.71458
311.75237
311.79081
311.82863
311.86706
311.90488
311.94332
311.98111
312.01962
312.05728
312.096
312.13331
312.17292
307.44604
309.25637
309.56218
309.73238
309.83714
309.92551
309.97754
310.02912
310.06001
310.09996
310.12731
310.16618
310.19509
310.23473
310.26533
310.30529
310.33694
310.37676
310.40907
310.44855
310.48133
310.52043
310.5536
310.59235
310.62587
310.66429
310.69812
310.73625
310.77036
310.80822
310.84258
310.88021
310.91478
310.95221
310.98697
311.02423
311.05914
311.09626
311.1313
311.16831
311.20344
311.24039
311.27555
311.31252
311.34757
311.38476
311.41943
311.45724
311.49085
311.53129
306.13344
308.36427
308.83721
309.09344
309.24225
309.36407
309.42573
309.48618
309.51215
309.55271
309.57237
309.6109
309.63303
309.67283
309.69778
309.73817
309.76489
309.80507
309.83288
309.87251
309.90112
309.94013
309.96938
310.0078
310.03763
310.07552
310.10586
310.14326
310.17406
310.21103
310.24223
310.27882
310.31038
310.34664
310.3785
310.41448
310.4466
310.48234
310.51467
310.55024
310.58271
310.61817
310.65069
310.6862
310.71853
310.75442
310.78611
310.82303
310.85297
310.89406
305.14897
307.49836
308.11884
308.45787
308.65061
308.8064
308.87904
308.94913
308.97101
309.0123
309.02454
309.06253
309.07799
309.11772
309.13714
309.17777
309.1997
309.2401
309.26357
309.30325
309.32781
309.36664
309.3921
309.43013
309.45638
309.49366
309.52062
309.55724
309.58482
309.62085
309.64898
309.6845
309.71312
309.74818
309.77722
309.81189
309.84128
309.87564
309.90531
309.93942
309.9693
310.00327
310.03319
310.06725
310.0969
310.13149
310.16024
310.19626
310.22261
310.26407
304.38924
306.67221
307.41259
307.82859
308.06439
308.2544
308.33955
308.42016
308.43904
308.48121
308.48643
308.52362
308.53256
308.57194
308.58597
308.62661
308.64393
308.68438
308.70369
308.74327
308.76397
308.80251
308.82434
308.86188
308.8847
308.92131
308.94501
308.98079
309.00527
309.04032
309.06549
309.09989
309.12567
309.1595
309.1858
309.21915
309.2459
309.27884
309.30595
309.33858
309.36593
309.39841
309.42581
309.4584
309.48543
309.51874
309.5446
309.57972
309.60259
309.6441
303.7899
305.8976
306.72498
307.2093
307.48616
307.71009
307.80928
307.90133
307.91852
307.96177
307.96048
307.99657
307.99921
308.03785
308.04668
308.08706
308.09997
308.14027
308.15564
308.19497
308.21202
308.25014
308.26854
308.30547
308.32505
308.36088
308.3815
308.41636
308.4379
308.47188
308.49424
308.52746
308.55054
308.58309
308.60678
308.63877
308.66298
308.69449
308.71912
308.75027
308.77519
308.80616
308.83111
308.86225
308.88674
308.91876
308.94182
308.97602
308.99557
309.03676
303.30904
305.18361
306.06298
306.60426
306.91886
307.17567
307.29023
307.39457
307.4115
307.45607
307.44891
307.48358
307.48017
307.51768
307.52152
307.5613
307.57006
307.60996
307.62166
307.66055
307.67421
307.71174
307.72695
307.76315
307.77969
307.81464
307.83237
307.86621
307.88499
307.91784
307.93755
307.96953
307.99005
308.02128
308.04249
308.07308
308.09488
308.12493
308.14721
308.17686
308.19945
308.22891
308.25151
308.2812
308.30323
308.33397
308.35434
308.38757
308.40401
308.44453
302.91822
304.53631
305.43339
306.01806
306.36567
306.65342
306.78431
306.90167
306.91982
306.96603
306.9537
306.98667
306.97749
307.01344
307.01252
307.05135
307.05623
307.09547
307.10377
307.14201
307.15255
307.18935
307.20162
307.23694
307.25068
307.28464
307.29969
307.33243
307.34863
307.38028
307.39751
307.4282
307.44632
307.47618
307.49506
307.52422
307.54375
307.57232
307.59237
307.6205
307.64088
307.66883
307.6892
307.71744
307.73711
307.76657
307.78437
307.81659
307.83017
307.86966
302.59735
303.95877
304.8424
305.4554
305.82996
306.14573
306.29339
306.42422
306.44512
306.49328
306.4766
306.5076
306.493
306.52694
306.52151
306.55901
306.56027
306.59858
306.60378
306.64117
306.64888
306.68476
306.69436
306.72867
306.73987
306.77272
306.78532
306.81685
306.83069
306.86106
306.876
306.90533
306.92123
306.94968
306.9664
306.99409
307.0115
307.03857
307.05652
307.08314
307.10143
307.12787
307.14611
307.17291
307.19035
307.21853
307.2339
307.26505
307.27603
307.31418
302.33178
303.45127
304.29509
304.92078
305.31509
305.655
305.81925
305.96371
305.98876
306.03925
306.0191
306.04791
306.02826
306.05975
306.05006
306.08586
306.08378
306.12086
306.12327
306.15959
306.16477
306.19957
306.20678
306.23995
306.24885
306.28047
306.29086
306.3211
306.33279
306.3618
306.37465
306.40258
306.41644
306.44343
306.45815
306.48435
306.49979
306.52535
306.54135
306.56644
306.58278
306.60771
306.62396
306.64934
306.66467
306.69155
306.70466
306.73466
306.74335
306.77987
302.11046
303.01175
303.79517
304.41826
304.82432
305.18359
305.36358
305.52144
305.55193
305.6051
305.58241
305.60888
305.58459
305.61323
305.59952
305.63323
305.62807
305.66366
305.66355
305.69861
305.70155
305.73512
305.74021
305.77211
305.77897
305.80927
305.81767
305.84654
305.8563
305.8839
305.89485
305.92133
305.93332
305.95884
305.97172
305.99642
306.01005
306.03408
306.04828
306.07184
306.08637
306.10981
306.12419
306.14815
306.16151
306.1871
306.19811
306.2269
306.23358
306.26826
301.92488
302.63621
303.3448
303.95119
304.36064
304.73378
304.92797
305.09856
305.13556
305.19175
305.16749
305.19153
305.16305
305.18844
305.17098
305.20222
305.19425
305.22806
305.22573
305.25932
305.26031
305.29249
305.29574
305.32625
305.33133
305.36022
305.36687
305.3943
305.40234
305.42847
305.43772
305.46271
305.47303
305.49704
305.50826
305.53143
305.54341
305.56591
305.57846
305.60051
305.61337
305.63532
305.64797
305.67054
305.68206
305.70636
305.71547
305.74295
305.74793
305.78058
301.76832
302.31933
302.94459
303.52208
303.92661
304.30763
304.51384
304.69608
304.74038
304.79989
304.77502
304.79662
304.76441
304.78625
304.76527
304.79369
304.78313
304.81491
304.81063
304.84257
304.84188
304.87255
304.87422
304.90324
304.90678
304.93418
304.9393
304.96523
304.97176
304.99638
305.00412
305.0276
305.03641
305.05891
305.06863
305.09029
305.10076
305.12176
305.13279
305.15335
305.16466
305.18517
305.19621
305.2174
305.22724
305.25024
305.25763
305.28374
305.2873
305.3178
301.63544
302.05486
302.59367
303.13247
303.52427
303.90697
304.12248
304.31482
304.36691
304.42996
304.40543
304.42464
304.38922
304.40722
304.38296
304.40825
304.39532
304.42481
304.41882
304.44896
304.44684
304.47589
304.47623
304.50368
304.50591
304.53175
304.53557
304.55996
304.56516
304.58825
304.59467
304.61663
304.6241
304.64508
304.65346
304.67361
304.68273
304.70223
304.7119
304.73098
304.74089
304.75998
304.76955
304.7894
304.7977
304.81939
304.82527
304.84993
304.85234
304.88062
301.5219
301.83617
302.28992
302.78286
303.15503
303.53327
303.75492
303.95546
304.01551
304.0822
304.05888
304.07586
304.03773
304.0517
304.02441
304.04627
304.03117
304.05815
304.05067
304.07885
304.07555
304.10287
304.10212
304.12793
304.12906
304.15332
304.15602
304.17884
304.18292
304.20446
304.20973
304.23016
304.23646
304.25593
304.26312
304.28178
304.28969
304.30773
304.31616
304.33381
304.34244
304.36014
304.36838
304.38691
304.39382
304.4142
304.41876
304.44192
304.44342
304.46945
301.42423
301.65661
302.03016
302.4728
302.81964
303.1876
303.41198
303.6185
303.68631
303.75665
303.73535
303.75028
303.70997
303.71979
303.68969
303.70789
303.69078
303.71506
303.70629
303.73238
303.72812
303.75363
303.752
303.77612
303.77637
303.799
303.80078
303.82201
303.82513
303.84513
303.84941
303.86832
303.87361
303.89159
303.89773
303.91494
303.92177
303.93838
303.9457
303.96196
303.96944
303.9858
303.99284
304.01007
304.01575
304.03481
304.03825
304.05985
304.06066
304.08447
301.3396
301.50982
301.81051
302.20094
302.51813
302.87059
303.09421
303.30424
303.37931
303.45315
303.43458
303.44771
303.40576
303.41138
303.3787
303.39304
303.37406
303.39548
303.38557
303.40948
303.40444
303.42809
303.42577
303.44818
303.44772
303.46871
303.46975
303.4894
303.49172
303.51018
303.51362
303.53105
303.53545
303.55198
303.5572
303.57299
303.57888
303.5941
303.60043
303.61535
303.6218
303.63686
303.64281
303.65879
303.66338
303.68114
303.68363
303.70366
303.70395
303.72559
301.26572
301.38995
301.62659
301.96518
302.24987
302.58239
302.80185
303.01278
303.09432
303.17138
303.15613
303.16773
303.12467
303.12613
303.09111
303.10143
303.08071
303.09912
303.08823
303.10988
303.10421
303.12598
303.12313
303.14382
303.14281
303.16218
303.16261
303.1807
303.18237
303.19933
303.20206
303.21803
303.22168
303.2368
303.24123
303.25565
303.26069
303.27458
303.28005
303.29367
303.2992
303.31302
303.31801
303.33277
303.33641
303.35288
303.35458
303.37303
303.37296
303.39252
301.20076
301.29182
301.47388
301.76283
302.01365
302.32272
302.53483
302.74406
302.83102
302.91089
302.89939
302.90978
302.86613
302.86352
302.82638
302.83261
302.81025
302.82556
302.81378
302.83311
302.82696
302.84683
302.8436
302.86258
302.86116
302.87892
302.87889
302.89546
302.89659
302.91209
302.91423
302.92879
302.9318
302.94556
302.9493
302.96241
302.96673
302.97934
302.98404
302.99643
303.00114
303.01378
303.01792
303.0315
303.03433
303.04952
303.05059
303.06748
303.06716
303.08474
301.14322
301.211
301.3479
301.5908
301.80771
302.09082
302.29278
302.49776
302.58892
302.67107
302.66363
302.67311
302.62937
302.62287
302.58384
302.58594
302.56204
302.57416
302.56159
302.57858
302.57205
302.59002
302.58653
302.60383
302.60213
302.61832
302.61794
302.63302
302.63374
302.64782
302.64948
302.66269
302.66516
302.67762
302.68078
302.69263
302.69631
302.70772
302.71174
302.72297
302.72696
302.73847
302.74186
302.75432
302.75645
302.77039
302.77097
302.78633
302.78586
302.80158
301.09195
301.14377
301.24438
301.44578
301.6299
301.88555
302.07504
302.27342
302.36742
302.45121
302.448
302.45687
302.4135
302.40334
302.36266
302.36064
302.33527
302.34418
302.33087
302.34551
302.33869
302.35479
302.35114
302.3668
302.36491
302.37959
302.37896
302.39261
302.39301
302.40574
302.40701
302.41893
302.42095
302.43218
302.43483
302.4455
302.44864
302.4589
302.46233
302.47246
302.47582
302.48627
302.48902
302.50038
302.50195
302.51466
302.51488
302.52875
302.52821
302.54219
301.046
301.08715
301.15945
301.32439
301.47778
301.70543
301.88067
302.07035
302.16578
302.25051
302.25154
302.26008
302.21752
302.20398
302.16188
302.15582
302.12905
302.13475
302.12075
302.13305
302.126
302.14027
302.13653
302.15061
302.14862
302.16184
302.16105
302.17334
302.1735
302.18493
302.1859
302.19659
302.19825
302.20831
302.21054
302.22009
302.22276
302.23196
302.23487
302.24398
302.24679
302.25623
302.25843
302.26876
302.26985
302.28139
302.28133
302.29378
302.29322
302.30561
301.00462
301.03878
301.08964
301.22333
301.34873
301.5487
301.70847
301.8877
301.98316
302.06807
302.07325
302.0817
302.04033
302.02375
301.98045
301.97047
301.94237
301.94487
301.93022
301.94021
301.93298
301.94547
301.94171
301.95427
301.95225
301.96409
301.96319
301.9742
301.97418
301.98441
301.98513
301.99468
301.99603
302.00501
302.00688
302.01539
302.01766
302.02586
302.02833
302.03647
302.03881
302.04731
302.04904
302.05839
302.0591
302.06952
302.06927
302.08038
302.07983
302.09075
300.96723
300.99684
301.03201
301.1395
301.24009
301.41345
301.55708
301.72447
301.81862
301.90295
301.91206
301.92064
301.8808
301.86151
301.81725
301.80351
301.77415
301.77351
301.75822
301.76595
301.75858
301.76936
301.76561
301.77673
301.77472
301.78527
301.78432
301.79412
301.79398
301.80307
301.80361
301.81209
301.8132
301.82116
301.82274
301.83028
301.83221
301.83949
301.84157
301.84883
301.85076
301.85838
301.85972
301.86814
301.86856
301.8779
301.87753
301.88738
301.88687
301.89646
300.93338
300.95999
300.98406
301.07007
301.14924
301.29761
301.42497
301.57951
301.67115
301.75414
301.76688
301.77575
301.73771
301.71609
301.67109
301.6538
301.62323
301.61956
301.60364
301.60917
301.60167
301.61081
301.60712
301.61687
301.61492
301.62425
301.6233
301.63197
301.63176
301.6398
301.6402
301.64769
301.6486
301.65562
301.65695
301.66361
301.66524
301.67167
301.67343
301.67987
301.68145
301.68826
301.68927
301.69682
301.69701
301.70534
301.70491
301.71359
301.71313
301.72152
300.90268
300.92724
300.94378
301.01252
301.07366
301.19911
301.31051
301.45159
301.53966
301.62061
301.6366
301.64588
301.60987
301.58628
301.54077
301.52015
301.48846
301.48185
301.46531
301.46874
301.46111
301.46869
301.46507
301.47355
301.47168
301.47988
301.47895
301.48659
301.48633
301.49341
301.4937
301.50028
301.50103
301.5072
301.50832
301.51417
301.51555
301.52121
301.52269
301.52838
301.52966
301.53572
301.53647
301.5432
301.54322
301.55061
301.55015
301.55776
301.55736
301.56467
300.87484
300.89789
300.90957
300.96467
301.01103
301.11588
301.21202
301.33941
301.42303
301.5013
301.52012
301.52988
301.49607
301.47088
301.42506
301.40137
301.36862
301.35922
301.34207
301.34349
301.33573
301.34185
301.33831
301.34561
301.34384
301.35099
301.35011
301.35679
301.35653
301.36271
301.36293
301.36868
301.36931
301.37469
301.37565
301.38075
301.38193
301.38688
301.38812
301.39313
301.39416
301.39953
301.40006
301.40603
301.40594
301.41245
301.412
301.41864
301.41829
301.42463
300.84963
300.87146
300.88019
300.9247
300.95926
301.04596
301.12784
301.24163
301.32011
301.39516
301.41635
301.42664
301.39511
301.36868
301.32274
301.29626
301.26254
301.25051
301.23275
301.23226
301.22437
301.22913
301.22567
301.23187
301.23021
301.2364
301.23559
301.2414
301.24114
301.24652
301.24669
301.25169
301.25222
301.25689
301.25771
301.26214
301.26314
301.26746
301.26849
301.27288
301.27371
301.27844
301.27881
301.28408
301.28392
301.28962
301.28919
301.29495
301.29466
301.30014
300.82685
300.84759
300.85468
300.89109
300.9165
300.9875
301.05633
301.15689
301.22975
301.30112
301.32422
301.33504
301.30586
301.2785
301.23262
301.20364
301.16903
301.15454
301.13619
301.13391
301.12589
301.12938
301.12599
301.1312
301.12964
301.13497
301.13423
301.13925
301.13901
301.14366
301.1438
301.14812
301.14857
301.15261
301.1533
301.15714
301.15799
301.16174
301.1626
301.16643
301.16709
301.17124
301.17148
301.17611
301.1759
301.18086
301.18048
301.18544
301.1852
301.18993
300.80634
300.82607
300.83236
300.86262
300.88114
300.9388
300.99591
301.08386
301.15081
301.21817
301.24273
301.25403
301.22719
301.19919
301.15353
301.12234
301.08695
301.07018
301.05127
301.04732
301.03915
301.04147
301.03816
301.04246
301.041
301.04555
301.04489
301.0492
301.04899
301.05299
301.05311
301.05682
301.05721
301.06068
301.06128
301.06458
301.06531
301.06854
301.06926
301.07259
301.07311
301.07674
301.07688
301.08092
301.08069
301.08499
301.08464
301.08891
301.08872
301.09277
300.78798
300.80672
300.8127
300.83832
300.85184
300.89836
300.94513
301.02126
301.08218
301.14529
301.17087
301.1826
301.15805
301.12968
301.08437
301.05126
301.01517
300.99633
300.97688
300.9714
300.96309
300.96434
300.96108
300.96456
300.96321
300.96707
300.96647
300.97016
300.96997
300.97339
300.9735
300.97668
300.97701
300.97999
300.9805
300.98333
300.98395
300.98672
300.98732
300.9902
300.99061
300.99377
300.99384
300.99734
300.99711
301.00082
301.00052
301.00416
301.00401
301.00747
300.77167
300.78942
300.79535
300.81744
300.82746
300.86482
300.90263
300.96786
301.02278
301.08153
301.10773
301.11981
301.09744
301.06891
301.02408
300.98932
300.95265
300.93194
300.91199
300.90512
300.89666
300.89695
300.89374
300.89648
300.89523
300.89846
300.89793
300.90106
300.90091
300.90382
300.90392
300.90662
300.90691
300.90944
300.90989
300.9123
300.91283
300.91521
300.9157
300.91818
300.9185
300.92123
300.92125
300.92428
300.92406
300.92723
300.92698
300.93008
300.92996
300.93291
300.75731
300.77407
300.78002
300.7994
300.8071
300.83704
300.86719
300.92251
300.97161
301.02596
301.05243
301.06475
301.04444
301.01592
300.97166
300.93552
300.89837
300.87601
300.85561
300.84748
300.83888
300.8383
300.83513
300.83723
300.83605
300.83874
300.83828
300.84092
300.84079
300.84325
300.84335
300.84564
300.8459
300.84804
300.84843
300.85047
300.85092
300.85295
300.85336
300.85549
300.85574
300.85809
300.85808
300.86068
300.86047
300.86317
300.86297
300.86559
300.8655
300.86801
300.74484
300.76058
300.76653
300.78375
300.79
300.81401
300.83773
300.88417
300.92771
300.97772
301.00415
301.0166
300.99819
300.96981
300.92618
300.88893
300.8514
300.8276
300.8068
300.79756
300.78883
300.78748
300.78435
300.78587
300.78477
300.78697
300.78657
300.78878
300.78869
300.79076
300.79085
300.79278
300.79301
300.79482
300.79516
300.79688
300.79727
300.79898
300.79933
300.80115
300.80133
300.80335
300.80332
300.80554
300.80536
300.80765
300.80748
300.80969
300.80962
300.81174
300.73417
300.74886
300.75472
300.77017
300.77559
300.79491
300.8133
300.85186
300.89019
300.93601
300.96212
300.97458
300.95788
300.92974
300.88679
300.84865
300.81086
300.78583
300.7647
300.75449
300.74564
300.74363
300.74052
300.74155
300.74051
300.7423
300.74195
300.74379
300.74372
300.74545
300.74554
300.74715
300.74737
300.74888
300.74917
300.75062
300.75095
300.7524
300.75269
300.75423
300.75438
300.7561
300.75605
300.75794
300.75778
300.75971
300.75958
300.76144
300.76139
300.76318
300.72524
300.73881
300.74446
300.75838
300.7634
300.77905
300.79306
300.82474
300.85827
300.90008
300.92566
300.938
300.92279
300.89495
300.8527
300.81388
300.77595
300.74989
300.72851
300.71747
300.70854
300.70595
300.70287
300.70346
300.70248
300.70391
300.7036
300.70512
300.70507
300.70651
300.70661
300.70795
300.70814
300.7094
300.70966
300.71087
300.71115
300.71237
300.71261
300.71392
300.71402
300.71549
300.71544
300.71703
300.7169
300.71852
300.71841
300.71997
300.71993
300.72143
300.71795
300.73033
300.73562
300.74818
300.75306
300.76585
300.77631
300.80203
300.8312
300.86925
300.89411
300.90621
300.89227
300.86473
300.82319
300.7839
300.74592
300.71905
300.69749
300.68577
300.67677
300.67369
300.67064
300.67087
300.66994
300.67105
300.67079
300.67204
300.67201
300.6732
300.67329
300.6744
300.67457
300.67561
300.67584
300.67685
300.67709
300.67811
300.67831
300.67941
300.67949
300.68073
300.68068
300.68202
300.68191
300.68326
300.68318
300.68448
300.68445
300.68571
300.71218
300.72328
300.72811
300.73941
300.74427
300.75485
300.76245
300.78307
300.80834
300.84289
300.86689
300.87861
300.8657
300.83847
300.79762
300.75803
300.72011
300.69264
300.67098
300.65871
300.64969
300.64621
300.64319
300.6431
300.64221
300.64307
300.64284
300.64385
300.64384
300.64482
300.6449
300.64582
300.64598
300.64684
300.64704
300.64787
300.64808
300.64893
300.64909
300.65002
300.65008
300.65112
300.65107
300.65219
300.6521
300.65323
300.65317
300.65425
300.65423
300.65528
300.7078
300.71754
300.7218
300.73192
300.73682
300.74565
300.75098
300.76727
300.78909
300.82044
300.84347
300.85468
300.84256
300.81559
300.7754
300.73567
300.69793
300.67003
300.64837
300.6357
300.62668
300.62288
300.6199
300.61956
300.61871
300.61935
300.61914
300.61996
300.61995
300.62075
300.62084
300.62159
300.62173
300.62243
300.62261
300.6233
300.62348
300.62418
300.62432
300.62509
300.62514
300.62601
300.62596
300.6269
300.62683
300.62776
300.62771
300.6286
300.62859
300.62946
300.70461
300.71296
300.71657
300.72556
300.73051
300.73796
300.74147
300.75413
300.77296
300.80139
300.82336
300.83393
300.82236
300.79559
300.75603
300.7163
300.67883
300.6507
300.62913
300.61618
300.60722
300.60317
300.60023
300.59968
300.59887
300.59933
300.59914
300.5998
300.5998
300.60045
300.60053
300.60114
300.60127
300.60185
300.602
300.60256
300.60272
300.6033
300.60341
300.60405
300.60409
300.60481
300.60478
300.60555
300.6055
300.60626
300.60623
300.60697
300.60696
300.60768
300.70243
300.70938
300.71231
300.72024
300.72518
300.73151
300.73359
300.74324
300.75949
300.7853
300.80613
300.81593
300.80466
300.77802
300.73905
300.69944
300.66235
300.63416
300.61277
300.59968
300.59081
300.58659
300.58371
300.583
300.58221
300.58252
300.58236
300.58287
300.58288
300.58341
300.58348
300.58398
300.58409
300.58456
300.5847
300.58516
300.58529
300.58577
300.58586
300.58639
300.58642
300.58702
300.58699
300.58763
300.58759
300.58821
300.58819
300.5888
300.58879
300.58939
300.70104
300.70664
300.70888
300.71582
300.72071
300.72609
300.72703
300.73422
300.74829
300.77175
300.79139
300.80027
300.78908
300.76248
300.72407
300.68469
300.64808
300.62
300.59889
300.58577
300.57703
300.57272
300.56989
300.56906
300.56831
300.5685
300.56835
300.56875
300.56877
300.56919
300.56926
300.56966
300.56976
300.57014
300.57025
300.57063
300.57074
300.57113
300.57121
300.57165
300.57167
300.57217
300.57214
300.57266
300.57263
300.57314
300.57313
300.57363
300.57363
300.57411
300.70024
300.70459
300.70618
300.71219
300.71697
300.72154
300.72156
300.72677
300.73902
300.7604
300.77878
300.78662
300.77528
300.74863
300.71073
300.6717
300.63567
300.60785
300.58712
300.57407
300.56552
300.56116
300.55842
300.5575
300.55678
300.55687
300.55673
300.55705
300.55706
300.5574
300.55746
300.55778
300.55787
300.55818
300.55828
300.55858
300.55867
300.55899
300.55906
300.55942
300.55944
300.55984
300.55982
300.56025
300.56023
300.56064
300.56064
300.56104
300.56104
300.56144
300.69983
300.70308
300.70408
300.70927
300.71386
300.7177
300.717
300.72064
300.73139
300.7509
300.76798
300.77465
300.76294
300.73618
300.69875
300.66016
300.6248
300.5974
300.57713
300.56427
300.55594
300.5516
300.54894
300.54797
300.54728
300.54731
300.54717
300.54741
300.54743
300.5477
300.54775
300.54801
300.54809
300.54833
300.54842
300.54866
300.54874
300.549
300.54906
300.54935
300.54937
300.5497
300.54968
300.55003
300.55002
300.55035
300.55035
300.55068
300.55068
300.551
300.69968
300.70199
300.70248
300.70693
300.71129
300.71446
300.71318
300.7156
300.72515
300.74299
300.7587
300.76408
300.75182
300.72485
300.68787
300.64982
300.61523
300.58838
300.56867
300.55609
300.54802
300.54375
300.54119
300.54019
300.53954
300.5395
300.53938
300.53956
300.53957
300.53979
300.53983
300.54004
300.54011
300.54031
300.54038
300.54058
300.54064
300.54085
300.5409
300.54114
300.54115
300.54142
300.54141
300.54169
300.54168
300.54195
300.54195
300.54222
300.54222
300.54248
300.69965
300.70121
300.70128
300.70509
300.70917
300.71171
300.70998
300.7115
300.72009
300.73642
300.75069
300.75465
300.74166
300.71442
300.67788
300.64046
300.60674
300.58058
300.5615
300.54928
300.54152
300.53737
300.53492
300.53391
300.53329
300.53322
300.5331
300.53324
300.53324
300.53341
300.53345
300.53362
300.53368
300.53384
300.53389
300.53405
300.53411
300.53428
300.53432
300.53451
300.53452
300.53474
300.53473
300.53496
300.53495
300.53517
300.53517
300.53539
300.53539
300.5356
300.69968
300.70065
300.70041
300.70366
300.70742
300.70938
300.70729
300.70817
300.716
300.73094
300.74372
300.74613
300.73226
300.70472
300.66862
300.63192
300.59916
300.5738
300.55543
300.54366
300.53624
300.53223
300.5299
300.52892
300.52832
300.52823
300.52811
300.52822
300.52822
300.52836
300.52839
300.52852
300.52857
300.5287
300.52875
300.52888
300.52892
300.52906
300.52909
300.52925
300.52925
300.52943
300.52942
300.52961
300.5296
300.52978
300.52978
300.52995
300.52996
300.53013
300.69971
300.70024
300.69978
300.70257
300.70598
300.70737
300.70504
300.7055
300.71273
300.72637
300.73757
300.73833
300.72347
300.69558
300.65994
300.62407
300.59235
300.5679
300.55032
300.53905
300.532
300.52818
300.52598
300.52502
300.52446
300.52435
300.52424
300.52432
300.52432
300.52443
300.52445
300.52456
300.5246
300.5247
300.52474
300.52485
300.52488
300.525
300.52502
300.52515
300.52515
300.5253
300.52529
300.52544
300.52543
300.52558
300.52558
300.52572
300.52572
300.52586
300.69971
300.69994
300.69934
300.70175
300.70478
300.70564
300.70314
300.70337
300.71013
300.7225
300.73205
300.73107
300.71511
300.68689
300.65174
300.61679
300.58621
300.56277
300.54602
300.53533
300.52867
300.52505
300.52299
300.52208
300.52155
300.52144
300.52133
300.52139
300.52138
300.52148
300.52149
300.52158
300.52161
300.5217
300.52172
300.52181
300.52184
300.52193
300.52195
300.52205
300.52205
300.52217
300.52217
300.52228
300.52228
300.5224
300.5224
300.52251
300.52251
300.52262
300.69968
300.6997
300.69904
300.70112
300.70376
300.70414
300.70155
300.7017
300.70807
300.71919
300.72699
300.7242
300.70709
300.67855
300.64396
300.61002
300.58066
300.55831
300.54245
300.53237
300.52612
300.52274
300.52081
300.51996
300.51947
300.51936
300.51925
300.5193
300.51929
300.51936
300.51937
300.51945
300.51947
300.51954
300.51956
300.51963
300.51965
300.51973
300.51974
300.51982
300.51982
300.51992
300.51991
300.52001
300.52001
300.5201
300.5201
300.52019
300.52019
300.52028
300.69963
300.69951
300.69884
300.70065
300.70287
300.70281
300.70021
300.7004
300.70642
300.71628
300.72225
300.71758
300.6993
300.67049
300.63652
300.6037
300.57564
300.55445
300.53953
300.53009
300.52427
300.52113
300.51934
300.51856
300.5181
300.518
300.51789
300.51794
300.51791
300.51798
300.51798
300.51805
300.51806
300.51812
300.51813
300.5182
300.51821
300.51827
300.51828
300.51835
300.51834
300.51843
300.51842
300.5185
300.51849
300.51857
300.51857
300.51864
300.51864
300.51871
300.69955
300.69934
300.69871
300.70028
300.70209
300.70163
300.6991
300.69941
300.70507
300.71362
300.71768
300.71111
300.69167
300.66267
300.62941
300.59781
300.57111
300.55115
300.53719
300.52842
300.52304
300.52015
300.51851
300.5178
300.51737
300.51727
300.51717
300.51721
300.51718
300.51725
300.51724
300.5173
300.5173
300.51736
300.51736
300.51741
300.51742
300.51747
300.51747
300.51754
300.51753
300.5176
300.51759
300.51765
300.51765
300.51771
300.5177
300.51776
300.51776
300.51782
300.69944
300.69919
300.69862
300.69996
300.70136
300.70056
300.69817
300.69865
300.70393
300.71111
300.71319
300.70471
300.68416
300.65507
300.62263
300.59234
300.56707
300.54838
300.53539
300.52731
300.52236
300.51974
300.51823
300.51759
300.5172
300.51712
300.51701
300.51706
300.51702
300.51708
300.51706
300.51712
300.51711
300.51717
300.51716
300.51721
300.51721
300.51726
300.51725
300.51731
300.5173
300.51736
300.51734
300.5174
300.51739
300.51744
300.51744
300.51749
300.51749
300.51753
300.69932
300.69906
300.69854
300.69968
300.70066
300.6996
300.6974
300.69807
300.70289
300.70861
300.70866
300.69831
300.67674
300.64769
300.61617
300.58729
300.5635
300.5461
300.5341
300.52672
300.52219
300.51983
300.51846
300.5179
300.51753
300.51747
300.51737
300.51741
300.51737
300.51743
300.51741
300.51746
300.51745
300.5175
300.51749
300.51753
300.51752
300.51757
300.51756
300.51761
300.5176
300.51765
300.51763
300.51768
300.51767
300.51771
300.51771
300.51775
300.51775
300.51778
300.69919
300.69892
300.69847
300.69939
300.69997
300.69871
300.69675
300.69759
300.70187
300.70606
300.70404
300.69188
300.6694
300.64055
300.61006
300.58267
300.5604
300.54433
300.53331
300.52661
300.52251
300.52041
300.51916
300.51868
300.51834
300.5183
300.51819
300.51824
300.51819
300.51825
300.51822
300.51828
300.51825
300.5183
300.51829
300.51833
300.51832
300.51836
300.51835
300.51839
300.51837
300.51842
300.5184
300.51845
300.51843
300.51847
300.51846
300.5185
300.51849
300.51852
300.69904
300.69879
300.69839
300.69907
300.69928
300.69788
300.69619
300.69716
300.70078
300.70335
300.69927
300.68541
300.66218
300.63367
300.60434
300.57852
300.55779
300.54304
300.533
300.52697
300.52328
300.52142
300.5203
300.5199
300.51958
300.51956
300.51945
300.51951
300.51945
300.51951
300.51947
300.51953
300.5195
300.51955
300.51953
300.51957
300.51955
300.5196
300.51957
300.51962
300.5196
300.51964
300.51962
300.51966
300.51964
300.51968
300.51967
300.5197
300.51969
300.51972
300.69889
300.69865
300.69826
300.6987
300.69856
300.6971
300.69569
300.69672
300.69956
300.70044
300.69432
300.6789
300.65509
300.62711
300.59905
300.57486
300.55569
300.54226
300.53316
300.52779
300.52448
300.52287
300.52186
300.52153
300.52123
300.52123
300.52112
300.52118
300.52112
300.52119
300.52114
300.5212
300.52116
300.52121
300.52118
300.52123
300.5212
300.52125
300.52122
300.52126
300.52124
300.52128
300.52126
300.5213
300.52128
300.52131
300.5213
300.52132
300.52132
300.52134
300.69871
300.6985
300.69809
300.69826
300.69782
300.69636
300.69521
300.6962
300.69813
300.69727
300.68918
300.67238
300.6482
300.62092
300.59424
300.57173
300.55412
300.54197
300.53379
300.52904
300.5261
300.52472
300.52382
300.52355
300.52327
300.5233
300.52318
300.52325
300.52318
300.52325
300.5232
300.52326
300.52321
300.52327
300.52323
300.52328
300.52325
300.5233
300.52327
300.52331
300.52328
300.52332
300.5233
300.52333
300.52331
300.52334
300.52333
300.52335
300.52334
300.52336
300.69853
300.69833
300.69785
300.69775
300.69703
300.69563
300.69472
300.69556
300.69645
300.69382
300.68386
300.66589
300.64156
300.61517
300.58997
300.56917
300.55309
300.5422
300.53489
300.53074
300.52814
300.52697
300.52616
300.52596
300.5257
300.52574
300.52562
300.5257
300.52562
300.5257
300.52564
300.52571
300.52565
300.52571
300.52567
300.52572
300.52568
300.52573
300.5257
300.52574
300.52571
300.52575
300.52572