/*--------------------------------*- C++ -*----------------------------------*\
| =========                 |                                                 |
| \\      /  F ield         | OpenFOAM: The Open Source CFD Toolbox           |
|  \\    /   O peration     | Version:  2312                                  |
|   \\  /    A nd           | Website:  www.openfoam.com                      |
|    \\/     M anipulation  |                                                 |
\*---------------------------------------------------------------------------*/
FoamFile
{
    version     2.0;
    format      ascii;
    arch        "LSB;label=32;scalar=64";
    class       volScalarField;
    location    "8";
    object      T;
}
// * * * * * * * * * * * * * * * * * * * * * * * * * * * * * * * * * * * * * //

dimensions      [0 0 0 1 0 0 0];

internalField   nonuniform List<scalar> 
4000
(
325.20521
324.06229
323.83332
323.76616
323.68905
323.63554
323.58366
323.53745
323.49256
323.45088
323.40912
323.36975
323.32993
323.29187
323.25341
323.2162
323.17874
323.14211
323.10542
323.0692
323.03312
322.99721
322.96162
322.92593
322.89077
322.85524
322.82043
322.78502
322.75052
322.7152
322.68097
322.64571
322.61172
322.57651
322.54274
322.50754
322.47399
322.43878
322.40544
322.3702
322.33707
322.30177
322.26887
322.23346
322.20083
322.16525
322.13296
322.09707
322.06539
322.02827
327.13827
325.29831
324.68771
324.55244
324.38857
324.29495
324.20633
324.13465
324.06695
324.00884
323.95054
323.89933
323.84683
323.79959
323.75115
323.70644
323.66102
323.61805
323.57493
323.53321
323.49192
323.4511
323.4113
323.37116
323.3326
323.29295
323.25545
323.21618
323.17959
323.14058
323.10481
323.06599
323.03096
322.99224
322.95789
322.91921
322.8855
322.8468
322.81373
322.77493
322.7425
322.70351
322.67176
322.63247
322.6015
322.5617
322.53177
322.49102
322.46291
322.41865
328.33142
326.48704
325.53486
325.33312
325.08479
324.95154
324.82676
324.72974
324.63952
324.565
324.49036
324.4273
324.36228
324.30582
324.24753
324.1953
324.142
324.09267
324.04319
323.99594
323.9495
323.90376
323.8598
323.81517
323.77327
323.72948
323.68934
323.64617
323.60755
323.56482
323.52755
323.48513
323.44909
323.40685
323.37194
323.32978
323.29594
323.25373
323.22094
323.17857
323.14685
323.10417
323.07359
323.0304
323.00112
322.9571
322.92951
322.88392
322.85935
322.80834
329.12119
327.58749
326.3624
326.10059
325.77291
325.60163
325.44205
325.32021
325.20816
325.11742
325.02686
324.95203
324.8748
324.80915
324.74124
324.68149
324.6205
324.56479
324.50912
324.45631
324.40485
324.35416
324.30614
324.25702
324.21186
324.16391
324.1212
324.07411
324.03352
323.98706
323.94835
323.90232
323.86531
323.81955
323.78411
323.73845
323.70451
323.65879
323.62632
323.58037
323.54938
323.50301
323.47361
323.42653
323.39894
323.3507
323.32547
323.27507
323.25395
323.19676
329.66802
328.56369
327.15426
326.84471
326.4464
326.24028
326.04833
325.90279
325.7701
325.66358
325.55786
325.47148
325.38255
325.30783
325.2307
325.16348
325.0951
325.03305
324.97142
324.91306
324.85679
324.80114
324.74923
324.6956
324.64733
324.59521
324.55004
324.49903
324.45656
324.40636
324.36629
324.31665
324.27875
324.22944
324.19355
324.14438
324.1104
324.06116
324.02905
323.97953
323.94931
323.89925
323.87105
323.8201
323.7942
323.74179
323.71888
323.66377
323.6459
323.5832
330.05874
329.39356
327.89385
327.55366
327.09747
326.86151
326.64087
326.47353
326.32196
326.20052
326.08071
325.98323
325.88336
325.79983
325.71403
325.6395
325.56418
325.49587
325.42863
325.36479
325.30397
325.24341
325.18783
325.12972
325.07853
325.02224
324.97478
324.91986
324.87565
324.82172
324.78041
324.72715
324.68846
324.63562
324.59935
324.54669
324.51273
324.45999
324.42828
324.37521
324.3458
324.29208
324.2651
324.21032
324.18611
324.12959
324.10894
324.04929
324.03441
323.96691
330.34416
330.06673
328.56614
328.21519
327.7177
327.45868
327.21431
327.02795
326.85994
326.72483
326.59244
326.48456
326.37479
326.28287
326.18916
326.10759
326.0259
325.95152
325.87912
325.80992
325.74492
325.67954
325.6206
325.55807
325.5042
325.44381
325.39426
325.33547
325.2897
325.23207
325.18965
325.13282
325.09345
325.03712
325.00057
324.94445
324.91058
324.85438
324.82314
324.76657
324.73799
324.68068
324.65493
324.59639
324.57385
324.51335
324.49486
324.4309
324.41867
324.34707
330.55648
330.5859
329.16022
328.81805
328.2988
328.02493
327.76302
327.56127
327.37989
327.23288
327.08979
326.97253
326.85414
326.75448
326.65381
326.56564
326.47829
326.39814
326.32115
326.2468
326.17808
326.10804
326.0461
325.97928
325.92302
325.85863
325.80725
325.74467
325.69753
325.63628
325.59293
325.5326
325.49269
325.43293
325.39622
325.3367
325.30302
325.24343
325.21272
325.15272
325.12502
325.06419
325.03969
324.97751
324.9566
324.89228
324.87582
324.80785
324.79789
324.72285
330.7175
330.96409
329.67008
329.35353
328.83347
328.55372
328.28139
328.06866
327.87756
327.72091
327.56938
327.44407
327.31864
327.21208
327.10559
327.0114
326.91928
326.83378
326.75286
326.67369
326.60177
326.52732
326.46281
326.3919
326.33361
326.26538
326.21245
326.14622
326.09796
326.03321
325.98913
325.9254
325.88512
325.82203
325.78528
325.72247
325.68908
325.6262
325.59609
325.53277
325.50599
325.44178
325.41851
325.35286
325.33351
325.26559
325.25099
325.17939
325.17129
325.09341
330.84252
331.22172
330.09504
329.81658
329.31594
329.03932
328.76426
328.54554
328.34882
328.18519
328.02784
327.8961
327.76543
327.65307
327.54208
327.44263
327.34672
327.25643
327.17237
327.0888
327.01431
326.93576
326.86919
326.79445
326.73455
326.66269
326.60854
326.53886
326.48976
326.42167
326.37708
326.31011
326.26964
326.20337
326.16672
326.10077
326.06776
326.00174
325.97231
325.90582
325.87999
325.81258
325.79052
325.72161
325.70373
325.6325
325.61957
325.54473
325.53813
325.45793
330.94212
331.38286
330.43913
330.20628
329.74243
329.47729
329.20725
328.98783
328.78987
328.62226
328.46196
328.32567
328.19178
328.07488
327.96087
327.85708
327.75851
327.6641
327.57778
327.49033
327.41397
327.33176
327.26367
327.18545
327.12439
327.0492
326.99422
326.92132
326.87168
326.80048
326.75563
326.68563
326.64516
326.5759
326.53951
326.47059
326.4381
326.36912
326.34043
326.27098
326.24612
326.17572
326.15486
326.08293
326.06643
325.99221
325.98074
325.90311
325.89764
325.81558
331.02409
331.47277
330.71021
330.52545
330.11133
329.8648
329.60713
329.39223
329.19748
329.02908
328.86883
328.73007
328.5951
328.47511
328.35969
328.2526
328.1526
328.05489
327.96727
327.87656
327.79909
327.71371
327.64474
327.56344
327.50173
327.42356
327.36815
327.29235
327.24251
327.16847
327.12363
327.05084
327.01059
326.93858
326.90262
326.83097
326.7991
326.7274
326.69953
326.62735
326.60349
326.53036
326.51066
326.43602
326.42079
326.34393
326.33371
326.25375
326.24912
326.16558
331.0935
331.51442
330.91852
330.77992
330.42339
330.20094
329.962
329.75648
329.56917
329.4032
329.24603
329.10698
328.97315
328.85164
328.73647
328.62725
328.52712
328.42699
328.33908
328.24584
328.16808
328.08012
328.01092
327.92704
327.8652
327.78447
327.72907
327.65073
327.60104
327.52449
327.47996
327.40468
327.36489
327.2904
327.25505
327.18094
327.14982
327.07567
327.04869
326.97407
326.95122
326.87568
326.85709
326.78008
326.766
326.68691
326.67773
326.59589
326.59186
326.50719
331.15406
331.52726
331.07532
330.97763
330.6815
330.48666
330.27143
330.07945
329.90339
329.74291
329.59172
329.45456
329.32407
329.20264
329.08942
328.97932
328.88037
328.7788
328.69167
328.59667
328.51947
328.42958
328.36084
328.27493
328.21353
328.13071
328.07578
327.99533
327.94616
327.86748
327.82355
327.74613
327.70703
327.63041
327.59583
327.51959
327.48934
327.41306
327.38704
327.31031
327.28849
327.21086
327.19335
327.11434
327.1013
327.02038
327.01207
326.9288
326.92517
326.8397
331.20793
331.52572
331.19163
331.12765
330.89039
330.72467
330.53644
330.36123
330.19959
330.04733
329.90475
329.77156
329.64649
329.52676
329.41713
329.30741
329.21096
329.10898
329.02367
328.92776
328.85197
328.76085
328.69328
328.60593
328.54556
328.46117
328.40718
328.32507
328.27682
328.19643
328.15341
328.07424
328.03607
327.95768
327.92407
327.84604
327.8168
327.73874
327.71375
327.63526
327.6145
327.53516
327.51868
327.43806
327.42596
327.34365
327.33604
327.25175
327.24841
327.16243
331.25674
331.51975
331.27748
331.23929
331.05607
330.91906
330.75938
330.60308
330.45825
330.31644
330.18471
330.05736
329.9396
329.82309
329.7186
329.61051
329.51781
329.41644
329.33399
329.23804
329.16451
329.07289
329.00718
328.91904
328.86026
328.77486
328.72229
328.63903
328.59208
328.51043
328.46864
328.38815
328.35116
328.27139
328.23894
328.15952
328.13141
328.05195
328.02807
327.94821
327.92851
327.84787
327.83237
327.75057
327.73931
327.65603
327.649
327.56411
327.56095
327.47475
331.30129
331.51503
331.34137
331.32138
331.18521
331.07495
330.94371
330.8073
330.68078
330.55109
330.43195
330.31202
330.20317
330.09126
329.99328
329.88799
329.8002
329.70046
329.62183
329.52669
329.45623
329.36487
329.30169
329.21341
329.15678
329.07097
329.02027
328.93639
328.89112
328.80871
328.76845
328.68708
328.65152
328.57082
328.5397
328.4593
328.43244
328.35201
328.3293
328.24848
328.22986
328.14833
328.13379
328.05123
328.04073
327.95692
327.95036
327.86526
327.86225
327.77611
331.34223
331.51429
331.39006
331.38166
331.28455
331.19794
331.09367
330.97706
330.86946
330.7529
330.64753
330.53624
330.43755
330.33142
330.2411
330.13968
330.05783
329.96064
329.88672
329.79322
329.72657
329.63621
329.5762
329.48843
329.43449
329.34885
329.30047
329.21651
329.17329
329.09061
329.05218
328.97042
328.93651
328.85532
328.82571
328.74477
328.71929
328.6383
328.61684
328.53549
328.51797
328.43598
328.42236
328.33948
328.32968
328.24575
328.23961
328.15465
328.15176
328.06598
331.37993
331.51813
331.42864
331.42655
331.36045
331.29374
331.21393
331.11609
331.02721
330.92412
330.83316
330.7313
330.64365
330.54422
330.46248
330.36583
330.29075
330.19697
330.12851
330.03743
329.97525
329.88659
329.83031
329.74371
329.69293
329.60806
329.56241
329.47892
329.43808
329.35565
329.31932
329.23765
329.20561
329.1244
329.09646
329.01543
328.99144
328.91033
328.89018
328.80873
328.79234
328.71032
328.69761
328.61483
328.60569
328.52204
328.51627
328.43182
328.42905
328.34391
331.41468
331.52602
331.46066
331.46103
331.41854
331.3678
331.30929
331.22849
331.15738
331.06755
330.99103
330.89901
330.82289
330.73078
330.65825
330.56709
330.49943
330.40979
330.34738
330.25943
330.20228
330.11596
330.06391
329.97909
329.9319
329.84836
329.80581
329.72332
329.68517
329.60349
329.56952
329.48841
329.45844
329.37767
329.35155
329.27088
329.24848
329.1677
329.14892
329.06781
329.05257
328.97094
328.95914
328.87687
328.86836
328.78539
328.77998
328.69636
328.69372
328.60951
331.44674
331.53693
331.48847
331.48873
331.46357
331.42501
331.38435
331.31838
331.26358
331.18625
331.12375
331.04157
330.97706
330.89265
330.82964
330.7445
330.68469
330.59976
330.54387
330.45962
330.40793
330.32455
330.27712
330.19463
330.1514
330.06973
330.03058
329.94961
329.9144
329.83397
329.80257
329.72251
329.69478
329.6149
329.59073
329.51087
329.49016
329.41013
329.39278
329.31243
329.29836
329.21755
329.20665
329.12528
329.11741
329.03547
329.03042
328.94796
328.94547
328.86249
331.4763
331.54976
331.51353
331.51218
331.49927
331.46952
331.44332
331.38976
331.34942
331.28348
331.23413
331.16145
331.10829
331.03165
330.97823
330.89941
330.84766
330.76786
330.71877
330.63871
330.59279
330.51283
330.47032
330.39066
330.35166
330.27235
330.23685
330.15787
330.12583
330.0471
330.01845
329.93988
329.91454
329.836
329.81389
329.73526
329.71631
329.63746
329.62159
329.54241
329.52953
329.44993
329.43994
329.35986
329.35261
329.27206
329.26737
329.18639
329.18406
329.1026
331.50362
331.56365
331.53664
331.53298
331.5285
331.50475
331.48986
331.44628
331.41838
331.36245
331.32509
331.26128
331.2189
331.14987
331.10583
331.03343
330.98974
330.91534
330.87316
330.79762
330.75764
330.68151
330.64411
330.56771
330.53312
330.4566
330.42493
330.34837
330.31965
330.24306
330.2173
330.14063
330.11779
330.041
330.02104
329.94404
329.92692
329.84964
329.83529
329.75766
329.74601
329.66798
329.65892
329.58047
329.57387
329.49502
329.49072
329.4115
329.40935
329.32969
331.52887
331.57788
331.55822
331.55209
331.55328
331.53333
331.52702
331.49116
331.47363
331.42621
331.39948
331.34372
331.3113
331.24951
331.2144
331.14835
331.11252
331.04362
331.0083
330.93753
330.90351
330.83151
330.7993
330.72648
330.69642
330.62305
330.59532
330.52155
330.49626
330.42218
330.3994
330.32502
330.30476
330.23009
330.21234
330.13735
330.1221
330.04676
330.03395
329.95824
329.94782
329.87171
329.86358
329.7871
329.78115
329.7043
329.7004
329.62322
329.62127
329.54368
331.55228
331.59205
331.57847
331.57003
331.57499
331.55722
331.55723
331.5271
331.51797
331.47757
331.46001
331.41134
331.38791
331.33281
331.30601
331.24608
331.21773
331.15431
331.12564
331.05973
331.03159
330.9639
330.93687
330.86789
330.84236
330.77243
330.74867
330.67801
330.6562
330.58495
330.5652
330.49344
330.4758
330.40359
330.38808
330.31544
330.30207
330.22901
330.21776
330.14428
330.13511
330.06123
330.05405
329.97981
329.97453
329.89996
329.89649
329.8216
329.81985
329.74458
331.57401
331.60589
331.59747
331.58703
331.59452
331.57781
331.58235
331.5563
331.55379
331.51899
331.50913
331.46656
331.45102
331.40198
331.38274
331.32855
331.30718
331.24907
331.22673
331.16567
331.1432
331.07992
331.05793
330.99296
330.9719
330.90562
330.8858
330.81849
330.80014
330.732
330.71527
330.64642
330.63139
330.56193
330.54867
330.47866
330.46719
330.39669
330.38701
330.31605
330.30812
330.23675
330.23052
330.15879
330.15419
330.08214
330.0791
330.00674
330.00521
329.93249
331.59422
331.61926
331.61526
331.60319
331.6124
331.59604
331.60377
331.58049
331.58306
331.55259
331.54904
331.51156
331.5028
331.4591
331.44657
331.39768
331.38268
331.32963
331.31317
331.25685
331.23974
331.18087
331.16371
331.10282
331.08608
331.0236
331.00762
330.94384
330.92889
330.86406
330.8503
330.78458
330.77215
330.70567
330.69463
330.62751
330.61791
330.55022
330.54208
330.47389
330.4672
330.39857
330.3933
330.32429
330.32038
330.25106
330.24846
330.17883
330.17753
330.10756
331.61306
331.63212
331.63188
331.61852
331.62895
331.61253
331.62244
331.60095
331.60731
331.58011
331.58159
331.54828
331.54519
331.50612
331.49942
331.45531
331.44598
331.39766
331.38656
331.3348
331.32266
331.26812
331.2555
331.1987
331.18607
331.12744
331.11514
331.05501
331.04333
330.98196
330.97109
330.90868
330.89875
330.83546
330.82659
330.76254
330.75478
330.69009
330.68348
330.61824
330.61278
330.54708
330.54275
330.47667
330.47344
330.40702
330.40488
330.33816
330.33708
330.27004
331.63065
331.64445
331.64738
331.63301
331.64434
331.62765
331.63904
331.61864
331.62775
331.60293
331.60832
331.57835
331.57989
331.54477
331.543
331.50314
331.49877
331.45478
331.44848
331.40102
331.3934
331.34304
331.33461
331.28184
331.27304
331.21827
331.20944
331.15301
331.14443
331.08662
331.07849
331.01951
331.01199
330.95202
330.94523
330.88441
330.87842
330.8169
330.81176
330.74964
330.74537
330.68276
330.67935
330.61633
330.61378
330.55042
330.54872
330.48506
330.4842
330.42023
331.64709
331.65625
331.66178
331.64665
331.65865
331.64162
331.65398
331.63422
331.64527
331.62216
331.6305
331.60316
331.60838
331.57655
331.57888
331.54272
331.54259
331.50253
331.50042
331.45696
331.45337
331.40699
331.40235
331.35349
331.3482
331.29724
331.29162
331.23889
331.23321
331.17898
331.17344
331.11794
331.11271
331.05613
331.05132
330.99384
330.98953
330.93129
330.92755
330.86867
330.86554
330.80613
330.80362
330.74378
330.74189
330.68169
330.68043
330.61993
330.61929
330.5585
331.66247
331.66752
331.67515
331.65943
331.67191
331.65456
331.66755
331.64814
331.6605
331.6386
331.64909
331.6238
331.63187
331.60276
331.60839
331.57545
331.57885
331.54231
331.54378
331.504
331.50392
331.46128
331.46002
331.4149
331.41277
331.36551
331.36281
331.31371
331.31069
331.26003
331.25688
331.20489
331.20177
331.14864
331.14568
331.09158
331.08886
331.03396
331.03155
330.97598
330.97393
330.9178
330.91614
330.85955
330.85829
330.80134
330.8005
330.74324
330.74281
330.68528
331.67686
331.67827
331.68752
331.67134
331.68416
331.66654
331.67991
331.6607
331.67389
331.65286
331.66486
331.64116
331.65136
331.62449
331.63271
331.60252
331.60879
331.57535
331.57983
331.54338
331.54632
331.50715
331.50882
331.46723
331.46789
331.42419
331.42409
331.37854
331.37792
331.33077
331.32979
331.28127
331.2801
331.2304
331.22914
331.17844
331.17719
331.12565
331.12448
331.07224
331.0712
331.01839
331.01753
330.96424
330.96358
330.90991
330.90947
330.85549
330.85527
330.80104
331.69031
331.68848
331.69892
331.68237
331.69539
331.67757
331.69114
331.67207
331.68576
331.66537
331.67837
331.65591
331.66764
331.64262
331.6528
331.62495
331.63348
331.60278
331.6097
331.57627
331.58171
331.54574
331.5499
331.51163
331.5147
331.47437
331.47656
331.43441
331.43591
331.39217
331.39313
331.34802
331.34859
331.30228
331.30256
331.25523
331.25531
331.20712
331.20708
331.15817
331.15808
331.10857
331.10846
331.05847
331.05836
331.00799
331.00791
330.95724
330.9572
330.90628
331.70286
331.6981
331.70934
331.69251
331.7056
331.68766
331.70131
331.68237
331.69631
331.67642
331.69004
331.66858
331.68135
331.65784
331.66945
331.6436
331.65386
331.62555
331.63439
331.60366
331.61114
331.57809
331.58431
331.54911
331.55422
331.51707
331.52122
331.48231
331.48564
331.44519
331.44785
331.40603
331.40814
331.36513
331.36679
331.32276
331.32404
331.27915
331.28013
331.23451
331.23526
331.18904
331.1896
331.14289
331.14329
331.09619
331.09645
331.04905
331.04918
331.00156
331.7145
331.70709
331.71877
331.70173
331.71479
331.69682
331.71043
331.69168
331.70567
331.68623
331.70016
331.67954
331.69296
331.67073
331.68331
331.65917
331.67069
331.64447
331.65478
331.62644
331.63552
331.60512
331.61301
331.58064
331.58743
331.55324
331.55902
331.52317
331.52806
331.49073
331.49485
331.45619
331.45963
331.41982
331.42267
331.38184
331.38418
331.3425
331.34439
331.30198
331.30349
331.26048
331.26164
331.21815
331.219
331.17512
331.17568
331.13152
331.1318
331.08742
331.72518
331.71534
331.72719
331.71001
331.72294
331.70503
331.71853
331.70001
331.71394
331.69493
331.70896
331.68906
331.70283
331.6817
331.69489
331.67223
331.6846
331.66022
331.67159
331.64539
331.65568
331.62766
331.63685
331.60707
331.61519
331.58374
331.59085
331.55786
331.56404
331.52965
331.53498
331.49933
331.5039
331.46714
331.47101
331.43327
331.43651
331.39793
331.4006
331.36131
331.36347
331.32359
331.32528
331.28492
331.28617
331.24543
331.24626
331.20524
331.20565
331.16445
331.73475
331.72273
331.73452
331.7173
331.73004
331.71229
331.72562
331.70742
331.72119
331.70262
331.71659
331.69737
331.71124
331.69108
331.70459
331.68323
331.69613
331.67336
331.68544
331.66115
331.67228
331.64642
331.65657
331.62915
331.63828
331.60935
331.6175
331.58716
331.59437
331.56273
331.56905
331.53624
331.54173
331.50786
331.51258
331.47778
331.48177
331.44617
331.4495
331.4132
331.41592
331.37905
331.38119
331.34385
331.34544
331.30774
331.3088
331.27083
331.27136
331.23321
331.74294
331.72912
331.74073
331.72359
331.7361
331.71862
331.73173
331.71392
331.72746
331.70937
331.72317
331.7046
331.71841
331.69913
331.71273
331.69253
331.70568
331.68435
331.69684
331.67425
331.68594
331.66201
331.67281
331.64753
331.65739
331.63078
331.63969
331.61181
331.61978
331.59072
331.5978
331.56764
331.57385
331.54271
331.5481
331.51608
331.52069
331.4879
331.49177
331.45833
331.4615
331.42751
331.43002
331.39558
331.39745
331.36267
331.36391
331.32888
331.3295
331.2943
331.74944
331.73437
331.74577
331.72885
331.74113
331.72402
331.73688
331.71953
331.7328
331.71525
331.72878
331.71087
331.72448
331.70604
331.71955
331.7004
331.71358
331.69354
331.70621
331.68514
331.69712
331.67494
331.68613
331.66279
331.67312
331.64862
331.65805
331.63242
331.64095
331.61425
331.62188
331.5942
331.60095
331.57236
331.57826
331.54885
331.55393
331.5238
331.52809
331.49734
331.50087
331.46961
331.47241
331.44073
331.44283
331.41082
331.41221
331.37997
331.38067
331.34827
331.75402
331.73839
331.74964
331.73311
331.74517
331.72852
331.74113
331.72431
331.73727
331.7203
331.73351
331.71627
331.72959
331.71196
331.72524
331.70706
331.72011
331.70124
331.71388
331.69418
331.70624
331.68563
331.69699
331.6754
331.68599
331.66339
331.67314
331.64956
331.65843
331.63391
331.64191
331.6165
331.62363
331.5974
331.60366
331.57668
331.5821
331.55446
331.55905
331.53084
331.53464
331.50595
331.50897
331.47989
331.48215
331.45276
331.45427
331.42466
331.42542
331.39568
331.75664
331.7412
331.75241
331.73642
331.74828
331.73218
331.74451
331.7283
331.74093
331.72459
331.73743
331.72088
331.73384
331.71699
331.72994
331.71268
331.72547
331.70768
331.72013
331.70168
331.71364
331.69444
331.70579
331.68578
331.69642
331.67556
331.68542
331.66371
331.67275
331.65022
331.65842
331.6351
331.64244
331.61839
331.62487
331.60015
331.60578
331.58045
331.58524
331.55939
331.56337
331.53708
331.54025
331.5136
331.51598
331.48904
331.49063
331.4635
331.4643
331.43705
331.75758
331.74293
331.75417
331.73885
331.75052
331.73506
331.74711
331.73154
331.74382
331.72815
331.74061
331.72476
331.73731
331.72123
331.73379
331.7174
331.72982
331.71303
331.72517
331.70785
331.71957
331.70165
331.71283
331.69424
331.70478
331.68548
331.6953
331.67529
331.68433
331.66361
331.67185
331.65045
331.65786
331.63581
331.64238
331.61973
331.62547
331.60227
331.60717
331.58351
331.58758
331.56352
331.56678
331.54239
331.54483
331.52019
331.52183
331.497
331.49782
331.4729
331.75731
331.74377
331.75507
331.74051
331.752
331.73724
331.74899
331.73411
331.74603
331.73105
331.7431
331.72797
331.74008
331.72477
331.73687
331.72132
331.7333
331.71743
331.72916
331.71288
331.72424
331.70749
331.71837
331.70107
331.71137
331.69349
331.70312
331.68464
331.69356
331.67447
331.68263
331.66295
331.67032
331.65009
331.65665
331.63589
331.64163
331.62039
331.62531
331.60366
331.60776
331.58575
331.58903
331.56673
331.5692
331.54667
331.54832
331.52564
331.52647
331.50369
331.75635
331.74398
331.75529
331.74154
331.75282
331.7388
331.75023
331.73608
331.74762
331.73335
331.74497
331.73057
331.74221
331.72765
331.73926
331.72451
331.73599
331.72099
331.73224
331.71692
331.72784
331.71214
331.72261
331.70648
331.71643
331.69981
331.70916
331.69205
331.70072
331.68311
331.69108
331.67297
331.68019
331.6616
331.66805
331.64901
331.65467
331.63522
331.64008
331.62026
331.62432
331.60419
331.60745
331.58706
331.58952
331.56893
331.57058
331.54985
331.55068
331.52988
331.75509
331.74377
331.75499
331.74204
331.7531
331.73982
331.75093
331.73751
331.74865
331.73511
331.74628
331.73261
331.74376
331.72994
331.74102
331.72705
331.73798
331.7238
331.73451
331.72007
331.73047
331.71573
331.72572
331.71063
331.72015
331.70467
331.71363
331.69775
331.70609
331.6898
331.69749
331.68079
331.68777
331.67067
331.67692
331.65944
331.66494
331.64711
331.65184
331.63369
331.63766
331.61924
331.62242
331.60379
331.60619
331.58738
331.58899
331.57007
331.57087
331.55188
331.75376
331.74333
331.75434
331.74215
331.75294
331.74041
331.75117
331.73847
331.74921
331.73639
331.7471
331.73415
331.74478
331.73169
331.74221
331.72897
331.73933
331.72591
331.73604
331.72241
331.73223
331.71836
331.72781
331.71367
331.72267
331.70822
331.71672
331.70194
331.70988
331.69477
331.70209
331.68665
331.69333
331.67756
331.68355
331.66747
331.67275
331.65637
331.66092
331.64429
331.6481
331.63124
331.63431
331.61726
331.61958
331.60239
331.60394
331.58665
331.58743
331.57007
331.75244
331.74275
331.75343
331.74197
331.75243
331.74064
331.75102
331.73904
331.74935
331.73725
331.74747
331.73522
331.74532
331.73292
331.74287
331.73032
331.74008
331.72737
331.73687
331.72399
331.7332
331.72012
331.72897
331.71567
331.72412
331.71058
331.71856
331.70477
331.71223
331.69818
331.70508
331.69077
331.69708
331.6825
331.68817
331.67334
331.67835
331.66328
331.66761
331.65233
331.65596
331.6405
331.64343
331.62781
331.63002
331.61428
331.61576
331.59994
331.60069
331.58481
331.75115
331.74211
331.75236
331.74157
331.75167
331.74058
331.75056
331.73928
331.74915
331.73772
331.74745
331.73587
331.74542
331.73367
331.74302
331.73112
331.74024
331.72819
331.73705
331.72484
331.7334
331.72103
331.72925
331.71672
331.72456
331.71184
331.71925
331.70634
331.71329
331.70018
331.70661
331.69331
331.69919
331.68568
331.69099
331.67728
331.68197
331.66808
331.67214
331.65808
331.66149
331.64728
331.65004
331.6357
331.63779
331.62335
331.62475
331.61025
331.61096
331.59641
331.74986
331.74145
331.75118
331.74102
331.75071
331.74029
331.74984
331.73923
331.74863
331.73787
331.74707
331.73612
331.74509
331.73395
331.74268
331.73137
331.73984
331.72838
331.73657
331.72497
331.73286
331.72113
331.72869
331.71684
331.72405
331.71205
331.71888
331.70674
331.71314
331.70086
331.7068
331.69438
331.69982
331.68725
331.69216
331.67945
331.6838
331.67095
331.67472
331.66174
331.66491
331.65182
331.65439
331.6412
331.64314
331.62988
331.63118
331.61786
331.61852
331.60516
331.74856
331.74077
331.74993
331.74036
331.74961
331.73983
331.74893
331.73895
331.74786
331.7377
331.74635
331.73598
331.74435
331.73377
331.74184
331.73107
331.73886
331.72794
331.73543
331.72438
331.73158
331.72042
331.72731
331.71605
331.72261
331.71126
331.71747
331.70603
331.71185
331.70032
331.70573
331.6941
331.69907
331.68734
331.69183
331.68
331.68399
331.67206
331.67552
331.6635
331.66642
331.65432
331.65668
331.64452
331.64631
331.63408
331.63529
331.62302
331.62363
331.61133
331.74725
331.74009
331.74864
331.73963
331.74841
331.73923
331.74785
331.73846
331.74685
331.73724
331.74531
331.73546
331.74318
331.7331
331.74049
331.7302
331.73728
331.72684
331.73362
331.72305
331.72954
331.71888
331.72509
331.71436
331.72026
331.70948
331.71507
331.70423
331.70948
331.6986
331.70347
331.69254
331.69702
331.68603
331.69009
331.67905
331.68266
331.67155
331.67469
331.66352
331.66618
331.65496
331.65711
331.64585
331.64748
331.63618
331.63727
331.62594
331.6265
331.61514
331.74591
331.73939
331.7473
331.73883
331.74713
331.73851
331.74664
331.73778
331.74561
331.73649
331.74394
331.73454
331.74158
331.73192
331.7386
331.72872
331.73507
331.72504
331.73109
331.72095
331.72672
331.71651
331.72201
331.71176
331.717
331.70672
331.71167
331.70138
331.70604
331.69573
331.70007
331.68976
331.69375
331.68342
331.68704
331.67669
331.67992
331.66953
331.67235
331.66194
331.66432
331.65388
331.65581
331.64536
331.64682
331.63634
331.63733
331.62683
331.62733
331.61681
331.74452
331.73869
331.74592
331.73798
331.74578
331.73769
331.74529
331.73691
331.74413
331.73543
331.7422
331.73317
331.73949
331.73018
331.73612
331.72658
331.73218
331.7225
331.72781
331.71803
331.72308
331.71325
331.71806
331.70822
331.71279
331.70296
331.70729
331.69748
331.70155
331.69176
331.69556
331.6858
331.6893
331.67955
331.68274
331.673
331.67585
331.66611
331.6686
331.65886
331.66097
331.65123
331.65294
331.64319
331.64449
331.63474
331.63562
331.62585
331.6263
331.61652
331.74309
331.73797
331.7445
331.7371
331.74438
331.73678
331.74381
331.73582
331.74239
331.73401
331.74005
331.73131
331.73687
331.72783
331.73298
331.72372
331.72855
331.71915
331.72371
331.71424
331.71856
331.70907
331.71319
331.70371
331.70763
331.69819
331.7019
331.69252
331.69602
331.68669
331.68996
331.68068
331.68371
331.67448
331.67724
331.66805
331.67052
331.66136
331.66352
331.65439
331.65622
331.6471
331.64859
331.63948
331.64062
331.63151
331.63228
331.62317
331.62356
331.61443
331.7416
331.73724
331.74304
331.73617
331.74292
331.73575
331.74216
331.73448
331.74033
331.73218
331.73742
331.72888
331.73362
331.72477
331.72911
331.72006
331.7241
331.71493
331.71873
331.70952
331.71312
331.70392
331.70736
331.6982
331.70148
331.69239
331.6955
331.68649
331.68944
331.68052
331.68329
331.67445
331.67701
331.66825
331.6706
331.66189
331.664
331.65535
331.6572
331.6486
331.65017
331.6416
331.64289
331.63434
331.63532
331.62679
331.62745
331.61892
331.61925
331.61071
331.74004
331.7365
331.74154
331.7352
331.74139
331.73457
331.7403
331.73281
331.73786
331.72983
331.73422
331.72578
331.72964
331.72092
331.72442
331.71552
331.71875
331.70977
331.71281
331.70381
331.7067
331.69776
331.70052
331.69165
331.6943
331.68553
331.68807
331.6794
331.68182
331.67326
331.67554
331.6671
331.66922
331.66088
331.66283
331.65457
331.65633
331.64814
331.64969
331.64157
331.64289
331.63482
331.6359
331.62786
331.62869
331.62067
331.62123
331.61322
331.6135
331.60548
331.73839
331.73574
331.74
331.73419
331.73975
331.73319
331.73815
331.73073
331.73488
331.72686
331.73031
331.72188
331.72484
331.71616
331.7188
331.70999
331.71241
331.70357
331.70586
331.69705
331.69924
331.69052
331.69264
331.68402
331.68608
331.67759
331.67958
331.67123
331.67314
331.66492
331.66674
331.65866
331.66037
331.6524
331.65398
331.64613
331.64756
331.63979
331.64106
331.63337
331.63445
331.62683
331.62772
331.62014
331.62082
331.61327
331.61373
331.60619
331.60642
331.59887
331.73665
331.73499
331.7384
331.73311
331.73794
331.73154
331.73559
331.72809
331.73125
331.72312
331.72557
331.71707
331.71908
331.71038
331.71214
331.70338
331.705
331.69627
331.69782
331.68917
331.69069
331.68216
331.68366
331.67529
331.67677
331.66856
331.67002
331.66197
331.6634
331.6555
331.65688
331.64914
331.65046
331.64285
331.64408
331.6366
331.63772
331.63034
331.63134
331.62406
331.62492
331.6177
331.61841
331.61125
331.6118
331.60467
331.60504
331.59792
331.59811
331.59098
331.73481
331.73428
331.73673
331.73194
331.7359
331.72948
331.73249
331.72475
331.72682
331.71845
331.71984
331.71119
331.71222
331.70347
331.70434
331.6956
331.69643
331.68778
331.68862
331.68011
331.68099
331.67265
331.67357
331.66542
331.66637
331.65841
331.65939
331.65161
331.6526
331.64501
331.64599
331.63857
331.63952
331.63225
331.63316
331.62602
331.62686
331.61985
331.6206
331.61369
331.61435