/*--------------------------------*- C++ -*----------------------------------*\
| =========                 |                                                 |
| \\      /  F ield         | OpenFOAM: The Open Source CFD Toolbox           |
|  \\    /   O peration     | Version:  2312                                  |
|   \\  /    A nd           | Website:  www.openfoam.com                      |
|    \\/     M anipulation  |                                                 |
\*---------------------------------------------------------------------------*/
FoamFile
{
    version     2.0;
    format      ascii;
    arch        "LSB;label=32;scalar=64";
    class       volVectorField;
    location    "8";
    object      U_0;
}
// * * * * * * * * * * * * * * * * * * * * * * * * * * * * * * * * * * * * * //

dimensions      [0 1 -1 0 0 0 0];

internalField   nonuniform List<vector> 
4000
(
(0.0033187603 0.00062444662 0)
(0.0063925923 -9.6684822e-06 0)
(0.0031633764 -1.0904101e-07 0)
(0.0038572316 -7.1159716e-07 0)
(0.0036066955 9.4735761e-08 0)
(0.0035835851 -1.9709113e-07 0)
(0.0035909403 9.96336e-08 0)
(0.0035355465 -1.6439688e-07 0)
(0.0035641551 1.1796994e-07 0)
(0.0035308131 -1.2403846e-07 0)
(0.003555969 1.1020595e-07 0)
(0.0035323217 -1.0477427e-07 0)
(0.0035530606 9.7864724e-08 0)
(0.0035338468 -9.222152e-08 0)
(0.0035515529 8.6851303e-08 0)
(0.0035349578 -8.203508e-08 0)
(0.0035504739 7.7417872e-08 0)
(0.0035358732 -7.3188567e-08 0)
(0.0035495779 6.9146765e-08 0)
(0.0035366852 -6.5380173e-08 0)
(0.0035487932 6.1815394e-08 0)
(0.0035374151 -5.8465206e-08 0)
(0.0035480936 5.5314793e-08 0)
(0.0035380725 -5.2345695e-08 0)
(0.0035474654 4.9565333e-08 0)
(0.0035386652 -4.694525e-08 0)
(0.0035468996 4.4499622e-08 0)
(0.0035392002 -4.2198987e-08 0)
(0.0035463888 4.0057771e-08 0)
(0.003539684 -3.8049134e-08 0)
(0.0035459268 3.6185296e-08 0)
(0.0035401223 -3.4443239e-08 0)
(0.0035455079 3.2832427e-08 0)
(0.0035405209 -3.1333723e-08 0)
(0.0035451265 2.9954129e-08 0)
(0.0035408848 -2.8677966e-08 0)
(0.0035447775 2.7510341e-08 0)
(0.0035412191 -2.6438495e-08 0)
(0.0035444559 2.5466187e-08 0)
(0.0035415283 -2.4583142e-08 0)
(0.0035441572 2.3792089e-08 0)
(0.003541817 -2.3085227e-08 0)
(0.0035438772 2.2464268e-08 0)
(0.0035420895 -2.192266e-08 0)
(0.0035436127 2.1469165e-08 0)
(0.0035423506 -2.1074566e-08 0)
(0.0035433547 2.0800499e-08 0)
(0.0035425706 -2.0600912e-08 0)
(0.0035429832 2.0109315e-08 0)
(0.0035424655 -2.2191009e-08 0)
(0.0079930391 0.0016840941 0)
(0.016756414 1.8486633e-05 0)
(0.0099600362 3.3846582e-05 0)
(0.011033885 -5.3074757e-06 0)
(0.010478074 4.0418228e-06 0)
(0.010380251 -3.3982149e-07 0)
(0.01042535 1.1304062e-06 0)
(0.010260173 -1.2897408e-07 0)
(0.010346563 5.2114614e-07 0)
(0.010248274 -3.2495665e-07 0)
(0.010323014 3.8910418e-07 0)
(0.01025301 -3.481051e-07 0)
(0.010314868 3.4437226e-07 0)
(0.01025752 -3.2429047e-07 0)
(0.010310561 3.1013937e-07 0)
(0.010260813 -2.9246995e-07 0)
(0.01030738 2.7759318e-07 0)
(0.010263557 -2.6184663e-07 0)
(0.010304697 2.4790589e-07 0)
(0.010266004 -2.3410505e-07 0)
(0.010302335 2.2149326e-07 0)
(0.010268209 -2.0935987e-07 0)
(0.010300227 1.9811091e-07 0)
(0.010270195 -1.8742235e-07 0)
(0.010298335 1.7746414e-07 0)
(0.010271986 -1.680619e-07 0)
(0.01029663 1.5929686e-07 0)
(0.010273602 -1.5105648e-07 0)
(0.010295092 1.4338441e-07 0)
(0.010275063 -1.3619883e-07 0)
(0.010293701 1.2952418e-07 0)
(0.010276386 -1.2329772e-07 0)
(0.010292438 1.1753242e-07 0)
(0.010277589 -1.1217921e-07 0)
(0.010291288 1.0724394e-07 0)
(0.010278689 -1.0268781e-07 0)
(0.010290235 9.8512507e-08 0)
(0.0102797 -9.4687061e-08 0)
(0.010289262 9.1211121e-08 0)
(0.010280637 -8.8059469e-08 0)
(0.010288357 8.5231843e-08 0)
(0.010281513 -8.2707681e-08 0)
(0.010287506 8.0480699e-08 0)
(0.010282342 -7.8563927e-08 0)
(0.0102867 7.6879256e-08 0)
(0.010283141 -7.5501949e-08 0)
(0.010285921 7.4780411e-08 0)
(0.010283862 -7.2146229e-08 0)
(0.010284911 7.7544183e-08 0)
(0.010283748 -7.0091094e-08 0)
(0.011327933 0.0023794778 0)
(0.025695158 -3.8587898e-05 0)
(0.016510073 7.4694562e-05 0)
(0.018029186 -9.1959618e-06 0)
(0.017152681 9.6421397e-06 0)
(0.016989613 -4.4402624e-07 0)
(0.017081874 2.5120372e-06 0)
(0.016805862 7.0012404e-08 0)
(0.016956221 1.0073841e-06 0)
(0.016790534 -5.1562864e-07 0)
(0.016918107 7.0512944e-07 0)
(0.016799423 -6.2007304e-07 0)
(0.016904887 6.2532412e-07 0)
(0.016807171 -5.8975573e-07 0)
(0.01689774 5.6665815e-07 0)
(0.01681278 -5.342135e-07 0)
(0.01689236 5.0796684e-07 0)
(0.016817469 -4.7877836e-07 0)
(0.016887784 4.5360369e-07 0)
(0.016821661 -4.2816136e-07 0)
(0.016883746 4.0518272e-07 0)
(0.016825439 -3.829056e-07 0)
(0.016880138 3.6234095e-07 0)
(0.016828843 -3.4275687e-07 0)
(0.016876897 3.2453042e-07 0)
(0.016831912 -3.0732053e-07 0)
(0.01687398 2.9127362e-07 0)
(0.01683468 -2.7619804e-07 0)
(0.016871348 2.6215325e-07 0)
(0.016837181 -2.4901065e-07 0)
(0.016868968 2.367939e-07 0)
(0.016839446 -2.2540657e-07 0)
(0.016866809 2.1485577e-07 0)
(0.016841506 -2.0506527e-07 0)
(0.016864841 1.9603397e-07 0)
(0.016843388 -1.8770021e-07 0)
(0.016863038 1.8005896e-07 0)
(0.01684512 -1.7305993e-07 0)
(0.016861373 1.6669676e-07 0)
(0.016846725 -1.609275e-07 0)
(0.016859822 1.5574821e-07 0)
(0.016848228 -1.511223e-07 0)
(0.016858363 1.470358e-07 0)
(0.01684965 -1.4352583e-07 0)
(0.016856977 1.4038501e-07 0)
(0.016851023 -1.3791382e-07 0)
(0.016855643 1.3653737e-07 0)
(0.016852293 -1.3103111e-07 0)
(0.016853992 1.44491e-07 0)
(0.016852286 -1.2741008e-07 0)
(0.016627906 0.0035439521 0)
(0.034255574 -4.7090085e-05 0)
(0.022818271 0.0001298308 0)
(0.024837829 -1.4394438e-05 0)
(0.02363265 1.7775395e-05 0)
(0.023412326 -4.9774219e-07 0)
(0.023559937 4.2967738e-06 0)
(0.023172734 5.4882016e-07 0)
(0.023393335 1.5148978e-06 0)
(0.023157627 -6.2176384e-07 0)
(0.0233414 9.9962253e-07 0)
(0.023171467 -8.6671216e-07 0)
(0.023323257 8.9138209e-07 0)
(0.023182695 -8.4306474e-07 0)
(0.023313215 8.1381393e-07 0)
(0.023190765 -7.6711533e-07 0)
(0.023305523 7.3077127e-07 0)
(0.023197528 -6.8822345e-07 0)
(0.023298937 6.5248732e-07 0)
(0.023203582 -6.1560185e-07 0)
(0.023293112 5.8268358e-07 0)
(0.02320904 -5.5052341e-07 0)
(0.023287903 5.2096683e-07 0)
(0.023213957 -4.9275573e-07 0)
(0.023283226 4.6653184e-07 0)
(0.023218387 -4.4176813e-07 0)
(0.023279017 4.1867512e-07 0)
(0.02322238 -3.9699559e-07 0)
(0.023275221 3.767854e-07 0)
(0.023225987 -3.5789209e-07 0)
(0.02327179 3.4031487e-07 0)
(0.023229253 -3.2394789e-07 0)
(0.023268678 3.0876929e-07 0)
(0.023232221 -2.9469847e-07 0)
(0.023265843 2.8170643e-07 0)
(0.023234934 -2.69729e-07 0)
(0.023263244 2.5873613e-07 0)
(0.023237429 -2.4867579e-07 0)
(0.023260844 2.3952006e-07 0)
(0.023239742 -2.3122492e-07 0)
(0.02325861 2.2377046e-07 0)
(0.023241907 -2.1711448e-07 0)
(0.023256506 2.1122596e-07 0)
(0.023243958 -2.0618499e-07 0)
(0.023254508 2.015952e-07 0)
(0.023245936 -1.9812779e-07 0)
(0.023252587 1.961019e-07 0)
(0.023247797 -1.8720969e-07 0)
(0.023250294 2.1190131e-07 0)
(0.023248024 -1.8269536e-07 0)
(0.020866037 0.0042822103 0)
(0.041792499 -0.00011804761 0)
(0.028868924 0.00019181583 0)
(0.031480118 -2.1778915e-05 0)
(0.029916806 2.8419624e-05 0)
(0.029649989 -5.7666759e-07 0)
(0.029857921 6.4139941e-06 0)
(0.029360925 1.2737424e-06 0)
(0.029657732 2.0045259e-06 0)
(0.029349757 -6.3756111e-07 0)
(0.0295928 1.2557985e-06 0)
(0.029369249 -1.0780661e-06 0)
(0.029569885 1.1305046e-06 0)
(0.029384173 -1.0738716e-06 0)
(0.029556895 1.0412138e-06 0)
(0.029394839 -9.8151119e-07 0)
(0.029546788 9.3671934e-07 0)
(0.029403801 -8.8143513e-07 0)
(0.029538081 8.3625345e-07 0)
(0.029411828 -7.8858611e-07 0)
(0.029530366 7.4657925e-07 0)
(0.029419064 -7.0520124e-07 0)
(0.029523466 6.6736088e-07 0)
(0.02942558 -6.3114693e-07 0)
(0.029517271 5.9753851e-07 0)
(0.029431447 -5.6578697e-07 0)
(0.029511698 5.3618544e-07 0)
(0.029436734 -5.0840571e-07 0)
(0.029506676 4.8250203e-07 0)
(0.029441505 -4.5830074e-07 0)
(0.029502138 4.3577538e-07 0)
(0.029445824 -4.1481387e-07 0)
(0.029498023 3.9536494e-07 0)
(0.029449749 -3.7734541e-07 0)
(0.029494275 3.6069939e-07 0)
(0.029453334 -3.4536055e-07 0)
(0.029490841 3.3127584e-07 0)
(0.029456631 -3.1839094e-07 0)
(0.029487671 3.066588e-07 0)
(0.029459687 -2.960322e-07 0)
(0.029484719 2.8647831e-07 0)
(0.029462547 -2.7794633e-07 0)
(0.029481941 2.7039281e-07 0)
(0.029465254 -2.6394375e-07 0)
(0.029479302 2.5797628e-07 0)
(0.029467866 -2.5366036e-07 0)
(0.029476768 2.5096866e-07 0)
(0.029470348 -2.3849052e-07 0)
(0.029473828 2.7666106e-07 0)
(0.029470917 -2.3347532e-07 0)
(0.02467017 0.004828749 0)
(0.049082253 -0.00015658074 0)
(0.034752167 0.00026342911 0)
(0.037926355 -3.0385199e-05 0)
(0.036003261 4.1675339e-05 0)
(0.03570411 -8.0819458e-07 0)
(0.035974324 8.8087011e-06 0)
(0.035371232 2.1844841e-06 0)
(0.035749098 2.4556267e-06 0)
(0.035367379 -5.7167806e-07 0)
(0.035672059 1.4722098e-06 0)
(0.035393062 -1.2575557e-06 0)
(0.035644532 1.3436453e-06 0)
(0.035411844 -1.2839385e-06 0)
(0.035628561 1.2499463e-06 0)
(0.035425217 -1.1785753e-06 0)
(0.035615955 1.1267541e-06 0)
(0.035436477 -1.0593483e-06 0)
(0.035605038 1.0057359e-06 0)
(0.035446568 -9.4792534e-07 0)
(0.035595351 8.9762464e-07 0)
(0.03545566 -8.4766508e-07 0)
(0.035586686 8.0221117e-07 0)
(0.035463845 -7.5858814e-07 0)
(0.03557891 7.1817825e-07 0)
(0.035471209 -6.7997559e-07 0)
(0.035571918 6.44377e-07 0)
(0.035477841 -6.1097408e-07 0)
(0.035565619 5.7982484e-07 0)
(0.035483825 -5.5073477e-07 0)
(0.03555993 5.2365138e-07 0)
(0.035489239 -4.9846019e-07 0)
(0.035554774 4.750781e-07 0)
(0.035494157 -4.5342428e-07 0)
(0.035550078 4.334129e-07 0)
(0.035498648 -4.1498046e-07 0)
(0.035545777 3.9804785e-07 0)
(0.035502776 -3.8256308e-07 0)
(0.035541808 3.6845711e-07 0)
(0.035506602 -3.5568346e-07 0)
(0.035538112 3.441944e-07 0)
(0.035510181 -3.3393205e-07 0)
(0.035534636 3.2484141e-07 0)
(0.035513568 -3.1709747e-07 0)
(0.035531334 3.0982e-07 0)
(0.035516833 -3.0479119e-07 0)
(0.035528166 3.01387e-07 0)
(0.035519958 -2.8523298e-07 0)
(0.035524578 3.3851206e-07 0)
(0.035520964 -2.7957716e-07 0)
(0.029694185 0.0058345973 0)
(0.055336135 -0.00022076113 0)
(0.040457279 0.00032935024 0)
(0.044122948 -3.6941507e-05 0)
(0.041895728 5.8105022e-05 0)
(0.041577824 -1.1692679e-06 0)
(0.041909015 1.1490246e-05 0)
(0.041204917 3.231909e-06 0)
(0.041667135 2.8521041e-06 0)
(0.04121097 -4.3255695e-07 0)
(0.041578936 1.6485088e-06 0)
(0.041243207 -1.4085582e-06 0)
(0.041546954 1.5321605e-06 0)
(0.041265957 -1.4751785e-06 0)
(0.041527985 1.4413669e-06 0)
(0.041282117 -1.3596904e-06 0)
(0.041512818 1.3020534e-06 0)
(0.041295751 -1.2231132e-06 0)
(0.041499624 1.1619856e-06 0)
(0.041307975 -1.0946365e-06 0)
(0.041487905 1.0367715e-06 0)
(0.041318983 -9.7883058e-07 0)
(0.041477421 9.2638138e-07 0)
(0.041328885 -8.7590756e-07 0)
(0.041468017 8.2923445e-07 0)
(0.041337792 -7.8508373e-07 0)
(0.041459564 7.4396022e-07 0)
(0.041345808 -7.0537974e-07 0)
(0.041451953 6.6939862e-07 0)
(0.041353037 -6.3581014e-07 0)
(0.041445081 6.045293e-07 0)
(0.041359576 -5.7544732e-07 0)
(0.041438854 5.4844407e-07 0)
(0.041365513 -5.2344745e-07 0)
(0.041433186 5.0033807e-07 0)
(0.041370934 -4.7906003e-07 0)
(0.041427994 4.5950573e-07 0)
(0.041375916 -4.4162905e-07 0)
(0.041423205 4.2533726e-07 0)
(0.041380532 -4.1058728e-07 0)
(0.041418748 3.9731556e-07 0)
(0.041384848 -3.8545764e-07 0)
(0.041414556 3.749492e-07 0)
(0.041388931 -3.6601337e-07 0)
(0.041410574 3.5749223e-07 0)
(0.041392865 -3.5187523e-07 0)
(0.041406758 3.4769328e-07 0)
(0.041396648 -3.2788082e-07 0)
(0.041402522 3.9732688e-07 0)
(0.041398169 -3.2110357e-07 0)
(0.032982729 0.0059949683 0)
(0.060978147 -0.00029011002 0)
(0.046174236 0.00039503078 0)
(0.049839962 -4.5362929e-05 0)
(0.047569311 7.5094527e-05 0)
(0.047265619 -2.0393368e-06 0)
(0.047660143 1.4372143e-05 0)
(0.046863018 4.3488241e-06 0)
(0.047411457 3.1813304e-06 0)
(0.046880918 -2.2713236e-07 0)
(0.047313218 1.7833245e-06 0)
(0.046919946 -1.5324779e-06 0)
(0.047276935 1.6958721e-06 0)
(0.046946731 -1.6479039e-06 0)
(0.047254967 1.6153914e-06 0)
(0.046965732 -1.5248609e-06 0)
(0.047237197 1.4625088e-06 0)
(0.046981796 -1.372664e-06 0)
(0.047221679 1.3049113e-06 0)
(0.0469962 -1.2286539e-06 0)
(0.047207884 1.1639541e-06 0)
(0.047009164 -1.0986445e-06 0)
(0.047195546 1.0398252e-06 0)
(0.04702082 -9.8306458e-07 0)
(0.047184481 9.3067417e-07 0)
(0.047031297 -8.8108106e-07 0)
(0.047174541 8.3491118e-07 0)
(0.047040723 -7.916002e-07 0)
(0.047165593 7.5120556e-07 0)
(0.047049221 -7.1351025e-07 0)
(0.047157516 6.7839577e-07 0)
(0.047056904 -6.4576318e-07 0)
(0.047150201 6.154529e-07 0)
(0.047063879 -5.8740644e-07 0)
(0.047143542 5.614679e-07 0)
(0.047070246 -5.3759381e-07 0)
(0.047137446 5.1564516e-07 0)
(0.047076096 -4.9558612e-07 0)
(0.047131823 4.7729758e-07 0)
(0.047081515 -4.6074368e-07 0)
(0.047126591 4.4584291e-07 0)
(0.047086581 -4.3252613e-07 0)
(0.047121672 4.2072106e-07 0)
(0.047091371 -4.1069685e-07 0)
(0.047116999 4.0100604e-07 0)
(0.047095982 -3.9492179e-07 0)
(0.047112525 3.8989844e-07 0)
(0.047100433 -3.6653464e-07 0)
(0.047107644 4.5273306e-07 0)
(0.047102538 -3.5797746e-07 0)
(0.038347294 0.0069710557 0)
(0.065494786 -0.00038014265 0)
(0.051942703 0.00047487969 0)
(0.055005314 -5.4416876e-05 0)
(0.053026198 9.0773989e-05 0)
(0.05276379 -3.3537709e-06 0)
(0.053228102 1.744324e-05 0)
(0.052346523 5.4880808e-06 0)
(0.052981749 3.4321457e-06 0)
(0.052377571 3.7650316e-08 0)
(0.052874737 1.8754123e-06 0)
(0.052423509 -1.6300194e-06 0)
(0.052834294 1.8343408e-06 0)
(0.052454358 -1.8019509e-06 0)
(0.052809331 1.771613e-06 0)
(0.052476232 -1.6737321e-06 0)
(0.052788933 1.6077111e-06 0)
(0.052494761 -1.5076408e-06 0)
(0.052771062 1.4341544e-06 0)
(0.052511375 -1.3496588e-06 0)
(0.052755167 1.2788674e-06 0)
(0.052526321 -1.2068309e-06 0)
(0.052740952 1.1422811e-06 0)
(0.05253975 -1.0798195e-06 0)
(0.052728208 1.0222705e-06 0)
(0.052551815 -9.6775756e-07 0)
(0.052716764 9.1703079e-07 0)
(0.052562665 -8.694497e-07 0)
(0.052706466 8.2506948e-07 0)
(0.052572444 -7.8366948e-07 0)
(0.052697174 7.4509372e-07 0)
(0.052581283 -7.0925912e-07 0)
(0.052688758 6.7596365e-07 0)
(0.052589306 -6.4516707e-07 0)
(0.0526811 6.1667507e-07 0)
(0.052596628 -5.9046003e-07 0)
(0.05267409 5.6635043e-07 0)
(0.052603355 -5.4432324e-07 0)
(0.052667625 5.2423229e-07 0)
(0.052609583 -5.0605089e-07 0)
(0.052661611 4.8967924e-07 0)
(0.052615406 -4.7504397e-07 0)
(0.052655958 4.620678e-07 0)
(0.05262091 -4.5106075e-07 0)
(0.052650589 4.4028356e-07 0)
(0.052626203 -4.3384872e-07 0)
(0.052645451 4.2792954e-07 0)
(0.052631326 -4.0119215e-07 0)
(0.052639931 5.0432013e-07 0)
(0.05263407 -3.901337e-07 0)
(0.042079227 0.0070336905 0)
(0.06956866 -0.00049045797 0)
(0.05758521 0.00054252072 0)
(0.059728627 -6.2565787e-05 0)
(0.058300332 0.00010320791 0)
(0.058062064 -5.334295e-06 0)
(0.058612377 2.0546274e-05 0)
(0.057656007 6.5786016e-06 0)
(0.05837777 3.5944035e-06 0)
(0.05770122 3.5241633e-07 0)
(0.058263361 1.9238754e-06 0)
(0.057754105 -1.7020051e-06 0)
(0.058218867 1.9473759e-06 0)
(0.057789011 -1.9373125e-06 0)
(0.058190922 1.9098251e-06 0)
(0.057813767 -1.8061226e-06 0)
(0.058167886 1.7374283e-06 0)
(0.057834779 -1.6278492e-06 0)
(0.05814765 1.5495159e-06 0)
(0.057853617 -1.4574805e-06 0)
(0.058129643 1.3813492e-06 0)
(0.057870554 -1.3032435e-06 0)
(0.058113543 1.2336142e-06 0)
(0.057885763 -1.1660469e-06 0)
(0.058099115 1.1039085e-06 0)
(0.057899422 -1.0450045e-06 0)
(0.058086162 9.9021929e-07 0)
(0.057911702 -9.3883308e-07 0)
(0.058074509 8.9090242e-07 0)
(0.057922765 -8.4620379e-07 0)
(0.058063997 8.0454469e-07 0)
(0.057932764 -7.6586027e-07 0)
(0.058054478 7.2990574e-07 0)
(0.057941839 -6.9666206e-07 0)
(0.058045817 6.6589564e-07 0)
(0.057950119 -6.3759774e-07 0)
(0.05803789 6.1156324e-07 0)
(0.057957724 -5.8778474e-07 0)
(0.058030581 5.6608794e-07 0)
(0.057964765 -5.4645783e-07 0)
(0.058023783 5.2877534e-07 0)
(0.057971346 -5.1296421e-07 0)
(0.058017395 4.9894442e-07 0)
(0.057977565 -4.8706097e-07 0)
(0.058011328 4.7528764e-07 0)
(0.057983542 -4.686123e-07 0)
(0.058005523 4.6175456e-07 0)
(0.057989337 -4.3187316e-07 0)
(0.05799937 5.5175262e-07 0)
(0.057992767 -4.1759672e-07 0)
(0.047663407 0.0078589607 0)
(0.073070233 -0.00055077007 0)
(0.062859195 0.00059291899 0)
(0.064204132 -6.8719942e-05 0)
(0.063423191 0.00011225208 0)
(0.063148406 -8.1436227e-06 0)
(0.063812055 2.3412163e-05 0)
(0.062792639 7.5527687e-06 0)
(0.063599268 3.6644725e-06 0)
(0.062852119 7.0807676e-07 0)
(0.063478971 1.928635e-06 0)
(0.062911916 -1.7490867e-06 0)
(0.063430504 2.0350725e-06 0)
(0.062950845 -2.0541089e-06 0)
(0.063399601 2.0300195e-06 0)
(0.062978473 -1.9220141e-06 0)
(0.063373931 1.8516054e-06 0)
(0.063001967 -1.733256e-06 0)
(0.063351332 1.6509551e-06 0)
(0.063023029 -1.5520971e-06 0)
(0.063331217 1.4713763e-06 0)
(0.063041953 -1.3878701e-06 0)
(0.063313237 1.3138119e-06 0)
(0.06305894 -1.2417403e-06 0)
(0.063297128 1.1755814e-06 0)
(0.063074188 -1.1128186e-06 0)
(0.063282669 1.0544729e-06 0)
(0.063087894 -9.9974865e-07 0)
(0.063269666 9.487023e-07 0)
(0.063100239 -9.0111209e-07 0)
(0.063257936 8.5674749e-07 0)
(0.063111394 -8.155657e-07 0)
(0.063247318 7.7727836e-07 0)
(0.063121517 -7.4189045e-07 0)
(0.063237657 7.0912895e-07 0)
(0.063130752 -6.7900594e-07 0)
(0.063228816 6.5128298e-07 0)
(0.063139233 -6.2596969e-07 0)
(0.063220665 6.0286402e-07 0)
(0.063147085 -5.8196376e-07 0)
(0.063213085 5.6313092e-07 0)
(0.063154422 -5.4628672e-07 0)
(0.063205964 5.3135143e-07 0)
(0.063161354 -5.1869747e-07 0)
(0.0631992 5.0602378e-07 0)
(0.063168012 -4.9920955e-07 0)
(0.06319273 4.9138459e-07 0)
(0.063174475 -4.5862638e-07 0)
(0.063185954 5.9477024e-07 0)
(0.063178628 -4.4046545e-07 0)
(0.051710005 0.0078307636 0)
(0.076208483 -0.00068688817 0)
(0.067930561 0.00064622463 0)
(0.068520113 -7.1041465e-05 0)
(0.068404708 0.00011795851 0)
(0.068028291 -1.1370834e-05 0)
(0.068829917 2.5832547e-05 0)
(0.067757721 8.3647394e-06 0)
(0.068646181 3.6455064e-06 0)
(0.067830499 1.0954769e-06 0)
(0.068521496 1.8901282e-06 0)
(0.067897117 -1.7716129e-06 0)
(0.068469074 2.0977505e-06 0)
(0.067939998 -2.1525197e-06 0)
(0.068435241 2.132322e-06 0)
(0.067970471 -2.0214909e-06 0)
(0.068406957 1.9502992e-06 0)
(0.067996432 -1.8239279e-06 0)
(0.06838201 1.7385286e-06 0)
(0.068019702 -1.6335739e-06 0)
(0.068359804 1.5490102e-06 0)
(0.0680406 -1.4607732e-06 0)
(0.068339956 1.3829357e-06 0)
(0.06805935 -1.3069584e-06 0)
(0.06832218 1.2373473e-06 0)
(0.068076176 -1.1712543e-06 0)
(0.068306229 1.1098453e-06 0)
(0.068091295 -1.0522463e-06 0)
(0.068291885 9.9851784e-07 0)
(0.068104911 -9.4843989e-07 0)
(0.068278949 9.0174609e-07 0)
(0.068117213 -8.5841676e-07 0)
(0.068267239 8.1812117e-07 0)
(0.068128375 -7.8088982e-07 0)
(0.068256587 7.4641083e-07 0)
(0.068138558 -7.147188e-07 0)
(0.068246839 6.8554223e-07 0)
(0.068147909 -6.5890935e-07 0)
(0.068237853 6.3459042e-07 0)
(0.068156564 -6.1259765e-07 0)
(0.068229497 5.9277386e-07 0)
(0.068164652 -5.750389e-07 0)
(0.068221648 5.5931559e-07 0)
(0.068172292 -5.459962e-07 0)
(0.068214194 5.3252209e-07 0)
(0.068179623 -5.2566148e-07 0)
(0.068207063 5.1685634e-07 0)
(0.068186748 -4.8151533e-07 0)
(0.068199675 6.3317026e-07 0)
(0.068191652 -4.5888859e-07 0)
(0.05768968 0.0085555745 0)
(0.078980861 -0.00074528249 0)
(0.072777566 0.00069317235 0)
(0.072704277 -7.4524498e-05 0)
(0.073231086 0.0001200096 0)
(0.072718647 -1.4652673e-05 0)
(0.073669662 2.7649399e-05 0)
(0.072552326 8.9803217e-06 0)
(0.073518448 3.5484681e-06 0)
(0.072636493 1.5053232e-06 0)
(0.073390865 1.8091083e-06 0)
(0.072709852 -1.7695547e-06 0)
(0.073334455 2.1359107e-06 0)
(0.072756588 -2.2327755e-06 0)
(0.07329773 2.2169369e-06 0)
(0.072789864 -2.1047236e-06 0)
(0.073266864 2.033643e-06 0)
(0.072818264 -1.9000097e-06 0)
(0.073239599 1.8123642e-06 0)
(0.072843718 -1.7020448e-06 0)
(0.073215326 1.6143744e-06 0)
(0.072866565 -1.5220764e-06 0)
(0.073193637 1.4411004e-06 0)
(0.072887055 -1.3618137e-06 0)
(0.073174214 1.2893113e-06 0)
(0.072905438 -1.2204131e-06 0)
(0.073156789 1.1564316e-06 0)
(0.072921953 -1.0964172e-06 0)
(0.073141123 1.0404349e-06 0)
(0.072936823 -9.88269e-07 0)
(0.073126996 9.3961786e-07 0)
(0.072950257 -8.9448692e-07 0)
(0.073114209 8.5250395e-07 0)
(0.072962445 -8.1372627e-07 0)
(0.073102578 7.7780439e-07 0)
(0.072973563 -7.4479617e-07 0)
(0.073091934 7.1439836e-07 0)
(0.072983773 -6.8665828e-07 0)
(0.073082124 6.6131977e-07 0)
(0.072993222 -6.3840981e-07 0)
(0.073073002 6.1775295e-07 0)
(0.073002051 -5.9926803e-07 0)
(0.073064434 5.8288308e-07 0)
(0.073010389 -5.6900188e-07 0)
(0.073056298 5.5483064e-07 0)
(0.073018386 -5.4800648e-07 0)
(0.073048515 5.3822508e-07 0)
(0.073026162 -5.0061325e-07 0)
(0.073040526 6.6679893e-07 0)
(0.073031838 -4.7305039e-07 0)
(0.06202621 0.0085055926 0)
(0.081532116 -0.00088712706 0)
(0.077524704 0.00072631097 0)
(0.076739844 -7.7237593e-05 0)
(0.077891581 0.0001189844 0)
(0.077238805 -1.7896818e-05 0)
(0.078334705 2.8809703e-05 0)
(0.077177627 9.3939616e-06 0)
(0.07821608 3.3916026e-06 0)
(0.077270225 1.9294928e-06 0)
(0.078087048 1.6866253e-06 0)
(0.077350265 -1.7422481e-06 0)
(0.078026549 2.1503765e-06 0)
(0.077400724 -2.2950743e-06 0)
(0.077986971 2.284197e-06 0)
(0.077436746 -2.1719419e-06 0)
(0.077953566 2.1018551e-06 0)
(0.077467545 -1.961714e-06 0)
(0.077924023 1.8726578e-06 0)
(0.077495146 -1.7577036e-06 0)
(0.07789772 1.6676505e-06 0)
(0.077519909 -1.5719538e-06 0)
(0.077874219 1.4884719e-06 0)
(0.07754211 -1.4064627e-06 0)
(0.077853179 1.331623e-06 0)
(0.077562022 -1.2604355e-06 0)
(0.077834307 1.1943662e-06 0)
(0.077579908 -1.1323878e-06 0)
(0.077817341 1.074574e-06 0)
(0.077596011 -1.020713e-06 0)
(0.077802043 9.7047106e-07 0)
(0.077610557 -9.2387849e-07 0)
(0.077788198 8.805241e-07 0)
(0.077623754 -8.4049226e-07 0)
(0.077775604 8.0339767e-07 0)
(0.077635792 -7.6932192e-07 0)
(0.077764081 7.3793141e-07 0)
(0.077646845 -7.0929311e-07 0)
(0.07775346 6.8312545e-07 0)
(0.077657075 -6.5947093e-07 0)
(0.077743585 6.3813624e-07 0)
(0.077666632 -6.1904025e-07 0)
(0.07773431 6.0211797e-07 0)
(0.077675657 -5.87777e-07 0)
(0.077725503 5.7301405e-07 0)
(0.077684308 -5.662994e-07 0)
(0.077717077 5.555627e-07 0)
(0.077692722 -5.160029e-07 0)
(0.077708502 6.9554781e-07 0)
(0.077699184 -4.8316161e-07 0)
(0.067816367 0.0089459763 0)
(0.083925237 -0.0009304783 0)
(0.082133362 0.00075492703 0)
(0.080632371 -8.0116039e-05 0)
(0.082378273 0.00011483687 0)
(0.081601231 -2.1191592e-05 0)
(0.082826956 2.9337512e-05 0)
(0.081634457 9.6067802e-06 0)
(0.08273898 3.1947871e-06 0)
(0.081731759 2.3583594e-06 0)
(0.08260997 1.5222097e-06 0)
(0.08181847 -1.6890693e-06 0)
(0.082545264 2.1419995e-06 0)
(0.081872496 -2.3396976e-06 0)
(0.082502877 2.3344793e-06 0)
(0.081911196 -2.2234603e-06 0)
(0.082466988 2.1552106e-06 0)
(0.081944346 -2.0093211e-06 0)
(0.082435215 1.919662e-06 0)
(0.081974048 -1.8008008e-06 0)
(0.082406925 1.7090706e-06 0)
(0.082000687 -1.6106298e-06 0)
(0.082381653 1.5252599e-06 0)
(0.082024561 -1.4411059e-06 0)
(0.082359031 1.364471e-06 0)
(0.08204597 -1.2915012e-06 0)
(0.082338742 1.2238182e-06 0)
(0.082065198 -1.1603185e-06 0)
(0.082320505 1.1010869e-06 0)
(0.082082507 -1.0459158e-06 0)
(0.082304062 9.9444192e-07 0)
(0.082098142 -9.4672069e-07 0)
(0.08228918 9.0230437e-07 0)
(0.082112325 -8.6130428e-07 0)
(0.082275645 8.2330169e-07 0)
(0.082125263 -7.8840165e-07 0)
(0.08226326 7.5624243e-07 0)
(0.082137142 -7.2691027e-07 0)
(0.082251845 7.0010018e-07 0)
(0.082148137 -6.7586993e-07 0)
(0.082241233 6.5400966e-07 0)
(0.082158408 -6.3443871e-07 0)
(0.082231266 6.17101e-07 0)
(0.082168105 -6.0240019e-07 0)
(0.082221802 5.871523e-07 0)
(0.082177396 -5.8061026e-07 0)
(0.082212745 5.6895611e-07 0)
(0.082186433 -5.2777616e-07 0)
(0.082203599 7.1935026e-07 0)
(0.082193689 -4.8945173e-07 0)
(0.072770801 0.0090267676 0)
(0.086166212 -0.0010684494 0)
(0.086647761 0.00076812144 0)
(0.08438405 -8.1783972e-05 0)
(0.086692992 0.00010774078 0)
(0.0858111 -2.4513716e-05 0)
(0.087146865 2.9313634e-05 0)
(0.085923433 9.632641e-06 0)
(0.087086892 2.9817687e-06 0)
(0.086021334 2.7844505e-06 0)
(0.08695952 1.3164502e-06 0)
(0.086114563 -1.6088819e-06 0)
(0.086890521 2.1119888e-06 0)
(0.086171981 -2.3668495e-06 0)
(0.086845372 2.368275e-06 0)
(0.086213284 -2.2596343e-06 0)
(0.086807063 2.1940514e-06 0)
(0.086248726 -2.0431643e-06 0)
(0.086773119 1.9536818e-06 0)
(0.086280479 -1.831634e-06 0)
(0.086742894 1.7389115e-06 0)
(0.086308945 -1.6383688e-06 0)
(0.086715896 1.5517139e-06 0)
(0.086334451 -1.4659793e-06 0)
(0.086691731 1.3880788e-06 0)
(0.086357318 -1.3138205e-06 0)
(0.086670062 1.2449878e-06 0)
(0.086377853 -1.1803981e-06 0)
(0.086650585 1.1201528e-06 0)
(0.086396338 -1.0640467e-06 0)
(0.086633026 1.0116913e-06 0)
(0.086413034 -9.6316583e-07 0)
(0.086617134 9.179896e-07 0)
(0.08642818 -8.7629991e-07 0)
(0.086602681 8.376475e-07 0)
(0.086441995 -8.0216032e-07 0)
(0.086589456 7.6945075e-07 0)
(0.08645468 -7.3962402e-07 0)
(0.086577266 7.123535e-07 0)
(0.08646642 -6.8771223e-07 0)
(0.086565934 6.6547482e-07 0)
(0.086477387 -6.4556194e-07 0)
(0.086555292 6.2792757e-07 0)
(0.086487742 -6.1296465e-07 0)
(0.086545187 5.9733885e-07 0)
(0.086497656 -5.9102288e-07 0)
(0.086535514 5.7850526e-07 0)
(0.0865073 -5.3603341e-07 0)
(0.086525814 7.3817777e-07 0)
(0.086515351 -4.9216199e-07 0)
(0.078394779 0.0091855701 0)
(0.08840093 -0.001102026 0)
(0.09099189 0.00078033864 0)
(0.088059967 -8.233594e-05 0)
(0.090844315 9.7972711e-05 0)
(0.089867926 -2.7866088e-05 0)
(0.091294975 2.8843225e-05 0)
(0.090044621 9.4974895e-06 0)
(0.091259178 2.7738175e-06 0)
(0.090139657 3.1954563e-06 0)
(0.091135516 1.0716789e-06 0)
(0.090238636 -1.5014611e-06 0)
(0.091062256 2.0614881e-06 0)
(0.09029925 -2.3768352e-06 0)
(0.091014393 2.3860926e-06 0)
(0.090343068 -2.2808876e-06 0)
(0.090973736 2.2187597e-06 0)
(0.090380739 -2.0636273e-06 0)
(0.090937684 1.9750639e-06 0)
(0.090414484 -1.8505428e-06 0)
(0.090905581 1.7574878e-06 0)
(0.090444725 -1.6554725e-06 0)
(0.090876907 1.5681162e-06 0)
(0.090471814 -1.4813514e-06 0)
(0.090851246 1.4026992e-06 0)
(0.090496098 -1.3276336e-06 0)
(0.090828237 1.258101e-06 0)
(0.090517902 -1.1928408e-06 0)
(0.090807556 1.1319743e-06 0)
(0.090537528 -1.0752977e-06 0)
(0.090788913 1.0224012e-06 0)
(0.090555254 -9.7338653e-07 0)
(0.090772041 9.2774379e-07 0)
(0.090571335 -8.8563498e-07 0)
(0.090756695 8.4658363e-07 0)
(0.090586003 -8.1073939e-07 0)
(0.090742654 7.7769172e-07 0)
(0.090599471 -7.4756378e-07 0)
(0.090729712 7.2000981e-07 0)
(0.090611936 -6.9511734e-07 0)
(0.09071768 6.7264714e-07 0)
(0.090623579 -6.5252164e-07 0)
(0.090706382 6.3470599e-07 0)
(0.090634572 -6.1957611e-07 0)
(0.090695653 6.0367904e-07 0)
(0.090645093 -5.9763316e-07 0)
(0.09068538 5.8432124e-07 0)
(0.090655324 -5.408825e-07 0)
(0.090675144 7.5203654e-07 0)
(0.090664168 -4.9153965e-07 0)
(0.083805928 0.0092715948 0)
(0.090517088 -0.001228958 0)
(0.095116162 0.00077429386 0)
(0.091695945 -8.1595695e-05 0)
(0.09484121 8.6221223e-05 0)
(0.093769839 -3.1129854e-05 0)
(0.09527149 2.8012325e-05 0)
(0.093997423 9.2242358e-06 0)
(0.095255075 2.5898813e-06 0)
(0.094087731 3.5736906e-06 0)
(0.095137681 7.9504161e-07 0)
(0.094190755 -1.3678615e-06 0)
(0.095060414 1.9916884e-06 0)
(0.094254361 -2.3699885e-06 0)
(0.095009885 2.3884881e-06 0)
(0.094300601 -2.2876879e-06 0)
(0.094966957 2.2297591e-06 0)
(0.094340429 -2.0711348e-06 0)
(0.094928869 1.9841919e-06 0)
(0.094376102 -1.8579018e-06 0)
(0.09489495 1.7651465e-06 0)
(0.09440806 -1.6622722e-06 0)
(0.094864656 1.5747784e-06 0)
(0.094436682 -1.487517e-06 0)
(0.094837547 1.4086108e-06 0)
(0.094462335 -1.3332031e-06 0)
(0.094813241 1.2634072e-06 0)
(0.094485367 -1.197882e-06 0)
(0.094791397 1.1367746e-06 0)
(0.094506097 -1.0798797e-06 0)
(0.094771705 1.0267719e-06 0)
(0.094524821 -9.7757265e-07 0)
(0.094753883 9.3174746e-07 0)
(0.094541806 -8.8948111e-07 0)
(0.094737674 8.5027361e-07 0)
(0.094557299 -8.1429492e-07 0)
(0.094722842 7.8111451e-07 0)
(0.094571525 -7.5087244e-07 0)
(0.094709171 7.2320623e-07 0)
(0.094584692 -6.9821729e-07 0)
(0.094696462 6.7565397e-07 0)
(0.094596991 -6.5544125e-07 0)
(0.094684528 6.3755583e-07 0)
(0.094608602 -6.2235148e-07 0)
(0.094673196 6.0628852e-07 0)
(0.094619711 -6.0054782e-07 0)
(0.094662341 5.8652465e-07 0)
(0.094630509 -5.4243805e-07 0)
(0.094651587 7.6096416e-07 0)
(0.094640137 -4.8783313e-07 0)
(0.089398038 0.0093295387 0)
(0.092753781 -0.0012346698 0)
(0.098970386 0.00076819314 0)
(0.095326587 -7.9871123e-05 0)
(0.098683658 7.3333788e-05 0)
(0.097514203 -3.4229045e-05 0)
(0.099076878 2.6905939e-05 0)
(0.097781086 8.8495971e-06 0)
(0.099074417 2.4415733e-06 0)
(0.097866259 3.9034506e-06 0)
(0.098965698 4.9952763e-07 0)
(0.097970942 -1.2106758e-06 0)
(0.098884944 1.9037125e-06 0)
(0.098037363 -2.3466898e-06 0)
(0.098831803 2.3760384e-06 0)
(0.098085926 -2.280548e-06 0)
(0.098786686 2.2275037e-06 0)
(0.098127836 -2.0661475e-06 0)
(0.098746637 1.9814798e-06 0)
(0.098165368 -1.8541159e-06 0)
(0.098710969 1.7622619e-06 0)
(0.098198981 -1.6591265e-06 0)
(0.098679115 1.5720358e-06 0)
(0.098229079 -1.4847948e-06 0)
(0.09865061 1.4061135e-06 0)
(0.098256053 -1.3308134e-06 0)
(0.098625055 1.2611744e-06 0)
(0.098280268 -1.1957755e-06 0)
(0.098602088 1.1347939e-06 0)
(0.098302063 -1.0780205e-06 0)
(0.098581385 1.0250193e-06 0)
(0.098321748 -9.7592902e-07 0)
(0.098562647 9.3019535e-07 0)
(0.098339606 -8.8802348e-07 0)
(0.098545605 8.4889402e-07 0)
(0.098355895 -8.1299532e-07 0)
(0.098530011 7.7988028e-07 0)
(0.098370853 -7.4970432e-07 0)
(0.098515637 7.2209112e-07 0)
(0.098384697 -6.9715477e-07 0)
(0.098502273 6.7463316e-07 0)
(0.098397629 -6.5445421e-07 0)
(0.098489726 6.366065e-07 0)
(0.098409837 -6.2141723e-07 0)
(0.098477811 6.0529195e-07 0)
(0.098421512 -5.9988305e-07 0)
(0.098466393 5.8524418e-07 0)
(0.098432857 -5.4082064e-07 0)
(0.098455142 7.6502668e-07 0)
(0.098443256 -4.8128822e-07 0)
(0.094684309 0.0093398135 0)
(0.094839893 -0.0013526825 0)
(0.10258154 0.00074127322 0)
(0.098902442 -7.9124392e-05 0)
(0.10236656 6.0019997e-05 0)
(0.10109982 -3.7030719e-05 0)
(0.10271097 2.5592392e-05 0)
(0.10139475 8.4016153e-06 0)
(0.10271764 2.3255626e-06 0)
(0.10147533 4.1724292e-06 0)