/*--------------------------------*- C++ -*----------------------------------*\
| =========                 |                                                 |
| \\      /  F ield         | OpenFOAM: The Open Source CFD Toolbox           |
|  \\    /   O peration     | Version:  2312                                  |
|   \\  /    A nd           | Website:  www.openfoam.com                      |
|    \\/     M anipulation  |                                                 |
\*---------------------------------------------------------------------------*/
FoamFile
{
    version     2.0;
    format      ascii;
    arch        "LSB;label=32;scalar=64";
    class       volScalarField;
    location    "9";
    object      T;
}
// * * * * * * * * * * * * * * * * * * * * * * * * * * * * * * * * * * * * * //

dimensions      [0 0 0 1 0 0 0];

internalField   nonuniform List<scalar> 
4000
(
325.20539
324.06253
323.83325
323.76613
323.68902
323.63556
323.58367
323.5375
323.49258
323.45092
323.40914
323.36977
323.32993
323.29188
323.25341
323.2162
323.17873
323.14211
323.10542
323.06921
323.03312
322.99721
322.96163
322.92594
322.89077
322.85525
322.82043
322.78503
322.75052
322.71521
322.68096
322.64572
322.61172
322.57651
322.54274
322.50754
322.47399
322.43878
322.40544
322.3702
322.33707
322.30177
322.26887
322.23346
322.20083
322.16525
322.13296
322.09707
322.06539
322.02827
327.1391
325.29901
324.6875
324.55236
324.38849
324.295
324.20637
324.13478
324.06703
324.00895
323.95059
323.89939
323.84685
323.79962
323.75115
323.70647
323.66101
323.61807
323.57493
323.53323
323.49192
323.45113
323.41131
323.37118
323.3326
323.29297
323.25546
323.21619
323.17959
323.14059
323.10481
323.06599
323.03095
322.99224
322.95788
322.91921
322.8855
322.8468
322.81372
322.77492
322.74249
322.70351
322.67175
322.63246
322.6015
322.5617
322.53176
322.49102
322.46291
322.41865
328.33278
326.48776
325.53445
325.33298
325.08465
324.9516
324.82682
324.72994
324.63965
324.56518
324.49044
324.42741
324.3623
324.30588
324.24752
324.19533
324.14199
324.0927
324.04319
323.99597
323.94951
323.9038
323.85981
323.81521
323.77328
323.72952
323.68934
323.64619
323.60755
323.56484
323.52755
323.48514
323.44908
323.40686
323.37193
323.32977
323.29592
323.25373
323.22093
323.17857
323.14684
323.10417
323.07357
323.0304
323.00111
322.95709
322.92951
322.88392
322.85935
322.80834
329.12293
327.58812
326.36174
326.10039
325.77269
325.60169
325.44211
325.32048
325.20834
325.11767
325.02699
324.95219
324.87484
324.80923
324.74124
324.68154
324.62048
324.56484
324.50912
324.45636
324.40486
324.35421
324.30616
324.25707
324.21188
324.16396
324.12121
324.07415
324.03352
323.98708
323.94834
323.90233
323.8653
323.81955
323.78409
323.73845
323.70449
323.65879
323.6263
323.58037
323.54936
323.50301
323.47359
323.42653
323.39893
323.3507
323.32546
323.27507
323.25394
323.19676
329.66989
328.56413
327.15332
326.84445
326.4461
326.24031
326.04838
325.90312
325.77031
325.66391
325.55802
325.47169
325.38261
325.30794
325.23069
325.16354
325.09509
325.0331
324.97141
324.91312
324.8568
324.80121
324.74925
324.69567
324.64735
324.59526
324.55005
324.49907
324.45657
324.40639
324.36628
324.31667
324.27873
324.22945
324.19353
324.14438
324.11037
324.06116
324.02902
323.97952
323.94928
323.89924
323.87103
323.82009
323.79418
323.74178
323.71886
323.66377
323.64589
323.5832
330.06084
329.3939
327.89265
327.55335
327.09707
326.86149
326.64088
326.47389
326.32221
326.2009
326.08091
325.98349
325.88345
325.79996
325.71404
325.63957
325.56416
325.49593
325.42862
325.36485
325.30397
325.24348
325.18785
325.12979
325.07854
325.02231
324.9748
324.91991
324.87566
324.82176
324.7804
324.72718
324.68844
324.63563
324.59933
324.54669
324.5127
324.45998
324.42825
324.3752
324.34577
324.29207
324.26507
324.21031
324.18609
324.12959
324.10892
324.04929
324.03439
323.96691
330.34629
330.06672
328.56469
328.21483
327.71718
327.45858
327.21429
327.02833
326.86022
326.72527
326.59268
326.48486
326.37489
326.28303
326.18917
326.10768
326.02588
325.95159
325.87911
325.80999
325.74493
325.67962
325.62062
325.55815
325.50422
325.44388
325.39428
325.33553
325.2897
325.23211
325.18964
325.13285
325.09343
325.03713
325.00054
324.94445
324.91055
324.85438
324.82311
324.76656
324.73796
324.68066
324.6549
324.59638
324.57383
324.51334
324.49484
324.4309
324.41865
324.34707
330.55858
330.58573
329.15865
328.81766
328.29816
328.02474
327.76294
327.56165
327.38018
327.23336
327.09007
326.97288
326.85428
326.75467
326.65383
326.56574
326.47827
326.39821
326.32112
326.24688
326.17808
326.10812
326.04611
325.97936
325.92304
325.85871
325.80726
325.74474
325.69754
325.63633
325.59293
325.53263
325.49268
325.43295
325.39619
325.3367
325.30299
325.24342
325.21269
325.1527
325.12498
325.06418
325.03965
324.9775
324.95657
324.89227
324.87579
324.80785
324.79787
324.72285
330.71952
330.96386
329.66846
329.35311
328.83271
328.55342
328.28124
328.06902
327.87786
327.72141
327.56969
327.44446
327.3188
327.2123
327.10563
327.01152
326.91925
326.83385
326.75283
326.67376
326.60176
326.5274
326.46281
326.39198
326.33363
326.26546
326.21246
326.14629
326.09797
326.03327
325.98913
325.92544
325.8851
325.82205
325.78525
325.72247
325.68904
325.62619
325.59605
325.53275
325.50594
325.44177
325.41847
325.35285
325.33347
325.26558
325.25097
325.17938
325.17127
325.09341
330.84441
331.22163
330.09352
329.81612
329.31506
329.03892
328.76402
328.54586
328.3491
328.18571
328.02818
327.89653
327.76563
327.65332
327.54213
327.44276
327.3467
327.2565
327.17233
327.08886
327.01429
326.93584
326.86918
326.79453
326.73456
326.66278
326.60856
326.53894
326.48977
326.42173
326.37708
326.31015
326.26962
326.20339
326.16669
326.10077
326.06773
326.00174
325.97226
325.90581
325.87994
325.81256
325.79048
325.72159
325.70369
325.63248
325.61954
325.54472
325.53811
325.45792
330.9439
331.38302
330.43773
330.20578
329.74145
329.47678
329.20693
328.98809
328.79013
328.62278
328.46231
328.32612
328.192
328.07515
327.96094
327.85721
327.75849
327.66417
327.57774
327.49039
327.41394
327.33182
327.26366
327.18553
327.12439
327.04928
326.99423
326.9214
326.87169
326.80054
326.75563
326.68567
326.64514
326.57592
326.53948
326.4706
326.43806
326.36912
326.34039
326.27096
326.24607
326.1757
326.15481
326.08291
326.06639
325.99219
325.9807
325.9031
325.89762
325.81556
331.02571
331.4732
330.70901
330.52491
330.11029
329.86421
329.60674
329.39243
329.19769
329.02958
328.86918
328.73054
328.59535
328.47542
328.35978
328.25276
328.15259
328.05496
327.96721
327.87661
327.79904
327.71377
327.64472
327.56351
327.50172
327.42363
327.36815
327.29242
327.24251
327.16853
327.12363
327.05088
327.01058
326.93861
326.90259
326.83098
326.79906
326.7274
326.69948
326.62734
326.60344
326.53034
326.51061
326.436
326.42075
326.34391
326.33368
326.25374
326.24909
326.16557
331.095
331.51508
330.91752
330.77938
330.42231
330.20028
329.96154
329.75661
329.56933
329.40366
329.24637
329.10746
328.97341
328.85196
328.73657
328.62742
328.52711
328.42706
328.33903
328.24588
328.16802
328.08016
328.01088
327.92709
327.86519
327.78454
327.72906
327.6508
327.60104
327.52455
327.47996
327.40472
327.36487
327.29043
327.25502
327.18095
327.14978
327.07567
327.04864
326.97406
326.95117
326.87566
326.85704
326.78005
326.76596
326.68688
326.67769
326.59587
326.59183
326.50718
331.15545
331.52809
331.07452
330.9771
330.68044
330.48597
330.27092
330.07951
329.90349
329.74333
329.59203
329.45503
329.32434
329.20298
329.08954
328.9795
328.88036
328.77888
328.69161
328.59671
328.5194
328.4296
328.36079
328.27497
328.2135
328.13076
328.07576
327.99538
327.94616
327.86754
327.82355
327.74617
327.70702
327.63043
327.59581
327.5196
327.48931
327.41306
327.38699
327.31029
327.28844
327.21084
327.19329
327.11431
327.10125
327.02036
327.01203
326.92877
326.92514
326.83968
331.20924
331.52663
331.191
331.12717
330.88939
330.72398
330.53589
330.36122
330.19963
330.04768
329.90502
329.77201
329.64676
329.5271
329.41726
329.3076
329.21096
329.10905
329.02361
328.92779
328.85189
328.76086
328.69321
328.60595
328.54551
328.4612
328.40715
328.32512
328.27681
328.19647
328.1534
328.07428
328.03606
327.95771
327.92405
327.84606
327.81677
327.73874
327.71371
327.63525
327.61445
327.53514
327.51862
327.43804
327.42591
327.34362
327.336
327.25173
327.24837
327.1624
331.25796
331.52068
331.27701
331.23887
331.05516
330.9184
330.75883
330.603
330.45822
330.31673
330.18493
330.05778
329.93985
329.82343
329.71873
329.6107
329.51781
329.41651
329.33392
329.23805
329.16441
329.07289
329.00709
328.91904
328.86019
328.77488
328.72224
328.63906
328.59205
328.51047
328.46862
328.38818
328.35114
328.27142
328.23892
328.15953
328.13138
328.05195
328.02803
327.9482
327.92846
327.84785
327.83232
327.75054
327.73926
327.656
327.64895
327.56408
327.56092
327.47473
331.30241
331.51591
331.34102
331.32102
331.18441
331.07434
330.94316
330.80717
330.68069
330.5513
330.43212
330.3124
330.2034
330.09159
329.99342
329.88818
329.80022
329.70053
329.62176
329.5267
329.45612
329.36485
329.30159
329.21339
329.1567
329.07096
329.02021
328.9364
328.89108
328.80873
328.76842
328.68711
328.6515
328.57084
328.53967
328.45931
328.43241
328.352
328.32926
328.24847
328.22982
328.14831
328.13373
328.0512
328.04068
327.95689
327.95032
327.86523
327.86221
327.77608
331.34327
331.51514
331.38981
331.38136
331.28386
331.19739
331.09314
330.97688
330.86931
330.75303
330.64764
330.53656
330.43776
330.33173
330.24124
330.13987
330.05784
329.96071
329.88665
329.79322
329.72646
329.63617
329.57608
329.4884
329.43439
329.34882
329.3004
329.21651
329.17323
329.09062
329.05214
328.97043
328.93648
328.85534
328.82568
328.74478
328.71926
328.6383
328.6168
328.53547
328.51793
328.43596
328.42231
328.33945
328.32963
328.24572
328.23956
328.15462
328.15172
328.06594
331.38087
331.51894
331.42846
331.4263
331.35986
331.29328
331.21343
331.11587
331.02699
330.92418
330.8332
330.73156
330.64383
330.5445
330.46261
330.36601
330.29077
330.19704
330.12843
330.03742
329.97513
329.88654
329.83018
329.74365
329.69281
329.60801
329.56232
329.47889
329.438
329.35564
329.31927
329.23765
329.20557
329.1244
329.09642
329.01543
328.9914
328.91033
328.89014
328.80872
328.7923
328.7103
328.69756
328.6148
328.60564
328.52201
328.51622
328.43178
328.42901
328.34387
331.41554
331.52683
331.46053
331.46082
331.41805
331.36741
331.30882
331.22824
331.15711
331.06752
330.991
330.89921
330.82302
330.73104
330.65836
330.56726
330.49945
330.40985
330.34731
330.2594
330.20215
330.1159
330.06376
329.97901
329.93176
329.84829
329.80569
329.72327
329.68507
329.60346
329.56945
329.4884
329.45839
329.37767
329.35151
329.27088
329.24845
329.16769
329.14889
329.0678
329.05252
328.97092
328.95909
328.87683
328.86831
328.78535
328.77993
328.69632
328.69368
328.60948
331.4475
331.53771
331.4884
331.48855
331.46315
331.42468
331.38392
331.31811
331.26327
331.18616
331.12366
331.0417
330.97715
330.89286
330.82974
330.74466
330.68471
330.59981
330.5438
330.45959
330.4078
330.32447
330.27697
330.19454
330.15124
330.06964
330.03044
329.94953
329.91429
329.83392
329.80248
329.72247
329.69472
329.61489
329.59069
329.51086
329.49012
329.41012
329.39274
329.31242
329.29832
329.21753
329.2066
329.12525
329.11736
329.03543
329.03037
328.94793
328.94543
328.86245
331.47698
331.55055
331.51349
331.51202
331.49892
331.46925
331.44292
331.38948
331.34908
331.28332
331.23398
331.16151
331.10833
331.03183
330.97831
330.89955
330.84767
330.76791
330.7187
330.63867
330.59265
330.51274
330.47016
330.39055
330.35149
330.27224
330.23669
330.15777
330.1257
330.04703
330.01835
329.93982
329.91446
329.83597
329.81383
329.73524
329.71626
329.63745
329.62155
329.54239
329.52949
329.4499
329.43989
329.35983
329.35257
329.27202
329.26732
329.18635
329.18401
329.10256
331.50421
331.5644
331.53663
331.53283
331.52819
331.50452
331.4895
331.446
331.418
331.36223
331.32488
331.26128
331.21889
331.15
331.10588
331.03354
330.98974
330.91537
330.87308
330.79758
330.7575
330.68141
330.64394
330.56758
330.53294
330.45647
330.42476
330.34825
330.3195
330.24296
330.21717
330.14056
330.1177
330.04095
330.02097
329.94401
329.92687
329.84962
329.83525
329.75765
329.74596
329.66796
329.65887
329.58044
329.57382
329.49498
329.49067
329.41146
329.4093
329.32965
331.52939
331.57862
331.55824
331.55195
331.553
331.53313
331.52669
331.49088
331.47323
331.42594
331.39922
331.34366
331.31125
331.24959
331.21442
331.14844
331.11251
331.04365
331.00823
330.93748
330.90337
330.8314
330.79913
330.72634
330.69623
330.6229
330.59513
330.52141
330.4961
330.42206
330.39925
330.32493
330.30465
330.23002
330.21226
330.13731
330.12204
330.04673
330.03391
329.95822
329.94777
329.87169
329.86354
329.78707
329.7811
329.70427
329.70036
329.62318
329.62122
329.54364
331.55273
331.59275
331.5785
331.56989
331.57473
331.55705
331.55693
331.52682
331.51757
331.47726
331.4597
331.41122
331.38781
331.33285
331.30601
331.24614
331.21771
331.15432
331.12557
331.05967
331.03145
330.96379
330.93669
330.86774
330.84216
330.77226
330.74847
330.67785
330.65602
330.58481
330.56503
330.49333
330.47567
330.4035
330.38799
330.31538
330.302
330.22897
330.21771
330.14426
330.13506
330.06121
330.05401
329.97978
329.97449
329.89993
329.89644
329.82156
329.81981
329.74455
331.5744
331.60656
331.59752
331.58689
331.59428
331.57765
331.58208
331.55603
331.55339
331.51866
331.5088
331.46639
331.45088
331.40197
331.3827
331.32858
331.30715
331.24907
331.22665
331.16561
331.14306
331.0798
331.05775
330.9928
330.97169
330.90544
330.88559
330.81832
330.79994
330.73184
330.71509
330.64628
330.63125
330.56183
330.54856
330.47859
330.46712
330.39664
330.38695
330.31602
330.30807
330.23672
330.23048
330.15876
330.15415
330.0821
330.07905
330.0067
330.00517
329.93245
331.59457
331.6199
331.61532
331.60305
331.61217
331.59589
331.60352
331.58022
331.58266
331.55224
331.54868
331.51135
331.50262
331.45906
331.44651
331.39769
331.38263
331.32961
331.31308
331.25678
331.2396
331.18074
331.16353
331.10266
331.08587
331.02341
331.0074
330.94366
330.92868
330.86388
330.8501
330.78443
330.77198
330.70555
330.69451
330.62742
330.61782
330.55016
330.54202
330.47385
330.46715
330.39854
330.39325
330.32426
330.32034
330.25102
330.24842
330.1788
330.17749
330.10752
331.61338
331.63272
331.63195
331.61838
331.62873
331.61239
331.62221
331.60069
331.60692
331.57974
331.58121
331.54803
331.54498
331.50604
331.49934
331.45529
331.44592
331.39762
331.38647
331.33472
331.32252
331.26799
331.25531
331.19853
331.18585
331.12724
331.11492
331.05482
331.04311
330.98177
330.97088
330.9085
330.89857
330.83532
330.82645
330.76244
330.75468
330.69003
330.68341
330.6182
330.61273
330.54705
330.54271
330.47664
330.4734
330.40699
330.40484
330.33812
330.33704
330.27
331.63094
331.64502
331.64744
331.63287
331.64412
331.62751
331.63881
331.61839
331.62737
331.60257
331.60793
331.57808
331.57966
331.54465
331.5429
331.50309
331.49869
331.45473
331.44839
331.40093
331.39326
331.3429
331.33443
331.28167
331.27282
331.21807
331.20921
331.15281
331.1442
331.08641
331.07827
331.01932
331.0118
330.95186
330.94507
330.8843
330.87831
330.81682
330.81168
330.74959
330.74531
330.68272
330.67931
330.6163
330.61374
330.55039
330.54868
330.48502
330.48416
330.42019
331.64736
331.65678
331.66185
331.64652
331.65843
331.64148
331.65377
331.63398
331.6449
331.62179
331.6301
331.60287
331.60813
331.57641
331.57875
331.54266
331.5425
331.50247
331.50032
331.45687
331.45323
331.40686
331.40218
331.35332
331.34799
331.29704
331.29139
331.23868
331.23297
331.17876
331.17321
331.11774
331.1125
331.05596
331.05115
330.99371
330.98941
330.9312
330.92747
330.86861
330.86548
330.80609
330.80357
330.74375
330.74185
330.68166
330.68039
330.61989
330.61925
330.55847
331.66273
331.66802
331.67522
331.6593
331.67171
331.65442
331.66735
331.64791
331.66015
331.63824
331.6487
331.6235
331.63161
331.60261
331.60825
331.57537
331.57875
331.54223
331.54368
331.5039
331.50379
331.46115
331.45984
331.41472
331.41256
331.36531
331.36258
331.3135
331.31045
331.25981
331.25665
331.20468
331.20156
331.14846
331.1455
331.09144
331.08873
331.03386
331.03146
330.97591
330.97386
330.91775
330.91609
330.85952
330.85826
330.80131
330.80046
330.7432
330.74277
330.68525
331.67711
331.67873
331.68759
331.67122
331.68396
331.66639
331.67972
331.66048
331.67356
331.65251
331.66448
331.64085
331.65109
331.62432
331.63256
331.60242
331.60868
331.57527
331.57972
331.54328
331.54618
331.50702
331.50865
331.46706
331.46769
331.42399
331.42387
331.37833
331.37768
331.33055
331.32955
331.28106
331.27987
331.2302
331.22895
331.17828
331.17704
331.12554
331.12438
331.07216
331.07114
331.01834
331.01748
330.96421
330.96354
330.90988
330.90943
330.85546
330.85523
330.80101
331.69054
331.6889
331.69898
331.68226
331.6952
331.67743
331.69096
331.67187
331.68545
331.66503
331.678
331.65561
331.66738
331.64244
331.65264
331.62484
331.63337
331.60269
331.60959
331.57616
331.58158
331.54561
331.54973
331.51146
331.5145
331.47417
331.47634
331.4342
331.43567
331.39195
331.39289
331.34779
331.34836
331.30207
331.30236
331.25506
331.25516
331.207
331.20698
331.15809
331.158
331.10852
331.10841
331.05843
331.05832
331.00796
331.00788
330.95721
330.95716
330.90625
331.70307
331.69848
331.7094
331.6924
331.70543
331.68753
331.70114
331.68218
331.69603
331.6761
331.68969
331.66828
331.68109
331.65766
331.66929
331.64349
331.65374
331.62545
331.63428
331.60355
331.61101
331.57795
331.58415
331.54895
331.55403
331.51688
331.521
331.4821
331.48541
331.44496
331.44761
331.40581
331.40791
331.36492
331.36658
331.32259
331.32388
331.27902
331.28002
331.23443
331.23519
331.18898
331.18954
331.14285
331.14324
331.09615
331.09641
331.04902
331.04914
331.00153
331.7147
331.70742
331.71883
331.70163
331.71462
331.69669
331.71027
331.6915
331.70541
331.68593
331.69983
331.67925
331.6927
331.67054
331.68315
331.65905
331.67056
331.64437
331.65467
331.62634
331.6354
331.60499
331.61286
331.58048
331.58724
331.55305
331.55881
331.52296
331.52784
331.49051
331.49461
331.45596
331.4594
331.4196
331.42246
331.38167
331.38402
331.34236
331.34427
331.30189
331.30341
331.26042
331.26159
331.21811
331.21896
331.17509
331.17565
331.13148
331.13176
331.08739
331.72536
331.71563
331.72723
331.70992
331.72279
331.70491
331.71838
331.69985
331.7137
331.69465
331.70865
331.68879
331.70259
331.68151
331.69473
331.67211
331.68448
331.66012
331.67148
331.64529
331.65556
331.62754
331.6367
331.60692
331.61501
331.58356
331.59065
331.55766
331.56382
331.52943
331.53475
331.49911
331.50367
331.46692
331.4708
331.43308
331.43634
331.39779
331.40048
331.36121
331.36339
331.32353
331.32522
331.28488
331.28613
331.2454
331.24622
331.20521
331.20562
331.16442
331.73489
331.72297
331.73456
331.71722
331.72991
331.71218
331.72549
331.70727
331.72097
331.70237
331.71631
331.69711
331.71101
331.6909
331.70444
331.68311
331.69601
331.67326
331.68533
331.66104
331.67217
331.6463
331.65643
331.629
331.63811
331.60918
331.61731
331.58697
331.59416
331.56253
331.56883
331.53602
331.5415
331.50765
331.51237
331.47759
331.4816
331.44602
331.44937
331.4131
331.41583
331.37898
331.38113
331.34381
331.3454
331.30771
331.30876
331.2708
331.27133
331.23319
331.74305
331.72932
331.74076
331.72351
331.73598
331.71851
331.73161
331.71378
331.72726
331.70915
331.72291
331.70437
331.71819
331.69897
331.71258
331.69241
331.70556
331.68424
331.69673
331.67414
331.68582
331.66189
331.67268
331.64739
331.65723
331.63062
331.63951
331.61163
331.61959
331.59052
331.59758
331.56743
331.57363
331.5425
331.54789
331.5159
331.52052
331.48776
331.49164
331.45823
331.46141
331.42744
331.42996
331.39554
331.39741
331.36263
331.36388
331.32885
331.32947
331.29427
331.74952
331.73452
331.74579
331.72879
331.74103
331.72392
331.73678
331.71942
331.73263
331.71505
331.72855
331.71066
331.72429
331.70589
331.71941
331.70028
331.71348
331.69345
331.70611
331.68504
331.69702
331.67483
331.68601
331.66266
331.67297
331.64846
331.65788
331.63225
331.64076
331.61406
331.62168
331.59399
331.60073
331.57215
331.57805
331.54866
331.55375
331.52365
331.52796
331.49724
331.50078
331.46954
331.47235
331.44068
331.44278
331.41078
331.41218
331.37994
331.38064
331.34825
331.75406
331.7385
331.74966
331.73306
331.74509
331.72844
331.74104
331.72421
331.73712
331.72013
331.73331
331.71608
331.72942
331.71181
331.72511
331.70696
331.72001
331.70115
331.71379
331.69409
331.70615
331.68553
331.69688
331.67528
331.68585
331.66325
331.67298
331.6494
331.65826
331.63373
331.64172
331.61631
331.62342
331.5972
331.60346
331.5765
331.58193
331.55431
331.55892
331.53074
331.53455
331.50588
331.50891
331.47984
331.48211
331.45272
331.45424
331.42463
331.42539
331.39565
331.75665
331.74127
331.75242
331.73638
331.74821
331.73212
331.74444
331.72821
331.7408
331.72443
331.73726
331.72071
331.73369
331.71686
331.72983
331.71259
331.72538
331.70759
331.72004
331.70159
331.71355
331.69434
331.70568
331.68566
331.69629
331.67543
331.68527
331.66356
331.67259
331.65005
331.65823
331.63491
331.64224
331.6182
331.62468
331.59997
331.60561
331.58031
331.58511
331.55929
331.56328
331.53701
331.54019
331.51355
331.51593
331.48901
331.4906
331.46348
331.46427
331.43703
331.75757
331.74297
331.75417
331.73882
331.75047
331.73501
331.74704
331.73147
331.74371
331.72802
331.74045
331.72461
331.73717
331.72112
331.73369
331.71732
331.72974
331.71295
331.72509
331.70777
331.71948
331.70156
331.71273
331.69414
331.70466
331.68536
331.69517
331.67515
331.68418
331.66345
331.67168
331.65027
331.65767
331.63562
331.6422
331.61956
331.6253
331.60213
331.60705
331.58341
331.58749
331.56345
331.56672
331.54234
331.54479
331.52015
331.52179
331.49698
331.4978
331.47287
331.7573
331.74379
331.75507
331.74049
331.75196
331.7372
331.74894
331.73405
331.74594
331.73094
331.74296
331.72784
331.73996
331.72467
331.73678
331.72124
331.73322
331.71736
331.72909
331.71281
331.72417
331.70741
331.71828
331.70097
331.71126
331.69337
331.703
331.68451
331.69341
331.67432
331.68246
331.66279
331.67015
331.64991
331.65647
331.63573
331.64147
331.62026
331.62519
331.60356
331.60767
331.58568
331.58897
331.56668
331.56916
331.54664
331.54829
331.52561
331.52644
331.50367
331.75634
331.74398
331.75529
331.74152
331.75279
331.73876
331.7502
331.73603
331.74754
331.73326
331.74486
331.73046
331.74211
331.72757
331.73918
331.72444
331.73593
331.72093
331.73218
331.71686
331.72777
331.71206
331.72253
331.70639
331.71633
331.69971
331.70904
331.69193
331.70059
331.68297
331.69093
331.67281
331.68002
331.66144
331.66788
331.64886
331.65452
331.63509
331.63996
331.62016
331.62423
331.60412
331.60739
331.58702
331.58948
331.5689
331.57055
331.54983
331.55065
331.52986
331.75508
331.74377
331.755
331.74203
331.75308
331.7398
331.7509
331.73747
331.74859
331.73504
331.74619
331.73253
331.74367
331.72988
331.74096
331.72699
331.73793
331.72375
331.73446
331.72002
331.73041
331.71566
331.72565
331.71055
331.72006
331.70458
331.71352
331.69764
331.70597
331.68968
331.69735
331.68064
331.68762
331.67052
331.67677
331.65929
331.6648
331.64698
331.65173
331.6336
331.63757
331.61917
331.62237
331.60374
331.60615
331.58735
331.58896
331.57004
331.57085
331.55186
331.75376
331.74331
331.75434
331.74214
331.75292
331.74039
331.75115
331.73845
331.74916
331.73634
331.74702
331.73408
331.74471
331.73163
331.74216
331.72893
331.73929
331.72587
331.73599
331.72236
331.73218
331.71831
331.72775
331.7136
331.72259
331.70814
331.71662
331.70185
331.70977
331.69466
331.70196
331.68652
331.69318
331.67742
331.6834
331.66733
331.67261
331.65625
331.66082
331.6442
331.64803
331.63118
331.63426
331.61722
331.61954
331.60236
331.60391
331.58662
331.5874
331.57005
331.75244
331.74273
331.75343
331.74196
331.75242
331.74062
331.751
331.73902
331.74932
331.7372
331.74741
331.73517
331.74527
331.73288
331.74283
331.73029
331.74004
331.72733
331.73684
331.72395
331.73315
331.72007
331.72891
331.71561
331.72405
331.71051
331.71847
331.70468
331.71213
331.69808
331.70497
331.69065
331.69694
331.68237
331.68803
331.67322
331.67823
331.66317
331.66751
331.65225
331.65589
331.64044
331.64337
331.62776
331.62998
331.61425
331.61574
331.59991
331.60066
331.58479
331.75115
331.7421
331.75235
331.74156
331.75166
331.74057
331.75055
331.73927
331.74912
331.73769
331.74741
331.73583
331.74538
331.73364
331.74299
331.7311
331.74021
331.72816
331.73701
331.7248
331.73336
331.72099
331.7292
331.71666
331.72449
331.71177
331.71918
331.70626
331.7132
331.70009
331.70651
331.6932
331.69907
331.68556
331.69086
331.67716
331.68186
331.66798
331.67205
331.658
331.66142
331.64722
331.64999
331.63566
331.63775
331.62332
331.62473
331.61023
331.61093
331.59639
331.74986
331.74143
331.75118
331.74101
331.7507
331.74029
331.74984
331.73923
331.74862
331.73784
331.74703
331.73609
331.74506
331.73393
331.74266
331.73136
331.73982
331.72836
331.73654
331.72494
331.73283
331.72109
331.72865
331.71679
331.72399
331.71199
331.71881
331.70667
331.71306
331.70078
331.7067
331.69428
331.69971
331.68714
331.69205
331.67934
331.6837
331.67085
331.67463
331.66166
331.66485
331.65177
331.65434
331.64116
331.64311
331.62985
331.63116
331.61784
331.6185
331.60515
331.74857
331.74075
331.74993
331.74035
331.7496
331.73982
331.74893
331.73895
331.74785
331.73768
331.74633
331.73596
331.74433
331.73375
331.74183
331.73107
331.73884
331.72792
331.73541
331.72436
331.73155
331.72039
331.72727
331.71601
331.72256
331.71121
331.71741
331.70597
331.71178
331.70024
331.70564
331.69401
331.69897
331.68724
331.69172
331.6799
331.68389
331.67197
331.67544
331.66343
331.66636
331.65427
331.65664
331.64448
331.64627
331.63406
331.63526
331.623
331.62361
331.61131
331.74725
331.74006
331.74863
331.73961
331.7484
331.73922
331.74785
331.73846
331.74684
331.73723
331.74529
331.73545
331.74317
331.73309
331.74049
331.7302
331.73727
331.72683
331.7336
331.72303
331.72952
331.71886
331.72505
331.71433
331.72022
331.70944
331.71501
331.70418
331.70941
331.69853
331.70339
331.69246
331.69693
331.68594
331.69
331.67896
331.68257
331.67147
331.67462
331.66346
331.66612
331.65491
331.65707
331.64581
331.64745
331.63615
331.63725
331.62592
331.62648
331.61513
331.74591
331.73937
331.74729
331.73881
331.74712
331.73851
331.74664
331.73779
331.74561
331.73649
331.74392
331.73453
331.74158
331.73192
331.7386
331.72873
331.73507
331.72503
331.73108
331.72093
331.7267
331.71649
331.72199
331.71173
331.71696
331.70668
331.71163
331.70133
331.70598
331.69567
331.7
331.68968
331.69367
331.68334
331.68696
331.67661
331.67984
331.66946
331.67228
331.66188
331.66427
331.65384
331.65578
331.64533
331.64679
331.63632
331.63731
331.62681
331.62731
331.61679
331.74453
331.73867
331.74591
331.73796
331.74577
331.73769
331.74529
331.73691
331.74413
331.73543
331.74219
331.73317
331.7395
331.73019
331.73612
331.72659
331.73219
331.7225
331.7278
331.71802
331.72306
331.71323
331.71804
331.70819
331.71276
331.70292
331.70725
331.69743
331.7015
331.69171
331.6955
331.68573
331.68923
331.67948
331.68266
331.67293
331.67578
331.66605
331.66854
331.65881
331.66092
331.65119
331.6529
331.64317
331.64447
331.63472
331.6356
331.62584
331.62628
331.6165
331.74309
331.73795
331.74449
331.73707
331.74437
331.73677
331.74381
331.73583
331.74239
331.73402
331.74005
331.73132
331.73687
331.72784
331.73299
331.72373
331.72856
331.71916
331.72371
331.71423
331.71855
331.70906
331.71317
331.70369
331.7076
331.69816
331.70187
331.69248
331.69597
331.68664
331.68991
331.68063
331.68365
331.67442
331.67718
331.66799
331.67046
331.66131
331.66347
331.65434
331.65618
331.64707
331.64856
331.63946
331.6406
331.63149
331.63226
331.62315
331.62354
331.61442
331.7416
331.73722
331.74303
331.73614
331.7429
331.73574
331.74217
331.73449
331.74033
331.73218
331.73742
331.72889
331.73363
331.72479
331.72913
331.72008
331.72411
331.71494
331.71873
331.70952
331.71312
331.70391
331.70734
331.69818
331.70145
331.69236
331.69547
331.68646
331.6894
331.68048
331.68324
331.67439
331.67696
331.66819
331.67053
331.66184
331.66394
331.6553
331.65715
331.64856
331.65013
331.64157
331.64286
331.63432
331.6353
331.62677
331.62743
331.6189
331.61924
331.6107
331.74004
331.73647
331.74152
331.73517
331.74137
331.73457
331.74031
331.73282
331.73786
331.72984
331.73422
331.72579
331.72966
331.72094
331.72443
331.71553
331.71876
331.70978
331.71281
331.70381
331.7067
331.69775
331.70051
331.69163
331.69428
331.68551
331.68804
331.67937
331.68178
331.67323
331.6755
331.66705
331.66917
331.66083
331.66278
331.65452
331.65628
331.6481
331.64965
331.64153
331.64286
331.63479
331.63587
331.62784
331.62867
331.62065
331.62121
331.6132
331.61349
331.60547
331.7384
331.73572
331.73997
331.73415
331.73973
331.73319
331.73815
331.73074
331.73488
331.72686
331.73031
331.7219
331.72486
331.71619
331.71881
331.71001
331.71243
331.70358
331.70586
331.69705
331.69924
331.69051
331.69263
331.68401
331.68606
331.67757
331.67955
331.6712
331.6731
331.66489
331.6667
331.65862
331.66032
331.65236
331.65393
331.64608
331.64751
331.63975
331.64102
331.63334
331.63442
331.6268
331.62769
331.62012
331.6208
331.61325
331.61371
331.60617
331.60641
331.59886
331.73666
331.73497
331.73837
331.73308
331.73792
331.73154
331.7356
331.72811
331.73126
331.72313
331.72558
331.71709
331.71909
331.71041
331.71216
331.7034
331.70502
331.69628
331.69782
331.68917
331.69068
331.68216
331.68365
331.67528
331.67676
331.66854
331.67
331.66194
331.66337
331.65547
331.65685
331.64911
331.65042
331.64281
331.64404
331.63656
331.63768
331.63031
331.63131
331.62403
331.62489
331.61768
331.61839
331.61123
331.61178
331.60465
331.60502
331.59791
331.59809
331.59097
331.73482
331.73425
331.7367
331.7319
331.73588
331.72948
331.7325
331.72477
331.72682
331.71846
331.71985
331.71121
331.71224
331.70349
331.70436
331.69562
331.69644
331.68779
331.68863
331.68011
331.68099
331.67265
331.67356
331.66541
331.66635
331.65839
331.65937
331.65159
331.65258
331.64499
331.64596
331.63854
331.63949
331.63222
331.63312
331.62599
331.62683
331.61982
331.62057
331.61366
331.61432