/*--------------------------------*- C++ -*----------------------------------*\
| =========                 |                                                 |
| \\      /  F ield         | OpenFOAM: The Open Source CFD Toolbox           |
|  \\    /   O peration     | Version:  2312                                  |
|   \\  /    A nd           | Website:  www.openfoam.com                      |
|    \\/     M anipulation  |                                                 |
\*---------------------------------------------------------------------------*/
FoamFile
{
    version     2.0;
    format      ascii;
    arch        "LSB;label=32;scalar=64";
    class       volScalarField;
    location    "4";
    object      p;
}
// * * * * * * * * * * * * * * * * * * * * * * * * * * * * * * * * * * * * * //

dimensions      [0 2 -2 0 0 0 0];

internalField   nonuniform List<scalar> 
4000
(
32.462309
30.955661
30.342979
29.31876
28.889699
27.992935
27.580169
26.730394
26.299162
25.477347
25.024202
24.224683
23.751422
22.97105
22.480099
21.716369
21.209915
20.46073
19.940673
19.204248
18.672237
17.947022
17.404504
16.689141
16.137392
15.430676
14.870833
14.171689
13.604769
12.912234
12.339151
11.652355
11.073936
10.392094
9.8090869
9.1314846
8.5445708
7.8705563
7.2803607
6.6093344
6.0164334
5.3478398
4.7527702
4.0860894
3.4893558
2.8240966
2.2261783
1.5618695
0.96322588
0.29940765
32.450743
30.953629
30.343468
29.318753
28.889687
27.992948
27.580163
26.730403
26.299154
25.477354
25.024195
24.22469
23.751416
22.971056
22.480094
21.716374
21.20991
20.460735
19.940669
19.204252
18.672233
17.947026
17.404501
16.689144
16.137389
15.430679
14.87083
14.171692
13.604767
12.912236
12.339149
11.652358
11.073934
10.392096
9.809085
9.1314864
8.5445691
7.870558
7.2803591
6.6093359
6.016432
5.3478412
4.7527688
4.0860908
3.4893544
2.8240979
2.226177
1.5618708
0.96322452
0.29940996
32.434357
30.952653
30.344318
29.31869
28.889693
27.992955
27.580172
26.730402
26.299157
25.477353
25.024196
24.224688
23.751417
22.971055
22.480095
21.716373
21.209911
20.460734
19.94067
19.204251
18.672234
17.947025
17.404501
16.689144
16.137389
15.430678
14.870831
14.171691
13.604767
12.912236
12.33915
11.652357
11.073935
10.392096
9.8090854
9.1314861
8.5445694
7.8705577
7.2803594
6.6093356
6.0164323
5.3478409
4.7527691
4.0860905
3.4893547
2.8240977
2.2261772
1.5618706
0.96322462
0.29941073
32.415919
30.950973
30.345188
29.318599
28.889701
27.992961
27.580183
26.730398
26.299162
25.477349
25.0242
24.224685
23.751421
22.971051
22.480098
21.71637
21.209914
20.460731
19.940672
19.204249
18.672236
17.947023
17.404503
16.689142
16.137391
15.430677
14.870832
14.17169
13.604769
12.912234
12.339151
11.652356
11.073936
10.392095
9.8090865
9.131485
8.5445704
7.8705567
7.2803603
6.6093347
6.0164331
5.34784
4.7527699
4.0860897
3.4893555
2.8240969
2.226178
1.5618697
0.9632253
0.29941084
32.392976
30.949055
30.345994
29.318477
28.889705
27.992966
27.580192
26.730394
26.299166
25.477345
25.024204
24.224681
23.751424
22.971048
22.480101
21.716367
21.209916
20.460729
19.940674
19.204247
18.672238
17.947021
17.404505
16.68914
16.137393
15.430675
14.870834
14.171688
13.60477
12.912233
12.339152
11.652355
11.073937
10.392094
9.8090875
9.1314841
8.5445713
7.8705558
7.2803612
6.6093339
6.0164339
5.3478393
4.7527707
4.0860889
3.4893562
2.8240962
2.2261787
1.561869
0.96322596
0.29941088
32.376162
30.947108
30.346666
29.318317
28.889711
27.992973
27.580199
26.73039
26.299169
25.477342
25.024207
24.224679
23.751426
22.971046
22.480103
21.716365
21.209918
20.460727
19.940676
19.204245
18.67224
17.94702
17.404507
16.689139
16.137394
15.430674
14.870835
14.171687
13.604771
12.912232
12.339153
11.652354
11.073938
10.392093
9.8090882
9.1314833
8.544572
7.8705551
7.2803618
6.6093333
6.0164346
5.3478387
4.7527712
4.0860884
3.4893568
2.8240956
2.2261793
1.5618684
0.9632265
0.29941095
32.355421
30.945273
30.347192
29.31817
28.889732
27.992982
27.580205
26.730387
26.299171
25.477339
25.024209
24.224676
23.751428
22.971044
22.480105
21.716364
21.20992
20.460726
19.940678
19.204244
18.672241
17.947019
17.404508
16.689138
16.137395
15.430673
14.870836
14.171687
13.604772
12.912231
12.339154
11.652353
11.073938
10.392092
9.8090888
9.1314827
8.5445726
7.8705546
7.2803624
6.6093328
6.0164351
5.3478382
4.7527717
4.0860879
3.4893572
2.8240952
2.2261797
1.5618679
0.96322698
0.29941101
32.340874
30.944263
30.347181
29.318244
28.8898
27.992998
27.580212
26.730384
26.299174
25.477336
25.024211
24.224675
23.75143
22.971043
22.480106
21.716362
21.209921
20.460725
19.940679
19.204242
18.672242
17.947018
17.404509
16.689137
16.137396
15.430672
14.870836
14.171686
13.604772
12.912231
12.339154
11.652353
11.073939
10.392092
9.8090894
9.1314822
8.5445731
7.8705541
7.2803628
6.6093323
6.0164355
5.3478377
4.7527722
4.0860875
3.4893577
2.8240948
2.2261801
1.5618674
0.96322742
0.29941105
32.322052
30.942851
30.346475
29.318625
28.889903
27.993019
27.580219
26.730381
26.299175
25.477334
25.024212
24.224673
23.751432
22.971041
22.480108
21.716361
21.209922
20.460723
19.94068
19.204241
18.672243
17.947017
17.40451
16.689136
16.137397
15.430671
14.870837
14.171685
13.604773
12.91223
12.339155
11.652352
11.07394
10.392091
9.8090899
9.1314817
8.5445736
7.8705537
7.2803633
6.6093319
6.0164359
5.3478374
4.7527725
4.0860871
3.489358
2.8240944
2.2261805
1.561867
0.96322784
0.29941108
32.309199
30.94151
30.346029
29.318917
28.889957
27.993027
27.580221
26.730377
26.299176
25.477332
25.024213
24.224671
23.751433
22.97104
22.480109
21.71636
21.209924
20.460722
19.940681
19.20424
18.672244
17.947016
17.40451
16.689135
16.137397
15.430671
14.870838
14.171684
13.604774
12.912229
12.339155
11.652351
11.07394
10.392091
9.8090903
9.1314813
8.544574
7.8705533
7.2803636
6.6093315
6.0164362
5.347837
4.7527729
4.0860868
3.4893583
2.8240941
2.2261808
1.5618667
0.96322823
0.29941109
32.295493
30.938578
30.346435
29.318698
28.889908
27.99301
27.580215
26.730371
26.299176
25.47733
25.024215
24.22467
23.751434
22.971039
22.48011
21.716359
21.209925
20.460721
19.940682
19.20424
18.672245
17.947015
17.404511
16.689134
16.137398
15.43067
14.870838
14.171684
13.604774
12.912229
12.339156
11.652351
11.07394
10.39209
9.8090907
9.131481
8.5445743
7.8705529
7.280364
6.6093312
6.0164366
5.3478367
4.7527732
4.0860865
3.4893586
2.8240938
2.2261811
1.5618663
0.9632286
0.29941109
32.28148
30.936487
30.346826
29.318071
28.88979
27.992969
27.5802
26.730362
26.299175
25.477327
25.024215
24.224669
23.751435
22.971038
22.480111
21.716358
21.209925
20.460721
19.940682
19.204239
18.672246
17.947015
17.404512
16.689134
16.137399
15.43067
14.870839
14.171683
13.604775
12.912228
12.339156
11.652351
11.073941
10.39209
9.809091
9.1314806
8.5445746
7.8705526
7.2803643
6.6093309
6.0164368
5.3478364
4.7527734
4.0860862
3.4893589
2.8240935
2.2261813
1.561866
0.96322895
0.29941108
32.271441
30.933898
30.346498
29.317484
28.889677
27.992923
27.580182
26.730352
26.299173
25.477325
25.024216
24.224667
23.751436
22.971037
22.480112
21.716357
21.209926
20.46072
19.940683
19.204238
18.672246
17.947014
17.404512
16.689133
16.137399
15.430669
14.870839
14.171683
13.604775
12.912228
12.339157
11.65235
11.073941
10.39209
9.8090913
9.1314803
8.5445749
7.8705523
7.2803645
6.6093307
6.0164371
5.3478362
4.7527737
4.086086
3.4893591
2.8240933
2.2261815
1.5618658
0.96322929
0.29941105
32.257864
30.931366
30.34552
29.317211
28.889624
27.992889
27.580168
26.730344
26.299172
25.477322
25.024217
24.224666
23.751437
22.971036
22.480113
21.716356
21.209927
20.460719
19.940684
19.204238
18.672247
17.947013
17.404513
16.689133
16.1374
15.430669
14.87084
14.171683
13.604775
12.912228
12.339157
11.65235
11.073942
10.392089
9.8090916
9.1314801
8.5445752
7.8705521
7.2803648
6.6093304
6.0164373
5.347836
4.7527739
4.0860858
3.4893593
2.8240931
2.2261817
1.5618655
0.9632296
0.29941103
32.248707
30.928343
30.343952
29.317205
28.889607
27.992868
27.580158
26.730336
26.29917
25.47732
25.024217
24.224665
23.751438
22.971035
22.480113
21.716355
21.209928
20.460719
19.940684
19.204237
18.672247
17.947013
17.404513
16.689132
16.1374
15.430668
14.87084
14.171682
13.604776
12.912227
12.339157
11.65235
11.073942
10.392089
9.8090919
9.1314798
8.5445754
7.8705519
7.280365
6.6093302
6.0164375
5.3478358
4.7527741
4.0860856
3.4893595
2.8240929
2.2261819
1.5618653
0.9632299
0.29941099
32.237859
30.925658
30.342213
29.317212
28.889553
27.992837
27.580142
26.730327
26.299167
25.477318
25.024217
24.224664
23.751438
22.971034
22.480114
21.716355
21.209928
20.460718
19.940685
19.204237
18.672248
17.947012
17.404514
16.689132
16.1374
15.430668
14.87084
14.171682
13.604776
12.912227
12.339158
11.652349
11.073942
10.392089
9.8090921
9.1314796
8.5445756
7.8705516
7.2803652
6.60933
6.0164377
5.3478356
4.7527743
4.0860854
3.4893597
2.8240927
2.2261821
1.5618651
0.96323019
0.29941096
32.230917
30.922712
30.340761
29.316972
28.889399
27.992781
27.580116
26.730314
26.299163
25.477314
25.024217
24.224663
23.751439
22.971033
22.480114
21.716354
21.209929
20.460717
19.940685
19.204236
18.672248
17.947012
17.404514
16.689132
16.137401
15.430668
14.870841
14.171682
13.604776
12.912227
12.339158
11.652349
11.073942
10.392088
9.8090923
9.1314794
8.5445758
7.8705515
7.2803654
6.6093298
6.0164379
5.3478354
4.7527744
4.0860852
3.4893599
2.8240925
2.2261822
1.561865
0.96323046
0.29941091
32.222304
30.919928
30.339838
29.316453
28.889154
27.992708
27.580082
26.730298
26.299157
25.477311
25.024216
24.224661
23.751439
22.971033
22.480115
21.716353
21.209929
20.460717
19.940686
19.204236
18.672249
17.947012
17.404514
16.689131
16.137401
15.430667
14.870841
14.171681
13.604777
12.912227
12.339158
11.652349
11.073943
10.392088
9.8090925
9.1314792
8.544576
7.8705513
7.2803656
6.6093297
6.0164381
5.3478352
4.7527746
4.0860851
3.48936
2.8240924
2.2261824
1.5618648
0.96323072
0.29941087
32.216585
30.917062
30.33914
29.315879
28.888906
27.992638
27.580049
26.730285
26.299152
25.477308
25.024216
24.22466
23.751439
22.971032
22.480115
21.716353
21.20993
20.460716
19.940686
19.204235
18.672249
17.947011
17.404515
16.689131
16.137401
15.430667
14.870841
14.171681
13.604777
12.912226
12.339158
11.652349
11.073943
10.392088
9.8090927
9.131479
8.5445762
7.8705511
7.2803657
6.6093295
6.0164382
5.3478351
4.7527747
4.0860849
3.4893602
2.8240922
2.2261825
1.5618647
0.96323096
0.29941082
32.209546
30.914529
30.338379
29.315425
28.888719
27.992586
27.580025
26.730277
26.299149
25.477305
25.024215
24.224659
23.75144
22.971031
22.480116
21.716352
21.20993
20.460716
19.940687
19.204235
18.672249
17.947011
17.404515
16.689131
16.137402
15.430667
14.870842
14.171681
13.604777
12.912226
12.339159
11.652349
11.073943
10.392088
9.8090929
9.1314788
8.5445764
7.870551
7.2803659
6.6093294
6.0164384
5.347835
4.7527749
4.0860848
3.4893603
2.8240921
2.2261826
1.5618645
0.96323119
0.29941078
32.204922
30.912171
30.33748
29.315076
28.888586
27.992548
27.580006
26.730274
26.299147
25.477303
25.024215
24.224658
23.75144
22.971031
22.480116
21.716352
21.20993
20.460716
19.940687
19.204235
18.67225
17.947011
17.404515
16.68913
16.137402
15.430667
14.870842
14.171681
13.604777
12.912226
12.339159
11.652348
11.073943
10.392088
9.809093
9.1314787
8.5445765
7.8705508
7.280366
6.6093292
6.0164385
5.3478348
4.752775
4.0860847
3.4893604
2.824092
2.2261827
1.5618644
0.96323141
0.29941073
32.199338
30.910087
30.336567
29.314773
28.88848
27.992518
27.579991
26.730274
26.299146
25.477302
25.024215
24.224657
23.75144
22.97103
22.480117
21.716352
21.209931
20.460715
19.940687
19.204234
18.67225
17.94701
17.404516
16.68913
16.137402
15.430666
14.870842
14.17168
13.604777
12.912226
12.339159
11.652348
11.073943
10.392088
9.8090932
9.1314786
8.5445766
7.8705507
7.2803661
6.6093291
6.0164386
5.3478347
4.7527751
4.0860846
3.4893605
2.8240919
2.2261828
1.5618643
0.96323162
0.29941068
32.195659
30.908193
30.33569
29.314489
28.888386
27.992492
27.579976
26.730276
26.299147
25.477302
25.024215
24.224657
23.751441
22.97103
22.480117
21.716351
21.209931
20.460715
19.940688
19.204234
18.67225
17.94701
17.404516
16.68913
16.137402
15.430666
14.870842
14.17168
13.604778
12.912226
12.339159
11.652348
11.073943
10.392087
9.8090933
9.1314784
8.5445768
7.8705506
7.2803662
6.609329
6.0164387
5.3478346
4.7527752
4.0860845
3.4893606
2.8240918
2.2261829
1.5618642
0.96323182
0.29941063
32.191291
30.906464
30.334897
29.314229
28.888301
27.992469
27.57996
26.730279
26.299147
25.477301
25.024216
24.224656
23.751441
22.971029
22.480117
21.716351
21.209931
20.460715
19.940688
19.204234
18.67225
17.94701
17.404516
16.68913
16.137403
15.430666
14.870842
14.17168
13.604778
12.912225
12.339159
11.652348
11.073943
10.392087
9.8090934
9.1314783
8.5445769
7.8705505
7.2803663
6.6093289
6.0164388
5.3478345
4.7527753
4.0860844
3.4893607
2.8240917
2.226183
1.5618642
0.963232
0.29941059
32.188363
30.904962
30.334179
29.313996
28.888226
27.99245
27.579944
26.730282
26.299148
25.477301
25.024216
24.224656
23.751441
22.971029
22.480117
21.71635
21.209932
20.460714
19.940688
19.204233
18.672251
17.94701
17.404516
16.68913
16.137403
15.430666
14.870843
14.17168
13.604778
12.912225
12.339159
11.652348
11.073944
10.392087
9.8090936
9.1314782
8.544577
7.8705504
7.2803664
6.6093288
6.0164389
5.3478344
4.7527754
4.0860843
3.4893608
2.8240916
2.2261831
1.5618641
0.96323218
0.29941054
32.184975
30.903562
30.333544
29.313793
28.888163
27.992433
27.579929
26.730285
26.299149
25.477301
25.024217
24.224655
23.751441
22.971028
22.480118
21.71635
21.209932
20.460714
19.940688
19.204233
18.672251
17.947009
17.404516
16.689129
16.137403
15.430666
14.870843
14.17168
13.604778
12.912225
12.339159
11.652348
11.073944
10.392087
9.8090937
9.1314781
8.5445771
7.8705503
7.2803665
6.6093287
6.016439
5.3478344
4.7527755
4.0860842
3.4893609
2.8240915
2.2261832
1.561864
0.96323234
0.2994105
32.182631
30.902422
30.332986
29.313619
28.88811
27.99242
27.579916
26.730286
26.29915
25.477302
25.024217
24.224655
23.751442
22.971028
22.480118
21.71635
21.209932
20.460714
19.940689
19.204233
18.672251
17.947009
17.404517
16.689129
16.137403
15.430665
14.870843
14.17168
13.604778
12.912225
12.33916
11.652348
11.073944
10.392087
9.8090938
9.131478
8.5445772
7.8705502
7.2803666
6.6093286
6.0164391
5.3478343
4.7527755
4.0860841
3.4893609
2.8240915
2.2261832
1.561864
0.96323249
0.29941045
32.18003
30.901322
30.3325
29.313473
28.888068
27.99241
27.579905
26.730288
26.29915
25.477304
25.024218
24.224655
23.751442
22.971028
22.480118
21.716349
21.209932
20.460714
19.940689
19.204233
18.672251
17.947009
17.404517
16.689129
16.137403
15.430665
14.870843
14.17168
13.604778
12.912225
12.33916
11.652347
11.073944
10.392087
9.8090938
9.1314779
8.5445772
7.8705501
7.2803667
6.6093286
6.0164391
5.3478342
4.7527756
4.0860841
3.489361
2.8240914
2.2261833
1.5618639
0.96323262
0.29941041
32.178124
30.900492
30.332091
29.313353
28.888035
27.992403
27.579897
26.730289
26.29915
25.477306
25.024219
24.224655
23.751442
22.971027
22.480118
21.716349
21.209932
20.460713
19.940689
19.204233
18.672251
17.947009
17.404517
16.689129
16.137403
15.430665
14.870843
14.171679
13.604778
12.912225
12.33916
11.652347
11.073944
10.392087
9.8090939
9.1314779
8.5445773
7.87055
7.2803667
6.6093285
6.0164392
5.3478342
4.7527757
4.086084
3.4893611
2.8240913
2.2261833
1.5618639
0.96323275
0.29941037
32.176175
30.899641
30.331737
29.313256
28.88801
27.992399
27.57989
26.730291
26.299149
25.477308
25.02422
24.224655
23.751442
22.971027
22.480118
21.716349
21.209933
20.460713
19.940689
19.204232
18.672252
17.947009
17.404517
16.689129
16.137403
15.430665
14.870843
14.171679
13.604778
12.912225
12.33916
11.652347
11.073944
10.392087
9.809094
9.1314778
8.5445774
7.87055
7.2803668
6.6093284
6.0164393
5.3478341
4.7527757
4.086084
3.4893611
2.8240913
2.2261834
1.5618638
0.96323286
0.29941034
32.174524
30.899036
30.331455
29.313181
28.887994
27.992396
27.579885
26.730293
26.299148
25.47731
25.024221
24.224655
23.751443
22.971027
22.480118
21.716349
21.209933
20.460713
19.940689
19.204232
18.672252
17.947009
17.404517
16.689129
16.137404
15.430665
14.870843
14.171679
13.604779
12.912225
12.33916
11.652347
11.073944
10.392087
9.8090941
9.1314777
8.5445774
7.8705499
7.2803669
6.6093284
6.0164393
5.347834
4.7527758
4.0860839
3.4893612
2.8240912
2.2261834
1.5618638
0.96323296
0.29941031
32.173117
30.898412
30.331217
29.313125
28.887984
27.992396
27.579882
26.730295
26.299146
25.477312
25.024221
24.224655
23.751443
22.971027
22.480119
21.716349
21.209933
20.460713
19.940689
19.204232
18.672252
17.947009
17.404517
16.689129
16.137404
15.430665
14.870843
14.171679
13.604779
12.912225
12.33916
11.652347
11.073944
10.392087
9.8090941
9.1314777
8.5445775
7.8705499
7.2803669
6.6093283
6.0164393
5.347834
4.7527758
4.0860839
3.4893612
2.8240912
2.2261835
1.5618638
0.96323305
0.29941028
32.171724
30.89799
30.331048
29.31309
28.887982
27.992398
27.57988
26.730297
26.299144
25.477315
25.024222
24.224655
23.751443
22.971026
22.480119
21.716348
21.209933
20.460713
19.940689
19.204232
18.672252
17.947008
17.404517
16.689128
16.137404
15.430665
14.870843
14.171679
13.604779
12.912225
12.33916
11.652347
11.073944
10.392087
9.8090942
9.1314776
8.5445775
7.8705498
7.280367
6.6093283
6.0164394
5.347834
4.7527759
4.0860838
3.4893612
2.8240912
2.2261835
1.5618638
0.96323312
0.29941026
32.170719
30.897574
30.330917
29.313072
28.887985
27.992402
27.57988
26.7303
26.299142
25.477316
25.024223
24.224655
23.751443
22.971026
22.480119
21.716348
21.209933
20.460713
19.940689
19.204232
18.672252
17.947008
17.404517
16.689128
16.137404
15.430665
14.870843
14.171679
13.604779
12.912224
12.33916
11.652347
11.073944
10.392087
9.8090942
9.1314776
8.5445776
7.8705498
7.280367
6.6093283
6.0164394
5.3478339
4.7527759
4.0860838
3.4893613
2.8240911
2.2261835
1.5618637
0.96323317
0.29941024
32.169671
30.897315
30.330846
29.313069
28.887993
27.992408
27.579881
26.730303
26.29914
25.477318
25.024224
24.224656
23.751443
22.971026
22.480119
21.716348
21.209933
20.460712
19.94069
19.204232
18.672252
17.947008
17.404517
16.689128
16.137404
15.430665
14.870844
14.171679
13.604779
12.912224
12.33916
11.652347
11.073944
10.392086
9.8090943
9.1314775
8.5445776
7.8705498
7.280367
6.6093282
6.0164395
5.3478339
4.7527759
4.0860838
3.4893613
2.8240911
2.2261836
1.5618637
0.96323321
0.29941023
32.169001
30.897062
30.330798
29.313078
28.888005
27.992414
27.579882
26.730305
26.299139
25.477319
25.024225
24.224656
23.751444
22.971026
22.480119
21.716348
21.209933
20.460712
19.94069
19.204232
18.672252
17.947008
17.404517
16.689128
16.137404
15.430665
14.870844
14.171679
13.604779
12.912224
12.33916
11.652347
11.073944
10.392086
9.8090943
9.1314775
8.5445776
7.8705497
7.2803671
6.6093282
6.0164395
5.3478339
4.7527759
4.0860837
3.4893613
2.8240911
2.2261836
1.5618637
0.96323322
0.29941023
32.168329
30.896923
30.330791
29.313094
28.888019
27.992421
27.579884
26.730308
26.299138
25.477319
25.024226
24.224656
23.751444
22.971026
22.480119
21.716348
21.209933
20.460712
19.94069
19.204232
18.672252
17.947008
17.404518
16.689128
16.137404
15.430665
14.870844
14.171679
13.604779
12.912224
12.33916
11.652347
11.073944
10.392086
9.8090943
9.1314775
8.5445777
7.8705497
7.2803671
6.6093282
6.0164395
5.3478339
4.752776
4.0860837
3.4893613
2.8240911
2.2261836
1.5618637
0.9632332
0.29941024
32.167993
30.896773
30.330786
29.313111
28.888031
27.992428
27.579886
26.73031
26.299138
25.477319
25.024227
24.224657
23.751444
22.971026
22.480119
21.716348
21.209933
20.460712
19.94069
19.204232
18.672252
17.947008
17.404518
16.689128
16.137404
15.430665
14.870844
14.171679
13.604779
12.912224
12.33916
11.652347
11.073944
10.392086
9.8090943
9.1314775
8.5445777
7.8705497
7.2803671
6.6093282
6.0164395
5.3478339
4.752776
4.0860837
3.4893613
2.8240911
2.2261836
1.5618637
0.96323316
0.29941026
32.167666
30.89672
30.330804
29.313128
28.888042
27.992432
27.579888
26.730311
26.299138
25.477319
25.024227
24.224657
23.751444
22.971026
22.480119
21.716348
21.209933
20.460712
19.94069
19.204232
18.672252
17.947008
17.404518
16.689128
16.137404
15.430665
14.870844
14.171679
13.604779
12.912224
12.33916
11.652347
11.073944
10.392086
9.8090943
9.1314775
8.5445777
7.8705497
7.2803671
6.6093282
6.0164395
5.3478339
4.7527759
4.0860837
3.4893613
2.8240911
2.2261835
1.5618638
0.9632331
0.29941028
32.167609
30.896673
30.330804
29.313137
28.888047
27.992435
27.579889
26.730312
26.299138
25.47732
25.024227
24.224657
23.751444
22.971026
22.480119
21.716348
21.209933
20.460712
19.94069
19.204232
18.672252
17.947008
17.404518
16.689128
16.137404
15.430665
14.870844
14.171679
13.604779
12.912224
12.33916
11.652347
11.073944
10.392086
9.8090943
9.1314775
8.5445777
7.8705497
7.2803671
6.6093282
6.0164395
5.3478339
4.7527759
4.0860838
3.4893613
2.8240911
2.2261835
1.5618638
0.96323306
0.2994103
32.167528
30.896704
30.330816
29.313137
28.888047
27.992435
27.579889
26.730312
26.299138
25.47732
25.024227
24.224657
23.751444
22.971026
22.480119
21.716348
21.209933
20.460712
19.94069
19.204232
18.672252
17.947008
17.404518
16.689128
16.137404
15.430665
14.870844
14.171679
13.604779
12.912224
12.33916
11.652347
11.073944
10.392086
9.8090943
9.1314775
8.5445777
7.8705497
7.2803671
6.6093282
6.0164395
5.3478339
4.7527759
4.0860838
3.4893613
2.8240911
2.2261835
1.5618638
0.96323306
0.2994103
32.167697
30.896726
30.330805
29.313128
28.888041
27.992432
27.579888
26.730311
26.299138
25.477319
25.024227
24.224657
23.751444
22.971026
22.480119
21.716348
21.209933
20.460712
19.94069
19.204232
18.672252
17.947008
17.404518
16.689128
16.137404
15.430665
14.870844
14.171679
13.604779
12.912224
12.33916
11.652347
11.073944
10.392086
9.8090943
9.1314775
8.5445777
7.8705497
7.2803671
6.6093282
6.0164395
5.3478339
4.7527759
4.0860837
3.4893613
2.8240911
2.2261835
1.5618638
0.9632331
0.29941028
32.167848
30.896849
30.330811
29.313113
28.888031
27.992427
27.579886
26.73031
26.299138
25.477319
25.024227
24.224657
23.751444
22.971026
22.480119
21.716348
21.209933
20.460712
19.94069
19.204232
18.672252
17.947008
17.404518
16.689128
16.137404
15.430665
14.870844
14.171679
13.604779
12.912224
12.33916
11.652347
11.073944
10.392086
9.8090943
9.1314775
8.5445777
7.8705497
7.2803671
6.6093282
6.0164395
5.3478339
4.752776
4.0860837
3.4893613
2.8240911
2.2261836
1.5618637
0.96323316
0.29941026
32.168305
30.896978
30.330807
29.313095
28.888018
27.992421
27.579884
26.730308
26.299138
25.477319
25.024226
24.224656
23.751444
22.971026
22.480119
21.716348
21.209933
20.460712
19.94069
19.204232
18.672252
17.947008
17.404518
16.689128
16.137404
15.430665
14.870844
14.171679
13.604779
12.912224
12.33916
11.652347
11.073944
10.392086
9.8090943
9.1314775
8.5445777
7.8705497
7.2803671
6.6093282
6.0164395
5.3478339
4.752776
4.0860837
3.4893613
2.8240911
2.2261836
1.5618637
0.9632332
0.29941024
32.168778
30.897193
30.330837
29.313081
28.888005
27.992414
27.579882
26.730305
26.299139
25.477319
25.024225
24.224656
23.751444
22.971026
22.480119
21.716348
21.209933
20.460712
19.94069
19.204232
18.672252
17.947008
17.404517
16.689128
16.137404
15.430665
14.870844
14.171679
13.604779
12.912224
12.33916
11.652347
11.073944
10.392086
9.8090943
9.1314775
8.5445776
7.8705497
7.2803671
6.6093282
6.0164395
5.3478339
4.7527759
4.0860837
3.4893613
2.8240911
2.2261836
1.5618637
0.96323322
0.29941023
32.169605
30.897417
30.330877
29.313073
28.887993
27.992407
27.579881
26.730303
26.29914
25.477318
25.024224
24.224656
23.751443
22.971026
22.480119
21.716348
21.209933
20.460712
19.94069
19.204232
18.672252
17.947008
17.404517
16.689128
16.137404
15.430665
14.870844
14.171679
13.604779
12.912224
12.33916
11.652347
11.073944
10.392086
9.8090943
9.1314775
8.5445776
7.8705498
7.280367
6.6093282
6.0164395
5.3478339
4.7527759
4.0860838
3.4893613
2.8240911
2.2261836
1.5618637
0.96323321
0.29941023
32.17041
30.897762
30.330973
29.313078
28.887985
27.992402
27.57988
26.7303
26.299142
25.477316
25.024223
24.224655
23.751443
22.971026
22.480119
21.716348
21.209933
20.460713
19.940689
19.204232
18.672252
17.947008
17.404517
16.689128
16.137404
15.430665
14.870843
14.171679
13.604779
12.912224
12.33916
11.652347
11.073944
10.392087
9.8090942
9.1314776
8.5445776
7.8705498
7.280367
6.6093283
6.0164394
5.3478339
4.7527759
4.0860838
3.4893613
2.8240911
2.2261835
1.5618637
0.96323317
0.29941024
32.171605
30.898133
30.331095
29.313097
28.887982
27.992398
27.579881
26.730297
26.299144
25.477315
25.024222
24.224655
23.751443
22.971026
22.480119
21.716348
21.209933
20.460713
19.940689
19.204232
18.672252
17.947008
17.404517
16.689128
16.137404
15.430665
14.870843
14.171679
13.604779
12.912225
12.33916
11.652347
11.073944
10.392087
9.8090942
9.1314776
8.5445775
7.8705498
7.280367
6.6093283
6.0164394
5.347834
4.7527759
4.0860838
3.4893612
2.8240912
2.2261835
1.5618638
0.96323312
0.29941026
32.172765
30.898667
30.33129
29.313134
28.887985
27.992396
27.579882
26.730295
26.299146
25.477312
25.024221
24.224655
23.751443
22.971027
22.480119
21.716349
21.209933
20.460713
19.940689
19.204232
18.672252
17.947009
17.404517
16.689129
16.137404
15.430665
14.870843
14.171679
13.604779
12.912225
12.33916
11.652347
11.073944
10.392087
9.8090941
9.1314777
8.5445775
7.8705499
7.2803669
6.6093283
6.0164393
5.347834
4.7527758
4.0860839
3.4893612
2.8240912
2.2261835
1.5618638
0.96323305
0.29941028
32.174254
30.899205
30.331518
29.313191
28.887995
27.992396
27.579886
26.730293
26.299148
25.47731
25.024221
24.224655
23.751443
22.971027
22.480118
21.716349
21.209933
20.460713
19.940689
19.204232
18.672252
17.947009
17.404517
16.689129
16.137404
15.430665
14.870843
14.171679
13.604779
12.912225
12.33916
11.652347
11.073944
10.392087
9.8090941
9.1314777
8.5445774
7.8705499
7.2803669
6.6093284
6.0164393
5.347834
4.7527758
4.0860839
3.4893612
2.8240912
2.2261834
1.5618638
0.96323296
0.29941031
32.175889
30.899965
30.331826
29.313268
28.888011
27.992399
27.579891
26.730291
26.299149
25.477308
25.02422
24.224655
23.751442
22.971027
22.480118
21.716349
21.209933
20.460713
19.940689
19.204232
18.672252
17.947009
17.404517
16.689129
16.137403
15.430665
14.870843
14.171679
13.604778
12.912225
12.33916
11.652347
11.073944
10.392087
9.809094
9.1314778
8.5445774
7.87055
7.2803668
6.6093284
6.0164393
5.3478341
4.7527757
4.086084
3.4893611
2.8240913
2.2261834
1.5618638
0.96323286
0.29941034
32.177613
30.900694
30.332172
29.313367
28.888036
27.992403
27.579897
26.73029
26.29915
25.477306
25.024219
24.224655
23.751442
22.971027
22.480118
21.716349
21.209932
20.460713
19.940689
19.204233
18.672251
17.947009
17.404517
16.689129
16.137403
15.430665
14.870843
14.171679
13.604778
12.912225
12.33916
11.652347
11.073944
10.392087
9.8090939
9.1314779
8.5445773
7.87055
7.2803667
6.6093285
6.0164392
5.3478342
4.7527757
4.086084
3.4893611
2.8240913
2.2261833
1.5618639
0.96323275
0.29941037
32.179864
30.901695
30.332601
29.313489
28.888069
27.992411
27.579906
26.730288
26.29915
25.477304
25.024218
24.224655
23.751442
22.971028
22.480118
21.716349
21.209932
20.460714
19.940689
19.204233
18.672251
17.947009
17.404517
16.689129
16.137403
15.430665
14.870843
14.17168
13.604778
12.912225
12.33916
11.652347
11.073944
10.392087
9.8090938
9.1314779
8.5445772
7.8705501
7.2803667
6.6093286
6.0164391
5.3478342
4.7527756
4.0860841
3.489361
2.8240914
2.2261833
1.5618639
0.96323262
0.29941041
32.181922
30.902687
30.333087
29.313637
28.888112
27.992421
27.579917
26.730287
26.29915
25.477302
25.024217
24.224655
23.751442
22.971028
22.480118
21.71635
21.209932
20.460714
19.940689
19.204233
18.672251
17.947009
17.404517
16.689129
16.137403
15.430665
14.870843
14.17168
13.604778
12.912225
12.33916
11.652348
11.073944
10.392087
9.8090938
9.131478
8.5445772
7.8705502
7.2803666
6.6093286
6.0164391
5.3478343
4.7527755
4.0860841
3.4893609
2.8240915
2.2261832
1.561864
0.96323249
0.29941045
32.184885
30.903969
30.333657
29.313812
28.888165
27.992434
27.57993
26.730285
26.299149
25.477301
25.024217
24.224655
23.751441
22.971028
22.480118
21.71635
21.209932
20.460714
19.940688
19.204233
18.672251
17.947009
17.404516
16.689129
16.137403
15.430666
14.870843
14.17168
13.604778
12.912225
12.339159
11.652348
11.073944
10.392087
9.8090937
9.1314781
8.5445771
7.8705503
7.2803665
6.6093287
6.016439
5.3478344
4.7527755
4.0860842
3.4893609
2.8240915
2.2261832
1.561864
0.96323234
0.2994105
32.187457
30.905297
30.334299
29.314017
28.888229
27.99245
27.579944
26.730282
26.299148
25.477301
25.024216
24.224656
23.751441
22.971029
22.480117
21.71635
21.209932
20.460714
19.940688
19.204233
18.672251
17.94701
17.404516
16.68913
16.137403
15.430666
14.870843
14.17168
13.604778
12.912225
12.339159
11.652348
11.073944
10.392087
9.8090936
9.1314782
8.544577
7.8705504
7.2803664
6.6093288
6.0164389
5.3478344
4.7527754
4.0860843
3.4893608
2.8240916
2.2261831
1.5618641
0.96323218
0.29941054
32.191304
30.906901
30.335022
29.314251
28.888304
27.99247
27.57996
26.730279
26.299147
25.477301
25.024216
24.224656
23.751441
22.971029
22.480117
21.716351
21.209931
20.460715
19.940688
19.204234
18.67225
17.94701
17.404516
16.68913
16.137403
15.430666
14.870842
14.17168
13.604778
12.912225
12.339159
11.652348
11.073943
10.392087
9.8090934
9.1314783
8.5445769
7.8705505
7.2803663
6.6093289
6.0164388
5.3478345
4.7527753
4.0860844
3.4893607
2.8240917
2.226183
1.5618642
0.963232
0.29941059
32.194534
30.908604
30.335829
29.314515
28.88839
27.992493
27.579976
26.730276
26.299147
25.477302
25.024216
24.224657
23.751441
22.97103
22.480117
21.716351
21.209931
20.460715
19.940688
19.204234
18.67225
17.94701
17.404516
16.68913
16.137402
15.430666
14.870842
14.17168
13.604778
12.912226
12.339159
11.652348
11.073943
10.392087
9.8090933
9.1314784
8.5445768
7.8705506
7.2803662
6.609329
6.0164387
5.3478346
4.7527752
4.0860845
3.4893606
2.8240918
2.2261829
1.5618642
0.96323182
0.29941063
32.199482
30.910549
30.336704
29.314799
28.888484
27.992519
27.579992
26.730274
26.299147
25.477302
25.024215
24.224657
23.75144
22.97103
22.480117
21.716352
21.209931
20.460715
19.940687
19.204234
18.67225
17.94701
17.404516
16.68913
16.137402
15.430666
14.870842
14.17168
13.604777