/*--------------------------------*- C++ -*----------------------------------*\
| =========                 |                                                 |
| \\      /  F ield         | OpenFOAM: The Open Source CFD Toolbox           |
|  \\    /   O peration     | Version:  2312                                  |
|   \\  /    A nd           | Website:  www.openfoam.com                      |
|    \\/     M anipulation  |                                                 |
\*---------------------------------------------------------------------------*/
FoamFile
{
    version     2.0;
    format      ascii;
    arch        "LSB;label=32;scalar=64";
    class       volSymmTensorField;
    location    "4";
    object      sigma;
}
// * * * * * * * * * * * * * * * * * * * * * * * * * * * * * * * * * * * * * //

dimensions      [0 2 -2 0 0 0 0];

internalField   nonuniform List<symmTensor> 
4000
(
(-2.2650831 -1.0083353 0 -0.40505347 0 0)
(-5.6748554 -0.44185181 0 -0.0029202289 0 0)
(-2.9233423 -0.31324655 0 -0.0008621639 0 0)
(-3.1216127 -0.32251299 0 1.0379999e-05 0 0)
(-2.9350333 -0.31260446 0 2.1592613e-05 0 0)
(-3.0391625 -0.31856598 0 -5.4642859e-05 0 0)
(-2.9196908 -0.31176263 0 3.4992402e-05 0 0)
(-3.0032198 -0.31661087 0 -4.3084989e-05 0 0)
(-2.9227376 -0.31193509 0 3.8439025e-05 0 0)
(-2.9940323 -0.31609906 0 -3.762554e-05 0 0)
(-2.9272325 -0.31219697 0 3.5185132e-05 0 0)
(-2.9891801 -0.31582068 0 -3.348289e-05 0 0)
(-2.9308728 -0.3124112 0 3.1451671e-05 0 0)
(-2.9854682 -0.31560538 0 -2.9776175e-05 0 0)
(-2.9340464 -0.31259784 0 2.8031001e-05 0 0)
(-2.9823264 -0.31542277 0 -2.6497473e-05 0 0)
(-2.9368897 -0.31276451 0 2.4984761e-05 0 0)
(-2.9795778 -0.31526306 0 -2.361342e-05 0 0)
(-2.9394348 -0.31291332 0 2.229004e-05 0 0)
(-2.9771442 -0.31512176 0 -2.1074284e-05 0 0)
(-2.9417095 -0.31304607 0 1.9911903e-05 0 0)
(-2.9749783 -0.31499609 0 -1.8838504e-05 0 0)
(-2.9437429 -0.31316456 0 1.7817026e-05 0 0)
(-2.9730449 -0.314884 0 -1.687213e-05 0 0)
(-2.9455627 -0.31327044 0 1.5975718e-05 0 0)
(-2.9713152 -0.3147838 0 -1.5146435e-05 0 0)
(-2.947194 -0.31336521 0 1.4361796e-05 0 0)
(-2.969764 -0.31469405 0 -1.3636539e-05 0 0)
(-2.9486597 -0.31345021 0 1.29522e-05 0 0)
(-2.9683692 -0.31461347 0 -1.2320699e-05 0 0)
(-2.9499804 -0.31352663 0 1.1726675e-05 0 0)
(-2.9671108 -0.31454091 0 -1.1179905e-05 0 0)
(-2.9511747 -0.31359556 0 1.0667513e-05 0 0)
(-2.9659709 -0.31447535 0 -1.0197611e-05 0 0)
(-2.9522595 -0.31365797 0 9.7593488e-06 0 0)
(-2.9649331 -0.31441585 0 -9.3595349e-06 0 0)
(-2.9532503 -0.31371476 0 8.9889915e-06 0 0)
(-2.9639826 -0.31436156 0 -8.6535037e-06 0 0)
(-2.954161 -0.31376674 0 8.3452908e-06 0 0)
(-2.9631059 -0.3143117 0 -8.0693381e-06 0 0)
(-2.9550047 -0.31381464 0 7.8190687e-06 0 0)
(-2.9622905 -0.31426558 0 -7.5988483e-06 0 0)
(-2.9557933 -0.31385914 0 7.4030343e-06 0 0)
(-2.9615245 -0.31422252 0 -7.2363695e-06 0 0)
(-2.9565368 -0.31390082 0 7.091876e-06 0 0)
(-2.9607944 -0.31418179 0 -6.9770019e-06 0 0)
(-2.957247 -0.31394023 0 6.900257e-06 0 0)
(-2.9601268 -0.31414448 0 -6.7644109e-06 0 0)
(-2.9581159 -0.31398674 0 7.0066863e-06 0 0)
(-2.9601242 -0.31414404 0 -6.7995788e-06 0 0)
(-1.9771235 -0.92200807 0 -0.3819643 0 0)
(-4.8814639 -0.42224178 0 -0.008146246 0 0)
(-2.9873029 -0.32147054 0 -0.0025898625 0 0)
(-2.8831276 -0.30966619 0 -2.3153933e-05 0 0)
(-2.720485 -0.3010142 0 -5.9822565e-06 0 0)
(-2.8104615 -0.30651864 0 -7.4694068e-05 0 0)
(-2.7106857 -0.30035358 0 1.8873661e-05 0 0)
(-2.7796203 -0.30468581 0 -4.8971752e-05 0 0)
(-2.7114105 -0.30036443 0 3.9211357e-05 0 0)
(-2.7716726 -0.30421147 0 -4.0878904e-05 0 0)
(-2.7149852 -0.30058969 0 3.7852517e-05 0 0)
(-2.7676051 -0.30395988 0 -3.6520624e-05 0 0)
(-2.718029 -0.30078523 0 3.4135192e-05 0 0)
(-2.7644626 -0.30376139 0 -3.2494352e-05 0 0)
(-2.7207069 -0.30095764 0 3.0504679e-05 0 0)
(-2.761787 -0.30359153 0 -2.8897248e-05 0 0)
(-2.7231164 -0.30111243 0 2.721673e-05 0 0)
(-2.7594434 -0.30344265 0 -2.5743129e-05 0 0)
(-2.7252776 -0.30125096 0 2.4290831e-05 0 0)
(-2.7573676 -0.30331081 0 -2.2972409e-05 0 0)
(-2.7272113 -0.30137469 0 2.1702978e-05 0 0)
(-2.7555199 -0.30319351 0 -2.053505e-05 0 0)
(-2.7289407 -0.30148518 0 1.9421584e-05 0 0)
(-2.7538702 -0.30308885 0 -1.8392312e-05 0 0)
(-2.730489 -0.30158395 0 1.741593e-05 0 0)
(-2.7523941 -0.30299528 0 -1.6512334e-05 0 0)
(-2.7318774 -0.30167237 0 1.5658036e-05 0 0)
(-2.7510702 -0.30291146 0 -1.4867819e-05 0 0)
(-2.7331253 -0.30175168 0 1.4122941e-05 0 0)
(-2.7498794 -0.3028362 0 -1.3435015e-05 0 0)
(-2.7342502 -0.301823 0 1.2788633e-05 0 0)
(-2.7488047 -0.30276842 0 -1.2193197e-05 0 0)
(-2.735268 -0.30188735 0 1.1635857e-05 0 0)
(-2.7478307 -0.30270715 0 -1.1124371e-05 0 0)
(-2.7361932 -0.30194564 0 1.0647935e-05 0 0)
(-2.7469435 -0.30265153 0 -1.0213057e-05 0 0)
(-2.7370388 -0.30199869 0 9.8106119e-06 0 0)
(-2.7461304 -0.30260076 0 -9.4461512e-06 0 0)
(-2.7378168 -0.30204728 0 9.1119543e-06 0 0)
(-2.7453797 -0.30255411 0 -8.8128462e-06 0 0)
(-2.7385384 -0.30209208 0 8.5423746e-06 0 0)
(-2.7446808 -0.30251093 0 -8.3047715e-06 0 0)
(-2.7392139 -0.30213374 0 8.0945801e-06 0 0)
(-2.7440235 -0.30247061 0 -7.9176193e-06 0 0)
(-2.739852 -0.30217279 0 7.762993e-06 0 0)
(-2.7433957 -0.30243243 0 -7.6493733e-06 0 0)
(-2.7404588 -0.30220945 0 7.5848422e-06 0 0)
(-2.7428017 -0.30239596 0 -7.3645508e-06 0 0)
(-2.7411519 -0.30224787 0 8.0850093e-06 0 0)
(-2.7426746 -0.30238795 0 -7.3226752e-06 0 0)
(-1.8578956 -0.87447426 0 -0.35846326 0 0)
(-4.2820545 -0.3949932 0 -0.0097220073 0 0)
(-2.9014964 -0.32086308 0 -0.003898467 0 0)
(-2.7528729 -0.30255313 0 -0.00012354371 0 0)
(-2.581813 -0.29323632 0 -2.8251259e-05 0 0)
(-2.6619585 -0.29841818 0 -8.5688569e-05 0 0)
(-2.5740466 -0.29266838 0 2.6013518e-06 0 0)
(-2.635084 -0.29671501 0 -4.9610656e-05 0 0)
(-2.5741831 -0.2926168 0 3.5602711e-05 0 0)
(-2.6278684 -0.29626043 0 -3.9284566e-05 0 0)
(-2.5772639 -0.29282249 0 3.6056152e-05 0 0)
(-2.6242478 -0.29602498 0 -3.515673e-05 0 0)
(-2.5799652 -0.29300705 0 3.2712275e-05 0 0)
(-2.6214522 -0.29583759 0 -3.128393e-05 0 0)
(-2.5823519 -0.29317055 0 2.9288646e-05 0 0)
(-2.6190648 -0.29567637 0 -2.7800347e-05 0 0)
(-2.584503 -0.29331765 0 2.6152371e-05 0 0)
(-2.6169717 -0.29553485 0 -2.4756383e-05 0 0)
(-2.5864346 -0.29344947 0 2.3348051e-05 0 0)
(-2.6151175 -0.29540945 0 -2.2088302e-05 0 0)
(-2.5881637 -0.29356729 0 2.0862963e-05 0 0)
(-2.6134667 -0.29529784 0 -1.9743389e-05 0 0)
(-2.5897108 -0.29367256 0 1.8670575e-05 0 0)
(-2.6119928 -0.29519824 0 -1.7682703e-05 0 0)
(-2.5910961 -0.29376667 0 1.6742703e-05 0 0)
(-2.610674 -0.29510918 0 -1.5875048e-05 0 0)
(-2.5923384 -0.29385093 0 1.5052898e-05 0 0)
(-2.609491 -0.29502939 0 -1.4293985e-05 0 0)
(-2.5934551 -0.29392653 0 1.3577306e-05 0 0)
(-2.608427 -0.29495772 0 -1.2916609e-05 0 0)
(-2.5944619 -0.29399452 0 1.2294814e-05 0 0)
(-2.6074665 -0.29489316 0 -1.1722978e-05 0 0)
(-2.595373 -0.29405589 0 1.1186948e-05 0 0)
(-2.6065958 -0.29483478 0 -1.0695818e-05 0 0)
(-2.5962013 -0.29411149 0 1.0237733e-05 0 0)
(-2.6058026 -0.29478176 0 -9.8203167e-06 0 0)
(-2.5969586 -0.29416213 0 9.433573e-06 0 0)
(-2.6050753 -0.29473334 0 -9.0840157e-06 0 0)
(-2.5976556 -0.29420853 0 8.7631896e-06 0 0)
(-2.6044036 -0.29468882 0 -8.4767836e-06 0 0)
(-2.5983023 -0.29425134 0 8.217749e-06 0 0)
(-2.6037778 -0.29464758 0 -7.9910761e-06 0 0)
(-2.5989078 -0.29429117 0 7.7909189e-06 0 0)
(-2.603189 -0.29460904 0 -7.6243634e-06 0 0)
(-2.5994802 -0.29432855 0 7.4776401e-06 0 0)
(-2.6026261 -0.29457253 0 -7.3793214e-06 0 0)
(-2.6000244 -0.29436359 0 7.3255928e-06 0 0)
(-2.6020877 -0.29453711 0 -7.0866676e-06 0 0)
(-2.6006315 -0.29439826 0 8.0717143e-06 0 0)
(-2.6019126 -0.29452747 0 -7.5061743e-06 0 0)
(-1.7647445 -0.82280551 0 -0.32695482 0 0)
(-3.8653059 -0.37812137 0 -0.011568328 0 0)
(-2.7984456 -0.31997909 0 -0.0053870664 0 0)
(-2.6295424 -0.29567794 0 -0.00022886055 0 0)
(-2.4494541 -0.2856106 0 -6.457894e-05 0 0)
(-2.5185923 -0.29033485 0 -9.5140655e-05 0 0)
(-2.4403558 -0.28497523 0 -1.8273419e-05 0 0)
(-2.4950058 -0.28875036 0 -4.6502203e-05 0 0)
(-2.4400724 -0.28486829 0 2.8297013e-05 0 0)
(-2.4884116 -0.28831392 0 -3.4240532e-05 0 0)
(-2.4427414 -0.28505467 0 3.1062827e-05 0 0)
(-2.4851455 -0.28809347 0 -3.0760865e-05 0 0)
(-2.4451594 -0.2852286 0 2.8439527e-05 0 0)
(-2.4826276 -0.28791653 0 -2.7383788e-05 0 0)
(-2.4473078 -0.28538343 0 2.5534988e-05 0 0)
(-2.4804711 -0.2877635 0 -2.4307587e-05 0 0)
(-2.4492463 -0.28552297 0 2.2827404e-05 0 0)
(-2.478579 -0.28762901 0 -2.1632875e-05 0 0)
(-2.4509882 -0.28564815 0 2.0388686e-05 0 0)
(-2.4769026 -0.28750981 0 -1.9296428e-05 0 0)
(-2.4525481 -0.28576008 0 1.8221381e-05 0 0)
(-2.4754103 -0.28740368 0 -1.7246026e-05 0 0)
(-2.4539439 -0.28586011 0 1.6307357e-05 0 0)
(-2.4740781 -0.28730897 0 -1.5445287e-05 0 0)
(-2.4551938 -0.28594957 0 1.4623717e-05 0 0)
(-2.4728862 -0.28722427 0 -1.3866132e-05 0 0)
(-2.4563148 -0.28602967 0 1.31479e-05 0 0)
(-2.4718172 -0.28714837 0 -1.2485161e-05 0 0)
(-2.4573225 -0.28610155 0 1.1859212e-05 0 0)
(-2.4708558 -0.28708018 0 -1.1282243e-05 0 0)
(-2.458231 -0.28616623 0 1.0739247e-05 0 0)
(-2.469988 -0.28701873 0 -1.0239913e-05 0 0)
(-2.4590531 -0.28622462 0 9.77188e-06 0 0)
(-2.4692015 -0.28696315 0 -9.3430834e-06 0 0)
(-2.4598006 -0.28627755 0 8.9431884e-06 0 0)
(-2.4684849 -0.28691264 0 -8.5788553e-06 0 0)
(-2.460484 -0.28632579 0 8.2413684e-06 0 0)
(-2.467828 -0.28686649 0 -7.9364423e-06 0 0)
(-2.4611129 -0.28637001 0 7.6567009e-06 0 0)
(-2.4672214 -0.28682403 0 -7.4071722e-06 0 0)
(-2.4616964 -0.28641084 0 7.1817443e-06 0 0)
(-2.4666564 -0.28678466 0 -6.9847965e-06 0 0)
(-2.4622429 -0.28644887 0 6.8113776e-06 0 0)
(-2.4661248 -0.28674785 0 -6.668527e-06 0 0)
(-2.4627595 -0.28648461 0 6.5404723e-06 0 0)
(-2.4656167 -0.28671294 0 -6.4644383e-06 0 0)
(-2.46325 -0.28651809 0 6.425156e-06 0 0)
(-2.4651255 -0.28667851 0 -6.1545799e-06 0 0)
(-2.4637823 -0.28654926 0 7.4245057e-06 0 0)
(-2.4649065 -0.28666682 0 -6.9268378e-06 0 0)
(-1.7114825 -0.7873876 0 -0.30463866 0 0)
(-3.4486884 -0.35882222 0 -0.012602161 0 0)
(-2.6578934 -0.31629256 0 -0.0066350102 0 0)
(-2.5059148 -0.28878418 0 -0.00033377398 0 0)
(-2.3233443 -0.27810497 0 -0.00010740802 0 0)
(-2.380151 -0.2822769 0 -0.00010594959 0 0)
(-2.3099067 -0.2772557 0 -3.6858257e-05 0 0)
(-2.3591038 -0.28079478 0 -4.3367808e-05 0 0)
(-2.3092485 -0.2771091 0 2.1476868e-05 0 0)
(-2.3530293 -0.28037533 0 -2.9337275e-05 0 0)
(-2.3115681 -0.27727891 0 2.6307798e-05 0 0)
(-2.3500568 -0.2801682 0 -2.6493799e-05 0 0)
(-2.3137442 -0.27744347 0 2.4320789e-05 0 0)
(-2.3477752 -0.28000079 0 -2.3600993e-05 0 0)
(-2.3156909 -0.27759057 0 2.1902224e-05 0 0)
(-2.3458172 -0.2798553 0 -2.0920952e-05 0 0)
(-2.317449 -0.27772328 0 1.9605974e-05 0 0)
(-2.3440978 -0.27972729 0 -1.8604375e-05 0 0)
(-2.3190292 -0.27784238 0 1.7520382e-05 0 0)
(-2.3425745 -0.27961381 0 -1.6589448e-05 0 0)
(-2.3204446 -0.27794893 0 1.5660672e-05 0 0)
(-2.3412186 -0.27951277 0 -1.4824584e-05 0 0)
(-2.3217113 -0.27804416 0 1.4016302e-05 0 0)
(-2.3400085 -0.27942259 0 -1.3275859e-05 0 0)
(-2.3228455 -0.27812933 0 1.2569302e-05 0 0)
(-2.338926 -0.27934194 0 -1.1918191e-05 0 0)
(-2.3238626 -0.2782056 0 1.1300804e-05 0 0)
(-2.3379553 -0.27926966 0 -1.0731113e-05 0 0)
(-2.3247769 -0.27827406 0 1.0193151e-05 0 0)
(-2.3370823 -0.27920471 0 -9.6971815e-06 0 0)
(-2.3256012 -0.27833567 0 9.2305436e-06 0 0)
(-2.3362946 -0.27914617 0 -8.8013253e-06 0 0)
(-2.3263471 -0.27839131 0 8.3991235e-06 0 0)
(-2.3355807 -0.2790932 0 -8.0305622e-06 0 0)
(-2.3270251 -0.27844176 0 7.6869326e-06 0 0)
(-2.3349305 -0.27904505 0 -7.3738192e-06 0 0)
(-2.3276449 -0.27848776 0 7.0838605e-06 0 0)
(-2.3343345 -0.27900102 0 -6.8218741e-06 0 0)
(-2.3282153 -0.27852995 0 6.5816219e-06 0 0)
(-2.3337844 -0.2789605 0 -6.3673645e-06 0 0)
(-2.3287443 -0.27856893 0 6.1739752e-06 0 0)
(-2.3332721 -0.27892291 0 -6.0050838e-06 0 0)
(-2.3292395 -0.27860525 0 5.8566946e-06 0 0)
(-2.3327903 -0.27888773 0 -5.7353767e-06 0 0)
(-2.3297077 -0.27863944 0 5.6239531e-06 0 0)
(-2.33233 -0.27885437 0 -5.5667673e-06 0 0)
(-2.3301517 -0.27867147 0 5.5346173e-06 0 0)
(-2.3318821 -0.27882102 0 -5.2385244e-06 0 0)
(-2.3306217 -0.27869982 0 6.7132491e-06 0 0)
(-2.3316351 -0.27880773 0 -6.2860181e-06 0 0)
(-1.6523137 -0.73785564 0 -0.2720192 0 0)
(-3.060983 -0.34017896 0 -0.013263884 0 0)
(-2.503855 -0.31124681 0 -0.0077290182 0 0)
(-2.3794158 -0.28164015 0 -0.00042626363 0 0)
(-2.2012705 -0.27062535 0 -0.00015482048 0 0)
(-2.2461819 -0.27423173 0 -0.0001176456 0 0)
(-2.1827657 -0.26950927 0 -5.2165188e-05 0 0)
(-2.2271831 -0.27284144 0 -4.0635366e-05 0 0)
(-2.1818368 -0.26934141 0 1.5897395e-05 0 0)
(-2.2215856 -0.27244142 0 -2.5204597e-05 0 0)
(-2.1838673 -0.26949802 0 2.242384e-05 0 0)
(-2.2188759 -0.27224709 0 -2.2944082e-05 0 0)
(-2.1858324 -0.26965431 0 2.0918216e-05 0 0)
(-2.2168046 -0.27208867 0 -2.0464663e-05 0 0)
(-2.1876017 -0.26979432 0 1.8890897e-05 0 0)
(-2.2150235 -0.27195029 0 -1.8113082e-05 0 0)
(-2.1892001 -0.26992063 0 1.6934348e-05 0 0)
(-2.213458 -0.2718284 0 -1.6092648e-05 0 0)
(-2.1906367 -0.27003402 0 1.5141547e-05 0 0)
(-2.212071 -0.27172031 0 -1.4344036e-05 0 0)
(-2.1919235 -0.27013547 0 1.3536977e-05 0 0)
(-2.2108367 -0.27162409 0 -1.2815952e-05 0 0)
(-2.1930751 -0.27022615 0 1.211628e-05 0 0)
(-2.2097352 -0.2715382 0 -1.14763e-05 0 0)
(-2.1941062 -0.27030725 0 1.0865556e-05 0 0)
(-2.2087501 -0.27146138 0 -1.0302392e-05 0 0)
(-2.195031 -0.2703799 0 9.7689927e-06 0 0)
(-2.2078668 -0.27139253 0 -9.276159e-06 0 0)
(-2.1958622 -0.27044511 0 8.8114492e-06 0 0)
(-2.2070726 -0.27133066 0 -8.3823828e-06 0 0)
(-2.1966115 -0.2705038 0 7.9792888e-06 0 0)
(-2.2063561 -0.27127488 0 -7.6079749e-06 0 0)
(-2.1972895 -0.27055682 0 7.2605297e-06 0 0)
(-2.2057069 -0.27122439 0 -6.9416951e-06 0 0)
(-2.1979058 -0.27060492 0 6.6448342e-06 0 0)
(-2.2051156 -0.27117848 0 -6.3739728e-06 0 0)
(-2.1984691 -0.27064878 0 6.1234777e-06 0 0)
(-2.2045738 -0.27113649 0 -5.8968581e-06 0 0)
(-2.1989873 -0.27068902 0 5.6893279e-06 0 0)
(-2.2040737 -0.27109782 0 -5.504027e-06 0 0)
(-2.1994679 -0.27072623 0 5.3370696e-06 0 0)
(-2.2036083 -0.27106193 0 -5.1910357e-06 0 0)
(-2.1999177 -0.27076092 0 5.0630944e-06 0 0)
(-2.2031707 -0.27102832 0 -4.9589227e-06 0 0)
(-2.2003428 -0.2707936 0 4.8606267e-06 0 0)
(-2.2027531 -0.27099645 0 -4.8180712e-06 0 0)
(-2.2007454 -0.27082424 0 4.7883503e-06 0 0)
(-2.2023443 -0.27096425 0 -4.4705959e-06 0 0)
(-2.2011616 -0.27085021 0 6.0885033e-06 0 0)
(-2.2020801 -0.27094954 0 -5.7065387e-06 0 0)
(-1.627317 -0.71138834 0 -0.2548689 0 0)
(-2.6981223 -0.3235187 0 -0.014289189 0 0)
(-2.3374375 -0.30426586 0 -0.0084916121 0 0)
(-2.2459539 -0.27423191 0 -0.00058560571 0 0)
(-2.0834539 -0.2633588 0 -0.00024014334 0 0)
(-2.1174444 -0.26628523 0 -0.00013821945 0 0)
(-2.0595277 -0.26178117 0 -6.7907421e-05 0 0)
(-2.0994562 -0.26490481 0 -3.8759894e-05 0 0)
(-2.0580351 -0.26157467 0 1.102924e-05 0 0)
(-2.0940916 -0.26451351 0 -2.1688266e-05 0 0)
(-2.0597175 -0.26171506 0 1.9153617e-05 0 0)
(-2.0915702 -0.26432916 0 -1.9919112e-05 0 0)
(-2.0614724 -0.26186278 0 1.8033455e-05 0 0)
(-2.0896778 -0.26417891 0 -1.7796824e-05 0 0)
(-2.0630782 -0.26199593 0 1.6330072e-05 0 0)
(-2.0880547 -0.26404729 0 -1.5725144e-05 0 0)
(-2.064532 -0.2621161 0 1.4661435e-05 0 0)
(-2.0866281 -0.26393127 0 -1.3956246e-05 0 0)
(-2.065839 -0.26222399 0 1.3117792e-05 0 0)
(-2.0853643 -0.26382839 0 -1.2434006e-05 0 0)
(-2.0670098 -0.26232053 0 1.17304e-05 0 0)
(-2.0842398 -0.2637368 0 -1.1107335e-05 0 0)
(-2.0680575 -0.26240682 0 1.0500068e-05 0 0)
(-2.0832366 -0.26365505 0 -9.9455714e-06 0 0)
(-2.0689957 -0.26248401 0 9.4163655e-06 0 0)
(-2.0823394 -0.26358193 0 -8.9280133e-06 0 0)
(-2.0698371 -0.26255316 0 8.4660889e-06 0 0)
(-2.0815351 -0.26351638 0 -8.038623e-06 0 0)
(-2.0705933 -0.26261523 0 7.6362447e-06 0 0)
(-2.080812 -0.26345747 0 -7.2640715e-06 0 0)
(-2.071275 -0.26267112 0 6.9150407e-06 0 0)
(-2.0801597 -0.26340435 0 -6.5929596e-06 0 0)
(-2.0718919 -0.26272161 0 6.2920926e-06 0 0)
(-2.0795687 -0.26335626 0 -6.0155282e-06 0 0)
(-2.0724525 -0.26276743 0 5.7584387e-06 0 0)
(-2.0790306 -0.26331251 0 -5.5234794e-06 0 0)
(-2.0729649 -0.26280923 0 5.3065253e-06 0 0)
(-2.0785376 -0.26327248 0 -5.1099337e-06 0 0)
(-2.0734363 -0.2628476 0 4.9301838e-06 0 0)
(-2.0780826 -0.26323561 0 -4.7694281e-06 0 0)
(-2.0738733 -0.26288309 0 4.6248549e-06 0 0)
(-2.0776593 -0.26320136 0 -4.4981195e-06 0 0)
(-2.0742822 -0.2629162 0 4.3874078e-06 0 0)
(-2.0772614 -0.26316928 0 -4.2974972e-06 0 0)
(-2.0746687 -0.26294741 0 4.2101481e-06 0 0)
(-2.0768821 -0.26313886 0 -4.1795685e-06 0 0)
(-2.0750344 -0.2629767 0 4.1498659e-06 0 0)
(-2.0765091 -0.26310785 0 -3.8164167e-06 0 0)
(-2.0754034 -0.26300063 0 5.5249078e-06 0 0)
(-2.0762356 -0.26309195 0 -5.1790144e-06 0 0)
(-1.5954866 -0.66604994 0 -0.22471845 0 0)
(-2.3551731 -0.30733449 0 -0.015132419 0 0)
(-2.1831646 -0.29744761 0 -0.0089984206 0 0)
(-2.09941 -0.26566537 0 -0.00076222224 0 0)
(-1.9565457 -0.25542279 0 -0.00031406885 0 0)
(-1.9897537 -0.25821415 0 -0.00015768731 0 0)
(-1.9382535 -0.25398103 0 -8.1074359e-05 0 0)
(-1.9750605 -0.25695051 0 -3.6902721e-05 0 0)
(-1.9375014 -0.25379505 0 6.8668961e-06 0 0)
(-1.9703616 -0.25658517 0 -1.8491128e-05 0 0)
(-1.9390753 -0.25392798 0 1.6319657e-05 0 0)
(-1.9680881 -0.25641297 0 -1.7213495e-05 0 0)
(-1.9406731 -0.2540688 0 1.5491597e-05 0 0)
(-1.9663702 -0.256271 0 -1.5425287e-05 0 0)
(-1.9421365 -0.25419562 0 1.4061383e-05 0 0)
(-1.9648928 -0.25614599 0 -1.3606236e-05 0 0)
(-1.9434605 -0.25430992 0 1.2645575e-05 0 0)
(-1.963593 -0.25603567 0 -1.2061225e-05 0 0)
(-1.9446503 -0.25441251 0 1.1322667e-05 0 0)
(-1.9624412 -0.25593782 0 -1.073991e-05 0 0)
(-1.9457158 -0.25450431 0 1.012797e-05 0 0)
(-1.9614166 -0.25585071 0 -9.5919421e-06 0 0)
(-1.9466694 -0.25458636 0 9.0665587e-06 0 0)
(-1.9605025 -0.25577297 0 -8.5879928e-06 0 0)
(-1.9475233 -0.25465977 0 8.1310423e-06 0 0)
(-1.9596852 -0.25570342 0 -7.7091237e-06 0 0)
(-1.948289 -0.25472552 0 7.3105346e-06 0 0)
(-1.9589526 -0.25564108 0 -6.9411017e-06 0 0)
(-1.9489773 -0.25478457 0 6.5939548e-06 0 0)
(-1.958294 -0.25558503 0 -6.2722805e-06 0 0)
(-1.9495978 -0.25483774 0 5.971152e-06 0 0)
(-1.9576999 -0.25553448 0 -5.6927624e-06 0 0)
(-1.9501592 -0.25488579 0 5.4331622e-06 0 0)
(-1.9571618 -0.25548871 0 -5.1941024e-06 0 0)
(-1.9506695 -0.2549294 0 4.9722429e-06 0 0)
(-1.9566718 -0.25544705 0 -4.7691289e-06 0 0)
(-1.9511358 -0.2549692 0 4.581875e-06 0 0)
(-1.9562229 -0.25540893 0 -4.4119046e-06 0 0)
(-1.9515648 -0.25500576 0 4.2567351e-06 0 0)
(-1.9558088 -0.25537379 0 -4.1177175e-06 0 0)
(-1.9519624 -0.25503958 0 3.9929152e-06 0 0)
(-1.9554235 -0.25534115 0 -3.8832315e-06 0 0)
(-1.9523344 -0.25507115 0 3.7876895e-06 0 0)
(-1.9550616 -0.25531055 0 -3.710235e-06 0 0)
(-1.9526859 -0.25510094 0 3.6325805e-06 0 0)
(-1.9547168 -0.25528153 0 -3.6121733e-06 0 0)
(-1.9530184 -0.25512893 0 3.5815028e-06 0 0)
(-1.9543764 -0.25525174 0 -3.2379834e-06 0 0)
(-1.9533461 -0.2551511 0 4.9940041e-06 0 0)
(-1.9540999 -0.25523485 0 -4.6838205e-06 0 0)
(-1.5877839 -0.64348798 0 -0.20986194 0 0)
(-2.0517486 -0.2929723 0 -0.016410964 0 0)
(-2.0270744 -0.28690879 0 -0.0085538492 0 0)
(-1.9650847 -0.25995643 0 -0.0015849811 0 0)
(-1.8395723 -0.24822763 0 -0.00050188313 0 0)
(-1.8678853 -0.25028557 0 -0.00019228567 0 0)
(-1.8213852 -0.24622492 0 -9.6871764e-05 0 0)
(-1.8548942 -0.2490156 0 -3.5759662e-05 0 0)
(-1.8206757 -0.24601897 0 3.0083965e-06 0 0)
(-1.8505478 -0.2486627 0 -1.5618813e-05 0 0)
(-1.8220345 -0.2461397 0 1.3796696e-05 0 0)
(-1.8484449 -0.24849966 0 -1.4767566e-05 0 0)
(-1.823465 -0.24627294 0 1.3213066e-05 0 0)
(-1.8468734 -0.24836514 0 -1.3285618e-05 0 0)
(-1.8247936 -0.24639349 0 1.2020214e-05 0 0)
(-1.8455262 -0.24824643 0 -1.1697075e-05 0 0)
(-1.8259986 -0.24650212 0 1.0830256e-05 0 0)
(-1.8443415 -0.2481416 0 -1.0354462e-05 0 0)
(-1.8270814 -0.2465996 0 9.7059276e-06 0 0)
(-1.8432918 -0.24804861 0 -9.214272e-06 0 0)
(-1.8280512 -0.2466868 0 8.6848174e-06 0 0)
(-1.8423582 -0.24796584 0 -8.227299e-06 0 0)
(-1.8289191 -0.24676477 0 7.7755818e-06 0 0)
(-1.8415254 -0.24789195 0 -7.3654915e-06 0 0)
(-1.8296962 -0.24683451 0 6.9735394e-06 0 0)
(-1.8407808 -0.24782586 0 -6.6115157e-06 0 0)
(-1.8303932 -0.246897 0 6.2698966e-06 0 0)
(-1.8401135 -0.24776661 0 -5.9527724e-06 0 0)
(-1.8310197 -0.24695311 0 5.6553031e-06 0 0)
(-1.8395136 -0.24771333 0 -5.3791374e-06 0 0)
(-1.8315845 -0.24700366 0 5.1210921e-06 0 0)
(-1.8389725 -0.24766527 0 -4.8820688e-06 0 0)
(-1.8320955 -0.24704935 0 4.6595805e-06 0 0)
(-1.8384824 -0.24762173 0 -4.4543055e-06 0 0)
(-1.8325599 -0.24709083 0 4.2641238e-06 0 0)
(-1.8380362 -0.2475821 0 -4.0896881e-06 0 0)
(-1.8329844 -0.2471287 0 3.9291308e-06 0 0)
(-1.8376275 -0.24754582 0 -3.7831222e-06 0 0)
(-1.8333748 -0.24716349 0 3.6500316e-06 0 0)
(-1.8372505 -0.24751237 0 -3.5305623e-06 0 0)
(-1.8337367 -0.2471957 0 3.4234905e-06 0 0)
(-1.8368998 -0.24748127 0 -3.3291112e-06 0 0)
(-1.8340751 -0.24722578 0 3.2471343e-06 0 0)
(-1.8365704 -0.24745211 0 -3.180737e-06 0 0)
(-1.834395 -0.24725419 0 3.1118618e-06 0 0)
(-1.8362569 -0.24742446 0 -3.1001007e-06 0 0)
(-1.8346974 -0.24728091 0 3.0680883e-06 0 0)
(-1.8359465 -0.2473959 0 -2.7194792e-06 0 0)
(-1.8349885 -0.24730156 0 4.4864374e-06 0 0)
(-1.8356714 -0.24737822 0 -4.216689e-06 0 0)
(-1.5764612 -0.60363694 0 -0.18400431 0 0)
(-1.8107504 -0.27971315 0 -0.016968672 0 0)
(-1.8743306 -0.27418759 0 -0.0076995789 0 0)
(-1.828311 -0.25243932 0 -0.0020190662 0 0)
(-1.7222429 -0.240536 0 -0.00061542856 0 0)
(-1.7491344 -0.24227358 0 -0.00021314121 0 0)
(-1.7075426 -0.23842208 0 -0.00010644117 0 0)
(-1.7383446 -0.2410696 0 -3.323102e-05 0 0)
(-1.7072877 -0.23823322 0 7.4295691e-08 0 0)
(-1.7345 -0.24074047 0 -1.2832618e-05 0 0)
(-1.7085493 -0.23834784 0 1.1610223e-05 0 0)
(-1.7325968 -0.24058811 0 -1.2523964e-05 0 0)
(-1.7098491 -0.23847478 0 1.1173093e-05 0 0)
(-1.7311683 -0.2404611 0 -1.1344026e-05 0 0)
(-1.7110591 -0.23858949 0 1.0179385e-05 0 0)
(-1.7299422 -0.24034854 0 -9.9700162e-06 0 0)
(-1.7121564 -0.23869269 0 9.1904192e-06 0 0)
(-1.7288633 -0.24024903 0 -8.8117923e-06 0 0)
(-1.7131419 -0.23878524 0 8.2450164e-06 0 0)
(-1.7279072 -0.24016075 0 -7.83562e-06 0 0)
(-1.7140243 -0.23886803 0 7.3807265e-06 0 0)
(-1.7270568 -0.24008215 0 -6.9942157e-06 0 0)
(-1.7148139 -0.23894204 0 6.6090183e-06 0 0)
(-1.7262983 -0.240012 0 -6.2608682e-06 0 0)
(-1.715521 -0.23900826 0 5.9275902e-06 0 0)
(-1.7256203 -0.23994924 0 -5.6197366e-06 0 0)
(-1.7161552 -0.23906759 0 5.3295369e-06 0 0)
(-1.7250126 -0.23989297 0 -5.0597126e-06 0 0)
(-1.7167252 -0.23912088 0 4.8070778e-06 0 0)
(-1.7244664 -0.23984236 0 -4.5720556e-06 0 0)
(-1.7172391 -0.23916889 0 4.3528912e-06 0 0)
(-1.7239737 -0.2397967 0 -4.1494521e-06 0 0)
(-1.7177042 -0.2392123 0 3.9604535e-06 0 0)
(-1.7235274 -0.23975532 0 -3.7857112e-06 0 0)
(-1.7181268 -0.23925173 0 3.6241113e-06 0 0)
(-1.7231212 -0.23971765 0 -3.4755864e-06 0 0)
(-1.7185131 -0.23928773 0 3.3391095e-06 0 0)
(-1.7227491 -0.23968315 0 -3.2147404e-06 0 0)
(-1.7188684 -0.23932082 0 3.1015531e-06 0 0)
(-1.7224059 -0.23965132 0 -2.9997229e-06 0 0)
(-1.7191976 -0.23935147 0 2.9086114e-06 0 0)
(-1.7220868 -0.23962173 0 -2.82802e-06 0 0)
(-1.7195055 -0.2393801 0 2.7582222e-06 0 0)
(-1.7217871 -0.23959396 0 -2.7016836e-06 0 0)
(-1.7197965 -0.23940717 0 2.6408302e-06 0 0)
(-1.7215022 -0.23956763 0 -2.6363311e-06 0 0)
(-1.7200716 -0.23943266 0 2.602993e-06 0 0)
(-1.7212192 -0.23954031 0 -2.2536498e-06 0 0)
(-1.7203303 -0.23945197 0 4.0002416e-06 0 0)
(-1.7209489 -0.23952201 0 -3.7778939e-06 0 0)
(-1.5720443 -0.57867551 0 -0.16794411 0 0)
(-1.6341909 -0.26443346 0 -0.015659934 0 0)
(-1.7244047 -0.26673809 0 -0.0091523834 0 0)
(-1.6987836 -0.24359074 0 -0.0020176691 0 0)
(-1.6099027 -0.23259513 0 -0.00063997655 0 0)
(-1.6349289 -0.23422215 0 -0.00021194289 0 0)
(-1.5975391 -0.2306006 0 -0.00010770775 0 0)
(-1.6257421 -0.23312304 0 -2.8479874e-05 0 0)
(-1.5975271 -0.23044347 0 -1.7889442e-06 0 0)
(-1.6222824 -0.23282066 0 -1.0043889e-05 0 0)
(-1.5986699 -0.23055361 0 9.7392585e-06 0 0)
(-1.6205482 -0.23267871 0 -1.0452031e-05 0 0)
(-1.5998446 -0.23067462 0 9.3441869e-06 0 0)
(-1.6192479 -0.23255892 0 -9.5758764e-06 0 0)
(-1.600945 -0.23078373 0 8.5150145e-06 0 0)
(-1.6181323 -0.2324523 0 -8.4029809e-06 0 0)
(-1.6019433 -0.2308817 0 7.7050366e-06 0 0)
(-1.6171504 -0.23235794 0 -7.4134562e-06 0 0)
(-1.6028396 -0.2309695 0 6.9212095e-06 0 0)
(-1.6162801 -0.23227419 0 -6.5862811e-06 0 0)
(-1.603642 -0.23104802 0 6.1989659e-06 0 0)
(-1.615506 -0.23219963 0 -5.8768671e-06 0 0)
(-1.60436 -0.23111823 0 5.5518859e-06 0 0)
(-1.6148157 -0.23213308 0 -5.2599314e-06 0 0)
(-1.6050029 -0.23118104 0 4.979751e-06 0 0)
(-1.6141986 -0.23207353 0 -4.7210353e-06 0 0)
(-1.6055796 -0.23123733 0 4.4773636e-06 0 0)
(-1.6136455 -0.23202013 0 -4.2504369e-06 0 0)
(-1.606098 -0.2312879 0 4.0383705e-06 0 0)
(-1.6131485 -0.2319721 0 -3.8406557e-06 0 0)
(-1.6065654 -0.23133346 0 3.656672e-06 0 0)
(-1.6127001 -0.23192875 0 -3.4854939e-06 0 0)
(-1.6069883 -0.23137467 0 3.3267969e-06 0 0)
(-1.6122941 -0.23188947 0 -3.1797308e-06 0 0)
(-1.6073727 -0.23141211 0 3.0439895e-06 0 0)
(-1.6119244 -0.23185368 0 -2.9189458e-06 0 0)
(-1.607724 -0.23144631 0 2.8042501e-06 0 0)
(-1.6115859 -0.2318209 0 -2.6994842e-06 0 0)
(-1.6080471 -0.23147776 0 2.6042913e-06 0 0)
(-1.6112737 -0.23179065 0 -2.5184301e-06 0 0)
(-1.6083466 -0.23150689 0 2.4417313e-06 0 0)
(-1.6109834 -0.2317625 0 -2.3736093e-06 0 0)
(-1.6086265 -0.23153413 0 2.3147861e-06 0 0)
(-1.6107109 -0.23173608 0 -2.2670827e-06 0 0)
(-1.6088911 -0.23155989 0 2.2136218e-06 0 0)
(-1.610452 -0.23171104 0 -2.2151446e-06 0 0)
(-1.6091413 -0.2315842 0 2.1807957e-06 0 0)
(-1.6101943 -0.23168496 0 -1.8345877e-06 0 0)
(-1.6093711 -0.23160233 0 3.5341124e-06 0 0)
(-1.6099313 -0.23166619 0 -3.367318e-06 0 0)
(-1.5637792 -0.55330311 0 -0.15317734 0 0)
(-1.4832008 -0.25321222 0 -0.015688521 0 0)
(-1.5798517 -0.25598341 0 -0.0091439123 0 0)
(-1.5816803 -0.2340598 0 -0.0015310818 0 0)
(-1.5068816 -0.22470195 0 -0.00057058764 0 0)
(-1.5265133 -0.22616969 0 -0.00018151871 0 0)
(-1.4920194 -0.22277631 0 -9.8657688e-05 0 0)
(-1.5173311 -0.22517978 0 -2.0356977e-05 0 0)
(-1.4915241 -0.22265159 0 -2.2053211e-06 0 0)
(-1.5139314 -0.22490372 0 -7.057956e-06 0 0)
(-1.4924276 -0.22275732 0 8.2176307e-06 0 0)
(-1.5122967 -0.22477141 0 -8.5005634e-06 0 0)
(-1.4934642 -0.22287252 0 7.712126e-06 0 0)
(-1.511104 -0.22465851 0 -7.9537796e-06 0 0)
(-1.4944597 -0.22297623 0 7.0077018e-06 0 0)
(-1.5100885 -0.22455764 0 -6.9746649e-06 0 0)
(-1.4953667 -0.22306918 0 6.3554751e-06 0 0)
(-1.5091956 -0.22446825 0 -6.1411023e-06 0 0)
(-1.4961811 -0.22315241 0 5.7175362e-06 0 0)
(-1.5084043 -0.22438889 0 -5.4500164e-06 0 0)
(-1.4969101 -0.22322683 0 5.1242702e-06 0 0)
(-1.5077004 -0.22431822 0 -4.8607596e-06 0 0)
(-1.4975623 -0.22329336 0 4.5904886e-06 0 0)
(-1.5070727 -0.22425514 0 -4.3496979e-06 0 0)
(-1.4981464 -0.22335288 0 4.1177268e-06 0 0)
(-1.5065116 -0.22419869 0 -3.9037517e-06 0 0)
(-1.4986704 -0.22340624 0 3.7023173e-06 0 0)
(-1.5060088 -0.22414806 0 -3.5144442e-06 0 0)
(-1.4991414 -0.22345419 0 3.3392043e-06 0 0)
(-1.5055568 -0.22410251 0 -3.1754483e-06 0 0)
(-1.4995661 -0.22349739 0 3.023401e-06 0 0)
(-1.5051492 -0.2240614 0 -2.8815834e-06 0 0)
(-1.4999504 -0.22353648 0 2.7503938e-06 0 0)
(-1.50478 -0.22402413 0 -2.6285112e-06 0 0)
(-1.5002997 -0.223572 0 2.5162428e-06 0 0)
(-1.504444 -0.22399018 0 -2.4125611e-06 0 0)
(-1.5006189 -0.22360446 0 2.317634e-06 0 0)
(-1.5041363 -0.22395905 0 -2.2306968e-06 0 0)
(-1.5009125 -0.22363432 0 2.1518299e-06 0 0)
(-1.5038525 -0.22393032 0 -2.0804854e-06 0 0)
(-1.5011846 -0.22366199 0 2.0168509e-06 0 0)
(-1.5035886 -0.22390358 0 -1.9600584e-06 0 0)
(-1.501439 -0.22368787 0 1.9111652e-06 0 0)
(-1.503341 -0.22387847 0 -1.8714285e-06 0 0)
(-1.5016794 -0.22371237 0 1.824835e-06 0 0)
(-1.503106 -0.22385466 0 -1.8312744e-06 0 0)
(-1.5019068 -0.22373552 0 1.7964375e-06 0 0)
(-1.5028716 -0.22382982 0 -1.4568074e-06 0 0)
(-1.5021108 -0.22375261 0 3.0866464e-06 0 0)
(-1.5026179 -0.22381072 0 -2.9841773e-06 0 0)
(-1.5655781 -0.51633247 0 -0.12985675 0 0)
(-1.3640945 -0.24157332 0 -0.014653243 0 0)
(-1.4505395 -0.24563249 0 -0.0090854696 0 0)
(-1.4731237 -0.22509255 0 -0.001168856 0 0)
(-1.4068327 -0.21680646 0 -0.00050017144 0 0)
(-1.422361 -0.2181563 0 -0.00014709207 0 0)
(-1.3902216 -0.21495394 0 -8.6996196e-05 0 0)
(-1.4128508 -0.21724569 0 -1.1479784e-05 0 0)
(-1.3891987 -0.21486014 0 -2.0257601e-06 0 0)
(-1.4094152 -0.21699114 0 -4.1157524e-06 0 0)
(-1.3898292 -0.21495994 0 6.9354571e-06 0 0)
(-1.4078374 -0.21686667 0 -6.6753269e-06 0 0)
(-1.3907193 -0.21506886 0 6.2473001e-06 0 0)
(-1.4067322 -0.21675998 0 -6.4615619e-06 0 0)
(-1.3916123 -0.21516717 0 5.6383972e-06 0 0)
(-1.4058054 -0.21666455 0 -5.668354e-06 0 0)
(-1.3924335 -0.21525522 0 5.1255184e-06 0 0)
(-1.4049937 -0.21657994 0 -4.9795566e-06 0 0)
(-1.3931722 -0.21533403 0 4.6195827e-06 0 0)
(-1.4042749 -0.21650481 0 -4.4132314e-06 0 0)
(-1.3938335 -0.21540448 0 4.1437548e-06 0 0)
(-1.4036356 -0.21643789 0 -3.9337173e-06 0 0)
(-1.3944253 -0.21546747 0 3.7132897e-06 0 0)
(-1.4030655 -0.21637815 0 -3.5192488e-06 0 0)
(-1.3949554 -0.21552384 0 3.3311688e-06 0 0)
(-1.4025559 -0.21632469 0 -3.1580761e-06 0 0)
(-1.3954308 -0.21557437 0 2.9950921e-06 0 0)
(-1.4020992 -0.21627673 0 -2.842899e-06 0 0)
(-1.3958583 -0.21561978 0 2.7011855e-06 0 0)
(-1.4016888 -0.21623358 0 -2.5684489e-06 0 0)
(-1.3962437 -0.21566071 0 2.4454777e-06 0 0)
(-1.4013187 -0.21619462 0 -2.3304746e-06 0 0)
(-1.3965925 -0.21569775 0 2.2243297e-06 0 0)
(-1.4009834 -0.2161593 0 -2.1254429e-06 0 0)
(-1.3969096 -0.21573142 0 2.0345456e-06 0 0)
(-1.4006783 -0.21612711 0 -1.9503666e-06 0 0)
(-1.3971993 -0.2157622 0 1.873436e-06 0 0)
(-1.4003989 -0.21609759 0 -1.8027717e-06 0 0)
(-1.3974658 -0.21579052 0 1.7387633e-06 0 0)
(-1.4001412 -0.21607033 0 -1.6806642e-06 0 0)
(-1.3977128 -0.21581678 0 1.6289107e-06 0 0)
(-1.3999016 -0.21604495 0 -1.5824543e-06 0 0)
(-1.3979436 -0.21584134 0 1.5425771e-06 0 0)
(-1.3996769 -0.2160211 0 -1.5100632e-06 0 0)