/*--------------------------------*- C++ -*----------------------------------*\
| =========                 |                                                 |
| \\      /  F ield         | OpenFOAM: The Open Source CFD Toolbox           |
|  \\    /   O peration     | Version:  2312                                  |
|   \\  /    A nd           | Website:  www.openfoam.com                      |
|    \\/     M anipulation  |                                                 |
\*---------------------------------------------------------------------------*/
FoamFile
{
    version     2.0;
    format      ascii;
    arch        "LSB;label=32;scalar=64";
    class       volScalarField;
    location    "4";
    object      T;
}
// * * * * * * * * * * * * * * * * * * * * * * * * * * * * * * * * * * * * * //

dimensions      [0 0 0 1 0 0 0];

internalField   nonuniform List<scalar> 
4000
(
329.776
328.57777
328.38966
328.31104
328.25496
328.20251
328.16176
328.11868
328.08417
328.04555
328.01395
327.97798
327.94805
327.91386
327.88499
327.85206
327.82391
327.79193
327.7643
327.73303
327.7058
327.67509
327.64817
327.61791
327.59123
327.56134
327.53487
327.50527
327.47897
327.44962
327.42347
327.39432
327.36831
327.33933
327.31345
327.28459
327.25883
327.23007
327.20444
327.17575
327.15025
327.1216
327.09623
327.0676
327.04238
327.01371
326.9887
326.95989
326.93527
326.90569
331.85117
329.79123
329.28586
329.10218
328.98627
328.88123
328.81114
328.73417
328.6828
328.61918
328.57653
328.52087
328.48322
328.43288
328.39842
328.35187
328.3196
328.27584
328.24514
328.20354
328.17402
328.13411
328.1055
328.06694
328.03908
328.0016
327.97435
327.93777
327.91105
327.8752
327.84893
327.81368
327.78783
327.75307
327.7276
327.69323
327.66814
327.63406
327.60934
327.57547
327.55113
327.5174
327.49346
327.45975
327.43628
327.40246
327.37962
327.34537
327.3237
327.28725
333.17216
330.96701
330.17533
329.88936
329.71469
329.55782
329.45855
329.34809
329.27987
329.19152
329.13778
329.06262
329.0172
328.95086
328.91077
328.8507
328.81426
328.75884
328.72502
328.67317
328.64132
328.59227
328.56195
328.51514
328.48606
328.44106
328.413
328.36948
328.3423
328.29999
328.27358
328.23227
328.20655
328.16604
328.14098
328.10111
328.07667
328.0373
328.01347
327.97446
327.95126
327.91246
327.88993
327.85119
327.82944
327.7905
327.76979
327.73015
327.71138
327.66835
334.06846
332.07014
331.04712
330.66664
330.43606
330.22925
330.10145
329.95841
329.8735
329.76099
329.6962
329.60194
329.54873
329.4667
329.42093
329.34759
329.30691
329.24003
329.20303
329.1411
329.10686
329.04881
329.01672
328.96179
328.93143
328.87902
328.8501
328.79974
328.77206
328.72338
328.69678
328.64947
328.62386
328.57767
328.55296
328.50767
328.48384
328.43923
328.41626
328.37215
328.35006
328.30625
328.28511
328.24136
328.22131
328.1773
328.15868
328.11372
328.09774
328.04855
334.70431
333.07004
331.88697
331.42586
331.14469
330.89133
330.73637
330.56234
330.4612
330.32551
330.24982
330.13715
330.07619
329.97897
329.92749
329.84129
329.79634
329.71831
329.67807
329.60632
329.56963
329.50282
329.4689
329.40603
329.37435
329.31467
329.28485
329.22778
329.19955
329.14462
329.11779
329.06461
329.03904
328.98728
328.96288
328.91226
328.88899
328.83924
328.81708
328.76795
328.74693
328.69818
328.67837
328.62971
328.6113
328.5623
328.54571
328.49553
328.48219
328.42734
335.16964
333.94508
332.67963
332.15731
331.83365
331.53887
331.35909
331.15642
331.03995
330.88248
330.7963
330.66616
330.59763
330.48594
330.42884
330.3303
330.2811
330.19236
330.14887
330.06767
330.0285
329.95321
329.91743
329.84688
329.81382
329.74711
329.71633
329.65276
329.62392
329.56292
329.5358
329.47689
329.45132
329.39413
329.37
329.31417
329.29141
329.23663
329.21523
329.16121
329.1412
329.08763
329.06909
329.01562
328.99878
328.94492
328.93026
328.87504
328.8641
328.80414
335.51802
334.68381
333.41082
332.85061
332.49525
332.16596
331.9648
331.73668
331.60627
331.42891
331.33292
331.18661
331.11087
330.98563
330.92309
330.81294
330.75957
330.6607
330.61401
330.5238
330.48217
330.39879
330.36113
330.28323
330.24878
330.17532
330.14354
330.07371
330.04424
329.97737
329.94993
329.8855
329.85988
329.79743
329.77352
329.71264
329.69035
329.6307
329.61
329.55123
329.53216
329.47391
329.45658
329.39846
329.38309
329.32454
329.31167
329.25164
329.24284
329.1783
335.78332
335.28466
334.06915
333.49576
333.12163
332.76637
332.54833
332.29877
332.15637
331.96152
331.85673
331.69585
331.61347
331.47584
331.4082
331.28733
331.23
331.12169
331.0719
330.97328
330.92923
330.83825
330.79874
330.71389
330.67805
330.59818
330.56541
330.48962
330.45949
330.38704
330.35923
330.28952
330.26382
330.19633
330.17259
330.10688
330.085
330.02067
330.00062
329.93727
329.91909
329.85634
329.84013
329.77753
329.76354
329.7005
329.68929
329.62472
329.61775
329.54916
335.98872
335.75512
334.64719
334.08419
333.70541
333.33389
333.10443
332.8382
332.68631
332.47683
332.3646
332.19108
332.10285
331.95425
331.88199
331.75147
331.69048
331.57357
331.52089
331.41452
331.36821
331.27019
331.2289
331.13759
331.1004
331.01454
330.98079
330.89941
330.86862
330.7909
330.76273
330.68802
330.66221
330.58995
330.56634
330.49603
330.47453
330.40573
330.38628
330.31858
330.30121
330.23417
330.219
330.15215
330.13943
330.07214
330.06241
329.99364
329.98818
329.91603
336.15028
336.10902
335.14202
334.60958
334.24029
333.86285
333.6281
333.35056
333.19218
332.97134
332.85336
332.66943
332.57639
332.41841
332.34221
332.20325
332.13905
332.01451
331.95924
331.84592
331.79753
331.69312
331.6502
331.55297
331.51454
331.42317
331.3885
331.30193
331.27052
331.1879
331.15937
331.07999
331.05408
330.97734
330.95385
330.87922
330.85805
330.78506
330.76615
330.69435
330.67773
330.60666
330.59243
330.5216
330.51001
330.43877
330.43033
330.35772
330.35346
330.27819
336.27975
336.36451
335.55498
335.06855
334.7216
334.34846
334.11489
333.83176
333.67026
333.44167
333.31991
333.12806
333.03145
332.86592
332.78658
332.64058
332.57373
332.44265
332.38519
332.2658
332.21562
332.10555
332.06121
331.95869
331.91915
331.82279
331.78731
331.69603
331.66406
331.57696
331.54811
331.46444
331.43843
331.35756
331.33418
331.25556
331.2347
331.15781
331.1394
331.06379
331.04785
330.97303
330.95966
330.88513
330.87455
330.79968
330.79234
330.71628
330.71293
330.63494
336.38569
336.54139
335.89116
335.46077
335.14659
334.7872
334.56118
334.27827
334.11725
333.8847
333.76139
333.56426
333.46553
333.2944
333.21292
333.06137
332.99257
332.85615
332.79698
332.6725
332.62089
332.50598
332.46047
332.35335
332.3129
332.21216
332.176
332.08053
332.0481
331.95698
331.92788
331.84033
331.81427
331.72964
331.7064
331.62412
331.60356
331.52311
331.50517
331.42607
331.41075
331.33251
331.3199
331.242
331.2323
331.15416
331.14772
331.06863
331.06593
330.98559
336.47423
336.65906
336.15847
335.78875
335.51464
335.17706
334.96445
334.68734
334.53043
334.29777
334.17524
333.9756
333.87634
333.70168
333.61916
333.46367
333.3937
333.25322
333.19293
333.0644
333.0118
332.89293
332.84659
332.73561
332.69449
332.59001
332.55336
332.45426
332.42152
332.32687
332.29762
332.20665
332.18059
332.09263
332.06955
331.98401
331.96375
331.88012
331.86262
331.78038
331.76563
331.68431
331.67238
331.59148
331.58253
331.5015
331.49579
331.41407
331.41181
331.32944
336.54994
336.73508
336.3665
336.05729
335.82722
335.51764
335.3234
335.05715
334.90781
334.67877
334.55939
334.36002
334.26187
334.0858
334.00344
333.84567
333.77542
333.63221
333.57147
333.43999
333.3869
333.26499
333.2182
333.10415
333.06267
332.95514
332.91822
332.8161
332.78321
332.68559
332.65631
332.56241
332.53644
332.44559
332.42271
332.33434
332.31441
332.22797
332.2109
332.12592
332.11169
332.02768
332.01635
331.93282
331.9245
331.84099
331.83583
331.7519
331.74992
331.66582
336.6159
336.78386
336.52553
336.27289
336.08769
335.81011
335.63802
335.38691
335.24825
335.02625
334.91231
334.71587
334.62052
334.44513
334.36417
334.20581
334.13621
333.99165
333.93116
333.79788
333.74485
333.62086
333.57405
333.45777
333.41625
333.30639
333.26947
333.16497
333.13213
333.03211
333.00295
332.90664
332.88086
332.78761
332.76501
332.67425
332.65467
332.56587
332.54923
332.4619
332.44817
332.36186
332.35106
332.26532
332.25752
332.17193
332.16719
332.08145
332.07963
331.9941
336.67441
336.81655
336.64557
336.44299
336.30085
336.05707
335.90957
335.67689
335.55145
335.33953
335.23309
335.04207
334.95111
334.77844
334.70011
334.5428
334.4748
334.33026
334.27077
334.13685
334.08446
333.95938
333.91301
333.79535
333.75417
333.64272
333.6061
333.49988
333.46732
333.36548
333.33662
333.23844
333.21299
333.11784
333.0956
333.00292
332.98375
332.89302
332.87682
332.78759
332.77433
332.68615
332.67582
332.58828
332.58091
332.49366
332.48922
332.40207
332.40031
332.31365
336.72692
336.84089
336.73574
336.57537
336.47246
336.26228
336.14039
335.92837
335.81805
335.61864
335.52147
335.33807
335.25298
335.08488
335.01037
334.85569
334.79024
334.64705
334.58932
334.45588
334.40474
334.27956
334.23412
334.11592
334.07547
333.9632
333.92717
333.81991
333.78788
333.68485
333.65647
333.55699
333.53201
333.43548
333.41371
333.31959
333.30089
333.2087
333.19297
333.10227
333.08947
332.99985
332.98996
332.90105
332.89403
332.80554
332.80132
332.71313
332.71139
332.62388
336.77452
336.86185
336.80388
336.67752
336.60871
336.43028
336.33372
336.14348
336.04943
335.86439
335.77786
335.60393
335.52597
335.3641
335.29449
335.14388
335.08188
334.94129
334.88606
334.75419
334.70491
334.58058
334.53656
334.41869
334.37936
334.26702
334.23192
334.1243
334.09306
333.98945
333.96177
333.86155
333.8372
333.73981
333.71862
333.62357
333.60541
333.51224
333.49702
333.40531
333.39298
333.30236
333.29286
333.20302
333.1963
333.10699
333.10292
333.01407
333.01232
332.92425
336.81789
336.88214
336.85635
336.75625
336.71576
336.56606
336.49345
336.32508
336.24774
336.07821
336.00328
335.84023
335.77041
335.61618
335.5524
335.40716
335.34942
335.21259
335.16053
335.03127
334.98443
334.86185
334.81975
334.70301
334.66522
334.55355
334.5197
334.4124
334.38221
334.27865
334.25187
334.15149
334.12793
334.03022
334.00974
333.91425
333.89672
333.80304
333.78838
333.69612
333.68427
333.5931
333.58399
333.49364
333.48719
333.39745
333.3935
333.30435
333.30258
333.21426
336.85757
336.90296
336.89802
336.8174
336.7994
336.67469
336.62382
336.47653
336.41562
336.26213
336.19927
336.04809
335.98714
335.84165
335.78445
335.64567
335.59289
335.46083
335.41259
335.28687
335.243
335.12304
335.0833
334.96847
334.9326
334.8223
334.79005
334.6837
334.65484
334.55192
334.52627
334.42628
334.4037
334.30619
334.28654
334.19112
334.17431
334.08059
334.06655
333.9742
333.96285
333.87158
333.86285
333.77241
333.76621
333.67646
333.6726
333.58351
333.58173
333.49346
336.89392
336.92452
336.93243
336.86571
336.86479
336.76106
336.72915
336.60146
336.55613
336.4186
336.36783
336.22907
336.1774
336.04146
335.99139
335.85993
335.81267
335.68626
335.64235
335.52099
335.48057
335.364
335.32705
335.21485
335.18126
335.07301
335.04264
334.93788
334.9106
334.8089
334.78459
334.68554
334.66409
334.5673
334.54863
334.45375
334.43776
334.34448
334.33111
334.23912
334.22832
334.13736
334.12904
334.03893
334.03298
333.94358
333.93983
333.85113
333.84936
333.76145
336.92726
336.94656
336.96202
336.90488
336.9163
336.82963
336.81363
336.7036
336.67251
336.55034
336.51131
336.38509
336.34281
336.2169
336.17428
336.05079
336.00946
335.88939
335.85023
335.73394
335.69736
335.58486
335.55105
335.44214
335.41115
335.30555
335.27735
335.17475
335.1493
335.04936
335.0266
334.929
334.90885
334.81328
334.7957
334.70185
334.68678
334.59437
334.58176
334.49056
334.48034
334.39012
334.38223
334.29283
334.28715
334.19848
334.19485
334.10688
334.10513
334.01789
336.95788
336.96861
336.98833
336.93763
336.95748
336.88427
336.88114
336.78654
336.76807
336.66025
336.63226
336.51833
336.48527
336.36956
336.33449
336.21938
336.18422
336.07101
336.03689
335.92623
335.89382
335.78594
335.75559
335.65051
335.6224
335.52
335.49422
335.39431
335.3709
335.27324
335.25219
335.15653
335.13785
335.04394
335.02759
334.9352
334.92115
334.83006
334.81827
334.72827
334.71869
334.6296
334.62217
334.53387
334.52848
334.44089
334.4374
334.35047
334.34877
334.26252
336.986
336.99021
337.01229
336.96586
336.99112
336.92825
336.93513
336.85366
336.846
336.75123
336.7333
336.63111
336.60684
336.50124
336.47364
336.36708
336.33817
336.23215
336.20326
336.09863
336.07059
335.96781
335.94113
335.84037
335.81535
335.71663
335.69348
335.59672
335.57553
335.48059
335.46143
335.36816
335.35106
335.25927
335.24424
335.15375
335.14079
335.05142
335.04052
334.95211
334.94322
334.85564
334.84871
334.76186
334.75679
334.67061
334.66729
334.58173
334.5801
334.49512
337.01185
337.01102
337.03443
336.99087
337.01928
336.96419
336.97852
336.90796
336.90925
336.8261
336.81707
336.72583
336.70972
336.61391
336.59347
336.49544
336.4727
336.37403
336.35041
336.2521
336.22855
336.1312
336.10834
336.01227
335.99051
335.89586
335.87548
335.78228
335.76345
335.67165
335.65451
335.56401
335.54862
335.45932
335.44573
335.3575
335.34573
335.25845
335.2485
335.16205
335.1539
335.06817
335.06178
334.97671
334.972
334.88753
334.88443
334.80051
334.79897
334.71557
337.03564
337.03078
337.055
337.01349
337.04344
336.99413
337.01373
336.95206
336.9605
336.88745
336.88609
336.80484
336.79611
336.70956
336.69585
336.60613
336.58935
336.49803
336.47961
336.38776
336.3687
336.27701
336.25803
336.16694
336.14853
336.05826
336.04076
335.95145
335.9351
335.84677
335.83174
335.74437
335.73078
335.64432
335.63224
335.54662
335.53611
335.45124
335.44231
335.35813
335.35077
335.26721
335.2614
335.1784
335.17409
335.09163
335.08877
335.00678
335.00535
334.9238
337.05753
337.04938
337.07413
337.0342
337.06463
337.01958
337.0427
336.98814
337.00209
336.93766
336.94269
336.87038
336.86815
336.7902
336.78266
336.7009
336.68974
336.60563
336.59222
336.50683
336.49219
336.40628
336.39117
336.30523
336.2902
336.20455
336.18998
336.10481
336.091
336.00642
335.99358
335.90962
335.8979
335.81457
335.80407
335.72135
335.71214
335.62999
335.62212
335.54051
335.53398
335.45286
335.44767
335.36703
335.36315
335.28295
335.28036
335.20055
335.19926
335.11981
337.07771
337.06678
337.09188
337.05329
337.08352
337.04166
337.06691
337.01797
337.03599
336.97878
336.98899
336.92455
336.92789
336.8578
336.85576
336.78149
336.77551
336.69834
336.68967
336.61064
336.60027
336.52013
336.50881
336.42812
336.41642
336.33553
336.3239
336.24307
336.23182
336.1512
336.14057
336.06027
336.05044
335.97049
335.9616
335.88204
335.87417
335.795
335.78821
335.70942
335.70376
335.62534
335.6208
335.54274
335.53933
335.46162
335.45933
335.38194
335.38079
335.30368
337.0963
337.08298
337.10828
337.07093
337.10055
337.06112
337.08748
337.04296
337.06381
337.01259
337.02683
336.96921
336.9772
336.91417
336.91694
336.8496
336.8483
336.77772
336.77343
336.70056
336.69421
336.61978
336.61209
336.53664
336.5282
336.45214
336.44339
336.36701
336.35829
336.28179
336.27337
336.19689
336.18897
336.1126
336.10533
336.02913
336.02262
335.94662
335.94096
335.86519
335.86042
335.7849
335.78104
335.70578
335.70285
335.62785
335.62587
335.5511
335.5501
335.47555
337.11341
337.09802
337.12337
337.0872
337.11599
337.07848
337.10521
337.06417
337.08685
337.04055
337.05782
337.00602
337.01779
336.961
336.96787
336.90685
336.90968
336.84527
336.84496
336.77797
336.77534
336.70644
336.70218
336.63191
336.62657
336.55534
336.54937
336.47749
336.47124
336.39895
336.3927
336.32016
336.31413
336.24147
336.23582
336.16313
336.15799
336.08533
336.08079
336.00822
336.00435
335.9319
335.92874
335.85645
335.85403
335.78189
335.78025
335.70827
335.70744
335.63562
337.12916
337.11194
337.13716
337.10217
337.12999
337.09409
337.12068
337.0824
337.10613
337.06385
337.08327
337.03642
337.05112
336.99982
337.01008
336.95476
336.96114
336.90243
336.90565
336.8442
336.84496
336.78137
336.78027
336.71505
336.71262
336.64615
336.64282
336.57544
336.57155
336.5035
336.49935
336.43082
336.42663
336.35777
336.3537
336.28463
336.28084
336.21164
336.20822
336.13897
336.136
336.06676
336.0643
335.99511
335.9932
335.92409
335.92278
335.85374
335.85308
335.78415
337.14362
337.12479
337.14969
337.11584
337.14266
337.10816
337.13428
337.09824
337.12242
337.08342
337.10427
337.06158
337.0785
337.03195
337.04493
336.9947
337.00408
336.95057
336.95685
336.90057
336.90433
336.84578
336.84755
336.78718
336.78743
336.72561
336.72474
336.66179
336.66013
336.59631
336.59415
336.52965
336.52721
336.4622
336.45966
336.39428
336.39178
336.32613
336.3238
336.25797
336.25588
336.18995
336.18818
336.1222
336.12081
336.05481
336.05384
335.98787
335.98737
335.92145
337.15683
337.13657
337.16099
337.12825
337.15405
337.12083
337.14628
337.11211
337.1363
337.10001
337.12169
337.0825
337.10099
337.05855
337.07365
337.02792
337.03974
336.99093
336.99981
336.94829
336.95468
336.90085
336.90518
336.84942
336.85209
336.79475
336.79614
336.7375
336.73791
336.67824
336.67795
336.61744
336.61666
336.5555
336.55441
336.49273
336.49149
336.42942
336.42814
336.36577
336.36455
336.30198
336.30089
336.23819
336.2373
336.17451
336.17387
336.11104
336.11071
336.04788
337.16883
337.14729
337.17108
337.13942
337.1642
337.13219
337.15686
337.1243
337.14819
337.11417
337.13623
337.09998
337.11951
337.0806
337.09726
337.05548
337.06923
337.02465
337.03568
336.98851
336.99713
336.94769
336.95423
336.90283
336.90765
336.85458
336.858
336.80353
336.80582
336.75019
336.75162
336.69503
336.6958
336.63843
336.63871
336.58071
336.58065
336.52215
336.52187
336.46299
336.46259
336.40341
336.40297
336.34358
336.34318
336.28364
336.28333
336.22369
336.22353
336.16386
337.1796
337.15692
337.17996
337.14935
337.17314
337.14231
337.16613
337.13502
337.1584
337.12632
337.1484
337.11466
337.13478
337.0989
337.11665
337.07834
337.09355
337.05273
337.06547
337.02226
337.03272
336.98732
336.99576
336.94842
336.95511
336.90607
336.91128
336.86079
336.86477
336.81304
336.81602
336.76325
336.76541
336.71177
336.7133
336.65893
336.65996
336.60501
336.60566
336.55024
336.55061
336.49482
336.495
336.43893
336.43899
336.38272
336.38271
336.3263
336.32628
336.2698
337.18906
337.16543
337.18762
337.15806
337.1809
337.15123
337.1742
337.14443
337.16718
337.13678
337.15864
337.12704
337.1474
337.11414
337.13257
337.09728
337.11355
337.07607
337.09012
337.05047
337.06241
337.02071
337.03071
336.98713
336.9954
336.95015
336.9569
336.91018
336.91563
336.86763
336.87199
336.82289
336.82632
336.77628
336.77894
336.72812
336.73014
336.67867
336.68017
336.62816
336.62925
336.57681
336.57757
336.52479
336.52528
336.47226
336.47254
336.41934
336.41947
336.36617
337.1971
337.17275
337.19409
337.16558
337.18751
337.159
337.18113
337.15262
337.17467
337.14579
337.16723
337.13752
337.15784
337.12684
337.14563
337.11298
337.12993
337.09541
337.11042
337.07396
337.08704
337.04869
337.05994
337.01983
337.0294
336.98767
336.99572
336.95254
336.95925
336.91478
336.92033
336.87474
336.87928
336.83272
336.83638
336.78899
336.7919
336.74381
336.74608
336.69741
336.69914
336.64999
336.65127
336.60174
336.60262
336.55281
336.55336
336.50334
336.5036
336.45346
337.20355
337.17882
337.19935
337.17192
337.19302
337.16566
337.18699
337.15971
337.18102
337.15354
337.17444
337.14639
337.16647
337.13745
337.15632
337.12598
337.14332
337.11141
337.12705
337.09345
337.10735
337.07205
337.08425
337.04731
337.0579
337.01943
337.02853
336.98865
336.99641
336.95527
336.96183
336.91956
336.92504
336.8818
336.88633
336.84223
336.84592
336.80109
336.80405
336.75861
336.76092
336.71497
336.71671
336.67035
336.67159
336.62492
336.62571
336.57881
336.57919
336.53215
337.20829
337.18364
337.20345
337.17715
337.19748
337.17129
337.19184
337.16576
337.18633
337.16015
337.18045
337.15389
337.17358
337.14632
337.16505
337.13675
337.15422
337.12461
337.14062
337.10955
337.12401
337.09144
337.10432
337.07026
337.08163
337.04614
337.05607
337.01925
337.02785
336.98981
336.99719
336.95806
336.96432
336.92422
336.92948
336.88852
336.89287
336.85117
336.85471
336.81238
336.81519
336.77234
336.77449
336.7312
336.73275
336.68913
336.69013
336.64628
336.64676
336.60275
337.2113
337.18722
337.20644
337.18132
337.20095
337.17593
337.19576
337.17086
337.1907
337.16576
337.1854
337.16022
337.1794
337.15372
337.17215
337.14565
337.16304
337.13548
337.1516
337.1228
337.13755
337.10743
337.12076
337.08931
337.10121
337.06845
337.07898
337.04498
337.05422
337.01906
337.02708
336.99088
336.99778
336.96063
336.96648
336.92849
336.9334
336.89467
336.8987
336.85934
336.86257
336.82268
336.82518
336.78485
336.78667
336.746
336.74718
336.70626
336.70684
336.66577
337.21271
337.18966
337.20842
337.18452
337.20352
337.17968
337.19882
337.17508
337.1942
337.17046
337.18942
337.16552
337.18413
337.15987
337.17786
337.15298
337.17011
337.14437
337.16042
337.13363
337.14846
337.12054
337.13409
337.10498
337.11721
337.08693
337.09786
337.06644
337.07613
337.04363
337.05213
337.01864
337.02602
336.99163
336.99795
336.96275
336.96809
336.93217
336.9366
336.90006
336.90363
336.86657
336.86935
336.83185
336.83389
336.79605
336.79738
336.75928
336.75994
336.72168
337.21284
337.19114
337.20952
337.18685
337.20529
337.18261
337.2011
337.17849
337.19694
337.17433
337.19262
337.16991
337.18789
337.16493
337.18241
337.15897
337.17572
337.15158
337.16739
337.1424
337.15714
337.13117
337.14474
337.11775
337.13012
337.10207
337.11322
337.08415
337.09411
337.06406
337.07287
337.0419
337.0496
337.01778
337.02444
336.99185
336.99751
336.96423
336.96896
336.93508
336.93892
336.90454
336.90754
336.87273
336.87493
336.83979
336.84124
336.80584
336.80655
336.771
337.21206
337.19184
337.20989
337.18845
337.20635
337.18482
337.20269
337.18119
337.19897
337.17747
337.19507
337.1735
337.19082
337.16905
337.18594
337.16381
337.18006
337.15737
337.1728
337.1494
337.16389
337.13966
337.15311
337.128
337.14033
337.1143
337.12551
337.09857
337.10865
337.08082
337.0898
337.06113
337.06904
337.03959
337.04646
337.0163
337.02218
336.99137
336.9963
336.96492
336.96895
336.93709
336.94025
336.90798
336.91031
336.87772
336.87925
336.84641
336.84717
336.81418
337.21076
337.19197
337.20967
337.18942
337.20681
337.18639
337.20367
337.18325
337.20037
337.17993
337.19686
337.17635
337.193
337.17234
337.18858
337.16763
337.18331
337.16191
337.17686
337.15487
337.16898
337.14631
337.15948
337.13605
337.14821
337.12399
337.13511
337.11009
337.12015
337.09434
337.10335
337.0768
337.08478
337.05751
337.06449
337.03657
337.04256
337.01405
337.0191
336.99005
336.9942
336.9647
336.96797
336.93808
336.9405
336.9103
336.9119
336.88147
336.88226
336.85168
337.20923
337.19172
337.20902
337.18989
337.20677
337.18743
337.20412
337.18473
337.20123
337.1818
337.19806
337.17855
337.19451
337.17487
337.19043
337.17055
337.18559
337.16534
337.17973
337.159
337.17263
337.15133
337.16411
337.14218
337.15404
337.13144
337.14234
337.11904
337.12896
337.10498
337.11392
337.08928
337.09723
337.07195
337.07893
337.05307
337.0591
337.0327
337.0378
337.01092
337.01512
336.98781
336.99113
336.96346
336.96593
336.93798
336.93961
336.91144
336.91225
336.88393
337.20765
337.19123
337.20805
337.18996
337.20633
337.188
337.20413
337.18572
337.2016
337.18313
337.19872
337.18015
337.1954
337.1767
337.19155
337.17264
337.187
337.16778
337.18153
337.16192
337.17498
337.15491
337.16719
337.1466
337.15805
337.13689
337.14747
337.12572
337.13539
337.11306
337.12181
337.09891
337.10673
337.08327
337.09017
337.06619
337.07218
337.04772
337.0528
337.0279
337.0321
337.00683
337.01016
336.98455
336.98703
336.96117
336.96281
336.93675
336.93756
336.91136
337.20607
337.19059
337.20687
337.18973
337.20558
337.1882
337.20375
337.18629
337.20154
337.18397
337.19889
337.18119
337.19573
337.17789
337.192
337.17397
337.18759
337.16929
337.18235
337.16373
337.17616
337.15716
337.16889
337.14947
337.16044
337.14056
337.15072
337.13036
337.13969
337.11884
337.12732
337.10598
337.11359
337.09178
337.09852
337.07626
337.08213
337.05945
337.06445
337.04138
337.04552
337.02212
337.02542
337.00172
337.00418
336.98025
336.98188
336.95777
336.95858
336.93435
337.20453
337.18986
337.20554
337.18927
337.20457
337.18809
337.20307
337.18647
337.20111
337.18437
337.19861
337.1817
337.19551
337.17845
337.1918
337.17455
337.18741
337.16993
337.18225
337.16451
337.17624
337.1582
337.1693
337.15092
337.16133
337.14259
337.15227
337.13314
337.14206
337.12254
337.13067
337.11074
337.11807
337.09775
337.10427
337.08357
337.08926
337.0682
337.07306
337.05168
337.05572
337.03404
337.03726
337.01532
337.01773
336.99559
336.99718
336.97488
336.97568
336.95326
337.20299
337.18908
337.20412
337.18863
337.20338
337.18772
337.20213
337.18633
337.20033
337.18435
337.19789
337.1817
337.19477
337.17839
337.19096
337.17439
337.18647
337.1697
337.18126
337.16428
337.17529
337.15809
337.16851
337.15105
337.16086
337.14312
337.15226
337.13423
337.14268
337.12433
337.13207
337.11341
337.1204
337.10142
337.10766
337.08837
337.09383
337.07425
337.07893
337.05908
337.06298
337.04287
337.04599
337.02566
337.028
337.00749
337.00905
336.98841
336.98918
336.96844
337.20146
337.18825
337.20263
337.18786
337.20205
337.18715
337.20096
337.18588
337.19924
337.18392
337.19676
337.18119
337.19348
337.1777
337.18947
337.1735
337.18477
337.16862
337.17938
337.16308
337.17333
337.15686
337.16658
337.14993
337.15908
337.14223
337.1508
337.13373
337.14167
337.12438
337.13167
337.11415
337.12076
337.10299
337.1089
337.09089
337.09609
337.07784
337.08231
337.06384
337.06757
337.0489
337.05189
337.03304
337.03528
337.01628
337.01777
336.99865
336.9994
336.9802
337.1999
337.18738
337.20109
337.18698
337.2006
337.18639
337.19959
337.18516
337.19784
337.1831
337.19518
337.18014
337.19164
337.17636
337.1873
337.17184
337.18227
337.16667
337.17661
337.16089
337.17036
337.15453
337.16352
337.14758
337.15606
337.14
337.14795
337.13176
337.13915
337.1228
337.12961
337.1131
337.1193
337.10262
337.10818
337.09132
337.09622
337.07919
337.08341
337.0662
337.06974
337.05237
337.05521
337.0377
337.03983
337.02221
337.02363
337.00591
337.00661
336.98882
337.1983
337.18647
337.1995
337.18601
337.19906
337.18546
337.19804
337.18414
337.19612
337.18184
337.19314
337.17853
337.18919
337.17432
337.18442
337.16937
337.17896
337.1638
337.17292
337.15769
337.16638
337.1511
337.15935
337.14403
337.15183
337.13647
337.14379
337.12836
337.1352
337.11969
337.126
337.1104
337.11616
337.10046
337.10564
337.08983
337.0944
337.07847
337.08242
337.06637
337.06968
337.05351
337.05618
337.0399
337.0419
337.02553
337.02687
337.01042
337.01109
336.99459
337.19666
337.18551
337.19788
337.18495
337.19743
337.18437
337.19628
337.18282
337.19403
337.18011
337.19058
337.17629
337.18608
337.17153
337.18075
337.16604
337.17476
337.15998
337.16827
337.15347
337.16136
337.14657
337.15407
337.1393
337.14641
337.13166
337.13836
337.12361
337.12987
337.11512
337.12092
337.10614
337.11145
337.09663
337.10142
337.08655
337.09079
337.07585
337.07953
337.06451
337.0676
337.05251
337.05499
337.03983
337.0417
337.02647
337.02773
337.01244
337.01307
336.99774
337.19496
337.1845
337.19621
337.18382
337.19571
337.18309
337.19429
337.18115
337.19153
337.17785
337.18743
337.17334
337.18224
337.1679
337.17622
337.16177
337.16962
337.15515
337.1626
337.14816
337.15526
337.1409
337.14766
337.13338
337.1398
337.1256
337.13167
337.11754
337.12323
337.10916
337.11445
337.10041
337.10527
337.09124
337.09564
337.08161
337.08552
337.07147
337.07487
337.06079
337.06365
337.04954
337.05184
337.03769
337.03943
337.02524
337.0264
337.01217
337.01276
336.9985
337.19318
337.18343
337.1945
337.18259
337.19387
337.1816
337.19201
337.17905
337.18853
337.17495
337.1836
337.16961
337.17756
337.16335
337.17076
337.15649
337.16347
337.14924
337.15587
337.14174
337.14806
337.13406
337.1401
337.12625
337.13201
337.1183
337.12376
337.11018
337.11531
337.10185
337.10664
337.09327
337.09768
337.08437
337.08838
337.07512
337.07869
337.06546
337.06857
337.05536
337.05798
337.04476
337.04688
337.03365
337.03525
337.02201
337.02308
337.00982
337.01036
336.99708
337.19132
337.18231
337.19274
337.18125
337.19188
337.17982
337.18935
337.17642
337.18493
337.17132
337.17896
337.16496
337.17194
337.15779
337.16427
337.15012
337.15624
337.1422
337.14801
337.13414
337.13971
337.12604
337.13138
337.11792
337.12302
337.10976
337.11462
337.10155
337.10615
337.09324
337.09754
337.08478
337.08876
337.07611
337.07974
337.06718
337.07042
337.05794
337.06077
337.04833
337.05072
337.03832
337.04025
337.02787
337.02933
337.01696
337.01794
337.00556
337.00605
336.99366
337.18935
337.18113
337.19091
337.17978
337.18967
337.17766
337.1862
337.17314
337.18057
337.1668
337.17339
337.15929
337.16527
337.1511
337.15665
337.14258
337.14783
337.13395
337.13897
337.12533
337.13017
337.11679
337.12146
337.10836
337.11284
337.1
337.10429
337.09168
337.09576
337.08337
337.0872
337.07501
337.07856
337.06653
337.06978
337.05788
337.06079
337.04899
337.05155
337.03983
337.042
337.03034
337.0321
337.02048
337.02182
337.01023
337.01112
336.99955
337
336.98844
337.18727
337.17991
337.18901
337.17812
337.18715
337.175
337.18241
337.16905
337.17531
337.16126
337.16674
337.15245
337.15741
337.14318
337.14781
337.13377
337.13818
337.12443
337.12869
337.11526
337.1194
337.1063
337.11033
337.09756
337.10146
337.08901
337.09276
337.08059
337.08418
337.07228
337.07566
337.06399
337.06715
337.05568
337.05858
337.04728
337.04989
337.03872
337.04102
337.02996
337.03191
337.02094
337.02253
337.01163
337.01283
337.00197
337.00278
336.99196
336.99236
336.98155
337.18506
337.17868
337.18699
337.17618
337.18419
337.17168
337.17779
337.16396
337.16896
337.15452
337.15885
337.14432
337.14826
337.13391
337.13764
337.12362
337.12723
337.11359
337.11713
337.10389
337.10738
337.09455
337.09797
337.08553
337.08888
337.0768
337.08005
337.06831
337.07144
337.06
337.06297
337.05179
337.05458
337.04364
337.04621
337.03547
337.03779
337.02722
337.02927
337.01882
337.02057
337.01024
337.01166
337.00142
337.0025
336.99232
336.99305
336.9829
336.98327