/*--------------------------------*- C++ -*----------------------------------*\
| =========                 |                                                 |
| \\      /  F ield         | OpenFOAM: The Open Source CFD Toolbox           |
|  \\    /   O peration     | Version:  2312                                  |
|   \\  /    A nd           | Website:  www.openfoam.com                      |
|    \\/     M anipulation  |                                                 |
\*---------------------------------------------------------------------------*/
FoamFile
{
    version     2.0;
    format      ascii;
    arch        "LSB;label=32;scalar=64";
    class       volVectorField;
    location    "4";
    object      U;
}
// * * * * * * * * * * * * * * * * * * * * * * * * * * * * * * * * * * * * * //

dimensions      [0 1 -1 0 0 0 0];

internalField   nonuniform List<vector> 
4000
(
(0.0026008383 0.00051227966 0)
(0.0043062194 -1.0385994e-05 0)
(0.0028661851 -4.9419167e-07 0)
(0.0031129678 6.7170804e-08 0)
(0.0030034532 -2.0915436e-07 0)
(0.0030590951 1.935511e-07 0)
(0.0029962674 -2.1840177e-07 0)
(0.0030404206 1.8614579e-07 0)
(0.0029987785 -1.7790067e-07 0)
(0.0030355452 1.6574743e-07 0)
(0.0030012637 -1.5586624e-07 0)
(0.0030329511 1.4632549e-07 0)
(0.0030032108 -1.3788762e-07 0)
(0.0030310015 1.2977153e-07 0)
(0.0030048801 -1.2239594e-07 0)
(0.0030293735 1.1538894e-07 0)
(0.0030063566 -1.0889605e-07 0)
(0.0030279621 1.0278278e-07 0)
(0.0030076664 -9.7067377e-08 0)
(0.00302672 9.1706242e-08 0)
(0.0030088303 -8.6676071e-08 0)
(0.0030256182 8.1965743e-08 0)
(0.0030098676 -7.7541534e-08 0)
(0.0030246359 7.3403891e-08 0)
(0.003010795 -6.9518612e-08 0)
(0.0030237567 6.5890166e-08 0)
(0.0030116265 -6.2486758e-08 0)
(0.0030229672 5.9314066e-08 0)
(0.0030123744 -5.6343385e-08 0)
(0.003022256 5.3580514e-08 0)
(0.0030130495 -5.0999903e-08 0)
(0.0030216129 4.8607029e-08 0)
(0.0030136612 -4.637939e-08 0)
(0.0030210288 4.4321963e-08 0)
(0.0030142182 -4.2415157e-08 0)
(0.0030204954 4.0663372e-08 0)
(0.0030147284 -3.9049791e-08 0)
(0.0030200053 3.7578218e-08 0)
(0.0030151991 -3.6234489e-08 0)
(0.0030195514 3.5021816e-08 0)
(0.0030156368 -3.392857e-08 0)
(0.0030191274 3.2957567e-08 0)
(0.0030160479 -3.2099427e-08 0)
(0.003018727 3.1356418e-08 0)
(0.0030164373 -3.0726055e-08 0)
(0.0030183435 3.019268e-08 0)
(0.0030168131 -2.9803593e-08 0)
(0.0030179982 2.951163e-08 0)
(0.0030172975 -2.8955737e-08 0)
(0.0030180353 3.1465545e-08 0)
(0.0067267711 0.0013522434 0)
(0.011824452 -2.3771281e-06 0)
(0.0085654324 1.4133006e-05 0)
(0.0089835009 -5.3520553e-07 0)
(0.0087171051 -2.1175372e-07 0)
(0.0088795529 8.7691942e-07 0)
(0.0086973185 -4.926836e-07 0)
(0.0088262555 6.6448669e-07 0)
(0.0087038334 -5.9089409e-07 0)
(0.0088127793 5.8274818e-07 0)
(0.008711191 -5.4517396e-07 0)
(0.0088053635 5.1946168e-07 0)
(0.0087169305 -4.876417e-07 0)
(0.0087996578 4.6160047e-07 0)
(0.008721871 -4.3438215e-07 0)
(0.0087948468 4.1040905e-07 0)
(0.0087262575 -3.8697428e-07 0)
(0.0087906572 3.65553e-07 0)
(0.0087301588 -3.451316e-07 0)
(0.0087869601 3.2617191e-07 0)
(0.0087336324 -3.0826544e-07 0)
(0.0087836746 2.9154669e-07 0)
(0.0087367325 -2.7581767e-07 0)
(0.0087807417 2.6111135e-07 0)
(0.0087395066 -2.4730542e-07 0)
(0.0087781145 2.3440327e-07 0)
(0.0087419958 -2.2231317e-07 0)
(0.0087757538 2.1103109e-07 0)
(0.0087442361 -2.0048072e-07 0)
(0.0087736256 1.9065714e-07 0)
(0.0087462594 -1.814942e-07 0)
(0.0087716997 1.7298772e-07 0)
(0.0087480945 -1.6507985e-07 0)
(0.0087699487 1.5776739e-07 0)
(0.0087497672 -1.5099989e-07 0)
(0.008768348 1.4477504e-07 0)
(0.0087513013 -1.3904933e-07 0)
(0.0087668748 1.3382111e-07 0)
(0.0087527185 -1.2905351e-07 0)
(0.0087655082 1.2474519e-07 0)
(0.008754039 -1.2086613e-07 0)
(0.0087642288 1.1741464e-07 0)
(0.0087552817 -1.1436507e-07 0)
(0.0087630181 1.1173183e-07 0)
(0.0087564625 -1.0944315e-07 0)
(0.0087618544 1.0758805e-07 0)
(0.008757598 -1.063574e-07 0)
(0.0087607646 1.0356035e-07 0)
(0.0087589473 -1.0932482e-07 0)
(0.0087606403 1.0004992e-07 0)
(0.011088337 0.0022447071 0)
(0.018801243 -1.1223826e-05 0)
(0.014111875 3.5066517e-05 0)
(0.014695552 -6.9463689e-07 0)
(0.014279997 -1.8768897e-07 0)
(0.014551098 1.714872e-06 0)
(0.014248259 -7.1341745e-07 0)
(0.014465799 1.215494e-06 0)
(0.014259784 -1.0533474e-06 0)
(0.014444149 1.0579396e-06 0)
(0.014272389 -9.8939287e-07 0)
(0.014431881 9.4704555e-07 0)
(0.014282091 -8.8802602e-07 0)
(0.014422312 8.4219776e-07 0)
(0.014290442 -7.9192558e-07 0)
(0.014414197 7.4876025e-07 0)
(0.014297868 -7.0580129e-07 0)
(0.01440711 6.6690363e-07 0)
(0.01430448 -6.295977e-07 0)
(0.014400846 5.9505758e-07 0)
(0.014310373 -5.6238508e-07 0)
(0.014395273 5.3188832e-07 0)
(0.014315637 -5.0319882e-07 0)
(0.014390295 4.7635978e-07 0)
(0.014320348 -4.5117987e-07 0)
(0.014385834 4.2762953e-07 0)
(0.014324577 -4.0557903e-07 0)
(0.014381825 3.849849e-07 0)
(0.014328385 -3.6574215e-07 0)
(0.014378209 3.4781018e-07 0)
(0.014331824 -3.310972e-07 0)
(0.014374936 3.1556921e-07 0)
(0.014334945 -3.0114442e-07 0)
(0.014371959 2.8779531e-07 0)
(0.01433779 -2.7544924e-07 0)
(0.014369237 2.6408425e-07 0)
(0.014340401 -2.5363679e-07 0)
(0.01436673 2.4408921e-07 0)
(0.014342814 -2.3538714e-07 0)
(0.014364403 2.2751595e-07 0)
(0.014345064 -2.2043163e-07 0)
(0.014362222 2.1411966e-07 0)
(0.014347183 -2.0854294e-07 0)
(0.014360157 2.0372301e-07 0)
(0.014349199 -1.9949709e-07 0)
(0.01435817 1.9614289e-07 0)
(0.014351138 -1.9380596e-07 0)
(0.014356282 1.8808039e-07 0)
(0.014353364 -2.0246893e-07 0)
(0.014355858 1.8142905e-07 0)
(0.015095516 0.0029667686 0)
(0.02531966 -4.7908695e-05 0)
(0.019496512 6.258982e-05 0)
(0.020252012 -9.7320058e-07 0)
(0.019692797 7.0625458e-08 0)
(0.020073073 2.6450629e-06 0)
(0.019649025 -7.4893208e-07 0)
(0.019959312 1.7450584e-06 0)
(0.019666473 -1.4763996e-06 0)
(0.019929878 1.5100391e-06 0)
(0.019684686 -1.4132119e-06 0)
(0.019912707 1.3589983e-06 0)
(0.019698535 -1.2729554e-06 0)
(0.01989914 1.2096208e-06 0)
(0.019710458 -1.1365138e-06 0)
(0.019887578 1.0753496e-06 0)
(0.019721068 -1.0133546e-06 0)
(0.019877457 9.5774424e-07 0)
(0.019730525 -9.0410129e-07 0)
(0.019868499 8.5455551e-07 0)
(0.019738958 -8.0763561e-07 0)
(0.019860523 7.6383431e-07 0)
(0.019746493 -7.2265086e-07 0)
(0.019853396 6.8408558e-07 0)
(0.01975324 -6.4794414e-07 0)
(0.019847008 6.1410005e-07 0)
(0.019759297 -5.8245106e-07 0)
(0.019841266 5.5285497e-07 0)
(0.01976475 -5.2523573e-07 0)
(0.019836087 4.99466e-07 0)
(0.019769676 -4.7547713e-07 0)
(0.019831399 4.531624e-07 0)
(0.019774145 -4.324569e-07 0)
(0.019827136 4.1327308e-07 0)
(0.019778221 -3.9555008e-07 0)
(0.019823235 3.7921666e-07 0)
(0.019781961 -3.6421739e-07 0)
(0.019819644 3.5049411e-07 0)
(0.019785419 -3.3799829e-07 0)
(0.019816309 3.2668164e-07 0)
(0.019788644 -3.1650571e-07 0)
(0.019813184 3.0742532e-07 0)
(0.019791682 -2.9940911e-07 0)
(0.019810223 2.9247528e-07 0)
(0.019794575 -2.8635089e-07 0)
(0.019807372 2.8159731e-07 0)
(0.019797355 -2.7814846e-07 0)
(0.019804639 2.6904986e-07 0)
(0.019800468 -2.9548764e-07 0)
(0.019803769 2.5985259e-07 0)
(0.019098626 0.0036422902 0)
(0.031508316 -6.2391784e-05 0)
(0.024716876 9.667539e-05 0)
(0.025655904 -1.6069417e-06 0)
(0.024955202 5.3182056e-07 0)
(0.025444573 3.6378514e-06 0)
(0.024899505 -6.103654e-07 0)
(0.025306675 2.2255883e-06 0)
(0.024924014 -1.844301e-06 0)
(0.025269847 1.9188128e-06 0)
(0.024948178 -1.7995379e-06 0)
(0.025247732 1.738232e-06 0)
(0.024966347 -1.6266188e-06 0)
(0.025230046 1.5487241e-06 0)
(0.024981993 -1.4539143e-06 0)
(0.025214903 1.3766932e-06 0)
(0.024995927 -1.2969032e-06 0)
(0.025201619 1.2260517e-06 0)
(0.025008353 -1.1572669e-06 0)
(0.025189849 1.09393e-06 0)
(0.025019439 -1.0338485e-06 0)
(0.025179364 9.7778526e-07 0)
(0.025029347 -9.2507385e-07 0)
(0.025169993 8.7569113e-07 0)
(0.025038219 -8.2944016e-07 0)
(0.025161592 7.8609793e-07 0)
(0.025046185 -7.4559815e-07 0)
(0.025154041 7.0769599e-07 0)
(0.025053355 -6.7235332e-07 0)
(0.025147231 6.3935227e-07 0)
(0.025059833 -6.0865487e-07 0)
(0.025141067 5.8007893e-07 0)
(0.02506571 -5.5358231e-07 0)
(0.025135461 5.2901573e-07 0)
(0.025071069 -5.0633453e-07 0)
(0.025130333 4.8541735e-07 0)
(0.025075987 -4.6622018e-07 0)
(0.025125611 4.4864408e-07 0)
(0.025080533 -4.3264866e-07 0)
(0.025121227 4.1815211e-07 0)
(0.025084772 -4.0512336e-07 0)
(0.025117119 3.9348592e-07 0)
(0.025088766 -3.8321704e-07 0)
(0.025113226 3.7433254e-07 0)
(0.025092569 -3.6642658e-07 0)
(0.02510948 3.6044021e-07 0)
(0.025096223 -3.558767e-07 0)
(0.025105867 3.4326713e-07 0)
(0.025100234 -3.841797e-07 0)
(0.025104425 3.3197432e-07 0)
(0.023340261 0.0043945037 0)
(0.037202514 -0.00011526112 0)
(0.029765787 0.00013378823 0)
(0.030912397 -2.7113071e-06 0)
(0.030066164 1.2129243e-06 0)
(0.030665401 4.7029866e-06 0)
(0.030000004 -3.2474259e-07 0)
(0.030507589 2.6547667e-06 0)
(0.030032801 -2.1626074e-06 0)
(0.030463731 2.2856903e-06 0)
(0.030063193 -2.1511639e-06 0)
(0.03043666 2.0865937e-06 0)
(0.030085815 -1.9509531e-06 0)
(0.030414762 1.8610976e-06 0)
(0.030105305 -1.7456778e-06 0)
(0.03039593 1.6541687e-06 0)
(0.030122674 -1.5577665e-06 0)
(0.030379382 1.4730365e-06 0)
(0.030138169 -1.390246e-06 0)
(0.030364706 1.3142536e-06 0)
(0.030151998 -1.2420429e-06 0)
(0.030351628 1.1746979e-06 0)
(0.030164358 -1.1113774e-06 0)
(0.030339936 1.0520341e-06 0)
(0.030175428 -9.9648433e-07 0)
(0.030329455 9.4439504e-07 0)
(0.030185365 -8.95756e-07 0)
(0.030320035 8.5020498e-07 0)
(0.03019431 -8.0776037e-07 0)
(0.03031154 7.6810083e-07 0)
(0.030202391 -7.3123474e-07 0)
(0.030303851 6.9689399e-07 0)
(0.030209721 -6.6507202e-07 0)
(0.030296859 6.3554954e-07 0)
(0.030216405 -6.0830845e-07 0)
(0.030290464 5.8317084e-07 0)
(0.030222537 -5.6011235e-07 0)
(0.030284575 5.3898818e-07 0)
(0.030228205 -5.1977278e-07 0)
(0.030279109 5.0234673e-07 0)
(0.030233491 -4.8669173e-07 0)
(0.030273988 4.726959e-07 0)
(0.030238469 -4.6035107e-07 0)
(0.030269137 4.4966665e-07 0)
(0.030243209 -4.4009028e-07 0)
(0.030264469 4.3302123e-07 0)
(0.030247764 -4.2731531e-07 0)
(0.03025995 4.1115428e-07 0)
(0.030252679 -4.6829307e-07 0)
(0.030257831 3.976414e-07 0)
(0.02687649 0.0047552693 0)
(0.042598744 -0.00014278949 0)
(0.034668451 0.00017542538 0)
(0.036016727 -4.5615897e-06 0)
(0.03502369 2.0548543e-06 0)
(0.035734939 5.810836e-06 0)
(0.034950636 6.6204439e-08 0)
(0.03556164 3.0266112e-06 0)
(0.034993195 -2.4384287e-06 0)
(0.035511169 2.6123193e-06 0)
(0.035030062 -2.4716796e-06 0)
(0.035479172 2.406451e-06 0)
(0.035057239 -2.2485013e-06 0)
(0.035453003 2.1488721e-06 0)
(0.035080664 -2.0138915e-06 0)
(0.035430407 1.9096667e-06 0)
(0.035101549 -1.7977524e-06 0)
(0.03541052 1.7003805e-06 0)
(0.035120186 -1.6046343e-06 0)
(0.03539287 1.5170263e-06 0)
(0.035136823 -1.4336396e-06 0)
(0.035377136 1.3559139e-06 0)
(0.035151695 -1.2828328e-06 0)
(0.035363069 1.214318e-06 0)
(0.035165013 -1.1502181e-06 0)
(0.035350459 1.0900739e-06 0)
(0.035176968 -1.0339527e-06 0)
(0.035339125 9.8135863e-07 0)
(0.03518773 -9.3238583e-07 0)
(0.035328906 8.8659589e-07 0)
(0.03519745 -8.4405951e-07 0)
(0.035319658 8.0441162e-07 0)
(0.035206267 -7.6769434e-07 0)
(0.035311247 7.3360961e-07 0)
(0.035214305 -7.0217646e-07 0)
(0.035303556 6.7315347e-07 0)
(0.03522168 -6.4654459e-07 0)
(0.035296476 6.2215358e-07 0)
(0.035228495 -5.9997658e-07 0)
(0.035289904 5.7985211e-07 0)
(0.035234849 -5.6178032e-07 0)
(0.035283747 5.4560938e-07 0)
(0.035240833 -5.3135213e-07 0)
(0.035277917 5.1900551e-07 0)
(0.035246531 -5.0786381e-07 0)
(0.035272309 4.998477e-07 0)
(0.035252003 -4.9295616e-07 0)
(0.035266866 4.7329671e-07 0)
(0.035257826 -5.477884e-07 0)
(0.035263978 4.5708186e-07 0)
(0.031448764 0.0055859522 0)
(0.047470668 -0.00020111152 0)
(0.039404786 0.0002133128 0)
(0.040959824 -5.0430204e-06 0)
(0.03982905 3.4565751e-06 0)
(0.040654064 7.0160866e-06 0)
(0.039752186 5.5743147e-07 0)
(0.0404687 3.338129e-06 0)
(0.039805621 -2.6731178e-06 0)
(0.040411892 2.8987733e-06 0)
(0.039849093 -2.761713e-06 0)
(0.040374998 2.6980073e-06 0)
(0.039880885 -2.519513e-06 0)
(0.04034452 2.4121408e-06 0)
(0.039908306 -2.2586759e-06 0)
(0.04031811 2.143254e-06 0)
(0.039932764 -2.0169383e-06 0)
(0.040294833 1.9081424e-06 0)
(0.039954593 -1.8004922e-06 0)
(0.040274163 1.7023018e-06 0)
(0.039974081 -1.6086908e-06 0)
(0.040255733 1.5214833e-06 0)
(0.039991502 -1.4394879e-06 0)
(0.040239254 1.3625896e-06 0)
(0.040007104 -1.2906861e-06 0)
(0.040224482 1.2231784e-06 0)
(0.040021108 -1.1602298e-06 0)
(0.040211206 1.1011979e-06 0)
(0.040033713 -1.0462689e-06 0)
(0.040199237 9.94876e-07 0)
(0.040045098 -9.4716615e-07 0)
(0.040188404 9.0266825e-07 0)
(0.040055424 -8.6148448e-07 0)
(0.040178555 8.232307e-07 0)
(0.040064837 -7.8797244e-07 0)
(0.040169549 7.5539899e-07 0)
(0.040073472 -7.2555009e-07 0)
(0.040161258 6.9817346e-07 0)
(0.040081452 -6.7329313e-07 0)
(0.040153564 6.5070173e-07 0)
(0.04008889 -6.3042286e-07 0)
(0.040146358 6.1226107e-07 0)
(0.040095894 -5.9625595e-07 0)
(0.040139534 5.8238555e-07 0)
(0.040102562 -5.6978939e-07 0)
(0.040132975 5.60958e-07 0)
(0.040108964 -5.5284369e-07 0)
(0.040126597 5.2981854e-07 0)
(0.040115696 -6.222784e-07 0)
(0.040122864 5.1024342e-07 0)
(0.03456776 0.0056360994 0)
(0.051984064 -0.0002476531 0)
(0.044045047 0.00024996702 0)
(0.045687556 -6.098697e-06 0)
(0.044473903 4.7557624e-06 0)
(0.045421064 8.2024197e-06 0)
(0.044404761 1.1069344e-06 0)
(0.045228464 3.5766341e-06 0)
(0.044470378 -2.869708e-06 0)
(0.045165634 3.1435764e-06 0)
(0.044520545 -3.0214887e-06 0)
(0.045123893 2.960686e-06 0)
(0.044556985 -2.7636682e-06 0)
(0.045089093 2.6504005e-06 0)
(0.04458844 -2.4796215e-06 0)
(0.045058842 2.3544902e-06 0)
(0.044616502 -2.2149297e-06 0)
(0.045032148 2.0959359e-06 0)
(0.044641551 -1.9774602e-06 0)
(0.045008433 1.8697387e-06 0)
(0.044663916 -1.7668749e-06 0)
(0.044987283 1.6711032e-06 0)
(0.044683909 -1.5810558e-06 0)
(0.044968371 1.4965793e-06 0)
(0.044701813 -1.4176322e-06 0)
(0.044951419 1.3434676e-06 0)
(0.044717884 -1.2743584e-06 0)
(0.044936184 1.2095069e-06 0)
(0.044732348 -1.1492038e-06 0)
(0.04492245 1.0927467e-06 0)
(0.044745411 -1.0403692e-06 0)
(0.044910021 9.9148809e-07 0)
(0.044757258 -9.4627439e-07 0)
(0.04489872 9.0425319e-07 0)
(0.044768058 -8.6554353e-07 0)
(0.044888388 8.2976171e-07 0)
(0.044777964 -7.9698909e-07 0)
(0.044878877 7.6691439e-07 0)
(0.044787117 -7.395941e-07 0)
(0.044870052 7.1477273e-07 0)
(0.044795648 -6.9250102e-07 0)
(0.044861787 6.7253754e-07 0)
(0.04480368 -6.5495331e-07 0)
(0.044853963 6.3970136e-07 0)
(0.044811325 -6.2576959e-07 0)
(0.044846446 6.1625246e-07 0)
(0.044818665 -6.0689106e-07 0)
(0.044839128 5.8069579e-07 0)
(0.044826303 -6.9129979e-07 0)
(0.044834487 5.5705108e-07 0)
(0.039540405 0.0065475537 0)
(0.056030256 -0.00030716904 0)
(0.048603631 0.00029207439 0)
(0.050185697 -8.7506667e-06 0)
(0.048949709 5.1730682e-06 0)
(0.050035147 9.2298953e-06 0)
(0.048908513 1.6687586e-06 0)
(0.049840694 3.7312345e-06 0)
(0.048987746 -3.0306062e-06 0)
(0.049772166 3.3461563e-06 0)
(0.049044656 -3.2511907e-06 0)
(0.049725641 3.1942623e-06 0)
(0.04908575 -2.9808104e-06 0)
(0.049686527 2.8633846e-06 0)
(0.049121252 -2.6765127e-06 0)
(0.049652428 2.5431364e-06 0)
(0.049152931 -2.3915164e-06 0)
(0.049622309 2.263553e-06 0)
(0.049181209 -2.135347e-06 0)
(0.04959554 2.0191548e-06 0)
(0.049206458 -1.9080208e-06 0)
(0.049571664 1.8046128e-06 0)
(0.049229029 -1.7073843e-06 0)
(0.049550313 1.6161445e-06 0)
(0.049249242 -1.5309207e-06 0)
(0.049531176 1.4508142e-06 0)
(0.049267383 -1.3762168e-06 0)
(0.049513977 1.3061711e-06 0)
(0.049283711 -1.241081e-06 0)
(0.049498473 1.1801046e-06 0)
(0.049298456 -1.1235694e-06 0)
(0.049484443 1.0707772e-06 0)
(0.049311828 -1.0219739e-06 0)
(0.049471688 9.765914e-07 0)
(0.049324018 -9.3480735e-07 0)
(0.049460026 8.9616318e-07 0)
(0.049335198 -8.6078601e-07 0)
(0.049449292 8.2830403e-07 0)
(0.049345528 -7.9880975e-07 0)
(0.049439334 7.7199831e-07 0)
(0.049355154 -7.4795024e-07 0)
(0.049430008 7.2637699e-07 0)
(0.049364216 -7.0738463e-07 0)
(0.049421181 6.9089547e-07 0)
(0.049372841 -6.7575271e-07 0)
(0.049412705 6.6567461e-07 0)
(0.049381121 -6.5505673e-07 0)
(0.049404446 6.2593196e-07 0)
(0.049389658 -7.544742e-07 0)
(0.049398847 5.9752572e-07 0)
(0.042373014 0.0063710526 0)
(0.059776207 -0.00037760637 0)
(0.053011201 0.00032821294 0)
(0.054524606 -1.1342223e-05 0)
(0.053265444 4.7487675e-06 0)
(0.054498163 1.0014436e-05 0)
(0.05326448 2.2203953e-06 0)
(0.054305408 3.793822e-06 0)
(0.053358053 -3.1576036e-06 0)
(0.054231304 3.5062777e-06 0)
(0.053421647 -3.4512627e-06 0)
(0.054180048 3.3987536e-06 0)
(0.053467371 -3.1710332e-06 0)
(0.054136643 3.0510627e-06 0)
(0.053506912 -2.849365e-06 0)
(0.054098709 2.7091729e-06 0)
(0.053542199 -2.5466981e-06 0)
(0.054065176 2.4109847e-06 0)
(0.053573699 -2.2741494e-06 0)
(0.054035361 2.1505459e-06 0)
(0.053601823 -2.0321257e-06 0)
(0.054008766 1.9220104e-06 0)
(0.053626965 -1.8184714e-06 0)
(0.053984984 1.7212844e-06 0)
(0.053649479 -1.6305502e-06 0)
(0.053963667 1.5452175e-06 0)
(0.053669686 -1.4658036e-06 0)
(0.053944511 1.3911898e-06 0)
(0.053687871 -1.3218991e-06 0)
(0.053927242 1.2569486e-06 0)
(0.053704294 -1.1967651e-06 0)
(0.053911616 1.1405342e-06 0)
(0.053719187 -1.0885812e-06 0)
(0.05389741 1.0402437e-06 0)
(0.053732763 -9.9576176e-07 0)
(0.053884422 9.5460141e-07 0)
(0.053745214 -9.1693857e-07 0)
(0.053872468 8.8234047e-07 0)
(0.053756717 -8.50938e-07 0)
(0.053861378 8.2237669e-07 0)
(0.053767436 -7.9676882e-07 0)
(0.053850995 7.7377832e-07 0)
(0.053777525 -7.5354906e-07 0)
(0.053841168 7.3596748e-07 0)
(0.053787127 -7.1974242e-07 0)
(0.053831735 7.092219e-07 0)
(0.053796345 -6.9735405e-07 0)
(0.053822541 6.6557167e-07 0)
(0.053805772 -8.1151493e-07 0)
(0.053815943 6.317756e-07 0)
(0.047468819 0.0072172213 0)
(0.063267129 -0.00042012127 0)
(0.057157812 0.00035531368 0)
(0.058776779 -1.2007794e-05 0)
(0.057426027 3.8458898e-06 0)
(0.058811936 1.0527736e-05 0)
(0.057473398 2.7588355e-06 0)
(0.05862251 3.7656432e-06 0)
(0.057581524 -3.2500058e-06 0)
(0.058542846 3.624807e-06 0)
(0.057651704 -3.6220122e-06 0)
(0.058486933 3.5744081e-06 0)
(0.057702017 -3.3345494e-06 0)
(0.058439279 3.2135576e-06 0)
(0.057745571 -2.9983286e-06 0)
(0.058397543 2.8527153e-06 0)
(0.057784442 -2.6805996e-06 0)
(0.058360621 2.5383416e-06 0)
(0.057819138 -2.3939768e-06 0)
(0.058327785 2.2640148e-06 0)
(0.057850117 -2.1392875e-06 0)
(0.058298492 2.0233894e-06 0)
(0.057877809 -1.9144049e-06 0)
(0.058272297 1.8120829e-06 0)
(0.057902607 -1.7165992e-06 0)
(0.058248817 1.6267528e-06 0)
(0.057924863 -1.5431891e-06 0)
(0.058227718 1.4646301e-06 0)
(0.057944892 -1.3917208e-06 0)
(0.058208698 1.3233386e-06 0)
(0.057962979 -1.2600124e-06 0)
(0.058191487 1.2008128e-06 0)
(0.057979382 -1.1461464e-06 0)
(0.058175841 1.095258e-06 0)
(0.057994334 -1.0484521e-06 0)
(0.058161537 1.00512e-06 0)
(0.058008046 -9.6548809e-07 0)
(0.058148372 9.2906339e-07 0)
(0.058020714 -8.9601675e-07 0)
(0.05813616 8.6594466e-07 0)
(0.058032518 -8.3899217e-07 0)
(0.058124725 8.1477631e-07 0)
(0.058043627 -7.9348061e-07 0)
(0.058113905 7.7495105e-07 0)
(0.058054199 -7.5777512e-07 0)
(0.058103524 7.469236e-07 0)
(0.058064348 -7.3382961e-07 0)
(0.058093404 6.9968311e-07 0)
(0.058074653 -8.6220536e-07 0)
(0.058085777 6.5996706e-07 0)
(0.050434781 0.0070058175 0)
(0.066489499 -0.00050516902 0)
(0.061095513 0.00037912459 0)
(0.062944025 -1.2349998e-05 0)
(0.061434674 2.9423215e-06 0)
(0.062977319 1.0783542e-05 0)
(0.061535781 3.2913979e-06 0)
(0.062791877 3.653798e-06 0)
(0.061658357 -3.3056962e-06 0)
(0.062706606 3.7030622e-06 0)
(0.061734989 -3.763825e-06 0)
(0.062646127 3.7215364e-06 0)
(0.061789839 -3.4717113e-06 0)
(0.06259429 3.3510748e-06 0)
(0.061837365 -3.1236667e-06 0)
(0.0625488 2.9739697e-06 0)
(0.061879778 -2.7934406e-06 0)
(0.062508532 2.6458202e-06 0)
(0.061917634 -2.4950217e-06 0)
(0.062472712 2.3597412e-06 0)
(0.061951432 -2.2296775e-06 0)
(0.062440753 2.1089118e-06 0)
(0.061981644 -1.9953378e-06 0)
(0.062412174 1.8886853e-06 0)
(0.062008698 -1.7892043e-06 0)
(0.062386558 1.6955498e-06 0)
(0.062032978 -1.6084954e-06 0)
(0.062363539 1.526608e-06 0)
(0.062054829 -1.4506552e-06 0)
(0.062342789 1.3793786e-06 0)
(0.062074561 -1.3134093e-06 0)
(0.062324012 1.251706e-06 0)
(0.062092456 -1.1947578e-06 0)
(0.062306943 1.1417186e-06 0)
(0.062108767 -1.0929582e-06 0)
(0.062291338 1.0477951e-06 0)
(0.062123726 -1.0065071e-06 0)
(0.062276976 9.6854257e-07 0)
(0.062137546 -9.341128e-07 0)
(0.062263653 9.0276671e-07 0)
(0.062150422 -8.7468253e-07 0)
(0.06225118 8.4943165e-07 0)
(0.06216254 -8.2723823e-07 0)
(0.062239379 8.0790415e-07 0)
(0.06217407 -7.8991065e-07 0)
(0.06222806 7.7883229e-07 0)
(0.06218514 -7.6455341e-07 0)
(0.062217027 7.283496e-07 0)
(0.062196309 -9.0638707e-07 0)
(0.06220835 6.8230855e-07 0)
(0.0555302 0.0076475122 0)
(0.069562859 -0.00054583627 0)
(0.064852638 0.00039804347 0)
(0.066985056 -1.3204808e-05 0)
(0.06529604 2.3011789e-06 0)
(0.066994674 1.0729627e-05 0)
(0.065452058 3.815996e-06 0)
(0.066813462 3.4590788e-06 0)
(0.065588803 -3.3233205e-06 0)
(0.066722462 3.7426194e-06 0)
(0.065671672 -3.876945e-06 0)
(0.066657491 3.8406915e-06 0)
(0.065730977 -3.5828946e-06 0)
(0.066601547 3.4639587e-06 0)
(0.065782416 -3.2257187e-06 0)
(0.066552367 3.0732433e-06 0)
(0.065828317 -2.8855221e-06 0)
(0.066508807 2.7337004e-06 0)
(0.065869281 -2.5775515e-06 0)
(0.066470051 2.4379774e-06 0)
(0.065905853 -2.303534e-06 0)
(0.066435471 2.1788035e-06 0)
(0.065938544 -2.0614827e-06 0)
(0.066404546 1.9512935e-06 0)
(0.065967817 -1.8485555e-06 0)
(0.066376828 1.751789e-06 0)
(0.065994088 -1.6618922e-06 0)
(0.066351921 1.5772848e-06 0)
(0.066017731 -1.4988545e-06 0)
(0.066329468 1.425213e-06 0)
(0.066039083 -1.3570923e-06 0)
(0.066309151 1.2933439e-06 0)
(0.066058445 -1.2345384e-06 0)
(0.06629068 1.1797429e-06 0)
(0.066076095 -1.1293916e-06 0)
(0.066273795 1.0827336e-06 0)
(0.066092281 -1.0400975e-06 0)
(0.066258254 1.0008757e-06 0)
(0.066107235 -9.6531977e-07 0)
(0.066243838 9.3293317e-07 0)
(0.066121167 -9.0392693e-07 0)
(0.066230342 8.7782898e-07 0)
(0.066134278 -8.5490416e-07 0)
(0.066217575 8.349075e-07 0)
(0.066146752 -8.162304e-07 0)
(0.066205333 8.0502161e-07 0)
(0.06615873 -7.8961666e-07 0)
(0.066193403 7.5166963e-07 0)
(0.066170746 -9.439555e-07 0)
(0.066183663 6.9904018e-07 0)
(0.058879124 0.007471743 0)
(0.072427617 -0.00062575639 0)
(0.068509471 0.00040803529 0)
(0.070847588 -1.5391316e-05 0)
(0.0690168 1.5878419e-06 0)
(0.070863342 1.0282964e-05 0)
(0.069222296 4.2913204e-06 0)
(0.070687149 3.168776e-06 0)
(0.069373058 -3.3071854e-06 0)
(0.070590302 3.7431157e-06 0)
(0.069461905 -3.9624871e-06 0)
(0.070520904 3.9322171e-06 0)
(0.069525557 -3.6686922e-06 0)
(0.070460937 3.5525946e-06 0)
(0.069580833 -3.3049361e-06 0)
(0.070408142 3.1509162e-06 0)
(0.069630153 -2.9572297e-06 0)
(0.070361358 2.8023336e-06 0)
(0.069674164 -2.6419053e-06 0)
(0.070319725 2.4990408e-06 0)
(0.069713453 -2.3611581e-06 0)
(0.070282575 2.233349e-06 0)
(0.069748573 -2.1131081e-06 0)
(0.070249352 2.0001617e-06 0)
(0.069780021 -1.8948924e-06 0)
(0.070219575 1.7956973e-06 0)
(0.069808245 -1.7035939e-06 0)
(0.070192815 1.6168638e-06 0)
(0.069833645 -1.5365107e-06 0)
(0.070168693 1.4610242e-06 0)
(0.069856583 -1.391234e-06 0)
(0.070146866 1.3258908e-06 0)
(0.069877385 -1.265644e-06 0)
(0.070127022 1.2094793e-06 0)
(0.069896346 -1.1578934e-06 0)
(0.07010888 1.1100703e-06 0)
(0.069913736 -1.0663881e-06 0)
(0.070092184 1.0261865e-06 0)
(0.069929802 -9.8975634e-07 0)
(0.070076696 9.5655848e-07 0)
(0.06994477 -9.2683581e-07 0)
(0.070062197 9.0007554e-07 0)
(0.069958855 -8.7658242e-07 0)
(0.07004848 8.5606297e-07 0)
(0.069972255 -8.3683622e-07 0)
(0.070035334 8.2558577e-07 0)
(0.069985125 -8.0912997e-07 0)
(0.070022526 7.6975555e-07 0)
(0.069997968 -9.7485554e-07 0)
(0.070011718 7.1042622e-07 0)
(0.063905233 0.0079155973 0)
(0.075213802 -0.00065720234 0)
(0.072090342 0.00041601626 0)
(0.074508999 -1.7985875e-05 0)
(0.072600904 5.8835764e-07 0)
(0.074583063 9.5033603e-06 0)
(0.072846911 4.7169016e-06 0)
(0.074412883 2.7837439e-06 0)
(0.073011317 -3.2567668e-06 0)
(0.074310036 3.706263e-06 0)
(0.073105828 -4.0208349e-06 0)
(0.074236261 3.9968883e-06 0)
(0.073173694 -3.7296263e-06 0)
(0.07417236 3.6175267e-06 0)
(0.073232714 -3.361812e-06 0)
(0.074116036 3.2074638e-06 0)
(0.073285372 -3.0090094e-06 0)
(0.074066103 2.8521435e-06 0)
(0.073332357 -2.6884819e-06 0)
(0.074021662 2.5433094e-06 0)
(0.0733743 -2.4029058e-06 0)
(0.073982004 2.2728855e-06 0)
(0.073411791 -2.1505316e-06 0)
(0.073946537 2.0355907e-06 0)
(0.073445363 -1.9284988e-06 0)
(0.073914748 1.827544e-06 0)
(0.073475492 -1.7338542e-06 0)
(0.073886181 1.6455859e-06 0)
(0.073502607 -1.5638514e-06 0)
(0.073860429 1.4870286e-06 0)
(0.073527095 -1.4160392e-06 0)
(0.073837126 1.3495415e-06 0)
(0.073549303 -1.2882597e-06 0)
(0.07381594 1.2311042e-06 0)
(0.073569546 -1.1786317e-06 0)
(0.073796572 1.1299661e-06 0)
(0.073588113 -1.0855325e-06 0)
(0.073778746 1.0446222e-06 0)
(0.073605265 -1.0075638e-06 0)
(0.07376221 9.737789e-07 0)
(0.073621246 -9.4354059e-07 0)
(0.073746729 9.1629885e-07 0)
(0.073636283 -8.923968e-07 0)
(0.073732086 8.7149181e-07 0)
(0.073650589 -8.518482e-07 0)
(0.073718056 8.4063702e-07 0)
(0.07366433 -8.2322141e-07 0)
(0.073704391 7.8273348e-07 0)
(0.07367798 -9.9907764e-07 0)
(0.073692518 7.1674694e-07 0)
(0.067429318 0.0077488632 0)
(0.077818712 -0.00073049013 0)
(0.075601167 0.00041623354 0)
(0.077982777 -2.12984e-05 0)
(0.076050125 -1.1565744e-06 0)
(0.078153009 8.4729471e-06 0)
(0.076326509 5.085319e-06 0)
(0.0779904 2.3101809e-06 0)
(0.07650363 -3.1709348e-06 0)
(0.077881504 3.6338505e-06 0)
(0.076603516 -4.0525874e-06 0)
(0.077803441 4.0353688e-06 0)
(0.076675473 -3.766423e-06 0)
(0.077735719 3.6592932e-06 0)
(0.076738141 -3.3969567e-06 0)
(0.077675966 3.243401e-06 0)
(0.076794049 -3.0413844e-06 0)
(0.077622973 2.8836043e-06 0)
(0.076843927 -2.7177397e-06 0)
(0.0775758 2.5712108e-06 0)
(0.076888451 -2.4291833e-06 0)
(0.077533702 2.2977955e-06 0)
(0.076928249 -2.1741148e-06 0)
(0.077496053 2.0579227e-06 0)
(0.076963886 -1.9496974e-06 0)
(0.077462307 1.8476346e-06 0)
(0.07699587 -1.7529621e-06 0)
(0.07743198 1.6637251e-06 0)
(0.077024655 -1.5811359e-06 0)
(0.077404642 1.5034723e-06 0)
(0.07705065 -1.4317413e-06 0)
(0.077379903 1.364518e-06 0)
(0.077074227 -1.3025962e-06 0)
(0.077357411 1.2448189e-06 0)
(0.077095718 -1.1917981e-06 0)
(0.077336848 1.142604e-06 0)
(0.07711543 -1.0977058e-06 0)
(0.077317922 1.0563511e-06 0)
(0.07713364 -1.0189037e-06 0)
(0.077300365 9.8475008e-07 0)
(0.077150608 -9.5419155e-07 0)
(0.077283929 9.2664468e-07 0)
(0.077166572 -9.0248868e-07 0)
(0.077268383 8.8133235e-07 0)
(0.07718176 -8.61403e-07 0)
(0.077253491 8.5030452e-07 0)
(0.077196352 -8.3203414e-07 0)
(0.077238995 7.9074112e-07 0)
(0.077210784 -1.0166533e-06 0)
(0.077226063 7.1829305e-07 0)
(0.0722136 0.0080167302 0)
(0.080410623 -0.0007539119 0)
(0.078985924 0.00041489289 0)
(0.081319864 -2.3246386e-05 0)
(0.079369754 -3.370815e-06 0)
(0.081574003 7.339822e-06 0)
(0.079662893 5.4211569e-06 0)
(0.081419653 1.7700458e-06 0)
(0.079850177 -3.0441398e-06 0)
(0.081304635 3.5300381e-06 0)
(0.07995507 -4.057346e-06 0)
(0.081222356 4.0488742e-06 0)
(0.080030977 -3.7796474e-06 0)
(0.081150936 3.6786083e-06 0)
(0.080097187 -3.4109866e-06 0)
(0.081087863 3.2593293e-06 0)
(0.080156248 -3.0549174e-06 0)
(0.081031905 2.8972488e-06 0)
(0.080208932 -2.7301812e-06 0)
(0.080982085 2.5832197e-06 0)
(0.080255958 -2.4404384e-06 0)
(0.080937622 2.3085029e-06 0)
(0.080297992 -2.1842573e-06 0)
(0.080897856 2.0675357e-06 0)
(0.080335632 -1.9588454e-06 0)
(0.080862213 1.8563076e-06 0)
(0.080369413 -1.7612373e-06 0)
(0.080830181 1.6715845e-06 0)
(0.080399817 -1.5886511e-06 0)
(0.080801304 1.5106278e-06 0)
(0.080427275 -1.4385987e-06 0)
(0.080775172 1.3710664e-06 0)
(0.080452179 -1.3088875e-06 0)
(0.080751413 1.2508462e-06 0)
(0.080474881 -1.1976052e-06 0)
(0.080729691 1.1481875e-06 0)
(0.080495704 -1.1031025e-06 0)
(0.080709697 1.0615598e-06 0)
(0.080514942 -1.0239554e-06 0)
(0.080691149 9.8964494e-07 0)
(0.080532866 -9.5895559e-07 0)
(0.080673786 9.3127491e-07 0)
(0.080549731 -9.0701524e-07 0)
(0.080657363 8.8573835e-07 0)
(0.080565776 -8.6565176e-07 0)
(0.080641636 8.5473193e-07 0)
(0.080581193 -8.3572476e-07 0)
(0.080626332 7.9392763e-07 0)
(0.080596385 -1.0276517e-06 0)
(0.080612356 7.1535964e-07 0)
(0.075834469 0.0078460102 0)
(0.082869743 -0.00081589199 0)
(0.082199355 0.00040320886 0)
(0.084549741 -2.4357477e-05 0)
(0.082565255 -5.6933431e-06 0)
(0.084846078 6.2189922e-06 0)
(0.082858038 5.7356422e-06 0)
(0.084700547 1.1893028e-06 0)
(0.083051143 -2.874175e-06 0)
(0.084579389 3.397981e-06 0)
(0.083160594 -4.0352771e-06 0)
(0.084492936 4.0384284e-06 0)
(0.083240286 -3.770058e-06 0)
(0.084417943 3.6761725e-06 0)
(0.08330992 -3.4046105e-06 0)
(0.084351666 3.2558796e-06 0)
(0.083372028 -3.0502306e-06 0)
(0.084292845 2.8936481e-06 0)
(0.083427422 -2.7263548e-06 0)
(0.084240468 2.579849e-06 0)
(0.083476866 -2.4371576e-06 0)
(0.084193721 2.305466e-06 0)
(0.08352106 -2.1813927e-06 0)
(0.084151911 2.0648396e-06 0)
(0.083560635 -1.9563301e-06 0)
(0.084114434 1.8539295e-06 0)
(0.083596153 -1.7590266e-06 0)
(0.084080753 1.6694931e-06 0)
(0.083628121 -1.5867086e-06 0)
(0.08405039 1.5087912e-06 0)
(0.083656993 -1.4368922e-06 0)
(0.084022911 1.3694536e-06 0)
(0.08368318 -1.3073876e-06 0)
(0.083997927 1.2494286e-06 0)
(0.083707053 -1.1962842e-06 0)
(0.083975084 1.1469377e-06 0)
(0.08372895 -1.1019342e-06 0)
(0.083954058 1.0604514e-06 0)
(0.083749181 -1.022914e-06 0)
(0.083934552 9.8865174e-07 0)
(0.083768032 -9.5801459e-07 0)
(0.083916292 9.3036586e-07 0)
(0.083785768 -9.0614761e-07 0)
(0.08389902 8.8487714e-07 0)
(0.083802641 -8.6475884e-07 0)
(0.083882484 8.5407663e-07 0)
(0.083818859 -8.3446146e-07 0)
(0.083866402 7.9245153e-07 0)
(0.083834783 -1.0321755e-06 0)
(0.083851401 7.0824273e-07 0)
(0.080371069 0.0079598984 0)
(0.085358404 -0.00082847684 0)
(0.085246127 0.00039127232 0)
(0.087670505 -2.5387953e-05 0)
(0.0856292 -8.2090383e-06 0)
(0.087967377 5.1139408e-06 0)
(0.085912437 5.980779e-06 0)
(0.087832479 5.8408181e-07 0)
(0.086106465 -2.6674296e-06 0)