/*--------------------------------*- C++ -*----------------------------------*\
| =========                 |                                                 |
| \\      /  F ield         | OpenFOAM: The Open Source CFD Toolbox           |
|  \\    /   O peration     | Version:  2312                                  |
|   \\  /    A nd           | Website:  www.openfoam.com                      |
|    \\/     M anipulation  |                                                 |
\*---------------------------------------------------------------------------*/
FoamFile
{
    version     2.0;
    format      ascii;
    arch        "LSB;label=32;scalar=64";
    class       volScalarField;
    location    "1";
    object      p;
}
// * * * * * * * * * * * * * * * * * * * * * * * * * * * * * * * * * * * * * //

dimensions      [0 2 -2 0 0 0 0];

internalField   nonuniform List<scalar> 
4000
(
26.549782
25.473113
25.194918
24.330787
24.097195
23.28109
23.028289
22.239815
21.963372
21.198272
20.899979
20.155734
19.837717
19.112266
18.776375
18.067986
17.715809
17.023005
16.655912
15.977412
15.596604
14.931274
14.537825
13.884638
13.47953
12.83754
12.42169
11.79
11.364285
10.742032
10.307303
9.6936444
9.2507403
8.6448388
8.1945946
7.5956156
7.1388679
6.5459727
6.0835631
5.4959072
5.0286836
4.4454159
3.9742328
3.3944957
2.9202136
2.3431439
1.8666278
1.2913575
0.81347242
0.23912577
26.546071
25.471632
25.195052
24.330799
24.097184
23.281102
23.028278
22.239826
21.963362
21.198282
20.899969
20.155743
19.837708
19.112274
18.776367
18.067993
17.715802
17.023012
16.655906
15.977418
15.596598
14.931279
14.537819
13.884643
13.479525
12.837544
12.421685
11.790004
11.364281
10.742036
10.307299
9.693648
9.2507368
8.6448421
8.1945915
7.5956186
7.138865
6.5459755
6.0835604
5.4959098
5.0286811
4.4454183
3.9742305
3.3944979
2.9202114
2.343146
1.8666257
1.2913596
0.81347028
0.23912905
26.536581
25.470506
25.195315
24.330789
24.097194
23.281101
23.028279
22.239825
21.963363
21.198281
20.89997
20.155742
19.837709
19.112273
18.776368
18.067993
17.715802
17.023011
16.655906
15.977418
15.596599
14.931279
14.53782
13.884643
13.479526
12.837544
12.421686
11.790004
11.364281
10.742036
10.3073
9.6936476
9.2507372
8.6448418
8.1945919
7.5956182
7.1388654
6.5459751
6.0835607
5.4959094
5.0286814
4.445418
3.9742308
3.3944976
2.9202117
2.3431457
1.8666259
1.2913593
0.81347035
0.23913001
26.527064
25.469453
25.195592
24.330778
24.097209
23.281094
23.028285
22.239819
21.963368
21.198276
20.899975
20.155738
19.837714
19.112269
18.776372
18.067989
17.715806
17.023008
16.65591
15.977415
15.596602
14.931276
14.537823
13.88464
13.479528
12.837541
12.421688
11.790001
11.364283
10.742034
10.307302
9.6936457
9.250739
8.6448401
8.1945935
7.5956167
7.1388669
6.5459737
6.0835621
5.4959081
5.0286827
4.4454167
3.974232
3.3944964
2.9202128
2.3431446
1.8666271
1.2913582
0.81347132
0.23912999
26.515362
25.468227
25.195828
24.330775
24.097224
23.281088
23.02829
22.239813
21.963373
21.198271
20.89998
20.155734
19.837718
19.112265
18.776376
18.067985
17.715809
17.023005
16.655913
15.977412
15.596605
14.931273
14.537825
13.884638
13.47953
12.837539
12.42169
11.789999
11.364285
10.742032
10.307304
9.693644
9.2507406
8.6448385
8.194595
7.5956152
7.1388683
6.5459724
6.0835634
5.4959069
5.0286839
4.4454156
3.9742331
3.3944953
2.9202139
2.3431435
1.8666281
1.2913571
0.81347227
0.23912986
26.506857
25.467162
25.195997
24.330783
24.09724
23.281083
23.028294
22.239809
21.963377
21.198267
20.899983
20.15573
19.837721
19.112262
18.776378
18.067983
17.715812
17.023002
16.655915
15.977409
15.596607
14.931271
14.537827
13.884636
13.479532
12.837537
12.421692
11.789998
11.364287
10.74203
10.307305
9.6936427
9.2507419
8.6448373
8.1945962
7.5956141
7.1388693
6.5459713
6.0835644
5.4959059
5.0286849
4.4454147
3.974234
3.3944944
2.9202148
2.3431427
1.8666289
1.2913563
0.81347306
0.23912978
26.496262
25.465858
25.196081
24.330811
24.097259
23.28108
23.028297
22.239806
21.96338
21.198264
20.899986
20.155728
19.837723
19.11226
18.776381
18.06798
17.715814
17.023
16.655917
15.977407
15.596609
14.931269
14.537829
13.884634
13.479534
12.837536
12.421693
11.789996
11.364288
10.742029
10.307306
9.6936416
9.250743
8.6448362
8.1945971
7.5956132
7.1388702
6.5459705
6.0835652
5.4959051
5.0286856
4.4454139
3.9742348
3.3944937
2.9202155
2.343142
1.8666296
1.2913555
0.81347375
0.23912971
26.488465
25.464978
25.196078
24.330865
24.097282
23.281079
23.0283
22.239803
21.963382
21.198262
20.899988
20.155725
19.837726
19.112257
18.776383
18.067978
17.715816
17.022998
16.655919
15.977406
15.59661
14.931268
14.53783
13.884633
13.479535
12.837535
12.421695
11.789995
11.364289
10.742028
10.307307
9.6936406
9.2507439
8.6448354
8.194598
7.5956124
7.138871
6.5459697
6.083566
5.4959044
5.0286863
4.4454132
3.9742354
3.3944931
2.9202161
2.3431414
1.8666302
1.2913549
0.8134744
0.23912962
26.480683
25.463797
25.195966
24.330929
24.097303
23.281078
23.028303
22.2398
21.963385
21.198259
20.899991
20.155723
19.837728
19.112255
18.776385
18.067977
17.715818
17.022997
16.65592
15.977404
15.596612
14.931266
14.537832
13.884632
13.479536
12.837534
12.421696
11.789994
11.36429
10.742027
10.307308
9.6936397
9.2507447
8.6448346
8.1945988
7.5956116
7.1388717
6.545969
6.0835666
5.4959038
5.0286869
4.4454126
3.974236
3.3944925
2.9202167
2.3431408
1.8666308
1.2913543
0.81347502
0.23912952
26.471923
25.462899
25.195842
24.330942
24.097308
23.281074
23.028305
22.239797
21.963387
21.198257
20.899992
20.155721
19.83773
19.112254
18.776386
18.067975
17.715819
17.022995
16.655922
15.977403
15.596613
14.931265
14.537833
13.884631
13.479537
12.837533
12.421697
11.789993
11.364291
10.742026
10.307309
9.693639
9.2507455
8.6448338
8.1945994
7.595611
7.1388724
6.5459684
6.0835672
5.4959032
5.0286875
4.4454121
3.9742365
3.394492
2.9202172
2.3431403
1.8666313
1.2913537
0.81347559
0.23912941
26.464955
25.461636
25.195757
24.330882
24.097291
23.281065
23.028305
22.239795
21.963389
21.198255
20.899994
20.15572
19.837731
19.112252
18.776388
18.067974
17.715821
17.022994
16.655923
15.977402
15.596614
14.931264
14.537834
13.88463
13.479538
12.837532
12.421697
11.789993
11.364292
10.742026
10.30731
9.6936383
9.2507461
8.6448332
8.1946001
7.5956104
7.1388729
6.5459678
6.0835678
5.4959027
5.028688
4.4454116
3.974237
3.3944915
2.9202176
2.3431398
1.8666317
1.2913532
0.81347614
0.23912929
26.456503
25.460406
25.195742
24.330815
24.097267
23.281055
23.028304
22.239792
21.96339
21.198253
20.899996
20.155718
19.837733
19.112251
18.776389
18.067972
17.715822
17.022993
16.655924
15.977401
15.596615
14.931263
14.537835
13.884629
13.479539
12.837531
12.421698
11.789992
11.364292
10.742025
10.30731
9.6936376
9.2507467
8.6448326
8.1946006
7.5956098
7.1388735
6.5459673
6.0835682
5.4959022
5.0286884
4.4454112
3.9742374
3.3944911
2.9202181
2.3431394
1.8666321
1.2913528
0.81347665
0.23912916
26.450568
25.458991
25.195636
24.330768
24.097245
23.281046
23.028304
22.23979
21.963391
21.198252
20.899997
20.155717
19.837734
19.11225
18.77639
18.067971
17.715823
17.022992
16.655925
15.9774
15.596616
14.931262
14.537835
13.884628
13.47954
12.83753
12.421699
11.789991
11.364293
10.742024
10.307311
9.6936371
9.2507473
8.6448321
8.1946011
7.5956094
7.1388739
6.5459669
6.0835687
5.4959018
5.0286889
4.4454108
3.9742378
3.3944907
2.9202184
2.3431391
1.8666325
1.2913524
0.81347714
0.23912903
26.443565
25.457784
25.19538
24.330701
24.097217
23.281036
23.028303
22.239788
21.963393
21.198251
20.899998
20.155715
19.837735
19.112248
18.776391
18.06797
17.715824
17.022991
16.655926
15.977399
15.596617
14.931262
14.537836
13.884627
13.479541
12.837529
12.421699
11.789991
11.364294
10.742024
10.307311
9.6936366
9.2507478
8.6448316
8.1946016
7.5956089
7.1388743
6.5459665
6.0835691
5.4959014
5.0286892
4.4454104
3.9742382
3.3944903
2.9202188
2.3431387
1.8666328
1.291352
0.8134776
0.2391289
26.438379
25.456529
25.195001
24.330612
24.097184
23.281024
23.028301
22.239785
21.963393
21.198249
20.9
20.155714
19.837736
19.112247
18.776392
18.067969
17.715825
17.02299
16.655927
15.977398
15.596617
14.931261
14.537837
13.884627
13.479541
12.837529
12.4217
11.78999
11.364294
10.742023
10.307312
9.6936361
9.2507482
8.6448312
8.194602
7.5956085
7.1388747
6.5459661
6.0835694
5.495901
5.0286896
4.44541
3.9742385
3.39449
2.9202191
2.3431384
1.8666332
1.2913517
0.81347804
0.23912877
26.432376
25.455254
25.194611
24.330518
24.097149
23.28101
23.028298
22.239783
21.963394
21.198248
20.900001
20.155713
19.837737
19.112247
18.776393
18.067968
17.715825
17.022989
16.655927
15.977398
15.596618
14.93126
14.537838
13.884626
13.479542
12.837528
12.421701
11.789989
11.364295
10.742023
10.307312
9.6936357
9.2507486
8.6448308
8.1946024
7.5956081
7.1388751
6.5459658
6.0835698
5.4959007
5.0286899
4.4454097
3.9742388
3.3944897
2.9202194
2.3431381
1.8666334
1.2913514
0.81347845
0.23912864
26.427886
25.453944
25.194209
24.330409
24.09711
23.280994
23.028294
22.23978
21.963395
21.198247
20.900001
20.155712
19.837738
19.112246
18.776394
18.067968
17.715826
17.022989
16.655928
15.977397
15.596619
14.93126
14.537838
13.884625
13.479542
12.837528
12.421701
11.789989
11.364295
10.742022
10.307313
9.6936353
9.250749
8.6448304
8.1946027
7.5956078
7.1388754
6.5459654
6.0835701
5.4959004
5.0286902
4.4454094
3.9742391
3.3944894
2.9202197
2.3431378
1.8666337
1.2913511
0.81347885
0.23912851
26.422865
25.45262
25.193855
24.330278
24.097065
23.280975
23.028289
22.239777
21.963395
21.198245
20.900002
20.155711
19.837739
19.112245
18.776395
18.067967
17.715827
17.022988
16.655929
15.977396
15.596619
14.931259
14.537839
13.884625
13.479543
12.837527
12.421701
11.789989
11.364295
10.742022
10.307313
9.6936349
9.2507493
8.6448301
8.194603
7.5956075
7.1388757
6.5459651
6.0835704
5.4959001
5.0286905
4.4454092
3.9742394
3.3944892
2.9202199
2.3431376
1.866634
1.2913508
0.81347922
0.23912839
26.419094
25.451371
25.193516
24.330143
24.097014
23.280953
23.028282
22.239773
21.963394
21.198244
20.900003
20.155711
19.837739
19.112244
18.776395
18.067966
17.715827
17.022987
16.655929
15.977396
15.59662
14.931259
14.537839
13.884625
13.479543
12.837527
12.421702
11.789988
11.364296
10.742022
10.307313
9.6936346
9.2507497
8.6448298
8.1946033
7.5956072
7.138876
6.5459649
6.0835706
5.4958999
5.0286907
4.4454089
3.9742396
3.3944889
2.9202202
2.3431373
1.8666342
1.2913506
0.81347958
0.23912827
26.415
25.450121
25.193187
24.330033
24.096965
23.280932
23.028275
22.239769
21.963394
21.198243
20.900003
20.15571
19.83774
19.112244
18.776396
18.067966
17.715828
17.022987
16.65593
15.977395
15.59662
14.931258
14.537839
13.884624
13.479544
12.837527
12.421702
11.789988
11.364296
10.742021
10.307314
9.6936343
9.25075
8.6448295
8.1946036
7.5956069
7.1388763
6.5459646
6.0835709
5.4958996
5.028691
4.4454087
3.9742399
3.3944887
2.9202204
2.3431371
1.8666344
1.2913504
0.81347991
0.23912816
26.411869
25.449047
25.192824
24.329954
24.096923
23.280915
23.028269
22.239765
21.963393
21.198242
20.900004
20.155709
19.837741
19.112243
18.776396
18.067965
17.715828
17.022986
16.65593
15.977395
15.596621
14.931258
14.53784
13.884624
13.479544
12.837526
12.421703
11.789988
11.364296
10.742021
10.307314
9.693634
9.2507502
8.6448293
8.1946039
7.5956067
7.1388765
6.5459644
6.0835711
5.4958994
5.0286912
4.4454085
3.9742401
3.3944885
2.9202206
2.3431369
1.8666346
1.2913502
0.81348023
0.23912805
26.408567
25.447963
25.192462
24.329887
24.096892
23.280903
23.028265
22.239763
21.963393
21.198241
20.900004
20.155708
19.837741
19.112242
18.776397
18.067965
17.715829
17.022986
16.655931
15.977394
15.596621
14.931257
14.53784
13.884623
13.479544
12.837526
12.421703
11.789987
11.364297
10.742021
10.307314
9.6936338
9.2507505
8.644829
8.1946041
7.5956065
7.1388767
6.5459642
6.0835713
5.4958992
5.0286914
4.4454083
3.9742403
3.3944883
2.9202208
2.3431367
1.8666348
1.29135
0.81348053
0.23912795
26.40597
25.447094
25.192106
24.329814
24.09687
23.280898
23.028263
22.239761
21.963393
21.19824
20.900005
20.155708
19.837741
19.112242
18.776397
18.067964
17.715829
17.022986
16.655931
15.977394
15.596621
14.931257
14.537841
13.884623
13.479544
12.837526
12.421703
11.789987
11.364297
10.742021
10.307315
9.6936335
9.2507507
8.6448288
8.1946043
7.5956062
7.1388769
6.545964
6.0835715
5.495899
5.0286916
4.4454081
3.9742404
3.3944881
2.920221
2.3431365
1.8666349
1.2913498
0.81348081
0.23912785
26.403337
25.446175
25.191785
24.329735
24.096852
23.280898
23.028263
22.239761
21.963393
21.198239
20.900005
20.155707
19.837742
19.112241
18.776398
18.067964
17.71583
17.022985
16.655931
15.977394
15.596622
14.931257
14.537841
13.884623
13.479545
12.837525
12.421703
11.789987
11.364297
10.74202
10.307315
9.6936333
9.2507509
8.6448286
8.1946045
7.5956061
7.1388771
6.5459638
6.0835717
5.4958988
5.0286917
4.4454079
3.9742406
3.394488
2.9202211
2.3431364
1.8666351
1.2913497
0.81348107
0.23912776
26.401167
25.445494
25.191492
24.329659
24.096834
23.280903
23.028264
22.23976
21.963394
21.198238
20.900005
20.155707
19.837742
19.112241
18.776398
18.067964
17.71583
17.022985
16.655932
15.977393
15.596622
14.931257
14.537841
13.884623
13.479545
12.837525
12.421704
11.789987
11.364297
10.74202
10.307315
9.6936331
9.2507511
8.6448284
8.1946047
7.5956059
7.1388773
6.5459636
6.0835719
5.4958987
5.0286919
4.4454078
3.9742408
3.3944878
2.9202213
2.3431362
1.8666352
1.2913495
0.81348132
0.23912767
26.399117
25.444731
25.191232
24.329592
24.096813
23.280911
23.028265
22.23976
21.963394
21.198238
20.900006
20.155706
19.837743
19.112241
18.776398
18.067963
17.71583
17.022985
16.655932
15.977393
15.596622
14.931256
14.537841
13.884622
13.479545
12.837525
12.421704
11.789986
11.364298
10.74202
10.307315
9.6936329
9.2507513
8.6448282
8.1946049
7.5956057
7.1388775
6.5459635
6.083572
5.4958985
5.028692
4.4454076
3.9742409
3.3944877
2.9202214
2.3431361
1.8666354
1.2913494
0.81348155
0.23912759
26.397239
25.444207
25.190998
24.329536
24.09679
23.280921
23.028266
22.23976
21.963395
21.198237
20.900006
20.155706
19.837743
19.11224
18.776399
18.067963
17.715831
17.022984
16.655932
15.977393
15.596623
14.931256
14.537842
13.884622
13.479545
12.837525
12.421704
11.789986
11.364298
10.74202
10.307315
9.6936328
9.2507515
8.6448281
8.194605
7.5956056
7.1388776
6.5459633
6.0835722
5.4958984
5.0286922
4.4454075
3.974241
3.3944876
2.9202215
2.343136
1.8666355
1.2913493
0.81348176
0.23912752
26.395724
25.443598
25.190792
24.32949
24.096766
23.280932
23.028269
22.23976
21.963395
21.198237
20.900006
20.155705
19.837743
19.11224
18.776399
18.067963
17.715831
17.022984
16.655932
15.977393
15.596623
14.931256
14.537842
13.884622
13.479546
12.837525
12.421704
11.789986
11.364298
10.74202
10.307316
9.6936326
9.2507516
8.6448279
8.1946052
7.5956054
7.1388777
6.5459632
6.0835723
5.4958982
5.0286923
4.4454074
3.9742412
3.3944874
2.9202217
2.3431358
1.8666356
1.2913492
0.81348195
0.23912745
26.39407
25.443198
25.190612
24.329454
24.096742
23.280943
23.028271
22.239761
21.963395
21.198236
20.900006
20.155705
19.837743
19.11224
18.776399
18.067962
17.715831
17.022984
16.655933
15.977393
15.596623
14.931256
14.537842
13.884622
13.479546
12.837524
12.421704
11.789986
11.364298
10.742019
10.307316
9.6936325
9.2507517
8.6448278
8.1946053
7.5956053
7.1388779
6.5459631
6.0835724
5.4958981
5.0286924
4.4454073
3.9742413
3.3944873
2.9202218
2.3431357
1.8666357
1.2913491
0.81348213
0.23912739
26.392952
25.442737
25.190461
24.329427
24.09672
23.280951
23.028275
22.239762
21.963396
21.198236
20.900006
20.155705
19.837744
19.112239
18.776399
18.067962
17.715831
17.022984
16.655933
15.977392
15.596623
14.931255
14.537842
13.884622
13.479546
12.837524
12.421705
11.789986
11.364298
10.742019
10.307316
9.6936323
9.2507519
8.6448277
8.1946054
7.5956052
7.138878
6.5459629
6.0835725
5.495898
5.0286925
4.4454072
3.9742414
3.3944872
2.9202219
2.3431356
1.8666358
1.291349
0.81348228
0.23912733
26.39158
25.442444
25.190337
24.329408
24.096703
23.280958
23.028278
22.239765
21.963397
21.198236
20.900007
20.155704
19.837744
19.112239
18.7764
18.067962
17.715831
17.022983
16.655933
15.977392
15.596623
14.931255
14.537842
13.884621
13.479546
12.837524
12.421705
11.789986
11.364298
10.742019
10.307316
9.6936322
9.250752
8.6448276
8.1946055
7.5956051
7.1388781
6.5459628
6.0835726
5.4958979
5.0286926
4.4454071
3.9742415
3.3944871
2.920222
2.3431355
1.8666359
1.2913489
0.81348242
0.23912729
26.390719
25.442114
25.190241
24.329397
24.09669
23.280963
23.028281
22.239767
21.963398
21.198236
20.900007
20.155704
19.837744
19.112239
18.7764
18.067962
17.715832
17.022983
16.655933
15.977392
15.596623
14.931255
14.537842
13.884621
13.479546
12.837524
12.421705
11.789985
11.364298
10.742019
10.307316
9.6936321
9.2507521
8.6448275
8.1946056
7.595605
7.1388782
6.5459628
6.0835727
5.4958978
5.0286927
4.445407
3.9742415
3.3944871
2.920222
2.3431355
1.8666359
1.2913489
0.81348254
0.23912725
26.38969
25.44192
25.190169
24.329391
24.096681
23.280967
23.028283
22.239771
21.963399
21.198236
20.900007
20.155704
19.837744
19.112239
18.7764
18.067962
17.715832
17.022983
16.655933
15.977392
15.596624
14.931255
14.537843
13.884621
13.479546
12.837524
12.421705
11.789985
11.364299
10.742019
10.307316
9.693632
9.2507522
8.6448274
8.1946057
7.5956049
7.1388782
6.5459627
6.0835728
5.4958978
5.0286928
4.4454069
3.9742416
3.394487
2.9202221
2.3431354
1.866636
1.2913488
0.81348264
0.23912722
26.389066
25.441688
25.190119
24.32939
24.096676
23.28097
23.028284
22.239774
21.9634
21.198236
20.900007
20.155704
19.837744
19.112238
18.7764
18.067961
17.715832
17.022983
16.655933
15.977392
15.596624
14.931255
14.537843
13.884621
13.479546
12.837524
12.421705
11.789985
11.364299
10.742019
10.307316
9.6936319
9.2507522
8.6448273
8.1946058
7.5956048
7.1388783
6.5459626
6.0835728
5.4958977
5.0286928
4.4454069
3.9742417
3.3944869
2.9202222
2.3431353
1.8666361
1.2913488
0.81348271
0.23912719
26.388345
25.441565
25.190085
24.329392
24.096674
23.280973
23.028284
22.239778
21.963401
21.198236
20.900007
20.155703
19.837744
19.112238
18.7764
18.067961
17.715832
17.022983
16.655933
15.977392
15.596624
14.931255
14.537843
13.884621
13.479547
12.837524
12.421705
11.789985
11.364299
10.742019
10.307316
9.6936319
9.2507523
8.6448272
8.1946058
7.5956048
7.1388784
6.5459626
6.0835729
5.4958977
5.0286929
4.4454068
3.9742417
3.3944869
2.9202222
2.3431353
1.8666361
1.2913488
0.81348276
0.23912718
26.387948
25.441401
25.190064
24.329396
24.096673
23.280976
23.028283
22.239781
21.963402
21.198237
20.900008
20.155703
19.837744
19.112238
18.7764
18.067961
17.715832
17.022983
16.655933
15.977392
15.596624
14.931255
14.537843
13.884621
13.479547
12.837524
12.421705
11.789985
11.364299
10.742019
10.307316
9.6936318
9.2507524
8.6448272
8.1946059
7.5956047
7.1388784
6.5459625
6.0835729
5.4958976
5.0286929
4.4454068
3.9742417
3.3944869
2.9202222
2.3431353
1.8666361
1.2913487
0.81348279
0.23912717
26.387502
25.441317
25.19005
24.3294
24.096674
23.280978
23.028283
22.239784
21.963403
21.198237
20.900008
20.155703
19.837744
19.112238
18.7764
18.067961
17.715832
17.022983
16.655934
15.977392
15.596624
14.931255
14.537843
13.884621
13.479547
12.837524
12.421705
11.789985
11.364299
10.742019
10.307316
9.6936318
9.2507524
8.6448272
8.1946059
7.5956047
7.1388784
6.5459625
6.083573
5.4958976
5.028693
4.4454067
3.9742418
3.3944868
2.9202223
2.3431353
1.8666361
1.2913487
0.81348279
0.23912718
26.387332
25.441191
25.190042
24.329403
24.096675
23.280979
23.028283
22.239786
21.963405
21.198237
20.900008
20.155703
19.837744
19.112238
18.7764
18.067961
17.715832
17.022983
16.655934
15.977392
15.596624
14.931255
14.537843
13.884621
13.479547
12.837524
12.421705
11.789985
11.364299
10.742019
10.307316
9.6936318
9.2507524
8.6448271
8.1946059
7.5956047
7.1388785
6.5459625
6.083573
5.4958976
5.028693
4.4454067
3.9742418
3.3944868
2.9202223
2.3431353
1.8666361
1.2913487
0.81348277
0.23912719
26.387151
25.441128
25.190033
24.329404
24.096676
23.280979
23.028283
22.239786
21.963407
21.198237
20.900008
20.155703
19.837744
19.112238
18.7764
18.067961
17.715832
17.022983
16.655934
15.977392
15.596624
14.931255
14.537843
13.884621
13.479547
12.837524
12.421705
11.789985
11.364299
10.742019
10.307316
9.6936318
9.2507524
8.6448271
8.1946059
7.5956047
7.1388785
6.5459625
6.083573
5.4958976
5.028693
4.4454067
3.9742418
3.3944868
2.9202222
2.3431353
1.8666361
1.2913487
0.81348274
0.23912721
26.38716
25.441058
25.190027
24.329404
24.096676
23.280979
23.028283
22.239785
21.963409
21.198237
20.900008
20.155703
19.837744
19.112238
18.7764
18.067961
17.715832
17.022983
16.655934
15.977392
15.596624
14.931255
14.537843
13.884621
13.479547
12.837524
12.421705
11.789985
11.364299
10.742019
10.307316
9.6936318
9.2507524
8.6448272
8.1946059
7.5956047
7.1388785
6.5459625
6.083573
5.4958976
5.028693
4.4454067
3.9742418
3.3944868
2.9202222
2.3431353
1.8666361
1.2913487
0.81348272
0.23912722
26.387128
25.441069
25.190026
24.329404
24.096676
23.280979
23.028283
22.239785
21.963409
21.198237
20.900008
20.155703
19.837744
19.112238
18.7764
18.067961
17.715832
17.022983
16.655934
15.977392
15.596624
14.931255
14.537843
13.884621
13.479547
12.837524
12.421705
11.789985
11.364299
10.742019
10.307316
9.6936318
9.2507524
8.6448272
8.1946059
7.5956047
7.1388785
6.5459625
6.083573
5.4958976
5.028693
4.4454067
3.9742418
3.3944868
2.9202222
2.3431353
1.8666361
1.2913487
0.81348272
0.23912722
26.387205
25.441099
25.190032
24.329404
24.096676
23.280979
23.028283
22.239786
21.963407
21.198237
20.900008
20.155703
19.837744
19.112238
18.7764
18.067961
17.715832
17.022983
16.655934
15.977392
15.596624
14.931255
14.537843
13.884621
13.479547
12.837524
12.421705
11.789985
11.364299
10.742019
10.307316
9.6936318
9.2507524
8.6448271
8.1946059
7.5956047
7.1388785
6.5459625
6.083573
5.4958976
5.028693
4.4454067
3.9742418
3.3944868
2.9202222
2.3431353
1.8666361
1.2913487
0.81348274
0.23912721
26.387321
25.441184
25.190037
24.329402
24.096675
23.280979
23.028283
22.239786
21.963405
21.198237
20.900008
20.155703
19.837744
19.112238
18.7764
18.067961
17.715832
17.022983
16.655934
15.977392
15.596624
14.931255
14.537843
13.884621
13.479547
12.837524
12.421705
11.789985
11.364299
10.742019
10.307316
9.6936318
9.2507524
8.6448271
8.1946059
7.5956047
7.1388785
6.5459625
6.083573
5.4958976
5.028693
4.4454067
3.9742418
3.3944868
2.9202223
2.3431353
1.8666361
1.2913487
0.81348277
0.23912719
26.387578
25.44127
25.190046
24.329399
24.096674
23.280978
23.028283
22.239784
21.963403
21.198237
20.900008
20.155703
19.837744
19.112238
18.7764
18.067961
17.715832
17.022983
16.655934
15.977392
15.596624
14.931255
14.537843
13.884621
13.479547
12.837524
12.421705
11.789985
11.364299
10.742019
10.307316
9.6936318
9.2507524
8.6448272
8.1946059
7.5956047
7.1388785
6.5459625
6.083573
5.4958976
5.028693
4.4454067
3.9742418
3.3944868
2.9202223
2.3431353
1.8666361
1.2913487
0.81348278
0.23912718
26.38796
25.441377
25.190056
24.329394
24.096673
23.280976
23.028283
22.239781
21.963402
21.198237
20.900008
20.155703
19.837744
19.112238
18.7764
18.067961
17.715832
17.022983
16.655933
15.977392
15.596624
14.931255
14.537843
13.884621
13.479547
12.837524
12.421705
11.789985
11.364299
10.742019
10.307316
9.6936318
9.2507524
8.6448272
8.1946059
7.5956047
7.1388784
6.5459625
6.0835729
5.4958976
5.0286929
4.4454068
3.9742417
3.3944869
2.9202222
2.3431353
1.8666361
1.2913487
0.81348278
0.23912717
26.388443
25.441501
25.190077
24.32939
24.096674
23.280973
23.028284
22.239778
21.963401
21.198236
20.900007
20.155703
19.837744
19.112238
18.7764
18.067961
17.715832
17.022983
16.655933
15.977392
15.596624
14.931255
14.537843
13.884621
13.479547
12.837524
12.421705
11.789985
11.364299
10.742019
10.307316
9.6936319
9.2507523
8.6448272
8.1946058
7.5956048
7.1388784
6.5459626
6.0835729
5.4958977
5.0286929
4.4454068
3.9742417
3.3944869
2.9202222
2.3431353
1.8666361
1.2913488
0.81348276
0.23912718
26.389102
25.441649
25.190109
24.329388
24.096676
23.28097
23.028284
22.239774
21.9634
21.198236
20.900007
20.155704
19.837744
19.112238
18.7764
18.067961
17.715832
17.022983
16.655933
15.977392
15.596624
14.931255
14.537843
13.884621
13.479546
12.837524
12.421705
11.789985
11.364299
10.742019
10.307316
9.6936319
9.2507522
8.6448273
8.1946058
7.5956048
7.1388783
6.5459626
6.0835728
5.4958977
5.0286928
4.4454069
3.9742417
3.3944869
2.9202222
2.3431353
1.8666361
1.2913488
0.81348271
0.23912719
26.389813
25.441841
25.19016
24.329389
24.096681
23.280967
23.028283
22.239771
21.963399
21.198236
20.900007
20.155704
19.837744
19.112239
18.7764
18.067962
17.715832
17.022983
16.655933
15.977392
15.596624
14.931255
14.537843
13.884621
13.479546
12.837524
12.421705
11.789985
11.364299
10.742019
10.307316
9.693632
9.2507522
8.6448274
8.1946057
7.5956049
7.1388782
6.5459627
6.0835728
5.4958978
5.0286928
4.4454069
3.9742416
3.394487
2.9202221
2.3431354
1.866636
1.2913488
0.81348263
0.23912722
26.390777
25.44206
25.190229
24.329395
24.096689
23.280963
23.028281
22.239767
21.963398
21.198236
20.900007
20.155704
19.837744
19.112239
18.7764
18.067962
17.715832
17.022983
16.655933
15.977392
15.596623
14.931255
14.537842
13.884621
13.479546
12.837524
12.421705
11.789985
11.364298
10.742019
10.307316
9.6936321
9.2507521
8.6448275
8.1946056
7.595605
7.1388782
6.5459628
6.0835727
5.4958978
5.0286927
4.445407
3.9742415
3.3944871
2.920222
2.3431355
1.8666359
1.2913489
0.81348254
0.23912725
26.39173
25.442352
25.190327
24.329407
24.096703
23.280958
23.028278
22.239765
21.963397
21.198236
20.900007
20.155704
19.837744
19.112239
18.7764
18.067962
17.715831
17.022983
16.655933
15.977392
15.596623
14.931255
14.537842
13.884621
13.479546
12.837524
12.421705
11.789986
11.364298
10.742019
10.307316
9.6936322
9.250752
8.6448276
8.1946055
7.5956051
7.1388781
6.5459628
6.0835726
5.4958979
5.0286926
4.4454071
3.9742415
3.3944871
2.920222
2.3431355
1.8666359
1.2913489
0.81348242
0.23912729
26.393002
25.442665
25.190447
24.329425
24.09672
23.280951
23.028275
22.239762
21.963396
21.198236
20.900006
20.155705
19.837744
19.112239
18.776399
18.067962
17.715831
17.022984
16.655933
15.977392
15.596623
14.931255
14.537842
13.884622
13.479546
12.837524
12.421705
11.789986
11.364298
10.742019
10.307316
9.6936323
9.2507519
8.6448277
8.1946054
7.5956052
7.138878
6.5459629
6.0835725
5.495898
5.0286925
4.4454072
3.9742414
3.3944872
2.9202219
2.3431356
1.8666358
1.291349
0.81348228
0.23912733
26.394249
25.443086
25.190599
24.329452
24.096742
23.280942
23.028271
22.239761
21.963395
21.198236
20.900006
20.155705
19.837743
19.11224
18.776399
18.067962
17.715831
17.022984
16.655933
15.977393
15.596623
14.931256
14.537842
13.884622
13.479546
12.837524
12.421704
11.789986
11.364298
10.742019
10.307316
9.6936325
9.2507517
8.6448278
8.1946053
7.5956053
7.1388779
6.5459631
6.0835724
5.4958981
5.0286924
4.4454073
3.9742413
3.3944873
2.9202218
2.3431357
1.8666357
1.2913491
0.81348212
0.23912739
26.395772
25.443502
25.190774
24.329487
24.096766
23.280931
23.028268
22.23976
21.963395
21.198237
20.900006
20.155705
19.837743
19.11224
18.776399
18.067963
17.715831
17.022984
16.655932
15.977393
15.596623
14.931256
14.537842
13.884622
13.479546
12.837525
12.421704
11.789986
11.364298
10.74202
10.307316
9.6936326
9.2507516
8.6448279
8.1946052
7.5956054
7.1388777
6.5459632
6.0835723
5.4958982
5.0286923
4.4454074
3.9742412
3.3944874
2.9202217
2.3431358
1.8666356
1.2913492
0.81348195
0.23912745
26.397444
25.444072
25.190982
24.329533
24.09679
23.28092
23.028266
22.23976
21.963395
21.198237
20.900006
20.155706
19.837743
19.11224
18.776399
18.067963
17.715831
17.022984
16.655932
15.977393
15.596623
14.931256
14.537842
13.884622
13.479545
12.837525
12.421704
11.789986
11.364298
10.74202
10.307315
9.6936327
9.2507515
8.6448281
8.194605
7.5956056
7.1388776
6.5459633
6.0835722
5.4958984
5.0286922
4.4454075
3.974241
3.3944876
2.9202215
2.3431359
1.8666355
1.2913493
0.81348176
0.23912752
26.399206
25.444614
25.191212
24.329589
24.096813
23.280911
23.028265
22.23976
21.963394
21.198238
20.900006
20.155706
19.837743
19.112241
18.776398
18.067963
17.71583
17.022985
16.655932
15.977393
15.596622
14.931256
14.537841
13.884622
13.479545
12.837525
12.421704
11.789986
11.364298
10.74202
10.307315
9.6936329
9.2507513
8.6448282
8.1946049
7.5956057
7.1388775
6.5459635
6.083572
5.4958985
5.028692
4.4454076
3.9742409
3.3944877
2.9202214
2.3431361
1.8666354
1.2913494
0.81348155
0.23912759
26.401383
25.445338
25.191473
24.329656
24.096834
23.280903
23.028264
22.23976
21.963394
21.198238
20.900005
20.155707
19.837742
19.112241
18.776398
18.067964
17.71583
17.022985
16.655932
15.977393
15.596622
14.931257
14.537841
13.884623
13.479545
12.837525
12.421704
11.789987
11.364297
10.74202
10.307315
9.6936331
9.2507511
8.6448284
8.1946047
7.5956059
7.1388773
6.5459636
6.0835719
5.4958987
5.0286919
4.4454078
3.9742408
3.3944878
2.9202213
2.3431362
1.8666352
1.2913495
0.81348132
0.23912767
26.403445
25.446036
25.191762
24.329732
24.096852
23.280898
23.028263
22.23976
21.963393
21.198239
20.900005
20.155707
19.837742
19.112241
18.776398
18.067964
17.71583
17.022985
16.655931
15.977394
15.596622
14.931257
14.537841
13.884623
13.479545
12.837525
12.421703
11.789987
11.364297
10.74202
10.307315
9.6936333
9.2507509
8.6448286
8.1946045
7.5956061
7.1388771
6.5459638
6.0835717
5.4958988
5.0286917
4.4454079
3.9742406
3.394488
2.9202211
2.3431364
1.8666351
1.2913497
0.81348107
0.23912776
26.406192
25.446916
25.192083
24.329811
24.096869
23.280897
23.028263
22.239761
21.963393
21.19824
20.900005
20.155708
19.837741
19.112242
18.776397
18.067964
17.715829
17.022986
16.655931
15.977394
15.596621
14.931257
14.537841
13.884623
13.479544
12.837526
12.421703
11.789987
11.364297
10.742021
10.307315
9.6936335
9.2507507
8.6448288
8.1946043
7.5956062
7.1388769
6.545964
6.0835715
5.495899
5.0286916
4.4454081
3.9742404
3.3944881
2.920221
2.3431365
1.8666349
1.2913498
0.81348081
0.23912785
26.408687
25.447796
25.192435
24.329884
24.096891
23.280902
23.028265
22.239763
21.963393
21.198241
20.900004
20.155708
19.837741
19.112242
18.776397
18.067965
17.715829
17.022986
16.655931
15.977394
15.596621
14.931257
14.53784
13.884623
13.479544
12.837526