/*--------------------------------*- C++ -*----------------------------------*\
| =========                 |                                                 |
| \\      /  F ield         | OpenFOAM: The Open Source CFD Toolbox           |
|  \\    /   O peration     | Version:  2312                                  |
|   \\  /    A nd           | Website:  www.openfoam.com                      |
|    \\/     M anipulation  |                                                 |
\*---------------------------------------------------------------------------*/
FoamFile
{
    version     2.0;
    format      ascii;
    arch        "LSB;label=32;scalar=64";
    class       surfaceScalarField;
    location    "1";
    object      phi;
}
// * * * * * * * * * * * * * * * * * * * * * * * * * * * * * * * * * * * * * //

dimensions      [0 3 -1 0 0 0 0];

oriented        oriented;

internalField   nonuniform List<scalar> 
7870
(
1.0189558e-10
2.3558544e-09
1.0133163e-10
5.639467e-13
9.4569133e-11
6.7624995e-12
9.3929395e-11
6.3973525e-13
9.5118867e-11
-1.1894727e-12
9.3588568e-11
1.5303001e-12
9.5066907e-11
-1.4783383e-12
9.36304e-11
1.4365097e-12
9.500552e-11
-1.3751183e-12
9.368838e-11
1.3171434e-12
9.4946282e-11
-1.2579007e-12
9.3742635e-11
1.2036489e-12
9.489306e-11
-1.1504244e-12
9.3792512e-11
1.1005491e-12
9.4844895e-11
-1.0523828e-12
9.3838256e-11
1.0066388e-12
9.4800899e-11
-9.626427e-13
9.3880304e-11
9.2059529e-13
9.4760469e-11
-8.80165e-13
9.3919061e-11
8.4140754e-13
9.4723173e-11
-8.0411245e-13
9.3954847e-11
7.6832552e-13
9.4688725e-11
-7.3387745e-13
9.398791e-11
7.008144e-13
9.4656922e-11
-6.6901225e-13
9.4018407e-11
6.3851481e-13
9.4627626e-11
-6.0921878e-13
9.4046441e-11
5.8118418e-13
9.4600761e-11
-5.5432091e-13
9.4072074e-11
5.2868655e-13
9.4576283e-11
-5.0420939e-13
9.4095336e-11
4.8094616e-13
9.4554176e-11
-4.5883963e-13
9.4116225e-11
4.379499e-13
9.4534447e-11
-4.182226e-13
9.4134735e-11
3.9971216e-13
9.4517101e-11
-3.8236686e-13
9.4150859e-11
3.662413e-13
9.450217e-11
-3.5131059e-13
9.4164556e-11
3.3761316e-13
9.4489661e-11
-3.2510517e-13
9.4175829e-11
3.1383198e-13
9.4479598e-11
-3.0376959e-13
9.418464e-11
2.9495796e-13
9.4471985e-11
-2.8734516e-13
9.4190967e-11
2.810181e-13
9.4467082e-11
-2.761149e-13
9.4196935e-11
2.7014646e-13
9.4474835e-11
-2.7789971e-13
2.5636912e-13
2.790111e-10
4.5345933e-09
2.9179696e-10
-1.2221928e-11
2.743609e-10
2.4198557e-11
2.7366615e-10
1.3344838e-12
2.749563e-10
-2.4796245e-12
2.7277596e-10
3.7106486e-12
2.7489195e-10
-3.5943235e-12
2.7282001e-10
3.5084588e-12
2.7481022e-10
-3.36533e-12
2.7290127e-10
3.2260991e-12
2.7472394e-10
-3.080569e-12
2.7297826e-10
2.9493368e-12
2.7464655e-10
-2.818717e-12
2.7304995e-10
2.6971578e-12
2.7457676e-10
-2.5791912e-12
2.7311611e-10
2.4672851e-12
2.7451301e-10
-2.3595474e-12
2.7317713e-10
2.2564736e-12
2.7445437e-10
-2.1574049e-12
2.7323352e-10
2.062265e-12
2.7440019e-10
-1.9707888e-12
2.7328566e-10
1.8828576e-12
2.7435008e-10
-1.7982946e-12
2.733339e-10
1.71699e-12
2.7430376e-10
-1.6388709e-12
2.7337845e-10
1.5638254e-12
2.7426104e-10
-1.4918153e-12
2.7341942e-10
1.4228088e-12
2.7422185e-10
-1.3567558e-12
2.734569e-10
1.293631e-12
2.7418612e-10
-1.2334226e-12
2.7349094e-10
1.1761196e-12
2.7415383e-10
-1.1217305e-12
2.735215e-10
1.0702748e-12
2.7412502e-10
-1.0217417e-12
2.7354859e-10
9.7614059e-13
2.7409967e-10
-9.3344886e-13
2.7357221e-10
8.9370957e-13
2.7407787e-10
-8.5697777e-13
2.7359225e-10
8.2323431e-13
2.7405959e-10
-7.9244158e-13
2.7360876e-10
7.6465677e-13
2.7404487e-10
-7.3988406e-13
2.7362166e-10
7.1816688e-13
2.7403372e-10
-6.9940155e-13
2.7363087e-10
6.8387277e-13
2.7402636e-10
-6.7160719e-13
2.7364022e-10
6.5628767e-13
2.7404619e-10
-6.8387771e-13
6.1952987e-13
4.4778097e-10
6.5445624e-09
4.7556839e-10
-4.0009357e-11
4.4912994e-10
5.0637e-11
4.4913896e-10
1.325463e-12
4.4973852e-10
-3.0791852e-12
4.4774636e-10
5.7028181e-12
4.4972678e-10
-5.5747429e-12
4.4777123e-10
5.4640203e-12
4.4966154e-10
-5.2556365e-12
4.478452e-10
5.0424513e-12
4.4957903e-10
-4.8144041e-12
4.4791627e-10
4.6121097e-12
4.4950509e-10
-4.4075374e-12
4.4798369e-10
4.2185545e-12
4.4943869e-10
-4.0341861e-12
4.4804649e-10
3.8594875e-12
4.4937805e-10
-3.6911141e-12
4.4810469e-10
3.5298375e-12
4.4932218e-10
-3.3748938e-12
4.4815864e-10
3.2258012e-12
4.4927042e-10
-3.0825736e-12
4.4820864e-10
2.9446432e-12
4.4922245e-10
-2.8121102e-12
4.4825499e-10
2.6844479e-12
4.4917805e-10
-2.561927e-12
4.4829786e-10
2.4440167e-12
4.4913704e-10
-2.3309971e-12
4.4833732e-10
2.2225262e-12
4.4909937e-10
-2.1188134e-12
4.4837345e-10
2.0195513e-12
4.4906501e-10
-1.9249809e-12
4.4840628e-10
1.834844e-12
4.4903395e-10
-1.7493963e-12
4.4843576e-10
1.6684616e-12
4.4900623e-10
-1.5922103e-12
4.4846189e-10
1.5204753e-12
4.4898181e-10
-1.4533734e-12
4.4848469e-10
1.3908364e-12
4.4896083e-10
-1.333126e-12
4.4850402e-10
1.280051e-12
4.4894322e-10
-1.2316464e-12
4.4851997e-10
1.1879069e-12
4.4892904e-10
-1.1489583e-12
4.4853243e-10
1.1147819e-12
4.4891826e-10
-1.085232e-12
4.4854125e-10
1.0608844e-12
4.4891096e-10
-1.0413169e-12
4.4855136e-10
1.0158866e-12
4.4894157e-10
-1.0740878e-12
9.5389758e-13
6.1474031e-10
8.387572e-09
6.5292275e-10
-7.8191809e-11
6.1924432e-10
8.4315427e-11
6.1989362e-10
6.7616702e-13
6.1988562e-10
-3.0711912e-12
6.1810057e-10
7.4878782e-12
6.1995362e-10
-7.427795e-12
6.1812061e-10
7.2970424e-12
6.1990805e-10
-7.0430741e-12
6.1818871e-10
6.7618012e-12
6.1982976e-10
-6.4554481e-12
6.1825395e-10
6.1879201e-12
6.1975942e-10
-5.913002e-12
6.1831704e-10
5.6609322e-12
6.1969652e-10
-5.4136636e-12
6.1837635e-10
5.1796575e-12
6.1963908e-10
-4.9538442e-12
6.184316e-10
4.7373145e-12
6.1958606e-10
-4.5293471e-12
6.1848299e-10
4.3288622e-12
6.1953682e-10
-4.1363981e-12
6.1853073e-10
3.9507312e-12
6.1949109e-10
-3.7724698e-12
6.1857507e-10
3.6004706e-12
6.1944869e-10
-3.4355566e-12
6.1861612e-10
3.2765847e-12
6.1940948e-10
-3.1243505e-12
6.1865394e-10
2.9780637e-12
6.1937344e-10
-2.8383165e-12
6.186886e-10
2.7043932e-12
6.1934053e-10
-2.576915e-12
6.187201e-10
2.4552692e-12
6.1931077e-10
-2.3400663e-12
6.1874838e-10
2.2308513e-12
6.1928423e-10
-2.1280573e-12
6.1877345e-10
2.0312452e-12
6.1926082e-10
-1.9407404e-12
6.1879534e-10
1.8563143e-12
6.1924074e-10
-1.7785253e-12
6.1881388e-10
1.7069072e-12
6.1922384e-10
-1.6416079e-12
6.188292e-10
1.5825517e-12
6.1921025e-10
-1.5300078e-12
6.1884116e-10
1.4838645e-12
6.1919987e-10
-1.4439425e-12
6.1884958e-10
1.4111802e-12
6.1919258e-10
-1.384315e-12
6.1885989e-10
1.348574e-12
6.1923119e-10
-1.4453918e-12
1.2602554e-12
7.6966536e-10
1.0075657e-08
8.238806e-10
-1.3240705e-10
7.8473555e-10
1.2346047e-10
7.8592195e-10
-5.1023e-13
7.8539668e-10
-2.5459262e-12
7.8383975e-10
9.0448179e-12
7.8557213e-10
-9.1601778e-12
7.8386783e-10
9.0013552e-12
7.855494e-10
-8.724642e-12
7.8393146e-10
8.3797558e-12
7.8547578e-10
-7.9997744e-12
7.8399097e-10
7.6727358e-12
7.8540924e-10
-7.3312614e-12
7.8404968e-10
7.0204874e-12
7.8534997e-10
-6.7139478e-12
7.8410542e-10
6.4242036e-12
7.8529583e-10
-6.1442554e-12
7.8415762e-10
5.8755236e-12
7.8524577e-10
-5.6174912e-12
7.8420635e-10
5.3682805e-12
7.8519916e-10
-5.1292126e-12
7.8425168e-10
4.8982053e-12
7.8515578e-10
-4.6765638e-12
7.8429389e-10
4.4623581e-12
7.8511551e-10
-4.2571761e-12
7.8433301e-10
4.0590772e-12
7.8507821e-10
-3.8695453e-12
7.8436908e-10
3.6871908e-12
7.8504391e-10
-3.5131457e-12
7.8440215e-10
3.3461519e-12
7.8501257e-10
-3.1873374e-12
7.8443222e-10
3.035615e-12
7.8498423e-10
-2.8920771e-12
7.844592e-10
2.7558848e-12
7.8495895e-10
-2.6278135e-12
7.8448312e-10
2.5070776e-12
7.8493665e-10
-2.3942692e-12
7.8450401e-10
2.2889513e-12
7.8491754e-10
-2.1920547e-12
7.8452167e-10
2.1027683e-12
7.8490144e-10
-2.0213784e-12
7.845363e-10
1.9476918e-12
7.8488849e-10
-1.8821978e-12
7.8454771e-10
1.8246454e-12
7.8487858e-10
-1.7748104e-12
7.8455568e-10
1.7340781e-12
7.848713e-10
-1.6999351e-12
7.8456585e-10
1.6540208e-12
7.8491571e-10
-1.7952544e-12
1.5374555e-12
9.2884655e-10
1.160456e-08
9.8824871e-10
-1.9180922e-10
9.4552464e-10
1.6618454e-10
9.4720437e-10
-2.1899659e-12
9.4627233e-10
-1.613892e-12
9.4496575e-10
1.0351412e-11
9.4658329e-10
-1.0777717e-11
9.4501282e-10
1.0571832e-11
9.4658591e-10
-1.0297731e-11
9.4507322e-10
9.8924613e-12
9.4651741e-10
-9.4439688e-12
9.4512716e-10
9.0629908e-12
9.464548e-10
-8.6588982e-12
9.4518145e-10
8.2938432e-12
9.4639925e-10
-7.9317511e-12
9.4523353e-10
7.5899271e-12
9.4634851e-10
-7.2592369e-12
9.4528257e-10
6.9414578e-12
9.463015e-10
-6.6364124e-12
9.4532852e-10
6.341256e-12
9.4625762e-10
-6.0583081e-12
9.4537137e-10
5.7844474e-12
9.462167e-10
-5.5218877e-12
9.4541132e-10
5.2677333e-12
9.4617866e-10
-5.0245155e-12
9.4544841e-10
4.7893232e-12
9.4614338e-10
-4.5645128e-12
9.4548259e-10
4.3479784e-12
9.4611093e-10
-4.141484e-12
9.4551395e-10
3.9431213e-12
9.4608125e-10
-3.7546375e-12
9.4554249e-10
3.5743813e-12
9.4605442e-10
-3.4040156e-12
9.4556805e-10
3.2422516e-12
9.4603051e-10
-3.0902745e-12
9.4559073e-10
2.9468584e-12
9.4600939e-10
-2.8129284e-12
9.4561054e-10
2.687802e-12
9.4599135e-10
-2.5728646e-12
9.4562727e-10
2.4668485e-12
9.459761e-10
-2.3702182e-12
9.4564112e-10
2.2826781e-12
9.4596385e-10
-2.2049354e-12
9.4565192e-10
2.1365752e-12
9.4595446e-10
-2.0773497e-12
9.4565943e-10
2.0291136e-12
9.4594725e-10
-1.9877544e-12
9.4566918e-10
1.9320886e-12
9.4599552e-10
-2.1215953e-12
1.784641e-12
1.0687899e-09
1.299352e-08
1.1462429e-09
-2.6926221e-10
1.1017575e-09
2.1066994e-10
1.1037143e-09
-4.1467292e-12
1.1025102e-09
-4.0979836e-13
1.1014802e-09
1.138145e-11
1.1029882e-09
-1.2285754e-11
1.1015556e-09
1.2004417e-11
1.103018e-09
-1.176013e-11
1.1016138e-09
1.1296712e-11
1.102955e-09
-1.0785144e-11
1.1016623e-09
1.0355662e-11
1.1028964e-09
-9.8930126e-12
1.1017121e-09
9.4781084e-12
1.1028447e-09
-9.0642641e-12
1.1017605e-09
8.6740744e-12
1.1027974e-09
-8.2961061e-12
1.1018063e-09
7.9325154e-12
1.1027535e-09
-7.5835853e-12
1.1018494e-09
7.2453533e-12
1.1027124e-09
-6.9213462e-12
1.1018896e-09
6.6072519e-12
1.1026741e-09
-6.3063171e-12
1.1019272e-09
6.0145684e-12
1.1026384e-09
-5.7356452e-12
1.1019621e-09
5.4655253e-12
1.1026052e-09
-5.2075631e-12
1.1019944e-09
4.9588187e-12
1.1025747e-09
-4.7218166e-12
1.1020239e-09
4.4938946e-12
1.1025468e-09
-4.2775144e-12
1.1020508e-09
4.0703656e-12
1.1025216e-09
-3.8747881e-12
1.1020749e-09
3.6889536e-12
1.1024991e-09
-3.5145114e-12
1.1020962e-09
3.349748e-12
1.1024792e-09
-3.195958e-12
1.1021149e-09
3.0521875e-12
1.1024623e-09
-2.9203262e-12
1.1021306e-09
2.798602e-12
1.102448e-09
-2.6876661e-12
1.1021436e-09
2.5870793e-12
1.1024365e-09
-2.4978457e-12
1.1021537e-09
2.4193447e-12
1.1024277e-09
-2.3512864e-12
1.1021607e-09
2.2960547e-12
1.1024206e-09
-2.2475969e-12
1.1021699e-09
2.1827845e-12
1.1024711e-09
-2.4227876e-12
2.0016405e-12
1.2210026e-09
1.4230268e-08
1.298234e-09
-3.4649363e-10
1.2533079e-09
2.5559603e-10
1.2554187e-09
-6.257474e-12
1.2541017e-09
9.071748e-13
1.2533848e-09
1.2098357e-11
1.2547882e-09
-1.3689104e-11
1.2534964e-09
1.3296216e-11
1.2548461e-09
-1.3109814e-11
1.2535529e-09
1.258991e-11
1.2547886e-09
-1.2020892e-11
1.2535961e-09
1.1548191e-11
1.2547342e-09
-1.1031137e-11
1.2536415e-09
1.057082e-11
1.2546863e-09
-1.0109075e-11
1.2536861e-09
9.6742956e-12
1.2546426e-09
-9.2525747e-12
1.2537286e-09
8.8464899e-12
1.2546019e-09
-8.4568768e-12
1.2537687e-09
8.0785362e-12
1.2545637e-09
-7.716361e-12
1.2538063e-09
7.3647179e-12
1.254528e-09
-7.0280545e-12
1.2538414e-09
6.7011831e-12
1.2544947e-09
-6.3889778e-12
1.2538741e-09
6.0861735e-12
1.2544638e-09
-5.7972733e-12
1.2539042e-09
5.5184249e-12
1.2544353e-09
-5.2529576e-12
1.2539318e-09
4.997383e-12
1.2544093e-09
-4.7549575e-12
1.253957e-09
4.5226559e-12
1.2543857e-09
-4.3035502e-12
1.2539794e-09
4.0952358e-12
1.2543648e-09
-3.8998678e-12
1.2539994e-09
3.7151655e-12
1.2543463e-09
-3.5428459e-12
1.2540168e-09
3.3816688e-12
1.2543305e-09
-3.234091e-12
1.2540314e-09
3.0977252e-12
1.2543172e-09
-2.9734443e-12
1.2540436e-09
2.8607078e-12
1.2543065e-09
-2.7607853e-12
1.254053e-09
2.6728387e-12
1.2542983e-09
-2.5965637e-12
1.2540595e-09
2.5348531e-12
1.2542914e-09
-2.4794805e-12
1.2540679e-09
2.4062906e-12
1.2543427e-09
-2.6975727e-12
2.1888076e-12
1.3480765e-09
1.5339941e-08
1.4434076e-09
-4.4182482e-10
1.4003138e-09
2.9868992e-10
1.4023184e-09
-8.2620966e-12
1.4010435e-09
2.1820929e-12
1.4006824e-09
1.2459394e-11
1.4019849e-09
-1.4991526e-11
1.4008356e-09
1.4445446e-11
1.4020706e-09
-1.4344793e-11
1.4008905e-09
1.3770077e-11
1.4020187e-09
-1.314915e-11
1.4009284e-09
1.2638469e-11
1.4019685e-09
-1.2071214e-11
1.4009694e-09
1.1569908e-11
1.4019245e-09
-1.1064169e-11
1.4010102e-09
1.0588605e-11
1.4018844e-09
-1.0126707e-11
1.4010493e-09
9.6815068e-12
1.4018469e-09
-9.2544703e-12
1.4010864e-09
8.8390614e-12
1.4018117e-09
-8.441695e-12
1.4011211e-09
8.0553172e-12
1.4017787e-09
-7.6856344e-12
1.4011537e-09
7.3261923e-12
1.4017479e-09
-6.9832133e-12
1.401184e-09
6.6500963e-12
1.4017193e-09
-6.3325683e-12
1.401212e-09
6.0257823e-12
1.401693e-09
-5.73397e-12
1.4012376e-09
5.4527456e-12
1.4016689e-09
-5.1862225e-12
1.4012609e-09
4.9305928e-12
1.4016471e-09
-4.6897434e-12
1.4012817e-09
4.460622e-12
1.4016278e-09
-4.245917e-12
1.4013002e-09
4.0427619e-12
1.4016106e-09
-3.853311e-12
1.4013163e-09
3.6760335e-12
1.4015962e-09
-3.5139761e-12
1.4013298e-09
3.3641115e-12
1.4015839e-09
-3.2275273e-12
1.401341e-09
3.1035463e-12
1.401574e-09
-2.9937842e-12
1.4013497e-09
2.8971482e-12
1.4015664e-09
-2.8132932e-12
1.4013556e-09
2.7456597e-12
1.4015598e-09
-2.6836243e-12
1.4013632e-09
2.6029005e-12
1.4016106e-09
-2.9450581e-12
2.3468635e-12
1.4909478e-09
1.6306743e-08
1.5832557e-09
-5.341327e-10
1.54267e-09
3.3927567e-10
1.5444634e-09
-1.0055532e-11
1.5433421e-09
3.3033804e-12
1.543376e-09
1.2425461e-11
1.5445796e-09
-1.6195058e-11
1.5435737e-09
1.5451297e-11
1.5446921e-09
-1.5463107e-11
1.5436264e-09
1.4835785e-11
1.5446454e-09
-1.4168207e-11
1.5436591e-09
1.3624789e-11
1.5445994e-09
-1.3011525e-11
1.5436957e-09
1.2473666e-11
1.5445593e-09
-1.1927857e-11
1.5437326e-09
1.1415368e-11
1.5445228e-09
-1.0916911e-11
1.5437682e-09
1.0436045e-11
1.5444887e-09
-9.9749044e-12
1.5438022e-09
9.5255547e-12
1.5444565e-09
-9.0960286e-12
1.5438341e-09
8.6777741e-12
1.5444263e-09
-8.2778777e-12
1.543864e-09
7.8885271e-12
1.5443981e-09
-7.5173634e-12
1.5438919e-09
7.1563634e-12
1.5443719e-09
-6.8125907e-12
1.5439175e-09
6.4801666e-12
1.5443477e-09
-6.1642194e-12
1.543941e-09
5.8594319e-12
1.5443256e-09
-5.5708206e-12
1.5439625e-09
5.2937743e-12
1.5443057e-09
-5.0330146e-12
1.5439815e-09
4.784835e-12
1.5442881e-09
-4.5524727e-12
1.5439984e-09
4.3324117e-12
1.5442724e-09
-4.1272837e-12
1.5440132e-09
3.9352722e-12
1.5442592e-09
-3.7600569e-12
1.5440255e-09
3.5978634e-12
1.544248e-09
-3.4500243e-12
1.5440357e-09
3.315794e-12
1.544239e-09
-3.1970737e-12
1.5440436e-09
3.0925181e-12
1.5442321e-09
-3.0017729e-12
1.544049e-09
2.928769e-12
1.5442258e-09
-2.860395e-12
1.5440556e-09
2.7730681e-12
1.5442752e-09
-3.1646376e-12
2.4768045e-12
1.6108048e-09
1.7153688e-08
1.7160767e-09
-6.3940453e-10
1.6804064e-09
3.7494593e-10
1.6819683e-09
-1.1617464e-11
1.6810439e-09
4.2278129e-12
1.6814701e-09
1.1999266e-11
1.6825731e-09
-1.7298042e-11
1.6817105e-09
1.6313928e-11
1.6827106e-09
-1.6463241e-11
1.6817605e-09
1.5785946e-11
1.682669e-09
-1.5076718e-11
1.6817879e-09
1.4505814e-11
1.6826272e-09
-1.3850733e-11
1.6818201e-09
1.3280741e-11
1.682591e-09
-1.269882e-11
1.6818531e-09
1.215328e-11
1.6825581e-09
-1.1621918e-11
1.6818853e-09
1.1108883e-11
1.6825274e-09
-1.0617004e-11
1.6819161e-09
1.0136901e-11
1.6824983e-09
-9.678324e-12
1.6819449e-09
9.2311784e-12
1.682471e-09
-8.8039201e-12
1.6819721e-09
8.3873878e-12
1.6824455e-09
-7.9907014e-12
1.6819975e-09
7.6043722e-12
1.6824217e-09
-7.2368231e-12
1.6820207e-09
6.8810985e-12
1.6823998e-09
-6.5432888e-12
1.6820421e-09
6.2171082e-12
1.6823798e-09
-5.908504e-12
1.6820616e-09
5.6120228e-12
1.6823618e-09
-5.3332782e-12
1.6820788e-09
5.0678571e-12
1.6823459e-09
-4.8195467e-12
1.6820941e-09
4.5841921e-12
1.6823317e-09
-4.3648961e-12
1.6821074e-09
4.1595729e-12
1.6823199e-09
-3.9725302e-12
1.6821185e-09
3.7992465e-12
1.6823098e-09
-3.6412783e-12
1.6821278e-09
3.4977804e-12
1.6823017e-09
-3.3710218e-12
1.6821349e-09
3.2593723e-12
1.6822955e-09
-3.1624324e-12
1.6821396e-09
3.084648e-12
1.6822896e-09
-3.010326e-12
1.6821453e-09
2.9173301e-12
1.6823367e-09
-3.3560131e-12
2.5798468e-12
1.7446901e-09
1.7866748e-08
1.8443651e-09
-7.3907959e-10
1.8134e-09
4.0591106e-10
1.8149013e-09
-1.3118748e-11
1.8141949e-09
4.9341976e-12
1.8149721e-09
1.1222006e-11
1.8159676e-09
-1.8293509e-11
1.815246e-09
1.7035512e-11
1.8161265e-09
-1.734366e-11
1.8152925e-09
1.6619915e-11
1.8160895e-09
-1.5873705e-11
1.8153148e-09
1.5280548e-11
1.8160518e-09
-1.4587814e-11
1.8153425e-09
1.3990115e-11
1.8160197e-09
-1.337604e-11
1.8153716e-09
1.280137e-11
1.8159905e-09
-1.2240789e-11
1.8154002e-09
1.1699144e-11
1.8159631e-09
-1.1179939e-11
1.8154277e-09
1.0672351e-11
1.8159372e-09
-1.0187871e-11
1.8154536e-09
9.7148436e-12
1.8159128e-09
-9.2631645e-12
1.8154779e-09
8.8222795e-12
1.81589e-09
-8.4027994e-12
1.8155007e-09
7.9937323e-12
1.8158688e-09
-7.6049327e-12
1.8155215e-09
7.2283737e-12
1.8158493e-09
-6.8710512e-12
1.8155406e-09
6.5257158e-12
1.8158314e-09
-6.1992581e-12
1.815558e-09
5.8853964e-12
1.8158154e-09
-5.590621e-12
1.8155734e-09
5.3098359e-12
1.8158012e-09
-5.0473678e-12
1.815587e-09
4.7983769e-12
1.8157886e-09
-4.5664638e-12
1.8155989e-09
4.3492974e-12
1.8157782e-09
-4.1518354e-12
1.8156087e-09
3.9687088e-12
1.8157691e-09
-3.8017245e-12
1.8156169e-09
3.6500299e-12
1.815762e-09
-3.516172e-12
1.8156232e-09
3.3982528e-12
1.8157566e-09
-3.2958605e-12
1.8156274e-09
3.2138707e-12
1.8157511e-09
-3.1340579e-12
1.8156321e-09
3.0363685e-12
1.8157952e-09
-3.5191072e-12
2.6573706e-12
1.8598223e-09
1.8464676e-08
1.9658633e-09
-8.451206e-10
1.941714e-09
4.3006037e-10
1.9432571e-09
-1.4661839e-11
1.9428e-09
5.3912632e-12
1.9438835e-09
1.0138518e-11
1.9447635e-09
-1.917352e-11
1.9441808e-09
1.7618306e-11
1.9449401e-09
-1.8102987e-11
1.9442225e-09
1.7337496e-11
1.9449073e-09
-1.6558451e-11
1.9442394e-09
1.5948377e-11
1.9448737e-09
-1.52221e-11
1.9442627e-09
1.4601108e-11
1.9448456e-09
-1.3958858e-11
1.9442879e-09
1.3358982e-11
1.94482e-09
-1.2772891e-11
1.944313e-09
1.2206233e-11
1.9447962e-09
-1.1663149e-11
1.9443371e-09
1.113139e-11
1.9447735e-09
-1.0624225e-11
1.9443599e-09
1.0128448e-11
1.944752e-09
-9.6553178e-12
1.9443813e-09
9.1929564e-12
1.944732e-09
-8.7534712e-12
1.9444014e-09
8.3243746e-12
1.9447134e-09
-7.9169226e-12
1.9444197e-09
7.5220081e-12
1.9446962e-09
-7.1475677e-12
1.9444366e-09
6.7853842e-12
1.9446806e-09
-6.4432857e-12
1.9444518e-09
6.1141513e-12
1.9446666e-09
-5.8053805e-12
1.9444653e-09
5.5111599e-12
1.9446542e-09
-5.2363332e-12
1.9444772e-09
4.9754144e-12
1.9446432e-09
-4.7324765e-12
1.9444875e-09
4.5049762e-12
1.9446342e-09
-4.2984905e-12
1.9444961e-09
4.1068286e-12
1.9446264e-09
-3.9320143e-12
1.9445032e-09
3.7731579e-12
1.9446202e-09
-3.6331689e-12
1.9445086e-09
3.5098538e-12
1.9446155e-09
-3.4027428e-12
1.9445122e-09
3.3171576e-12
1.9446105e-09
-3.2323673e-12
1.944516e-09
3.1309171e-12
1.944651e-09
-3.6540998e-12
2.7108811e-12
1.9845931e-09
1.8937833e-08
2.0836759e-09
-9.4420342e-10
2.0653844e-09
4.4835185e-10
2.0670448e-09
-1.6322179e-11
2.0668498e-09
5.5862431e-12
2.0682062e-09
8.7820553e-12
2.0689612e-09
-1.9928439e-11
2.0685147e-09
1.8064795e-11
2.0691517e-09
-1.8739963e-11
2.0685503e-09
1.7938883e-11
2.0691224e-09
-1.7130576e-11
2.0685618e-09
1.6509018e-11
2.0690929e-09
-1.5753211e-11
2.0685806e-09
1.5113367e-11
2.0690687e-09
-1.4446895e-11
2.0686019e-09
1.3825785e-11
2.0690469e-09
-1.3217913e-11
2.0686232e-09
1.2629891e-11
2.0690265e-09
-1.2066415e-11
2.068644e-09
1.1513868e-11
2.0690071e-09
-1.0987259e-11
2.0686636e-09
1.0471868e-11
2.0689887e-09
-9.980337e-12
2.0686821e-09
9.4994664e-12
2.0689715e-09
-9.0428167e-12
2.0686994e-09
8.5964136e-12
2.0689555e-09
-8.1729475e-12
2.0687152e-09
7.7622774e-12
2.0689408e-09
-7.3731763e-12
2.0687297e-09
6.9965019e-12
2.0689274e-09
-6.6409997e-12
2.0687428e-09
6.2987568e-12
2.0689154e-09
-5.9780325e-12
2.0687543e-09
5.6723489e-12
2.068905e-09
-5.3870326e-12
2.0687644e-09
5.1159221e-12
2.0688955e-09
-4.8635779e-12
2.0687732e-09
4.6272839e-12
2.068888e-09
-4.4132395e-12
2.0687805e-09
4.2143393e-12
2.0688813e-09
-4.0328487e-12
2.0687865e-09
3.8679525e-12
2.0688761e-09
-3.7228068e-12
2.068791e-09
3.5949529e-12
2.0688722e-09
-3.4838969e-12
2.0687941e-09
3.3953006e-12
2.0688678e-09
-3.3061003e-12
2.0687969e-09
3.2018367e-12
2.0689041e-09
-3.7613326e-12
2.7419606e-12
2.0951891e-09
1.9300394e-08
2.1950374e-09
-1.0440517e-09
2.1844557e-09
4.5893359e-10
2.1863135e-09
-1.818001e-11
2.1863459e-09
5.5538372e-12
2.1879428e-09
7.1851081e-12
2.1885605e-09
-2.0546063e-11
2.1882476e-09
1.837764e-11
2.1887614e-09
-1.9253746e-11
2.1882757e-09
1.8424573e-11
2.1887352e-09
-1.7590016e-11
2.1882817e-09
1.696253e-11
2.1887096e-09
-1.6181128e-11
2.1882961e-09
1.5526868e-11
2.1886893e-09
-1.4840132e-11
2.1883134e-09
1.4201758e-11
2.1886713e-09
-1.3575844e-11
2.1883311e-09
1.2970132e-11
2.1886544e-09
-1.2389769e-11
2.1883484e-09
1.1819852e-11
2.1886383e-09
-1.1277099e-11
2.1883648e-09
1.0745344e-11
2.1886229e-09
-1.0238472e-11
2.1883803e-09
9.7420872e-12
2.1886086e-09
-9.2711572e-12
2.1883948e-09
8.8102775e-12
2.1885953e-09
-8.3734919e-12
2.1884079e-09
7.9496516e-12
2.1885831e-09
-7.548373e-12
2.18842e-09
7.1596155e-12
2.188572e-09
-6.7930054e-12
2.1884309e-09
6.4398525e-12
2.1885622e-09
-6.1092853e-12
2.1884404e-09
5.7941433e-12
2.1885535e-09
-5.500193e-12
2.1884488e-09
5.2206627e-12
2.1885458e-09
-4.9605573e-12
2.188456e-09
4.7170347e-12
2.1885396e-09
-4.4968624e-12
2.1884619e-09
4.2920722e-12
2.1885342e-09
-4.1051265e-12
2.1884669e-09
3.9352546e-12
2.18853e-09
-3.7859458e-12
2.1884705e-09
3.6544533e-12
2.1885268e-09
-3.540203e-12
2.1884729e-09
3.4492125e-12
2.188523e-09
-3.3562106e-12
2.1884749e-09
3.2500085e-12
2.1885549e-09
-3.8413579e-12
2.7522423e-12
2.2120418e-09
1.9546102e-08
2.3033806e-09
-1.1353905e-09
2.2990566e-09
4.6325755e-10
2.3011152e-09
-2.0238585e-11
2.3012757e-09
5.3933744e-12
2.303094e-09
5.366768e-12
2.3035611e-09
-2.1013128e-11
2.3033791e-09
1.8559606e-11
2.3037693e-09
-1.9643878e-11
2.3033985e-09
1.8795325e-11
2.3037456e-09
-1.7937119e-11
2.3033989e-09
1.7309265e-11
2.3037239e-09
-1.6506134e-11
2.3034089e-09
1.5841901e-11
2.3037076e-09
-1.513883e-11
2.3034221e-09
1.4487195e-11
2.3036933e-09
-1.384699e-11
2.3034361e-09
1.3227304e-11
2.3036799e-09
-1.2633585e-11
2.30345e-09
1.2049771e-11
2.3036671e-09
-1.1494181e-11
2.3034631e-09
1.0949291e-11
2.3036549e-09
-1.0430206e-11
2.3034756e-09
9.9213779e-12
2.3036435e-09
-9.4390861e-12
2.3034872e-09
8.9665485e-12
2.3036329e-09
-8.5191588e-12
2.3034977e-09
8.0848433e-12
2.3036232e-09
-7.6739156e-12
2.3035073e-09
7.2755129e-12
2.3036144e-09
-6.9000935e-12
2.303516e-09
6.538267e-12
2.3036067e-09
-6.1999506e-12
2.3035234e-09
5.8773804e-12
2.3036e-09
-5.5767091e-12
2.3035301e-09
5.2905403e-12
2.3035938e-09
-5.0243288e-12
2.3035357e-09
4.7751571e-12
2.3035892e-09
-4.5503481e-12
2.3035403e-09
4.3409861e-12
2.3035849e-09
-4.1497554e-12
2.3035441e-09
3.9760558e-12
2.3035817e-09
-3.8235708e-12
2.3035469e-09
3.6893079e-12
2.3035793e-09
-3.5726479e-12
2.3035487e-09
3.4798435e-12
2.3035762e-09
-3.383687e-12
2.3035498e-09
3.2764225e-12
2.3036032e-09
-3.8948371e-12
2.743371e-12
2.3189747e-09
1.9684877e-08
2.4056825e-09
-1.2220983e-09
2.4091677e-09
4.5977227e-10
2.4115167e-09
-2.2587592e-11
2.4116448e-09
5.265305e-12
2.4136642e-09
3.3474291e-12
2.413964e-09
-2.1312987e-11
2.4139094e-09
1.861427e-11
2.4141756e-09
-1.9910085e-11
2.4139186e-09
1.9052309e-11
2.414154e-09
-1.8172493e-11
2.4139133e-09
1.7549941e-11
2.414136e-09
-1.6728869e-11
2.4139189e-09
1.6059085e-11
2.4141236e-09
-1.5343605e-11
2.4139281e-09
1.4682698e-11
2.4141131e-09
-1.4031947e-11
2.4139384e-09
1.3402013e-11
2.4141033e-09
-1.2798476e-11
2.4139488e-09
1.2204252e-11
2.4140938e-09
-1.1639176e-11
2.4139586e-09
1.1084485e-11
2.4140847e-09
-1.0556304e-11
2.413968e-09
1.0038107e-11
2.4140763e-09
-9.5473967e-12
2.4139767e-09
9.0661129e-12
2.4140684e-09
-8.6108722e-12
2.4139845e-09
8.1687327e-12
2.4140613e-09
-7.7506889e-12
2.4139917e-09
7.3451094e-12
2.4140548e-09
-6.9632217e-12
2.4139981e-09
6.5949711e-12
2.4140492e-09
-6.2510534e-12
2.4140035e-09
5.9230972e-12
2.4140444e-09
-5.6175816e-12
2.4140083e-09
5.326575e-12
2.4140399e-09
-5.0559234e-12
2.4140124e-09
4.8026904e-12
2.4140367e-09
-4.5746799e-12
2.4140156e-09
4.3621066e-12
2.4140337e-09
-4.1678223e-12
2.4140184e-09
3.9913636e-12
2.4140315e-09
-3.836699e-12
2.4140202e-09
3.7005705e-12
2.4140298e-09
-3.5822488e-12
2.4140214e-09
3.4882412e-12
2.4140273e-09
-3.3896005e-12
2.4140217e-09
3.2820586e-12
2.4140495e-09
-3.9226012e-12
2.716988e-12
2.4288431e-09
1.9713784e-08
2.5054571e-09
-1.2987123e-09
2.5148844e-09
4.5034494e-10
2.5175219e-09
-2.5225109e-11
2.5174519e-09
5.3353396e-12
2.5196541e-09
1.1452821e-12
2.5197691e-09
-2.1428066e-11
2.5198376e-09
1.8545825e-11
2.5199801e-09
-2.0052552e-11
2.5198355e-09
1.9196881e-11
2.5199602e-09
-1.8297229e-11
2.5198247e-09
1.7685531e-11
2.5199461e-09
-1.6850291e-11
2.5198258e-09
1.6179348e-11
2.5199376e-09
-1.5455355e-11
2.5198311e-09
1.4789181e-11
2.5199308e-09
-1.4131631e-11
2.5198376e-09
1.3495197e-11
2.5199245e-09
-1.2885391e-11
2.5198445e-09
1.2284285e-11
2.5199184e-09
-1.1713059e-11
2.519851e-09
1.1151849e-11
2.5199124e-09
-1.0617742e-11
2.5198572e-09
1.009331e-11
2.519907e-09
-9.5971383e-12
2.5198631e-09
9.1099805e-12
2.5199019e-09
-8.6496403e-12
2.5198682e-09
8.2024231e-12
2.5198973e-09
-7.7798219e-12
2.5198729e-09
7.369542e-12
2.5198931e-09
-6.9835066e-12
2.519877e-09
6.6110991e-12
2.5198897e-09
-6.2636867e-12
2.5198804e-09
5.9323925e-12
2.5198867e-09
-5.6239534e-12
2.5198834e-09
5.3299001e-12
2.5198839e-09
-5.0564679e-12
2.5198859e-09
4.8007591e-12
2.5198822e-09
-4.5710333e-12
2.5198878e-09
4.3565602e-12
2.5198803e-09
-4.1603842e-12
2.5198894e-09
3.9823158e-12
2.5198791e-09
-3.8264484e-12
2.5198904e-09
3.6893126e-12
2.5198782e-09
-3.5701058e-12
2.519891e-09
3.4754588e-12
2.5198764e-09
-3.3750271e-12
2.5198905e-09
3.2679888e-12
2.5198935e-09
-3.9255437e-12
2.6746979e-12
2.5323324e-09
1.9639202e-08
2.599694e-09
-1.366074e-09
2.616103e-09
4.3393597e-10
2.6190184e-09
-2.8140475e-11
2.6187004e-09
5.6532931e-12
2.6210603e-09
-1.2146116e-12
2.6209757e-09
-2.1343484e-11
2.6211629e-09
1.8358622e-11
2.6211826e-09
-2.0072243e-11
2.621149e-09
1.9230562e-11
2.6211646e-09
-1.8312818e-11
2.6211328e-09
1.7717314e-11
2.6211542e-09
-1.6871754e-11
2.6211297e-09
1.6203928e-11
2.6211497e-09
-1.5475347e-11
2.621131e-09
1.4807856e-11
2.6211466e-09
-1.4147242e-11
2.6211337e-09
1.3508044e-11
2.6211439e-09
-1.2895504e-11
2.6211371e-09
1.2291033e-11
2.6211411e-09
-1.1717023e-11
2.6211403e-09
1.1152668e-11
2.6211383e-09
-1.0615766e-11
2.6211434e-09
1.008821e-11
2.6211358e-09
-9.5895366e-12
2.6211463e-09
9.0994526e-12
2.6211334e-09
-8.6367811e-12
2.6211487e-09
8.1871568e-12
2.6211314e-09
-7.7625386e-12
2.6211509e-09
7.3500433e-12
2.6211296e-09
-6.9622048e-12
2.6211528e-09
6.5878987e-12
2.6211283e-09
-6.2391366e-12
2.6211541e-09
5.9065435e-12
2.6211272e-09
-5.5970426e-12
2.6211554e-09
5.3017366e-12
2.6211261e-09
-5.0271784e-12
2.6211563e-09
4.7705707e-12
2.6211258e-09
-4.5405389e-12
2.6211568e-09
4.3255105e-12
2.6211251e-09
-4.1286601e-12
2.6211574e-09
3.9500312e-12
2.6211249e-09
-3.7939388e-12
2.6211575e-09
3.6566844e-12
2.6211247e-09
-3.5373198e-12
2.6211575e-09
3.4426258e-12
2.6211236e-09
-3.3411021e-12
2.6211563e-09
3.2352468e-12
2.6211355e-09
-3.9046917e-12
2.6180643e-12
2.635285e-09
1.9461667e-08
2.691912e-09
-1.422701e-09
2.7129632e-09
4.1288473e-10
2.7158968e-09
-3.1074071e-11
2.7153815e-09
6.1685882e-12
2.7178787e-09
-3.7117335e-12
2.7175831e-09
-2.1047941e-11
2.7178846e-09
1.8057134e-11
2.717783e-09
-1.9970606e-11
2.7178585e-09
1.915508e-11
2.7177669e-09
-1.8221228e-11
2.7178374e-09
1.7646835e-11
2.7177606e-09
-1.6794927e-11
2.7178301e-09
1.6134372e-11
2.7177599e-09
-1.5405119e-11
2.7178275e-09
1.4740242e-11
2.7177605e-09
-1.4080291e-11
2.7178265e-09
1.3442063e-11
2.7177613e-09
-1.2830321e-11
2.7178264e-09
1.222602e-11
2.7177619e-09
-1.1652552e-11
2.7178262e-09
1.1088342e-11
2.7177623e-09
-1.0551813e-11
2.7178262e-09
1.0024279e-11
2.7177627e-09
-9.5260543e-12
2.7178262e-09
9.0359215e-12
2.7177631e-09
-8.5736611e-12
2.7178259e-09
8.1243788e-12
2.7177636e-09
-7.7002881e-12
2.7178256e-09
7.2880462e-12
2.7177641e-09
-6.9007052e-12
2.7178253e-09
6.5267551e-12
2.7177649e-09
-6.1787222e-12
2.7178245e-09
5.8468554e-12
2.7177657e-09
-5.5381845e-12
2.717824e-09
5.2433912e-12
2.7177662e-09
-4.9693387e-12
2.7178234e-09
4.7133902e-12
2.7177673e-09
-4.4845034e-12
2.7178226e-09
4.2701971e-12
2.7177678e-09
-4.0738029e-12
2.7178221e-09
3.8957404e-12
2.7177685e-09
-3.740369e-12
2.7178214e-09
3.6038249e-12
2.7177691e-09
-3.4850537e-12
2.7178209e-09
3.3908488e-12
2.7177687e-09
-3.2889395e-12
2.717819e-09
3.1849438e-12
2.7177754e-09
-3.8610947e-12
2.5485791e-12
2.7348999e-09
1.9184517e-08
2.7789957e-09
-1.4667969e-09
2.8053234e-09
3.8655704e-10
2.8081144e-09
-3.386502e-11
2.807496e-09
6.7869219e-12
2.8101062e-09
-6.3218676e-12
2.8095909e-09
-2.0532644e-11
2.8100025e-09
1.7645506e-11
2.8097814e-09
-1.9749471e-11
2.809964e-09
1.8972474e-11
2.8097675e-09
-1.8024734e-11
2.8099383e-09
1.7476005e-11
2.8097653e-09
-1.6621858e-11
2.8099271e-09
1.5972551e-11
2.8097686e-09
-1.5246575e-11
2.8099206e-09
1.4588153e-11
2.8097729e-09
-1.393257e-11
2.809916e-09
1.3299002e-11
2.8097772e-09
-1.2691553e-11
2.8099123e-09
1.2090921e-11
2.8097811e-09
-1.1521328e-11
2.8099088e-09
1.0960624e-11
2.8097846e-09
-1.042757e-11
2.8099057e-09
9.903152e-12
2.8097879e-09
-9.4083051e-12
2.8099028e-09
8.9210561e-12
2.8097911e-09
-8.4619424e-12
2.8098998e-09
8.0156427e-12
2.8097941e-09
-7.5945816e-12
2.8098971e-09
7.1850476e-12
2.8097969e-09
-6.8005095e-12
2.8098945e-09
6.4291378e-12
2.8097997e-09
-6.0839357e-12
2.8098918e-09
5.7547902e-12
2.8098024e-09
-5.44876e-12
2.8098895e-09
5.1562314e-12
2.8098045e-09
-4.8842955e-12
2.8098873e-09
4.6305397e-12