/*--------------------------------*- C++ -*----------------------------------*\
| =========                 |                                                 |
| \\      /  F ield         | OpenFOAM: The Open Source CFD Toolbox           |
|  \\    /   O peration     | Version:  2312                                  |
|   \\  /    A nd           | Website:  www.openfoam.com                      |
|    \\/     M anipulation  |                                                 |
\*---------------------------------------------------------------------------*/
FoamFile
{
    version     2.0;
    format      ascii;
    arch        "LSB;label=32;scalar=64";
    class       volSymmTensorField;
    location    "1";
    object      sigma_0;
}
// * * * * * * * * * * * * * * * * * * * * * * * * * * * * * * * * * * * * * //

dimensions      [0 2 -2 0 0 0 0];

internalField   nonuniform List<symmTensor> 
4000
(
(-1.4085111 -0.61733207 0 -0.23022122 0 0)
(-2.8542653 -0.30931912 0 -0.00083566756 0 0)
(-1.9624198 -0.25611894 0 -0.00026542815 0 0)
(-2.1483302 -0.2677311 0 -3.4974698e-05 0 0)
(-2.0040564 -0.25824617 0 4.7398235e-05 0 0)
(-2.1062724 -0.26520429 0 -5.8306449e-05 0 0)
(-2.0113472 -0.2587085 0 5.5581276e-05 0 0)
(-2.0992619 -0.26474363 0 -5.4004489e-05 0 0)
(-2.016004 -0.25902865 0 5.1656034e-05 0 0)
(-2.0949731 -0.26445249 0 -4.955661e-05 0 0)
(-2.0197829 -0.25929074 0 4.7350188e-05 0 0)
(-2.0912539 -0.26419902 0 -4.5389904e-05 0 0)
(-2.0231737 -0.25952569 0 4.33999e-05 0 0)
(-2.087936 -0.26397279 0 -4.1587643e-05 0 0)
(-2.0262569 -0.25973896 0 3.9777017e-05 0 0)
(-2.0849369 -0.26376833 0 -3.8102343e-05 0 0)
(-2.029072 -0.25993334 0 3.6439349e-05 0 0)
(-2.082203 -0.26358202 0 -3.4887717e-05 0 0)
(-2.0316541 -0.26011131 0 3.335126e-05 0 0)
(-2.0796954 -0.26341123 0 -3.1909815e-05 0 0)
(-2.0340328 -0.26027498 0 3.0485341e-05 0 0)
(-2.0773835 -0.26325385 0 -2.9144608e-05 0 0)
(-2.0362331 -0.26042611 0 2.7822768e-05 0 0)
(-2.0752439 -0.26310829 0 -2.6575864e-05 0 0)
(-2.0382757 -0.26056618 0 2.5350588e-05 0 0)
(-2.0732571 -0.26297324 0 -2.4193674e-05 0 0)
(-2.0401768 -0.26069632 0 2.3061055e-05 0 0)
(-2.0714073 -0.2628476 0 -2.1992217e-05 0 0)
(-2.0419504 -0.26081751 0 2.0950629e-05 0 0)
(-2.0696818 -0.26273053 0 -1.996916e-05 0 0)
(-2.0436079 -0.26093056 0 1.9017875e-05 0 0)
(-2.068069 -0.26262123 0 -1.8124132e-05 0 0)
(-2.0451602 -0.26103621 0 1.726345e-05 0 0)
(-2.0665582 -0.26251901 0 -1.6458742e-05 0 0)
(-2.0466164 -0.26113507 0 1.5689659e-05 0 0)
(-2.0651409 -0.26242331 0 -1.4975222e-05 0 0)
(-2.0479852 -0.26122774 0 1.4298446e-05 0 0)
(-2.063807 -0.26233345 0 -1.3675439e-05 0 0)
(-2.0492772 -0.26131491 0 1.309279e-05 0 0)
(-2.0625472 -0.26224886 0 -1.2563525e-05 0 0)
(-2.0504996 -0.26139705 0 1.2075711e-05 0 0)
(-2.0613524 -0.26216896 0 -1.1641004e-05 0 0)
(-2.0516636 -0.26147487 0 1.124968e-05 0 0)
(-2.0602121 -0.26209306 0 -1.0911877e-05 0 0)
(-2.0527779 -0.26154895 0 1.0618539e-05 0 0)
(-2.0591159 -0.26202053 0 -1.038053e-05 0 0)
(-2.0538516 -0.26161979 0 1.0196263e-05 0 0)
(-2.0580658 -0.26195133 0 -1.0004001e-05 0 0)
(-2.0550123 -0.26169467 0 1.0225622e-05 0 0)
(-2.0576381 -0.26192332 0 -9.8715649e-06 0 0)
(-1.2535973 -0.56931871 0 -0.21703687 0 0)
(-2.5196155 -0.29405689 0 -0.0029293637 0 0)
(-1.880518 -0.25192942 0 -0.0008251157 0 0)
(-1.9837479 -0.25729345 0 -3.316361e-05 0 0)
(-1.8626487 -0.24886113 0 3.0646335e-05 0 0)
(-1.9489542 -0.25521407 0 -6.4078745e-05 0 0)
(-1.8662884 -0.249085 0 6.0356685e-05 0 0)
(-1.9430037 -0.25480734 0 -5.95969e-05 0 0)
(-1.8702438 -0.24937909 0 5.7195538e-05 0 0)
(-1.9393079 -0.25453734 0 -5.4987264e-05 0 0)
(-1.8735457 -0.24962769 0 5.2503567e-05 0 0)
(-1.936052 -0.2542971 0 -5.0400698e-05 0 0)
(-1.8765135 -0.24985106 0 4.8169678e-05 0 0)
(-1.9331323 -0.25408142 0 -4.618563e-05 0 0)
(-1.8792205 -0.25005452 0 4.4168394e-05 0 0)
(-1.9304857 -0.25388587 0 -4.2316826e-05 0 0)
(-1.8816987 -0.25024051 0 4.0466398e-05 0 0)
(-1.9280683 -0.25370724 0 -3.8742272e-05 0 0)
(-1.8839759 -0.25041116 0 3.7031475e-05 0 0)
(-1.9258484 -0.25354319 0 -3.54249e-05 0 0)
(-1.8860761 -0.25056834 0 3.3836307e-05 0 0)
(-1.9238006 -0.25339187 0 -3.2339455e-05 0 0)
(-1.8880193 -0.25071358 0 3.0863529e-05 0 0)
(-1.9219058 -0.25325188 0 -2.9469315e-05 0 0)
(-1.8898223 -0.25084817 0 2.810028e-05 0 0)
(-1.9201481 -0.25312204 0 -2.6805447e-05 0 0)
(-1.8914987 -0.25097313 0 2.5538966e-05 0 0)
(-1.9185141 -0.2530014 0 -2.4342457e-05 0 0)
(-1.8930598 -0.25108932 0 2.3177658e-05 0 0)
(-1.9169931 -0.25288917 0 -2.2078607e-05 0 0)
(-1.8945155 -0.25119749 0 2.1014782e-05 0 0)
(-1.9155751 -0.25278463 0 -2.0013897e-05 0 0)
(-1.8958753 -0.25129834 0 1.9051705e-05 0 0)
(-1.9142507 -0.25268712 0 -1.8151257e-05 0 0)
(-1.8971472 -0.25139244 0 1.7292255e-05 0 0)
(-1.9130121 -0.25259611 0 -1.6493301e-05 0 0)
(-1.8983393 -0.25148037 0 1.5737543e-05 0 0)
(-1.9118498 -0.25251091 0 -1.5041145e-05 0 0)
(-1.8994612 -0.25156283 0 1.4392208e-05 0 0)
(-1.9107557 -0.25243099 0 -1.3802298e-05 0 0)
(-1.9005197 -0.25164027 0 1.3259631e-05 0 0)
(-1.9097208 -0.25235571 0 -1.277617e-05 0 0)
(-1.9015253 -0.25171344 0 1.2343091e-05 0 0)
(-1.9087354 -0.25228443 0 -1.197075e-05 0 0)
(-1.9024865 -0.25178291 0 1.1649388e-05 0 0)
(-1.9077897 -0.25221649 0 -1.1395415e-05 0 0)
(-1.9034106 -0.25184909 0 1.1204506e-05 0 0)
(-1.9068739 -0.25215083 0 -1.095222e-05 0 0)
(-1.9043684 -0.2519142 0 1.1678249e-05 0 0)
(-1.9063762 -0.25211484 0 -1.0551867e-05 0 0)
(-1.1719005 -0.5374289 0 -0.20274771 0 0)
(-2.2866238 -0.27915169 0 -0.0033951582 0 0)
(-1.7985713 -0.24738438 0 -0.0012385675 0 0)
(-1.8809856 -0.25063429 0 -5.5122832e-05 0 0)
(-1.7703 -0.24253128 0 1.273515e-05 0 0)
(-1.8474849 -0.2485479 0 -6.3193252e-05 0 0)
(-1.7722196 -0.24264545 0 5.8235278e-05 0 0)
(-1.8418692 -0.2481575 0 -5.7983301e-05 0 0)
(-1.7757292 -0.24292514 0 5.5837428e-05 0 0)
(-1.8385185 -0.24790038 0 -5.3727126e-05 0 0)
(-1.7787348 -0.24316536 0 5.1266944e-05 0 0)
(-1.8355577 -0.24766917 0 -4.9276843e-05 0 0)
(-1.7814387 -0.2433812 0 4.7065792e-05 0 0)
(-1.832894 -0.24746078 0 -4.5158641e-05 0 0)
(-1.7839087 -0.24357814 0 4.3171192e-05 0 0)
(-1.8304754 -0.24727146 0 -4.1375991e-05 0 0)
(-1.7861735 -0.24375846 0 3.9556461e-05 0 0)
(-1.8282639 -0.24709828 0 -3.787741e-05 0 0)
(-1.7882569 -0.24392413 0 3.6195447e-05 0 0)
(-1.826232 -0.24693909 0 -3.462655e-05 0 0)
(-1.7901794 -0.24407683 0 3.3063777e-05 0 0)
(-1.8243574 -0.24679219 0 -3.1599719e-05 0 0)
(-1.7919583 -0.24421797 0 3.0146956e-05 0 0)
(-1.8226235 -0.24665627 0 -2.8781222e-05 0 0)
(-1.7936083 -0.24434873 0 2.743342e-05 0 0)
(-1.8210164 -0.24653028 0 -2.616368e-05 0 0)
(-1.795141 -0.24447006 0 2.4916491e-05 0 0)
(-1.8195242 -0.2464133 0 -2.3742549e-05 0 0)
(-1.7965665 -0.24458276 0 2.2595604e-05 0 0)
(-1.8181374 -0.24630462 0 -2.1516636e-05 0 0)
(-1.7978937 -0.24468753 0 2.0469136e-05 0 0)
(-1.8168467 -0.24620353 0 -1.9486099e-05 0 0)
(-1.7991313 -0.24478505 0 1.8538956e-05 0 0)
(-1.8156437 -0.24610941 0 -1.7654846e-05 0 0)
(-1.8002864 -0.24487588 0 1.6809745e-05 0 0)
(-1.814521 -0.24602171 0 -1.6025294e-05 0 0)
(-1.8013667 -0.24496059 0 1.5281584e-05 0 0)
(-1.8134698 -0.24593978 0 -1.4597768e-05 0 0)
(-1.8023813 -0.24503987 0 1.3960495e-05 0 0)
(-1.8124825 -0.24586308 0 -1.3382285e-05 0 0)
(-1.8033364 -0.24511419 0 1.2849466e-05 0 0)
(-1.8115503 -0.24579095 0 -1.2376319e-05 0 0)
(-1.8042421 -0.24518428 0 1.1952689e-05 0 0)
(-1.8106641 -0.24572275 0 -1.1590839e-05 0 0)
(-1.8051064 -0.24525072 0 1.1279139e-05 0 0)
(-1.8098147 -0.24565785 0 -1.1039871e-05 0 0)
(-1.8059366 -0.24531395 0 1.0860153e-05 0 0)
(-1.8089898 -0.24559488 0 -1.060906e-05 0 0)
(-1.8067859 -0.24537418 0 1.1624624e-05 0 0)
(-1.8084846 -0.24555781 0 -1.0702918e-05 0 0)
(-1.1254744 -0.51253908 0 -0.18871358 0 0)
(-2.1022693 -0.26801408 0 -0.0040611914 0 0)
(-1.7146743 -0.24271344 0 -0.001691861 0 0)
(-1.7814653 -0.24400696 0 -8.0692648e-05 0 0)
(-1.6799137 -0.23621776 0 -1.4598631e-05 0 0)
(-1.7494044 -0.24189248 0 -5.6863685e-05 0 0)
(-1.6802232 -0.23620902 0 5.0844633e-05 0 0)
(-1.7439475 -0.24151103 0 -5.1213712e-05 0 0)
(-1.6832932 -0.23647247 0 4.965849e-05 0 0)
(-1.7408592 -0.24126559 0 -4.7807655e-05 0 0)
(-1.6860437 -0.23670435 0 4.5596235e-05 0 0)
(-1.7381394 -0.241043 0 -4.3898787e-05 0 0)
(-1.6885261 -0.23691279 0 4.1900024e-05 0 0)
(-1.7356852 -0.24084158 0 -4.0235884e-05 0 0)
(-1.6907971 -0.23710327 0 3.845292e-05 0 0)
(-1.733453 -0.24065823 0 -3.6866183e-05 0 0)
(-1.6928824 -0.23727795 0 3.5237542e-05 0 0)
(-1.73141 -0.2404903 0 -3.3743799e-05 0 0)
(-1.6948025 -0.23743861 0 3.2237843e-05 0 0)
(-1.7295319 -0.24033581 0 -3.083657e-05 0 0)
(-1.6965752 -0.23758678 0 2.9435194e-05 0 0)
(-1.7277993 -0.24019319 0 -2.8124803e-05 0 0)
(-1.6982154 -0.23772374 0 2.6820404e-05 0 0)
(-1.7261975 -0.24006126 0 -2.5595596e-05 0 0)
(-1.6997358 -0.23785058 0 2.4384679e-05 0 0)
(-1.7247143 -0.23993905 0 -2.3244367e-05 0 0)
(-1.7011468 -0.23796817 0 2.2122883e-05 0 0)
(-1.723339 -0.23982569 0 -2.1068185e-05 0 0)
(-1.7024573 -0.23807727 0 2.0036644e-05 0 0)
(-1.7220631 -0.23972051 0 -1.906657e-05 0 0)
(-1.7036752 -0.23817854 0 1.8124322e-05 0 0)
(-1.720878 -0.23962285 0 -1.7240103e-05 0 0)
(-1.7048086 -0.23827263 0 1.6388313e-05 0 0)
(-1.719776 -0.23953209 0 -1.5593543e-05 0 0)
(-1.705864 -0.23836009 0 1.4834012e-05 0 0)
(-1.7187503 -0.2394477 0 -1.4128809e-05 0 0)
(-1.7068487 -0.23844151 0 1.3460065e-05 0 0)
(-1.7177923 -0.23936901 0 -1.2845269e-05 0 0)
(-1.707771 -0.23851754 0 1.2273684e-05 0 0)
(-1.716895 -0.23929551 0 -1.1754872e-05 0 0)
(-1.7086372 -0.23858867 0 1.1276674e-05 0 0)
(-1.7160499 -0.2392265 0 -1.0852393e-05 0 0)
(-1.7094566 -0.23865565 0 1.0473547e-05 0 0)
(-1.7152486 -0.23916137 0 -1.0151182e-05 0 0)
(-1.7102369 -0.23871906 0 9.8739639e-06 0 0)
(-1.7144821 -0.23909947 0 -9.6671504e-06 0 0)
(-1.710985 -0.23877934 0 9.510501e-06 0 0)
(-1.7137362 -0.23903914 0 -9.2569207e-06 0 0)
(-1.7117391 -0.23883494 0 1.0574372e-05 0 0)
(-1.7132235 -0.23900063 0 -9.7031989e-06 0 0)
(-1.075582 -0.48265437 0 -0.1713499 0 0)
(-1.9203245 -0.25641595 0 -0.0044569463 0 0)
(-1.624279 -0.23731177 0 -0.0020649975 0 0)
(-1.6841108 -0.23740073 0 -0.00012182296 0 0)
(-1.5910966 -0.22987556 0 -4.3030998e-05 0 0)
(-1.6543077 -0.23525107 0 -5.113024e-05 0 0)
(-1.5904149 -0.22976469 0 4.3602501e-05 0 0)
(-1.6489711 -0.23487236 0 -4.4386256e-05 0 0)
(-1.5930817 -0.23001258 0 4.349494e-05 0 0)
(-1.6460906 -0.23463675 0 -4.183349e-05 0 0)
(-1.5956048 -0.23023684 0 3.9896818e-05 0 0)
(-1.6435781 -0.23442202 0 -3.8474188e-05 0 0)
(-1.5978952 -0.2304386 0 3.6694967e-05 0 0)
(-1.6413064 -0.23422699 0 -3.5267696e-05 0 0)
(-1.5999939 -0.23062325 0 3.3693255e-05 0 0)
(-1.639237 -0.23404912 0 -3.2312014e-05 0 0)
(-1.6019234 -0.23079281 0 3.0877866e-05 0 0)
(-1.6373413 -0.23388602 0 -2.9568106e-05 0 0)
(-1.6037015 -0.23094889 0 2.8241662e-05 0 0)
(-1.6355979 -0.23373587 0 -2.7007807e-05 0 0)
(-1.6053437 -0.23109291 0 2.5771497e-05 0 0)
(-1.6339899 -0.23359725 0 -2.4615352e-05 0 0)
(-1.6068628 -0.23122602 0 2.3462873e-05 0 0)
(-1.6325042 -0.23346906 0 -2.2380154e-05 0 0)
(-1.6082701 -0.23134921 0 2.1309517e-05 0 0)
(-1.63113 -0.2333504 0 -2.0300232e-05 0 0)
(-1.6095747 -0.23146332 0 1.9307801e-05 0 0)
(-1.6298576 -0.23324048 0 -1.8374075e-05 0 0)
(-1.6107845 -0.23156903 0 1.7461079e-05 0 0)
(-1.6286794 -0.23313864 0 -1.6601772e-05 0 0)
(-1.6119068 -0.231667 0 1.5767604e-05 0 0)
(-1.6275875 -0.23304425 0 -1.4984075e-05 0 0)
(-1.6129488 -0.23175784 0 1.4230217e-05 0 0)
(-1.6265747 -0.23295672 0 -1.3526566e-05 0 0)
(-1.6139168 -0.2318421 0 1.2854787e-05 0 0)
(-1.6256344 -0.23287551 0 -1.2230409e-05 0 0)
(-1.6148176 -0.23192036 0 1.1638382e-05 0 0)
(-1.6247586 -0.23279995 0 -1.1093897e-05 0 0)
(-1.615659 -0.23199327 0 1.0589422e-05 0 0)
(-1.6239408 -0.23272954 0 -1.0130827e-05 0 0)
(-1.616447 -0.23206135 0 9.7080727e-06 0 0)
(-1.6231728 -0.23266357 0 -9.3330082e-06 0 0)
(-1.6171903 -0.23212532 0 8.9989466e-06 0 0)
(-1.6224465 -0.23260141 0 -8.7152588e-06 0 0)
(-1.6178965 -0.23218578 0 8.4713035e-06 0 0)
(-1.6217535 -0.23254244 0 -8.293814e-06 0 0)
(-1.6185721 -0.23224321 0 8.154515e-06 0 0)
(-1.6210789 -0.2324848 0 -7.8994739e-06 0 0)
(-1.6192442 -0.23229485 0 9.4264635e-06 0 0)
(-1.6205715 -0.23244556 0 -8.6257401e-06 0 0)
(-1.0432467 -0.4622829 0 -0.15978338 0 0)
(-1.7514291 -0.24537451 0 -0.0047875677 0 0)
(-1.5323846 -0.23142074 0 -0.002346608 0 0)
(-1.5884251 -0.23077432 0 -0.00017908334 0 0)
(-1.5040029 -0.22351152 0 -7.2599433e-05 0 0)
(-1.5619675 -0.22861777 0 -4.7502968e-05 0 0)
(-1.5029099 -0.22331657 0 3.7410426e-05 0 0)
(-1.5568152 -0.22823913 0 -3.8601712e-05 0 0)
(-1.5052216 -0.22354901 0 3.8348722e-05 0 0)
(-1.5541092 -0.22801181 0 -3.6780308e-05 0 0)
(-1.5075346 -0.22376594 0 3.5099954e-05 0 0)
(-1.5517798 -0.22780434 0 -3.3896376e-05 0 0)
(-1.5096518 -0.22396148 0 3.230469e-05 0 0)
(-1.549672 -0.22761528 0 -3.1073301e-05 0 0)
(-1.5115954 -0.22414064 0 2.9675266e-05 0 0)
(-1.5477493 -0.22744255 0 -2.846447e-05 0 0)
(-1.5133844 -0.22430537 0 2.7195163e-05 0 0)
(-1.5459866 -0.227284 0 -2.6038148e-05 0 0)
(-1.5150342 -0.22445712 0 2.4864195e-05 0 0)
(-1.5443653 -0.22713799 0 -2.3769521e-05 0 0)
(-1.5165582 -0.22459717 0 2.2673539e-05 0 0)
(-1.5428703 -0.22700318 0 -2.1646015e-05 0 0)
(-1.5179675 -0.22472657 0 2.0622825e-05 0 0)
(-1.54149 -0.22687859 0 -1.9658911e-05 0 0)
(-1.5192721 -0.22484625 0 1.8707841e-05 0 0)
(-1.5402149 -0.22676337 0 -1.7808296e-05 0 0)
(-1.52048 -0.22495697 0 1.6925883e-05 0 0)
(-1.5390362 -0.22665677 0 -1.6093865e-05 0 0)
(-1.5215983 -0.22505938 0 1.5281932e-05 0 0)
(-1.5379468 -0.22655819 0 -1.4515876e-05 0 0)
(-1.5226336 -0.22515412 0 1.3773937e-05 0 0)
(-1.5369395 -0.226467 0 -1.3075331e-05 0 0)
(-1.5235928 -0.22524179 0 1.2405093e-05 0 0)
(-1.5360075 -0.22638262 0 -1.177842e-05 0 0)
(-1.5244815 -0.22532291 0 1.1181571e-05 0 0)
(-1.5351447 -0.22630451 0 -1.0625437e-05 0 0)
(-1.5253063 -0.22539809 0 1.0098927e-05 0 0)
(-1.5343434 -0.22623202 0 -9.6139451e-06 0 0)
(-1.5260746 -0.22546795 0 9.1667525e-06 0 0)
(-1.5335974 -0.22616463 0 -8.7589536e-06 0 0)
(-1.5267919 -0.22553303 0 8.3833073e-06 0 0)
(-1.5328988 -0.22610163 0 -8.0495348e-06 0 0)
(-1.5274668 -0.22559405 0 7.753387e-06 0 0)
(-1.5322401 -0.2260424 0 -7.5018083e-06 0 0)
(-1.5281062 -0.22565162 0 7.2853379e-06 0 0)
(-1.5316132 -0.2259863 0 -7.1310612e-06 0 0)
(-1.5287165 -0.22570625 0 7.0033926e-06 0 0)
(-1.5310033 -0.22593135 0 -6.7454305e-06 0 0)
(-1.529316 -0.22575432 0 8.4122839e-06 0 0)
(-1.5305086 -0.22589172 0 -7.660956e-06 0 0)
(-1.0028895 -0.43460599 0 -0.14373059 0 0)
(-1.5932819 -0.23444579 0 -0.0049066642 0 0)
(-1.4409298 -0.22509856 0 -0.0025177887 0 0)
(-1.494295 -0.22412593 0 -0.00025657904 0 0)
(-1.4185797 -0.21712329 0 -0.00010524892 0 0)
(-1.4722267 -0.22198701 0 -4.6176162e-05 0 0)
(-1.4177149 -0.21686577 0 3.1771723e-05 0 0)
(-1.4674082 -0.22160891 0 -3.3652693e-05 0 0)
(-1.4197545 -0.21708358 0 3.3944835e-05 0 0)
(-1.4648661 -0.22138887 0 -3.2413572e-05 0 0)
(-1.4218758 -0.21729336 0 3.0974055e-05 0 0)
(-1.4627016 -0.22118822 0 -2.9948207e-05 0 0)
(-1.4238349 -0.21748293 0 2.8519551e-05 0 0)
(-1.4607432 -0.22100488 0 -2.7455039e-05 0 0)
(-1.4256371 -0.21765684 0 2.6208106e-05 0 0)
(-1.4589547 -0.22083711 0 -2.514335e-05 0 0)
(-1.4272975 -0.21781689 0 2.4015541e-05 0 0)
(-1.4573142 -0.22068299 0 -2.2989585e-05 0 0)
(-1.4288296 -0.21796442 0 2.1946825e-05 0 0)
(-1.4558052 -0.220541 0 -2.097177e-05 0 0)
(-1.430245 -0.21810058 0 1.9996866e-05 0 0)
(-1.4544143 -0.22040995 0 -1.9080128e-05 0 0)
(-1.4315533 -0.21822633 0 1.8168609e-05 0 0)
(-1.4531313 -0.2202889 0 -1.730722e-05 0 0)
(-1.4327633 -0.21834252 0 1.6459561e-05 0 0)
(-1.4519477 -0.22017709 0 -1.5654911e-05 0 0)
(-1.433882 -0.21844988 0 1.4867858e-05 0 0)
(-1.4508554 -0.2200738 0 -1.412388e-05 0 0)
(-1.434916 -0.21854902 0 1.3399677e-05 0 0)
(-1.4498479 -0.21997846 0 -1.2714454e-05 0 0)
(-1.4358714 -0.21864054 0 1.2052599e-05 0 0)
(-1.4489185 -0.21989044 0 -1.1427682e-05 0 0)
(-1.4367544 -0.21872505 0 1.0830169e-05 0 0)
(-1.448061 -0.21980919 0 -1.0270403e-05 0 0)
(-1.4375703 -0.21880306 0 9.738725e-06 0 0)
(-1.4472692 -0.21973418 0 -9.2419121e-06 0 0)
(-1.4383256 -0.21887517 0 8.772278e-06 0 0)
(-1.4465361 -0.21966472 0 -8.3390238e-06 0 0)
(-1.4390269 -0.21894201 0 7.9417439e-06 0 0)
(-1.4458557 -0.21960032 0 -7.5780557e-06 0 0)
(-1.4396799 -0.21900412 0 7.2432668e-06 0 0)
(-1.4452204 -0.21954026 0 -6.9453621e-06 0 0)
(-1.4402925 -0.21906222 0 6.6819494e-06 0 0)
(-1.4446231 -0.21948392 0 -6.4579885e-06 0 0)
(-1.4408713 -0.21911693 0 6.2650168e-06 0 0)
(-1.4440563 -0.21943065 0 -6.130046e-06 0 0)
(-1.4414225 -0.2191688 0 6.0109239e-06 0 0)
(-1.4435051 -0.21937841 0 -5.7511927e-06 0 0)
(-1.4419572 -0.21921364 0 7.5004709e-06 0 0)
(-1.4430285 -0.21933874 0 -6.7953701e-06 0 0)
(-0.97646937 -0.41541426 0 -0.1328187 0 0)
(-1.447313 -0.22434596 0 -0.0051156649 0 0)
(-1.3510452 -0.21840342 0 -0.0025794523 0 0)
(-1.4017817 -0.21745632 0 -0.00035480665 0 0)
(-1.3348737 -0.21070703 0 -0.00014057599 0 0)
(-1.3850052 -0.21535445 0 -4.6708353e-05 0 0)
(-1.3348255 -0.21041167 0 2.6305512e-05 0 0)
(-1.3807085 -0.21498074 0 -2.9293583e-05 0 0)
(-1.3366977 -0.2106167 0 2.9986947e-05 0 0)
(-1.3783367 -0.21476744 0 -2.8478053e-05 0 0)
(-1.3386492 -0.21081953 0 2.7267003e-05 0 0)
(-1.3763235 -0.21457326 0 -2.6391136e-05 0 0)
(-1.3404635 -0.21100334 0 2.5111029e-05 0 0)
(-1.3745022 -0.21439543 0 -2.4194668e-05 0 0)
(-1.3421358 -0.21117216 0 2.3082899e-05 0 0)
(-1.3728374 -0.21423248 0 -2.2149299e-05 0 0)
(-1.343678 -0.21132766 0 2.1148093e-05 0 0)
(-1.3713097 -0.21408268 0 -2.0240233e-05 0 0)
(-1.3451016 -0.21147104 0 1.9315258e-05 0 0)
(-1.3699046 -0.21394466 0 -1.8448163e-05 0 0)
(-1.3464166 -0.21160336 0 1.7582218e-05 0 0)
(-1.3686103 -0.21381733 0 -1.6765725e-05 0 0)
(-1.3476314 -0.21172548 0 1.5954953e-05 0 0)
(-1.3674177 -0.21369981 0 -1.518653e-05 0 0)
(-1.3487536 -0.2118382 0 1.4432419e-05 0 0)
(-1.3663189 -0.2135914 0 -1.3713871e-05 0 0)
(-1.3497898 -0.2119422 0 1.3013184e-05 0 0)
(-1.3653068 -0.21349143 0 -1.2349317e-05 0 0)
(-1.3507457 -0.21203806 0 1.1704603e-05 0 0)
(-1.3643753 -0.21339932 0 -1.1092957e-05 0 0)
(-1.3516271 -0.21212637 0 1.0503789e-05 0 0)
(-1.3635181 -0.21331447 0 -9.9460197e-06 0 0)
(-1.3524397 -0.21220773 0 9.4145734e-06 0 0)
(-1.3627293 -0.21323635 0 -8.9158012e-06 0 0)
(-1.3531886 -0.21228262 0 8.4433305e-06 0 0)
(-1.3620031 -0.21316441 0 -8.0005327e-06 0 0)
(-1.3538798 -0.21235169 0 7.5826522e-06 0 0)
(-1.3613327 -0.21309797 0 -7.1966404e-06 0 0)
(-1.3545198 -0.21241553 0 6.8447111e-06 0 0)
(-1.3607125 -0.21303654 0 -6.5211703e-06 0 0)
(-1.3551138 -0.2124747 0 6.2234362e-06 0 0)
(-1.3601351 -0.21297938 0 -5.9581089e-06 0 0)
(-1.3556695 -0.21252993 0 5.7244118e-06 0 0)
(-1.3595939 -0.21292588 0 -5.5254833e-06 0 0)
(-1.3561931 -0.21258182 0 5.3536232e-06 0 0)
(-1.3590816 -0.21287541 0 -5.2356254e-06 0 0)
(-1.3566906 -0.21263097 0 5.1237018e-06 0 0)
(-1.3585842 -0.21282586 0 -4.8640435e-06 0 0)
(-1.3571674 -0.21267283 0 6.6498439e-06 0 0)
(-1.3581291 -0.21278646 0 -5.996462e-06 0 0)
(-0.94864012 -0.3948177 0 -0.12140725 0 0)
(-1.3119489 -0.21439677 0 -0.0052126146 0 0)
(-1.2640298 -0.21137115 0 -0.0025242434 0 0)
(-1.3112155 -0.21076403 0 -0.00046368693 0 0)
(-1.2531316 -0.20426746 0 -0.0001743126 0 0)
(-1.3002793 -0.20871524 0 -4.7476427e-05 0 0)
(-1.2542475 -0.20395226 0 2.127458e-05 0 0)
(-1.2966811 -0.20835353 0 -2.5334357e-05 0 0)
(-1.2560622 -0.20414815 0 2.6366358e-05 0 0)
(-1.2945006 -0.20814739 0 -2.4875764e-05 0 0)
(-1.2578701 -0.20434448 0 2.3875572e-05 0 0)
(-1.2926301 -0.20795943 0 -2.3131895e-05 0 0)
(-1.2595522 -0.20452273 0 2.1988021e-05 0 0)
(-1.2909354 -0.20778692 0 -2.1205892e-05 0 0)
(-1.2611048 -0.20468662 0 2.0217105e-05 0 0)
(-1.2893852 -0.20762866 0 -1.9403346e-05 0 0)
(-1.2625377 -0.20483767 0 1.8517567e-05 0 0)
(-1.2879623 -0.2074831 0 -1.7718027e-05 0 0)
(-1.2638607 -0.20497696 0 1.690073e-05 0 0)
(-1.2866539 -0.20734901 0 -1.6132972e-05 0 0)
(-1.2650824 -0.20510547 0 1.5367028e-05 0 0)
(-1.2854496 -0.20722536 0 -1.4642989e-05 0 0)
(-1.2662102 -0.20522398 0 1.3924845e-05 0 0)
(-1.2843411 -0.20711137 0 -1.3242356e-05 0 0)
(-1.2672509 -0.20533323 0 1.2574384e-05 0 0)
(-1.2833215 -0.20700636 0 -1.1935598e-05 0 0)
(-1.2682102 -0.20543387 0 1.1314647e-05 0 0)
(-1.2823841 -0.20690969 0 -1.0725015e-05 0 0)
(-1.2690936 -0.20552645 0 1.0153813e-05 0 0)
(-1.2815234 -0.20682082 0 -9.6104193e-06 0 0)
(-1.2699062 -0.20561156 0 9.088478e-06 0 0)
(-1.2807332 -0.20673914 0 -8.5930379e-06 0 0)
(-1.2706535 -0.20568977 0 8.1227846e-06 0 0)
(-1.2800081 -0.20666414 0 -7.6806711e-06 0 0)
(-1.2713404 -0.20576157 0 7.2630216e-06 0 0)
(-1.2793426 -0.20659525 0 -6.8703925e-06 0 0)
(-1.2719725 -0.20582761 0 6.5003442e-06 0 0)
(-1.2787301 -0.2065318 0 -6.1582116e-06 0 0)
(-1.272556 -0.20588848 0 5.8483218e-06 0 0)
(-1.2781652 -0.2064733 0 -5.5620049e-06 0 0)
(-1.2730959 -0.20594475 0 5.2985112e-06 0 0)
(-1.277641 -0.20641901 0 -5.0634627e-06 0 0)
(-1.2735995 -0.20599714 0 4.8571146e-06 0 0)
(-1.277151 -0.20636832 0 -4.6812801e-06 0 0)
(-1.2740727 -0.20604627 0 4.5288221e-06 0 0)
(-1.2766887 -0.20632058 0 -4.426021e-06 0 0)
(-1.2745212 -0.20609274 0 4.3207025e-06 0 0)
(-1.2762403 -0.20627371 0 -4.0627909e-06 0 0)
(-1.2749459 -0.20613186 0 5.8465598e-06 0 0)
(-1.2758092 -0.20623484 0 -5.2557322e-06 0 0)
(-0.92300417 -0.37114699 0 -0.10747693 0 0)
(-1.1906352 -0.20520763 0 -0.005232919 0 0)
(-1.1790675 -0.20409637 0 -0.0024042395 0 0)
(-1.2240995 -0.20399154 0 -0.00053653708 0 0)
(-1.1738741 -0.19780064 0 -0.00019716353 0 0)
(-1.2182141 -0.20207139 0 -4.6742532e-05 0 0)
(-1.176054 -0.19748805 0 1.6981581e-05 0 0)
(-1.2153163 -0.2017266 0 -2.1628141e-05 0 0)
(-1.1778611 -0.19767752 0 2.306845e-05 0 0)
(-1.2133387 -0.20152832 0 -2.1552932e-05 0 0)
(-1.1795502 -0.19786811 0 2.07631e-05 0 0)
(-1.2116066 -0.2013466 0 -2.0130138e-05 0 0)
(-1.1811131 -0.19804111 0 1.9114585e-05 0 0)
(-1.2100307 -0.20117931 0 -1.8453288e-05 0 0)
(-1.1825554 -0.19820021 0 1.7577647e-05 0 0)
(-1.2085874 -0.20102565 0 -1.6873686e-05 0 0)
(-1.1838868 -0.1983469 0 1.609387e-05 0 0)
(-1.2072623 -0.20088427 0 -1.5394177e-05 0 0)
(-1.1851161 -0.19848216 0 1.4676028e-05 0 0)
(-1.2060443 -0.20075406 0 -1.400009e-05 0 0)
(-1.1862508 -0.19860689 0 1.3326451e-05 0 0)
(-1.2049242 -0.20063409 0 -1.2688141e-05 0 0)
(-1.1872973 -0.1987218 0 1.2055727e-05 0 0)
(-1.2038946 -0.20052361 0 -1.1453115e-05 0 0)
(-1.1882617 -0.19882758 0 1.0865073e-05 0 0)
(-1.2029492 -0.200422 0 -1.0300478e-05 0 0)
(-1.1891493 -0.19892487 0 9.7535951e-06 0 0)
(-1.2020817 -0.20032864 0 -9.2331986e-06 0 0)
(-1.1899649 -0.19901417 0 8.7302753e-06 0 0)
(-1.201287 -0.200243 0 -8.250556e-06 0 0)
(-1.1907134 -0.19909607 0 7.7911574e-06 0 0)
(-1.2005594 -0.20016449 0 -7.3539156e-06 0 0)
(-1.1914001 -0.19917114 0 6.9406138e-06 0 0)
(-1.1998936 -0.20009258 0 -6.5513957e-06 0 0)
(-1.1920294 -0.19923988 0 6.1847406e-06 0 0)
(-1.1992843 -0.20002672 0 -5.8388827e-06 0 0)
(-1.1926068 -0.19930292 0 5.5134248e-06 0 0)
(-1.1987253 -0.19996623 0 -5.2123186e-06 0 0)
(-1.1931381 -0.19936085 0 4.9414974e-06 0 0)
(-1.1982115 -0.19991063 0 -4.6898513e-06 0 0)
(-1.1936283 -0.19941426 0 4.4581623e-06 0 0)
(-1.1977361 -0.19985916 0 -4.2512669e-06 0 0)
(-1.1940841 -0.19946387 0 4.0703714e-06 0 0)
(-1.1972933 -0.19981122 0 -3.9160025e-06 0 0)
(-1.194511 -0.19951027 0 3.7814723e-06 0 0)
(-1.1968765 -0.19976617 0 -3.6923814e-06 0 0)
(-1.1949149 -0.19955412 0 3.5934423e-06 0 0)
(-1.1964731 -0.19972194 0 -3.3388834e-06 0 0)
(-1.1952926 -0.1995907 0 5.0883289e-06 0 0)
(-1.1960673 -0.19968381 0 -4.5719218e-06 0 0)
(-0.90620953 -0.35499376 0 -0.098452951 0 0)
(-1.0828734 -0.19593681 0 -0.0050427375 0 0)
(-1.0935669 -0.19681389 0 -0.0023615255 0 0)
(-1.1437806 -0.19714522 0 -0.00048890869 0 0)
(-1.0977191 -0.19125494 0 -0.00018778251 0 0)
(-1.1392062 -0.19542199 0 -3.9027209e-05 0 0)
(-1.1004166 -0.19102032 0 1.449885e-05 0 0)
(-1.1366775 -0.19510206 0 -1.7952991e-05 0 0)
(-1.1021424 -0.19120622 0 2.0065787e-05 0 0)
(-1.1348546 -0.19491084 0 -1.848811e-05 0 0)
(-1.103709 -0.19139085 0 1.7888394e-05 0 0)
(-1.133245 -0.19473484 0 -1.735949e-05 0 0)
(-1.1051585 -0.19155861 0 1.645963e-05 0 0)
(-1.1317787 -0.19457258 0 -1.5910015e-05 0 0)
(-1.1064974 -0.191713 0 1.5137915e-05 0 0)
(-1.1304352 -0.19442342 0 -1.4535408e-05 0 0)
(-1.107734 -0.19185538 0 1.3853184e-05 0 0)
(-1.1292018 -0.19428618 0 -1.3246025e-05 0 0)
(-1.1088755 -0.19198664 0 1.2619496e-05 0 0)
(-1.1280688 -0.19415983 0 -1.2028955e-05 0 0)
(-1.1099286 -0.19210759 0 1.1440974e-05 0 0)
(-1.1270279 -0.19404352 0 -1.088257e-05 0 0)
(-1.1108989 -0.19221891 0 1.032985e-05 0 0)
(-1.1260724 -0.19393656 0 -9.8018636e-06 0 0)
(-1.1117917 -0.19232123 0 9.2882136e-06 0 0)
(-1.1251966 -0.19383835 0 -8.7930817e-06 0 0)
(-1.1126121 -0.19241514 0 8.3153004e-06 0 0)
(-1.1243948 -0.1937483 0 -7.8597186e-06 0 0)
(-1.1133642 -0.19250117 0 7.4205936e-06 0 0)
(-1.123662 -0.19366589 0 -7.0005241e-06 0 0)
(-1.1140529 -0.19257988 0 6.5995388e-06 0 0)
(-1.1229929 -0.19359053 0 -6.2168427e-06 0 0)
(-1.114683 -0.19265182 0 5.8567907e-06 0 0)
(-1.1223824 -0.1935217 0 -5.5171565e-06 0 0)
(-1.1152587 -0.19271751 0 5.1981487e-06 0 0)
(-1.1218254 -0.19345884 0 -4.8961188e-06 0 0)
(-1.1157854 -0.19277758 0 4.6122381e-06 0 0)
(-1.121316 -0.19340128 0 -4.349573e-06 0 0)
(-1.1162685 -0.19283262 0 4.1152783e-06 0 0)
(-1.1208494 -0.19334853 0 -3.8960488e-06 0 0)
(-1.1167128 -0.19288323 0 3.6940205e-06 0 0)
(-1.120419 -0.19329983 0 -3.5135432e-06 0 0)
(-1.1171246 -0.19293009 0 3.3562928e-06 0 0)
(-1.1200194 -0.19325458 0 -3.2219421e-06 0 0)
(-1.1175092 -0.19297384 0 3.1041183e-06 0 0)
(-1.1196444 -0.19321216 0 -3.0274654e-06 0 0)
(-1.1178722 -0.19301513 0 2.9349923e-06 0 0)
(-1.1192821 -0.19317053 0 -2.6852237e-06 0 0)
(-1.1182076 -0.19304932 0 4.3733195e-06 0 0)
(-1.1189024 -0.19313333 0 -3.9439928e-06 0 0)
(-0.88953081 -0.33287885 0 -0.08525748 0 0)
(-0.99269617 -0.18751028 0 -0.0046461237 0 0)
(-1.0118353 -0.18933641 0 -0.0023129174 0 0)
(-1.065902 -0.19025735 0 -0.00044271319 0 0)
(-1.0241257 -0.18470159 0 -0.00017081885 0 0)
(-1.0628213 -0.18876429 0 -2.8698521e-05 0 0)
(-1.027203 -0.18454631 0 1.3379986e-05 0 0)
(-1.060676 -0.18847627 0 -1.4150446e-05 0 0)
(-1.0288811 -0.18473255 0 1.7420519e-05 0 0)
(-1.0590195 -0.18829384 0 -1.5603458e-05 0 0)
(-1.0303472 -0.18491233 0 1.5239319e-05 0 0)
(-1.0575319 -0.18812386 0 -1.4784312e-05 0 0)
(-1.031695 -0.18507519 0 1.3998441e-05 0 0)
(-1.0561703 -0.18796662 0 -1.3549151e-05 0 0)
(-1.0329383 -0.18522499 0 1.287363e-05 0 0)
(-1.0549211 -0.18782193 0 -1.2364973e-05 0 0)
(-1.034086 -0.18536311 0 1.1773262e-05 0 0)
(-1.0537742 -0.1876888 0 -1.1252373e-05 0 0)
(-1.0351451 -0.1854904 0 1.0711039e-05 0 0)
(-1.0527214 -0.1875663 0 -1.0200358e-05 0 0)
(-1.0361215 -0.18560759 0 9.6922126e-06 0 0)
(-1.0517552 -0.18745366 0 -9.2087624e-06 0 0)
(-1.03702 -0.1857153 0 8.7305179e-06 0 0)
(-1.0508697 -0.18735023 0 -8.2726807e-06 0 0)
(-1.0378456 -0.18581414 0 7.8287097e-06 0 0)
(-1.0500596 -0.18725543 0 -7.3988906e-06 0 0)
(-1.0386027 -0.18590469 0 6.9858871e-06 0 0)
(-1.0493196 -0.1871687 0 -6.5913755e-06 0 0)
(-1.0392953 -0.18598744 0 6.2120171e-06 0 0)
(-1.0486449 -0.18708951 0 -5.8481478e-06 0 0)
(-1.039928 -0.18606295 0 5.5019648e-06 0 0)
(-1.0480305 -0.18701729 0 -5.1706792e-06 0 0)
(-1.0405052 -0.18613179 0 4.86058e-06 0 0)
(-1.0474716 -0.18695152 0 -4.5676409e-06 0 0)
(-1.0410311 -0.18619446 0 4.2932842e-06 0 0)
(-1.0469634 -0.18689163 0 -4.0324625e-06 0 0)
(-1.0415107 -0.1862516 0 3.7876508e-06 0 0)
(-1.0465001 -0.18683696 0 -3.5612219e-06 0 0)
(-1.0419491 -0.18630379 0 3.3610945e-06 0 0)
(-1.046077 -0.18678701 0 -3.1723055e-06 0 0)
(-1.042351 -0.18635164 0 2.9980463e-06 0 0)
(-1.0456882 -0.18674102 0 -2.8423389e-06 0 0)
(-1.0427224 -0.18639583 0 2.7072913e-06 0 0)
(-1.0453283 -0.18669841 0 -2.5917422e-06 0 0)
(-1.0430682 -0.18643697 0 2.4895375e-06 0 0)
(-1.0449916 -0.18665854 0 -2.424279e-06 0 0)
(-1.0433937 -0.18647576 0 2.3385277e-06 0 0)
(-1.0446669 -0.18661946 0 -2.0950394e-06 0 0)
(-1.0436909 -0.18650772 0 3.6996276e-06 0 0)
(-1.0443135 -0.18658334 0 -3.3694426e-06 0 0)
(-0.87729675 -0.31978978 0 -0.078248698 0 0)
(-0.91599626 -0.17912119 0 -0.0039993976 0 0)
(-0.93478357 -0.18172565 0 -0.0022730482 0 0)
(-0.98931091 -0.18340455 0 -0.00045727235 0 0)
(-0.95282031 -0.17818495 0 -0.00016720273 0 0)
(-0.98898503 -0.1821191 0 -2.3076328e-05 0 0)
(-0.95643609 -0.17807529 0 1.1263e-05 0 0)
(-0.98732874 -0.18185332 0 -1.0926483e-05 0 0)
(-0.95810741 -0.17825861 0 1.4864181e-05 0 0)
(-0.98583855 -0.18167823 0 -1.2952224e-05 0 0)
(-0.9594808 -0.17843312 0 1.2762108e-05 0 0)
(-0.98446408 -0.18151384 0 -1.239021e-05 0 0)
(-0.96073197 -0.17859102 0 1.1703995e-05 0 0)
(-0.98320013 -0.18136146 0 -1.135021e-05 0 0)
(-0.96188485 -0.17873625 0 1.0763258e-05 0 0)
(-0.98203953 -0.18122118 0 -1.0342727e-05 0 0)
(-0.9629489 -0.17887013 0 9.8350723e-06 0 0)
(-0.98097434 -0.18109214 0 -9.3952259e-06 0 0)
(-0.96393028 -0.17899344 0 8.9333662e-06 0 0)
(-0.97999729 -0.1809735 0 -8.4979345e-06 0 0)
(-0.96483422 -0.17910686 0 8.0646011e-06 0 0)
(-0.97910186 -0.18086454 0 -7.6518718e-06 0 0)
(-0.96566507 -0.17921095 0 7.243534e-06 0 0)
(-0.97828257 -0.18076464 0 -6.8520103e-06 0 0)
(-0.9664272 -0.17930631 0 6.4734911e-06 0 0)
(-0.97753447 -0.18067326 0 -6.1055213e-06 0 0)
(-0.96712471 -0.17939348 0 5.753492e-06 0 0)
(-0.97685267 -0.18058985 0 -5.4167588e-06 0 0)
(-0.96776139 -0.17947294 0 5.0937329e-06 0 0)
(-0.9762327 -0.18051388 0 -4.7830377e-06 0 0)
(-0.96834145 -0.17954528 0 4.4884593e-06 0 0)
(-0.97566971 -0.18044479 0 -4.2058173e-06 0 0)
(-0.96886917 -0.17961103 0 3.9427867e-06 0 0)
(-0.97515911 -0.18038206 0 -3.6940039e-06 0 0)
(-0.96934855 -0.17967071 0 3.4616801e-06 0 0)
(-0.97469627 -0.18032511 0 -3.2398035e-06 0 0)
(-0.96978438 -0.17972496 0 3.0316849e-06 0 0)
(-0.97427571 -0.18027327 0 -2.8394865e-06 0 0)
(-0.97018147 -0.17977435 0 2.6715206e-06 0 0)
(-0.97389306 -0.18022607 0 -2.5114175e-06 0 0)
(-0.9705443 -0.17981949 0 2.3632506e-06 0 0)
(-0.97354253 -0.18018274 0 -2.2309909e-06 0 0)
(-0.9708784 -0.17986107 0 2.1167203e-06 0 0)