/*--------------------------------*- C++ -*----------------------------------*\
| =========                 |                                                 |
| \\      /  F ield         | OpenFOAM: The Open Source CFD Toolbox           |
|  \\    /   O peration     | Version:  2312                                  |
|   \\  /    A nd           | Website:  www.openfoam.com                      |
|    \\/     M anipulation  |                                                 |
\*---------------------------------------------------------------------------*/
FoamFile
{
    version     2.0;
    format      ascii;
    arch        "LSB;label=32;scalar=64";
    class       volSymmTensorField;
    location    "1";
    object      sigma;
}
// * * * * * * * * * * * * * * * * * * * * * * * * * * * * * * * * * * * * * //

dimensions      [0 2 -2 0 0 0 0];

internalField   nonuniform List<symmTensor> 
4000
(
(-1.4101743 -0.61797463 0 -0.23044073 0 0)
(-2.8543289 -0.30930962 0 -0.00083739816 0 0)
(-1.9623854 -0.25611609 0 -0.00026544906 0 0)
(-2.1481836 -0.26772126 0 -3.4796585e-05 0 0)
(-2.0040967 -0.25824932 0 4.7305963e-05 0 0)
(-2.1062267 -0.26520103 0 -5.8149391e-05 0 0)
(-2.0114236 -0.25871389 0 5.5405446e-05 0 0)
(-2.0991765 -0.26473785 0 -5.3822331e-05 0 0)
(-2.016103 -0.25903541 0 5.1464134e-05 0 0)
(-2.0948692 -0.26444553 0 -4.9357736e-05 0 0)
(-2.0198929 -0.2592982 0 4.7143932e-05 0 0)
(-2.0911393 -0.26419135 0 -4.5178773e-05 0 0)
(-2.0232907 -0.25953362 0 4.3185341e-05 0 0)
(-2.0878155 -0.26396473 0 -4.1371304e-05 0 0)
(-2.0263774 -0.25974713 0 3.9560867e-05 0 0)
(-2.0848145 -0.26376012 0 -3.7887531e-05 0 0)
(-2.0291928 -0.25994154 0 3.6227783e-05 0 0)
(-2.082082 -0.2635739 0 -3.468024e-05 0 0)
(-2.031772 -0.26011932 0 3.3149541e-05 0 0)
(-2.0795788 -0.26340337 0 -3.1714457e-05 0 0)
(-2.0341454 -0.26028264 0 3.0297679e-05 0 0)
(-2.0772735 -0.26324642 0 -2.8965053e-05 0 0)
(-2.0363384 -0.26043329 0 2.7652365e-05 0 0)
(-2.075142 -0.26310141 0 -2.6414837e-05 0 0)
(-2.0383723 -0.26057276 0 2.5199678e-05 0 0)
(-2.0731647 -0.26296698 0 -2.405292e-05 0 0)
(-2.0402639 -0.26070225 0 2.2930917e-05 0 0)
(-2.0713248 -0.26284202 0 -2.1872636e-05 0 0)
(-2.0420274 -0.26082276 0 2.0841795e-05 0 0)
(-2.0696095 -0.26272563 0 -1.9870882e-05 0 0)
(-2.0436748 -0.26093512 0 1.893016e-05 0 0)
(-2.0680068 -0.26261702 0 -1.8046682e-05 0 0)
(-2.0452173 -0.26104009 0 1.7196082e-05 0 0)
(-2.0665057 -0.26251546 0 -1.6401067e-05 0 0)
(-2.0466642 -0.26113832 0 1.564137e-05 0 0)
(-2.0650974 -0.26242037 0 -1.4935845e-05 0 0)
(-2.0480244 -0.26123039 0 1.4267595e-05 0 0)
(-2.0637717 -0.26233109 0 -1.3652592e-05 0 0)
(-2.0493086 -0.26131702 0 1.3077411e-05 0 0)
(-2.0625194 -0.26224701 0 -1.2555059e-05 0 0)
(-2.0505241 -0.26139867 0 1.20736e-05 0 0)
(-2.0613312 -0.26216756 0 -1.1644644e-05 0 0)
(-2.0516818 -0.26147606 0 1.1258485e-05 0 0)
(-2.0601966 -0.26209207 0 -1.0925229e-05 0 0)
(-2.0527908 -0.26154975 0 1.0635778e-05 0 0)
(-2.0591056 -0.2620199 0 -1.0401065e-05 0 0)
(-2.0538596 -0.26162026 0 1.0219504e-05 0 0)
(-2.0580602 -0.26195102 0 -1.0028769e-05 0 0)
(-2.0550171 -0.26169491 0 1.0252802e-05 0 0)
(-2.0576396 -0.26192348 0 -9.9006755e-06 0 0)
(-1.2512831 -0.56820114 0 -0.21646306 0 0)
(-2.5197719 -0.29404999 0 -0.0029238437 0 0)
(-1.8805996 -0.25193522 0 -0.000825563 0 0)
(-1.983601 -0.25728285 0 -3.2954664e-05 0 0)
(-1.8626851 -0.24886399 0 3.0614286e-05 0 0)
(-1.9488965 -0.25520971 0 -6.3865717e-05 0 0)
(-1.8663691 -0.24909125 0 6.0128752e-05 0 0)
(-1.9429158 -0.25480085 0 -5.9375553e-05 0 0)
(-1.8703416 -0.24938642 0 5.6964672e-05 0 0)
(-1.9392067 -0.25452992 0 -5.4753476e-05 0 0)
(-1.8736506 -0.24963552 0 5.2260709e-05 0 0)
(-1.9359437 -0.25428916 0 -5.0154706e-05 0 0)
(-1.8766222 -0.24985918 0 4.7920053e-05 0 0)
(-1.933021 -0.25407326 0 -4.5935459e-05 0 0)
(-1.8793301 -0.25006271 0 4.3919193e-05 0 0)
(-1.9303749 -0.25387772 0 -4.2070185e-05 0 0)
(-1.8818065 -0.25024857 0 4.0224309e-05 0 0)
(-1.9279608 -0.2536993 0 -3.8505683e-05 0 0)
(-1.8840795 -0.25041892 0 3.6802161e-05 0 0)
(-1.9257464 -0.25353564 0 -3.5203552e-05 0 0)
(-1.8861735 -0.25057564 0 3.362438e-05 0 0)
(-1.9237057 -0.25338484 0 -3.2137339e-05 0 0)
(-1.8881091 -0.25072032 0 3.0672307e-05 0 0)
(-1.9218192 -0.25324545 0 -2.9289195e-05 0 0)
(-1.8899036 -0.25085427 0 2.7931958e-05 0 0)
(-1.9200706 -0.25311628 0 -2.6649041e-05 0 0)
(-1.8915709 -0.25097855 0 2.5394877e-05 0 0)
(-1.9184459 -0.25299633 0 -2.4210524e-05 0 0)
(-1.8931228 -0.25109405 0 2.3058106e-05 0 0)
(-1.9169343 -0.25288479 0 -2.1971159e-05 0 0)
(-1.8945695 -0.25120154 0 2.0919379e-05 0 0)
(-1.9155252 -0.25278092 0 -1.9930174e-05 0 0)
(-1.8959207 -0.25130173 0 1.8979423e-05 0 0)
(-1.9142092 -0.25268405 0 -1.8089951e-05 0 0)
(-1.8971846 -0.25139522 0 1.7241524e-05 0 0)
(-1.9129782 -0.25259361 0 -1.6452649e-05 0 0)
(-1.8983695 -0.2514826 0 1.570642e-05 0 0)
(-1.9118229 -0.25250894 0 -1.5018966e-05 0 0)
(-1.899485 -0.25156456 0 1.4378377e-05 0 0)
(-1.9107348 -0.25242948 0 -1.3796209e-05 0 0)
(-1.9005379 -0.25164158 0 1.3260637e-05 0 0)
(-1.9097052 -0.25235461 0 -1.2783647e-05 0 0)
(-1.9015387 -0.25171437 0 1.2356265e-05 0 0)
(-1.9087243 -0.25228367 0 -1.1988963e-05 0 0)
(-1.9024957 -0.25178351 0 1.1671908e-05 0 0)
(-1.9077824 -0.25221603 0 -1.1421664e-05 0 0)
(-1.9034162 -0.25184941 0 1.1233842e-05 0 0)
(-1.90687 -0.25215063 0 -1.0982551e-05 0 0)
(-1.9043716 -0.25191433 0 1.1713479e-05 0 0)
(-1.9063778 -0.25211504 0 -1.0589141e-05 0 0)
(-1.1746417 -0.53906113 0 -0.2037619 0 0)
(-2.2868272 -0.27917749 0 -0.0034064761 0 0)
(-1.7986087 -0.24738464 0 -0.0012388609 0 0)
(-1.8808486 -0.25062342 0 -5.4788609e-05 0 0)
(-1.7703373 -0.24253409 0 1.2776999e-05 0 0)
(-1.8474221 -0.24854287 0 -6.2943869e-05 0 0)
(-1.7723001 -0.24265211 0 5.7989977e-05 0 0)
(-1.8417821 -0.24815067 0 -5.7754619e-05 0 0)
(-1.7758242 -0.24293274 0 5.5599837e-05 0 0)
(-1.8384209 -0.24789277 0 -5.3490083e-05 0 0)
(-1.778835 -0.24317334 0 5.1020056e-05 0 0)
(-1.8354551 -0.24766115 0 -4.9028585e-05 0 0)
(-1.7815411 -0.24338936 0 4.6813995e-05 0 0)
(-1.8327899 -0.24745263 0 -4.4907242e-05 0 0)
(-1.7840107 -0.24358627 0 4.2921271e-05 0 0)
(-1.830373 -0.24726342 0 -4.1129295e-05 0 0)
(-1.7862727 -0.24376638 0 3.9314886e-05 0 0)
(-1.8281656 -0.24709055 0 -3.7641811e-05 0 0)
(-1.7883512 -0.24393166 0 3.5967694e-05 0 0)
(-1.8261396 -0.24693181 0 -3.4407099e-05 0 0)
(-1.7902672 -0.24408385 0 3.2854117e-05 0 0)
(-1.8242723 -0.24678547 0 -3.1400094e-05 0 0)
(-1.7920386 -0.24422439 0 2.9958549e-05 0 0)
(-1.8225466 -0.24665019 0 -2.860408e-05 0 0)
(-1.7936802 -0.24435448 0 2.7268342e-05 0 0)
(-1.8209482 -0.24652487 0 -2.6010554e-05 0 0)
(-1.7952043 -0.24447512 0 2.4775757e-05 0 0)
(-1.8194648 -0.24640859 0 -2.3614051e-05 0 0)
(-1.7966212 -0.24458713 0 2.2479451e-05 0 0)
(-1.8180865 -0.24630059 0 -2.1412559e-05 0 0)
(-1.7979402 -0.24469123 0 2.0377059e-05 0 0)
(-1.816804 -0.24620015 0 -1.9405658e-05 0 0)
(-1.7991699 -0.24478812 0 1.8469836e-05 0 0)
(-1.8156086 -0.24610664 0 -1.7596588e-05 0 0)
(-1.8003178 -0.24487837 0 1.676193e-05 0 0)
(-1.8144928 -0.2460195 0 -1.5987394e-05 0 0)
(-1.8013918 -0.24496256 0 1.5253157e-05 0 0)
(-1.8134476 -0.24593806 0 -1.4578217e-05 0 0)
(-1.8024007 -0.24504138 0 1.3949106e-05 0 0)
(-1.8124655 -0.24586178 0 -1.3378503e-05 0 0)
(-1.8033511 -0.2451153 0 1.2852658e-05 0 0)
(-1.8115377 -0.24579002 0 -1.2385809e-05 0 0)
(-1.8042527 -0.24518505 0 1.1967841e-05 0 0)
(-1.8106553 -0.24572213 0 -1.1610982e-05 0 0)
(-1.8051136 -0.24525121 0 1.1303502e-05 0 0)
(-1.809809 -0.24565749 0 -1.1067992e-05 0 0)
(-1.8059408 -0.24531419 0 1.0891319e-05 0 0)
(-1.8089867 -0.24559473 0 -1.0640961e-05 0 0)
(-1.8067883 -0.24537425 0 1.166298e-05 0 0)
(-1.808486 -0.24555802 0 -1.0744592e-05 0 0)
(-1.1201972 -0.50925777 0 -0.18666845 0 0)
(-2.1022786 -0.26794791 0 -0.0040285401 0 0)
(-1.7148646 -0.24272636 0 -0.001692019 0 0)
(-1.7813466 -0.24399672 0 -8.0343389e-05 0 0)
(-1.6799538 -0.23622069 0 -1.4482209e-05 0 0)
(-1.7493366 -0.24188674 0 -5.6585747e-05 0 0)
(-1.6803037 -0.23621608 0 5.0595581e-05 0 0)
(-1.7438603 -0.24150385 0 -5.0991644e-05 0 0)
(-1.6833859 -0.23648031 0 4.942948e-05 0 0)
(-1.7407642 -0.24125779 0 -4.758389e-05 0 0)
(-1.68614 -0.23671244 0 4.5362356e-05 0 0)
(-1.7380412 -0.24103492 0 -4.3666174e-05 0 0)
(-1.688623 -0.23692094 0 4.1664292e-05 0 0)
(-1.735587 -0.24083348 0 -4.0002021e-05 0 0)
(-1.6908924 -0.23711129 0 3.8221114e-05 0 0)
(-1.7333575 -0.24065034 0 -3.6638319e-05 0 0)
(-1.692974 -0.23728567 0 3.5015206e-05 0 0)
(-1.7313194 -0.24048279 0 -3.3527709e-05 0 0)
(-1.6948887 -0.23744588 0 3.2029628e-05 0 0)
(-1.7294476 -0.2403288 0 -3.0636626e-05 0 0)
(-1.6966548 -0.23759349 0 2.9244859e-05 0 0)
(-1.7277224 -0.24018679 0 -2.7944175e-05 0 0)
(-1.6982873 -0.23772981 0 2.6650503e-05 0 0)
(-1.7261287 -0.24005553 0 -2.5436385e-05 0 0)
(-1.6997997 -0.23785597 0 2.4236771e-05 0 0)
(-1.7246539 -0.23993401 0 -2.3107729e-05 0 0)
(-1.7012025 -0.23797287 0 2.199781e-05 0 0)
(-1.723287 -0.23982134 0 -2.0954418e-05 0 0)
(-1.7025048 -0.23808128 0 1.9934335e-05 0 0)
(-1.7220191 -0.23971684 0 -1.8975385e-05 0 0)
(-1.7037151 -0.23818189 0 1.8044145e-05 0 0)
(-1.7208416 -0.23961981 0 -1.7170563e-05 0 0)
(-1.7048413 -0.23827538 0 1.6329109e-05 0 0)
(-1.7197465 -0.23952964 0 -1.5544225e-05 0 0)
(-1.7058903 -0.23836228 0 1.4794158e-05 0 0)
(-1.7187268 -0.23944577 0 -1.4097981e-05 0 0)
(-1.7068693 -0.23844321 0 1.3437731e-05 0 0)
(-1.7177742 -0.23936753 0 -1.2830896e-05 0 0)
(-1.7077867 -0.23851882 0 1.2266657e-05 0 0)
(-1.7168814 -0.23929442 0 -1.1754701e-05 0 0)
(-1.7086488 -0.2385896 0 1.1282772e-05 0 0)
(-1.7160401 -0.23922574 0 -1.0864215e-05 0 0)
(-1.7094648 -0.23865628 0 1.0490377e-05 0 0)
(-1.7152419 -0.23916088 0 -1.0172464e-05 0 0)
(-1.7102423 -0.23871944 0 9.8990258e-06 0 0)
(-1.7144778 -0.2390992 0 -9.6956643e-06 0 0)
(-1.7109881 -0.23877952 0 9.5417833e-06 0 0)
(-1.713734 -0.23903905 0 -9.2882937e-06 0 0)
(-1.7117407 -0.23883497 0 1.0613788e-05 0 0)
(-1.7132248 -0.23900085 0 -9.747038e-06 0 0)
(-1.0822906 -0.48692098 0 -0.1739657 0 0)
(-1.9208206 -0.25652392 0 -0.0044986867 0 0)
(-1.6243476 -0.23731835 0 -0.0020666038 0 0)
(-1.684002 -0.23739003 0 -0.00012136445 0 0)
(-1.5911428 -0.22987877 0 -4.2827784e-05 0 0)
(-1.6542366 -0.23524466 0 -5.0820859e-05 0 0)
(-1.5904954 -0.22977212 0 4.3354835e-05 0 0)
(-1.6488842 -0.23486486 0 -4.4173526e-05 0 0)
(-1.5931721 -0.23002062 0 4.3277071e-05 0 0)
(-1.6459982 -0.2346288 0 -4.1625099e-05 0 0)
(-1.5956973 -0.23024502 0 3.9678071e-05 0 0)
(-1.6434841 -0.23441391 0 -3.8259287e-05 0 0)
(-1.5979871 -0.23044674 0 3.647727e-05 0 0)
(-1.6412137 -0.23421897 0 -3.5053243e-05 0 0)
(-1.6000832 -0.23063115 0 3.348129e-05 0 0)
(-1.6391478 -0.23404139 0 -3.2104711e-05 0 0)
(-1.6020082 -0.23080032 0 3.0676291e-05 0 0)
(-1.6372575 -0.23387874 0 -2.9373003e-05 0 0)
(-1.6037805 -0.2309559 0 2.8054392e-05 0 0)
(-1.6355209 -0.23372916 0 -2.6828638e-05 0 0)
(-1.6054159 -0.23109931 0 2.5601518e-05 0 0)
(-1.6339203 -0.23359118 0 -2.4454615e-05 0 0)
(-1.6069275 -0.23123175 0 2.3312264e-05 0 0)
(-1.6324426 -0.23346368 0 -2.2239561e-05 0 0)
(-1.6083269 -0.23135424 0 2.1179481e-05 0 0)
(-1.6310765 -0.23334572 0 -2.0180572e-05 0 0)
(-1.6096237 -0.23146765 0 1.919874e-05 0 0)
(-1.6298121 -0.23323649 0 -1.8275409e-05 0 0)
(-1.6108258 -0.23157269 0 1.7372779e-05 0 0)
(-1.6286414 -0.23313531 0 -1.6523577e-05 0 0)
(-1.611941 -0.23167001 0 1.5699341e-05 0 0)
(-1.6275565 -0.23304154 0 -1.4925423e-05 0 0)
(-1.6129765 -0.23176028 0 1.4180797e-05 0 0)
(-1.6265499 -0.23295456 0 -1.3485986e-05 0 0)
(-1.6139386 -0.23184401 0 1.282262e-05 0 0)
(-1.6256151 -0.23287384 0 -1.2206245e-05 0 0)
(-1.6148343 -0.23192181 0 1.1621829e-05 0 0)
(-1.6247441 -0.23279871 0 -1.1084445e-05 0 0)
(-1.6156715 -0.23199434 0 1.0586388e-05 0 0)
(-1.6239302 -0.23272864 0 -1.0133837e-05 0 0)
(-1.6164559 -0.23206209 0 9.7166067e-06 0 0)
(-1.6231654 -0.23266296 0 -9.3465193e-06 0 0)
(-1.6171964 -0.2321258 0 9.0169167e-06 0 0)
(-1.6224416 -0.23260105 0 -8.737161e-06 0 0)
(-1.6179003 -0.23218606 0 8.4964993e-06 0 0)
(-1.6217505 -0.23254226 0 -8.3221346e-06 0 0)
(-1.6185741 -0.23224332 0 8.1852462e-06 0 0)
(-1.6210775 -0.23248475 0 -7.9298138e-06 0 0)
(-1.6192452 -0.23229483 0 9.4663636e-06 0 0)
(-1.6205728 -0.23244577 0 -8.6703245e-06 0 0)
(-1.0367815 -0.45765038 0 -0.15690031 0 0)
(-1.7511398 -0.24522093 0 -0.0047205918 0 0)
(-1.532612 -0.23143624 0 -0.0023459651 0 0)
(-1.5883401 -0.23076461 0 -0.00017842211 0 0)
(-1.5040557 -0.22351523 0 -7.2348198e-05 0 0)
(-1.561894 -0.22861072 0 -4.7165333e-05 0 0)
(-1.5029901 -0.22332433 0 3.7165303e-05 0 0)
(-1.556729 -0.22823133 0 -3.8396952e-05 0 0)
(-1.5053095 -0.22355722 0 3.8140696e-05 0 0)
(-1.5540195 -0.22800373 0 -3.6585362e-05 0 0)
(-1.5076232 -0.22377419 0 3.489433e-05 0 0)
(-1.5516899 -0.22779621 0 -3.3696933e-05 0 0)
(-1.5097388 -0.22396956 0 3.2102688e-05 0 0)
(-1.5495845 -0.22760735 0 -3.087584e-05 0 0)
(-1.5116789 -0.22414841 0 2.9480627e-05 0 0)
(-1.5476661 -0.22743501 0 -2.8275078e-05 0 0)
(-1.5134629 -0.22431267 0 2.7011676e-05 0 0)
(-1.5459093 -0.22727698 0 -2.5861297e-05 0 0)
(-1.5151065 -0.22446384 0 2.4695021e-05 0 0)
(-1.544295 -0.22713157 0 -2.3608348e-05 0 0)
(-1.5166236 -0.22460325 0 2.252123e-05 0 0)
(-1.5428075 -0.22699745 0 -2.1502574e-05 0 0)
(-1.5180255 -0.22473195 0 2.0488932e-05 0 0)
(-1.541435 -0.22687356 0 -1.9534449e-05 0 0)
(-1.5193224 -0.22485092 0 1.8593137e-05 0 0)
(-1.5401677 -0.22675904 0 -1.7703303e-05 0 0)
(-1.5205228 -0.22496095 0 1.683065e-05 0 0)
(-1.5389965 -0.22665313 0 -1.6008144e-05 0 0)
(-1.5216339 -0.22506269 0 1.5205721e-05 0 0)
(-1.5379141 -0.2265552 0 -1.4448869e-05 0 0)
(-1.5226627 -0.22515681 0 1.371592e-05 0 0)
(-1.5369133 -0.22646459 0 -1.3025995e-05 0 0)
(-1.5236159 -0.22524392 0 1.2364067e-05 0 0)
(-1.535987 -0.22638074 0 -1.1745332e-05 0 0)
(-1.5244994 -0.22532455 0 1.1156002e-05 0 0)
(-1.5351291 -0.2263031 0 -1.0607053e-05 0 0)
(-1.5253197 -0.2253993 0 1.0087251e-05 0 0)
(-1.534332 -0.22623099 0 -9.6085314e-06 0 0)
(-1.5260842 -0.22546881 0 9.1670264e-06 0 0)
(-1.5335893 -0.22616392 0 -8.7645863e-06 0 0)
(-1.5267985 -0.2255336 0 8.3938243e-06 0 0)
(-1.5328935 -0.22610117 0 -8.0645084e-06 0 0)
(-1.5274711 -0.2255944 0 7.7722149e-06 0 0)
(-1.5322368 -0.22604214 0 -7.5240681e-06 0 0)
(-1.5281087 -0.22565179 0 7.3104966e-06 0 0)
(-1.5316114 -0.22598619 0 -7.1590412e-06 0 0)
(-1.5287177 -0.22570629 0 7.0334766e-06 0 0)
(-1.5310025 -0.22593135 0 -6.7746474e-06 0 0)
(-1.5293164 -0.22575426 0 8.4521867e-06 0 0)
(-1.5305098 -0.22589194 0 -7.705891e-06 0 0)
(-1.0086176 -0.43873643 0 -0.14619441 0 0)
(-1.5938783 -0.23465764 0 -0.0049880096 0 0)
(-1.4410443 -0.22512078 0 -0.002523305 0 0)
(-1.4942057 -0.22411615 0 -0.00025651757 0 0)
(-1.4186384 -0.21712753 0 -0.00010501093 0 0)
(-1.4721527 -0.22197943 0 -4.581762e-05 0 0)
(-1.4177949 -0.21687383 0 3.1529297e-05 0 0)
(-1.4673232 -0.22160087 0 -3.3455381e-05 0 0)
(-1.4198396 -0.21709193 0 3.3746028e-05 0 0)
(-1.4647794 -0.22138069 0 -3.2230706e-05 0 0)
(-1.4219605 -0.21730163 0 3.0780274e-05 0 0)
(-1.4626159 -0.22118013 0 -2.9762709e-05 0 0)
(-1.4239169 -0.21749093 0 2.8331642e-05 0 0)
(-1.4606609 -0.22099708 0 -2.7272789e-05 0 0)
(-1.4257149 -0.21766442 0 2.6028927e-05 0 0)
(-1.4588775 -0.22082978 0 -2.4969992e-05 0 0)
(-1.4273699 -0.21782394 0 2.3848155e-05 0 0)
(-1.4572432 -0.22067623 0 -2.2829005e-05 0 0)
(-1.4288956 -0.21797084 0 2.1793826e-05 0 0)
(-1.4557412 -0.2205349 0 -2.0826615e-05 0 0)
(-1.430304 -0.21810632 0 1.9860183e-05 0 0)
(-1.4543578 -0.22040455 0 -1.8951944e-05 0 0)
(-1.431605 -0.21823135 0 1.8049465e-05 0 0)
(-1.4530825 -0.22028423 0 -1.7196974e-05 0 0)
(-1.4328076 -0.21834683 0 1.6358474e-05 0 0)
(-1.4519062 -0.22017312 0 -1.5562821e-05 0 0)
(-1.4339193 -0.2184535 0 1.4784758e-05 0 0)
(-1.450821 -0.22007051 0 -1.4049586e-05 0 0)
(-1.4349466 -0.21855198 0 1.3334017e-05 0 0)
(-1.4498201 -0.2199758 0 -1.265721e-05 0 0)
(-1.4358958 -0.21864291 0 1.2003505e-05 0 0)
(-1.4488967 -0.21988835 0 -1.1386477e-05 0 0)
(-1.4367734 -0.21872689 0 1.0796408e-05 0 0)
(-1.4480442 -0.2198076 0 -1.0243771e-05 0 0)
(-1.4375846 -0.21880443 0 9.7187916e-06 0 0)
(-1.4472569 -0.21973301 0 -9.2283726e-06 0 0)
(-1.4383359 -0.21887615 0 8.7647847e-06 0 0)
(-1.4465274 -0.2196639 0 -8.3371326e-06 0 0)
(-1.439034 -0.21894267 0 7.9448095e-06 0 0)
(-1.4458499 -0.21959979 0 -7.5858583e-06 0 0)
(-1.4396845 -0.21900453 0 7.2553806e-06 0 0)
(-1.4452168 -0.21953995 0 -6.9613371e-06 0 0)
(-1.4402952 -0.21906244 0 6.7013743e-06 0 0)
(-1.4446211 -0.21948377 0 -6.4804417e-06 0 0)
(-1.4408727 -0.21911702 0 6.2899886e-06 0 0)
(-1.4440554 -0.21943062 0 -6.1575809e-06 0 0)
(-1.4414229 -0.21916878 0 6.0402489e-06 0 0)
(-1.4435049 -0.21937844 0 -5.7793595e-06 0 0)
(-1.4419573 -0.21921354 0 7.5403667e-06 0 0)
(-1.4430296 -0.21933895 0 -6.8399026e-06 0 0)
(-0.97327169 -0.41358032 0 -0.13192085 0 0)
(-1.4466519 -0.22412735 0 -0.0050546368 0 0)
(-1.351164 -0.21841169 0 -0.0025785352 0 0)
(-1.4017101 -0.21744682 0 -0.00035395412 0 0)
(-1.334936 -0.21071213 0 -0.00014035214 0 0)
(-1.3849297 -0.2153464 0 -4.6341759e-05 0 0)
(-1.3349043 -0.21041999 0 2.606412e-05 0 0)
(-1.3806251 -0.2149725 0 -2.9105238e-05 0 0)
(-1.3367799 -0.21062515 0 2.9797059e-05 0 0)
(-1.3782532 -0.21475922 0 -2.8307083e-05 0 0)
(-1.3387297 -0.21082777 0 2.7084726e-05 0 0)
(-1.3762423 -0.21456524 0 -2.621902e-05 0 0)
(-1.3405405 -0.21101121 0 2.493662e-05 0 0)
(-1.374425 -0.2143878 0 -2.402693e-05 0 0)
(-1.3422081 -0.21117954 0 2.2918416e-05 0 0)
(-1.3727658 -0.21422538 0 -2.1991037e-05 0 0)
(-1.3437445 -0.21133444 0 2.0995868e-05 0 0)
(-1.3712447 -0.21407622 0 -2.0094863e-05 0 0)
(-1.3451616 -0.21147715 0 1.9177261e-05 0 0)
(-1.3698467 -0.2139389 0 -1.8317869e-05 0 0)
(-1.3464696 -0.21160875 0 1.7460065e-05 0 0)
(-1.3685598 -0.21381229 0 -1.66517e-05 0 0)
(-1.3476773 -0.21173014 0 1.5849439e-05 0 0)
(-1.3673745 -0.2136955 0 -1.5089384e-05 0 0)
(-1.3487925 -0.21184215 0 1.4343725e-05 0 0)
(-1.3662828 -0.2135878 0 -1.3633601e-05 0 0)
(-1.349822 -0.21194546 0 1.2941178e-05 0 0)
(-1.3652773 -0.21348848 0 -1.228536e-05 0 0)
(-1.3507717 -0.21204068 0 1.1648568e-05 0 0)
(-1.3643519 -0.21339698 0 -1.1044574e-05 0 0)
(-1.3516474 -0.21212843 0 1.0462766e-05 0 0)
(-1.3635002 -0.21331268 0 -9.9121042e-06 0 0)
(-1.3524551 -0.21220928 0 9.387341e-06 0 0)
(-1.362716 -0.21323503 0 -8.8949463e-06 0 0)
(-1.3531998 -0.21228374 0 8.4284447e-06 0 0)
(-1.3619937 -0.21316348 0 -7.9913701e-06 0 0)
(-1.3538875 -0.21235245 0 7.5787799e-06 0 0)
(-1.3613264 -0.21309736 0 -7.197676e-06 0 0)
(-1.3545247 -0.212416 0 6.8501191e-06 0 0)
(-1.3607086 -0.21303618 0 -6.5307548e-06 0 0)
(-1.3551167 -0.21247496 0 6.2368125e-06 0 0)
(-1.360133 -0.21297921 0 -5.9749318e-06 0 0)
(-1.3556709 -0.21253003 0 5.744175e-06 0 0)
(-1.359593 -0.21292584 0 -5.5478618e-06 0 0)
(-1.3561935 -0.21258182 0 5.3782071e-06 0 0)
(-1.3590815 -0.21287545 0 -5.2625132e-06 0 0)
(-1.3566904 -0.2126309 0 5.1521085e-06 0 0)
(-1.3585844 -0.21282594 0 -4.890983e-06 0 0)
(-1.3571671 -0.2126727 0 6.6891654e-06 0 0)
(-1.3581302 -0.21278667 0 -6.0403121e-06 0 0)
(-0.94767458 -0.39348633 0 -0.12040698 0 0)
(-1.312376 -0.21463605 0 -0.0052746274 0 0)
(-1.2641861 -0.21140789 0 -0.0025322516 0 0)
(-1.3111116 -0.21075636 0 -0.00046503982 0 0)
(-1.2531917 -0.20427307 0 -0.00017421076 0 0)
(-1.3002022 -0.20870669 0 -4.7094413e-05 0 0)
(-1.2543241 -0.20396073 0 2.1044357e-05 0 0)
(-1.2965995 -0.2083451 0 -2.5151806e-05 0 0)
(-1.2561408 -0.20415662 0 2.6187269e-05 0 0)
(-1.2944205 -0.20813915 0 -2.4716179e-05 0 0)
(-1.2579463 -0.20435265 0 2.3705004e-05 0 0)
(-1.2925533 -0.20795151 0 -2.2972955e-05 0 0)
(-1.2596243 -0.20453045 0 2.1826902e-05 0 0)
(-1.2908634 -0.20777948 0 -2.1052248e-05 0 0)
(-1.2611717 -0.20469376 0 2.006683e-05 0 0)
(-1.2893192 -0.20762183 0 -1.9259657e-05 0 0)
(-1.2625986 -0.20484415 0 1.8379859e-05 0 0)
(-1.2879029 -0.20747696 0 -1.7587208e-05 0 0)
(-1.2639149 -0.20498274 0 1.6777102e-05 0 0)
(-1.2866017 -0.20734359 0 -1.6016799e-05 0 0)
(-1.2651298 -0.20511051 0 1.5258566e-05 0 0)
(-1.2854045 -0.20722069 0 -1.4542253e-05 0 0)
(-1.2662507 -0.20522828 0 1.3832107e-05 0 0)
(-1.2843032 -0.20710742 0 -1.3157449e-05 0 0)
(-1.2672847 -0.20533682 0 1.2497357e-05 0 0)
(-1.2832903 -0.20700311 0 -1.1866309e-05 0 0)
(-1.2682378 -0.20543679 0 1.1252913e-05 0 0)
(-1.2823591 -0.20690709 0 -1.067067e-05 0 0)
(-1.2691153 -0.20552875 0 1.0106588e-05 0 0)
(-1.281504 -0.2068188 0 -9.5701317e-06 0 0)
(-1.2699228 -0.20561331 0 9.054801e-06 0 0)
(-1.2807188 -0.20673764 0 -8.5657582e-06 0 0)
(-1.2706656 -0.20569104 0 8.1014196e-06 0 0)
(-1.2799978 -0.20666307 0 -7.6649678e-06 0 0)
(-1.2713488 -0.20576245 0 7.252564e-06 0 0)
(-1.2793357 -0.20659454 0 -6.8649656e-06 0 0)
(-1.2719779 -0.20582816 0 6.4996443e-06 0 0)
(-1.2787259 -0.20653138 0 -6.1618407e-06 0 0)
(-1.272559 -0.20588878 0 5.8556815e-06 0 0)
(-1.278163 -0.2064731 0 -5.5730085e-06 0 0)
(-1.2730973 -0.20594487 0 5.3128142e-06 0 0)
(-1.2776402 -0.20641896 0 -5.0806882e-06 0 0)
(-1.2735998 -0.20599714 0 4.8769451e-06 0 0)
(-1.2771511 -0.20636837 0 -4.7033778e-06 0 0)
(-1.2740723 -0.20604619 0 4.5527977e-06 0 0)
(-1.2766892 -0.20632068 0 -4.4520702e-06 0 0)
(-1.2745205 -0.20609262 0 4.3479884e-06 0 0)
(-1.2762409 -0.20627382 0 -4.0884573e-06 0 0)
(-1.2749453 -0.20613171 0 5.8851701e-06 0 0)
(-1.2758101 -0.20623503 0 -5.2981941e-06 0 0)
(-0.92455353 -0.37430076 0 -0.10972467 0 0)
(-1.1900028 -0.20500579 0 -0.0052029057 0 0)
(-1.1791566 -0.20410189 0 -0.0024020997 0 0)
(-1.2240229 -0.20398396 0 -0.00053678151 0 0)
(-1.1739468 -0.19780784 0 -0.00019702151 0 0)
(-1.2181413 -0.20206282 0 -4.6353631e-05 0 0)
(-1.1761304 -0.1974968 0 1.6754737e-05 0 0)
(-1.2152381 -0.20171812 0 -2.1457012e-05 0 0)
(-1.1779365 -0.19768601 0 2.2898781e-05 0 0)
(-1.2132624 -0.20152014 0 -2.1405538e-05 0 0)
(-1.1796221 -0.19787618 0 2.060425e-05 0 0)
(-1.2115343 -0.20133882 0 -1.9984328e-05 0 0)
(-1.1811802 -0.19804863 0 1.8966643e-05 0 0)
(-1.2099637 -0.2011721 0 -1.8313515e-05 0 0)
(-1.182617 -0.19820709 0 1.7441288e-05 0 0)
(-1.2085267 -0.2010191 0 -1.6744106e-05 0 0)
(-1.1839422 -0.19835307 0 1.5970205e-05 0 0)
(-1.2072084 -0.20087845 0 -1.5277306e-05 0 0)
(-1.1851649 -0.19848759 0 1.4566048e-05 0 0)
(-1.2059975 -0.200749 0 -1.3897332e-05 0 0)
(-1.1862929 -0.19861156 0 1.3231012e-05 0 0)
(-1.2048844 -0.20062978 0 -1.2599997e-05 0 0)
(-1.1873328 -0.19872573 0 1.197503e-05 0 0)
(-1.2038616 -0.20052003 0 -1.1379697e-05 0 0)
(-1.1882909 -0.19883081 0 1.0798843e-05 0 0)
(-1.2029224 -0.2004191 0 -1.0241416e-05 0 0)
(-1.1891726 -0.19892743 0 9.7013896e-06 0 0)
(-1.2020608 -0.20032637 0 -9.1876624e-06 0 0)
(-1.1899828 -0.19901614 0 8.6911978e-06 0 0)
(-1.2012712 -0.20024129 0 -8.2176987e-06 0 0)
(-1.1907267 -0.19909752 0 7.7641839e-06 0 0)
(-1.2005481 -0.20016326 0 -7.3326205e-06 0 0)
(-1.1914093 -0.19917215 0 6.9245444e-06 0 0)
(-1.199886 -0.20009176 0 -6.5403065e-06 0 0)
(-1.1920353 -0.19924052 0 6.1782516e-06 0 0)
(-1.1992797 -0.20002623 0 -5.8368238e-06 0 0)
(-1.1926102 -0.19930327 0 5.5154121e-06 0 0)
(-1.198723 -0.19996599 0 -5.2180175e-06 0 0)
(-1.1931396 -0.19936099 0 4.9504241e-06 0 0)
(-1.1982108 -0.19991057 0 -4.7019272e-06 0 0)
(-1.1936284 -0.19941425 0 4.4730826e-06 0 0)
(-1.1977365 -0.19985922 0 -4.2687537e-06 0 0)
(-1.1940833 -0.19946376 0 4.0900059e-06 0 0)
(-1.1972942 -0.19981135 0 -3.9375419e-06 0 0)
(-1.19451 -0.19951012 0 3.8046246e-06 0 0)
(-1.1968776 -0.19976633 0 -3.7173658e-06 0 0)
(-1.1949138 -0.19955396 0 3.6194217e-06 0 0)
(-1.196474 -0.19972208 0 -3.3630483e-06 0 0)
(-1.1952918 -0.19959052 0 5.1256463e-06 0 0)
(-1.1960682 -0.199684 0 -4.6128076e-06 0 0)
(-0.90484742 -0.35119172 0 -0.095756431 0 0)
(-1.0832417 -0.19606245 0 -0.0050331282 0 0)
(-1.0936607 -0.19684969 0 -0.0023674713 0 0)
(-1.1437489 -0.19713696 0 -0.00048731785 0 0)
(-1.0977968 -0.19126131 0 -0.0001871323 0 0)
(-1.1391353 -0.19541268 0 -3.8504338e-05 0 0)
(-1.1004905 -0.19102898 0 1.4317105e-05 0 0)
(-1.1366018 -0.19509345 0 -1.7780683e-05 0 0)
(-1.1022138 -0.19121462 0 1.9910644e-05 0 0)
(-1.1347821 -0.19490272 0 -1.8351532e-05 0 0)
(-1.1037763 -0.19139877 0 1.7741963e-05 0 0)
(-1.1331772 -0.19472725 0 -1.7226644e-05 0 0)
(-1.1052207 -0.19156591 0 1.6324843e-05 0 0)
(-1.1317167 -0.19456562 0 -1.5783828e-05 0 0)
(-1.1065539 -0.19171959 0 1.5015147e-05 0 0)
(-1.1303797 -0.19441718 0 -1.4419564e-05 0 0)
(-1.1077842 -0.19186122 0 1.3743073e-05 0 0)
(-1.1291531 -0.1942807 0 -1.31426e-05 0 0)
(-1.1089191 -0.19199171 0 1.2522681e-05 0 0)
(-1.128027 -0.19415512 0 -1.1939017e-05 0 0)
(-1.1099657 -0.1921119 0 1.1357866e-05 0 0)
(-1.1269929 -0.19403958 0 -1.0806305e-05 0 0)
(-1.1109297 -0.19222247 0 1.0260488e-05 0 0)
(-1.1260439 -0.19393334 0 -9.7392212e-06 0 0)
(-1.1118166 -0.19232409 0 9.2321813e-06 0 0)
(-1.125174 -0.1938358 0 -8.7435363e-06 0 0)
(-1.1126315 -0.19241737 0 8.2719293e-06 0 0)
(-1.1243775 -0.19374636 0 -7.8223752e-06 0 0)
(-1.1133787 -0.19250283 0 7.3889496e-06 0 0)
(-1.1236494 -0.19366448 0 -6.97443e-06 0 0)
(-1.1140632 -0.19258105 0 6.5786384e-06 0 0)
(-1.1229843 -0.19358957 0 -6.2009621e-06 0 0)
(-1.1146897 -0.19265258 0 5.8454361e-06 0 0)
(-1.1223771 -0.19352112 0 -5.5101311e-06 0 0)
(-1.1152626 -0.19271794 0 5.1950701e-06 0 0)
(-1.1218227 -0.19345855 0 -4.8968505e-06 0 0)
(-1.1157871 -0.19277775 0 4.6165234e-06 0 0)
(-1.1213152 -0.19340121 0 -4.3570515e-06 0 0)
(-1.1162686 -0.19283261 0 4.1254108e-06 0 0)
(-1.1208499 -0.19334861 0 -3.9088669e-06 0 0)
(-1.1167118 -0.19288309 0 3.7092519e-06 0 0)
(-1.1204203 -0.1933 0 -3.5308721e-06 0 0)
(-1.1171231 -0.19292989 0 3.3754875e-06 0 0)
(-1.120021 -0.1932548 0 -3.2427373e-06 0 0)
(-1.1175076 -0.19297362 0 3.1262397e-06 0 0)
(-1.119646 -0.19321237 0 -3.0512078e-06 0 0)
(-1.1178708 -0.19301492 0 2.9594819e-06 0 0)
(-1.1192832 -0.19317069 0 -2.7078437e-06 0 0)
(-1.1182066 -0.19304913 0 4.4092049e-06 0 0)
(-1.1189031 -0.1931335 0 -3.9827199e-06 0 0)
(-0.8922056 -0.33717568 0 -0.087981418 0 0)
(-0.99219142 -0.18737657 0 -0.0046773262 0 0)
(-1.0120344 -0.18937302 0 -0.0022987357 0 0)
(-1.0658142 -0.19025084 0 -0.00044376163 0 0)
(-1.0242056 -0.18470942 0 -0.0001704813 0 0)
(-1.0627566 -0.18875523 0 -2.8226579e-05 0 0)
(-1.0272776 -0.18455524 0 1.3197517e-05 0 0)
(-1.0606055 -0.18846779 0 -1.3991924e-05 0 0)
(-1.0289497 -0.18474091 0 1.7275662e-05 0 0)
(-1.0589515 -0.18828587 0 -1.5479548e-05 0 0)
(-1.0304102 -0.18492007 0 1.5105081e-05 0 0)
(-1.0574688 -0.18811649 0 -1.4664549e-05 0 0)
(-1.0317525 -0.18508223 0 1.3876755e-05 0 0)
(-1.0561133 -0.18795994 0 -1.3436415e-05 0 0)
(-1.0329898 -0.18523128 0 1.2764248e-05 0 0)
(-1.0548706 -0.18781602 0 -1.2262496e-05 0 0)
(-1.0341313 -0.18536861 0 1.1676336e-05 0 0)
(-1.0537305 -0.18768368 0 -1.1161895e-05 0 0)
(-1.035184 -0.18549511 0 1.0626784e-05 0 0)
(-1.0526844 -0.18756197 0 -1.0122653e-05 0 0)
(-1.0361541 -0.18561152 0 9.6208843e-06 0 0)
(-1.0517247 -0.18745009 0 -9.1437848e-06 0 0)
(-1.0370466 -0.1857185 0 8.6718638e-06 0 0)
(-1.0508453 -0.18734736 0 -8.220166e-06 0 0)
(-1.0378666 -0.18581666 0 7.7821142e-06 0 0)
(-1.0500407 -0.18725322 0 -7.3582078e-06 0 0)
(-1.0386187 -0.18590659 0 6.9506961e-06 0 0)
(-1.0493056 -0.18716707 0 -6.5615196e-06 0 0)
(-1.0393068 -0.1859888 0 6.1872388e-06 0 0)
(-1.0486352 -0.18708838 0 -5.8282376e-06 0 0)
(-1.0399356 -0.18606385 0 5.4865724e-06 0 0)
(-1.0480244 -0.18701658 0 -5.1596388e-06 0 0)
(-1.0405097 -0.18613231 0 4.8534364e-06 0 0)
(-1.0474684 -0.18695116 0 -4.5642043e-06 0 0)
(-1.0410331 -0.18619468 0 4.2932198e-06 0 0)
(-1.0469624 -0.18689153 0 -4.0356672e-06 0 0)
(-1.0415108 -0.1862516 0 3.793793e-06 0 0)
(-1.0465006 -0.18683705 0 -3.5700074e-06 0 0)
(-1.041948 -0.18630363 0 3.372102e-06 0 0)
(-1.0460786 -0.18678722 0 -3.1855607e-06 0 0)
(-1.0423491 -0.18635139 0 3.0133149e-06 0 0)
(-1.0456903 -0.18674129 0 -2.8594006e-06 0 0)
(-1.0427202 -0.18639554 0 2.7258083e-06 0 0)
(-1.0453304 -0.1866987 0 -2.6115429e-06 0 0)
(-1.0430661 -0.1864367 0 2.5104408e-06 0 0)
(-1.0449935 -0.1866588 0 -2.4465761e-06 0 0)
(-1.043392 -0.18647553 0 2.3613653e-06 0 0)
(-1.0446682 -0.18661965 0 -2.1158943e-06 0 0)
(-1.0436897 -0.18650752 0 3.7335456e-06 0 0)
(-1.0443141 -0.1865835 0 -3.4059364e-06 0 0)
(-0.87558097 -0.3154455 0 -0.07547985 0 0)
(-0.9161334 -0.17917901 0 -0.0039879048 0 0)
(-0.93503884 -0.18178655 0 -0.0022689265 0 0)
(-0.9892684 -0.18339807 0 -0.00045604056 0 0)
(-0.95290278 -0.17819329 0 -0.00016645035 0 0)
(-0.98891749 -0.18210986 0 -2.2562813e-05 0 0)
(-0.95650388 -0.1780841 0 1.109709e-05 0 0)
(-0.98725949 -0.18184479 0 -1.0776265e-05 0 0)
(-0.95817066 -0.17826676 0 1.4733244e-05 0 0)
(-0.98577416 -0.18167038 0 -1.2839788e-05 0 0)
(-0.95953914 -0.17844062 0 1.2640813e-05 0 0)
(-0.9844055 -0.1815067 0 -1.2283387e-05 0 0)
(-0.96078472 -0.17859777 0 1.1595448e-05 0 0)
(-0.98314787 -0.18135508 0 -1.1250692e-05 0 0)
(-0.96193159 -0.1787422 0 1.0667013e-05 0 0)
(-0.98199387 -0.18121561 0 -1.0253315e-05 0 0)
(-0.96298944 -0.17887527 0 9.7509256e-06 0 0)
(-0.98093532 -0.18108738 0 -9.3172801e-06 0 0)
(-0.96396463 -0.17899778 0 8.8612761e-06 0 0)
(-0.97996475 -0.18096953 0 -8.4319526e-06 0 0)
(-0.96486256 -0.17911042 0 8.0044518e-06 0 0)
(-0.97907548 -0.18086132 0 -7.5975697e-06 0 0)
(-0.96568775 -0.17921379 0 7.1949787e-06 0 0)
(-0.97826189 -0.18076213 0 -6.8090051e-06 0 0)
(-0.96644468 -0.17930848 0 6.4358213e-06 0 0)
(-0.97751894 -0.18067138 0 -6.0730805e-06 0 0)
(-0.96713752 -0.17939506 0 5.7258831e-06 0 0)
(-0.97684165 -0.18058852 0 -5.393854e-06 0 0)
(-0.96777014 -0.17947402 0 5.0751827e-06 0 0)
(-0.97622553 -0.18051302 0 -4.7687216e-06 0 0)
(-0.96834679 -0.17954592 0 4.4780213e-06 0 0)
(-0.97566572 -0.18044432 0 -4.1991166e-06 0 0)
(-0.96887173 -0.17961133 0 3.9393437e-06 0 0)
(-0.97515763 -0.1803819 0 -3.6936731e-06 0 0)
(-0.96934898 -0.17967074 0 3.4641299e-06 0 0)
(-0.97469665 -0.18032518 0 -3.2449663e-06 0 0)
(-0.96978326 -0.17972479 0 3.039354e-06 0 0)
(-0.97427738 -0.1802735 0 -2.8493339e-06 0 0)
(-0.97017935 -0.17977406 0 2.6830777e-06 0 0)
(-0.97389547 -0.18022639 0 -2.52482e-06 0 0)
(-0.97054168 -0.17981914 0 2.3782895e-06 0 0)
(-0.97354523 -0.18018309 0 -2.2474038e-06 0 0)
(-0.97087569 -0.17986071 0 2.1343533e-06 0 0)