/*--------------------------------*- C++ -*----------------------------------*\
| =========                 |                                                 |
| \\      /  F ield         | OpenFOAM: The Open Source CFD Toolbox           |
|  \\    /   O peration     | Version:  2312                                  |
|   \\  /    A nd           | Website:  www.openfoam.com                      |
|    \\/     M anipulation  |                                                 |
\*---------------------------------------------------------------------------*/
FoamFile
{
    version     2.0;
    format      ascii;
    arch        "LSB;label=32;scalar=64";
    class       volScalarField;
    location    "1";
    object      T;
}
// * * * * * * * * * * * * * * * * * * * * * * * * * * * * * * * * * * * * * //

dimensions      [0 0 0 1 0 0 0];

internalField   nonuniform List<scalar> 
4000
(
329.07576
327.96429
327.81276
327.73423
327.67987
327.62597
327.58564
327.54047
327.50574
327.46602
327.4352
327.39962
327.37156
327.33879
327.31225
327.28106
327.25506
327.22465
327.19867
327.16866
327.14252
327.1128
327.08649
327.05702
327.03057
327.00135
326.97478
326.94576
326.91907
326.89023
326.86343
326.83474
326.80782
326.77925
326.75224
326.72376
326.69668
326.66826
326.64113
326.61275
326.58559
326.55722
326.53007
326.50167
326.47457
326.44611
326.4191
326.3905
326.36374
326.33441
331.05199
329.03899
328.64587
328.46755
328.36154
328.25704
328.19303
328.11461
328.06735
328.00517
327.96957
327.91979
327.89247
327.85114
327.82842
327.79189
327.77085
327.73667
327.71572
327.68276
327.66134
327.62923
327.60732
327.57598
327.55364
327.52302
327.50031
327.47033
327.44727
327.41781
327.39442
327.36539
327.34168
327.31301
327.28901
327.26061
327.23639
327.20819
327.18382
327.15573
327.13129
327.10322
327.07881
327.05067
327.02639
326.99805
326.97405
326.94529
326.92205
326.89121
332.35176
330.08669
329.47358
329.19791
329.04087
328.8865
328.79881
328.68748
328.6274
328.54276
328.50186
328.4377
328.4106
328.36059
328.34129
328.2994
328.28305
328.24519
328.22908
328.19327
328.17644
328.14204
328.12438
328.09124
328.0729
328.04095
328.022
327.99109
327.97158
327.94155
327.92148
327.89218
327.87159
327.84286
327.82182
327.79353
327.77213
327.74416
327.72251
327.69473
327.67297
327.64523
327.62352
327.59564
327.57415
327.54595
327.52492
327.49602
327.47625
327.44416
333.25669
331.08116
330.28745
329.92082
329.7146
329.51207
329.40095
329.25751
329.18426
329.07734
329.03043
328.95175
328.92406
328.86522
328.8487
328.80147
328.78938
328.74797
328.73641
328.69793
328.68543
328.6489
328.63528
328.60048
328.58591
328.55275
328.53737
328.50565
328.48951
328.45901
328.44213
328.41262
328.39504
328.36632
328.34813
328.32002
328.30133
328.27367
328.25465
328.22723
328.20808
328.18068
328.16161
328.13403
328.11527
328.08723
328.06911
328.04012
328.02369
327.99072
333.91351
331.99902
331.0764
330.63
330.37831
330.13054
329.99673
329.82255
329.73594
329.6072
329.55347
329.46023
329.43096
329.36317
329.34861
329.29605
329.28765
329.24287
329.23545
329.19454
329.18606
329.14762
329.13774
329.10146
329.09039
329.05616
329.0441
329.0117
328.99872
328.96786
328.95398
328.92438
328.90964
328.88104
328.86555
328.8377
328.82161
328.79431
328.77782
328.75081
328.73416
328.70717
328.69065
328.66341
328.64727
328.61947
328.60413
328.57515
328.56186
328.52846
334.40451
332.82244
331.8282
331.31786
331.02656
330.7379
330.58281
330.37994
330.28007
330.13035
330.06906
329.96136
329.92945
329.85264
329.83906
329.78124
329.77582
329.72788
329.72412
329.68107
329.6762
329.63613
329.62963
329.5921
329.58419
329.54908
329.54002
329.50711
329.497
329.46595
329.45482
329.42527
329.41317
329.3848
329.37183
329.34436
329.33071
329.30385
329.28975
329.26322
329.24896
329.22244
329.20833
329.1815
329.16787
329.14037
329.12767
329.09881
329.08841
329.05504
334.77988
333.54104
332.53097
331.97615
331.65329
331.32954
331.15536
330.92662
330.81396
330.64455
330.57514
330.45334
330.41773
330.3319
330.31826
330.25524
330.25201
330.20115
330.20049
330.1556
330.15392
330.11251
330.10898
330.07045
330.06532
330.02954
330.02314
329.98989
329.98236
329.95125
329.94263
329.91326
329.90357
329.87556
329.86492
329.83792
329.82654
329.80022
329.78836
329.76238
329.75037
329.72438
329.71256
329.68621
329.67493
329.64783
329.63759
329.60899
329.60118
329.56829
335.07141
334.15087
333.1745
332.5966
332.25212
331.90045
331.71022
331.45916
331.33469
331.14737
331.06955
330.93429
330.89403
330.7993
330.78454
330.71642
330.71452
330.66098
330.66279
330.61641
330.61743
330.57502
330.57404
330.53478
330.53202
330.49578
330.49166
330.45825
330.45296
330.42197
330.41555
330.38652
330.37899
330.35147
330.34295
330.31653
330.30723
330.28155
330.27175
330.24642
330.23648
330.21111
330.20141
330.17562
330.16653
330.13993
330.13194
330.10377
330.09821
330.06622
335.30112
334.65477
333.75133
333.17177
332.81686
332.44555
332.2431
331.97396
331.83915
331.63621
331.55007
331.40231
331.35662
331.25327
331.23637
331.16328
331.16182
331.10584
331.10948
331.06195
331.06517
331.0221
331.02323
330.98351
330.98271
330.94623
330.944
330.9106
330.9072
330.87649
330.87197
330.84342
330.83779
330.81089
330.80425
330.77854
330.77111
330.74616
330.73825
330.71364
330.70562
330.68094
330.6732
330.64806
330.64096
330.61497
330.609
330.58146
330.57778
330.54703
335.48425
335.06005
334.25722
333.69563
333.34191
332.95998
332.74976
332.46738
332.32419
332.10841
332.01443
331.85549
331.80385
331.69234
331.67236
331.59448
331.5926
331.53441
331.53921
331.49085
331.49577
331.45238
331.45518
331.41529
331.41603
331.37952
331.37878
331.34558
331.34371
331.31342
331.31049
331.28254
331.27855
331.25239
331.24741
331.2225
331.21674
331.19261
331.1864
331.16259
331.15631
331.1324
331.12643
331.10204
331.09673
331.07148
331.06729
331.04055
331.03841
331.00918
335.6322
335.37794
334.69133
334.1641
333.8227
333.43938
333.22629
332.93592
332.78675
332.5613
332.46036
332.29192
332.23412
332.11512
332.09128
332.00886
332.00571
331.94553
331.95084
331.90196
331.9081
331.86471
331.86876
331.82898
331.83085
331.79452
331.79488
331.76202
331.76132
331.73158
331.72992
331.70271
331.70009
331.67476
331.67121
331.6472
331.64291
331.61968
331.61499
331.59206
331.58733
331.56427
331.55988
331.53633
331.5326
331.50821
331.50554
331.4798
331.47886
331.45136
335.75331
335.6214
335.05595
334.5753
334.25602
333.88022
333.66929
333.37637
333.22396
332.99233
332.88569
332.70974
332.6459
332.52029
332.49202
332.40539
332.40021
332.33827
332.34344
332.29433
332.3012
332.25814
332.26305
332.22364
332.22626
332.1903
332.19137
332.15899
332.15911
332.13003
332.12935
332.10296
332.10144
332.07705
332.0747
332.05166
332.04865
332.0264
332.02303
332.00105
331.99769
331.97556
331.97255
331.94993
331.94757
331.92415
331.92275
331.89819
331.89814
331.8725
335.85393
335.80417
335.35596
334.92959
334.64022
334.28
334.07612
333.78603
333.63329
333.39915
333.28842
333.10722
333.03778
332.90667
332.87362
332.7832
332.77533
332.71185
332.7163
332.66721
332.67438
332.63192
332.63733
332.59855
332.60156
332.56614
332.56759
332.53579
332.5364
332.50806
332.50805
332.48257
332.4819
332.45851
332.45714
332.43515
332.43321
332.412
332.40977
332.38881
332.38663
332.3655
332.36369
332.34207
332.34087
332.31855
332.31817
332.29492
332.2955
332.27179
335.93884
335.93945
335.59808
335.22934
334.97526
334.6374
334.44497
334.16281
334.01269
333.77974
333.66673
333.48274
333.40847
333.27318
333.23525
333.14157
333.13051
333.06571
333.0689
333.02006
333.02711
332.98553
332.99112
332.95319
332.95629
332.92157
332.92306
332.89194
332.89272
332.86519
332.86557
332.84104
332.84097
332.81864
332.81804
332.79714
332.79609
332.77596
332.7747
332.7548
332.75363
332.73356
332.73275
332.71223
332.71198
332.69085
332.69126
332.66945
332.67044
332.64868
336.01159
336.03909
335.79015
335.4786
335.26264
334.9523
334.77504
334.50536
334.36067
334.13246
334.01916
333.83492
333.75687
333.61887
333.57623
333.47993
333.46532
333.39946
333.40092
333.35253
333.3591
333.31863
333.32412
333.28725
333.29017
333.25628
333.25753
333.22716
333.22782
333.20112
333.20163
333.17808
333.17838
333.15714
333.15712
333.13734
333.13701
333.11799
333.11753
333.09874
333.09841
333.07944
333.07947
333.0601
333.0606
333.04074
333.04173
333.02145
333.02268
333.00283
336.07487
336.11311
335.94038
335.68261
335.50518
335.22579
335.06647
334.81311
334.67636
334.4562
334.3446
334.16267
334.08208
333.94298
333.89603
333.79786
333.77952
333.71287
333.71223
333.66445
333.67024
333.63107
333.63623
333.60061
333.60313
333.57019
333.57095
333.54138
333.54166
333.5158
333.51619
333.49361
333.49409
333.47392
333.4743
333.45565
333.45588
333.438
333.43819
333.42052
333.42088
333.40306
333.40374
333.38558
333.38665
333.36813
333.36952
333.3508
333.35214
333.33414
336.13062
336.16948
336.05676
335.84729
335.70676
335.45999
335.32038
335.08631
334.9596
334.75037
334.64237
334.46519
334.38344
334.2449
334.19428
334.09509
334.07301
334.00587
334.00286
333.95584
333.96059
333.92288
333.92754
333.89332
333.89528
333.86339
333.86345
333.8347
333.83438
333.80934
333.8094
333.78776
333.78822
333.76912
333.76973
333.75221
333.75284
333.7361
333.73679
333.72027
333.72116
333.70452
333.70569
333.68879
333.69026
333.67312
333.67475
333.65762
333.65896
333.64273
336.18029
336.2142
336.14656
335.97881
335.87193
335.65787
335.5387
335.32594
335.21087
335.01494
334.91225
334.74205
334.66058
334.52428
334.47079
334.3715
334.34584
334.27857
334.27302
334.22688
334.23038
334.19428
334.19828
334.16562
334.16688
334.13612
334.13533
334.1074
334.10629
334.08203
334.08156
334.06083
334.06109
334.04302
334.04371
334.02729
334.02819
334.01258
334.01365
333.99828
333.99956
333.98411
333.98564
333.97
333.97174
333.95599
333.95774
333.94217
333.94346
333.92889
336.22491
336.2515
336.2161
336.08311
336.00561
335.82298
335.72403
335.53368
335.43127
335.25043
335.1545
334.99321
334.91342
334.78097
334.72555
334.62711
334.59821
334.53119
334.52303
334.4779
334.48002
334.4456
334.44887
334.41786
334.41836
334.38879
334.38704
334.35992
334.35785
334.33433
334.33317
334.31327
334.31317
334.29607
334.29671
334.28136
334.2824
334.26791
334.26922
334.255
334.25655
334.24229
334.24406
334.22969
334.23158
334.21721
334.21898
334.20493
334.20613
334.1931
336.26526
336.28416
336.2706
336.16568
336.11274
335.95925
335.87947
335.71172
335.62245
335.45789
335.36982
335.21902
335.1422
335.01509
334.95874
334.86214
334.83045
334.76409
334.75337
334.70936
334.71
334.67734
334.67983
334.65055
334.65026
334.62193
334.61914
334.59282
334.58968
334.56682
334.56482
334.54567
334.54509
334.52889
334.52935
334.51501
334.5161
334.50268
334.50414
334.49104
334.49276
334.47968
334.48158
334.46846
334.4704
334.45739
334.4591
334.44651
334.44759
334.43599
336.30189
336.31388
336.31418
336.23129
336.19802
336.0707
336.00841
335.86269
335.78648
335.63879
335.55934
335.4202
335.34748
335.227
335.17074
335.07694
335.04302
334.97777
334.96462
334.92184
334.92098
334.89012
334.89181
334.86433
334.86325
334.83619
334.83233
334.80679
334.80248
334.7802
334.77724
334.75876
334.75756
334.74219
334.74237
334.72899
334.73001
334.71763
334.71913
334.70713
334.70892
334.69699
334.69893
334.68705
334.68895
334.67726
334.67886
334.66764
334.6686
334.65832
336.33523
336.34159
336.34993
336.28394
336.26573
336.16124
336.11433
335.98944
335.92578
335.79498
335.72453
335.59781
335.53009
335.41732
335.36213
335.27201
335.23651
335.17281
335.15745
335.11602
335.11369
335.08464
335.08555
335.0599
335.05807
335.03231
335.02738
335.00258
334.99705
334.97528
334.97126
334.95334
334.95144
334.9368
334.93661
334.9241
334.92498
334.91358
334.91506
334.9041
334.90589
334.89509
334.89699
334.8863
334.88811
334.87766
334.87913
334.86919
334.87002
334.86094
336.36563
336.36772
336.38012
336.32687
336.31961
336.23453
336.20066
336.09494
336.04294
335.92856
335.86716
335.75321
335.69115
335.58688
335.53366
335.44803
335.41162
335.34991
335.33265
335.29267
335.28894
335.26171
335.26189
335.23809
335.23556
335.21112
335.20515
335.18105
335.17427
335.15292
335.14778
335.13032
335.12763
335.11362
335.11298
335.10128
335.10194
335.09146
335.09284
335.08289
335.08462
335.07488
335.07669
335.06713
335.06881
335.05954
335.06086
335.0521
335.05281
335.04481
336.39337
336.39241
336.40628
336.36254
336.36279
336.29384
336.27064
336.18213
336.14061
336.04181
335.98918
335.88797
335.83199
335.73677
335.68627
335.6058
335.56916
335.50987
335.49105
335.45264
335.44762
335.4222
335.4217
335.39975
335.39661
335.37348
335.36653
335.3431
335.33508
335.31405
335.30776
335.29064
335.2871
335.27363
335.27247
335.26149
335.26188
335.25226
335.25348
335.24448
335.24609
335.23736
335.23905
335.23055
335.23208
335.2239
335.22506
335.21738
335.21798
335.21097
336.41867
336.41565
336.42945
336.39282
336.39781
336.34199
336.32719
336.25378
336.22143
336.13705
336.09269
336.00384
335.95412
335.86819
335.82105
335.74626
335.71003
335.65356
335.63355
335.59684
335.59066
335.56703
335.56594
335.54582
335.54215
335.52034
335.51247
335.48967
335.48042
335.45966
335.45217
335.43531
335.43087
335.41783
335.4161
335.40576
335.40582
335.39699
335.39802
335.3899
335.39135
335.38358
335.38511
335.3776
335.37896
335.37179
335.37279
335.36608
335.36659
335.36046
336.44175
336.43741
336.4503
336.41903
336.42665
336.38137
336.3729
336.31248
336.2879
336.21659
336.17979
336.10268
336.05916
335.98254
335.93918
335.87045
335.83523
335.78191
335.76111
335.72619
335.71904
335.69717
335.69558
335.67724
335.67315
335.65263
335.64394
335.62173
335.6113
335.59072
335.58204
335.56533
335.55996
335.54726
335.54492
335.53514
335.53483
335.52672
335.52752
335.52022
335.52149
335.5146
335.51595
335.50936
335.51054
335.5043
335.50514
335.49932
335.49974
335.4944
336.46278
336.45763
336.46921
336.44211
336.45082
336.41389
336.40996
336.36051
336.34233
336.28263
336.25257
336.18636
336.1488
336.08125
336.04198
335.97952
335.9458
335.8959
335.87471
335.84168
335.83374
335.81358
335.81159
335.795
335.79058
335.77132
335.7619
335.74026
335.7287
335.70823
335.69837
335.68173
335.67541
335.66296
335.65999
335.65068
335.64998
335.64251
335.64306
335.63651
335.63758
335.6315
335.63266
335.62691
335.62793
335.62251
335.62322
335.61817
335.61852
335.61389
336.48193
336.4763
336.48644
336.46266
336.47144
336.44105
336.4402
336.39985
336.38679
336.33721
336.31303
336.25673
336.22474
336.16585
336.13078
336.07464
336.04284
335.99656
335.97535
335.9443
335.93577
335.91728
335.91499
335.90006
335.89542
335.87738
335.86733
335.84621
335.8336
335.81319
335.80217
335.78552
335.77825
335.76597
335.76235
335.75343
335.75233
335.74543
335.74571
335.73984
335.7407
335.73536
335.73634
335.73135
335.7322
335.72752
335.72811
335.72376
335.72405
335.72004
336.49933
336.49343
336.50213
336.48111
336.4893
336.46404
336.46509
336.4322
336.42309
336.3822
336.363
336.31555
336.28864
336.23785
336.20695
336.15704
336.12748
336.08495
336.06405
336.03504
336.02611
336.00924
336.00675
335.99341
335.98863
335.97177
335.96119
335.94056
335.92696
335.90656
335.89443
335.8777
335.8695
335.85731
335.85304
335.84444
335.84293
335.83652
335.83652
335.83126
335.83192
335.82724
335.82805
335.82373
335.82443
335.82042
335.8209
335.81716
335.81739
335.81394
336.51512
336.50904
336.51639
336.49771
336.50494
336.48372
336.48579
336.45893
336.45278
336.41923
336.40416
336.36449
336.3421
336.29873
336.27186
336.22796
336.20083
336.16209
336.14181
336.11488
336.10575
336.09043
336.08784
336.07601
336.07117
336.05542
336.04439
336.02421
336.00972
335.98929
335.9761
335.95925
335.95013
335.93797
335.93306
335.92471
335.92278
335.91681
335.91654
335.91182
335.91227
335.90818
335.90883
335.90511
335.90568
335.90224
335.90263
335.89943
335.89961
335.89665
336.52941
336.52319
336.52928
336.51265
336.51876
336.50073
336.50318
336.48116
336.47713
336.44971
336.43799
336.40504
336.38658
336.3499
336.32682
336.28861
336.26403
336.22905
336.20962
336.18478
336.17562
336.16181
336.15919
336.14877
336.14394
336.12923
336.11784
336.09808
336.08277
336.06228
336.0481
336.03107
336.02108
336.0089
336.00336
335.99521
335.99288
335.98727
335.98673
335.98249
335.98275
335.97918
335.97967
335.97648
335.97694
335.97401
335.97431
335.97159
335.97173
335.9692
336.54227
336.53593
336.54086
336.52605
336.53101
336.51554
336.51795
336.49979
336.49721
336.47483
336.46577
336.43854
336.42345
336.39267
336.37308
336.34016
336.31814
336.28683
336.26845
336.24569
336.23666
336.22428
336.22172
336.2126
336.20782
336.19408
336.1824
336.16301
336.14696
336.12639
336.11128
336.09406
336.08325
336.071
336.06487
336.05686
336.05414
336.04885
336.04806
336.04423
336.0443
336.0412
336.04155
336.03882
336.03917
336.03668
336.03692
336.03461
336.03472
336.03256
336.55378
336.54731
336.55118
336.53799
336.54186
336.52849
336.53059
336.5155
336.51386
336.4956
336.48859
336.46618
336.45389
336.42828
336.41181
336.38372
336.36422
336.33641
336.31921
336.2985
336.28974
336.27872
336.27627
336.26835
336.26365
336.25079
336.23886
336.21981
336.2031
336.18244
336.16648
336.14905
336.13747
336.12513
336.11844
336.11054
336.10745
336.10242
336.10139
336.09792
336.09783
336.09513
336.09536
336.09303
336.09329
336.09118
336.09136
336.08941
336.08949
336.08766
336.56399
336.55738
336.56029
336.54855
336.55144
336.53981
336.54146
336.52883
336.52775
336.51282
336.50737
336.48896
336.47898
336.45779
336.44409
336.42033
336.40323
336.37872
336.36279
336.34406
336.33568
336.32594
336.32366
336.31681
336.31222
336.30013
336.28801
336.26924
336.25194
336.23118
336.21446
336.19681
336.18453
336.1721
336.16488
336.15706
336.15363
336.14883
336.14758
336.14442
336.14418
336.14182
336.14194
336.13996
336.14014
336.13837
336.1385
336.13685
336.13691
336.13536
336.57291
336.56617
336.56823
336.5578
336.55985
336.54968
336.55085
336.54018
336.53939
336.52715
336.52286
336.50774
336.49962
336.48218
336.47087
336.45094
336.43607
336.41462
336.4
336.38317
336.37526
336.36672
336.36463
336.35875
336.35425
336.34284
336.33053
336.312
336.2942
336.27333
336.25592
336.23807
336.22516
336.21263
336.20495
336.19718
336.19345
336.18884
336.18739
336.1845
336.18413
336.18206
336.18209
336.18041
336.18052
336.17903
336.17913
336.17774
336.17779
336.17648
336.58053
336.57372
336.57506
336.5658
336.56715
336.55825
336.55894
336.54986
336.54919
336.53911
336.53567
336.52322
336.51658
336.50228
336.493
336.47641
336.46359
336.44492
336.43161
336.41657
336.4092
336.40177
336.3999
336.39484
336.39043
336.37958
336.36711
336.34877
336.3305
336.30953
336.29153
336.27351
336.26005
336.24742
336.23933
336.23162
336.22761
336.22317
336.22155
336.21888
336.2184
336.21659
336.21654
336.21511
336.21517
336.21392
336.21398
336.21282
336.21285
336.21176
336.58685
336.58008
336.58082
336.57263
336.57342
336.56563
336.5659
336.55811
336.55746
336.54911
336.54628
336.536
336.53053
336.51881
336.51123
336.49751
336.48651
336.47035
336.45831
336.44494
336.43815
336.43174
336.43009
336.42573
336.42137
336.41096
336.39832
336.38012
336.36146
336.3404
336.32189
336.30372
336.2898
336.2771
336.26867
336.261
336.25677
336.25247
336.2507
336.24823
336.24766
336.24606
336.24594
336.24473
336.24475
336.2437
336.24374
336.24277
336.24279
336.24187
336.59185
336.58527
336.58557
336.57836
336.57872
336.57191
336.57183
336.56513
336.56444
336.55748
336.55508
336.54655
336.54198
336.53238
336.5262
336.5149
336.5055
336.49156
336.48074
336.46891
336.46272
336.45723
336.45578
336.452
336.44764
336.43756
336.42473
336.40662
336.38761
336.36647
336.34754
336.32927
336.31498
336.30224
336.29354
336.28592
336.28151
336.27733
336.27545
336.27315
336.2725
336.27108
336.27091
336.26988
336.26987
336.26899
336.26901
336.26821
336.26822
336.26745
336.59555
336.58937
336.58939
336.58307
336.58314
336.5772
336.57685
336.57105
336.5703
336.56446
336.56239
336.55525
336.55137
336.54349
336.53844
336.52916
336.52115
336.50914
336.49945
336.48903
336.48344
336.47877
336.4775
336.47415
336.46974
336.45986
336.44683
336.42875
336.40944
336.38825
336.369
336.35067
336.3361
336.32336
336.31445
336.30691
336.30236
336.2983
336.29634
336.29418
336.29347
336.29221
336.292
336.29112
336.29108
336.29035
336.29035
336.28969
336.28969
336.28905
336.59806
336.59246
336.59234
336.58686
336.58674
336.58158
336.58104
336.57601
336.57521
336.57028
336.56843
336.56241
336.55906
336.55255
336.54841
336.54078
336.53394
336.5236
336.51495
336.50579
336.50078
336.49684
336.4957
336.49266
336.48812
336.47833
336.46507
336.44698
336.42741
336.40619
336.38671
336.36837
336.35362
336.34093
336.33189
336.32444
336.3198
336.31586
336.31383
336.31181
336.31105
336.30993
336.30969
336.30894
336.30888
336.30827
336.30826
336.30771
336.30771
336.30718
336.59953
336.59467
336.59454
336.58982
336.5896
336.58513
336.58449
336.5801
336.57928
336.57508
336.5734
336.56827
336.56533
336.5599
336.55647
336.55017
336.54432
336.53539
336.52768
336.51964
336.51519
336.51184
336.51079
336.50792
336.50318
336.49335
336.47983
336.46169
336.4419
336.42069
336.40107
336.38279
336.36796
336.35537
336.34627
336.33894
336.33426
336.33044
336.32838
336.32647
336.32569
336.32467
336.32442
336.32377
336.3237
336.3232
336.32318
336.32272
336.32272
336.32228
336.60017
336.59614
336.59607
336.59205
336.59181
336.58795
336.58726
336.58344
336.58261
336.579
336.57745
336.57302
336.5704
336.56581
336.56293
336.55768
336.55262
336.54487
336.538
336.53095
336.527
336.52415
336.52312
336.52028
336.51526
336.50529
336.49147
336.47324
336.45329
336.43212
336.41245
336.39431
336.37949
336.36705
336.35797
336.35078
336.3461
336.34241
336.34034
336.33855
336.33775
336.33684
336.33657
336.33601
336.33593
336.33551
336.33549
336.33512
336.33511
336.33475
336.60023
336.597
336.59706
336.59366
336.59345
336.59011
336.58943
336.58609
336.58528
336.58214
336.5807
336.57681
336.57445
336.5705
336.56803
336.56357
336.55916
336.55238
336.54624
336.54004
336.53654
336.53407
336.53299
336.53005
336.52467
336.51445
336.5003
336.48196
336.46188
336.4408
336.42119
336.40325
336.38853
336.37631
336.36732
336.3603
336.35568
336.35212
336.35007
336.34838
336.34758
336.34675
336.34648
336.346
336.34591
336.34557
336.34554
336.34523
336.34522
336.34493
336.59991
336.5974
336.59759
336.59473
336.59458
336.59171
336.59108
336.58813
336.58736
336.58459
336.58325
336.57977
336.57759
336.57412
336.57195
336.56808
336.56417
336.55816
336.55266
336.54718
336.54406
336.54185
336.54064
336.53747
336.53165
336.52109
336.50658
336.48812
336.46797
336.44703
336.42757
336.4099
336.39539
336.38344
336.37461
336.3678
336.36326
336.35985
336.35784
336.35625
336.35547
336.35472
336.35444
336.35403
336.35394
336.35365
336.35362
336.35337
336.35336
336.35312
336.59939
336.59745
336.59777
336.59535
336.5953
336.59281
336.59225
336.58963
336.58892
336.58643
336.58515
336.58198
336.57994
336.5768
336.57483
336.57138
336.56783
336.56243
336.55748
336.55258
336.54978
336.5477
336.54628
336.54276
336.53642
336.52543
336.51056
336.49197
336.47181
336.45107
336.43185
336.41453
336.40031
336.38869
336.38009
336.37352
336.36912
336.36586
336.36391
336.36242
336.36166
336.36097
336.36071
336.36035
336.36026
336.36002
336.35999
336.35979
336.35978
336.35958
336.59876
336.59725
336.59768
336.59561
336.59566
336.59347
336.59301
336.59066
336.59
336.5877
336.58647
336.5835
336.58157
336.57864
336.57678
336.57358
336.57031
336.56536
336.56086
336.55643
336.55387
336.55181
336.55007
336.54609
336.53916
336.52768
336.51244
336.49373
336.47363
336.45316
336.43426
336.41738
336.40354
336.39231
336.38399
336.37769
336.37345
336.37036
336.36849
336.3671
336.36636
336.36574
336.36549
336.36518
336.36509
336.36489
336.36486
336.3647
336.36469
336.36453
336.59806
336.59686
336.59737
336.59556
336.59573
336.59377
336.59341
336.59124
336.59064
336.58845
336.58725
336.58439
336.58251
336.57968
336.57787
336.57479
336.5717
336.56708
336.56295
336.55887
336.55645
336.55428
336.55215
336.54759
336.54002
336.528
336.5124
336.4936
336.47363
336.45349
336.43503
336.41864
336.40526
336.39447
336.38649
336.38049
336.37645
336.37353
336.37176
336.37046
336.36977
336.36921
336.36897
336.36869
336.36862
336.36845
336.36842
336.36828
336.36828
336.36815
336.59732
336.59633
336.5969
336.59528
336.59554
336.59375
336.59349
336.59143
336.59087
336.5887
336.5875
336.58466
336.58279
336.57997
336.57814
336.57507
336.57208
336.56767
336.56383
336.55998
336.55762
336.55523
336.55261
336.54739
336.53913
336.52654
336.51061
336.49175
336.47198
336.45226
336.43432
336.4185
336.40566
336.39536
336.38776
336.38209
336.37827
336.37554
336.37387
336.37267
336.37202
336.37151
336.37129
336.37105
336.37098
336.37083
336.37081
336.3707
336.37069
336.37059
336.59653
336.59569
336.5963
336.59478
336.59515
336.59345
336.59327
336.59125
336.5907
336.58847
336.58722
336.58432
336.58242
336.57951
336.57761
336.57445
336.57149
336.5672
336.56357
336.55985
336.55745
336.55472
336.55153
336.54556
336.53658
336.52342
336.5072
336.48834
336.46887
336.44964
336.4323
336.41713
336.40488
336.39511
336.38795
336.38262
336.37904
336.37649
336.37494
336.37384
336.37324
336.37278
336.37258
336.37236
336.3723
336.37218
336.37216
336.37207
336.37207
336.37198
336.59567
336.59493
336.59558
336.59411
336.59457
336.59288
336.59277
336.5907
336.59012
336.58774
336.58641
336.58335
336.58139
336.5783
336.57628
336.57294
336.56997
336.5657
336.56222
336.5585
336.55597
336.55279
336.54896
336.54218
336.53248
336.51875
336.5023
336.48352
336.46443
336.44576
336.42912
336.41465
336.40306
336.39386
336.38715
336.38218
336.37886
336.37651
336.37508
336.37407
336.37353
336.37311
336.37293
336.37274
336.37269
336.37258
336.37257
336.37249
336.37249
336.37242
336.59474
336.59408
336.59476
336.59329
336.59382
336.59208
336.592
336.58978
336.58913
336.5865
336.58504
336.58174
336.57965
336.57631
336.57413
336.57054
336.56751
336.56318
336.55977
336.55596
336.55321
336.54947
336.54494
336.5373
336.52689
336.51264
336.49604
336.47741
336.45879
336.44078
336.4249
336.41118
336.4003
336.39169
336.38547
336.38086
336.37782
336.37566
336.37437
336.37344
336.37296
336.37257
336.37242
336.37225
336.37221
336.37212
336.37211
336.37204
336.37204
336.37199
336.59372
336.59313
336.59386
336.59233
336.59292
336.59103
336.59093
336.58847
336.58767
336.58471
336.58305
336.57942
336.57717
336.5735
336.57111
336.56723
336.56409
336.55964
336.55623
336.55221
336.54916
336.54477
336.53949
336.53098
336.51989
336.50518
336.48852
336.47013
336.45208
336.4348
336.41975
336.40684
336.3967
336.3887
336.38298
336.37875
336.37599
336.37401
336.37285
336.37201
336.37159
336.37124
336.37111
336.37095
336.37093
336.37084
336.37084
336.37078
336.37079
336.37074
336.59261
336.59208
336.59285
336.59122
336.59184
336.58972
336.58953
336.58671
336.58571
336.5823
336.58039
336.57635
336.57389
336.56982
336.56719
336.56295
336.55969
336.55504
336.55157
336.54726
336.54381
336.5387
336.53264
336.52327
336.51156
336.49646
336.47984
336.4618
336.44442
336.42793
336.41378
336.4017
336.39233
336.38495
336.37975
336.37588
336.3734
336.3716
336.37058
336.36981
336.36946
336.36914
336.36904
336.36889
336.36888
336.3688
336.3688
336.36875
336.36876
336.36872
336.59139
336.59094
336.59176
336.58997
336.59057
336.58811
336.58775
336.58445
336.58316
336.57919
336.57698
336.57245
336.56972
336.56521
336.56232
336.55768
336.55425
336.54935
336.54575
336.54106
336.53714
336.53125
336.52441
336.5142
336.50196
336.48657
336.47011
336.45251
336.43589
336.42026
336.40706
336.39583
336.38725
336.3805
336.3758
336.37229
336.37009
336.36847
336.36759
336.36689
336.3666
336.3663
336.36623
336.36609
336.36609
336.36601
336.36603
336.36598
336.36599
336.36596
336.59005
336.58969
336.59056
336.58855
336.58906
336.58613
336.5855
336.58159
336.57992
336.5753
336.57273
336.56763
336.5646
336.55958
336.55641
336.55135
336.54774
336.54253
336.53874
336.53358
336.52914
336.52243
336.51482
336.50384
336.49115
336.4756
336.45941
336.44236
336.42659
336.41188
336.39965
336.3893
336.38151
336.37537
336.37118
336.36802
336.36609
336.36464
336.36388
336.36325
336.36302
336.36274
336.3627
336.36256
336.36258
336.3625
336.36252
336.36248
336.36249
336.36246
336.5886
336.58834
336.58924
336.58693
336.58724
336.58371
336.58269
336.57802
336.57588
336.57052
336.56752
336.5618
336.55844
336.55288
336.54942
336.54391
336.5401
336.53453
336.5305
336.52479
336.51979
336.51225
336.50391
336.49223
336.47923
336.46363
336.44785
336.43145
336.41659
336.40284
336.39162
336.38215
336.37514
336.3696
336.3659
336.36307
336.36141
336.3601
336.35947
336.3589
336.35872
336.35847
336.35845
336.35832
336.35835
336.35827
336.3583
336.35825
336.35827
336.35825
336.587
336.5869
336.58777
336.58504
336.58504
336.58072
336.57918
336.57362
336.57091
336.56472
336.56124
336.55485
336.55113
336.54501
336.54126
336.53529
336.53127
336.5253
336.52096
336.51467
336.50907
336.50072
336.49171
336.47945
336.46626
336.45075
336.4355
336.41984
336.40597
336.39322
336.38301
336.37439
336.36815
336.36319
336.35996
336.35745
336.35603
336.35487
336.35436
336.35384
336.35372
336.35347
336.35349
336.35335
336.3534
336.35332
336.35336
336.35331
336.35333
336.35331
336.58525
336.58537
336.58612
336.58282
336.58232
336.57703
336.57481
336.56823
336.56487
336.55777
336.55379
336.54669
336.54261
336.53592
336.53188
336.52544
336.52119
336.51478
336.51011
336.50319
336.49699
336.48786
336.47829
336.46556
336.45233
336.43706
336.42245
336.40762
336.39478
336.38304
336.37384
336.36607
336.36057
336.35616
336.35338
336.35115
336.34997
336.34894
336.34854
336.34807
336.34799
336.34776
336.3478
336.34766
336.34772
336.34763
336.34768
336.34763
336.34765
336.34763
336.58334
336.58375
336.58421
336.58014
336.57894
336.57246
336.56942
336.56168
336.5576
336.54954
336.54503
336.53721
336.53278
336.52552
336.5212
336.5143
336.50981
336.50295
336.49791
336.49035
336.48357
336.47373
336.4637
336.45065
336.43753
336.42262
336.40877
336.39483
336.38307
336.37234
336.36414
336.35718
336.3524
336.34849
336.34613
336.34417
336.34321
336.34229
336.34199
336.34156
336.34153
336.3413
336.34137
336.34123
336.3413