/*--------------------------------*- C++ -*----------------------------------*\
| =========                 |                                                 |
| \\      /  F ield         | OpenFOAM: The Open Source CFD Toolbox           |
|  \\    /   O peration     | Version:  2312                                  |
|   \\  /    A nd           | Website:  www.openfoam.com                      |
|    \\/     M anipulation  |                                                 |
\*---------------------------------------------------------------------------*/
FoamFile
{
    version     2.0;
    format      ascii;
    arch        "LSB;label=32;scalar=64";
    class       volVectorField;
    location    "1";
    object      U_0;
}
// * * * * * * * * * * * * * * * * * * * * * * * * * * * * * * * * * * * * * //

dimensions      [0 1 -1 0 0 0 0];

internalField   nonuniform List<vector> 
4000
(
(0.0023095009 0.00042285127 0)
(0.0030347483 -6.6115516e-06 0)
(0.0024223604 -3.6568103e-07 0)
(0.0025740596 2.4421829e-07 0)
(0.0024827187 -2.8097685e-07 0)
(0.0025457388 2.5501997e-07 0)
(0.0024883476 -2.4240554e-07 0)
(0.0025411717 2.3127226e-07 0)
(0.0024913328 -2.2050415e-07 0)
(0.0025384962 2.1060342e-07 0)
(0.0024936864 -2.0130258e-07 0)
(0.0025362198 1.9237533e-07 0)
(0.0024957834 -1.8397412e-07 0)
(0.0025342057 1.7591977e-07 0)
(0.0024976758 -1.6826984e-07 0)
(0.0025323979 1.6094213e-07 0)
(0.0024993896 -1.5394226e-07 0)
(0.0025307613 1.4723121e-07 0)
(0.0025009487 -1.4079892e-07 0)
(0.0025292699 1.3462485e-07 0)
(0.0025023744 -1.286942e-07 0)
(0.0025279028 1.229981e-07 0)
(0.0025036846 -1.1752241e-07 0)
(0.0025266434 1.1226417e-07 0)
(0.0025048945 -1.0720933e-07 0)
(0.0025254778 1.0235969e-07 0)
(0.0025060166 -9.7702054e-08 0)
(0.0025243944 9.3244151e-08 0)
(0.0025070613 -8.8970581e-08 0)
(0.0025233841 8.4892762e-08 0)
(0.0025080374 -8.0997266e-08 0)
(0.0025224383 7.7295747e-08 0)
(0.0025089529 -7.377497e-08 0)
(0.0025215497 7.0447379e-08 0)
(0.0025098144 -6.7302185e-08 0)
(0.0025207121 6.4350777e-08 0)
(0.0025106281 -6.1585553e-08 0)
(0.0025199191 5.9015613e-08 0)
(0.0025114008 -5.6630379e-08 0)
(0.0025191646 5.4442201e-08 0)
(0.0025121373 -5.2444705e-08 0)
(0.0025184432 5.0644609e-08 0)
(0.0025128443 -4.903851e-08 0)
(0.0025177485 4.7631701e-08 0)
(0.0025135271 -4.6422029e-08 0)
(0.0025170744 4.5409143e-08 0)
(0.0025141914 -4.4626512e-08 0)
(0.0025164285 4.4006663e-08 0)
(0.0025149424 -4.3330976e-08 0)
(0.0025162282 4.6301727e-08 0)
(0.0061851447 0.0011483342 0)
(0.0085454169 4.4281948e-07 0)
(0.0071019315 4.7152225e-06 0)
(0.0074603607 3.2935674e-07 0)
(0.0072060664 -6.3471924e-07 0)
(0.0073914588 8.7080306e-07 0)
(0.007220599 -8.4068327e-07 0)
(0.0073792414 8.1933116e-07 0)
(0.0072294652 -7.8494722e-07 0)
(0.0073713897 7.5240069e-07 0)
(0.0072365363 -7.18713e-07 0)
(0.007364572 6.880889e-07 0)
(0.0072428537 -6.5781586e-07 0)
(0.0073585083 6.2953343e-07 0)
(0.00724857 -6.0212237e-07 0)
(0.0073530479 5.7609703e-07 0)
(0.0072537603 -5.5102142e-07 0)
(0.0073480919 5.2703791e-07 0)
(0.0072584926 -5.0394801e-07 0)
(0.0073435671 4.8179125e-07 0)
(0.0072628266 -4.6045257e-07 0)
(0.0073394136 4.3995381e-07 0)
(0.0072668135 -4.2020505e-07 0)
(0.0073355849 4.0123075e-07 0)
(0.0072704968 -3.8296686e-07 0)
(0.0073320414 3.654396e-07 0)
(0.0072739115 -3.4859454e-07 0)
(0.00732875 3.3245768e-07 0)
(0.007277088 -3.169947e-07 0)
(0.0073256835 3.0222537e-07 0)
(0.0072800521 -2.8812084e-07 0)
(0.0073228174 2.7470439e-07 0)
(0.0072828272 -2.6195755e-07 0)
(0.0073201294 2.4990372e-07 0)
(0.0072854336 -2.3852251e-07 0)
(0.0073176007 2.278378e-07 0)
(0.0072878902 -2.1782324e-07 0)
(0.007315211 2.0850666e-07 0)
(0.0072902188 -1.9988958e-07 0)
(0.0073129415 1.9197918e-07 0)
(0.0072924343 -1.8475822e-07 0)
(0.0073107744 1.7824972e-07 0)
(0.0072945587 -1.7244062e-07 0)
(0.007308689 1.6735462e-07 0)
(0.0072966093 -1.6296648e-07 0)
(0.0073066658 1.5933166e-07 0)
(0.0072986021 -1.5651154e-07 0)
(0.0073047002 1.5303639e-07 0)
(0.0073007461 -1.5842208e-07 0)
(0.0073038178 1.4517888e-07 0)
(0.010064279 0.0018734966 0)
(0.013777006 -7.5129512e-06 0)
(0.011659702 1.1915097e-05 0)
(0.012222163 4.6903499e-07 0)
(0.011802969 -9.5818187e-07 0)
(0.012116256 1.5688005e-06 0)
(0.011827517 -1.5245163e-06 0)
(0.01209685 1.4918224e-06 0)
(0.011842574 -1.4327201e-06 0)
(0.012083683 1.3743909e-06 0)
(0.011854578 -1.3127055e-06 0)
(0.012072135 1.2574714e-06 0)
(0.011865315 -1.2020638e-06 0)
(0.012061835 1.1506463e-06 0)
(0.011875042 -1.1005732e-06 0)
(0.012052543 1.0530855e-06 0)
(0.011883886 -1.0072794e-06 0)
(0.012044098 9.6342217e-07 0)
(0.011891957 -9.2122416e-07 0)
(0.01203638 8.8064644e-07 0)
(0.011899356 -8.4159544e-07 0)
(0.012029291 8.040172e-07 0)
(0.011906166 -7.6785295e-07 0)
(0.012022753 7.3304376e-07 0)
(0.011912458 -6.99586e-07 0)
(0.012016702 6.6740429e-07 0)
(0.011918291 -6.3651095e-07 0)
(0.012011083 6.0688924e-07 0)
(0.011923715 -5.785172e-07 0)
(0.012005852 5.5138789e-07 0)
(0.011928771 -5.2550497e-07 0)
(0.012000966 5.0085775e-07 0)
(0.011933501 -4.7745802e-07 0)
(0.011996388 4.5531111e-07 0)
(0.011937939 -4.3442105e-07 0)
(0.011992087 4.1478053e-07 0)
(0.011942117 -3.9639956e-07 0)
(0.011988027 3.7928262e-07 0)
(0.011946072 -3.6346015e-07 0)
(0.011984175 3.4892032e-07 0)
(0.011949831 -3.3565273e-07 0)
(0.0119805 3.2366947e-07 0)
(0.011953433 -3.1299838e-07 0)
(0.011976966 3.0364063e-07 0)
(0.011956908 -2.9554933e-07 0)
(0.011973539 2.8886766e-07 0)
(0.011960285 -2.8355539e-07 0)
(0.011970193 2.7681999e-07 0)
(0.011963848 -2.9039224e-07 0)
(0.011968463 2.6055737e-07 0)
(0.013711497 0.0024650067 0)
(0.018810214 -1.9174175e-05 0)
(0.016097928 2.2071921e-05 0)
(0.01685888 3.8506521e-07 0)
(0.016273277 -1.0702538e-06 0)
(0.016720472 2.218138e-06 0)
(0.016308819 -2.1812968e-06 0)
(0.016694314 2.1406144e-06 0)
(0.016330401 -2.0622997e-06 0)
(0.016675669 1.9796759e-06 0)
(0.016347578 -1.8907056e-06 0)
(0.016659173 1.8121731e-06 0)
(0.016362954 -1.7322457e-06 0)
(0.016644425 1.6585357e-06 0)
(0.016376901 -1.5864396e-06 0)
(0.016631099 1.5180693e-06 0)
(0.016389594 -1.4521136e-06 0)
(0.016618974 1.3888317e-06 0)
(0.01640119 -1.3280048e-06 0)
(0.016607883 1.2693713e-06 0)
(0.016411827 -1.2130337e-06 0)
(0.016597688 1.1586854e-06 0)
(0.016421621 -1.1064492e-06 0)
(0.016588285 1.0560555e-06 0)
(0.016430671 -1.0076806e-06 0)
(0.016579584 9.6107192e-07 0)
(0.016439058 -9.163941e-07 0)
(0.016571506 8.7345641e-07 0)
(0.016446853 -8.3241468e-07 0)
(0.01656399 7.9308774e-07 0)
(0.016454115 -7.5562411e-07 0)
(0.016556978 7.1988052e-07 0)
(0.016460901 -6.8600933e-07 0)
(0.016550415 6.5390176e-07 0)
(0.016467259 -6.2366045e-07 0)
(0.016544255 5.9519318e-07 0)
(0.016473238 -5.6855756e-07 0)
(0.016538448 5.4371765e-07 0)
(0.016478891 -5.2081921e-07 0)
(0.016532947 4.997442e-07 0)
(0.016484257 -4.8052489e-07 0)
(0.016527705 4.6315505e-07 0)
(0.016489392 -4.476815e-07 0)
(0.016522669 4.3409825e-07 0)
(0.016494342 -4.2235647e-07 0)
(0.016517789 4.1268816e-07 0)
(0.016499149 -4.048555e-07 0)
(0.016513013 3.9461771e-07 0)
(0.016504153 -4.1969824e-07 0)
(0.016510268 3.6944068e-07 0)
(0.017584788 0.0031496459 0)
(0.023602849 -3.3709331e-05 0)
(0.020409794 3.4217816e-05 0)
(0.021370209 6.5109721e-08 0)
(0.020616882 -9.8076808e-07 0)
(0.021204094 2.7845949e-06 0)
(0.020664579 -2.7872423e-06 0)
(0.02117154 2.7384749e-06 0)
(0.020693016 -2.6484508e-06 0)
(0.021147255 2.5436375e-06 0)
(0.020715601 -2.4292152e-06 0)
(0.0211256 2.3296868e-06 0)
(0.020735835 -2.2267697e-06 0)
(0.021106197 2.132548e-06 0)
(0.020754205 -2.0398826e-06 0)
(0.021088639 1.9521262e-06 0)
(0.020770941 -1.8673426e-06 0)
(0.021072646 1.7859188e-06 0)
(0.020786244 -1.7076813e-06 0)
(0.021058005 1.6321099e-06 0)
(0.020800289 -1.5595383e-06 0)
(0.021044542 1.4894158e-06 0)
(0.020813225 -1.4220781e-06 0)
(0.021032122 1.3570037e-06 0)
(0.020825178 -1.2946179e-06 0)
(0.02102063 1.2343789e-06 0)
(0.020836253 -1.1766959e-06 0)
(0.021009968 1.1212144e-06 0)
(0.020846538 -1.0682018e-06 0)
(0.021000054 1.0173537e-06 0)
(0.020856113 -9.6895818e-07 0)
(0.020990813 9.2273881e-07 0)
(0.02086505 -8.7897247e-07 0)
(0.020982175 8.374546e-07 0)
(0.020873414 -7.9838721e-07 0)
(0.020974079 7.6156199e-07 0)
(0.020881267 -7.2715538e-07 0)
(0.020966457 6.9504189e-07 0)
(0.020888681 -6.6546027e-07 0)
(0.020959248 6.3821095e-07 0)
(0.020895708 -6.1337033e-07 0)
(0.020952387 5.9088019e-07 0)
(0.020902424 -5.7089758e-07 0)
(0.020945806 5.5333921e-07 0)
(0.020908889 -5.3814073e-07 0)
(0.020939436 5.2568033e-07 0)
(0.020915163 -5.1536625e-07 0)
(0.020933194 5.0169051e-07 0)
(0.020921623 -5.4067481e-07 0)
(0.020929299 4.6727827e-07 0)
(0.020883023 0.0035399565 0)
(0.028180035 -5.5523037e-05 0)
(0.02460407 4.8025441e-05 0)
(0.025754703 -4.2592612e-07 0)
(0.024834229 -7.2432475e-07 0)
(0.025566809 3.2671406e-06 0)
(0.024895209 -3.3483249e-06 0)
(0.025528171 3.2871864e-06 0)
(0.024930778 -3.1937163e-06 0)
(0.025498106 3.0681962e-06 0)
(0.024958978 -2.9301605e-06 0)
(0.025471109 2.8117064e-06 0)
(0.024984259 -2.6872747e-06 0)
(0.025446866 2.5742004e-06 0)
(0.025007235 -2.4623627e-06 0)
(0.0254249 2.3565681e-06 0)
(0.025028187 -2.2542376e-06 0)
(0.025404871 2.1558502e-06 0)
(0.025047359 -2.0613185e-06 0)
(0.025386522 1.9698663e-06 0)
(0.025064964 -1.8821092e-06 0)
(0.025369644 1.7971742e-06 0)
(0.025081182 -1.7156521e-06 0)
(0.025354072 1.6367549e-06 0)
(0.025096167 -1.5611598e-06 0)
(0.025339668 1.4880972e-06 0)
(0.025110045 -1.4181889e-06 0)
(0.025326311 1.3508463e-06 0)
(0.025122925 -1.2865898e-06 0)
(0.025313902 1.2248699e-06 0)
(0.025134904 -1.1661792e-06 0)
(0.025302346 1.1100586e-06 0)
(0.025146073 -1.056986e-06 0)
(0.025291558 1.0065965e-06 0)
(0.025156511 -9.5922418e-07 0)
(0.025281461 9.1454202e-07 0)
(0.025166298 -8.7278046e-07 0)
(0.025271969 8.3377329e-07 0)
(0.025175523 -7.9792551e-07 0)
(0.025263005 7.6487062e-07 0)
(0.025184254 -7.3473757e-07 0)
(0.025254489 7.0745895e-07 0)
(0.025192584 -6.8320255e-07 0)
(0.025246331 6.6188355e-07 0)
(0.025200593 -6.4343021e-07 0)
(0.025238444 6.2835461e-07 0)
(0.025208358 -6.156057e-07 0)
(0.025230717 5.985925e-07 0)
(0.025216282 -6.530414e-07 0)
(0.025225562 5.5429726e-07 0)
(0.024824095 0.0042223142 0)
(0.032537228 -7.3088597e-05 0)
(0.028676763 6.2729537e-05 0)
(0.030010666 -1.0421572e-06 0)
(0.02892543 -3.4832253e-07 0)
(0.029808252 3.6632486e-06 0)
(0.029001161 -3.871161e-06 0)
(0.029763812 3.790148e-06 0)
(0.029044077 -3.7018643e-06 0)
(0.029727846 3.5565206e-06 0)
(0.029078066 -3.3966707e-06 0)
(0.029695351 3.2611291e-06 0)
(0.029108559 -3.1165289e-06 0)
(0.029666111 2.986069e-06 0)
(0.029136298 -2.8563152e-06 0)
(0.029639584 2.7337464e-06 0)
(0.029161614 -2.6150073e-06 0)
(0.029615374 2.5007423e-06 0)
(0.029184795 -2.3909916e-06 0)
(0.029593182 2.2846026e-06 0)
(0.029206091 -2.1825697e-06 0)
(0.029572763 2.0836693e-06 0)
(0.029225712 -1.9888226e-06 0)
(0.029553925 1.8968826e-06 0)
(0.029243838 -1.8089057e-06 0)
(0.029536505 1.7236995e-06 0)
(0.029260617 -1.6422565e-06 0)
(0.029520359 1.5637496e-06 0)
(0.029276177 -1.488864e-06 0)
(0.029505374 1.4168736e-06 0)
(0.029290635 -1.3484748e-06 0)
(0.029491434 1.2830159e-06 0)
(0.0293041 -1.2211566e-06 0)
(0.029478436 1.1623913e-06 0)
(0.029316667 -1.1071935e-06 0)
(0.02946629 1.0550659e-06 0)
(0.029328432 -1.0064119e-06 0)
(0.029454888 9.6093887e-07 0)
(0.029339504 -9.191806e-07 0)
(0.029444138 8.8064671e-07 0)
(0.029349965 -8.4552738e-07 0)
(0.02943394 8.1368271e-07 0)
(0.029359932 -7.8544222e-07 0)
(0.029424186 7.6060131e-07 0)
(0.029369502 -7.3907112e-07 0)
(0.029414771 7.2154977e-07 0)
(0.029378769 -7.0638545e-07 0)
(0.029405547 6.8623291e-07 0)
(0.029388155 -7.5720718e-07 0)
(0.029399047 6.3102924e-07 0)
(0.02780184 0.0044237656 0)
(0.036663665 -0.00010712489 0)
(0.032636892 7.7470932e-05 0)
(0.034136667 -1.624251e-06 0)
(0.032890513 1.1114071e-07 0)
(0.033928104 3.9664172e-06 0)
(0.032982852 -4.3587814e-06 0)
(0.033878116 4.247159e-06 0)
(0.033033277 -4.1732297e-06 0)
(0.033836139 4.00866e-06 0)
(0.033073195 -3.8288124e-06 0)
(0.033798014 3.6779149e-06 0)
(0.033109038 -3.5144999e-06 0)
(0.033763644 3.3681131e-06 0)
(0.033141673 -3.2217082e-06 0)
(0.033732425 3.0835521e-06 0)
(0.033171482 -2.9495701e-06 0)
(0.033703909 2.8204825e-06 0)
(0.033198793 -2.6965145e-06 0)
(0.033677757 2.5761525e-06 0)
(0.033223892 -2.4608168e-06 0)
(0.033653689 2.3488383e-06 0)
(0.033247017 -2.2415102e-06 0)
(0.033631488 2.137323e-06 0)
(0.033268374 -2.0376892e-06 0)
(0.033610965 1.9411054e-06 0)
(0.033288134 -1.8488657e-06 0)
(0.033591959 1.7598228e-06 0)
(0.033306445 -1.6750089e-06 0)
(0.033574332 1.5933619e-06 0)
(0.033323442 -1.5158599e-06 0)
(0.033557954 1.4416035e-06 0)
(0.033339252 -1.3715264e-06 0)
(0.033542703 1.3049032e-06 0)
(0.033353985 -1.2423826e-06 0)
(0.033528471 1.1833031e-06 0)
(0.03336776 -1.1281398e-06 0)
(0.033515132 1.0765535e-06 0)
(0.033380702 -1.029299e-06 0)
(0.033502577 9.8564725e-07 0)
(0.033392911 -9.4585984e-07 0)
(0.033490685 9.0979423e-07 0)
(0.033404525 -8.7778538e-07 0)
(0.033479327 8.4962558e-07 0)
(0.033415659 -8.2522454e-07 0)
(0.03346838 8.054228e-07 0)
(0.033426429 -7.8790719e-07 0)
(0.033457663 7.6482147e-07 0)
(0.033437268 -8.5269248e-07 0)
(0.033449752 6.9787512e-07 0)
(0.031750455 0.0050698893 0)
(0.040599236 -0.000124425 0)
(0.036478608 9.2373315e-05 0)
(0.038132447 -2.2330504e-06 0)
(0.036729344 5.7464579e-07 0)
(0.037926118 4.1578585e-06 0)
(0.036840676 -4.8124023e-06 0)
(0.037870776 4.6571681e-06 0)
(0.036898705 -4.6068803e-06 0)
(0.037822678 4.4235468e-06 0)
(0.036944661 -4.2255841e-06 0)
(0.037778811 4.0610604e-06 0)
(0.036985972 -3.8802049e-06 0)
(0.037739196 3.7193282e-06 0)
(0.037023617 -3.5575384e-06 0)
(0.037703174 3.405081e-06 0)
(0.037058026 -3.2570044e-06 0)
(0.037670247 3.1142145e-06 0)
(0.037089569 -2.9771402e-06 0)
(0.037640037 2.8437859e-06 0)
(0.037118563 -2.716081e-06 0)
(0.037612232 2.5919153e-06 0)
(0.037145277 -2.4730084e-06 0)
(0.037586587 2.3574043e-06 0)
(0.03716994 -2.2470034e-06 0)
(0.037562893 2.1397643e-06 0)
(0.037192747 -2.0374603e-06 0)
(0.037540963 1.9386446e-06 0)
(0.037213862 -1.8445515e-06 0)
(0.037520647 1.7539028e-06 0)
(0.037233441 -1.667931e-06 0)
(0.037501791 1.5854968e-06 0)
(0.03725163 -1.5077615e-06 0)
(0.037484255 1.4338236e-06 0)
(0.037268558 -1.3644983e-06 0)
(0.037467916 1.2989105e-06 0)
(0.037284359 -1.237754e-06 0)
(0.037452626 1.1805373e-06 0)
(0.037299183 -1.128168e-06 0)
(0.037438258 1.0797564e-06 0)
(0.037313143 -1.0356377e-06 0)
(0.037424669 9.955841e-07 0)
(0.037326402 -9.60138e-07 0)
(0.037411712 9.2893289e-07 0)
(0.037339097 -9.0186094e-07 0)
(0.03739924 8.7996552e-07 0)
(0.037351362 -8.6015745e-07 0)
(0.037387042 8.3444015e-07 0)
(0.037363636 -9.3935824e-07 0)
(0.037377672 7.5479853e-07 0)
(0.034602995 0.0051680577 0)
(0.044282851 -0.00016978609 0)
(0.040205388 0.00010612558 0)
(0.042000422 -3.1548053e-06 0)
(0.040442723 9.2840439e-07 0)
(0.0418021 4.2061672e-06 0)
(0.04057499 -5.236555e-06 0)
(0.041741507 5.0188127e-06 0)
(0.040640676 -5.0020071e-06 0)
(0.04168718 4.8004726e-06 0)
(0.040692749 -4.5861567e-06 0)
(0.041637475 4.409738e-06 0)
(0.040739619 -4.2128306e-06 0)
(0.041592522 4.0389527e-06 0)
(0.040782368 -3.8630866e-06 0)
(0.041551605 3.6975555e-06 0)
(0.040821468 -3.5366034e-06 0)
(0.041514179 3.3812266e-06 0)
(0.040857326 -3.232091e-06 0)
(0.04147983 3.0867844e-06 0)
(0.040890293 -2.9477546e-06 0)
(0.041448215 2.8123688e-06 0)
(0.040920663 -2.6827892e-06 0)
(0.041419063 2.5566445e-06 0)
(0.040948692 -2.4362519e-06 0)
(0.041392143 2.3192127e-06 0)
(0.040974592 -2.2076562e-06 0)
(0.041367248 2.0997615e-06 0)
(0.040998552 -1.9971701e-06 0)
(0.041344205 1.8982057e-06 0)
(0.041020744 -1.8044328e-06 0)
(0.041322845 1.7144247e-06 0)
(0.041041334 -1.6296658e-06 0)
(0.041303009 1.5489954e-06 0)
(0.041060469 -1.4734264e-06 0)
(0.041284552 1.4018906e-06 0)
(0.041078303 -1.3351579e-06 0)
(0.041267307 1.272701e-06 0)
(0.041095007 -1.2156852e-06 0)
(0.041251129 1.1629204e-06 0)
(0.041110713 -1.1148238e-06 0)
(0.041235852 1.0711854e-06 0)
(0.041125609 -1.0325356e-06 0)
(0.041221307 9.9851129e-07 0)
(0.041139848 -9.6900707e-07 0)
(0.041207326 9.4519849e-07 0)
(0.041153592 -9.2321611e-07 0)
(0.041193669 8.9513538e-07 0)
(0.041167277 -1.0166468e-06 0)
(0.04118281 8.0229301e-07 0)
(0.038440829 0.0056869767 0)
(0.04782239 -0.00018766632 0)
(0.043806382 0.00011966212 0)
(0.045743843 -3.826402e-06 0)
(0.044032871 1.2332798e-06 0)
(0.045555945 4.1197773e-06 0)
(0.044186132 -5.6290914e-06 0)
(0.045490009 5.3319668e-06 0)
(0.044259466 -5.3581628e-06 0)
(0.045429366 5.1388133e-06 0)
(0.044317718 -4.9099999e-06 0)
(0.045373749 4.723388e-06 0)
(0.044370225 -4.5118274e-06 0)
(0.045323384 4.3263863e-06 0)
(0.044418152 -4.1377389e-06 0)
(0.045277497 3.9604641e-06 0)
(0.044462015 -3.7878163e-06 0)
(0.045235503 3.621029e-06 0)
(0.044502254 -3.4609997e-06 0)
(0.045196952 3.3047783e-06 0)
(0.044539253 -3.1554013e-06 0)
(0.045161471 3.0097507e-06 0)
(0.044573331 -2.8704612e-06 0)
(0.045128765 2.7346737e-06 0)
(0.044604767 -2.6052567e-06 0)
(0.04509858 2.4791988e-06 0)
(0.044633797 -2.3591786e-06 0)
(0.045070687 2.2430468e-06 0)
(0.044660625 -2.1326521e-06 0)
(0.045044899 2.0260922e-06 0)
(0.044685446 -1.925208e-06 0)
(0.045021022 1.8283118e-06 0)
(0.044708447 -1.7371377e-06 0)
(0.044998878 1.6503326e-06 0)
(0.04472979 -1.5690819e-06 0)
(0.044978307 1.4920796e-06 0)
(0.044749653 -1.4203449e-06 0)
(0.044959114 1.3531891e-06 0)
(0.044768227 -1.2919357e-06 0)
(0.04494114 1.2352097e-06 0)
(0.044785664 -1.1835051e-06 0)
(0.044924192 1.1365257e-06 0)
(0.044802175 -1.0950446e-06 0)
(0.044908081 1.0585088e-06 0)
(0.044817937 -1.0267915e-06 0)
(0.044892616 1.0012723e-06 0)
(0.044833134 -9.7721825e-07 0)
(0.044877527 9.4712291e-07 0)
(0.044848199 -1.0847277e-06 0)
(0.044865164 8.4048355e-07 0)
(0.041402778 0.005763442 0)
(0.05112424 -0.00023895129 0)
(0.047279874 0.00013032775 0)
(0.049363943 -4.0243766e-06 0)
(0.047502584 1.5846059e-06 0)
(0.049187685 3.9389106e-06 0)
(0.047674478 -5.9799915e-06 0)
(0.049116025 5.5993514e-06 0)
(0.047755356 -5.6741092e-06 0)
(0.049048983 5.4385507e-06 0)
(0.047819824 -5.1966677e-06 0)
(0.048987396 5.0016253e-06 0)
(0.047878021 -4.776789e-06 0)
(0.048931561 4.5812813e-06 0)
(0.047931184 -4.3811799e-06 0)
(0.048880649 4.1934057e-06 0)
(0.047979864 -4.010315e-06 0)
(0.048834034 3.8332698e-06 0)
(0.048024535 -3.6634177e-06 0)
(0.048791234 3.4973769e-06 0)
(0.048065609 -3.3387504e-06 0)
(0.048751846 3.1838605e-06 0)
(0.04810343 -3.0358144e-06 0)
(0.048715554 2.8913221e-06 0)
(0.048138301 -2.7536906e-06 0)
(0.04868208 2.6195387e-06 0)
(0.048170478 -2.4919232e-06 0)
(0.048651177 2.3682967e-06 0)
(0.048200188 -2.2509436e-06 0)
(0.048622634 2.1375282e-06 0)
(0.048227643 -2.0302493e-06 0)
(0.048596239 1.9271151e-06 0)
(0.04825305 -1.8302094e-06 0)
(0.048571795 1.7378994e-06 0)
(0.048276592 -1.6515717e-06 0)
(0.048549121 1.5697138e-06 0)
(0.048298468 -1.4934144e-06 0)
(0.048527999 1.4219736e-06 0)
(0.048318892 -1.3569921e-06 0)
(0.04850825 1.2967428e-06 0)
(0.048338035 -1.2418067e-06 0)
(0.048489658 1.1919359e-06 0)
(0.048356135 -1.1478647e-06 0)
(0.048472009 1.109056e-06 0)
(0.048373389 -1.0753873e-06 0)
(0.048455091 1.0483446e-06 0)
(0.048390005 -1.0223862e-06 0)
(0.048438606 9.9055878e-07 0)
(0.048406416 -1.1432001e-06 0)
(0.048424738 8.7009494e-07 0)
(0.045100273 0.0061366888 0)
(0.054331031 -0.00025643515 0)
(0.050626272 0.0001402048 0)
(0.052860117 -4.4988683e-06 0)
(0.050851967 1.7849148e-06 0)
(0.052697115 3.6295573e-06 0)
(0.051040304 -6.2976886e-06 0)
(0.052619303 5.8190981e-06 0)
(0.051128602 -5.9500289e-06 0)
(0.052545781 5.6992717e-06 0)
(0.051199301 -5.4458938e-06 0)
(0.052478185 5.2441605e-06 0)
(0.051263227 -5.0074227e-06 0)
(0.052416839 4.8032829e-06 0)
(0.051321664 -4.5930317e-06 0)
(0.052360864 4.3961181e-06 0)
(0.051375198 -4.2037811e-06 0)
(0.052309593 4.0176957e-06 0)
(0.051424333 -3.8392305e-06 0)
(0.052262513 3.66445e-06 0)
(0.051469508 -3.4975831e-06 0)
(0.052219196 3.33446e-06 0)
(0.051511093 -3.1786664e-06 0)
(0.052179301 3.0264195e-06 0)
(0.051549412 -2.8816038e-06 0)
(0.052142529 2.7401843e-06 0)
(0.051584744 -2.6058059e-06 0)
(0.05210861 2.4755882e-06 0)
(0.051617332 -2.3520037e-06 0)
(0.052077319 2.2325032e-06 0)
(0.051647411 -2.1195622e-06 0)
(0.052048418 2.0109268e-06 0)
(0.05167521 -1.9089336e-06 0)
(0.052021691 1.8117564e-06 0)
(0.051700932 -1.7209434e-06 0)
(0.051996936 1.6347366e-06 0)
(0.051724796 -1.5544922e-06 0)
(0.051973912 1.4793527e-06 0)
(0.05174704 -1.4110667e-06 0)
(0.051952419 1.3477091e-06 0)
(0.051767857 -1.2899349e-06 0)
(0.051932215 1.2374173e-06 0)
(0.05178751 -1.1911599e-06 0)
(0.051913066 1.1504116e-06 0)
(0.051806219 -1.1150209e-06 0)
(0.051894734 1.0866677e-06 0)
(0.051824218 -1.0589462e-06 0)
(0.051876895 1.0257467e-06 0)
(0.051841932 -1.1924749e-06 0)
(0.05186153 8.9131294e-07 0)
(0.048124029 0.0061868703 0)
(0.057315241 -0.0003068353 0)
(0.053848649 0.0001458754 0)
(0.056233098 -5.242232e-06 0)
(0.054081028 1.8638519e-06 0)
(0.056084099 3.2168416e-06 0)
(0.054283863 -6.5771968e-06 0)
(0.055999605 5.9925971e-06 0)
(0.054379458 -6.1852164e-06 0)
(0.055919534 5.9211177e-06 0)
(0.054456381 -5.6574572e-06 0)
(0.055845902 5.4508238e-06 0)
(0.054526051 -5.2035279e-06 0)
(0.055779025 4.992265e-06 0)
(0.054589785 -4.7731974e-06 0)
(0.055717964 4.5684017e-06 0)
(0.054648193 -4.3680966e-06 0)
(0.055662019 4.1741544e-06 0)
(0.054701808 -3.9881658e-06 0)
(0.055610645 3.8057892e-06 0)
(0.054751096 -3.6318244e-06 0)
(0.05556339 3.4615419e-06 0)
(0.054796448 -3.2989925e-06 0)
(0.055519889 3.1399817e-06 0)
(0.054838214 -2.9888172e-06 0)
(0.055479823 2.8411134e-06 0)
(0.054876691 -2.700886e-06 0)
(0.055442903 2.5648587e-06 0)
(0.054912143 -2.4359404e-06 0)
(0.055408878 2.3111376e-06 0)
(0.054944828 -2.1932874e-06 0)
(0.055377494 2.0798361e-06 0)
(0.054974995 -1.9734763e-06 0)
(0.055348512 1.8720976e-06 0)
(0.055002864 -1.7774372e-06 0)
(0.055321708 1.6875314e-06 0)
(0.055028683 -1.60379e-06 0)
(0.055296817 1.5253796e-06 0)
(0.055052711 -1.4543302e-06 0)
(0.055273618 1.3883233e-06 0)
(0.055075163 -1.3281013e-06 0)
(0.055251844 1.2734249e-06 0)
(0.055096329 -1.2252227e-06 0)
(0.055231235 1.1827782e-06 0)
(0.055116449 -1.1459436e-06 0)
(0.055211532 1.1164686e-06 0)
(0.055135785 -1.0871938e-06 0)
(0.055192386 1.0528933e-06 0)
(0.055154758 -1.232232e-06 0)
(0.055175546 9.0499261e-07 0)
(0.051649111 0.0064293581 0)
(0.060236782 -0.00032417797 0)
(0.056948062 0.00015188398 0)
(0.059485656 -5.6993934e-06 0)
(0.057189581 1.9115314e-06 0)
(0.059348515 2.7319165e-06 0)
(0.057405401 -6.8100283e-06 0)
(0.059256683 6.1215778e-06 0)
(0.057508148 -6.3791853e-06 0)
(0.059170012 6.1040919e-06 0)
(0.057591273 -5.8312509e-06 0)
(0.05909034 5.6215649e-06 0)
(0.057666689 -5.3650243e-06 0)
(0.059017925 5.1480811e-06 0)
(0.057735723 -4.9214982e-06 0)
(0.058951775 4.7102083e-06 0)
(0.057799007 -4.5031413e-06 0)
(0.058891153 4.3025954e-06 0)
(0.057857101 -4.1103275e-06 0)
(0.058835489 3.9214695e-06 0)
(0.057910496 -3.7414399e-06 0)
(0.058784302 3.5650477e-06 0)
(0.057959608 -3.396789e-06 0)
(0.058737209 3.2320072e-06 0)
(0.058004805 -3.0755768e-06 0)
(0.058693868 2.9224513e-06 0)
(0.058046406 -2.7772405e-06 0)
(0.058653967 2.6363568e-06 0)
(0.058084697 -2.5028528e-06 0)
(0.058617239 2.3735572e-06 0)
(0.058119955 -2.2515625e-06 0)
(0.058583404 2.1340715e-06 0)
(0.058152452 -2.024014e-06 0)
(0.058552203 1.9191001e-06 0)
(0.058182433 -1.8212024e-06 0)
(0.058523391 1.7281193e-06 0)
(0.058210164 -1.6415357e-06 0)
(0.058496676 1.5604748e-06 0)
(0.058235932 -1.4870899e-06 0)
(0.058471817 1.4188627e-06 0)
(0.058259972 -1.3566026e-06 0)
(0.058448518 1.3000043e-06 0)
(0.058282602 -1.2502849e-06 0)
(0.058426499 1.206496e-06 0)
(0.058304085 -1.1684501e-06 0)
(0.058405474 1.1380723e-06 0)
(0.058324712 -1.1074158e-06 0)
(0.058385071 1.0723637e-06 0)
(0.058344893 -1.2630766e-06 0)
(0.058366783 9.1131928e-07 0)
(0.054719364 0.0064486905 0)
(0.062956472 -0.00037223287 0)
(0.059923545 0.0001533725 0)
(0.062620539 -6.3627824e-06 0)
(0.060177532 1.877828e-06 0)
(0.062490199 2.1649037e-06 0)
(0.060405135 -6.9968081e-06 0)
(0.062390304 6.2056597e-06 0)
(0.060514895 -6.5319636e-06 0)
(0.062297005 6.2483978e-06 0)
(0.060604183 -5.9673428e-06 0)
(0.062211306 5.756413e-06 0)
(0.060685327 -5.4919377e-06 0)
(0.062133368 5.2708304e-06 0)
(0.060759647 -5.0380653e-06 0)
(0.062062143 4.8215469e-06 0)
(0.060827794 -4.6090141e-06 0)
(0.061996859 4.403072e-06 0)
(0.060890351 -4.2056261e-06 0)
(0.061936921 4.0114697e-06 0)
(0.060947835 -3.8265529e-06 0)
(0.061881825 3.6451623e-06 0)
(0.061000679 -3.4722152e-06 0)
(0.061831165 3.3026951e-06 0)
(0.061049278 -3.1418498e-06 0)
(0.06178458 2.9843313e-06 0)
(0.061093969 -2.8350846e-06 0)
(0.061741736 2.6901541e-06 0)
(0.06113506 -2.5530026e-06 0)
(0.061702344 2.4200275e-06 0)
(0.061172851 -2.294665e-06 0)
(0.061666101 2.1738431e-06 0)
(0.061207636 -2.0608332e-06 0)
(0.061632728 1.9530732e-06 0)
(0.061239678 -1.8525979e-06 0)
(0.061601955 1.7570148e-06 0)
(0.061269274 -1.6680375e-06 0)
(0.061573466 1.5847578e-06 0)
(0.06129673 -1.5095998e-06 0)
(0.061546996 1.4396226e-06 0)
(0.061322308 -1.3757192e-06 0)
(0.061522226 1.3177172e-06 0)
(0.061346351 -1.2667148e-06 0)
(0.061498847 1.2218223e-06 0)
(0.061369145 -1.1828524e-06 0)
(0.061476553 1.1517574e-06 0)
(0.061391008 -1.1199612e-06 0)
(0.061454948 1.0844018e-06 0)
(0.061412346 -1.2847396e-06 0)
(0.061435251 9.1122838e-07 0)
(0.058085936 0.0065752175 0)
(0.065643798 -0.00038678063 0)
(0.062777673 0.00015452405 0)
(0.065641608 -7.0901401e-06 0)
(0.063044829 1.8200739e-06 0)
(0.06550911 1.5242641e-06 0)
(0.063283327 -7.130558e-06 0)
(0.065400256 6.2464984e-06 0)
(0.063399907 -6.6432268e-06 0)
(0.065300309 6.3543106e-06 0)
(0.063495299 -6.0658211e-06 0)
(0.065208615 5.8555575e-06 0)
(0.063582138 -5.5844065e-06 0)
(0.065125185 5.3605798e-06 0)
(0.063661712 -5.1229242e-06 0)
(0.065048914 4.9025859e-06 0)
(0.06373469 -4.6857954e-06 0)
(0.064978999 4.4757369e-06 0)
(0.063801678 -4.2743817e-06 0)
(0.064914822 4.0760669e-06 0)
(0.063863212 -3.8873107e-06 0)
(0.064855854 3.7020047e-06 0)
(0.063919752 -3.5254414e-06 0)
(0.064801668 3.352206e-06 0)
(0.06397171 -3.1880682e-06 0)
(0.064751882 3.0270437e-06 0)
(0.064019447 -2.8746483e-06 0)
(0.06470614 2.7266586e-06 0)
(0.06406329 -2.5866163e-06 0)
(0.064664134 2.4507968e-06 0)
(0.064103562 -2.322851e-06 0)
(0.064625536 2.1994999e-06 0)
(0.064140579 -2.0842194e-06 0)
(0.064590044 1.9742954e-06 0)
(0.064174631 -1.8718586e-06 0)
(0.064557366 1.7743008e-06 0)
(0.064206035 -1.6836086e-06 0)
(0.064527158 1.5987525e-06 0)
(0.064235124 -1.5222429e-06 0)
(0.064499136 1.4509495e-06 0)
(0.064262183 -1.3858209e-06 0)
(0.064472948 1.326636e-06 0)
(0.064287581 -1.2747937e-06 0)
(0.064448267 1.2291601e-06 0)
(0.06431163 -1.1894949e-06 0)
(0.06442476 1.1579037e-06 0)
(0.064334676 -1.125159e-06 0)
(0.064402009 1.0894183e-06 0)
(0.064357115 -1.297987e-06 0)
(0.064380947 9.0486519e-07 0)
(0.061182861 0.0065574578 0)
(0.06815106 -0.00042845924 0)
(0.06550654 0.0001514266 0)
(0.068548065 -8.0365558e-06 0)
(0.06579197 1.7919475e-06 0)
(0.068405084 8.148513e-07 0)
(0.066040194 -7.2074174e-06 0)
(0.068286319 6.2446116e-06 0)
(0.066163377 -6.713205e-06 0)
(0.068179734 6.4222185e-06 0)
(0.066264802 -6.1270285e-06 0)
(0.068082097 5.9192252e-06 0)
(0.066357284 -5.6426884e-06 0)
(0.067993226 5.4176503e-06 0)
(0.066442065 -5.1764344e-06 0)
(0.067911957 4.9535408e-06 0)
(0.066519827 -4.7337988e-06 0)
(0.06783746 4.5208451e-06 0)
(0.066591196 -4.3166844e-06 0)
(0.06776909 4.1154227e-06 0)
(0.066656734 -3.9240279e-06 0)
(0.0677063 3.7359412e-06 0)
(0.066716915 -3.5568001e-06 0)
(0.067648642 3.3809108e-06 0)
(0.066772177 -3.2143349e-06 0)
(0.067595711 3.050864e-06 0)
(0.066822902 -2.8962864e-06 0)
(0.067547132 2.7460621e-06 0)
(0.066869438 -2.6040939e-06 0)
(0.06750257 2.4662593e-06 0)
(0.066912131 -2.3365172e-06 0)
(0.067461677 2.2113553e-06 0)
(0.066951322 -2.0945603e-06 0)
(0.067424128 1.983171e-06 0)
(0.066987319 -1.8794424e-06 0)
(0.067389605 1.7806021e-06 0)
(0.067020471 -1.6886336e-06 0)
(0.06735774 1.6026257e-06 0)
(0.067051131 -1.5253382e-06 0)
(0.067328224 1.4531996e-06 0)
(0.067079611 -1.3872362e-06 0)
(0.067300681 1.3274082e-06 0)
(0.067106307 -1.2749458e-06 0)
(0.067274756 1.2288023e-06 0)
(0.067131552 -1.1887321e-06 0)
(0.067250093 1.1568223e-06 0)
(0.06715572 -1.1233917e-06 0)
(0.067226256 1.0876786e-06 0)
(0.067179207 -1.3025729e-06 0)
(0.067203879 8.9320607e-07 0)
(0.064373576 0.0065801018 0)
(0.070647115 -0.0004393401 0)
(0.068122022 0.000148077 0)
(0.071334252 -8.9128268e-06 0)
(0.06841911 1.8643272e-06 0)
(0.071177734 5.4871398e-08 0)
(0.068675925 -7.2177265e-06 0)
(0.071048262 6.2028373e-06 0)
(0.068805474 -6.741633e-06 0)
(0.070935083 6.4526451e-06 0)
(0.068912855 -6.1512876e-06 0)
(0.070831585 5.9478233e-06 0)
(0.069010914 -5.6671548e-06 0)
(0.070737341 5.4423155e-06 0)
(0.069100838 -5.1988293e-06 0)
(0.070651139 4.974792e-06 0)
(0.069183319 -4.7533023e-06 0)
(0.070572124 4.5387466e-06 0)
(0.069259006 -4.333063e-06 0)
(0.070499628 4.1300061e-06 0)
(0.069328479 -3.9370236e-06 0)
(0.070433082 3.7472596e-06 0)
(0.069392238 -3.5666249e-06 0)
(0.070372017 3.3891198e-06 0)
(0.069450738 -3.2212527e-06 0)
(0.070316009 3.0562325e-06 0)
(0.069504384 -2.9003677e-06 0)
(0.070264657 2.7489139e-06 0)
(0.069553544 -2.6057712e-06 0)
(0.070217609 2.4667675e-06 0)
(0.069598589 -2.3360198e-06 0)
(0.070174489 2.2098599e-06 0)
(0.069639884 -2.0922321e-06 0)
(0.070134949 1.9800615e-06 0)
(0.069677762 -1.8756505e-06 0)
(0.070098649 1.7760452e-06 0)
(0.069712595 -1.6834914e-06 0)
(0.070065192 1.5969842e-06 0)
(0.069744762 -1.5193228e-06 0)
(0.070034249 1.4467687e-06 0)
(0.069774599 -1.3803894e-06 0)
(0.070005411 1.3201147e-06 0)
(0.069802528 -1.2674826e-06 0)
(0.069978305 1.2211955e-06 0)
(0.069828908 -1.1809386e-06 0)
(0.069952548 1.1489292e-06 0)
(0.069854141 -1.1150126e-06 0)
(0.069927684 1.0796223e-06 0)
(0.069878615 -1.2993924e-06 0)
(0.069904045 8.7632749e-07 0)
(0.067453166 0.0065205752 0)
(0.07297956 -0.00047197347 0)
(0.070625089 0.00014067813 0)
(0.073993387 -9.8642744e-06 0)
(0.070926549 2.0244485e-06 0)
(0.073826685 -7.5265678e-07 0)
(0.071190691 -7.1585671e-06 0)