/*--------------------------------*- C++ -*----------------------------------*\
| =========                 |                                                 |
| \\      /  F ield         | OpenFOAM: The Open Source CFD Toolbox           |
|  \\    /   O peration     | Version:  2312                                  |
|   \\  /    A nd           | Website:  www.openfoam.com                      |
|    \\/     M anipulation  |                                                 |
\*---------------------------------------------------------------------------*/
FoamFile
{
    version     2.0;
    format      ascii;
    arch        "LSB;label=32;scalar=64";
    class       volSymmTensorField;
    location    "7";
    object      sigma;
}
// * * * * * * * * * * * * * * * * * * * * * * * * * * * * * * * * * * * * * //

dimensions      [0 2 -2 0 0 0 0];

internalField   nonuniform List<symmTensor> 
4000
(
(-2.256125 -1.0093198 0 -0.40741494 0 0)
(-5.6574952 -0.44106474 0 -0.0029446365 0 0)
(-2.9222305 -0.31321636 0 -0.00085964084 0 0)
(-3.1204158 -0.32240949 0 1.1045773e-05 0 0)
(-2.9355042 -0.31264999 0 2.1567966e-05 0 0)
(-3.038643 -0.31851946 0 -5.4666857e-05 0 0)
(-2.9199471 -0.31178595 0 3.5205642e-05 0 0)
(-3.0030958 -0.31659687 0 -4.3285259e-05 0 0)
(-2.9228 -0.31194312 0 3.8647481e-05 0 0)
(-2.993997 -0.31609466 0 -3.7824315e-05 0 0)
(-2.9272533 -0.31219926 0 3.5350323e-05 0 0)
(-2.9891393 -0.31581842 0 -3.3605922e-05 0 0)
(-2.9309299 -0.31241376 0 3.1530302e-05 0 0)
(-2.9853828 -0.31560171 0 -2.9807394e-05 0 0)
(-2.9341552 -0.31260269 0 2.8017674e-05 0 0)
(-2.9821915 -0.31541654 0 -2.6441865e-05 0 0)
(-2.9370447 -0.312772 0 2.489182e-05 0 0)
(-2.9794031 -0.31525439 0 -2.3487253e-05 0 0)
(-2.9396229 -0.31292297 0 2.2135814e-05 0 0)
(-2.9769437 -0.31511129 0 -2.0896001e-05 0 0)
(-2.9419166 -0.31305716 0 1.9713958e-05 0 0)
(-2.9747654 -0.31498455 0 -1.8624036e-05 0 0)
(-2.9439569 -0.31317637 0 1.7589355e-05 0 0)
(-2.9728302 -0.31487204 0 -1.6633416e-05 0 0)
(-2.9457746 -0.31328241 0 1.5728282e-05 0 0)
(-2.9711061 -0.31477192 0 -1.4891605e-05 0 0)
(-2.9473977 -0.31337691 0 1.4101119e-05 0 0)
(-2.9695654 -0.31468259 0 -1.3370743e-05 0 0)
(-2.9488513 -0.31346137 0 1.2682298e-05 0 0)
(-2.9681841 -0.31460264 0 -1.2047033e-05 0 0)
(-2.9501577 -0.31353709 0 1.144992e-05 0 0)
(-2.9669409 -0.31453084 0 -1.0900181e-05 0 0)
(-2.9513363 -0.31360522 0 1.03853e-05 0 0)
(-2.9658171 -0.31446611 0 -9.9129158e-06 0 0)
(-2.9524049 -0.31366678 0 9.4725479e-06 0 0)
(-2.9647959 -0.31440747 0 -9.0705887e-06 0 0)
(-2.9533789 -0.31372269 0 8.698224e-06 0 0)
(-2.9638624 -0.31435407 0 -8.3608657e-06 0 0)
(-2.9542728 -0.31377377 0 8.0510811e-06 0 0)
(-2.9630027 -0.31430512 0 -7.7735128e-06 0 0)
(-2.9550994 -0.31382076 0 7.5219118e-06 0 0)
(-2.9622044 -0.31425991 0 -7.3003242e-06 0 0)
(-2.9558709 -0.31386436 0 7.1034236e-06 0 0)
(-2.9614556 -0.31421777 0 -6.935586e-06 0 0)
(-2.9565972 -0.31390511 0 6.7902892e-06 0 0)
(-2.9607431 -0.31417797 0 -6.6744701e-06 0 0)
(-2.9572901 -0.3139436 0 6.5960973e-06 0 0)
(-2.9600907 -0.3141415 0 -6.463131e-06 0 0)
(-2.9581315 -0.3139887 0 6.6927542e-06 0 0)
(-2.9600745 -0.3141403 0 -6.4878213e-06 0 0)
(-1.9566045 -0.91653137 0 -0.38103207 0 0)
(-4.8667866 -0.42137012 0 -0.0080962632 0 0)
(-2.9842465 -0.3212822 0 -0.0025755788 0 0)
(-2.8819001 -0.30956065 0 -2.1317877e-05 0 0)
(-2.7208702 -0.30104288 0 -5.4853604e-06 0 0)
(-2.8101152 -0.30648625 0 -7.47728e-05 0 0)
(-2.7108446 -0.30036624 0 1.9360836e-05 0 0)
(-2.7795551 -0.30467877 0 -4.928077e-05 0 0)
(-2.711455 -0.3003686 0 3.9485534e-05 0 0)
(-2.7716332 -0.30420887 0 -4.112646e-05 0 0)
(-2.7150262 -0.30059186 0 3.803964e-05 0 0)
(-2.767537 -0.30395666 0 -3.6647101e-05 0 0)
(-2.7181152 -0.30078941 0 3.4209223e-05 0 0)
(-2.7643493 -0.30375574 0 -3.2511094e-05 0 0)
(-2.7208395 -0.3009646 0 3.0472238e-05 0 0)
(-2.7616327 -0.30358324 0 -2.8817659e-05 0 0)
(-2.723285 -0.30112185 0 2.7097428e-05 0 0)
(-2.7592599 -0.30343224 0 -2.5588487e-05 0 0)
(-2.7254691 -0.30126213 0 2.4107226e-05 0 0)
(-2.7571678 -0.30329905 0 -2.2764033e-05 0 0)
(-2.7274134 -0.30138685 0 2.1474774e-05 0 0)
(-2.7553146 -0.30318109 0 -2.0290202e-05 0 0)
(-2.7291441 -0.30149769 0 1.9163622e-05 0 0)
(-2.7536675 -0.30307635 0 -1.8123348e-05 0 0)
(-2.730687 -0.30159633 0 1.7138341e-05 0 0)
(-2.7521994 -0.30298309 0 -1.6227358e-05 0 0)
(-2.7320656 -0.30168429 0 1.536722e-05 0 0)
(-2.7508868 -0.30289983 0 -1.4571801e-05 0 0)
(-2.7333011 -0.30176295 0 1.382272e-05 0 0)
(-2.7497094 -0.30282529 0 -1.3130856e-05 0 0)
(-2.7344121 -0.3018335 0 1.2481208e-05 0 0)
(-2.7486492 -0.30275831 0 -1.1882564e-05 0 0)
(-2.7354152 -0.30189701 0 1.1322506e-05 0 0)
(-2.7476903 -0.3026979 0 -1.0808264e-05 0 0)
(-2.7363251 -0.30195443 0 1.0329468e-05 0 0)
(-2.7468186 -0.30264317 0 -9.8921583e-06 0 0)
(-2.7371553 -0.30200659 0 9.4876296e-06 0 0)
(-2.7460211 -0.3025933 0 -9.1210117e-06 0 0)
(-2.7379177 -0.30205427 0 8.7849805e-06 0 0)
(-2.7452862 -0.30254757 0 -8.483973e-06 0 0)
(-2.7386235 -0.30209815 0 8.2119022e-06 0 0)
(-2.7446032 -0.30250531 0 -7.9726427e-06 0 0)
(-2.7392831 -0.30213888 0 7.7610861e-06 0 0)
(-2.7439618 -0.30246592 0 -7.5825577e-06 0 0)
(-2.7399052 -0.30217701 0 7.4269541e-06 0 0)
(-2.7433503 -0.30242868 0 -7.3117083e-06 0 0)
(-2.7404963 -0.30221275 0 7.2441923e-06 0 0)
(-2.7427716 -0.30239314 0 -7.0313609e-06 0 0)
(-2.7411671 -0.30225001 0 7.7170079e-06 0 0)
(-2.7426383 -0.30238473 0 -6.9745134e-06 0 0)
(-1.8595457 -0.87199939 0 -0.35533818 0 0)
(-4.2728717 -0.39433131 0 -0.0096138189 0 0)
(-2.8980467 -0.32058953 0 -0.0038700101 0 0)
(-2.7516606 -0.30243929 0 -0.00011931527 0 0)
(-2.5820778 -0.29325074 0 -2.7039732e-05 0 0)
(-2.6617216 -0.29839439 0 -8.5762701e-05 0 0)
(-2.5741495 -0.29267479 0 3.2947351e-06 0 0)
(-2.6350508 -0.29671169 0 -4.9965805e-05 0 0)
(-2.5742154 -0.29261893 0 3.5898348e-05 0 0)
(-2.6278294 -0.29625867 0 -3.9544932e-05 0 0)
(-2.5773123 -0.29282472 0 3.6240815e-05 0 0)
(-2.6241687 -0.2960211 0 -3.527322e-05 0 0)
(-2.5800629 -0.29301223 0 3.2776493e-05 0 0)
(-2.621328 -0.29583076 0 -3.128901e-05 0 0)
(-2.5824932 -0.29317873 0 2.9246326e-05 0 0)
(-2.6189043 -0.29566688 0 -2.7711877e-05 0 0)
(-2.584675 -0.29332817 0 2.6026513e-05 0 0)
(-2.6167877 -0.29552347 0 -2.4597092e-05 0 0)
(-2.5866241 -0.29346148 0 2.3162079e-05 0 0)
(-2.6149219 -0.295397 0 -2.1879447e-05 0 0)
(-2.5883599 -0.29358002 0 2.0636165e-05 0 0)
(-2.6132692 -0.29528499 0 -1.9501452e-05 0 0)
(-2.5899055 -0.29368541 0 1.8416915e-05 0 0)
(-2.6118 -0.2951855 0 -1.7419097e-05 0 0)
(-2.5912838 -0.29377923 0 1.6471415e-05 0 0)
(-2.6104902 -0.29509688 0 -1.5597046e-05 0 0)
(-2.5925159 -0.29386293 0 1.4769652e-05 0 0)
(-2.6093188 -0.29501774 0 -1.4005928e-05 0 0)
(-2.5936204 -0.2939378 0 1.3285402e-05 0 0)
(-2.6082678 -0.29494684 0 -1.2620969e-05 0 0)
(-2.5946138 -0.29400499 0 1.199611e-05 0 0)
(-2.6073212 -0.29488312 0 -1.1421154e-05 0 0)
(-2.5955109 -0.2940655 0 1.0882514e-05 0 0)
(-2.6064648 -0.29482562 0 -1.0388647e-05 0 0)
(-2.5963249 -0.29412021 0 9.9282541e-06 0 0)
(-2.6056861 -0.29477349 0 -9.5083833e-06 0 0)
(-2.5970677 -0.29416995 0 9.1195698e-06 0 0)
(-2.6049735 -0.29472598 0 -8.7678036e-06 0 0)
(-2.59775 -0.29421543 0 8.4451258e-06 0 0)
(-2.6043166 -0.29468238 0 -8.1567398e-06 0 0)
(-2.5983818 -0.29425732 0 7.896051e-06 0 0)
(-2.6037058 -0.29464207 0 -7.6676037e-06 0 0)
(-2.5989724 -0.29429621 0 7.4659739e-06 0 0)
(-2.603132 -0.29460446 0 -7.297625e-06 0 0)
(-2.5995298 -0.29433266 0 7.1498462e-06 0 0)
(-2.6025844 -0.2945689 0 -7.0492995e-06 0 0)
(-2.6000591 -0.29436679 0 6.9920945e-06 0 0)
(-2.6020608 -0.29453445 0 -6.7620888e-06 0 0)
(-2.6006464 -0.29440041 0 7.700146e-06 0 0)
(-2.6018834 -0.29452451 0 -7.1413981e-06 0 0)
(-1.7669734 -0.8184864 0 -0.32271312 0 0)
(-3.8593264 -0.37715682 0 -0.011304396 0 0)
(-2.7957863 -0.31968462 0 -0.0053401345 0 0)
(-2.6283177 -0.29556009 0 -0.00022298179 0 0)
(-2.4496433 -0.28561341 0 -6.2514283e-05 0 0)
(-2.518422 -0.29031655 0 -9.5182825e-05 0 0)
(-2.4404367 -0.28497801 0 -1.7400419e-05 0 0)
(-2.494982 -0.28874871 0 -4.6877162e-05 0 0)
(-2.4401103 -0.28487011 0 2.8581976e-05 0 0)
(-2.4883617 -0.2883117 0 -3.4483393e-05 0 0)
(-2.4428047 -0.28505795 0 3.1217089e-05 0 0)
(-2.4850514 -0.28808825 0 -3.0843703e-05 0 0)
(-2.4452705 -0.28523522 0 2.8476201e-05 0 0)
(-2.4824921 -0.28790827 0 -2.7365044e-05 0 0)
(-2.4474572 -0.28539295 0 2.5476339e-05 0 0)
(-2.4803052 -0.28775283 0 -2.420897e-05 0 0)
(-2.4494206 -0.28553452 0 2.2698356e-05 0 0)
(-2.4783949 -0.28761677 0 -2.1476376e-05 0 0)
(-2.4511751 -0.28566086 0 2.0211154e-05 0 0)
(-2.4767112 -0.28749679 0 -1.9100794e-05 0 0)
(-2.4527382 -0.28577324 0 1.8011949e-05 0 0)
(-2.4752196 -0.28739051 0 -1.7024883e-05 0 0)
(-2.4541306 -0.28587319 0 1.6077314e-05 0 0)
(-2.4738936 -0.28729607 0 -1.5207586e-05 0 0)
(-2.4553727 -0.28596221 0 1.4380154e-05 0 0)
(-2.4727112 -0.28721192 0 -1.3617311e-05 0 0)
(-2.4564833 -0.28604167 0 1.2894969e-05 0 0)
(-2.4716537 -0.28713674 0 -1.2228326e-05 0 0)
(-2.457479 -0.28611279 0 1.1599232e-05 0 0)
(-2.4707049 -0.28706936 0 -1.1019097e-05 0 0)
(-2.4583747 -0.28617662 0 1.0473482e-05 0 0)
(-2.4698503 -0.28700877 0 -9.9714035e-06 0 0)
(-2.4591836 -0.28623414 0 9.5010598e-06 0 0)
(-2.4690773 -0.28695408 0 -9.0697908e-06 0 0)
(-2.4599176 -0.28628618 0 8.667806e-06 0 0)
(-2.4683745 -0.28690447 0 -8.3012169e-06 0 0)
(-2.4605872 -0.2863335 0 7.9618258e-06 0 0)
(-2.4677314 -0.28685923 0 -7.6548447e-06 0 0)
(-2.4612023 -0.2863768 0 7.3733768e-06 0 0)
(-2.4671388 -0.2868177 0 -7.1219822e-06 0 0)
(-2.4617719 -0.2864167 0 6.8949839e-06 0 0)
(-2.4665879 -0.28677926 0 -6.6963352e-06 0 0)
(-2.4623042 -0.28645379 0 6.521482e-06 0 0)
(-2.4660705 -0.28674338 0 -6.3768166e-06 0 0)
(-2.4628068 -0.2864886 0 6.2478187e-06 0 0)
(-2.4655767 -0.28670943 0 -6.1692178e-06 0 0)
(-2.4632833 -0.28652116 0 6.1262283e-06 0 0)
(-2.4650999 -0.286676 0 -5.8672397e-06 0 0)
(-2.4637977 -0.28655137 0 7.0765431e-06 0 0)
(-2.464882 -0.28666416 0 -6.5784239e-06 0 0)
(-1.7226411 -0.78848879 0 -0.30384872 0 0)
(-3.4448838 -0.35861642 0 -0.012592579 0 0)
(-2.6545986 -0.31591995 0 -0.00659479 0 0)
(-2.504668 -0.28864887 0 -0.00032533618 0 0)
(-2.3235196 -0.27809808 0 -0.00010438451 0 0)
(-2.3800252 -0.2822623 0 -0.00010590822 0 0)
(-2.3099759 -0.27725626 0 -3.5856194e-05 0 0)
(-2.3590749 -0.28079341 0 -4.3723912e-05 0 0)
(-2.3092973 -0.27711144 0 2.173321e-05 0 0)
(-2.3529636 -0.28037196 0 -2.9546912e-05 0 0)
(-2.3116479 -0.27728366 0 2.6424179e-05 0 0)
(-2.3499474 -0.2801614 0 -2.6539265e-05 0 0)
(-2.3138681 -0.27745165 0 2.4329246e-05 0 0)
(-2.3476296 -0.27999108 0 -2.3559643e-05 0 0)
(-2.3158471 -0.27760138 0 2.1829499e-05 0 0)
(-2.3456471 -0.27984351 0 -2.081508e-05 0 0)
(-2.3176244 -0.27773576 0 1.9476726e-05 0 0)
(-2.3439148 -0.27971429 0 -1.8453618e-05 0 0)
(-2.319213 -0.2778557 0 1.7353919e-05 0 0)
(-2.3423877 -0.27960032 0 -1.6409346e-05 0 0)
(-2.3206288 -0.27796243 0 1.5470482e-05 0 0)
(-2.3410347 -0.27949935 0 -1.4625747e-05 0 0)
(-2.3218905 -0.2780574 0 1.3810989e-05 0 0)
(-2.3398318 -0.27940958 0 -1.3064873e-05 0 0)
(-2.3230163 -0.27814203 0 1.2353968e-05 0 0)
(-2.338759 -0.27932957 0 -1.1698842e-05 0 0)
(-2.324023 -0.2782176 0 1.1078269e-05 0 0)
(-2.3377996 -0.27925805 0 -1.0505452e-05 0 0)
(-2.3249258 -0.27828525 0 9.9649154e-06 0 0)
(-2.3369387 -0.27919394 0 -9.4662848e-06 0 0)
(-2.3257379 -0.27834601 0 8.9974e-06 0 0)
(-2.3361636 -0.27913627 0 -8.565791e-06 0 0)
(-2.3264712 -0.27840076 0 8.1615426e-06 0 0)
(-2.3354625 -0.2790842 0 -7.7907802e-06 0 0)
(-2.3271365 -0.27845031 0 7.4452667e-06 0 0)
(-2.3348252 -0.27903695 0 -7.1301196e-06 0 0)
(-2.3277434 -0.27849539 0 6.8384258e-06 0 0)
(-2.3342424 -0.27899384 0 -6.574573e-06 0 0)
(-2.3283006 -0.27853666 0 6.3327355e-06 0 0)
(-2.3337054 -0.27895425 0 -6.116771e-06 0 0)
(-2.3288165 -0.27857471 0 5.9219246e-06 0 0)
(-2.3332064 -0.2789176 0 -5.7514655e-06 0 0)
(-2.3292984 -0.27861009 0 5.6017278e-06 0 0)
(-2.332738 -0.27888336 0 -5.4786709e-06 0 0)
(-2.3297532 -0.27864333 0 5.3664871e-06 0 0)
(-2.3322914 -0.27885095 0 -5.3065477e-06 0 0)
(-2.3301839 -0.27867444 0 5.2708602e-06 0 0)
(-2.3318572 -0.27881864 0 -4.9886375e-06 0 0)
(-2.330638 -0.27870192 0 6.3924216e-06 0 0)
(-2.3316141 -0.27880531 0 -5.9584385e-06 0 0)
(-1.6468848 -0.7370904 0 -0.27273553 0 0)
(-3.0566682 -0.33995249 0 -0.013331869 0 0)
(-2.5007224 -0.31100007 0 -0.0077239859 0 0)
(-2.3780052 -0.28151585 0 -0.00042128668 0 0)
(-2.2013446 -0.2706054 0 -0.0001512002 0 0)
(-2.2460814 -0.27421828 0 -0.00011741084 0 0)
(-2.182842 -0.26950893 0 -5.1054168e-05 0 0)
(-2.2271474 -0.27283952 0 -4.0942087e-05 0 0)
(-2.1819037 -0.26934506 0 1.6112163e-05 0 0)
(-2.2215041 -0.27243655 0 -2.5374521e-05 0 0)
(-2.183964 -0.26950451 0 2.2500154e-05 0 0)
(-2.2187526 -0.27223863 0 -2.2953732e-05 0 0)
(-2.1859674 -0.26966403 0 2.0901116e-05 0 0)
(-2.2166509 -0.2720776 0 -2.0404119e-05 0 0)
(-2.1877627 -0.26980631 0 1.8807232e-05 0 0)
(-2.2148512 -0.27193752 0 -1.8002617e-05 0 0)
(-2.189375 -0.2699339 0 1.6806712e-05 0 0)
(-2.2132773 -0.27181477 0 -1.5948563e-05 0 0)
(-2.1908163 -0.27004781 0 1.4986123e-05 0 0)
(-2.2118895 -0.27170648 0 -1.4178548e-05 0 0)
(-2.1921013 -0.27014922 0 1.3364271e-05 0 0)
(-2.2106597 -0.27161049 0 -1.2636939e-05 0 0)
(-2.1932468 -0.2702395 0 1.1932573e-05 0 0)
(-2.2095661 -0.27152513 0 -1.128838e-05 0 0)
(-2.1942692 -0.27031998 0 1.0674353e-05 0 0)
(-2.2085908 -0.27144902 0 -1.0108065e-05 0 0)
(-2.1951837 -0.27039187 0 9.5721129e-06 0 0)
(-2.2077185 -0.27138096 0 -9.0767098e-06 0 0)
(-2.1960038 -0.27045625 0 8.6098134e-06 0 0)
(-2.2069359 -0.27131994 0 -8.1784577e-06 0 0)
(-2.1967416 -0.27051408 0 7.7733766e-06 0 0)
(-2.2062313 -0.27126504 0 -7.3999471e-06 0 0)
(-2.1974077 -0.27056621 0 7.0506498e-06 0 0)
(-2.2055942 -0.27121545 0 -6.7298387e-06 0 0)
(-2.1980119 -0.2706134 0 6.4312555e-06 0 0)
(-2.2050151 -0.27117045 0 -6.158555e-06 0 0)
(-2.198563 -0.27065635 0 5.9064652e-06 0 0)
(-2.2044858 -0.27112937 0 -5.6781525e-06 0 0)
(-2.1990689 -0.27069567 0 5.4691603e-06 0 0)
(-2.2039982 -0.27109164 0 -5.2823062e-06 0 0)
(-2.199537 -0.27073194 0 5.1139983e-06 0 0)
(-2.2035454 -0.27105668 0 -4.9665356e-06 0 0)
(-2.1999741 -0.27076569 0 4.8373367e-06 0 0)
(-2.2031205 -0.27102402 0 -4.7315329e-06 0 0)
(-2.2003866 -0.27079742 0 4.6326664e-06 0 0)
(-2.2027158 -0.27099311 0 -4.5872455e-06 0 0)
(-2.2007767 -0.27082713 0 4.554321e-06 0 0)
(-2.2023203 -0.27096196 0 -4.2523652e-06 0 0)
(-2.2011783 -0.27085228 0 5.7916732e-06 0 0)
(-2.2020619 -0.27094733 0 -5.3986811e-06 0 0)
(-1.6121288 -0.71010905 0 -0.25616069 0 0)
(-2.6917645 -0.32367816 0 -0.014572001 0 0)
(-2.3323849 -0.30392388 0 -0.0085061887 0 0)
(-2.2441544 -0.27410393 0 -0.00058331077 0 0)
(-2.0836342 -0.26335141 0 -0.00023847728 0 0)
(-2.1173861 -0.26627755 0 -0.00013839305 0 0)
(-2.0596195 -0.26178296 0 -6.6930592e-05 0 0)
(-2.0994042 -0.26490195 0 -3.9047203e-05 0 0)
(-2.0581176 -0.26158004 0 1.1191976e-05 0 0)
(-2.0939921 -0.26450685 0 -2.1817795e-05 0 0)
(-2.0598285 -0.26172331 0 1.9192972e-05 0 0)
(-2.0914346 -0.26431906 0 -1.9896554e-05 0 0)
(-2.0616157 -0.26187394 0 1.7995271e-05 0 0)
(-2.0895184 -0.26416661 0 -1.7721099e-05 0 0)
(-2.0632416 -0.26200893 0 1.6238947e-05 0 0)
(-2.0878821 -0.2640337 0 -1.5612744e-05 0 0)
(-2.0647048 -0.26213001 0 1.4537193e-05 0 0)
(-2.086451 -0.26391716 0 -1.3819738e-05 0 0)
(-2.0660135 -0.26223814 0 1.2973477e-05 0 0)
(-2.0851888 -0.2638143 0 -1.2282451e-05 0 0)
(-2.0671807 -0.26233445 0 1.157384e-05 0 0)
(-2.08407 -0.2637231 0 -1.0946244e-05 0 0)
(-2.0682216 -0.26242023 0 1.0335605e-05 0 0)
(-2.0830751 -0.26364197 0 -9.7779689e-06 0 0)
(-2.069151 -0.26249672 0 9.2462467e-06 0 0)
(-2.0821877 -0.2635696 0 -8.755416e-06 0 0)
(-2.0699824 -0.26256508 0 8.291387e-06 0 0)
(-2.081394 -0.26350487 0 -7.861758e-06 0 0)
(-2.070728 -0.26262631 0 7.4574728e-06 0 0)
(-2.0806819 -0.26344682 0 -7.0832918e-06 0 0)
(-2.0713988 -0.26268133 0 6.7324708e-06 0 0)
(-2.0800409 -0.26339458 0 -6.4084946e-06 0 0)
(-2.0720044 -0.26273093 0 6.105933e-06 0 0)
(-2.0794614 -0.26334739 0 -5.8275816e-06 0 0)
(-2.0725536 -0.26277585 0 5.5689083e-06 0 0)
(-2.0789349 -0.26330455 0 -5.3322804e-06 0 0)
(-2.0730544 -0.26281673 0 5.1138566e-06 0 0)
(-2.0784536 -0.26326544 0 -4.9157281e-06 0 0)
(-2.0735141 -0.26285417 0 4.7346295e-06 0 0)
(-2.0780105 -0.2632295 0 -4.5724624e-06 0 0)
(-2.0739393 -0.26288873 0 4.4266402e-06 0 0)
(-2.0775991 -0.26319619 0 -4.2986079e-06 0 0)
(-2.0743362 -0.26292089 0 4.1867288e-06 0 0)
(-2.0772134 -0.26316506 0 -4.0953006e-06 0 0)
(-2.0747106 -0.26295116 0 4.0075564e-06 0 0)
(-2.0768462 -0.26313559 0 -3.9740345e-06 0 0)
(-2.0750644 -0.26297952 0 3.9415417e-06 0 0)
(-2.0764859 -0.26310565 0 -3.6253569e-06 0 0)
(-2.0754202 -0.26300267 0 5.2500229e-06 0 0)
(-2.0762199 -0.26308994 0 -4.8899966e-06 0 0)
(-1.5699589 -0.67008646 0 -0.23274444 0 0)
(-2.3480296 -0.30727477 0 -0.015594217 0 0)
(-2.1785803 -0.29719806 0 -0.0090345161 0 0)
(-2.0974007 -0.26552239 0 -0.00075459851 0 0)
(-1.9559389 -0.25535574 0 -0.00030788238 0 0)
(-1.989485 -0.25818954 0 -0.00015639093 0 0)
(-1.9382737 -0.25397742 0 -7.9615556e-05 0 0)
(-1.9749671 -0.25694396 0 -3.7047097e-05 0 0)
(-1.9375949 -0.25380176 0 7.0042814e-06 0 0)
(-1.9702466 -0.25657655 0 -1.8578546e-05 0 0)
(-1.9391993 -0.25393795 0 1.6326561e-05 0 0)
(-1.9679439 -0.25640137 0 -1.7164019e-05 0 0)
(-1.9408226 -0.25408124 0 1.5436881e-05 0 0)
(-1.9662079 -0.25625766 0 -1.5338859e-05 0 0)
(-1.9423003 -0.25420944 0 1.3966282e-05 0 0)
(-1.9647219 -0.25613176 0 -1.3494726e-05 0 0)
(-1.9436298 -0.25432431 0 1.2526665e-05 0 0)
(-1.9634207 -0.25602121 0 -1.1933505e-05 0 0)
(-1.9448188 -0.2544269 0 1.1189965e-05 0 0)
(-1.9622723 -0.25592358 0 -1.0602194e-05 0 0)
(-1.9458796 -0.25451831 0 9.9869532e-06 0 0)
(-1.9612542 -0.25583699 0 -9.4477457e-06 0 0)
(-1.9468259 -0.25459976 0 8.9199742e-06 0 0)
(-1.9603486 -0.25575992 0 -8.439067e-06 0 0)
(-1.947671 -0.25467242 0 7.9801615e-06 0 0)
(-1.9595408 -0.25569116 0 -7.5562418e-06 0 0)
(-1.9484272 -0.25473737 0 7.15588e-06 0 0)
(-1.9588184 -0.25562964 0 -6.7845932e-06 0 0)
(-1.9491054 -0.25479557 0 6.4357565e-06 0 0)
(-1.9581703 -0.25557446 0 -6.1123011e-06 0 0)
(-1.9497154 -0.25484786 0 5.8095475e-06 0 0)
(-1.9575869 -0.25552479 0 -5.5294513e-06 0 0)
(-1.9502662 -0.25489502 0 5.2682976e-06 0 0)
(-1.9570596 -0.25547991 0 -5.0276208e-06 0 0)
(-1.9507657 -0.25493774 0 4.8043071e-06 0 0)
(-1.9565806 -0.25543917 0 -4.5996811e-06 0 0)
(-1.951221 -0.25497663 0 4.4110776e-06 0 0)
(-1.9561429 -0.25540197 0 -4.2397158e-06 0 0)
(-1.9516389 -0.25501225 0 4.083308e-06 0 0)
(-1.95574 -0.25536776 0 -3.9430129e-06 0 0)
(-1.9520253 -0.25504514 0 3.8170626e-06 0 0)
(-1.9553661 -0.25533605 0 -3.7062082e-06 0 0)
(-1.9523859 -0.25507577 0 3.6095898e-06 0 0)
(-1.9550156 -0.2553064 0 -3.5307357e-06 0 0)
(-1.952726 -0.25510461 0 3.4528447e-06 0 0)
(-1.9546824 -0.25527834 0 -3.4294486e-06 0 0)
(-1.9530472 -0.25513166 0 3.3964329e-06 0 0)
(-1.9543542 -0.25524962 0 -3.071228e-06 0 0)
(-1.9533628 -0.25515308 0 4.7402693e-06 0 0)
(-1.9540862 -0.25523304 0 -4.4135036e-06 0 0)
(-1.5546392 -0.64524935 0 -0.21424994 0 0)
(-2.04855 -0.29365627 0 -0.016818238 0 0)
(-2.0230234 -0.28670127 0 -0.0085826701 0 0)
(-1.9634571 -0.2598284 0 -0.0015670225 0 0)
(-1.840061 -0.24825692 0 -0.00050355497 0 0)
(-1.8679673 -0.2502876 0 -0.00019258942 0 0)
(-1.8215784 -0.24623462 0 -9.6069526e-05 0 0)
(-1.8548318 -0.24901037 0 -3.5956164e-05 0 0)
(-1.8207992 -0.24602869 0 3.0767868e-06 0 0)
(-1.8504234 -0.24865259 0 -1.5675784e-05 0 0)
(-1.8221683 -0.2461513 0 1.3775544e-05 0 0)
(-1.8482941 -0.24848676 0 -1.4696566e-05 0 0)
(-1.8236174 -0.24628644 0 1.3147004e-05 0 0)
(-1.8467102 -0.24835096 0 -1.3192639e-05 0 0)
(-1.8249556 -0.24640796 0 1.1924655e-05 0 0)
(-1.8453586 -0.24823173 0 -1.1589041e-05 0 0)
(-1.826163 -0.24651684 0 1.0718535e-05 0 0)
(-1.8441749 -0.24812692 0 -1.0236656e-05 0 0)
(-1.8272433 -0.24661411 0 9.5853653e-06 0 0)
(-1.84313 -0.24803432 0 -9.0903945e-06 0 0)
(-1.8282075 -0.24670081 0 8.5589225e-06 0 0)
(-1.8422033 -0.24795214 0 -8.0992254e-06 0 0)
(-1.829068 -0.24677811 0 7.6458403e-06 0 0)
(-1.841379 -0.24787898 0 -7.233991e-06 0 0)
(-1.8298366 -0.24684708 0 6.8404917e-06 0 0)
(-1.8406436 -0.24781369 0 -6.4768206e-06 0 0)
(-1.8305244 -0.24690875 0 6.1336784e-06 0 0)
(-1.8399859 -0.24775527 0 -5.8149422e-06 0 0)
(-1.8311413 -0.24696402 0 5.5159594e-06 0 0)
(-1.839396 -0.24770285 0 -5.2382035e-06 0 0)
(-1.8316962 -0.24701369 0 4.9786789e-06 0 0)
(-1.8388651 -0.24765567 0 -4.738118e-06 0 0)
(-1.8321971 -0.24705849 0 4.5142088e-06 0 0)
(-1.8383852 -0.24761303 0 -4.3074745e-06 0 0)
(-1.8326514 -0.24709908 0 4.1159641e-06 0 0)
(-1.8379495 -0.2475743 0 -3.9401646e-06 0 0)
(-1.8330654 -0.24713604 0 3.7783754e-06 0 0)
(-1.8375513 -0.24753894 0 -3.6311143e-06 0 0)
(-1.8334453 -0.24716991 0 3.4968949e-06 0 0)
(-1.837185 -0.24750641 0 -3.3762766e-06 0 0)
(-1.8337965 -0.24720118 0 3.2681579e-06 0 0)
(-1.8368451 -0.24747625 0 -3.17273e-06 0 0)
(-1.8341242 -0.24723032 0 3.0897688e-06 0 0)
(-1.8365266 -0.24744804 0 -3.0220936e-06 0 0)
(-1.8344332 -0.24725778 0 2.9531236e-06 0 0)
(-1.8362241 -0.24742134 0 -2.9383609e-06 0 0)
(-1.8347249 -0.24728357 0 2.9044564e-06 0 0)
(-1.8359252 -0.24739386 0 -2.5748474e-06 0 0)
(-1.835005 -0.24730348 0 4.253486e-06 0 0)
(-1.8356595 -0.24737658 0 -3.965034e-06 0 0)
(-1.5736095 -0.60038602 0 -0.18184877 0 0)
(-1.8110555 -0.27860573 0 -0.016409554 0 0)
(-1.872451 -0.27373031 0 -0.007561521 0 0)
(-1.8270826 -0.25220835 0 -0.0019654554 0 0)
(-1.7214735 -0.24041778 0 -0.00059654226 0 0)
(-1.7487933 -0.24223498 0 -0.00020882911 0 0)
(-1.7075539 -0.2384182 0 -0.00010423841 0 0)
(-1.7381999 -0.24105782 0 -3.3154558e-05 0 0)
(-1.7074 -0.23824326 0 1.5067106e-07 0 0)
(-1.7343606 -0.24072837 0 -1.28561e-05 0 0)
(-1.7086884 -0.23836069 0 1.1567357e-05 0 0)
(-1.7324431 -0.24057413 0 -1.2437836e-05 0 0)
(-1.7100023 -0.23848913 0 1.1100044e-05 0 0)
(-1.731007 -0.24044629 0 -1.124878e-05 0 0)
(-1.7112178 -0.23860441 0 1.0086286e-05 0 0)
(-1.7297795 -0.24033353 0 -9.8677837e-06 0 0)
(-1.7123149 -0.23870761 0 9.0873404e-06 0 0)
(-1.7287034 -0.24023425 0 -8.7047671e-06 0 0)
(-1.7132966 -0.23879979 0 8.1368893e-06 0 0)
(-1.7277528 -0.24014647 0 -7.7254434e-06 0 0)
(-1.714173 -0.23888199 0 7.2694569e-06 0 0)
(-1.7269096 -0.24006853 0 -6.8814887e-06 0 0)
(-1.7149552 -0.23895529 0 6.4951328e-06 0 0)
(-1.7261593 -0.23999913 0 -6.1456417e-06 0 0)
(-1.7156541 -0.23902072 0 5.8111097e-06 0 0)
(-1.7254901 -0.23993718 0 -5.5018727e-06 0 0)
(-1.7162795 -0.23907923 0 5.2103423e-06 0 0)
(-1.7248915 -0.23988174 0 -4.9391016e-06 0 0)
(-1.7168405 -0.23913168 0 4.6851033e-06 0 0)
(-1.7243547 -0.23983199 0 -4.4486582e-06 0 0)
(-1.7173451 -0.23917882 0 4.2281491e-06 0 0)
(-1.7238717 -0.2397872 0 -4.0233284e-06 0 0)
(-1.7178007 -0.23922135 0 3.8330367e-06 0 0)
(-1.7234352 -0.23974672 0 -3.6569846e-06 0 0)
(-1.7182137 -0.23925988 0 3.494179e-06 0 0)
(-1.7230388 -0.23970995 0 -3.3444319e-06 0 0)
(-1.7185901 -0.23929498 0 3.2068392e-06 0 0)
(-1.7226768 -0.23967636 0 -3.081351e-06 0 0)
(-1.7189354 -0.23932715 0 2.9671429e-06 0 0)
(-1.7223437 -0.23964546 0 -2.8642877e-06 0 0)
(-1.7192545 -0.23935687 0 2.7722301e-06 0 0)
(-1.7220348 -0.23961679 0 -2.6907081e-06 0 0)
(-1.7195522 -0.23938456 0 2.6200187e-06 0 0)
(-1.7217455 -0.23958997 0 -2.5623262e-06 0 0)
(-1.7198329 -0.23941068 0 2.5015029e-06 0 0)
(-1.7214709 -0.23956459 0 -2.4940244e-06 0 0)
(-1.7200978 -0.23943524 0 2.4592376e-06 0 0)
(-1.7211989 -0.23953834 0 -2.129262e-06 0 0)
(-1.7203464 -0.23945384 0 3.7877899e-06 0 0)
(-1.7209386 -0.23952053 0 -3.5447581e-06 0 0)
(-1.5860904 -0.57539474 0 -0.16400607 0 0)
(-1.638561 -0.26472569 0 -0.015582209 0 0)
(-1.7240311 -0.26649674 0 -0.0090509463 0 0)
(-1.6983059 -0.24354702 0 -0.0020008303 0 0)
(-1.6100784 -0.23259784 0 -0.00063561864 0 0)
(-1.6348718 -0.23421149 0 -0.00021016958 0 0)
(-1.5977008 -0.23061117 0 -0.00010651759 0 0)
(-1.625627 -0.23311283 0 -2.8550648e-05 0 0)
(-1.5976604 -0.23045622 0 -1.7891515e-06 0 0)
(-1.6221391 -0.2328075 0 -1.0053416e-05 0 0)
(-1.5988117 -0.23056761 0 9.6790659e-06 0 0)
(-1.6203934 -0.2326639 0 -1.035625e-05 0 0)
(-1.5999956 -0.23068956 0 9.2687117e-06 0 0)
(-1.6190898 -0.23254367 0 -9.481722e-06 0 0)
(-1.6010986 -0.23079892 0 8.42699e-06 0 0)
(-1.6179754 -0.23243712 0 -8.30827e-06 0 0)
(-1.6020951 -0.23089668 0 7.6117001e-06 0 0)
(-1.6169975 -0.23234315 0 -7.3177121e-06 0 0)
(-1.6029868 -0.230984 0 6.8255811e-06 0 0)
(-1.6161333 -0.23225999 0 -6.4894903e-06 0 0)
(-1.603783 -0.23106188 0 6.1017362e-06 0 0)
(-1.6153664 -0.23218613 0 -5.7786791e-06 0 0)
(-1.6044938 -0.23113134 0 5.452897e-06 0 0)
(-1.614684 -0.23212034 0 -5.1598986e-06 0 0)
(-1.6051289 -0.23119336 0 4.8786801e-06 0 0)
(-1.6140752 -0.2320616 0 -4.6187834e-06 0 0)
(-1.6056973 -0.23124884 0 4.3739382e-06 0 0)
(-1.6135309 -0.23200903 0 -4.1457606e-06 0 0)
(-1.6062072 -0.23129857 0 3.9324663e-06 0 0)
(-1.6130427 -0.23196185 0 -3.7334812e-06 0 0)
(-1.6066658 -0.23134327 0 3.5482823e-06 0 0)
(-1.6126034 -0.23191937 0 -3.3758702e-06 0 0)
(-1.6070797 -0.23138361 0 3.2160058e-06 0 0)
(-1.6122066 -0.23188096 0 -3.0677732e-06 0 0)
(-1.607455 -0.23142016 0 2.9309476e-06 0 0)
(-1.6118463 -0.23184608 0 -2.8048178e-06 0 0)
(-1.607797 -0.23145346 0 2.6891211e-06 0 0)
(-1.6115173 -0.2318142 0 -2.5833642e-06 0 0)
(-1.6081107 -0.23148399 0 2.4872572e-06 0 0)
(-1.6112147 -0.23178487 0 -2.4004902e-06 0 0)
(-1.6084005 -0.2315122 0 2.3229454e-06 0 0)
(-1.610934 -0.23175766 0 -2.2540065e-06 0 0)
(-1.6086709 -0.2315385 0 2.1943842e-06 0 0)
(-1.6106713 -0.23173217 0 -2.1456515e-06 0 0)
(-1.6089257 -0.23156332 0 2.0923286e-06 0 0)
(-1.6104223 -0.23170807 0 -2.0909292e-06 0 0)
(-1.6091661 -0.2315867 0 2.0555501e-06 0 0)
(-1.610175 -0.23168306 0 -1.7287957e-06 0 0)
(-1.6093867 -0.23160413 0 3.3419166e-06 0 0)
(-1.6099224 -0.23166486 0 -3.1524672e-06 0 0)
(-1.5853487 -0.55735355 0 -0.15303692 0 0)
(-1.487284 -0.2538832 0 -0.015735369 0 0)
(-1.5796936 -0.25586946 0 -0.0090695868 0 0)
(-1.580883 -0.23394626 0 -0.0015039612 0 0)
(-1.5065355 -0.22464444 0 -0.00055791449 0 0)
(-1.5262722 -0.22614103 0 -0.00017804413 0 0)
(-1.4921077 -0.22278227 0 -9.6986518e-05 0 0)
(-1.5171778 -0.22516609 0 -2.0354071e-05 0 0)
(-1.4916516 -0.22266505 0 -2.2298326e-06 0 0)
(-1.5137829 -0.22488938 0 -7.0578514e-06 0 0)
(-1.4925692 -0.22277213 0 8.143595e-06 0 0)
(-1.5121442 -0.22475604 0 -8.4016209e-06 0 0)
(-1.4936117 -0.22288788 0 7.6370521e-06 0 0)
(-1.5109512 -0.22464302 0 -7.863958e-06 0 0)
(-1.4946074 -0.22299156 0 6.9264772e-06 0 0)
(-1.5099384 -0.22454242 0 -6.8888263e-06 0 0)
(-1.4955112 -0.22308414 0 6.2724981e-06 0 0)
(-1.5090503 -0.22445354 0 -6.0568662e-06 0 0)
(-1.4963207 -0.22316679 0 5.6342356e-06 0 0)
(-1.5082652 -0.22437482 0 -5.3661749e-06 0 0)
(-1.4970435 -0.22324053 0 5.0404295e-06 0 0)
(-1.5075683 -0.22430487 0 -4.7763056e-06 0 0)
(-1.4976888 -0.22330631 0 4.5054834e-06 0 0)
(-1.5069482 -0.22424256 0 -4.2638653e-06 0 0)
(-1.4982655 -0.22336506 0 4.0310228e-06 0 0)
(-1.506395 -0.22418691 0 -3.8160306e-06 0 0)
(-1.4987816 -0.2234176 0 3.6135604e-06 0 0)
(-1.5059003 -0.2241371 0 -3.4245842e-06 0 0)
(-1.4992446 -0.22346472 0 3.248246e-06 0 0)
(-1.5054568 -0.2240924 0 -3.0833634e-06 0 0)
(-1.499661 -0.22350707 0 2.9302289e-06 0 0)
(-1.5050577 -0.22405214 0 -2.7873191e-06 0 0)
(-1.5000369 -0.2235453 0 2.6550873e-06 0 0)
(-1.5046972 -0.22401575 0 -2.5321765e-06 0 0)
(-1.5003776 -0.22357994 0 2.4189445e-06 0 0)
(-1.50437 -0.22398268 0 -2.3143077e-06 0 0)
(-1.500688 -0.2236115 0 2.218493e-06 0 0)
(-1.5040713 -0.22395246 0 -2.130688e-06 0 0)
(-1.5009727 -0.22364045 0 2.0510123e-06 0 0)
(-1.5037966 -0.22392464 0 -1.9788764e-06 0 0)
(-1.5012357 -0.2236672 0 1.914495e-06 0 0)
(-1.5035419 -0.22389883 0 -1.8569947e-06 0 0)
(-1.501481 -0.22369216 0 1.8073945e-06 0 0)
(-1.5033035 -0.22387464 0 -1.7667523e-06 0 0)
(-1.5017121 -0.22371571 0 1.7203884e-06 0 0)
(-1.5030779 -0.22385178 0 -1.7239965e-06 0 0)
(-1.5019303 -0.22373794 0 1.6885123e-06 0 0)
(-1.5028533 -0.22382799 0 -1.3681732e-06 0 0)
(-1.5021258 -0.22375434 0 2.9144965e-06 0 0)
(-1.5026102 -0.22380954 0 -2.7873144e-06 0 0)
(-1.5826628 -0.52012563 0 -0.13044699 0 0)
(-1.3679089 -0.24212078 0 -0.014770986 0 0)
(-1.4511712 -0.24556681 0 -0.0090302943 0 0)
(-1.472464 -0.2249949 0 -0.0011532218 0 0)
(-1.4065964 -0.21678017 0 -0.00049335833 0 0)
(-1.4221076 -0.21813291 0 -0.00014467254 0 0)
(-1.3903089 -0.21496435 0 -8.5665935e-05 0 0)
(-1.4126813 -0.21723104 0 -1.1508236e-05 0 0)
(-1.3893194 -0.21487447 0 -2.0641084e-06 0 0)
(-1.4092619 -0.21697587 0 -4.0991381e-06 0 0)
(-1.3899656 -0.2149752 0 6.8588992e-06 0 0)
(-1.4076874 -0.21685088 0 -6.574704e-06 0 0)
(-1.3908609 -0.2150844 0 6.176487e-06 0 0)
(-1.4065853 -0.21674439 0 -6.3778814e-06 0 0)
(-1.3917529 -0.21518249 0 5.5654292e-06 0 0)
(-1.4056626 -0.2166494 0 -5.5921354e-06 0 0)
(-1.3925704 -0.21527006 0 5.05322e-06 0 0)
(-1.4048561 -0.21656537 0 -4.9067673e-06 0 0)
(-1.393304 -0.21534825 0 4.5482831e-06 0 0)
(-1.4041434 -0.21649091 0 -4.3417988e-06 0 0)
(-1.3939593 -0.215418 0 4.0726224e-06 0 0)
(-1.4035109 -0.21642472 0 -3.8622054e-06 0 0)
(-1.3945446 -0.21548025 0 3.6414107e-06 0 0)
(-1.4029479 -0.21636575 0 -3.4467062e-06 0 0)
(-1.3950676 -0.21553584 0 3.2578952e-06 0 0)
(-1.4024458 -0.21631308 0 -3.0839267e-06 0 0)
(-1.3955357 -0.21558557 0 2.9200367e-06 0 0)
(-1.4019969 -0.21626593 0 -2.7668788e-06 0 0)
(-1.3959556 -0.21563015 0 2.6241953e-06 0 0)
(-1.4015943 -0.21622362 0 -2.490471e-06 0 0)
(-1.3963333 -0.21567025 0 2.3665413e-06 0 0)
(-1.4012323 -0.21618551 0 -2.2505836e-06 0 0)
(-1.3966741 -0.21570643 0 2.1435221e-06 0 0)
(-1.4009052 -0.21615104 0 -2.0437406e-06 0 0)
(-1.3969831 -0.21573923 0 1.9519998e-06 0 0)
(-1.4006084 -0.21611973 0 -1.8669917e-06 0 0)
(-1.3972645 -0.21576912 0 1.789286e-06 0 0)
(-1.4003375 -0.21609111 0 -1.717872e-06 0 0)
(-1.3975226 -0.21579654 0 1.6531588e-06 0 0)
(-1.4000884 -0.21606476 0 -1.5943782e-06 0 0)
(-1.397761 -0.21582189 0 1.5419756e-06 0 0)
(-1.3998575 -0.21604029 0 -1.4949158e-06 0 0)
(-1.3979833 -0.21584554 0 1.4544233e-06 0 0)
(-1.3996415 -0.21601736 0 -1.4211258e-06 0 0)
(-1.3981927 -0.21586788 0 1.3812569e-06 0 0)