/*--------------------------------*- C++ -*----------------------------------*\
| =========                 |                                                 |
| \\      /  F ield         | OpenFOAM: The Open Source CFD Toolbox           |
|  \\    /   O peration     | Version:  2312                                  |
|   \\  /    A nd           | Website:  www.openfoam.com                      |
|    \\/     M anipulation  |                                                 |
\*---------------------------------------------------------------------------*/
FoamFile
{
    version     2.0;
    format      ascii;
    arch        "LSB;label=32;scalar=64";
    class       volSymmTensorField;
    location    "7";
    object      sigma_0;
}
// * * * * * * * * * * * * * * * * * * * * * * * * * * * * * * * * * * * * * //

dimensions      [0 2 -2 0 0 0 0];

internalField   nonuniform List<symmTensor> 
4000
(
(-2.2421229 -1.0049849 0 -0.40647395 0 0)
(-5.6583854 -0.44110525 0 -0.0029379207 0 0)
(-2.9222072 -0.31321385 0 -0.00086039126 0 0)
(-3.1206834 -0.32242316 0 1.0773236e-05 0 0)
(-2.9354041 -0.31264314 0 2.1647539e-05 0 0)
(-3.0387635 -0.31852733 0 -5.4736044e-05 0 0)
(-2.9198992 -0.3117824 0 3.5245441e-05 0 0)
(-3.0031383 -0.31660031 0 -4.3325378e-05 0 0)
(-2.9227745 -0.31194081 0 3.8667682e-05 0 0)
(-2.9940111 -0.31609625 0 -3.7833889e-05 0 0)
(-2.9272479 -0.31219829 0 3.535021e-05 0 0)
(-2.9891377 -0.31581887 0 -3.3598991e-05 0 0)
(-2.9309361 -0.3124137 0 3.1519045e-05 0 0)
(-2.9853734 -0.31560148 0 -2.9793548e-05 0 0)
(-2.9341661 -0.3126031 0 2.8002809e-05 0 0)
(-2.9821799 -0.31541602 0 -2.6427009e-05 0 0)
(-2.9370561 -0.31277257 0 2.487778e-05 0 0)
(-2.9793924 -0.31525381 0 -2.3474493e-05 0 0)
(-2.9396325 -0.31292353 0 2.2124623e-05 0 0)
(-2.9769353 -0.31511078 0 -2.0886471e-05 0 0)
(-2.9419237 -0.31305761 0 1.9706076e-05 0 0)
(-2.9747595 -0.31498417 0 -1.8617696e-05 0 0)
(-2.9439616 -0.31317669 0 1.7584405e-05 0 0)
(-2.9728265 -0.31487179 0 -1.6629675e-05 0 0)
(-2.9457773 -0.31328261 0 1.5725561e-05 0 0)
(-2.9711041 -0.31477177 0 -1.4889723e-05 0 0)
(-2.9473991 -0.31337703 0 1.4099905e-05 0 0)
(-2.9695645 -0.31468251 0 -1.3370051e-05 0 0)
(-2.9488519 -0.31346142 0 1.2681996e-05 0 0)
(-2.9681839 -0.31460261 0 -1.2047016e-05 0 0)
(-2.9501577 -0.3135371 0 1.1450101e-05 0 0)
(-2.966941 -0.31453084 0 -1.0900492e-05 0 0)
(-2.9513361 -0.31360521 0 1.0385688e-05 0 0)
(-2.9658174 -0.31446612 0 -9.9133429e-06 0 0)
(-2.9524046 -0.31366677 0 9.4729853e-06 0 0)
(-2.9647963 -0.31440749 0 -9.0710186e-06 0 0)
(-2.9533786 -0.31372268 0 8.698633e-06 0 0)
(-2.9638627 -0.31435409 0 -8.3612476e-06 0 0)
(-2.9542725 -0.31377376 0 8.0514317e-06 0 0)
(-2.963003 -0.31430514 0 -7.7738322e-06 0 0)
(-2.9550992 -0.31382075 0 7.5222002e-06 0 0)
(-2.9622046 -0.31425992 0 -7.3005845e-06 0 0)
(-2.9558707 -0.31386435 0 7.1036581e-06 0 0)
(-2.9614558 -0.31421778 0 -6.9357986e-06 0 0)
(-2.9565971 -0.31390511 0 6.7904826e-06 0 0)
(-2.9607432 -0.31417798 0 -6.6746482e-06 0 0)
(-2.95729 -0.3139436 0 6.5962635e-06 0 0)
(-2.9600908 -0.3141415 0 -6.4632872e-06 0 0)
(-2.9581315 -0.3139887 0 6.6929101e-06 0 0)
(-2.9600745 -0.31414031 0 -6.487968e-06 0 0)
(-1.9713577 -0.92279973 0 -0.38364936 0 0)
(-4.8660711 -0.42126733 0 -0.0081170168 0 0)
(-2.9840346 -0.32124192 0 -0.00257242 0 0)
(-2.8821546 -0.30957282 0 -2.1094896e-05 0 0)
(-2.7208161 -0.30103857 0 -5.437122e-06 0 0)
(-2.8102044 -0.30649256 0 -7.4826989e-05 0 0)
(-2.7108187 -0.30036408 0 1.9367232e-05 0 0)
(-2.7795805 -0.3046812 0 -4.9323603e-05 0 0)
(-2.7114426 -0.30036721 0 3.949678e-05 0 0)
(-2.7716374 -0.30420968 0 -4.1130343e-05 0 0)
(-2.7150276 -0.30059151 0 3.8033778e-05 0 0)
(-2.767531 -0.30395662 0 -3.6634861e-05 0 0)
(-2.7181237 -0.3007897 0 3.4193578e-05 0 0)
(-2.7643392 -0.30375528 0 -3.2493542e-05 0 0)
(-2.72085 -0.30096516 0 3.0454484e-05 0 0)
(-2.7616224 -0.30358264 0 -2.8800577e-05 0 0)
(-2.7232946 -0.30112244 0 2.7081782e-05 0 0)
(-2.7592512 -0.30343169 0 -2.5574625e-05 0 0)
(-2.7254766 -0.30126263 0 2.4095346e-05 0 0)
(-2.7571614 -0.30329861 0 -2.2754137e-05 0 0)
(-2.7274186 -0.30138722 0 2.1466763e-05 0 0)
(-2.7553104 -0.30318079 0 -2.0283906e-05 0 0)
(-2.7291473 -0.30149793 0 1.9158827e-05 0 0)
(-2.7536651 -0.30307616 0 -1.8119831e-05 0 0)
(-2.7306887 -0.30159647 0 1.7135875e-05 0 0)
(-2.7521982 -0.30298299 0 -1.6225741e-05 0 0)
(-2.7320664 -0.30168436 0 1.5366261e-05 0 0)
(-2.7508864 -0.30289979 0 -1.4571344e-05 0 0)
(-2.7333013 -0.30176298 0 1.3822628e-05 0 0)
(-2.7497094 -0.30282528 0 -1.3131022e-05 0 0)
(-2.734412 -0.3018335 0 1.2481542e-05 0 0)
(-2.7486494 -0.30275832 0 -1.1883004e-05 0 0)
(-2.7354149 -0.301897 0 1.1322998e-05 0 0)
(-2.7476906 -0.30269792 0 -1.0808776e-05 0 0)
(-2.7363248 -0.30195441 0 1.0329973e-05 0 0)
(-2.7468188 -0.30264319 0 -9.8926421e-06 0 0)
(-2.737155 -0.30200657 0 9.488081e-06 0 0)
(-2.7460213 -0.30259331 0 -9.1214274e-06 0 0)
(-2.7379175 -0.30205425 0 8.7853578e-06 0 0)
(-2.7452864 -0.30254758 0 -8.4843139e-06 0 0)
(-2.7386234 -0.30209814 0 8.2122081e-06 0 0)
(-2.7446033 -0.30250532 0 -7.9729176e-06 0 0)
(-2.739283 -0.30213887 0 7.7613331e-06 0 0)
(-2.7439619 -0.30246592 0 -7.5827813e-06 0 0)
(-2.7399052 -0.302177 0 7.4271575e-06 0 0)
(-2.7433503 -0.30242868 0 -7.3118959e-06 0 0)
(-2.7404962 -0.30221275 0 7.2443678e-06 0 0)
(-2.7427717 -0.30239314 0 -7.031525e-06 0 0)
(-2.7411671 -0.30225001 0 7.7171802e-06 0 0)
(-2.7426383 -0.30238473 0 -6.9746656e-06 0 0)
(-1.8402299 -0.86277893 0 -0.35061512 0 0)
(-4.2723262 -0.39416165 0 -0.0095452642 0 0)
(-2.898473 -0.3206098 0 -0.0038715601 0 0)
(-2.7519271 -0.30245373 0 -0.00011973931 0 0)
(-2.582057 -0.29324856 0 -2.7084426e-05 0 0)
(-2.6617939 -0.29839986 0 -8.5829052e-05 0 0)
(-2.5741344 -0.29267341 0 3.2717105e-06 0 0)
(-2.6350674 -0.29671354 0 -5.0009783e-05 0 0)
(-2.5742096 -0.29261808 0 3.5900883e-05 0 0)
(-2.6278285 -0.29625905 0 -3.9544339e-05 0 0)
(-2.5773171 -0.29282473 0 3.6231151e-05 0 0)
(-2.6241606 -0.29602079 0 -3.5258156e-05 0 0)
(-2.5800724 -0.29301272 0 3.2759074e-05 0 0)
(-2.6213177 -0.29583016 0 -3.1270372e-05 0 0)
(-2.5825033 -0.29317937 0 2.9228139e-05 0 0)
(-2.6188946 -0.29566625 0 -2.7694792e-05 0 0)
(-2.5846836 -0.29332876 0 2.6011197e-05 0 0)
(-2.6167801 -0.29552294 0 -2.4583765e-05 0 0)
(-2.5866305 -0.29346195 0 2.3150852e-05 0 0)
(-2.6149167 -0.2953966 0 -2.1870251e-05 0 0)
(-2.5883641 -0.29358035 0 2.0628847e-05 0 0)
(-2.6132659 -0.29528473 0 -1.9495808e-05 0 0)
(-2.5899079 -0.29368561 0 1.8412705e-05 0 0)
(-2.6117983 -0.29518535 0 -1.7416091e-05 0 0)
(-2.5912851 -0.29377933 0 1.6469378e-05 0 0)
(-2.6104894 -0.29509681 0 -1.559578e-05 0 0)
(-2.5925163 -0.29386297 0 1.4768972e-05 0 0)
(-2.6093186 -0.29501771 0 -1.4005686e-05 0 0)
(-2.5936204 -0.29393781 0 1.3285469e-05 0 0)
(-2.6082679 -0.29494684 0 -1.2621249e-05 0 0)
(-2.5946136 -0.29400498 0 1.1996521e-05 0 0)
(-2.6073214 -0.29488313 0 -1.1421642e-05 0 0)
(-2.5955107 -0.29406548 0 1.0883032e-05 0 0)
(-2.6064651 -0.29482564 0 -1.0389169e-05 0 0)
(-2.5963246 -0.2941202 0 9.9287573e-06 0 0)
(-2.6056863 -0.29477351 0 -9.5088577e-06 0 0)
(-2.5970674 -0.29416994 0 9.1200068e-06 0 0)
(-2.6049737 -0.29472599 0 -8.7682024e-06 0 0)
(-2.5977498 -0.29421542 0 8.445485e-06 0 0)
(-2.6043168 -0.29468239 0 -8.1570626e-06 0 0)
(-2.5983817 -0.29425731 0 7.8963393e-06 0 0)
(-2.6037059 -0.29464208 0 -7.6678622e-06 0 0)
(-2.5989723 -0.29429621 0 7.4662056e-06 0 0)
(-2.6031321 -0.29460447 0 -7.2978346e-06 0 0)
(-2.5995298 -0.29433266 0 7.1500368e-06 0 0)
(-2.6025844 -0.29456891 0 -7.0494755e-06 0 0)
(-2.6000591 -0.29436679 0 6.9922594e-06 0 0)
(-2.6020608 -0.29453445 0 -6.7622426e-06 0 0)
(-2.6006463 -0.2944004 0 7.700313e-06 0 0)
(-2.6018834 -0.29452451 0 -7.1415506e-06 0 0)
(-1.7892807 -0.83083857 0 -0.32985496 0 0)
(-3.8601145 -0.37748472 0 -0.011448839 0 0)
(-2.7952576 -0.31963348 0 -0.0053393218 0 0)
(-2.6285407 -0.29556901 0 -0.00022239542 0 0)
(-2.4496489 -0.28561284 0 -6.2568376e-05 0 0)
(-2.5184797 -0.29032112 0 -9.5231346e-05 0 0)
(-2.4404306 -0.28497742 0 -1.7461341e-05 0 0)
(-2.4949916 -0.28875 0 -4.6916219e-05 0 0)
(-2.4401094 -0.28486974 0 2.8571548e-05 0 0)
(-2.4883574 -0.28831171 0 -3.4475843e-05 0 0)
(-2.4428115 -0.28505824 0 3.1202701e-05 0 0)
(-2.4850423 -0.28808775 0 -3.0825963e-05 0 0)
(-2.4452802 -0.28523582 0 2.8457926e-05 0 0)
(-2.4824821 -0.28790762 0 -2.7346717e-05 0 0)
(-2.4474665 -0.2853936 0 2.5459373e-05 0 0)
(-2.4802966 -0.28775221 0 -2.4193629e-05 0 0)
(-2.449428 -0.28553508 0 2.2685079e-05 0 0)
(-2.4783885 -0.28761628 0 -2.1465175e-05 0 0)
(-2.4511804 -0.28566127 0 2.0201998e-05 0 0)
(-2.4767069 -0.28749645 0 -1.9093521e-05 0 0)
(-2.4527415 -0.28577351 0 1.8006344e-05 0 0)
(-2.4752171 -0.2873903 0 -1.7020718e-05 0 0)
(-2.4541324 -0.28587334 0 1.6074338e-05 0 0)
(-2.4738923 -0.28729596 0 -1.5205583e-05 0 0)
(-2.4553735 -0.28596229 0 1.4378907e-05 0 0)
(-2.4727107 -0.28721188 0 -1.3616649e-05 0 0)
(-2.4564835 -0.2860417 0 1.2894732e-05 0 0)
(-2.4716537 -0.28713673 0 -1.2228396e-05 0 0)
(-2.4574789 -0.28611278 0 1.1599505e-05 0 0)
(-2.4707051 -0.28706937 0 -1.10195e-05 0 0)
(-2.4583745 -0.28617661 0 1.0473954e-05 0 0)
(-2.4698506 -0.28700879 0 -9.9719071e-06 0 0)
(-2.4591834 -0.28623412 0 9.5015622e-06 0 0)
(-2.4690776 -0.28695409 0 -9.0702761e-06 0 0)
(-2.4599173 -0.28628616 0 8.6682597e-06 0 0)
(-2.4683747 -0.28690449 0 -8.3016353e-06 0 0)
(-2.460587 -0.28633348 0 7.9622043e-06 0 0)
(-2.4677316 -0.28685924 0 -7.6551858e-06 0 0)
(-2.4612022 -0.28637679 0 7.3736807e-06 0 0)
(-2.4671389 -0.28681771 0 -7.1222534e-06 0 0)
(-2.4617718 -0.28641669 0 6.8952247e-06 0 0)
(-2.466588 -0.28677927 0 -6.6965506e-06 0 0)
(-2.4623042 -0.28645379 0 6.5216745e-06 0 0)
(-2.4660705 -0.28674339 0 -6.3769909e-06 0 0)
(-2.4628067 -0.28648859 0 6.2479769e-06 0 0)
(-2.4655767 -0.28670944 0 -6.1693643e-06 0 0)
(-2.4632832 -0.28652116 0 6.1263659e-06 0 0)
(-2.4650999 -0.286676 0 -5.867367e-06 0 0)
(-2.4637977 -0.28655137 0 7.076689e-06 0 0)
(-2.464882 -0.28666416 0 -6.5785596e-06 0 0)
(-1.7025339 -0.77651681 0 -0.29673562 0 0)
(-3.4429426 -0.35800467 0 -0.012401484 0 0)
(-2.6551573 -0.31592021 0 -0.0065858304 0 0)
(-2.5049355 -0.28866209 0 -0.00032501854 0 0)
(-2.3235579 -0.27810022 0 -0.00010454404 0 0)
(-2.3800693 -0.28226603 0 -0.00010596433 0 0)
(-2.3099769 -0.27725635 0 -3.5948491e-05 0 0)
(-2.3590787 -0.2807942 0 -4.3758754e-05 0 0)
(-2.3093003 -0.27711149 0 2.1712317e-05 0 0)
(-2.3529569 -0.28037167 0 -2.9534505e-05 0 0)
(-2.311656 -0.27728416 0 2.6406869e-05 0 0)
(-2.3499378 -0.28016077 0 -2.6520474e-05 0 0)
(-2.3138775 -0.27745232 0 2.431138e-05 0 0)
(-2.3476203 -0.27999041 0 -2.3542634e-05 0 0)
(-2.3158554 -0.27760202 0 2.1814487e-05 0 0)
(-2.3456397 -0.27984293 0 -2.0801991e-05 0 0)
(-2.3176307 -0.27773626 0 1.9465805e-05 0 0)
(-2.3439095 -0.27971386 0 -1.8444708e-05 0 0)
(-2.3192173 -0.27785605 0 1.7346886e-05 0 0)
(-2.3423843 -0.27960004 0 -1.6403964e-05 0 0)
(-2.3206314 -0.27796265 0 1.5466504e-05 0 0)
(-2.3410329 -0.27949918 0 -1.462294e-05 0 0)
(-2.3218918 -0.27805752 0 1.3809114e-05 0 0)
(-2.3398309 -0.27940951 0 -1.3063735e-05 0 0)
(-2.3230168 -0.27814208 0 1.2353379e-05 0 0)
(-2.3387588 -0.27932954 0 -1.1698662e-05 0 0)
(-2.3240231 -0.27821761 0 1.107837e-05 0 0)
(-2.3377997 -0.27925805 0 -1.0505744e-05 0 0)
(-2.3249256 -0.27828524 0 9.9653206e-06 0 0)
(-2.336939 -0.27919395 0 -9.4667531e-06 0 0)
(-2.3257376 -0.27834599 0 8.9978885e-06 0 0)
(-2.3361638 -0.27913629 0 -8.5662765e-06 0 0)
(-2.326471 -0.27840074 0 8.1620047e-06 0 0)
(-2.3354627 -0.27908421 0 -7.7912116e-06 0 0)
(-2.3271363 -0.2784503 0 7.4456597e-06 0 0)
(-2.3348254 -0.27903697 0 -7.1304751e-06 0 0)
(-2.3277432 -0.27849538 0 6.8387425e-06 0 0)
(-2.3342425 -0.27899386 0 -6.5748553e-06 0 0)
(-2.3283005 -0.27853665 0 6.3329845e-06 0 0)
(-2.3337055 -0.27895426 0 -6.1169922e-06 0 0)
(-2.3288164 -0.2785747 0 5.9221201e-06 0 0)
(-2.3332065 -0.2789176 0 -5.75164e-06 0 0)
(-2.3292983 -0.27861009 0 5.6018836e-06 0 0)
(-2.3327381 -0.27888336 0 -5.4788122e-06 0 0)
(-2.3297532 -0.27864333 0 5.3666155e-06 0 0)
(-2.3322914 -0.27885096 0 -5.306667e-06 0 0)
(-2.3301839 -0.27867444 0 5.2709726e-06 0 0)
(-2.3318573 -0.27881864 0 -4.9887402e-06 0 0)
(-2.3306379 -0.27870192 0 6.3925465e-06 0 0)
(-2.3316141 -0.27880531 0 -5.9585579e-06 0 0)
(-1.6614614 -0.74797955 0 -0.27955488 0 0)
(-3.0592048 -0.34061611 0 -0.01354415 0 0)
(-2.5005236 -0.31097559 0 -0.0077249865 0 0)
(-2.3781794 -0.28151768 0 -0.0004196741 0 0)
(-2.2014173 -0.27060955 0 -0.00015128414 0 0)
(-2.246118 -0.27422149 0 -0.00011747404 0 0)
(-2.1828504 -0.26950976 0 -5.1180517e-05 0 0)
(-2.2271472 -0.27283993 0 -4.0978614e-05 0 0)
(-2.1819096 -0.26934546 0 1.6082729e-05 0 0)
(-2.2214959 -0.27243604 0 -2.5359964e-05 0 0)
(-2.1839727 -0.26950514 0 2.2481767e-05 0 0)
(-2.2187432 -0.27223793 0 -2.2935383e-05 0 0)
(-2.1859762 -0.26966472 0 2.0884694e-05 0 0)
(-2.2166426 -0.27207694 0 -2.0389111e-05 0 0)
(-2.1877699 -0.2698069 0 1.8794553e-05 0 0)
(-2.2148449 -0.271937 0 -1.799193e-05 0 0)
(-2.1893802 -0.26993434 0 1.6798122e-05 0 0)
(-2.213273 -0.27181441 0 -1.59418e-05 0 0)
(-2.1908196 -0.2700481 0 1.4980991e-05 0 0)
(-2.2118869 -0.27170625 0 -1.4174794e-05 0 0)
(-2.1921031 -0.27014939 0 1.3361643e-05 0 0)
(-2.2106584 -0.27161037 0 -1.263522e-05 0 0)
(-2.1932476 -0.27023958 0 1.1931548e-05 0 0)
(-2.2095656 -0.27152508 0 -1.1287884e-05 0 0)
(-2.1942695 -0.27032001 0 1.0674232e-05 0 0)
(-2.2085908 -0.27144901 0 -1.010821e-05 0 0)
(-2.1951837 -0.27039187 0 9.5724255e-06 0 0)
(-2.2077187 -0.27138097 0 -9.0771256e-06 0 0)
(-2.1960036 -0.27045623 0 8.6102776e-06 0 0)
(-2.2069362 -0.27131996 0 -8.1789376e-06 0 0)
(-2.1967413 -0.27051406 0 7.7738449e-06 0 0)
(-2.2062315 -0.27126506 0 -7.4003914e-06 0 0)
(-2.1974075 -0.27056619 0 7.0510588e-06 0 0)
(-2.2055944 -0.27121546 0 -6.730211e-06 0 0)
(-2.1980117 -0.27061339 0 6.4315881e-06 0 0)
(-2.2050153 -0.27117046 0 -6.1588514e-06 0 0)
(-2.1985628 -0.27065634 0 5.9067261e-06 0 0)
(-2.2044859 -0.27112939 0 -5.6783833e-06 0 0)
(-2.1990688 -0.27069566 0 5.4693627e-06 0 0)
(-2.2039983 -0.27109164 0 -5.2824855e-06 0 0)
(-2.1995369 -0.27073193 0 5.1141563e-06 0 0)
(-2.2035454 -0.27105669 0 -4.9666768e-06 0 0)
(-2.1999741 -0.27076569 0 4.8374629e-06 0 0)
(-2.2031206 -0.27102403 0 -4.7316477e-06 0 0)
(-2.2003865 -0.27079742 0 4.6327708e-06 0 0)
(-2.2027158 -0.27099311 0 -4.587343e-06 0 0)
(-2.2007766 -0.27082713 0 4.5544132e-06 0 0)
(-2.2023203 -0.27096196 0 -4.2524482e-06 0 0)
(-2.2011782 -0.27085228 0 5.7917808e-06 0 0)
(-2.2020619 -0.27094733 0 -5.3987873e-06 0 0)
(-1.6030308 -0.70278114 0 -0.25189498 0 0)
(-2.6899303 -0.32278776 0 -0.014318891 0 0)
(-2.3329583 -0.30386724 0 -0.0084767665 0 0)
(-2.2444241 -0.27411359 0 -0.00058236413 0 0)
(-2.0836879 -0.2633555 0 -0.00023862821 0 0)
(-2.117404 -0.2662795 0 -0.00013845864 0 0)
(-2.0596259 -0.26178382 0 -6.7057911e-05 0 0)
(-2.0993988 -0.26490187 0 -3.9077076e-05 0 0)
(-2.0581244 -0.26158063 0 1.115978e-05 0 0)
(-2.093983 -0.26450618 0 -2.1801956e-05 0 0)
(-2.0598371 -0.26172402 0 1.9175028e-05 0 0)
(-2.0914258 -0.26431833 0 -1.9879551e-05 0 0)
(-2.0616236 -0.26187461 0 1.7980873e-05 0 0)
(-2.0895112 -0.26416599 0 -1.7708415e-05 0 0)
(-2.0632476 -0.26200946 0 1.62287e-05 0 0)
(-2.0878769 -0.26403325 0 -1.5604406e-05 0 0)
(-2.0647089 -0.26213038 0 1.4530773e-05 0 0)
(-2.0864477 -0.26391686 0 -1.3814895e-05 0 0)
(-2.066016 -0.26223836 0 1.2969989e-05 0 0)
(-2.0851869 -0.26381413 0 -1.2280059e-05 0 0)
(-2.067182 -0.26233457 0 1.1572309e-05 0 0)
(-2.0840692 -0.26372302 0 -1.094538e-05 0 0)
(-2.0682221 -0.26242028 0 1.0335225e-05 0 0)
(-2.0830748 -0.26364194 0 -9.7779409e-06 0 0)
(-2.0691511 -0.26249673 0 9.246451e-06 0 0)
(-2.0821877 -0.2635696 0 -8.7557708e-06 0 0)
(-2.0699823 -0.26256507 0 8.2918231e-06 0 0)
(-2.0813941 -0.26350489 0 -7.8622317e-06 0 0)
(-2.0707278 -0.26262629 0 7.457949e-06 0 0)
(-2.0806821 -0.26344684 0 -7.0837515e-06 0 0)
(-2.0713985 -0.26268131 0 6.7328992e-06 0 0)
(-2.0800411 -0.2633946 0 -6.4088869e-06 0 0)
(-2.0720042 -0.26273091 0 6.1062847e-06 0 0)
(-2.0794616 -0.2633474 0 -5.8278953e-06 0 0)
(-2.0725534 -0.26277583 0 5.5691841e-06 0 0)
(-2.078935 -0.26330456 0 -5.3325233e-06 0 0)
(-2.0730543 -0.26281672 0 5.1140685e-06 0 0)
(-2.0784537 -0.26326545 0 -4.9159145e-06 0 0)
(-2.073514 -0.26285417 0 4.7347923e-06 0 0)
(-2.0780106 -0.26322951 0 -4.5726065e-06 0 0)
(-2.0739392 -0.26288872 0 4.4267672e-06 0 0)
(-2.0775992 -0.2631962 0 -4.2987218e-06 0 0)
(-2.0743362 -0.26292089 0 4.1868307e-06 0 0)
(-2.0772134 -0.26316506 0 -4.0953937e-06 0 0)
(-2.0747106 -0.26295115 0 4.0076414e-06 0 0)
(-2.0768463 -0.2631356 0 -3.9741144e-06 0 0)
(-2.0750644 -0.26297951 0 3.9416175e-06 0 0)
(-2.0764859 -0.26310565 0 -3.625424e-06 0 0)
(-2.0754202 -0.26300266 0 5.2501157e-06 0 0)
(-2.0762199 -0.26308994 0 -4.8900917e-06 0 0)
(-1.5690259 -0.67280898 0 -0.23443901 0 0)
(-2.3505559 -0.30804196 0 -0.015788355 0 0)
(-2.179102 -0.29724595 0 -0.0090404573 0 0)
(-2.0974953 -0.26552286 0 -0.00075576006 0 0)
(-1.9560251 -0.25536086 0 -0.00030804998 0 0)
(-1.9895161 -0.25819192 0 -0.00015653947 0 0)
(-1.9382958 -0.25397936 0 -7.9809719e-05 0 0)
(-1.9749658 -0.25694398 0 -3.7094325e-05 0 0)
(-1.9376051 -0.25380265 0 6.9636743e-06 0 0)
(-1.9702385 -0.25657585 0 -1.8564943e-05 0 0)
(-1.9392077 -0.2539387 0 1.6309468e-05 0 0)
(-1.9679361 -0.25640068 0 -1.7149205e-05 0 0)
(-1.9408294 -0.25408186 0 1.5424844e-05 0 0)
(-1.9662019 -0.25625711 0 -1.5328664e-05 0 0)
(-1.9423051 -0.2542099 0 1.3958458e-05 0 0)
(-1.9647179 -0.25613139 0 -1.3488611e-05 0 0)
(-1.9436329 -0.25432461 0 1.2522221e-05 0 0)
(-1.9634182 -0.25602098 0 -1.1930345e-05 0 0)
(-1.9448206 -0.25442706 0 1.1187874e-05 0 0)
(-1.962271 -0.25592346 0 -1.0600922e-05 0 0)
(-1.9458804 -0.25451839 0 9.9862954e-06 0 0)
(-1.9612537 -0.25583694 0 -9.4475371e-06 0 0)
(-1.9468262 -0.25459978 0 8.9200712e-06 0 0)
(-1.9603485 -0.25575991 0 -8.439367e-06 0 0)
(-1.947671 -0.25467242 0 7.9805789e-06 0 0)
(-1.959541 -0.25569117 0 -7.5567198e-06 0 0)
(-1.948427 -0.25473736 0 7.1563746e-06 0 0)
(-1.9588186 -0.25562966 0 -6.785078e-06 0 0)
(-1.9491051 -0.25479555 0 6.4362127e-06 0 0)
(-1.9581705 -0.25557448 0 -6.1127203e-06 0 0)
(-1.9497152 -0.25484784 0 5.8099241e-06 0 0)
(-1.9575871 -0.25552481 0 -5.5297863e-06 0 0)
(-1.950266 -0.25489501 0 5.2685914e-06 0 0)
(-1.9570597 -0.25547993 0 -5.0278781e-06 0 0)
(-1.9507655 -0.25493773 0 4.8045302e-06 0 0)
(-1.9565807 -0.25543918 0 -4.5998758e-06 0 0)
(-1.9512209 -0.25497662 0 4.4112462e-06 0 0)
(-1.956143 -0.25540197 0 -4.2398636e-06 0 0)
(-1.9516388 -0.25501225 0 4.0834368e-06 0 0)
(-1.9557401 -0.25536776 0 -3.943127e-06 0 0)
(-1.9520252 -0.25504513 0 3.8171633e-06 0 0)
(-1.9553662 -0.25533606 0 -3.7062989e-06 0 0)
(-1.9523859 -0.25507576 0 3.6096714e-06 0 0)
(-1.9550157 -0.2553064 0 -3.5308106e-06 0 0)
(-1.952726 -0.2551046 0 3.4529134e-06 0 0)
(-1.9546825 -0.25527834 0 -3.4295137e-06 0 0)
(-1.9530471 -0.25513166 0 3.3964949e-06 0 0)
(-1.9543542 -0.25524962 0 -3.0712816e-06 0 0)
(-1.9533628 -0.25515308 0 4.7403493e-06 0 0)
(-1.9540862 -0.25523304 0 -4.4135893e-06 0 0)
(-1.5558688 -0.64257403 0 -0.2126853 0 0)
(-2.0459239 -0.29266616 0 -0.016544906 0 0)
(-2.0230231 -0.28660795 0 -0.0085568831 0 0)
(-1.9635318 -0.25980038 0 -0.001556473 0 0)
(-1.8401621 -0.24826632 0 -0.00050412 0 0)
(-1.8679643 -0.25028834 0 -0.00019274254 0 0)
(-1.8215812 -0.24623571 0 -9.6228976e-05 0 0)
(-1.8548197 -0.2490097 0 -3.5989164e-05 0 0)
(-1.820805 -0.24602943 0 3.0415528e-06 0 0)
(-1.8504142 -0.24865179 0 -1.566228e-05 0 0)
(-1.8221752 -0.24615199 0 1.3761012e-05 0 0)
(-1.8482872 -0.24848612 0 -1.468414e-05 0 0)
(-1.8236229 -0.24628699 0 1.3137592e-05 0 0)
(-1.8467054 -0.24835049 0 -1.3184946e-05 0 0)
(-1.8249594 -0.24640833 0 1.1919139e-05 0 0)
(-1.8453555 -0.24823143 0 -1.1584958e-05 0 0)
(-1.8261653 -0.24651706 0 1.0715826e-05 0 0)
(-1.8441732 -0.24812675 0 -1.0234924e-05 0 0)
(-1.8272445 -0.24661422 0 9.5844194e-06 0 0)
(-1.8431292 -0.24803424 0 -9.0900075e-06 0 0)
(-1.828208 -0.24670086 0 8.5589302e-06 0 0)
(-1.8422031 -0.24795211 0 -8.0994944e-06 0 0)
(-1.8290681 -0.24677811 0 7.6462666e-06 0 0)
(-1.841379 -0.24787899 0 -7.2345007e-06 0 0)
(-1.8298365 -0.24684707 0 6.8410306e-06 0 0)
(-1.8406438 -0.24781371 0 -6.477353e-06 0 0)
(-1.8305242 -0.24690873 0 6.1341818e-06 0 0)
(-1.8399861 -0.24775529 0 -5.8154037e-06 0 0)
(-1.831141 -0.246964 0 5.5163734e-06 0 0)
(-1.8393962 -0.24770287 0 -5.238569e-06 0 0)
(-1.831696 -0.24701367 0 4.9789976e-06 0 0)
(-1.8388652 -0.24765568 0 -4.7383942e-06 0 0)
(-1.832197 -0.24705848 0 4.5144463e-06 0 0)
(-1.8383854 -0.24761304 0 -4.3076791e-06 0 0)
(-1.8326513 -0.24709907 0 4.1161395e-06 0 0)
(-1.8379496 -0.24757431 0 -3.9403162e-06 0 0)
(-1.8330654 -0.24713603 0 3.7785061e-06 0 0)
(-1.8375514 -0.24753895 0 -3.6312286e-06 0 0)
(-1.8334453 -0.2471699 0 3.4969946e-06 0 0)
(-1.8371851 -0.24750642 0 -3.3763652e-06 0 0)
(-1.8337965 -0.24720118 0 3.2682364e-06 0 0)
(-1.8368451 -0.24747626 0 -3.1728011e-06 0 0)
(-1.8341242 -0.24723032 0 3.0898332e-06 0 0)
(-1.8365267 -0.24744804 0 -3.0221532e-06 0 0)
(-1.8344332 -0.24725778 0 2.9531786e-06 0 0)
(-1.8362242 -0.24742134 0 -2.9384134e-06 0 0)
(-1.8347249 -0.24728356 0 2.9045067e-06 0 0)
(-1.8359253 -0.24739386 0 -2.5748896e-06 0 0)
(-1.835005 -0.24730348 0 4.2535545e-06 0 0)
(-1.8356595 -0.24737658 0 -3.9651115e-06 0 0)
(-1.5731269 -0.59951231 0 -0.18113299 0 0)
(-1.8126139 -0.27937877 0 -0.016586938 0 0)
(-1.872472 -0.27386408 0 -0.0076236022 0 0)
(-1.8270208 -0.25218296 0 -0.0019612837 0 0)
(-1.72157 -0.24042502 0 -0.00059699171 0 0)
(-1.7488155 -0.24223709 0 -0.00020916776 0 0)
(-1.7075776 -0.23842067 0 -0.00010452773 0 0)
(-1.7381989 -0.24105771 0 -3.3228485e-05 0 0)
(-1.7074105 -0.2382443 0 1.0349305e-07 0 0)
(-1.7343545 -0.24072773 0 -1.2848346e-05 0 0)
(-1.708695 -0.23836136 0 1.1554534e-05 0 0)
(-1.7324378 -0.24057358 0 -1.2428386e-05 0 0)
(-1.7100068 -0.23848959 0 1.1093176e-05 0 0)
(-1.7310033 -0.24044592 0 -1.1243486e-05 0 0)
(-1.7112206 -0.2386047 0 1.0082866e-05 0 0)
(-1.7297773 -0.24033331 0 -9.8654697e-06 0 0)
(-1.7123165 -0.23870777 0 9.0860917e-06 0 0)
(-1.7287022 -0.24023414 0 -8.7041891e-06 0 0)
(-1.7132974 -0.23879986 0 8.1368378e-06 0 0)
(-1.7277523 -0.24014642 0 -7.7257175e-06 0 0)
(-1.7141732 -0.23888201 0 7.2699402e-06 0 0)
(-1.7269095 -0.24006853 0 -6.8820781e-06 0 0)
(-1.7149552 -0.23895528 0 6.4957631e-06 0 0)
(-1.7261594 -0.23999915 0 -6.1462642e-06 0 0)
(-1.7156539 -0.2390207 0 5.8116975e-06 0 0)
(-1.7254902 -0.2399372 0 -5.5024073e-06 0 0)
(-1.7162793 -0.23907921 0 5.2108187e-06 0 0)
(-1.7248917 -0.23988176 0 -4.9395168e-06 0 0)
(-1.7168403 -0.23913166 0 4.6854616e-06 0 0)
(-1.7243549 -0.23983201 0 -4.4489636e-06 0 0)
(-1.717345 -0.2391788 0 4.2284083e-06 0 0)
(-1.7238718 -0.23978721 0 -4.0235476e-06 0 0)
(-1.7178005 -0.23922134 0 3.8332217e-06 0 0)
(-1.7234353 -0.23974673 0 -3.6571415e-06 0 0)
(-1.7182136 -0.23925987 0 3.4943121e-06 0 0)
(-1.7230389 -0.23970996 0 -3.3445461e-06 0 0)
(-1.71859 -0.23929497 0 3.2069374e-06 0 0)
(-1.7226768 -0.23967636 0 -3.0814368e-06 0 0)
(-1.7189353 -0.23932715 0 2.967218e-06 0 0)
(-1.7223438 -0.23964546 0 -2.8643547e-06 0 0)
(-1.7192545 -0.23935686 0 2.77229e-06 0 0)
(-1.7220348 -0.2396168 0 -2.6907628e-06 0 0)
(-1.7195522 -0.23938456 0 2.6200687e-06 0 0)
(-1.7217455 -0.23958997 0 -2.5623729e-06 0 0)
(-1.7198329 -0.23941067 0 2.5015463e-06 0 0)
(-1.721471 -0.23956459 0 -2.4940663e-06 0 0)
(-1.7200977 -0.23943524 0 2.4592779e-06 0 0)
(-1.721199 -0.23953835 0 -2.1292947e-06 0 0)
(-1.7203463 -0.23945384 0 3.7878483e-06 0 0)
(-1.7209386 -0.23952053 0 -3.5448284e-06 0 0)
(-1.5838045 -0.5823198 0 -0.16905185 0 0)
(-1.6364547 -0.26417426 0 -0.015544184 0 0)
(-1.7232334 -0.26636381 0 -0.0090491607 0 0)
(-1.698227 -0.24355125 0 -0.0020049405 0 0)
(-1.6101015 -0.23260036 0 -0.00063599227 0 0)
(-1.6348562 -0.23421124 0 -0.00021050555 0 0)
(-1.5977028 -0.23061238 0 -0.00010675552 0 0)
(-1.6256159 -0.23311209 0 -2.8608051e-05 0 0)
(-1.5976651 -0.23045694 0 -1.82705e-06 0 0)
(-1.6221323 -0.23280683 0 -1.0047011e-05 0 0)
(-1.5988164 -0.23056815 0 9.6694017e-06 0 0)
(-1.6203891 -0.23266344 0 -1.0349479e-05 0 0)
(-1.5999989 -0.23068992 0 9.2642985e-06 0 0)
(-1.6190871 -0.23254339 0 -9.4785767e-06 0 0)
(-1.6011005 -0.23079913 0 8.425372e-06 0 0)
(-1.6179739 -0.23243697 0 -8.3074241e-06 0 0)
(-1.6020961 -0.23089679 0 7.611614e-06 0 0)
(-1.6169968 -0.23234308 0 -7.3180181e-06 0 0)
(-1.6029873 -0.23098403 0 6.8261855e-06 0 0)
(-1.616133 -0.23225997 0 -6.4902245e-06 0 0)
(-1.6037831 -0.23106188 0 6.10253e-06 0 0)
(-1.6153664 -0.23218613 0 -5.7794582e-06 0 0)
(-1.6044937 -0.23113133 0 5.453631e-06 0 0)
(-1.6146841 -0.23212036 0 -5.1605594e-06 0 0)
(-1.6051287 -0.23119334 0 4.8792638e-06 0 0)
(-1.6140754 -0.23206162 0 -4.6192845e-06 0 0)
(-1.6056971 -0.23124882 0 4.3743647e-06 0 0)
(-1.613531 -0.23200905 0 -4.1461168e-06 0 0)
(-1.606207 -0.23129855 0 3.9327632e-06 0 0)
(-1.6130428 -0.23196186 0 -3.7337259e-06 0 0)
(-1.6066656 -0.23134326 0 3.5484845e-06 0 0)
(-1.6126035 -0.23191938 0 -3.3760368e-06 0 0)
(-1.6070796 -0.2313836 0 3.2161438e-06 0 0)
(-1.6122067 -0.23188097 0 -3.0678883e-06 0 0)
(-1.6074549 -0.23142015 0 2.9310443e-06 0 0)
(-1.6118464 -0.23184609 0 -2.8049001e-06 0 0)
(-1.6077969 -0.23145345 0 2.6891917e-06 0 0)
(-1.6115173 -0.23181421 0 -2.5834259e-06 0 0)
(-1.6081106 -0.23148399 0 2.4873116e-06 0 0)
(-1.6112147 -0.23178488 0 -2.4005391e-06 0 0)
(-1.6084005 -0.2315122 0 2.3229896e-06 0 0)
(-1.6109341 -0.23175766 0 -2.2540474e-06 0 0)
(-1.6086708 -0.2315385 0 2.1944222e-06 0 0)
(-1.6106713 -0.23173218 0 -2.1456874e-06 0 0)
(-1.6089256 -0.23156331 0 2.0923623e-06 0 0)
(-1.6104223 -0.23170808 0 -2.0909621e-06 0 0)
(-1.6091661 -0.23158669 0 2.0555821e-06 0 0)
(-1.610175 -0.23168306 0 -1.7288204e-06 0 0)
(-1.6093867 -0.23160413 0 3.3419661e-06 0 0)
(-1.6099224 -0.23166486 0 -3.1525309e-06 0 0)
(-1.584888 -0.54845958 0 -0.14727003 0 0)
(-1.4888369 -0.25408202 0 -0.015647253 0 0)
(-1.5796602 -0.2559153 0 -0.0090741128 0 0)
(-1.5808502 -0.23393294 0 -0.0014983217 0 0)
(-1.5066272 -0.2246547 0 -0.00055866542 0 0)
(-1.5262761 -0.22614255 0 -0.00017851505 0 0)
(-1.4921178 -0.22278425 0 -9.7307922e-05 0 0)
(-1.5171726 -0.22516578 0 -2.0441653e-05 0 0)
(-1.4916574 -0.22266585 0 -2.2748081e-06 0 0)
(-1.5137782 -0.22488887 0 -7.0573347e-06 0 0)
(-1.492573 -0.22277258 0 8.135916e-06 0 0)
(-1.5121411 -0.22475568 0 -8.397625e-06 0 0)
(-1.4936141 -0.22288815 0 7.6347604e-06 0 0)
(-1.5109493 -0.22464282 0 -7.8626514e-06 0 0)
(-1.4946087 -0.22299171 0 6.9263354e-06 0 0)
(-1.5099374 -0.22454233 0 -6.8891293e-06 0 0)
(-1.4955119 -0.2230842 0 6.2732907e-06 0 0)
(-1.50905 -0.2244535 0 -6.0578048e-06 0 0)
(-1.4963209 -0.22316681 0 5.6352872e-06 0 0)
(-1.5082651 -0.22437482 0 -5.3671982e-06 0 0)
(-1.4970435 -0.22324052 0 5.0414001e-06 0 0)
(-1.5075684 -0.22430489 0 -4.7771724e-06 0 0)
(-1.4976887 -0.22330629 0 4.5062462e-06 0 0)
(-1.5069483 -0.22424258 0 -4.2645118e-06 0 0)
(-1.4982653 -0.22336504 0 4.0315672e-06 0 0)
(-1.5063951 -0.22418693 0 -3.8164763e-06 0 0)
(-1.4987815 -0.22341759 0 3.6139252e-06 0 0)
(-1.5059005 -0.22413712 0 -3.4248766e-06 0 0)
(-1.4992445 -0.2234647 0 3.2484815e-06 0 0)
(-1.5054569 -0.22409241 0 -3.0835505e-06 0 0)
(-1.4996609 -0.22350706 0 2.930379e-06 0 0)
(-1.5050578 -0.22405215 0 -2.7874389e-06 0 0)
(-1.5000368 -0.22354529 0 2.6551844e-06 0 0)
(-1.5046973 -0.22401576 0 -2.5322556e-06 0 0)
(-1.5003775 -0.22357993 0 2.4190101e-06 0 0)
(-1.5043701 -0.22398269 0 -2.314363e-06 0 0)
(-1.500688 -0.2236115 0 2.2185406e-06 0 0)
(-1.5040713 -0.22395246 0 -2.1307297e-06 0 0)
(-1.5009727 -0.22364045 0 2.0510495e-06 0 0)
(-1.5037966 -0.22392465 0 -1.9789103e-06 0 0)
(-1.5012357 -0.2236672 0 1.9145262e-06 0 0)
(-1.5035419 -0.22389883 0 -1.857024e-06 0 0)
(-1.5014809 -0.22369215 0 1.8074223e-06 0 0)
(-1.5033036 -0.22387465 0 -1.766779e-06 0 0)
(-1.5017121 -0.22371571 0 1.7204139e-06 0 0)
(-1.5030779 -0.22385178 0 -1.7240218e-06 0 0)
(-1.5019303 -0.22373794 0 1.6885372e-06 0 0)
(-1.5028533 -0.22382799 0 -1.3681911e-06 0 0)
(-1.5021258 -0.22375434 0 2.9145381e-06 0 0)
(-1.5026102 -0.22380954 0 -2.7873724e-06 0 0)
(-1.5813821 -0.52911634 0 -0.13623298 0 0)
(-1.3666755 -0.24183683 0 -0.014833645 0 0)
(-1.4510144 -0.24546683 0 -0.0090091015 0 0)
(-1.4725176 -0.22499489 0 -0.0011508671 0 0)
(-1.4066151 -0.21678282 0 -0.00049334943 0 0)
(-1.4220967 -0.21813296 0 -0.00014498516 0 0)
(-1.3903098 -0.21496548 0 -8.591827e-05 0 0)
(-1.4126739 -0.2172305 0 -1.1582114e-05 0 0)
(-1.3893226 -0.21487503 0 -2.1028301e-06 0 0)
(-1.4092579 -0.21697543 0 -4.1017906e-06 0 0)
(-1.3899682 -0.21497553 0 6.8533675e-06 0 0)
(-1.4076852 -0.21685062 0 -6.5732072e-06 0 0)
(-1.3908624 -0.21508458 0 6.1759071e-06 0 0)
(-1.4065841 -0.21674425 0 -6.378093e-06 0 0)
(-1.3917536 -0.21518257 0 5.5664107e-06 0 0)
(-1.405662 -0.21664935 0 -5.5932916e-06 0 0)
(-1.3925707 -0.21527009 0 5.0546274e-06 0 0)
(-1.404856 -0.21656536 0 -4.9081222e-06 0 0)
(-1.393304 -0.21534824 0 4.5496064e-06 0 0)
(-1.4041435 -0.21649092 0 -4.3429753e-06 0 0)
(-1.3939593 -0.21541799 0 4.0736671e-06 0 0)
(-1.403511 -0.21642474 0 -3.8630858e-06 0 0)
(-1.3945445 -0.21548023 0 3.6421506e-06 0 0)
(-1.4029481 -0.21636577 0 -3.4473048e-06 0 0)
(-1.3950675 -0.21553582 0 3.2583799e-06 0 0)
(-1.402446 -0.2163131 0 -3.0843067e-06 0 0)
(-1.3955356 -0.21558555 0 2.9203362e-06 0 0)
(-1.401997 -0.21626595 0 -2.7671084e-06 0 0)
(-1.3959555 -0.21563014 0 2.6243733e-06 0 0)
(-1.4015944 -0.21622363 0 -2.4906059e-06 0 0)
(-1.3963332 -0.21567024 0 2.3666455e-06 0 0)
(-1.4012323 -0.21618551 0 -2.250663e-06 0 0)
(-1.3966741 -0.21570642 0 2.1435843e-06 0 0)
(-1.4009053 -0.21615105 0 -2.0437894e-06 0 0)
(-1.396983 -0.21573923 0 1.9520396e-06 0 0)
(-1.4006085 -0.21611974 0 -1.8670246e-06 0 0)
(-1.3972645 -0.21576912 0 1.7893144e-06 0 0)
(-1.4003375 -0.21609111 0 -1.717897e-06 0 0)
(-1.3975226 -0.21579654 0 1.6531817e-06 0 0)
(-1.4000884 -0.21606476 0 -1.5943995e-06 0 0)
(-1.397761 -0.21582189 0 1.541996e-06 0 0)
(-1.3998575 -0.21604029 0 -1.4949354e-06 0 0)
(-1.3979832 -0.21584554 0 1.4544425e-06 0 0)
(-1.3996415 -0.21601737 0 -1.4211448e-06 0 0)