/*--------------------------------*- C++ -*----------------------------------*\
| =========                 |                                                 |
| \\      /  F ield         | OpenFOAM: The Open Source CFD Toolbox           |
|  \\    /   O peration     | Version:  2312                                  |
|   \\  /    A nd           | Website:  www.openfoam.com                      |
|    \\/     M anipulation  |                                                 |
\*---------------------------------------------------------------------------*/
FoamFile
{
    version     2.0;
    format      ascii;
    arch        "LSB;label=32;scalar=64";
    class       volScalarField;
    location    "7";
    object      T;
}
// * * * * * * * * * * * * * * * * * * * * * * * * * * * * * * * * * * * * * //

dimensions      [0 0 0 1 0 0 0];

internalField   nonuniform List<scalar> 
4000
(
329.77592
328.57766
328.38971
328.31101
328.25497
328.20244
328.16174
328.11861
328.08415
328.04549
328.01392
327.97793
327.94802
327.91382
327.88496
327.85202
327.82388
327.7919
327.76427
327.73301
327.70577
327.67508
327.64814
327.6179
327.5912
327.56133
327.53483
327.50527
327.47894
327.44962
327.42345
327.39432
327.36829
327.33933
327.31342
327.28459
327.25881
327.23008
327.20442
327.17576
327.15023
327.12161
327.09622
327.0676
327.04237
327.01371
326.98869
326.95989
326.93526
326.90569
331.85085
329.79089
329.28602
329.10208
328.98628
328.88101
328.81109
328.73395
328.68272
328.619
328.57645
328.52072
328.48314
328.43276
328.39834
328.35176
328.3195
328.27576
328.24505
328.20347
328.17392
328.13406
328.1054
328.0669
328.03898
328.00158
327.97426
327.93776
327.91096
327.87519
327.84885
327.81368
327.78775
327.75307
327.72753
327.69323
327.66807
327.63407
327.60928
327.57548
327.55108
327.51741
327.49342
327.45976
327.43625
327.40247
327.37959
327.34538
327.32369
327.28725
333.17181
330.96661
330.1756
329.88919
329.71472
329.55746
329.45847
329.34774
329.27974
329.19122
329.13765
329.06238
329.01707
328.95066
328.91063
328.85053
328.8141
328.7587
328.72486
328.67306
328.64115
328.59218
328.56178
328.51508
328.48589
328.44102
328.41284
328.36946
328.34215
328.29998
328.27344
328.23227
328.20642
328.16605
328.14086
328.10113
328.07656
328.03731
328.01337
327.97447
327.95117
327.91248
327.88987
327.8512
327.82939
327.79052
327.76975
327.73016
327.71135
327.66835
334.06793
332.06947
331.04749
330.66643
330.43612
330.22876
330.10134
329.95793
329.87332
329.76058
329.69601
329.60161
329.54854
329.46643
329.42072
329.34736
329.30669
329.23984
329.2028
329.14094
329.10662
329.0487
329.01649
328.96171
328.93121
328.87896
328.84988
328.79971
328.77185
328.72336
328.69658
328.64947
328.62367
328.57768
328.55279
328.50769
328.48368
328.43925
328.41612
328.37217
328.34995
328.30627
328.28501
328.24138
328.22124
328.17732
328.15863
328.11373
328.09771
328.04855
334.70396
333.06935
331.88745
331.42562
331.14479
330.89073
330.73624
330.56174
330.46097
330.32499
330.24958
330.13673
330.07594
329.97862
329.92723
329.841
329.79605
329.71807
329.67777
329.60613
329.56933
329.50267
329.4686
329.40593
329.37406
329.31461
329.28457
329.22774
329.19928
329.1446
329.11753
329.06461
329.0388
328.98729
328.96267
328.91228
328.88879
328.83926
328.8169
328.76798
328.74678
328.69821
328.67825
328.62974
328.61121
328.56232
328.54565
328.49555
328.48215
328.42735
335.16916
333.94402
332.68017
332.15705
331.83379
331.53817
331.35894
331.15571
331.03967
330.88186
330.796
330.66566
330.59734
330.48553
330.42852
330.32996
330.28075
330.19208
330.14851
330.06744
330.02813
329.95304
329.91706
329.84675
329.81347
329.74703
329.71599
329.65271
329.6236
329.5629
329.53549
329.47689
329.45104
329.39414
329.36974
329.31419
329.29118
329.23666
329.21503
329.16124
329.14102
329.08766
329.06895
329.01565
328.99867
328.94495
328.93018
328.87506
328.86406
328.80414
335.51761
334.68274
333.41142
332.85034
332.49545
332.16519
331.96464
331.73588
331.60595
331.4282
331.33257
331.18604
331.11052
330.98516
330.92271
330.81256
330.75917
330.66038
330.61358
330.52354
330.48174
330.3986
330.3607
330.28309
330.24836
330.17522
330.14315
330.07366
330.04386
329.97735
329.94957
329.8855
329.85955
329.79744
329.77322
329.71267
329.69008
329.63073
329.60977
329.55126
329.53196
329.47395
329.45642
329.39849
329.38296
329.32456
329.31159
329.25166
329.2428
329.17831
335.78281
335.2835
334.06981
333.49549
333.12189
332.76554
332.54817
332.29791
332.15601
331.96074
331.85632
331.69521
331.61306
331.47533
331.40777
331.28691
331.22954
331.12133
331.07142
330.97299
330.92875
330.83804
330.79825
330.71373
330.67758
330.59808
330.56497
330.48956
330.45907
330.38701
330.35884
330.28952
330.26346
330.19635
330.17226
330.1069
330.0847
330.02069
330.00036
329.93731
329.91887
329.85637
329.83995
329.77757
329.7634
329.70053
329.68919
329.62474
329.6177
329.54917
335.98814
335.75409
334.64793
334.08393
333.70573
333.33303
333.10427
332.83729
332.68593
332.47599
332.36415
332.19039
332.1024
331.95369
331.88151
331.75101
331.68997
331.57319
331.52036
331.41422
331.36767
331.26995
331.22836
331.13742
331.09988
331.01443
330.9803
330.89934
330.86815
330.79087
330.76229
330.68801
330.66181
330.58996
330.56598
330.49606
330.4742
330.40576
330.38599
330.31861
330.30097
330.23421
330.2188
330.15219
330.13928
330.07217
330.06231
329.99366
329.98813
329.91603
336.14964
336.10806
335.14283
334.60934
334.24067
333.86197
333.62795
333.34962
333.19177
332.97047
332.85286
332.6687
332.57588
332.41783
332.34169
332.20277
332.1385
332.01412
331.95866
331.8456
331.79694
331.69287
331.64962
331.55279
331.51397
331.42304
331.38796
331.30186
331.27001
331.18787
331.1589
331.07999
331.05364
330.97735
330.95346
330.87925
330.8577
330.78509
330.76585
330.69438
330.67747
330.60669
330.59222
330.52163
330.50985
330.4388
330.43022
330.35774
330.35341
330.27819
336.27907
336.36355
335.55586
335.06833
334.72203
334.34758
334.11474
333.83081
333.66984
333.44077
333.31939
333.1273
333.0309
332.86531
332.78602
332.64009
332.57314
332.44225
332.38457
332.26547
332.21499
332.1053
332.06058
331.9585
331.91854
331.82267
331.78674
331.69595
331.66352
331.57692
331.54761
331.46443
331.43797
331.35757
331.33377
331.25558
331.23433
331.15784
331.13908
331.06382
331.04758
330.97306
330.95944
330.88516
330.87439
330.79971
330.79223
330.71631
330.71288
330.63494
336.38499
336.54031
335.89204
335.46056
335.14706
334.78634
334.56105
334.27733
334.11683
333.8838
333.76084
333.56348
333.46495
333.29378
333.21233
333.06088
332.99195
332.85574
332.79633
332.67217
332.62023
332.50572
332.45982
332.35316
332.31226
332.21203
332.1754
332.08045
332.04754
331.95694
331.92736
331.84032
331.81379
331.72965
331.70597
331.62414
331.60318
331.52314
331.50484
331.4261
331.41047
331.33254
331.31968
331.24203
331.23214
331.15419
331.14762
331.06866
331.06588
330.98559
336.47354
336.65784
336.15932
335.78853
335.51514
335.17623
334.96434
334.68643
334.53002
334.29689
334.17468
333.97482
333.87573
333.70105
333.61854
333.46318
333.39306
333.25282
333.19226
333.06408
333.01111
332.89267
332.8459
332.73542
332.69383
332.58988
332.55274
332.45418
332.42094
332.32684
332.29709
332.20665
332.1801
332.09265
332.06911
331.98403
331.96337
331.88014
331.86228
331.78041
331.76535
331.68434
331.67216
331.59151
331.58236
331.50153
331.49568
331.41409
331.41177
331.32945
336.54928
336.73372
336.3673
336.05706
335.82775
335.51685
335.32331
335.05627
334.90743
334.67792
334.55883
334.35925
334.26124
334.08518
334.0028
333.84519
333.77476
333.63183
333.57078
333.43968
333.3862
333.26475
333.2175
333.10397
333.06199
332.95501
332.91758
332.81603
332.78262
332.68555
332.65576
332.5624
332.53594
332.44561
332.42227
332.33437
332.31402
332.228
332.21057
332.12595
332.11142
332.02771
332.01613
331.93286
331.92434
331.84102
331.83573
331.75193
331.74988
331.66584
336.6153
336.78242
336.52627
336.27265
336.08823
335.80937
335.63796
335.38609
335.24789
335.02545
334.91176
334.71513
334.61988
334.44453
334.36352
334.20535
334.13554
333.99129
333.93047
333.79759
333.74414
333.62063
333.57335
333.4576
333.41557
333.30627
333.26883
333.1649
333.13154
333.03208
333.0024
332.90664
332.88037
332.78763
332.76457
332.67428
332.65429
332.5659
332.5489
332.46194
332.4479
332.3619
332.35085
332.26536
332.25737
332.17196
332.1671
332.08148
332.07959
331.99412
336.67387
336.81507
336.64625
336.44274
336.30141
336.05639
335.90953
335.67614
335.55114
335.33879
335.23256
335.04137
334.95048
334.77786
334.69946
334.54237
334.47414
334.32993
334.27009
334.13658
334.08376
333.95918
333.91231
333.79519
333.75349
333.64262
333.60545
333.49982
333.46672
333.36546
333.33608
333.23844
333.21251
333.11786
333.09517
333.00295
332.98337
332.89306
332.87651
332.78763
332.77407
332.68618
332.67562
332.58832
332.58077
332.4937
332.48914
332.4021
332.40029
332.31368
336.72645
336.8394
336.73637
336.5751
336.47303
336.26166
336.14038
335.92769
335.81777
335.61798
335.52098
335.33743
335.25236
335.08435
335.00973
334.85529
334.7896
334.64675
334.58865
334.45564
334.40406
334.27937
334.23343
334.11579
334.0748
333.96311
333.92654
333.81987
333.7873
333.68484
333.65595
333.557
333.53154
333.43551
333.41329
333.31963
333.30053
333.20874
333.19267
333.10232
333.08923
332.9999
332.98977
332.90109
332.89391
332.80559
332.80125
332.71318
332.71138
332.62392
336.77412
336.86039
336.80446
336.67726
336.60929
336.42973
336.33374
336.14288
336.04921
335.86381
335.77742
335.60335
335.52538
335.36361
335.29386
335.14352
335.08126
334.94103
334.88542
334.754
334.70425
334.58043
334.5359
334.41858
334.37872
334.26695
334.23131
334.12427
334.0925
333.98945
333.96126
333.86158
333.83675
333.73986
333.71823
333.62362
333.60508
333.51229
333.49674
333.40536
333.39275
333.30241
333.2927
333.20307
333.19619
333.10704
333.10286
333.01412
333.01232
332.92431
336.81755
336.88074
336.8569
336.75601
336.71635
336.56558
336.49351
336.32456
336.24756
336.07773
336.00289
335.83973
335.76986
335.61574
335.5518
335.40684
335.34882
335.21237
335.15993
335.03112
334.98381
334.86174
334.81912
334.70293
334.66461
334.5535
334.51913
334.41239
334.38168
334.27866
334.2514
334.15153
334.12751
334.03028
334.00938
333.91431
333.89641
333.8031
333.78812
333.69618
333.68406
333.59316
333.58384
333.4937
333.4871
333.39752
333.39346
333.30442
333.3026
333.21433
336.85728
336.90163
336.89854
336.81718
336.8
336.6743
336.62391
336.47609
336.4155
336.26175
336.19895
336.04767
335.98663
335.84128
335.78389
335.6454
335.59233
335.46067
335.41202
335.28676
335.24242
335.12297
335.08272
334.96843
334.93203
334.82229
334.78951
334.68372
334.65435
334.55196
334.52583
334.42634
334.40331
334.30626
334.28621
334.19119
334.17404
334.08067
334.06632
333.97428
333.96268
333.87165
333.86273
333.77249
333.76615
333.67654
333.67259
333.58359
333.58176
333.49354
336.89369
336.92328
336.93294
336.86554
336.8654
336.76075
336.72927
336.60111
336.55606
336.41831
336.36758
336.22875
336.17696
336.04115
335.99087
335.85972
335.81216
335.68615
335.64183
335.52094
335.48005
335.36398
335.32652
335.21485
335.18074
335.07303
335.04215
334.93792
334.91016
334.80896
334.78419
334.68562
334.66375
334.56739
334.54834
334.45385
334.43753
334.34457
334.33092
334.23922
334.22818
334.13746
334.12895
334.03902
334.03293
333.94368
333.93984
333.85123
333.84941
333.76155
336.92708
336.9454
336.96251
336.90475
336.91692
336.8294
336.81379
336.70332
336.6725
336.55015
336.51114
336.38487
336.34244
336.21667
336.17381
336.05063
336.00899
335.88933
335.84977
335.73393
335.6969
335.58488
335.55058
335.44218
335.41069
335.30561
335.27692
335.17482
335.1489
335.04945
335.02625
334.9291
334.90856
334.81339
334.79545
334.70196
334.68658
334.59449
334.58161
334.49067
334.48023
334.39023
334.38217
334.29295
334.28714
334.19859
334.19488
334.10699
334.10521
334.01801
336.95774
336.96754
336.98881
336.93754
336.95811
336.88413
336.88134
336.78635
336.76812
336.66015
336.63215
336.51821
336.48497
336.3694
336.33409
336.21929
336.18381
336.071
336.0365
335.92628
335.89342
335.78602
335.75518
335.6506
335.62201
335.5201
335.49385
335.39442
335.37056
335.27335
335.2519
335.15666
335.1376
335.04408
335.02739
334.93534
334.921
334.8302
334.81816
334.7284
334.71862
334.62974
334.62214
334.534
334.52849
334.44102
334.43746
334.35061
334.34888
334.26266
336.98591
336.98924
337.01276
336.96582
336.99176
336.92819
336.93536
336.85355
336.84609
336.75123
336.73327
336.63109
336.60662
336.50117
336.4733
336.36705
336.33782
336.2322
336.20293
336.09874
336.07026
335.96794
335.9408
335.84051
335.81503
335.71678
335.69317
335.59686
335.57525
335.48075
335.4612
335.36832
335.35087
335.25943
335.2441
335.15391
335.14069
335.05158
335.04045
334.95227
334.94319
334.8558
334.84872
334.76201
334.75684
334.67076
334.66738
334.58189
334.58023
334.49529
337.0118
337.01014
337.03489
336.99088
337.01992
336.96421
336.97879
336.90793
336.90938
336.82617
336.81711
336.7259
336.70957
336.61391
336.5932
336.49547
336.47242
336.37414
336.35015
336.25226
336.22829
336.13139
336.10808
336.01246
335.99026
335.89605
335.87525
335.78247
335.76325
335.67184
335.65433
335.5642
335.54849
335.45952
335.44564
335.3577
335.34568
335.25864
335.24848
335.16223
335.15391
335.06835
335.06182
334.97689
334.97208
334.88771
334.88454
334.8007
334.79913
334.71576
337.03562
337.03
337.05546
337.01354
337.04409
336.99422
337.01404
336.9521
336.96068
336.8876
336.88619
336.80499
336.79604
336.70964
336.69565
336.60623
336.58914
336.4982
336.47942
336.38797
336.36852
336.27725
336.25786
336.16718
336.14835
336.0585
336.0406
335.95168
335.93496
335.847
335.83163
335.7446
335.73071
335.64455
335.63221
335.54685
335.5361
335.45146
335.44234
335.35834
335.35083
335.26742
335.26148
335.17861
335.17421
335.09183
335.08892
335.00699
335.00554
334.92402
337.05756
337.0487
337.07458
337.03429
337.06528
337.01974
337.04304
336.98825
337.00231
336.93788
336.94286
336.87062
336.86816
336.79037
336.78253
336.70106
336.68959
336.60584
336.59209
336.5071
336.49209
336.40657
336.39107
336.30552
336.2901
336.20483
336.1899
336.10509
336.09094
336.00669
335.99354
335.90989
335.89789
335.81483
335.80409
335.72161
335.71219
335.63024
335.6222
335.54075
335.53408
335.4531
335.4478
335.36726
335.36331
335.28318
335.28054
335.20079
335.19947
335.12006
337.07776
337.06618
337.09232
337.05342
337.08416
337.04187
337.06728
337.01814
337.03624
336.97906
336.98921
336.92485
336.92797
336.85803
336.85571
336.7817
336.77543
336.69861
336.68962
336.61096
336.60023
336.52047
336.50879
336.42846
336.41641
336.33587
336.32389
336.24339
336.23182
336.15151
336.1406
336.06057
336.05049
335.97079
335.96168
335.88233
335.87428
335.79528
335.78834
335.70969
335.70391
335.6256
335.62097
335.54301
335.53952
335.46189
335.45955
335.3822
335.38103
335.30395
337.09638
337.08247
337.10871
337.07109
337.10119
337.06138
337.08787
337.04318
337.06409
337.01292
337.0271
336.96958
336.97736
336.91447
336.91696
336.84987
336.84828
336.77804
336.77345
336.70093
336.69425
336.62016
336.61214
336.53703
336.52826
336.45252
336.44345
336.36737
336.35837
336.28214
336.27346
336.19723
336.18908
336.11293
336.10547
336.02945
336.02278
335.94694
335.94114
335.8655
335.86061
335.7852
335.78125
335.70607
335.70308
335.62814
335.62612
335.55139
335.55037
335.47585
337.11353
337.0976
337.12379
337.08739
337.11661
337.07878
337.10562
337.06443
337.08716
337.04092
337.05813
337.00645
337.018
336.96137
336.96795
336.90717
336.90973
336.84563
336.84504
336.77837
336.77545
336.70687
336.7023
336.63234
336.6267
336.55577
336.54951
336.4779
336.47139
336.39935
336.39286
336.32054
336.31431
336.24184
336.23601
336.16349
336.1582
336.08568
336.08102
336.00856
336.00459
335.93223
335.92899
335.85677
335.85429
335.78221
335.78053
335.70859
335.70774
335.63594
337.12931
337.1116
337.13757
337.10237
337.13059
337.09442
337.1211
337.0827
337.10646
337.06425
337.08361
337.03688
337.05139
337.00023
337.01022
336.95513
336.96125
336.90283
336.90579
336.84465
336.84513
336.78184
336.78046
336.71552
336.71282
336.64662
336.64303
336.57589
336.57177
336.50394
336.49957
336.43124
336.42686
336.35817
336.35395
336.28502
336.2811
336.21202
336.20849
336.13934
336.13628
336.06712
336.06459
335.99546
335.99351
335.92443
335.92309
335.85409
335.85341
335.7845
337.14379
337.12452
337.1501
337.11607
337.14323
337.10851
337.13471
337.09857
337.12276
337.08385
337.10464
337.06208
337.07881
337.03241
337.04514
336.99511
337.00424
336.951
336.95704
336.90105
336.90456
336.84629
336.84781
336.78769
336.7877
336.72612
336.72502
336.66228
336.66042
336.59678
336.59443
336.5301
336.5275
336.46263
336.45996
336.3947
336.39209
336.32654
336.32411
336.25837
336.25621
336.19034
336.18851
336.12258
336.12114
336.05519
336.05419
335.98824
335.98773
335.92182
337.15703
337.13637
337.16138
337.12849
337.1546
337.1212
337.14671
337.11246
337.13664
337.10045
337.12208
337.08302
337.10134
337.05904
337.0739
337.02836
337.03995
336.99139
337.00005
336.9488
336.95496
336.90139
336.90548
336.84996
336.85242
336.79529
336.79647
336.73803
336.73826
336.67875
336.67829
336.61793
336.61701
336.55596
336.55476
336.49318
336.49184
336.42985
336.42849
336.3662
336.36491
336.30239
336.30125
336.23859
336.23766
336.17491
336.17425
336.11144
336.1111
336.04828
337.16906
337.14715
337.17146
337.13966
337.16471
337.13256
337.15727
337.12467
337.14854
337.11462
337.13662
337.10052
337.11988
337.08111
337.09755
337.05595
337.06949
337.02513
337.03596
336.98904
336.99746
336.94825
336.95459
336.9034
336.90803
336.85515
336.85839
336.80408
336.80622
336.75073
336.75201
336.69555
336.69619
336.63892
336.6391
336.58119
336.58104
336.52262
336.52227
336.46344
336.46298
336.40385
336.40337
336.34401
336.34358
336.28406
336.28373
336.22412
336.22394
336.16428
337.17984
337.15684
337.18032
337.14959
337.17362
337.14267
337.16653
337.13539
337.15875
337.12677
337.1488
337.1152
337.13518
337.09943
337.11698
337.07883
337.09385
337.05323
337.0658
337.02281
337.03309
336.9879
336.99616
336.94901
336.95553
336.90666
336.91172
336.86137
336.86521
336.81361
336.81646
336.76379
336.76585
336.71229
336.71373
336.65943
336.66039
336.6055
336.60609
336.55071
336.55104
336.49528
336.49543
336.43938
336.43941
336.38316
336.38314
336.32674
336.32671
336.27024
337.18932
337.16538
337.18796
337.1583
337.18134
337.15158
337.17458
337.14479
337.16752
337.13723
337.15903
337.12758
337.14781
337.11467
337.13292
337.09778
337.11387
337.07658
337.09047
337.05102
337.06281
337.0213
337.03114
336.98774
336.99586
336.95076
336.95738
336.91078
336.91612
336.86822
336.87246
336.82345
336.82679
336.77682
336.77941
336.72864
336.73061
336.67918
336.68063
336.62866
336.6297
336.57729
336.57801
336.52526
336.52573
336.47272
336.47299
336.4198
336.41992
336.36663
337.19736
337.17273
337.1944
337.1658
337.18791
337.15933
337.18149
337.15298
337.175
337.14623
337.16762
337.13804
337.15825
337.12738
337.14599
337.11348
337.13028
337.09592
337.11079
337.07452
337.08746
337.04929
337.06041
337.02045
337.02989
336.9883
336.99623
336.95316
336.95977
336.91539
336.92084
336.87532
336.87978
336.83327
336.83687
336.78952
336.79239
336.74433
336.74657
336.69792
336.69962
336.65049
336.65174
336.60223
336.60309
336.55329
336.55383
336.50381
336.50407
336.45393
337.20381
337.17883
337.19964
337.17213
337.19338
337.16598
337.18732
337.16005
337.18133
337.15395
337.17481
337.1469
337.16687
337.13798
337.15669
337.12648
337.14368
337.11192
337.12745
337.09401
337.1078
337.07265
337.08474
337.04793
337.05842
337.02006
337.02907
336.98929
336.99696
336.95589
336.96236
336.92016
336.92557
336.88237
336.88685
336.84278
336.84643
336.80163
336.80455
336.75913
336.76141
336.71548
336.7172
336.67085
336.67207
336.62541
336.62619
336.5793
336.57967
336.53264
337.20853
337.18365
337.20371
337.17733
337.1978
337.17158
337.19215
337.16608
337.18663
337.16055
337.1808
337.15438
337.17397
337.14683
337.16543
337.13725
337.15459
337.12512
337.14102
337.11011
337.12446
337.09203
337.10482
337.07088
337.08216
337.04677
337.05662
337.01989
337.02841
336.99044
336.99774
336.95866
336.96487
336.9248
336.93001
336.88908
336.8934
336.85172
336.85523
336.81291
336.8157
336.77285
336.77499
336.73171
336.73325
336.68963
336.69063
336.64677
336.64726
336.60325
337.21151
337.18724
337.20667
337.18148
337.20123
337.1762
337.19604
337.17116
337.19097
337.16613
337.18573
337.16068
337.17978
337.15421
337.17252
337.14614
337.16341
337.13597
337.15201
337.12335
337.13801
337.10802
337.12127
337.08992
337.10175
337.06908
337.07955
337.04562
337.05479
337.01969
337.02765
336.99149
336.99833
336.96121
336.96703
336.92906
336.93393
336.89522
336.89923
336.85988
336.86309
336.82321
336.82569
336.78537
336.78717
336.74651
336.74768
336.70677
336.70734
336.66627
337.2129
337.18968
337.20862
337.18466
337.20376
337.17992
337.19907
337.17535
337.19446
337.1708
337.18973
337.16596
337.18449
337.16033
337.17823
337.15345
337.17048
337.14485
337.16082
337.13416
337.14892
337.12111
337.13459
337.10558
337.11775
337.08755
337.09843
337.06707
337.0767
337.04425
337.0527
337.01924
337.02658
336.99221
336.9985
336.96331
336.96863
336.93272
336.93713
336.9006
336.90415
336.86709
336.86986
336.83237
336.83439
336.79656
336.79788
336.75979
336.76044
336.72219
337.21298
337.19114
337.20969
337.18698
337.20549
337.18282
337.20132
337.17875
337.19716
337.17465
337.1929
337.17032
337.18823
337.16537
337.18276
337.15941
337.17607
337.15205
337.16779
337.14291
337.15759
337.13172
337.14524
337.11833
337.13065
337.10267
337.11378
337.08476
337.09469
337.06467
337.07344
337.04249
337.05016
337.01835
337.02499
336.9924
336.99805
336.96478
336.96949
336.93561
336.93944
336.90506
336.90805
336.87324
336.87544
336.84029
336.84174
336.80634
336.80706
336.7715
337.21217
337.19183
337.21002
337.18855
337.20652
337.185
337.20288
337.18142
337.19917
337.17776
337.19533
337.17387
337.19113
337.16946
337.18627
337.16422
337.1804
337.15781
337.17319
337.14989
337.16433
337.14019
337.15359
337.12855
337.14085
337.11488
337.12606
337.09916
337.10921
337.08141
337.09036
337.06171
337.06959
337.04015
337.047
337.01684
337.02271
336.9919
336.99682
336.96545
336.96947
336.9376
336.94076
336.90848
336.91081
336.87822
336.87975
336.84691
336.84767
336.81468
337.21085
337.19196
337.20978
337.1895
337.20695
337.18655
337.20383
337.18345
337.20055
337.1802
337.19709
337.17669
337.19329
337.17272
337.18889
337.16802
337.18363
337.16232
337.17723
337.15533
337.1694
337.14681
337.15994
337.13658
337.14871
337.12455
337.13564
337.11066
337.12069
337.09491
337.1039
337.07736
337.08532
337.05806
337.06502
337.0371
337.04309
337.01457
337.01962
336.99056
336.99471
336.9652
336.96846
336.93857
336.94099
336.91079
336.91239
336.88196
336.88275
336.85217
337.20929
337.1917
337.2091
337.18996
337.20688
337.18756
337.20425
337.18491
337.20138
337.18204
337.19826
337.17886
337.19477
337.17521
337.19071
337.17091
337.18589
337.16572
337.18007
337.15943
337.17302
337.1518
337.16455
337.14268
337.15452
337.13196
337.14284
337.11959
337.12949
337.10553
337.11444
337.08981
337.09775
337.07248
337.07945
337.05358
337.05961
337.0332
337.0383
337.01141
337.01561
336.98829
336.99162
336.96395
336.96641
336.93846
336.94009
336.91192
336.91273
336.88442
337.20769
337.1912
337.20812
337.19002
337.20642
337.18812
337.20423
337.18588
337.20173
337.18334
337.1989
337.18042
337.19564
337.17702
337.19181
337.17297
337.18727
337.16813
337.18185
337.16232
337.17535
337.15534
337.16761
337.14707
337.1585
337.13739
337.14795
337.12624
337.13589
337.11358
337.12231
337.09942
337.10723
337.08377
337.09066
337.06668
337.07266
337.0482
337.05328
337.02838
337.03257
337.00729
337.01062
336.98502
336.9875
336.96163
336.96327
336.93722
336.93803
336.91184
337.2061
337.19056
337.20692
337.18978
337.20564
337.1883
337.20384
337.18642
337.20165
337.18415
337.19904
337.18143
337.19593
337.17817
337.19223
337.17426
337.18784
337.16961
337.18264
337.16409
337.1765
337.15756
337.16927
337.1499
337.16085
337.14101
337.15117
337.13084
337.14016
337.11932
337.12779
337.10646
337.11406
337.09225
337.09898
337.07672
337.08259
337.0599
337.0649
337.04183
337.04597
337.02257
337.02586
337.00217
337.00463
336.9807
336.98233
336.95823
336.95904
336.93481
337.20454
337.18983
337.20558
337.18931
337.20462
337.18817
337.20313
337.18658
337.20119
337.18452
337.19873
337.18192
337.19569
337.17869
337.192
337.17481
337.18763
337.17021
337.18251
337.16483
337.17655
337.15857
337.16965
337.15132
337.16172
337.14301
337.15268
337.13358
337.14249
337.12298
337.13111
337.11119
337.11851
337.09819
337.1047
337.084
337.08969
337.06863
337.07349
337.0521
337.05614
337.03446
337.03768
337.01575
337.01815
336.99601
336.99761
336.97532
336.97611
336.9537
337.203
337.18905
337.20414
337.18866
337.20342
337.18779
337.20217
337.18642
337.2004
337.18448
337.198
337.18189
337.19491
337.1786
337.19113
337.17462
337.18666
337.16996
337.18149
337.16457
337.17556
337.15841
337.16882
337.15141
337.1612
337.1435
337.15263
337.13463
337.14307
337.12474
337.13247
337.11382
337.1208
337.10183
337.10806
337.08877
337.09423
337.07465
337.07933
337.05947
337.06337
337.04327
337.04638
337.02607
337.0284
337.0079
337.00945
336.98882
336.98959
336.96886
337.20145
337.18822
337.20264
337.18789
337.20207
337.18721
337.20099
337.18596
337.19929
337.18404
337.19684
337.18135
337.1936
337.17788
337.18961
337.1737
337.18493
337.16884
337.17958
337.16333
337.17356
337.15714
337.16685
337.15024
337.15938
337.14257
337.15113
337.13409
337.14203
337.12475
337.13203
337.11452
337.12112
337.10336
337.10927
337.09126
337.09645
337.07821
337.08268
337.06421
337.06794
337.04927
337.05226
337.03341
337.03565
337.01666
337.01815
336.99904
336.99979
336.9806
337.19988
337.18735
337.20109
337.18701
337.20062
337.18644
337.19961
337.18522
337.19787
337.18319
337.19524
337.18028
337.19173
337.17651
337.18741
337.172
337.18241
337.16685
337.17678
337.1611
337.17056
337.15477
337.16375
337.14785
337.15632
337.14029
337.14824
337.13207
337.13946
337.12313
337.12994
337.11344
337.11963
337.10295
337.10851
337.09165
337.09655
337.07952
337.08374
337.06654
337.07007
337.05272
337.05555
337.03805
337.04018
337.02257
337.02398
337.00627
337.00698
336.9892
337.19828
337.18645
337.1995
337.18603
337.19907
337.18551
337.19804
337.1842
337.19613
337.18192
337.19318
337.17864
337.18926
337.17445
337.1845
337.1695
337.17906
337.16395
337.17305
337.15787
337.16654
337.15131
337.15954
337.14426
337.15205
337.13672
337.14404
337.12863
337.13546
337.11998
337.12628
337.11069
337.11645
337.10075
337.10593
337.09012
337.0947
337.07877
337.08272
337.06667
337.06999
337.05382
337.05649
337.04022
337.04222
337.02586
337.0272
337.01077
337.01144
336.99494
337.19664
337.18549
337.19787
337.18498
337.19743
337.18441
337.19627
337.18287
337.19403
337.18018
337.19061
337.17637
337.18612
337.17162
337.1808
337.16614
337.17483
337.1601
337.16836
337.15361
337.16148
337.14673
337.15422
337.13949
337.14659
337.13187
337.13856
337.12384
337.1301
337.11536
337.12116
337.10639
337.1117
337.09689
337.10168
337.08681
337.09105
337.07611
337.07979
337.06478
337.06787
337.05279
337.05528
337.04012
337.042
337.02678
337.02803
337.01276
337.01339
336.99807
337.19493
337.18448
337.19621
337.18384
337.1957
337.18313
337.19427
337.18119
337.19152
337.1779
337.18744
337.17341
337.18225
337.16797
337.17625
337.16185
337.16966
337.15523
337.16266
337.14827
337.15535
337.14102
337.14777
337.13352
337.13993
337.12576
337.13183
337.11772
337.12341
337.10936
337.11464
337.10062
337.10547
337.09146
337.09585
337.08183
337.08574
337.0717
337.0751
337.06103
337.06389
337.04979
337.05209
337.03795
337.03969
337.02552
337.02668
337.01247
337.01305
336.99881
337.19315
337.18341
337.19449
337.18262
337.19386
337.18163
337.19198
337.17908
337.18851
337.175
337.18358
337.16965
337.17755
337.1634
337.17076
337.15654
337.16348
337.1493
337.1559
337.14181
337.14811
337.13415
337.14017
337.12636
337.1321
337.11842
337.12387
337.11032
337.11545
337.10201
337.10679
337.09344
337.09784
337.08455
337.08856
337.07531
337.07888
337.06566
337.06877
337.05556
337.05819
337.04498
337.0471
337.03389
337.03549
337.02226
337.02333
337.01009
337.01063
336.99736
337.19128
337.18229
337.19273
337.18129
337.19187
337.17985
337.18932
337.17644
337.18489
337.17135
337.17893
337.16499
337.17191
337.15781
337.16424
337.15015
337.15621
337.14222
337.14801
337.13418
337.13972
337.12609
337.13141
337.11798
337.12307
337.10985
337.1147
337.10166
337.10624
337.09336
337.09765
337.08491
337.08888
337.07626
337.07987
337.06734
337.07057
337.0581
337.06093
337.04851
337.0509
337.03851
337.04045
337.02808
337.02954
337.01718
337.01816
337.0058
337.0063
336.99393
337.18932
337.18111
337.1909
337.17981
337.18966
337.17769
337.18616
337.17316
337.18053
337.16682
337.17334
337.1593
337.16521
337.1511
337.1566
337.14258
337.14778
337.13395
337.13893
337.12534
337.13014
337.11681
337.12145
337.10838
337.11285
337.10004
337.10432
337.09175
337.09581
337.08345
337.08728
337.0751
337.07865
337.06664
337.06988
337.058
337.06091
337.04913
337.05168
337.03998
337.04214
337.0305
337.03226
337.02066
337.022
337.01043
337.01132
336.99977
337.00022
336.98867
337.18723
337.1799
337.189
337.17815
337.18713
337.17503
337.18236
337.16906
337.17525
337.16127
337.16667
337.15245
337.15734
337.14316
337.14773
337.13374
337.13811
337.1244
337.12862
337.11524
337.11934
337.10629
337.11028
337.09756
337.10143
337.08902
337.09275
337.08062
337.0842
337.07232
337.0757
337.06406
337.06721
337.05576
337.05865
337.04737
337.04997
337.03883
337.04112
337.03008
337.03203
337.02108
337.02267
337.01178
337.01299
337.00215
337.00296
336.99215
336.99256
336.98177
337.18502
337.17867
337.18698
337.17622
337.18417
337.1717
337.17774
337.16397
337.1689
337.15452
337.15877
337.1443
337.14817
337.13388
337.13754
337.12357
337.12713
337.11354
337.11703
337.10384
337.10729
337.0945
337.09789
337.0855
337.08882
337.07678
337.08001
337.06831
337.07142
337.06001
337.06297
337.05182
337.0546
337.04369
337.04625
337.03553
337.03785
337.02729
337.02934
337.01892
337.02066
337.01035
337.01177