/*--------------------------------*- C++ -*----------------------------------*\
| =========                 |                                                 |
| \\      /  F ield         | OpenFOAM: The Open Source CFD Toolbox           |
|  \\    /   O peration     | Version:  2312                                  |
|   \\  /    A nd           | Website:  www.openfoam.com                      |
|    \\/     M anipulation  |                                                 |
\*---------------------------------------------------------------------------*/
FoamFile
{
    version     2.0;
    format      ascii;
    arch        "LSB;label=32;scalar=64";
    class       volVectorField;
    location    "7";
    object      U;
}
// * * * * * * * * * * * * * * * * * * * * * * * * * * * * * * * * * * * * * //

dimensions      [0 1 -1 0 0 0 0];

internalField   nonuniform List<vector> 
4000
(
(0.00266809 0.00052711063 0)
(0.0043060966 -9.9802352e-06 0)
(0.0028683313 -4.0059568e-07 0)
(0.0031113805 6.9576544e-08 0)
(0.0030044909 -2.0381285e-07 0)
(0.0030580824 1.9017089e-07 0)
(0.0029968885 -2.1564802e-07 0)
(0.0030399177 1.8450115e-07 0)
(0.0029991439 -1.7694873e-07 0)
(0.0030352757 1.6530341e-07 0)
(0.0030014533 -1.557619e-07 0)
(0.0030328152 1.4641359e-07 0)
(0.0030033061 -1.3804814e-07 0)
(0.003030931 1.2992567e-07 0)
(0.0030049349 -1.2248442e-07 0)
(0.0030293255 1.1537715e-07 0)
(0.0030064029 -1.0876344e-07 0)
(0.0030279134 1.0252252e-07 0)
(0.0030077194 -9.6680432e-08 0)
(0.0030266613 9.1199999e-08 0)
(0.0030088945 -8.6060964e-08 0)
(0.0030255487 8.1254165e-08 0)
(0.0030099414 -7.6746109e-08 0)
(0.0030245585 7.2536931e-08 0)
(0.0030108745 -6.8591347e-08 0)
(0.0030236756 6.4912646e-08 0)
(0.0030117077 -6.146758e-08 0)
(0.0030228863 5.8260539e-08 0)
(0.0030124539 -5.5261491e-08 0)
(0.0030221783 5.2475165e-08 0)
(0.0030131245 -4.9874988e-08 0)
(0.0030215405 4.7465679e-08 0)
(0.0030137301 -4.5224033e-08 0)
(0.0030209631 4.3154547e-08 0)
(0.00301428 -4.1237186e-08 0)
(0.0030204372 3.9476086e-08 0)
(0.0030147824 -3.7854167e-08 0)
(0.0030199551 3.6375109e-08 0)
(0.0030152449 -3.5024599e-08 0)
(0.0030195094 3.3805812e-08 0)
(0.0030156744 -3.2707031e-08 0)
(0.0030190937 3.1731069e-08 0)
(0.0030160771 -3.0868501e-08 0)
(0.0030187017 3.0121636e-08 0)
(0.0030164582 -2.948759e-08 0)
(0.0030183267 2.8951899e-08 0)
(0.0030168254 -2.855925e-08 0)
(0.0030179883 2.8262251e-08 0)
(0.0030172953 -2.772654e-08 0)
(0.0030180171 3.0118192e-08 0)
(0.0068601067 0.0013774678 0)
(0.011813381 7.9370328e-07 0)
(0.0085674414 1.4057407e-05 0)
(0.0089791852 -5.771531e-07 0)
(0.0087196155 -2.0141957e-07 0)
(0.0088769655 8.6827786e-07 0)
(0.0086987977 -4.8985033e-07 0)
(0.0088250582 6.6141236e-07 0)
(0.0087046894 -5.8989706e-07 0)
(0.008812148 5.8276106e-07 0)
(0.0087116404 -5.4580353e-07 0)
(0.008805026 5.2028931e-07 0)
(0.0087171863 -4.8843344e-07 0)
(0.0087994462 4.6212124e-07 0)
(0.0087220585 -4.3452094e-07 0)
(0.0087946645 4.1008132e-07 0)
(0.0087264448 -3.8616264e-07 0)
(0.0087904576 3.6425828e-07 0)
(0.0087303735 -3.4338632e-07 0)
(0.0087867296 3.2401391e-07 0)
(0.0087338776 -3.0574411e-07 0)
(0.0087834172 2.8870856e-07 0)
(0.0087369993 -2.7271059e-07 0)
(0.0087804687 2.5777685e-07 0)
(0.0087397827 -2.4378209e-07 0)
(0.0087778382 2.3072291e-07 0)
(0.0087422696 -2.1850366e-07 0)
(0.0087754847 2.0711448e-07 0)
(0.0087444985 -1.9647568e-07 0)
(0.0087733714 1.865779e-07 0)
(0.008746504 -1.7735267e-07 0)
(0.0087714656 1.6879269e-07 0)
(0.008748317 -1.6083874e-07 0)
(0.0087697382 1.5348556e-07 0)
(0.008749965 -1.466821e-07 0)
(0.0087681629 1.4042471e-07 0)
(0.0087514731 -1.3466978e-07 0)
(0.0087667162 1.294148e-07 0)
(0.0087528634 -1.2462305e-07 0)
(0.0087653767 1.2029266e-07 0)
(0.0087541567 -1.1639384e-07 0)
(0.0087641247 1.1292459e-07 0)
(0.0087553719 -1.0985967e-07 0)
(0.0087629415 1.0721203e-07 0)
(0.0087565252 -1.0491393e-07 0)
(0.0087618058 1.0304901e-07 0)
(0.0087576332 -1.0179371e-07 0)
(0.0087607413 9.908024e-08 0)
(0.0087589419 -1.0455213e-07 0)
(0.0087606016 9.5548852e-08 0)
(0.010876845 0.0021540742 0)
(0.018790617 -1.7176462e-05 0)
(0.014119909 3.5141248e-05 0)
(0.014688955 -6.8010493e-07 0)
(0.014283615 -1.7390435e-07 0)
(0.014547203 1.7033442e-06 0)
(0.014250402 -7.1318239e-07 0)
(0.014464076 1.2116613e-06 0)
(0.014260994 -1.0532511e-06 0)
(0.01444326 1.0591063e-06 0)
(0.014273025 -9.9130857e-07 0)
(0.014431387 9.4899365e-07 0)
(0.014282486 -8.8970898e-07 0)
(0.01442196 8.4321198e-07 0)
(0.014290776 -7.9213214e-07 0)
(0.014413855 7.4803188e-07 0)
(0.014298229 -7.0414376e-07 0)
(0.014406723 6.6433704e-07 0)
(0.014304896 -6.2620188e-07 0)
(0.014400403 5.9091104e-07 0)
(0.014310839 -5.5758695e-07 0)
(0.01439479 5.2652665e-07 0)
(0.014316133 -4.9736328e-07 0)
(0.014389792 4.7012587e-07 0)
(0.014320853 -4.4461716e-07 0)
(0.014385332 4.2079431e-07 0)
(0.014325072 -3.9852015e-07 0)
(0.014381341 3.777407e-07 0)
(0.014328854 -3.5834459e-07 0)
(0.014377756 3.4028367e-07 0)
(0.014332259 -3.2346173e-07 0)
(0.014374521 3.0783973e-07 0)
(0.014335338 -2.9333323e-07 0)
(0.014371587 2.7991156e-07 0)
(0.014338139 -2.6750082e-07 0)
(0.014368911 2.5607711e-07 0)
(0.014340703 -2.4557646e-07 0)
(0.014366451 2.3598016e-07 0)
(0.014343068 -2.2723385e-07 0)
(0.014364172 2.1932236e-07 0)
(0.01434527 -2.1220177e-07 0)
(0.01436204 2.058575e-07 0)
(0.01434734 -2.0025283e-07 0)
(0.014360024 1.9540661e-07 0)
(0.014349308 -1.9116596e-07 0)
(0.014358086 1.877913e-07 0)
(0.014351198 -1.854113e-07 0)
(0.014356245 1.7987813e-07 0)
(0.014353357 -1.9354017e-07 0)
(0.014355804 1.731223e-07 0)
(0.015520735 0.0030930459 0)
(0.025333947 -3.7122242e-05 0)
(0.019501431 6.2579402e-05 0)
(0.020242903 -1.0804305e-06 0)
(0.019697324 7.5363665e-08 0)
(0.02006807 2.630093e-06 0)
(0.019651669 -7.562743e-07 0)
(0.01995719 1.7422342e-06 0)
(0.019667943 -1.4787209e-06 0)
(0.01992879 1.5132556e-06 0)
(0.019685477 -1.4169224e-06 0)
(0.019912064 1.3622473e-06 0)
(0.01969908 -1.2755454e-06 0)
(0.019898626 1.2110098e-06 0)
(0.019710971 -1.1366037e-06 0)
(0.019887038 1.0739969e-06 0)
(0.019721646 -1.010622e-06 0)
(0.019876837 9.5368562e-07 0)
(0.019731186 -8.9885825e-07 0)
(0.019867801 8.4825184e-07 0)
(0.019739687 -8.0042364e-07 0)
(0.019859773 7.5584274e-07 0)
(0.019747257 -7.140094e-07 0)
(0.019852627 6.7490064e-07 0)
(0.019754007 -6.3831263e-07 0)
(0.01984625 6.0409939e-07 0)
(0.019760041 -5.7214746e-07 0)
(0.01984054 5.4230026e-07 0)
(0.019765452 -5.1447219e-07 0)
(0.019835411 4.8852625e-07 0)
(0.019770324 -4.643871e-07 0)
(0.019830782 4.4194202e-07 0)
(0.019774731 -4.2112191e-07 0)
(0.019826583 4.018358e-07 0)
(0.01977874 -3.8402059e-07 0)
(0.019822751 3.676032e-07 0)
(0.019782411 -3.5252717e-07 0)
(0.019819229 3.3873358e-07 0)
(0.019785798 -3.2617342e-07 0)
(0.019815966 3.1479834e-07 0)
(0.019788951 -3.0456947e-07 0)
(0.019812913 2.9544231e-07 0)
(0.019791917 -2.873854e-07 0)
(0.019810024 2.8041306e-07 0)
(0.019794737 -2.7427025e-07 0)
(0.019807247 2.6948257e-07 0)
(0.019797446 -2.6597283e-07 0)
(0.019804584 2.5720643e-07 0)
(0.019800463 -2.8231574e-07 0)
(0.019803703 2.4773135e-07 0)
(0.018795522 0.0034942614 0)
(0.031505411 -7.4680529e-05 0)
(0.024730943 9.6872645e-05 0)
(0.025645602 -1.5629662e-06 0)
(0.024960313 5.2922006e-07 0)
(0.025438734 3.6262822e-06 0)
(0.024902503 -6.2918528e-07 0)
(0.025304262 2.2252492e-06 0)
(0.024925676 -1.8502034e-06 0)
(0.025268594 1.9246572e-06 0)
(0.024949115 -1.8052682e-06 0)
(0.025246928 1.7427336e-06 0)
(0.024967069 -1.6299571e-06 0)
(0.025229331 1.5502516e-06 0)
(0.02498273 -1.4536331e-06 0)
(0.025214117 1.3744677e-06 0)
(0.02499677 -1.2928783e-06 0)
(0.025200719 1.2203244e-06 0)
(0.025009307 -1.150048e-06 0)
(0.02518885 1.0853886e-06 0)
(0.025020473 -1.0241886e-06 0)
(0.025178308 9.6717183e-07 0)
(0.025030416 -9.1367163e-07 0)
(0.025168923 8.6363225e-07 0)
(0.025039282 -8.1684346e-07 0)
(0.025160546 7.7305737e-07 0)
(0.025047209 -7.3219275e-07 0)
(0.025153046 6.9398764e-07 0)
(0.025054318 -6.583914e-07 0)
(0.025146306 6.2517527e-07 0)
(0.025060719 -5.9429257e-07 0)
(0.025140224 5.6555479e-07 0)
(0.02506651 -5.389142e-07 0)
(0.025134707 5.1421837e-07 0)
(0.025071777 -4.9141948e-07 0)
(0.025129672 4.7039472e-07 0)
(0.025076601 -4.5109841e-07 0)
(0.025125045 4.3343143e-07 0)
(0.025081051 -4.1735237e-07 0)
(0.025120757 4.0277996e-07 0)
(0.025085193 -3.8968217e-07 0)
(0.025116746 3.7798408e-07 0)
(0.02508909 -3.6766218e-07 0)
(0.025112951 3.5872714e-07 0)
(0.025092795 -3.508009e-07 0)
(0.025109304 3.4476382e-07 0)
(0.025096352 -3.401257e-07 0)
(0.025105788 3.280045e-07 0)
(0.025100239 -3.668655e-07 0)
(0.025104347 3.1619478e-07 0)
(0.0238373 0.0045458962 0)
(0.037252611 -9.5500851e-05 0)
(0.029774859 0.00013452323 0)
(0.030900113 -2.7818617e-06 0)
(0.030071642 1.1934221e-06 0)
(0.030658877 4.6915872e-06 0)
(0.030003236 -3.5831461e-07 0)
(0.030504959 2.6577292e-06 0)
(0.030034616 -2.1726456e-06 0)
(0.03046232 2.2942399e-06 0)
(0.030064292 -2.1587916e-06 0)
(0.030435664 2.0920396e-06 0)
(0.030086757 -1.9547141e-06 0)
(0.030413798 1.8624251e-06 0)
(0.030106318 -1.744719e-06 0)
(0.030394847 1.6508057e-06 0)
(0.030123833 -1.5522391e-06 0)
(0.030378152 1.4654863e-06 0)
(0.030139463 -1.3809522e-06 0)
(0.030363363 1.3034266e-06 0)
(0.030153378 -1.2299323e-06 0)
(0.030350227 1.1614994e-06 0)
(0.030165768 -1.0972841e-06 0)
(0.030338532 1.0371983e-06 0)
(0.030176817 -9.8104128e-07 0)
(0.030328092 9.2845094e-07 0)
(0.030186696 -8.7939859e-07 0)
(0.030318744 8.335034e-07 0)
(0.030195557 -7.9076825e-07 0)
(0.030310343 7.5086087e-07 0)
(0.030203536 -7.1377881e-07 0)
(0.030302762 6.792482e-07 0)
(0.030210754 -6.4725535e-07 0)
(0.030295884 6.1757869e-07 0)
(0.03021732 -5.9019586e-07 0)
(0.030289609 5.6492833e-07 0)
(0.030223332 -5.4174927e-07 0)
(0.030283842 5.2051461e-07 0)
(0.030228877 -5.0119699e-07 0)
(0.030278499 4.8367843e-07 0)
(0.030234039 -4.679389e-07 0)
(0.030273502 4.5386927e-07 0)
(0.030238892 -4.4145963e-07 0)
(0.030268776 4.3071318e-07 0)
(0.030243507 -4.211165e-07 0)
(0.030264235 4.1397781e-07 0)
(0.030247937 -4.0818911e-07 0)
(0.030259842 3.9268359e-07 0)
(0.030252699 -4.4695627e-07 0)
(0.03025774 3.7838548e-07 0)
(0.026497668 0.0046215059 0)
(0.042575568 -0.00016102569 0)
(0.034681646 0.00017577074 0)
(0.0360041 -4.4425383e-06 0)
(0.035028968 2.0159073e-06 0)
(0.035727935 5.8031554e-06 0)
(0.034954022 1.4929286e-08 0)
(0.03555883 3.0328829e-06 0)
(0.034995158 -2.4527999e-06 0)
(0.03550958 2.6233437e-06 0)
(0.03503136 -2.480872e-06 0)
(0.035477936 2.4124048e-06 0)
(0.035058454 -2.2522867e-06 0)
(0.035451734 2.1496334e-06 0)
(0.035082007 -2.011947e-06 0)
(0.035428973 1.9049188e-06 0)
(0.035103075 -1.7905386e-06 0)
(0.035408912 1.6908836e-06 0)
(0.035121864 -1.5931969e-06 0)
(0.035391142 1.5038933e-06 0)
(0.035138587 -1.4190991e-06 0)
(0.035375356 1.3401856e-06 0)
(0.035153478 -1.2661313e-06 0)
(0.0353613 1.1968108e-06 0)
(0.035166757 -1.1320514e-06 0)
(0.035348752 1.0713626e-06 0)
(0.035178631 -1.0147896e-06 0)
(0.035337515 9.6181805e-07 0)
(0.035189283 -9.1252334e-07 0)
(0.035327417 8.664572e-07 0)
(0.035198875 -8.2367719e-07 0)
(0.035318302 7.838139e-07 0)
(0.035207552 -7.4690051e-07 0)
(0.035310035 7.1263814e-07 0)
(0.035215445 -6.8104025e-07 0)
(0.035302491 6.5186608e-07 0)
(0.03522267 -6.2511595e-07 0)
(0.035295561 6.0059566e-07 0)
(0.035229335 -5.7829852e-07 0)
(0.035289141 5.5806564e-07 0)
(0.035235536 -5.3989441e-07 0)
(0.035283138 5.236373e-07 0)
(0.035241366 -5.0930397e-07 0)
(0.035277462 4.9688456e-07 0)
(0.035246909 -4.8572416e-07 0)
(0.035272011 4.7761747e-07 0)
(0.035252227 -4.7064164e-07 0)
(0.035266723 4.5181026e-07 0)
(0.035257867 -5.2255858e-07 0)
(0.035263876 4.3453903e-07 0)
(0.031676703 0.0056769908 0)
(0.047518263 -0.00017607269 0)
(0.039410592 0.0002148972 0)
(0.040946172 -5.115894e-06 0)
(0.039834151 3.4074823e-06 0)
(0.04064674 7.0090098e-06 0)
(0.039755748 4.8923055e-07 0)
(0.040465728 3.3482316e-06 0)
(0.03980776 -2.6914683e-06 0)
(0.040410083 2.9118782e-06 0)
(0.039850643 -2.7720097e-06 0)
(0.040373463 2.7039677e-06 0)
(0.039882434 -2.5229079e-06 0)
(0.040342888 2.4119796e-06 0)
(0.039910037 -2.2554666e-06 0)
(0.040316271 2.1369122e-06 0)
(0.039934706 -2.0078973e-06 0)
(0.040292803 1.8966184e-06 0)
(0.039956695 -1.7868834e-06 0)
(0.040272012 1.6868798e-06 0)
(0.039976264 -1.591774e-06 0)
(0.040253541 1.5033088e-06 0)
(0.039993688 -1.4202851e-06 0)
(0.040237093 1.3425364e-06 0)
(0.040009229 -1.2699349e-06 0)
(0.040222407 1.2018499e-06 0)
(0.040023126 -1.1384189e-06 0)
(0.040209255 1.0789821e-06 0)
(0.040035594 -1.023704e-06 0)
(0.040197434 9.7200984e-07 0)
(0.040046821 -9.2403096e-07 0)
(0.040186765 8.7929405e-07 0)
(0.040056978 -8.3789024e-07 0)
(0.040177088 7.994367e-07 0)
(0.040066217 -7.6399162e-07 0)
(0.040168259 7.3124669e-07 0)
(0.040074672 -7.0123663e-07 0)
(0.040160149 6.7371285e-07 0)
(0.04008247 -6.4869511e-07 0)
(0.040152638 6.2598024e-07 0)
(0.040089725 -6.0558767e-07 0)
(0.040145615 5.8732813e-07 0)
(0.040096544 -5.7123623e-07 0)
(0.040138977 5.5728306e-07 0)
(0.040103026 -5.4467124e-07 0)
(0.040132606 5.3572667e-07 0)
(0.040109244 -5.2753327e-07 0)
(0.040126415 5.0550937e-07 0)
(0.04011576 -5.9331053e-07 0)
(0.04012275 4.8462239e-07 0)
(0.034273855 0.0056058947 0)
(0.051937463 -0.00027042019 0)
(0.044049445 0.00024997247 0)
(0.045676131 -6.1180953e-06 0)
(0.044478023 4.6518017e-06 0)
(0.045413416 8.1836648e-06 0)
(0.044408459 1.0161023e-06 0)
(0.045225277 3.5890904e-06 0)
(0.044472735 -2.8919417e-06 0)
(0.045163543 3.1581354e-06 0)
(0.044522411 -3.032393e-06 0)
(0.045121995 2.9661373e-06 0)
(0.04455893 -2.7662783e-06 0)
(0.045087039 2.6490017e-06 0)
(0.044590612 -2.4749172e-06 0)
(0.045056549 2.3463998e-06 0)
(0.044618906 -2.2039732e-06 0)
(0.045029655 2.0823546e-06 0)
(0.044644116 -1.961698e-06 0)
(0.045005824 1.8520856e-06 0)
(0.044666549 -1.7476711e-06 0)
(0.044984651 1.6505969e-06 0)
(0.044686524 -1.5594852e-06 0)
(0.044965793 1.4741285e-06 0)
(0.044704342 -1.3944557e-06 0)
(0.044948954 1.3196895e-06 0)
(0.044720278 -1.250073e-06 0)
(0.044933872 1.1847939e-06 0)
(0.044734574 -1.1241176e-06 0)
(0.044920316 1.0673368e-06 0)
(0.04474745 -1.0146666e-06 0)
(0.044908081 9.6552454e-07 0)
(0.044759098 -9.2006809e-07 0)
(0.044896984 8.778262e-07 0)
(0.044769691 -8.3890861e-07 0)
(0.04488686 8.029361e-07 0)
(0.044779386 -7.6998327e-07 0)
(0.044877562 7.3974446e-07 0)
(0.044788326 -7.1227034e-07 0)
(0.044868951 6.873113e-07 0)
(0.044796641 -6.6491238e-07 0)
(0.044860903 6.4484042e-07 0)
(0.044804455 -6.2715934e-07 0)
(0.044853297 6.1181554e-07 0)
(0.044811882 -5.9787227e-07 0)
(0.044846 5.8821797e-07 0)
(0.044819005 -5.787894e-07 0)
(0.044838903 5.537654e-07 0)
(0.044826394 -6.5877889e-07 0)
(0.044834362 5.2858069e-07 0)
(0.039525921 0.0064992286 0)
(0.056081314 -0.00028711148 0)
(0.048606947 0.00029373496 0)
(0.050176918 -8.8068537e-06 0)
(0.048953693 5.0855433e-06 0)
(0.050027355 9.2008757e-06 0)
(0.048912479 1.559806e-06 0)
(0.049837264 3.7470278e-06 0)
(0.048990394 -3.0558104e-06 0)
(0.049769728 3.3616448e-06 0)
(0.049046907 -3.2621607e-06 0)
(0.049723315 3.1987252e-06 0)
(0.049088152 -2.9822896e-06 0)
(0.049683995 2.8604918e-06 0)
(0.049123916 -2.6701451e-06 0)
(0.049649636 2.5332021e-06 0)
(0.049155837 -2.3786121e-06 0)
(0.049619315 2.2479346e-06 0)
(0.049184269 -2.1174932e-06 0)
(0.049592444 1.9993662e-06 0)
(0.049209568 -1.8866514e-06 0)
(0.049568566 1.7819165e-06 0)
(0.049232097 -1.6836024e-06 0)
(0.049547296 1.5914641e-06 0)
(0.049252195 -1.505495e-06 0)
(0.049528301 1.4247687e-06 0)
(0.049270171 -1.3496435e-06 0)
(0.049511286 1.2791508e-06 0)
(0.049286301 -1.2136658e-06 0)
(0.049495992 1.1523453e-06 0)
(0.049300827 -1.0954954e-06 0)
(0.049482188 1.0424217e-06 0)
(0.049313967 -9.9335416e-07 0)
(0.049469669 9.4773125e-07 0)
(0.049325918 -9.0571921e-07 0)
(0.049458249 8.6686622e-07 0)
(0.049336854 -8.3129079e-07 0)
(0.04944776 7.9862886e-07 0)
(0.049346937 -7.6896524e-07 0)
(0.049438049 7.4200289e-07 0)
(0.049356314 -7.1781497e-07 0)
(0.049428974 6.9612341e-07 0)
(0.049365124 -6.770248e-07 0)
(0.049420399 6.6043564e-07 0)
(0.049373497 -6.4528654e-07 0)
(0.049412177 6.3504639e-07 0)
(0.049381525 -6.2437945e-07 0)
(0.049404175 5.965897e-07 0)
(0.049389779 -7.1861235e-07 0)
(0.049398712 5.6645088e-07 0)
(0.042495959 0.0064461628 0)
(0.059771782 -0.00039441643 0)
(0.053020649 0.00032901653 0)
(0.054519243 -1.1255992e-05 0)
(0.053269797 4.7072297e-06 0)
(0.054490408 9.982532e-06 0)
(0.053268828 2.0952301e-06 0)
(0.054301666 3.8124929e-06 0)
(0.053361066 -3.1852177e-06 0)
(0.054228446 3.5220701e-06 0)
(0.053424352 -3.461825e-06 0)
(0.054177231 3.4018108e-06 0)
(0.053470287 -3.1711083e-06 0)
(0.054133582 3.0464946e-06 0)
(0.053510113 -2.8412339e-06 0)
(0.054095378 2.6973625e-06 0)
(0.053545643 -2.531868e-06 0)
(0.05406165 2.3933958e-06 0)
(0.053577282 -2.2543051e-06 0)
(0.054031753 2.1287503e-06 0)
(0.053605435 -2.0087393e-06 0)
(0.054005181 1.8972881e-06 0)
(0.053630506 -1.7926533e-06 0)
(0.053981509 1.6945577e-06 0)
(0.053652876 -1.6030646e-06 0)
(0.053960365 1.5170984e-06 0)
(0.053672885 -1.4371393e-06 0)
(0.053941424 1.3620617e-06 0)
(0.05369084 -1.2923563e-06 0)
(0.053924398 1.227043e-06 0)
(0.053707011 -1.1665241e-06 0)
(0.053909031 1.1099927e-06 0)
(0.053721639 -1.057755e-06 0)
(0.053895095 1.0091587e-06 0)
(0.053734941 -9.6442994e-07 0)
(0.053882383 9.2304393e-07 0)
(0.053747114 -8.8516587e-07 0)
(0.053870709 8.503731e-07 0)
(0.053758335 -8.1878681e-07 0)
(0.053859902 7.9006244e-07 0)
(0.05376877 -7.6430299e-07 0)
(0.053849804 7.4118532e-07 0)
(0.053778573 -7.2084116e-07 0)
(0.053840264 7.0315248e-07 0)
(0.053787886 -6.8692693e-07 0)
(0.053831123 6.7621892e-07 0)
(0.053796816 -6.6432599e-07 0)
(0.053822222 6.3403384e-07 0)
(0.053805925 -7.7254804e-07 0)
(0.053815799 5.9835282e-07 0)
(0.047622681 0.007139493 0)
(0.063339934 -0.00040169065 0)
(0.057167841 0.00035752547 0)
(0.058771294 -1.2187436e-05 0)
(0.057430661 3.8037213e-06 0)
(0.058803961 1.0472652e-05 0)
(0.057478155 2.6155143e-06 0)
(0.058618362 3.7869738e-06 0)
(0.057584973 -3.2794215e-06 0)
(0.058539495 3.6403699e-06 0)
(0.057654928 -3.6317602e-06 0)
(0.058483566 3.5757265e-06 0)
(0.057705498 -3.3330302e-06 0)
(0.058435646 3.2072079e-06 0)
(0.057749348 -2.9884013e-06 0)
(0.058393638 2.8390539e-06 0)
(0.057788453 -2.6639144e-06 0)
(0.058356536 2.5188894e-06 0)
(0.05782327 -2.3722762e-06 0)
(0.058323641 2.2403673e-06 0)
(0.05785425 -2.1140542e-06 0)
(0.0582944 1.9968224e-06 0)
(0.057881842 -1.88674e-06 0)
(0.058268346 1.7835053e-06 0)
(0.057906463 -1.6872531e-06 0)
(0.058245072 1.5967627e-06 0)
(0.057928489 -1.5126388e-06 0)
(0.058224222 1.4336012e-06 0)
(0.057948254 -1.360259e-06 0)
(0.058205479 1.2914969e-06 0)
(0.057966055 -1.2278161e-06 0)
(0.058188562 1.1682981e-06 0)
(0.057982158 -1.1133282e-06 0)
(0.05817322 1.0621641e-06 0)
(0.057996801 -1.0150938e-06 0)
(0.058159227 9.7152046e-07 0)
(0.058010199 -9.3165765e-07 0)
(0.058146378 8.9502487e-07 0)
(0.05802255 -8.6178108e-07 0)
(0.058134484 8.315349e-07 0)
(0.058034033 -8.0442015e-07 0)
(0.058123372 7.8006923e-07 0)
(0.058044819 -7.5865076e-07 0)
(0.058112876 7.4000805e-07 0)
(0.058055065 -7.2283805e-07 0)
(0.058102823 7.1177361e-07 0)
(0.05806489 -6.9868349e-07 0)
(0.058093034 6.6617184e-07 0)
(0.058074841 -8.2039023e-07 0)
(0.058085625 6.2446152e-07 0)
(0.050711829 0.0070754968 0)
(0.066484762 -0.0005198417 0)
(0.061106675 0.00038036488 0)
(0.062939582 -1.2274078e-05 0)
(0.061440075 2.9639388e-06 0)
(0.062969253 1.0726064e-05 0)
(0.061541086 3.1348744e-06 0)
(0.06278726 3.6778659e-06 0)
(0.061662323 -3.3364168e-06 0)
(0.062702701 3.7179076e-06 0)
(0.061738792 -3.7724493e-06 0)
(0.062642161 3.7208799e-06 0)
(0.061793928 -3.4684893e-06 0)
(0.062590046 3.3429134e-06 0)
(0.06184175 -3.1119717e-06 0)
(0.062544294 2.9585346e-06 0)
(0.061884382 -2.7750126e-06 0)
(0.062503866 2.6246455e-06 0)
(0.061922334 -2.4716255e-06 0)
(0.062468014 2.3344179e-06 0)
(0.061956103 -2.202784e-06 0)
(0.062436138 2.0806949e-06 0)
(0.061986183 -1.9660262e-06 0)
(0.062407733 1.8584611e-06 0)
(0.062013027 -1.7582049e-06 0)
(0.062382357 1.6638984e-06 0)
(0.062037043 -1.5762707e-06 0)
(0.062359621 1.4938916e-06 0)
(0.062058595 -1.4174894e-06 0)
(0.062339182 1.3458172e-06 0)
(0.062078006 -1.2794756e-06 0)
(0.062320735 1.2174379e-06 0)
(0.062095565 -1.1601687e-06 0)
(0.062304005 1.1068384e-06 0)
(0.062111532 -1.0577975e-06 0)
(0.062288748 1.0123791e-06 0)
(0.062126141 -9.7084594e-07 0)
(0.062274739 9.3266121e-07 0)
(0.062139606 -8.9802222e-07 0)
(0.062261772 8.6649219e-07 0)
(0.062152124 -8.3823614e-07 0)
(0.062249659 8.1284334e-07 0)
(0.06216388 -7.9052014e-07 0)
(0.06223822 7.7106796e-07 0)
(0.062175047 -7.530871e-07 0)
(0.062227267 7.4177071e-07 0)
(0.062185755 -7.2752902e-07 0)
(0.062216603 6.9309276e-07 0)
(0.062196533 -8.6199917e-07 0)
(0.06220819 6.449912e-07 0)
(0.055631796 0.0075692166 0)
(0.069613504 -0.00052531392 0)
(0.064865866 0.00040061707 0)
(0.066977692 -1.3188237e-05 0)
(0.06530291 2.3586844e-06 0)
(0.066986359 1.0654856e-05 0)
(0.065458007 3.645406e-06 0)
(0.066808309 3.4855686e-06 0)
(0.065593353 -3.3550296e-06 0)
(0.066717946 3.7563419e-06 0)
(0.065676104 -3.884243e-06 0)
(0.066652885 3.8379082e-06 0)
(0.06573571 -3.5779428e-06 0)
(0.066596663 3.4540186e-06 0)
(0.065787435 -3.2123377e-06 0)
(0.066547237 3.0561534e-06 0)
(0.065833533 -2.8654969e-06 0)
(0.066503543 2.7109698e-06 0)
(0.065874565 -2.5526405e-06 0)
(0.066464785 2.41117e-06 0)
(0.065911077 -2.2751791e-06 0)
(0.06643032 2.1491411e-06 0)
(0.065943602 -2.0307324e-06 0)
(0.066399603 1.9196337e-06 0)
(0.065972631 -1.8161162e-06 0)
(0.066372159 1.7186914e-06 0)
(0.065998604 -1.62821e-06 0)
(0.06634757 1.5430996e-06 0)
(0.066021913 -1.464205e-06 0)
(0.066325464 1.390154e-06 0)
(0.066042907 -1.3216449e-06 0)
(0.066305512 1.2575477e-06 0)
(0.066061898 -1.1984054e-06 0)
(0.066287418 1.1433049e-06 0)
(0.066079166 -1.0926587e-06 0)
(0.066270918 1.0457329e-06 0)
(0.066094964 -1.0028389e-06 0)
(0.066255767 9.6338622e-07 0)
(0.066109525 -9.2761034e-07 0)
(0.066241746 8.9503121e-07 0)
(0.066123061 -8.6584466e-07 0)
(0.066228648 8.3959896e-07 0)
(0.066135771 -8.1653819e-07 0)
(0.066216282 7.9641956e-07 0)
(0.066147843 -7.7776204e-07 0)
(0.066204446 7.6629095e-07 0)
(0.066159419 -7.5095979e-07 0)
(0.066192925 7.1489969e-07 0)
(0.066171007 -8.9728634e-07 0)
(0.066183496 6.6018576e-07 0)
(0.059059519 0.007538024 0)
(0.072393195 -0.00063686511 0)
(0.068527356 0.00040965648 0)
(0.070834851 -1.5258168e-05 0)
(0.069025254 1.6435302e-06 0)
(0.070854851 1.0209164e-05 0)
(0.069229047 4.1106837e-06 0)
(0.070681421 3.1988409e-06 0)
(0.069378257 -3.3391927e-06 0)
(0.070585132 3.7556021e-06 0)
(0.069467006 -3.9682728e-06 0)
(0.070515625 3.9272664e-06 0)
(0.069530962 -3.6620427e-06 0)
(0.070455389 3.5409668e-06 0)
(0.069586505 -3.2899926e-06 0)
(0.070402371 3.132324e-06 0)
(0.069635996 -2.935778e-06 0)
(0.070355482 2.7782326e-06 0)
(0.069680044 -2.6156745e-06 0)
(0.070313878 2.4709516e-06 0)
(0.069719241 -2.331549e-06 0)
(0.070276878 2.2024517e-06 0)
(0.069754161 -2.0811326e-06 0)
(0.070243897 1.9672818e-06 0)
(0.069785331 -1.8612306e-06 0)
(0.070214428 1.7613729e-06 0)
(0.06981322 -1.6686752e-06 0)
(0.070188023 1.5814326e-06 0)
(0.06983825 -1.500602e-06 0)
(0.070164284 1.4246939e-06 0)
(0.069860794 -1.3545011e-06 0)
(0.070142858 1.2887966e-06 0)
(0.069881187 -1.228199e-06 0)
(0.070123429 1.1717173e-06 0)
(0.069899729 -1.1198238e-06 0)
(0.07010571 1.0717222e-06 0)
(0.069916693 -1.0277708e-06 0)
(0.070089443 9.8732915e-07 0)
(0.069932327 -9.5066972e-07 0)
(0.070074388 9.1727202e-07 0)
(0.06994686 -8.8736179e-07 0)
(0.070060327 8.6044897e-07 0)
(0.069960505 -8.3681467e-07 0)
(0.070047051 8.1617049e-07 0)
(0.069973463 -7.9697017e-07 0)
(0.07003435 7.8543428e-07 0)
(0.06998589 -7.6909147e-07 0)
(0.070021992 7.3170929e-07 0)
(0.069998267 -9.2621043e-07 0)
(0.070011545 6.7031079e-07 0)
(0.063844338 0.0078367723 0)
(0.075218753 -0.00063755624 0)
(0.072113489 0.00041890003 0)
(0.074488165 -1.8052614e-05 0)
(0.07261111 5.9532257e-07 0)
(0.074574166 9.4235157e-06 0)
(0.072854546 4.5280828e-06 0)
(0.074406526 2.818632e-06 0)
(0.073017208 -3.2885267e-06 0)
(0.074304176 3.7174608e-06 0)
(0.073111627 -4.0250202e-06 0)
(0.074230283 3.9897909e-06 0)
(0.073179789 -3.7213725e-06 0)
(0.074166132 3.6043423e-06 0)
(0.073239054 -3.3454631e-06 0)
(0.074109611 3.1875448e-06 0)
(0.073291853 -2.9863197e-06 0)
(0.074059605 2.8268704e-06 0)
(0.073338843 -2.6611357e-06 0)
(0.074015226 2.5141475e-06 0)
(0.07338066 -2.3722547e-06 0)
(0.073975752 2.2409681e-06 0)
(0.073417917 -2.1175476e-06 0)
(0.073940562 2.0017095e-06 0)
(0.073451174 -1.893835e-06 0)
(0.073909117 1.7922149e-06 0)
(0.073480934 -1.6979232e-06 0)
(0.07388094 1.6091346e-06 0)
(0.073507643 -1.5269116e-06 0)
(0.073855608 1.449657e-06 0)
(0.073531699 -1.3782529e-06 0)
(0.073832744 1.3113832e-06 0)
(0.073553461 -1.2497386e-06 0)
(0.073812011 1.1922562e-06 0)
(0.073573247 -1.1394652e-06 0)
(0.073793104 1.0905119e-06 0)
(0.073591348 -1.0457996e-06 0)
(0.073775746 1.0046418e-06 0)
(0.073608029 -9.6734625e-07 0)
(0.073759683 9.3335547e-07 0)
(0.073623534 -9.0292361e-07 0)
(0.073744681 8.7552557e-07 0)
(0.073638091 -8.5147801e-07 0)
(0.073730519 8.3044658e-07 0)
(0.073651914 -8.1083615e-07 0)
(0.073716974 7.9931802e-07 0)
(0.073665173 -7.8205597e-07 0)
(0.0737038 7.4365065e-07 0)
(0.073678317 -9.4877318e-07 0)
(0.073692339 6.756464e-07 0)
(0.067516439 0.0078126974 0)
(0.077749062 -0.00074064724 0)
(0.075625532 0.0004179759 0)
(0.077958768 -2.1141744e-05 0)
(0.076061569 -1.2348506e-06 0)
(0.078143615 8.4034673e-06 0)
(0.076335102 4.8887152e-06 0)
(0.077983345 2.3512588e-06 0)
(0.076510238 -3.2022046e-06 0)
(0.077874926 3.6437579e-06 0)
(0.076610035 -4.0551442e-06 0)
(0.077796749 4.0262143e-06 0)
(0.076682272 -3.7566934e-06 0)
(0.077728801 3.6447192e-06 0)
(0.076745157 -3.3793795e-06 0)
(0.077668881 3.2223479e-06 0)
(0.076801174 -3.0176557e-06 0)
(0.077615846 2.8573649e-06 0)
(0.076851024 -2.6894876e-06 0)
(0.07756877 2.5411886e-06 0)
(0.076895388 -2.397705e-06 0)
(0.07752689 2.2650748e-06 0)
(0.076934917 -2.140341e-06 0)
(0.077489552 2.0232604e-06 0)
(0.076970205 -1.9142539e-06 0)
(0.077456186 1.8115251e-06 0)
(0.077001783 -1.7162451e-06 0)
(0.077426286 1.6264821e-06 0)
(0.077030125 -1.5433955e-06 0)
(0.077399405 1.4652921e-06 0)
(0.077055652 -1.3931365e-06 0)
(0.077375142 1.3255327e-06 0)
(0.077078744 -1.2632383e-06 0)
(0.077353142 1.2051258e-06 0)
(0.077099739 -1.1517778e-06 0)
(0.077333079 1.1022887e-06 0)
(0.077118946 -1.057104e-06 0)
(0.077314661 1.0154958e-06 0)
(0.077136646 -9.7780492e-07 0)
(0.077297617 9.4344077e-07 0)
(0.077153097 -9.1268395e-07 0)
(0.0772817 8.8497807e-07 0)
(0.077168541 -8.6067323e-07 0)
(0.077266676 8.3938975e-07 0)
(0.077183205 -8.1949998e-07 0)
(0.077252311 8.080749e-07 0)
(0.077197272 -7.8999932e-07 0)
(0.077238346 7.5086402e-07 0)
(0.077211161 -9.6501517e-07 0)
(0.077225879 6.7648115e-07 0)
(0.072084709 0.0079410433 0)
(0.080388165 -0.00073580445 0)
(0.07900758 0.00041758382 0)
(0.081295764 -2.309653e-05 0)
(0.079383268 -3.4998447e-06 0)
(0.081564132 7.2795149e-06 0)
(0.079672567 5.2217599e-06 0)
(0.081411874 1.8197068e-06 0)
(0.079857529 -3.0746286e-06 0)
(0.081297325 3.538694e-06 0)
(0.079962324 -4.0583203e-06 0)
(0.08121494 4.0377781e-06 0)
(0.080038487 -3.7686118e-06 0)
(0.081143322 3.6628262e-06 0)
(0.080104884 -3.3923755e-06 0)
(0.081080113 3.2373423e-06 0)
(0.080164022 -3.0303554e-06 0)
(0.081024147 2.8702522e-06 0)
(0.080216643 -2.7012348e-06 0)
(0.080974457 2.5525512e-06 0)
(0.080263476 -2.4083485e-06 0)
(0.080930246 2.2751961e-06 0)
(0.080305206 -2.1499129e-06 0)
(0.080890828 2.0323135e-06 0)
(0.080342461 -1.9228454e-06 0)
(0.0808556 1.8196428e-06 0)
(0.080375801 -1.7239619e-06 0)
(0.08082403 1.6337797e-06 0)
(0.080405724 -1.5503425e-06 0)
(0.080795648 1.4718736e-06 0)
(0.080432677 -1.3994123e-06 0)
(0.080770031 1.331493e-06 0)
(0.080457058 -1.268934e-06 0)
(0.080746801 1.2105515e-06 0)
(0.080479225 -1.1569765e-06 0)
(0.080725619 1.1072583e-06 0)
(0.080499503 -1.0618808e-06 0)
(0.080706173 1.0200802e-06 0)
(0.08051819 -9.8222751e-07 0)
(0.08068818 9.4770327e-07 0)
(0.080535558 -9.1681221e-07 0)
(0.080671376 8.8897082e-07 0)
(0.080551861 -8.6455992e-07 0)
(0.080655516 8.4315615e-07 0)
(0.08056734 -8.2311519e-07 0)
(0.080640356 8.1185138e-07 0)
(0.080582191 -7.9307974e-07 0)
(0.080625627 7.534996e-07 0)
(0.0805968 -9.7501213e-07 0)
(0.080612169 6.7310689e-07 0)
(0.075915491 0.0079079669 0)
(0.082788871 -0.00082520598 0)
(0.082213131 0.000404529 0)
(0.084528642 -2.4063966e-05 0)
(0.082580366 -5.8708941e-06 0)
(0.084835706 6.1815352e-06 0)
(0.082868818 5.5335332e-06 0)
(0.084692008 1.2492069e-06 0)
(0.083059254 -2.9042919e-06 0)
(0.084571344 3.4053653e-06 0)
(0.08316859 -4.034764e-06 0)
(0.084484795 4.0255495e-06 0)
(0.083248509 -3.7578955e-06 0)
(0.084409633 3.6593828e-06 0)
(0.083318298 -3.3851636e-06 0)
(0.084343252 3.2331647e-06 0)
(0.083380449 -3.025042e-06 0)
(0.084284455 2.8661043e-06 0)
(0.083435748 -2.6969254e-06 0)
(0.084232243 2.5487471e-06 0)
(0.083484964 -2.404671e-06 0)
(0.084185781 2.2717896e-06 0)
(0.08352882 -2.1466963e-06 0)
(0.084144353 2.0292782e-06 0)
(0.083567975 -1.9199968e-06 0)
(0.084107327 1.816935e-06 0)
(0.083603015 -1.7214209e-06 0)
(0.084074146 1.6313568e-06 0)
(0.083634466 -1.5480647e-06 0)
(0.084044314 1.4696982e-06 0)
(0.083662795 -1.397362e-06 0)
(0.084017389 1.3295324e-06 0)
(0.08368842 -1.2670809e-06 0)
(0.083992973 1.2087767e-06 0)
(0.083711719 -1.1552935e-06 0)
(0.083970709 1.105643e-06 0)
(0.083733032 -1.060343e-06 0)
(0.083950271 1.0185995e-06 0)
(0.083752672 -9.8081056e-07 0)
(0.08393136 9.4633254e-07 0)
(0.083770925 -9.1549153e-07 0)
(0.083913699 8.8768144e-07 0)
(0.083788059 -8.6331055e-07 0)
(0.083897032 8.4191441e-07 0)
(0.083804325 -8.218472e-07 0)
(0.083881105 8.1080604e-07 0)
(0.083819934 -7.9146596e-07 0)
(0.083865639 7.5171646e-07 0)
(0.083835237 -9.7887142e-07 0)
(0.08385121 6.6581464e-07 0)
(0.080239648 0.0078897186 0)
(0.085323436 -0.0008121946 0)
(0.085256579 0.00039352102 0)
(0.087650666 -2.5283493e-05 0)
(0.085645308 -8.4451767e-06 0)
(0.087956207 5.081918e-06 0)
(0.085924225 5.7727969e-06 0)
(0.087823128 6.5537797e-07 0)
(0.086115332 -2.6976073e-06 0)