/*--------------------------------*- C++ -*----------------------------------*\
| =========                 |                                                 |
| \\      /  F ield         | OpenFOAM: The Open Source CFD Toolbox           |
|  \\    /   O peration     | Version:  2312                                  |
|   \\  /    A nd           | Website:  www.openfoam.com                      |
|    \\/     M anipulation  |                                                 |
\*---------------------------------------------------------------------------*/
FoamFile
{
    version     2.0;
    format      ascii;
    arch        "LSB;label=32;scalar=64";
    class       volVectorField;
    location    "7";
    object      U_0;
}
// * * * * * * * * * * * * * * * * * * * * * * * * * * * * * * * * * * * * * //

dimensions      [0 1 -1 0 0 0 0];

internalField   nonuniform List<vector> 
4000
(
(0.0025579713 0.00050236447 0)
(0.0042998359 -1.109869e-05 0)
(0.0028677822 -4.9833398e-07 0)
(0.0031114357 6.5133356e-08 0)
(0.0030044397 -2.0414001e-07 0)
(0.0030581423 1.9040684e-07 0)
(0.002996858 -2.1603911e-07 0)
(0.0030399561 1.8480882e-07 0)
(0.0029991126 -1.7721649e-07 0)
(0.0030353052 1.6551171e-07 0)
(0.0030014287 -1.559168e-07 0)
(0.0030328352 1.465201e-07 0)
(0.0030032911 -1.3811326e-07 0)
(0.0030309419 1.2995766e-07 0)
(0.0030049279 -1.2249052e-07 0)
(0.0030293295 1.1536459e-07 0)
(0.0030064013 -1.0873794e-07 0)
(0.0030279131 1.0248926e-07 0)
(0.0030077209 -9.6643271e-08 0)
(0.0030266589 9.1162067e-08 0)
(0.0030088973 -8.6024419e-08 0)
(0.0030255456 8.1220503e-08 0)
(0.0030099444 -7.6716223e-08 0)
(0.0030245556 7.2511215e-08 0)
(0.0030108771 -6.8569899e-08 0)
(0.0030236733 6.4895244e-08 0)
(0.0030117096 -6.1453919e-08 0)
(0.0030228847 5.825014e-08 0)
(0.0030124551 -5.5253915e-08 0)
(0.0030221773 5.2469899e-08 0)
(0.0030131252 -4.9871615e-08 0)
(0.00302154 4.7463764e-08 0)
(0.0030137304 -4.5223247e-08 0)
(0.0030209629 4.315457e-08 0)
(0.0030142801 -4.1237793e-08 0)
(0.0030204372 3.9477066e-08 0)
(0.0030147824 -3.7855385e-08 0)
(0.0030199551 3.637644e-08 0)
(0.0030152448 -3.5025973e-08 0)
(0.0030195095 3.3807165e-08 0)
(0.0030156743 -3.2708335e-08 0)
(0.0030190938 3.1732298e-08 0)
(0.003016077 -3.0869651e-08 0)
(0.0030187018 3.0122702e-08 0)
(0.0030164581 -2.9488582e-08 0)
(0.0030183268 2.8952821e-08 0)
(0.0030168254 -2.8560117e-08 0)
(0.0030179884 2.8263074e-08 0)
(0.0030172953 -2.7727335e-08 0)
(0.0030180171 3.0119015e-08 0)
(0.0067068896 0.0013585693 0)
(0.011831814 4.9659744e-07 0)
(0.0085703144 1.4391748e-05 0)
(0.0089790469 -5.4085206e-07 0)
(0.0087194782 -2.0346478e-07 0)
(0.0088771376 8.7029885e-07 0)
(0.0086987137 -4.9079676e-07 0)
(0.0088251638 6.6246338e-07 0)
(0.0087046076 -5.9062667e-07 0)
(0.0088122213 5.8334964e-07 0)
(0.0087115819 -5.4619245e-07 0)
(0.0088050708 5.2052652e-07 0)
(0.0087171542 -4.8854586e-07 0)
(0.0087994673 4.6213783e-07 0)
(0.0087220466 -4.3446793e-07 0)
(0.0087946692 4.0998115e-07 0)
(0.0087264455 -3.860338e-07 0)
(0.0087904531 3.6411591e-07 0)
(0.0087303806 -3.4324152e-07 0)
(0.0087867211 3.2387503e-07 0)
(0.0087338866 -3.056165e-07 0)
(0.0087834082 2.885955e-07 0)
(0.0087370078 -2.7261357e-07 0)
(0.008780461 2.5769599e-07 0)
(0.0087397894 -2.4371671e-07 0)
(0.0087778325 2.3067158e-07 0)
(0.0087422743 -2.1846477e-07 0)
(0.0087754809 2.0708613e-07 0)
(0.0087445014 -1.9645613e-07 0)
(0.0087733692 1.8656538e-07 0)
(0.0087465055 -1.7734569e-07 0)
(0.0087714646 1.6878986e-07 0)
(0.0087483176 -1.6083899e-07 0)
(0.0087697379 1.5348792e-07 0)
(0.0087499652 -1.4668589e-07 0)
(0.008768163 1.4042933e-07 0)
(0.0087514729 -1.3467484e-07 0)
(0.0087667164 1.2941997e-07 0)
(0.0087528632 -1.2462814e-07 0)
(0.008765377 1.2029753e-07 0)
(0.0087541564 -1.1639842e-07 0)
(0.008764125 1.1292884e-07 0)
(0.0087553716 -1.098636e-07 0)
(0.0087629417 1.0721565e-07 0)
(0.0087565251 -1.0491726e-07 0)
(0.0087618059 1.0305211e-07 0)
(0.0087576331 -1.0179661e-07 0)
(0.0087607414 9.9082973e-08 0)
(0.0087589419 -1.0455489e-07 0)
(0.0087606017 9.5551293e-08 0)
(0.011173265 0.0022646587 0)
(0.018754743 -1.7627067e-05 0)
(0.014112008 3.4537356e-05 0)
(0.0146891 -7.3644463e-07 0)
(0.014283347 -1.8018633e-07 0)
(0.014547485 1.7037631e-06 0)
(0.01425026 -7.1462795e-07 0)
(0.014464247 1.21357e-06 0)
(0.014260865 -1.0544573e-06 0)
(0.01444337 1.0600966e-06 0)
(0.01427294 -9.9191809e-07 0)
(0.014431449 9.4933768e-07 0)
(0.014282444 -8.8983679e-07 0)
(0.014421985 8.4317714e-07 0)
(0.014290765 -7.9198399e-07 0)
(0.014413856 7.4780925e-07 0)
(0.014298236 -7.0388015e-07 0)
(0.014406711 6.6405782e-07 0)
(0.014304911 -6.2592611e-07 0)
(0.014400387 5.9065209e-07 0)
(0.014310855 -5.5735317e-07 0)
(0.014394774 5.263227e-07 0)
(0.014316147 -4.971907e-07 0)
(0.01438978 4.6998409e-07 0)
(0.014320864 -4.4450411e-07 0)
(0.014385324 4.2070698e-07 0)
(0.014325079 -3.9845515e-07 0)
(0.014381336 3.7769442e-07 0)
(0.014328859 -3.5831365e-07 0)
(0.014377753 3.4026485e-07 0)
(0.014332261 -3.234523e-07 0)
(0.01437452 3.0783724e-07 0)
(0.014335339 -2.9333575e-07 0)
(0.014371587 2.7991745e-07 0)
(0.014338139 -2.6750888e-07 0)
(0.014368911 2.5608634e-07 0)
(0.014340703 -2.4558622e-07 0)
(0.014366451 2.3598992e-07 0)
(0.014343068 -2.2724332e-07 0)
(0.014364173 2.1933131e-07 0)
(0.01434527 -2.1221013e-07 0)
(0.014362041 2.0586519e-07 0)
(0.01434734 -2.002599e-07 0)
(0.014360024 1.9541309e-07 0)
(0.014349308 -1.9117193e-07 0)
(0.014358087 1.8779682e-07 0)
(0.014351198 -1.8541649e-07 0)
(0.014356245 1.7988299e-07 0)
(0.014353357 -1.9354515e-07 0)
(0.014355804 1.731266e-07 0)
(0.014859377 0.0028636002 0)
(0.025351389 -4.299099e-05 0)
(0.019507525 6.3152877e-05 0)
(0.02024268 -1.0065446e-06 0)
(0.019696992 6.853351e-08 0)
(0.020068466 2.634733e-06 0)
(0.01965147 -7.5801161e-07 0)
(0.01995742 1.7449661e-06 0)
(0.019667775 -1.480221e-06 0)
(0.01992893 1.5145185e-06 0)
(0.019685374 -1.4176287e-06 0)
(0.019912136 1.3625962e-06 0)
(0.019699035 -1.275607e-06 0)
(0.019898649 1.210861e-06 0)
(0.019710966 -1.1363154e-06 0)
(0.019887032 1.0736215e-06 0)
(0.019721661 -1.0102057e-06 0)
(0.019876817 9.5326136e-07 0)
(0.01973121 -8.9845055e-07 0)
(0.019867777 8.4787712e-07 0)
(0.01973971 -8.0009133e-07 0)
(0.019859752 7.5555755e-07 0)
(0.019747276 -7.1377166e-07 0)
(0.019852611 6.7470834e-07 0)
(0.019754021 -6.3816168e-07 0)
(0.019846238 6.0398492e-07 0)
(0.01976005 -5.7206402e-07 0)
(0.019840534 5.4224254e-07 0)
(0.019765457 -5.1443515e-07 0)
(0.019835407 4.8850536e-07 0)
(0.019770326 -4.6437847e-07 0)
(0.01983078 4.419423e-07 0)
(0.019774732 -4.2112843e-07 0)
(0.019826583 4.018464e-07 0)
(0.01977874 -3.8403367e-07 0)
(0.019822751 3.6761749e-07 0)
(0.019782411 -3.5254181e-07 0)
(0.01981923 3.3874795e-07 0)
(0.019785797 -3.2618716e-07 0)
(0.019815967 3.1481119e-07 0)
(0.019788951 -3.0458137e-07 0)
(0.019812913 2.9545322e-07 0)
(0.019791917 -2.8739537e-07 0)
(0.019810024 2.8042217e-07 0)
(0.019794737 -2.7427862e-07 0)
(0.019807247 2.6949031e-07 0)
(0.019797446 -2.6598008e-07 0)
(0.019804584 2.572132e-07 0)
(0.019800463 -2.8232279e-07 0)
(0.019803703 2.4773732e-07 0)
(0.019719271 0.0038579684 0)
(0.031482256 -6.5296496e-05 0)
(0.024717281 9.6113081e-05 0)
(0.025645619 -1.6848919e-06 0)
(0.024959819 5.1167081e-07 0)
(0.025439212 3.6258789e-06 0)
(0.024902255 -6.3078499e-07 0)
(0.025304539 2.2286141e-06 0)
(0.024925479 -1.8518059e-06 0)
(0.025268753 1.9260487e-06 0)
(0.024949003 -1.8059443e-06 0)
(0.025247002 1.7429905e-06 0)
(0.024967028 -1.6298803e-06 0)
(0.025229346 1.5499384e-06 0)
(0.024982734 -1.4531732e-06 0)
(0.0252141 1.373923e-06 0)
(0.024996796 -1.2923044e-06 0)
(0.025200688 1.2197587e-06 0)
(0.02500934 -1.1495178e-06 0)
(0.025188818 1.0849111e-06 0)
(0.025020504 -1.0237724e-06 0)
(0.025178281 9.668205e-07 0)
(0.02503044 -9.1338327e-07 0)
(0.025168902 8.634028e-07 0)
(0.025039299 -8.1666641e-07 0)
(0.025160532 7.7292582e-07 0)
(0.025047219 -7.320992e-07 0)
(0.025153038 6.9392519e-07 0)
(0.025054323 -6.5835348e-07 0)
(0.025146303 6.2515624e-07 0)
(0.025060721 -5.9428755e-07 0)
(0.025140223 5.6555978e-07 0)
(0.02506651 -5.3892598e-07 0)
(0.025134707 5.142344e-07 0)
(0.025071777 -4.9143788e-07 0)
(0.025129673 4.7041407e-07 0)
(0.0250766 -4.5111776e-07 0)
(0.025125046 4.3345011e-07 0)
(0.02508105 -4.1737001e-07 0)
(0.025120758 4.0279633e-07 0)
(0.025085192 -3.8969721e-07 0)
(0.025116747 3.779978e-07 0)
(0.025089089 -3.6767468e-07 0)
(0.025112952 3.5873854e-07 0)
(0.025092794 -3.5081134e-07 0)
(0.025109304 3.4477346e-07 0)
(0.025096352 -3.4013473e-07 0)
(0.025105788 3.2801291e-07 0)
(0.025100239 -3.6687439e-07 0)
(0.025104347 3.1620219e-07 0)
(0.022671404 0.0040740545 0)
(0.037242016 -0.00011606177 0)
(0.029782495 0.00013466563 0)
(0.030900197 -2.7186971e-06 0)
(0.03007119 1.1785763e-06 0)
(0.030659446 4.69754e-06 0)
(0.030002948 -3.5964048e-07 0)
(0.030505269 2.6616415e-06 0)
(0.030034401 -2.1741741e-06 0)
(0.030462487 2.2956339e-06 0)
(0.03006418 -2.1593387e-06 0)
(0.030435731 2.0921338e-06 0)
(0.030086725 -1.9544518e-06 0)
(0.030413802 1.8619202e-06 0)
(0.030106334 -1.7440757e-06 0)
(0.030394818 1.6500915e-06 0)
(0.030123871 -1.5515156e-06 0)
(0.030378111 1.4647924e-06 0)
(0.030139505 -1.3803158e-06 0)
(0.030363323 1.3028637e-06 0)
(0.030153415 -1.2294497e-06 0)
(0.030350195 1.1610982e-06 0)
(0.030165796 -1.0969597e-06 0)
(0.030338509 1.0369444e-06 0)
(0.030176836 -9.8084871e-07 0)
(0.030328077 9.2831093e-07 0)
(0.030186707 -8.7930173e-07 0)
(0.030318736 8.3344138e-07 0)
(0.030195562 -7.9073325e-07 0)
(0.03031034 7.5084638e-07 0)
(0.030203538 -7.137792e-07 0)
(0.030302761 6.7925898e-07 0)
(0.030210754 -6.4727293e-07 0)
(0.030295885 6.1760031e-07 0)
(0.030217319 -5.9021949e-07 0)
(0.03028961 5.6495248e-07 0)
(0.030223331 -5.4177296e-07 0)
(0.030283843 5.2053718e-07 0)
(0.030228876 -5.0121808e-07 0)
(0.030278501 4.8369786e-07 0)
(0.030234038 -4.6795666e-07 0)
(0.030273503 4.5388541e-07 0)
(0.030238891 -4.4147428e-07 0)
(0.030268777 4.3072652e-07 0)
(0.030243507 -4.2112871e-07 0)
(0.030264236 4.1398908e-07 0)
(0.030247936 -4.0819967e-07 0)
(0.030259842 3.926934e-07 0)
(0.030252699 -4.4696679e-07 0)
(0.03025774 3.7839413e-07 0)
(0.027830485 0.0051612462 0)
(0.042595564 -0.00013436596 0)
(0.034666899 0.00017560343 0)
(0.036004265 -4.6313685e-06 0)
(0.035028377 1.9847304e-06 0)
(0.035728539 5.8008713e-06 0)
(0.034953707 1.4312178e-08 0)
(0.03555916 3.0371562e-06 0)
(0.034994936 -2.4541044e-06 0)
(0.035509746 2.6246456e-06 0)
(0.035031255 -2.4812129e-06 0)
(0.035477993 2.4122897e-06 0)
(0.035058436 -2.2518121e-06 0)
(0.035451724 2.1489267e-06 0)
(0.035082037 -2.0111224e-06 0)
(0.03542893 1.9040455e-06 0)
(0.035103125 -1.7896815e-06 0)
(0.035408861 1.6900803e-06 0)
(0.035121914 -1.5924739e-06 0)
(0.035391094 1.5032642e-06 0)
(0.03513863 -1.4185676e-06 0)
(0.035375319 1.3397502e-06 0)
(0.035153508 -1.2657843e-06 0)
(0.035361275 1.1965435e-06 0)
(0.035166777 -1.1318523e-06 0)
(0.035348737 1.0712212e-06 0)
(0.035178643 -1.0146947e-06 0)
(0.035337507 9.6176031e-07 0)
(0.035189288 -9.1249394e-07 0)
(0.035327413 8.6644898e-07 0)
(0.035198876 -8.2368399e-07 0)
(0.035318302 7.8383095e-07 0)
(0.035207552 -7.4692398e-07 0)
(0.035310036 7.126652e-07 0)
(0.035215444 -6.8106878e-07 0)
(0.035302493 6.5189461e-07 0)
(0.035222669 -6.2514351e-07 0)
(0.035295562 6.0062164e-07 0)
(0.035229333 -5.783226e-07 0)
(0.035289143 5.580877e-07 0)
(0.035235534 -5.3991448e-07 0)
(0.035283139 5.236555e-07 0)
(0.035241365 -5.0932046e-07 0)
(0.035277462 4.9689955e-07 0)
(0.035246908 -4.8573787e-07 0)
(0.035272011 4.7763014e-07 0)
(0.035252226 -4.7065351e-07 0)
(0.035266723 4.5182126e-07 0)
(0.035257866 -5.2257055e-07 0)
(0.035263876 4.3454874e-07 0)
(0.03035491 0.0051352328 0)
(0.047470309 -0.00021286557 0)
(0.039417557 0.00021409416 0)
(0.040946646 -5.0553975e-06 0)
(0.039833778 3.3944659e-06 0)
(0.040647406 7.0171859e-06 0)
(0.039755415 4.893828e-07 0)
(0.040466062 3.3527852e-06 0)
(0.039807541 -2.6924562e-06 0)
(0.040410238 2.9129984e-06 0)
(0.039850552 -2.7720998e-06 0)
(0.040373504 2.7036157e-06 0)
(0.039882432 -2.5222128e-06 0)
(0.040342862 2.4110755e-06 0)
(0.039910081 -2.2544741e-06 0)
(0.040316215 2.1358988e-06 0)
(0.039934766 -2.006928e-06 0)
(0.040292742 1.8957279e-06 0)
(0.039956753 -1.7860951e-06 0)
(0.040271959 1.6862042e-06 0)
(0.039976311 -1.5912109e-06 0)
(0.040253502 1.5028539e-06 0)
(0.039993721 -1.4199276e-06 0)
(0.040237067 1.3422654e-06 0)
(0.04000925 -1.2697367e-06 0)
(0.040222392 1.2017126e-06 0)
(0.040023138 -1.13833e-06 0)
(0.040209247 1.0789314e-06 0)
(0.040035599 -1.0236819e-06 0)
(0.040197431 9.7200884e-07 0)
(0.040046822 -9.2404459e-07 0)
(0.040186765 8.7931739e-07 0)
(0.040056977 -8.3791937e-07 0)
(0.040177089 7.9946878e-07 0)
(0.040066215 -7.6402455e-07 0)
(0.040168261 7.3127907e-07 0)
(0.04007467 -7.0126753e-07 0)
(0.040160151 6.7374173e-07 0)
(0.040082469 -6.4872172e-07 0)
(0.040152639 6.2600451e-07 0)
(0.040089724 -6.0560968e-07 0)
(0.040145616 5.8734804e-07 0)
(0.040096543 -5.7125426e-07 0)
(0.040138978 5.5729944e-07 0)
(0.040103025 -5.4468622e-07 0)
(0.040132606 5.3574052e-07 0)
(0.040109243 -5.2754625e-07 0)
(0.040126415 5.0552139e-07 0)
(0.04011576 -5.9332378e-07 0)
(0.04012275 4.8463302e-07 0)
(0.03553294 0.0061230454 0)
(0.05198824 -0.00022944536 0)
(0.04403752 0.00025053044 0)
(0.045675638 -6.1845295e-06 0)
(0.044477376 4.6188456e-06 0)
(0.045414039 8.1807617e-06 0)
(0.044408118 1.0172702e-06 0)
(0.045225605 3.593762e-06 0)
(0.044472529 -2.8925027e-06 0)
(0.045163683 3.1590391e-06 0)
(0.044522338 -3.0322001e-06 0)
(0.045122018 2.9655449e-06 0)
(0.044558946 -2.7653698e-06 0)
(0.045086997 2.6479176e-06 0)
(0.044590671 -2.4737794e-06 0)
(0.045056481 2.3452713e-06 0)
(0.044618977 -2.2029172e-06 0)
(0.045029586 2.081401e-06 0)
(0.04464418 -1.9608663e-06 0)
(0.045005767 1.8513823e-06 0)
(0.044666599 -1.7470924e-06 0)
(0.044984609 1.6501355e-06 0)
(0.044686558 -1.5591275e-06 0)
(0.044965766 1.4738617e-06 0)
(0.044704363 -1.3942643e-06 0)
(0.044948939 1.3195605e-06 0)
(0.044720288 -1.2499929e-06 0)
(0.044933865 1.1847519e-06 0)
(0.044734579 -1.1241037e-06 0)
(0.044920314 1.0673433e-06 0)
(0.04474745 -1.014687e-06 0)
(0.044908081 9.6555383e-07 0)
(0.044759096 -9.2010238e-07 0)
(0.044896986 8.7786274e-07 0)
(0.044769689 -8.3894536e-07 0)
(0.044886863 8.0297175e-07 0)
(0.044779384 -7.7001696e-07 0)
(0.044877564 7.3977574e-07 0)
(0.044788324 -7.1229901e-07 0)
(0.044868953 6.8733737e-07 0)
(0.044796639 -6.6493596e-07 0)
(0.044860904 6.4486173e-07 0)
(0.044804454 -6.2717862e-07 0)
(0.044853298 6.1183306e-07 0)
(0.044811881 -5.978883e-07 0)
(0.044846001 5.8823281e-07 0)
(0.044819004 -5.7880331e-07 0)
(0.044838903 5.5377827e-07 0)
(0.044826394 -6.5879326e-07 0)
(0.044834363 5.285921e-07 0)
(0.038256232 0.0060245099 0)
(0.056004193 -0.00033572293 0)
(0.048614718 0.0002920389 0)
(0.050174797 -9.0425333e-06 0)
(0.048953078 5.0287509e-06 0)
(0.050027994 9.2091989e-06 0)
(0.048912135 1.5618143e-06 0)
(0.049837574 3.7517519e-06 0)
(0.048990206 -3.0559345e-06 0)
(0.049769846 3.3622855e-06 0)
(0.049046855 -3.2616914e-06 0)
(0.049723317 3.1979019e-06 0)
(0.049088186 -2.9811901e-06 0)
(0.049683937 2.8592544e-06 0)
(0.049123989 -2.668891e-06 0)
(0.049649557 2.5319874e-06 0)
(0.049155916 -2.3774963e-06 0)
(0.04961924 2.246942e-06 0)
(0.049184338 -2.1166388e-06 0)
(0.049592384 1.9986527e-06 0)
(0.04920962 -1.8860711e-06 0)
(0.049568523 1.7814596e-06 0)
(0.049232132 -1.6832528e-06 0)
(0.049547269 1.5912075e-06 0)
(0.049252216 -1.5053146e-06 0)
(0.049528286 1.4246506e-06 0)
(0.049270182 -1.3495737e-06 0)
(0.04951128 1.2791183e-06 0)
(0.049286304 -1.2136604e-06 0)
(0.04949599 1.1523592e-06 0)
(0.049300826 -1.095522e-06 0)
(0.049482189 1.0424564e-06 0)
(0.049313965 -9.9339295e-07 0)
(0.049469671 9.4777156e-07 0)
(0.049325915 -9.0575912e-07 0)
(0.049458251 8.6690453e-07 0)
(0.049336851 -8.3132671e-07 0)
(0.049447763 7.9866204e-07 0)
(0.049346934 -7.6899553e-07 0)
(0.049438051 7.4203037e-07 0)
(0.049356312 -7.1783979e-07 0)
(0.049428975 6.9614583e-07 0)
(0.049365123 -6.7704507e-07 0)
(0.0494204 6.6045409e-07 0)
(0.049373496 -6.4530341e-07 0)
(0.049412178 6.3506204e-07 0)
(0.049381524 -6.2439414e-07 0)
(0.049404176 5.9660326e-07 0)
(0.049389779 -7.1862768e-07 0)
(0.049398712 5.6646296e-07 0)
(0.043574268 0.0068666432 0)
(0.059842254 -0.00034543322 0)
(0.053009764 0.0003304872 0)
(0.054518111 -1.1283222e-05 0)
(0.053268989 4.6592434e-06 0)
(0.054490952 9.9778103e-06 0)
(0.053268482 2.0980345e-06 0)
(0.054301949 3.8169766e-06 0)
(0.0533609 -3.184896e-06 0)
(0.05422854 3.5224569e-06 0)
(0.053424323 -3.4610918e-06 0)
(0.054177214 3.4007851e-06 0)
(0.053470338 -3.1698489e-06 0)
(0.05413351 3.0451375e-06 0)
(0.053510197 -2.8398959e-06 0)
(0.05409529 2.6960914e-06 0)
(0.053545729 -2.5307189e-06 0)
(0.05406157 2.3923868e-06 0)
(0.053577355 -2.2534468e-06 0)
(0.05403169 2.1280414e-06 0)
(0.053605488 -2.0081689e-06 0)
(0.054005137 1.8968442e-06 0)
(0.053630541 -1.792318e-06 0)
(0.053981482 1.6943155e-06 0)
(0.053652896 -1.6028977e-06 0)
(0.053960351 1.5169928e-06 0)
(0.053672895 -1.4370805e-06 0)
(0.053941419 1.3620387e-06 0)
(0.053690843 -1.2923589e-06 0)
(0.053924398 1.2270636e-06 0)
(0.05370701 -1.1665563e-06 0)
(0.053909033 1.1100319e-06 0)
(0.053721636 -1.0577975e-06 0)
(0.053895098 1.0092021e-06 0)
(0.053734938 -9.6447234e-07 0)
(0.053882386 9.2308429e-07 0)
(0.053747111 -8.8520349e-07 0)
(0.053870712 8.5040772e-07 0)
(0.053758333 -8.1881832e-07 0)
(0.053859905 7.9009099e-07 0)
(0.053768768 -7.6432875e-07 0)
(0.053849806 7.4120858e-07 0)
(0.053778571 -7.2086221e-07 0)
(0.053840266 7.0317164e-07 0)
(0.053787885 -6.8694447e-07 0)
(0.053831123 6.7623522e-07 0)
(0.053796815 -6.6434129e-07 0)
(0.053822222 6.3404795e-07 0)
(0.053805925 -7.7256419e-07 0)
(0.053815799 5.9836545e-07 0)
(0.046601272 0.0067920645 0)
(0.063251127 -0.00045622376 0)
(0.057169683 0.00035494316 0)
(0.058770974 -1.2298356e-05 0)
(0.057429911 3.7231321e-06 0)
(0.058804496 1.0479319e-05 0)
(0.057477819 2.6190787e-06 0)
(0.058618616 3.7913459e-06 0)
(0.057584833 -3.2786543e-06 0)
(0.058539565 3.640514e-06 0)
(0.05765492 -3.6308009e-06 0)
(0.058483531 3.574534e-06 0)
(0.057705563 -3.331649e-06 0)
(0.058435562 3.2057671e-06 0)
(0.057749441 -2.9870122e-06 0)
(0.058393544 2.8377551e-06 0)
(0.057788543 -2.6627561e-06 0)
(0.058356453 2.5178837e-06 0)
(0.057823344 -2.3714294e-06 0)
(0.058323577 2.2396748e-06 0)
(0.057854303 -2.1135024e-06 0)
(0.058294357 1.9963977e-06 0)
(0.057881876 -1.886423e-06 0)
(0.05826832 1.78328e-06 0)
(0.057906482 -1.6871011e-06 0)
(0.058245059 1.5966699e-06 0)
(0.057928498 -1.5125908e-06 0)
(0.058224217 1.4335871e-06 0)
(0.057948256 -1.3602689e-06 0)
(0.058205478 1.2915234e-06 0)
(0.057966053 -1.227853e-06 0)
(0.058188564 1.1683411e-06 0)
(0.057982155 -1.1133737e-06 0)
(0.058173223 1.0622098e-06 0)
(0.057996798 -1.0151381e-06 0)
(0.05815923 9.7156232e-07 0)
(0.058010196 -9.3169649e-07 0)
(0.058146381 8.9506051e-07 0)
(0.058022547 -8.6181346e-07 0)
(0.058134487 8.3156419e-07 0)
(0.058034031 -8.0444657e-07 0)
(0.058123374 7.8009311e-07 0)
(0.058044818 -7.5867237e-07 0)
(0.058112878 7.4002776e-07 0)
(0.058055064 -7.2285611e-07 0)
(0.058102824 7.1179042e-07 0)
(0.058064889 -6.9869929e-07 0)
(0.058093034 6.6618641e-07 0)
(0.058074841 -8.2040708e-07 0)
(0.058085625 6.2447461e-07 0)
(0.051566486 0.0073664752 0)
(0.066565929 -0.00046852511 0)
(0.061097734 0.00038215601 0)
(0.062939699 -1.2385717e-05 0)
(0.061439244 2.8986192e-06 0)
(0.062969684 1.0717148e-05 0)
(0.061540756 3.1386249e-06 0)
(0.06278748 3.6816415e-06 0)
(0.061662207 -3.3353118e-06 0)
(0.062702747 3.7178388e-06 0)
(0.061738803 -3.771306e-06 0)
(0.06264211 3.719563e-06 0)
(0.061794006 -3.467026e-06 0)
(0.062589953 3.3414246e-06 0)
(0.06184185 -3.1105623e-06 0)
(0.062544195 2.9572337e-06 0)
(0.061884476 -2.773866e-06 0)
(0.062503781 2.6236592e-06 0)
(0.061922408 -2.4708025e-06 0)
(0.06246795 2.3337506e-06 0)
(0.061956156 -2.2022569e-06 0)
(0.062436096 2.0802933e-06 0)
(0.061986217 -1.9657298e-06 0)
(0.062407708 1.8582537e-06 0)
(0.062013046 -1.7580681e-06 0)
(0.062382344 1.6638181e-06 0)
(0.062037051 -1.5762328e-06 0)
(0.062359616 1.4938857e-06 0)
(0.062058597 -1.4175057e-06 0)
(0.062339182 1.3458487e-06 0)
(0.062078005 -1.2795164e-06 0)
(0.062320737 1.2174838e-06 0)
(0.062095562 -1.1602164e-06 0)
(0.062304009 1.1068858e-06 0)
(0.062111528 -1.057843e-06 0)
(0.062288752 1.012422e-06 0)
(0.062126137 -9.7088557e-07 0)
(0.062274742 9.3269749e-07 0)
(0.062139603 -8.9805513e-07 0)
(0.062261775 8.6652197e-07 0)
(0.062152122 -8.3826299e-07 0)
(0.062249661 8.1286762e-07 0)
(0.062163879 -7.9054214e-07 0)
(0.062238221 7.7108805e-07 0)
(0.062175046 -7.5310554e-07 0)
(0.062227268 7.417879e-07 0)
(0.062185754 -7.2754519e-07 0)
(0.062216604 6.9310766e-07 0)
(0.062196533 -8.6201659e-07 0)
(0.06220819 6.4500466e-07 0)
(0.05485881 0.0073387247 0)
(0.06952361 -0.00058053819 0)
(0.064866342 0.00039766284 0)
(0.066977954 -1.3403243e-05 0)
(0.065302227 2.2637975e-06 0)
(0.066986774 1.0657573e-05 0)
(0.0654577 3.6493403e-06 0)
(0.066808497 3.489054e-06 0)
(0.065593259 -3.3536113e-06 0)
(0.066717971 3.7560981e-06 0)
(0.065676131 -3.8829684e-06 0)
(0.066652821 3.8365095e-06 0)
(0.065735798 -3.5764358e-06 0)
(0.066596563 3.4525148e-06 0)
(0.065787539 -3.2109351e-06 0)
(0.066547135 3.0548721e-06 0)
(0.065833628 -2.8643784e-06 0)
(0.066503458 2.710015e-06 0)
(0.065874639 -2.5518499e-06 0)
(0.066464721 2.4105337e-06 0)
(0.065911129 -2.2746804e-06 0)
(0.066430278 2.1487644e-06 0)
(0.065943635 -2.0304574e-06 0)
(0.066399579 1.9194441e-06 0)
(0.065972649 -1.8159939e-06 0)
(0.066372147 1.7186228e-06 0)
(0.065998611 -1.6281813e-06 0)
(0.066347566 1.5431007e-06 0)
(0.066021914 -1.4642266e-06 0)
(0.066325465 1.3901894e-06 0)
(0.066042905 -1.3216886e-06 0)
(0.066305515 1.2575957e-06 0)
(0.066061894 -1.1984546e-06 0)
(0.066287422 1.1433534e-06 0)
(0.066079162 -1.0927049e-06 0)
(0.066270921 1.0457763e-06 0)
(0.066094961 -1.0028789e-06 0)
(0.066255771 9.6342281e-07 0)
(0.066109522 -9.2764351e-07 0)
(0.066241749 8.9506122e-07 0)
(0.066123059 -8.6587173e-07 0)
(0.06622865 8.3962347e-07 0)
(0.06613577 -8.1656042e-07 0)
(0.066216283 7.964399e-07 0)
(0.066147842 -7.7778072e-07 0)
(0.066204447 7.6630841e-07 0)
(0.066159419 -7.5097623e-07 0)
(0.066192925 7.1491482e-07 0)
(0.066171006 -8.973042e-07 0)
(0.066183496 6.6019951e-07 0)
(0.0597128 0.0077233003 0)
(0.072481875 -0.00058628383 0)
(0.068522095 0.00041179462 0)
(0.070835532 -1.5354883e-05 0)
(0.069024624 1.5811033e-06 0)
(0.070855196 1.0198232e-05 0)
(0.069228757 4.1151028e-06 0)
(0.070681579 3.2017363e-06 0)
(0.069378182 -3.3375637e-06 0)
(0.070585139 3.7552246e-06 0)
(0.069467045 -3.9669187e-06 0)
(0.070515551 3.9258246e-06 0)
(0.069531056 -3.6605278e-06 0)
(0.070455284 3.5394759e-06 0)
(0.069586612 -3.288619e-06 0)
(0.070402268 3.131079e-06 0)
(0.069636092 -2.9347e-06 0)
(0.070355396 2.777318e-06 0)
(0.069680118 -2.6149221e-06 0)
(0.070313816 2.4703497e-06 0)
(0.069719292 -2.3310804e-06 0)
(0.070276837 2.2021006e-06 0)
(0.069754193 -2.0808787e-06 0)
(0.070243874 1.9671093e-06 0)
(0.069785347 -1.8611219e-06 0)
(0.070214417 1.7613147e-06 0)
(0.069813226 -1.6686545e-06 0)
(0.07018802 1.5814396e-06 0)
(0.06983825 -1.5006279e-06 0)
(0.070164285 1.4247324e-06 0)
(0.069860791 -1.3545469e-06 0)
(0.070142862 1.2888459e-06 0)
(0.069881183 -1.2282491e-06 0)
(0.070123433 1.1717663e-06 0)
(0.069899725 -1.1198704e-06 0)
(0.070105714 1.0717657e-06 0)
(0.06991669 -1.0278109e-06 0)
(0.070089446 9.8736577e-07 0)
(0.069932324 -9.5070289e-07 0)
(0.070074391 9.1730204e-07 0)
(0.069946857 -8.8738889e-07 0)
(0.070060329 8.6047353e-07 0)
(0.069960503 -8.3683698e-07 0)
(0.070047053 8.1619094e-07 0)
(0.069973462 -7.9698898e-07 0)
(0.070034351 7.8545191e-07 0)
(0.069985889 -7.6910808e-07 0)
(0.070021992 7.3172456e-07 0)
(0.069998267 -9.2622865e-07 0)
(0.070011545 6.7032476e-07 0)
(0.063288817 0.0077033806 0)
(0.075130763 -0.0006913816 0)
(0.072113152 0.00041555417 0)
(0.074488835 -1.8280477e-05 0)
(0.072610623 5.0130259e-07 0)
(0.074574502 9.4255448e-06 0)
(0.072854281 4.5326267e-06 0)
(0.074406661 2.8213816e-06 0)
(0.073017148 -3.2866987e-06 0)
(0.074304169 3.7169901e-06 0)
(0.073111676 -4.0236378e-06 0)
(0.074230203 3.9883402e-06 0)
(0.073179888 -3.7198792e-06 0)
(0.074166025 3.602887e-06 0)
(0.073239162 -3.3441354e-06 0)
(0.074109508 3.1863482e-06 0)
(0.073291948 -2.9852906e-06 0)
(0.07405952 2.8260012e-06 0)
(0.073338915 -2.6604245e-06 0)
(0.074015165 2.5135813e-06 0)
(0.073380709 -2.3718165e-06 0)
(0.073975712 2.240642e-06 0)
(0.073417947 -2.1173139e-06 0)
(0.07394054 2.0015529e-06 0)
(0.07345119 -1.8937385e-06 0)
(0.073909107 1.7921659e-06 0)
(0.073480939 -1.6979092e-06 0)
(0.073880937 1.6091464e-06 0)
(0.073507643 -1.5269408e-06 0)
(0.07385561 1.4496977e-06 0)
(0.073531696 -1.3783e-06 0)
(0.073832748 1.3114333e-06 0)
(0.073553456 -1.249789e-06 0)
(0.073812015 1.1923052e-06 0)
(0.073573242 -1.1395117e-06 0)
(0.073793108 1.0905553e-06 0)
(0.073591344 -1.0458395e-06 0)
(0.073775749 1.0046782e-06 0)
(0.073608026 -9.6737922e-07 0)
(0.073759686 9.3338533e-07 0)
(0.073623532 -9.0295059e-07 0)
(0.073744683 8.7555006e-07 0)
(0.07363809 -8.5150028e-07 0)
(0.07373052 8.3046702e-07 0)
(0.073651913 -8.1085499e-07 0)
(0.073716975 7.9933571e-07 0)
(0.073665172 -7.8207266e-07 0)
(0.073703801 7.4366599e-07 0)
(0.073678317 -9.4879163e-07 0)
(0.073692339 6.7566052e-07 0)
(0.067968891 0.0079111834 0)
(0.077841635 -0.0006922313 0)
(0.075623887 0.00042042015 0)
(0.077959867 -2.1266134e-05 0)
(0.076061151 -1.2932496e-06 0)
(0.078143912 8.3930254e-06 0)
(0.076334848 4.8937912e-06 0)
(0.077983459 2.3534566e-06 0)
(0.076510189 -3.2002883e-06 0)
(0.07787491 3.6432324e-06 0)
(0.07661009 -4.053771e-06 0)
(0.077796665 4.0247842e-06 0)
(0.076682372 -3.7552444e-06 0)
(0.077728693 3.6433163e-06 0)
(0.076745264 -3.3781095e-06 0)
(0.077668778 3.2212077e-06 0)
(0.076801268 -3.0166802e-06 0)
(0.077615763 2.8565435e-06 0)
(0.076851096 -2.6888184e-06 0)
(0.07756871 2.5406579e-06 0)
(0.076895437 -2.3972962e-06 0)
(0.077526852 2.2647724e-06 0)
(0.076934947 -2.1401261e-06 0)
(0.077489531 2.0231181e-06 0)
(0.07697022 -1.9141683e-06 0)
(0.077456177 1.8114839e-06 0)
(0.077001788 -1.7162367e-06 0)
(0.077426284 1.6264976e-06 0)
(0.077030124 -1.5434271e-06 0)
(0.077399407 1.4653341e-06 0)
(0.077055649 -1.3931842e-06 0)
(0.077375147 1.3255829e-06 0)
(0.077078739 -1.2632885e-06 0)
(0.077353146 1.2051745e-06 0)
(0.077099735 -1.1518239e-06 0)
(0.077333083 1.1023316e-06 0)
(0.077118942 -1.0571434e-06 0)
(0.077314664 1.0155317e-06 0)
(0.077136643 -9.7783751e-07 0)
(0.07729762 9.434703e-07 0)
(0.077153094 -9.1271066e-07 0)
(0.077281702 8.8500235e-07 0)
(0.077168539 -8.6069534e-07 0)
(0.077266677 8.3941009e-07 0)
(0.077183203 -8.1951876e-07 0)
(0.077252312 8.0809257e-07 0)
(0.077197271 -7.90016e-07 0)
(0.077238347 7.5087935e-07 0)
(0.077211161 -9.6503377e-07 0)
(0.07722588 6.7649535e-07 0)
(0.07172121 0.0078836011 0)
(0.080303082 -0.00078676809 0)
(0.079006654 0.00041404231 0)
(0.081296616 -2.3347018e-05 0)
(0.079382878 -3.5918442e-06 0)
(0.081564389 7.2808174e-06 0)
(0.07967232 5.2261384e-06 0)
(0.081411975 1.8216662e-06 0)
(0.079857487 -3.072681e-06 0)
(0.081297303 3.5381178e-06 0)
(0.079962382 -4.0569994e-06 0)
(0.081214854 4.0363874e-06 0)
(0.080038588 -3.7672243e-06 0)
(0.081143215 3.661487e-06 0)
(0.080104991 -3.3911704e-06 0)
(0.081080012 3.2362627e-06 0)
(0.080164114 -3.0294355e-06 0)
(0.081024065 2.8694792e-06 0)
(0.080216713 -2.7006072e-06 0)
(0.080974399 2.5520548e-06 0)
(0.080263523 -2.4079676e-06 0)
(0.080930209 2.2749157e-06 0)
(0.080305234 -2.149715e-06 0)
(0.080890807 2.0321841e-06 0)
(0.080342475 -1.9227692e-06 0)
(0.080855591 1.8196083e-06 0)
(0.080375805 -1.723958e-06 0)
(0.080824029 1.633798e-06 0)
(0.080405723 -1.5503756e-06 0)
(0.08079565 1.4719163e-06 0)
(0.080432673 -1.3994601e-06 0)
(0.080770035 1.331543e-06 0)
(0.080457053 -1.2689837e-06 0)
(0.080746806 1.2105995e-06 0)
(0.08047922 -1.1570218e-06 0)
(0.080725623 1.1073005e-06 0)
(0.080499499 -1.0619195e-06 0)
(0.080706177 1.0201155e-06 0)
(0.080518187 -9.8225954e-07 0)
(0.080688182 9.4773233e-07 0)
(0.080535555 -9.1683852e-07 0)
(0.080671378 8.8899478e-07 0)
(0.080551859 -8.6458178e-07 0)
(0.080655517 8.4317629e-07 0)
(0.080567339 -8.2313382e-07 0)
(0.080640357 8.1186894e-07 0)
(0.08058219 -7.9309634e-07 0)
(0.080625627 7.5351486e-07 0)
(0.0805968 -9.7503077e-07 0)
(0.080612169 6.7312111e-07 0)
(0.076185294 0.0079400118 0)
(0.082881629 -0.00078026225 0)
(0.082214338 0.00040714385 0)
(0.084530409 -2.4143583e-05 0)
(0.082580011 -5.9191508e-06 0)
(0.084835942 6.1721796e-06 0)
(0.082868569 5.5381656e-06 0)
(0.084692099 1.2504972e-06 0)
(0.083059214 -2.9023932e-06 0)
(0.084571318 3.4047655e-06 0)
(0.083168649 -4.0335097e-06 0)
(0.084484709 4.0242164e-06 0)
(0.083248609 -3.756579e-06 0)
(0.084409526 3.6581142e-06 0)
(0.083318403 -3.3840271e-06 0)
(0.084343152 3.232147e-06 0)
(0.08338054 -3.0241778e-06 0)
(0.084284375 2.8653785e-06 0)
(0.083435817 -2.6963379e-06 0)
(0.084232185 2.5482832e-06 0)
(0.08348501 -2.4043163e-06 0)
(0.084185745 2.2715295e-06 0)
(0.083528848 -2.146514e-06 0)
(0.084144333 2.0291602e-06 0)
(0.083567988 -1.9199287e-06 0)
(0.084107319 1.816906e-06 0)
(0.08360302 -1.7214205e-06 0)
(0.084074145 1.6313771e-06 0)
(0.083634465 -1.5480987e-06 0)
(0.084044317 1.469741e-06 0)
(0.083662791 -1.3974095e-06 0)
(0.084017393 1.3295816e-06 0)
(0.083688416 -1.2671297e-06 0)
(0.083992978 1.2088237e-06 0)
(0.083711714 -1.1553378e-06 0)
(0.083970713 1.1056841e-06 0)
(0.083733028 -1.0603808e-06 0)
(0.083950274 1.018634e-06 0)
(0.083752669 -9.808419e-07 0)
(0.083931363 9.46361e-07 0)
(0.083770923 -9.1551734e-07 0)
(0.083913702 8.8770497e-07 0)
(0.083788057 -8.6333206e-07 0)
(0.083897034 8.4193427e-07 0)
(0.083804324 -8.218656e-07 0)
(0.083881106 8.1082343e-07 0)
(0.083819933 -7.914824e-07 0)
(0.083865639 7.5173158e-07 0)
(0.083835237 -9.7889002e-07 0)
(0.08385121 6.6582882e-07 0)
(0.080060844 0.0078898768 0)
(0.085243351 -0.00085917696 0)
(0.085255042 0.00038993374 0)
(0.087651569 -2.5564541e-05 0)
(0.085644933 -8.5291796e-06 0)
(0.087956406 5.0832658e-06 0)
(0.085923974 5.7766112e-06 0)
(0.087823218 6.565455e-07 0)
(0.086115293 -2.6956914e-06 0)