/*--------------------------------*- C++ -*----------------------------------*\
| =========                 |                                                 |
| \\      /  F ield         | OpenFOAM: The Open Source CFD Toolbox           |
|  \\    /   O peration     | Version:  2312                                  |
|   \\  /    A nd           | Website:  www.openfoam.com                      |
|    \\/     M anipulation  |                                                 |
\*---------------------------------------------------------------------------*/
FoamFile
{
    version     2.0;
    format      ascii;
    arch        "LSB;label=32;scalar=64";
    class       volSymmTensorField;
    location    "3";
    object      sigma_0;
}
// * * * * * * * * * * * * * * * * * * * * * * * * * * * * * * * * * * * * * //

dimensions      [0 2 -2 0 0 0 0];

internalField   nonuniform List<symmTensor> 
4000
(
(-0.39082282 -0.20771625 0 -0.070833988 0 0)
(-0.66811817 -0.14915832 0 -3.0214296e-05 0 0)
(-0.5937237 -0.14065826 0 3.5354664e-06 0 0)
(-0.63284983 -0.14530825 0 -2.9530187e-05 0 0)
(-0.6010999 -0.14147756 0 3.2066061e-05 0 0)
(-0.63093053 -0.14508955 0 -2.9384553e-05 0 0)
(-0.60372664 -0.14179516 0 2.8187019e-05 0 0)
(-0.62931482 -0.14489612 0 -2.629487e-05 0 0)
(-0.60541298 -0.14200094 0 2.4738955e-05 0 0)
(-0.62782211 -0.14471692 0 -2.3183987e-05 0 0)
(-0.60682729 -0.14217364 0 2.1754168e-05 0 0)
(-0.62649058 -0.14455693 0 -2.041141e-05 0 0)
(-0.60806372 -0.14232448 0 1.9149303e-05 0 0)
(-0.62531637 -0.14441573 0 -1.79757e-05 0 0)
(-0.60915162 -0.14245707 0 1.6868932e-05 0 0)
(-0.6242828 -0.14429136 0 -1.5841207e-05 0 0)
(-0.61011034 -0.14257379 0 1.4872314e-05 0 0)
(-0.62337276 -0.14418179 0 -1.3972618e-05 0 0)
(-0.61095597 -0.14267666 0 1.3125281e-05 0 0)
(-0.62257077 -0.14408519 0 -1.2338398e-05 0 0)
(-0.61170254 -0.14276739 0 1.1598182e-05 0 0)
(-0.62186318 -0.14399993 0 -1.0910854e-05 0 0)
(-0.61236244 -0.14284752 0 1.0265132e-05 0 0)
(-0.62123796 -0.14392458 0 -9.665777e-06 0 0)
(-0.61294661 -0.1429184 0 9.1035334e-06 0 0)
(-0.62068451 -0.14385788 0 -8.582042e-06 0 0)
(-0.61346475 -0.1429812 0 8.0936872e-06 0 0)
(-0.62019346 -0.1437987 0 -7.6412578e-06 0 0)
(-0.61392545 -0.14303698 0 7.2184636e-06 0 0)
(-0.61975652 -0.14374607 0 -6.8274552e-06 0 0)
(-0.61433636 -0.14308668 0 6.4630126e-06 0 0)
(-0.61936634 -0.1436991 0 -6.126818e-06 0 0)
(-0.6147043 -0.14313112 0 5.8145158e-06 0 0)
(-0.61901638 -0.143657 0 -5.5274515e-06 0 0)
(-0.61503534 -0.14317105 0 5.261973e-06 0 0)
(-0.61870077 -0.14361907 0 -5.0191857e-06 0 0)
(-0.61533499 -0.14320713 0 4.7960206e-06 0 0)
(-0.61841425 -0.14358469 0 -4.5934106e-06 0 0)
(-0.61560817 -0.14323996 0 4.4087818e-06 0 0)
(-0.61815205 -0.14355328 0 -4.2429434e-06 0 0)
(-0.61585942 -0.14327008 0 4.0937537e-06 0 0)
(-0.61790982 -0.14352432 0 -3.9619389e-06 0 0)
(-0.61609286 -0.14329799 0 3.8457465e-06 0 0)
(-0.61768353 -0.14349734 0 -3.7458743e-06 0 0)
(-0.61631236 -0.14332415 0 3.6609266e-06 0 0)
(-0.61746941 -0.14347189 0 -3.5917815e-06 0 0)
(-0.6165215 -0.14334899 0 3.5375938e-06 0 0)
(-0.61726405 -0.14344755 0 -3.4955875e-06 0 0)
(-0.61672832 -0.14337337 0 3.5073169e-06 0 0)
(-0.61710206 -0.14342839 0 -3.4542456e-06 0 0)
(-0.35579785 -0.19389154 0 -0.066203425 0 0)
(-0.60586516 -0.14213007 0 -0.00023971515 0 0)
(-0.55246363 -0.13571934 0 -3.3818719e-05 0 0)
(-0.58566168 -0.13981794 0 -2.8726439e-05 0 0)
(-0.55769987 -0.13623036 0 3.6440696e-05 0 0)
(-0.58400888 -0.1396265 0 -3.1833511e-05 0 0)
(-0.56001895 -0.13652817 0 3.1812591e-05 0 0)
(-0.58260715 -0.13944871 0 -2.9357127e-05 0 0)
(-0.56150947 -0.13672212 0 2.7785309e-05 0 0)
(-0.58129152 -0.13928035 0 -2.5979522e-05 0 0)
(-0.56275732 -0.13688478 0 2.4403299e-05 0 0)
(-0.58011565 -0.13912971 0 -2.2886065e-05 0 0)
(-0.56384777 -0.1370268 0 2.1476454e-05 0 0)
(-0.57907844 -0.13899672 0 -2.0157697e-05 0 0)
(-0.56480723 -0.13715162 0 1.8918552e-05 0 0)
(-0.57816542 -0.13887956 0 -1.7765042e-05 0 0)
(-0.56565285 -0.13726153 0 1.6679706e-05 0 0)
(-0.57736149 -0.13877634 0 -1.5670196e-05 0 0)
(-0.56639881 -0.13735838 0 1.4720899e-05 0 0)
(-0.57665297 -0.13868533 0 -1.3838087e-05 0 0)
(-0.56705749 -0.13744383 0 1.3008766e-05 0 0)
(-0.5760278 -0.138605 0 -1.2237723e-05 0 0)
(-0.56763979 -0.13751929 0 1.151426e-05 0 0)
(-0.57547535 -0.13853401 0 -1.0841971e-05 0 0)
(-0.56815537 -0.13758604 0 1.0212041e-05 0 0)
(-0.57498624 -0.13847115 0 -9.6271548e-06 0 0)
(-0.56861277 -0.13764521 0 9.0800266e-06 0 0)
(-0.57455219 -0.13841538 0 -8.5726615e-06 0 0)
(-0.56901957 -0.13769777 0 8.099015e-06 0 0)
(-0.5741659 -0.13836576 0 -7.6605963e-06 0 0)
(-0.56938252 -0.1377446 0 7.252367e-06 0 0)
(-0.57382086 -0.13832147 0 -6.8754832e-06 0 0)
(-0.56970763 -0.13778649 0 6.5257264e-06 0 0)
(-0.57351127 -0.13828177 0 -6.2040083e-06 0 0)
(-0.57000027 -0.13782414 0 5.9067845e-06 0 0)
(-0.57323197 -0.13824599 0 -5.6348023e-06 0 0)
(-0.57026528 -0.13785817 0 5.3850823e-06 0 0)
(-0.57297829 -0.13821354 0 -5.1582651e-06 0 0)
(-0.57050704 -0.13788915 0 4.9518563e-06 0 0)
(-0.57274602 -0.13818389 0 -4.7664356e-06 0 0)
(-0.57072954 -0.13791758 0 4.5999383e-06 0 0)
(-0.5725313 -0.13815655 0 -4.4529308e-06 0 0)
(-0.57093643 -0.13794394 0 4.3237541e-06 0 0)
(-0.57233056 -0.13813105 0 -4.2130456e-06 0 0)
(-0.57113115 -0.13796866 0 4.1195465e-06 0 0)
(-0.57214044 -0.13810699 0 -4.0444927e-06 0 0)
(-0.57131688 -0.13799215 0 3.9871349e-06 0 0)
(-0.57195762 -0.13808393 0 -3.9416693e-06 0 0)
(-0.57149917 -0.13801487 0 4.0155569e-06 0 0)
(-0.57180474 -0.13806467 0 -3.8475903e-06 0 0)
(-0.33408536 -0.18407664 0 -0.061743597 0 0)
(-0.56603052 -0.13701103 0 -0.00012854718 0 0)
(-0.5247465 -0.13229094 0 -5.4584946e-05 0 0)
(-0.55512277 -0.1361565 0 -2.723163e-05 0 0)
(-0.52956574 -0.13271854 0 3.6706106e-05 0 0)
(-0.55363894 -0.13597386 0 -3.0763039e-05 0 0)
(-0.53169331 -0.13300373 0 3.182881e-05 0 0)
(-0.55236549 -0.13580548 0 -2.9085217e-05 0 0)
(-0.53305912 -0.13318996 0 2.7660959e-05 0 0)
(-0.55116288 -0.13564423 0 -2.5815164e-05 0 0)
(-0.53420104 -0.13334606 0 2.4267826e-05 0 0)
(-0.55008696 -0.13549978 0 -2.275208e-05 0 0)
(-0.53519871 -0.13348232 0 2.135316e-05 0 0)
(-0.54913782 -0.13537224 0 -2.0041598e-05 0 0)
(-0.53607657 -0.13360208 0 1.8809516e-05 0 0)
(-0.54830234 -0.13525988 0 -1.7663218e-05 0 0)
(-0.53685035 -0.13370753 0 1.6583753e-05 0 0)
(-0.54756668 -0.13516089 0 -1.5580657e-05 0 0)
(-0.53753301 -0.13380046 0 1.4636504e-05 0 0)
(-0.54691833 -0.13507359 0 -1.375928e-05 0 0)
(-0.53813585 -0.13388245 0 1.2934503e-05 0 0)
(-0.54634624 -0.13499654 0 -1.2168311e-05 0 0)
(-0.53866886 -0.13395488 0 1.1448861e-05 0 0)
(-0.54584067 -0.13492843 0 -1.0780782e-05 0 0)
(-0.53914084 -0.13401894 0 1.0154386e-05 0 0)
(-0.54539304 -0.13486813 0 -9.5731547e-06 0 0)
(-0.53955962 -0.13407573 0 9.0291286e-06 0 0)
(-0.54499578 -0.13481461 0 -8.5249374e-06 0 0)
(-0.53993213 -0.13412619 0 8.0540081e-06 0 0)
(-0.54464217 -0.134767 0 -7.6183448e-06 0 0)
(-0.54026454 -0.13417116 0 7.2124922e-06 0 0)
(-0.54432628 -0.13472448 0 -6.8380014e-06 0 0)
(-0.54056234 -0.1342114 0 6.4903242e-06 0 0)
(-0.54404281 -0.13468636 0 -6.1706884e-06 0 0)
(-0.54083046 -0.13424756 0 5.8752904e-06 0 0)
(-0.543787 -0.134652 0 -5.6051324e-06 0 0)
(-0.54107332 -0.13428026 0 5.3570317e-06 0 0)
(-0.54355461 -0.13462084 0 -5.1318406e-06 0 0)
(-0.54129493 -0.13431003 0 4.9269026e-06 0 0)
(-0.54334175 -0.13459234 0 -4.7429886e-06 0 0)
(-0.54149894 -0.13433737 0 4.5779025e-06 0 0)
(-0.54314491 -0.13456605 0 -4.4324075e-06 0 0)
(-0.54168871 -0.13436273 0 4.3047478e-06 0 0)
(-0.54296081 -0.13454153 0 -4.1958062e-06 0 0)
(-0.54186739 -0.13438652 0 4.1042939e-06 0 0)
(-0.54278635 -0.13451837 0 -4.0320183e-06 0 0)
(-0.54203792 -0.13440913 0 3.9780753e-06 0 0)
(-0.54261838 -0.13449615 0 -3.9371681e-06 0 0)
(-0.542205 -0.13443088 0 4.0535568e-06 0 0)
(-0.54247359 -0.13447727 0 -3.9505472e-06 0 0)
(-0.31938147 -0.17552479 0 -0.056858725 0 0)
(-0.52980885 -0.13233081 0 -6.9180748e-05 0 0)
(-0.49750958 -0.12884195 0 -7.9332393e-05 0 0)
(-0.52546264 -0.13249666 0 -2.2720446e-05 0 0)
(-0.50206908 -0.12920649 0 3.3448307e-05 0 0)
(-0.52416987 -0.13232233 0 -2.6436689e-05 0 0)
(-0.50402969 -0.12947914 0 2.8886094e-05 0 0)
(-0.52300982 -0.13216328 0 -2.6001828e-05 0 0)
(-0.50528437 -0.12965772 0 2.4914273e-05 0 0)
(-0.52190643 -0.13200903 0 -2.3183634e-05 0 0)
(-0.50633215 -0.12980728 0 2.1822065e-05 0 0)
(-0.52091819 -0.13187067 0 -2.0447743e-05 0 0)
(-0.50724732 -0.12993779 0 1.9195512e-05 0 0)
(-0.52004632 -0.13174849 0 -1.8014515e-05 0 0)
(-0.50805263 -0.1300525 0 1.690825e-05 0 0)
(-0.51927887 -0.13164084 0 -1.5877466e-05 0 0)
(-0.50876251 -0.1301535 0 1.4907667e-05 0 0)
(-0.51860313 -0.13154598 0 -1.4005909e-05 0 0)
(-0.50938885 -0.13024253 0 1.3157581e-05 0 0)
(-0.51800761 -0.13146234 0 -1.2369039e-05 0 0)
(-0.50994201 -0.13032108 0 1.1627957e-05 0 0)
(-0.51748214 -0.1313885 0 -1.093925e-05 0 0)
(-0.51043114 -0.13039046 0 1.0292808e-05 0 0)
(-0.51701776 -0.13132323 0 -9.6923141e-06 0 0)
(-0.5108643 -0.13045186 0 9.1294884e-06 0 0)
(-0.51660661 -0.13126543 0 -8.6070779e-06 0 0)
(-0.51124868 -0.13050628 0 8.1182732e-06 0 0)
(-0.5162417 -0.13121413 0 -7.6651286e-06 0 0)
(-0.51159062 -0.13055464 0 7.2420164e-06 0 0)
(-0.51591689 -0.13116847 0 -6.8504873e-06 0 0)
(-0.51189578 -0.13059776 0 6.4858666e-06 0 0)
(-0.51562671 -0.1311277 0 -6.1493447e-06 0 0)
(-0.51216921 -0.13063634 0 5.837022e-06 0 0)
(-0.51536629 -0.13109114 0 -5.5498368e-06 0 0)
(-0.5124154 -0.13067103 0 5.2845253e-06 0 0)
(-0.51513128 -0.13105817 0 -5.0418571e-06 0 0)
(-0.51263844 -0.1307024 0 4.8190987e-06 0 0)
(-0.51491775 -0.13102825 0 -4.6169178e-06 0 0)
(-0.51284198 -0.13073098 0 4.4330305e-06 0 0)
(-0.51472217 -0.13100089 0 -4.2680651e-06 0 0)
(-0.51302939 -0.13075723 0 4.1201363e-06 0 0)
(-0.51454128 -0.13097563 0 -3.9899057e-06 0 0)
(-0.51320374 -0.1307816 0 3.8758872e-06 0 0)
(-0.51437207 -0.13095206 0 -3.7789133e-06 0 0)
(-0.51336794 -0.13080447 0 3.6979477e-06 0 0)
(-0.5142117 -0.13092979 0 -3.6350203e-06 0 0)
(-0.5135247 -0.13082622 0 3.5891445e-06 0 0)
(-0.51405717 -0.13090839 0 -3.5545408e-06 0 0)
(-0.51367794 -0.13084703 0 3.7144608e-06 0 0)
(-0.51391967 -0.13088982 0 -3.6520321e-06 0 0)
(-0.30590384 -0.16732964 0 -0.05217046 0 0)
(-0.49481148 -0.12769185 0 3.6190353e-06 0 0)
(-0.47068517 -0.12534395 0 -9.6017246e-05 0 0)
(-0.49661314 -0.12883908 0 -1.9091276e-05 0 0)
(-0.47522329 -0.12569014 0 2.9637671e-05 0 0)
(-0.49556128 -0.12867427 0 -2.1986723e-05 0 0)
(-0.47704893 -0.12595135 0 2.5708793e-05 0 0)
(-0.49450504 -0.12852386 0 -2.2717337e-05 0 0)
(-0.47820378 -0.12612265 0 2.1964613e-05 0 0)
(-0.49349111 -0.12837625 0 -2.0365627e-05 0 0)
(-0.47916684 -0.12626601 0 1.9199682e-05 0 0)
(-0.49258201 -0.12824368 0 -1.7978061e-05 0 0)
(-0.48000782 -0.12639107 0 1.6882703e-05 0 0)
(-0.4917799 -0.12812659 0 -1.584158e-05 0 0)
(-0.48074787 -0.12650099 0 1.4870251e-05 0 0)
(-0.49107387 -0.12802342 0 -1.3963077e-05 0 0)
(-0.48140027 -0.12659779 0 1.3110919e-05 0 0)
(-0.49045225 -0.12793252 0 -1.2317605e-05 0 0)
(-0.48197595 -0.12668311 0 1.1572044e-05 0 0)
(-0.48990443 -0.12785235 0 -1.0878422e-05 0 0)
(-0.48248441 -0.12675839 0 1.0227069e-05 0 0)
(-0.48942106 -0.12778157 0 -9.6213137e-06 0 0)
(-0.48293404 -0.1268249 0 9.0531182e-06 0 0)
(-0.48899391 -0.127719 0 -8.5249851e-06 0 0)
(-0.48333226 -0.12688375 0 8.0302718e-06 0 0)
(-0.48861571 -0.12766358 0 -7.5708407e-06 0 0)
(-0.48368566 -0.12693593 0 7.1411845e-06 0 0)
(-0.48828005 -0.1276144 0 -6.7426935e-06 0 0)
(-0.48400006 -0.1269823 0 6.3707813e-06 0 0)
(-0.48798127 -0.12757062 0 -6.0264976e-06 0 0)
(-0.48428065 -0.12702365 0 5.7060067e-06 0 0)
(-0.48771435 -0.12753151 0 -5.4101185e-06 0 0)
(-0.48453208 -0.12706066 0 5.1356125e-06 0 0)
(-0.4874748 -0.12749643 0 -4.8831355e-06 0 0)
(-0.48475849 -0.12709394 0 4.6499768e-06 0 0)
(-0.48725862 -0.1274648 0 -4.4366809e-06 0 0)
(-0.4849636 -0.12712405 0 4.2409661e-06 0 0)
(-0.4870622 -0.12743608 0 -4.0633236e-06 0 0)
(-0.4851508 -0.12715149 0 3.9018412e-06 0 0)
(-0.48688229 -0.1274098 0 -3.757006e-06 0 0)
(-0.48532316 -0.1271767 0 3.6272425e-06 0 0)
(-0.4867159 -0.12738554 0 -3.5130956e-06 0 0)
(-0.48548352 -0.12720011 0 3.4133466e-06 0 0)
(-0.48656026 -0.12736289 0 -3.3287301e-06 0 0)
(-0.48563453 -0.1272221 0 3.2584442e-06 0 0)
(-0.48641275 -0.12734147 0 -3.2045891e-06 0 0)
(-0.48577872 -0.12724302 0 3.1659487e-06 0 0)
(-0.48627055 -0.12732088 0 -3.1365258e-06 0 0)
(-0.48591938 -0.12726295 0 3.3276134e-06 0 0)
(-0.48614054 -0.12730269 0 -3.3069522e-06 0 0)
(-0.29282794 -0.15937191 0 -0.047709011 0 0)
(-0.46150509 -0.12314431 0 9.0449244e-05 0 0)
(-0.44442193 -0.12181186 0 -0.00010396846 0 0)
(-0.46857674 -0.12518177 0 -1.6313197e-05 0 0)
(-0.44905544 -0.12217054 0 2.5996003e-05 0 0)
(-0.46778903 -0.12502864 0 -1.8099535e-05 0 0)
(-0.45077362 -0.12242138 0 2.2943017e-05 0 0)
(-0.4668317 -0.12488653 0 -1.9840912e-05 0 0)
(-0.45183774 -0.12258569 0 1.9384211e-05 0 0)
(-0.46590008 -0.12474527 0 -1.7897898e-05 0 0)
(-0.45272315 -0.12272307 0 1.6904273e-05 0 0)
(-0.46506366 -0.12461827 0 -1.5815596e-05 0 0)
(-0.45349608 -0.12284289 0 1.4858096e-05 0 0)
(-0.4643256 -0.12450608 0 -1.3938979e-05 0 0)
(-0.45417626 -0.12294821 0 1.3086133e-05 0 0)
(-0.46367597 -0.12440723 0 -1.2286842e-05 0 0)
(-0.45477595 -0.12304094 0 1.1537938e-05 0 0)
(-0.46310402 -0.12432012 0 -1.0839301e-05 0 0)
(-0.45530514 -0.12312269 0 1.0183912e-05 0 0)
(-0.4626 -0.1242433 0 -9.5731793e-06 0 0)
(-0.45577259 -0.12319483 0 9.0005396e-06 0 0)
(-0.46215529 -0.12417547 0 -8.4672316e-06 0 0)
(-0.45618598 -0.12325857 0 7.967662e-06 0 0)
(-0.4617623 -0.1241155 0 -7.502735e-06 0 0)
(-0.45655214 -0.12331497 0 7.0677469e-06 0 0)
(-0.46141435 -0.12406238 0 -6.6633321e-06 0 0)
(-0.45687709 -0.12336499 0 6.2855302e-06 0 0)
(-0.46110554 -0.12401523 0 -5.9347842e-06 0 0)
(-0.45716621 -0.12340944 0 5.6077477e-06 0 0)
(-0.46083067 -0.12397325 0 -5.3047366e-06 0 0)
(-0.45742426 -0.12344909 0 5.0229146e-06 0 0)
(-0.4605851 -0.12393576 0 -4.7625186e-06 0 0)
(-0.4576555 -0.12348458 0 4.5211387e-06 0 0)
(-0.46036471 -0.12390211 0 -4.2989704e-06 0 0)
(-0.45786374 -0.1235165 0 4.0939636e-06 0 0)
(-0.46016582 -0.12387176 0 -3.9063028e-06 0 0)
(-0.4580524 -0.12354539 0 3.7342488e-06 0 0)
(-0.45998512 -0.1238442 0 -3.5780006e-06 0 0)
(-0.45822458 -0.12357172 0 3.4360942e-06 0 0)
(-0.4598196 -0.12381898 0 -3.3087742e-06 0 0)
(-0.45838312 -0.12359593 0 3.1948382e-06 0 0)
(-0.45966653 -0.12379569 0 -3.0946234e-06 0 0)
(-0.45853062 -0.12361841 0 3.0072257e-06 0 0)
(-0.45952336 -0.12377393 0 -2.9331931e-06 0 0)
(-0.45866952 -0.12363954 0 2.8719801e-06 0 0)
(-0.45938767 -0.12375335 0 -2.8256176e-06 0 0)
(-0.45880214 -0.12365965 0 2.792628e-06 0 0)
(-0.45925683 -0.12373354 0 -2.7668286e-06 0 0)
(-0.45893124 -0.12367874 0 2.9793931e-06 0 0)
(-0.45913425 -0.12371574 0 -2.9926331e-06 0 0)
(-0.28027669 -0.15169413 0 -0.043453263 0 0)
(-0.4298765 -0.1186844 0 0.00019264642 0 0)
(-0.41874537 -0.11825061 0 -0.0001038523 0 0)
(-0.441378 -0.12152358 0 -1.3484648e-05 0 0)
(-0.42358054 -0.11864813 0 2.2542514e-05 0 0)
(-0.44084251 -0.12138469 0 -1.4687777e-05 0 0)
(-0.42521293 -0.11888975 0 2.0510953e-05 0 0)
(-0.43998048 -0.12125072 0 -1.7304056e-05 0 0)
(-0.42619455 -0.11904732 0 1.7107452e-05 0 0)
(-0.43912526 -0.12111563 0 -1.5720021e-05 0 0)
(-0.42700838 -0.11917889 0 1.4878474e-05 0 0)
(-0.43835606 -0.12099403 0 -1.3907124e-05 0 0)
(-0.42771853 -0.11929362 0 1.3071247e-05 0 0)
(-0.43767721 -0.1208866 0 -1.225983e-05 0 0)
(-0.42834347 -0.11939446 0 1.1511503e-05 0 0)
(-0.4370797 -0.12079194 0 -1.0807446e-05 0 0)
(-0.42889449 -0.11948326 0 1.0149626e-05 0 0)
(-0.43655367 -0.12070851 0 -9.534562e-06 0 0)
(-0.42938078 -0.11956155 0 8.9587174e-06 0 0)
(-0.43609012 -0.12063493 0 -8.4211471e-06 0 0)
(-0.42981036 -0.11963063 0 7.9179445e-06 0 0)
(-0.43568113 -0.12056997 0 -7.4485794e-06 0 0)
(-0.4301903 -0.11969168 0 7.0095488e-06 0 0)
(-0.43531971 -0.12051253 0 -6.6004039e-06 0 0)
(-0.43052685 -0.1197457 0 6.2181027e-06 0 0)
(-0.43499971 -0.12046164 0 -5.8622384e-06 0 0)
(-0.43082555 -0.11979361 0 5.5301787e-06 0 0)
(-0.43471572 -0.12041647 0 -5.2215627e-06 0 0)
(-0.43109133 -0.11983621 0 4.9341102e-06 0 0)
(-0.43446292 -0.12037625 0 -4.6675137e-06 0 0)
(-0.43132856 -0.1198742 0 4.4197971e-06 0 0)
(-0.43423707 -0.12034031 0 -4.1907108e-06 0 0)
(-0.43154116 -0.11990821 0 3.9785426e-06 0 0)
(-0.43403438 -0.12030806 0 -3.7831042e-06 0 0)
(-0.43173262 -0.11993881 0 3.6029153e-06 0 0)
(-0.43385146 -0.12027896 0 -3.4378533e-06 0 0)
(-0.43190609 -0.11996651 0 3.2866469e-06 0 0)
(-0.43368527 -0.12025253 0 -3.1492446e-06 0 0)
(-0.43206442 -0.11999177 0 3.024569e-06 0 0)
(-0.43353305 -0.12022834 0 -2.9126546e-06 0 0)
(-0.4322102 -0.12001499 0 2.8126205e-06 0 0)
(-0.43339227 -0.12020598 0 -2.7246202e-06 0 0)
(-0.43234582 -0.12003657 0 2.6480167e-06 0 0)
(-0.43326061 -0.12018509 0 -2.5831854e-06 0 0)
(-0.43247354 -0.12005685 0 2.5297881e-06 0 0)
(-0.43313584 -0.12016533 0 -2.4897548e-06 0 0)
(-0.43259549 -0.12007617 0 2.4613046e-06 0 0)
(-0.43301551 -0.12014629 0 -2.4382027e-06 0 0)
(-0.43271395 -0.12009447 0 2.6643271e-06 0 0)
(-0.43290024 -0.12012892 0 -2.7067847e-06 0 0)
(-0.26834482 -0.14430927 0 -0.039380875 0 0)
(-0.39991514 -0.1143155 0 0.00030725202 0 0)
(-0.39364933 -0.11466336 0 -9.7279903e-05 0 0)
(-0.41506036 -0.11786644 0 -9.8652283e-06 0 0)
(-0.39881429 -0.11512318 0 1.9357049e-05 0 0)
(-0.41471827 -0.11774225 0 -1.1590916e-05 0 0)
(-0.40037242 -0.11535659 0 1.828551e-05 0 0)
(-0.41394652 -0.11761627 0 -1.498597e-05 0 0)
(-0.40127883 -0.11550767 0 1.5021007e-05 0 0)
(-0.41316237 -0.11748718 0 -1.372608e-05 0 0)
(-0.40202663 -0.1156336 0 1.3022788e-05 0 0)
(-0.41245544 -0.11737084 0 -1.2159396e-05 0 0)
(-0.40267874 -0.11574337 0 1.1434588e-05 0 0)
(-0.41183142 -0.11726803 0 -1.0722016e-05 0 0)
(-0.4032526 -0.11583986 0 1.0069228e-05 0 0)
(-0.41128219 -0.11717744 0 -9.4525227e-06 0 0)
(-0.40375863 -0.11592483 0 8.8779868e-06 0 0)
(-0.41079866 -0.11709761 0 -8.3395589e-06 0 0)
(-0.40420525 -0.11599974 0 7.8364595e-06 0 0)
(-0.41037259 -0.11702719 0 -7.365966e-06 0 0)
(-0.40459982 -0.11606585 0 6.9262733e-06 0 0)
(-0.40999666 -0.11696501 0 -6.5155223e-06 0 0)
(-0.40494881 -0.11612428 0 6.1318685e-06 0 0)
(-0.40966446 -0.11691002 0 -5.7738492e-06 0 0)
(-0.40525798 -0.11617599 0 5.4397455e-06 0 0)
(-0.40937034 -0.11686131 0 -5.1283725e-06 0 0)
(-0.4055324 -0.11622185 0 4.8381592e-06 0 0)
(-0.4091093 -0.11681806 0 -4.5681448e-06 0 0)
(-0.40577659 -0.11626263 0 4.3169053e-06 0 0)
(-0.40887694 -0.11677955 0 -4.0836682e-06 0 0)
(-0.40599457 -0.11629901 0 3.8671512e-06 0 0)
(-0.40866935 -0.11674513 0 -3.6667419e-06 0 0)
(-0.40618992 -0.11633159 0 3.4812934e-06 0 0)
(-0.40848304 -0.11671424 0 -3.310331e-06 0 0)
(-0.40636586 -0.1163609 0 3.1528371e-06 0 0)
(-0.4083149 -0.11668636 0 -3.0084598e-06 0 0)
(-0.40652528 -0.11638745 0 2.8763088e-06 0 0)
(-0.40816213 -0.11666104 0 -2.7561441e-06 0 0)
(-0.40667079 -0.11641165 0 2.6472037e-06 0 0)
(-0.40802221 -0.11663784 0 -2.549362e-06 0 0)
(-0.40680477 -0.11643392 0 2.4619986e-06 0 0)
(-0.40789281 -0.11661641 0 -2.3851243e-06 0 0)
(-0.40692942 -0.11645461 0 2.3183145e-06 0 0)
(-0.40777179 -0.11659637 0 -2.2618035e-06 0 0)
(-0.40704679 -0.11647407 0 2.2154077e-06 0 0)
(-0.40765711 -0.1165774 0 -2.1809472e-06 0 0)
(-0.40715886 -0.11649262 0 2.1563222e-06 0 0)
(-0.40754651 -0.11655912 0 -2.1353264e-06 0 0)
(-0.40726752 -0.11651015 0 2.3685513e-06 0 0)
(-0.40743841 -0.11654219 0 -2.4374167e-06 0 0)
(-0.25701203 -0.13720577 0 -0.035483827 0 0)
(-0.37159142 -0.11003735 0 0.00043184425 0 0)
(-0.36914818 -0.11105284 0 -8.5471958e-05 0 0)
(-0.3896337 -0.11421141 0 -5.2421446e-06 0 0)
(-0.37477054 -0.11159599 0 1.6643952e-05 0 0)
(-0.38941406 -0.11410138 0 -8.7282782e-06 0 0)
(-0.37625708 -0.11182195 0 1.6221983e-05 0 0)
(-0.38872591 -0.11398316 0 -1.2839699e-05 0 0)
(-0.37709444 -0.11196677 0 1.3081315e-05 0 0)
(-0.38800787 -0.1138599 0 -1.1875488e-05 0 0)
(-0.37778124 -0.1120872 0 1.1299064e-05 0 0)
(-0.38735871 -0.11374867 0 -1.0536623e-05 0 0)
(-0.37837966 -0.11219216 0 9.9145658e-06 0 0)
(-0.38678553 -0.11365036 0 -9.2940071e-06 0 0)
(-0.37890625 -0.11228441 0 8.7297538e-06 0 0)
(-0.38628103 -0.11356374 0 -8.1942906e-06 0 0)
(-0.37937063 -0.11236565 0 7.6969643e-06 0 0)
(-0.38583691 -0.11348739 0 -7.2297899e-06 0 0)
(-0.37978052 -0.11243729 0 6.7941426e-06 0 0)
(-0.38544556 -0.11342005 0 -6.3860024e-06 0 0)
(-0.38014267 -0.11250051 0 6.0052058e-06 0 0)
(-0.38510028 -0.11336058 0 -5.6489322e-06 0 0)
(-0.38046302 -0.11255638 0 5.316637e-06 0 0)
(-0.38479517 -0.11330798 0 -5.0061278e-06 0 0)
(-0.38074683 -0.11260584 0 4.7167276e-06 0 0)
(-0.38452503 -0.11326139 0 -4.4466932e-06 0 0)
(-0.38099876 -0.11264972 0 4.1952942e-06 0 0)
(-0.38428527 -0.11322001 0 -3.9611409e-06 0 0)
(-0.38122295 -0.11268873 0 3.7434904e-06 0 0)
(-0.38407184 -0.11318316 0 -3.5412391e-06 0 0)
(-0.3814231 -0.11272354 0 3.3536599e-06 0 0)
(-0.38388116 -0.11315023 0 -3.179882e-06 0 0)
(-0.38160248 -0.11275471 0 3.0192131e-06 0 0)
(-0.38371003 -0.11312066 0 -2.8709746e-06 0 0)
(-0.38176405 -0.11278278 0 2.7345229e-06 0 0)
(-0.38355559 -0.11309397 0 -2.609342e-06 0 0)
(-0.38191045 -0.11280819 0 2.4948504e-06 0 0)
(-0.38341526 -0.11306972 0 -2.3906727e-06 0 0)
(-0.38204408 -0.11283137 0 2.2963015e-06 0 0)
(-0.38328673 -0.1130475 0 -2.2114947e-06 0 0)
(-0.38216713 -0.1128527 0 2.1358415e-06 0 0)
(-0.38316787 -0.11302696 0 -2.069245e-06 0 0)
(-0.38228161 -0.11287253 0 2.0114475e-06 0 0)
(-0.38305671 -0.11300775 0 -1.962569e-06 0 0)
(-0.38238941 -0.11289119 0 1.9225378e-06 0 0)
(-0.38295139 -0.11298956 0 -1.8930555e-06 0 0)
(-0.38249232 -0.11290898 0 1.8717119e-06 0 0)
(-0.38284982 -0.11297202 0 -1.8523542e-06 0 0)
(-0.38259192 -0.11292578 0 2.0871105e-06 0 0)
(-0.38274869 -0.11295555 0 -2.1806346e-06 0 0)
(-0.24621637 -0.130367 0 -0.031759766 0 0)
(-0.34487073 -0.10584857 0 0.00056488828 0 0)
(-0.3453184 -0.1074256 0 -6.9093849e-05 0 0)
(-0.36505606 -0.11055605 0 1.2294181e-07 0 0)
(-0.35145657 -0.10806685 0 1.4573809e-05 0 0)
(-0.36492575 -0.11046203 0 -6.0627313e-06 0 0)
(-0.3528712 -0.10828585 0 1.4310335e-05 0 0)
(-0.36431499 -0.11035137 0 -1.0850331e-05 0 0)
(-0.35364495 -0.10842462 0 1.1275377e-05 0 0)
(-0.36365851 -0.11023377 0 -1.0156197e-05 0 0)
(-0.35427532 -0.10853972 0 9.6959266e-06 0 0)
(-0.36306302 -0.1101275 0 -9.0281525e-06 0 0)
(-0.354824 -0.10864 0 8.5012065e-06 0 0)
(-0.36253701 -0.11003358 0 -7.9664114e-06 0 0)
(-0.35530679 -0.10872813 0 7.4843004e-06 0 0)
(-0.36207405 -0.10995081 0 -7.0244738e-06 0 0)
(-0.35573257 -0.10880575 0 6.5988196e-06 0 0)
(-0.36166649 -0.10987785 0 -6.1979599e-06 0 0)
(-0.35610842 -0.1088742 0 5.8249386e-06 0 0)
(-0.36130737 -0.1098135 0 -5.474819e-06 0 0)
(-0.35644052 -0.10893461 0 5.1487107e-06 0 0)
(-0.36099053 -0.10975666 0 -4.8431211e-06 0 0)
(-0.35673431 -0.10898801 0 4.5585194e-06 0 0)
(-0.36071055 -0.1097064 0 -4.2922057e-06 0 0)
(-0.35699461 -0.10903528 0 4.044321e-06 0 0)
(-0.36046265 -0.10966186 0 -3.8127361e-06 0 0)
(-0.35722568 -0.10907721 0 3.5973845e-06 0 0)
(-0.36024264 -0.10962231 0 -3.3965812e-06 0 0)
(-0.35743134 -0.10911451 0 3.2101254e-06 0 0)
(-0.36004679 -0.10958708 0 -3.036686e-06 0 0)
(-0.35761494 -0.10914778 0 2.8759802e-06 0 0)
(-0.35987181 -0.10955558 0 -2.7269606e-06 0 0)
(-0.35777951 -0.1091776 0 2.5893008e-06 0 0)
(-0.35971476 -0.1095273 0 -2.4621828e-06 0 0)
(-0.35792775 -0.10920444 0 2.3452653e-06 0 0)
(-0.35957302 -0.10950177 0 -2.2379195e-06 0 0)
(-0.35806207 -0.10922875 0 2.1398147e-06 0 0)
(-0.35944424 -0.10947856 0 -2.0504805e-06 0 0)
(-0.35818469 -0.10925094 0 1.9696173e-06 0 0)
(-0.35932629 -0.1094573 0 -1.8968991e-06 0 0)
(-0.35829759 -0.10927135 0 1.8320844e-06 0 0)
(-0.35921721 -0.10943763 0 -1.7749948e-06 0 0)
(-0.35840264 -0.10929034 0 1.725505e-06 0 0)
(-0.3591152 -0.10941924 0 -1.6836401e-06 0 0)
(-0.35850155 -0.10930821 0 1.6494088e-06 0 0)
(-0.35901856 -0.10940181 0 -1.6243827e-06 0 0)
(-0.35859597 -0.10932526 0 1.6058708e-06 0 0)
(-0.35892537 -0.109385 0 -1.5877559e-06 0 0)
(-0.35868718 -0.10934135 0 1.8192283e-06 0 0)
(-0.35883099 -0.109369 0 -1.9360525e-06 0 0)
(-0.23589393 -0.12377745 0 -0.028205907 0 0)
(-0.3197109 -0.10174698 0 0.00070559396 0 0)
(-0.32224748 -0.10378851 0 -4.861168e-05 0 0)
(-0.34128193 -0.10689795 0 5.8443669e-06 0 0)
(-0.32887458 -0.10453591 0 1.3201106e-05 0 0)
(-0.34124855 -0.10682411 0 -3.5779564e-06 0 0)
(-0.33021828 -0.10474834 0 1.2540934e-05 0 0)
(-0.34071043 -0.10672083 0 -9.0072279e-06 0 0)
(-0.33093348 -0.10488128 0 9.593849e-06 0 0)
(-0.34011139 -0.10660875 0 -8.5596423e-06 0 0)
(-0.33151164 -0.1049912 0 8.2052231e-06 0 0)
(-0.3395658 -0.10650732 0 -7.6263953e-06 0 0)
(-0.33201419 -0.10508692 0 7.187374e-06 0 0)
(-0.33908365 -0.10641765 0 -6.732531e-06 0 0)
(-0.33245634 -0.10517105 0 6.3265927e-06 0 0)
(-0.33865927 -0.10633862 0 -5.9371715e-06 0 0)
(-0.3328463 -0.10524515 0 5.5780246e-06 0 0)
(-0.33828569 -0.10626897 0 -5.2388689e-06 0 0)
(-0.33319056 -0.10531049 0 4.9239734e-06 0 0)
(-0.33795651 -0.10620752 0 -4.6278291e-06 0 0)
(-0.33349477 -0.10536817 0 4.3524856e-06 0 0)
(-0.33766609 -0.10615325 0 -4.0940388e-06 0 0)
(-0.33376391 -0.10541916 0 3.8537128e-06 0 0)
(-0.33740946 -0.10610525 0 -3.6285009e-06 0 0)
(-0.33400238 -0.1054643 0 3.4191592e-06 0 0)
(-0.33718223 -0.10606272 0 -3.2233273e-06 0 0)
(-0.3342141 -0.10550434 0 3.0414433e-06 0 0)
(-0.33698056 -0.10602493 0 -2.8716469e-06 0 0)
(-0.33440254 -0.10553997 0 2.7141533e-06 0 0)
(-0.33680103 -0.10599128 0 -2.5674973e-06 0 0)
(-0.33457078 -0.10557176 0 2.4317409e-06 0 0)
(-0.33664063 -0.10596119 0 -2.3057325e-06 0 0)
(-0.3347216 -0.10560025 0 2.1894324e-06 0 0)
(-0.33649667 -0.10593417 0 -2.0819397e-06 0 0)
(-0.33485745 -0.1056259 0 1.9831523e-06 0 0)
(-0.33636674 -0.10590976 0 -1.8923733e-06 0 0)
(-0.33498056 -0.10564914 0 1.8094714e-06 0 0)
(-0.33624869 -0.10588758 0 -1.7339173e-06 0 0)
(-0.33509294 -0.10567035 0 1.6655768e-06 0 0)
(-0.33614056 -0.10586724 0 -1.6040686e-06 0 0)
(-0.33519643 -0.10568988 0 1.5492859e-06 0 0)
(-0.33604056 -0.10584843 0 -1.5009923e-06 0 0)
(-0.33529271 -0.10570804 0 1.4591639e-06 0 0)
(-0.33594706 -0.10583083 0 -1.4237494e-06 0 0)
(-0.33538336 -0.10572515 0 1.3948108e-06 0 0)
(-0.33585848 -0.10581415 0 -1.3737821e-06 0 0)
(-0.3354699 -0.10574147 0 1.3577342e-06 0 0)
(-0.33577308 -0.10579804 0 -1.3405457e-06 0 0)
(-0.33555333 -0.10575687 0 1.5646284e-06 0 0)
(-0.33568523 -0.10578253 0 -1.7036116e-06 0 0)
(-0.2259869 -0.11742347 0 -0.024818596 0 0)
(-0.29606251 -0.097729428 0 0.00085391498 0 0)
(-0.29999331 -0.10014668 0 -2.4935116e-05 0 0)
(-0.31829117 -0.10323685 0 1.1625838e-05 0 0)
(-0.30702553 -0.1010032 0 1.2468949e-05 0 0)
(-0.31837863 -0.1031876 0 -1.2715166e-06 0 0)
(-0.30830132 -0.10120946 0 1.0898102e-05 0 0)
(-0.31790932 -0.10309152 0 -7.299482e-06 0 0)
(-0.30896278 -0.10133678 0 8.026298e-06 0 0)
(-0.31736396 -0.10298481 0 -7.076365e-06 0 0)
(-0.30949258 -0.10144166 0 6.8179261e-06 0 0)
(-0.31686485 -0.10288808 0 -6.3229637e-06 0 0)
(-0.30995233 -0.10153295 0 5.9651647e-06 0 0)
(-0.3164235 -0.10280255 0 -5.5849618e-06 0 0)
(-0.31035675 -0.10161319 0 5.2496804e-06 0 0)
(-0.316035 -0.10272716 0 -4.925859e-06 0 0)
(-0.31071344 -0.10168387 0 4.6284574e-06 0 0)
(-0.31569301 -0.10266072 0 -4.3467654e-06 0 0)
(-0.31102836 -0.10174619 0 4.0858483e-06 0 0)
(-0.31539168 -0.1026021 0 -3.8399585e-06 0 0)
(-0.31130667 -0.10180122 0 3.6117646e-06 0 0)
(-0.31512582 -0.10255032 0 -3.3972031e-06 0 0)
(-0.3115529 -0.10184985 0 3.1980041e-06 0 0)
(-0.3148909 -0.10250453 0 -3.011048e-06 0 0)
(-0.31177109 -0.10189292 0 2.8375111e-06 0 0)
(-0.31468289 -0.10246394 0 -2.6749516e-06 0 0)
(-0.31196482 -0.10193113 0 2.5241592e-06 0 0)
(-0.31449828 -0.10242788 0 -2.3832142e-06 0 0)
(-0.31213726 -0.10196513 0 2.2526272e-06 0 0)
(-0.31433393 -0.10239576 0 -2.130889e-06 0 0)
(-0.31229123 -0.10199547 0 2.0183107e-06 0 0)
(-0.31418709 -0.10236704 0 -1.9137068e-06 0 0)
(-0.31242926 -0.10202267 0 1.8172483e-06 0 0)
(-0.3140553 -0.10234124 0 -1.7280066e-06 0 0)
(-0.3125536 -0.10204716 0 1.6460577e-06 0 0)
(-0.31393635 -0.10231794 0 -1.5706804e-06 0 0)
(-0.31266628 -0.10206935 0 1.5018934e-06 0 0)
(-0.31382827 -0.10229674 0 -1.4391435e-06 0 0)
(-0.31276915 -0.10208961 0 1.3824217e-06 0 0)
(-0.31372928 -0.10227732 0 -1.3313197e-06 0 0)
(-0.31286388 -0.10210827 0 1.2858319e-06 0 0)
(-0.31363773 -0.10225934 0 -1.2456867e-06 0 0)
(-0.31295201 -0.10212564 0 1.2109333e-06 0 0)
(-0.31355214 -0.10224251 0 -1.1814629e-06 0 0)
(-0.31303498 -0.10214199 0 1.1573664e-06 0 0)
(-0.31347106 -0.10222656 0 -1.1399371e-06 0 0)
(-0.31311418 -0.10215761 0 1.1260571e-06 0 0)
(-0.31339291 -0.10221115 0 -1.1095541e-06 0 0)
(-0.31319041 -0.10217234 0 1.3227942e-06 0 0)
(-0.31331133 -0.10219614 0 -1.4829854e-06 0 0)
(-0.2164408 -0.11129294 0 -0.021594892 0 0)
(-0.27385904 -0.093790696 0 0.0010099946 0 0)
(-0.27859022 -0.096505569 0 1.6559592e-07 0 0)
(-0.29608274 -0.099573476 0 1.7373689e-05 0 0)
(-0.285911 -0.097468667 0 1.2315823e-05 0 0)
(-0.29631305 -0.099552451 0 8.7250137e-07 0 0)
(-0.287123 -0.097669236 0 9.3687868e-06 0 0)
(-0.29590911 -0.099463387 0 -5.7161715e-06 0 0)
(-0.28773523 -0.097791147 0 6.5627669e-06 0 0)
(-0.29541401 -0.099361911 0 -5.6973125e-06 0 0)
(-0.28822026 -0.097891139 0 5.5253585e-06 0 0)
(-0.29495822 -0.09926975 0 -5.1098203e-06 0 0)
(-0.28864026 -0.097978127 0 4.8269922e-06 0 0)
(-0.29455484 -0.099188246 0 -4.5166024e-06 0 0)
(-0.28900962 -0.09805458 0 4.2468954e-06 0 0)
(-0.29419974 -0.099116407 0 -3.9842763e-06 0 0)
(-0.2893354 -0.098121928 0 3.744244e-06 0 0)
(-0.29388715 -0.099053081 0 -3.5161309e-06 0 0)
(-0.28962305 -0.09818132 0 3.3053832e-06 0 0)
(-0.29361172 -0.098997213 0 -3.106338e-06 0 0)
(-0.28987727 -0.098233756 0 2.9219743e-06 0 0)
(-0.29336873 -0.098947865 0 -2.7483125e-06 0 0)
(-0.29010221 -0.098280111 0 2.5873498e-06 0 0)
(-0.293154 -0.098904211 0 -2.4360407e-06 0 0)
(-0.29030155 -0.098321161 0 2.2957951e-06 0 0)
(-0.29296388 -0.09886552 0 -2.1642343e-06 0 0)
(-0.29047855 -0.098357588 0 2.0423529e-06 0 0)
(-0.29279514 -0.098831147 0 -1.9282836e-06 0 0)
(-0.29063611 -0.098389999 0 1.8227168e-06 0 0)