/*--------------------------------*- C++ -*----------------------------------*\
| =========                 |                                                 |
| \\      /  F ield         | OpenFOAM: The Open Source CFD Toolbox           |
|  \\    /   O peration     | Version:  2312                                  |
|   \\  /    A nd           | Website:  www.openfoam.com                      |
|    \\/     M anipulation  |                                                 |
\*---------------------------------------------------------------------------*/
FoamFile
{
    version     2.0;
    format      ascii;
    arch        "LSB;label=32;scalar=64";
    class       volScalarField;
    location    "3";
    object      T;
}
// * * * * * * * * * * * * * * * * * * * * * * * * * * * * * * * * * * * * * //

dimensions      [0 0 0 1 0 0 0];

internalField   nonuniform List<scalar> 
4000
(
329.27845
328.4172
328.29771
328.22294
328.16712
328.11377
328.06864
328.02224
327.98127
327.93833
327.89949
327.85861
327.82103
327.78151
327.74473
327.70618
327.66996
327.63213
327.59631
327.55903
327.52353
327.48672
327.45149
327.4151
327.38015
327.34415
327.30947
327.27384
327.23944
327.20414
327.16999
327.13498
327.10105
327.06628
327.03252
326.99791
326.96428
326.92975
326.89618
326.86168
326.82816
326.79368
326.76027
326.72582
326.69256
326.65813
326.62511
326.59059
326.55801
326.52274
331.02164
329.28464
328.99582
328.83963
328.74014
328.64811
328.58068
328.50948
328.45453
328.39368
328.34513
328.29045
328.24567
328.19509
328.15273
328.10505
328.06434
328.01882
327.97931
327.93546
327.8969
327.85445
327.81672
327.77552
327.73861
327.69858
327.6625
327.62357
327.58832
327.55038
327.51588
327.47881
327.44497
327.4086
327.3753
327.33943
327.30648
327.27086
327.23811
327.20258
327.16999
327.13452
327.10222
327.06683
327.03503
326.99967
326.9686
326.93299
326.90322
326.86542
332.28223
330.14003
329.69131
329.45487
329.31198
329.18158
329.09185
328.99602
328.92707
328.84843
328.79013
328.72175
328.66973
328.60815
328.56017
328.50341
328.4582
328.40503
328.36181
328.31142
328.26978
328.22171
328.18146
328.13545
328.09656
328.05249
328.01498
327.97273
327.93658
327.89599
327.8611
327.82195
327.78817
327.7502
327.71731
327.68017
327.64789
327.61118
327.57923
327.54267
327.511
327.47453
327.44334
327.40699
327.37661
327.34032
327.31116
327.27444
327.24744
327.20726
333.22774
330.97034
330.38022
330.06656
329.88108
329.71302
329.60116
329.48106
329.39812
329.30193
329.23386
329.15194
329.09264
329.0202
328.96656
328.90084
328.85108
328.79035
328.74338
328.68653
328.64176
328.58812
328.5453
328.49453
328.4536
328.4055
328.3665
328.32093
328.28382
328.24057
328.20521
328.16396
328.13017
328.09057
328.05805
328.01964
327.98797
327.95019
327.91901
327.88144
327.85066
327.81319
327.78306
327.74575
327.71674
327.6795
327.6522
327.61436
327.59007
327.54772
333.95744
331.76256
331.05724
330.67176
330.44533
330.24087
330.10726
329.96351
329.8667
329.75334
329.67551
329.58033
329.51374
329.43064
329.37131
329.29679
329.24244
329.17429
329.12354
329.06032
329.01239
328.95327
328.90783
328.85234
328.80931
328.75721
328.71663
328.66775
328.6296
328.58366
328.54776
328.50439
328.47049
328.42926
328.39702
328.35733
328.32624
328.28738
328.25694
328.21837
328.18844
328.14997
328.12087
328.08257
328.05488
328.01666
327.99115
327.95218
327.93049
327.88623
334.53314
332.50543
331.71612
331.26681
331.00214
330.76321
330.60854
330.44206
330.33161
330.20165
330.11415
330.0061
329.93224
329.83877
329.77374
329.69065
329.63169
329.55629
329.50172
329.43229
329.38117
329.31667
329.26857
329.20843
329.16324
329.10718
329.06494
329.01276
328.97346
328.92483
328.88828
328.84277
328.80868
328.76577
328.73373
328.69275
328.66217
328.62225
328.59251
328.55296
328.52384
328.48438
328.45624
328.41695
328.39049
328.35127
328.32745
328.28734
328.26812
328.22224
334.99508
333.19026
332.35023
331.84757
331.54851
331.27776
331.10314
330.91516
330.79151
330.6457
330.54871
330.4283
330.34724
330.24379
330.17309
330.0817
330.01814
329.93573
329.87734
329.80188
329.74754
329.67781
329.627
329.56233
329.51491
329.45495
329.41097
329.3555
329.31496
329.26364
329.22633
329.17866
329.14425
329.09966
329.06772
329.02543
328.99529
328.95432
328.92523
328.88472
328.85636
328.81593
328.78868
328.74839
328.72308
328.68283
328.6606
328.61935
328.6024
328.55518
335.37057
333.81126
332.95309
332.40956
332.08117
331.78201
331.58896
331.3811
331.24487
331.08417
330.97799
330.84588
330.75778
330.64481
330.5685
330.4692
330.40107
330.31193
330.24973
330.16848
330.11091
330.03613
329.98258
329.91351
329.86381
329.80003
329.75422
329.69551
329.65362
329.59963
329.56144
329.5116
329.47676
329.43046
329.3985
329.35491
329.32511
329.28312
329.25461
329.21317
329.18553
329.14415
329.11771
329.07642
329.05215
329.01086
328.99009
328.9477
328.93282
328.88454
335.67889
334.3655
333.51888
332.94831
332.5967
332.27326
332.06379
331.838
331.69007
331.51564
331.40072
331.25769
331.16278
331.04087
330.9591
330.8523
330.77968
330.68416
330.6182
330.53142
330.47064
330.39102
330.33474
330.26142
330.20941
330.14192
330.09422
330.03233
329.98899
329.93234
329.89317
329.84116
329.80576
329.75773
329.72564
329.68073
329.65119
329.60818
329.5802
329.53787
329.51088
329.46858
329.44288
329.40059
329.37724
329.33491
329.31544
329.27196
329.25889
329.2098
335.93412
334.85271
334.04282
333.45954
333.09166
332.74875
332.5253
332.28391
332.1254
331.93862
331.81555
331.66251
331.56113
331.43094
331.34391
331.23013
331.15314
331.05164
330.982
330.89001
330.82608
330.74188
330.68288
330.6055
330.55116
330.4801
330.43045
330.36546
330.32059
330.26132
330.22105
330.16689
330.13081
330.08105
330.0487
330.00246
329.97307
329.92907
329.90154
329.85837
329.83197
329.78879
329.76374
329.72047
329.69793
329.65455
329.63622
329.59167
329.58016
329.53048
336.14685
335.27488
334.52146
333.93948
333.56283
333.20576
332.9712
332.71682
332.54911
332.35155
332.22107
332.05909
331.95169
331.81398
331.72196
331.60177
331.5206
331.41357
331.34037
331.24354
331.17654
331.08804
331.02637
330.94517
330.8885
330.81403
330.7624
330.6944
330.64794
330.58611
330.54465
330.48835
330.45147
330.39998
330.36724
330.31969
330.29034
330.24537
330.21822
330.17424
330.14837
330.10435
330.07988
330.03565
330.0138
329.96938
329.95202
329.90644
329.89621
329.84611
336.32526
335.63581
334.95281
334.38503
334.00728
333.6417
333.39921
333.13477
332.95944
332.75287
332.61588
332.44614
332.33326
332.18888
332.09225
331.96628
331.88118
331.76911
331.69253
331.59126
331.52131
331.42884
331.36457
331.2798
331.22085
331.14316
331.08954
331.01867
330.97055
330.90624
330.8635
330.80511
330.76734
330.71411
330.68088
330.632
330.60258
330.55666
330.5298
330.48508
330.45967
330.41488
330.3909
330.34575
330.32445
330.27901
330.26244
330.21589
330.20667
330.15628
336.47579
335.94059
335.33637
334.79395
334.42253
334.05424
333.80726
333.53586
333.35471
333.14104
332.99858
332.82237
332.70468
332.55456
332.45374
332.32271
332.23398
332.11743
332.03769
331.93242
331.85968
331.7636
331.69685
331.6088
331.54763
331.46694
331.41134
331.33776
331.28796
331.22126
331.17718
331.11675
331.07798
331.02306
330.9892
330.939
330.9094
330.86256
330.83591
330.7905
330.76549
330.71999
330.69642
330.6504
330.62953
330.5831
330.56713
330.51966
330.51119
330.46059
336.60357
336.19515
335.67299
335.16494
334.80671
334.44138
334.19347
333.91835
333.73332
333.51458
333.36783
333.18655
333.06479
332.90995
332.80546
332.67013
332.57812
332.45769
332.37505
332.26627
332.19093
332.09164
332.02256
331.93154
331.86826
331.7848
331.72729
331.65116
331.59967
331.53071
331.48525
331.42285
331.38302
331.32643
331.29184
331.24034
331.21044
331.1627
331.13618
331.09014
331.06546
331.01933
330.99608
330.94925
330.92869
330.88131
330.86576
330.81742
330.80945
330.75868
336.71275
336.40581
335.96476
335.49766
335.15858
334.80157
334.55627
334.28069
334.09384
333.87215
333.72238
333.53748
333.41249
333.254
333.14641
333.0076
332.91273
332.78907
332.70384
332.59206
332.51438
332.41229
332.34105
332.24741
332.18214
332.09621
332.03684
331.95837
331.90522
331.83413
331.78727
331.72301
331.68204
331.62384
331.58844
331.53565
331.50535
331.45674
331.43025
331.38363
331.35923
331.31254
331.28956
331.24199
331.22162
331.17333
331.15802
331.10887
331.10118
331.05025
336.80667
336.57891
336.21469
335.79269
335.4776
335.13374
334.89442
334.6216
334.43501
334.21251
334.06106
333.87406
333.74677
333.58574
333.4757
333.33426
333.237
333.11076
333.02331
332.90908
332.82932
332.72488
332.65169
332.5558
332.48871
332.4006
332.33949
332.25892
332.20415
332.1311
332.08284
332.01682
331.97469
331.91495
331.87864
331.82459
331.7938
331.74434
331.7178
331.67067
331.64647
331.59932
331.57654
331.5283
331.50802
331.45888
331.44364
331.39371
331.38611
331.33498
336.88806
336.72051
336.42648
336.05143
335.76389
335.43733
335.20708
334.94006
334.75581
334.53463
334.38289
334.19532
334.06667
333.90425
333.79246
333.64926
333.55014
333.42203
333.33274
333.21663
333.1351
333.02879
332.95389
332.85614
332.78741
332.69745
332.63474
332.5523
332.49599
332.42117
332.37154
332.30391
332.26059
332.19939
332.16211
332.10686
332.07547
332.0252
331.99852
331.95095
331.9269
331.87937
331.85672
331.80791
331.78761
331.73769
331.72237
331.6717
331.66402
331.61264
336.95911
336.83618
336.60426
336.27599
336.01825
335.71229
335.49384
335.2354
335.05547
334.83765
334.68702
334.50039
334.3714
334.20872
334.09592
333.95187
333.85144
333.72217
333.63146
333.51406
333.4311
333.3234
333.24707
333.14787
333.07771
332.98625
332.92209
332.83807
332.78032
332.70394
332.65297
332.58389
332.53939
332.47685
332.43856
332.38216
332.35008
332.29905
332.27214
332.22419
332.20022
332.15241
332.12984
332.08056
332.06015
332.00951
331.99397
331.94259
331.93469
331.88298
337.02158
336.93085
336.75231
336.46899
336.24202
335.95911
335.75469
335.50728
335.33351
335.12098
334.97281
334.78859
334.66025
334.49847
334.38541
334.24141
334.14024
334.01054
333.91888
333.80077
333.71675
333.60816
333.53069
333.43046
333.35912
333.2665
333.20109
333.11578
333.05672
332.979
332.92678
332.85642
332.81077
332.747
332.70768
332.6502
332.61736
332.56561
332.5384
332.49012
332.46618
332.41819
332.39565
332.34599
332.3254
332.27411
332.25825
332.20618
332.19796
332.14582
337.07691
337.00879
336.87483
336.63338
336.43702
336.17871
335.99002
335.7557
335.58971
335.38422
335.23982
335.0594
334.93271
334.77293
334.66037
334.5173
334.416
334.28658
334.19444
334.07623
333.99154
333.88255
333.80426
333.70342
333.63116
333.53776
333.4713
333.38501
333.32479
333.24597
333.19261
333.12115
333.07441
333.00955
332.9692
332.91072
332.87707
332.82465
332.79706
332.74853
332.72457
332.67648
332.65393
332.60399
332.58317
332.5313
332.51502
332.46227
332.45364
332.40099
337.12623
337.07353
336.97583
336.77233
336.60543
336.3724
336.20058
335.98099
335.82416
335.62725
335.48779
335.31248
335.18838
335.03165
334.92035
334.77909
334.67825
334.54982
334.45769
334.33997
334.255
334.14612
334.06734
333.96633
333.89342
333.79961
333.73233
333.64538
333.58417
333.50451
333.45012
333.37778
333.33002
333.26424
333.22286
333.16348
333.12899
333.07594
333.04792
332.99919
332.97516
332.92708
332.90448
332.85437
332.83327
332.78089
332.76412
332.7107
332.70161
332.64835
337.17045
337.12797
337.05897
336.88903
336.74966
336.54183
336.38748
336.18377
336.03721
335.85019
335.71673
335.54767
335.42706
335.27436
335.16506
335.0264
334.92663
334.79988
334.70824
334.59158
334.50674
334.39847
334.31953
334.21878
334.14551
334.05168
333.98383
333.89654
333.83453
333.7543
333.69901
333.62601
333.57732
333.51079
333.46843
333.40827
333.3729
333.31931
333.29079
333.24193
333.21778
333.16979
333.14713
333.09694
333.07553
333.02272
333.00541
332.95132
332.94174
332.88777
337.21028
337.17438
337.12748
336.98657
336.87226
336.68886
336.55206
336.36494
336.22946
336.05336
335.92679
335.765
335.64869
335.50092
335.3943
335.25903
335.16089
335.03647
334.94581
334.83077
334.74647
334.63929
334.56054
334.46046
334.38713
334.29364
334.22548
334.13817
334.07558
333.99505
333.93903
333.86558
333.81609
333.74899
333.70571
333.64489
333.60864
333.55458
333.52551
333.47659
333.45228
333.40447
333.38173
333.33155
333.30982
333.25664
333.23877
333.18401
333.17393
333.11918
337.24629
337.21452
337.18417
337.06785
336.97577
336.81553
336.69588
336.52565
336.40174
336.23733
336.11838
335.9647
335.8534
335.71133
335.60804
335.47684
335.3809
335.25941
335.17019
335.05731
334.97393
334.86831
334.79009
334.69109
334.618
334.52522
334.457
334.37002
334.30706
334.22651
334.16992
334.09627
334.0461
333.97863
333.93451
333.87317
333.83605
333.7816
333.75196
333.70304
333.67854
333.63099
333.60814
333.55808
333.53602
333.48254
333.46409
333.40867
333.39809
333.34248
337.27893
337.24971
337.23138
337.13551
337.06271
336.92392
336.82065
336.66718
336.55507
336.40284
336.29204
336.14714
336.04144
335.90576
335.80636
335.67986
335.58662
335.46862
335.38129
335.27104
335.18899
335.08535
335.008
334.91048
334.83791
334.7462
334.6782
334.59186
334.52875
334.44846
334.39148
334.31788
334.26717
334.19953
334.15467
334.09296
334.055
334.00024
333.97001
333.92116
333.89644
333.84923
333.82628
333.77641
333.75403
333.70031
333.6813
333.62523
333.61416
333.55764
337.30856
337.28094
337.27102
337.19187
337.1354
337.01612
336.92815
336.79099
336.69061
336.55079
336.4485
336.31285
336.21325
336.08449
335.98947
335.86822
335.77813
335.66413
335.57908
335.47193
335.39156
335.29033
335.21416
335.11848
335.04673
334.95643
334.8889
334.80351
334.74049
334.66074
334.60357
334.53024
334.47915
334.41155
334.36606
334.30413
334.26539
334.21043
334.1796
334.13087
334.10592
334.05911
334.03605
333.98647
333.96377
333.90989
333.89034
333.83363
333.8221
333.76463
337.33546
337.30889
337.30462
337.23894
337.196
337.09414
337.02018
336.89858
336.80964
336.68221
336.5886
336.46252
336.36936
336.24795
336.15772
336.04215
335.95563
335.84604
335.76366
335.66001
335.58166
335.4832
335.40853
335.31504
335.24438
335.1558
335.08901
335.00487
334.94216
334.86322
334.80604
334.73323
334.68191
334.61457
334.56857
334.50659
334.46713
334.41206
334.38065
334.33212
334.30692
334.26058
334.23742
334.18819
334.16521
334.11121
334.09115
334.03383
334.02186
333.96344
337.35987
337.33406
337.33338
337.27843
337.24645
337.1599
337.09851
336.99151
336.9135
336.79823
336.71331
336.59692
336.51043
336.39666
336.31153
336.202
336.11939
336.01458
335.9352
335.8354
335.75938
335.66403
335.59114
335.50014
335.43083
335.34427
335.27846
335.19586
335.13369
335.05581
334.99882
334.92676
334.87539
334.8085
334.76213
334.70027
334.66017
334.60511
334.57313
334.52486
334.49942
334.4536
334.43035
334.38153
334.35829
334.30425
334.28373
334.22582
334.21345
334.15407
337.38195
337.3568
337.35823
337.31174
337.28845
337.21513
337.16482
337.07131
337.00357
336.90005
336.82365
336.71692
336.63722
336.53125
336.45146
336.34823
336.26979
336.17006
336.09396
335.99829
335.92489
335.83293
335.76208
335.67385
335.60613
335.52187
335.45726
335.37645
335.31505
335.23848
335.18188
335.11079
335.05954
334.99331
334.9467
334.88513
334.84447
334.78955
334.75704
334.7091
334.68341
334.63817
334.61483
334.56649
334.54303
334.48899
334.46805
334.4096
334.39687
334.33656
337.40185
337.37733
337.37984
337.34
337.32343
337.26143
337.22071
337.13947
337.08123
336.98888
336.92072
336.82348
336.75055
336.65243
336.57811
336.48134
336.40728
336.31284
336.24025
336.14897
336.07841
335.99009
335.9215
335.83629
335.77039
335.68865
335.62547
335.5467
335.48626
335.41123
335.35521
335.2853
335.23433
335.16896
335.12227
335.06115
335.02005
334.96537
334.93238
334.88484
334.85893
334.8143
334.79089
334.74307
334.71943
334.66546
334.64414
334.58519
334.57215
334.51095
337.4197
337.39582
337.39873
337.36412
337.35264
337.30019
337.26764
337.19741
337.14782
337.06594
337.00562
336.91757
336.8513
336.76097
336.69218
336.60193
336.53239
336.44339
336.37449
336.28777
336.22024
336.13576
336.06965
335.98765
335.92376
335.84476
335.78319
335.70668
335.6474
335.57412
335.51885
335.45033
335.39981
335.33548
335.28885
335.22835
335.18692
335.1326
335.0992
335.05212
335.026
334.98204
334.95858
334.91132
334.88752
334.83367
334.81203
334.75265
334.73933
334.67731
337.43558
337.41239
337.41528
337.3848
337.37709
337.33262
337.30691
337.24646
337.20461
337.13243
337.07947
337.00021
336.94039
336.85769
336.79438
336.71065
336.64571
336.56222
336.49713
336.41509
336.35075
336.27026
336.20678
336.12817
336.06647
335.99038
335.9306
335.85652
335.79858
335.72725
335.6729
335.60595
335.55604
335.49292
335.4465
335.38677
335.34514
335.2913
335.25755
335.211
335.18471
335.14144
335.11794
335.07129
335.04737
334.99369
334.97177
334.91203
334.89847
334.83572
337.44955
337.42713
337.42976
337.40261
337.39761
337.35977
337.33969
337.28781
337.25281
337.18951
337.14335
337.07239
337.01875
336.94342
336.8855
336.80819
336.74785
336.66988
336.60867
336.53139
336.47034
336.39395
336.33324
336.25814
336.19876
336.12572
336.06788
335.9964
335.93996
335.87074
335.81748
335.75226
335.70311
335.64136
335.59529
335.5365
335.49477
335.44154
335.40752
335.36157
335.33513
335.29259
335.26907
335.22305
335.19904
335.14559
335.12344
335.06342
335.04966
334.98627
337.46169
337.4401
337.44239
337.41796
337.41486
337.3825
337.36701
337.32257
337.29353
337.23826
337.19832
337.1351
337.0873
337.01901
336.96632
336.89526
336.83947
336.76696
336.70967
336.63715
336.57947
336.50724
336.44938
336.37789
336.32094
336.25107
336.1953
336.12654
336.07175
336.00478
335.95276
335.88941
335.84116
335.78093
335.73535
335.67762
335.63593
335.58341
335.54922
335.50393
335.47738
335.4356
335.41207
335.36671
335.34263
335.28946
335.26713
335.20692
335.19299
335.12908
337.47205
337.4514
337.45333
337.43119
337.4294
337.40156
337.38972
337.35168
337.32778
337.2797
337.24537
337.1893
337.14694
337.08532
337.03762
336.9726
336.92126
336.8541
336.80069
336.7329
336.67862
336.61055
336.55562
336.48779
336.43336
336.36673
336.31313
336.2472
336.19416
336.12957
336.07891
336.01757
335.97035
335.91176
335.86679
335.81026
335.76873
335.71703
335.68276
335.6382
335.61159
335.57058
335.54706
335.50238
335.47825
335.42543
335.40294
335.34265
335.32857
335.26429
337.48068
337.46108
337.46271
337.44257
337.44165
337.41753
337.40858
337.37601
337.35646
337.31476
337.28542
337.23589
337.19854
337.14318
337.1002
337.04093
336.99389
336.93192
336.88234
336.81919
336.76829
336.70437
336.6524
336.58824
336.53639
336.47304
336.42169
336.35866
336.30748
336.24536
336.19619
336.13695
336.09087
336.03404
335.9898
335.93457
335.89333
335.84256
335.80829
335.76453
335.7379
335.69769
335.67419
335.63021
335.60605
335.55361
335.53101
335.47074
335.45655
335.39204
337.48765
337.46924
337.47066
337.45231
337.45196
337.43093
337.42422
337.39628
337.38039
337.34429
337.31934
337.27571
337.24295
337.19337
337.15481
337.10099
337.05805
337.00107
336.9552
336.89658
336.84902
336.78918
336.74017
336.67967
336.63043
336.57038
336.52133
336.46123
336.412
336.35243
336.30483
336.24779
336.20295
336.14795
336.10456
336.05074
336.0099
335.96015
335.92598
335.88308
335.85647
335.81708
335.79361
335.75034
335.72616
335.67418
335.65148
335.59135
335.57707
335.51248
337.49308
337.47599
337.4773
337.46058
337.46061
337.44214
337.43716
337.41312
337.40026
337.36902
337.3479
337.30957
337.28092
337.23665
337.2022
337.15347
337.11441
337.06218
337.01989
336.96564
336.92134
336.86549
336.8194
336.76252
336.7159
336.65914
336.61241
336.55527
336.50804
336.45106
336.40512
336.35034
336.30682
336.25374
336.21129
336.15896
336.11862
336.07
336.03602
335.99402
335.96749
335.92893
335.9055
335.86294
335.83875
335.78728
335.76451
335.70465
335.69029
335.6258
337.49708
337.48143
337.48273
337.46753
337.46781
337.4515
337.44782
337.42707
337.41667
337.38963
337.37179
337.33816
337.31318
337.27375
337.24304
337.19904
337.16362
337.11587
337.07701
337.02693
336.98579
336.9338
336.89059
336.83725
336.79323
336.73971
336.69532
336.64114
336.59594
336.54159
336.49736
336.44488
336.40277
336.35165
336.31021
336.25945
336.21972
336.17228
336.13859
336.09755
336.07114
336.03342
336.01004
335.96821
335.94401
335.89311
335.87028
335.81081
335.79641
335.73219
337.49984
337.48569
337.48708
337.4733
337.47376
337.45928
337.45658
337.43855
337.43015
337.4067
337.39164
337.36213
337.34039
337.30531
337.27801
337.23835
337.20631
337.16276
337.12712
337.08101
337.04291
336.99463
336.95422
336.90432
336.86286
336.81253
336.77047
336.71919
336.67606
336.62433
336.58187
336.53172
336.49106
336.44193
336.40159
336.35245
336.31341
336.26724
336.23392
336.19388
336.16764
336.13076
336.10744
336.06634
336.04214
335.99185
335.96899
335.91004
335.89561
335.83184
337.50152
337.48893
337.49046
337.47802
337.47861
337.46569
337.46371
337.44795
337.44113
337.42071
337.40798
337.38207
337.36314
337.33194
337.30769
337.272
337.24306
337.2034
337.17079
337.12843
337.09321
337.04847
337.01076
336.96419
336.92524
336.878
336.83824
336.78984
336.74876
336.69965
336.65899
336.61116
336.57199
336.52488
336.48568
336.4382
336.39994
336.35509
336.32223
336.28323
336.25719
336.22116
336.1979
336.15755
336.13333
336.08373
336.06085
336.00255
335.9881
335.92497
337.50234
337.49127
337.49299
337.4818
337.48249
337.47092
337.46945
337.45557
337.44998
337.4321
337.42129
337.39846
337.38196
337.35419
337.33265
337.30054
337.27442
337.23835
337.20857
337.1697
337.1372
337.09582
337.06071
337.01732
336.9808
336.93657
336.89906
336.85345
336.81443
336.76789
336.72904
336.68353
336.64588
336.60077
336.56277
336.51697
336.47957
336.43609
336.40375
336.36582
336.34004
336.30486
336.28166
336.24204
336.21782
336.16896
336.14607
336.08856
336.07411
336.01181
337.5025
337.49286
337.49478
337.48475
337.48553
337.47512
337.47399
337.46166
337.45698
337.44122
337.43195
337.41176
337.39731
337.37254
337.35339
337.32448
337.30092
337.26812
337.24094
337.20533
337.17538
337.13716
337.10451
337.06416
337.02999
336.98865
336.95332
336.91043
336.87343
336.82942
336.79238
336.74917
336.71304
336.66993
336.63314
336.58905
336.55256
336.51049
336.47874
336.44191
336.4164
336.38207
336.35893
336.32007
336.29583
336.24778
336.22489
336.16831
336.15388
336.09259
337.50218
337.49384
337.49595
337.48697
337.48782
337.47839
337.47749
337.4664
337.4624
337.44835
337.44031
337.42233
337.4096
337.38743
337.37035
337.34429
337.32301
337.29319
337.26838
337.23577
337.20821
337.17294
337.14263
337.10516
337.07324
337.03465
337.00144
336.96117
336.92614
336.88461
336.84937
336.80839
336.77379
336.73264
336.6971
336.6547
336.61919
336.57854
336.54746
336.51174
336.48654
336.45304
336.42997
336.39186
336.36761
336.32043
336.29756
336.24204
336.22765
336.16755
337.50153
337.49432
337.49658
337.48855
337.48944
337.48086
337.48006
337.46996
337.46641
337.45375
337.44664
337.4305
337.41918
337.39924
337.38394
337.36038
337.34112
337.31399
337.29134
337.26148
337.23612
337.2036
337.17548
337.14073
337.11095
337.07498
337.04381
337.00605
336.97295
336.93381
336.90034
336.86156
336.82847
336.78924
336.75494
336.71423
336.67973
336.64053
336.61015
336.57556
336.55069
336.51803
336.49502
336.45767
336.43342
336.38716
336.36434
336.31
336.29568
336.23695
337.50067
337.4944
337.49678
337.48957
337.49048
337.48258
337.48179
337.47246
337.46917
337.45759
337.45117
337.43652
337.42634
337.4083
337.3945
337.37313
337.35565
337.33091
337.31022
337.28286
337.25952
337.22954
337.20348
337.17127
337.14352
337.11004
337.08081
337.04544
337.01421
336.97738
336.94565
336.90899
336.87738
336.84002
336.80697
336.76794
336.73448
336.69673
336.6671
336.63363
336.60912
336.57728
336.55433
336.51775
336.4935
336.44823
336.42548
336.37247
336.35822
336.30104
337.49967
337.49417
337.4966
337.4901
337.49098
337.48362
337.48275
337.47397
337.47079
337.46003
337.45408
337.44063
337.43134
337.41488
337.40234
337.38287
337.36694
337.34432
337.32539
337.30029
337.27881
337.25116
337.22701
337.19717
337.17134
337.14019
337.11281
337.07972
337.05029
337.01568
336.98563
336.95102
336.92087
336.88531
336.8535
336.81611
336.78372
336.74742
336.71857
336.68622
336.66208
336.63105
336.60817
336.57236
336.54813
336.50392
336.48126
336.4297
336.41556
336.36008
337.49857
337.49369
337.49612
337.49019
337.49099
337.48402
337.48297
337.47457
337.47135
337.46117
337.4555
337.44298
337.43437
337.41922
337.40773
337.38987
337.37528
337.35455
337.33718
337.31412
337.29432
337.2688
337.24643
337.2188
337.19477
337.16581
337.14018
337.10924
337.08154
337.04905
337.02063
336.98798
336.95924
336.92542
336.89482
336.85904
336.82774
336.79288
336.76484
336.73359
336.70984
336.6796
336.6568
336.62177
336.59758
336.55449
336.53196
336.48196
336.46796
336.41434
337.49741
337.493
337.49538
337.48989
337.49053
337.48381
337.48249
337.47428
337.4709
337.4611
337.45555
337.44373
337.43561
337.42152
337.41088
337.3944
337.38096
337.36188
337.34589
337.32467
337.30639
337.28282
337.26208
337.2365
337.21415
337.18723
337.16325
337.13434
337.10828
337.07782
337.05097
337.02018
336.99281
336.96066
336.93125
336.89703
336.86682
336.83339
336.80617
336.77602
336.75266
336.72319
336.70048
336.66625
336.64212
336.60021
336.57786
336.52953
336.5157
336.46408
337.49617
337.49214
337.49442
337.48922
337.48962
337.48298
337.4813
337.47312
337.46946
337.45986
337.45429
337.44297
337.4352
337.42196
337.412
337.39667
337.38421
337.36657
337.35181
337.33221
337.31531
337.29351
337.27428
337.25058
337.22979
337.20477
337.18234
337.15534
337.13086
337.1023
337.07696
337.04795
337.02188
336.99132
336.96308
336.93038
336.90126
336.86923
336.84284
336.81376
336.7908
336.7621
336.73949
336.70607
336.68205
336.64138
336.61925
336.5727
336.55907
336.50957
337.49486
337.49113
337.49324
337.48819
337.48825
337.48152
337.47937
337.47107
337.46704
337.45748
337.45179
337.44079
337.43323
337.42065
337.41123
337.39687
337.38524
337.36885
337.35517
337.33702
337.32135
337.30116
337.28331
337.26135
337.24201
337.21875
337.19778
337.17256
337.14956
337.12281
337.09891
337.07157
337.04674
337.0177
336.9906
336.95937
336.93134
336.90068
336.87512
336.84709
336.82453
336.79658
336.77409
336.7415
336.71762
336.67826
336.65641
336.61173
336.59834
336.55108
337.49346
337.48996
337.49185
337.48679
337.4864
337.47941
337.47669
337.46812
337.46363
337.45397
337.44806
337.43725
337.42979
337.41772
337.40871
337.39516
337.38423
337.36893
337.35619
337.33933
337.32477
337.30603
337.28945
337.26907
337.25109
337.22945
337.20983
337.18628
337.16469
337.13964
337.1171
337.09133
337.0677
337.04008
337.0141
336.98429
336.95734
336.92801
336.90329
336.87627
336.85412
336.8269
336.80456
336.77283
336.74914
336.71114
336.68962
336.6469
336.63379
336.58885
337.49196
337.48865
337.49024
337.485
337.48401
337.47659
337.4732
337.46422
337.4592
337.44933
337.44313
337.43239
337.42495
337.41326
337.40456
337.39168
337.38134
337.36697
337.35507
337.33935
337.32579
337.30836
337.29294
337.27401
337.25727
337.23713
337.21879
337.19678
337.17653
337.15307
337.13182
337.10752
337.08502
337.05876
337.03385
337.00541
336.97952
336.95149
336.9276
336.90156
336.87982
336.85334
336.83117
336.80032
336.77689
336.74031
336.71918
336.67848
336.6657
336.62316
337.49033
337.48717
337.48838
337.48276
337.48103
337.473
337.46883
337.45932
337.45371
337.44354
337.437
337.42624
337.41875
337.40734
337.39887
337.38654
337.37671
337.36315
337.35198
337.33727
337.3246
337.30836
337.294
337.27641
337.26082
337.24205
337.22489
337.20433
337.18533
337.16335
337.14332
337.12041
337.09897
337.07399
337.05012
337.023
336.99816
336.97138
336.94831
336.92322
336.90191
336.87614
336.85419
336.82425
336.80114
336.76603
336.74537
336.70675
336.69432
336.65424
337.48857
337.48552
337.48621
337.48
337.47737
337.46855
337.46351
337.45337
337.44712
337.43658
337.42966
337.41881
337.41124
337.40003
337.39173
337.37985
337.37045
337.3576
337.34708
337.33326
337.32141
337.30623
337.29285
337.27647
337.26195
337.24445
337.22839
337.20917
337.19134
337.17075
337.15186
337.13023
337.10981
337.08604
337.06317
337.03733
337.01352
336.98795
336.96568
336.94151
336.92063
336.89559
336.87389
336.8449
336.82217
336.78858
336.76845
336.73196
336.71994
336.68235
337.48666
337.48366
337.48368
337.47663
337.47292
337.46314
337.45715
337.4463
337.43938
337.42841
337.42111
337.41013
337.40244
337.39137
337.38321
337.37171
337.36268
337.35045
337.3405
337.32749
337.31637
337.30216
337.28968
337.27441
337.26086
337.24453
337.2295
337.21152
337.1948
337.1755
337.15767
337.13725
337.11777
337.09516
337.07326
337.04864
337.02584
337.00144
336.97996
336.95669
336.93624
336.91193
336.89054
336.86252
336.84025
336.80823
336.7887
336.75438
336.74279
336.70771
337.48457
337.48155
337.48068
337.47254
337.46756
337.45668
337.44966
337.43804
337.43044
337.41902
337.41134
337.40019
337.39239
337.38142
337.37337
337.36219
337.35349
337.34182
337.33238
337.32009
337.30963
337.29631
337.28465
337.27041
337.25777
337.24251
337.22843
337.2116
337.19592
337.17782
337.16099
337.14168
337.12311
337.10158
337.08063
337.05719
337.03538
337.0121
336.9914
336.96899
336.949
336.92542
336.9044
336.8774
336.85566
336.82525
336.80638
336.77424
336.76313
336.73055
337.48228
337.47914
337.4771
337.46759
337.46117
337.44904
337.44095
337.42852
337.42025
337.40838
337.40033
337.38902
337.38111
337.37022
337.36226
337.35137
337.34298
337.3318
337.32284
337.31119
337.30135
337.28883
337.27794
337.26463
337.25283
337.23856
337.22537
337.20962
337.1949
337.17792
337.16203
337.14375
337.12604
337.10554
337.08552
337.06321
337.04236
337.02017
337.00023
336.97866
336.95915
336.93632
336.91572
336.88978
336.86865
336.83988
336.82174
336.79177
336.78118
336.75109
337.47976
337.47632
337.4728
337.46162
337.45358
337.44012
337.43094
337.41768
337.40877
337.39647
337.38809
337.37663
337.36863
337.35781
337.34995
337.33933
337.33122
337.32049
337.31197
337.30092
337.29165
337.27988
337.2697
337.25725
337.24622
337.23286
337.2205
337.20575
337.19194
337.176
337.16098
337.14367
337.12677
337.10726
337.08814
337.06693
337.04702
337.02588
337.00669
336.98595
336.96694
336.94487
336.92476