/*--------------------------------*- C++ -*----------------------------------*\
| =========                 |                                                 |
| \\      /  F ield         | OpenFOAM: The Open Source CFD Toolbox           |
|  \\    /   O peration     | Version:  2312                                  |
|   \\  /    A nd           | Website:  www.openfoam.com                      |
|    \\/     M anipulation  |                                                 |
\*---------------------------------------------------------------------------*/
FoamFile
{
    version     2.0;
    format      ascii;
    arch        "LSB;label=32;scalar=64";
    class       volScalarField;
    location    "3";
    object      p;
}
// * * * * * * * * * * * * * * * * * * * * * * * * * * * * * * * * * * * * * //

dimensions      [0 2 -2 0 0 0 0];

internalField   nonuniform List<scalar> 
4000
(
39.7627
37.742452
35.993646
35.027378
33.869946
33.172351
32.219826
31.59393
30.706324
30.085812
29.223941
28.592646
27.747153
27.102824
26.270763
25.614207
24.793833
24.126391
23.316259
22.639233
21.838096
21.152635
20.359417
19.666521
18.880286
18.180836
17.400755
16.695534
15.920864
15.210578
14.440647
13.725938
12.96013
12.241586
11.479338
10.7575
9.9982917
9.2736591
8.5170089
7.7900455
7.0355058
6.3066447
5.5537959
4.8234444
4.0718905
3.3404349
2.5897981
1.8576098
1.1075258
0.37496272
39.755561
37.742062
35.995064
35.027258
33.870032
33.172336
32.219842
31.593931
30.70633
30.085809
29.223946
28.592642
27.747157
27.102821
26.270766
25.614204
24.793835
24.126388
23.316261
22.639231
21.838098
21.152633
20.359419
19.66652
18.880287
18.180834
17.400756
16.695533
15.920865
15.210577
14.440648
13.725937
12.960131
12.241586
11.479339
10.757499
9.9982924
9.2736585
8.5170094
7.790045
7.0355062
6.3066442
5.5537964
4.823444
4.0718908
3.3404346
2.5897984
1.8576095
1.1075262
0.37496214
39.706205
37.740339
35.99725
35.026983
33.870178
33.172324
32.219863
31.593945
30.706332
30.085813
29.223945
28.592644
27.747156
27.102822
26.270765
25.614205
24.793835
24.126389
23.316261
22.639231
21.838098
21.152633
20.359418
19.66652
18.880287
18.180835
17.400756
16.695533
15.920865
15.210577
14.440647
13.725937
12.960131
12.241586
11.479339
10.7575
9.9982922
9.2736586
8.5170093
7.7900451
7.0355061
6.3066443
5.5537962
4.8234441
4.0718907
3.3404347
2.5897983
1.8576096
1.1075261
0.37496201
39.672197
37.738339
35.999418
35.026603
33.870325
33.172303
32.219882
31.59396
30.706331
30.085818
29.223942
28.592646
27.747153
27.102824
26.270763
25.614207
24.793833
24.126391
23.316259
22.639233
21.838096
21.152634
20.359417
19.666521
18.880286
18.180836
17.400755
16.695534
15.920864
15.210578
14.440647
13.725938
12.96013
12.241586
11.479338
10.7575
9.9982918
9.273659
8.5170089
7.7900455
7.0355058
6.3066446
5.553796
4.8234444
4.0718905
3.3404349
2.5897981
1.8576098
1.1075259
0.37496205
39.648368
37.733302
36.00113
35.026144
33.870487
33.17227
32.2199
31.593971
30.706328
30.085822
29.22394
28.592649
27.747151
27.102826
26.270761
25.614208
24.793831
24.126392
23.316258
22.639234
21.838095
21.152635
20.359416
19.666522
18.880285
18.180837
17.400754
16.695534
15.920863
15.210579
14.440646
13.725938
12.96013
12.241587
11.479338
10.757501
9.9982914
9.2736594
8.5170086
7.7900458
7.0355055
6.3066449
5.5537957
4.8234446
4.0718902
3.3404351
2.5897979
1.8576101
1.1075257
0.3749621
39.598073
37.728765
36.002422
35.025803
33.870703
33.172228
32.219917
31.593977
30.706326
30.085825
29.223937
28.592651
27.747149
27.102827
26.27076
25.61421
24.79383
24.126393
23.316257
22.639235
21.838094
21.152636
20.359415
19.666523
18.880284
18.180837
17.400753
16.695535
15.920863
15.210579
14.440646
13.725939
12.960129
12.241587
11.479338
10.757501
9.9982911
9.2736596
8.5170084
7.790046
7.0355053
6.3066451
5.5537955
4.8234448
4.0718901
3.3404353
2.5897977
1.8576102
1.1075256
0.37496214
39.567469
37.726474
36.002402
35.026186
33.871037
33.172188
32.219935
31.593978
30.706323
30.085827
29.223935
28.592652
27.747148
27.102829
26.270759
25.614211
24.793829
24.126394
23.316256
22.639236
21.838093
21.152637
20.359415
19.666523
18.880284
18.180838
17.400753
16.695535
15.920862
15.210579
14.440645
13.725939
12.960129
12.241587
11.479337
10.757501
9.9982909
9.2736598
8.5170082
7.7900462
7.0355051
6.3066453
5.5537954
4.8234449
4.0718899
3.3404354
2.5897976
1.8576104
1.1075255
0.37496218
39.525853
37.725183
36.00074
35.027512
33.871376
33.172143
32.219951
31.593975
30.706321
30.085829
29.223934
28.592653
27.747147
27.10283
26.270758
25.614212
24.793828
24.126395
23.316255
22.639236
21.838093
21.152638
20.359414
19.666524
18.880283
18.180838
17.400752
16.695536
15.920862
15.21058
14.440645
13.725939
12.960129
12.241588
11.479337
10.757501
9.9982907
9.27366
8.517008
7.7900463
7.035505
6.3066454
5.5537952
4.8234451
4.0718898
3.3404356
2.5897974
1.8576105
1.1075253
0.37496222
39.490423
37.723136
35.999445
35.029199
33.871492
33.172097
32.219967
31.593969
30.706318
30.085829
29.223932
28.592654
27.747145
27.10283
26.270757
25.614212
24.793827
24.126396
23.316254
22.639237
21.838092
21.152638
20.359414
19.666524
18.880283
18.180839
17.400752
16.695536
15.920862
15.21058
14.440645
13.72594
12.960129
12.241588
11.479337
10.757501
9.9982905
9.2736602
8.5170078
7.7900465
7.0355048
6.3066455
5.5537951
4.8234452
4.0718897
3.3404357
2.5897973
1.8576106
1.1075252
0.37496227
39.46903
37.718733
36.00019
35.030423
33.871274
33.172076
32.21998
31.593958
30.706313
30.085828
29.22393
28.592654
27.747144
27.102831
26.270756
25.614213
24.793827
24.126396
23.316254
22.639238
21.838092
21.152639
20.359413
19.666525
18.880283
18.180839
17.400752
16.695536
15.920861
15.21058
14.440645
13.72594
12.960128
12.241588
11.479337
10.757502
9.9982904
9.2736604
8.5170077
7.7900466
7.0355047
6.3066457
5.553795
4.8234453
4.0718896
3.3404358
2.5897972
1.8576107
1.1075251
0.37496231
39.447699
37.713897
36.000407
35.030574
33.870758
33.172064
32.219978
31.593939
30.706307
30.085826
29.223927
28.592655
27.747143
27.102832
26.270755
25.614214
24.793826
24.126397
23.316253
22.639238
21.838091
21.152639
20.359413
19.666525
18.880282
18.180839
17.400751
16.695537
15.920861
15.210581
14.440644
13.72594
12.960128
12.241588
11.479337
10.757502
9.9982902
9.2736605
8.5170076
7.7900467
7.0355046
6.3066458
5.5537949
4.8234454
4.0718895
3.3404359
2.5897971
1.8576108
1.107525
0.37496235
39.421636
37.708172
35.99893
35.029978
33.870146
33.172015
32.219946
31.593912
30.706298
30.085822
29.223925
28.592654
27.747142
27.102832
26.270755
25.614214
24.793826
24.126397
23.316253
22.639239
21.838091
21.152639
20.359412
19.666525
18.880282
18.18084
17.400751
16.695537
15.920861
15.210581
14.440644
13.72594
12.960128
12.241588
11.479336
10.757502
9.9982901
9.2736606
8.5170074
7.7900469
7.0355045
6.3066459
5.5537948
4.8234455
4.0718894
3.340436
2.5897971
1.8576109
1.1075249
0.37496238
39.397849
37.701769
35.996696
35.029145
33.869565
33.171891
32.219881
31.593874
30.706286
30.085817
29.223921
28.592654
27.747141
27.102833
26.270754
25.614215
24.793825
24.126398
23.316252
22.639239
21.83809
21.15264
20.359412
19.666526
18.880282
18.18084
17.400751
16.695537
15.920861
15.210581
14.440644
13.72594
12.960128
12.241589
11.479336
10.757502
9.99829
9.2736607
8.5170073
7.790047
7.0355044
6.306646
5.5537947
4.8234456
4.0718893
3.340436
2.589797
1.857611
1.1075248
0.37496242
39.377161
37.694702
35.994095
35.028189
33.869006
33.1717
32.219791
31.59383
30.706273
30.08581
29.223916
28.592653
27.74714
27.102833
26.270753
25.614215
24.793825
24.126398
23.316252
22.639239
21.83809
21.15264
20.359412
19.666526
18.880281
18.18084
17.400751
16.695537
15.920861
15.210581
14.440644
13.725941
12.960128
12.241589
11.479336
10.757502
9.9982898
9.2736608
8.5170072
7.790047
7.0355043
6.3066461
5.5537946
4.8234456
4.0718892
3.3404361
2.5897969
1.8576111
1.1075247
0.37496245
39.359101
37.687982
35.991277
35.027129
33.868433
33.171466
32.219689
31.59378
30.70626
30.085802
29.223912
28.592652
27.747138
27.102833
26.270753
25.614216
24.793824
24.126399
23.316251
22.63924
21.83809
21.15264
20.359412
19.666526
18.880281
18.18084
17.40075
16.695538
15.92086
15.210581
14.440644
13.725941
12.960128
12.241589
11.479336
10.757502
9.9982897
9.2736609
8.5170071
7.7900471
7.0355042
6.3066461
5.5537946
4.8234457
4.0718892
3.3404362
2.5897969
1.8576112
1.1075246
0.37496247
39.340447
37.680585
35.988557
35.025919
33.867811
33.171209
32.219583
31.593727
30.706248
30.085795
29.223907
28.592651
27.747137
27.102833
26.270752
25.614216
24.793824
24.126399
23.316251
22.63924
21.83809
21.152641
20.359411
19.666527
18.880281
18.180841
17.40075
16.695538
15.92086
15.210582
14.440643
13.725941
12.960127
12.241589
11.479336
10.757502
9.9982896
9.273661
8.517007
7.7900472
7.0355041
6.3066462
5.5537945
4.8234458
4.0718891
3.3404362
2.5897968
1.8576112
1.1075245
0.3749625
39.326351
37.674146
35.986201
35.024522
33.867153
33.170953
32.219479
31.593677
30.706236
30.085788
29.223903
28.59265
27.747136
27.102833
26.270752
25.614216
24.793823
24.126399
23.316251
22.63924
21.838089
21.152641
20.359411
19.666527
18.880281
18.180841
17.40075
16.695538
15.92086
15.210582
14.440643
13.725941
12.960127
12.241589
11.479336
10.757503
9.9982895
9.2736611
8.517007
7.7900473
7.0355041
6.3066463
5.5537944
4.8234458
4.071889
3.3404363
2.5897967
1.8576113
1.1075244
0.37496252
39.317482
37.666922
35.98415
35.023034
33.866519
33.170715
32.21938
31.59363
30.706224
30.085782
29.223901
28.592649
27.747135
27.102833
26.270751
25.614216
24.793823
24.126399
23.316251
22.63924
21.838089
21.152641
20.359411
19.666527
18.880281
18.180841
17.40075
16.695538
15.92086
15.210582
14.440643
13.725941
12.960127
12.241589
11.479336
10.757503
9.9982895
9.2736612
8.5170069
7.7900474
7.035504
6.3066463
5.5537944
4.8234459
4.071889
3.3404364
2.5897967
1.8576113
1.1075243
0.37496254
39.305344
37.660957
35.982373
35.021634
33.865954
33.170507
32.219291
31.59359
30.706213
30.085776
29.223899
28.592648
27.747134
27.102833
26.270751
25.614217
24.793823
24.1264
23.31625
22.639241
21.838089
21.152641
20.359411
19.666527
18.88028
18.180841
17.40075
16.695538
15.92086
15.210582
14.440643
13.725941
12.960127
12.241589
11.479336
10.757503
9.9982894
9.2736613
8.5170068
7.7900474
7.0355039
6.3066464
5.5537943
4.823446
4.0718889
3.3404364
2.5897966
1.8576114
1.1075242
0.37496255
39.29663
37.654888
35.980502
35.020382
33.86547
33.170334
32.219215
31.593556
30.706204
30.085769
29.223899
28.592647
27.747133
27.102833
26.27075
25.614217
24.793822
24.1264
23.31625
22.639241
21.838089
21.152641
20.35941
19.666527
18.88028
18.180841
17.40075
16.695538
15.92086
15.210582
14.440643
13.725941
12.960127
12.241589
11.479336
10.757503
9.9982893
9.2736613
8.5170068
7.7900475
7.0355039
6.3066465
5.5537942
4.823446
4.0718889
3.3404365
2.5897966
1.8576114
1.1075242
0.37496257
39.284449
37.649366
35.978481
35.019269
33.865056
33.170195
32.219151
31.593529
30.706196
30.085763
29.2239
28.592647
27.747132
27.102833
26.27075
25.614217
24.793822
24.1264
23.31625
22.639241
21.838088
21.152642
20.35941
19.666527
18.88028
18.180841
17.40075
16.695539
15.92086
15.210582
14.440643
13.725941
12.960127
12.241589
11.479335
10.757503
9.9982892
9.2736614
8.5170067
7.7900476
7.0355038
6.3066465
5.5537942
4.8234461
4.0718888
3.3404365
2.5897966
1.8576115
1.1075241
0.37496258
39.277247
37.644035
35.976343
35.018278
33.864694
33.17008
32.219098
31.593506
30.70619
30.085756
29.223901
28.592647
27.747132
27.102833
26.270749
25.614217
24.793822
24.1264
23.31625
22.639241
21.838088
21.152642
20.35941
19.666528
18.88028
18.180842
17.400749
16.695539
15.920859
15.210582
14.440643
13.725941
12.960127
12.241589
11.479335
10.757503
9.9982892
9.2736615
8.5170066
7.7900476
7.0355038
6.3066466
5.5537941
4.8234461
4.0718888
3.3404365
2.5897965
1.8576115
1.107524
0.37496258
39.268629
37.639511
35.974359
35.017393
33.864368
33.169981
32.219052
31.593487
30.706185
30.085749
29.223901
28.592647
27.747131
27.102833
26.270749
25.614217
24.793822
24.1264
23.316249
22.639241
21.838088
21.152642
20.35941
19.666528
18.88028
18.180842
17.400749
16.695539
15.920859
15.210582
14.440643
13.725942
12.960127
12.24159
11.479335
10.757503
9.9982891
9.2736615
8.5170066
7.7900477
7.0355037
6.3066466
5.5537941
4.8234462
4.0718887
3.3404366
2.5897965
1.8576115
1.107524
0.37496259
39.263163
37.635443
35.972503
35.016602
33.864072
33.169893
32.21901
31.59347
30.70618
30.085743
29.223902
28.592647
27.747131
27.102834
26.270749
25.614217
24.793821
24.126401
23.316249
22.639242
21.838088
21.152642
20.35941
19.666528
18.88028
18.180842
17.400749
16.695539
15.920859
15.210582
14.440643
13.725942
12.960127
12.24159
11.479335
10.757503
9.998289
9.2736616
8.5170065
7.7900477
7.0355037
6.3066467
5.553794
4.8234462
4.0718887
3.3404366
2.5897964
1.8576116
1.1075239
0.37496259
39.256515
37.631886
35.970865
35.015888
33.863801
33.169815
32.218971
31.593455
30.706176
30.085737
29.223901
28.592647
27.747132
27.102834
26.270749
25.614218
24.793821
24.126401
23.316249
22.639242
21.838088
21.152642
20.35941
19.666528
18.88028
18.180842
17.400749
16.695539
15.920859
15.210583
14.440643
13.725942
12.960127
12.24159
11.479335
10.757503
9.998289
9.2736617
8.5170065
7.7900478
7.0355036
6.3066467
5.553794
4.8234462
4.0718887
3.3404367
2.5897964
1.8576116
1.1075238
0.3749626
39.252324
37.628723
35.969327
35.015249
33.863557
33.169746
32.218937
31.593443
30.706171
30.085732
29.223901
28.592646
27.747132
27.102834
26.270748
25.614218
24.793821
24.126401
23.316249
22.639242
21.838088
21.152642
20.35941
19.666528
18.880279
18.180842
17.400749
16.695539
15.920859
15.210583
14.440642
13.725942
12.960127
12.24159
11.479335
10.757503
9.9982889
9.2736617
8.5170064
7.7900478
7.0355036
6.3066467
5.553794
4.8234463
4.0718886
3.3404367
2.5897964
1.8576116
1.1075238
0.3749626
39.247519
37.625836
35.968002
35.014692
33.863345
33.169688
32.218907
31.593432
30.706167
30.085728
29.2239
28.592646
27.747133
27.102834
26.270748
25.614218
24.793821
24.126401
23.316249
22.639242
21.838087
21.152642
20.359409
19.666528
18.880279
18.180842
17.400749
16.695539
15.920859
15.210583
14.440642
13.725942
12.960127
12.24159
11.479335
10.757503
9.9982889
9.2736618
8.5170064
7.7900479
7.0355035
6.3066468
5.5537939
4.8234463
4.0718886
3.3404367
2.5897964
1.8576117
1.1075237
0.3749626
39.244308
37.623367
35.966794
35.01422
33.863168
33.169644
32.218882
31.593424
30.706164
30.085725
29.2239
28.592645
27.747134
27.102835
26.270748
25.614218
24.79382
24.126401
23.316248
22.639242
21.838087
21.152643
20.359409
19.666528
18.880279
18.180842
17.400749
16.695539
15.920859
15.210583
14.440642
13.725942
12.960126
12.24159
11.479335
10.757503
9.9982888
9.2736618
8.5170063
7.7900479
7.0355035
6.3066468
5.5537939
4.8234463
4.0718886
3.3404368
2.5897963
1.8576117
1.1075237
0.37496259
39.240787
37.621076
35.965797
35.013828
33.863022
33.169612
32.218863
31.593418
30.706161
30.085722
29.2239
28.592643
27.747134
27.102835
26.270748
25.614218
24.79382
24.126401
23.316248
22.639242
21.838087
21.152643
20.359409
19.666528
18.880279
18.180842
17.400749
16.695539
15.920859
15.210583
14.440642
13.725942
12.960126
12.24159
11.479335
10.757503
9.9982888
9.2736618
8.5170063
7.790048
7.0355034
6.3066469
5.5537939
4.8234464
4.0718885
3.3404368
2.5897963
1.8576117
1.1075236
0.37496259
39.238275
37.61925
35.964914
35.013508
33.862907
33.169591
32.218848
31.593414
30.70616
30.08572
29.2239
28.592642
27.747135
27.102836
26.270748
25.614218
24.79382
24.126401
23.316248
22.639242
21.838087
21.152643
20.359409
19.666528
18.880279
18.180842
17.400749
16.695539
15.920859
15.210583
14.440642
13.725942
12.960126
12.24159
11.479335
10.757503
9.9982887
9.2736619
8.5170062
7.790048
7.0355034
6.3066469
5.5537938
4.8234464
4.0718885
3.3404368
2.5897963
1.8576117
1.1075236
0.37496259
39.235808
37.617486
35.96421
35.013256
33.862819
33.16958
32.218839
31.593412
30.706158
30.085719
29.223899
28.592641
27.747135
27.102836
26.270748
25.614218
24.79382
24.126401
23.316248
22.639242
21.838087
21.152643
20.359409
19.666529
18.880279
18.180842
17.400749
16.695539
15.920859
15.210583
14.440642
13.725942
12.960126
12.24159
11.479335
10.757503
9.9982887
9.2736619
8.5170062
7.7900481
7.0355033
6.306647
5.5537938
4.8234464
4.0718885
3.3404368
2.5897963
1.8576117
1.1075235
0.37496259
39.233784
37.616169
35.963603
35.013063
33.862757
33.169578
32.218833
31.593412
30.706158
30.085718
29.223899
28.592641
27.747135
27.102836
26.270748
25.614219
24.79382
24.126401
23.316248
22.639242
21.838087
21.152643
20.359409
19.666529
18.880279
18.180842
17.400749
16.695539
15.920859
15.210583
14.440642
13.725942
12.960126
12.24159
11.479335
10.757503
9.9982886
9.273662
8.5170061
7.7900481
7.0355033
6.306647
5.5537938
4.8234465
4.0718884
3.3404369
2.5897963
1.8576117
1.1075235
0.37496258
39.232196
37.614821
35.963138
35.012922
33.862716
33.169583
32.218832
31.593414
30.706158
30.085718
29.223899
28.59264
27.747135
27.102837
26.270749
25.614219
24.79382
24.126401
23.316248
22.639242
21.838087
21.152643
20.359409
19.666529
18.880279
18.180842
17.400748
16.69554
15.920859
15.210583
14.440642
13.725942
12.960126
12.24159
11.479335
10.757504
9.9982886
9.2736621
8.517006
7.7900482
7.0355033
6.306647
5.5537937
4.8234465
4.0718884
3.3404369
2.5897962
1.8576118
1.1075235
0.37496258
39.230457
37.613838
35.962757
35.012832
33.862697
33.169595
32.218833
31.593417
30.706158
30.085718
29.223899
28.592641
27.747134
27.102837
26.270749
25.614219
24.79382
24.126401
23.316248
22.639242
21.838087
21.152643
20.359409
19.666529
18.880279
18.180843
17.400748
16.69554
15.920859
15.210583
14.440642
13.725942
12.960126
12.24159
11.479335
10.757504
9.9982885
9.2736622
8.517006
7.7900482
7.0355033
6.306647
5.5537937
4.8234466
4.0718884
3.3404369
2.5897962
1.8576118
1.1075235
0.37496257
39.229492
37.612881
35.962508
35.012785
33.862695
33.169614
32.218839
31.593422
30.70616
30.085718
29.223899
28.592641
27.747134
27.102837
26.270749
25.614219
24.79382
24.126402
23.316248
22.639242
21.838087
21.152643
20.359409
19.666529
18.880279
18.180843
17.400748
16.69554
15.920859
15.210583
14.440642
13.725942
12.960126
12.24159
11.479335
10.757504
9.9982885
9.2736622
8.5170059
7.7900482
7.0355033
6.306647
5.5537937
4.8234466
4.0718884
3.3404369
2.5897962
1.8576118
1.1075234
0.37496257
39.228191
37.612195
35.962332
35.012779
33.86271
33.169637
32.218847
31.593427
30.706161
30.085719
29.223899
28.592641
27.747133
27.102838
26.270749
25.614219
24.79382
24.126402
23.316248
22.639242
21.838087
21.152643
20.359409
19.666529
18.880279
18.180843
17.400748
16.69554
15.920859
15.210583
14.440642
13.725942
12.960126
12.24159
11.479335
10.757504
9.9982885
9.2736621
8.517006
7.7900482
7.0355033
6.306647
5.5537937
4.8234465
4.0718884
3.3404369
2.5897962
1.8576118
1.1075234
0.37496256
39.227698
37.611592
35.962263
35.012803
33.862736
33.169662
32.218857
31.593433
30.706164
30.08572
29.223899
28.592642
27.747133
27.102838
26.270749
25.61422
24.79382
24.126402
23.316247
22.639242
21.838086
21.152643
20.359409
19.666529
18.880279
18.180843
17.400748
16.69554
15.920858
15.210583
14.440642
13.725942
12.960126
12.24159
11.479335
10.757504
9.9982885
9.2736621
8.5170061
7.7900481
7.0355033
6.306647
5.5537937
4.8234465
4.0718884
3.3404369
2.5897962
1.8576118
1.1075234
0.37496256
39.226956
37.611159
35.962231
35.012849
33.86277
33.169689
32.218867
31.593439
30.706166
30.085722
29.2239
28.592642
27.747133
27.102839
26.270749
25.61422
24.79382
24.126402
23.316247
22.639242
21.838086
21.152643
20.359409
19.666529
18.880279
18.180843
17.400748
16.69554
15.920858
15.210583
14.440642
13.725942
12.960126
12.24159
11.479335
10.757504
9.9982886
9.273662
8.5170061
7.7900481
7.0355033
6.306647
5.5537937
4.8234465
4.0718884
3.340437
2.5897962
1.8576118
1.1075234
0.37496256
39.226908
37.610839
35.962258
35.012899
33.862802
33.169711
32.218877
31.593443
30.706168
30.085722
29.223901
28.592642
27.747133
27.102838
26.270749
25.61422
24.79382
24.126402
23.316247
22.639242
21.838086
21.152643
20.359409
19.666529
18.880279
18.180843
17.400748
16.69554
15.920858
15.210583
14.440642
13.725942
12.960126
12.24159
11.479335
10.757504
9.9982886
9.273662
8.5170061
7.7900481
7.0355033
6.306647
5.5537937
4.8234465
4.0718884
3.340437
2.5897961
1.8576118
1.1075234
0.37496256
39.226629
37.610649
35.962269
35.012937
33.862824
33.169724
32.218882
31.593446
30.706169
30.085722
29.223901
28.592641
27.747134
27.102838
26.270749
25.61422
24.79382
24.126402
23.316247
22.639242
21.838086
21.152643
20.359409
19.666529
18.880279
18.180843
17.400748
16.69554
15.920858
15.210583
14.440642
13.725942
12.960126
12.24159
11.479335
10.757504
9.9982886
9.273662
8.5170061
7.7900481
7.0355033
6.306647
5.5537937
4.8234465
4.0718884
3.340437
2.5897961
1.8576118
1.1075234
0.37496255
39.227002
37.610503
35.96226
35.012938
33.862826
33.169724
32.218882
31.593446
30.706169
30.085722
29.223901
28.592641
27.747134
27.102838
26.270749
25.61422
24.79382
24.126402
23.316247
22.639242
21.838086
21.152643
20.359409
19.666529
18.880279
18.180843
17.400748
16.69554
15.920858
15.210583
14.440642
13.725942
12.960126
12.24159
11.479335
10.757504
9.9982886
9.273662
8.5170061
7.7900481
7.0355033
6.306647
5.5537937
4.8234465
4.0718884
3.340437
2.5897961
1.8576118
1.1075234
0.37496255
39.227185
37.610375
35.962192
35.012907
33.862811
33.169713
32.218877
31.593443
30.706168
30.085722
29.223901
28.592642
27.747133
27.102838
26.270749
25.61422
24.79382
24.126402
23.316247
22.639242
21.838086
21.152643
20.359409
19.666529
18.880279
18.180843
17.400748
16.69554
15.920858
15.210583
14.440642
13.725942
12.960126
12.24159
11.479335
10.757504
9.9982886
9.273662
8.5170061
7.7900481
7.0355033
6.306647
5.5537937
4.8234465
4.0718884
3.340437
2.5897961
1.8576118
1.1075234
0.37496256
39.228003
37.610397
35.962132
35.01286
33.862784
33.169695
32.218869
31.593439
30.706166
30.085721
29.2239
28.592642
27.747133
27.102839
26.270749
25.61422
24.79382
24.126402
23.316247
22.639242
21.838086
21.152643
20.359409
19.666529
18.880279
18.180843
17.400748
16.69554
15.920858
15.210583
14.440642
13.725942
12.960126
12.24159
11.479335
10.757504
9.9982886
9.273662
8.5170061
7.7900481
7.0355033
6.306647
5.5537937
4.8234465
4.0718884
3.340437
2.5897962
1.8576118
1.1075234
0.37496256
39.228588
37.61052
35.962103
35.012823
33.862759
33.169673
32.21886
31.593433
30.706164
30.08572
29.223899
28.592642
27.747133
27.102838
26.270749
25.61422
24.79382
24.126402
23.316247
22.639242
21.838086
21.152643
20.359409
19.666529
18.880279
18.180843
17.400748
16.69554
15.920858
15.210583
14.440642
13.725942
12.960126
12.24159
11.479335
10.757504
9.9982885
9.2736621
8.5170061
7.7900481
7.0355033
6.306647
5.5537937
4.8234465
4.0718884
3.3404369
2.5897962
1.8576118
1.1075234
0.37496256
39.229954
37.610806
35.962139
35.012803
33.862739
33.169651
32.218852
31.593428
30.706162
30.085719
29.223899
28.592641
27.747133
27.102838
26.270749
25.614219
24.79382
24.126402
23.316248
22.639242
21.838087
21.152643
20.359409
19.666529
18.880279
18.180843
17.400748
16.69554
15.920859
15.210583
14.440642
13.725942
12.960126
12.24159
11.479335
10.757504
9.9982885
9.2736621
8.517006
7.7900482
7.0355033
6.306647
5.5537937
4.8234465
4.0718884
3.3404369
2.5897962
1.8576118
1.1075234
0.37496256
39.231016
37.611201
35.96226
35.012819
33.862733
33.169632
32.218845
31.593423
30.70616
30.085718
29.223899
28.592641
27.747134
27.102838
26.270749
25.614219
24.79382
24.126402
23.316248
22.639242
21.838087
21.152643
20.359409
19.666529
18.880279
18.180843
17.400748
16.69554
15.920859
15.210583
14.440642
13.725942
12.960126
12.24159
11.479335
10.757504
9.9982885
9.2736622
8.5170059
7.7900482
7.0355033
6.306647
5.5537937
4.8234466
4.0718884
3.3404369
2.5897962
1.8576118
1.1075234
0.37496257
39.232911
37.611785
35.962469
35.012872
33.862743
33.169618
32.218842
31.593419
30.706159
30.085717
29.223899
28.592641
27.747134
27.102837
26.270749
25.614219
24.79382
24.126401
23.316248
22.639242
21.838087
21.152643
20.359409
19.666529
18.880279
18.180843
17.400748
16.69554
15.920859
15.210583
14.440642
13.725942
12.960126
12.24159
11.479335
10.757504
9.9982885
9.2736622
8.517006
7.7900482
7.0355033
6.306647
5.5537937
4.8234466
4.0718884
3.3404369
2.5897962
1.8576118
1.1075235
0.37496257
39.234482
37.612582
35.962804
35.012973
33.862772
33.16961
32.218842
31.593417
30.706159
30.085717
29.223899
28.59264
27.747135
27.102837
26.270749
25.614219
24.79382
24.126401
23.316248
22.639242
21.838087
21.152643
20.359409
19.666529
18.880279
18.180842
17.400748
16.69554
15.920859
15.210583
14.440642
13.725942
12.960126
12.24159
11.479335
10.757504
9.9982886
9.2736621
8.517006
7.7900482
7.0355033
6.306647
5.5537937
4.8234465
4.0718884
3.3404369
2.5897962
1.8576118
1.1075235
0.37496258
39.236723
37.613452
35.963223
35.01312
33.86282
33.169609
32.218846
31.593416
30.706159
30.085718
29.223899
28.592641
27.747135
27.102837
26.270748
25.614219
24.79382
24.126401
23.316248
22.639242
21.838087
21.152643
20.359409
19.666529
18.880279
18.180842
17.400749
16.695539
15.920859
15.210583
14.440642
13.725942
12.960126
12.24159
11.479335
10.757503
9.9982886
9.273662
8.5170061
7.7900481
7.0355033
6.306647
5.5537938
4.8234465
4.0718884
3.3404369
2.5897963
1.8576117
1.1075235
0.37496258
39.239073
37.614706
35.963791
35.013323
33.862891
33.169616
32.218853
31.593416
30.70616
30.085719
29.223899
28.592641
27.747135
27.102836
26.270748
25.614218
24.79382
24.126401
23.316248
22.639242
21.838087
21.152643
20.359409
19.666529
18.880279
18.180842
17.400749
16.695539
15.920859
15.210583
14.440642
13.725942
12.960126
12.24159
11.479335
10.757503
9.9982887
9.2736619
8.5170062
7.7900481
7.0355033
6.306647
5.5537938
4.8234464
4.0718885
3.3404368
2.5897963
1.8576117
1.1075235
0.37496259
39.241637
37.615937
35.964464
35.01358
33.862985
33.169631
32.218865
31.593418
30.706161
30.08572
29.2239
28.592642
27.747135
27.102836
26.270748
25.614218
24.79382
24.126401
23.316248
22.639242
21.838087
21.152643
20.359409
19.666528
18.880279
18.180842
17.400749
16.695539
15.920859
15.210583
14.440642
13.725942
12.960126
12.24159
11.479335
10.757503
9.9982887
9.2736619
8.5170062
7.790048
7.0355034
6.3066469
5.5537938
4.8234464
4.0718885
3.3404368
2.5897963
1.8576117
1.1075236
0.37496259
39.245009
37.617695
35.965297
35.013906
33.863106
33.169656
32.218881
31.593423
30.706164
30.085722
29.2239
28.592643
27.747134
27.102835
26.270748
25.614218
24.79382
24.126401
23.316248
22.639242
21.838087
21.152643
20.359409
19.666528
18.880279
18.180842
17.400749
16.695539
15.920859
15.210583
14.440642
13.725942
12.960126
12.24159
11.479335
10.757503
9.9982888
9.2736618
8.5170063
7.790048
7.0355034
6.3066469
5.5537939
4.8234464
4.0718885
3.3404368
2.5897963
1.8576117
1.1075236
0.37496259
39.248208
37.619455
35.966281
35.014305
33.863258
33.169692
32.218902
31.593429
30.706166
30.085725
29.2239
28.592645
27.747134
27.102835
26.270748
25.614218
24.79382
24.126401
23.316248
22.639242
21.838087
21.152643
20.359409
19.666528
18.880279
18.180842
17.400749
16.695539
15.920859
15.210583
14.440642
13.725942
12.960126
12.24159
11.479335
10.757503
9.9982888
9.2736618
8.5170063
7.7900479
7.0355035
6.3066468
5.5537939
4.8234463
4.0718886
3.3404368
2.5897963
1.8576117
1.1075237
0.37496259
39.252981
37.62186
35.967418
35.014778
33.863439
33.169739
32.218928
31.593438
30.70617
30.085728
29.2239
28.592646
27.747133
27.102834
26.270748
25.614218
24.793821
24.126401
23.316249
22.639242
21.838087
21.152642
20.359409
19.666528
18.880279
18.180842
17.400749
16.695539
15.920859
15.210583
14.440642
13.725942
12.960127
12.24159
11.479335
10.757503
9.9982889
9.2736618
8.5170064
7.7900479
7.0355035
6.3066468
5.5537939
4.8234463
4.0718886
3.3404367
2.5897964
1.8576117
1.1075237
0.3749626
39.256976
37.624256
35.968741
35.015331
33.863652
33.169799
32.218959
31.593449
30.706174
30.085732
29.223901
28.592646
27.747132
27.102834
26.270748
25.614218
24.793821
24.126401
23.316249
22.639242
21.838088
21.152642
20.35941
19.666528
18.880279
18.180842
17.400749
16.695539
15.920859
15.210583
14.440642
13.725942
12.960127
12.24159
11.479335
10.757503
9.9982889
9.2736617
8.5170064
7.7900478
7.0355036
6.3066467
5.553794
4.8234463
4.0718886
3.3404367
2.5897964
1.8576116
1.1075238
0.3749626
39.26333
37.627343
35.97021
35.015975
33.863897
33.16987
32.218995
31.593463
30.706179
30.085737
29.223901
28.592647
27.747132
27.102834
26.270749
25.614218
24.793821
24.126401
23.316249
22.639242
21.838088
21.152642
20.35941
19.666528
18.88028
18.180842
17.400749
16.695539
15.920859
15.210583
14.440643
13.725942
12.960127
12.24159
11.479335
10.757503
9.998289
9.2736617
8.5170065
7.7900478
7.0355036
6.3066467
5.553794
4.8234462
4.0718887
3.3404367
2.5897964
1.8576116
1.1075238
0.3749626
39.268422
37.630468
35.971898
35.016701
33.864174
33.169952
32.219035
31.593478
30.706184
30.085743
29.223902
28.592647
27.747131
27.102834
26.270749
25.614217
24.793821
24.126401
23.316249
22.639242
21.838088
21.152642
20.35941
19.666528
18.88028
18.180842
17.400749
16.695539
15.920859
15.210582
14.440643
13.725942
12.960127
12.24159
11.479335
10.757503
9.998289
9.2736616
8.5170065
7.7900477
7.0355037
6.3066467
5.553794
4.8234462
4.0718887
3.3404366
2.5897964
1.8576116
1.1075239
0.37496259
39.277863
37.634591
35.973707
35.017511
33.864475
33.170043
32.219079
31.593495
30.706188
30.085749
29.223902
28.592647
27.747131
27.102834
26.270749
25.614217
24.793822
24.1264
23.316249
22.639241
21.838088
21.152642
20.35941
19.666528
18.88028
18.180842
17.400749
16.695539
15.920859
15.210582
14.440643
13.725942
12.960127
12.24159
11.479335
10.757503
9.9982891
9.2736615
8.5170066
7.7900477
7.0355037
6.3066466
5.5537941
4.8234462
4.0718887
3.3404366
2.5897965
1.8576115
1.107524
0.37496259
39.284298
37.639094
35.975703
35.018393
33.864802
33.170143
32.219126
31.593515
30.706194
30.085756
29.223901
28.592647
27.747132
27.102833
26.270749
25.614217
24.793822
24.1264
23.31625
22.639241
21.838088
21.152642
20.35941
19.666528
18.88028
18.180842
17.400749
16.695539
15.920859
15.210582
14.440643
13.725941
12.960127
12.241589
11.479335
10.757503
9.9982892
9.2736615
8.5170066
7.7900476
7.0355038