/*--------------------------------*- C++ -*----------------------------------*\
| =========                 |                                                 |
| \\      /  F ield         | OpenFOAM: The Open Source CFD Toolbox           |
|  \\    /   O peration     | Version:  2312                                  |
|   \\  /    A nd           | Website:  www.openfoam.com                      |
|    \\/     M anipulation  |                                                 |
\*---------------------------------------------------------------------------*/
FoamFile
{
    version     2.0;
    format      ascii;
    arch        "LSB;label=32;scalar=64";
    class       volScalarField;
    location    "3";
    object      T;
}
// * * * * * * * * * * * * * * * * * * * * * * * * * * * * * * * * * * * * * //

dimensions      [0 0 0 1 0 0 0];

internalField   nonuniform List<scalar> 
4000
(
332.13886
330.7863
330.51922
330.44385
330.35706
330.29771
330.24052
330.19005
330.14122
330.096
330.05093
330.0084
329.96566
329.92469
329.88358
329.84361
329.8037
329.76443
329.72544
329.68666
329.6484
329.60999
329.57232
329.53418
329.49701
329.45906
329.42232
329.38452
329.34814
329.31045
329.2744
329.23678
329.20102
329.16346
329.12795
329.09042
329.05517
329.01764
328.98262
328.94508
328.91029
328.8727
328.83815
328.80048
328.7662
328.72838
328.69445
328.65633
328.62303
328.58367
334.43184
332.24986
331.53028
331.37376
331.18444
331.07682
330.9758
330.89482
330.81884
330.7536
330.68887
330.63171
330.57396
330.52148
330.4686
330.41913
330.36985
330.32247
330.27596
330.23005
330.18574
330.14092
330.09839
330.05438
330.01333
329.96992
329.93014
329.88717
329.84849
329.80586
329.76813
329.72574
329.68888
329.64664
329.61057
329.56842
329.53309
329.49096
329.45633
329.41414
329.38021
329.33789
329.30469
329.26211
329.22972
329.18669
329.15536
329.11143
329.08197
329.03448
335.84822
333.65795
332.53285
332.29715
332.00801
331.85269
331.70852
331.59721
331.49441
331.4092
331.32502
331.25325
331.18064
331.11663
331.05212
330.99313
330.93459
330.87906
330.82511
330.77206
330.72175
330.67052
330.62317
330.57327
330.5284
330.4795
330.43673
330.38858
330.34763
330.30004
330.26068
330.21348
330.17557
330.12863
330.09203
330.04524
330.00986
329.96311
329.92889
329.88206
329.849
329.80194
329.77009
329.72261
329.69211
329.64388
329.61513
329.56541
329.53976
329.48456
336.78434
334.9601
333.51232
333.2051
332.82211
332.62104
332.43532
332.29431
332.16549
332.06054
331.95742
331.87113
331.78404
331.70855
331.63266
331.56416
331.49657
331.4329
331.37169
331.31148
331.25531
331.19764
331.14559
331.0898
331.04118
330.9868
330.9411
330.88777
330.8446
330.79205
330.75111
330.69911
330.66017
330.60855
330.57144
330.52002
330.48461
330.43325
330.39946
330.34799
330.31582
330.26403
330.23354
330.18117
330.15257
330.09916
330.07298
330.01752
329.99556
329.93327
337.43336
336.11726
334.44986
334.08563
333.61906
333.37602
333.15164
332.98228
332.82882
332.70471
332.58351
332.483
332.38201
332.2952
332.20839
332.13047
332.05418
331.98241
331.9142
331.84686
331.78506
331.72097
331.6644
331.60271
331.55051
331.49064
331.44215
331.38363
331.33836
331.28084
331.23841
331.18161
331.14173
331.08542
331.04785
330.99182
330.95643
330.90047
330.86715
330.81105
330.77979
330.72331
330.69418
330.63697
330.61024
330.55172
330.52805
330.46699
330.44849
330.37982
337.89677
337.10039
335.3256
334.92479
334.38961
334.11058
333.85191
333.65648
333.48044
333.33819
333.2002
333.08602
332.97203
332.87424
332.77715
332.69002
332.6055
332.52579
332.45096
332.37658
332.30946
332.23901
332.17817
332.11065
332.05507
331.98974
331.93863
331.87496
331.82772
331.76528
331.72146
331.6599
331.61916
331.5582
331.52026
331.45965
331.42432
331.36381
331.33099
331.27033
331.23999
331.17887
331.15111
331.08912
331.06424
331.00072
330.97948
330.913
330.89768
330.82339
338.23524
337.8987
336.12209
335.70811
335.12377
334.81688
334.52981
334.3116
334.11585
333.95702
333.80396
333.67701
333.5512
333.44297
333.33647
333.2405
333.14842
333.06101
332.98008
332.89885
332.8268
332.75014
332.68536
332.61211
332.5534
332.48272
332.4292
332.36046
332.31144
332.24413
332.19908
332.13283
332.09134
332.0258
331.98758
331.92245
331.88726
331.82228
331.79
331.72485
331.69546
331.62979
331.60339
331.53674
331.51366
331.44528
331.42635
331.35473
331.34222
331.26306
338.48703
338.51474
336.82611
336.42224
335.81172
335.48678
335.17865
334.94201
334.73014
334.55686
334.39095
334.25248
334.11637
333.99851
333.8837
333.77943
333.68062
333.58589
333.4995
333.4117
333.33524
333.25259
333.18427
333.10547
333.04398
332.96809
332.91244
332.83875
332.78816
332.71612
332.67001
332.59917
332.55708
332.48707
332.44866
332.37914
332.34416
332.27481
332.24313
332.17361
332.14518
332.07511
332.05005
331.9789
331.95756
331.88453
331.86776
331.79133
331.78121
331.6979
338.67797
338.96409
337.43077
337.05683
336.44476
336.11253
335.79178
335.54197
335.31828
335.13326
334.95718
334.80881
334.66422
334.5378
334.416
334.30418
334.19963
334.09813
334.00705
333.9131
333.83283
333.74451
333.67314
333.58906
333.52518
333.44431
333.38683
333.3084
333.25649
333.1799
333.13293
333.05767
333.01514
332.94081
332.90234
332.82858
332.7939
332.72035
332.6893
332.61559
332.58813
332.51383
332.49009
332.41465
332.39496
332.31756
332.30275
332.22193
332.21378
332.12695
338.82607
339.27065
337.93502
337.6058
337.01607
336.68735
336.36307
336.10601
335.87535
335.68182
335.49864
335.34234
335.1914
335.05775
334.9305
334.81207
334.70294
334.59538
334.50049
334.40093
334.31756
334.224
334.15015
334.06114
333.99531
333.90976
333.85083
333.76792
333.71499
333.63408
333.58648
333.50703
333.46424
333.38581
333.34742
333.26962
333.23533
333.15778
333.12743
333.04973
333.02327
332.94498
332.9225
332.84304
332.8249
332.74345
332.73038
332.64565
332.63905
332.54928
338.94412
339.46309
338.34363
338.06797
337.52114
337.20594
336.88732
336.62929
336.39683
336.1984
336.01149
335.84956
335.69463
335.55531
335.42434
335.30044
335.18803
335.07526
334.97759
334.87309
334.78741
334.68915
334.61345
334.51995
334.4527
334.36285
334.30287
334.21581
334.1622
334.07727
334.02932
333.94595
333.9031
333.82083
333.78267
333.70109
333.66731
333.58601
333.55642
333.475
333.44954
333.36753
333.34629
333.26312
333.2464
333.1613
333.14974
333.06158
333.05615
332.96394
339.0411
339.57084
338.66569
338.44667
337.95809
337.66497
337.36066
337.10788
336.87887
336.67937
336.49229
336.32724
336.17084
336.02763
335.89481
335.76675
335.65249
335.5355
335.43616
335.32749
335.24039
335.13807
335.06122
334.96377
334.89566
334.80197
334.7414
334.65061
334.59668
334.50809
334.46006
334.37312
334.33044
334.24466
334.20689
334.12184
334.08867
334.00394
333.97517
333.89034
333.86589
333.7805
333.76043
333.67393
333.6585
333.57016
333.55988
333.46882
333.46425
333.37004
339.12331
339.62132
338.91336
338.74878
338.32777
338.0633
337.78083
337.53905
337.31853
337.12181
336.93814
336.7726
336.61735
336.47215
336.33945
336.20864
336.09405
335.97396
335.87413
335.7622
335.67461
335.56896
335.49172
335.39094
335.32257
335.22558
335.16492
335.07085
335.017
334.92518
334.8774
334.78728
334.74501
334.65609
334.61889
334.53074
334.4983
334.4105
334.3826
334.29474
334.27129
334.18291
334.16396
334.07453
334.06026
333.96915
333.95993
333.86648
333.8625
333.76669
339.19487
339.63722
339.09982
338.98365
338.63362
338.40204
338.14728
337.92145
337.71394
337.52367
337.34684
337.18344
337.03193
336.8867
336.75611
336.62409
336.51071
336.38873
336.28963
336.17541
336.08832
335.98016
335.90331
335.7999
335.73191
335.63222
335.57198
335.47519
335.42182
335.32727
335.28006
335.18721
335.14561
335.05397
335.01754
334.92669
334.8951
334.80464
334.77769
334.68719
334.66477
334.57381
334.55592
334.46401
334.45078
334.35738
334.34901
334.25368
334.2501
334.15306
339.25866
339.63594
339.23818
339.16202
338.88122
338.68433
338.46122
338.25514
338.06443
337.88386
337.71699
337.55824
337.41294
337.26964
337.14308
337.0114
336.90078
336.77816
336.68103
336.56556
336.47996
336.37017
336.29453
336.18924
336.12228
336.02056
335.96127
335.86234
335.80989
335.71315
335.66685
335.57177
335.53109
335.43722
335.40174
335.30866
335.27806
335.18538
335.15944
335.06676
335.04537
334.95229
334.9354
334.84149
334.82918
334.734
334.72631
334.6296
334.62628
334.52836
339.31632
339.62907
339.34027
339.29489
339.07766
338.91501
338.7254
338.54159
338.37053
338.20236
338.0481
337.89625
337.75938
337.61986
337.49917
337.36934
337.26295
337.14096
337.04701
336.93136
336.84824
336.73773
336.66409
336.55772
336.49246
336.38941
336.3316
336.23119
336.18008
336.08173
336.03669
335.93992
335.90044
335.80484
335.77052
335.67569
335.64621
335.55179
335.52695
335.43256
335.41221
335.3175
335.30158
335.20616
335.19466
335.09821
335.09107
334.99344
334.99029
334.89184
339.36905
339.62363
339.41619
339.39267
339.2308
339.10007
338.94389
338.78352
338.63392
338.48012
338.34055
338.19751
338.07096
337.93689
337.82368
337.69715
337.59637
337.47623
337.38659
337.27183
337.19212
337.08182
337.01098
336.90434
336.84143
336.73777
336.68199
336.58074
336.53141
336.43206
336.38862
336.29075
336.25273
336.15595
336.12297
336.02693
335.99871
335.90306
335.87937
335.78379
335.7645
335.66866
335.65366
335.55725
335.54648
335.44926
335.44257
335.34448
335.34145
335.24281
339.41745
339.62278
339.47398
339.46453
339.34863
339.24614
339.12168
338.98465
338.85726
338.71904
338.59557
338.4628
338.34807
338.22087
338.11653
337.99459
337.90061
337.78349
337.69919
337.58634
337.51092
337.40175
337.33442
337.22834
337.16838
337.06487
337.01161
336.91021
336.86307
336.76336
336.72185
336.62347
336.58716
336.48977
336.45834
336.36162
336.33478
336.23844
336.21599
336.11973
336.10152
336.00507
335.99098
335.89408
335.88399
335.78648
335.78017
335.68207
335.67914
335.58065
339.46207
339.62739
339.51969
339.51806
339.43865
339.35998
339.26429
339.1494
339.044
338.9218
338.81517
338.69365
338.59178
338.47257
338.37816
338.26192
338.17573
338.06268
337.98461
337.87462
337.80427
337.69709
337.63395
337.52922
337.47277
337.37015
337.31988
337.21901
337.17445
337.07502
337.03575
336.93745
336.90312
336.80568
336.77598
336.67913
336.65382
336.55731
336.53619
336.43978
336.42268
336.32613
336.31293
336.21606
336.20659
336.10928
336.10332
336.00562
336.00279
335.90482
339.50314
339.63675
339.55756
339.55916
339.50754
339.44799
339.37739
339.28259
339.1981
339.09164
339.00193
338.89215
338.80372
338.69329
338.60956
338.4999
338.42227
338.31416
338.24304
338.13678
338.07215
337.96776
337.90938
337.80677
337.75433
337.6533
337.60643
337.50677
337.46513
337.36661
337.32986
337.23226
337.20011
337.10321
337.07541
336.979
336.95532
336.85919
336.83946
336.74342
336.72747
336.63134
336.61903
336.52267
336.51382
336.41717
336.41155
336.31465
336.31193
336.21483
339.54102
339.64971
339.5904
339.59215
339.5609
339.51597
339.46642
339.38912
339.32381
339.23223
339.15892
339.0609
338.98602
338.88481
338.81215
338.70971
338.64116
338.53871
338.47508
338.37327
338.31487
338.21401
338.16086
338.06105
338.01303
337.91425
337.87116
337.77333
337.73492
337.63791
337.60395
337.50761
337.47786
337.38205
337.3563
337.26087
337.23894
337.14372
337.12544
337.03029
337.01552
336.92031
336.9089
336.81353
336.80529
336.70974
336.70446
336.60875
336.60617
336.51031
339.57592
339.66496
339.61996
339.62003
339.60319
339.56886
339.53636
339.47371
339.42541
339.34737
339.28948
339.20282
339.14118
339.0493
338.98779
338.89295
338.83373
338.73746
338.68166
338.58489
338.53308
338.43635
338.38879
338.29239
338.24913
338.1532
338.11418
338.01876
337.98384
337.88891
337.85794
337.76342
337.73624
337.64206
337.6185
337.52456
337.50447
337.41067
337.39391
337.30014
337.28659
337.19277
337.18228
337.08835
337.08074
336.9867
336.98177
336.88764
336.88521
336.79094
339.60813
339.68143
339.64719
339.6447
339.63776
339.61068
339.59153
339.54069
339.507
339.44088
339.39703
339.321
339.27194
339.1892
339.1386
339.05149
339.00161
338.91185
338.86402
338.77273
338.72772
338.63562
338.59386
338.5014
338.46312
338.37058
338.33583
338.24336
338.21212
338.11979
338.09197
337.99979
337.97531
337.88326
337.86199
337.77004
337.75188
337.65996
337.64479
337.55286
337.54057
337.44858
337.43903
337.34696
337.33999
337.24785
337.24331
337.15111
337.14886
337.05652
339.6379
339.6983
339.67261
339.66732
339.66702
339.64457
339.63556
339.59385
339.57235
339.51637
339.48497
339.41858
339.38115
339.30711
339.26691
339.18745
339.14669
339.06357
339.02366
338.93812
338.89997
338.81285
338.77702
338.68891
338.65573
338.56703
338.53669
338.44763
338.42018
338.33092
338.30637
338.21699
338.1953
338.10584
338.08695
337.99743
337.98125
337.89167
337.87813
337.78847
337.77746
337.68772
337.67913
337.58931
337.58302
337.49314
337.48901
337.39907
337.39701
337.30694
339.66546
339.71506
339.69644
339.68851
339.69263
339.67286
339.67132
339.6364
339.62477
339.57716
339.55648
339.49861
339.47166
339.40568
339.37515
339.30307
339.27099
339.19449
339.16227
339.08262
339.05121
338.96934
338.93939
338.85596
338.82791
338.74339
338.71751
338.63224
338.60865
338.52285
338.50164
338.41546
338.39662
338.31016
338.29369
338.20701
338.19286
338.106
338.09411
338.00711
337.99741
337.91029
337.90269
337.81547
337.80987
337.72258
337.71888
337.63153
337.62968
337.54218
339.69103
339.7314
339.71879
339.70856
339.71563
339.6972
339.70102
339.67095
339.6671
339.62617
339.61449
339.56394
339.54619
339.48752
339.46577
339.40063
339.37664
339.30658
339.28166
339.2079
339.18301
339.10649
339.0823
339.00374
338.98075
338.90068
338.87923
338.79805
338.77832
338.69631
338.67843
338.5958
338.57983
338.49671
338.48267
338.39919
338.38707
338.30329
338.29307
338.20907
338.20069
338.11651
338.10992
338.02561
338.02072
337.93632
337.93308
337.84859
337.84697
337.76233
339.71482
339.74717
339.73972
339.72759
339.73667
339.71872
339.7263
339.69954
339.70164
339.6659
339.66158
339.61716
339.6073
339.55509
339.54114
339.48241
339.46579
339.40186
339.38374
339.31574
339.297
339.22584
339.20717
339.13359
339.1155
339.04005
339.02292
338.94605
338.93011
338.85214
338.83755
338.75873
338.7456
338.66612
338.6545
338.5745
338.56441
338.48401
338.47545
338.39473
338.38769
338.30673
338.30115
338.22002
338.21586
338.13461
338.13184
338.05047
338.04908
337.96755
339.73698
339.76231
339.75926
339.74563
339.75612
339.73815
339.74831
339.72371
339.73024
339.69842
339.69996
339.66057
339.6573
339.61069
339.6035
339.55056
339.54051
339.48232
339.47039
339.40792
339.39489
339.32901
339.31553
339.24692
339.23349
339.16275
339.14976
339.07734
339.06505
338.9913
338.97992
338.90512
338.89476
338.81913
338.80989
338.7336
338.72551
338.64871
338.6418
338.56461
338.55888
338.48138
338.47681
338.39909
338.39567
338.31778
338.31549
338.23745
338.23631
338.15811
339.75767
339.7768
339.77747
339.76267
339.7742
339.75595
339.76785
339.74458
339.75432
339.72538
339.73145
339.6961
339.6982
339.65636
339.65489
339.60711
339.60279
339.54987
339.54346
339.48623
339.4784
339.41761
339.40891
339.34522
339.33613
339.2701
339.26101
339.1931
339.18429
339.11487
339.10654
339.0359
339.0282
338.95659
338.94963
338.87724
338.87109
338.79808
338.79277
338.71929
338.71485
338.64099
338.63743
338.56329
338.56061
338.48626
338.48445
338.40993
338.40903
338.33433
339.777
339.79065
339.79441
339.77869
339.79099
339.77237
339.78543
339.76294
339.77494
339.74806
339.75755
339.72538
339.73174
339.69391
339.69717
339.65389
339.65447
339.60632
339.60474
339.55239
339.54917
339.49323
339.48886
339.42994
339.42483
339.36345
339.35797
339.29456
339.289
339.22394
339.21849
339.15209
339.14691
339.07942
339.07463
339.00625
339.00195
338.93287
338.9291
338.85946
338.85626
338.78619
338.7836
338.71319
338.71122
338.64056
338.63923
338.56836
338.56769
338.49665
339.79509
339.80387
339.81011
339.79369
339.80655
339.78757
339.80137
339.77933
339.79285
339.76745
339.77941
339.74973
339.75937
339.72486
339.73192
339.69256
339.69719
339.65333
339.65587
339.60799
339.60881
339.55744
339.5569
339.50254
339.50102
339.44414
339.44196
339.38298
339.38039
339.31968
339.31689
339.25474
339.25191
339.18857
339.18583
339.12152
339.11896
339.05388
339.05157
338.98586
338.98385
338.91765
338.91599
338.84941
338.84813
338.78125
338.78037
338.71327
338.71282
338.64553
339.81201
339.81646
339.82465
339.80766
339.82092
339.80162
339.81588
339.7941
339.8086
339.78425
339.79794
339.7702
339.78228
339.7505
339.76053
339.72452
339.73244
339.69237
339.69834
339.65455
339.6588
339.61167
339.61447
339.56443
339.56607
339.51352
339.51427
339.45961
339.4597
339.40325
339.40288
339.34494
339.34426
339.28507
339.28421
339.22398
339.22304
339.16197
339.16103
339.09928
339.0984
339.03611
339.03534
338.97263
338.972
338.90896
338.90852
338.84523
338.845
338.78153
339.82782
339.82839
339.83803
339.82059
339.83409
339.81455
339.82907
339.80747
339.82254
339.79898
339.81381
339.78759
339.8014
339.77187
339.78414
339.75099
339.7615
339.72477
339.73352
339.69341
339.70051
339.65729
339.66292
339.61692
339.62128
339.57285
339.57617
339.52564
339.52812
339.4758
339.4776
339.42377
339.42503
339.36991
339.37076
339.31458
339.31512
339.25805
339.25836
339.20057
339.20072
339.14235
339.14239
339.08356
339.08355
339.02436
339.02433
338.96488
338.96486
338.90521
339.84257
339.83964
339.85028
339.83247
339.84607
339.82638
339.841
339.81958
339.83494
339.81199
339.82751
339.8025
339.81749
339.78981
339.8037
339.77299
339.78546
339.75165
339.76259
339.72577
339.73518
339.69553
339.7035
339.66124
339.6679
339.62334
339.62885
339.58226
339.58679
339.53845
339.54214
339.49229
339.49527
339.44413
339.4465
339.39427
339.39614
339.343
339.34445
339.29056
339.29165
339.23716
339.23795
339.18297
339.18352
339.12816
339.12851
339.07287
339.07304
339.01722
339.85626
339.85012
339.86136
339.84327
339.85684
339.8371
339.8517
339.83051
339.84595
339.82354
339.83941
339.81541
339.83111
339.80499
339.81997
339.79135
339.80523
339.77397
339.78656
339.75268
339.7639
339.72748
339.73732
339.69852
339.70706
339.6661
339.67344
339.63057
339.63684
339.59228
339.59758
339.55155
339.55601
339.5087
339.5124
339.46401
339.46705
339.41774
339.42019
339.37012
339.37204
339.32135
339.32282
339.27162
339.27267
339.22109
339.22177
339.1699
339.17024
339.11818
339.86881
339.85974
339.87125
339.85295
339.8664
339.84672
339.86121
339.8403
339.85567
339.83379
339.84975
339.82664
339.8427
339.81792
339.83356
339.80675
339.82157
339.79256
339.80632
339.77505
339.78762
339.75411
339.7654
339.72976
339.73979
339.70217
339.71099
339.67158
339.67928
339.63827
339.64493
339.60252
339.60823
339.56458
339.56942
339.52471
339.52875
339.48314
339.48645
339.44008
339.44274
339.39573
339.39779
339.35028
339.35178
339.30387
339.30485
339.25667
339.25715
339.20878
339.88005
339.86836
339.87988
339.86149
339.87475
339.85523
339.86955
339.84901
339.8642
339.84286
339.85873
339.83643
339.85258
339.82898
339.84494
339.81971
339.8351
339.80806
339.8226
339.79365
339.80716
339.77628
339.78863
339.75586
339.76701
339.73246
339.74242
339.70623
339.71506
339.67739
339.68513
339.64613
339.65285
339.61268
339.61845
339.57725
339.58213
339.54005
339.5441
339.50127
339.50455
339.46111
339.46366
339.41971
339.42159
339.37725
339.37848
339.33386
339.33448
339.28968
339.88969
339.8758
339.88719
339.86885
339.88188
339.86264
339.87674
339.85665
339.8716
339.85083
339.86648
339.84497
339.86101
339.83848
339.8545
339.83068
339.84631
339.82102
339.83599
339.80912
339.82321
339.79469
339.80775
339.77759
339.78953
339.75779
339.76859
339.73537
339.74504
339.71046
339.71904
339.68323
339.69075
339.65385
339.66036
339.62247
339.62803
339.5893
339.59394
339.5545
339.55829
339.51824
339.52121
339.48067
339.48286
339.44194
339.44339
339.40219
339.40291
339.36155
339.89736
339.88191
339.89314
339.87501
339.88781
339.86897
339.88282
339.86327
339.87791
339.85778
339.87312
339.85238
339.86817
339.84664
339.86251
339.83997
339.8556
339.83188
339.847
339.82198
339.83637
339.80997
339.82344
339.79563
339.80807
339.77888
339.79024
339.75974
339.77
339.73828
339.74746
339.71461
339.72272
339.68886
339.69593
339.66115
339.66722
339.63165
339.63676
339.60051
339.60469
339.56786
339.57117
339.53386
339.53631
339.49864
339.50026
339.46233
339.46314
339.42504
339.90278
339.88659
339.89773
339.88001
339.89258
339.87426
339.88784
339.86891
339.88322
339.86377
339.87873
339.85879
339.8742
339.85364
339.86921
339.84785
339.86328
339.84098
339.85602
339.83267
339.8471
339.8226
339.83623
339.81054
339.82323
339.79635
339.80803
339.78
339.79063
339.76152
339.77109
339.74097
339.74947
339.71843
339.72589
339.69401
339.70044
339.66783
339.67327
339.64001
339.64449
339.61069
339.61424
339.57999
339.58263
339.54803
339.54978
339.51494
339.51581
339.48082
339.90593
339.88988
339.90102
339.88389
339.89627
339.87857
339.89187
339.87362
339.88757
339.86886
339.8834
339.86427
339.87924
339.85961
339.87477
339.85451
339.8696
339.84859
339.86338
339.84153
339.8558
339.83302
339.84658
339.82281
339.83552
339.81073
339.82251
339.79673
339.80752
339.78079
339.79055
339.76293
339.77166
339.74321
339.7509
339.72169
339.72836
339.69848
339.70414
339.67367
339.67835
339.64737
339.65109
339.6197
339.62246
339.59075
339.59259
339.56065
339.56156
339.52948
339.90712
339.8919
339.90315
339.88675
339.89896
339.88198
339.89497
339.87747
339.89104
339.87311
339.8872
339.8689
339.88338
339.86466
339.87933
339.86011
339.87474
339.85493
339.86932
339.84884
339.86279
339.84155
339.85488
339.83282
339.84538
339.82247
339.83416
339.81042
339.82118
339.79661
339.8064
339.78105
339.78985
339.76377
339.77155
339.74479
339.75157
339.72421
339.72998
339.70208
339.70687
339.67851
339.68232
339.65359
339.65643
339.6274
339.62929
339.60005
339.601
339.57163
339.90691
339.8929
339.90428
339.88872
339.90075
339.88456
339.89725
339.88054
339.89371
339.8766
339.8902
339.87275
339.8867
339.86889
339.883
339.86478
339.87886
339.86017
339.87405
339.85482
339.86831
339.84847
339.86141
339.8409
339.85315
339.83193
339.84338
339.82146
339.83205
339.80943
339.8191
339.79582
339.80453
339.78061
339.78836
339.76384
339.77061
339.74555
339.75134
339.72581
339.73061
339.70467
339.70851
339.68223
339.6851
339.65855
339.66046
339.63372
339.63467
339.60781
339.90589
339.89316
339.90461
339.88994
339.90178
339.88642
339.89878
339.8829
339.89566
339.87938
339.89249
339.87589
339.88928
339.87236
339.88587
339.8686
339.88208
339.86442
339.87771
339.85962
339.87256
339.85398
339.86642
339.8473
339.85911
339.83942
339.8505
339.83021
339.84049
339.81963
339.82906
339.80762
339.81615
339.79418
339.80178
339.77929
339.78595
339.763
339.7687
339.74534
339.75009
339.72636
339.73016
339.70613
339.70898
339.6847
339.6866
339.66216
339.66311
339.63856
339.9045
339.89294
339.90433
339.89056
339.90218
339.88766
339.89968
339.88464
339.89697
339.88153
339.89413
339.87838
339.89119
339.87514
339.88802
339.87166
339.88448
339.86779
339.88042
339.86338
339.87568
339.85825
339.8701
339.85223
339.8635
339.84516
339.85576
339.83695
339.84681
339.82752
339.83659
339.81683
339.82506
339.80484
339.8122
339.79155
339.79801
339.77696
339.78252
339.76111
339.76575
339.74402
339.74774
339.72575
339.72854
339.70635
339.70821
339.68587
339.6868
339.66436
339.903
339.89244
339.90362
339.89072
339.90206
339.8884
339.90003
339.88584
339.89771
339.88312
339.89519
339.88028
339.89248
339.87728
339.8895
339.874
339.88612
339.87034
339.88226
339.86618
339.87779
339.86139
339.87257
339.85582
339.86648
339.84935
339.85939
339.84188
339.85125
339.83336
339.84199
339.82372
339.83158
339.81292
339.81997
339.80096
339.80716
339.78781
339.79316
339.77351
339.77798
339.75807
339.76166
339.74153
339.74422
339.72391
339.72571
339.70528
339.70618
339.68566
339.90151
339.89178
339.90262
339.89053
339.90154
339.88871
339.89994
339.88658
339.89798
339.88421
339.89573
339.88164
339.89321
339.87882
339.89035
339.87567
339.88706
339.87212
339.88329
339.86808
339.87895
339.86348
339.87395
339.8582
339.86817
339.85213
339.86155
339.8452
339.854
339.83735
339.84548
339.82852
339.83594
339.81869
339.82535
339.80781
339.81368
339.79587
339.80095
339.78289
339.78714
339.76887
339.77228
339.75382
339.75639
339.73779
339.7395
339.72079
339.72165
339.70286
339.90002
339.89105
339.90142
339.89009
339.90071
339.88868
339.89947
339.88692
339.89782
339.88486
339.89581
339.88249
339.89342
339.87979
339.89061
339.87668
339.88732
339.87314
339.88353
339.86912
339.87921
339.86457
339.87428
339.85942
339.86868
339.85359
339.86233
339.84701
339.8552
339.83965
339.84722
339.83144
339.83836
339.82235
339.82858
339.81235
339.81786
339.80141
339.80617
339.78953
339.79353
339.77672
339.77994
339.76297
339.7654
339.74832
339.74994
339.73277
339.73358
339.71635
339.89854
339.89028
339.90009
339.88947
339.89964
339.88839
339.89871
339.88693
339.89731
339.88511
339.89546
339.88287
339.89312
339.8802
339.89028
339.87705
339.8869
339.87342
339.883
339.8693
339.87859
339.8647
339.87362
339.85955
339.86805
339.8538
339.86184
339.84743
339.85496
339.84038
339.84736
339.83261
339.83901
339.82409
339.82986
339.81478
339.81989
339.80465
339.80908
339.7937
339.79741
339.7819
339.7849
339.76927
339.77153
339.75581
339.75733
339.74153
339.74229
339.72645
339.89704
339.88949
339.89867
339.88872
339.89841
339.88789
339.89771
339.88667
339.89648
339.88499
339.8947
339.88279
339.89233
339.88005
339.88936
339.87675
339.8858
339.87293
339.88169
339.86862
339.87708
339.86385
339.87196
339.85858
339.86631
339.85281
339.86012
339.8465
339.85336
339.83963
339.846
339.83217
339.838
339.82406
339.82933
339.81528
339.81996
339.80579
339.80986
339.79559
339.79901
339.78465
339.78741
339.77298
339.77506
339.76055
339.76195
339.74738
339.74808
339.73348
339.89551
339.88869
339.89718
339.88787
339.89705
339.88722
339.89651
339.88615
339.89537
339.88452
339.89356
339.88225
339.89104
339.87932
339.88783
339.87577
339.88398
339.87165
339.87957
339.86705
339.87466
339.86201
339.8693
339.85654
339.86348
339.85063
339.8572
339.84428
339.85045
339.83748
339.84321
339.83018
339.83545
339.82236
339.82713
339.81397
339.81821
339.805
339.80868
339.79541
339.79852
339.78518
339.78769
339.77431
339.7762
339.76277
339.76404
339.75057
339.75121
339.73771
339.89393
339.88788
339.89564
339.88695
339.89559
339.88642
339.89514
339.8854
339.89399
339.8837
339.89201
339.88122
339.88921
339.87798
339.88564
339.87405
339.88139
339.86953
339.87658
339.86454
339.8713
339.85915
339.86561
339.85338
339.85953
339.84726
339.85308
339.84078
339.84626
339.83395
339.83905
339.82672
339.83142
339.81908
339.82334
339.81098
339.81477
339.80239
339.8057
339.7933
339.79609
339.78366
339.78592
339.77346
339.77517
339.76269
339.76384
339.75133
339.75191
339.73938
339.89231
339.88705
339.89404
339.88598
339.89405
339.88549
339.89361
339.88442
339.89231
339.8825
339.89002
339.87966
339.8868
339.87596
339.88273
339.87153
339.87798
339.86651
339.87267
339.86105
339.86694
339.85522
339.86085
339.84909
339.85445
339.84268
339.84777
339.83601
339.8408
339.82907
339.83354
339.82184
339.82596
339.81429
339.81804
339.80639
339.80974
339.7981
339.80102
339.78939
339.79186
339.78024
339.78224
339.77061
339.77213
339.76049
339.76151
339.74986
339.75038
339.73871
339.89062
339.88621
339.8924
339.88495
339.89244
339.88445
339.89191
339.88318
339.8903
339.88087
339.88753
339.87749
339.88371
339.87318
339.87903
339.86812
339.87365
339.86251
339.86777
339.85649
339.86152
339.85017
339.85498
339.84362
339.84821
339.83688
339.84123
339.82996
339.83407
339.82286
339.82671
339.81557
339.81913
339.80805
339.8113
339.80027
339.80318
339.7922
339.79475
339.7838
339.78597
339.77505
339.7768
339.7659
339.76724
339.75635
339.75724
339.74635
339.7468
339.7359
339.88885
339.88534
339.8907
339.88387
339.89075
339.88326
339.89001
339.88163
339.88789
339.87872
339.88444
339.87461
339.87987
339.86954
339.87442
339.86374
339.86833
339.85744
339.8618
339.8508
339.85497
339.84394
339.84793
339.83693
339.84075
339.82982
339.83346
339.82261
339.82607
339.81532
339.81858
339.80792
339.81095
339.80039
339.80316
339.79269
339.79518
339.78478
339.78697
339.77663
339.77849
339.76821
339.76972
339.75947
339.76062
339.7504
339.75117
339.74096
339.74135
339.73113
339.887
339.88446
339.88894
339.88274
339.88897
339.8819
339.88784
339.87968
339.88499
339.87594
339.88064
339.87091
339.87514
339.86492
339.8688
339.85827
339.86191
339.8512
339.85466
339.84389
339.84721
339.83646
339.83966
339.82897
339.83205
339.82146
339.82443
339.81396
339.81679
339.80646
339.80914
339.79893
339.80144
339.79136
339.79367
339.7837
339.78579
339.77591
339.77775
339.76797
339.76954
339.75982
339.7611
339.75143
339.75241
339.74278
339.74344
339.73382
339.73416
339.72454
339.88505
339.88357
339.88713
339.88156
339.88706
339.8803
339.88531
339.87722
339.88146
339.8724
339.87598
339.86625
339.86938
339.8592
339.86204
339.8516
339.85427
339.8437
339.84626
339.83569
339.83818
339.82766
339.8301
339.81969
339.82206
339.81179
339.81411
339.80399
339.80623
339.79627
339.79841
339.78861
339.79063
339.78098
339.78286
339.77334
339.77505
339.76566
339.76717
339.75788
339.75917
339.74997
339.75103
339.74189
339.7427
339.73361
339.73416
339.72509
339.72536
339.7163
339.88297
339.88268
339.88525
339.8803
339.88494
339.87834
339.88228
339.87408
339.87713
339.8679
339.87029
339.86044
339.86244
339.85222
339.85401
339.8436
339.84531
339.83484
339.83653
339.82611
339.8278
339.8175
339.8192
339.80905
339.81075
339.80077
339.80247
339.79268
339.79436
339.78476
339.7864
339.77698
339.77854
339.76929
339.77076
339.76167
339.76302
339.75407
339.75527
339.74644
339.74748
339.73875
339.7396
339.73094
339.7316
339.723
339.72344
339.71487
339.71509
339.70652
339.88076
339.88182
339.88328
339.87892
339.88253
339.87589
339.87857
339.87007
339.87179
339.86227
339.86338
339.85333
339.85415
339.84383
339.84457
339.83415
339.83492
339.82453
339.82537
339.8151
339.81602
339.80592
339.80692
339.79701
339.79809
339.78839
339.78952
339.78005
339.7812
339.77194
339.77311
339.76405
339.76519
339.75632
339.75742
339.74872
339.74975
339.74121
339.74213
339.73372
339.73453
339.72623
339.72689
339.71868
339.71919