/*--------------------------------*- C++ -*----------------------------------*\
| =========                 |                                                 |
| \\      /  F ield         | OpenFOAM: The Open Source CFD Toolbox           |
|  \\    /   O peration     | Version:  2312                                  |
|   \\  /    A nd           | Website:  www.openfoam.com                      |
|    \\/     M anipulation  |                                                 |
\*---------------------------------------------------------------------------*/
FoamFile
{
    version     2.0;
    format      ascii;
    arch        "LSB;label=32;scalar=64";
    class       surfaceScalarField;
    location    "1";
    object      phi_0;
}
// * * * * * * * * * * * * * * * * * * * * * * * * * * * * * * * * * * * * * //

dimensions      [0 3 -1 0 0 0 0];

oriented        oriented;

internalField   nonuniform List<scalar> 
7870
(
1.8837459e-10
3.2732504e-09
1.7822e-10
1.0154597e-11
1.3033878e-10
4.7881231e-11
1.3956741e-10
-9.2286299e-12
1.3504276e-10
4.5246563e-12
1.3438331e-10
6.5944694e-13
1.3333078e-10
1.0525287e-12
1.3321361e-10
1.1716964e-13
1.3299285e-10
2.2076122e-13
1.3281258e-10
1.8025695e-13
1.3304301e-10
-2.3042335e-13
1.32689e-10
3.5400609e-13
1.3309144e-10
-4.0243307e-13
1.3262326e-10
4.6818631e-13
1.3312998e-10
-5.067105e-13
1.325796e-10
5.5038759e-13
1.3315996e-10
-5.8035108e-13
1.3255043e-10
6.0953807e-13
1.33181e-10
-6.3057074e-13
1.3253239e-10
6.4862026e-13
1.3319346e-10
-6.6107039e-13
1.3252333e-10
6.701363e-13
1.3319832e-10
-6.749883e-13
1.3252159e-10
6.7673268e-13
1.3319682e-10
-6.752367e-13
1.3252564e-10
6.7117789e-13
1.3319024e-10
-6.6459821e-13
1.325342e-10
6.5603469e-13
1.3317986e-10
-6.4566599e-13
1.3254598e-10
6.3387392e-13
1.3316681e-10
-6.208257e-13
1.3255988e-10
6.0692293e-13
1.3315216e-10
-5.9228739e-13
1.3257489e-10
5.7726172e-13
1.3313687e-10
-5.6197599e-13
1.3259015e-10
5.4671602e-13
1.3312175e-10
-5.3160614e-13
1.3260487e-10
5.1687638e-13
1.3310751e-10
-5.0264146e-13
1.3261842e-10
4.890839e-13
1.3309471e-10
-4.7628647e-13
1.3263025e-10
4.6445485e-13
1.3308383e-10
-4.5357849e-13
1.3263994e-10
4.4388814e-13
1.3307514e-10
-4.3520289e-13
1.3264725e-10
4.2788804e-13
1.3307073e-10
-4.234786e-13
1.3266056e-10
4.1016489e-13
1.3309704e-10
-4.3648206e-13
3.9250773e-13
4.7030483e-10
6.2645706e-09
4.9624048e-10
-1.5781038e-11
3.8968652e-10
1.5443522e-10
4.0176187e-10
-2.1303987e-11
3.9203279e-10
1.425375e-11
3.8972266e-10
2.9695663e-12
3.8696709e-10
3.8080956e-12
3.8672019e-10
3.6405304e-13
3.8595888e-10
9.8207205e-13
3.8567527e-10
4.6385716e-13
3.85996e-10
-5.5113956e-13
3.8543252e-10
9.1749138e-13
3.8605257e-10
-1.0224693e-12
3.8532209e-10
1.1986826e-12
3.8609811e-10
-1.282706e-12
3.8525401e-10
1.3945079e-12
3.8613544e-10
-1.461766e-12
3.8521122e-10
1.5337702e-12
3.8616208e-10
-1.5814152e-12
3.8518633e-10
1.6243848e-12
3.8617719e-10
-1.6519308e-12
3.8517508e-10
1.6722483e-12
3.8618169e-10
-1.6815958e-12
3.8517465e-10
1.6837699e-12
3.8617723e-10
-1.6778159e-12
3.851826e-10
1.6657937e-12
3.8616554e-10
-1.6475435e-12
3.85197e-10
1.6245631e-12
3.8614861e-10
-1.5972768e-12
3.8521594e-10
1.566526e-12
3.8612793e-10
-1.5328209e-12
3.8523775e-10
1.4970908e-12
3.8610515e-10
-1.4597031e-12
3.8526101e-10
1.4213943e-12
3.8608163e-10
-1.3826022e-12
3.8528444e-10
1.3438995e-12
3.8605856e-10
-1.3057365e-12
3.8530691e-10
1.2685202e-12
3.8603695e-10
-1.2326886e-12
3.8532752e-10
1.1985072e-12
3.8601757e-10
-1.1663433e-12
3.8534542e-10
1.1365942e-12
3.8600112e-10
-1.1092769e-12
3.8536006e-10
1.0849397e-12
3.8598782e-10
-1.0629621e-12
3.8537067e-10
1.0450327e-12
3.8598056e-10
-1.0333718e-12
3.8539342e-10
9.9730775e-13
3.860436e-10
-1.0866605e-12
9.5193173e-13
6.8141927e-10
9.0447763e-09
7.877142e-10
-1.2207595e-10
6.4213933e-10
3.0001012e-10
6.5680343e-10
-3.5968104e-11
6.4198646e-10
2.907074e-11
6.3809737e-10
6.8586319e-12
6.3392225e-10
7.983225e-12
6.3369097e-10
5.9530648e-13
6.3236736e-10
2.3056901e-12
6.3208933e-10
7.4187357e-13
6.3238306e-10
-8.4485482e-13
6.317786e-10
1.5219658e-12
6.3242288e-10
-1.6667351e-12
6.3165489e-10
1.9666997e-12
6.3245279e-10
-2.0805931e-12
6.315844e-10
2.2629283e-12
6.3248005e-10
-2.3573953e-12
6.3154351e-10
2.4703337e-12
6.3250001e-10
-2.5379067e-12
6.3152186e-10
2.6025454e-12
6.3251024e-10
-2.6403028e-12
6.3151398e-10
2.6685129e-12
6.3251087e-10
-2.6784834e-12
6.3151663e-10
2.677999e-12
6.3250337e-10
-2.6645565e-12
6.3152718e-10
2.6419771e-12
6.3248919e-10
-2.6095632e-12
6.3154373e-10
2.5700067e-12
6.3247038e-10
-2.5239365e-12
6.3156438e-10
2.4725127e-12
6.3244823e-10
-2.4166819e-12
6.3158746e-10
2.3578471e-12
6.3242436e-10
-2.2966203e-12
6.3161169e-10
2.2340558e-12
6.3240008e-10
-2.1710063e-12
6.316358e-10
2.1081678e-12
6.3237652e-10
-2.0464612e-12
6.3165876e-10
1.9862723e-12
6.3235459e-10
-1.9285336e-12
6.316797e-10
1.8733928e-12
6.3233501e-10
-1.8216619e-12
6.3169776e-10
1.7738455e-12
6.3231841e-10
-1.7299344e-12
6.3171254e-10
1.6908077e-12
6.3230482e-10
-1.6552502e-12
6.3172277e-10
1.6270774e-12
6.3229705e-10
-1.6076493e-12
6.3175e-10
1.5443554e-12
6.3239111e-10
-1.7277724e-12
1.4699971e-12
9.8134698e-10
1.1525054e-08
1.0625152e-09
-2.0324413e-10
8.8515133e-10
4.77374e-10
9.0460542e-10
-5.5422203e-11
8.8481177e-10
4.88644e-11
8.7952362e-10
1.2146769e-11
8.7421849e-10
1.3288357e-11
8.7410925e-10
7.0452132e-13
8.7225971e-10
4.1552332e-12
8.7199842e-10
1.0031551e-12
8.7227899e-10
-1.1254096e-12
8.7163758e-10
2.1633838e-12
8.7230706e-10
-2.3361944e-12
8.7150531e-10
2.7684739e-12
8.7232243e-10
-2.8976952e-12
8.7143398e-10
3.1514069e-12
8.7233982e-10
-3.2632131e-12
8.7139568e-10
3.4144925e-12
8.7235313e-10
-3.495348e-12
8.7137762e-10
3.578069e-12
8.7235841e-10
-3.6210899e-12
8.7137327e-10
3.6536575e-12
8.7235521e-10
-3.6604149e-12
8.7137903e-10
3.6541649e-12
8.7234467e-10
-3.6301958e-12
8.7139214e-10
3.594492e-12
8.7232808e-10
-3.5455074e-12
8.7141074e-10
3.4873303e-12
8.7230751e-10
-3.4207146e-12
8.7143297e-10
3.3470367e-12
8.7228402e-10
-3.2677365e-12
8.7145718e-10
3.1846661e-12
8.7225924e-10
-3.0986839e-12
8.714822e-10
3.0110776e-12
8.7223434e-10
-2.923159e-12
8.7150683e-10
2.835669e-12
8.7221043e-10
-2.7500726e-12
8.7153008e-10
2.6666215e-12
8.7218836e-10
-2.5868281e-12
8.7155119e-10
2.5105585e-12
8.7216872e-10
-2.4391985e-12
8.7156929e-10
2.3732685e-12
8.7215209e-10
-2.3127366e-12
8.7158407e-10
2.2588222e-12
8.721383e-10
-2.2094867e-12
8.7159386e-10
2.1715111e-12
8.7212965e-10
-2.1434329e-12
8.7162323e-10
2.0507673e-12
8.7224682e-10
-2.3513636e-12
1.9455229e-12
1.1468724e-09
1.3839807e-08
1.3170423e-09
-3.7341402e-10
1.1220906e-09
6.7232568e-10
1.1457253e-09
-7.9056865e-11
1.1204449e-09
7.4144822e-11
1.1140011e-09
1.8590517e-11
1.1079007e-09
1.9388765e-11
1.1079681e-09
6.3710733e-13
1.1056389e-09
6.4844254e-12
1.1054035e-09
1.2385502e-12
1.1056832e-09
-1.4050544e-12
1.1050101e-09
2.8365037e-12
1.1057043e-09
-3.0303881e-12
1.1048736e-09
3.5992047e-12
1.1057062e-09
-3.7302948e-12
1.1048028e-09
4.054827e-12
1.105714e-09
-4.1744197e-12
1.1047677e-09
4.3608581e-12
1.1057207e-09
-4.4483822e-12
1.1047535e-09
4.5453143e-12
1.1057211e-09
-4.5887327e-12
1.1047527e-09
4.6220494e-12
1.1057141e-09
-4.621745e-12
1.1047616e-09
4.606607e-12
1.1057007e-09
-4.5692358e-12
1.1047772e-09
4.5179293e-12
1.1056818e-09
-4.4500743e-12
1.1047977e-09
4.37135e-12
1.1056596e-09
-4.2826038e-12
1.1048214e-09
4.1852514e-12
1.105635e-09
-4.0813363e-12
1.1048465e-09
3.9731125e-12
1.1056094e-09
-3.8616215e-12
1.1048721e-09
3.7483707e-12
1.1055842e-09
-3.635193e-12
1.1048971e-09
3.5227419e-12
1.1055601e-09
-3.4131193e-12
1.1049204e-09
3.3062825e-12
1.105538e-09
-3.2044462e-12
1.1049416e-09
3.1070497e-12
1.1055185e-09
-3.0161685e-12
1.1049595e-09
2.9323011e-12
1.105502e-09
-2.8552487e-12
1.1049742e-09
2.7866183e-12
1.1054882e-09
-2.7235183e-12
1.1049834e-09
2.6762786e-12
1.1054785e-09
-2.638521e-12
1.1050135e-09
2.5157699e-12
1.1056125e-09
-2.9503178e-12
2.3741308e-12
1.405981e-09
1.5895451e-08
1.5643653e-09
-5.3179832e-10
1.3504966e-09
8.8619444e-10
1.3797815e-09
-1.0834176e-10
1.3488298e-09
1.0509657e-10
1.3415624e-09
2.585788e-11
1.3350126e-09
2.5938534e-11
1.3352596e-09
3.9012979e-13
1.3325096e-09
9.2344193e-12
1.3323073e-09
1.4408612e-12
1.3325957e-09
-1.6934618e-12
1.3318974e-09
3.5348141e-12
1.332614e-09
-3.7469757e-12
1.3317605e-09
4.4527578e-12
1.3326037e-09
-4.5734727e-12
1.3316915e-09
4.9670376e-12
1.3326023e-09
-5.0852396e-12
1.33166e-09
5.3031772e-12
1.3326026e-09
-5.3909785e-12
1.3316498e-09
5.4981233e-12
1.3325982e-09
-5.5371339e-12
1.3316527e-09
5.5675717e-12
1.3325875e-09
-5.556577e-12
1.3316646e-09
5.5295681e-12
1.3325713e-09
-5.476011e-12
1.3316825e-09
5.4067624e-12
1.3325504e-09
-5.3179647e-12
1.3317047e-09
5.21699e-12
1.3325269e-09
-5.1047398e-12
1.3317296e-09
4.9825047e-12
1.3325013e-09
-4.8530481e-12
1.3317554e-09
4.7189471e-12
1.3324753e-09
-4.58147e-12
1.3317814e-09
4.4422122e-12
1.3324498e-09
-4.3035854e-12
1.3318065e-09
4.1660722e-12
1.3324258e-09
-4.0324844e-12
1.3318297e-09
3.9023758e-12
1.332404e-09
-3.7787351e-12
1.3318506e-09
3.6604032e-12
1.3323848e-09
-3.5502896e-12
1.3318683e-09
3.4487461e-12
1.3323685e-09
-3.355447e-12
1.3318827e-09
3.2723735e-12
1.3323548e-09
-3.1956284e-12
1.3318914e-09
3.1396875e-12
1.3323443e-09
-3.0913505e-12
1.3319211e-09
2.9389744e-12
1.3324893e-09
-3.518557e-12
2.752531e-12
1.5711564e-09
1.778592e-08
1.7901179e-09
-7.5075977e-10
1.5738904e-09
1.1024219e-09
1.6068802e-09
-1.4133154e-10
1.5699863e-09
1.4199047e-10
1.5622696e-09
3.3574527e-11
1.5555459e-09
3.2662233e-11
1.5559713e-09
-3.5225606e-14
1.5528717e-09
1.2334026e-11
1.5527121e-09
1.6003756e-12
1.5530162e-09
-1.9975185e-12
1.5523009e-09
4.2501672e-12
1.5530358e-09
-4.4818538e-12
1.5521667e-09
5.3218576e-12
1.5530143e-09
-5.4210745e-12
1.5521004e-09
5.8809428e-12
1.5530043e-09
-5.9891089e-12
1.5520729e-09
6.2345924e-12
1.5529985e-09
-6.3165022e-12
1.5520668e-09
6.4298021e-12
1.5529896e-09
-6.4599089e-12
1.5520732e-09
6.4839759e-12
1.5529754e-09
-6.4587891e-12
1.5520879e-09
6.4170689e-12
1.5529568e-09
-6.3448912e-12
1.5521079e-09
6.2555999e-12
1.552934e-09
-6.144007e-12
1.5521316e-09
6.0193104e-12
1.5529093e-09
-5.882463e-12
1.5521574e-09
5.7343963e-12
1.5528831e-09
-5.5787545e-12
1.5521837e-09
5.4183577e-12
1.5528568e-09
-5.2546178e-12
1.5522098e-09
5.0892276e-12
1.5528314e-09
-4.9252367e-12
1.5522347e-09
4.7628148e-12
1.5528078e-09
-4.6055658e-12
1.5522576e-09
4.4524806e-12
1.5527863e-09
-4.3074345e-12
1.5522782e-09
4.1685487e-12
1.5527676e-09
-4.0396692e-12
1.5522953e-09
3.9209784e-12
1.5527517e-09
-3.8118233e-12
1.5523094e-09
3.7146324e-12
1.5527384e-09
-3.6246036e-12
1.5523175e-09
3.560621e-12
1.5527269e-09
-3.5008373e-12
1.5523458e-09
3.3201043e-12
1.5528783e-09
-4.0510664e-12
3.0793655e-12
1.7928594e-09
1.9454685e-08
2.0082131e-09
-9.6611347e-10
1.7874308e-09
1.3232042e-09
1.8245739e-09
-1.7847457e-10
1.7838924e-09
1.8267199e-10
1.7761331e-09
4.1333817e-11
1.7694473e-09
3.9347995e-11
1.7700927e-09
-6.806489e-13
1.7667223e-09
1.5704476e-11
1.7666208e-09
1.7018452e-12
1.7669443e-09
-2.3209803e-12
1.7662215e-09
4.9729648e-12
1.7669691e-09
-5.2295018e-12
1.7660928e-09
6.1981861e-12
1.7669379e-09
-6.2661506e-12
1.7660301e-09
6.7887531e-12
1.7669199e-09
-6.8788044e-12
1.7660068e-09
7.1476665e-12
1.7669083e-09
-7.217961e-12
1.7660046e-09
7.3334606e-12
1.7668951e-09
-7.3503831e-12
1.7660143e-09
7.3647441e-12
1.7668778e-09
-7.3222816e-12
1.7660316e-09
7.2633216e-12
1.766857e-09
-7.1702799e-12
1.7660534e-09
7.0591086e-12
1.7668327e-09
-6.9232233e-12
1.7660783e-09
6.7736701e-12
1.7668072e-09
-6.6114266e-12
1.7661047e-09
6.4368721e-12
1.7667807e-09
-6.2546826e-12
1.7661312e-09
6.0678093e-12
1.7667544e-09
-5.8778744e-12
1.7661571e-09
5.6865128e-12
1.7667294e-09
-5.4974639e-12
1.7661817e-09
5.3105161e-12
1.7667062e-09
-5.1301195e-12
1.766204e-09
4.9546174e-12
1.7666854e-09
-4.7888136e-12
1.766224e-09
4.6299501e-12
1.7666673e-09
-4.4829533e-12
1.7662406e-09
4.3476909e-12
1.766652e-09
-4.2232507e-12
1.7662541e-09
4.1124963e-12
1.7666391e-09
-4.0096124e-12
1.7662615e-09
3.9382307e-12
1.7666271e-09
-3.8664471e-12
1.7662879e-09
3.6593222e-12
1.7667805e-09
-4.5436998e-12
3.3546082e-12
1.9412243e-09
2.0975086e-08
2.201957e-09
-1.2268462e-09
1.9931798e-09
1.5319815e-09
2.0293702e-09
-2.1466496e-10
1.9901533e-09
2.2188886e-10
1.983112e-09
4.8375181e-11
1.9766741e-09
4.5785901e-11
1.9776275e-09
-1.6341427e-12
1.9740631e-09
1.926889e-11
1.9740379e-09
1.727025e-12
1.9743804e-09
-2.663455e-12
1.9736606e-09
5.6928067e-12
1.9744141e-09
-5.9829796e-12
1.9735394e-09
7.0728591e-12
1.9743742e-09
-7.1008807e-12
1.9734808e-09
7.6821647e-12
1.9743487e-09
-7.7466995e-12
1.9734616e-09
8.034751e-12
1.9743318e-09
-8.0880747e-12
1.9734633e-09
8.2019538e-12
1.9743148e-09
-8.2019073e-12
1.973476e-09
8.2035367e-12
1.9742947e-09
-8.1409449e-12
1.9734955e-09
8.0624816e-12
1.9742721e-09
-7.9468302e-12
1.9735189e-09
7.8122925e-12
1.9742466e-09
-7.6509156e-12
1.9735445e-09
7.4756792e-12
1.9742207e-09
-7.2875915e-12
1.9735713e-09
7.086216e-12
1.9741941e-09
-6.8774536e-12
1.9735976e-09
6.6642864e-12
1.9741682e-09
-6.448436e-12
1.9736231e-09
6.2315255e-12
1.9741437e-09
-6.0180293e-12
1.973647e-09
5.8072137e-12
1.9741213e-09
-5.6044394e-12
1.9736686e-09
5.4072533e-12
1.9741013e-09
-5.2214855e-12
1.9736878e-09
5.0434094e-12
1.974084e-09
-4.8791147e-12
1.9737035e-09
4.7281506e-12
1.9740694e-09
-4.5890901e-12
1.9737165e-09
4.4653459e-12
1.9740572e-09
-4.3502871e-12
1.9737232e-09
4.2722383e-12
1.9740447e-09
-4.1879918e-12
1.9737472e-09
3.9568287e-12
1.9741967e-09
-4.9932001e-12
3.5793837e-12
2.1302863e-09
2.2306425e-08
2.3919598e-09
-1.4885196e-09
2.187343e-09
1.7365983e-09
2.2186776e-09
-2.4599956e-10
2.1883835e-09
2.5218303e-10
2.1830972e-09
5.3661464e-11
2.1771863e-09
5.1696802e-11
2.1785744e-09
-3.0222617e-12
2.1748931e-09
2.2950145e-11
2.1749668e-09
1.6533623e-12
2.1753245e-09
-3.0211756e-12
2.1746187e-09
6.3985638e-12
2.1753703e-09
-6.7344741e-12
2.1745068e-09
7.9363594e-12
2.175323e-09
-7.9171239e-12
2.1744527e-09
8.5525635e-12
2.1752909e-09
-8.584864e-12
2.1744377e-09
8.8879271e-12
2.1752692e-09
-8.9195376e-12
2.1744429e-09
9.0282634e-12
2.1752488e-09
-9.0077857e-12
2.1744584e-09
8.9939489e-12
2.1752264e-09
-8.9089431e-12
2.1744797e-09
8.8091518e-12
2.1752022e-09
-8.6693917e-12
2.1745042e-09
8.5103487e-12
2.175176e-09
-8.3227216e-12
2.1745302e-09
8.1213856e-12
2.17515e-09
-7.9073435e-12
2.174557e-09
7.6791521e-12
2.1751237e-09
-7.4440997e-12
2.1745829e-09
7.2050732e-12
2.1750984e-09
-6.9639693e-12
2.1746077e-09
6.7222374e-12
2.1750748e-09
-6.4851216e-12
2.1746306e-09
6.2513245e-12
2.1750533e-09
-6.0271439e-12
2.1746513e-09
5.8092804e-12
2.1750344e-09
-5.6045961e-12
2.1746695e-09
5.4082589e-12
2.1750181e-09
-5.2276552e-12
2.1746844e-09
5.0618579e-12
2.1750043e-09
-4.9090212e-12
2.1746965e-09
4.7731057e-12
2.1749928e-09
-4.6465684e-12
2.1747025e-09
4.5625364e-12
2.1749803e-09
-4.4657719e-12
2.1747238e-09
4.213304e-12
2.1751276e-09
-5.3970078e-12
3.7554744e-12
2.2666096e-09
2.350144e-08
2.558507e-09
-1.7804171e-09
2.3725466e-09
1.9225587e-09
2.3975512e-09
-2.7100411e-10
2.3796051e-09
2.7012913e-10
2.376328e-09
5.6938526e-11
2.3710385e-09
5.6986327e-11
2.372955e-09
-4.9388248e-12
2.369219e-09
2.6686154e-11
2.3694135e-09
1.4588605e-12
2.3697778e-09
-3.3854525e-12
2.3690972e-09
7.0791692e-12
2.3698379e-09
-7.4751731e-12
2.3689953e-09
8.7790482e-12
2.3697844e-09
-8.7062184e-12
2.3689458e-09
9.3911764e-12
2.3697463e-09
-9.385311e-12
2.3689348e-09
9.6994098e-12
2.3697203e-09
-9.7050345e-12
2.3689432e-09
9.805363e-12
2.3696971e-09
-9.7616283e-12
2.368961e-09
9.7300311e-12
2.3696727e-09
-9.6206166e-12
2.3689838e-09
9.4980194e-12
2.3696476e-09
-9.3332539e-12
2.369009e-09
9.1489891e-12
2.369621e-09
-8.9346901e-12
2.3690351e-09
8.7071842e-12
2.3695953e-09
-8.4674627e-12
2.3690616e-09
8.2128132e-12
2.3695696e-09
-7.9521133e-12
2.3690866e-09
7.6880518e-12
2.3695452e-09
-7.4225529e-12
2.3691104e-09
7.1569877e-12
2.3695227e-09
-6.8973907e-12
2.3691322e-09
6.6417723e-12
2.3695024e-09
-6.3974065e-12
2.3691517e-09
6.16002e-12
2.3694847e-09
-5.9375844e-12
2.3691688e-09
5.7241111e-12
2.3694695e-09
-5.5283404e-12
2.3691825e-09
5.3488869e-12
2.3694566e-09
-5.1831811e-12
2.3691938e-09
5.0358928e-12
2.3694461e-09
-4.8988259e-12
2.369199e-09
4.8095817e-12
2.3694336e-09
-4.7003254e-12
2.3692175e-09
4.4293917e-12
2.3695738e-09
-5.7533413e-12
3.885421e-12
2.4394538e-09
2.4523611e-08
2.7187482e-09
-2.0597115e-09
2.5483132e-09
2.0929938e-09
2.5699703e-09
-2.926612e-10
2.5644664e-09
2.7563304e-10
2.5629283e-09
5.8476619e-11
2.5583246e-09
6.1590036e-11
2.5607926e-09
-7.406906e-12
2.5570481e-09
3.0430747e-11
2.5573839e-09
1.1229664e-12
2.5577414e-09
-3.7428554e-12
2.5570965e-09
7.7240248e-12
2.557817e-09
-8.1956838e-12
2.557005e-09
9.5910967e-12
2.5577584e-09
-9.4595632e-12
2.5569603e-09
1.0189276e-11
2.5577151e-09
-1.0140054e-11
2.5569531e-09
1.046142e-11
2.5576856e-09
-1.0437517e-11
2.5569643e-09
1.052664e-11
2.5576599e-09
-1.0457206e-11
2.556984e-09
1.0405941e-11
2.5576342e-09
-1.0270798e-11
2.5570077e-09
1.0124439e-11
2.5576085e-09
-9.934034e-12
2.5570333e-09
9.7242244e-12
2.5575819e-09
-9.4833192e-12
2.557059e-09
9.2300189e-12
2.5575568e-09
-8.9652405e-12
2.5570848e-09
8.6848422e-12
2.5575321e-09
-8.3994427e-12
2.5571087e-09
8.1114083e-12
2.5575089e-09
-7.8227672e-12
2.5571312e-09
7.5346558e-12
2.5574877e-09
-7.2539081e-12
2.5571517e-09
6.9778356e-12
2.5574689e-09
-6.7146822e-12
2.5571698e-09
6.4591931e-12
2.5574526e-09
-6.2204159e-12
2.5571856e-09
5.9910962e-12
2.5574387e-09
-5.7814459e-12
2.5571981e-09
5.5894561e-12
2.5574269e-09
-5.4119595e-12
2.5572084e-09
5.2543479e-12
2.5574173e-09
-5.1076598e-12
2.5572129e-09
5.0139008e-12
2.5574052e-09
-4.8926242e-12
2.5572284e-09
4.6062405e-12
2.557536e-09
-6.0609746e-12
3.9720611e-12
2.5643034e-09
2.5420933e-08
2.8589647e-09
-2.3543727e-09
2.718771e-09
2.2331875e-09
2.7372161e-09
-3.1110634e-10
2.7428341e-09
2.7001506e-10
2.7429969e-09
5.8313739e-11
2.7391647e-09
6.5422265e-11
2.7421058e-09
-1.0348044e-11
2.738387e-09
3.4149535e-11
2.7388839e-09
6.2610644e-13
2.7392164e-09
-4.0753811e-12
2.7386173e-09
8.3231315e-12
2.7393078e-09
-8.8861486e-12
2.7385361e-09
1.0362863e-11
2.7392449e-09
-1.0168414e-11
2.738496e-09
1.0938258e-11
2.7391973e-09
-1.0841391e-11
2.7384922e-09
1.1166607e-11
2.7391649e-09
-1.111018e-11
2.7385058e-09
1.1185679e-11
2.7391375e-09
-1.1088842e-11
2.7385269e-09
1.1016524e-11
2.7391107e-09
-1.0854643e-11
2.7385512e-09
1.0683956e-11
2.7390851e-09
-1.0467941e-11
2.7385766e-09
1.0232718e-11
2.7390589e-09
-9.9656122e-12
2.7386017e-09
9.6872412e-12
2.7390348e-09
-9.398416e-12
2.7386263e-09
9.0933296e-12
2.7390114e-09
-8.7845321e-12
2.7386488e-09
8.4739752e-12
2.7389896e-09
-8.1636035e-12
2.7386698e-09
7.8544707e-12
2.7389701e-09
-7.5541995e-12
2.7386886e-09
7.2592935e-12
2.7389529e-09
-6.9789775e-12
2.7387052e-09
6.7069146e-12
2.738938e-09
-6.4532833e-12
2.7387196e-09
6.2095545e-12
2.7389256e-09
-5.9874374e-12
2.7387307e-09
5.7843438e-12
2.7389149e-09
-5.5961612e-12
2.73874e-09
5.4292107e-12
2.7389064e-09
-5.2740567e-12
2.7387437e-09
5.1765663e-12
2.7388949e-09
-5.0437714e-12
2.7387562e-09
4.7448729e-12
2.7390146e-09
-6.3193581e-12
4.0187299e-12
2.7281513e-09
2.6154407e-08
3.0006274e-09
-2.6268488e-09
2.8829517e-09
2.3508632e-09
2.8987895e-09
-3.2694412e-10
2.9146992e-09
2.5410536e-10
2.9165614e-09
5.6451535e-11
2.913605e-09
6.837866e-11
2.9168924e-09
-1.3635501e-11
2.9132355e-09
3.7806525e-11
2.9139169e-09
-5.5337837e-14
2.9142038e-09
-4.3622639e-12
2.9136598e-09
8.8671341e-12
2.9143103e-09
-9.536653e-12
2.9135884e-09
1.1084831e-11
2.9142445e-09
-1.0824466e-11
2.9135529e-09
1.1629869e-11
2.9141934e-09
-1.1481892e-11
2.9135522e-09
1.1807861e-11
2.9141587e-09
-1.1716738e-11
2.9135677e-09
1.1776721e-11
2.91413e-09
-1.1651184e-11
2.9135897e-09
1.1556866e-11
2.914103e-09
-1.1367975e-11
2.913614e-09
1.1172952e-11
2.9140777e-09
-1.0931599e-11
2.9136389e-09
1.0671497e-11
2.9140524e-09
-1.0379094e-11
2.9136628e-09
1.0076822e-11
2.9140296e-09
-9.7652882e-12
2.913686e-09
9.4369102e-12
2.9140078e-09
-9.1062931e-12
2.9137069e-09
8.7748641e-12
2.9139878e-09
-8.444558e-12
2.9137261e-09
8.1162004e-12
2.9139701e-09
-7.7981833e-12
2.9137431e-09
7.4862343e-12
2.9139546e-09
-7.1905186e-12
2.9137579e-09
6.9036558e-12
2.9139415e-09
-6.6368822e-12
2.9137707e-09
6.3803141e-12
2.9139305e-09
-6.1472569e-12
2.9137805e-09
5.9343743e-12
2.9139211e-09
-5.7367683e-12
2.9137886e-09
5.5617128e-12
2.9139137e-09
-5.3991492e-12
2.9137916e-09
5.2986153e-12
2.9139031e-09
-5.1552499e-12
2.9138012e-09
4.8468238e-12
2.9140102e-09
-6.5283581e-12
4.0287783e-12
2.8530519e-09
2.676298e-08
3.1279933e-09
-2.9017902e-09
3.0436882e-09
2.4351683e-09
3.0548223e-09
-3.3807817e-10
3.0799777e-09
2.2894998e-10
3.083677e-09
5.2752204e-11
3.0816884e-09
7.0367215e-11
3.0851536e-09
-1.7100694e-11
3.0815957e-09
4.1364402e-11
3.0824868e-09
-9.4638118e-13
3.0827049e-09
-4.5804069e-12
3.0822245e-09
9.3475426e-12
3.0828251e-09
-1.0137173e-11
3.0821619e-09
1.1748064e-11
3.0827569e-09
-1.1419521e-11
3.0821306e-09
1.2256272e-11
3.0827034e-09
-1.2054681e-11
3.0821325e-09
1.2378764e-11
3.0826671e-09
-1.2251346e-11
3.0821495e-09
1.229437e-11
3.0826379e-09
-1.2139627e-11
3.0821719e-09
1.2022922e-11
3.0826109e-09
-1.1807038e-11
3.0821958e-09
1.1588061e-11
3.0825865e-09
-1.132233e-11
3.0822197e-09
1.1038331e-11
3.0825624e-09
-1.0721847e-11
3.0822421e-09
1.0397163e-11
3.0825414e-09
-1.0064619e-11
3.0822636e-09
9.7146701e-12
3.0825215e-09
-9.3641363e-12
3.0822825e-09
9.0138498e-12
3.0825034e-09
-8.6655087e-12
3.0822997e-09
8.3199205e-12
3.0824877e-09
-7.9862025e-12
3.0823147e-09
7.6592196e-12
3.0824742e-09
-7.3500605e-12
3.0823276e-09
7.0502303e-12
3.0824628e-09
-6.7720564e-12
3.0823388e-09
6.5043326e-12
3.0824535e-09
-6.2619531e-12
3.0823469e-09
6.0409064e-12
3.0824453e-09
-5.8351262e-12
3.0823539e-09
5.6530866e-12
3.0824392e-09
-5.4844084e-12
3.0823562e-09
5.3816039e-12
3.0824295e-09
-5.2285709e-12
3.0823629e-09
4.9134058e-12
3.082523e-09
-6.6884184e-12
4.0058624e-12
3.0138407e-09
2.7210764e-08
3.2603917e-09
-3.1483412e-09
3.1994334e-09
2.4961267e-09
3.2051773e-09
-3.4382206e-10
3.2387534e-09
1.953738e-10
3.2443668e-09
4.7138867e-11
3.2434284e-09
7.1305583e-11
3.2468856e-09
-2.0557966e-11
3.2434726e-09
4.4777423e-11
3.244594e-09
-2.0677868e-12
3.2447203e-09
-4.7066573e-12
3.2443111e-09
9.7567593e-12
3.244852e-09
-1.0678119e-11
3.2442562e-09
1.2343981e-11
3.2447828e-09
-1.1946191e-11
3.2442289e-09
1.2810221e-11
3.2447277e-09
-1.2553401e-11
3.2442331e-09
1.2873316e-11
3.2446907e-09
-1.270889e-11
3.244251e-09
1.2734065e-11
3.2446614e-09
-1.2550005e-11
3.2442733e-09
1.2410965e-11
3.2446352e-09
-1.2168867e-11
3.2442964e-09
1.1926875e-11
3.2446119e-09
-1.1637912e-11
3.2443189e-09
1.1331379e-11
3.2445895e-09
-1.0992506e-11
3.2443394e-09
1.0647313e-11
3.2445705e-09
-1.0295744e-11
3.2443589e-09
9.9262401e-12
3.2445527e-09
-9.5579206e-12
3.2443756e-09
9.1909347e-12
3.2445369e-09
-8.8268159e-12
3.2443906e-09
8.4662206e-12
3.2445233e-09
-8.1189431e-12
3.2444034e-09
7.7790567e-12
3.2445119e-09
-7.458501e-12
3.2444143e-09
7.1477515e-12
3.2445024e-09
-6.8601156e-12
3.2444237e-09
6.5830145e-12
3.2444947e-09
-6.3330078e-12
3.2444304e-09
6.1052414e-12
3.244488e-09
-5.8926784e-12
3.244436e-09
5.7050186e-12
3.244483e-09
-5.5313645e-12
3.2444376e-09
5.426947e-12
3.2444746e-09
-5.2655751e-12
3.2444416e-09
4.9464412e-12
3.2445534e-09
-6.8002644e-12
3.9534425e-12
3.1388024e-09
2.7533587e-08
3.3783929e-09
-3.3879317e-09
3.3521964e-09
2.5223232e-09
3.3517785e-09
-3.4340408e-10
3.3913576e-09
1.5579466e-10
3.3987355e-09
3.9761011e-11
3.3988222e-09
7.1218823e-11
3.4020878e-09
-2.3823576e-11
3.3988792e-09
4.7986037e-11
3.4002356e-09
-3.4241466e-12
3.4002497e-09
-4.7208331e-12
3.3999189e-09
1.0087575e-11
3.4003914e-09
-1.1150585e-11
3.3998708e-09
1.2864644e-11
3.4003222e-09
-1.239756e-11
3.3998474e-09
1.3285042e-11
3.4002665e-09
-1.29725e-11
3.3998534e-09
1.3286388e-11
3.4002294e-09
-1.308485e-11
3.3998718e-09
1.3091712e-11
3.4002008e-09
-1.2879042e-11
3.3998935e-09
1.2718264e-11
3.4001756e-09
-1.2450969e-11
3.3999152e-09
1.2187247e-11
3.4001542e-09
-1.1876878e-11
3.399936e-09
1.1549584e-11
3.4001338e-09
-1.119027e-11
3.3999543e-09
1.0826738e-11
3.400117e-09
-1.045844e-11
3.3999715e-09
1.0071675e-11
3.4001016e-09
-9.6879778e-12
3.3999857e-09
9.3067735e-12
3.4000881e-09
-8.9291699e-12
3.3999984e-09
8.5559361e-12
3.4000769e-09
-8.1974677e-12
3.4000089e-09
7.8469823e-12
3.4000677e-09
-7.5172286e-12
3.4000178e-09
7.1976108e-12
3.4000601e-09
-6.9024305e-12
3.4000253e-09
6.6178058e-12
3.4000542e-09
-6.3619212e-12
3.4000303e-09
6.1291834e-12
3.4000487e-09
-5.9111753e-12
3.4000347e-09
5.7190977e-12
3.4000451e-09
-5.5418371e-12
3.4000355e-09
5.4365482e-12
3.400038e-09
-5.268034e-12
3.400037e-09
4.9474344e-12
3.4001018e-09
-6.8651063e-12
3.8751501e-12
3.2978982e-09
2.7697313e-08
3.5011242e-09
-3.5911577e-09
3.4995241e-09
2.5239234e-09
3.4958138e-09
-3.3969378e-10
3.5384183e-09
1.1319021e-10
3.5469115e-09
3.1267779e-11
3.5478618e-09
7.0268556e-11
3.5507738e-09
-2.6735665e-11
3.5478427e-09
5.0917153e-11
3.5494089e-09
-4.9903753e-12
3.549295e-09
-4.6069013e-12
3.5490483e-09
1.0334259e-11
3.5494438e-09
-1.1546054e-11
3.5490056e-09
1.3302938e-11
3.5493757e-09
-1.2767645e-11
3.5489858e-09
1.3674942e-11
3.5493204e-09
-1.3307065e-11
3.5489934e-09
1.3613427e-11
3.5492841e-09
-1.3375559e-11
3.5490116e-09
1.3364187e-11
3.5492565e-09
-1.3123954e-11
3.5490324e-09
1.2942435e-11
3.5492331e-09
-1.2651705e-11
3.5490523e-09
1.2368059e-11
3.5492136e-09
-1.2038215e-11
3.5490709e-09
1.1692259e-11
3.5491955e-09
-1.1314886e-11
3.5490867e-09
1.0935545e-11
3.5491813e-09
-1.0553039e-11
3.5491014e-09
1.0151544e-11
3.5491685e-09
-9.755042e-12
3.5491131e-09
9.3621753e-12
3.5491576e-09
-8.9736993e-12
3.5491231e-09
8.5903724e-12
3.5491488e-09
-8.2231171e-12
3.5491313e-09
7.8644036e-12
3.5491418e-09
-7.5276891e-12
3.549138e-09
7.201435e-12
3.5491363e-09
-6.9007925e-12
3.5491436e-09
6.6105521e-12
3.5491322e-09
-6.3505782e-12
3.549147e-09
6.1143757e-12
3.5491282e-09
-5.8923857e-12
3.54915e-09
5.6973273e-12
3.5491258e-09
-5.5176199e-12
3.5491502e-09
5.4120686e-12
3.5491202e-09
-5.2380046e-12
3.5491492e-09
4.9183931e-12
3.5491684e-09
-6.8843096e-12
3.7742684e-12
3.417191e-09
2.7741747e-08
3.6054105e-09
-3.7793772e-09
3.6414924e-09
2.4878415e-09
3.6374124e-09
-3.3561382e-10
3.6798455e-09
7.0757126e-11
3.6888695e-09
2.224377e-11
3.6904933e-09
6.8644736e-11
3.6929474e-09
-2.9189802e-11
3.6903799e-09
5.3484678e-11
3.6921041e-09
-6.7145585e-12
3.6918546e-09
-4.3573544e-12
3.6916984e-09
1.0490407e-11
3.6920095e-09
-1.1857089e-11
3.6916599e-09
1.3652545e-11
3.6919434e-09
-1.3051123e-11
3.6916435e-09
1.3974859e-11
3.6918896e-09
-1.3553137e-11
3.6916521e-09
1.3850884e-11
3.6918546e-09
-1.3578025e-11
3.6916699e-09
1.354888e-11
3.6918289e-09
-1.3282921e-11
3.6916892e-09
1.3082158e-11
3.6918074e-09
-1.276991e-11
3.691707e-09
1.2468423e-11
3.6917905e-09
-1.2121676e-11
3.6917232e-09
1.1759511e-11
3.691775e-09
-1.136664e-11
3.6917363e-09
1.097421e-11
3.6917635e-09
-1.0580266e-11
3.6917483e-09
1.0166787e-11
3.6917535e-09
-9.7602716e-12
3.6917571e-09
9.358569e-12
3.6917452e-09
-8.961794e-12
3.6917645e-09
8.5710053e-12
3.6917389e-09
-8.1975481e-12
3.6917702e-09
7.8331024e-12
3.6917343e-09
-7.4917711e-12
3.6917747e-09
7.161059e-12
3.6917308e-09
-6.8569637e-12
3.6917783e-09
6.5630521e-12
3.6917285e-09
-6.3007945e-12
3.69178e-09
6.0629306e-12
3.6917259e-09
-5.8383294e-12
3.6917817e-09
5.6415193e-12
3.6917248e-09
-5.4607494e-12
3.6917813e-09
5.3556283e-12
3.6917206e-09
-5.1773868e-12
3.6917781e-09
4.8609165e-12
3.6917535e-09
-6.8596412e-12
3.6541661e-12
3.5716738e-09
2.7631699e-08
3.7187744e-09
-3.9264777e-09
3.7776028e-09
2.4290131e-09
3.7749617e-09
-3.3297274e-10
3.8153715e-09
3.0347414e-11
3.824504e-09
1.3111253e-11
3.826674e-09
6.6474741e-11
3.8286174e-09
-3.1133238e-11
3.8264964e-09
5.5605646e-11
3.8283111e-09
-8.5292563e-12
3.8279269e-09
-3.9731259e-12
3.8278686e-09
1.0548729e-11
3.8280887e-09
-1.2077224e-11
3.8278334e-09
1.3907917e-11
3.8280261e-09
-1.3243872e-11
3.8278203e-09
1.4180714e-11
3.8279747e-09
-1.3707499e-11
3.8278297e-09
1.3995855e-11
3.8279419e-09
-1.3690181e-11
3.8278466e-09
1.3644218e-11
3.8279183e-09
-1.3354623e-11
3.827864e-09
1.3136442e-11
3.8278994e-09
-1.2805291e-11
3.8278793e-09
1.2488499e-11
3.8278851e-09
-1.212743e-11
3.8278928e-09
1.1751759e-11
3.8278725e-09
-1.134632e-11
3.8279029e-09
1.0943816e-11
3.8278639e-09
-1.0541353e-11
3.8279119e-09
1.0118807e-11
3.8278568e-09
-9.7051624e-12
3.8279179e-09
9.29745e-12
3.8278513e-09
-8.8952245e-12
3.8279226e-09
8.4997239e-12
3.8278476e-09
-8.1226221e-12
3.8279258e-09
7.7549495e-12
3.8278453e-09
-7.4113321e-12
3.8279279e-09
7.0784849e-12
3.827844e-09
-6.7730792e-12
3.8279296e-09
6.4774551e-12
3.8278435e-09
-6.2147224e-12
3.8279297e-09
5.9767013e-12
3.8278424e-09
-5.7509702e-12
3.82793e-09
5.5538628e-12
3.8278424e-09
-5.373158e-12
3.8279291e-09
5.2690125e-12
3.82784e-09
-5.0883301e-12
3.8279238e-09
4.7771006e-12
3.8278571e-09
-6.7929074e-12
3.5177607e-12
3.6968267e-09
2.7396497e-08
3.8170032e-09
-4.0466541e-09
3.9087155e-09
2.3373008e-09
3.9075249e-09
-3.3178212e-10
3.9447343e-09
-6.8619483e-12
3.9537778e-09
4.0676823e-12
3.9563833e-09
6.3869279e-11
3.9577947e-09
-3.2544669e-11
3.9561873e-09
5.7213075e-11
3.9580198e-09
-1.0361785e-11
3.9575094e-09
-3.4627092e-12
3.9575581e-09
1.0499985e-11
3.957682e-09
-1.2201051e-11
3.9575254e-09
1.4064482e-11
3.9576241e-09
-1.3342498e-11
3.9575156e-09
1.4289271e-11
3.957576e-09
-1.3767963e-11
3.9575254e-09
1.4046517e-11
3.9575459e-09
-1.3710653e-11
3.957541e-09
1.3649144e-11
3.9575251e-09
-1.3338721e-11
3.9575561e-09
1.3105377e-11
3.9575088e-09
-1.2757984e-11
3.9575687e-09
1.2428614e-11
3.9574977e-09
-1.2056383e-11
3.9575792e-09
1.1670185e-11
3.9574881e-09
-1.1255202e-11
3.9575862e-09
1.0845741e-11
3.9574827e-09
-1.0437859e-11
3.9575921e-09
1.0009306e-11
3.9574785e-09
-9.5915692e-12
3.9575951e-09
9.180886e-12
3.9574758e-09
-8.7759433e-12
3.957597e-09
8.3785059e-12
3.9574748e-09
-8.00045e-12
3.9575976e-09
7.6321312e-12
3.9574749e-09
-7.2886208e-12
3.9575975e-09
6.9558527e-12
3.9574756e-09