/*--------------------------------*- C++ -*----------------------------------*\
| =========                 |                                                 |
| \\      /  F ield         | OpenFOAM: The Open Source CFD Toolbox           |
|  \\    /   O peration     | Version:  2312                                  |
|   \\  /    A nd           | Website:  www.openfoam.com                      |
|    \\/     M anipulation  |                                                 |
\*---------------------------------------------------------------------------*/
FoamFile
{
    version     2.0;
    format      ascii;
    arch        "LSB;label=32;scalar=64";
    class       volSymmTensorField;
    location    "1";
    object      sigma_0;
}
// * * * * * * * * * * * * * * * * * * * * * * * * * * * * * * * * * * * * * //

dimensions      [0 2 -2 0 0 0 0];

internalField   nonuniform List<symmTensor> 
4000
(
(-3.9720909 -1.8129396 0 -0.77161887 0 0)
(-12.954225 -0.71484789 0 -0.012740223 0 0)
(-4.1837216 -0.37397193 0 -0.0023548125 0 0)
(-4.6885449 -0.39390605 0 0.0002549092 0 0)
(-4.2098125 -0.37508175 0 -0.00014349771 0 0)
(-4.2556347 -0.37672369 0 -2.5433537e-05 0 0)
(-4.0879384 -0.36922602 0 -3.6722043e-05 0 0)
(-4.1346465 -0.37130125 0 -6.858829e-06 0 0)
(-4.0697086 -0.36832872 0 -4.6612773e-06 0 0)
(-4.0992535 -0.36967049 0 -9.5023329e-06 0 0)
(-4.0663078 -0.36813453 0 1.0764478e-05 0 0)
(-4.0966266 -0.36957457 0 -1.515565e-05 0 0)
(-4.0626322 -0.36794474 0 1.6781291e-05 0 0)
(-4.0983019 -0.36966988 0 -1.9153707e-05 0 0)
(-4.0596105 -0.36779008 0 2.0500139e-05 0 0)
(-4.100094 -0.36976642 0 -2.20645e-05 0 0)
(-4.057541 -0.3676824 0 2.3089672e-05 0 0)
(-4.1014329 -0.36983893 0 -2.4108094e-05 0 0)
(-4.05629 -0.36761532 0 2.4792642e-05 0 0)
(-4.1022166 -0.36988307 0 -2.5390135e-05 0 0)
(-4.0557107 -0.36758185 0 2.5750268e-05 0 0)
(-4.1024572 -0.36989972 0 -2.6010052e-05 0 0)
(-4.0556912 -0.36757655 0 2.6085945e-05 0 0)
(-4.1022098 -0.36989172 0 -2.607282e-05 0 0)
(-4.0561424 -0.36759502 0 2.5913985e-05 0 0)
(-4.1015432 -0.36986257 0 -2.5686398e-05 0 0)
(-4.0569797 -0.36763303 0 2.5342588e-05 0 0)
(-4.1005281 -0.36981581 0 -2.4951227e-05 0 0)
(-4.0581349 -0.36768712 0 2.4472655e-05 0 0)
(-4.0992346 -0.36975499 0 -2.3965899e-05 0 0)
(-4.059537 -0.3677537 0 2.3395501e-05 0 0)
(-4.0977216 -0.36968311 0 -2.2816462e-05 0 0)
(-4.0611291 -0.36782986 0 2.2195726e-05 0 0)
(-4.0960461 -0.36960306 0 -2.1581914e-05 0 0)
(-4.0628612 -0.36791299 0 2.0946303e-05 0 0)
(-4.0942537 -0.36951723 0 -2.0331222e-05 0 0)
(-4.0646911 -0.3680009 0 1.9711765e-05 0 0)
(-4.0923833 -0.36942764 0 -1.9124265e-05 0 0)
(-4.0665838 -0.36809172 0 1.854712e-05 0 0)
(-4.0904657 -0.36933593 0 -1.8011486e-05 0 0)
(-4.0685125 -0.36818402 0 1.7497889e-05 0 0)
(-4.0885218 -0.36924327 0 -1.7035159e-05 0 0)
(-4.0704558 -0.36827661 0 1.6603418e-05 0 0)
(-4.0865703 -0.36915071 0 -1.6230388e-05 0 0)
(-4.0724002 -0.36836868 0 1.5893492e-05 0 0)
(-4.0846125 -0.36905843 0 -1.5622792e-05 0 0)
(-4.0743408 -0.36845956 0 1.5448605e-05 0 0)
(-4.0827841 -0.36897187 0 -1.5062046e-05 0 0)
(-4.0769081 -0.36857516 0 1.580548e-05 0 0)
(-4.0831692 -0.36899033 0 -1.5109312e-05 0 0)
(-3.0178632 -1.5116083 0 -0.68509203 0 0)
(-10.628952 -0.69504931 0 -0.026369515 0 0)
(-4.9468713 -0.42531895 0 -0.0071175136 0 0)
(-4.3407809 -0.37727268 0 0.00025512284 0 0)
(-3.8954065 -0.3618364 0 -0.00036063572 0 0)
(-3.9320287 -0.36253803 0 -9.6564231e-05 0 0)
(-3.7904987 -0.35567661 0 -0.00010452745 0 0)
(-3.8318747 -0.35752546 0 -1.5623277e-05 0 0)
(-3.7711143 -0.35457948 0 -2.4382304e-05 0 0)
(-3.8005078 -0.35599434 0 -1.2490445e-05 0 0)
(-3.7660226 -0.35422749 0 1.0547496e-05 0 0)
(-3.7979771 -0.35591371 0 -1.8508117e-05 0 0)
(-3.7629414 -0.35404538 0 1.9254292e-05 0 0)
(-3.7990532 -0.35598986 0 -2.2626147e-05 0 0)
(-3.7607079 -0.35391698 0 2.3519052e-05 0 0)
(-3.8001825 -0.35606075 0 -2.5487911e-05 0 0)
(-3.7593071 -0.3538347 0 2.6293951e-05 0 0)
(-3.8009403 -0.35610889 0 -2.7455725e-05 0 0)
(-3.7585947 -0.35379046 0 2.8022715e-05 0 0)
(-3.8012542 -0.3561315 0 -2.864156e-05 0 0)
(-3.7584327 -0.35377696 0 2.8911996e-05 0 0)
(-3.801137 -0.35612968 0 -2.9134454e-05 0 0)
(-3.7587182 -0.3537886 0 2.9120745e-05 0 0)
(-3.8006365 -0.35610624 0 -2.9038176e-05 0 0)
(-3.7593717 -0.353821 0 2.8784718e-05 0 0)
(-3.7998133 -0.35606463 0 -2.8471418e-05 0 0)
(-3.7603196 -0.35387007 0 2.8025341e-05 0 0)
(-3.7987265 -0.35600817 0 -2.7537858e-05 0 0)
(-3.761504 -0.35393248 0 2.6956963e-05 0 0)
(-3.7974364 -0.35594026 0 -2.6350369e-05 0 0)
(-3.7628663 -0.35400493 0 2.5676329e-05 0 0)
(-3.7959907 -0.35586363 0 -2.4999206e-05 0 0)
(-3.7643594 -0.3540847 0 2.4278593e-05 0 0)
(-3.7944358 -0.35578093 0 -2.3570065e-05 0 0)
(-3.765944 -0.3541695 0 2.2841254e-05 0 0)
(-3.7928078 -0.35569424 0 -2.213814e-05 0 0)
(-3.7675872 -0.35425739 0 2.1434727e-05 0 0)
(-3.791137 -0.35560536 0 -2.0768307e-05 0 0)
(-3.7692623 -0.35434676 0 2.0118017e-05 0 0)
(-3.7894462 -0.35551565 0 -1.9514168e-05 0 0)
(-3.7709505 -0.35443647 0 1.8939005e-05 0 0)
(-3.7877498 -0.35542605 0 -1.8423642e-05 0 0)
(-3.7726365 -0.35452553 0 1.7944007e-05 0 0)
(-3.7860598 -0.35533736 0 -1.7534571e-05 0 0)
(-3.7743137 -0.35461346 0 1.7161614e-05 0 0)
(-3.7843724 -0.35524957 0 -1.6886183e-05 0 0)
(-3.7759652 -0.35469866 0 1.6737704e-05 0 0)
(-3.7827284 -0.35516256 0 -1.6088403e-05 0 0)
(-3.7779457 -0.35479004 0 1.8204317e-05 0 0)
(-3.78259 -0.35515425 0 -1.5765703e-05 0 0)
(-3.1498062 -1.5604978 0 -0.69485764 0 0)
(-8.8350128 -0.64069689 0 -0.031789608 0 0)
(-4.8909693 -0.43722039 0 -0.010697661 0 0)
(-4.2151559 -0.37144653 0 2.1017156e-05 0 0)
(-3.7014841 -0.35307397 0 -0.00053096977 0 0)
(-3.7195804 -0.35288727 0 -0.00015301417 0 0)
(-3.5933608 -0.34640185 0 -0.00015186682 0 0)
(-3.6352002 -0.34829203 0 -2.1452849e-05 0 0)
(-3.5771323 -0.34534326 0 -3.9426293e-05 0 0)
(-3.6067129 -0.34684284 0 -1.4235421e-05 0 0)
(-3.5719458 -0.344934 0 9.0528587e-06 0 0)
(-3.6040527 -0.34675818 0 -1.9140395e-05 0 0)
(-3.5692608 -0.34476361 0 1.897422e-05 0 0)
(-3.6047757 -0.34682026 0 -2.2827058e-05 0 0)
(-3.5674656 -0.34465311 0 2.3208267e-05 0 0)
(-3.6055574 -0.34687518 0 -2.5337923e-05 0 0)
(-3.5664189 -0.34458681 0 2.5856162e-05 0 0)
(-3.6060171 -0.34690844 0 -2.7039611e-05 0 0)
(-3.565979 -0.34455644 0 2.7443098e-05 0 0)
(-3.6060972 -0.34691812 0 -2.8033188e-05 0 0)
(-3.5660183 -0.34455474 0 2.8202228e-05 0 0)
(-3.6058111 -0.34690547 0 -2.8386618e-05 0 0)
(-3.5664411 -0.34457618 0 2.8304905e-05 0 0)
(-3.6052023 -0.34687324 0 -2.8188906e-05 0 0)
(-3.5671746 -0.34461642 0 2.7890089e-05 0 0)
(-3.6043256 -0.34682478 0 -2.7553257e-05 0 0)
(-3.5681523 -0.3446715 0 2.7075966e-05 0 0)
(-3.603233 -0.34676323 0 -2.6574555e-05 0 0)
(-3.5693222 -0.34473822 0 2.597696e-05 0 0)
(-3.6019785 -0.34669189 0 -2.536404e-05 0 0)
(-3.5706329 -0.34481347 0 2.4681553e-05 0 0)
(-3.6006031 -0.34661326 0 -2.4006313e-05 0 0)
(-3.5720431 -0.3448947 0 2.3284692e-05 0 0)
(-3.5991471 -0.3465298 0 -2.2582729e-05 0 0)
(-3.5735194 -0.3449798 0 2.185844e-05 0 0)
(-3.597641 -0.34644342 0 -2.1165262e-05 0 0)
(-3.5750338 -0.34506701 0 2.0470422e-05 0 0)
(-3.5961101 -0.34635573 0 -1.9816042e-05 0 0)
(-3.5765643 -0.3451549 0 1.9176872e-05 0 0)
(-3.5945729 -0.34626793 0 -1.8586058e-05 0 0)
(-3.5780961 -0.3452425 0 1.8022878e-05 0 0)
(-3.59304 -0.3461808 0 -1.7522626e-05 0 0)
(-3.5796171 -0.34532895 0 1.7054911e-05 0 0)
(-3.5915203 -0.34609497 0 -1.6662053e-05 0 0)
(-3.581124 -0.34541397 0 1.6299353e-05 0 0)
(-3.5900084 -0.3460104 0 -1.6056473e-05 0 0)
(-3.5826008 -0.34549588 0 1.5923227e-05 0 0)
(-3.5885197 -0.34592515 0 -1.5213064e-05 0 0)
(-3.5843141 -0.34557674 0 1.8052952e-05 0 0)
(-3.5881846 -0.34591028 0 -1.5933481e-05 0 0)
(-2.8499535 -1.4078874 0 -0.60356893 0 0)
(-7.8834113 -0.60818084 0 -0.034280693 0 0)
(-4.8284172 -0.4498629 0 -0.014561657 0 0)
(-4.112641 -0.36668673 0 -0.00024420919 0 0)
(-3.5299757 -0.34509287 0 -0.00075919121 0 0)
(-3.5188316 -0.34340355 0 -0.00021902987 0 0)
(-3.4006584 -0.33710678 0 -0.0001996637 0 0)
(-3.4436107 -0.33904948 0 -2.747934e-05 0 0)
(-3.3881527 -0.3361078 0 -5.5535345e-05 0 0)
(-3.4180628 -0.33769165 0 -1.5766858e-05 0 0)
(-3.383033 -0.33564728 0 6.723462e-06 0 0)
(-3.415316 -0.33759886 0 -1.8802428e-05 0 0)
(-3.3806544 -0.33548856 0 1.751853e-05 0 0)
(-3.4157467 -0.33764608 0 -2.1694068e-05 0 0)
(-3.379219 -0.33539604 0 2.1399033e-05 0 0)
(-3.4162506 -0.33768527 0 -2.3574695e-05 0 0)
(-3.3784664 -0.33534562 0 2.3683403e-05 0 0)
(-3.4164713 -0.33770406 0 -2.4801323e-05 0 0)
(-3.3782517 -0.33532884 0 2.4961472e-05 0 0)
(-3.4163624 -0.33770127 0 -2.5461351e-05 0 0)
(-3.3784565 -0.33533858 0 2.5482807e-05 0 0)
(-3.4159391 -0.33767827 0 -2.5592482e-05 0 0)
(-3.3789917 -0.33536936 0 2.5423275e-05 0 0)
(-3.4152415 -0.33763771 0 -2.5259524e-05 0 0)
(-3.37979 -0.33541695 0 2.4917888e-05 0 0)
(-3.4143201 -0.33758286 0 -2.4561945e-05 0 0)
(-3.3807907 -0.33547753 0 2.4072565e-05 0 0)
(-3.4132215 -0.33751667 0 -2.3576297e-05 0 0)
(-3.3819469 -0.33554804 0 2.2994066e-05 0 0)
(-3.4119946 -0.33744228 0 -2.2405227e-05 0 0)
(-3.3832132 -0.33562561 0 2.1755076e-05 0 0)
(-3.4106754 -0.33736201 0 -2.1119619e-05 0 0)
(-3.384553 -0.33570782 0 2.0442749e-05 0 0)
(-3.409299 -0.33727811 0 -1.978945e-05 0 0)
(-3.3859375 -0.33579279 0 1.9117866e-05 0 0)
(-3.4078919 -0.33719232 0 -1.8478203e-05 0 0)
(-3.3873431 -0.33587893 0 1.783966e-05 0 0)
(-3.4064753 -0.33710605 0 -1.7239594e-05 0 0)
(-3.3887514 -0.33596501 0 1.6656014e-05 0 0)
(-3.4050642 -0.33702034 0 -1.6116363e-05 0 0)
(-3.3901509 -0.33605022 0 1.5604356e-05 0 0)
(-3.4036669 -0.33693582 0 -1.5152178e-05 0 0)
(-3.3915319 -0.33613384 0 1.4728034e-05 0 0)
(-3.4022891 -0.33685297 0 -1.4375568e-05 0 0)
(-3.392894 -0.33621578 0 1.4044477e-05 0 0)
(-3.4009249 -0.33677169 0 -1.3846134e-05 0 0)
(-3.3942214 -0.33629431 0 1.3734815e-05 0 0)
(-3.3995684 -0.33668827 0 -1.2926287e-05 0 0)
(-3.3957027 -0.33636531 0 1.6543143e-05 0 0)
(-3.3990595 -0.33666583 0 -1.4367751e-05 0 0)
(-2.7030229 -1.3230017 0 -0.55335844 0 0)
(-6.9190271 -0.57578544 0 -0.036307021 0 0)
(-4.6205734 -0.4516296 0 -0.01746703 0 0)
(-3.9896226 -0.3611693 0 -0.00046300582 0 0)
(-3.3742151 -0.33747036 0 -0.0010021106 0 0)
(-3.330832 -0.33407854 0 -0.00028288622 0 0)
(-3.2119437 -0.32770729 0 -0.0002360857 0 0)
(-3.2566178 -0.32977199 0 -3.2487926e-05 0 0)
(-3.2038563 -0.32684529 0 -6.9269177e-05 0 0)
(-3.2343285 -0.32853335 0 -1.73785e-05 0 0)
(-3.1992543 -0.32636285 0 4.6392389e-06 0 0)
(-3.2316129 -0.32843337 0 -1.8297164e-05 0 0)
(-3.197179 -0.32621792 0 1.6072634e-05 0 0)
(-3.2317979 -0.32846637 0 -2.0450474e-05 0 0)
(-3.1960504 -0.32614276 0 1.9566342e-05 0 0)
(-3.2320698 -0.32849097 0 -2.1759962e-05 0 0)
(-3.1955461 -0.32610733 0 2.1500275e-05 0 0)
(-3.2320926 -0.32849637 0 -2.2551866e-05 0 0)
(-3.1955192 -0.32610322 0 2.2492496e-05 0 0)
(-3.2318281 -0.32848208 0 -2.2908292e-05 0 0)
(-3.1958597 -0.32612351 0 2.2799173e-05 0 0)
(-3.2312932 -0.32844958 0 -2.2841389e-05 0 0)
(-3.1964851 -0.32616284 0 2.2598041e-05 0 0)
(-3.2305255 -0.32840145 0 -2.2393272e-05 0 0)
(-3.1973329 -0.32621707 0 2.2019312e-05 0 0)
(-3.2295715 -0.32834087 0 -2.1649525e-05 0 0)
(-3.1983479 -0.32628256 0 2.1156553e-05 0 0)
(-3.2284734 -0.3282706 0 -2.0670187e-05 0 0)
(-3.1994873 -0.32635637 0 2.0109794e-05 0 0)
(-3.2272754 -0.32819364 0 -1.9547986e-05 0 0)
(-3.200711 -0.32643585 0 1.8935255e-05 0 0)
(-3.2260093 -0.32811212 0 -1.8341855e-05 0 0)
(-3.2019865 -0.32651874 0 1.7713523e-05 0 0)
(-3.2247057 -0.32802808 0 -1.7110357e-05 0 0)
(-3.203289 -0.32660335 0 1.6493905e-05 0 0)
(-3.2233875 -0.32794311 0 -1.590835e-05 0 0)
(-3.2045982 -0.32668827 0 1.5327403e-05 0 0)
(-3.2220726 -0.32785845 0 -1.4781523e-05 0 0)
(-3.205899 -0.32677242 0 1.4254127e-05 0 0)
(-3.2207731 -0.32777495 0 -1.3765157e-05 0 0)
(-3.2071824 -0.32685516 0 1.3304151e-05 0 0)
(-3.219495 -0.32769314 0 -1.2898043e-05 0 0)
(-3.2084411 -0.3269359 0 1.25159e-05 0 0)
(-3.2182421 -0.32761332 0 -1.2200767e-05 0 0)
(-3.2096763 -0.32701471 0 1.1898678e-05 0 0)
(-3.217008 -0.32753539 0 -1.1737401e-05 0 0)
(-3.2108738 -0.32708998 0 1.163093e-05 0 0)
(-3.2157746 -0.3274544 0 -1.0749716e-05 0 0)
(-3.2121661 -0.32715324 0 1.4908428e-05 0 0)
(-3.2151561 -0.32742612 0 -1.2715118e-05 0 0)
(-2.6855738 -1.2948645 0 -0.52931808 0 0)
(-6.0766021 -0.53995844 0 -0.037170528 0 0)
(-4.3950306 -0.45291805 0 -0.020278863 0 0)
(-3.8527071 -0.35592169 0 -0.0008061125 0 0)
(-3.2303037 -0.33046034 0 -0.0013164528 0 0)
(-3.1555266 -0.32502646 0 -0.00035474528 0 0)
(-3.0302151 -0.31832549 0 -0.00026511596 0 0)
(-3.0747985 -0.3204757 0 -3.7052277e-05 0 0)
(-3.0245962 -0.31756641 0 -8.0661563e-05 0 0)
(-3.0555318 -0.31936706 0 -1.9123136e-05 0 0)
(-3.0206474 -0.3170826 0 2.9170145e-06 0 0)
(-3.0529238 -0.31926147 0 -1.7882907e-05 0 0)
(-3.0188787 -0.31695308 0 1.4898226e-05 0 0)
(-3.0528988 -0.31928081 0 -1.9414487e-05 0 0)
(-3.0180201 -0.31689472 0 1.8044921e-05 0 0)
(-3.0529702 -0.31929168 0 -2.0256552e-05 0 0)
(-3.017731 -0.31687356 0 1.9684049e-05 0 0)
(-3.0528246 -0.31928459 0 -2.0686209e-05 0 0)
(-3.0178642 -0.31688134 0 2.0441004e-05 0 0)
(-3.0524296 -0.31925962 0 -2.0789396e-05 0 0)
(-3.0183177 -0.3169114 0 2.057136e-05 0 0)
(-3.0518031 -0.31921839 0 -2.0558045e-05 0 0)
(-3.0190153 -0.31695856 0 2.0253897e-05 0 0)
(-3.0509806 -0.31916339 0 -2.0015118e-05 0 0)
(-3.0198995 -0.31701877 0 1.9616159e-05 0 0)
(-3.0500051 -0.31909771 0 -1.9234658e-05 0 0)
(-3.0209198 -0.31708858 0 1.8740453e-05 0 0)
(-3.0489143 -0.31902392 0 -1.8262161e-05 0 0)
(-3.0220376 -0.31716517 0 1.772201e-05 0 0)
(-3.0477483 -0.31894486 0 -1.7182587e-05 0 0)
(-3.0232174 -0.31724612 0 1.6602949e-05 0 0)
(-3.0465349 -0.31886248 0 -1.6044484e-05 0 0)
(-3.0244304 -0.31732932 0 1.5458017e-05 0 0)
(-3.0453009 -0.31877863 0 -1.4896509e-05 0 0)
(-3.0256553 -0.31741328 0 1.4327484e-05 0 0)
(-3.0440659 -0.31869474 0 -1.3787016e-05 0 0)
(-3.026875 -0.31749672 0 1.3255439e-05 0 0)
(-3.0428447 -0.31861188 0 -1.2754621e-05 0 0)
(-3.0280773 -0.31757876 0 1.2274943e-05 0 0)
(-3.041647 -0.31853075 0 -1.1827549e-05 0 0)
(-3.0292552 -0.31765889 0 1.1409736e-05 0 0)
(-3.040477 -0.31845176 0 -1.1041757e-05 0 0)
(-3.0304033 -0.31773666 0 1.0694515e-05 0 0)
(-3.0393366 -0.31837506 0 -1.0408965e-05 0 0)
(-3.0315245 -0.31781226 0 1.0130451e-05 0 0)
(-3.0382193 -0.31830053 0 -9.9981545e-06 0 0)
(-3.0326059 -0.31788423 0 9.8876664e-06 0 0)
(-3.0370987 -0.31822235 0 -8.9499049e-06 0 0)
(-3.0337353 -0.31794101 0 1.347302e-05 0 0)
(-3.0364121 -0.31818917 0 -1.123055e-05 0 0)
(-2.6006791 -1.1970632 0 -0.45995459 0 0)
(-5.1824478 -0.50714036 0 -0.037311209 0 0)
(-4.0862001 -0.44459724 0 -0.021544239 0 0)
(-3.6360673 -0.34740061 0 -0.0012390194 0 0)
(-3.0712207 -0.32313228 0 -0.0017046135 0 0)
(-2.9842651 -0.31607716 0 -0.0004389031 0 0)
(-2.8564349 -0.30901888 0 -0.00029166233 0 0)
(-2.8984425 -0.3111715 0 -4.1989835e-05 0 0)
(-2.8505699 -0.30827593 0 -8.9799274e-05 0 0)
(-2.8817113 -0.31019072 0 -2.0682991e-05 0 0)
(-2.8472129 -0.30780675 0 1.4878264e-06 0 0)
(-2.8792351 -0.31008179 0 -1.7462463e-05 0 0)
(-2.8457511 -0.30769458 0 1.3898425e-05 0 0)
(-2.8790358 -0.31008835 0 -1.8479987e-05 0 0)
(-2.845136 -0.30765271 0 1.6720604e-05 0 0)
(-2.8789357 -0.31008637 0 -1.8939085e-05 0 0)
(-2.8450354 -0.30764521 0 1.8102648e-05 0 0)
(-2.8786473 -0.31006764 0 -1.9064827e-05 0 0)
(-2.8453055 -0.30766417 0 1.8661153e-05 0 0)
(-2.8781434 -0.3100328 0 -1.8954794e-05 0 0)
(-2.8458525 -0.30770328 0 1.8645065e-05 0 0)
(-2.8774431 -0.30998358 0 -1.8586663e-05 0 0)
(-2.8466067 -0.30775755 0 1.8232644e-05 0 0)
(-2.8765797 -0.30992242 0 -1.7966917e-05 0 0)
(-2.8475152 -0.30782307 0 1.7548942e-05 0 0)
(-2.8755927 -0.30985228 0 -1.7159153e-05 0 0)
(-2.8485325 -0.30789659 0 1.6666199e-05 0 0)
(-2.8745161 -0.30977554 0 -1.6197101e-05 0 0)
(-2.8496236 -0.30797541 0 1.5676521e-05 0 0)
(-2.8733857 -0.30969489 0 -1.5157661e-05 0 0)
(-2.8507573 -0.30805735 0 1.4608515e-05 0 0)
(-2.8722259 -0.30961209 0 -1.408171e-05 0 0)
(-2.8519084 -0.30814047 0 1.3533032e-05 0 0)
(-2.8710599 -0.30952881 0 -1.300875e-05 0 0)
(-2.8530588 -0.30822343 0 1.2481923e-05 0 0)
(-2.8699042 -0.30944629 0 -1.1981326e-05 0 0)
(-2.854194 -0.30830514 0 1.1493318e-05 0 0)
(-2.868771 -0.30936547 0 -1.1032115e-05 0 0)
(-2.8553043 -0.30838486 0 1.0594551e-05 0 0)
(-2.8676679 -0.3092869 0 -1.0183815e-05 0 0)
(-2.8563849 -0.30846222 0 9.8039988e-06 0 0)
(-2.8665972 -0.30921086 0 -9.4690918e-06 0 0)
(-2.8574318 -0.30853688 0 9.1520717e-06 0 0)
(-2.8655595 -0.30913738 0 -8.892323e-06 0 0)
(-2.8584492 -0.30860918 0 8.6344834e-06 0 0)
(-2.8645483 -0.30906633 0 -8.5261071e-06 0 0)
(-2.8594259 -0.30867781 0 8.4084104e-06 0 0)
(-2.8635319 -0.30899127 0 -7.4336952e-06 0 0)
(-2.8604137 -0.30872909 0 1.2172558e-05 0 0)
(-2.8628082 -0.30895417 0 -9.8934581e-06 0 0)
(-2.5950511 -1.1716388 0 -0.44238267 0 0)
(-4.3329519 -0.4820933 0 -0.040821947 0 0)
(-3.816359 -0.44249469 0 -0.023408204 0 0)
(-3.3825843 -0.34029974 0 -0.0025975885 0 0)
(-2.8848818 -0.31531312 0 -0.002249382 0 0)
(-2.8097502 -0.30706551 0 -0.00054694489 0 0)
(-2.688835 -0.29978039 0 -0.00032370403 0 0)
(-2.7275553 -0.30187938 0 -4.9251754e-05 0 0)
(-2.6818591 -0.29898413 0 -9.7566051e-05 0 0)
(-2.7129709 -0.3010079 0 -2.1971731e-05 0 0)
(-2.6790032 -0.29853787 0 2.3631688e-07 0 0)
(-2.7105858 -0.30089522 0 -1.6963507e-05 0 0)
(-2.6778097 -0.29844337 0 1.2967409e-05 0 0)
(-2.710223 -0.30088922 0 -1.7554206e-05 0 0)
(-2.6774018 -0.29841714 0 1.5479004e-05 0 0)
(-2.7099705 -0.30087502 0 -1.7692423e-05 0 0)
(-2.6774611 -0.29842249 0 1.6630258e-05 0 0)
(-2.7095601 -0.30084544 0 -1.7558284e-05 0 0)
(-2.677846 -0.29845185 0 1.7018163e-05 0 0)
(-2.7089663 -0.30080152 0 -1.7266785e-05 0 0)
(-2.6784686 -0.29849925 0 1.6879517e-05 0 0)
(-2.7082081 -0.30074507 0 -1.6784789e-05 0 0)
(-2.679265 -0.29855989 0 1.6390328e-05 0 0)
(-2.7073163 -0.30067845 0 -1.6104659e-05 0 0)
(-2.680187 -0.29863005 0 1.5673912e-05 0 0)
(-2.7063272 -0.30060449 0 -1.5280492e-05 0 0)
(-2.6811935 -0.29870665 0 1.4792424e-05 0 0)
(-2.705271 -0.3005254 0 -1.4335096e-05 0 0)
(-2.6822532 -0.29878717 0 1.3835555e-05 0 0)
(-2.7041797 -0.30044366 0 -1.3338449e-05 0 0)
(-2.6833388 -0.29886963 0 1.2819764e-05 0 0)
(-2.7030746 -0.30036087 0 -1.2324149e-05 0 0)
(-2.6844282 -0.29895225 0 1.1811781e-05 0 0)
(-2.7019753 -0.30027851 0 -1.1323376e-05 0 0)
(-2.6855064 -0.29903389 0 1.0836667e-05 0 0)
(-2.7008958 -0.30019767 0 -1.037409e-05 0 0)
(-2.6865613 -0.2991136 0 9.927129e-06 0 0)
(-2.6998459 -0.30011912 0 -9.5033485e-06 0 0)
(-2.6875854 -0.2991908 0 9.1049495e-06 0 0)
(-2.698831 -0.30004328 0 -8.7282683e-06 0 0)
(-2.6885754 -0.29926524 0 8.3838155e-06 0 0)
(-2.6978525 -0.29997032 0 -8.0799462e-06 0 0)
(-2.6895291 -0.29933669 0 7.7907592e-06 0 0)
(-2.6969091 -0.29990015 0 -7.5546068e-06 0 0)
(-2.6904514 -0.29940561 0 7.3164276e-06 0 0)
(-2.6959949 -0.29983263 0 -7.2292673e-06 0 0)
(-2.6913331 -0.29947087 0 7.1044313e-06 0 0)
(-2.6950747 -0.29976091 0 -6.1098315e-06 0 0)
(-2.6921965 -0.2995174 0 1.0944835e-05 0 0)
(-2.6943364 -0.2997208 0 -8.6626472e-06 0 0)
(-2.6341504 -1.0940475 0 -0.3799064 0 0)
(-3.5661596 -0.45490467 0 -0.042534263 0 0)
(-3.472854 -0.41956753 0 -0.02123684 0 0)
(-3.1079424 -0.33584561 0 -0.0050634134 0 0)
(-2.6965997 -0.30742231 0 -0.0028660362 0 0)
(-2.6364665 -0.29788273 0 -0.00064832594 0 0)
(-2.5246609 -0.29045153 0 -0.00035183573 0 0)
(-2.5613784 -0.2925617 0 -5.5097526e-05 0 0)
(-2.517918 -0.28967028 0 -0.00010295395 0 0)
(-2.549046 -0.29180885 0 -2.2550232e-05 0 0)
(-2.5158526 -0.2892709 0 -7.4458854e-07 0 0)
(-2.5468912 -0.29169878 0 -1.6296331e-05 0 0)
(-2.5149982 -0.28919783 0 1.2091208e-05 0 0)
(-2.546437 -0.2916826 0 -1.658544e-05 0 0)
(-2.5147988 -0.28918744 0 1.4283971e-05 0 0)
(-2.5460694 -0.29165751 0 -1.6466837e-05 0 0)
(-2.5150025 -0.28920511 0 1.5221219e-05 0 0)
(-2.5455616 -0.29161809 0 -1.611499e-05 0 0)
(-2.5154846 -0.28924416 0 1.5460509e-05 0 0)
(-2.5448968 -0.29156595 0 -1.5671348e-05 0 0)
(-2.5161672 -0.28929909 0 1.5220343e-05 0 0)
(-2.5440955 -0.29150306 0 -1.5097232e-05 0 0)
(-2.516993 -0.28936537 0 1.4671831e-05 0 0)
(-2.5431869 -0.29143172 0 -1.4372874e-05 0 0)
(-2.5179186 -0.28943947 0 1.3935684e-05 0 0)
(-2.5422042 -0.29135459 0 -1.354336e-05 0 0)
(-2.5189074 -0.28951855 0 1.3064481e-05 0 0)
(-2.5411743 -0.29127371 0 -1.2622508e-05 0 0)
(-2.5199314 -0.28960022 0 1.2146165e-05 0 0)
(-2.5401254 -0.29119139 0 -1.1672436e-05 0 0)
(-2.5209669 -0.28968274 0 1.1185215e-05 0 0)
(-2.5390759 -0.29110903 0 -1.0721501e-05 0 0)
(-2.521995 -0.28976449 0 1.0245416e-05 0 0)
(-2.5380423 -0.29102793 0 -9.7927058e-06 0 0)
(-2.523003 -0.2898445 0 9.3451155e-06 0 0)
(-2.5370362 -0.29094904 0 -8.9196441e-06 0 0)
(-2.5239812 -0.28992198 0 8.5121132e-06 0 0)
(-2.5360654 -0.29087296 0 -8.124456e-06 0 0)
(-2.524924 -0.28999647 0 7.7635768e-06 0 0)
(-2.5351335 -0.2908 0 -7.4198373e-06 0 0)
(-2.5258296 -0.29006786 0 7.1090481e-06 0 0)
(-2.5342405 -0.29073023 0 -6.8345116e-06 0 0)
(-2.5266969 -0.29013603 0 6.5715856e-06 0 0)
(-2.5333843 -0.29066343 0 -6.3581336e-06 0 0)
(-2.5275317 -0.2902015 0 6.1390598e-06 0 0)
(-2.532559 -0.29059946 0 -6.0703114e-06 0 0)
(-2.5283266 -0.29026338 0 5.9399419e-06 0 0)
(-2.5317278 -0.29053127 0 -4.9398642e-06 0 0)
(-2.5290805 -0.29030578 0 9.7715018e-06 0 0)
(-2.5309915 -0.29048894 0 -7.5314598e-06 0 0)
(-2.660164 -1.055751 0 -0.35225647 0 0)
(-3.0031466 -0.4299032 0 -0.043335531 0 0)
(-3.1721777 -0.40788174 0 -0.022795145 0 0)
(-2.8477947 -0.33204754 0 -0.007868287 0 0)
(-2.5222589 -0.29998978 0 -0.0034595918 0 0)
(-2.4734421 -0.28897595 0 -0.00074596278 0 0)
(-2.3676712 -0.28123644 0 -0.00038249529 0 0)
(-2.4015682 -0.28328458 0 -5.8688742e-05 0 0)
(-2.3597928 -0.28037305 0 -0.00010598103 0 0)
(-2.3904748 -0.28260865 0 -2.194367e-05 0 0)
(-2.358054 -0.28001434 0 -1.3537103e-06 0 0)
(-2.388317 -0.2824969 0 -1.5404792e-05 0 0)
(-2.3573971 -0.27996037 0 1.1261585e-05 0 0)
(-2.3877288 -0.28246998 0 -1.5564454e-05 0 0)
(-2.3573478 -0.27996423 0 1.3115239e-05 0 0)
(-2.387248 -0.28243442 0 -1.5249562e-05 0 0)
(-2.3576643 -0.27999312 0 1.385548e-05 0 0)
(-2.3866563 -0.2823859 0 -1.4717411e-05 0 0)
(-2.3582228 -0.28004094 0 1.3968237e-05 0 0)
(-2.3859352 -0.28232636 0 -1.414877e-05 0 0)
(-2.3589498 -0.28010257 0 1.3646726e-05 0 0)
(-2.3851039 -0.28225782 0 -1.3502714e-05 0 0)
(-2.359793 -0.28017373 0 1.3055231e-05 0 0)
(-2.3841889 -0.28218246 0 -1.2749495e-05 0 0)
(-2.3607133 -0.2802511 0 1.2312155e-05 0 0)
(-2.3832205 -0.28210281 0 -1.1925724e-05 0 0)
(-2.361678 -0.28033204 0 1.14603e-05 0 0)
(-2.3822219 -0.28202071 0 -1.1036844e-05 0 0)
(-2.3626624 -0.28041435 0 1.0586216e-05 0 0)
(-2.3812184 -0.28193827 0 -1.0138052e-05 0 0)
(-2.3636461 -0.28049649 0 9.6835474e-06 0 0)
(-2.3802253 -0.28185674 0 -9.252464e-06 0 0)
(-2.3646131 -0.28057701 0 8.8126994e-06 0 0)
(-2.3792566 -0.28177722 0 -8.3957044e-06 0 0)
(-2.3655528 -0.28065511 0 7.9867243e-06 0 0)
(-2.3783215 -0.28170052 0 -7.597901e-06 0 0)
(-2.3664576 -0.28073013 0 7.2288247e-06 0 0)
(-2.3774259 -0.2816271 0 -6.8764529e-06 0 0)
(-2.3673236 -0.28080177 0 6.5516046e-06 0 0)
(-2.376572 -0.28155715 0 -6.2394828e-06 0 0)
(-2.3681502 -0.28087 0 5.9610529e-06 0 0)
(-2.3757589 -0.28149065 0 -5.7148972e-06 0 0)
(-2.3689374 -0.28093482 0 5.4769752e-06 0 0)
(-2.3749834 -0.28142726 0 -5.2849975e-06 0 0)
(-2.3696914 -0.28099682 0 5.0847744e-06 0 0)
(-2.37424 -0.28136685 0 -5.0324064e-06 0 0)
(-2.3704069 -0.28105531 0 4.8987684e-06 0 0)
(-2.373491 -0.2813023 0 -3.9052755e-06 0 0)
(-2.3710635 -0.28109408 0 8.6500097e-06 0 0)
(-2.3727688 -0.28125846 0 -6.5004683e-06 0 0)
(-2.7912958 -1.006967 0 -0.30656669 0 0)
(-2.5903832 -0.40736686 0 -0.043897585 0 0)
(-2.8846928 -0.39118591 0 -0.022769517 0 0)
(-2.5790064 -0.3181587 0 -0.0084135215 0 0)
(-2.3373365 -0.28875556 0 -0.0033381646 0 0)
(-2.3053473 -0.27901219 0 -0.00071202745 0 0)
(-2.213774 -0.27182957 0 -0.00037453626 0 0)
(-2.2461099 -0.2739466 0 -5.3441792e-05 0 0)
(-2.2063617 -0.27104863 0 -0.00010436148 0 0)
(-2.2366777 -0.27338806 0 -1.9598742e-05 0 0)
(-2.2052716 -0.27075822 0 -1.3795812e-06 0 0)
(-2.2346841 -0.27328406 0 -1.4187954e-05 0 0)
(-2.2048962 -0.27072771 0 1.0519375e-05 0 0)
(-2.2340448 -0.27324969 0 -1.4457901e-05 0 0)
(-2.2050121 -0.27074631 0 1.1977643e-05 0 0)
(-2.2334922 -0.27320538 0 -1.4022437e-05 0 0)
(-2.2054342 -0.27078599 0 1.2526211e-05 0 0)
(-2.2328411 -0.27314893 0 -1.3350813e-05 0 0)
(-2.2060565 -0.27084187 0 1.2529135e-05 0 0)
(-2.2320809 -0.27308293 0 -1.2684105e-05 0 0)
(-2.2068155 -0.27090943 0 1.214414e-05 0 0)
(-2.2312324 -0.27300955 0 -1.1985864e-05 0 0)
(-2.2076658 -0.27098474 0 1.1525148e-05 0 0)
(-2.2303209 -0.27293091 0 -1.1218529e-05 0 0)
(-2.2085727 -0.27106469 0 1.0786984e-05 0 0)
(-2.2293736 -0.27284937 0 -1.041086e-05 0 0)
(-2.2095078 -0.27114691 0 9.9631244e-06 0 0)
(-2.2284112 -0.27276659 0 -9.5616544e-06 0 0)
(-2.2104493 -0.27122935 0 9.1390199e-06 0 0)
(-2.2274555 -0.2726845 0 -8.7182382e-06 0 0)
(-2.2113799 -0.27131069 0 8.2977796e-06 0 0)
(-2.2265195 -0.27260417 0 -7.9003633e-06 0 0)
(-2.2122861 -0.27138965 0 7.4973514e-06 0 0)
(-2.2256146 -0.27252653 0 -7.1163008e-06 0 0)
(-2.2131593 -0.27146558 0 6.7454811e-06 0 0)
(-2.2247481 -0.27245224 0 -6.3928733e-06 0 0)
(-2.2139939 -0.27153796 0 6.0612218e-06 0 0)
(-2.2239243 -0.27238165 0 -5.7433555e-06 0 0)
(-2.2147871 -0.27160661 0 5.4534882e-06 0 0)
(-2.223144 -0.2723148 0 -5.1723677e-06 0 0)
(-2.2155397 -0.27167161 0 4.9250995e-06 0 0)
(-2.2224055 -0.27225163 0 -4.7060913e-06 0 0)
(-2.2162523 -0.27173304 0 4.4921507e-06 0 0)
(-2.2217048 -0.27219168 0 -4.3211872e-06 0 0)
(-2.2169318 -0.27179156 0 4.139495e-06 0 0)
(-2.2210367 -0.27213481 0 -4.1011649e-06 0 0)
(-2.2175744 -0.27184667 0 3.9671669e-06 0 0)
(-2.2203638 -0.27207397 0 -2.990528e-06 0 0)
(-2.2181447 -0.27188222 0 7.5788794e-06 0 0)
(-2.2196646 -0.27202924 0 -5.5688881e-06 0 0)
(-2.8354257 -0.96211295 0 -0.27645025 0 0)
(-2.3076943 -0.38905767 0 -0.043691439 0 0)
(-2.6569026 -0.37746207 0 -0.02277346 0 0)
(-2.3941631 -0.30855305 0 -0.0087273307 0 0)
(-2.1972247 -0.2795429 0 -0.0032007616 0 0)
(-2.1606086 -0.2697677 0 -0.00066543592 0 0)
(-2.0678588 -0.26245731 0 -0.00035316868 0 0)
(-2.0974786 -0.26464233 0 -3.9044715e-05 0 0)
(-2.0589704 -0.26174209 0 -9.8233335e-05 0 0)
(-2.0883854 -0.26416784 0 -1.4956619e-05 0 0)
(-2.0579085 -0.26151378 0 -6.6554149e-07 0 0)
(-2.0862301 -0.26406669 0 -1.2573124e-05 0 0)
(-2.0576188 -0.26150328 0 9.8802768e-06 0 0)
(-2.0854636 -0.26402401 0 -1.3257386e-05 0 0)
(-2.0578268 -0.26153467 0 1.0862862e-05 0 0)
(-2.0848285 -0.26397128 0 -1.2780354e-05 0 0)
(-2.0583204 -0.26158386 0 1.1222619e-05 0 0)
(-2.0841253 -0.26390763 0 -1.2006851e-05 0 0)
(-2.0589867 -0.26164681 0 1.1132299e-05 0 0)
(-2.0833373 -0.26383599 0 -1.1266934e-05 0 0)
(-2.0597642 -0.26171943 0 1.0700739e-05 0 0)
(-2.082482 -0.26375855 0 -1.0534461e-05 0 0)
(-2.0606116 -0.26179813 0 1.0068466e-05 0 0)
(-2.0815823 -0.26367733 0 -9.7667166e-06 0 0)
(-2.061498 -0.26188001 0 9.346548e-06 0 0)
(-2.0806624 -0.26359451 0 -8.9851034e-06 0 0)
(-2.0623985 -0.26196293 0 8.5589124e-06 0 0)
(-2.0797402 -0.26351158 0 -8.1823583e-06 0 0)
(-2.0632942 -0.26204502 0 7.7900759e-06 0 0)
(-2.0788345 -0.26343027 0 -7.3988732e-06 0 0)
(-2.0641707 -0.26212518 0 7.0136895e-06 0 0)
(-2.077956 -0.26335148 0 -6.6507971e-06 0 0)
(-2.0650166 -0.26220227 0 6.2847593e-06 0 0)
(-2.0771138 -0.26327599 0 -5.9399313e-06 0 0)
(-2.0658253 -0.26227579 0 5.6070283e-06 0 0)
(-2.0763136 -0.26320431 0 -5.2904859e-06 0 0)
(-2.0665926 -0.26234537 0 4.9956e-06 0 0)
(-2.0755582 -0.26313667 0 -4.7117451e-06 0 0)
(-2.067317 -0.26241092 0 4.4557182e-06 0 0)
(-2.0748472 -0.26307302 0 -4.2046497e-06 0 0)
(-2.0680001 -0.26247263 0 3.98759e-06 0 0)
(-2.0741784 -0.2630132 0 -3.7950997e-06 0 0)
(-2.0686435 -0.26253065 0 3.6042191e-06 0 0)
(-2.0735471 -0.2629567 0 -3.4534073e-06 0 0)
(-2.069254 -0.2625857 0 3.2901278e-06 0 0)
(-2.0729485 -0.26290334 0 -3.2642434e-06 0 0)
(-2.0698296 -0.26263745 0 3.1328815e-06 0 0)
(-2.0723458 -0.26284624 0 -2.1818865e-06 0 0)
(-2.0703231 -0.26267013 0 6.55624e-06 0 0)
(-2.0716759 -0.26280116 0 -4.7329737e-06 0 0)
(-2.9098713 -0.91911682 0 -0.24372371 0 0)
(-2.1316307 -0.36866061 0 -0.04140272 0 0)
(-2.4583962 -0.35815499 0 -0.021093564 0 0)
(-2.2304293 -0.29643582 0 -0.008223725 0 0)
(-2.0556445 -0.26885726 0 -0.0028386265 0 0)
(-2.0157333 -0.25999991 0 -0.00057110295 0 0)
(-1.9262889 -0.25299211 0 -0.00030696592 0 0)
(-1.9535275 -0.25529441 0 -1.8868057e-05 0 0)
(-1.9165472 -0.25241897 0 -8.8207242e-05 0 0)
(-1.9450317 -0.25493002 0 -8.3300535e-06 0 0)
(-1.9156437 -0.25227137 0 7.7217397e-07 0 0)
(-1.9427855 -0.25483948 0 -1.0524448e-05 0 0)
(-1.9154573 -0.2522837 0 9.3811559e-06 0 0)
(-1.941934 -0.25479132 0 -1.1933537e-05 0 0)
(-1.9157538 -0.25232795 0 9.7846944e-06 0 0)
(-1.9412435 -0.25473177 0 -1.1508762e-05 0 0)
(-1.9163087 -0.25238607 0 9.9456183e-06 0 0)
(-1.9405071 -0.2546621 0 -1.0676156e-05 0 0)
(-1.9170075 -0.25245533 0 9.7724047e-06 0 0)
(-1.9397051 -0.25458576 0 -9.8884279e-06 0 0)
(-1.9177932 -0.25253226 0 9.3085872e-06 0 0)
(-1.9388537 -0.25450508 0 -9.1394753e-06 0 0)
(-1.9186294 -0.25261362 0 8.6761489e-06 0 0)
(-1.9379736 -0.25442197 0 -8.3842648e-06 0 0)
(-1.919489 -0.25269679 0 7.9806472e-06 0 0)
(-1.9370866 -0.25433847 0 -7.6377881e-06 0 0)
(-1.9203508 -0.25277987 0 7.2368367e-06 0 0)
(-1.936208 -0.2542559 0 -6.8882987e-06 0 0)
(-1.9211986 -0.25286116 0 6.5283048e-06 0 0)
(-1.9353539 -0.25417576 0 -6.1683971e-06 0 0)
(-1.9220203 -0.25293976 0 5.8196639e-06 0 0)
(-1.9345329 -0.25409884 0 -5.4923429e-06 0 0)
(-1.9228066 -0.2530147 0 5.1637055e-06 0 0)
(-1.9337522 -0.25402574 0 -4.8554252e-06 0 0)
(-1.9235528 -0.25308562 0 4.5600987e-06 0 0)
(-1.933016 -0.25395684 0 -4.2793647e-06 0 0)
(-1.9242557 -0.25315225 0 4.0203976e-06 0 0)
(-1.9323255 -0.25389227 0 -3.7700042e-06 0 0)
(-1.9249151 -0.25321462 0 3.5469942e-06 0 0)
(-1.93168 -0.25383187 0 -3.3255941e-06 0 0)
(-1.9255332 -0.25327301 0 3.1377277e-06 0 0)
(-1.9310761 -0.25377542 0 -2.9707749e-06 0 0)
(-1.9261122 -0.25332763 0 2.8021924e-06 0 0)
(-1.9305092 -0.25372234 0 -2.6712869e-06 0 0)
(-1.926659 -0.25337923 0 2.5261056e-06 0 0)