/*--------------------------------*- C++ -*----------------------------------*\
| =========                 |                                                 |
| \\      /  F ield         | OpenFOAM: The Open Source CFD Toolbox           |
|  \\    /   O peration     | Version:  2312                                  |
|   \\  /    A nd           | Website:  www.openfoam.com                      |
|    \\/     M anipulation  |                                                 |
\*---------------------------------------------------------------------------*/
FoamFile
{
    version     2.0;
    format      ascii;
    arch        "LSB;label=32;scalar=64";
    class       volScalarField;
    location    "1";
    object      T;
}
// * * * * * * * * * * * * * * * * * * * * * * * * * * * * * * * * * * * * * //

dimensions      [0 0 0 1 0 0 0];

internalField   nonuniform List<scalar> 
4000
(
310.87595
312.19672
312.44477
312.51915
312.59012
312.64732
312.6938
312.74027
312.7783
312.82047
312.85429
312.89341
312.92463
312.96109
312.99018
313.02428
313.05165
313.08381
313.10994
313.14067
313.16604
313.19582
313.22085
313.25003
313.27502
313.30387
313.329
313.35768
313.38304
313.41163
313.43725
313.46579
313.49166
313.52018
313.54626
313.57475
313.601
313.62948
313.65584
313.68432
313.71075
313.73923
313.7657
313.7942
313.82066
313.8492
313.87561
313.90426
313.93044
313.95983
308.63801
310.78266
311.45976
311.627
311.783
311.89801
311.98095
312.06375
312.12138
312.19135
312.23637
312.29722
312.33452
312.38741
312.41837
312.46423
312.49002
312.53009
312.55212
312.58788
312.60762
312.64047
312.65916
312.69021
312.70874
312.73878
312.75771
312.78721
312.80682
312.83605
312.85643
312.88552
312.90664
312.93564
312.9574
312.98635
313.0086
313.03752
313.06012
313.08903
313.11184
313.14076
313.16368
313.19265
313.21557
313.24466
313.26742
313.29685
313.31891
313.35042
307.25663
309.4229
310.48291
310.74048
310.97942
311.15142
311.27045
311.38908
311.46632
311.56376
311.62014
311.70257
311.74627
311.81564
311.84893
311.90668
311.93141
311.97954
311.99797
312.03887
312.05339
312.08936
312.10201
312.1349
312.1472
312.17834
312.19124
312.22144
312.23542
312.26516
312.28039
312.3099
312.32633
312.35572
312.3732
312.40251
312.42081
312.45009
312.46898
312.49825
312.5175
312.54681
312.56623
312.59563
312.61505
312.64466
312.66382
312.69397
312.71202
312.74527
306.34112
308.16273
309.52835
309.86785
310.18481
310.4115
310.56547
310.71883
310.81543
310.93964
311.00747
311.11111
311.16161
311.24739
311.28365
311.35344
311.37786
311.43426
311.44982
311.49602
311.50594
311.54509
311.55221
311.58691
311.59334
311.62546
311.63258
311.66332
311.67185
311.70191
311.71212
311.74185
311.75371
311.7833
311.7966
311.82612
311.84056
311.87007
311.88533
311.91485
311.93063
311.96023
311.97625
312.00599
312.02202
312.05204
312.06774
312.09851
312.11273
312.14719
305.70725
307.04438
308.6144
309.0203
309.40668
309.6837
309.87036
310.05651
310.17181
310.32159
310.40078
310.52494
310.58261
310.68454
310.7245
310.80638
310.8314
310.89624
310.90988
310.96154
310.9677
311.01009
311.01235
311.04879
311.04988
311.08282
311.08454
311.11559
311.11894
311.14906
311.15445
311.18415
311.19159
311.22113
311.23039
311.2599
311.27061
311.30015
311.31192
311.34154
311.35397
311.38371
311.39649
311.42643
311.43923
311.46953
311.48195
311.51315
311.52385
311.55892
305.25303
306.09142
307.76012
308.21105
308.65408
308.97474
309.19047
309.40651
309.53927
309.71285
309.80302
309.94659
310.01167
310.12921
310.17358
310.26742
310.29405
310.36744
310.38021
310.43748
310.44087
310.48657
310.48478
310.52291
310.51928
310.55287
310.54967
310.58077
310.5793
310.60917
310.61001
310.63936
310.64259
310.67179
310.67717
310.70641
310.71354
310.74289
310.75132
310.78083
310.79009
310.8198
310.8295
310.85948
310.86924
310.89966
310.90901
310.94043
310.94799
310.98303
304.92087
305.31723
306.98286
307.4539
307.93688
308.29211
308.53188
308.77387
308.92218
309.11714
309.21755
309.37897
309.45144
309.58373
309.6331
309.73858
309.76778
309.84971
309.86274
309.92571
309.92741
309.97648
309.97158
310.01135
310.00375
310.03783
310.03026
310.06116
310.05527
310.0846
310.08118
310.10987
310.10911
310.13765
310.13935
310.16801
310.17174
310.20064
310.2059
310.23508
310.24135
310.27083
310.27765
310.30747
310.31443
310.34474
310.35132
310.38268
310.38752
310.42197
304.67311
304.71803
306.29521
306.76164
307.26482
307.64365
307.90104
308.16405
308.32528
308.53856
308.64805
308.82527
308.90485
309.05064
309.10538
309.22191
309.25454
309.34485
309.35923
309.42794
309.42907
309.48157
309.47457
309.51595
309.50519
309.53962
309.52832
309.55879
309.54896
309.57743
309.57011
309.59779
309.5933
309.62085
309.61908
309.64685
309.64737
309.67554
309.67781
309.7064
309.70988
309.73889
309.74306
309.7725
309.77691
309.80689
309.811
309.84199
309.8446
309.87795
304.48475
304.27962
305.70438
306.14445
306.64657
307.03683
307.30442
307.58263
307.75348
307.98141
308.0984
308.28889
308.37495
308.53262
308.59284
308.71953
308.75626
308.85459
308.87133
308.94572
308.94739
309.00333
308.99527
309.03826
309.02523
309.0599
309.04556
309.07539
309.06214
309.08949
309.07865
309.105
309.09707
309.1233
309.11827
309.14484
309.14234
309.16947
309.16895
309.19669
309.19758
309.22588
309.22763
309.25646
309.25858
309.28798
309.28995
309.32026
309.32109
309.35292
304.33837
303.97859
305.21106
305.60861
306.08889
306.47823
306.74799
307.03495
307.21157
307.44997
307.57249
307.77331
307.86488
308.03241
308.09793
308.23358
308.27484
308.38061
308.40057
308.48044
308.48369
308.54307
308.53498
308.57957
308.56519
308.60004
308.5834
308.61244
308.59633
308.62232
308.60837
308.63311
308.62205
308.64663
308.63859
308.66363
308.65831
308.6841
308.68099
308.70758
308.7061
308.73343
308.733
308.76096
308.76108
308.78962
308.78979
308.81911
308.8186
308.8486
304.22135
303.78746
304.81088
305.15573
305.59613
305.97298
306.23685
306.52581
306.70397
306.94831
307.07405
307.28193
307.37771
307.55279
307.6231
307.7662
307.81216
307.92455
307.94836
308.03338
308.03912
308.10186
308.09473
308.14093
308.1261
308.1611
308.14293
308.17108
308.15271
308.17716
308.16055
308.18343
308.16956
308.19222
308.18139
308.20461
308.19666
308.22082
308.21529
308.24047
308.23681
308.26291
308.26053
308.28737
308.28575
308.3132
308.31188
308.33991
308.33844
308.36641
304.12519
303.67787
304.49476
304.78295
305.17001
305.5244
305.77483
306.05913
306.23448
306.48003
306.60649
306.81794
306.91637
307.09641
307.17069
307.31948
307.37
307.48796
307.51603
307.6057
307.61468
307.68062
307.67532
307.72313
307.70873
307.7439
307.72496
307.75218
307.73217
307.75497
307.73616
307.757
307.74066
307.76115
307.74779
307.76891
307.75852
307.78076
307.773
307.79648
307.79084
307.81544
307.81133
307.8368
307.83371
307.8598
307.85732
307.88379
307.88168
307.90749
304.04352
303.62345
304.25109
304.48379
304.80961
305.13372
305.36421
305.63767
305.806
306.04811
306.17267
306.38412
306.48346
306.66572
306.74292
306.89542
306.95005
307.07233
307.10478
307.19844
307.21118
307.28008
307.27738
307.32676
307.31359
307.34899
307.33001
307.35633
307.33529
307.35639
307.33587
307.35455
307.33609
307.35422
307.33859
307.35736
307.34474
307.36479
307.35497
307.37649
307.36903
307.39188
307.38624
307.4101
307.40578
307.43028
307.4269
307.4516
307.4491
307.4727
303.97254
303.60242
304.0669
304.24931
304.51156
304.80007
305.00559
305.2629
305.4204
305.65469
305.77481
305.98276
306.08117
306.26285
306.3417
306.4958
306.55386
306.67902
306.71571
306.81253
306.82935
306.90083
306.90133
306.95222
306.94098
306.97665
306.95835
306.98383
306.96237
306.9818
306.96006
306.97652
306.95631
306.97196
306.9543
306.97054
306.95587
306.9735
306.96178
306.98109
306.97198
306.99283
306.98585
307.00788
307.00253
307.02524
307.02119
307.04396
307.04124
307.06263
303.90926
303.59795
303.92968
304.06926
304.27039
304.52066
304.69791
304.93487
305.07839
305.30097
305.41432
305.6155
305.71116
305.88953
305.96865
306.12216
306.18276
306.30923
306.34976
306.44877
306.46974
306.54335
306.54743
306.59971
306.591
306.627
306.60999
306.63475
306.61346
306.6313
306.60882
306.62308
306.6015
306.61459
306.59519
306.60876
306.59223
306.60725
306.59376
306.61064
306.60002
306.61866
306.61048
306.63047
306.62427
306.64501
306.64047
306.66119
306.65838
306.67759
303.85222
303.59898
303.82794
303.93312
304.07914
304.29103
304.43857
304.6523
304.77952
304.98715
305.09176
305.28324
305.37447
305.54697
305.62493
305.77572
305.83779
305.96394
306.00771
306.10783
306.13279
306.20794
306.21583
306.26929
306.26356
306.29991
306.28475
306.30892
306.28834
306.30474
306.28199
306.29414
306.27156
306.28211
306.26124
306.27205
306.25385
306.26611
306.251
306.26526
306.25324
306.26947
306.26022
306.278
306.27108
306.28971
306.28482
306.30341
306.30059
306.31768
303.80016
303.59874
303.75207
303.83098
303.93014
304.1056
304.22373
304.4127
304.52221
304.71248
304.80679
304.98617
305.07145
305.23583
305.31126
305.45731
305.51971
305.64391
305.69013
305.79021
305.81878
305.89482
305.90652
305.96089
305.95842
305.99515
305.98228
306.00599
305.98661
306.00174
305.97918
305.98937
305.96617
305.97424
305.95219
305.96022
305.94054
305.94994
305.93333
305.94482
305.9315
305.94517
305.93493
305.95034
305.94281
305.95922
305.95406
305.9705
305.96769
305.98275
303.75256
303.59429
303.6943
303.75415
303.8156
303.95812
304.04863
304.21259
304.30394
304.47529
304.55828
304.72367
304.80182
304.95615
305.02782
305.16731
305.2289
305.34957
305.39735
305.49621
305.52785
305.60402
305.61936
305.67432
305.67525
305.71229
305.70204
305.72544
305.70768
305.72173
305.6998
305.70821
305.68477
305.69048
305.66754
305.67283
305.65188
305.65836
305.64038
305.649
305.63445
305.64542
305.63426
305.6472
305.6391
305.65323
305.64785
305.66214
305.65933
305.67243
303.70885
303.58483
303.64884
303.69545
303.7282
303.84221
303.90801
304.04779
304.12141
304.27314
304.34432
304.49448
304.56463
304.70744
304.77428
304.90568
304.96535
305.08107
305.12944
305.22593
305.25996
305.33548
305.35413
305.40926
305.41356
305.45083
305.44341
305.4666
305.4508
305.46399
305.44307
305.44993
305.42661
305.43015
305.40661
305.40925
305.38723
305.39079
305.37157
305.37725
305.36154
305.36972
305.35768
305.36806
305.35942
305.37122
305.36563
305.37779
305.37497
305.38619
303.66877
303.57104
303.61152
303.6493
303.66146
303.75173
303.79644
303.91374
303.97081
304.10301
304.16242
304.29669
304.35834
304.4886
304.5498
304.67188
304.72867
304.8382
304.88621
304.97922
305.01488
305.08896
305.11044
305.16528
305.17279
305.21015
305.20563
305.2287
305.21511
305.22765
305.20808
305.21363
305.19078
305.19237
305.16853
305.16866
305.14578
305.14649
305.12614
305.12886
305.11205
305.11738
305.10448
305.11225
305.10307
305.11252
305.10669
305.11677
305.11391
305.12332
303.63199
303.55412
303.57961
303.61163
303.60994
303.68115
303.70868
303.80579
303.84804
303.9615
304.00963
304.12793
304.18093
304.29809
304.35309
304.46498
304.51808
304.62039
304.66715
304.75572
304.7922
304.86405
304.8878
304.94187
304.9523
304.98954
304.98791
305.01088
304.99967
305.01174
304.99379
304.99831
304.97624
304.97613
304.95227
304.95009
304.92656
304.92453
304.90318
304.90296
304.8851
304.88757
304.8738
304.87894
304.8692
304.87631
304.87021
304.87825
304.87531
304.88298
303.59828
303.53536
303.55134
303.5796
303.56935
303.62569
303.63992
303.71946
303.74897
303.84498
303.88272
303.98548
304.03002
304.13395
304.18246
304.28366
304.33244
304.42678
304.4715
304.55479
304.59132
304.66022
304.68559
304.73838
304.75135
304.78823
304.78934
304.81222
304.80345
304.81522
304.7991
304.80283
304.78183
304.7803
304.7567
304.75245
304.72848
304.72385
304.70162
304.69855
304.67969
304.67932
304.66466
304.66718
304.65683
304.66165
304.65521
304.66127
304.65821
304.66421
303.56735
303.51584
303.52572
303.55137
303.53645
303.58148
303.58596
303.6506
303.66963
303.74986
303.77835
303.86642
303.90297
303.99393
304.03593
304.12626
304.17031
304.25619
304.2982
304.37557
304.41141
304.47672
304.50307
304.5541
304.56914
304.60538
304.60902
304.63174
304.6254
304.637
304.62285
304.62604
304.60633
304.60367
304.58058
304.57452
304.55033
304.54331
304.52033
304.51452
304.49468
304.49154
304.47599
304.47593
304.46491
304.46747
304.46064
304.46478
304.46156
304.46593
303.53896
303.49634
303.50218
303.52581
303.5089
303.54546
303.54325
303.59558
303.60635
303.67268
303.69324
303.76777
303.79702
303.87561
303.91129
303.99088
304.03
304.1072
304.14601
304.217
304.2515
304.31268
304.33938
304.38818
304.40479
304.44012
304.44598
304.46845
304.46444
304.47595
304.46385
304.46671
304.4485
304.44499
304.42265
304.41505
304.39084
304.38165
304.35805
304.34965
304.3289
304.32307
304.3066
304.30403
304.2923
304.29265
304.28538
304.28766
304.28423
304.28703
303.51287
303.4774
303.48042
303.50228
303.48513
303.51537
303.50897
303.55131
303.5559
303.61026
303.62427
303.68662
303.7094
303.77648
303.80622
303.87549
303.90965
303.97819
304.01346
304.07781
304.11043
304.16709
304.19354
304.2397
304.25738
304.29149
304.29923
304.32132
304.31949
304.33094
304.32091
304.32362
304.30704
304.30295
304.28156
304.27273
304.24869
304.23757
304.21349
304.20269
304.18108
304.17268
304.15529
304.15027
304.13778
304.13601
304.12822
304.12871
304.12503
304.12633
303.48887
303.45929
303.46028
303.48044
303.46409
303.48958
303.4809
303.51528
303.51551
303.55978
303.56859
303.62022
303.63745
303.69404
303.71836
303.77793
303.80728
303.86742
303.89897
303.95661
303.98693
304.03879
304.06447
304.10767
304.12591
304.15853
304.16776
304.18933
304.18945
304.20085
304.19284
304.19555
304.1807
304.17626
304.156
304.14621
304.12253
304.10976
304.08532
304.07233
304.04991
304.03909
304.02077
304.01343
304.00013
303.9963
303.98796
303.98672
303.98277
303.98259
303.46675
303.44215
303.44166
303.46012
303.44515
303.46697
303.45741
303.48551
303.4829
303.51882
303.52367
303.56606
303.57867
303.62591
303.64543
303.69607
303.72091
303.77304
303.80085
303.85188
303.87962
303.92655
303.95102
303.991
304.00934
304.04022
304.05055
304.07143
304.07326
304.08458
304.07849
304.08131
304.06821
304.06366
304.04466
304.03418
304.01102
303.99686
303.9722
303.95724
303.93409
303.92102
303.90178
303.89221
303.87809
303.87229
303.86335
303.86045
303.8562
303.8546
303.44635
303.42604
303.42447
303.44123
303.42789
303.4468
303.4373
303.46047
303.45622
303.48534
303.48735
303.5219
303.53081
303.56986
303.58524
303.62783
303.64853
303.69324
303.71739
303.76206
303.78706
303.82905
303.85197
303.88857
303.9066
303.93553
303.94657
303.96662
303.96987
303.98105
303.97673
303.97972
303.96839
303.9639
303.94625
303.93534
303.91284
303.89755
303.8728
303.8561
303.83229
303.81714
303.79701
303.78536
303.77038
303.76272
303.75315
303.74866
303.74409
303.74113
303.4275
303.41093
303.40865
303.42372
303.41208
303.4286
303.41976
303.43905
303.43407
303.45771
303.4578
303.48584
303.49187
303.52389
303.53579
303.57126
303.58827
303.6262
303.6469
303.68557
303.70779
303.74493
303.76607
303.79921
303.81658
303.8434
303.85481
303.87386
303.87824
303.88921
303.8865
303.88969
303.88006
303.87578
303.85954
303.84842
303.8267
303.81054
303.78581
303.7676
303.74322
303.72619
303.70519
303.6916
303.67578
303.66634
303.65614
303.65014
303.64523
303.64097
303.41008
303.3968
303.39409
303.40757
303.39758
303.41208
303.40422
303.42045
303.41538
303.43465
303.43356
303.45625
303.46014
303.48622
303.49527
303.52455
303.53836
303.57021
303.58773
303.62086
303.64034
303.67285
303.69205
303.72174
303.73818
303.76278
303.77425
303.79216
303.7974
303.80807
303.80675
303.81015
303.80215
303.79817
303.78336
303.77223
303.75136
303.73457
303.70997
303.69048
303.66561
303.64689
303.62508
303.6097
303.59304
303.58196
303.57112
303.56369
303.55845
303.55293
303.39397
303.38362
303.38074
303.39271
303.3843
303.39705
303.39032
303.40409
303.39935
303.41516
303.41347
303.43182
303.43419
303.45532
303.46211
303.48609
303.49717
303.52367
303.53833
303.56643
303.5833
303.61148
303.62868
303.655
303.6703
303.69264
303.70387
303.72056
303.72637
303.73665
303.73653
303.74011
303.73361
303.73002
303.71662
303.70562
303.68567
303.66845
303.64406
303.62352
303.59825
303.57803
303.55547
303.53846
303.521
303.50839
303.49692
303.48815
303.48258
303.47589
303.37909
303.37134
303.3685
303.37912
303.37217
303.38338
303.37781
303.3896
303.38543
303.3985
303.39661
303.41149
303.41283
303.4299
303.43494
303.45445
303.46326
303.48514
303.49729
303.5209
303.53535
303.55951
303.57473
303.59783
303.61186
303.63194
303.64272
303.6581
303.66425
303.67405
303.6749
303.67863
303.67349
303.67032
303.65828
303.64754
303.62853
303.61105
303.58696
303.56556
303.53997
303.51846
303.49521
303.47674
303.45852
303.4445
303.43244
303.42243
303.41653
303.40874
303.36536
303.35997
303.35734
303.36677
303.36115
303.37102
303.36654
303.37669
303.37322
303.38411
303.38231
303.39442
303.39513
303.4089
303.41263
303.42843
303.43539
303.45331
303.4633
303.48297
303.49522
303.51576
303.52906
303.54914
303.56183
303.57969
303.58986
303.60387
303.61014
303.61939
303.62101
303.62483
303.6209
303.61815
303.60739
303.59699
303.57892
303.56134
303.53759
303.51552
303.48969
303.46706
303.44321
303.42344
303.40453
303.38924
303.37661
303.36547
303.35926
303.35046
303.35274
303.3495
303.34723
303.35561
303.3512
303.35988
303.35641
303.36519
303.36245
303.3716
303.37006
303.37996
303.38033
303.39145
303.39423
303.40698
303.41246
303.42706
303.43521
303.45148
303.46177
303.47908
303.49059
303.50788
303.51921
303.53494
303.54437
303.55702
303.56322
303.57185
303.57405
303.57789
303.57502
303.57266
303.56308
303.55306
303.5359
303.51833
303.49496
303.47238
303.44638
303.42282
303.39844
303.37754
303.35801
303.34159
303.32845
303.31628
303.3098
303.30008
303.34122
303.33996
303.33814
303.34563
303.34229
303.34994
303.34735
303.35497
303.35292
303.36067
303.35947
303.36763
303.36785
303.37686
303.37897
303.38924
303.39358
303.40541
303.41204
303.4254
303.43399
303.44845
303.45832
303.47307
303.48308
303.49681
303.50542
303.51672
303.52271
303.53068
303.53328
303.53708
303.53508
303.53308
303.52455
303.51492
303.49862
303.48113
303.45816
303.4352
303.40911
303.38478
303.35997
303.33809
303.31802
303.30062
303.28703
303.27396
303.26722
303.25669
303.33083
303.33139
303.33008
303.33681
303.33441
303.34114
303.33931
303.34594
303.34451
303.3511
303.35027
303.35704
303.35726
303.36458
303.36625
303.37452
303.37797
303.38754
303.39292
303.40383
303.41096
303.42295
303.43135
303.44384
303.45258
303.46446
303.47222
303.4822
303.48787
303.49515
303.49799
303.50168
303.50038
303.49868
303.49107
303.48181
303.46629
303.44894
303.42636
303.40314
303.37701
303.35206
303.32691
303.30422
303.2837
303.26547
303.25149
303.23765
303.2307
303.21946
303.3217
303.32386
303.32308
303.32913
303.32752
303.33344
303.33224
303.338
303.33711
303.34274
303.34227
303.34793
303.34821
303.35419
303.35557
303.36225
303.36503
303.37275
303.37713
303.386
303.39189
303.40178
303.40887
303.41937
303.42694
303.43711
303.44402
303.45276
303.45802
303.46459
303.46753
303.47106
303.47031
303.46882
303.46198
303.45305
303.43821
303.42101
303.39881
303.37542
303.3493
303.32388
303.29847
303.27514
303.25426
303.23535
303.22106
303.20658
303.19946
303.18763
303.31402
303.31745
303.31714
303.32256
303.3216
303.32678
303.32609
303.33108
303.33063
303.33545
303.33531
303.34006
303.34045
303.34537
303.34657
303.35197
303.35426
303.36048
303.36407
303.37125
303.37611
303.38422
303.39017
303.39893
303.40544
303.41408
303.42016
303.42773
303.43253
303.4384
303.44133
303.44462
303.44427
303.44291
303.43668
303.42801
303.41375
303.39669
303.37484
303.35134
303.32528
303.29951
303.27393
303.25011
303.22898
303.20954
303.19503
303.18005
303.17279
303.1605
303.308
303.31222
303.31225
303.31707
303.3166
303.32111
303.32081
303.32512
303.32502
303.32915
303.32928
303.33327
303.33378
303.33785
303.33894
303.34333
303.34525
303.35027
303.35323
303.35904
303.36305
303.36967
303.37465
303.38191
303.38746
303.39474
303.40003
303.40652
303.41083
303.416
303.41883
303.42184
303.42173
303.42042
303.41463
303.40614
303.39234
303.37539
303.35384
303.33029
303.30432
303.27832
303.25267
303.22851
303.20723
303.18742
303.17276
303.15742
303.15008
303.13745
303.30371
303.30816
303.30839
303.31258
303.31246
303.31635
303.31634
303.32004
303.3202
303.32372
303.32406
303.32744
303.32805
303.33142
303.33245
303.33603
303.33768
303.34174
303.3442
303.3489
303.35222
303.3576
303.36175
303.36774
303.37244
303.37853
303.38308
303.38858
303.3924
303.3969
303.39953
303.40222
303.40221
303.40084
303.39535
303.38694
303.37346
303.35659
303.33529
303.31172
303.28587
303.25975
303.23412
303.20977
303.18844
303.16841
303.15369
303.13813
303.13076
303.11792
303.30106
303.30519
303.30546
303.30902
303.30912
303.31243
303.31262
303.31576
303.3161
303.31909
303.31959
303.32244
303.32313
303.32594
303.32692
303.32986
303.33131
303.3346
303.33667
303.34046
303.34322
303.34758
303.35104
303.35595
303.35991
303.36496
303.36883
303.37344
303.37677
303.38061
303.383
303.3853
303.38528
303.38375
303.37839
303.36995
303.35668
303.33983
303.31872
303.29516
303.26945
303.24332
303.21778
303.19339
303.17212
303.15202
303.13733
303.12169
303.11433
303.10141
303.29971
303.30316
303.30334
303.30628
303.30649
303.30925
303.30956
303.3122
303.31266
303.31518
303.31578
303.31817
303.31892
303.32126
303.32221
303.32463
303.32592
303.32859
303.33036
303.33341
303.33572
303.33924
303.34213
303.34614
303.34946
303.3536
303.35686
303.36067
303.36351
303.36673
303.36881
303.37069
303.37053
303.36874
303.36337
303.35479
303.34159
303.3247
303.30372
303.28019
303.25466
303.2286
303.20326
303.17895
303.15784
303.13782
303.12325
303.10768
303.10038
303.0875
303.29922
303.30184
303.30188
303.30421
303.30446
303.30672
303.30709
303.30927
303.3098
303.3119
303.31256
303.31456
303.31534
303.31728
303.3182
303.32018
303.32135
303.32352
303.32505
303.32751
303.32945
303.33229
303.3347
303.33795
303.34071
303.34408
303.34679
303.34988
303.35224
303.35487
303.3566
303.35801
303.35759
303.35545
303.34991
303.34109
303.32784
303.31084
303.28995
303.26647
303.24115
303.21525
303.19018
303.16609
303.14526
303.12545
303.1111
303.09571
303.08852
303.07581
303.29917
303.30103
303.30092
303.30271
303.30294
303.30474
303.30512
303.3069
303.30745
303.30918
303.30987
303.31152
303.3123
303.31391
303.31479
303.31641
303.31747
303.31924
303.32056
303.32255
303.32419
303.32647
303.32848
303.33109
303.33338
303.33608
303.33829
303.34073
303.34264
303.3447
303.34602
303.34693
303.34615
303.34355
303.33772
303.32854
303.31513
303.29797
303.27712
303.2537
303.22862
303.20298
303.17827
303.15453
303.13407
303.11462
303.10055
303.08547
303.07844
303.06601
303.29925
303.30052
303.30032
303.30163
303.30182
303.30321
303.30359
303.305
303.30555
303.30694
303.30762
303.30897
303.30974
303.31105
303.31189
303.31321
303.31418
303.31561
303.31677
303.31836
303.31975
303.32157
303.32325
303.32533
303.32721
303.32932
303.33108
303.33294
303.3344
303.3359
303.33678
303.33713
303.33589
303.33274
303.32649
303.31686
303.30318
303.28581
303.26497
303.24164
303.21685
303.19154
303.16729
303.14401
303.12403
303.10505
303.09137
303.07672
303.06989
303.05784
303.29933
303.3002
303.29995
303.30086
303.30101
303.30205
303.3024
303.3035
303.30402
303.30512
303.30577
303.30686
303.30759
303.30865
303.30943
303.3105
303.31137
303.31252
303.31354
303.3148
303.31598
303.31743
303.31882
303.32045
303.32197
303.32357
303.32491
303.32624
303.32727
303.3282
303.3286
303.32834
303.32655
303.32276
303.31597
303.30581
303.29179
303.27417
303.25332
303.23011
303.20564
303.18077
303.15705
303.13436
303.11496
303.09657
303.08334
303.06922
303.06263
303.05106
303.29935
303.29996
303.29972
303.30032
303.30044
303.30118
303.30149
303.30231
303.3028
303.30364
303.30426
303.3051
303.30578
303.30662
303.30734
303.30818
303.30897
303.30988
303.31077
303.31176
303.31277
303.31389
303.31504
303.31628
303.31747
303.31862
303.31957
303.3204
303.32099
303.32137
303.32124
303.32031
303.31789
303.31337
303.30595
303.29519
303.28076
303.26287
303.242
303.21895
303.19487
303.17052
303.14743
303.12544
303.10669
303.08901
303.0763
303.0628
303.0565
303.04548
303.29932
303.29978
303.29957
303.29993
303.30003
303.30052
303.3008
303.30138
303.30183
303.30245
303.30301
303.30365
303.30427
303.30491
303.30557
303.30621
303.30691
303.30761
303.30839
303.30915
303.31
303.31084
303.31177
303.31267
303.31356
303.31429
303.31488
303.31523
303.31536
303.31517
303.31446
303.31281
303.30967
303.30436
303.29623
303.28481
303.26993
303.25177
303.23091
303.20808
303.18445
303.16071
303.13834
303.11714
303.09915
303.08226
303.07013
303.05733
303.05134
303.04095
303.29925
303.29961
303.29945
303.29963
303.29973
303.30002
303.30027
303.30065
303.30106
303.30148
303.302
303.30244
303.30301
303.30346
303.30404
303.30451
303.30513
303.30564
303.30631
303.30687
303.30757
303.30817
303.30891
303.3095
303.3101
303.31044
303.31066
303.31053
303.3102
303.3094
303.30806
303.30565
303.30172
303.29555
303.28665
303.27455
303.2592
303.24079
303.21996
303.19742
303.17432
303.15128
303.12972
303.10941
303.09224
303.07622
303.06474
303.0527
303.04705
303.03734
303.29915
303.29945
303.29935
303.2994
303.29949
303.29963
303.29986
303.30008
303.30044
303.3007
303.30115
303.30143
303.30193
303.30221
303.30273
303.30303
303.30357
303.30391
303.30448
303.30485
303.30542
303.3058
303.30634
303.30664
303.30696
303.30692
303.30677
303.30616
303.30533
303.3039
303.30187
303.29864
303.29386
303.2868
303.27709
303.26429
303.24849
303.22987
303.20913
303.18696
303.16446
303.14222
303.12154
303.10221
303.08593
303.07086
303.06006
303.04884
303.04355
303.03455
303.29903
303.29929
303.29924
303.29919
303.2993
303.29931
303.29954
303.29961
303.29994
303.30004
303.30044
303.30057
303.30099
303.30113
303.30156
303.30171
303.30217
303.30236
303.30283
303.30303
303.30347
303.30364
303.30399
303.304
303.30404
303.30362
303.30307
303.30196
303.3006
303.2985
303.29574
303.29163
303.28596
303.27797
303.26744
303.25397
303.23774
303.21898
303.19841
303.17669
303.15488
303.13353
303.11382
303.09554
303.08021
303.06613
303.05605
303.04568
303.04077
303.03251
303.29889
303.29913
303.29912
303.29899
303.29913
303.29904
303.29926
303.29922
303.29951
303.29948
303.29982
303.29981
303.30016
303.30015
303.30051
303.30052
303.30089
303.30093
303.3013
303.30135
303.30166
303.30162
303.30177
303.30149
303.30123
303.30041
303.29944
303.29781
303.29587
303.29307
303.28951
303.28451
303.27791
303.26899
303.25765
303.24355
303.22696
303.20813
303.18782
303.16665
303.14563
303.12525
303.10658
303.08942
303.07508
303.06203
303.05269
303.04319
303.03867
303.03115
303.29874
303.29897
303.29898
303.29881
303.29896
303.2988
303.29901
303.29887
303.29912
303.29898
303.29925
303.29911
303.29939
303.29925
303.29952
303.2994
303.29968
303.29959
303.29986
303.29975
303.29992
303.29968
303.2996
303.29902
303.29843
303.2972
303.29578
303.29359
303.29102
303.28747
303.28309
303.27716
303.26962
303.2598
303.24769
303.23302
303.21616
303.19737
303.17742
303.1569
303.13675
303.11743
303.09986
303.08386
303.07055
303.05856
303.04998
303.04134
303.03722
303.03045
303.29857
303.29881
303.29883
303.29862
303.29879
303.29858
303.29877
303.29854
303.29875
303.2985
303.29871
303.29844
303.29864
303.29837
303.29856
303.29832
303.29851
303.29829
303.29845
303.29818
303.2982
303.29774
303.29743
303.29653
303.29558
303.2939
303.29198
303.2892
303.28596
303.28163
303.27639
303.26953
303.26105
303.25037
303.23756
303.22243
303.20539
303.18676
303.16728
303.14752
303.12833
303.11014
303.09372
303.07891
303.06666
303.05572
303.0479
303.04013
303.0364
303.03035
303.29838
303.29864
303.29866
303.29842
303.29861
303.29835
303.29852
303.29821
303.29837
303.29801
303.29814
303.29776
303.29787
303.29748
303.29758
303.29722
303.29732
303.29698
303.29703
303.2966
303.29645
303.29575
303.29517
303.29392
303.29258
303.29042
303.28796
303.28455
303.2806
303.27546
303.26934
303.26156
303.2522
303.24072
303.2273
303.21182
303.19473
303.17639
303.15749
303.1386
303.12045
303.10345
303.08822
303.07463
303.06343
303.05355
303.04648
303.03955
303.0362
303.03086
303.29817
303.29847
303.29847
303.29822
303.29842
303.2981
303.29824
303.29785
303.29794
303.29748
303.29753
303.29703
303.29705
303.29654
303.29655
303.29608
303.29609
303.29562
303.29555
303.29495
303.29461
303.29366
303.29278
303.29115
303.28937
303.2867
303.28366
303.27958
303.27488
303.26892
303.26192
303.25326
303.24306
303.23089
303.21697
303.20128
303.18428
303.16637
303.14816
303.13024
303.11321
303.09743
303.08342
303.07105
303.0609
303.05205
303.04571
303.03959
303.03661
303.03194
303.29794
303.2983
303.29827
303.29801
303.2982
303.29783
303.29792
303.29744
303.29746
303.29688
303.29684
303.29622
303.29614
303.29552
303.29544
303.29486
303.29477
303.29418
303.29397
303.2932
303.29264
303.29141
303.29019
303.28815
303.28589
303.28266
303.279
303.27423
303.26877
303.26199
303.25413
303.24465
303.2337
303.22096
303.20667
303.19093
303.17416
303.15681
303.13942
303.12256
303.10668
303.09218
303.07938
303.06822
303.0591
303.05125
303.04562
303.04027
303.03764
303.0336
303.2977
303.29813
303.29806
303.29778
303.29794
303.29751
303.29753
303.29695
303.29687
303.29617
303.29603
303.29529
303.29511
303.29439
303.29421
303.29353
303.29334
303.29262
303.29226
303.29129
303.29049
303.28894
303.28735
303.28486
303.28208
303.27828
303.27396
303.26848
303.26224
303.25467
303.24601
303.23579
303.2242
303.21102
303.19653
303.18089
303.1645
303.14785
303.13137
303.11564
303.10098
303.08776
303.07617
303.0662
303.05807
303.05117
303.04622
303.04158
303.03929
303.03582
303.29743
303.29796
303.29782
303.29754
303.29765
303.29713
303.29705
303.29636
303.29616
303.29533
303.29508
303.29421
303.29393
303.29311
303.29284
303.29206
303.29176
303.29091
303.29038
303.28919
303.28811
303.28622
303.28421
303.28125
303.27792
303.27351
303.26851
303.26233
303.25533
303.24701
303.23761
303.22677
303.21466
303.20121
303.18667
303.1713
303.15544
303.13961
303.12414
303.1096
303.09617
303.08423
303.07384