/*--------------------------------*- C++ -*----------------------------------*\
| =========                 |                                                 |
| \\      /  F ield         | OpenFOAM: The Open Source CFD Toolbox           |
|  \\    /   O peration     | Version:  2312                                  |
|   \\  /    A nd           | Website:  www.openfoam.com                      |
|    \\/     M anipulation  |                                                 |
\*---------------------------------------------------------------------------*/
FoamFile
{
    version     2.0;
    format      ascii;
    arch        "LSB;label=32;scalar=64";
    class       volScalarField;
    location    "5";
    object      T;
}
// * * * * * * * * * * * * * * * * * * * * * * * * * * * * * * * * * * * * * //

dimensions      [0 0 0 1 0 0 0];

internalField   nonuniform List<scalar> 
4000
(
318.76961
317.8406
317.65687
317.60477
317.54466
317.50372
317.46417
317.42924
317.3954
317.36413
317.33285
317.30344
317.27373
317.24541
317.21681
317.18918
317.16141
317.13425
317.10711
317.0803
317.05365
317.0271
317.00085
316.97448
316.94858
316.92235
316.89673
316.87061
316.84523
316.81919
316.79403
316.76804
316.74309
316.71713
316.69236
316.66642
316.64182
316.61588
316.59144
316.56549
316.54122
316.51522
316.49113
316.46506
316.44117
316.41498
316.39135
316.36493
316.34176
316.31444
320.34457
318.84622
318.35172
318.24378
318.11283
318.03892
317.9693
317.91343
317.86092
317.81602
317.77114
317.73185
317.69171
317.65565
317.61883
317.58487
317.5505
317.51798
317.48549
317.454
317.42301
317.39228
317.3625
317.33233
317.30355
317.27381
317.24589
317.21647
317.18929
317.1601
317.13358
317.10455
317.07863
317.04971
317.02432
316.99546
316.97059
316.94172
316.91735
316.88843
316.86456
316.83551
316.81218
316.78291
316.76019
316.73056
316.70861
316.67829
316.65771
316.62482
321.31736
319.81353
319.04073
318.87832
318.67839
318.5719
318.47266
318.39596
318.32501
318.26651
318.20821
318.15902
318.10856
318.06477
318.01981
317.9795
317.93861
317.9007
317.86294
317.82674
317.79146
317.75653
317.72325
317.68927
317.65767
317.62439
317.59421
317.56146
317.53251
317.50016
317.4723
317.44022
317.41335
317.38145
317.35548
317.32367
317.29856
317.26675
317.24246
317.21056
317.18711
317.15501
317.13244
317.09998
317.07842
317.04535
317.02508
316.99088
316.97286
316.93469
321.96033
320.70807
319.71382
319.50223
319.23748
319.0997
318.97194
318.87484
318.786
318.71407
318.64269
318.58368
318.52315
318.47164
318.41873
318.37208
318.32482
318.28151
318.23859
318.19769
318.15821
318.11907
318.08238
318.04456
318.0102
317.97338
317.94099
317.90491
317.87424
317.83871
317.80956
317.77442
317.74664
317.71175
317.68523
317.65047
317.62513
317.59038
317.5662
317.53132
317.5083
317.47314
317.45136
317.4157
317.39531
317.35882
317.34023
317.30216
317.28664
317.24361
322.40614
321.50291
320.35805
320.10725
319.7848
319.61832
319.46401
319.34743
319.24167
319.15668
319.07282
319.00418
318.934
318.87488
318.81434
318.76139
318.70801
318.65933
318.61145
318.56584
318.52233
318.47898
318.43901
318.39736
318.36035
318.31997
318.28548
318.24606
318.21375
318.17504
318.14466
318.10645
318.07782
318.03994
318.01291
317.9752
317.94968
317.91198
317.88794
317.85008
317.82753
317.78931
317.76833
317.72949
317.71029
317.67039
317.65346
317.61161
317.59844
317.55104
322.72443
322.17808
320.95974
320.68379
320.31402
320.12291
319.94504
319.81052
319.68928
319.59192
319.49648
319.41858
319.33938
319.27286
319.20514
319.14603
319.08687
319.03291
318.98034
318.93008
318.88276
318.83524
318.79217
318.74671
318.7072
318.66329
318.62681
318.58407
318.55022
318.50835
318.47683
318.43557
318.40615
318.36529
318.33782
318.29717
318.27153
318.23089
318.20704
318.16622
318.14416
318.10291
318.08274
318.04075
318.02273
317.97949
317.96417
317.91866
317.90766
317.8564
322.95692
322.72627
321.50691
321.22186
320.81827
320.60809
320.41069
320.26048
320.12574
320.01706
319.91126
319.82468
319.73729
319.66374
319.58945
319.52442
319.45995
319.40085
319.34397
319.28917
319.23832
319.18672
319.14079
319.09158
319.04977
319.00238
318.96408
318.91805
318.8828
318.83779
318.80525
318.76097
318.73086
318.68706
318.65922
318.61566
318.58995
318.54642
318.52279
318.47905
318.45751
318.41328
318.39395
318.34887
318.33201
318.28552
318.27174
318.22274
318.21366
318.15907
323.12986
323.14915
321.99042
321.7123
321.29083
321.06827
320.85638
320.69344
320.5477
320.42914
320.31451
320.2201
320.12557
320.04552
319.96544
319.89484
319.82564
319.76167
319.70092
319.64177
319.58776
319.53221
319.48371
319.43087
319.38699
319.33621
319.29628
319.24705
319.21056
319.16249
319.12905
319.08181
319.05114
319.00444
318.97632
318.92992
318.90421
318.85785
318.83449
318.7879
318.76691
318.71978
318.70127
318.6532
318.63747
318.58786
318.57553
318.52327
318.51583
318.4584
323.26098
323.45758
322.40561
322.14799
321.7257
321.49811
321.27753
321.10547
320.95169
320.8251
320.70349
320.60235
320.50196
320.41611
320.33116
320.25549
320.18226
320.11377
320.0497
319.98647
319.92973
319.87043
319.81972
319.76341
319.71776
319.66371
319.62239
319.57007
319.53254
319.48151
319.44734
319.39723
319.36611
319.31662
319.28833
319.23916
319.21354
319.16442
319.1414
319.09204
319.07164
319.0217
319.00404
318.9531
318.93846
318.8859
318.8749
318.81965
318.81357
318.75373
323.36267
323.66786
322.75169
322.52482
322.11819
321.89294
321.66995
321.49283
321.33433
321.2019
321.07544
320.96891
320.86413
320.77339
320.68465
320.60452
320.52808
320.45554
320.38877
320.32181
320.26285
320.20009
320.14757
320.08801
320.04091
319.98379
319.94136
319.88611
319.84775
319.7939
319.75918
319.70634
319.67492
319.62275
319.5944
319.54259
319.51714
319.46539
319.44277
319.39077
319.37098
319.31838
319.30155
319.2479
319.2343
319.179
319.16919
319.11127
319.10626
319.04442
323.44374
323.79978
323.03204
322.842
322.46519
322.24913
322.03007
321.85218
321.69255
321.55673
321.42774
321.31737
321.20984
321.11526
321.02393
320.94012
320.86138
320.78535
320.71661
320.64636
320.58573
320.51986
320.46598
320.40346
320.35528
320.29534
320.25209
320.19412
320.15519
320.09871
320.06364
320.00823
319.97668
319.92199
319.89371
319.83941
319.81423
319.76001
319.73784
319.68337
319.66422
319.60913
319.5931
319.53696
319.52432
319.46653
319.45776
319.39751
319.39332
319.32981
323.51037
323.87352
323.25293
323.10183
322.7654
322.56437
322.35523
322.18086
322.02368
321.88709
321.75803
321.64552
321.53699
321.43977
321.34716
321.26053
321.1805
321.10163
321.0317
320.95868
320.89702
320.82845
320.77371
320.70858
320.65974
320.59727
320.55353
320.4931
320.45387
320.39498
320.35979
320.30202
320.27052
320.2135
320.18543
320.12883
320.10402
320.0475
320.02586
319.9691
319.95062
319.89325
319.87802
319.81961
319.80786
319.74786
319.73998
319.67774
319.67415
319.60929
323.56683
323.90792
323.42274
323.30905
323.01939
322.83789
322.64388
322.47698
322.32571
322.19097
322.0643
321.95145
321.84374
321.74516
321.65263
321.56416
321.48387
321.40293
321.33263
321.25743
321.1954
321.12463
321.06957
321.00223
320.95316
320.8885
320.84464
320.78205
320.74281
320.68179
320.64671
320.58683
320.55556
320.49646
320.46874
320.41007
320.38572
320.32715
320.30609
320.24728
320.22948
320.17007
320.15562
320.09521
320.08427
320.02238
320.01524
319.95136
319.9482
319.88225
323.61605
323.91864
323.55054
323.47011
323.22952
323.07045
322.89564
322.73962
322.59736
322.46698
322.34506
322.23366
322.12855
322.02995
321.93888
321.84959
321.77014
321.68793
321.61812
321.54139
321.47968
321.40724
321.35242
321.28334
321.23449
321.16805
321.12443
321.06004
321.02109
320.95825
320.92353
320.86184
320.83099
320.77007
320.74286
320.68237
320.65861
320.59822
320.57782
320.51721
320.50013
320.43896
320.42525
320.36313
320.35293
320.28946
320.28294
320.21777
320.21489
320.14812
323.65988
323.91757
323.64537
323.59237
323.39964
323.26424
323.11134
322.96883
322.83817
322.71438
322.59936
322.49111
322.39031
322.29301
322.20474
322.11568
322.03813
321.9555
321.88705
321.80949
321.7488
321.67527
321.62127
321.55094
321.50279
321.43499
321.39201
321.32619
321.28786
321.22355
321.18944
321.12625
321.09604
321.0336
321.00704
320.94503
320.92196
320.86006
320.84037
320.77826
320.76191
320.69927
320.68629
320.62278
320.61325
320.54854
320.54252
320.47639
320.47371
320.40635
323.69958
323.91278
323.71535
323.6834
323.5346
323.42257
323.29286
323.16561
323.04851
322.93315
322.82684
322.72328
322.62832
322.53359
322.44938
322.36158
322.28697
322.20476
322.13851
322.06084
322.00186
321.92786
321.87524
321.80419
321.75721
321.68851
321.64656
321.57973
321.54233
321.47693
321.44369
321.37935
321.34998
321.28636
321.26062
321.1974
321.17513
321.11202
321.09312
321.02982
321.01423
320.95044
320.93817
320.8736
320.86467
320.79906
320.79345
320.72669
320.72415
320.65643
323.73584
323.90899
323.76745
323.75037
323.63983
323.54958
323.44299
323.33184
323.22952
323.12394
323.02777
322.93021
322.8424
322.75136
322.67235
322.58677
322.51605
322.4351
322.37184
322.29477
322.23816
322.1643
322.11363
322.0424
321.99705
321.92794
321.8874
321.81999
321.78384
321.71775
321.68564
321.62052
321.59219
321.52774
321.50297
321.43889
321.41753
321.35354
321.33549
321.27133
321.25652
321.19193
321.18034
321.11506
321.10668
321.04051
321.03525
320.96816
320.96573
320.89789
323.76916
323.90841
323.80714
323.79957
323.7208
323.64983
323.56516
323.47006
323.38303
323.28807
323.20302
323.11244
323.03281
322.94644
322.87357
322.7911
322.72509
322.64618
322.58664
322.51085
322.45723
322.38412
322.33591
322.26504
322.22176
322.15274
322.11397
322.04644
322.01183
321.94546
321.91473
321.84922
321.82213
321.75721
321.73357
321.66897
321.64864
321.58412
321.56699
321.50231
321.48832
321.42325
321.41235
321.34669
321.33882
321.27244
321.26748
321.20037
321.19802
321.1303
323.79987
323.91159
323.83858
323.83622
323.78268
323.72795
323.66317
323.58329
323.51139
323.42737
323.35393
323.27101
323.20028
323.11933
323.05335
322.97474
322.91415
322.83797
322.78276
322.7089
322.65882
322.58705
322.54176
322.47179
322.43097
322.36252
322.32587
322.25866
322.22589
322.15966
322.13053
322.06504
322.03936
321.97436
321.95198
321.88724
321.86802
321.80334
321.78719
321.72235
321.70919
321.644
321.63378
321.56809
321.56072
321.49443
321.48975
321.4229
321.42065
321.35329
323.82817
323.91806
323.86468
323.86438
323.83005
323.78835
323.7409
323.67486
323.61735
323.54408
323.48231
323.40738
323.34594
323.27095
323.21237
323.13821
323.08357
323.01073
322.96036
322.889
322.84291
322.77301
322.73106
322.66249
322.6245
322.55709
322.52285
322.4564
322.42572
322.36005
322.33274
322.26765
322.24357
322.17886
322.15787
322.09336
322.07535
322.01085
321.99575
321.93109
321.91881
321.85384
321.8443
321.77892
321.77202
321.70616
321.70175
321.63544
321.63328
321.56653
323.85428
323.92702
323.88736
323.887
323.86675
323.83502
323.8021
323.74812
323.70381
323.6407
323.59026
323.52332
323.47125
323.40252
323.35163
323.28235
323.23401
323.16499
323.11983
323.05147
323.00973
322.94218
322.9039
322.8372
322.80232
322.73639
322.70483
322.63957
322.6112
322.54649
322.52119
322.45688
322.43454
322.3705
322.35102
322.28709
322.27039
322.20643
322.19242
322.12829
322.11691
322.05251
322.04366
321.9789
321.97249
321.90734
321.90321
321.8377
321.83565
321.76976
323.87835
323.93755
323.90778
323.90614
323.89586
323.87134
323.85018
323.80631
323.77371
323.71986
323.68005
323.62083
323.57794
323.51554
323.47237
323.40823
323.36638
323.30152
323.26182
323.19684
323.15971
323.09493
323.06058
322.99614
322.96462
322.90057
322.8719
322.80821
322.78233
322.71896
322.69582
322.63267
322.6122
322.54918
322.53131
322.46832
322.45299
322.38991
322.37704
322.31379
322.30333
322.23981
322.23167
322.16785
322.16192
322.09777
322.09393
322.02948
322.02757
321.96277
323.90058
323.94891
323.92662
323.92312
323.91967
323.90009
323.88813
323.8524
323.82987
323.78417
323.75405
323.70206
323.66787
323.61167
323.57607
323.51716
323.4818
323.42133
323.38719
323.32588
323.29351
323.23182
323.20155
323.13973
323.11174
323.04992
323.02429
322.96253
322.93929
322.8776
322.85674
322.79509
322.77659
322.71493
322.69875
322.63702
322.62312
322.56124
322.54957
322.48749
322.47799
322.41566
322.40825
322.34564
322.34022
322.27734
322.2738
322.21066
322.20889
322.14542
323.92112
323.96056
323.94422
323.93871
323.93986
323.9234
323.91842
323.889
323.87487
323.83611
323.81458
323.76915
323.74301
323.69271
323.66432
323.61059
323.58157
323.52558
323.49695
323.43951
323.41193
323.35358
323.32747
323.26855
323.24417
323.18489
323.16239
323.10288
323.08236
323.02267
323.00417
322.94434
322.92787
322.86789
322.85345
322.79329
322.78086
322.72049
322.71004
322.64943
322.6409
322.58004
322.57337
322.51225
322.50735
322.44598
322.44277
322.38116
322.37955
322.31764
323.94015
323.97213
323.96072
323.95335
323.95753
323.94288
323.94304
323.91832
323.91099
323.87795
323.86383
323.82419
323.80531
323.76047
323.7388
323.69005
323.66707
323.61554
323.59228
323.53879
323.51594
323.46109
323.43913
323.38331
323.36256
323.30605
323.28674
323.22971
323.21197
323.15454
323.13846
323.0807
323.06633
323.00828
322.99563
322.93731
322.92639
322.86779
322.85858
322.7997
322.79217
322.73303
322.72711
322.66772
322.66336
322.60373
322.60085
322.541
322.53956
322.47942
323.95781
323.98343
323.97621
323.96723
323.97342
323.95967
323.96351
323.94214
323.94017
323.91171
323.90381
323.86914
323.85664
323.81675
323.80118
323.75712
323.73978
323.69258
323.67442
323.62488
323.60659
323.55532
323.53741
323.48484
323.46768
323.41412
323.39796
323.34363
323.32865
323.27372
323.26005
323.20461
323.19232
323.13646
323.1256
323.06936
323.05996
323.00337
322.99541
322.93851
322.93197
322.87478
322.86963
322.81218
322.80836
322.75068
322.74816
322.69026
322.68898
322.63081
323.97424
323.99434
323.99071
323.98041
323.98797
323.97453
323.98094
323.96186
323.964
323.9391
323.9363
323.90579
323.89876
323.86323
323.85309
323.81335
323.80115
323.75807
323.74466
323.69898
323.68502
323.63733
323.62331
323.57405
323.56037
323.50987
323.49679
323.44531
323.43306
323.38078
323.36949
323.31656
323.30635
323.25287
323.24379
323.18983
323.18193
323.12756
323.12084
323.06611
323.06057
323.00553
323.00114
322.94583
322.94256
322.88701
322.88484
322.82907
322.82797
322.77194
323.98954
324.00481
324.00425
323.99292
324.00144
323.98797
323.99614
323.97855
323.98376
323.96153
323.96279
323.93569
323.93324
323.9015
323.89607
323.86024
323.85262
323.8134
323.80432
323.76235
323.75239
323.70822
323.69787
323.65192
323.64155
323.59417
323.58406
323.53551
323.52589
323.4764
323.46743
323.41714
323.40895
323.358
323.35066
323.29916
323.29273
323.24075
323.23525
323.18286
323.17831
323.12558
323.12195
323.06893
323.06622
323.01294
323.01114
322.95764
322.95673
322.90298
324.00383
324.01484
324.01686
324.00475
324.01396
324.00029
324.00964
323.99297
324.0004
323.98014
323.98455
323.96019
323.96148
323.93296
323.93152
323.89915
323.89555
323.85986
323.85466
323.81619
323.80989
323.76911
323.76214
323.71946
323.71218
323.66792
323.66061
323.61505
323.60793
323.56129
323.55454
323.507
323.50075
323.45246
323.4468
323.39787
323.39286
323.3434
323.33909
323.28918
323.28558
323.23529
323.23241
323.18181
323.17965
323.12878
323.12734
323.07624
323.07551
323.02417
324.01718
324.02444
324.02859
324.01588
324.0256
324.01167
324.0218
324.00567
324.01466
323.99582
324.0026
323.98039
323.98466
323.95883
323.9607
323.93137
323.93119
323.89871
323.89689
323.86168
323.85864
323.8211
323.8172
323.77768
323.77324
323.73206
323.72734
323.68477
323.67999
323.63624
323.63157
323.58684
323.58242
323.53686
323.53279
323.48653
323.48289
323.43603
323.43286
323.38552
323.38285
323.3351
323.33295
323.28486
323.28324
323.23487
323.23378
323.18518
323.18463
323.1358
324.02966
324.0336
324.03946
324.0263
324.0364
324.02222
324.03283
324.01702
324.02706
324.00922
324.01774
323.99721
324.00377
323.98018
323.98471
323.95801
323.96068
323.93107
323.93215
323.89994
323.89974
323.86524
323.86407
323.82759
323.8257
323.78752
323.78516
323.74553
323.7429
323.70203
323.69929
323.65737
323.65467
323.61187
323.6093
323.56574
323.56339
323.5192
323.51711
323.4724
323.47062
323.42547
323.42402
323.37851
323.3774
323.33161
323.33086
323.28483
323.28445
323.2382
324.04132
324.04232
324.04951
324.03602
324.04636
324.03197
324.04288
324.02725
324.03796
324.02085
324.03058
324.01136
324.01963
323.99787
324.0045
323.98004
323.98503
323.95796
323.96147
323.93198
323.93422
323.90254
323.90374
323.87013
323.87051
323.8352
323.83496
323.79819
323.7975
323.75946
323.75849
323.71936
323.71823
323.67818
323.677
323.63616
323.635
323.5935
323.59242
323.55038
323.54942
323.50691
323.50611
323.46323
323.46261
323.41943
323.41901
323.37558
323.37537
323.33174
324.05222
324.05059
324.05877
324.04501
324.0555
324.04096
324.05202
324.03652
324.04762
324.03104
324.04157
324.02338
324.03289
324.01263
324.02084
323.9983
324.00513
323.98028
323.98577
323.95873
323.96301
323.93393
323.93715
323.90622
323.90856
323.87599
323.8776
323.84357
323.84461
323.80932
323.80993
323.77354
323.77383
323.7365
323.73657
323.69843
323.69836
323.65955
323.65939
323.62001
323.61981
323.57996
323.57976
323.53952
323.53935
323.4988
323.49867
323.45788
323.45781
323.41683
324.06238
324.05838
324.06722
324.05327
324.06381
324.04919
324.06028
324.04492
324.05621
324.04006
324.05107
324.0337
324.04404
324.02504
324.03439
324.01349
324.02171
323.99881
324.00587
323.98102
323.98695
323.96024
323.96514
323.93671
323.9407
323.9107
323.9139
323.8825
323.88503
323.85239
323.85438
323.82064
323.82219
323.78751
323.7887
323.75322
323.75413
323.71796
323.71864
323.68189
323.68239
323.64516
323.64551
323.60789
323.60813
323.5702
323.57035
323.53217
323.53224
323.49389
324.07179
324.06564
324.07487
324.06078
324.07129
324.05666
324.06771
324.0525
324.06383
324.04805
324.05932
324.04263
324.05349
324.03553
324.04568
324.02617
324.03541
324.01422
324.02246
323.99956
324.00679
323.98224
323.98849
323.96236
323.96771
323.94011
323.94464
323.91571
323.91952
323.88939
323.89257
323.86138
323.86402
323.83191
323.83408
323.80117
323.80294
323.76935
323.77077
323.7366
323.73772
323.70306
323.70392
323.66887
323.66949
323.63413
323.63453
323.59893
323.59913
323.56337
324.08041
324.07229
324.08168
324.06752
324.07792
324.06335
324.0743
324.0593
324.07056
324.05515
324.06649
324.0504
324.06153
324.04447
324.05511
324.0368
324.04674
324.02704
324.03614
324.01499
324.0232
324.00058
324.00789
323.98386
323.99029
323.96492
323.97053
323.94391
323.94877
323.92102
323.92519
323.89643
323.89999
323.87034
323.87334
323.84292
323.84543
323.81433
323.81639
323.78473
323.78638
323.75424
323.75553
323.72299
323.72394
323.6911
323.69172
323.65865
323.65895
323.62573
324.0881
324.07824
324.08761
324.07345
324.0837
324.06928
324.08007
324.06533
324.07646
324.06142
324.07271
324.05718
324.06839
324.05211
324.06301
324.04576
324.05612
324.03774
324.04742
324.02781
324.03672
324.01585
324.02395
324.00182
324.00909
323.98576
323.99222
323.96775
323.97345
323.94793
323.9529
323.92643
323.93074
323.90343
323.90712
323.87907
323.8822
323.85349
323.85609
323.82684
323.82895
323.79923
323.80089
323.77078
323.77201
323.74161
323.74242
323.71179
323.7122
323.68143
324.09466
324.08336
324.09262
324.07857
324.08864
324.07444
324.08505
324.07063
324.08157
324.06694
324.07807
324.06307
324.07423
324.05868
324.06964
324.05334
324.06391
324.04669
324.05671
324.03848
324.04785
324.02854
324.03718
324.01679
324.02465
324.00319
324.01029
323.9878
323.99413
323.97069
323.97629
323.95196
323.95687
323.93176
323.93601
323.91019
323.91382
323.88739
323.89044
323.86348
323.86597
323.83857
323.84053
323.81276
323.81422
323.78616
323.78713
323.75886
323.75934
323.73094
324.09984
324.08756
324.09669
324.08285
324.09274
324.07885
324.08926
324.07522
324.08593
324.07174
324.08265
324.06819
324.07918
324.06431
324.0752
324.05975
324.07035
324.05418
324.06435
324.04735
324.05696
324.03907
324.04803
324.02921
324.03747
324.01772
324.02525
324.00458
324.01137
323.98984
323.9959
323.97357
323.97892
323.95586
323.96054
323.93683
323.94085
323.91656
323.91996
323.89517
323.89796
323.87276
323.87497
323.84941
323.85106
323.82523
323.82633
323.8003
323.80085
323.7747
324.10344
324.09076
324.09981
324.08632
324.09604
324.08253
324.09272
324.07913
324.08959
324.07586
324.08652
324.0726
324.08335
324.06914
324.07984
324.06518
324.07568
324.06046
324.07061
324.05473
324.06441
324.04779
324.0569
324.03949
324.04796
324.02975
324.03755
324.01854
324.02562
324.00585
324.01222
323.99173
323.9974
323.97624
323.98122
323.95947
323.96378
323.9415
323.94515
323.92241
323.92542
323.90229
323.90468
323.88122
323.88301
323.8593
323.86049
323.83659
323.83719
323.81318
324.10548
324.09299
324.10203
324.08901
324.09857
324.08553
324.09549
324.08238
324.09257
324.07937
324.08973
324.07637
324.08683
324.07324
324.08368
324.06977
324.08006
324.06571
324.07571
324.06084
324.07044
324.05497
324.06408
324.04795
324.05648
324.03967
324.04757
324.03008
324.0373
324.01914
324.02568
324.00688
324.01273
323.99334
323.99851
323.97857
323.98306
323.96265
323.96647
323.94564
323.9488
323.92761
323.93013
323.90863
323.91052
323.88879
323.89005
323.86815
323.86878
323.84678
324.10618
324.09435
324.10344
324.091
324.10041
324.08789
324.09762
324.08504
324.09495
324.08228
324.09233
324.07954
324.08967
324.07671
324.08683
324.07362
324.08362
324.07008
324.07983
324.06588
324.0753
324.06086
324.06984
324.05486
324.06332
324.04778
324.05565
324.03952
324.04677
324.03006
324.03666
324.0194
324.02532
324.00754
324.0128
323.99454
323.99912
323.98043
323.98435
323.96528
323.96853
323.94913
323.95173
323.93206
323.93401
323.91413
323.91543
323.89539
323.89604
323.87592
324.10594
324.09501
324.10417
324.09236
324.10163
324.08968
324.09917
324.08715
324.09676
324.08466
324.09437
324.08217
324.09194
324.0796
324.08935
324.07683
324.08647
324.07368
324.08311
324.07
324.07913
324.06564
324.07438
324.06045
324.06872
324.05432
324.06206
324.04717
324.05432
324.03894
324.04548
324.02962
324.03552
324.01921
324.02446
324.00773
324.01233
323.99522
323.99916
323.98171
323.98499
323.96726
323.96988
323.9519
323.95387
323.9357
323.93702
323.91871
323.91937
323.90098
324.10516
324.09517
324.10435
324.0932
324.10231
324.09097
324.10021
324.08877
324.09808
324.08656
324.09592
324.08431
324.09369
324.08197
324.09132
324.07944
324.08868
324.0766
324.08565
324.07331
324.08209
324.06945
324.07787
324.06488
324.07288
324.05951
324.06702
324.05324
324.06021
324.04602
324.05241
324.03782
324.04361
324.02864
324.03381
324.01847
324.02301
324.00734
324.01124
323.99528
323.99854
323.98232
323.98493
323.9685
323.97047
323.95387
323.95518
323.93846
323.93912
323.92233
324.10415
324.09501
324.10412
324.09363
324.10256
324.09183
324.1008
324.08995
324.09894
324.08801
324.09701
324.08599
324.09498
324.08386
324.09278
324.08153
324.09033
324.07891
324.08753
324.07591
324.08427
324.07241
324.08045
324.06831
324.07596
324.06351
324.07072
324.05794
324.06465
324.05153
324.0577
324.04425
324.04986
324.03609
324.04111
324.02703
324.03145
324.0171
324.0209
324.00629
324.00948
323.99465
323.9972
323.98219
323.98412
323.96896
323.97024
323.95498
323.95563
323.9403
324.1031
324.09465
324.10359
324.09373
324.10245
324.09232
324.10101
324.09076
324.09942
324.08908
324.0977
324.08726
324.09584
324.0853
324.09378
324.08312
324.09147
324.08066
324.08881
324.07785
324.08576
324.0746
324.08221
324.07083
324.07808
324.06646
324.0733
324.06142
324.0678
324.05565
324.06154
324.04911
324.05447
324.04178
324.0466
324.03366
324.03791
324.02473
324.0284
324.01501
324.01808
324.00451
324.00698
323.99326
323.99512
323.98127
323.98251
323.96857
323.9692
323.9552
324.10205
324.0942
324.10287
324.0936
324.10206
324.09253
324.10092
324.09125
324.09957
324.08979
324.09804
324.08816
324.09631
324.08633
324.09435
324.08425
324.09211
324.08188
324.08954
324.07917
324.0866
324.07608
324.08322
324.07252
324.07933
324.06845
324.07488
324.0638
324.06981
324.05851
324.06407
324.05256
324.05763
324.04591
324.05047
324.03855
324.04259
324.03047
324.03396
324.02168
324.0246
324.01217
324.01453
324.00196
324.00374
323.99107
323.99226
323.97951
323.98011
323.96731
324.10103
324.0937
324.10202
324.0933
324.10146
324.09251
324.10057
324.09146
324.09943
324.09021
324.09805
324.08872
324.09643
324.08697
324.09452
324.08494
324.09229
324.08259
324.08974
324.07992
324.08683
324.07688
324.08352
324.07345
324.07978
324.06956
324.07555
324.06517
324.07078
324.06024
324.06543
324.05473
324.05948
324.04862
324.0529
324.04188
324.04567
324.03451
324.03779
324.02649
324.02925
324.01783
324.02005
324.00853
324.01021
323.9986
323.99972
323.98805
323.98862
323.9769
324.10001
324.09318
324.10109
324.09287
324.10071
324.0923
324.10002
324.09145
324.09904
324.09035
324.09778
324.08895
324.0962
324.08724
324.09428
324.08519
324.09202
324.08281
324.08941
324.08009
324.08647
324.07704
324.08316
324.07363
324.07946
324.06983
324.07535
324.06561
324.07078
324.06092
324.06571
324.05574
324.06013
324.05004
324.054
324.0438
324.04731
324.037
324.04005
324.02963
324.0322
324.02169
324.02376
324.01317
324.01474
324.00407
324.00513
323.99442
323.99494
323.9842
324.09899
324.09265
324.1001
324.09236
324.09985
324.09195
324.09931
324.09125
324.09844
324.09025
324.09723
324.08888
324.09564
324.08713
324.09366
324.085
324.09129
324.08251
324.08857
324.07969
324.08551
324.07655
324.08213
324.0731
324.07841
324.06931
324.07434
324.06516
324.06987
324.06062
324.06499
324.05566
324.05968
324.05027
324.0539
324.04441
324.04764
324.03808
324.04088
324.03125
324.03361
324.02391
324.02582
324.01606
324.01751
324.00769
324.00866
323.99881
323.9993
323.98942
324.09796
324.09211
324.09907
324.09178
324.0989
324.09148
324.09846
324.09088
324.09766
324.08991
324.09643
324.0885
324.09475
324.08664
324.09262
324.08436
324.09009
324.08169
324.08719
324.0787
324.08397
324.07542
324.08045
324.07185
324.07664
324.068
324.07253
324.06385
324.0681
324.05938
324.06333
324.05456
324.0582
324.04939
324.05268
324.04383
324.04676
324.03786
324.04041
324.03147
324.03362
324.02464
324.02638
324.01736
324.01868
324.00961
324.0105
324.00141
324.00186
323.99274
324.0969
324.09157
324.09801
324.09116
324.09789
324.09093
324.09751
324.09036
324.09669
324.08934
324.09536
324.0878
324.09351
324.08574
324.09116
324.08323
324.08838
324.08033
324.08524
324.07711
324.0818
324.07361
324.07809
324.06988
324.07414
324.0659
324.06994
324.06169
324.06548
324.05723
324.06076
324.05249
324.05574
324.04747
324.05041
324.04212
324.04475
324.03645
324.03874
324.03041
324.03235
324.024
324.02557
324.0172
324.01839
324.00999
324.01079
324.00238
324.00278
323.99435
324.09581
324.09103
324.09692
324.0905
324.09683
324.0903
324.09645
324.08969
324.09553
324.08852
324.09401
324.08675
324.09189
324.08441
324.08924
324.08159
324.08615
324.07838
324.0827
324.07487
324.07898
324.07111
324.07504
324.06716
324.0709
324.06303
324.06656
324.05871
324.06204
324.0542
324.05731
324.04949
324.05235
324.04455
324.04715
324.03936
324.04169
324.03391
324.03594
324.02816
324.02988
324.02209
324.02349
324.0157
324.01676
324.00896
324.00967
324.00185
324.00221
323.99438
324.09469
324.09047
324.09581
324.08981
324.09572
324.08958
324.09529
324.08884
324.09417
324.08742
324.09233
324.08531
324.08984
324.08259
324.0868
324.07938
324.08332
324.07579
324.07952
324.07194
324.07548
324.06789
324.07127
324.06369
324.0669
324.05936
324.0624
324.0549
324.05777
324.05031
324.05299
324.04558
324.04806
324.04068
324.04294
324.0356
324.03763
324.03031
324.03209
324.02479
324.0263
324.01902
324.02024
324.01297
324.0139
324.00662
324.00725
323.99997
324.00028
323.99299
324.09352
324.0899
324.09466
324.08908
324.09457
324.08878
324.09399
324.0878
324.09255
324.086
324.09028
324.08343
324.08731
324.08022
324.08379
324.07654
324.07986
324.07253
324.07565
324.06829
324.07126
324.06391
324.06674
324.05942
324.06213
324.05487
324.05744
324.05025
324.05268
324.04555
324.04783
324.04077
324.04289
324.03589
324.03783
324.03088
324.03262
324.02572
324.02725
324.02039
324.02168
324.01485
324.01591
324.00909
324.0099
324.00309
324.00363
323.99682
323.9971
323.99028
324.09229
324.08932
324.09348
324.08833
324.09337
324.08787
324.09253
324.0865
324.09062
324.08417
324.08777
324.08101
324.08421
324.07723
324.08013
324.07301
324.0757
324.06851
324.07104
324.06386
324.06627
324.05912
324.06143
324.05435
324.05656
324.04956
324.05167
324.04476
324.04676
324.03994
324.04183
324.0351
324.03686
324.03021
324.03183
324.02524
324.0267
324.02018
324.02147
324.015
324.0161
324.00967
324.01056
324.00416
324.00484
323.99845
323.99891
323.99253
323.99276
323.98637
324.09101
324.08873
324.09226
324.08754
324.09208
324.0868
324.09085
324.08488
324.08829
324.08186
324.08473
324.07799
324.08046
324.07353
324.07575
324.06871
324.07076
324.0637
324.06563
324.0586
324.06046
324.0535
324.05529
324.04842
324.05016
324.0434
324.04507
324.03842
324.04002
324.03348
324.035
324.02856
324.02999
324.02365
324.02497
324.01872
324.01992
324.01374
324.0148
324.00868
324.00959
324.00352
324.00427
323.99824
323.9988
323.99279
323.99318
323.98718
323.98737
323.98136
324.08965
324.08815
324.09101
324.0867
324.09067
324.08551
324.08885
324.08283
324.08546
324.07894
324.08103
324.07424
324.07597
324.06903
324.07056
324.06357
324.06498
324.05801
324.05937
324.05247
324.0538
324.047
324.04831
324.04163
324.04292
324.03638
324.03764
324.03122
324.03245
324.02616
324.02734
324.02118
324.0223
324.01625
324.01729
324.01134
324.01229
324.00643
324.00728
324.00149
324.00222
323.99648
323.99708
323.99139
323.99185
323.98619
323.9865
323.98084
323.981
323.97534
324.08821
324.08759
324.0897
324.08579
324.08907
324.08391
324.08642
324.08022
324.08199
324.07531
324.07656
324.06966
324.07062
324.06365
324.06448
324.05751
324.0583
324.05141
324.0522
324.04543
324.04624
324.0396
324.04045
324.03396
324.03482
324.02849
324.02936
324.02318
324.02405
324.01801
324.01887
324.01297
324.0138
324.00802
324.00881
324.00314
324.00387
323.9983
323.99895
323.99346
323.99403