/*--------------------------------*- C++ -*----------------------------------*\
| =========                 |                                                 |
| \\      /  F ield         | OpenFOAM: The Open Source CFD Toolbox           |
|  \\    /   O peration     | Version:  2312                                  |
|   \\  /    A nd           | Website:  www.openfoam.com                      |
|    \\/     M anipulation  |                                                 |
\*---------------------------------------------------------------------------*/
FoamFile
{
    version     2.0;
    format      ascii;
    arch        "LSB;label=32;scalar=64";
    class       surfaceScalarField;
    location    "2";
    object      phi_0;
}
// * * * * * * * * * * * * * * * * * * * * * * * * * * * * * * * * * * * * * //

dimensions      [0 3 -1 0 0 0 0];

oriented        oriented;

internalField   nonuniform List<scalar> 
7870
(
1.6924506e-10
3.2923799e-09
1.7875795e-10
-9.5129043e-12
1.3085589e-10
4.790206e-11
1.4040823e-10
-9.5523594e-12
1.3429674e-10
6.1114974e-12
1.3477352e-10
-4.7678957e-13
1.3316683e-10
1.6066997e-12
1.3344122e-10
-2.7438543e-13
1.3272103e-10
7.2020181e-13
1.3317234e-10
-4.5131773e-13
1.3262369e-10
5.4865942e-13
1.3309991e-10
-4.7622643e-13
1.3265621e-10
4.4371088e-13
1.3304189e-10
-3.8569057e-13
1.3269847e-10
3.4342176e-13
1.3300308e-10
-3.046247e-13
1.327329e-10
2.7017899e-13
1.3297074e-10
-2.3784101e-13
1.3276258e-10
2.0815576e-13
1.3294269e-10
-1.8011374e-13
1.3278858e-10
1.5410883e-13
1.3291828e-10
-1.2969511e-13
1.3281126e-10
1.0701953e-13
1.3289703e-10
-8.5757314e-14
1.3283102e-10
6.6012521e-14
1.3287859e-10
-4.7570597e-14
1.328482e-10
3.0395227e-14
1.3286265e-10
-1.4441993e-14
1.3286287e-10
-2.1882606e-16
1.3284921e-10
1.3660809e-14
1.3287539e-10
-2.6182648e-14
1.328374e-10
3.7999597e-14
1.3288634e-10
-4.8945626e-14
1.3282764e-10
5.8699916e-14
1.3289527e-10
-6.7631646e-14
1.3281944e-10
7.5834169e-14
1.3290276e-10
-8.3322296e-14
1.3281268e-10
9.0082263e-14
1.3290887e-10
-9.6190501e-14
1.3280722e-10
1.0164735e-13
1.3291373e-10
-1.0651243e-13
1.3280294e-10
1.1078674e-13
1.3291745e-10
-1.1450442e-13
1.327997e-10
1.1775139e-13
1.3292005e-10
-1.2035681e-13
1.3279759e-10
1.2245822e-13
1.3292282e-10
-1.2522826e-13
1.3280028e-10
1.2253805e-13
1.3293279e-10
-1.3250289e-13
1.2690064e-13
4.4176713e-10
6.3122378e-09
5.0061632e-10
-6.8362116e-11
3.9240167e-10
1.5611671e-10
4.0406778e-10
-2.1218488e-11
3.903334e-10
1.9845888e-11
3.9026567e-10
-4.0906944e-13
3.8701799e-10
4.8544036e-12
3.8684704e-10
-1.0345195e-13
3.8568249e-10
1.8847884e-12
3.8619544e-10
-9.6428579e-13
3.8534088e-10
1.4032526e-12
3.8604473e-10
-1.1801062e-12
3.8538268e-10
1.1057817e-12
3.859396e-10
-9.4264053e-13
3.8544748e-10
8.3555213e-13
3.8588197e-10
-7.391506e-13
3.8549758e-10
6.5457355e-13
3.8583498e-10
-5.7525055e-13
3.8554036e-10
5.0277756e-13
3.8579434e-10
-4.341051e-13
3.8557787e-10
3.7058449e-13
3.8575908e-10
-3.108945e-13
3.8561065e-10
2.5545148e-13
3.8572835e-10
-2.0344307e-13
3.8563917e-10
1.551979e-13
3.8570179e-10
-1.1017214e-13
3.8566387e-10
6.831501e-14
3.8567898e-10
-2.9535301e-14
3.8568503e-10
-6.27078e-15
3.8565939e-10
3.9307397e-14
3.8570317e-10
-6.9956707e-14
3.8564246e-10
9.8716249e-14
3.8571882e-10
-1.2531469e-13
3.8562846e-10
1.490666e-13
3.8573163e-10
-1.7080195e-13
3.8561669e-10
1.9077584e-13
3.8574235e-10
-2.089919e-13
3.8560699e-10
2.2544122e-13
3.8575109e-10
-2.4028967e-13
3.8559918e-10
2.5355973e-13
3.8575804e-10
-2.6537714e-13
3.8559307e-10
2.7575504e-13
3.8576334e-10
-2.8477648e-13
3.8558839e-10
2.9270632e-13
3.8576688e-10
-2.9885327e-13
3.8558513e-10
3.0420658e-13
3.8577091e-10
-3.1101037e-13
3.855916e-10
3.0184968e-13
3.8579546e-10
-3.3636149e-13
3.1833165e-13
7.2802718e-10
9.0458356e-09
7.93232e-10
-1.3356697e-10
6.4588647e-10
3.0346224e-10
6.6030978e-10
-3.5641823e-11
6.3944288e-10
4.071281e-11
6.3868317e-10
3.5062208e-13
6.3436906e-10
9.1685515e-12
6.3350863e-10
7.5696943e-13
6.3227495e-10
3.1185061e-12
6.3258e-10
-1.2693558e-12
6.316919e-10
2.2913784e-12
6.3238608e-10
-1.8743144e-12
6.3173102e-10
1.76086e-12
6.3225862e-10
-1.4702739e-12
6.3179897e-10
1.2952081e-12
6.322022e-10
-1.1424092e-12
6.31847e-10
1.009772e-12
6.3215736e-10
-8.8562351e-13
6.3188736e-10
7.7277612e-13
6.3211875e-10
-6.6549249e-13
6.3192277e-10
5.6656284e-13
6.3208534e-10
-4.7345228e-13
6.3195384e-10
3.8695488e-13
6.3205625e-10
-3.0583257e-13
6.3198072e-10
2.3073474e-13
6.3203134e-10
-1.6077094e-13
6.3200382e-10
9.5832823e-14
6.3200985e-10
-3.5548788e-14
6.3202401e-10
-2.0432132e-14
6.319912e-10
7.2129927e-14
6.3204114e-10
-1.1989303e-13
6.3197537e-10
1.6449241e-13
6.3205566e-10
-2.056121e-13
6.3196227e-10
2.4246252e-13
6.3206767e-10
-2.7620422e-13
6.3195124e-10
3.0719876e-13
6.3207768e-10
-3.3543479e-13
6.3194219e-10
3.6093232e-13
6.3208583e-10
-3.839255e-13
6.319349e-10
4.0447949e-13
6.3209229e-10
-4.2276195e-13
6.3192923e-10
4.3880883e-13
6.320972e-10
-4.5274632e-13
6.3192483e-10
4.6507796e-13
6.3210025e-10
-4.7428173e-13
6.3192153e-10
4.8292591e-13
6.321042e-10
-4.9367397e-13
6.3193127e-10
4.747752e-13
6.3214108e-10
-5.4616638e-13
5.108153e-13
9.3260667e-10
1.1574854e-08
1.0667567e-09
-2.6771707e-10
8.9186451e-10
4.7835446e-10
9.0951686e-10
-5.3294199e-11
8.8140468e-10
6.882501e-11
8.8021208e-10
1.5432125e-12
8.750343e-10
1.4346365e-11
8.7360013e-10
2.1911268e-12
8.7234716e-10
4.3715164e-12
8.7246781e-10
-1.3900322e-12
8.7155102e-10
3.2082086e-12
8.7223999e-10
-2.5633206e-12
8.7159692e-10
2.4039511e-12
8.7209343e-10
-1.9668268e-12
8.716687e-10
1.7199546e-12
8.7203929e-10
-1.5130332e-12
8.7171452e-10
1.3345399e-12
8.7199682e-10
-1.1679354e-12
8.7175236e-10
1.0172383e-12
8.7196036e-10
-8.7349462e-13
8.7178554e-10
7.4138128e-13
8.7192882e-10
-6.1672113e-13
8.718148e-10
5.0098064e-13
8.7190162e-10
-3.9263358e-13
8.7183965e-10
2.9271658e-13
8.7187856e-10
-1.9966707e-13
8.7186137e-10
1.130329e-13
8.7185802e-10
-3.219304e-14
8.7188051e-10
-4.2915428e-14
8.7184068e-10
1.1196895e-13
8.718964e-10
-1.7561217e-13
8.71826e-10
2.3489338e-13
8.7190981e-10
-2.8941608e-13
8.7181384e-10
3.3842805e-13
8.7192098e-10
-3.8334559e-13
8.7180362e-10
4.2455478e-13
8.7193025e-10
-4.6206602e-13
8.7179526e-10
4.9592794e-13
8.7193777e-10
-5.2644235e-13
8.7178853e-10
5.5371547e-13
8.7194372e-10
-5.7794955e-13
8.7178333e-10
5.9919646e-13
8.7194823e-10
-6.1764791e-13
8.7177924e-10
6.3406252e-13
8.7195079e-10
-6.458319e-13
8.717759e-10
6.5782098e-13
8.7195431e-10
-6.7208887e-13
8.717878e-10
6.4128707e-13
8.7200119e-10
-7.5955429e-13
7.0221448e-13
1.1818373e-09
1.3854642e-08
1.3282566e-09
-4.1413632e-10
1.1295526e-09
6.7705843e-10
1.1517663e-09
-7.5507969e-11
1.1162357e-09
1.0435563e-10
1.114848e-09
2.9309696e-12
1.1090046e-09
2.0189739e-11
1.1071378e-09
4.0579006e-12
1.1058992e-09
5.6102333e-12
1.1058594e-09
-1.350342e-12
1.1049199e-09
4.1478346e-12
1.1056064e-09
-3.2498867e-12
1.1049802e-09
3.0302011e-12
1.105444e-09
-2.4307474e-12
1.1050564e-09
2.1076212e-12
1.1053932e-09
-1.8498752e-12
1.1051e-09
1.6277714e-12
1.1053533e-09
-1.4212956e-12
1.1051352e-09
1.2353498e-12
1.1053191e-09
-1.0574196e-12
1.1051661e-09
8.943792e-13
1.1052895e-09
-7.4012928e-13
1.1051932e-09
5.9730104e-13
1.1052648e-09
-4.6415088e-13
1.105216e-09
3.4153697e-13
1.1052431e-09
-2.2678274e-13
1.1052366e-09
1.1947541e-13
1.1052237e-09
-1.9233458e-14
1.1052543e-09
-7.3497876e-14
1.1052078e-09
1.5842078e-13
1.1052689e-09
-2.3668621e-13
1.1051944e-09
3.0945843e-13
1.1052812e-09
-3.7626207e-13
1.1051832e-09
4.3646942e-13
1.1052915e-09
-4.9167806e-13
1.1051738e-09
5.4225488e-13
1.1053e-09
-5.8825914e-13
1.1051661e-09
6.2976624e-13
1.1053068e-09
-6.6714424e-13
1.10516e-09
7.005437e-13
1.1053123e-09
-7.3018953e-13
1.1051553e-09
7.5615086e-13
1.1053163e-09
-7.7869536e-13
1.1051516e-09
7.9883682e-13
1.1053184e-09
-8.1269076e-13
1.1051482e-09
8.2806622e-13
1.1053214e-09
-8.4527209e-13
1.1051615e-09
8.0114161e-13
1.1053761e-09
-9.7411999e-13
8.8945804e-13
1.3916669e-09
1.59246e-08
1.5688877e-09
-5.9135712e-10
1.3604194e-09
8.8552679e-10
1.3869162e-09
-1.0200482e-10
1.3438507e-09
1.4742113e-10
1.3425602e-09
4.2214651e-12
1.3362742e-09
2.6475773e-11
1.3341463e-09
6.1857648e-12
1.3329321e-09
6.8245171e-12
1.3327577e-09
-1.1759819e-12
1.3318008e-09
5.1047835e-12
1.332486e-09
-3.9351909e-12
1.3318808e-09
3.6355014e-12
1.3323108e-09
-2.8608636e-12
1.3319618e-09
2.4566578e-12
1.3322642e-09
-2.1522644e-12
1.3320031e-09
1.8888224e-12
1.332227e-09
-1.6451929e-12
1.3320357e-09
1.4266233e-12
1.3321952e-09
-1.2168634e-12
1.3320643e-09
1.0252618e-12
1.332168e-09
-8.4381496e-13
1.3320886e-09
6.7670478e-13
1.3321455e-09
-5.2108267e-13
1.3321101e-09
3.7703951e-13
1.3321249e-09
-2.4157918e-13
1.3321293e-09
1.1501119e-13
1.3321072e-09
2.8954331e-15
1.3321453e-09
-1.1155662e-13
1.3320928e-09
2.1093729e-13
1.3321586e-09
-3.0255213e-13
1.3320805e-09
3.8759041e-13
1.3321698e-09
-4.6555522e-13
1.3320703e-09
5.3596537e-13
1.3321792e-09
-6.0053228e-13
1.3320618e-09
6.5959797e-13
1.3321868e-09
-7.1328592e-13
1.3320549e-09
7.6169851e-13
1.332193e-09
-8.0526486e-13
1.3320494e-09
8.4418008e-13
1.3321979e-09
-8.7867951e-13
1.3320452e-09
9.0884829e-13
1.3322015e-09
-9.3505693e-13
1.3320418e-09
9.5855143e-13
1.3322032e-09
-9.7401856e-13
1.3320384e-09
9.9279939e-13
1.3322054e-09
-1.0122831e-12
1.3320526e-09
9.5396876e-13
1.332266e-09
-1.1874952e-12
1.0698117e-12
1.5945401e-09
1.7791685e-08
1.7989887e-09
-7.958058e-10
1.5837949e-09
1.1007206e-09
1.614065e-09
-1.3227494e-10
1.5645136e-09
1.969725e-10
1.5634622e-09
5.2729127e-12
1.5568825e-09
3.3055465e-11
1.5546365e-09
8.4317911e-12
1.5534454e-09
8.0156433e-12
1.5531642e-09
-8.94842e-13
1.5521959e-09
6.0731133e-12
1.5528799e-09
-4.6192044e-12
1.5522988e-09
4.2166317e-12
1.5526943e-09
-3.2564294e-12
1.5523848e-09
2.7662042e-12
1.5526525e-09
-2.4200095e-12
1.5524239e-09
2.1174557e-12
1.5526181e-09
-1.8394432e-12
1.5524538e-09
1.5909268e-12
1.5525889e-09
-1.3519303e-12
1.5524795e-09
1.1346758e-12
1.5525647e-09
-9.290413e-13
1.5525013e-09
7.400688e-13
1.5525434e-09
-5.6315962e-13
1.5525218e-09
3.9868809e-13
1.5525244e-09
-2.441754e-13
1.5525391e-09
1.002864e-13
1.5525086e-09
3.3411912e-14
1.5525534e-09
-1.5635963e-13
1.5524955e-09
2.6882858e-13
1.5525655e-09
-3.7250146e-13
1.5524845e-09
4.6856259e-13
1.5525755e-09
-5.5656263e-13
1.5524753e-09
6.3616002e-13
1.5525839e-09
-7.091256e-13
1.5524677e-09
7.7578687e-13
1.5525908e-09
-8.3633676e-13
1.5524616e-09
8.9089932e-13
1.5525963e-09
-9.3996442e-13
1.5524567e-09
9.8377444e-13
1.5526006e-09
-1.0225615e-12
1.552453e-09
1.0564338e-12
1.5526038e-09
-1.0858721e-12
1.55245e-09
1.1123223e-12
1.552605e-09
-1.1289621e-12
1.5524466e-09
1.151148e-12
1.5526065e-09
-1.1721915e-12
1.5524612e-09
1.099278e-12
1.5526711e-09
-1.3974213e-12
1.2411056e-12
1.7801031e-09
1.9473206e-08
2.0072872e-09
-1.0229899e-09
1.7982742e-09
1.3097336e-09
1.8288667e-09
-1.6286748e-10
1.7775103e-09
2.4832894e-10
1.7774182e-09
5.3649889e-12
1.7708066e-09
3.966711e-11
1.7685935e-09
1.0644903e-11
1.7674375e-09
9.1716709e-12
1.7670787e-09
-5.3609901e-13
1.766107e-09
7.0448668e-12
1.7667887e-09
-5.3009989e-12
1.7662341e-09
4.7712613e-12
1.7665948e-09
-3.6171727e-12
1.7663251e-09
3.0359543e-12
1.7665583e-09
-2.6532446e-12
1.766362e-09
2.3137269e-12
1.7665268e-09
-2.0041905e-12
1.7663889e-09
1.7287784e-12
1.7665009e-09
-1.4638736e-12
1.7664113e-09
1.2241917e-12
1.7664789e-09
-9.9656894e-13
1.766432e-09
7.8695722e-13
1.7664588e-09
-5.8993072e-13
1.7664505e-09
4.0696503e-13
1.7664419e-09
-2.3551207e-13
1.7664659e-09
7.6223618e-14
1.7664279e-09
7.1439714e-14
1.7664787e-09
-2.0708622e-13
1.7664162e-09
3.3127449e-13
1.7664894e-09
-4.4569472e-13
1.7664065e-09
5.5152839e-13
1.7664983e-09
-6.4844644e-13
1.7663983e-09
7.3620279e-13
1.7665058e-09
-8.1659033e-13
1.7663916e-09
8.8994654e-13
1.7665118e-09
-9.565308e-13
1.7663862e-09
1.0164887e-12
1.7665166e-09
-1.0703657e-12
1.7663819e-09
1.1184493e-12
1.7665203e-09
-1.1609559e-12
1.7663787e-09
1.1980186e-12
1.7665231e-09
-1.2302574e-12
1.7663762e-09
1.2592657e-12
1.7665239e-09
-1.2766589e-12
1.7663728e-09
1.3022171e-12
1.7665247e-09
-1.3240916e-12
1.7663874e-09
1.236529e-12
1.7665918e-09
-1.6017515e-12
1.4016048e-12
1.9589749e-09
2.0975857e-08
2.2056426e-09
-1.2696576e-09
2.005097e-09
1.5102792e-09
2.0292027e-09
-1.8697318e-10
1.9828754e-09
2.9465629e-10
1.9845116e-09
3.7287479e-12
1.9780902e-09
4.6088504e-11
1.9760191e-09
1.2716015e-11
1.9749106e-09
1.0280237e-11
1.9745017e-09
-1.2726223e-13
1.9735363e-09
8.0103379e-12
1.9742139e-09
-5.9786435e-12
1.973687e-09
5.2982086e-12
1.9740129e-09
-3.9431671e-12
1.9737828e-09
3.2661139e-12
1.9739818e-09
-2.8522768e-12
1.9738174e-09
2.4780542e-12
1.9739536e-09
-2.1404061e-12
1.9738403e-09
1.8420847e-12
1.973931e-09
-1.5544906e-12
1.973861e-09
1.2941573e-12
1.9739102e-09
-1.0457737e-12
1.97388e-09
8.1715445e-13
1.9738923e-09
-6.0220214e-13
1.9738962e-09
4.0305884e-13
1.9738774e-09
-2.1667036e-13
1.9739098e-09
4.3861399e-14
1.9738652e-09
1.1600955e-13
1.9739209e-09
-2.6281201e-13
1.9738549e-09
3.9734906e-13
1.9739304e-09
-5.2119746e-13
1.9738463e-09
6.3556876e-13
1.9739382e-09
-7.4028745e-13
1.9738392e-09
8.3516609e-13
1.9739446e-09
-9.2200228e-13
1.9738334e-09
1.0011598e-12
1.9739498e-09
-1.0729575e-12
1.9738288e-09
1.1375562e-12
1.973954e-09
-1.1955588e-12
1.9738251e-09
1.2472987e-12
1.9739571e-09
-1.2929631e-12
1.9738224e-09
1.3327224e-12
1.9739595e-09
-1.3673359e-12
1.9738203e-09
1.3984917e-12
1.9739599e-09
-1.4162625e-12
1.9738169e-09
1.4451351e-12
1.9739599e-09
-1.4670999e-12
1.9738313e-09
1.3651255e-12
1.9740281e-09
-1.7984693e-12
1.549924e-12
2.1124897e-09
2.2324992e-08
2.386118e-09
-1.543286e-09
2.2015567e-09
1.6948405e-09
2.2175894e-09
-2.0300591e-10
2.1810144e-09
3.3123131e-10
2.1847009e-09
4.2237014e-14
2.1787317e-09
5.2057775e-11
2.1769008e-09
1.454686e-11
2.1758654e-09
1.131567e-11
2.1754321e-09
3.0599777e-13
2.1744854e-09
8.9571256e-12
2.1751564e-09
-6.6496721e-12
2.1746572e-09
5.7974e-12
2.1749489e-09
-4.2348782e-12
2.1747578e-09
3.457212e-12
2.1749232e-09
-3.0177375e-12
2.1747893e-09
2.6119864e-12
2.1748994e-09
-2.2505779e-12
2.1748089e-09
1.9326671e-12
2.174878e-09
-1.623621e-12
2.1748283e-09
1.3438381e-12
2.1748594e-09
-1.0768664e-12
2.1748448e-09
8.3177586e-13
2.1748439e-09
-6.0132767e-13
2.1748588e-09
3.8819565e-13
2.174831e-09
-1.8881271e-13
2.1748705e-09
4.3146623e-15
2.1748205e-09
1.6607821e-13
2.1748802e-09
-3.2253294e-13
2.1748115e-09
4.6604366e-13
2.1748883e-09
-5.9800099e-13
2.1748042e-09
7.1969208e-13
2.174895e-09
-8.3111344e-13
2.1747981e-09
9.3208333e-13
2.1749005e-09
-1.0244012e-12
2.1747932e-09
1.1084758e-12
2.1749049e-09
-1.1846757e-12
2.1747893e-09
1.253178e-12
2.1749084e-09
-1.3146378e-12
2.1747862e-09
1.3694294e-12
2.174911e-09
-1.4176993e-12
2.174784e-09
1.4596602e-12
2.1749129e-09
-1.4962376e-12
2.1747823e-09
1.5291437e-12
2.1749129e-09
-1.5469425e-12
2.174779e-09
1.5790332e-12
2.1749123e-09
-1.600385e-12
2.174793e-09
1.4844833e-12
2.1749802e-09
-1.9856793e-12
1.6849532e-12
2.2725878e-09
2.3514029e-08
2.5548601e-09
-1.8255583e-09
2.3849873e-09
1.8647133e-09
2.3969042e-09
-2.1492289e-10
2.372194e-09
3.5594156e-10
2.3778876e-09
-5.651343e-12
2.3727516e-09
5.7193777e-11
2.371247e-09
1.6051455e-11
2.3703068e-09
1.225593e-11
2.36987e-09
7.4277126e-13
2.3689563e-09
9.8708627e-12
2.3696179e-09
-7.3112985e-12
2.3691453e-09
6.2699555e-12
2.3694033e-09
-4.4928538e-12
2.3692499e-09
3.6105529e-12
2.3693836e-09
-3.1514529e-12
2.369277e-09
2.7185766e-12
2.3693629e-09
-2.336444e-12
2.3692958e-09
1.9997425e-12
2.3693426e-09
-1.6704519e-12
2.3693124e-09
1.3740751e-12
2.3693269e-09
-1.0913473e-12
2.3693264e-09
8.3229991e-13
2.3693137e-09
-5.8866056e-13
2.3693383e-09
3.6361798e-13
2.3693027e-09
-1.5315229e-13
2.3693482e-09
-4.1246445e-14
2.3692938e-09
2.2052767e-13
2.3693564e-09
-3.8516719e-13
2.3692862e-09
5.3628832e-13
2.3693632e-09
-6.7505403e-13
2.3692801e-09
8.0288083e-13
2.3693689e-09
-9.199147e-13
2.369275e-09
1.0259555e-12
2.3693734e-09
-1.1228126e-12
2.3692709e-09
1.2109425e-12
2.369377e-09
-1.2907545e-12
2.3692677e-09
1.3624352e-12
2.3693798e-09
-1.426695e-12
2.3692653e-09
1.4839487e-12
2.3693819e-09
-1.5342893e-12
2.3692635e-09
1.5779885e-12
2.3693834e-09
-1.6161284e-12
2.3692622e-09
1.6503832e-12
2.3693832e-09
-1.6679113e-12
2.3692591e-09
1.7030973e-12
2.3693819e-09
-1.7231576e-12
2.3692723e-09
1.5940025e-12
2.3694483e-09
-2.1616334e-12
1.8058494e-12
2.4148213e-09
2.4560833e-08
2.706512e-09
-2.1172491e-09
2.5611834e-09
2.010042e-09
2.5706764e-09
-2.2441594e-10
2.5569856e-09
3.6963236e-10
2.5640759e-09
-1.2741603e-11
2.5601746e-09
6.1095102e-11
2.5590616e-09
1.7164415e-11
2.5582384e-09
1.3079174e-11
2.5578152e-09
1.165956e-12
2.55695e-09
1.0736098e-11
2.5575998e-09
-7.9611887e-12
2.5571516e-09
6.7182534e-12
2.5573767e-09
-4.7180778e-12
2.5572582e-09
3.7291092e-12
2.5573632e-09
-3.2564901e-12
2.5572825e-09
2.7992772e-12
2.5573427e-09
-2.3966959e-12
2.5572999e-09
2.0426081e-12
2.5573258e-09
-1.6964179e-12
2.5573131e-09
1.3868041e-12
2.5573126e-09
-1.0908497e-12
2.5573247e-09
8.2022061e-13
2.5573016e-09
-5.6557265e-13
2.5573346e-09
3.3063327e-13
2.5572925e-09
-1.1094974e-13
2.5573428e-09
-9.1610058e-14
2.5572852e-09
2.7820036e-13
2.5573496e-09
-4.4959172e-13
2.5572789e-09
6.0697774e-13
2.5573551e-09
-7.5127743e-13
2.5572739e-09
8.8408258e-13
2.5573597e-09
-1.0056706e-12
2.5572699e-09
1.1157875e-12
2.5573633e-09
-1.2162628e-12
2.5572666e-09
1.307608e-12
2.5573661e-09
-1.3902639e-12
2.5572642e-09
1.4644276e-12
2.5573683e-09
-1.53086e-12
2.5572623e-09
1.5900088e-12
2.5573699e-09
-1.6419032e-12
2.557261e-09
1.6868821e-12
2.557371e-09
-1.726205e-12
2.55726e-09
1.7614324e-12
2.5573705e-09
-1.778418e-12
2.5572571e-09
1.8165363e-12
2.5573686e-09
-1.8347021e-12
2.5572695e-09
1.693137e-12
2.5574326e-09
-2.3247185e-12
1.9119831e-12
2.5610959e-09
2.5461362e-08
2.8507063e-09
-2.4068595e-09
2.7305086e-09
2.1302396e-09
2.7387304e-09
-2.3263767e-10
2.7353467e-09
3.73016e-10
2.7433952e-09
-2.079007e-11
2.7410464e-09
6.3443973e-11
2.7403519e-09
1.785886e-11
2.7396644e-09
1.3766703e-11
2.7392708e-09
1.5595214e-12
2.7384665e-09
1.1540491e-11
2.739104e-09
-8.598812e-12
2.7386764e-09
7.1458979e-12
2.7388712e-09
-4.9129059e-12
2.7387829e-09
3.8173849e-12
2.7388597e-09
-3.3332968e-12
2.7388066e-09
2.8524119e-12
2.7388408e-09
-2.4308766e-12
2.73882e-09
2.0633597e-12
2.7388275e-09
-1.7038992e-12
2.7388305e-09
1.3838034e-12
2.7388167e-09
-1.0770077e-12
2.7388398e-09
7.9704682e-13
2.7388077e-09
-5.334585e-13
2.7388478e-09
2.9056758e-13
2.7388004e-09
-6.3491515e-14
2.7388543e-09
-1.4553863e-13
2.7387946e-09
3.3790274e-13
2.7388597e-09
-5.1464984e-13
2.7387897e-09
6.7698821e-13
2.738864e-09
-8.2559048e-13
2.7387858e-09
9.6225966e-13
2.7388675e-09
-1.0873618e-12
2.7387827e-09
1.2005877e-12
2.7388702e-09
-1.3037987e-12
2.7387803e-09
1.3975537e-12
2.7388723e-09
-1.4823174e-12
2.7387785e-09
1.5582898e-12
2.7388739e-09
-1.6262865e-12
2.7387771e-09
1.6867865e-12
2.738875e-09
-1.7397435e-12
2.7387763e-09
1.7855847e-12
2.7388758e-09
-1.825725e-12
2.7387757e-09
1.8615506e-12
2.738875e-09
-1.8777765e-12
2.7387729e-09
1.9186401e-12
2.7388726e-09
-1.9343578e-12
2.7387844e-09
1.7813504e-12
2.7389331e-09
-2.4734856e-12
2.0029439e-12
2.7053662e-09
2.6217621e-08
2.9858514e-09
-2.6873448e-09
2.8948965e-09
2.2211945e-09
2.9011671e-09
-2.3890823e-10
2.9074338e-09
3.6674928e-10
2.9161784e-09
-2.9534731e-11
2.9154335e-09
6.4188982e-11
2.9151279e-09
1.8164399e-11
2.9145922e-09
1.4302447e-11
2.914243e-09
1.9087453e-12
2.9135052e-09
1.2278296e-11
2.9141326e-09
-9.2262738e-12
2.9137194e-09
7.5591079e-12
2.9138862e-09
-5.0797122e-12
2.9138259e-09
3.877726e-12
2.9138724e-09
-3.3798063e-12
2.9138471e-09
2.8776785e-12
2.9138579e-09
-2.441719e-12
2.9138566e-09
2.0647172e-12
2.9138475e-09
-1.694857e-12
2.9138645e-09
1.3667995e-12
2.9138389e-09
-1.0514225e-12
2.9138717e-09
7.6426354e-13
2.913832e-09
-4.937444e-13
2.9138778e-09
2.4480122e-13
2.9138264e-09
-1.2089362e-14
2.9138827e-09
-2.0178401e-13
2.9138222e-09
3.9844312e-13
2.9138867e-09
-5.7918862e-13
2.9138185e-09
7.4520535e-13
2.9138898e-09
-8.9692146e-13
2.9138157e-09
1.0363727e-12
2.9138923e-09
-1.1639952e-12
2.9138135e-09
1.2794039e-12
2.9138942e-09
-1.3844992e-12
2.9138119e-09
1.4798893e-12
2.9138956e-09
-1.5660554e-12
2.9138107e-09
1.6432015e-12
2.9138966e-09
-1.7121928e-12
2.9138099e-09
1.7735298e-12
2.9138972e-09
-1.8270827e-12
2.9138094e-09
1.8733763e-12
2.9138977e-09
-1.9139957e-12
2.9138092e-09
1.9500802e-12
2.9138967e-09
-1.9653538e-12
2.9138066e-09
2.0087367e-12
2.9138938e-09
-2.0215542e-12
2.913817e-09
1.8581898e-12
2.9139501e-09
-2.6066311e-12
2.078487e-12
2.8512244e-09
2.6828021e-08
3.1172402e-09
-2.9533606e-09
3.0538712e-09
2.2845636e-09
3.0576388e-09
-2.4267593e-10
3.0733301e-09
3.5105802e-10
3.082682e-09
-3.8886576e-11
3.0833849e-09
6.3486101e-11
3.0834077e-09
1.8141559e-11
3.0830326e-09
1.467756e-11
3.082734e-09
2.2073617e-12
3.0820672e-09
1.2945148e-11
3.0826836e-09
-9.8427443e-12
3.0822775e-09
7.9652753e-12
3.0824174e-09
-5.2196573e-12
3.082386e-09
3.9091095e-12
3.0824037e-09
-3.39753e-12
3.0824033e-09
2.8780262e-12
3.0823938e-09
-2.4322128e-12
3.0824097e-09
2.0488525e-12
3.0823859e-09
-1.6710968e-12
3.0824153e-09
1.3374563e-12
3.0823795e-09
-1.0156553e-12
3.0824204e-09
7.2338215e-13
3.0823745e-09
-4.4786248e-13
3.0824246e-09
1.9469394e-13
3.0823706e-09
4.1955914e-14
3.0824279e-09
-2.5910582e-13
3.0823678e-09
4.5863062e-13
3.0824306e-09
-6.4206351e-13
3.0823653e-09
8.105343e-13
3.0824326e-09
-9.6423083e-13
3.0823636e-09
1.1054333e-12
3.0824342e-09
-1.2346118e-12
3.0823623e-09
1.3513164e-12
3.0824353e-09
-1.4574926e-12
3.0823614e-09
1.5537864e-12
3.082436e-09
-1.6406896e-12
3.0823608e-09
1.7184015e-12
3.0824365e-09
-1.787842e-12
3.0823605e-09
1.8495307e-12
3.0824366e-09
-1.903244e-12
3.0823604e-09
1.9496287e-12
3.0824368e-09
-1.9904048e-12
3.0823604e-09
2.0264151e-12
3.0824357e-09
-2.0405988e-12
3.0823582e-09
2.0862558e-12
3.0824324e-09
-2.0957846e-12
3.0823673e-09
1.9232275e-12
3.0824837e-09
-2.723027e-12
2.1385475e-12
2.9855876e-09
2.7304059e-08
3.2427484e-09
-3.2105214e-09
3.208748e-09
2.318564e-09
3.2086543e-09
-2.4258225e-10
3.2331234e-09
3.2658891e-10
3.2430148e-09
-4.8778039e-11
3.2449178e-09
6.1583185e-11
3.2452088e-09
1.7850563e-11
3.2449933e-09
1.4893031e-11
3.2447451e-09
2.4555425e-12
3.244152e-09
1.3538307e-11
3.2447475e-09
-1.0438263e-11
3.2443499e-09
8.3628561e-12
3.2444648e-09
-5.334574e-12
3.2444621e-09
3.9118699e-12
3.2444549e-09
-3.3904033e-12
3.2444759e-09
2.8569922e-12
3.2444483e-09
-2.4045793e-12
3.2444794e-09
2.0177006e-12
3.2444427e-09
-1.6343026e-12
3.2444827e-09
1.2974061e-12
3.2444383e-09
-9.7125583e-13
3.2444858e-09
6.7587978e-13
3.2444352e-09
-3.972423e-13
3.2444883e-09
1.4161986e-13
3.2444329e-09
9.7353183e-14
3.2444901e-09
-3.1628766e-13
3.2444314e-09
5.1731326e-13
3.2444916e-09
-7.0217229e-13
3.2444302e-09
8.719259e-13
3.2444925e-09
-1.0265188e-12
3.2444294e-09
1.1684802e-12
3.2444931e-09
-1.2983097e-12
3.244429e-09
1.4154734e-12
3.2444934e-09
-1.5219643e-12
3.2444287e-09
1.6184678e-12
3.2444935e-09
-1.7054793e-12
3.2444287e-09
1.783195e-12
3.2444935e-09
-1.8525843e-12
3.2444288e-09
1.9141736e-12
3.2444932e-09
-1.9676406e-12
3.2444291e-09
2.0137631e-12
3.2444931e-09
-2.0544047e-12
3.2444295e-09
2.0900496e-12
3.2444919e-09
-2.1030256e-12
3.2444275e-09
2.150676e-12
3.2444883e-09
-2.1566442e-12
3.2444354e-09
1.9761402e-12
3.2445341e-09
-2.8216961e-12
2.1831856e-12
3.1393078e-09
2.7626376e-08
3.3658272e-09
-3.4370408e-09
3.3585416e-09
2.3258496e-09
3.3550757e-09
-2.3911646e-10
3.3869442e-09
2.9472044e-10
3.3971831e-09
-5.901696e-11
3.4000385e-09
5.8727857e-11
3.4005426e-09
1.7346423e-11
3.4004772e-09
1.4958466e-11
3.4002744e-09
2.6583487e-12
3.3997577e-09
1.4055068e-11
3.4003195e-09
-1.1000138e-11
3.399939e-09
8.7434124e-12
3.4000319e-09
-5.4275598e-12
3.4000547e-09
3.8890761e-12
3.4000255e-09
-3.3612284e-12
3.4000651e-09
2.8173685e-12
3.4000213e-09
-2.3606991e-12
3.4000659e-09
1.9730672e-12
3.4000177e-09
-1.5861412e-12
3.4000669e-09
1.2482484e-12
3.4000154e-09
-9.1974907e-13
3.400068e-09
6.2323984e-13
3.4000141e-09
-3.4327597e-13
3.4000688e-09
8.6884481e-14
3.4000133e-09
1.5286361e-13
3.4000692e-09
-3.7215546e-13
3.4000132e-09
5.7337211e-13
3.4000694e-09
-7.5845501e-13
3.400013e-09
9.283804e-13
3.4000693e-09
-1.0828465e-12
3.4000132e-09
1.2246343e-12
3.4000691e-09
-1.3542469e-12
3.4000135e-09
1.4710786e-12
3.4000687e-09
-1.5771724e-12
3.4000139e-09
1.6732408e-12
3.4000682e-09
-1.759777e-12
3.4000145e-09
1.8369651e-12
3.4000677e-09
-1.9058295e-12
3.400015e-09
1.9669008e-12
3.4000671e-09
-2.0197494e-12
3.4000155e-09
2.0653099e-12
3.4000667e-09
-2.1055424e-12
3.4000162e-09
2.1405393e-12
3.4000654e-09
-2.1522432e-12
3.4000145e-09
2.2015932e-12
3.4000616e-09
-2.2037968e-12
3.4000211e-09
2.0166381e-12
3.4001013e-09
-2.9018428e-12
2.2126074e-12
3.2554063e-09
2.7832595e-08
3.4803441e-09
-3.6619786e-09
3.5040559e-09
2.3021378e-09
3.4983703e-09
-2.3343082e-10
3.5350509e-09
2.580398e-10
3.5452115e-09
-6.9177615e-11
3.5487584e-09
5.5181038e-11
3.5494157e-09
1.6689138e-11
3.5494852e-09
1.4888952e-11
3.5493167e-09
2.8268632e-12
3.5488852e-09
1.4486634e-11
3.5494033e-09
-1.1518277e-11
3.5490445e-09
9.1021692e-12
3.5491195e-09
-5.5025748e-12
3.5491642e-09
3.844427e-12
3.5491151e-09
-3.312156e-12
3.549171e-09
2.7614519e-12
3.5491126e-09
-2.3023479e-12
3.549169e-09
1.9166812e-12
3.5491111e-09
-1.5282338e-12
3.5491678e-09
1.1915589e-12
3.5491107e-09
-8.626337e-13
3.5491671e-09
5.6687427e-13
3.5491111e-09
-2.8731571e-13
3.5491662e-09
3.177347e-14
3.5491118e-09
2.0729053e-13
3.5491653e-09
-4.2559083e-13
3.5491129e-09
6.2576025e-13
3.5491644e-09
-8.0992502e-13
3.5491138e-09
9.7897189e-13
3.5491633e-09
-1.1323405e-12
3.5491148e-09
1.2730669e-12
3.5491623e-09
-1.4016626e-12
3.5491159e-09
1.5174266e-12
3.5491612e-09
-1.6224521e-12
3.5491169e-09
1.7174811e-12
3.5491602e-09
-1.8029983e-12
3.5491179e-09
1.8791775e-12
3.5491592e-09
-1.9470917e-12
3.5491188e-09
2.007263e-12
3.5491582e-09
-2.0591516e-12
3.5491197e-09
2.1038571e-12
3.5491576e-09
-2.1434393e-12
3.5491206e-09
2.1775523e-12
3.5491563e-09
-2.1879328e-12
3.5491192e-09
2.2386581e-12
3.5491524e-09
-2.2370156e-12
3.5491245e-09
2.0445493e-12
3.5491855e-09
-2.9628229e-12
2.227108e-12
3.4153634e-09
2.7878856e-08
3.5958821e-09
-3.8424974e-09
3.6439778e-09
2.2540422e-09
3.6383181e-09
-2.2777119e-10
3.6773008e-09
2.1905709e-10
3.6870456e-09
-7.8922407e-11
3.6910666e-09
5.116006e-11
3.6918268e-09
1.5928967e-11
3.6920154e-09
1.4700345e-11
3.6918722e-09
2.9700347e-12
3.6915369e-09
1.4821965e-11
3.6919985e-09
-1.1979829e-11
3.6916659e-09
9.4347649e-12
3.6917277e-09
-5.5644683e-12
3.6917903e-09
3.781841e-12
3.6917232e-09
-3.2450807e-12
3.6917934e-09
2.6912421e-12
3.6917223e-09
-2.2312564e-12
3.6917888e-09
1.8502305e-12
3.6917227e-09
-1.4621955e-12
3.6917854e-09
1.1288601e-12
3.6917242e-09
-8.0135731e-13
3.6917829e-09
5.0816872e-13
3.6917262e-09
-2.3063958e-13
3.6917805e-09
-2.2533007e-14
3.6917283e-09
2.5952246e-13
3.6917783e-09
-4.7554782e-13
3.6917306e-09
6.7349154e-13
3.6917763e-09
-8.5566422e-13
3.6917325e-09
1.0228471e-12
3.6917743e-09
-1.1742123e-12
3.6917343e-09
1.313056e-12
3.6917726e-09
-1.4398752e-12
3.6917361e-09
1.5538844e-12
3.6917709e-09
-1.6572286e-12
3.6917377e-09
1.7506664e-12
3.6917694e-09
-1.8346684e-12
3.6917391e-09
1.9093889e-12
3.691768e-09
-1.975955e-12
3.6917404e-09
2.0348779e-12
3.6917667e-09
-2.085501e-12
3.6917415e-09
2.1291144e-12
3.6917659e-09
-2.1678211e-12
3.6917426e-09
2.2008229e-12
3.6917645e-09
-2.2098792e-12
3.6917415e-09
2.2616493e-12
3.6917607e-09
-2.256143e-12
3.6917455e-09
2.0597385e-12
3.6917868e-09
-3.0041749e-12
2.2270981e-12
3.5298611e-09
2.781062e-08
3.700251e-09
-4.0128873e-09
3.7788387e-09
2.1754544e-09
3.7744178e-09
-2.2335033e-10
3.8136134e-09
1.7986154e-10
3.8226506e-09
-8.7959607e-11
3.8269549e-09
4.6855794e-11
3.8277746e-09
1.5109273e-11
3.828066e-09
1.4408953e-11
3.8279444e-09
3.0916059e-12
3.8277149e-09
1.5051551e-11
3.8281023e-09
-1.2367311e-11
3.8278026e-09
9.7345005e-12
3.8278565e-09
-5.6184611e-12
3.8279332e-09
3.7051577e-12
3.8278499e-09
-3.1617474e-12
3.8279325e-09
2.6085954e-12
3.8278504e-09
-2.1491392e-12
3.8279253e-09
1.7753378e-12
3.8278526e-09
-1.3895644e-12
3.8279199e-09
1.0616207e-12
3.8278558e-09
-7.3730018e-13
3.8279156e-09
4.483996e-13
3.8278595e-09
-1.7445863e-13
3.8279118e-09
-7.4898922e-14
3.8278628e-09
3.0851501e-13
3.8279084e-09
-5.2106191e-13
3.8278662e-09
7.1567938e-13
3.8279054e-09
-8.9485171e-13
3.827869e-09
1.0592483e-12
3.8279025e-09
-1.2077591e-12
3.8278717e-09
1.3439471e-12
3.8279001e-09
-1.468302e-12
3.827874e-09
1.5799266e-12
3.8278978e-09
-1.6810182e-12
3.8278761e-09
1.7723546e-12
3.8278959e-09
-1.8543856e-12
3.827878e-09
1.9272492e-12
3.8278942e-09
-1.9921193e-12
3.8278795e-09
2.0494825e-12
3.8278926e-09
-2.0985649e-12
3.8278809e-09
2.1408531e-12
3.8278915e-09
-2.1784929e-12
3.8278822e-09
2.2102056e-12
3.8278902e-09
-2.2179421e-12
3.8278815e-09
2.270402e-12
3.8278865e-09
-2.2611341e-12
3.827884e-09
2.0621955e-12
3.8279054e-09
-3.0255837e-12
2.2130458e-12
3.6870439e-09
2.7585201e-08
3.8093229e-09
-4.1351663e-09
3.9084429e-09
2.0763344e-09
3.9058144e-09
-2.2072183e-10
3.9437903e-09
1.418857e-10
3.9519602e-09
-9.6129603e-11
3.956402e-09
4.241404e-11
3.9572528e-09
1.4258506e-11
3.9576341e-09
1.4027651e-11
3.9575344e-09
3.1913165e-12
3.9574186e-09
1.5167402e-11
3.9577139e-09
-1.2662687e-11
3.9574552e-09
9.9932392e-12
3.9575056e-09
-5.6689376e-12
3.9575928e-09
3.6180018e-12
3.9574948e-09
-3.0638237e-12
3.9575882e-09
2.515245e-12
3.9574967e-09
-2.0576558e-12
3.9575785e-09
1.6935603e-12
3.9575007e-09
-1.3118358e-12
3.9575712e-09
9.9121494e-13
3.9575056e-09
-6.7175969e-13
3.9575652e-09
3.8878889e-13
3.9575107e-09
-1.1987958e-13
3.9575601e-09
-1.2432187e-13
3.9575153e-09
3.5333345e-13
3.9575555e-09
-5.6126526e-13
3.9575197e-09
7.5151923e-13
3.9575516e-09
-9.2675452e-13
3.9575233e-09
1.0875082e-12
3.957548e-09
-1.232381e-12
3.9575267e-09
1.3652104e-12
3.9575449e-09
-1.4864534e-12
3.9575297e-09
1.5951126e-12
3.9575421e-09
-1.6934396e-12
3.9575322e-09
1.7822169e-12
3.9575397e-09
-1.8618692e-12
3.9575345e-09
1.932508e-12
3.9575377e-09
-1.9953595e-12
3.9575363e-09