/*--------------------------------*- C++ -*----------------------------------*\
| =========                 |                                                 |
| \\      /  F ield         | OpenFOAM: The Open Source CFD Toolbox           |
|  \\    /   O peration     | Version:  2312                                  |
|   \\  /    A nd           | Website:  www.openfoam.com                      |
|    \\/     M anipulation  |                                                 |
\*---------------------------------------------------------------------------*/
FoamFile
{
    version     2.0;
    format      ascii;
    arch        "LSB;label=32;scalar=64";
    class       volScalarField;
    location    "2";
    object      T;
}
// * * * * * * * * * * * * * * * * * * * * * * * * * * * * * * * * * * * * * //

dimensions      [0 0 0 1 0 0 0];

internalField   nonuniform List<scalar> 
4000
(
330.19781
328.93299
328.69253
328.6304
328.55947
328.51216
328.46863
328.43059
328.39486
328.36156
328.32948
328.29858
328.26881
328.23936
328.21112
328.18269
328.15554
328.12784
328.10149
328.07434
328.04861
328.02188
327.99665
327.97025
327.94542
327.91929
327.89479
327.86889
327.84467
327.81899
327.79501
327.76952
327.74577
327.72047
327.69693
327.67182
327.64848
327.62355
327.6004
327.57564
327.5527
327.52808
327.50535
327.48083
327.45833
327.43387
327.41164
327.38711
327.36533
327.34011
332.35495
330.30513
329.64035
329.49933
329.33319
329.23738
329.153
329.08499
329.02398
328.97018
328.92009
328.87352
328.83034
328.7881
328.74953
328.71035
328.67501
328.63803
328.60512
328.56978
328.53873
328.50466
328.47509
328.44201
328.41363
328.38137
328.35398
328.32242
328.29587
328.26494
328.23912
328.20878
328.18362
328.15386
328.12933
328.10013
328.07619
328.04753
328.0242
327.99603
327.9733
327.94555
327.92346
327.89602
327.87462
327.84733
327.82675
327.79926
327.78003
327.75059
333.68726
331.6254
330.58045
330.36244
330.10357
329.95989
329.83524
329.73744
329.65143
329.57722
329.50927
329.44709
329.3906
329.33563
329.28679
329.23688
329.19341
329.14717
329.10773
329.06422
329.02788
328.98648
328.95258
328.91285
328.88094
328.84256
328.81228
328.77508
328.74619
328.71003
328.68234
328.64718
328.62059
328.58637
328.56081
328.52752
328.50296
328.47055
328.44699
328.41539
328.39283
328.36193
328.34043
328.31005
328.2897
328.25955
328.24058
328.2101
328.19336
328.15993
334.56818
332.84689
331.49919
331.2115
330.86541
330.6758
330.51232
330.38538
330.27504
330.18071
330.0953
330.0177
329.94816
329.88057
329.82163
329.7611
329.70962
329.6542
329.6083
329.5567
329.51511
329.46644
329.42827
329.38193
329.34651
329.30207
329.26892
329.22612
329.19488
329.15354
329.12397
329.08401
329.05595
329.0173
328.99067
328.9533
328.92806
328.8919
328.86804
328.833
328.81055
328.77647
328.75549
328.72213
328.70276
328.66971
328.65228
328.61878
328.60442
328.56731
335.17894
333.93238
332.37889
332.03538
331.61152
331.37975
331.18007
331.02532
330.89184
330.77803
330.67587
330.58327
330.50112
330.42119
330.35245
330.28149
330.22221
330.15776
330.10557
330.04599
329.99928
329.94346
329.90108
329.84824
329.80936
329.75896
329.72296
329.67464
329.64107
329.59463
329.56316
329.51846
329.48891
329.44588
329.41813
329.37671
329.35071
329.31083
329.28659
329.24811
329.22567
329.18839
329.16784
329.13146
329.11298
329.077
329.06101
329.02448
329.01231
328.97188
335.61528
334.85509
333.20091
332.82104
332.33326
332.06518
331.83334
331.65297
331.4982
331.366
331.24815
331.14122
331.04717
330.95535
330.8773
330.79624
330.7295
330.65628
330.59804
330.5307
330.47904
330.41624
330.3698
330.3106
330.26836
330.21213
330.17335
330.11965
330.08378
330.03234
329.99899
329.94965
329.91858
329.87125
329.84233
329.79693
329.77011
329.72653
329.70182
329.65991
329.63739
329.59691
329.57668
329.53726
329.51956
329.48062
329.46593
329.42638
329.41616
329.37276
335.93414
335.60458
333.94879
333.55488
333.02122
332.72476
332.46623
332.26344
332.0899
331.94094
331.80889
331.68864
331.58366
331.48064
331.39393
331.30329
331.22955
331.14795
331.084
331.00921
330.95286
330.88334
330.83302
330.7677
330.72225
330.66039
330.61892
330.56002
330.5219
330.46564
330.43042
330.3766
330.344
330.29249
330.26236
330.21306
330.18536
330.13815
330.11289
330.06759
330.04488
330.00121
329.98119
329.93873
329.92168
329.87977
329.86623
329.8237
329.81513
329.7691
336.17146
336.18334
334.61016
334.22436
333.66612
333.35088
333.07248
332.85144
332.66237
332.49882
332.3545
332.22231
332.10765
331.99438
331.89989
331.80034
331.72023
331.63078
331.56159
331.47977
331.41907
331.34319
331.28925
331.21811
331.16963
331.10241
331.0584
330.99454
330.95427
330.8934
330.85636
330.79824
330.76413
330.7086
330.67725
330.62419
330.59555
330.54481
330.51893
330.4703
330.44731
330.40048
330.38057
330.33507
330.31854
330.27367
330.26111
330.21568
330.20844
330.16004
336.35152
336.60593
335.17845
334.81966
334.25973
333.93628
333.64583
333.41157
333.21088
333.03547
332.88125
332.73882
332.61606
332.49374
332.39254
332.28497
332.19928
332.10265
332.02879
331.94048
331.87588
331.79408
331.73685
331.66029
331.60902
331.5368
331.49041
331.42191
331.37961
331.31441
331.27564
331.21347
331.17788
331.11855
331.08597
331.02933
330.99972
330.94559
330.91904
330.86717
330.84382
330.79389
330.77398
330.72549
330.70935
330.66157
330.6498
330.60155
330.59533
330.54479
336.4913
336.89477
335.65265
335.33496
334.79557
334.47454
334.18047
333.93867
333.7308
333.54673
333.38535
333.23476
333.10572
332.9758
332.86918
332.75468
332.66433
332.56136
332.48352
332.38941
332.32142
332.23427
332.17415
332.09264
332.03889
331.96208
331.91356
331.84078
331.79662
331.72743
331.68704
331.62112
331.58412
331.52125
331.48748
331.42747
331.3969
331.33954
331.31228
331.25732
331.23355
331.18062
331.16061
331.1092
331.09332
331.0427
331.03152
330.9806
330.97509
330.92257
336.60271
337.07655
336.03708
335.76906
335.26937
334.96069
334.67146
334.42813
334.21785
334.02869
333.86321
333.7068
333.57354
333.43772
333.32713
333.20695
333.11302
333.0047
332.9237
332.82456
332.7538
332.66195
332.59942
332.51352
332.45767
332.37675
332.32637
332.24977
332.20396
332.13117
332.08931
332.02
331.9817
331.9156
331.8807
331.81757
331.78608
331.72571
331.69774
331.63984
331.61561
331.55981
331.53963
331.48541
331.46967
331.41632
331.40556
331.3521
331.34705
331.29265
336.69433
337.17897
336.34026
336.12503
335.67933
335.39151
335.11509
334.87619
334.66837
334.47791
334.31155
334.15187
334.01661
333.87676
333.76382
333.63938
333.54307
333.43051
333.34725
333.24398
333.17115
333.07536
333.01096
332.92132
332.86377
332.77933
332.72742
332.64748
332.60028
332.52434
332.48121
332.4089
332.36945
332.30046
332.26454
332.19861
332.16624
332.10311
332.07446
332.01384
331.98915
331.93064
331.91024
331.85336
331.83765
331.78171
331.7712
331.71536
331.71054
331.65434
336.77194
337.22754
336.57353
336.40929
336.02622
335.76584
335.50915
335.28022
335.07956
334.89156
334.72759
334.5673
334.43238
334.29048
334.17689
334.04974
333.95233
333.83674
333.75221
333.64582
333.57169
333.47278
333.40711
333.31444
333.25568
333.16833
333.11526
333.03256
332.98425
332.90567
332.86149
332.78662
332.7462
332.67472
332.63792
332.56952
332.53639
332.4708
332.44152
332.37842
332.35328
332.29228
332.27164
332.21226
332.19652
332.13815
332.12775
332.0697
332.06495
332.00701
336.83955
337.24374
336.7493
336.6306
336.31325
336.08461
335.85306
335.63885
335.44961
335.26766
335.10923
334.95098
334.8187
334.6768
334.56431
334.43603
334.33887
334.22154
334.1368
334.02834
333.95373
333.85261
333.78632
333.6914
333.63193
333.54237
333.48854
333.40368
333.35459
333.27391
333.22895
333.15202
333.11084
333.0373
332.99979
332.92931
332.89554
332.82781
332.79801
332.7327
332.70717
332.64392
332.62304
332.56138
332.54555
332.48494
332.47455
332.41446
332.40968
332.35004
336.8997
337.24374
336.87983
336.79902
336.54563
336.35066
336.14785
335.95208
335.77783
335.60511
335.45511
335.3014
335.17397
335.03408
334.92441
334.79663
334.70107
334.58333
334.49944
334.39002
334.31579
334.2134
334.14717
334.05082
333.99119
333.90013
333.84599
333.75962
333.71011
333.62791
333.58246
333.50399
333.4623
333.38716
333.34914
333.27698
333.24275
333.17324
333.14303
333.07584
333.05
332.98477
332.96369
332.89999
332.88406
332.82143
332.81098
332.74903
332.74415
332.68289
336.95411
337.23858
336.97623
336.92485
336.72999
336.56841
336.39608
336.22123
336.06465
335.9038
335.7647
335.61779
335.49722
335.36124
335.25601
335.1303
335.03766
334.92083
334.83885
334.72959
334.65661
334.5539
334.48843
334.39149
334.33228
334.24047
334.18648
334.09927
334.04972
333.9666
333.92099
333.84151
333.79958
333.72333
333.68504
333.61163
333.57712
333.50622
333.47577
333.40703
333.381
333.31408
333.29286
333.2274
333.21137
333.14698
333.13644
333.07281
333.06781
333.00502
337.00376
337.23469
337.04798
337.01781
336.8737
336.74341
336.60148
336.44878
336.3116
336.16458
336.03829
335.9001
335.78812
335.65775
335.55842
335.43627
335.34777
335.23311
335.15408
335.04607
334.97517
334.87312
334.8091
334.71242
334.65419
334.56239
334.50903
334.42165
334.37246
334.28903
334.2436
334.16367
334.12179
334.04492
334.00662
333.93241
333.89785
333.82595
333.79544
333.72552
333.69943
333.63116
333.60989
333.54296
333.52689
333.46098
333.45036
333.38528
333.38015
333.31596
337.04936
337.23514
337.10259
337.08649
336.98425
336.88181
336.7687
336.63816
336.52112
336.38914
336.27701
336.14901
336.04698
335.92366
335.8315
335.71421
335.63096
335.51965
335.4445
335.3388
335.27077
335.1703
335.1084
335.01282
334.95613
334.86509
334.81282
334.72595
334.67754
334.59441
334.54951
334.46967
334.42816
334.35117
334.31313
334.23857
334.2042
334.13172
334.10135
334.03062
334.00464
333.93536
333.91417
333.84608
333.83003
333.76289
333.75223
333.68592
333.68071
333.61528
337.09126
337.24056
337.14574
337.13795
337.06869
336.98989
336.9029
336.79349
336.69637
336.57992
336.48266
336.36585
336.27475
336.15962
336.07562
335.96431
335.88724
335.78032
335.70988
335.60744
335.54301
335.445
335.38584
335.29216
335.23753
335.14798
335.09726
335.01157
334.96431
334.88209
334.83807
334.75887
334.71805
334.64142
334.60393
334.52947
334.49555
334.42289
334.3929
334.32174
334.29605
334.22612
334.20514
334.13622
334.1203
334.05223
334.04159
333.9743
333.96904
333.90257
337.12983
337.25043
337.18141
337.1777
337.13328
337.07364
337.00934
336.91924
336.84106
336.73994
336.65765
336.55255
336.47292
336.36678
336.29164
336.1872
336.11704
336.0154
335.95037
335.85203
335.79183
335.69707
335.64121
335.55016
335.49809
335.41071
335.36197
335.27807
335.23236
335.1516
335.10881
335.03077
334.99095
334.91517
334.87852
334.8046
334.77139
334.69897
334.66957
334.59837
334.57316
334.50295
334.48233
334.41294
334.39725
334.32856
334.31803
334.25002
334.24478
334.1775
337.1653
337.26355
337.21226
337.20978
337.18326
337.13849
337.09313
337.01999
336.95912
336.87257
336.80479
336.71146
336.64344
336.54675
336.48088
336.38393
336.3212
336.22552
336.16644
336.07292
336.01747
335.92666
335.87457
335.78681
335.73773
335.65313
335.60677
335.52524
335.48144
335.40268
335.36145
335.28505
335.24655
335.17207
335.13654
335.06357
335.03134
334.95956
334.93098
334.86012
334.8356
334.76546
334.74537
334.67584
334.66051
334.59153
334.5812
334.51277
334.5076
334.4398
337.19797
337.27877
337.23991
337.23695
337.22282
337.18906
337.15892
337.10013
337.05455
336.98134
336.92719
336.84527
336.78863
336.7015
336.64502
336.55592
336.50091
336.4117
336.35894
336.27078
336.22048
336.13419
336.08626
336.00236
335.95664
335.87538
335.83173
335.75308
335.71152
335.63523
335.59588
335.52156
335.48466
335.4119
335.37776
335.30616
335.27514
335.20439
335.17685
335.10671
335.08306
335.01337
334.99397
334.92465
334.90982
334.84086
334.83083
334.7623
334.75726
334.68923
337.22806
337.29503
337.26529
337.261
337.25511
337.22914
337.21078
337.1637
337.13117
337.0698
337.02804
336.95684
336.91103
336.83326
336.78601
336.70489
336.65768
336.57523
336.52899
336.44659
336.40169
336.32037
336.27688
336.19731
336.15523
336.07777
336.03713
335.96181
335.92276
335.84937
335.81216
335.74033
335.7053
335.63463
335.60214
335.53226
335.50269
335.43332
335.40705
335.33798
335.31538
335.24649
335.22793
335.15917
335.14496
335.07638
335.06674
334.99842
334.99357
334.92562
337.25584
337.31159
337.28888
337.28302
337.28237
337.26167
337.25208
337.21425
337.1925
337.14132
337.11049
337.04908
337.01327
336.94444
336.90602
336.83277
336.79321
336.71763
336.67794
336.60154
336.56217
336.48613
336.44727
336.37237
336.33415
336.26085
336.22344
336.15181
336.11551
336.04537
336.01054
335.94155
335.90861
335.84038
335.80975
335.74193
335.71402
335.64636
335.62154
335.55387
335.53251
335.46474
335.44718
335.37932
335.36585
335.29796
335.28882
335.22103
335.21642
335.1489
337.28149
337.32796
337.31091
337.30356
337.30615
337.28884
337.28555
337.25477
337.24165
337.19898
337.17753
337.12482
337.09801
337.03747
337.0073
336.9416
336.9094
336.84061
336.80734
336.73703
336.70319
336.6326
336.59844
336.52847
336.49422
336.42535
336.39134
336.32369
336.29031
336.22371
336.19145
336.12557
336.09493
336.02941
336.00084
335.93537
335.90929
335.84364
335.82043
335.75448
335.73449
335.66818
335.65173
335.58509
335.57247
335.50561
335.49704
335.43012
335.4258
335.35903
337.30524
337.34384
337.33149
337.32293
337.32744
337.3122
337.31327
337.2877
337.28128
337.24551
337.23189
337.1867
337.1678
337.11477
337.09211
337.03352
337.00822
336.94598
336.91888
336.85459
336.82615
336.76108
336.73159
336.66667
336.63645
336.57218
336.54164
336.47817
336.44784
336.38499
336.35544
336.2929
336.2647
336.20213
336.17577
336.11289
336.0888
336.02542
336.00397
335.94
335.92152
335.85693
335.84173
335.7766
335.76493
335.69941
335.69147
335.62574
335.62174
335.55606
337.32727
337.35909
337.35068
337.34122
337.34684
337.33281
337.33677
337.31495
337.31355
337.28325
337.27597
337.23715
337.22502
337.17865
337.16268
337.1106
337.09163
337.0356
337.01429
336.95584
336.93257
336.87296
336.84803
336.78818
336.76195
336.70237
336.67533
336.61614
336.58893
336.52996
336.50323
336.44417
336.41853
336.35908
336.33505
336.27496
336.25297
336.19208
336.17249
336.11074
336.09386
336.03128
336.01739
335.95406
335.9434
335.87951
335.87227
335.80804
335.80439
335.74011
337.34773
337.37366
337.36853
337.35847
337.36471
337.35137
337.35715
337.33796
337.34021
337.31413
337.31186
337.27829
337.27182
337.23121
337.22108
337.17486
337.16158
337.11131
337.09533
337.04243
337.02403
336.96972
336.94915
336.8943
336.87194
336.81704
336.79346
336.7386
336.71451
336.65949
336.63561
336.58015
336.55713
336.50092
336.47929
336.42214
336.40232
336.3441
336.32644
336.26712
336.25192
336.19155
336.17905
336.11777
336.10817
336.04618
336.03967
335.97722
335.97394
335.91137
337.36676
337.38752
337.3851
337.37468
337.38125
337.3683
337.37517
337.35779
337.36258
337.33971
337.34127
337.31194
337.3101
337.27439
337.26922
337.22819
337.21991
337.17489
337.16372
337.11601
337.1021
337.05284
337.03636
336.98636
336.96771
336.9174
336.89719
336.8466
336.8256
336.77454
336.7535
336.70167
336.68128
336.6284
336.6092
336.55508
336.53748
336.48206
336.46637
336.40965
336.39615
336.3382
336.32711
336.2681
336.2596
336.19975
336.19399
336.13359
336.13068
336.07009
337.38447
337.40069
337.40044
337.38984
337.39655
337.38386
337.39131
337.37518
337.38168
337.36118
337.3656
337.33964
337.34147
337.30985
337.30883
337.27229
337.26834
337.22801
337.22111
337.17817
337.16832
337.12379
337.11111
337.06572
337.05057
337.00468
336.98769
336.94129
336.92327
336.87611
336.85787
336.80965
336.79187
336.74233
336.72555
336.67454
336.65914
336.60662
336.59291
336.53891
336.52713
336.47175
336.46209
336.40553
336.39813
336.34063
336.33562
336.2775
336.27498
336.2166
337.40097
337.41318
337.41461
337.40396
337.41069
337.39819
337.40591
337.39063
337.39822
337.37946
337.38595
337.36263
337.36731
337.33904
337.3414
337.3087
337.3084
337.27221
337.26903
337.2304
337.22417
337.18402
337.17478
337.13373
337.12181
337.08013
337.06618
337.02379
337.00864
336.96526
336.94973
336.90505
336.88982
336.8436
336.82919
336.7813
336.76808
336.71851
336.70675
336.65556
336.64547
336.59279
336.58453
336.53057
336.52426
336.46929
336.46503
336.40937
336.40722
336.35127
337.41634
337.42499
337.42766
337.41704
337.42369
337.41137
337.41914
337.40449
337.41273
337.39525
337.40316
337.38188
337.38871
337.36317
337.36821
337.33876
337.34148
337.3089
337.30888
337.2741
337.27104
337.23487
337.2287
337.19167
337.1827
337.14497
337.13385
337.09527
337.08281
337.04307
337.03011
336.98887
336.97609
336.93312
336.92101
336.87621
336.8651
336.8185
336.80863
336.7603
336.75185
336.70196
336.69506
336.64382
336.63857
336.58626
336.58272
336.52968
336.5279
336.47454
337.43063
337.43611
337.43964
337.42908
337.43557
337.42344
337.43115
337.41698
337.42555
337.40901
337.41788
337.39816
337.40657
337.38321
337.39035
337.36359
337.36877
337.33928
337.34192
337.31053
337.31019
337.2776
337.27415
337.24078
337.23447
337.20039
337.19185
337.15684
337.14689
337.11058
337.10005
337.0621
337.05164
337.01183
337.0019
336.96014
336.95104
336.90739
336.89933
336.85388
336.847
336.79993
336.79434
336.74589
336.74165
336.69211
336.68925
336.63896
336.63753
336.58687
337.4439
337.44652
337.45056
337.44008
337.44635
337.43443
337.44198
337.42822
337.43692
337.42111
337.43057
337.41206
337.42158
337.39997
337.4087
337.38417
337.39129
337.36444
337.36925
337.34081
337.34277
337.31336
337.31226
337.2822
337.27824
337.2475
337.24129
337.20958
337.20194
337.16885
337.16056
337.12573
337.11744
337.08065
337.07276
337.03397
337.02676
336.986
336.97964
336.93706
336.93166
336.88743
336.88307
336.83745
336.83416
336.78744
336.78523
336.73775
336.73665
336.68879
337.45614
337.45616
337.46041
337.45003
337.45603
337.44434
337.4517
337.43831
337.44701
337.43179
337.44158
337.42402
337.4343
337.41408
337.42398
337.40127
337.40991
337.38527
337.39183
337.36593
337.36981
337.34319
337.34409
337.31697
337.31507
337.28735
337.28322
337.25453
337.24896
337.21885
337.21262
337.18071
337.17441
337.1405
337.13451
337.09855
337.09309
337.05516
337.05038
337.01061
337.00659
336.96518
336.96196
336.91917
336.91676
336.87288
336.87127
336.82665
336.82584
336.78084
337.46731
337.46495
337.46918
337.45891
337.46462
337.45319
337.46033
337.44732
337.45593
337.44121
337.45116
337.43435
337.44511
337.42602
337.43675
337.41554
337.42532
337.40253
337.41048
337.38675
337.39219
337.36798
337.37057
337.34605
337.34591
337.32089
337.31858
337.29262
337.28891
337.26153
337.25715
337.22796
337.22347
337.19227
337.18799
337.15475
337.15089
337.11568
337.11233
337.07531
337.07253
337.03391
337.03172
336.99174
336.99012
336.94909
336.94802
336.90625
336.90572
336.86357
337.47727
337.47278
337.47681
337.46671
337.47212
337.461
337.4679
337.45528
337.46375
337.44949
337.45947
337.44331
337.45435
337.43617
337.44746
337.42749
337.4381
337.41687
337.42588
337.40398
337.41067
337.38854
337.39252
337.37026
337.37163
337.34898
337.34826
337.32475
337.32267
337.29776
337.29503
337.26834
337.26546
337.23678
337.23405
337.20336
337.20094
337.16833
337.16628
337.13191
337.13025
337.09433
337.09306
337.05584
337.05494
337.01669
337.01611
336.97716
336.97688
336.93756
337.48578
337.47953
337.48329
337.47342
337.47854
337.46777
337.47445
337.46224
337.47055
337.45674
337.46666
337.45108
337.46223
337.44484
337.45647
337.43754
337.44872
337.42878
337.43859
337.41824
337.4259
337.40555
337.41066
337.39035
337.39298
337.3724
337.37304
337.35168
337.35102
337.32834
337.32704
337.30263
337.30117
337.27483
337.27347
337.24517
337.24402
337.21387
337.21296
337.18112
337.18046
337.14714
337.1467
337.11214
337.11186
337.07634
337.07619
337.04
337.03993
337.00338
337.49256
337.48507
337.48857
337.47903
337.48392
337.47354
337.48001
337.46824
337.47638
337.46302
337.47284
337.45778
337.46895
337.45223
337.46405
337.44598
337.45755
337.4387
337.44908
337.43002
337.43844
337.41957
337.42559
337.40693
337.4106
337.39182
337.3936
337.37414
337.37468
337.35398
337.35393
337.33157
337.33135
337.30714
337.30697
337.28089
337.28084
337.25301
337.25309
337.22366
337.22385
337.19302
337.19328
337.16129
337.16156
337.12866
337.12887
337.09535
337.09547
337.06161
337.49739
337.48935
337.49269
337.48359
337.48828
337.47835
337.48463
337.47334
337.48129
337.46841
337.47808
337.46353
337.47463
337.45852
337.47041
337.45309
337.46488
337.44694
337.45771
337.43974
337.44871
337.43109
337.43782
337.42057
337.42508
337.40782
337.41055
337.39273
337.3943
337.37534
337.37634
337.35582
337.35665
337.33438
337.33522
337.3112
337.31209
337.28641
337.28734
337.26016
337.26109
337.23261
337.23347
337.20392
337.20464
337.17426
337.17478
337.14381
337.14409
337.11281
337.50028
337.49239
337.49569
337.48714
337.4917
337.48228
337.48838
337.4776
337.48536
337.47297
337.48246
337.46842
337.47939
337.46385
337.47571
337.45905
337.47094
337.45378
337.46479
337.44773
337.45709
337.44051
337.44778
337.4317
337.43688
337.42091
337.42441
337.408
337.41041
337.39297
337.39485
337.37597
337.37767
337.35716
337.35884
337.33669
337.33837
337.31468
337.31631
337.29124
337.29277
337.2665
337.26786
337.24061
337.24171
337.2137
337.21448
337.18594
337.18634
337.15751
337.50151
337.49433
337.4977
337.48978
337.49425
337.48538
337.49132
337.48107
337.48864
337.47677
337.48606
337.47254
337.48333
337.46833
337.48007
337.46403
337.4759
337.45942
337.47055
337.45425
337.46387
337.44815
337.45582
337.44069
337.4464
337.43151
337.43562
337.4204
337.4235
337.40737
337.40997
337.39252
337.39495
337.376
337.37838
337.35792
337.36024
337.33837
337.34058
337.31745
337.31947
337.29526
337.29702
337.27192
337.27332
337.24754
337.24852
337.22227
337.22277
337.19625
337.50154
337.49538
337.49886
337.49163
337.49604
337.48774
337.49354
337.48383
337.49121
337.47987
337.48894
337.47594
337.48651
337.47205
337.48362
337.46813
337.47991
337.46402
337.47517
337.45951
337.46928
337.45426
337.46221
337.44787
337.45396
337.43996
337.44456
337.43033
337.43397
337.41896
337.42213
337.40594
337.40893
337.39137
337.3943
337.37536
337.3782
337.35798
337.36065
337.3393
337.34171
337.3194
337.32146
337.29836
337.3
337.27629
337.27743
337.2533
337.25388
337.22951
337.50088
337.49578
337.49935
337.49281
337.49717
337.48946
337.4951
337.48596
337.49313
337.48234
337.49116
337.4787
337.48902
337.47508
337.48642
337.47145
337.48307
337.46771
337.47879
337.46367
337.47349
337.45905
337.46717
337.45346
337.45984
337.44654
337.45151
337.4381
337.44216
337.4281
337.4317
337.41659
337.42003
337.40369
337.40704
337.38946
337.39268
337.37397
337.37697
337.35725
337.35994
337.33937
337.34167
337.3204
337.32221
337.30042
337.30167
337.27951
337.28015
337.25778
337.49991
337.49574
337.49934
337.49346
337.49775
337.49063
337.49611
337.48753
337.49448
337.48425
337.4928
337.48088
337.4909
337.47749
337.48854
337.47407
337.48547
337.47058
337.48152
337.46686
337.47665
337.46267
337.47088
337.45766
337.46423
337.4515
337.45673
337.44398
337.44835
337.43507
337.43901
337.42481
337.42858
337.4133
337.41696
337.40058
337.40409
337.38671
337.38996
337.3717
337.3746
337.3556
337.35806
337.33847
337.3404
337.32036
337.32169
337.30133
337.302
337.28147
337.49885
337.49544
337.49896
337.49369
337.49788
337.49133
337.49664
337.48862
337.49533
337.48565
337.49391
337.48253
337.49221
337.47932
337.49003
337.47605
337.48715
337.47269
337.48343
337.46916
337.47885
337.46523
337.47345
337.46061
337.46729
337.45499
337.4604
337.44818
337.45276
337.44013
337.44429
337.43087
337.43486
337.4205
337.42437
337.40905
337.41274
337.39655
337.39996
337.38301
337.38604
337.36847
337.37103
337.35295
337.35495
337.3365
337.33788
337.31916
337.31986
337.30099
337.49777
337.49497
337.49833
337.4936
337.49767
337.49166
337.49676
337.48929
337.49574
337.48661
337.49453
337.48369
337.493
337.48061
337.49094
337.47741
337.48816
337.4741
337.48456
337.47063
337.48015
337.46682
337.47499
337.46243
337.46915
337.45717
337.46268
337.45086
337.45557
337.44345
337.44776
337.43499
337.43912
337.42554
337.42953
337.41513
337.41893
337.40378
337.40728
337.3915
337.3946
337.3783
337.38091
337.36419
337.36623
337.34921
337.3506
337.33337
337.33408
337.31672
337.49669
337.49442
337.49754
337.49328
337.49718
337.49168
337.49656
337.48961
337.49576
337.48717
337.49472
337.48441
337.49329
337.48139
337.49127
337.47818
337.48851
337.47482
337.48495
337.4713
337.48059
337.46749
337.47553
337.46318
337.46987
337.45812
337.46366
337.45214
337.45692
337.44521
337.44958
337.43735
337.44154
337.42862
337.43267
337.41905
337.4229
337.40866
337.41219
337.39744
337.40055
337.38538
337.388
337.3725
337.37453
337.35879
337.36019
337.34428
337.34499
337.32898
337.49559
337.49381
337.49662
337.49278
337.49648
337.49145
337.49608
337.48964
337.49546
337.48738
337.49452
337.4847
337.4931
337.48167
337.49104
337.47836
337.48822
337.47486
337.48459
337.47119
337.48019
337.46726
337.47512
337.4629
337.46951
337.4579
337.46343
337.45212
337.4569
337.4455
337.44989
337.43808
337.44227
337.42991
337.43395
337.42101
337.42484
337.4114
337.41491
337.40105
337.40415
337.38997
337.39256
337.37814
337.38015
337.36555
337.36692
337.3522
337.35289
337.33809
337.49445
337.49314
337.49562
337.49215
337.49562
337.49102
337.49538
337.4894
337.49486
337.48726
337.49393
337.48458
337.49244
337.48144
337.49025
337.47795
337.48727
337.47421
337.48347
337.47029
337.47893
337.46614
337.47376
337.46162
337.46809
337.45657
337.46202
337.45085
337.45559
337.44441
337.44876
337.43729
337.44144
337.42953
337.43353
337.42116
337.42494
337.41217
337.41563
337.40255
337.4056
337.39228
337.39483
337.38135
337.38332
337.36972
337.37106
337.35738
337.35806
337.34433
337.49327
337.49244
337.49454
337.49141
337.49464
337.49043
337.49449
337.48893
337.49398
337.48681
337.49296
337.48404
337.49129
337.48069
337.48886
337.47691
337.48561
337.47284
337.48156
337.46857
337.47679
337.46411
337.47143
337.45934
337.46562
337.45413
337.45947
337.44837
337.45303
337.44201
337.44628
337.43507
337.43914
337.42761
337.43151
337.41963
337.42332
337.41114
337.41451
337.40211
337.40507
337.39251
337.39499
337.38233
337.38425
337.37153
337.37283
337.36007
337.36073
337.34794
337.49202
337.4917
337.49341
337.49058
337.49355
337.4897
337.49343
337.48824
337.49284
337.48604
337.49161
337.48305
337.48963
337.47938
337.48684
337.4752
337.48322
337.4707
337.47882
337.466
337.47374
337.46113
337.46811
337.45604
337.46208
337.4506
337.45577
337.4447
337.44924
337.43832
337.44249
337.43148
337.43544
337.4242
337.428
337.41652
337.42009
337.40841
337.41168
337.39985
337.40272
337.39082
337.39322
337.38127
337.38313
337.37117
337.37243
337.36047
337.36111
337.34914
337.49071
337.49092
337.4922
337.48968
337.49237
337.48884
337.4922
337.48733
337.4914
337.48491
337.48982
337.48156
337.48739
337.47743
337.48412
337.47275
337.48003
337.46772
337.47519
337.46251
337.46972
337.45718
337.46376
337.45169
337.45745
337.44594
337.45092
337.43985
337.44424
337.43339
337.43742
337.42656
337.43038
337.41939
337.42306
337.41191
337.41536
337.40409
337.40725
337.39592
337.39869
337.38735
337.38965
337.37833
337.38012
337.36883
337.37004
337.35877
337.35939
337.34813
337.48932
337.49009
337.49094
337.4887
337.4911
337.48785
337.4908
337.48615
337.48964
337.48336
337.48754
337.4795
337.48451
337.47478
337.48062
337.46948
337.47595
337.46384
337.47059
337.45805
337.46467
337.45219
337.45832
337.44625
337.45169
337.44015
337.4449
337.43382
337.43803
337.42721
337.43108
337.42034
337.42402
337.41322
337.41674
337.40587
337.40919
337.39828
337.40131
337.3904
337.39307
337.38221
337.38443
337.37364
337.37536
337.36464
337.36581
337.35514
337.35574
337.34509
337.48785
337.48922
337.4896
337.48765
337.48974
337.4867
337.48918
337.48467
337.48749
337.48132
337.48469
337.47678
337.4809
337.47133
337.47626
337.46531
337.4709
337.45898
337.46496
337.45254
337.45853
337.44611
337.45175
337.43968
337.44477
337.4332
337.43769
337.42658
337.4306
337.4198
337.4235
337.41284
337.41636
337.40573
337.4091
337.39847
337.40165
337.39103
337.39395
337.3834
337.38596
337.37552
337.37766
337.36732
337.36898
337.35875
337.35988
337.34973
337.3503
337.34019
337.48627
337.48831
337.48819
337.48654
337.48827
337.48537
337.48729
337.4828
337.48485
337.47868
337.48114
337.47327
337.47643
337.46695
337.47092
337.46011
337.4648
337.45303
337.45819
337.44591
337.45122
337.43888
337.44399
337.43194
337.43664
337.42505
337.42926
337.41814
337.42194
337.41115
337.41468
337.40409
337.40744
337.39695
337.40017
337.38974
337.39278
337.38243
337.38522
337.37499
337.37745
337.36737
337.36942
337.35949
337.36108
337.35128
337.35236
337.34266
337.34321
337.33356
337.48458
337.48737
337.4867
337.48534
337.48666
337.48379
337.48504
337.48042
337.4816
337.47529
337.47677
337.46883
337.47097
337.46153
337.46449
337.45379
337.45752
337.4459
337.45022
337.43808
337.44267
337.43043
337.43499
337.42298
337.42727
337.41568
337.41959
337.40846
337.41203
337.40128
337.40461
337.3941
337.39728
337.38692
337.38998
337.37974
337.38264
337.37253
337.3752
337.36525
337.36761
337.35784
337.35982
337.35023
337.35177
337.34233
337.34338
337.33407
337.3346
337.32534
337.48277
337.48642
337.48513
337.48405
337.48484
337.48185
337.48229
337.47738
337.47757
337.471
337.47141
337.46332
337.46439
337.45492
337.45684
337.44621
337.44898
337.4375
337.44095
337.42896
337.43283
337.42071
337.42469
337.41276
337.41661
337.40507
337.40866
337.39756
337.40089
337.39017
337.39331
337.38288
337.38589
337.37566
337.37857
337.3685
337.37127
337.36137
337.36394
337.35423
337.35651
337.34702
337.34893
337.33964
337.34113
337.33202
337.33303
337.32405
337.32457
337.31566
337.48081
337.48548
337.48346
337.48263
337.48271
337.47942
337.47889
337.4735
337.47258
337.46561
337.46488
337.45656
337.45652
337.44697
337.44784
337.43728
337.43907
337.42773
337.43031
337.4185
337.42163
337.40968
337.41306
337.40126
337.40465
337.3932
337.39645
337.38542
337.3885
337.37785
337.38079
337.37046
337.3733
337.3632
337.36597
337.35607
337.35872
337.34902
337.35148
337.34201
337.3442
337.33497
337.33682
337.3278