/*--------------------------------*- C++ -*----------------------------------*\
| =========                 |                                                 |
| \\      /  F ield         | OpenFOAM: The Open Source CFD Toolbox           |
|  \\    /   O peration     | Version:  2312                                  |
|   \\  /    A nd           | Website:  www.openfoam.com                      |
|    \\/     M anipulation  |                                                 |
\*---------------------------------------------------------------------------*/
FoamFile
{
    version     2.0;
    format      ascii;
    arch        "LSB;label=32;scalar=64";
    class       surfaceScalarField;
    location    "7";
    object      phi_0;
}
// * * * * * * * * * * * * * * * * * * * * * * * * * * * * * * * * * * * * * //

dimensions      [0 3 -1 0 0 0 0];

oriented        oriented;

internalField   nonuniform List<scalar> 
7870
(
1.017618e-10
2.3559882e-09
1.0154473e-10
2.1707318e-13
9.4554912e-11
6.9898187e-12
9.3961023e-11
5.9389153e-13
9.50889e-11
-1.1278778e-12
9.3655516e-11
1.4333843e-12
9.4990907e-11
-1.335391e-12
9.371046e-11
1.2804471e-12
9.491931e-11
-1.208851e-12
9.3778175e-11
1.1411356e-12
9.4851788e-11
-1.0736137e-12
9.3840235e-11
1.011553e-12
9.4792066e-11
-9.5183133e-13
9.3895646e-11
8.9641994e-13
9.4739591e-11
-8.439446e-13
9.3944672e-11
7.9491862e-13
9.4693431e-11
-7.487584e-13
9.3987899e-11
7.0553149e-13
9.4652819e-11
-6.6491935e-13
9.4025941e-11
6.2687827e-13
9.4617117e-11
-5.9117638e-13
9.4059363e-11
5.5775414e-13
9.4585777e-11
-5.2641409e-13
9.4088672e-11
4.9710459e-13
9.4558321e-11
-4.6964848e-13
9.4114315e-11
4.4400571e-13
9.4534331e-11
-4.2001583e-13
9.4136682e-11
3.9764907e-13
9.4513442e-11
-3.767607e-13
9.4156113e-11
3.5732906e-13
9.4495338e-11
-3.3922468e-13
9.4172906e-11
3.2243201e-13
9.4479742e-11
-3.068364e-13
9.4187316e-11
2.9242673e-13
9.4466418e-11
-2.7910268e-13
9.4199562e-11
2.6685631e-13
9.4455163e-11
-2.5560103e-13
9.4209832e-11
2.4533108e-13
9.4445805e-11
-2.3597308e-13
9.4218282e-11
2.2752263e-13
9.4438202e-11
-2.199192e-13
9.4225043e-11
2.1315883e-13
9.4432236e-11
-2.0719287e-13
9.4230211e-11
2.0202495e-13
9.4427798e-11
-1.9758683e-13
9.4233856e-11
1.9394137e-13
9.4425061e-11
-1.9120522e-13
9.4237687e-11
1.8737425e-13
9.4430806e-11
-1.9311834e-13
1.7964503e-13
2.7861775e-10
4.5351204e-09
2.9241882e-10
-1.3583996e-11
2.7444297e-10
2.4965664e-11
2.7368108e-10
1.3557896e-12
2.7494237e-10
-2.3891657e-12
2.7288322e-10
3.4925267e-12
2.7477291e-10
-3.2250739e-12
2.7294169e-10
3.1116588e-12
2.7467901e-10
-2.9461719e-12
2.7303664e-10
2.783513e-12
2.7458167e-10
-2.61865e-12
2.7312491e-10
2.468312e-12
2.7449523e-10
-2.3221497e-12
2.7320444e-10
2.1872165e-12
2.7441957e-10
-2.0590807e-12
2.7327502e-10
1.9394743e-12
2.7435313e-10
-1.826876e-12
2.7333731e-10
1.7213552e-12
2.7429471e-10
-1.6223227e-12
2.7339215e-10
1.5294462e-12
2.7424336e-10
-1.4423934e-12
2.7344033e-10
1.3607916e-12
2.7419828e-10
-1.2843734e-12
2.7348258e-10
1.212814e-12
2.7415879e-10
-1.1458636e-12
2.7351954e-10
1.0832578e-12
2.7412428e-10
-1.024757e-12
2.7355178e-10
9.7015027e-13
2.7409423e-10
-9.1921041e-13
2.7357979e-10
8.7176996e-13
2.7406818e-10
-8.2761728e-13
2.7360399e-10
7.866196e-13
2.7404574e-10
-7.4858337e-13
2.7362476e-10
7.1340311e-13
2.7402657e-10
-6.809052e-13
2.7364242e-10
6.5100554e-13
2.7401037e-10
-6.2355156e-13
2.7365722e-10
5.9847587e-13
2.739969e-10
-5.7564762e-13
2.7366941e-10
5.5501228e-13
2.7398595e-10
-5.3646167e-13
2.7367916e-10
5.1994961e-13
2.7397736e-10
-5.0539054e-13
2.7368661e-10
4.9276618e-13
2.7397093e-10
-4.8190455e-13
2.7369181e-10
4.7306631e-13
2.7396688e-10
-4.6627604e-13
2.73698e-10
4.5625554e-13
2.7398155e-10
-4.7667009e-13
4.3660605e-13
4.5011332e-10
6.5427571e-09
4.7657205e-10
-4.0042719e-11
4.4930568e-10
5.2232032e-11
4.4911423e-10
1.5472449e-12
4.4976583e-10
-3.0407703e-12
4.478621e-10
5.3962639e-12
4.4960047e-10
-4.9634482e-12
4.4789509e-10
4.8170374e-12
4.4952785e-10
-4.5789279e-12
4.4798141e-10
4.3299497e-12
4.4943616e-10
-4.0733968e-12
4.4806315e-10
3.8413222e-12
4.4935412e-10
-3.6131287e-12
4.4813773e-10
3.403611e-12
4.492827e-10
-3.2040476e-12
4.4820422e-10
3.0179498e-12
4.4922013e-10
-2.8427805e-12
4.4826299e-10
2.678495e-12
4.4916515e-10
-2.5244831e-12
4.4831473e-10
2.3798593e-12
4.4911683e-10
-2.2444867e-12
4.483602e-10
2.1174171e-12
4.4907441e-10
-1.9985791e-12
4.4840007e-10
1.8871495e-12
4.4903724e-10
-1.7830299e-12
4.4843495e-10
1.685545e-12
4.4900475e-10
-1.594561e-12
4.4846537e-10
1.5095335e-12
4.4897647e-10
-1.4303043e-12
4.484918e-10
1.3564363e-12
4.4895194e-10
-1.2877597e-12
4.4851464e-10
1.2239236e-12
4.4893081e-10
-1.1647572e-12
4.4853424e-10
1.1099785e-12
4.4891275e-10
-1.0594237e-12
4.4855089e-10
1.0128657e-12
4.488975e-10
-9.7015392e-13
4.4856487e-10
9.3110476e-13
4.4888481e-10
-8.955854e-13
4.4857637e-10
8.6344674e-13
4.4887449e-10
-8.3457803e-13
4.4858558e-10
8.0885388e-13
4.4886638e-10
-7.8618938e-13
4.4859263e-10
7.6651683e-13
4.4886028e-10
-7.4955248e-13
4.4859747e-10
7.3587871e-13
4.4885634e-10
-7.2514923e-13
4.4860439e-10
7.0820667e-13
4.488789e-10
-7.511811e-13
6.76847e-13
6.1296998e-10
8.3875371e-09
6.5414093e-10
-8.1213669e-11
6.1957382e-10
8.6799136e-11
6.1983681e-10
1.2842642e-12
6.1994993e-10
-3.1538977e-12
6.1822567e-10
7.1205329e-12
6.1981959e-10
-6.5573726e-12
6.1824629e-10
6.3903356e-12
6.1977235e-10
-6.1049845e-12
6.1832534e-10
5.7769612e-12
6.1968676e-10
-5.4348221e-12
6.1840053e-10
5.1275518e-12
6.1960934e-10
-4.8219424e-12
6.1847002e-10
4.5429304e-12
6.195423e-10
-4.2763205e-12
6.1853226e-10
4.0279871e-12
6.1948371e-10
-3.7942296e-12
6.1858734e-10
3.5748635e-12
6.1943227e-10
-3.3694096e-12
6.1863586e-10
3.1762658e-12
6.1938706e-10
-2.9956877e-12
6.186785e-10
2.8259843e-12
6.1934737e-10
-2.6674577e-12
6.1871588e-10
2.5186454e-12
6.1931259e-10
-2.3797453e-12
6.1874858e-10
2.2495597e-12
6.1928219e-10
-2.1281759e-12
6.187771e-10
2.0146293e-12
6.1925572e-10
-1.9089216e-12
6.1880187e-10
1.8102791e-12
6.1923276e-10
-1.7186453e-12
6.1882328e-10
1.6333997e-12
6.1921297e-10
-1.5544502e-12
6.1884165e-10
1.4812988e-12
6.1919607e-10
-1.4138356e-12
6.1885727e-10
1.3516598e-12
6.1918178e-10
-1.2946578e-12
6.1887038e-10
1.2425058e-12
6.1916989e-10
-1.1950967e-12
6.1888117e-10
1.1521679e-12
6.1916022e-10
-1.113628e-12
6.1888981e-10
1.0792563e-12
6.1915261e-10
-1.0489876e-12
6.1889644e-10
1.0226911e-12
6.1914684e-10
-9.9995697e-13
6.1890091e-10
9.8181082e-13
6.1914295e-10
-9.6718642e-13
6.1890815e-10
9.4300061e-13
6.1917149e-10
-1.014516e-12
9.0069124e-13
7.7472659e-10
1.0070561e-08
8.2555789e-10
-1.3204497e-10
7.8514881e-10
1.2720821e-10
7.858401e-10
5.9297664e-13
7.8549399e-10
-2.8077824e-12
7.8397452e-10
8.6399977e-12
7.8543011e-10
-8.0129646e-12
7.8399485e-10
7.8255997e-12
7.8541223e-10
-7.5223663e-12
7.8406798e-10
7.1212163e-12
7.8533324e-10
-6.7000877e-12
7.8413668e-10
6.3241152e-12
7.8526067e-10
-5.9459369e-12
7.8420096e-10
5.602637e-12
7.8519817e-10
-5.2735283e-12
7.8425881e-10
4.9673481e-12
7.851437e-10
-4.679119e-12
7.8431008e-10
4.4084811e-12
7.8509591e-10
-4.1552364e-12
7.8435527e-10
3.9169108e-12
7.8505392e-10
-3.694341e-12
7.8439497e-10
3.4849361e-12
7.8501705e-10
-3.2895399e-12
7.8442978e-10
3.1059181e-12
7.8498474e-10
-2.9347037e-12
7.8446022e-10
2.7740709e-12
7.8495649e-10
-2.6244394e-12
7.8448678e-10
2.4843409e-12
7.8493188e-10
-2.3540261e-12
7.8450984e-10
2.2323193e-12
7.8491054e-10
-2.1193481e-12
7.8452977e-10
2.0141715e-12
7.8489215e-10
-1.9168326e-12
7.8454687e-10
1.8265772e-12
7.8487643e-10
-1.7433946e-12
7.8456141e-10
1.6666788e-12
7.8486315e-10
-1.596389e-12
7.8457361e-10
1.5320368e-12
7.8485209e-10
-1.4735691e-12
7.8458366e-10
1.4205903e-12
7.8484309e-10
-1.3730514e-12
7.8459172e-10
1.3306192e-12
7.8483601e-10
-1.2932685e-12
7.8459791e-10
1.2607891e-12
7.8483059e-10
-1.2326393e-12
7.8460201e-10
1.2103895e-12
7.8482672e-10
-1.191898e-12
7.8460931e-10
1.1604121e-12
7.8485968e-10
-1.2648868e-12
1.1070938e-12
9.2473698e-10
1.1603574e-08
9.8964274e-10
-1.9695071e-10
9.4609126e-10
1.7075969e-10
9.4710875e-10
-4.2451157e-13
9.4639629e-10
-2.0953221e-12
9.4510985e-10
9.9264415e-12
9.4643331e-10
-9.3364328e-12
9.4514059e-10
9.1183196e-12
9.4644799e-10
-8.8297597e-12
9.4520905e-10
8.3601557e-12
9.46376e-10
-7.867046e-12
9.4527133e-10
7.4287849e-12
9.4630847e-10
-6.9830689e-12
9.4533032e-10
6.5807772e-12
9.4625064e-10
-6.1938408e-12
9.4538367e-10
5.8343117e-12
9.4620038e-10
-5.4958236e-12
9.4543103e-10
5.1778253e-12
9.4615632e-10
-4.8805227e-12
9.4547279e-10
4.6004451e-12
9.4611761e-10
-4.3391689e-12
9.4550948e-10
4.0930751e-12
9.4608363e-10
-3.8636914e-12
9.4554164e-10
3.6479038e-12
9.4605384e-10
-3.4468978e-12
9.4556977e-10
3.2581328e-12
9.4602779e-10
-3.0824553e-12
9.455943e-10
2.917826e-12
9.460051e-10
-2.7648193e-12
9.4561561e-10
2.6218054e-12
9.4598542e-10
-2.4891555e-12
9.4563402e-10
2.3655672e-12
9.4596846e-10
-2.2512666e-12
9.4564982e-10
2.1452114e-12
9.4595396e-10
-2.047528e-12
9.4566325e-10
1.9573807e-12
9.459417e-10
-1.8748315e-12
9.4567453e-10
1.799208e-12
9.4593149e-10
-1.7305354e-12
9.4568381e-10
1.6682694e-12
9.4592318e-10
-1.6124226e-12
9.4569127e-10
1.5625365e-12
9.4591664e-10
-1.5186422e-12
9.4569699e-10
1.4804363e-12
9.459116e-10
-1.4472436e-12
9.4570072e-10
1.4212636e-12
9.4590776e-10
-1.3989358e-12
9.4570787e-10
1.3603008e-12
9.4594377e-10
-1.5007823e-12
1.2951632e-12
1.0749989e-09
1.2986325e-08
1.1482605e-09
-2.7021232e-10
1.1023947e-09
2.1662551e-10
1.1035992e-09
-1.6290281e-12
1.1026517e-09
-1.1477662e-12
1.1016326e-09
1.0945535e-11
1.1028304e-09
-1.0534296e-11
1.1016833e-09
1.0265429e-11
1.1028801e-09
-1.0026521e-11
1.1017482e-09
9.4920605e-12
1.1028154e-09
-8.9342879e-12
1.1018042e-09
8.4400358e-12
1.102753e-09
-7.931959e-12
1.1018578e-09
7.4760208e-12
1.1027e-09
-7.0360148e-12
1.1019066e-09
6.6277088e-12
1.102654e-09
-6.243238e-12
1.10195e-09
5.8818624e-12
1.1026137e-09
-5.5442874e-12
1.1019882e-09
5.2259524e-12
1.1025783e-09
-4.9293012e-12
1.1020218e-09
4.6495879e-12
1.1025473e-09
-4.3891401e-12
1.1020513e-09
4.14388e-12
1.1025201e-09
-3.9156416e-12
1.1020771e-09
3.7011025e-12
1.1024962e-09
-3.5016138e-12
1.1020996e-09
3.3145121e-12
1.1024755e-09
-3.1407582e-12
1.1021191e-09
2.9782267e-12
1.1024575e-09
-2.8275827e-12
1.1021359e-09
2.6871303e-12
1.102442e-09
-2.5573185e-12
1.1021504e-09
2.4367922e-12
1.1024287e-09
-2.3258469e-12
1.1021627e-09
2.2233974e-12
1.1024175e-09
-2.1296348e-12
1.102173e-09
2.0436871e-12
1.1024082e-09
-1.9656784e-12
1.1021815e-09
1.8949037e-12
1.1024006e-09
-1.8314535e-12
1.1021884e-09
1.7747334e-12
1.1023946e-09
-1.7248458e-12
1.1021936e-09
1.6813806e-12
1.1023899e-09
-1.6435336e-12
1.102197e-09
1.6141974e-12
1.1023861e-09
-1.58808e-12
1.1022038e-09
1.5426056e-12
1.102424e-09
-1.7209512e-12
1.4644445e-12
1.2165553e-09
1.4227519e-08
1.2994051e-09
-3.5306209e-10
1.2540764e-09
2.6195419e-10
1.2552796e-09
-2.8321526e-12
1.2542511e-09
-1.1935155e-13
1.2535446e-09
1.165212e-11
1.2546234e-09
-1.1613157e-11
1.2536232e-09
1.1265639e-11
1.254709e-09
-1.1112345e-11
1.253685e-09
1.0516034e-11
1.2546518e-09
-9.9010194e-12
1.2537348e-09
9.3569705e-12
1.2545947e-09
-8.7918083e-12
1.2537831e-09
8.2875864e-12
1.2545464e-09
-7.7993232e-12
1.2538273e-09
7.3468559e-12
1.2545048e-09
-6.9207137e-12
1.2538666e-09
6.5199887e-12
1.2544683e-09
-6.145955e-12
1.2539014e-09
5.7928974e-12
1.2544363e-09
-5.4642273e-12
1.2539319e-09
5.1539994e-12
1.2544082e-09
-4.865433e-12
1.2539586e-09
4.5934246e-12
1.2543835e-09
-4.3405331e-12
1.253982e-09
4.1026049e-12
1.254362e-09
-3.8815574e-12
1.2540024e-09
3.6740652e-12
1.2543432e-09
-3.4815248e-12
1.2540201e-09
3.3012856e-12
1.2543269e-09
-3.1343465e-12
1.2540354e-09
2.9785952e-12
1.2543128e-09
-2.8347355e-12
1.2540485e-09
2.7010819e-12
1.2543008e-09
-2.5781247e-12
1.2540597e-09
2.4645158e-12
1.2542907e-09
-2.3605957e-12
1.2540691e-09
2.2652823e-12
1.2542822e-09
-2.1788151e-12
1.2540768e-09
2.10032e-12
1.2542753e-09
-2.0299786e-12
1.254083e-09
1.9670536e-12
1.2542699e-09
-1.91173e-12
1.2540878e-09
1.8634804e-12
1.2542656e-09
-1.8213797e-12
1.2540908e-09
1.7890585e-12
1.2542619e-09
-1.7592227e-12
1.2540972e-09
1.7073367e-12
1.2543006e-09
-1.9243705e-12
1.6148174e-12
1.3548417e-09
1.5330428e-08
1.4455489e-09
-4.4376938e-10
1.401183e-09
3.0632015e-10
1.4021276e-09
-3.7767557e-12
1.4011898e-09
8.184287e-13
1.4008478e-09
1.1994076e-11
1.4018142e-09
-1.257952e-11
1.4009607e-09
1.2119119e-11
1.4019355e-09
-1.2087088e-11
1.4010195e-09
1.1431973e-11
1.4018854e-09
-1.0766935e-11
1.4010632e-09
1.017926e-11
1.4018337e-09
-9.5623153e-12
1.4011061e-09
9.0151761e-12
1.4017902e-09
-8.4834885e-12
1.4011456e-09
7.9914945e-12
1.4017529e-09
-7.5280017e-12
1.4011809e-09
7.0919768e-12
1.4017202e-09
-6.685304e-12
1.4012121e-09
6.3010787e-12
1.4016916e-09
-5.943751e-12
1.4012395e-09
5.606131e-12
1.4016664e-09
-5.2923965e-12
1.4012635e-09
4.996379e-12
1.4016444e-09
-4.7214187e-12
1.4012845e-09
4.4624993e-12
1.4016251e-09
-4.2221508e-12
1.4013028e-09
3.9963607e-12
1.4016082e-09
-3.7869994e-12
1.4013186e-09
3.5908718e-12
1.4015936e-09
-3.4093411e-12
1.4013324e-09
3.2398641e-12
1.4015811e-09
-3.083424e-12
1.4013441e-09
2.9379939e-12
1.4015703e-09
-2.8042789e-12
1.4013542e-09
2.6806594e-12
1.4015612e-09
-2.5676412e-12
1.4013626e-09
2.463926e-12
1.4015536e-09
-2.3698814e-12
1.4013695e-09
2.2844592e-12
1.4015475e-09
-2.2079423e-12
1.4013751e-09
2.1394459e-12
1.4015426e-09
-2.0792474e-12
1.4013794e-09
2.0266928e-12
1.4015387e-09
-1.9807479e-12
1.401382e-09
1.9458075e-12
1.4015351e-09
-1.9123543e-12
1.4013879e-09
1.85457e-12
1.4015737e-09
-2.110221e-12
1.7463928e-12
1.4902701e-09
1.6297908e-08
1.5842277e-09
-5.3772706e-10
1.543634e-09
3.4691386e-10
1.544231e-09
-4.3737449e-12
1.5434846e-09
1.5648179e-12
1.543543e-09
1.1935715e-11
1.5444031e-09
-1.3439648e-11
1.5436955e-09
1.2826718e-11
1.5445596e-09
-1.2951193e-11
1.5437513e-09
1.2240271e-11
1.5445166e-09
-1.1532249e-11
1.5437889e-09
1.0907055e-11
1.5444702e-09
-1.0243635e-11
1.5438264e-09
9.658921e-12
1.5444316e-09
-9.0886377e-12
1.5438613e-09
8.5617465e-12
1.5443985e-09
-8.0652111e-12
1.5438926e-09
7.5979363e-12
1.5443697e-09
-7.1624307e-12
1.5439202e-09
6.7505942e-12
1.5443444e-09
-6.3679583e-12
1.5439445e-09
6.0060698e-12
1.5443222e-09
-5.6701079e-12
1.5439657e-09
5.3528213e-12
1.5443027e-09
-5.0583684e-12
1.5439843e-09
4.780856e-12
1.5442856e-09
-4.5234574e-12
1.5440005e-09
4.2814624e-12
1.5442708e-09
-4.0572401e-12
1.5440146e-09
3.8470434e-12
1.5442579e-09
-3.6526201e-12
1.5440267e-09
3.4709904e-12
1.5442468e-09
-3.303434e-12
1.5440372e-09
3.1475782e-12
1.5442372e-09
-3.0043565e-12
1.544046e-09
2.871875e-12
1.5442292e-09
-2.7508164e-12
1.5440535e-09
2.6396633e-12
1.5442225e-09
-2.538921e-12
1.5440596e-09
2.4473654e-12
1.544217e-09
-2.365388e-12
1.5440645e-09
2.2919551e-12
1.5442127e-09
-2.2274429e-12
1.5440684e-09
2.1710646e-12
1.5442093e-09
-2.1216909e-12
1.5440706e-09
2.0844897e-12
1.5442058e-09
-2.0475528e-12
1.5440759e-09
1.9844429e-12
1.5442436e-09
-2.2778682e-12
1.8594587e-12
1.6162814e-09
1.7139376e-08
1.71797e-09
-6.3941569e-10
1.6813466e-09
3.8353731e-10
1.6817615e-09
-4.7886208e-12
1.681215e-09
2.1112552e-12
1.681642e-09
1.1508688e-11
1.6823936e-09
-1.4191168e-11
1.681828e-09
1.3392248e-11
1.6825819e-09
-1.3705087e-11
1.6818803e-09
1.2941922e-11
1.6825456e-09
-1.2197599e-11
1.6819117e-09
1.1540951e-11
1.6825044e-09
-1.083633e-11
1.681944e-09
1.0219342e-11
1.6824706e-09
-9.615262e-12
1.6819743e-09
9.058078e-12
1.6824419e-09
-8.532775e-12
1.6820015e-09
8.038282e-12
1.6824168e-09
-7.5777188e-12
1.6820256e-09
7.1418121e-12
1.6823948e-09
-6.7371904e-12
1.6820467e-09
6.3541433e-12
1.6823755e-09
-5.9988715e-12
1.6820653e-09
5.6630433e-12
1.6823586e-09
-5.3516541e-12
1.6820815e-09
5.0579359e-12
1.6823438e-09
-4.7857211e-12
1.6820956e-09
4.5296041e-12
1.6823308e-09
-4.2924665e-12
1.6821079e-09
4.070011e-12
1.6823196e-09
-3.8643819e-12
1.6821185e-09
3.6721648e-12
1.68231e-09
-3.4949458e-12
1.6821275e-09
3.3300081e-12
1.6823017e-09
-3.1785224e-12
1.6821353e-09
3.0383218e-12
1.6822947e-09
-2.9102731e-12
1.6821417e-09
2.7926414e-12
1.6822889e-09
-2.6860755e-12
1.6821471e-09
2.5891766e-12
1.6822841e-09
-2.5024495e-12
1.6821514e-09
2.4247126e-12
1.6822804e-09
-2.3564455e-12
1.6821547e-09
2.2967241e-12
1.6822774e-09
-2.2443406e-12
1.6821566e-09
2.2052274e-12
1.6822741e-09
-2.164975e-12
1.6821614e-09
2.0971509e-12
1.6823103e-09
-2.4268459e-12
1.9544457e-12
1.7470716e-09
1.7850055e-08
1.844777e-09
-7.3712115e-10
1.8142541e-09
4.1406025e-10
1.8147236e-09
-5.2581674e-12
1.8144034e-09
2.4315249e-12
1.8151466e-09
1.0765411e-11
1.8157865e-09
-1.4831043e-11
1.8153583e-09
1.3820441e-11
1.8160027e-09
-1.4349424e-11
1.8154062e-09
1.3538413e-11
1.8159726e-09
-1.2764013e-11
1.8154316e-09
1.2081944e-11
1.8159366e-09
-1.1341331e-11
1.8154586e-09
1.069731e-11
1.8159075e-09
-1.0064183e-11
1.8154844e-09
9.4812647e-12
1.815883e-09
-8.9314185e-12
1.8155076e-09
8.4137031e-12
1.8158617e-09
-7.9318114e-12
1.8155281e-09
7.4753447e-12
1.815843e-09
-7.052019e-12
1.8155462e-09
6.650896e-12
1.8158265e-09
-6.2791964e-12
1.8155621e-09
5.9275302e-12
1.8158121e-09
-5.6017304e-12
1.8155759e-09
5.2941719e-12
1.8157995e-09
-5.0093487e-12
1.815588e-09
4.7411736e-12
1.8157885e-09
-4.4930436e-12
1.8155984e-09
4.2601229e-12
1.815779e-09
-4.0449556e-12
1.8156075e-09
3.8437016e-12
1.8157708e-09
-3.6582571e-12
1.8156152e-09
3.4855687e-12
1.8157637e-09
-3.3270476e-12
1.8156218e-09
3.1802602e-12
1.8157578e-09
-3.0462601e-12
1.8156273e-09
2.9231001e-12
1.8157528e-09
-2.8115751e-12
1.8156319e-09
2.710116e-12
1.8157488e-09
-2.6193425e-12
1.8156356e-09
2.5379291e-12
1.8157456e-09
-2.4664605e-12
1.8156384e-09
2.4038738e-12
1.815743e-09
-2.3489e-12
1.81564e-09
2.3082132e-12
1.8157399e-09
-2.2648477e-12
1.8156441e-09
2.1929432e-12
1.8157741e-09
-2.5568416e-12
2.0318986e-12
1.8616056e-09
1.8446199e-08
1.9671049e-09
-8.4262042e-10
1.9424759e-09
4.3868925e-10
1.9430798e-09
-5.8620356e-12
1.9430445e-09
2.4668291e-12
1.9440574e-09
9.7525079e-12
1.9445823e-09
-1.5355998e-11
1.9442868e-09
1.4115986e-11
1.9448223e-09
-1.4884958e-11
1.944329e-09
1.4031748e-11
1.9447978e-09
-1.3232806e-11
1.9443483e-09
1.2531426e-11
1.9447669e-09
-1.1759883e-11
1.9443701e-09
1.1094019e-11
1.9447425e-09
-1.0436512e-11
1.9443914e-09
9.8323631e-12
1.9447221e-09
-9.262129e-12
1.9444107e-09
8.7251366e-12
1.9447044e-09
-8.2255848e-12
1.9444277e-09
7.752024e-12
1.944689e-09
-7.3132229e-12
1.9444428e-09
6.8970677e-12
1.9446754e-09
-6.5117763e-12
1.9444559e-09
6.1469407e-12
1.9446634e-09
-5.8092163e-12
1.9444675e-09
5.4901523e-12
1.944653e-09
-5.1948937e-12
1.9444775e-09
4.9166971e-12
1.9446439e-09
-4.6594679e-12
1.9444862e-09
4.4178517e-12
1.944636e-09
-4.1947878e-12
1.9444937e-09
3.9860269e-12
1.9446292e-09
-3.7937719e-12
1.9445001e-09
3.6146462e-12
1.9446234e-09
-3.4502995e-12
1.9445056e-09
3.298042e-12
1.9446184e-09
-3.1591135e-12
1.9445102e-09
3.0313628e-12
1.9446143e-09
-2.9157303e-12
1.944514e-09
2.8104835e-12
1.944611e-09
-2.7163568e-12
1.944517e-09
2.6318866e-12
1.9446083e-09
-2.5577623e-12
1.9445194e-09
2.4927833e-12
1.9446062e-09
-2.435637e-12
1.9445207e-09
2.3937032e-12
1.9446033e-09
-2.3474602e-12
1.9445241e-09
2.2721182e-12
1.9446349e-09
-2.6676823e-12
2.0924517e-12
1.9881046e-09
1.8915844e-08
2.0834855e-09
-9.3800132e-10
2.066011e-09
4.561638e-10
2.066876e-09
-6.7270384e-12
2.0671401e-09
2.2026929e-12
2.0683784e-09
8.5142303e-12
2.0687817e-09
-1.5759354e-11
2.0686134e-09
1.4284314e-11
2.0690411e-09
-1.5312605e-11
2.0686485e-09
1.4424271e-11
2.0690214e-09
-1.3605634e-11
2.0686617e-09
1.2891094e-11
2.0689954e-09
-1.2093532e-11
2.0686784e-09
1.1410944e-11
2.0689755e-09
-1.0733629e-11
2.0686952e-09
1.0112679e-11
2.0689592e-09
-9.5261291e-12
2.0687106e-09
8.9737408e-12
2.0689452e-09
-8.4601244e-12
2.0687243e-09
7.9728786e-12
2.0689329e-09
-7.521767e-12
2.0687363e-09
7.0935729e-12
2.068922e-09
-6.6974702e-12
2.0687469e-09
6.3220894e-12
2.0689126e-09
-5.9748779e-12
2.0687561e-09
5.646604e-12
2.0689042e-09
-5.3430411e-12
2.0687641e-09
5.0568253e-12
2.068897e-09
-4.7923536e-12
2.0687711e-09
4.5437815e-12
2.0688907e-09
-4.3144312e-12
2.0687771e-09
4.0996669e-12
2.0688853e-09
-3.9019894e-12
2.0687822e-09
3.7177171e-12
2.0688807e-09
-3.5487316e-12
2.0687866e-09
3.3921017e-12
2.0688767e-09
-3.2492482e-12
2.0687903e-09
3.1178281e-12
2.0688735e-09
-2.9989238e-12
2.0687933e-09
2.8906486e-12
2.0688708e-09
-2.793849e-12
2.0687957e-09
2.7069315e-12
2.0688687e-09
-2.6306876e-12
2.0687977e-09
2.5637826e-12
2.0688669e-09
-2.5048779e-12
2.0687986e-09
2.462011e-12
2.0688643e-09
-2.413157e-12
2.0688014e-09
2.33502e-12
2.068893e-09
-2.7593218e-12
2.1368064e-12
2.0935221e-09
1.9280072e-08
2.1954814e-09
-1.0399606e-09
2.1849412e-09
4.6670396e-10
2.1861216e-09
-7.9074641e-12
2.1866807e-09
1.6436384e-12
2.1881093e-09
7.0856432e-12
2.1883838e-09
-1.6033863e-11
2.1883377e-09
1.4330421e-11
2.1886589e-09
-1.5633802e-11
2.1883646e-09
1.4718537e-11
2.1886435e-09
-1.3884486e-11
2.1883716e-09
1.3162917e-11
2.1886222e-09
-1.2344094e-11
2.1883833e-09
1.1649811e-11
2.1886069e-09
-1.095715e-11
2.1883958e-09
1.032374e-11
2.1885945e-09
-9.7248521e-12
2.1884074e-09
9.1608719e-12
2.188584e-09
-8.6367024e-12
2.1884177e-09
8.1391129e-12
2.1885748e-09
-7.6787825e-12
2.1884268e-09
7.2414826e-12
2.1885667e-09
-6.8372851e-12
2.1884348e-09
6.4539302e-12
2.1885596e-09
-6.0996133e-12
2.1884418e-09
5.7643784e-12
2.1885533e-09
-5.4545938e-12
2.1884478e-09
5.1623199e-12
2.1885479e-09
-4.8924202e-12
2.1884531e-09
4.6385958e-12
2.1885432e-09
-4.4045329e-12
2.1884576e-09
4.1852375e-12
2.1885391e-09
-3.9834944e-12
2.1884615e-09
3.7953391e-12
2.1885356e-09
-3.6228749e-12
2.1884648e-09
3.4629471e-12
2.1885327e-09
-3.3171498e-12
2.1884676e-09
3.1829623e-12
2.1885302e-09
-3.0616029e-12
2.1884699e-09
2.9510429e-12
2.1885282e-09
-2.8522359e-12
2.1884717e-09
2.7634681e-12
2.1885266e-09
-2.6856294e-12
2.1884732e-09
2.6172561e-12
2.1885253e-09
-2.5570013e-12
2.1884738e-09
2.5135021e-12
2.188523e-09
-2.4623319e-12
2.188476e-09
2.3820335e-12
2.1885485e-09
-2.8318286e-12
2.1657126e-12
2.2134504e-09
1.9524372e-08
2.3025671e-09
-1.1290774e-09
2.2993747e-09
4.6989632e-10
2.3008574e-09
-9.3901158e-12
2.301653e-09
8.4799133e-13
2.3032516e-09
5.4870694e-12
2.3033892e-09
-1.6171444e-11
2.3034598e-09
1.4259852e-11
2.303676e-09
-1.5850071e-11
2.3034771e-09
1.4917438e-11
2.3036642e-09
-1.4071589e-11
2.303478e-09
1.3349129e-11
2.3036475e-09
-1.2513615e-11
2.3034848e-09
1.1812573e-11
2.3036365e-09
-1.11089e-11
2.303493e-09
1.0467276e-11
2.3036281e-09
-9.8599182e-12
2.3035009e-09
9.2880627e-12
2.3036209e-09
-8.7567576e-12
2.3035079e-09
8.2520878e-12
2.3036147e-09
-7.7855482e-12
2.3035142e-09
7.3420071e-12
2.3036093e-09
-6.9323596e-12
2.3035197e-09
6.5435411e-12
2.3036045e-09
-6.184438e-12
2.3035244e-09
5.8444374e-12
2.3036003e-09
-5.5304593e-12
2.3035286e-09
5.2340415e-12
2.3035966e-09
-4.9604813e-12
2.3035322e-09
4.7030672e-12
2.3035934e-09
-4.4658247e-12
2.3035352e-09
4.2434349e-12
2.3035907e-09
-4.0389476e-12
2.3035379e-09
3.8481424e-12
2.3035884e-09
-3.6733296e-12
2.3035401e-09
3.5111521e-12
2.3035864e-09
-3.3633666e-12
2.303542e-09
3.2272917e-12
2.3035847e-09
-3.1042732e-12
2.3035436e-09
2.9921538e-12
2.3035833e-09
-2.8919877e-12
2.3035449e-09
2.8019527e-12
2.3035823e-09
-2.7230307e-12
2.3035459e-09
2.6536371e-12
2.3035813e-09
-2.592433e-12
2.3035462e-09
2.5485885e-12
2.3035793e-09
-2.4954221e-12
2.3035478e-09
2.4135812e-12
2.3036013e-09
-2.8853749e-12
2.1799536e-12
2.3151879e-09
1.9666934e-08
2.4056786e-09
-1.219568e-09
2.4093542e-09
4.6622067e-10
2.4111296e-09
-1.1165504e-11
2.4120498e-09
-7.2229993e-14
2.4138063e-09
3.730632e-12
2.4137976e-09
-1.6162798e-11
2.4139793e-09
1.4078232e-11
2.4140925e-09
-1.5963285e-11
2.4139859e-09
1.5024032e-11
2.4140837e-09
-1.4169444e-11
2.4139807e-09
1.3452165e-11
2.4140714e-09
-1.2604365e-11
2.4139826e-09
1.1901376e-11
2.4140646e-09
-1.1190892e-11
2.4139867e-09
1.054519e-11
2.4140599e-09
-9.9331144e-12
2.413991e-09
9.3570016e-12
2.4140561e-09
-8.8218768e-12
2.4139949e-09
8.3133033e-12
2.4140528e-09
-7.8434747e-12
2.4139983e-09
7.39648e-12
2.4140499e-09
-6.9839494e-12
2.4140014e-09
6.5921101e-12
2.4140474e-09
-6.2304719e-12
2.414004e-09
5.8878415e-12
2.4140452e-09
-5.5716385e-12
2.4140063e-09
5.2729389e-12
2.4140432e-09
-4.9974337e-12
2.4140082e-09
4.738047e-12
2.4140415e-09
-4.4991132e-12
2.4140099e-09
4.2750262e-12
2.4140401e-09
-4.0690779e-12
2.4140114e-09
3.8768215e-12
2.4140388e-09
-3.7007573e-12
2.4140126e-09
3.5373494e-12
2.4140378e-09
-3.3885036e-12
2.4140137e-09
3.2513967e-12
2.4140369e-09
-3.1274919e-12
2.4140145e-09
3.0145184e-12
2.4140361e-09
-2.9136229e-12
2.4140152e-09
2.8228877e-12
2.4140356e-09
-2.7433795e-12
2.4140158e-09
2.6734024e-12
2.414035e-09
-2.6116405e-12
2.4140159e-09
2.567724e-12
2.4140333e-09
-2.5129031e-12
2.4140168e-09
2.4301193e-12
2.4140517e-09
-2.9202269e-12
2.180332e-12
2.4296555e-09
1.9695028e-08
2.5045326e-09
-1.2944451e-09
2.5149206e-09
4.5583268e-10
2.5170002e-09
-1.3245145e-11
2.5178707e-09
-9.4265539e-13
2.5197761e-09
1.8252401e-12
2.51961e-09
-1.5996784e-11
2.5198963e-09
1.3792002e-11
2.5199083e-09
-1.5975345e-11
2.5198908e-09
1.5041607e-11
2.5199021e-09
-1.418076e-11
2.5198796e-09
1.3474655e-11
2.519894e-09
-1.2618795e-11
2.5198768e-09
1.1918543e-11
2.5198913e-09
-1.1205308e-11
2.5198769e-09
1.0559539e-11
2.5198902e-09
-9.9463743e-12
2.5198777e-09
9.3695156e-12
2.5198896e-09
-8.8337771e-12
2.5198785e-09
8.3243818e-12
2.5198891e-09
-7.8540886e-12
2.5198792e-09
7.4063444e-12
2.5198887e-09
-6.9934135e-12
2.5198799e-09
6.6009224e-12
2.5198883e-09
-6.2389269e-12
2.5198804e-09
5.8957376e-12
2.519888e-09
-5.5792147e-12
2.5198809e-09
5.2800385e-12
2.5198877e-09
-5.0042485e-12
2.5198813e-09
4.7444567e-12
2.5198875e-09
-4.5052716e-12
2.5198817e-09
4.2808415e-12
2.5198873e-09
-4.0746737e-12
2.5198819e-09
3.882128e-12
2.5198871e-09
-3.7058741e-12
2.5198822e-09
3.5422235e-12
2.5198869e-09
-3.3932153e-12
2.5198824e-09
3.2559054e-12
2.5198868e-09
-3.1318621e-12
2.5198826e-09
3.018718e-12
2.5198866e-09
-2.9177025e-12
2.5198827e-09
2.8268169e-12
2.5198865e-09
-2.7472036e-12
2.5198829e-09
2.6770674e-12
2.5198864e-09
-2.6151289e-12
2.5198827e-09
2.5713994e-12
2.5198851e-09
-2.5152838e-12
2.5198831e-09
2.4321339e-12
2.5198996e-09
-2.9367346e-12
2.1676591e-12
2.5287429e-09
1.9624036e-08
2.5996371e-09
-1.3653392e-09
2.6160394e-09
4.3943034e-10
2.6184048e-09
-1.5610529e-11
2.6191221e-09
-1.6600028e-12
2.6211593e-09
-2.1187348e-13
2.6208259e-09
-1.5663474e-11
2.6212099e-09
1.3408084e-11
2.6211231e-09
-1.5888629e-11
2.6211913e-09
1.4973414e-11
2.6211192e-09
-1.4108576e-11
2.6211745e-09
1.3419323e-11
2.6211153e-09
-1.2559566e-11
2.6211673e-09
1.1866529e-11
2.6211164e-09
-1.1154482e-11
2.6211635e-09
1.0512515e-11
2.6211189e-09
-9.9017637e-12
2.6211608e-09
9.3275517e-12
2.6211213e-09
-8.7942911e-12
2.6211587e-09
8.2870534e-12
2.6211236e-09
-7.8190187e-12
2.6211568e-09
7.3731391e-12
2.6211256e-09
-6.962202e-12
2.6211552e-09
6.5713489e-12
2.6211273e-09
-6.2110962e-12
2.6211537e-09
5.8693495e-12
2.6211288e-09
-5.5543436e-12
2.6211525e-09
5.2564351e-12
2.6211302e-09
-4.9819613e-12
2.6211513e-09
4.7232789e-12
2.6211313e-09
-4.4852314e-12
2.6211504e-09
4.2617665e-12
2.6211323e-09
-4.0565766e-12
2.6211495e-09
3.8648639e-12
2.6211331e-09
-3.6894443e-12
2.6211488e-09
3.5265049e-12
2.6211338e-09
-3.3782003e-12
2.6211482e-09
3.2414879e-12
2.6211344e-09
-3.1180274e-12
2.6211477e-09
3.0053728e-12
2.6211349e-09
-2.9048253e-12
2.6211474e-09
2.8143204e-12
2.6211352e-09
-2.7350664e-12
2.6211471e-09
2.6651821e-12
2.6211354e-09
-2.6034362e-12
2.6211467e-09
2.5601389e-12
2.6211345e-09
-2.5031025e-12
2.6211465e-09
2.4201383e-12
2.6211451e-09
-2.9353242e-12
2.1427451e-12
2.636678e-09
1.9445108e-08
2.6909843e-09
-1.4196456e-09
2.7127572e-09
4.1765747e-10
2.7152295e-09
-1.8082853e-11
2.7158051e-09
-2.235559e-12
2.7179485e-09
-2.3553269e-12
2.7174443e-09
-1.5159286e-11
2.7179192e-09
1.2933253e-11
2.7177365e-09
-1.5705992e-11
2.7178873e-09
1.4822667e-11
2.7177349e-09
-1.3956218e-11
2.7178653e-09
1.3288972e-11
2.7177352e-09
-1.242952e-11
2.7178538e-09
1.1747904e-11
2.7177403e-09
-1.1040888e-11
2.7178463e-09
1.0406423e-11
2.717746e-09
-9.8014641e-12
2.7178404e-09
9.2331615e-12
2.7177515e-09
-8.7053528e-12
2.7178354e-09
8.2031421e-12
2.7177564e-09
-7.7399836e-12
2.717831e-09
7.2984867e-12
2.7177607e-09
-6.8918445e-12
2.7178272e-09
6.5048352e-12
2.7177644e-09
-6.1483438e-12
2.7178238e-09
5.8099674e-12
2.7177677e-09
-5.4982443e-12
2.7178209e-09
5.2032834e-12
2.7177706e-09
-4.931665e-12
2.7178183e-09
4.6755502e-12
2.717773e-09
-4.4399756e-12
2.7178161e-09
4.2187352e-12
2.7177752e-09
-4.0156745e-12
2.7178142e-09
3.8258752e-12
2.717777e-09
-3.6522743e-12
2.7178125e-09
3.4909642e-12
2.7177785e-09
-3.3441958e-12
2.7178112e-09
3.2088515e-12
2.7177798e-09
-3.0866672e-12
2.71781e-09
2.9751373e-12
2.7177808e-09
-2.8756233e-12
2.7178091e-09
2.7860105e-12
2.7177816e-09
-2.7075623e-12
2.7178085e-09
2.6383265e-12
2.7177822e-09
-2.5771297e-12
2.7178078e-09
2.5344957e-12
2.7177817e-09
-2.4769228e-12
2.7178071e-09
2.3946693e-12
2.7177883e-09
-2.9164891e-12
2.1063917e-12
2.7316879e-09
1.917117e-08
2.7788485e-09
-1.4668062e-09
2.8050111e-09
3.9149488e-10
2.8074351e-09
-2.0506795e-11
2.8079373e-09
-2.7377586e-12
2.8101394e-09
-4.557492e-12
2.8094658e-09
-1.4485679e-11
2.8100245e-09
1.2374533e-11
2.8097487e-09
-1.5430179e-11
2.8099786e-09
1.4592807e-11
2.8097495e-09
-1.3727103e-11
2.8099519e-09
1.3086565e-11
2.809754e-09
-1.2231611e-11
2.8099365e-09
1.1565358e-11
2.8097627e-09
-1.0867111e-11
2.8099255e-09
1.024367e-11
2.8097718e-09
-9.647756e-12
2.8099164e-09
9.0884887e-12
2.8097801e-09
-8.568984e-12
2.8099087e-09
8.074554e-12
2.8097875e-09
-7.6187798e-12
2.8099019e-09
7.184083e-12
2.809794e-09
-6.7839401e-12
2.8098959e-09
6.4028919e-12
2.8097997e-09
-6.0520958e-12
2.8098907e-09
5.71894e-12
2.8098046e-09
-5.4121915e-12
2.8098861e-09
5.1217904e-12
2.809809e-09
-4.8545021e-12
2.8098822e-09
4.6023542e-12
2.8098127e-09
-4.3705318e-12
2.8098787e-09
4.1527244e-12
2.8098159e-09
-3.952896e-12
2.8098758e-09
3.7660464e-12
2.8098187e-09
-3.5952076e-12
2.8098733e-09
3.4364076e-12
2.809821e-09
-3.291973e-12
2.8098712e-09
3.1587358e-12