/*--------------------------------*- C++ -*----------------------------------*\
| =========                 |                                                 |
| \\      /  F ield         | OpenFOAM: The Open Source CFD Toolbox           |
|  \\    /   O peration     | Version:  2312                                  |
|   \\  /    A nd           | Website:  www.openfoam.com                      |
|    \\/     M anipulation  |                                                 |
\*---------------------------------------------------------------------------*/
FoamFile
{
    version     2.0;
    format      ascii;
    arch        "LSB;label=32;scalar=64";
    class       volScalarField;
    location    "7";
    object      T;
}
// * * * * * * * * * * * * * * * * * * * * * * * * * * * * * * * * * * * * * //

dimensions      [0 0 0 1 0 0 0];

internalField   nonuniform List<scalar> 
4000
(
309.86569
311.05347
311.21383
311.29514
311.35092
311.40534
311.44608
311.49133
311.52663
311.56731
311.59991
311.63783
311.66886
311.70494
311.73499
311.76974
311.79913
311.8329
311.86181
311.89483
311.92339
311.95581
311.9841
312.01603
312.04411
312.07565
312.10355
312.13477
312.16252
312.19348
312.22108
312.25183
312.27931
312.30989
312.33725
312.36768
312.39493
312.42526
312.45238
312.48264
312.50964
312.53984
312.56672
312.59691
312.62363
312.65385
312.68037
312.71073
312.73686
312.76797
307.7472
309.90001
310.32106
310.50957
310.62164
310.72955
310.79659
310.87703
310.92776
310.99451
311.03714
311.09562
311.13355
311.18651
311.22147
311.27049
311.30345
311.34952
311.38107
311.42487
311.45536
311.49736
311.52704
311.56761
311.59663
311.63603
311.66451
311.70296
311.73098
311.76864
311.79624
311.83326
311.86049
311.89699
311.92386
311.95994
311.98646
312.02223
312.04839
312.08392
312.10973
312.14511
312.17052
312.20586
312.23081
312.26626
312.2906
312.32645
312.34964
312.38767
306.35389
308.77564
309.43405
309.72716
309.89482
310.05551
310.1488
310.26403
310.33025
310.42281
310.47553
310.55438
310.59928
310.66897
310.70891
310.77207
310.80867
310.86694
310.90117
310.95566
310.98813
311.03965
311.07076
311.11989
311.14991
311.19711
311.22622
311.27183
311.30016
311.34447
311.37211
311.41536
311.44237
311.48476
311.51116
311.55286
311.57868
311.61984
311.64508
311.68586
311.71048
311.75102
311.77499
311.81546
311.83866
311.8793
311.90148
311.9428
311.96308
312.00777
305.38385
307.70859
308.56186
308.95278
309.17392
309.38571
309.50486
309.65403
309.73569
309.8535
309.91637
310.01518
310.06713
310.15324
310.19826
310.2753
310.31564
310.38589
310.4229
310.48792
310.52244
310.58333
310.61595
310.67352
310.7046
310.75948
310.78928
310.84196
310.87066
310.92154
310.94926
310.99867
311.02549
311.0737
311.09968
311.14693
311.17209
311.21861
311.24294
311.28892
311.31239
311.35804
311.3806
311.42615
311.44763
311.49343
311.51349
311.56021
311.57767
311.62865
304.6799
306.72405
307.71635
308.19314
308.46368
308.7236
308.8677
309.04937
309.1462
309.28834
309.36132
309.47944
309.53849
309.64053
309.69071
309.78124
309.8254
309.90732
309.9472
310.02248
310.05916
310.12919
310.16339
310.22922
310.26143
310.32384
310.35439
310.414
310.44313
310.50046
310.52831
310.58377
310.61047
310.6644
310.69
310.74273
310.76727
310.81905
310.84253
310.89363
310.91601
310.96669
310.98788
311.03845
311.05826
311.10913
311.12714
311.17916
311.19394
311.25074
304.15364
305.8411
306.91067
307.45642
307.76988
308.07349
308.24087
308.45292
308.56433
308.72951
308.81238
308.94891
309.01501
309.13229
309.18765
309.29114
309.33919
309.43235
309.47516
309.56035
309.59925
309.67814
309.714
309.78783
309.82125
309.89096
309.92234
309.9887
310.01832
310.08192
310.10998
310.17134
310.19797
310.25749
310.28278
310.34085
310.36482
310.42176
310.44444
310.50056
310.52189
310.57751
310.59739
310.65287
310.67108
310.72691
310.74297
310.80012
310.81243
310.87455
303.75149
305.07106
306.15756
306.75148
307.09904
307.44034
307.62848
307.86805
307.99305
308.17952
308.27185
308.4256
308.49855
308.6302
308.69067
308.80645
308.85837
308.96224
309.00802
309.10267
309.14384
309.2312
309.26879
309.35029
309.38498
309.46173
309.49399
309.56685
309.59703
309.6667
309.69502
309.76209
309.78871
309.85366
309.87869
309.94194
309.96542
310.02737
310.04931
310.11031
310.13066
310.19108
310.20973
310.26997
310.28668
310.34731
310.36153
310.42363
310.43371
310.50063
303.43907
304.41795
305.46798
306.0872
306.45796
306.82951
307.03497
307.29846
307.43558
307.64118
307.74226
307.91174
307.9912
308.13612
308.20154
308.32875
308.38448
308.49837
308.5471
308.65067
308.69412
308.7895
308.82883
308.91764
308.95363
309.03708
309.07027
309.14935
309.18013
309.25562
309.28425
309.3568
309.38347
309.45364
309.47846
309.54672
309.56975
309.63654
309.6578
309.72352
309.74295
309.80801
309.8255
309.89035
309.90564
309.97091
309.98341
310.05021
310.05834
310.12957
303.193
303.87898
304.84994
305.47158
305.8533
306.24644
306.46492
306.74804
306.89535
307.11746
307.2263
307.40973
307.49516
307.65206
307.72211
307.85977
307.91913
308.04226
308.09385
308.20568
308.25138
308.35424
308.39531
308.49096
308.52826
308.61803
308.65217
308.73713
308.76854
308.84955
308.87853
308.9563
308.98306
309.0582
309.08286
309.1559
309.17855
309.24996
309.27061
309.34084
309.35944
309.42894
309.44536
309.51462
309.52859
309.59826
309.60922
309.68042
309.68691
309.76196
302.99671
303.44603
304.30801
304.91107
305.29105
305.69635
305.92284
306.22072
306.37581
306.61144
306.72674
306.92209
307.01272
307.18012
307.25434
307.40131
307.46402
307.59549
307.64976
307.76912
307.81695
307.92669
307.96943
308.0714
308.10999
308.20563
308.24072
308.33116
308.36321
308.44939
308.47874
308.56142
308.5883
308.66814
308.69269
308.77025
308.79256
308.86836
308.88845
308.96297
308.9808
309.05451
309.06996
309.14339
309.15617
309.22999
309.23957
309.31484
309.31998
309.39843
302.83815
303.10716
303.84306
304.41006
304.77611
305.18389
305.41292
305.72025
305.88032
306.12615
306.24633
306.45132
306.5462
306.72243
306.80022
306.95522
307.02089
307.15968
307.21637
307.34244
307.39223
307.50816
307.55246
307.66017
307.69997
307.80097
307.83696
307.93246
307.96513
308.0561
308.08582
308.17307
308.20007
308.2843
308.30876
308.39056
308.41256
308.49248
308.51207
308.59061
308.60775
308.68542
308.69997
308.77731
308.78903
308.86671
308.87509
308.95408
308.95815
309.03959
302.70826
302.84819
303.45261
303.97053
304.31191
304.71283
304.93876
305.25001
305.41199
305.66446
305.78772
305.99987
306.09787
306.28109
306.36172
306.52335
306.59147
306.73647
306.79522
306.9271
306.9786
307.09997
307.14565
307.25847
307.29935
307.40518
307.44198
307.54205
307.5753
307.67063
307.70068
307.79212
307.81925
307.90751
307.93189
308.0176
308.03934
308.12307
308.1422
308.22448
308.24098
308.32232
308.33608
308.41703
308.42781
308.50902
308.51639
308.59872
308.60199
308.68606
302.60026
302.65434
303.13143
303.5921
303.90025
304.28584
304.50319
304.81288
304.97354
305.22899
305.35331
305.57003
305.66984
305.85814
305.94071
306.10748
306.17743
306.32745
306.38784
306.52455
306.57744
306.70343
306.75026
306.8675
306.9093
307.01935
307.05685
307.16098
307.1947
307.29394
307.32428
307.41948
307.4467
307.53862
307.56291
307.65219
307.67367
307.76088
307.7796
307.86529
307.88122
307.96591
307.97896
308.0632
308.07317
308.15757
308.16411
308.24939
308.25208
308.33845
302.50905
302.51134
302.87224
303.27218
303.54116
303.90433
304.10813
304.41104
304.56716
304.82192
304.94522
305.16385
305.26407
305.45543
305.53896
305.7093
305.78038
305.93416
305.99566
306.13618
306.19008
306.31982
306.36752
306.48844
306.53094
306.64459
306.68262
306.79024
306.82433
306.92697
306.95751
307.05604
307.08331
307.17847
307.20265
307.29511
307.31633
307.40667
307.42499
307.51375
307.52916
307.61687
307.62929
307.71648
307.72575
307.81298
307.81885
307.9067
307.909
307.99736
302.43077
302.40643
302.66661
303.00643
303.23303
303.56838
303.75446
304.04589
304.19444
304.445
304.56516
304.78306
304.88221
305.0746
305.15804
305.33034
305.40178
305.55802
305.62006
305.7633
305.81776
305.95037
305.99859
306.12243
306.16537
306.28193
306.3203
306.43083
306.46514
306.57066
306.60129
306.70266
306.7299
306.82787
306.85191
306.94714
306.96809
307.06116
307.07911
307.17056
307.1855
307.27586
307.28773
307.37749
307.38619
307.47586
307.48122
307.57124
307.5733
307.66337
302.36258
302.32883
302.50571
302.7892
302.97284
303.27681
303.442
303.71798
303.85625
304.09938
304.21438
304.42903
304.52561
304.71704
304.79928
304.97194
305.0429
305.2003
305.26223
305.4071
305.46165
305.59618
305.64455
305.7705
305.81358
305.93238
305.97085
306.08367
306.11802
306.22586
306.25646
306.36018
306.38729
306.48762
306.51144
306.60901
306.62968
306.72508
306.74265
306.83641
306.85091
306.94352
306.95492
307.04687
307.05509
307.14681
307.1518
307.24361
307.24554
307.33704
302.30238
302.26995
302.38096
302.61408
302.75644
303.02732
303.16959
303.42703
303.55275
303.78562
303.89362
304.10266
304.19525
304.38381
304.46374
304.6352
304.70483
304.86207
304.92323
305.06864
305.12274
305.25827
305.30637
305.43362
305.47652
305.59683
305.63514
305.74963
305.78381
305.89342
305.92382
306.02937
306.05625
306.15844
306.18198
306.28145
306.30178
306.39909
306.41628
306.51193
306.52602
306.62049
306.63146
306.7252
306.73303
306.82642
306.83113
306.92436
306.92624
307.01891
302.24864
302.22339
302.28453
302.47445
302.57894
302.8167
302.93518
303.17192
303.28341
303.50368
303.60307
303.80443
303.89169
304.07562
304.15218
304.32094
304.38839
304.54421
304.60393
304.7488
304.80191
304.93749
304.98489
305.11263
305.155
305.2761
305.31398
305.42948
305.46328
305.57407
305.60411
305.71095
305.73747
305.84104
305.86421
305.96511
305.98505
306.08382
306.10061
306.19774
306.21142
306.30735
306.31793
306.41306
306.42057
306.51522
306.51975
306.61404
306.61592
306.70947
302.20023
302.18458
302.20964
302.36389
302.43509
302.64111
302.73598
302.95085
303.04702
303.2529
303.34241
303.53433
303.6151
303.79281
303.86501
304.0297
304.09415
304.24737
304.30497
304.44825
304.49983
304.63457
304.68081
304.80823
304.84971
304.97089
305.00804
305.12391
305.1571
305.26848
305.29797
305.40557
305.43158
305.53604
305.55872
305.6606
305.68008
305.77987
305.79622
305.8944
305.90767
306.00463
306.01487
306.11098
306.11822
306.21374
306.21814
306.31315
306.31504
306.40921
302.15634
302.15055
302.15071
302.27651
302.31959
302.49632
302.5687
302.76143
302.84182
303.03211
303.11083
303.29189
303.36522
303.53535
303.60232
303.7617
303.8224
303.97191
304.02676
304.16748
304.21699
304.35001
304.39466
304.52099
304.5612
304.68177
304.71788
304.8335
304.86582
304.97721
305.00596
305.11378
305.13913
305.24397
305.26607
305.36843
305.38738
305.48775
305.50362
305.60241
305.61526
305.71284
305.72274
305.81943
305.82644
305.92245
305.92675
306.02213
306.02406
306.11855
302.11637
302.11948
302.10332
302.20714
302.22741
302.37799
302.42973
302.60084
302.66558
302.83966
302.90704
303.07625
303.1414
303.30285
303.36387
303.51688
303.57315
303.71797
303.76948
303.90675
303.95368
304.08418
304.1268
304.25131
304.28988
304.40916
304.44395
304.55869
304.58989
304.70073
304.72853
304.83605
304.86058
304.96531
304.98669
305.08909
305.10741
305.2079
305.22325
305.32222
305.33463
305.43242
305.44197
305.53884
305.54563
305.64176
305.64599
305.74141
305.74336
305.83789
302.07986
302.09038
302.06417
302.15147
302.15396
302.2819
302.31535
302.466
302.51573
302.67352
302.72941
302.88613
302.94264
303.09459
303.14908
303.29485
303.34615
303.48542
303.53307
303.66609
303.70998
303.83721
303.8774
303.9994
304.03601
304.15336
304.18652
304.2998
304.32965
304.43939
304.46604
304.57274
304.5963
304.70042
304.72097
304.82293
304.84055
304.94072
304.95547
305.0542
305.06614
305.16372
305.17293
305.26959
305.27617
305.37205
305.3762
305.47133
305.4733
305.56757
302.04645
302.06281
302.03087
302.10606
302.09525
302.20411
302.2219
302.35374
302.38951
302.53141
302.57601
302.71997
302.76764
302.90953
302.95712
303.09497
303.14086
303.27389
303.31725
303.44532
303.48578
303.60907
303.64648
303.76534
303.79966
303.9145
303.94576
304.05703
304.08528
304.1934
304.21871
304.3241
304.34652
304.44958
304.46917
304.57025
304.58707
304.68649
304.70059
304.79867
304.8101
304.90707
304.91591
305.01198
305.01834
305.11363
305.11768
305.21222
305.21417
305.3079
302.01585
302.0366
302.00178
302.06822
302.04795
302.14112
302.14594
302.26092
302.28409
302.41087
302.44468
302.57599
302.61484
302.74639
302.78688
302.91635
302.95652
303.08276
303.12151
303.24405
303.28075
303.39954
303.43385
303.54901
303.58076
303.69256
303.72168
303.83041
303.85686
303.96288
303.98666
304.09028
304.11142
304.21296
304.23147
304.33124
304.34717
304.44544
304.45881
304.55584
304.56671
304.6627
304.67114
304.76627
304.77238
304.86673
304.87068
304.9643
304.96623
305.05912
301.98781
302.01177
301.97583
302.03597
302.00935
302.08989
302.08434
302.18455
302.19669
302.30942
302.33319
302.45222
302.4825
302.60368
302.63706
302.75788
302.79218
302.91124
302.94513
303.06171
303.09439
303.2082
303.23916
303.35015
303.3791
303.48738
303.51413
303.61988
303.64434
303.7478
303.7699
303.8713
303.89102
303.99063
304.00795
304.10601
304.12095
304.21768
304.23026
304.32586
304.33612
304.43078
304.43878
304.53261
304.53845
304.63155
304.63536
304.72777
304.72965
304.82141
301.96212
301.98837
301.95233
302.0079
301.97734
302.04788
302.03434
302.12188
302.12462
302.22458
302.23925
302.34662
302.36879
302.47979
302.50619
302.61829
302.64669
302.75834
302.78726
302.89755
302.92604
303.03449
303.06192
303.16834
303.1943
303.29865
303.32286
303.42522
303.44752
303.54802
303.56829
303.6671
303.68527
303.78256
303.79859
303.89456
303.90844
304.00326
304.01498
304.10881
304.1184
304.21138
304.2189
304.31113
304.31666
304.4082
304.41183
304.50275
304.50456
304.59491
301.93859
301.96646
301.93088
301.98302
301.95033
302.01305
301.99362
302.07047
302.06546
302.15401
302.16064
302.25715
302.27181
302.373
302.39272
302.4962
302.51879
302.62293
302.64687
302.75066
302.77488
302.87771
302.90148
303.00302
303.02585
303.12594
303.14748
303.2461
303.26611
303.3633
303.38162
303.47747
303.494
303.58863
303.60328
303.69682
303.70955
303.80212
303.81293
303.90465
303.91354
304.00452
304.01152
304.10184
304.10702
304.19672
304.20016
304.28931
304.29103
304.3797
301.91706
301.94608
301.91124
301.96069
301.92714
301.98379
301.96023
302.0282
302.01698
302.09554
302.09523
302.18179
302.18965
302.28157
302.29502
302.39012
302.40711
302.50381
302.52283
302.62004
302.63998
302.73702
302.75708
302.8535
302.87312
302.96869
302.98746
303.08206
303.09969
303.19327
303.20956
303.30215
303.31694
303.4086
303.42179
303.5126
303.52412
303.61415
303.62398
303.71331
303.72144
303.81014
303.81658
303.90471
303.90951
303.99711
304.00031
304.08744
304.08905
304.17578
301.89738
301.92722
301.89328
301.9405
301.90695
301.95886
301.93262
301.9933
301.97728
302.04719
302.04106
302.11866
302.12051
302.20378
302.21147
302.29855
302.31025
302.39966
302.41393
302.50459
302.52032
302.61149
302.62785
302.71902
302.73541
302.82626
302.84222
302.93256
302.94775
303.03748
303.05166
303.14074
303.15373
303.24216
303.25384
303.34164
303.35191
303.43913
303.44793
303.53461
303.54193
303.6281
303.63394
303.71964
303.72402
303.80927
303.81221
303.89709
303.89856
303.98311
301.87944
301.90987
301.87691
301.92216
301.88918
301.93736
301.90954
301.9643
301.94472
302.00724
301.99635
302.06599
302.06263
302.13796
302.14047
302.21998
302.22679
302.30917
302.31893
302.40315
302.41482
302.50012
302.51286
302.59871
302.61189
302.6979
302.71103
302.79696
302.80969
302.89538
302.90743
302.99279
303.00395
303.08893
303.09904
303.18362
303.19259
303.27677
303.28451
303.3683
303.37479
303.45819
303.4634
303.54644
303.55037
303.63307
303.63572
303.71812
303.71946
303.8016
301.86312
301.894
301.86207
301.90553
301.87344
301.91862
301.89007
301.94001
301.91791
301.97419
301.95954
302.02218
302.01442
302.08255
302.08049
302.15296
302.1553
302.23099
302.23656
302.31454
302.32234
302.40187
302.41111
302.49164
302.50168
302.5828
302.59316
302.67457
302.68485
302.76637
302.77628
302.85775
302.86706
302.94841
302.95695
303.03812
303.04577
303.12671
303.13337
303.21408
303.2197
303.30015
303.3047
303.3849
303.38835
303.4683
303.47064
303.55037
303.55155
303.6311
301.84835
301.87957
301.84873
301.89049
301.85948
301.90217
301.8735
301.9195
301.89576
301.94678
301.92925
301.98581
301.97442
302.0361
302.03008
302.09608
302.09443
302.16383
302.16555
302.23755
302.24174
302.31565
302.32157
302.39685
302.40388
302.4801
302.48776
302.56461
302.5725
302.64975
302.65755
302.73503
302.74251
302.8201
302.82707
302.90467
302.91099
302.98854
302.99411
303.07157
303.07632
303.15365
303.15752
303.2347
303.23767
303.31469
303.31671
303.3936
303.39463
303.47139
301.83508
301.86656
301.83684
301.87698
301.84712
301.88767
301.85931
301.90205
301.87735
301.92398
301.90433
301.95563
301.94134
301.99728
301.98793
302.04802
302.04288
302.10643
302.10469
302.17102
302.1719
302.24039
302.24321
302.31336
302.31754
302.38892
302.39399
302.46629
302.47185
302.54481
302.55056
302.62398
302.62966
302.70339
302.70881
302.78275
302.78775
302.86179
302.86627
302.94036
302.94422
303.0183
303.02149
303.09552
303.09798
303.17195
303.17363
303.24754
303.2484
303.32224
301.82328
301.85494
301.82637
301.86493
301.83624
301.87488
301.8471
301.88712
301.86199
301.90491
301.88381
301.93059
301.91405
301.96493
301.95284
302.00759
301.99946
302.05761
302.05281
302.11381
302.11169
302.17502
302.17499
302.24018
302.2417
302.30835
302.31098
302.37877
302.38212
302.45079
302.45456
302.5239
302.52784
302.59768
302.60158
302.67178
302.67549
302.74595
302.74934
302.81997
302.82295
302.89368
302.89618
302.96696
302.96891
303.03971
303.04106
303.11186
303.11255
303.18334
301.81297
301.84471
301.81729
301.85431
301.82674
301.86364
301.83659
301.87429
301.84911
301.88891
301.86689
301.90978
301.89157
301.93801
301.92372
301.97369
301.96304
302.01626
302.0088
302.06485
302.06007
302.11852
302.1159
302.17634
302.17542
302.23748
302.23784
302.30122
302.30249
302.36693
302.36882
302.43409
302.43636
302.50229
302.50473
302.57117
302.57363
302.64045
302.64279
302.70989
302.71201
302.77932
302.78114
302.84859
302.85003
302.91758
302.91859
302.9862
302.98672
303.05437
301.80418
301.83586
301.80956
301.84506
301.81856
301.85381
301.82758
301.86323
301.8383
301.87542
301.8529
301.89247
301.87308
301.91564
301.89963
301.94534
301.93264
301.98136
301.97166
302.02313
302.01603
302.0699
302.06499
302.12091
302.11777
302.17543
302.17369
302.23279
302.23214
302.29242
302.29256
302.35382
302.35452
302.41656
302.41762
302.48029
302.48155
302.54472
302.54604
302.60959
302.61088
302.67473
302.67588
302.73995
302.7409
302.80513
302.80581
302.87016
302.87052
302.93495
301.79699
301.82839
301.80314
301.83711
301.81161
301.84527
301.8199
301.8537
301.82921
301.86401
301.84134
301.87802
301.85787
301.89703
301.87977
301.92168
301.90735
301.95202
301.94045
301.98771
301.97863
302.02824
302.02132
302.07298
302.06787
302.12132
302.11771
302.17268
302.17026
302.22651
302.22503
302.28235
302.28158
302.3398
302.33955
302.3985
302.39862
302.45815
302.45851
302.51851
302.519
302.57937
302.57989
302.64055
302.64102
302.70191
302.70227
302.76333
302.76353
302.82469
301.79145
301.82227
301.79796
301.8304
301.80582
301.83793
301.81341
301.84551
301.82159
301.85434
301.83177
301.86593
301.84537
301.88156
301.86342
301.90197
301.88639
301.9274
301.91434
301.95775
301.94702
301.99268
301.98403
302.03171
302.02487
302.07434
302.06905
302.12007
302.11606
302.16842
302.16546
302.21897
302.21685
302.27132
302.26987
302.32515
302.32421
302.38015
302.3796
302.43608
302.4358
302.49272
302.49263
302.54989
302.54991
302.60745
302.6075
302.66524
302.66529
302.72317
301.78753
301.81744
301.79394
301.82484
301.8011
301.83169
301.808
301.8385
301.81522
301.84613
301.82385
301.85581
301.83511
301.86869
301.84998
301.88555
301.86906
301.9068
301.89257
301.93249
301.92041
301.96242
301.95234
301.99629
301.98798
302.03369
302.02694
302.0742
302.06879
302.11742
302.11314
302.16296
302.15962
302.21045
302.2079
302.25959
302.25768
302.31009
302.3087
302.3617
302.36072
302.41422
302.41356
302.46745
302.46704
302.52124
302.52101
302.57545
302.57536
302.62996
301.78515
301.8138
301.79098
301.82032
301.79736
301.82646
301.80355
301.83253
301.80994
301.83917
301.81732
301.84731
301.82669
301.85795
301.83897
301.87189
301.85479
301.88958
301.87448
301.91123
301.8981
301.93677
301.92551
301.966
301.95646
301.99865
301.99065
302.03436
302.02773
302.0728
302.06736
302.11363
302.10921
302.15653
302.15299
302.20119
302.1984
302.24737
302.24521
302.29481
302.29319
302.34332
302.34214
302.39271
302.3919
302.44281
302.44231
302.49348
302.49325
302.5446
301.78409
301.8112
301.78896
301.81674
301.79449
301.82212
301.79997
301.8275
301.80561
301.83328
301.81195
301.84016
301.81979
301.84899
301.82995
301.8605
301.84305
301.87521
301.8595
301.89337
301.87945
301.91506
301.90287
301.94018
301.92963
301.96853
301.95949
301.99987
301.99219
302.0339
302.02745
302.07034
302.06497
302.10891
302.10449
302.14934
302.14576
302.19139
302.18854
302.23484
302.23262
302.27948
302.27782
302.32513
302.32395
302.37163
302.37089
302.41885
302.41849
302.46664
301.78405
301.80947
301.78773
301.81397
301.79239
301.81858
301.79716
301.82328
301.8021
301.8283
301.80756
301.83415
301.81415
301.8415
301.82257
301.85101
301.83342
301.8632
301.84713
301.8784
301.86391
301.89674
301.88385
301.91822
301.90687
301.94272
301.93283
301.97008
301.96154
302.00007
301.99277
302.03245
302.02627
302.06699
302.06181
302.10344
302.09916
302.14158
302.13812
302.18122
302.17848
302.22214
302.22006
302.2642
302.2627
302.30722
302.30625
302.35107
302.3506
302.39562
301.78468
301.80841
301.78714
301.81188
301.79094
301.81573
301.79501
301.81978
301.7993
301.82413
301.804
301.8291
301.80957
301.83523
301.81656
301.84309
301.82554
301.85318
301.83693
301.86584
301.851
301.88128
301.8679
301.89957
301.88762
301.92065
301.9101
301.94443
301.9352
301.97074
301.96273
301.99939
301.99252
302.03018
302.02436
302.06291
302.05804
302.09738
302.09338
302.1334
302.1302
302.1708
302.16833
302.20941
302.20762
302.24908
302.24792
302.28968
302.28911
302.33108
301.78567
301.80782
301.78704
301.81035
301.79003
301.81347
301.79344
301.8169
301.79712
301.82063
301.80115
301.82485
301.80585
301.82997
301.81167
301.83646
301.81909
301.84479
301.82854
301.85531
301.8403
301.86826
301.85456
301.88375
301.87139
301.90182
301.89077
301.92239
301.91261
301.94537
301.9368
301.97061
301.96318
301.99795
301.99159
302.02722
302.02185
302.05825
302.05381
302.09087
302.08728
302.12492
302.12213
302.16025
302.15821
302.19672
302.19539
302.23419
302.23354
302.27256
301.7868
301.80755
301.78729
301.80925
301.78956
301.81171
301.79235
301.81456
301.79547
301.81771
301.7989
301.82128
301.80285
301.82554
301.80769
301.8309
301.81383
301.83776
301.82164
301.84647
301.83144
301.85728
301.84343
301.87035
301.85773
301.88575
301.87436
301.90347
301.8933
301.92346
301.91446
301.9456
301.93774
301.96978
301.96299
301.99586
301.99009
302.0237
302.01888
302.05314
302.04922
302.08404
302.08097
302.11626
302.11401
302.14968
302.1482
302.18417
302.18344
302.21962
301.78791
301.80745
301.78779
301.80848
301.78944
301.81035
301.79166
301.81266
301.79425
301.81529
301.79714
301.81827
301.80046
301.82181
301.80447
301.82622
301.80953
301.83185
301.81597
301.83903
301.82411
301.84801
301.83415
301.85899
301.84625
301.87206
301.86047
301.88726
301.87682
301.90456
301.89527
301.92391
301.91572
301.94522
301.93809
301.96837
301.96227
301.99324
301.98812
302.01972
302.01554
302.04767
302.04438
302.07698
302.07455
302.10751
302.10591
302.13917
302.13838
302.17184
301.78892
301.80744
301.78844
301.80796
301.78957
301.80931
301.79129
301.81113
301.7934
301.81328
301.7958
301.81574
301.79855
301.81865
301.80187
301.82226
301.80602
301.82685
301.81131
301.83274
301.81804
301.84017
301.82641
301.84935
301.83661
301.86039
301.84872
301.87336
301.86278
301.88828
301.87879
301.90512
301.89671
301.92381
301.91646
301.94429
301.93795
301.96645
301.9611
301.99018
301.98579
302.01539
302.01193
302.04196
302.03939
302.06978
302.06809
302.09875
302.09791
302.12878
301.78983
301.80745
301.78917
301.8076
301.78988
301.80852
301.79117
301.8099
301.79284
301.81161
301.79479
301.81361
301.79705
301.81597
301.79976
301.81888
301.80314
301.82261
301.80747
301.8274
301.813
301.83351
301.81995
301.84114
301.82851
301.85042
301.83877
301.86144
301.85082
301.87425
301.86467
301.88884
301.8803
301.90519
301.89768
301.92323
301.91674
301.9429
301.9374
301.96411
301.95958
301.98677
301.98318
302.01079
302.00812
302.03608
302.03431
302.06253
302.06165
302.09006
301.79063
301.80745
301.78992
301.80734
301.79031
301.80791
301.79123
301.80891
301.79251
301.81023
301.79406
301.81179
301.79587
301.81366
301.79805
301.81599
301.80078
301.81897
301.80429
301.82284
301.8088
301.82783
301.81454
301.83412
301.82168
301.84188
301.83035
301.8512
301.84063
301.86215
301.85257
301.87475
301.86616
301.88898
301.8814
301.90483
301.89825
301.92223
301.91663
301.94113
301.9365
301.96145
301.95777
301.9831
301.98036
302.00602
302.0042
302.03011
302.0292
302.0553
301.79134
301.80743
301.79065
301.80715
301.79082
301.80743
301.79143
301.80811
301.79236
301.80905
301.79354
301.81023
301.79494
301.81167
301.79665
301.81347
301.79882
301.81582
301.80163
301.8189
301.80529
301.82293
301.80999
301.8281
301.81592
301.83454
301.8232
301.84238
301.83194
301.85169
301.84219
301.86252
301.85397
301.87488
301.8673
301.88875
301.88214
301.9041
301.89846
301.92089
301.9162
301.93905
301.93532
301.95853
301.95574
301.97924
301.97739
302.00113
302.00021
302.02412
301.79197
301.80736
301.79136
301.80698
301.79136
301.80705
301.79171
301.80743
301.79233
301.80805
301.79316
301.80887
301.7942
301.80991
301.7955
301.81125
301.79717
301.81305
301.79938
301.81547
301.80231
301.81869
301.80614
301.82288
301.81103
301.82819
301.81712
301.83475
301.82451
301.84264
301.83327
301.85191
301.84345
301.86259
301.85507
301.87469
301.86811
301.88819
301.88255
301.90306
301.89837
301.91926
301.91551
301.93673
301.93393
301.95542
301.95355
301.97526
301.97433
301.9962
301.79253
301.80726
301.79202
301.80682
301.7919
301.80671
301.79204
301.80684
301.79238
301.80716
301.7929
301.80764
301.79359
301.80832
301.79451
301.80927
301.79576
301.81059
301.79745
301.81243
301.79976
301.81496
301.80284
301.81833
301.80684
301.82267
301.8119
301.82812
301.81812
301.83477
301.82559
301.84267
301.83436
301.85187
301.84445
301.86239
301.85588
301.87423
301.86864
301.88736
301.8827
301.90177
301.89804
301.9174
301.91461
301.93422
301.93236
301.95218
301.95125
301.97122
301.79302
301.80712
301.79263
301.80664
301.79243
301.8064
301.79238
301.8063
301.79247
301.80634
301.79269
301.80652
301.79307
301.80687
301.79365
301.80745
301.79451
301.80836
301.79576
301.80971
301.79754
301.81164
301.79998
301.81431
301.80322
301.81782
301.8074
301.82232
301.81261
301.82788
301.81895
301.83459
301.82647
301.84249
301.83522
301.8516
301.84521
301.86195
301.85645
301.87352
301.86893
301.88631
301.88262
301.90027
301.89751
301.91539
301.91354
301.9316
301.93068
301.94888
301.79346
301.80693
301.79318
301.80645
301.79292
301.80608
301.7927
301.80578
301.79255
301.80556
301.7925
301.80545
301.79259
301.8055
301.79286
301.80575
301.79338
301.80629
301.79425
301.80722
301.79556
301.80865
301.79746
301.81071
301.80006
301.81352
301.80348
301.8172
301.80782
301.82183
301.81318
301.82749
301.81961
301.83424
301.82717
301.84212
301.83588
301.85114
301.84576
301.86131
301.85681
301.87263
301.86902
301.88508
301.88236
301.89863
301.89682
301.91325
301.91235
301.92892
301.79384
301.80671
301.79368
301.80622
301.79336
301.80575
301.79299
301.80524
301.79261
301.80477
301.79229
301.80439
301.79211
301.80416
301.79209
301.80412
301.79231
301.80434
301.79284
301.8049
301.79377
301.8059
301.7952
301.80745
301.79724
301.80966
301.80002
301.81264
301.80361
301.81646
301.80812
301.82122
301.8136
301.82697
301.82011
301.83375
301.82769
301.8416
301.83636
301.85052
301.84613
301.86052
301.85699
301.8716
301.86894
301.88373
301.88196
301.89689
301.89601
301.91106
301.79417
301.80646
301.79412
301.80596
301.79373
301.80536
301.7932
301.80466
301.7926
301.80395
301.79204
301.80332
301.79159
301.80283
301.79132
301.80252
301.79127
301.80246
301.7915
301.80271
301.79209
301.80334
301.79312
301.80446
301.7947
301.80616
301.79692
301.80853
301.79988
301.81167
301.80365
301.81564
301.8083
301.82051
301.8139
301.82634
301.82048
301.83314
301.82807
301.84095
301.8367
301.84978
301.84635
301.85962
301.85703
301.87046
301.86873
301.88229
301.88143
301.8951
301.79445
301.80618
301.7945
301.80565
301.79403
301.80492
301.79332
301.80401
301.7925
301.80307
301.7917
301.8022
301.79101
301.80147
301.7905
301.80093
301.79021
301.80061
301.79019
301.80059
301.79049
301.80091
301.79118
301.80166
301.79237
301.80292
301.79412
301.80479
301.79652
301.80733
301.79966
301.81063
301.8036
301.81475
301.8084
301.81973
301.8141
301.82562
301.82074
301.83244
301.82834
301.84021
301.83691
301.84894
301.84645
301.85863
301.85696
301.86925
301.86842
301.88081
301.79469
301.80586
301.79483
301.80528
301.79424
301.80439
301.79334
301.80327
301.79228
301.80209
301.79125
301.801
301.79034
301.80005
301.78962
301.7993
301.78911
301.79877
301.78886
301.79851
301.78892
301.79856
301.78933
301.79901
301.79018
301.79991
301.79153
301.80134
301.79347
301.80338
301.79606
301.8061
301.79939
301.80956
301.80349
301.81381
301.80842
301.81889
301.81421
301.82484
301.8209
301.83168
301.8285
301.83941
301.83701
301.84805
301.84644
301.85759
301.85678
301.86801
301.79487
301.80552
301.79508
301.80485
301.79435
301.80376
301.79321
301.8024
301.79192
301.801
301.79067
301.79969
301.78956
301.79855
301.78864
301.79761
301.78795
301.7969
301.78751
301.79644
301.78735
301.79627
301.78752
301.79646
301.78809
301.79705
301.7891
301.79812
301.79065
301.79973
301.79278
301.80196
301.79557
301.80485
301.79907
301.80847
301.80332
301.81285
301.80838
301.81803
301.81426
301.82403
301.82099