/*--------------------------------*- C++ -*----------------------------------*\
| =========                 |                                                 |
| \\      /  F ield         | OpenFOAM: The Open Source CFD Toolbox           |
|  \\    /   O peration     | Version:  2312                                  |
|   \\  /    A nd           | Website:  www.openfoam.com                      |
|    \\/     M anipulation  |                                                 |
\*---------------------------------------------------------------------------*/
FoamFile
{
    version     2.0;
    format      ascii;
    arch        "LSB;label=32;scalar=64";
    class       volVectorField;
    location    "7";
    object      U;
}
// * * * * * * * * * * * * * * * * * * * * * * * * * * * * * * * * * * * * * //

dimensions      [0 1 -1 0 0 0 0];

internalField   nonuniform List<vector> 
4000
(
(0.0023338478 0.00042384327 0)
(0.0030397557 -6.8351485e-06 0)
(0.0024291448 -3.5051998e-07 0)
(0.0025689493 2.2537506e-07 0)
(0.0024867621 -2.6030219e-07 0)
(0.002543226 2.3484603e-07 0)
(0.0024909419 -2.2171765e-07 0)
(0.0025383944 2.0820373e-07 0)
(0.0024941973 -1.9544966e-07 0)
(0.0025355144 1.8386669e-07 0)
(0.002496719 -1.7305475e-07 0)
(0.0025331204 1.6283878e-07 0)
(0.0024989174 -1.5331288e-07 0)
(0.0025310295 1.4432772e-07 0)
(0.0025008707 -1.3590988e-07 0)
(0.0025291819 1.279984e-07 0)
(0.002502606 -1.2057307e-07 0)
(0.0025275442 1.1360787e-07 0)
(0.0025041472 -1.0706821e-07 0)
(0.0025260904 1.0094133e-07 0)
(0.0025055166 -9.5190147e-08 0)
(0.002524798 8.9807756e-08 0)
(0.0025067348 -8.4758408e-08 0)
(0.0025236475 8.0038348e-08 0)
(0.0025078202 -7.5614361e-08 0)
(0.0025226215 7.1484642e-08 0)
(0.0025087892 -6.7618874e-08 0)
(0.0025217042 6.4016526e-08 0)
(0.0025096565 -6.0650262e-08 0)
(0.0025208819 5.7520375e-08 0)
(0.0025104354 -5.4602475e-08 0)
(0.002520142 5.189736e-08 0)
(0.0025111377 -4.9383499e-08 0)
(0.0025194733 4.7061958e-08 0)
(0.002511774 -4.4913962e-08 0)
(0.0025188657 4.2940668e-08 0)
(0.0025123541 -4.1125949e-08 0)
(0.00251831 3.9470926e-08 0)
(0.0025128867 -3.7962023e-08 0)
(0.0025177977 3.6600239e-08 0)
(0.0025133798 -3.5374475e-08 0)
(0.0025173212 3.4285621e-08 0)
(0.002513841 -3.3324939e-08 0)
(0.002516873 3.2493319e-08 0)
(0.0025142769 -3.1785995e-08 0)
(0.0025164459 3.1196467e-08 0)
(0.0025146944 -3.0748949e-08 0)
(0.0025160461 3.0408771e-08 0)
(0.0025151751 -2.9948238e-08 0)
(0.0025159518 3.203899e-08 0)
(0.0062547298 0.0011607171 0)
(0.0085554797 1.8620478e-06 0)
(0.0071245961 4.8773749e-06 0)
(0.0074445735 3.0671527e-07 0)
(0.0072184281 -6.0495865e-07 0)
(0.0073830598 8.1531381e-07 0)
(0.007229517 -7.5478085e-07 0)
(0.0073697784 7.2642435e-07 0)
(0.007239155 -6.8634213e-07 0)
(0.0073614227 6.4823471e-07 0)
(0.0072466204 -6.0983956e-07 0)
(0.007354358 5.7471727e-07 0)
(0.0072531359 -5.4074076e-07 0)
(0.0073481705 5.0930027e-07 0)
(0.007258926 -4.7947518e-07 0)
(0.0073427009 4.5163063e-07 0)
(0.0072640702 -4.2540586e-07 0)
(0.0073378521 4.0084597e-07 0)
(0.007268639 -3.7777624e-07 0)
(0.0073335469 3.5615972e-07 0)
(0.0072726993 -3.3588003e-07 0)
(0.0073297193 3.1688707e-07 0)
(0.0072763119 -2.9908528e-07 0)
(0.007326311 2.8242914e-07 0)
(0.0072795314 -2.6683367e-07 0)
(0.0073232701 2.5226121e-07 0)
(0.0072824068 -2.3863475e-07 0)
(0.0073205507 2.2592406e-07 0)
(0.0072849818 -2.1405943e-07 0)
(0.0073181113 2.0301684e-07 0)
(0.0072872956 -1.9273369e-07 0)
(0.007315915 1.8319093e-07 0)
(0.0072893832 -1.7433293e-07 0)
(0.0073139284 1.6614459e-07 0)
(0.0072912765 -1.5857704e-07 0)
(0.0073121214 1.5161834e-07 0)
(0.007293004 -1.4522616e-07 0)
(0.0073104667 1.3939104e-07 0)
(0.0072945922 -1.3407701e-07 0)
(0.0073089391 1.2927654e-07 0)
(0.007296065 -1.2495998e-07 0)
(0.0073075155 1.2112111e-07 0)
(0.0072974449 -1.1773624e-07 0)
(0.0073061741 1.1480515e-07 0)
(0.0072987523 -1.1228907e-07 0)
(0.0073048923 1.102353e-07 0)
(0.0073000049 -1.0869492e-07 0)
(0.0073036688 1.0645997e-07 0)
(0.0073013733 -1.104644e-07 0)
(0.007303203 1.0223039e-07 0)
(0.010040001 0.0018382999 0)
(0.013787023 -9.8910388e-06 0)
(0.011700537 1.2324561e-05 0)
(0.012195308 5.0965607e-07 0)
(0.011824239 -9.29383e-07 0)
(0.012101156 1.4761381e-06 0)
(0.011843627 -1.3587799e-06 0)
(0.012079807 1.3153433e-06 0)
(0.011859974 -1.2471049e-06 0)
(0.012065876 1.1788699e-06 0)
(0.011872555 -1.1090073e-06 0)
(0.012053996 1.045594e-06 0)
(0.011883536 -9.8358923e-07 0)
(0.012043578 9.2651032e-07 0)
(0.011893295 -8.722072e-07 0)
(0.012034366 8.2155973e-07 0)
(0.011901963 -7.7386207e-07 0)
(0.012026198 7.2916307e-07 0)
(0.011909662 -6.8721729e-07 0)
(0.012018946 6.4786955e-07 0)
(0.011916505 -6.1099869e-07 0)
(0.012012498 5.7642623e-07 0)
(0.011922593 -5.4405947e-07 0)
(0.012006756 5.1374142e-07 0)
(0.01192802 -4.853845e-07 0)
(0.012001632 4.5885995e-07 0)
(0.011932867 -4.3408163e-07 0)
(0.011997049 4.1094623e-07 0)
(0.011937208 -3.8937013e-07 0)
(0.011992937 3.6927098e-07 0)
(0.01194111 -3.5056943e-07 0)
(0.011989234 3.331999e-07 0)
(0.011944632 -3.1708881e-07 0)
(0.011985883 3.0218389e-07 0)
(0.011947827 -2.8841838e-07 0)
(0.011982834 2.7575055e-07 0)
(0.011950743 -2.6412123e-07 0)
(0.011980041 2.5349697e-07 0)
(0.011953426 -2.438267e-07 0)
(0.01197746 2.3508343e-07 0)
(0.011955915 -2.2722477e-07 0)
(0.011975054 2.2022801e-07 0)
(0.011958249 -2.1405976e-07 0)
(0.011972784 2.0871057e-07 0)
(0.011960463 -2.0410295e-07 0)
(0.011970613 2.0037084e-07 0)
(0.011962586 -1.9748556e-07 0)
(0.011968526 1.9305744e-07 0)
(0.011964857 -2.0314371e-07 0)
(0.011967578 1.8467336e-07 0)
(0.013894083 0.0025224561 0)
(0.018825545 -1.4868385e-05 0)
(0.016155322 2.2818342e-05 0)
(0.01682053 4.8575811e-07 0)
(0.01630416 -1.0738433e-06 0)
(0.016697757 2.0969608e-06 0)
(0.016333089 -1.9279305e-06 0)
(0.016668697 1.8752141e-06 0)
(0.016356482 -1.7859777e-06 0)
(0.016649073 1.6895125e-06 0)
(0.016374368 -1.5894258e-06 0)
(0.016632214 1.4991994e-06 0)
(0.01638998 -1.4100324e-06 0)
(0.016617411 1.3283519e-06 0)
(0.016403852 -1.2504485e-06 0)
(0.016604319 1.1778268e-06 0)
(0.016416173 -1.1094743e-06 0)
(0.016592711 1.0453436e-06 0)
(0.016427116 -9.852531e-07 0)
(0.016582405 9.2879222e-07 0)
(0.016436841 -8.759743e-07 0)
(0.01657324 8.2636568e-07 0)
(0.016445494 -7.79998e-07 0)
(0.016565079 7.3649578e-07 0)
(0.016453208 -6.958698e-07 0)
(0.016557796 6.5781225e-07 0)
(0.016460098 -6.2231071e-07 0)
(0.016551281 5.89117e-07 0)
(0.016466269 -5.5820134e-07 0)
(0.016545436 5.2936449e-07 0)
(0.016471817 -5.0256579e-07 0)
(0.016540171 4.7764532e-07 0)
(0.016476824 -4.5455697e-07 0)
(0.016535407 4.3317217e-07 0)
(0.016481366 -4.1344357e-07 0)
(0.016531071 3.9526758e-07 0)
(0.016485514 -3.7859879e-07 0)
(0.016527098 3.6335348e-07 0)
(0.01648933 -3.4949058e-07 0)
(0.016523427 3.3694205e-07 0)
(0.016492871 -3.2567342e-07 0)
(0.016520003 3.1562742e-07 0)
(0.016496193 -3.0677832e-07 0)
(0.016516773 2.9909329e-07 0)
(0.016499344 -2.9245821e-07 0)
(0.016513681 2.8713061e-07 0)
(0.016502368 -2.8290499e-07 0)
(0.016510695 2.7605543e-07 0)
(0.016505555 -2.9471581e-07 0)
(0.016509151 2.6374051e-07 0)
(0.017469416 0.0030648845 0)
(0.023600602 -3.9428335e-05 0)
(0.020486975 3.5282457e-05 0)
(0.021320233 3.4840521e-07 0)
(0.020658145 -1.032948e-06 0)
(0.021172762 2.6444316e-06 0)
(0.020698022 -2.4409399e-06 0)
(0.021136326 2.3817201e-06 0)
(0.020728777 -2.2811484e-06 0)
(0.021110904 2.15914e-06 0)
(0.020752146 -2.0313561e-06 0)
(0.021088914 1.9169197e-06 0)
(0.020772543 -1.8025246e-06 0)
(0.021069584 1.6983339e-06 0)
(0.020790663 -1.5986372e-06 0)
(0.021052486 1.5058107e-06 0)
(0.020806757 -1.4184368e-06 0)
(0.021037327 1.3364117e-06 0)
(0.020821048 -1.2596256e-06 0)
(0.021023866 1.1873989e-06 0)
(0.020833749 -1.1199102e-06 0)
(0.021011897 1.0564483e-06 0)
(0.020845051 -9.9719989e-07 0)
(0.021001238 9.4155114e-07 0)
(0.020855124 -8.8963667e-07 0)
(0.020991726 8.409544e-07 0)
(0.020864122 -7.9558564e-07 0)
(0.020983218 7.5312623e-07 0)
(0.020872183 -7.1361566e-07 0)
(0.020975584 6.7672996e-07 0)
(0.020879427 -6.4247894e-07 0)
(0.020968708 6.1060296e-07 0)
(0.020885966 -5.8109231e-07 0)
(0.020962486 5.537386e-07 0)
(0.020891899 -5.2852058e-07 0)
(0.020956824 5.0527061e-07 0)
(0.020897315 -4.8396203e-07 0)
(0.020951636 4.6445959e-07 0)
(0.020902298 -4.4673586e-07 0)
(0.020946843 4.3068113e-07 0)
(0.020906923 -4.1627153e-07 0)
(0.020942371 4.0341469e-07 0)
(0.020911261 -3.9209507e-07 0)
(0.020938152 3.8225588e-07 0)
(0.020915377 -3.7373965e-07 0)
(0.020934115 3.6696989e-07 0)
(0.020919327 -3.6144142e-07 0)
(0.020930204 3.5214614e-07 0)
(0.020923442 -3.8114889e-07 0)
(0.020927968 3.3619486e-07 0)
(0.021169252 0.0036435172 0)
(0.02818757 -4.7373414e-05 0)
(0.024697745 4.9697203e-05 0)
(0.025692666 -4.6562726e-09 0)
(0.024886589 -8.4880272e-07 0)
(0.025525831 3.115681e-06 0)
(0.024938845 -2.9030639e-06 0)
(0.025482339 2.8366087e-06 0)
(0.024977204 -2.7352263e-06 0)
(0.02545105 2.5897376e-06 0)
(0.025006191 -2.4367709e-06 0)
(0.025423815 2.3005225e-06 0)
(0.025031491 -2.162765e-06 0)
(0.025399851 2.0380316e-06 0)
(0.025053964 -1.9182731e-06 0)
(0.02537865 1.8069139e-06 0)
(0.02507392 -1.7020796e-06 0)
(0.025359851 1.6036146e-06 0)
(0.025091642 -1.5115161e-06 0)
(0.02534316 1.4247992e-06 0)
(0.02510739 -1.3438574e-06 0)
(0.025328319 1.2676626e-06 0)
(0.025121403 -1.1966018e-06 0)
(0.025315102 1.1297894e-06 0)
(0.025133893 -1.0675217e-06 0)
(0.025303309 1.0090753e-06 0)
(0.02514505 -9.5465566e-07 0)
(0.025292759 9.0368165e-07 0)
(0.025155043 -8.5628633e-07 0)
(0.025283295 8.1200468e-07 0)
(0.025164025 -7.7091632e-07 0)
(0.02527477 7.3264929e-07 0)
(0.025172131 -6.9724566e-07 0)
(0.025267057 6.6440747e-07 0)
(0.025179486 -6.3415182e-07 0)
(0.025260038 6.062395e-07 0)
(0.0251862 -5.8067231e-07 0)
(0.025253607 5.5725765e-07 0)
(0.025192376 -5.3598944e-07 0)
(0.025247666 5.1671173e-07 0)
(0.025198107 -4.9941733e-07 0)
(0.025242124 4.8397488e-07 0)
(0.025203483 -4.7038437e-07 0)
(0.025236897 4.5856095e-07 0)
(0.025208584 -4.4830192e-07 0)
(0.025231895 4.40229e-07 0)
(0.025213479 -4.3341939e-07 0)
(0.025227041 4.2170682e-07 0)
(0.025218528 -4.6231778e-07 0)
(0.025224033 4.0200575e-07 0)
(0.024663578 0.0041046652 0)
(0.032498433 -8.3627063e-05 0)
(0.028790298 6.4445147e-05 0)
(0.029936159 -3.2060128e-07 0)
(0.028989445 -5.4596035e-07 0)
(0.02975655 3.5049605e-06 0)
(0.029056 -3.3214849e-06 0)
(0.029706365 3.2429426e-06 0)
(0.029102124 -3.1519962e-06 0)
(0.029669173 2.984429e-06 0)
(0.029136822 -2.808701e-06 0)
(0.029636618 2.6527819e-06 0)
(0.029167106 -2.4933919e-06 0)
(0.029607946 2.3499118e-06 0)
(0.029194002 -2.211688e-06 0)
(0.029582576 2.0833283e-06 0)
(0.029217883 -1.9624703e-06 0)
(0.02956008 1.8488998e-06 0)
(0.029239089 -1.7427614e-06 0)
(0.029540106 1.6427246e-06 0)
(0.029257934 -1.5494495e-06 0)
(0.029522347 1.4615499e-06 0)
(0.029274701 -1.3796592e-06 0)
(0.029506531 1.3025855e-06 0)
(0.029289646 -1.2308244e-06 0)
(0.02949242 1.1634039e-06 0)
(0.029302996 -1.100684e-06 0)
(0.029479797 1.0418852e-06 0)
(0.029314952 -9.8725811e-07 0)
(0.029468473 9.3618017e-07 0)
(0.029325698 -8.8882003e-07 0)
(0.029458274 8.4468046e-07 0)
(0.029335396 -8.0387069e-07 0)
(0.029449047 7.6599314e-07 0)
(0.029344194 -7.3111548e-07 0)
(0.02944065 6.989191e-07 0)
(0.029352226 -6.6944407e-07 0)
(0.029432958 6.4243423e-07 0)
(0.029359612 -6.1791273e-07 0)
(0.029425853 5.9567238e-07 0)
(0.029366467 -5.7572898e-07 0)
(0.029419226 5.579079e-07 0)
(0.029372894 -5.4223018e-07 0)
(0.029412975 5.2857798e-07 0)
(0.029378993 -5.1670416e-07 0)
(0.029406996 5.0745291e-07 0)
(0.029384845 -4.9937322e-07 0)
(0.029401187 4.8532145e-07 0)
(0.029390833 -5.3834304e-07 0)
(0.02939734 4.6151952e-07 0)
(0.028164375 0.0045321183 0)
(0.036643445 -9.5381142e-05 0)
(0.032768543 7.9845101e-05 0)
(0.03404837 -5.7157842e-07 0)
(0.032966747 -1.6442769e-07 0)
(0.03386463 3.8053253e-06 0)
(0.033049902 -3.6986883e-06 0)
(0.033808087 3.6009338e-06 0)
(0.033103864 -3.5322286e-06 0)
(0.033764977 3.3436106e-06 0)
(0.033144319 -3.1475844e-06 0)
(0.03372706 2.9740424e-06 0)
(0.033179635 -2.7947514e-06 0)
(0.033693637 2.6342883e-06 0)
(0.033210995 -2.4791816e-06 0)
(0.033664059 2.3353363e-06 0)
(0.033238838 -2.1998741e-06 0)
(0.033637832 2.0725192e-06 0)
(0.033263561 -1.9535968e-06 0)
(0.033614545 1.8413999e-06 0)
(0.03328553 -1.7368965e-06 0)
(0.03359384 1.6383108e-06 0)
(0.033305077 -1.54656e-06 0)
(0.033575402 1.4601188e-06 0)
(0.0333225 -1.3797133e-06 0)
(0.033558951 1.3041013e-06 0)
(0.033338061 -1.2338226e-06 0)
(0.033544236 1.167882e-06 0)
(0.033351999 -1.1066685e-06 0)
(0.033531035 1.0493882e-06 0)
(0.033364525 -9.9631522e-07 0)
(0.033519147 9.4681675e-07 0)
(0.033375829 -9.0108218e-07 0)
(0.033508392 8.5860623e-07 0)
(0.033386083 -8.1951769e-07 0)
(0.033498606 7.8341217e-07 0)
(0.033395443 -7.5037647e-07 0)
(0.033489642 7.2008585e-07 0)
(0.03340405 -6.9259949e-07 0)
(0.033481362 6.6765496e-07 0)
(0.033412037 -6.4529645e-07 0)
(0.033473641 6.2530265e-07 0)
(0.033419525 -6.0772046e-07 0)
(0.03346636 5.9239457e-07 0)
(0.03342663 -5.7903581e-07 0)
(0.033459397 5.6872857e-07 0)
(0.033433446 -5.593957e-07 0)
(0.033452628 5.4312767e-07 0)
(0.033440372 -6.0899006e-07 0)
(0.033447886 5.1477466e-07 0)
(0.031737215 0.0049715634 0)
(0.04050787 -0.00013840361 0)
(0.036632274 9.4427885e-05 0)
(0.038028858 -9.4395252e-07 0)
(0.03681826 1.736075e-07 0)
(0.037849779 3.9844189e-06 0)
(0.036920924 -4.0381728e-06 0)
(0.037787241 3.9102296e-06 0)
(0.036982711 -3.8755015e-06 0)
(0.037738206 3.6669672e-06 0)
(0.03702893 -3.4530143e-06 0)
(0.03769491 3.2639251e-06 0)
(0.037069296 -3.0664812e-06 0)
(0.037656721 2.8908196e-06 0)
(0.037105136 -2.7204312e-06 0)
(0.03762292 2.5626366e-06 0)
(0.037136955 -2.4140042e-06 0)
(0.037592949 2.2742063e-06 0)
(0.037165206 -2.1437681e-06 0)
(0.037566337 2.0205883e-06 0)
(0.03719031 -1.9059727e-06 0)
(0.037542676 1.7977351e-06 0)
(0.037212647 -1.6971036e-06 0)
(0.037521606 1.6022023e-06 0)
(0.037232554 -1.5140102e-06 0)
(0.037502807 1.4310011e-06 0)
(0.037250336 -1.3539128e-06 0)
(0.037485993 1.2815238e-06 0)
(0.037266261 -1.2143759e-06 0)
(0.037470909 1.151496e-06 0)
(0.037280573 -1.0932755e-06 0)
(0.037457326 1.0389393e-06 0)
(0.037293488 -9.8876681e-07 0)
(0.037445038 9.4214e-07 0)
(0.037305203 -8.9925657e-07 0)
(0.037433859 8.5962247e-07 0)
(0.037315895 -8.2337753e-07 0)
(0.037423619 7.9012542e-07 0)
(0.037325727 -7.5996638e-07 0)
(0.037414162 7.3258037e-07 0)
(0.037334849 -7.08044e-07 0)
(0.037405344 6.8608721e-07 0)
(0.0373434 -6.6678638e-07 0)
(0.037397029 6.4994528e-07 0)
(0.037351512 -6.3523623e-07 0)
(0.03738908 6.2399544e-07 0)
(0.037359295 -6.134372e-07 0)
(0.03738135 5.9511169e-07 0)
(0.037367154 -6.7392778e-07 0)
(0.037375672 5.6175061e-07 0)
(0.035003917 0.0052260603 0)
(0.044219842 -0.00015529623 0)
(0.040379198 0.00010939748 0)
(0.041880496 -1.7193174e-06 0)
(0.0405454 3.4282327e-07 0)
(0.041711776 4.0057587e-06 0)
(0.040669342 -4.3485335e-06 0)
(0.041643562 4.1687894e-06 0)
(0.040738914 -4.1822945e-06 0)
(0.041588624 3.9542071e-06 0)
(0.040790875 -3.7248805e-06 0)
(0.041539962 3.5222406e-06 0)
(0.040836282 -3.3084292e-06 0)
(0.041497014 3.1193506e-06 0)
(0.040876596 -2.9352939e-06 0)
(0.041458998 2.7650952e-06 0)
(0.040912383 -2.6047323e-06 0)
(0.041425288 2.4538429e-06 0)
(0.040944157 -2.3131611e-06 0)
(0.041395356 2.1801852e-06 0)
(0.040972391 -2.0565769e-06 0)
(0.041368745 1.9397296e-06 0)
(0.040997512 -1.8312004e-06 0)
(0.041345047 1.7287532e-06 0)
(0.041019901 -1.6336355e-06 0)
(0.041323904 1.5440295e-06 0)
(0.041039898 -1.4608837e-06 0)
(0.041304994 1.3827447e-06 0)
(0.041057808 -1.3103174e-06 0)
(0.04128803 1.242445e-06 0)
(0.041073902 -1.1796445e-06 0)
(0.041272756 1.1209956e-06 0)
(0.041088425 -1.0668743e-06 0)
(0.041258938 1.0165474e-06 0)
(0.041101598 -9.7028702e-07 0)
(0.041246367 9.2750769e-07 0)
(0.04111362 -8.8840673e-07 0)
(0.041234853 8.5251482e-07 0)
(0.041124674 -8.1997688e-07 0)
(0.041224221 7.9041422e-07 0)
(0.041134929 -7.639387e-07 0)
(0.041214308 7.4023062e-07 0)
(0.041144541 -7.1939846e-07 0)
(0.041204963 7.0120252e-07 0)
(0.041153658 -6.8528095e-07 0)
(0.041196031 6.7322753e-07 0)
(0.041162405 -6.6148299e-07 0)
(0.041187344 6.4128314e-07 0)
(0.04117119 -7.3289092e-07 0)
(0.041180695 6.0249625e-07 0)
(0.038687004 0.0056591746 0)
(0.047677109 -0.0002015174 0)
(0.043993028 0.00012270792 0)
(0.045608956 -1.5434381e-06 0)
(0.04415182 6.2629406e-07 0)
(0.045450834 3.9369551e-06 0)
(0.044295553 -4.6140587e-06 0)
(0.04537684 4.3814321e-06 0)
(0.044372703 -4.4517321e-06 0)
(0.045316023 4.205802e-06 0)
(0.044430354 -3.9632382e-06 0)
(0.045262028 3.7491185e-06 0)
(0.04448077 -3.5206944e-06 0)
(0.045214352 3.3199787e-06 0)
(0.044525529 -3.1238597e-06 0)
(0.045172147 2.9427988e-06 0)
(0.04456526 -2.7721378e-06 0)
(0.045134721 2.6115062e-06 0)
(0.044600534 -2.4618462e-06 0)
(0.045101491 2.320259e-06 0)
(0.044631878 -2.1887717e-06 0)
(0.045071946 2.0643553e-06 0)
(0.044659766 -1.9489061e-06 0)
(0.045045637 1.8398257e-06 0)
(0.044684621 -1.7386391e-06 0)
(0.045022165 1.643235e-06 0)
(0.04470682 -1.5547804e-06 0)
(0.045001172 1.4715884e-06 0)
(0.044726702 -1.3945336e-06 0)
(0.044982341 1.3222745e-06 0)
(0.044744567 -1.2554592e-06 0)
(0.044965384 1.1930214e-06 0)
(0.044760688 -1.1354383e-06 0)
(0.044950046 1.0818611e-06 0)
(0.044775309 -1.03264e-06 0)
(0.044936093 9.87098e-07 0)
(0.044788653 -9.4549284e-07 0)
(0.044923314 9.0728219e-07 0)
(0.044800921 -8.726581e-07 0)
(0.044911514 8.4118318e-07 0)
(0.044812301 -8.1300651e-07 0)
(0.044900514 7.8775872e-07 0)
(0.044822967 -7.6558219e-07 0)
(0.044890145 7.46192e-07 0)
(0.044833082 -7.2919724e-07 0)
(0.044880237 7.1644927e-07 0)
(0.044842786 -7.0356877e-07 0)
(0.044870602 6.8169352e-07 0)
(0.044852487 -7.8569315e-07 0)
(0.044862957 6.371311e-07 0)
(0.041697315 0.0057443988 0)
(0.051003659 -0.00022510213 0)
(0.047479619 0.00013393357 0)
(0.049212899 -1.4669604e-06 0)
(0.047639279 8.1776068e-07 0)
(0.049066836 3.7485278e-06 0)
(0.047799807 -4.8440924e-06 0)
(0.048986875 4.5469959e-06 0)
(0.047884285 -4.6846594e-06 0)
(0.048920213 4.422003e-06 0)
(0.047947546 -4.1684339e-06 0)
(0.04886094 3.9448207e-06 0)
(0.048002918 -3.703546e-06 0)
(0.048808586 3.4929463e-06 0)
(0.048052075 -3.2863605e-06 0)
(0.048762235 3.0959653e-06 0)
(0.048095708 -2.9164249e-06 0)
(0.048721133 2.7473903e-06 0)
(0.048134446 -2.5900043e-06 0)
(0.048684638 2.4409822e-06 0)
(0.048168867 -2.3027177e-06 0)
(0.048652191 2.1717655e-06 0)
(0.048199493 -2.0503639e-06 0)
(0.048623299 1.9355566e-06 0)
(0.048226787 -1.8291488e-06 0)
(0.048597521 1.7287397e-06 0)
(0.048251166 -1.6357172e-06 0)
(0.048574467 1.5481642e-06 0)
(0.048272998 -1.4671272e-06 0)
(0.048553787 1.3910828e-06 0)
(0.048292617 -1.3208123e-06 0)
(0.048535167 1.2551055e-06 0)
(0.048310319 -1.1945428e-06 0)
(0.048518325 1.1381616e-06 0)
(0.048326373 -1.0863922e-06 0)
(0.048503004 1.038467e-06 0)
(0.048341024 -9.9470622e-07 0)
(0.048488973 9.5449544e-07 0)
(0.048354494 -9.1807526e-07 0)
(0.048476018 8.8495057e-07 0)
(0.048366987 -8.5530869e-07 0)
(0.048463942 8.2873144e-07 0)
(0.048378695 -8.0539609e-07 0)
(0.04845256 7.8497157e-07 0)
(0.048389798 -7.6704354e-07 0)
(0.048441687 7.5371565e-07 0)
(0.048400449 -7.3976099e-07 0)
(0.048431115 7.1641899e-07 0)
(0.048411053 -8.3220743e-07 0)
(0.048422457 6.6582151e-07 0)
(0.045486282 0.0061685876 0)
(0.054125344 -0.00026454431 0)
(0.050840273 0.00014229502 0)
(0.052690529 -1.9198243e-06 0)
(0.051007236 8.2630697e-07 0)
(0.052559567 3.438384e-06 0)
(0.051182296 -5.0412804e-06 0)
(0.052473495 4.666708e-06 0)
(0.05127385 -4.8812984e-06 0)
(0.052401029 4.6034595e-06 0)
(0.051342614 -4.3408292e-06 0)
(0.052336548 4.1097706e-06 0)
(0.051402868 -3.8573448e-06 0)
(0.052279582 3.638608e-06 0)
(0.05145636 -3.4231232e-06 0)
(0.052229146 3.2249067e-06 0)
(0.051503839 -3.037884e-06 0)
(0.05218442 2.8617714e-06 0)
(0.05154599 -2.6978933e-06 0)
(0.052144707 2.5426002e-06 0)
(0.051583444 -2.3986444e-06 0)
(0.0521094 2.2621784e-06 0)
(0.051616768 -2.1357782e-06 0)
(0.05207796 2.01614e-06 0)
(0.051646467 -1.9053471e-06 0)
(0.052049911 1.8007169e-06 0)
(0.051672993 -1.7038573e-06 0)
(0.052024825 1.6126272e-06 0)
(0.051696748 -1.5282447e-06 0)
(0.052002323 1.4490092e-06 0)
(0.051718094 -1.3758354e-06 0)
(0.051982064 1.3073735e-06 0)
(0.051737354 -1.2443069e-06 0)
(0.051963738 1.1855629e-06 0)
(0.051754822 -1.1316518e-06 0)
(0.051947069 1.0817188e-06 0)
(0.051770761 -1.0361462e-06 0)
(0.051931804 9.942502e-07 0)
(0.051785415 -9.5632018e-07 0)
(0.05191771 9.2180519e-07 0)
(0.051799006 -8.9093107e-07 0)
(0.051904574 8.632324e-07 0)
(0.051811741 -8.389216e-07 0)
(0.051892194 8.1762134e-07 0)
(0.051823818 -7.9889978e-07 0)
(0.05188037 7.8510283e-07 0)
(0.051835402 -7.7014711e-07 0)
(0.051868878 7.4555204e-07 0)
(0.051846892 -8.7235475e-07 0)
(0.051859198 6.8876659e-07 0)
(0.048268741 0.0061255671 0)
(0.057123446 -0.00029488634 0)
(0.054075077 0.00014951276 0)
(0.056043883 -2.1137558e-06 0)
(0.054256226 8.0309968e-07 0)
(0.05592911 3.0638829e-06 0)
(0.054443217 -5.1952988e-06 0)
(0.055836538 4.7439536e-06 0)
(0.054541561 -5.0416105e-06 0)
(0.055758317 4.7509331e-06 0)
(0.054615702 -4.4809329e-06 0)
(0.055688717 4.2444737e-06 0)
(0.054680748 -3.982565e-06 0)
(0.055627222 3.7574075e-06 0)
(0.054738496 -3.5345666e-06 0)
(0.055572774 3.3300178e-06 0)
(0.05478975 -3.1368858e-06 0)
(0.055524489 2.9550004e-06 0)
(0.054835253 -2.7858418e-06 0)
(0.055481616 2.6254245e-06 0)
(0.054875685 -2.4768438e-06 0)
(0.0554435 2.335871e-06 0)
(0.054911659 -2.2054089e-06 0)
(0.055409559 2.0818227e-06 0)
(0.054943719 -1.9674658e-06 0)
(0.055379278 1.8593869e-06 0)
(0.054972353 -1.759408e-06 0)
(0.055352198 1.6651745e-06 0)
(0.054997997 -1.5780718e-06 0)
(0.055327907 1.4962307e-06 0)
(0.055021039 -1.420696e-06 0)
(0.055306037 1.3499848e-06 0)
(0.055041829 -1.284882e-06 0)
(0.055286255 1.2242095e-06 0)
(0.055060684 -1.1685565e-06 0)
(0.055268263 1.1169848e-06 0)
(0.055077889 -1.0699384e-06 0)
(0.055251785 1.0266673e-06 0)
(0.055093705 -9.8750887e-07 0)
(0.055236573 9.5185912e-07 0)
(0.055108374 -9.1998184e-07 0)
(0.055222396 8.9136677e-07 0)
(0.055122119 -8.6626102e-07 0)
(0.055209035 8.4424168e-07 0)
(0.05513515 -8.248654e-07 0)
(0.055196278 8.1070619e-07 0)
(0.055147651 -7.9483327e-07 0)
(0.055183883 7.6920007e-07 0)
(0.055160009 -9.0609959e-07 0)
(0.055173179 7.0619055e-07 0)
(0.052024887 0.0064784345 0)
(0.059967201 -0.00033050068 0)
(0.057187262 0.00015451103 0)
(0.059274372 -2.396025e-06 0)
(0.057385439 6.7076019e-07 0)
(0.059175259 2.6172432e-06 0)
(0.057582691 -5.3089553e-06 0)
(0.059075837 4.7792821e-06 0)
(0.057687556 -5.166266e-06 0)
(0.058991938 4.8651909e-06 0)
(0.057766939 -4.5893543e-06 0)
(0.058917325 4.3495496e-06 0)
(0.057836671 -4.079764e-06 0)
(0.058851398 3.8498823e-06 0)
(0.057898583 -3.62119e-06 0)
(0.058793023 3.4117733e-06 0)
(0.057953531 -3.2138738e-06 0)
(0.058741257 3.0274979e-06 0)
(0.058002313 -2.854244e-06 0)
(0.058695292 2.6898283e-06 0)
(0.058045659 -2.5376663e-06 0)
(0.058654427 2.3931751e-06 0)
(0.058084225 -2.259568e-06 0)
(0.058618039 2.1329002e-06 0)
(0.058118595 -2.0157831e-06 0)
(0.058585575 1.9050134e-06 0)
(0.058149293 -1.802618e-06 0)
(0.058556543 1.7060421e-06 0)
(0.058176784 -1.6168315e-06 0)
(0.058530501 1.532959e-06 0)
(0.058201486 -1.4555945e-06 0)
(0.058507055 1.3831304e-06 0)
(0.058223774 -1.3164491e-06 0)
(0.058485848 1.2542741e-06 0)
(0.058243986 -1.1972706e-06 0)
(0.05846656 1.1444226e-06 0)
(0.058262429 -1.0962335e-06 0)
(0.058448897 1.0518913e-06 0)
(0.058279383 -1.01178e-06 0)
(0.05843259 9.752462e-07 0)
(0.058295107 -9.4259022e-07 0)
(0.058417393 9.1326002e-07 0)
(0.058309838 -8.8753626e-07 0)
(0.058403073 8.6495196e-07 0)
(0.058323805 -8.4505818e-07 0)
(0.058389403 8.306392e-07 0)
(0.058337203 -8.1394286e-07 0)
(0.058376127 7.8748475e-07 0)
(0.058350408 -9.3344648e-07 0)
(0.058364403 7.1833668e-07 0)
(0.054787875 0.0063871135 0)
(0.062699977 -0.00036195017 0)
(0.060179601 0.00015634791 0)
(0.062384205 -2.8197704e-06 0)
(0.060394635 4.4723475e-07 0)
(0.062298008 2.1149925e-06 0)
(0.06060088 -5.3771528e-06 0)
(0.062191268 4.7751035e-06 0)
(0.060711969 -5.2555806e-06 0)
(0.062101772 4.9471765e-06 0)
(0.06079644 -4.6667997e-06 0)
(0.062022265 4.4256956e-06 0)
(0.060870738 -4.1495914e-06 0)
(0.061952015 3.9166459e-06 0)
(0.06093671 -3.6835698e-06 0)
(0.061889812 3.4707172e-06 0)
(0.06099526 -3.2693589e-06 0)
(0.061834649 3.0797467e-06 0)
(0.06104724 -2.9035531e-06 0)
(0.06178567 2.7362407e-06 0)
(0.061093427 -2.5815148e-06 0)
(0.061742124 2.4344721e-06 0)
(0.06113452 -2.2986141e-06 0)
(0.061703349 2.1697123e-06 0)
(0.061171143 -2.0506189e-06 0)
(0.061668757 1.9378997e-06 0)
(0.061203852 -1.8337733e-06 0)
(0.061637821 1.7355013e-06 0)
(0.061233145 -1.6447801e-06 0)
(0.061610072 1.5594377e-06 0)
(0.061259465 -1.4807614e-06 0)
(0.061585089 1.4070296e-06 0)
(0.061283213 -1.3392164e-06 0)
(0.061562493 1.2759553e-06 0)
(0.061304749 -1.2179832e-06 0)
(0.061541941 1.164213e-06 0)
(0.0613244 -1.1152041e-06 0)
(0.061523121 1.070088e-06 0)
(0.061342465 -1.029293e-06 0)
(0.061505747 9.9212005e-07 0)
(0.061359216 -9.5890449e-07 0)
(0.061489556 9.2905597e-07 0)
(0.061374911 -9.0288703e-07 0)
(0.0614743 8.7988886e-07 0)
(0.061389789 -8.5961256e-07 0)
(0.06145974 8.450318e-07 0)
(0.061404062 -8.2761479e-07 0)
(0.061445606 8.0054094e-07 0)
(0.061418093 -9.5443639e-07 0)
(0.06143287 7.254617e-07 0)
(0.058445939 0.0066148617 0)
(0.065321652 -0.00039243982 0)
(0.063053369 0.0001565462 0)
(0.065376936 -3.3482473e-06 0)
(0.063283164 1.5966333e-07 0)
(0.065297218 1.5571821e-06 0)
(0.063497894 -5.3986561e-06 0)
(0.065182701 4.73276e-06 0)
(0.063614909 -5.3102838e-06 0)
(0.065087709 4.9978379e-06 0)
(0.063704303 -4.7140684e-06 0)
(0.06500344 4.4736913e-06 0)
(0.063783039 -4.1927678e-06 0)
(0.064928988 3.9583838e-06 0)
(0.063852956 -3.7223474e-06 0)
(0.064863064 3.5074566e-06 0)
(0.063915007 -3.3039104e-06 0)
(0.064804602 3.1122852e-06 0)
(0.063970093 -2.9342749e-06 0)
(0.064752692 2.7651398e-06 0)
(0.064019041 -2.6088388e-06 0)
(0.064706541 2.4601873e-06 0)
(0.064062591 -2.3229474e-06 0)
(0.064665447 2.1926376e-06 0)
(0.064101403 -2.0723301e-06 0)
(0.064628785 1.9583836e-06 0)
(0.064136068 -1.8531927e-06 0)
(0.064595999 1.7538544e-06 0)
(0.064167111 -1.6622035e-06 0)
(0.06456659 1.575938e-06 0)
(0.064195005 -1.4964539e-06 0)
(0.064540113 1.4219269e-06 0)
(0.064220172 -1.3534162e-06 0)
(0.064516166 1.2894745e-06 0)
(0.064242995 -1.2309053e-06 0)
(0.064494386 1.1765576e-06 0)
(0.06426382 -1.1270431e-06 0)
(0.064474442 1.0814426e-06 0)
(0.064282963 -1.0402253e-06 0)
(0.06445603 1.0026519e-06 0)
(0.064300715 -9.6908987e-07 0)
(0.064438873 9.3891484e-07 0)
(0.064317346 -9.1246891e-07 0)
(0.064422708 8.8920444e-07 0)
(0.064333111 -8.686778e-07 0)
(0.064407282 8.5402865e-07 0)
(0.064348234 -8.3600154e-07 0)
(0.064392315 8.0851533e-07 0)
(0.064363066 -9.6914318e-07 0)
(0.064378582 7.2783094e-07 0)
(0.061302263 0.0065080841 0)
(0.06784866 -0.00041975072 0)
(0.065804585 0.00015398599 0)
(0.068255079 -4.1157921e-06 0)
(0.066051254 -1.8597045e-07 0)
(0.068172965 9.3187163e-07 0)
(0.066273882 -5.3750164e-06 0)
(0.06805004 4.6526055e-06 0)
(0.066396477 -5.331548e-06 0)
(0.067949652 5.0180611e-06 0)
(0.06649062 -4.732092e-06 0)
(0.067860767 4.4943615e-06 0)
(0.066573652 -4.2100897e-06 0)
(0.067782244 3.9758402e-06 0)
(0.066647391 -3.7382246e-06 0)
(0.067712716 3.5226533e-06 0)
(0.066712832 -3.3181502e-06 0)
(0.067651056 3.1257009e-06 0)
(0.066770928 -2.9469612e-06 0)
(0.067596307 2.7770471e-06 0)
(0.066822551 -2.6201289e-06 0)
(0.067547633 2.4707844e-06 0)
(0.06686848 -2.3330046e-06 0)
(0.067504291 2.2020894e-06 0)
(0.066909413 -2.0813061e-06 0)
(0.067465625 1.9668339e-06 0)
(0.066945972 -1.8612245e-06 0)
(0.067431046 1.7614314e-06 0)
(0.066978711 -1.6694137e-06 0)
(0.06740003 1.5827562e-06 0)
(0.067008129 -1.5029524e-06 0)
(0.067372106 1.4280892e-06 0)
(0.067034671 -1.3593019e-06 0)
(0.067346851 1.2950734e-06 0)
(0.067058741 -1.236267e-06 0)
(0.06732388 1.1816765e-06 0)
(0.067080703 -1.1319608e-06 0)
(0.067302846 1.0861567e-06 0)
(0.067100891 -1.0447708e-06 0)
(0.06728343 1.0070285e-06 0)
(0.067119612 -9.7332666e-07 0)
(0.067265336 9.4301137e-07 0)
(0.06713715 -9.1645159e-07 0)
(0.067248289 8.9306444e-07 0)
(0.067153774 -8.7241634e-07 0)
(0.067232024 8.5778755e-07 0)
(0.067169722 -8.3926754e-07 0)
(0.067216252 8.1156526e-07 0)
(0.067185328 -9.7767027e-07 0)
(0.06720154 7.2571425e-07 0)
(0.064804445 0.0066128424 0)
(0.070285171 -0.00044447923 0)
(0.068438465 0.00015001583 0)
(0.071015541 -4.8801588e-06 0)
(0.068699257 -4.8174594e-07 0)
(0.070924999 2.6496776e-07 0)
(0.068928937 -5.2963433e-06 0)
(0.070793164 4.5390713e-06 0)
(0.069056744 -5.3194342e-06 0)
(0.070687508 5.0091472e-06 0)
(0.069155463 -4.7217674e-06 0)
(0.070594169 4.4886189e-06 0)
(0.069242646 -4.2024067e-06 0)
(0.070511717 3.9698133e-06 0)
(0.069320075 -3.7319559e-06 0)
(0.070438708 3.5170165e-06 0)
(0.06938879 -3.3127463e-06 0)
(0.070373962 3.1206237e-06 0)
(0.069449792 -2.9422049e-06 0)
(0.070316472 2.7725225e-06 0)
(0.069503996 -2.6159122e-06 0)
(0.07026536 2.4667615e-06 0)
(0.069552223 -2.329255e-06 0)
(0.07021985 2.198511e-06 0)
(0.069595204 -2.0779654e-06 0)
(0.070179248 1.9636465e-06 0)
(0.069633591 -1.8582424e-06 0)
(0.070142938 1.7585864e-06 0)
(0.069667969 -1.6667457e-06 0)
(0.07011037 1.5802101e-06 0)
(0.069698858 -1.5005584e-06 0)
(0.070081048 1.4258028e-06 0)
(0.069726728 -1.3571457e-06 0)
(0.070054529 1.2930112e-06 0)
(0.069752001 -1.2343155e-06 0)
(0.070030409 1.1798059e-06 0)
(0.069775062 -1.1301831e-06 0)
(0.070008323 1.0844473e-06 0)
(0.06979626 -1.0431377e-06 0)
(0.069987935 1.0054505e-06 0)
(0.069815917 -9.7180854e-07 0)
(0.069968937 9.4153324e-07 0)
(0.069834331 -9.1501727e-07 0)
(0.069951038 8.9164677e-07 0)
(0.069851784 -8.7100236e-07 0)
(0.069933964 8.5647795e-07 0)
(0.069868529 -8.3758764e-07 0)
(0.069917415 8.0985754e-07 0)
(0.069884883 -9.8014773e-07 0)
(0.069901748 7.1938257e-07 0)
(0.067640811 0.0064787742 0)
(0.072636009 -0.00046477046 0)
(0.070960149 0.00014300458 0)
(0.073650861 -5.5644413e-06 0)
(0.071227789 -6.7315742e-07 0)
(0.073552929 -4.2938898e-07 0)
(0.071463118 -5.1555194e-06 0)
(0.073411965 4.3956937e-06 0)
(0.071595773 -5.2742682e-06 0)