/*--------------------------------*- C++ -*----------------------------------*\
| =========                 |                                                 |
| \\      /  F ield         | OpenFOAM: The Open Source CFD Toolbox           |
|  \\    /   O peration     | Version:  2312                                  |
|   \\  /    A nd           | Website:  www.openfoam.com                      |
|    \\/     M anipulation  |                                                 |
\*---------------------------------------------------------------------------*/
FoamFile
{
    version     2.0;
    format      ascii;
    arch        "LSB;label=32;scalar=64";
    class       volVectorField;
    location    "7";
    object      U_0;
}
// * * * * * * * * * * * * * * * * * * * * * * * * * * * * * * * * * * * * * //

dimensions      [0 1 -1 0 0 0 0];

internalField   nonuniform List<vector> 
4000
(
(0.0023162921 0.00042342113 0)
(0.003038845 -6.2391881e-06 0)
(0.0024290189 -3.6423821e-07 0)
(0.0025689295 2.2135867e-07 0)
(0.0024867638 -2.6050856e-07 0)
(0.0025432254 2.3489397e-07 0)
(0.0024909393 -2.217505e-07 0)
(0.0025383975 2.0823349e-07 0)
(0.0024941941 -1.9547552e-07 0)
(0.0025355173 1.8388754e-07 0)
(0.0024967165 -1.7307069e-07 0)
(0.0025331223 1.6285065e-07 0)
(0.0024989159 -1.5332141e-07 0)
(0.0025310305 1.4433367e-07 0)
(0.0025008698 -1.3591395e-07 0)
(0.0025291824 1.2800106e-07 0)
(0.0025026056 -1.2057483e-07 0)
(0.0025275445 1.1360896e-07 0)
(0.002504147 -1.0706896e-07 0)
(0.0025260905 1.0094181e-07 0)
(0.0025055166 -9.5190533e-08 0)
(0.002524798 8.9808068e-08 0)
(0.0025067348 -8.4758722e-08 0)
(0.0025236476 8.0038663e-08 0)
(0.0025078202 -7.5614698e-08 0)
(0.0025226215 7.1484994e-08 0)
(0.0025087891 -6.7619238e-08 0)
(0.0025217042 6.4016898e-08 0)
(0.0025096565 -6.065063e-08 0)
(0.0025208819 5.7520736e-08 0)
(0.0025104354 -5.4602819e-08 0)
(0.002520142 5.1897685e-08 0)
(0.0025111377 -4.9383801e-08 0)
(0.0025194734 4.7062235e-08 0)
(0.002511774 -4.4914214e-08 0)
(0.0025188658 4.2940894e-08 0)
(0.0025123541 -4.1126152e-08 0)
(0.00251831 3.9471106e-08 0)
(0.0025128866 -3.7962183e-08 0)
(0.0025177977 3.6600381e-08 0)
(0.0025133798 -3.5374601e-08 0)
(0.0025173212 3.4285734e-08 0)
(0.002513841 -3.3325041e-08 0)
(0.002516873 3.2493412e-08 0)
(0.0025142769 -3.1786081e-08 0)
(0.0025164459 3.1196548e-08 0)
(0.0025146944 -3.0749026e-08 0)
(0.0025160461 3.0408845e-08 0)
(0.0025151751 -2.9948309e-08 0)
(0.0025159518 3.2039065e-08 0)
(0.006202616 0.0011469613 0)
(0.00854908 -1.1578045e-06 0)
(0.0071248058 4.8413855e-06 0)
(0.0074445714 3.1924189e-07 0)
(0.0072184111 -6.0405694e-07 0)
(0.0073830619 8.1534205e-07 0)
(0.007229508 -7.549018e-07 0)
(0.0073697874 7.2652106e-07 0)
(0.0072391465 -6.8641992e-07 0)
(0.00736143 6.4829445e-07 0)
(0.0072466145 -6.0988394e-07 0)
(0.0073543626 5.7474924e-07 0)
(0.0072531325 -5.4076305e-07 0)
(0.0073481729 5.0931537e-07 0)
(0.0072589242 -4.7948527e-07 0)
(0.0073427021 4.5163707e-07 0)
(0.0072640693 -4.2541012e-07 0)
(0.0073378526 4.0084861e-07 0)
(0.0072686386 -3.7777817e-07 0)
(0.0073335471 3.5616107e-07 0)
(0.0072726991 -3.3588128e-07 0)
(0.0073297194 3.1688821e-07 0)
(0.0072763118 -2.990865e-07 0)
(0.007326311 2.824304e-07 0)
(0.0072795313 -2.66835e-07 0)
(0.0073232702 2.5226259e-07 0)
(0.0072824067 -2.3863614e-07 0)
(0.0073205508 2.2592545e-07 0)
(0.0072849818 -2.1406078e-07 0)
(0.0073181114 2.0301813e-07 0)
(0.0072872955 -1.927349e-07 0)
(0.0073159151 1.8319206e-07 0)
(0.0072893831 -1.7433396e-07 0)
(0.0073139285 1.6614552e-07 0)
(0.0072912764 -1.5857788e-07 0)
(0.0073121215 1.5161909e-07 0)
(0.007293004 -1.4522683e-07 0)
(0.0073104667 1.3939162e-07 0)
(0.0072945921 -1.3407753e-07 0)
(0.0073089391 1.29277e-07 0)
(0.007296065 -1.249604e-07 0)
(0.0073075155 1.2112148e-07 0)
(0.0072974449 -1.1773659e-07 0)
(0.0073061741 1.1480547e-07 0)
(0.0072987523 -1.1228937e-07 0)
(0.0073048923 1.1023558e-07 0)
(0.0073000049 -1.086952e-07 0)
(0.0073036688 1.0646023e-07 0)
(0.0073013733 -1.1046467e-07 0)
(0.007303203 1.0223065e-07 0)
(0.010103862 0.0018720975 0)
(0.013795061 -4.7295182e-06 0)
(0.011700063 1.235257e-05 0)
(0.012195215 4.8521696e-07 0)
(0.011824221 -9.3158551e-07 0)
(0.012101167 1.4762468e-06 0)
(0.01184361 -1.3590089e-06 0)
(0.012079822 1.3154945e-06 0)
(0.011859961 -1.2472397e-06 0)
(0.012065886 1.1789694e-06 0)
(0.011872546 -1.1090801e-06 0)
(0.012054003 1.0456453e-06 0)
(0.011883532 -9.8362435e-07 0)
(0.012043581 9.2653371e-07 0)
(0.011893292 -8.7222246e-07 0)
(0.012034367 8.2156937e-07 0)
(0.011901962 -7.738683e-07 0)
(0.012026199 7.2916702e-07 0)
(0.011909662 -6.8722018e-07 0)
(0.012018947 6.4787176e-07 0)
(0.011916504 -6.1100081e-07 0)
(0.012012499 5.7642831e-07 0)
(0.011922593 -5.4406172e-07 0)
(0.012006756 5.1374379e-07 0)
(0.011928019 -4.8538701e-07 0)
(0.012001633 4.5886253e-07 0)
(0.011932867 -4.3408423e-07 0)
(0.011997049 4.109488e-07 0)
(0.011937208 -3.8937262e-07 0)
(0.011992937 3.6927335e-07 0)
(0.01194111 -3.5057165e-07 0)
(0.011989234 3.3320194e-07 0)
(0.011944632 -3.1709067e-07 0)
(0.011985883 3.0218556e-07 0)
(0.011947827 -2.8841988e-07 0)
(0.011982834 2.7575188e-07 0)
(0.011950743 -2.6412241e-07 0)
(0.011980041 2.5349801e-07 0)
(0.011953426 -2.4382763e-07 0)
(0.01197746 2.3508424e-07 0)
(0.011955915 -2.2722551e-07 0)
(0.011975054 2.2022868e-07 0)
(0.011958249 -2.1406037e-07 0)
(0.011972784 2.0871114e-07 0)
(0.011960463 -2.0410349e-07 0)
(0.011970613 2.0037136e-07 0)
(0.011962586 -1.9748606e-07 0)
(0.011968526 1.9305792e-07 0)
(0.011964857 -2.0314422e-07 0)
(0.011967578 1.8467385e-07 0)
(0.013776151 0.0024728231 0)
(0.018809519 -2.3283457e-05 0)
(0.016155561 2.2667618e-05 0)
(0.016820565 5.1486054e-07 0)
(0.016304097 -1.0717227e-06 0)
(0.016697772 2.0969102e-06 0)
(0.016333065 -1.9282513e-06 0)
(0.016668717 1.8754266e-06 0)
(0.016356465 -1.7861532e-06 0)
(0.016649087 1.6896394e-06 0)
(0.016374358 -1.5895175e-06 0)
(0.016632222 1.4992628e-06 0)
(0.016389975 -1.410075e-06 0)
(0.016617414 1.3283798e-06 0)
(0.016403849 -1.2504663e-06 0)
(0.016604321 1.1778379e-06 0)
(0.016416172 -1.1094815e-06 0)
(0.016592712 1.0453482e-06 0)
(0.016427116 -9.8525666e-07 0)
(0.016582405 9.2879516e-07 0)
(0.016436841 -8.7597729e-07 0)
(0.016573241 8.2636876e-07 0)
(0.016445494 -7.8000138e-07 0)
(0.016565079 7.3649935e-07 0)
(0.016453207 -6.9587356e-07 0)
(0.016557796 6.578161e-07 0)
(0.016460097 -6.2231456e-07 0)
(0.016551281 5.8912077e-07 0)
(0.016466269 -5.5820496e-07 0)
(0.016545436 5.293679e-07 0)
(0.016471816 -5.0256897e-07 0)
(0.016540171 4.7764823e-07 0)
(0.016476823 -4.545596e-07 0)
(0.016535407 4.3317452e-07 0)
(0.016481366 -4.1344567e-07 0)
(0.016531071 3.9526943e-07 0)
(0.016485514 -3.7860044e-07 0)
(0.016527098 3.6335493e-07 0)
(0.01648933 -3.4949187e-07 0)
(0.016523427 3.3694319e-07 0)
(0.016492871 -3.2567445e-07 0)
(0.016520003 3.1562835e-07 0)
(0.016496193 -3.0677918e-07 0)
(0.016516773 2.990941e-07 0)
(0.016499344 -2.9245898e-07 0)
(0.016513681 2.8713135e-07 0)
(0.016502368 -2.8290571e-07 0)
(0.016510695 2.7605612e-07 0)
(0.016505555 -2.9471655e-07 0)
(0.016509151 2.6374124e-07 0)
(0.017593259 0.0031223788 0)
(0.023620379 -2.9084595e-05 0)
(0.020486589 3.5431628e-05 0)
(0.021320096 3.089546e-07 0)
(0.020658094 -1.0373981e-06 0)
(0.021172788 2.6442904e-06 0)
(0.020697992 -2.4413512e-06 0)
(0.02113635 2.3819317e-06 0)
(0.020728758 -2.2813524e-06 0)
(0.021110919 2.159282e-06 0)
(0.020752134 -2.0314574e-06 0)
(0.021088922 1.9169885e-06 0)
(0.020772537 -1.80257e-06 0)
(0.021069588 1.6983632e-06 0)
(0.02079066 -1.5986556e-06 0)
(0.021052488 1.5058221e-06 0)
(0.020806755 -1.4184441e-06 0)
(0.021037327 1.3364167e-06 0)
(0.020821048 -1.2596296e-06 0)
(0.021023866 1.1874026e-06 0)
(0.020833749 -1.1199141e-06 0)
(0.021011897 1.0564525e-06 0)
(0.02084505 -9.9720446e-07 0)
(0.021001238 9.4155598e-07 0)
(0.020855124 -8.8964172e-07 0)
(0.020991726 8.4095952e-07 0)
(0.020864122 -7.9559072e-07 0)
(0.020983218 7.5313115e-07 0)
(0.020872182 -7.1362034e-07 0)
(0.020975584 6.7673434e-07 0)
(0.020879427 -6.4248298e-07 0)
(0.020968708 6.1060663e-07 0)
(0.020885966 -5.8109562e-07 0)
(0.020962487 5.5374155e-07 0)
(0.020891899 -5.285232e-07 0)
(0.020956825 5.0527291e-07 0)
(0.020897315 -4.8396406e-07 0)
(0.020951636 4.6446137e-07 0)
(0.020902298 -4.4673745e-07 0)
(0.020946843 4.3068254e-07 0)
(0.020906923 -4.1627281e-07 0)
(0.020942371 4.0341585e-07 0)
(0.020911261 -3.9209616e-07 0)
(0.020938152 3.822569e-07 0)
(0.020915377 -3.7374062e-07 0)
(0.020934115 3.6697084e-07 0)
(0.020919327 -3.6144235e-07 0)
(0.020930204 3.5214703e-07 0)
(0.020923442 -3.8114987e-07 0)
(0.020927968 3.3619581e-07 0)
(0.021054658 0.0035971404 0)
(0.028160399 -6.081688e-05 0)
(0.024697462 4.9372777e-05 0)
(0.025692719 3.3220705e-08 0)
(0.024886479 -8.4589298e-07 0)
(0.025525855 3.1152611e-06 0)
(0.02493881 -2.9035208e-06 0)
(0.025482366 2.8368488e-06 0)
(0.024977182 -2.7354422e-06 0)
(0.025451067 2.5898853e-06 0)
(0.025006178 -2.4368756e-06 0)
(0.025423824 2.3005925e-06 0)
(0.025031485 -2.1628104e-06 0)
(0.025399855 2.0380606e-06 0)
(0.025053961 -1.918291e-06 0)
(0.025378652 1.806925e-06 0)
(0.025073919 -1.7020868e-06 0)
(0.025359852 1.6036199e-06 0)
(0.025091641 -1.5115208e-06 0)
(0.025343161 1.4248037e-06 0)
(0.02510739 -1.3438623e-06 0)
(0.025328319 1.2676679e-06 0)
(0.025121403 -1.1966077e-06 0)
(0.025315102 1.1297956e-06 0)
(0.025133893 -1.067528e-06 0)
(0.025303309 1.0090816e-06 0)
(0.025145049 -9.5466189e-07 0)
(0.02529276 9.0368764e-07 0)
(0.025155043 -8.5629198e-07 0)
(0.025283295 8.1200993e-07 0)
(0.025164024 -7.7092112e-07 0)
(0.025274771 7.3265363e-07 0)
(0.025172131 -6.9724954e-07 0)
(0.025267057 6.6441091e-07 0)
(0.025179485 -6.3415486e-07 0)
(0.025260039 6.0624216e-07 0)
(0.0251862 -5.8067466e-07 0)
(0.025253607 5.5725971e-07 0)
(0.025192376 -5.3599128e-07 0)
(0.025247666 5.1671337e-07 0)
(0.025198107 -4.9941882e-07 0)
(0.025242125 4.8397625e-07 0)
(0.025203483 -4.7038565e-07 0)
(0.025236897 4.5856216e-07 0)
(0.025208584 -4.4830309e-07 0)
(0.025231895 4.4023015e-07 0)
(0.025213479 -4.3342052e-07 0)
(0.025227041 4.2170791e-07 0)
(0.025218528 -4.62319e-07 0)
(0.025224033 4.0200693e-07 0)
(0.024703232 0.0041256183 0)
(0.032526788 -6.93819e-05 0)
(0.028790295 6.4748337e-05 0)
(0.029935994 -3.6710413e-07 0)
(0.028989366 -5.522345e-07 0)
(0.029756585 3.5042153e-06 0)
(0.029055961 -3.3220243e-06 0)
(0.029706393 3.2431349e-06 0)
(0.029102101 -3.1522212e-06 0)
(0.029669191 2.9845765e-06 0)
(0.029136809 -2.808805e-06 0)
(0.029636628 2.6528506e-06 0)
(0.029167099 -2.4934358e-06 0)
(0.02960795 2.3499397e-06 0)
(0.029193998 -2.211705e-06 0)
(0.029582578 2.0833392e-06 0)
(0.029217882 -1.9624777e-06 0)
(0.029560081 1.8489056e-06 0)
(0.029239089 -1.7427668e-06 0)
(0.029540107 1.6427302e-06 0)
(0.029257933 -1.5494556e-06 0)
(0.029522347 1.4615566e-06 0)
(0.029274701 -1.3796664e-06 0)
(0.029506532 1.302593e-06 0)
(0.029289646 -1.230832e-06 0)
(0.02949242 1.1634114e-06 0)
(0.029302995 -1.1006913e-06 0)
(0.029479798 1.0418921e-06 0)
(0.029314952 -9.8726462e-07 0)
(0.029468473 9.3618617e-07 0)
(0.029325698 -8.8882548e-07 0)
(0.029458274 8.4468536e-07 0)
(0.029335396 -8.0387504e-07 0)
(0.029449047 7.6599698e-07 0)
(0.029344194 -7.3111886e-07 0)
(0.029440651 6.9892206e-07 0)
(0.029352225 -6.6944667e-07 0)
(0.029432958 6.4243652e-07 0)
(0.029359612 -6.1791477e-07 0)
(0.029425853 5.9567421e-07 0)
(0.029366467 -5.7573065e-07 0)
(0.029419226 5.5790945e-07 0)
(0.029372894 -5.4223164e-07 0)
(0.029412975 5.2857938e-07 0)
(0.029378993 -5.1670552e-07 0)
(0.029406996 5.0745425e-07 0)
(0.029384845 -4.9937454e-07 0)
(0.029401187 4.8532272e-07 0)
(0.029390833 -5.3834449e-07 0)
(0.02939734 4.6152093e-07 0)
(0.028170187 0.0045491393 0)
(0.036610272 -0.00011147425 0)
(0.032767561 7.9362501e-05 0)
(0.034048372 -5.3326712e-07 0)
(0.032966597 -1.613354e-07 0)
(0.033864659 3.8042771e-06 0)
(0.033049862 -3.6992226e-06 0)
(0.033808117 3.6011438e-06 0)
(0.03310384 -3.5324493e-06 0)
(0.033764995 3.3437541e-06 0)
(0.033144306 -3.1476851e-06 0)
(0.03372707 2.9741085e-06 0)
(0.033179629 -2.794793e-06 0)
(0.033693641 2.6343149e-06 0)
(0.033210992 -2.4791978e-06 0)
(0.033664061 2.3353471e-06 0)
(0.033238837 -2.1998818e-06 0)
(0.033637833 2.0725258e-06 0)
(0.03326356 -1.9536032e-06 0)
(0.033614546 1.8414067e-06 0)
(0.03328553 -1.7369039e-06 0)
(0.033593841 1.6383188e-06 0)
(0.033305077 -1.5465685e-06 0)
(0.033575403 1.4601276e-06 0)
(0.033322499 -1.3797221e-06 0)
(0.033558951 1.30411e-06 0)
(0.033338061 -1.2338309e-06 0)
(0.033544237 1.1678899e-06 0)
(0.033351999 -1.1066757e-06 0)
(0.033531036 1.0493948e-06 0)
(0.033364525 -9.9632121e-07 0)
(0.033519147 9.4682209e-07 0)
(0.033375829 -9.0108691e-07 0)
(0.033508392 8.5861039e-07 0)
(0.033386083 -8.1952133e-07 0)
(0.033498607 7.8341535e-07 0)
(0.033395443 -7.5037926e-07 0)
(0.033489642 7.2008832e-07 0)
(0.03340405 -6.9260169e-07 0)
(0.033481362 6.6765695e-07 0)
(0.033412037 -6.4529828e-07 0)
(0.033473641 6.2530436e-07 0)
(0.033419525 -6.0772209e-07 0)
(0.03346636 5.9239614e-07 0)
(0.03342663 -5.7903735e-07 0)
(0.033459397 5.6873009e-07 0)
(0.033433446 -5.5939721e-07 0)
(0.033452628 5.4312913e-07 0)
(0.033440372 -6.0899175e-07 0)
(0.033447886 5.1477629e-07 0)
(0.03161787 0.0049147347 0)
(0.040538844 -0.00012361886 0)
(0.036632903 9.4796999e-05 0)
(0.038028683 -1.0015337e-06 0)
(0.036818168 1.6393811e-07 0)
(0.037849817 3.9825353e-06 0)
(0.036920882 -4.0388535e-06 0)
(0.037787272 3.9103594e-06 0)
(0.036982687 -3.8757232e-06 0)
(0.037738224 3.6671048e-06 0)
(0.037028917 -3.4531104e-06 0)
(0.03769492 3.2639881e-06 0)
(0.037069289 -3.0665204e-06 0)
(0.037656725 2.890845e-06 0)
(0.037105133 -2.7204467e-06 0)
(0.037622922 2.5626475e-06 0)
(0.037136953 -2.4140123e-06 0)
(0.03759295 2.2742138e-06 0)
(0.037165205 -2.1437756e-06 0)
(0.037566338 2.0205964e-06 0)
(0.037190309 -1.9059815e-06 0)
(0.037542677 1.7977444e-06 0)
(0.037212646 -1.6971134e-06 0)
(0.037521607 1.6022123e-06 0)
(0.037232554 -1.5140201e-06 0)
(0.037502808 1.4310107e-06 0)
(0.037250335 -1.3539219e-06 0)
(0.037485994 1.2815324e-06 0)
(0.037266261 -1.2143838e-06 0)
(0.03747091 1.1515032e-06 0)
(0.037280572 -1.0932819e-06 0)
(0.037457327 1.038945e-06 0)
(0.037293488 -9.8877182e-07 0)
(0.037445039 9.4214439e-07 0)
(0.037305202 -8.9926041e-07 0)
(0.037433859 8.5962582e-07 0)
(0.037315895 -8.2338048e-07 0)
(0.037423619 7.9012803e-07 0)
(0.037325727 -7.5996872e-07 0)
(0.037414162 7.325825e-07 0)
(0.037334849 -7.0804597e-07 0)
(0.037405344 6.8608907e-07 0)
(0.0373434 -6.6678816e-07 0)
(0.037397029 6.4994701e-07 0)
(0.037351512 -6.3523793e-07 0)
(0.03738908 6.2399713e-07 0)
(0.037359295 -6.1343889e-07 0)
(0.03738135 5.9511332e-07 0)
(0.037367154 -6.739297e-07 0)
(0.037375672 5.6175246e-07 0)
(0.035190995 0.0053266647 0)
(0.044189229 -0.00017060497 0)
(0.040378465 0.0001089152 0)
(0.041880466 -1.678918e-06 0)
(0.040545235 3.4525074e-07 0)
(0.041711806 4.0037278e-06 0)
(0.040669302 -4.349162e-06 0)
(0.041643593 4.1689455e-06 0)
(0.04073889 -4.1825041e-06 0)
(0.041588642 3.9543383e-06 0)
(0.040790862 -3.7249713e-06 0)
(0.041539971 3.5223007e-06 0)
(0.040836276 -3.3084661e-06 0)
(0.041497018 3.1193751e-06 0)
(0.040876593 -2.9353092e-06 0)
(0.041459 2.7651067e-06 0)
(0.040912381 -2.6047414e-06 0)
(0.041425289 2.4538517e-06 0)
(0.040944156 -2.31317e-06 0)
(0.041395357 2.1801947e-06 0)
(0.04097239 -2.0565871e-06 0)
(0.041368745 1.9397403e-06 0)
(0.040997511 -1.8312114e-06 0)
(0.041345048 1.7287642e-06 0)
(0.0410199 -1.6336463e-06 0)
(0.041323905 1.5440399e-06 0)
(0.041039897 -1.4608936e-06 0)
(0.041304995 1.3827539e-06 0)
(0.041057807 -1.3103258e-06 0)
(0.041288031 1.2424525e-06 0)
(0.041073902 -1.1796512e-06 0)
(0.041272756 1.1210015e-06 0)
(0.041088425 -1.0668795e-06 0)
(0.041258938 1.0165519e-06 0)
(0.041101598 -9.7029099e-07 0)
(0.041246368 9.2751115e-07 0)
(0.04111362 -8.8840978e-07 0)
(0.041234854 8.5251753e-07 0)
(0.041124674 -8.1997933e-07 0)
(0.041224221 7.9041646e-07 0)
(0.041134929 -7.6394079e-07 0)
(0.041214309 7.4023261e-07 0)
(0.041144541 -7.1940038e-07 0)
(0.041204963 7.012044e-07 0)
(0.041153658 -6.8528281e-07 0)
(0.041196031 6.7322939e-07 0)
(0.041162405 -6.6148486e-07 0)
(0.041187344 6.4128494e-07 0)
(0.04117119 -7.3289306e-07 0)
(0.041180695 6.0249831e-07 0)
(0.038395904 0.0055179579 0)
(0.047705724 -0.0001895264 0)
(0.043994616 0.00012299457 0)
(0.045608888 -1.5826891e-06 0)
(0.04415178 6.1613371e-07 0)
(0.045450878 3.9340857e-06 0)
(0.044295513 -4.6148569e-06 0)
(0.045376871 4.3815007e-06 0)
(0.044372679 -4.4519398e-06 0)
(0.045316041 4.2059269e-06 0)
(0.044430341 -3.9633237e-06 0)
(0.045262037 3.7491761e-06 0)
(0.044480764 -3.5207295e-06 0)
(0.045214356 3.320003e-06 0)
(0.044525526 -3.1238751e-06 0)
(0.045172149 2.9428112e-06 0)
(0.044565258 -2.772148e-06 0)
(0.045134723 2.6115164e-06 0)
(0.044600533 -2.4618565e-06 0)
(0.045101492 2.32027e-06 0)
(0.044631877 -2.1887832e-06 0)
(0.045071947 2.0643673e-06 0)
(0.044659765 -1.9489182e-06 0)
(0.045045638 1.8398377e-06 0)
(0.04468462 -1.7386507e-06 0)
(0.045022166 1.6432461e-06 0)
(0.044706819 -1.5547907e-06 0)
(0.045001173 1.471598e-06 0)
(0.044726701 -1.3945423e-06 0)
(0.044982341 1.3222823e-06 0)
(0.044744567 -1.2554661e-06 0)
(0.044965385 1.1930275e-06 0)
(0.044760688 -1.1354436e-06 0)
(0.044950047 1.0818657e-06 0)
(0.044775309 -1.0326441e-06 0)
(0.044936094 9.8710153e-07 0)
(0.044788653 -9.4549596e-07 0)
(0.044923314 9.0728497e-07 0)
(0.044800921 -8.7266063e-07 0)
(0.044911515 8.4118552e-07 0)
(0.044812301 -8.1300871e-07 0)
(0.044900514 7.8776083e-07 0)
(0.044822967 -7.6558424e-07 0)
(0.044890145 7.4619403e-07 0)
(0.044833082 -7.2919926e-07 0)
(0.044880237 7.164513e-07 0)
(0.044842786 -7.0357081e-07 0)
(0.044870602 6.816955e-07 0)
(0.044852487 -7.8569551e-07 0)
(0.044862957 6.3713335e-07 0)
(0.042093333 0.0059275437 0)
(0.050984261 -0.00023574739 0)
(0.047478993 0.00013355258 0)
(0.049212824 -1.4456696e-06 0)
(0.047639168 8.1677828e-07 0)
(0.049066869 3.7459253e-06 0)
(0.047799768 -4.8447625e-06 0)
(0.048986906 4.547112e-06 0)
(0.047884261 -4.6848543e-06 0)
(0.048920231 4.4221217e-06 0)
(0.047947533 -4.1685148e-06 0)
(0.048860949 3.9448764e-06 0)
(0.048002912 -3.7035796e-06 0)
(0.04880859 3.4929707e-06 0)
(0.048052072 -3.2863765e-06 0)
(0.048762238 3.0959788e-06 0)
(0.048095706 -2.9164363e-06 0)
(0.048721135 2.7474018e-06 0)
(0.048134444 -2.590016e-06 0)
(0.048684639 2.4409946e-06 0)
(0.048168866 -2.3027305e-06 0)
(0.048652193 2.1717786e-06 0)
(0.048199492 -2.050377e-06 0)
(0.0486233 1.9355694e-06 0)
(0.048226786 -1.8291611e-06 0)
(0.048597522 1.7287513e-06 0)
(0.048251165 -1.635728e-06 0)
(0.048574468 1.548174e-06 0)
(0.048272997 -1.4671361e-06 0)
(0.048553788 1.3910907e-06 0)
(0.048292616 -1.3208193e-06 0)
(0.048535168 1.2551116e-06 0)
(0.048310318 -1.1945481e-06 0)
(0.048518325 1.1381662e-06 0)
(0.048326373 -1.0863962e-06 0)
(0.048503004 1.0384706e-06 0)
(0.048341024 -9.9470938e-07 0)
(0.048488973 9.5449828e-07 0)
(0.048354493 -9.1807786e-07 0)
(0.048476018 8.8495298e-07 0)
(0.048366987 -8.5531099e-07 0)
(0.048463942 8.2873366e-07 0)
(0.048378695 -8.0539827e-07 0)
(0.04845256 7.8497373e-07 0)
(0.048389798 -7.670457e-07 0)
(0.048441687 7.5371783e-07 0)
(0.048400449 -7.3976319e-07 0)
(0.048431115 7.1642113e-07 0)
(0.048411053 -8.3221001e-07 0)
(0.048422457 6.6582395e-07 0)
(0.045039388 0.0059569797 0)
(0.054147325 -0.00025856446 0)
(0.050839873 0.00014240084 0)
(0.052690374 -1.9387978e-06 0)
(0.051007277 8.1769897e-07 0)
(0.052559619 3.435733e-06 0)
(0.051182258 -5.0420514e-06 0)
(0.052473526 4.6667485e-06 0)
(0.051273827 -4.8814918e-06 0)
(0.052401047 4.6035736e-06 0)
(0.051342601 -4.3409056e-06 0)
(0.052336558 4.1098251e-06 0)
(0.051402862 -3.8573776e-06 0)
(0.052279587 3.6386331e-06 0)
(0.051456357 -3.42314e-06 0)
(0.052229149 3.2249216e-06 0)
(0.051503837 -3.0378969e-06 0)
(0.052184422 2.8617845e-06 0)
(0.051545988 -2.6979064e-06 0)
(0.052144709 2.5426139e-06 0)
(0.051583443 -2.3986583e-06 0)
(0.052109401 2.2621925e-06 0)
(0.051616767 -2.135792e-06 0)
(0.052077961 2.0161534e-06 0)
(0.051646466 -1.9053599e-06 0)
(0.052049912 1.8007289e-06 0)
(0.051672992 -1.7038683e-06 0)
(0.052024826 1.6126372e-06 0)
(0.051696747 -1.5282536e-06 0)
(0.052002324 1.4490172e-06 0)
(0.051718093 -1.3758424e-06 0)
(0.051982064 1.3073796e-06 0)
(0.051737354 -1.2443123e-06 0)
(0.051963739 1.1855676e-06 0)
(0.051754821 -1.1316559e-06 0)
(0.05194707 1.0817223e-06 0)
(0.051770761 -1.0361494e-06 0)
(0.051931804 9.9425307e-07 0)
(0.051785415 -9.5632283e-07 0)
(0.051917711 9.2180768e-07 0)
(0.051799006 -8.9093345e-07 0)
(0.051904574 8.6323472e-07 0)
(0.051811741 -8.389239e-07 0)
(0.051892194 8.1762364e-07 0)
(0.051823818 -7.9890208e-07 0)
(0.05188037 7.8510516e-07 0)
(0.051835402 -7.7014946e-07 0)
(0.051868878 7.4555433e-07 0)
(0.051846892 -8.7235753e-07 0)
(0.051859198 6.887692e-07 0)
(0.048814704 0.0063456909 0)
(0.057119122 -0.00029948304 0)
(0.054074839 0.00014964741 0)
(0.056043927 -2.1052208e-06 0)
(0.05425618 7.9910661e-07 0)
(0.055929148 3.0615323e-06 0)
(0.054443182 -5.1959584e-06 0)
(0.055836569 4.7440513e-06 0)
(0.054541537 -5.0417925e-06 0)
(0.055758336 4.7510426e-06 0)
(0.054615689 -4.4810059e-06 0)
(0.055688727 4.2445277e-06 0)
(0.054680741 -3.9825974e-06 0)
(0.055627227 3.7574335e-06 0)
(0.054738493 -3.5345844e-06 0)
(0.055572776 3.3300342e-06 0)
(0.054789748 -3.1369001e-06 0)
(0.055524491 2.955015e-06 0)
(0.054835251 -2.7858562e-06 0)
(0.055481618 2.6254392e-06 0)
(0.054875684 -2.4768586e-06 0)
(0.055443501 2.3358857e-06 0)
(0.054911657 -2.2054233e-06 0)
(0.05540956 2.0818365e-06 0)
(0.054943718 -1.9674788e-06 0)
(0.05537928 1.859399e-06 0)
(0.054972352 -1.7594191e-06 0)
(0.055352199 1.6651845e-06 0)
(0.054997996 -1.5780807e-06 0)
(0.055327908 1.4962386e-06 0)
(0.055021038 -1.420703e-06 0)
(0.055306037 1.3499909e-06 0)
(0.055041829 -1.2848873e-06 0)
(0.055286256 1.224214e-06 0)
(0.055060684 -1.1685605e-06 0)
(0.055268263 1.1169883e-06 0)
(0.055077889 -1.0699416e-06 0)
(0.055251786 1.0266702e-06 0)
(0.055093705 -9.8751155e-07 0)
(0.055236574 9.5186166e-07 0)
(0.055108374 -9.199843e-07 0)
(0.055222396 8.9136919e-07 0)
(0.055122118 -8.6626343e-07 0)
(0.055209035 8.4424409e-07 0)
(0.05513515 -8.2486783e-07 0)
(0.055196278 8.1070866e-07 0)
(0.055147651 -7.9483576e-07 0)
(0.055183883 7.6920249e-07 0)
(0.055160009 -9.0610255e-07 0)
(0.055173179 7.0619332e-07 0)
(0.051576806 0.0062748726 0)
(0.059979637 -0.00032796812 0)
(0.057187327 0.00015430912 0)
(0.05927436 -2.4155066e-06 0)
(0.057385505 6.6111742e-07 0)
(0.05917532 2.6148972e-06 0)
(0.057582658 -5.3096925e-06 0)
(0.059075869 4.7793161e-06 0)
(0.057687533 -5.1664454e-06 0)
(0.058991957 4.8652984e-06 0)
(0.057766926 -4.5894238e-06 0)
(0.058917335 4.3496037e-06 0)
(0.057836664 -4.0797963e-06 0)
(0.058851403 3.8499096e-06 0)
(0.057898579 -3.621209e-06 0)
(0.058793026 3.4117911e-06 0)
(0.057953529 -3.2138894e-06 0)
(0.058741259 3.0275137e-06 0)
(0.058002311 -2.8542595e-06 0)
(0.058695294 2.689844e-06 0)
(0.058045658 -2.5376819e-06 0)
(0.058654428 2.3931904e-06 0)
(0.058084223 -2.2595828e-06 0)
(0.05861804 2.1329143e-06 0)
(0.058118594 -2.0157962e-06 0)
(0.058585576 1.9050256e-06 0)
(0.058149292 -1.8026291e-06 0)
(0.058556544 1.7060521e-06 0)
(0.058176783 -1.6168403e-06 0)
(0.058530502 1.5329668e-06 0)
(0.058201485 -1.4556013e-06 0)
(0.058507055 1.3831364e-06 0)
(0.058223773 -1.3164542e-06 0)
(0.058485849 1.2542786e-06 0)
(0.058243985 -1.1972745e-06 0)
(0.05846656 1.1444261e-06 0)
(0.058262429 -1.0962366e-06 0)
(0.058448897 1.0518942e-06 0)
(0.058279383 -1.0117828e-06 0)
(0.058432591 9.752488e-07 0)
(0.058295106 -9.4259276e-07 0)
(0.058417393 9.1326252e-07 0)
(0.058309838 -8.8753877e-07 0)
(0.058403073 8.6495449e-07 0)
(0.058323805 -8.4506074e-07 0)
(0.058389403 8.306418e-07 0)
(0.058337203 -8.1394548e-07 0)
(0.058376127 7.874873e-07 0)
(0.058350408 -9.3344961e-07 0)
(0.058364403 7.1833958e-07 0)
(0.055255495 0.0065643926 0)
(0.062697653 -0.00036380816 0)
(0.060180334 0.00015672348 0)
(0.062384463 -2.8152921e-06 0)
(0.060394627 4.4325969e-07 0)
(0.062298055 2.1135682e-06 0)
(0.060600847 -5.3776925e-06 0)
(0.0621913 4.775218e-06 0)
(0.060711946 -5.2557433e-06 0)
(0.062101791 4.9472824e-06 0)
(0.060796426 -4.6668666e-06 0)
(0.062022275 4.4257503e-06 0)
(0.060870731 -4.1496237e-06 0)
(0.06195202 3.9166745e-06 0)
(0.060936706 -3.6835899e-06 0)
(0.061889815 3.4707364e-06 0)
(0.060995258 -3.2693757e-06 0)
(0.061834652 3.0797636e-06 0)
(0.061047238 -2.9035695e-06 0)
(0.061785672 2.7362571e-06 0)
(0.061093425 -2.5815308e-06 0)
(0.061742126 2.4344877e-06 0)
(0.061134518 -2.298629e-06 0)
(0.061703351 2.1697264e-06 0)
(0.061171141 -2.050632e-06 0)
(0.061668758 1.9379117e-06 0)
(0.061203851 -1.8337842e-06 0)
(0.061637822 1.735511e-06 0)
(0.061233144 -1.6447888e-06 0)
(0.061610073 1.5594452e-06 0)
(0.061259465 -1.4807681e-06 0)
(0.061585089 1.4070354e-06 0)
(0.061283213 -1.3392214e-06 0)
(0.061562493 1.2759597e-06 0)
(0.061304749 -1.2179871e-06 0)
(0.061541941 1.1642164e-06 0)
(0.0613244 -1.1152072e-06 0)
(0.061523121 1.070091e-06 0)
(0.061342464 -1.0292957e-06 0)
(0.061505747 9.921227e-07 0)
(0.061359216 -9.5890709e-07 0)
(0.061489556 9.2905855e-07 0)
(0.061374911 -9.0288963e-07 0)
(0.0614743 8.7989149e-07 0)
(0.061389789 -8.5961522e-07 0)
(0.06145974 8.4503452e-07 0)
(0.061404062 -8.2761753e-07 0)
(0.061445606 8.005436e-07 0)
(0.061418093 -9.5443968e-07 0)
(0.06143287 7.2546472e-07 0)
(0.058055576 0.0064641983 0)
(0.065323873 -0.0003907517 0)
(0.06305331 0.0001562974 0)
(0.065377039 -3.354419e-06 0)
(0.063283222 1.5240314e-07 0)
(0.065297288 1.5556397e-06 0)
(0.063497863 -5.399214e-06 0)
(0.065182734 4.7328289e-06 0)
(0.063614885 -5.3104388e-06 0)
(0.065087727 4.9979448e-06 0)
(0.06370429 -4.714132e-06 0)
(0.065003451 4.473747e-06 0)
(0.063783032 -4.1928002e-06 0)
(0.064928994 3.9584139e-06 0)
(0.063852952 -3.7223685e-06 0)
(0.064863068 3.5074772e-06 0)
(0.063915004 -3.3039282e-06 0)
(0.064804604 3.112303e-06 0)
(0.063970091 -2.9342918e-06 0)
(0.064752694 2.7651566e-06 0)
(0.064019039 -2.6088551e-06 0)
(0.064706543 2.460203e-06 0)
(0.064062589 -2.3229623e-06 0)
(0.064665448 2.1926516e-06 0)
(0.064101402 -2.072343e-06 0)
(0.064628786 1.9583954e-06 0)
(0.064136067 -1.8532033e-06 0)
(0.064596 1.7538639e-06 0)
(0.06416711 -1.6622119e-06 0)
(0.064566591 1.5759453e-06 0)
(0.064195004 -1.4964603e-06 0)
(0.064540114 1.4219325e-06 0)
(0.064220172 -1.3534211e-06 0)
(0.064516167 1.2894788e-06 0)
(0.064242995 -1.2309091e-06 0)
(0.064494386 1.176561e-06 0)
(0.06426382 -1.1270462e-06 0)
(0.064474442 1.0814455e-06 0)
(0.064282963 -1.0402281e-06 0)
(0.064456031 1.0026546e-06 0)
(0.064300715 -9.6909252e-07 0)
(0.064438873 9.3891749e-07 0)
(0.064317346 -9.1247159e-07 0)
(0.064422708 8.8920716e-07 0)
(0.064333111 -8.6868055e-07 0)
(0.064407282 8.5403147e-07 0)
(0.064348234 -8.3600438e-07 0)
(0.064392315 8.085181e-07 0)
(0.064363066 -9.691466e-07 0)
(0.064378582 7.2783405e-07 0)
(0.061640707 0.0066338834 0)
(0.067844121 -0.00042112607 0)
(0.065805115 0.00015440379 0)
(0.068255421 -4.1166486e-06 0)
(0.066051263 -1.8886201e-07 0)
(0.068173021 9.3129152e-07 0)
(0.066273851 -5.3753572e-06 0)
(0.068050073 4.6527646e-06 0)
(0.066396454 -5.33168e-06 0)
(0.067949671 5.0181698e-06 0)
(0.066490607 -4.7321527e-06 0)
(0.067860778 4.4944184e-06 0)
(0.066573645 -4.2101222e-06 0)
(0.06778225 3.9758715e-06 0)
(0.066647386 -3.7382465e-06 0)
(0.06771272 3.5226749e-06 0)
(0.066712829 -3.3181687e-06 0)
(0.067651059 3.1257193e-06 0)
(0.066770926 -2.9469785e-06 0)
(0.067596309 2.7770641e-06 0)
(0.066822549 -2.6201453e-06 0)
(0.067547635 2.4708001e-06 0)
(0.066868478 -2.3330194e-06 0)
(0.067504293 2.2021031e-06 0)
(0.066909411 -2.0813187e-06 0)
(0.067465626 1.9668453e-06 0)
(0.06694597 -1.8612347e-06 0)
(0.067431048 1.7614405e-06 0)
(0.06697871 -1.6694217e-06 0)
(0.067400031 1.5827632e-06 0)
(0.067008128 -1.5029585e-06 0)
(0.067372107 1.4280945e-06 0)
(0.067034671 -1.3593066e-06 0)
(0.067346851 1.2950775e-06 0)
(0.06705874 -1.2362707e-06 0)
(0.067323881 1.1816799e-06 0)
(0.067080703 -1.1319638e-06 0)
(0.067302847 1.0861596e-06 0)
(0.067100891 -1.0447736e-06 0)
(0.06728343 1.0070312e-06 0)
(0.067119612 -9.7332937e-07 0)
(0.067265336 9.4301409e-07 0)
(0.06713715 -9.1645433e-07 0)
(0.067248289 8.9306723e-07 0)
(0.067153774 -8.7241918e-07 0)
(0.067232024 8.5779044e-07 0)
(0.067169722 -8.3927046e-07 0)
(0.067216252 8.115681e-07 0)
(0.067185328 -9.776738e-07 0)
(0.06720154 7.2571743e-07 0)
(0.064486125 0.006508215 0)
(0.070283572 -0.00044298725 0)
(0.068437872 0.00014968473 0)
(0.07101563 -4.8815834e-06 0)
(0.068699293 -4.8632492e-07 0)
(0.070925069 2.643092e-07 0)
(0.068928907 -5.2966027e-06 0)
(0.070793198 4.5392094e-06 0)
(0.069056721 -5.3195525e-06 0)
(0.070687527 5.0092591e-06 0)
(0.069155449 -4.7218246e-06 0)
(0.07059418 4.4886771e-06 0)
(0.069242638 -4.202439e-06 0)
(0.070511723 3.9698458e-06 0)
(0.06932007 -3.7319783e-06 0)
(0.070438712 3.5170388e-06 0)
(0.069388787 -3.3127653e-06 0)
(0.070373964 3.1206425e-06 0)
(0.06944979 -2.9422224e-06 0)
(0.070316474 2.7725395e-06 0)
(0.069503994 -2.6159284e-06 0)
(0.070265362 2.4667768e-06 0)
(0.069552221 -2.3292694e-06 0)
(0.070219851 2.1985243e-06 0)
(0.069595202 -2.0779776e-06 0)
(0.070179249 1.9636575e-06 0)
(0.06963359 -1.8582522e-06 0)
(0.070142939 1.7585951e-06 0)
(0.069667968 -1.6667534e-06 0)
(0.070110371 1.5802169e-06 0)
(0.069698857 -1.5005643e-06 0)
(0.070081049 1.4258079e-06 0)
(0.069726727 -1.3571502e-06 0)
(0.070054529 1.2930152e-06 0)
(0.069752001 -1.2343191e-06 0)
(0.070030409 1.1798092e-06 0)
(0.069775062 -1.1301862e-06 0)
(0.070008323 1.0844502e-06 0)
(0.06979626 -1.0431405e-06 0)
(0.069987935 1.0054533e-06 0)
(0.069815917 -9.7181128e-07 0)
(0.069968937 9.41536e-07 0)
(0.069834331 -9.1502007e-07 0)
(0.069951039 8.9164962e-07 0)
(0.069851784 -8.7100526e-07 0)
(0.069933964 8.5648091e-07 0)
(0.069868529 -8.3759062e-07 0)
(0.069917415 8.0986044e-07 0)
(0.069884883 -9.8015135e-07 0)
(0.069901748 7.193858e-07 0)
(0.067894013 0.006564496 0)
(0.07263254 -0.00046649337 0)
(0.070960657 0.00014341179 0)
(0.073651101 -5.5677808e-06 0)
(0.071227799 -6.7471343e-07 0)
(0.073552984 -4.2918558e-07 0)
(0.071463085 -5.1556366e-06 0)
(0.073412 4.3959052e-06 0)
(0.071595749 -5.2743649e-06 0)