/*--------------------------------*- C++ -*----------------------------------*\
| =========                 |                                                 |
| \\      /  F ield         | OpenFOAM: The Open Source CFD Toolbox           |
|  \\    /   O peration     | Version:  2312                                  |
|   \\  /    A nd           | Website:  www.openfoam.com                      |
|    \\/     M anipulation  |                                                 |
\*---------------------------------------------------------------------------*/
FoamFile
{
    version     2.0;
    format      ascii;
    arch        "LSB;label=32;scalar=64";
    class       surfaceScalarField;
    location    "10";
    object      phi;
}
// * * * * * * * * * * * * * * * * * * * * * * * * * * * * * * * * * * * * * //

dimensions      [0 3 -1 0 0 0 0];

oriented        oriented;

internalField   nonuniform List<scalar> 
7870
(
1.0176184e-10
2.3559882e-09
1.0154479e-10
2.1705389e-13
9.4554919e-11
6.9898638e-12
9.3961019e-11
5.9390317e-13
9.5088899e-11
-1.1278815e-12
9.3655521e-11
1.4333789e-12
9.49909e-11
-1.3353797e-12
9.3710467e-11
1.2804337e-12
9.4919302e-11
-1.2088359e-12
9.3778183e-11
1.1411188e-12
9.4851779e-11
-1.0735956e-12
9.3840245e-11
1.0115335e-12
9.4792056e-11
-9.518105e-13
9.3895658e-11
8.9639778e-13
9.4739579e-11
-8.4392115e-13
9.3944685e-11
7.9489389e-13
9.4693417e-11
-7.4873242e-13
9.3987913e-11
7.0550429e-13
9.4652804e-11
-6.6489094e-13
9.4025956e-11
6.268487e-13
9.4617101e-11
-5.9114565e-13
9.4059379e-11
5.577223e-13
9.458576e-11
-5.2638116e-13
9.408869e-11
4.970706e-13
9.4558303e-11
-4.6961347e-13
9.4114333e-11
4.4396971e-13
9.4534312e-11
-4.1997887e-13
9.4136701e-11
3.9761118e-13
9.4513423e-11
-3.7672192e-13
9.4156133e-11
3.5728943e-13
9.4495318e-11
-3.3918424e-13
9.4172927e-11
3.2239078e-13
9.4479721e-11
-3.0679443e-13
9.4187337e-11
2.9238406e-13
9.4466397e-11
-2.7905935e-13
9.4199584e-11
2.6681236e-13
9.4455141e-11
-2.5555649e-13
9.4209855e-11
2.4528601e-13
9.4445782e-11
-2.359275e-13
9.4218306e-11
2.274766e-13
9.4438178e-11
-2.1987276e-13
9.4225066e-11
2.1311202e-13
9.4432212e-11
-2.0714573e-13
9.4230235e-11
2.0197752e-13
9.4427774e-11
-1.9753916e-13
9.423388e-11
1.938935e-13
9.4425037e-11
-1.9115712e-13
9.4237711e-11
1.8732656e-13
9.4430779e-11
-1.9306866e-13
1.7959767e-13
2.7861783e-10
4.5351203e-09
2.9241896e-10
-1.3584077e-11
2.7444301e-10
2.496581e-11
2.7368106e-10
1.355859e-12
2.7494237e-10
-2.3891907e-12
2.7288323e-10
3.4925181e-12
2.747729e-10
-3.2250469e-12
2.729417e-10
3.1116264e-12
2.74679e-10
-2.9461353e-12
2.7303665e-10
2.7834716e-12
2.7458166e-10
-2.6186054e-12
2.7312493e-10
2.4682639e-12
2.7449522e-10
-2.3220984e-12
2.7320445e-10
2.187162e-12
2.7441955e-10
-2.059023e-12
2.7327503e-10
1.9394134e-12
2.7435311e-10
-1.826812e-12
2.7333733e-10
1.7212882e-12
2.7429469e-10
-1.6222528e-12
2.7339217e-10
1.5293733e-12
2.7424334e-10
-1.4423177e-12
2.7344035e-10
1.3607132e-12
2.7419826e-10
-1.2842923e-12
2.734826e-10
1.2127303e-12
2.7415876e-10
-1.1457774e-12
2.7351957e-10
1.0831691e-12
2.7412425e-10
-1.024666e-12
2.7355181e-10
9.7005695e-13
2.740942e-10
-9.1911488e-13
2.7357982e-10
8.7167234e-13
2.7406815e-10
-8.2751764e-13
2.7360402e-10
7.8651804e-13
2.7404571e-10
-7.4847998e-13
2.7362479e-10
7.13298e-13
2.7402653e-10
-6.8079845e-13
2.7364245e-10
6.5089726e-13
2.7401033e-10
-6.2344184e-13
2.7365725e-10
5.9836482e-13
2.7399686e-10
-5.7553533e-13
2.7366944e-10
5.5489888e-13
2.7398591e-10
-5.3634724e-13
2.7367919e-10
5.1983427e-13
2.7397732e-10
-5.0527439e-13
2.7368665e-10
4.9264932e-13
2.739709e-10
-4.8178712e-13
2.7369184e-10
4.7294836e-13
2.7396684e-10
-4.6615753e-13
2.7369803e-10
4.5613832e-13
2.7398151e-10
-4.7654612e-13
4.3648898e-13
4.5011343e-10
6.5427569e-09
4.7657227e-10
-4.0042914e-11
4.4930575e-10
5.2232318e-11
4.491142e-10
1.5474227e-12
4.4976584e-10
-3.0408372e-12
4.478621e-10
5.3962589e-12
4.4960046e-10
-4.9634075e-12
4.478951e-10
4.8169875e-12
4.4952783e-10
-4.578871e-12
4.4798142e-10
4.3298844e-12
4.4943614e-10
-4.0733268e-12
4.4806316e-10
3.8412466e-12
4.4935411e-10
-3.6130481e-12
4.4813775e-10
3.4035252e-12
4.4928268e-10
-3.2039568e-12
4.4820424e-10
3.0178541e-12
4.4922011e-10
-2.8426799e-12
4.4826301e-10
2.6783896e-12
4.4916513e-10
-2.524373e-12
4.4831476e-10
2.3797448e-12
4.4911681e-10
-2.2443677e-12
4.4836022e-10
2.1172937e-12
4.4907438e-10
-1.9984515e-12
4.484001e-10
1.8870178e-12
4.4903721e-10
-1.7828943e-12
4.4843498e-10
1.6854055e-12
4.4900473e-10
-1.5944178e-12
4.484654e-10
1.5093867e-12
4.4897644e-10
-1.430154e-12
4.4849183e-10
1.3562827e-12
4.4895191e-10
-1.2876029e-12
4.4851467e-10
1.2237638e-12
4.4893078e-10
-1.1645946e-12
4.4853427e-10
1.1098131e-12
4.4891272e-10
-1.0592558e-12
4.4855093e-10
1.0126953e-12
4.4889747e-10
-9.6998129e-13
4.485649e-10
9.3093004e-13
4.4888477e-10
-8.9540874e-13
4.485764e-10
8.6326831e-13
4.4887445e-10
-8.3439798e-13
4.4858562e-10
8.0867239e-13
4.4886635e-10
-7.8600662e-13
4.4859267e-10
7.6633295e-13
4.4886025e-10
-7.4936773e-13
4.485975e-10
7.3569309e-13
4.4885631e-10
-7.2496277e-13
4.4860442e-10
7.0802275e-13
4.4887886e-10
-7.5098337e-13
6.7666195e-13
6.1297011e-10
8.3875368e-09
6.5414121e-10
-8.1214007e-11
6.1957393e-10
8.6799587e-11
6.1983676e-10
1.2845984e-12
6.1994995e-10
-3.1540233e-12
6.1822567e-10
7.1205375e-12
6.1981958e-10
-6.5573198e-12
6.182463e-10
6.3902696e-12
6.1977234e-10
-6.1049086e-12
6.1832535e-10
5.7768729e-12
6.1968675e-10
-5.4347278e-12
6.1840054e-10
5.1274496e-12
6.1960933e-10
-4.8218337e-12
6.1847004e-10
4.5428146e-12
6.1954228e-10
-4.276198e-12
6.1853228e-10
4.0278579e-12
6.1948369e-10
-3.7940938e-12
6.1858736e-10
3.5747213e-12
6.1943225e-10
-3.3692611e-12
6.1863588e-10
3.1761112e-12
6.1938704e-10
-2.995527e-12
6.1867852e-10
2.8258179e-12
6.1934735e-10
-2.6672855e-12
6.187159e-10
2.5184677e-12
6.1931257e-10
-2.3795622e-12
6.187486e-10
2.2493714e-12
6.1928217e-10
-2.1279826e-12
6.1877712e-10
2.0144312e-12
6.1925569e-10
-1.9087188e-12
6.188019e-10
1.8100718e-12
6.1923273e-10
-1.7184337e-12
6.1882331e-10
1.633184e-12
6.1921295e-10
-1.5542307e-12
6.1884168e-10
1.4810755e-12
6.1919604e-10
-1.4136089e-12
6.188573e-10
1.3514298e-12
6.1918175e-10
-1.2944247e-12
6.1887041e-10
1.24227e-12
6.1916986e-10
-1.1948582e-12
6.188812e-10
1.151927e-12
6.1916018e-10
-1.1133849e-12
6.1888984e-10
1.0790112e-12
6.1915258e-10
-1.0487408e-12
6.1889647e-10
1.0224428e-12
6.1914681e-10
-9.9970757e-13
6.1890094e-10
9.815602e-13
6.1914291e-10
-9.6693472e-13
6.1890818e-10
9.4275295e-13
6.1917145e-10
-1.0142457e-12
9.0044015e-13
7.7472669e-10
1.007056e-08
8.2555821e-10
-1.3204552e-10
7.8514896e-10
1.2720884e-10
7.8584005e-10
5.9351118e-13
7.85494e-10
-2.8079808e-12
7.8397452e-10
8.6400172e-12
7.8543011e-10
-8.0129016e-12
7.8399486e-10
7.8255191e-12
7.8541222e-10
-7.5222729e-12
7.8406799e-10
7.1211057e-12
7.8533323e-10
-6.6999702e-12
7.8413669e-10
6.3239878e-12
7.8526066e-10
-5.9458013e-12
7.8420098e-10
5.6024927e-12
7.8519816e-10
-5.2733756e-12
7.8425883e-10
4.9671869e-12
7.8514368e-10
-4.6789497e-12
7.843101e-10
4.4083038e-12
7.8509589e-10
-4.1550513e-12
7.8435529e-10
3.916718e-12
7.850539e-10
-3.6941407e-12
7.8439499e-10
3.4847285e-12
7.8501703e-10
-3.2893251e-12
7.844298e-10
3.1056964e-12
7.8498471e-10
-2.9344753e-12
7.8446025e-10
2.773836e-12
7.8495646e-10
-2.6241982e-12
7.844868e-10
2.4840937e-12
7.8493185e-10
-2.353773e-12
7.8450987e-10
2.2320607e-12
7.8491052e-10
-2.1190841e-12
7.845298e-10
2.0139024e-12
7.8489213e-10
-1.9165586e-12
7.845469e-10
1.8262986e-12
7.8487641e-10
-1.7431116e-12
7.8456144e-10
1.6663918e-12
7.8486312e-10
-1.5960982e-12
7.8457364e-10
1.5317425e-12
7.8485206e-10
-1.4732715e-12
7.8458369e-10
1.4202898e-12
7.8484306e-10
-1.372748e-12
7.8459176e-10
1.3303135e-12
7.8483598e-10
-1.2929606e-12
7.8459794e-10
1.2604794e-12
7.8483056e-10
-1.2323281e-12
7.8460204e-10
1.2100768e-12
7.8482669e-10
-1.191584e-12
7.8460934e-10
1.1601038e-12
7.8485964e-10
-1.2645457e-12
1.1067791e-12
9.2473712e-10
1.1603573e-08
9.8964307e-10
-1.9695146e-10
9.4609143e-10
1.7076047e-10
9.4710869e-10
-4.2373844e-13
9.4639631e-10
-2.095602e-12
9.4510985e-10
9.9264802e-12
9.464333e-10
-9.3363615e-12
9.451406e-10
9.1182256e-12
9.4644797e-10
-8.8296501e-12
9.4520906e-10
8.3600239e-12
9.4637599e-10
-7.8669065e-12
9.4527135e-10
7.4286335e-12
9.4630845e-10
-6.9829078e-12
9.4533034e-10
6.5806056e-12
9.4625062e-10
-6.1936593e-12
9.4538369e-10
5.8341202e-12
9.4620036e-10
-5.4956224e-12
9.4543105e-10
5.1776146e-12
9.461563e-10
-4.8803026e-12
9.4547281e-10
4.600216e-12
9.461176e-10
-4.3389308e-12
9.455095e-10
4.0928283e-12
9.4608361e-10
-3.8634361e-12
9.4554166e-10
3.6476403e-12
9.4605381e-10
-3.4466263e-12
9.455698e-10
3.2578536e-12
9.4602777e-10
-3.0821686e-12
9.4559433e-10
2.9175321e-12
9.4600507e-10
-2.7645185e-12
9.4561564e-10
2.6214979e-12
9.4598539e-10
-2.4888416e-12
9.4563405e-10
2.3652473e-12
9.4596843e-10
-2.2509409e-12
9.4564985e-10
2.1448803e-12
9.4595393e-10
-2.0471917e-12
9.4566328e-10
1.9570395e-12
9.4594167e-10
-1.8744858e-12
9.4567455e-10
1.7988581e-12
9.4593146e-10
-1.7301816e-12
9.4568384e-10
1.6679121e-12
9.4592316e-10
-1.612062e-12
9.456913e-10
1.5621731e-12
9.4591661e-10
-1.5182762e-12
9.4569702e-10
1.4800681e-12
9.4591157e-10
-1.4468738e-12
9.4570075e-10
1.4208918e-12
9.4590773e-10
-1.3985627e-12
9.457079e-10
1.3599352e-12
9.4594373e-10
-1.5003727e-12
1.2947881e-12
1.074999e-09
1.2986324e-08
1.1482609e-09
-2.7021335e-10
1.1023949e-09
2.1662643e-10
1.1035991e-09
-1.6279798e-12
1.1026517e-09
-1.1481344e-12
1.1016326e-09
1.0945595e-11
1.1028304e-09
-1.0534219e-11
1.1016833e-09
1.0265323e-11
1.1028801e-09
-1.0026396e-11
1.1017482e-09
9.4919084e-12
1.1028154e-09
-8.9341276e-12
1.1018042e-09
8.4398616e-12
1.102753e-09
-7.9317739e-12
1.1018578e-09
7.4758235e-12
1.1027e-09
-7.0358062e-12
1.1019066e-09
6.6274887e-12
1.102654e-09
-6.2430067e-12
1.10195e-09
5.8816201e-12
1.1026137e-09
-5.5440344e-12
1.1019882e-09
5.2256889e-12
1.1025783e-09
-4.9290274e-12
1.1020219e-09
4.6493041e-12
1.1025473e-09
-4.3888466e-12
1.1020513e-09
4.1435771e-12
1.10252e-09
-3.9153295e-12
1.1020771e-09
3.7007815e-12
1.1024962e-09
-3.5012841e-12
1.1020996e-09
3.3141742e-12
1.1024755e-09
-3.1404123e-12
1.1021191e-09
2.9778732e-12
1.1024575e-09
-2.8272218e-12
1.102136e-09
2.6867625e-12
1.102442e-09
-2.556944e-12
1.1021504e-09
2.4364115e-12
1.1024287e-09
-2.3254602e-12
1.1021627e-09
2.2230052e-12
1.1024175e-09
-2.1292373e-12
1.1021731e-09
2.0432848e-12
1.1024081e-09
-1.9652716e-12
1.1021816e-09
1.8944928e-12
1.1024005e-09
-1.8310389e-12
1.1021884e-09
1.7743156e-12
1.1023946e-09
-1.724425e-12
1.1021937e-09
1.6809572e-12
1.1023899e-09
-1.6431084e-12
1.102197e-09
1.6137699e-12
1.1023861e-09
-1.5876513e-12
1.1022039e-09
1.542186e-12
1.102424e-09
-1.7204758e-12
1.4640123e-12
1.2165554e-09
1.4227519e-08
1.2994054e-09
-3.5306336e-10
1.2540767e-09
2.6195519e-10
1.2552795e-09
-2.8307968e-12
1.2542512e-09
-1.1981235e-13
1.2535445e-09
1.1652201e-11
1.2546234e-09
-1.1613075e-11
1.2536232e-09
1.1265523e-11
1.254709e-09
-1.1112207e-11
1.2536851e-09
1.0515863e-11
1.2546518e-09
-9.9008397e-12
1.2537349e-09
9.356775e-12
1.2545947e-09
-8.7916007e-12
1.2537831e-09
8.2873651e-12
1.2545464e-09
-7.7990891e-12
1.2538273e-09
7.3466089e-12
1.2545048e-09
-6.9204542e-12
1.2538667e-09
6.5197169e-12
1.2544683e-09
-6.1456711e-12
1.2539014e-09
5.7926018e-12
1.2544363e-09
-5.4639201e-12
1.2539319e-09
5.153681e-12
1.2544082e-09
-4.8651036e-12
1.2539586e-09
4.5930847e-12
1.2543835e-09
-4.3401828e-12
1.253982e-09
4.1022447e-12
1.2543619e-09
-3.8811875e-12
1.2540024e-09
3.673686e-12
1.2543432e-09
-3.4811366e-12
1.2540201e-09
3.300889e-12
1.2543269e-09
-3.1339416e-12
1.2540354e-09
2.9781825e-12
1.2543128e-09
-2.8343152e-12
1.2540486e-09
2.7006546e-12
1.2543008e-09
-2.5776907e-12
1.2540597e-09
2.4640756e-12
1.2542906e-09
-2.3601496e-12
1.2540691e-09
2.2648308e-12
1.2542822e-09
-2.1783585e-12
1.2540768e-09
2.0998589e-12
1.2542753e-09
-2.0295134e-12
1.254083e-09
1.9665847e-12
1.2542698e-09
-1.9112578e-12
1.2540878e-09
1.8630053e-12
1.2542656e-09
-1.8209026e-12
1.2540908e-09
1.7885788e-12
1.2542619e-09
-1.7587419e-12
1.2540972e-09
1.7068667e-12
1.2543006e-09
-1.9238326e-12
1.6143319e-12
1.3548416e-09
1.5330427e-08
1.4455492e-09
-4.4377096e-10
1.4011832e-09
3.0632117e-10
1.4021275e-09
-3.7750551e-12
1.4011898e-09
8.1786612e-13
1.4008478e-09
1.1994176e-11
1.4018142e-09
-1.2579436e-11
1.4009607e-09
1.2118992e-11
1.4019355e-09
-1.2086938e-11
1.4010195e-09
1.1431784e-11
1.4018854e-09
-1.0766737e-11
1.4010632e-09
1.0179045e-11
1.4018337e-09
-9.5620868e-12
1.4011061e-09
9.0149324e-12
1.4017902e-09
-8.4832308e-12
1.4011456e-09
7.9912226e-12
1.4017529e-09
-7.5277159e-12
1.4011809e-09
7.0916775e-12
1.4017202e-09
-6.6849914e-12
1.4012121e-09
6.3007532e-12
1.4016916e-09
-5.9434128e-12
1.4012395e-09
5.6057804e-12
1.4016664e-09
-5.2920338e-12
1.4012635e-09
4.9960047e-12
1.4016443e-09
-4.721033e-12
1.4012845e-09
4.4621027e-12
1.401625e-09
-4.2217435e-12
1.4013028e-09
3.9959432e-12
1.4016082e-09
-3.7865719e-12
1.4013187e-09
3.590435e-12
1.4015936e-09
-3.4088951e-12
1.4013324e-09
3.2394095e-12
1.401581e-09
-3.0829612e-12
1.4013442e-09
2.9375234e-12
1.4015703e-09
-2.803801e-12
1.4013542e-09
2.6801746e-12
1.4015612e-09
-2.56715e-12
1.4013626e-09
2.4634288e-12
1.4015536e-09
-2.3693786e-12
1.4013695e-09
2.2839515e-12
1.4015474e-09
-2.20743e-12
1.4013751e-09
2.1389296e-12
1.4015426e-09
-2.0787274e-12
1.4013794e-09
2.0261697e-12
1.4015387e-09
-1.9802227e-12
1.401382e-09
1.9452793e-12
1.4015351e-09
-1.911825e-12
1.4013879e-09
1.8540533e-12
1.4015737e-09
-2.1096243e-12
1.7458582e-12
1.4902701e-09
1.6297907e-08
1.584228e-09
-5.3772887e-10
1.5436343e-09
3.4691484e-10
1.5442309e-09
-4.3716895e-12
1.5434846e-09
1.564155e-12
1.543543e-09
1.1935834e-11
1.5444031e-09
-1.3439565e-11
1.5436955e-09
1.2826583e-11
1.5445596e-09
-1.2951032e-11
1.5437513e-09
1.2240064e-11
1.5445166e-09
-1.1532035e-11
1.5437889e-09
1.0906821e-11
1.5444702e-09
-1.0243387e-11
1.5438264e-09
9.6586567e-12
1.5444316e-09
-9.0883582e-12
1.5438613e-09
8.5614516e-12
1.5443985e-09
-8.0649012e-12
1.5438926e-09
7.5976118e-12
1.5443697e-09
-7.1620916e-12
1.5439202e-09
6.7502412e-12
1.5443444e-09
-6.3675914e-12
1.5439445e-09
6.0056896e-12
1.5443222e-09
-5.6697145e-12
1.5439657e-09
5.3524153e-12
1.5443027e-09
-5.05795e-12
1.5439843e-09
4.7804258e-12
1.5442856e-09
-4.5230156e-12
1.5440005e-09
4.2810096e-12
1.5442707e-09
-4.0567765e-12
1.5440146e-09
3.8465696e-12
1.5442579e-09
-3.6521364e-12
1.5440268e-09
3.4704974e-12
1.5442467e-09
-3.3029321e-12
1.5440372e-09
3.1470679e-12
1.5442372e-09
-3.0038382e-12
1.5440461e-09
2.8713492e-12
1.5442292e-09
-2.7502836e-12
1.5440535e-09
2.639124e-12
1.5442225e-09
-2.5383757e-12
1.5440596e-09
2.4468147e-12
1.544217e-09
-2.3648323e-12
1.5440646e-09
2.291395e-12
1.5442127e-09
-2.2268789e-12
1.5440684e-09
2.1704973e-12
1.5442093e-09
-2.1211214e-12
1.5440706e-09
2.0839168e-12
1.5442058e-09
-2.0469791e-12
1.544076e-09
1.9838835e-12
1.5442436e-09
-2.2772167e-12
1.8588792e-12
1.6162813e-09
1.7139376e-08
1.7179702e-09
-6.3941777e-10
1.6813468e-09
3.8353818e-10
1.6817614e-09
-4.7862559e-12
1.681215e-09
2.110505e-12
1.681642e-09
1.1508837e-11
1.6823936e-09
-1.4191087e-11
1.681828e-09
1.3392106e-11
1.6825819e-09
-1.3704917e-11
1.6818803e-09
1.29417e-11
1.6825456e-09
-1.2197369e-11
1.6819117e-09
1.15407e-11
1.6825044e-09
-1.0836065e-11
1.681944e-09
1.0219059e-11
1.6824706e-09
-9.6149627e-12
1.6819743e-09
9.0577622e-12
1.6824418e-09
-8.5324431e-12
1.6820015e-09
8.0379344e-12
1.6824168e-09
-7.5773556e-12
1.6820256e-09
7.141434e-12
1.6823948e-09
-6.7367974e-12
1.6820468e-09
6.3537361e-12
1.6823755e-09
-5.9984502e-12
1.6820653e-09
5.6626085e-12
1.6823586e-09
-5.351206e-12
1.6820815e-09
5.0574751e-12
1.6823437e-09
-4.7852479e-12
1.6820956e-09
4.5291191e-12
1.6823308e-09
-4.2919699e-12
1.6821079e-09
4.0695035e-12
1.6823196e-09
-3.8638639e-12
1.6821185e-09
3.6716368e-12
1.68231e-09
-3.4944082e-12
1.6821276e-09
3.3294615e-12
1.6823017e-09
-3.1779672e-12
1.6821353e-09
3.0377587e-12
1.6822947e-09
-2.9097024e-12
1.6821418e-09
2.7920638e-12
1.6822889e-09
-2.6854914e-12
1.6821471e-09
2.5885868e-12
1.6822841e-09
-2.5018543e-12
1.6821514e-09
2.4241128e-12
1.6822804e-09
-2.3558415e-12
1.6821547e-09
2.2961165e-12
1.6822774e-09
-2.2437307e-12
1.6821567e-09
2.2046138e-12
1.682274e-09
-2.164361e-12
1.6821614e-09
2.0965527e-12
1.6823103e-09
-2.4261441e-12
1.9538259e-12
1.7470715e-09
1.7850054e-08
1.8447771e-09
-7.3712333e-10
1.8142543e-09
4.1406096e-10
1.8147236e-09
-5.2555289e-12
1.8144034e-09
2.430701e-12
1.8151466e-09
1.0765599e-11
1.8157865e-09
-1.4830966e-11
1.8153583e-09
1.3820293e-11
1.8160027e-09
-1.4349245e-11
1.8154062e-09
1.3538175e-11
1.8159726e-09
-1.276377e-11
1.8154316e-09
1.2081679e-11
1.8159366e-09
-1.134105e-11
1.8154586e-09
1.069701e-11
1.8159075e-09
-1.0063865e-11
1.8154844e-09
9.4809301e-12
1.815883e-09
-8.9310669e-12
1.8155076e-09
8.4133348e-12
1.8158617e-09
-7.9314267e-12
1.8155282e-09
7.4749441e-12
1.815843e-09
-7.0516026e-12
1.8155462e-09
6.6504646e-12
1.8158265e-09
-6.27875e-12
1.8155621e-09
5.9270695e-12
1.8158121e-09
-5.6012556e-12
1.8155759e-09
5.2936837e-12
1.8157995e-09
-5.0088473e-12
1.815588e-09
4.7406597e-12
1.8157885e-09
-4.4925175e-12
1.8155984e-09
4.2595852e-12
1.815779e-09
-4.0444066e-12
1.8156075e-09
3.8431422e-12
1.8157707e-09
-3.6576874e-12
1.8156152e-09
3.4849896e-12
1.8157637e-09
-3.3264594e-12
1.8156218e-09
3.1796635e-12
1.8157578e-09
-3.0456554e-12
1.8156273e-09
2.9224881e-12
1.8157528e-09
-2.8109563e-12
1.8156319e-09
2.709491e-12
1.8157488e-09
-2.6187119e-12
1.8156356e-09
2.5372936e-12
1.8157456e-09
-2.4658205e-12
1.8156384e-09
2.4032302e-12
1.815743e-09
-2.3482539e-12
1.81564e-09
2.3075631e-12
1.8157399e-09
-2.2641977e-12
1.8156441e-09
2.1923103e-12
1.815774e-09
-2.5560941e-12
2.0312431e-12
1.8616055e-09
1.8446199e-08
1.9671049e-09
-8.4262281e-10
1.9424761e-09
4.3868976e-10
1.9430798e-09
-5.8591405e-12
1.9430445e-09
2.4659362e-12
1.9440574e-09
9.7527454e-12
1.9445823e-09
-1.5355928e-11
1.9442868e-09
1.4115834e-11
1.9448223e-09
-1.4884773e-11
1.944329e-09
1.4031496e-11
1.9447978e-09
-1.3232551e-11
1.9443483e-09
1.2531147e-11
1.9447668e-09
-1.1759588e-11
1.9443702e-09
1.1093704e-11
1.9447425e-09
-1.0436179e-11
1.9443914e-09
9.8320119e-12
1.9447221e-09
-9.2617598e-12
1.9444107e-09
8.72475e-12
1.9447044e-09
-8.2251809e-12
1.9444278e-09
7.7516035e-12
1.9446889e-09
-7.3127858e-12
1.9444428e-09
6.8966148e-12
1.9446753e-09
-6.5113077e-12
1.944456e-09
6.1464571e-12
1.9446634e-09
-5.8087179e-12
1.9444675e-09
5.4896399e-12
1.944653e-09
-5.1943674e-12
1.9444775e-09
4.9161577e-12
1.9446439e-09
-4.6589157e-12
1.9444862e-09
4.4172874e-12
1.944636e-09
-4.1942116e-12
1.9444937e-09
3.9854396e-12
1.9446292e-09
-3.7931739e-12
1.9445001e-09
3.6140383e-12
1.9446234e-09
-3.449682e-12
1.9445056e-09
3.2974158e-12
1.9446184e-09
-3.1584788e-12
1.9445102e-09
3.0307205e-12
1.9446143e-09
-2.9150808e-12
1.944514e-09
2.8098275e-12
1.944611e-09
-2.7156949e-12
1.944517e-09
2.6312196e-12
1.9446083e-09
-2.5570906e-12
1.9445194e-09
2.4921078e-12
1.9446061e-09
-2.434959e-12
1.9445207e-09
2.3930209e-12
1.9446033e-09
-2.3467784e-12
1.9445241e-09
2.2714549e-12
1.9446349e-09
-2.666894e-12
2.0917653e-12
1.9881045e-09
1.8915844e-08
2.0834855e-09
-9.3800382e-10
2.0660112e-09
4.5616407e-10
2.066876e-09
-6.7239254e-12
2.0671402e-09
2.2017357e-12
2.0683784e-09
8.5145265e-12
2.0687817e-09
-1.5759291e-11
2.0686134e-09
1.4284159e-11
2.0690411e-09
-1.5312414e-11
2.0686485e-09
1.4424007e-11
2.0690214e-09
-1.3605368e-11
2.0686617e-09
1.2890803e-11
2.0689953e-09
-1.2093225e-11
2.0686784e-09
1.1410616e-11
2.0689755e-09
-1.0733283e-11
2.0686952e-09
1.0112313e-11
2.0689592e-09
-9.5257449e-12
2.0687106e-09
8.9733384e-12
2.0689452e-09
-8.459704e-12
2.0687243e-09
7.9724409e-12
2.0689328e-09
-7.5213121e-12
2.0687364e-09
7.0931015e-12
2.068922e-09
-6.6969824e-12
2.0687469e-09
6.321586e-12
2.0689125e-09
-5.9743591e-12
2.0687561e-09
5.6460706e-12
2.0689042e-09
-5.3424933e-12
2.0687641e-09
5.0562639e-12
2.068897e-09
-4.7917788e-12
2.0687711e-09
4.5431941e-12
2.0688907e-09
-4.3138314e-12
2.0687771e-09
4.0990556e-12
2.0688853e-09
-3.901367e-12
2.0687822e-09
3.7170844e-12
2.0688806e-09
-3.5480889e-12
2.0687866e-09
3.3914498e-12
2.0688767e-09
-3.2485876e-12
2.0687903e-09
3.1171596e-12
2.0688734e-09
-2.9982477e-12
2.0687933e-09
2.8899659e-12
2.0688708e-09
-2.7931601e-12
2.0687958e-09
2.7062373e-12
2.0688687e-09
-2.6299886e-12
2.0687977e-09
2.5630796e-12
2.0688669e-09
-2.5041724e-12
2.0687986e-09
2.4613009e-12
2.0688643e-09
-2.4124479e-12
2.0688014e-09
2.3343305e-12
2.068893e-09
-2.7584979e-12
2.1360937e-12
2.0935219e-09
1.9280072e-08
2.1954813e-09
-1.0399632e-09
2.1849414e-09
4.6670399e-10
2.1861216e-09
-7.904165e-12
2.1866808e-09
1.6426155e-12
2.1881093e-09
7.0860075e-12
2.1883838e-09
-1.6033809e-11
2.1883377e-09
1.4330263e-11
2.1886589e-09
-1.5633606e-11
2.1883646e-09
1.4718262e-11
2.1886435e-09
-1.3884212e-11
2.1883717e-09
1.3162617e-11
2.1886222e-09
-1.2343776e-11
2.1883833e-09
1.1649472e-11
2.1886069e-09
-1.0956792e-11
2.1883958e-09
1.0323363e-11
2.1885945e-09
-9.7244552e-12
2.1884074e-09
9.1604563e-12
2.188584e-09
-8.6362681e-12
2.1884177e-09
8.1386608e-12
2.1885747e-09
-7.6783125e-12
2.1884268e-09
7.2409957e-12
2.1885666e-09
-6.8367812e-12
2.1884348e-09
6.4534103e-12
2.1885595e-09
-6.0990774e-12
2.1884418e-09
5.7638274e-12
2.1885533e-09
-5.4540279e-12
2.1884478e-09
5.16174e-12
2.1885479e-09
-4.8918264e-12
2.1884531e-09
4.637989e-12
2.1885432e-09
-4.4039134e-12
2.1884576e-09
4.1846062e-12
2.1885391e-09
-3.9828515e-12
2.1884615e-09
3.7946855e-12
2.1885356e-09
-3.6222111e-12
2.1884648e-09
3.4622738e-12
2.1885327e-09
-3.3164674e-12
2.1884676e-09
3.1822717e-12
2.1885302e-09
-3.0609046e-12
2.1884699e-09
2.9503377e-12
2.1885282e-09
-2.8515243e-12
2.1884717e-09
2.7627511e-12
2.1885266e-09
-2.6849075e-12
2.1884732e-09
2.6165301e-12
2.1885253e-09
-2.5562728e-12
2.1884738e-09
2.5127687e-12
2.188523e-09
-2.4616001e-12
2.188476e-09
2.3813222e-12
2.1885484e-09
-2.8309744e-12
2.1649787e-12
2.2134502e-09
1.9524372e-08
2.302567e-09
-1.1290801e-09
2.2993749e-09
4.6989611e-10
2.3008574e-09
-9.3866633e-12
2.3016531e-09
8.4689577e-13
2.3032516e-09
5.4875108e-12
2.3033892e-09
-1.6171401e-11
2.3034598e-09
1.4259693e-11
2.303676e-09
-1.5849872e-11
2.3034771e-09
1.4917154e-11
2.3036642e-09
-1.4071308e-11
2.303478e-09
1.334882e-11
2.3036475e-09
-1.251329e-11
2.3034848e-09
1.1812225e-11
2.3036365e-09
-1.1108533e-11
2.303493e-09
1.0466889e-11
2.3036281e-09
-9.8595111e-12
2.3035009e-09
9.2876363e-12
2.3036209e-09
-8.7563122e-12
2.303508e-09
8.2516241e-12
2.3036147e-09
-7.7850661e-12
2.3035142e-09
7.3415077e-12
2.3036093e-09
-6.9318428e-12
2.3035197e-09
6.5430079e-12
2.3036045e-09
-6.1838884e-12
2.3035244e-09
5.8438723e-12
2.3036003e-09
-5.5298789e-12
2.3035286e-09
5.2334467e-12
2.3035966e-09
-4.9598722e-12
2.3035322e-09
4.7024448e-12
2.3035934e-09
-4.4651893e-12
2.3035353e-09
4.2427874e-12
2.3035907e-09
-4.0382883e-12
2.3035379e-09
3.8474721e-12
2.3035883e-09
-3.6726487e-12
2.3035402e-09
3.5104616e-12
2.3035864e-09
-3.3626668e-12
2.303542e-09
3.2265835e-12
2.3035847e-09
-3.1035571e-12
2.3035436e-09
2.9914306e-12
2.3035833e-09
-2.891258e-12
2.3035449e-09
2.8012174e-12
2.3035823e-09
-2.7222904e-12
2.3035459e-09
2.6528926e-12
2.3035813e-09
-2.591686e-12
2.3035462e-09
2.5478365e-12
2.3035793e-09
-2.4946721e-12
2.3035478e-09
2.4128526e-12
2.3036013e-09
-2.884496e-12
2.1792033e-12
2.3151878e-09
1.9666934e-08
2.4056785e-09
-1.2195708e-09
2.4093543e-09
4.6622024e-10
2.4111296e-09
-1.1161913e-11
2.4120499e-09
-7.3417631e-14
2.4138063e-09
3.7311579e-12
2.4137976e-09
-1.6162767e-11
2.4139793e-09
1.4078072e-11
2.4140925e-09
-1.5963084e-11
2.4139859e-09
1.502374e-11
2.4140837e-09
-1.4169158e-11
2.4139807e-09
1.345185e-11
2.4140714e-09
-1.2604034e-11
2.4139826e-09
1.1901022e-11
2.4140646e-09
-1.1190518e-11
2.4139867e-09
1.0544795e-11
2.4140599e-09
-9.9326995e-12
2.413991e-09
9.3565672e-12
2.4140561e-09
-8.821423e-12
2.4139949e-09
8.3128308e-12
2.4140528e-09
-7.8429835e-12
2.4139983e-09
7.3959712e-12
2.4140499e-09
-6.9834228e-12
2.4140014e-09
6.5915668e-12
2.4140474e-09
-6.2299119e-12
2.414004e-09
5.8872657e-12
2.4140452e-09
-5.5710472e-12
2.4140063e-09
5.2723329e-12
2.4140432e-09
-4.9968132e-12
2.4140082e-09
4.737413e-12
2.4140415e-09
-4.4984658e-12
2.4140099e-09
4.2743665e-12
2.4140401e-09
-4.0684061e-12
2.4140114e-09
3.8761385e-12
2.4140388e-09
-3.7000636e-12
2.4140126e-09
3.5366459e-12
2.4140378e-09
-3.3877906e-12
2.4140137e-09
3.2506752e-12
2.4140369e-09
-3.1267623e-12
2.4140145e-09
3.0137817e-12
2.4140361e-09
-2.9128795e-12
2.4140152e-09
2.8221387e-12
2.4140355e-09
-2.7426253e-12
2.4140158e-09
2.672644e-12
2.414035e-09
-2.6108797e-12
2.4140159e-09
2.5669579e-12
2.4140333e-09
-2.5121396e-12
2.4140168e-09
2.4293779e-12
2.4140516e-09
-2.9193288e-12
2.1795701e-12
2.4296554e-09
1.9695029e-08
2.5045325e-09
-1.2944479e-09
2.5149207e-09
4.5583206e-10
2.5170002e-09
-1.3241426e-11
2.5178707e-09
-9.4395932e-13
2.519776e-09
1.8258555e-12
2.51961e-09
-1.5996768e-11
2.5198963e-09
1.3791842e-11
2.5199083e-09
-1.5975142e-11
2.5198908e-09
1.5041309e-11
2.5199021e-09
-1.418047e-11
2.5198796e-09
1.3474337e-11
2.519894e-09
-1.261846e-11
2.5198768e-09
1.1918184e-11
2.5198913e-09
-1.1204929e-11
2.5198769e-09
1.0559139e-11
2.5198902e-09
-9.9459543e-12
2.5198777e-09
9.3690758e-12
2.5198895e-09
-8.8333176e-12
2.5198785e-09
8.3239035e-12
2.5198891e-09
-7.8535913e-12
2.5198792e-09
7.4058293e-12
2.5198887e-09
-6.9928804e-12
2.5198799e-09
6.6003724e-12
2.5198883e-09
-6.23836e-12
2.5198804e-09
5.8951547e-12
2.519888e-09
-5.578616e-12
2.5198809e-09
5.279425e-12
2.5198877e-09
-5.0036203e-12
2.5198813e-09
4.7438148e-12
2.5198875e-09
-4.5046162e-12
2.5198817e-09
4.2801736e-12
2.5198872e-09
-4.0739936e-12
2.519882e-09
3.8814367e-12
2.5198871e-09
-3.7051718e-12
2.5198822e-09
3.5415113e-12
2.5198869e-09
-3.3924935e-12
2.5198824e-09
3.2551749e-12
2.5198868e-09
-3.1311235e-12
2.5198826e-09
3.0179722e-12
2.5198866e-09
-2.91695e-12
2.5198827e-09
2.8260587e-12
2.5198865e-09
-2.7464401e-12
2.5198829e-09
2.6762998e-12
2.5198864e-09
-2.6143589e-12
2.5198827e-09
2.570624e-12
2.5198851e-09
-2.5145114e-12
2.5198831e-09
2.4313841e-12
2.5198995e-09
-2.9358231e-12
2.1668905e-12
2.5287428e-09
1.9624036e-08
2.599637e-09
-1.365342e-09
2.6160395e-09
4.3942958e-10
2.6184047e-09
-1.5606688e-11
2.6191222e-09
-1.6614459e-12
2.6211592e-09
-2.1116527e-13
2.6208259e-09
-1.5663475e-11
2.6212099e-09
1.3407924e-11
2.6211231e-09
-1.5888426e-11
2.6211913e-09
1.4973111e-11
2.6211192e-09
-1.4108284e-11
2.6211745e-09
1.3419002e-11
2.6211153e-09
-1.2559229e-11
2.6211673e-09
1.1866168e-11
2.6211164e-09
-1.1154101e-11
2.6211635e-09
1.0512113e-11
2.6211189e-09
-9.9013411e-12
2.6211608e-09
9.3271092e-12
2.6211213e-09
-8.7938287e-12
2.6211587e-09
8.2865721e-12
2.6211236e-09
-7.8185183e-12
2.6211568e-09
7.3726207e-12
2.6211256e-09
-6.9616655e-12
2.6211552e-09
6.5707954e-12
2.6211273e-09
-6.2105257e-12
2.6211537e-09
5.868763e-12
2.6211288e-09
-5.5537411e-12
2.6211525e-09
5.2558178e-12
2.6211302e-09
-4.9813292e-12
2.6211513e-09
4.722633e-12
2.6211313e-09
-4.4845719e-12
2.6211504e-09
4.2610944e-12
2.6211323e-09
-4.0558923e-12
2.6211495e-09
3.8641683e-12
2.6211331e-09
-3.6887377e-12
2.6211488e-09
3.5257882e-12
2.6211338e-09
-3.377474e-12
2.6211482e-09
3.240753e-12
2.6211344e-09
-3.1172842e-12
2.6211477e-09
3.0046224e-12
2.6211349e-09
-2.9040682e-12
2.6211474e-09
2.8135576e-12
2.6211352e-09
-2.7342983e-12
2.6211471e-09
2.6644099e-12
2.6211354e-09
-2.6026616e-12
2.6211467e-09
2.5593589e-12
2.6211345e-09
-2.5023259e-12
2.6211465e-09
2.4193847e-12
2.6211451e-09
-2.934405e-12
2.1419745e-12
2.6366779e-09
1.9445108e-08
2.6909842e-09
-1.4196484e-09
2.7127572e-09
4.176566e-10
2.7152294e-09
-1.807891e-11
2.7158051e-09
-2.2371572e-12
2.7179485e-09
-2.3545212e-12
2.7174443e-09
-1.5159307e-11
2.7179192e-09
1.2933094e-11
2.7177365e-09
-1.570579e-11
2.7178873e-09
1.482236e-11
2.7177349e-09
-1.3955926e-11
2.7178653e-09
1.3288651e-11
2.7177352e-09
-1.2429182e-11
2.7178538e-09
1.1747543e-11
2.7177403e-09
-1.1040507e-11
2.7178463e-09
1.0406021e-11
2.717746e-09
-9.8010414e-12
2.7178404e-09
9.2327188e-12
2.7177515e-09
-8.7048903e-12
2.7178354e-09
8.2026607e-12
2.7177564e-09
-7.7394832e-12
2.717831e-09
7.2979682e-12
2.7177607e-09
-6.891308e-12
2.7178272e-09
6.5042816e-12
2.7177644e-09
-6.1477732e-12
2.7178238e-09
5.8093808e-12
2.7177677e-09
-5.4976418e-12
2.7178209e-09
5.202666e-12
2.7177706e-09
-4.9310328e-12
2.7178183e-09
4.6749042e-12
2.717773e-09
-4.439316e-12
2.7178161e-09
4.2180631e-12
2.7177752e-09
-4.0149901e-12
2.7178142e-09
3.8251795e-12
2.717777e-09
-3.6515676e-12
2.7178125e-09
3.4902475e-12
2.7177785e-09
-3.3434695e-12
2.7178112e-09
3.2081165e-12
2.7177798e-09
-3.085924e-12
2.71781e-09
2.9743869e-12
2.7177808e-09
-2.8748661e-12
2.7178091e-09
2.7852476e-12
2.7177816e-09
-2.7067942e-12
2.7178085e-09
2.6375543e-12
2.7177822e-09
-2.5763552e-12
2.7178078e-09
2.5337157e-12
2.7177817e-09
-2.4761467e-12
2.7178071e-09
2.3939164e-12
2.7177883e-09
-2.915568e-12
2.1056237e-12
2.7316878e-09
1.917117e-08
2.7788484e-09
-1.466809e-09
2.8050111e-09
3.9149394e-10
2.807435e-09
-2.0502784e-11
2.8079373e-09
-2.7395259e-12
2.8101394e-09
-4.5565772e-12
2.8094658e-09
-1.4485722e-11
2.8100245e-09
1.2374376e-11
2.8097487e-09
-1.5429979e-11
2.8099786e-09
1.4592499e-11
2.8097495e-09
-1.3726813e-11
2.8099519e-09
1.3086245e-11
2.809754e-09
-1.2231276e-11
2.8099365e-09
1.1564999e-11
2.8097627e-09
-1.0866732e-11
2.8099255e-09
1.024327e-11
2.8097718e-09
-9.6473357e-12
2.8099164e-09
9.0880485e-12
2.8097801e-09
-8.5685241e-12
2.8099087e-09
8.0740753e-12
2.8097875e-09
-7.6182821e-12
2.8099019e-09
7.1835675e-12
2.809794e-09
-6.7834067e-12
2.8098959e-09
6.4023415e-12
2.8097997e-09
-6.0515285e-12
2.8098907e-09
5.7183567e-12
2.8098046e-09
-5.4115925e-12
2.8098861e-09
5.1211765e-12
2.809809e-09
-4.8538735e-12
2.8098822e-09
4.601712e-12
2.8098127e-09
-4.3698761e-12
2.8098787e-09
4.1520562e-12
2.8098159e-09
-3.9522155e-12
2.8098758e-09
3.7653548e-12
2.8098187e-09
-3.594505e-12
2.8098733e-09
3.435695e-12
2.809821e-09
-3.2912509e-12
2.8098712e-09
3.1580051e-12
2.809823e-09