/*--------------------------------*- C++ -*----------------------------------*\
| =========                 |                                                 |
| \\      /  F ield         | OpenFOAM: The Open Source CFD Toolbox           |
|  \\    /   O peration     | Version:  2312                                  |
|   \\  /    A nd           | Website:  www.openfoam.com                      |
|    \\/     M anipulation  |                                                 |
\*---------------------------------------------------------------------------*/
FoamFile
{
    version     2.0;
    format      ascii;
    arch        "LSB;label=32;scalar=64";
    class       volVectorField;
    location    "10";
    object      U;
}
// * * * * * * * * * * * * * * * * * * * * * * * * * * * * * * * * * * * * * //

dimensions      [0 1 -1 0 0 0 0];

internalField   nonuniform List<vector> 
4000
(
(0.0023162936 0.00042342114 0)
(0.0030388453 -6.2391931e-06 0)
(0.0024290212 -3.6423781e-07 0)
(0.0025689278 2.2135503e-07 0)
(0.002486765 -2.6050623e-07 0)
(0.0025432245 2.3489206e-07 0)
(0.0024909402 -2.2174851e-07 0)
(0.0025383967 2.0823129e-07 0)
(0.0024941949 -1.9547311e-07 0)
(0.0025355165 1.8388494e-07 0)
(0.0024967173 -1.7306786e-07 0)
(0.0025331215 1.6284762e-07 0)
(0.0024989167 -1.5331816e-07 0)
(0.0025310298 1.4433021e-07 0)
(0.0025008706 -1.3591029e-07 0)
(0.0025291817 1.279972e-07 0)
(0.0025026063 -1.2057078e-07 0)
(0.0025275437 1.1360472e-07 0)
(0.0025041477 -1.0706452e-07 0)
(0.0025260898 1.0093719e-07 0)
(0.0025055172 -9.5185735e-08 0)
(0.0025247974 8.9803094e-08 0)
(0.0025067354 -8.4753577e-08 0)
(0.0025236469 8.0033353e-08 0)
(0.0025078208 -7.5609226e-08 0)
(0.0025226209 7.1479367e-08 0)
(0.0025087897 -6.761346e-08 0)
(0.0025217037 6.4010975e-08 0)
(0.002509657 -6.0644566e-08 0)
(0.0025208814 5.7514539e-08 0)
(0.0025104359 -5.4596493e-08 0)
(0.0025201416 5.1891237e-08 0)
(0.0025111381 -4.9377235e-08 0)
(0.002519473 4.7055559e-08 0)
(0.0025117744 -4.4907433e-08 0)
(0.0025188654 4.2934015e-08 0)
(0.0025123544 -4.1119181e-08 0)
(0.0025183097 3.9464049e-08 0)
(0.0025128869 -3.7955047e-08 0)
(0.0025177975 3.6593173e-08 0)
(0.00251338 -3.5367327e-08 0)
(0.0025173209 3.42784e-08 0)
(0.0025138412 -3.3317654e-08 0)
(0.0025168729 3.2485978e-08 0)
(0.0025142771 -3.1778606e-08 0)
(0.0025164458 3.118904e-08 0)
(0.0025146945 -3.0741485e-08 0)
(0.002516046 3.0401272e-08 0)
(0.0025151751 -2.994081e-08 0)
(0.0025159517 3.2030967e-08 0)
(0.0062026204 0.0011469613 0)
(0.0085490798 -1.1578162e-06 0)
(0.0071248132 4.8414116e-06 0)
(0.0074445665 3.1925333e-07 0)
(0.0072184147 -6.0406051e-07 0)
(0.0073830589 8.1533946e-07 0)
(0.0072295108 -7.5489543e-07 0)
(0.0073697847 7.2651349e-07 0)
(0.0072391492 -6.8641139e-07 0)
(0.0073614273 6.4828487e-07 0)
(0.0072466171 -6.0987362e-07 0)
(0.00735436 5.747381e-07 0)
(0.007253135 -5.4075118e-07 0)
(0.0073481704 5.0930274e-07 0)
(0.0072589267 -4.794719e-07 0)
(0.0073426997 4.5162297e-07 0)
(0.0072640717 -4.2539531e-07 0)
(0.0073378503 4.008331e-07 0)
(0.0072686409 -3.7776197e-07 0)
(0.0073335449 3.561442e-07 0)
(0.0072727013 -3.3586375e-07 0)
(0.0073297173 3.1687005e-07 0)
(0.0072763138 -2.9906771e-07 0)
(0.0073263091 2.8241101e-07 0)
(0.0072795333 -2.6681503e-07 0)
(0.0073232684 2.5224205e-07 0)
(0.0072824085 -2.3861506e-07 0)
(0.007320549 2.2590383e-07 0)
(0.0072849834 -2.1403866e-07 0)
(0.0073181098 2.0299552e-07 0)
(0.007287297 -1.9271182e-07 0)
(0.0073159136 1.8316853e-07 0)
(0.0072893845 -1.7431001e-07 0)
(0.0073139272 1.6612117e-07 0)
(0.0072912776 -1.5855316e-07 0)
(0.0073121203 1.5159401e-07 0)
(0.0072930051 -1.4520142e-07 0)
(0.0073104658 1.393659e-07 0)
(0.0072945931 -1.3405152e-07 0)
(0.0073089383 1.2925073e-07 0)
(0.0072960657 -1.2493389e-07 0)
(0.0073075148 1.2109476e-07 0)
(0.0072974454 -1.1770968e-07 0)
(0.0073061736 1.1477839e-07 0)
(0.0072987527 -1.1226216e-07 0)
(0.007304892 1.1020825e-07 0)
(0.0073000051 -1.0866772e-07 0)
(0.0073036686 1.0643302e-07 0)
(0.0073013734 -1.1043612e-07 0)
(0.0073032028 1.022035e-07 0)
(0.010103869 0.0018720974 0)
(0.01379506 -4.7295653e-06 0)
(0.011700076 1.2352644e-05 0)
(0.012195207 4.8525379e-07 0)
(0.011824227 -9.3159949e-07 0)
(0.012101162 1.4762442e-06 0)
(0.011843615 -1.3589976e-06 0)
(0.012079817 1.3154808e-06 0)
(0.011859965 -1.2472242e-06 0)
(0.012065882 1.1789517e-06 0)
(0.011872551 -1.1090612e-06 0)
(0.012053998 1.0456249e-06 0)
(0.011883536 -9.8360254e-07 0)
(0.012043576 9.265105e-07 0)
(0.011893297 -8.721979e-07 0)
(0.012034363 8.2154347e-07 0)
(0.011901966 -7.7384109e-07 0)
(0.012026195 7.2913852e-07 0)
(0.011909666 -6.8719042e-07 0)
(0.012018943 6.4784077e-07 0)
(0.011916508 -6.1096861e-07 0)
(0.012012495 5.7639494e-07 0)
(0.011922596 -5.4402721e-07 0)
(0.012006753 5.1370818e-07 0)
(0.011928023 -4.8535032e-07 0)
(0.012001629 4.5882479e-07 0)
(0.01193287 -4.3404549e-07 0)
(0.011997046 4.1090909e-07 0)
(0.011937211 -3.8933198e-07 0)
(0.011992935 3.6923181e-07 0)
(0.011941113 -3.5052925e-07 0)
(0.011989232 3.3315873e-07 0)
(0.011944634 -3.1704668e-07 0)
(0.011985881 3.0214083e-07 0)
(0.011947829 -2.8837446e-07 0)
(0.011982832 2.757058e-07 0)
(0.011950745 -2.6407572e-07 0)
(0.011980039 2.5345076e-07 0)
(0.011953427 -2.4377985e-07 0)
(0.011977459 2.3503598e-07 0)
(0.011955916 -2.2717682e-07 0)
(0.011975053 2.2017959e-07 0)
(0.01195825 -2.1401094e-07 0)
(0.011972784 2.0866141e-07 0)
(0.011960464 -2.0405352e-07 0)
(0.011970613 2.0032116e-07 0)
(0.011962586 -1.9743562e-07 0)
(0.011968526 1.9300809e-07 0)
(0.011964857 -2.0309112e-07 0)
(0.011967578 1.846239e-07 0)
(0.013776162 0.0024728232 0)
(0.018809515 -2.3283535e-05 0)
(0.016155578 2.2667732e-05 0)
(0.016820553 5.1494338e-07 0)
(0.016304106 -1.0717536e-06 0)
(0.016697765 2.0969097e-06 0)
(0.016333072 -1.9282356e-06 0)
(0.01666871 1.8754072e-06 0)
(0.016356472 -1.786131e-06 0)
(0.01664908 1.6896138e-06 0)
(0.016374364 -1.5894901e-06 0)
(0.016632215 1.4992332e-06 0)
(0.016389981 -1.4100434e-06 0)
(0.016617408 1.3283461e-06 0)
(0.016403856 -1.2504307e-06 0)
(0.016604314 1.1778004e-06 0)
(0.016416178 -1.109442e-06 0)
(0.016592706 1.0453069e-06 0)
(0.016427122 -9.8521352e-07 0)
(0.016582399 9.2875024e-07 0)
(0.016436846 -8.7593063e-07 0)
(0.016573235 8.263204e-07 0)
(0.0164455 -7.7995135e-07 0)
(0.016565074 7.3644773e-07 0)
(0.016453212 -6.9582037e-07 0)
(0.016557791 6.577614e-07 0)
(0.016460102 -6.222584e-07 0)
(0.016551277 5.8906321e-07 0)
(0.016466273 -5.5814603e-07 0)
(0.016545432 5.2930769e-07 0)
(0.01647182 -5.025075e-07 0)
(0.016540167 4.7758558e-07 0)
(0.016476827 -4.5449582e-07 0)
(0.016535403 4.3310967e-07 0)
(0.016481369 -4.1337981e-07 0)
(0.016531068 3.9520262e-07 0)
(0.016485517 -3.7853274e-07 0)
(0.016527096 3.6328641e-07 0)
(0.016489332 -3.4942259e-07 0)
(0.016523425 3.3687322e-07 0)
(0.016492873 -3.2560385e-07 0)
(0.016520001 3.1555718e-07 0)
(0.016496194 -3.0670752e-07 0)
(0.016516772 2.99022e-07 0)
(0.016499346 -2.9238654e-07 0)
(0.016513681 2.8705856e-07 0)
(0.016502369 -2.828326e-07 0)
(0.016510695 2.7598409e-07 0)
(0.016505555 -2.9463858e-07 0)
(0.016509151 2.6366852e-07 0)
(0.017593271 0.0031223784 0)
(0.023620373 -2.9084755e-05 0)
(0.020486612 3.5431821e-05 0)
(0.021320082 3.0909214e-07 0)
(0.020658105 -1.0374518e-06 0)
(0.021172778 2.644294e-06 0)
(0.020698001 -2.4413318e-06 0)
(0.02113634 2.3819071e-06 0)
(0.020728767 -2.2813241e-06 0)
(0.02111091 2.1592487e-06 0)
(0.020752143 -2.031422e-06 0)
(0.021088913 1.9169501e-06 0)
(0.020772546 -1.8025292e-06 0)
(0.021069579 1.6983197e-06 0)
(0.020790669 -1.5986095e-06 0)
(0.02105248 1.5057736e-06 0)
(0.020806764 -1.4183931e-06 0)
(0.021037319 1.3363633e-06 0)
(0.020821056 -1.2595739e-06 0)
(0.021023858 1.1873445e-06 0)
(0.020833757 -1.1198537e-06 0)
(0.02101189 1.05639e-06 0)
(0.020845058 -9.9713977e-07 0)
(0.021001231 9.4148921e-07 0)
(0.020855131 -8.8957292e-07 0)
(0.02099172 8.4088877e-07 0)
(0.020864128 -7.9551807e-07 0)
(0.020983212 7.5305669e-07 0)
(0.020872188 -7.1354412e-07 0)
(0.020975579 6.7665644e-07 0)
(0.020879432 -6.4240347e-07 0)
(0.020968703 6.1052559e-07 0)
(0.020885971 -5.8101311e-07 0)
(0.020962482 5.5365766e-07 0)
(0.020891903 -5.28438e-07 0)
(0.020956821 5.0518649e-07 0)
(0.020897319 -4.8387649e-07 0)
(0.020951633 4.6437273e-07 0)
(0.020902301 -4.4664782e-07 0)
(0.02094684 4.3059202e-07 0)
(0.020906925 -4.1618147e-07 0)
(0.020942369 4.0332378e-07 0)
(0.020911263 -3.9200344e-07 0)
(0.020938151 3.8216362e-07 0)
(0.020915379 -3.7364692e-07 0)
(0.020934114 3.6687667e-07 0)
(0.020919328 -3.6134779e-07 0)
(0.020930204 3.5205408e-07 0)
(0.020923442 -3.8104778e-07 0)
(0.020927968 3.3610128e-07 0)
(0.021054675 0.0035971407 0)
(0.028160389 -6.081707e-05 0)
(0.02469749 4.9373008e-05 0)
(0.025692701 3.3432639e-08 0)
(0.024886493 -8.4597182e-07 0)
(0.025525843 3.1152707e-06 0)
(0.024938823 -2.9034981e-06 0)
(0.025482354 2.8368196e-06 0)
(0.024977194 -2.7354083e-06 0)
(0.025451055 2.5898448e-06 0)
(0.02500619 -2.4368327e-06 0)
(0.025423813 2.3005459e-06 0)
(0.025031496 -2.1627609e-06 0)
(0.025399844 2.0380078e-06 0)
(0.025053972 -1.9182351e-06 0)
(0.025378641 1.8068661e-06 0)
(0.02507393 -1.7020249e-06 0)
(0.025359842 1.603555e-06 0)
(0.025091651 -1.5114531e-06 0)
(0.025343151 1.4247332e-06 0)
(0.025107399 -1.3437891e-06 0)
(0.02532831 1.267592e-06 0)
(0.025121412 -1.1965291e-06 0)
(0.025315094 1.1297145e-06 0)
(0.025133901 -1.0674445e-06 0)
(0.025303301 1.0089957e-06 0)
(0.025145057 -9.5457367e-07 0)
(0.025292752 9.0359722e-07 0)
(0.02515505 -8.5619942e-07 0)
(0.025283288 8.1191533e-07 0)
(0.025164031 -7.7082456e-07 0)
(0.025274764 7.3255521e-07 0)
(0.025172137 -6.9714933e-07 0)
(0.025267052 6.6430903e-07 0)
(0.025179491 -6.3405138e-07 0)
(0.025260033 6.061372e-07 0)
(0.025186204 -5.805683e-07 0)
(0.025253603 5.5715206e-07 0)
(0.02519238 -5.3588243e-07 0)
(0.025247663 5.1660343e-07 0)
(0.025198111 -4.9930788e-07 0)
(0.025242121 4.8386443e-07 0)
(0.025203485 -4.7027305e-07 0)
(0.025236895 4.5844887e-07 0)
(0.025208586 -4.481893e-07 0)
(0.025231894 4.4011576e-07 0)
(0.02521348 -4.3330571e-07 0)
(0.02522704 4.2159527e-07 0)
(0.025218529 -4.6219363e-07 0)
(0.025224032 4.0189168e-07 0)
(0.02470325 0.0041256175 0)
(0.032526773 -6.9382231e-05 0)
(0.028790328 6.4748641e-05 0)
(0.029935972 -3.6680439e-07 0)
(0.028989383 -5.5234188e-07 0)
(0.029756569 3.5042316e-06 0)
(0.029055976 -3.3219993e-06 0)
(0.029706378 3.2431015e-06 0)
(0.029102116 -3.1521821e-06 0)
(0.029669176 2.9845291e-06 0)
(0.029136823 -2.8087549e-06 0)
(0.029636614 2.6527962e-06 0)
(0.029167114 -2.493378e-06 0)
(0.029607936 2.3498781e-06 0)
(0.029194012 -2.2116398e-06 0)
(0.029582564 2.0832705e-06 0)
(0.029217895 -1.9624054e-06 0)
(0.029560069 1.8488299e-06 0)
(0.029239101 -1.7426877e-06 0)
(0.029540095 1.6426479e-06 0)
(0.029257945 -1.5493701e-06 0)
(0.029522336 1.4614679e-06 0)
(0.029274712 -1.3795747e-06 0)
(0.029506521 1.3024984e-06 0)
(0.029289656 -1.2307345e-06 0)
(0.02949241 1.1633112e-06 0)
(0.029303005 -1.1005884e-06 0)
(0.029479788 1.0417866e-06 0)
(0.029314961 -9.8715659e-07 0)
(0.029468464 9.3607577e-07 0)
(0.029325706 -8.8871278e-07 0)
(0.029458266 8.4457049e-07 0)
(0.029335404 -8.037581e-07 0)
(0.02944904 7.6587807e-07 0)
(0.029344201 -7.3099809e-07 0)
(0.029440644 6.9879956e-07 0)
(0.029352231 -6.6932253e-07 0)
(0.029432953 6.4231088e-07 0)
(0.029359617 -6.1778772e-07 0)
(0.029425848 5.955459e-07 0)
(0.029366471 -5.7560117e-07 0)
(0.029419222 5.5777894e-07 0)
(0.029372898 -5.4210022e-07 0)
(0.029412972 5.2844716e-07 0)
(0.029378996 -5.1657273e-07 0)
(0.029406994 5.0732074e-07 0)
(0.029384847 -4.992406e-07 0)
(0.029401186 4.8519154e-07 0)
(0.029390834 -5.3819673e-07 0)
(0.029397339 4.6138606e-07 0)
(0.028170212 0.0045491398 0)
(0.036610251 -0.00011147456 0)
(0.032767599 7.9362745e-05 0)
(0.034048347 -5.3282846e-07 0)
(0.032966617 -1.6146389e-07 0)
(0.03386464 3.8043024e-06 0)
(0.033049881 -3.6991955e-06 0)
(0.033808099 3.6011067e-06 0)
(0.033103858 -3.5324054e-06 0)
(0.033764978 3.3437001e-06 0)
(0.033144323 -3.1476283e-06 0)
(0.033727053 2.9740468e-06 0)
(0.033179646 -2.7947274e-06 0)
(0.033693625 2.634245e-06 0)
(0.033211009 -2.4791238e-06 0)
(0.033664045 2.3352691e-06 0)
(0.033238853 -2.1997998e-06 0)
(0.033637818 2.0724399e-06 0)
(0.033263575 -1.9535136e-06 0)
(0.033614531 1.8413133e-06 0)
(0.033285544 -1.7368069e-06 0)
(0.033593827 1.6382183e-06 0)
(0.033305091 -1.5464644e-06 0)
(0.03357539 1.4600202e-06 0)
(0.033322512 -1.3796114e-06 0)
(0.033558939 1.3039962e-06 0)
(0.033338073 -1.2337141e-06 0)
(0.033544225 1.1677701e-06 0)
(0.03335201 -1.1065531e-06 0)
(0.033531025 1.0492695e-06 0)
(0.033364535 -9.9619332e-07 0)
(0.033519138 9.4669174e-07 0)
(0.033375838 -9.0095419e-07 0)
(0.033508383 8.5847546e-07 0)
(0.033386091 -8.1938428e-07 0)
(0.033498599 7.8327634e-07 0)
(0.03339545 -7.5023839e-07 0)
(0.033489635 7.1994574e-07 0)
(0.033404056 -6.9245751e-07 0)
(0.033481357 6.6751133e-07 0)
(0.033412042 -6.4515134e-07 0)
(0.033473637 6.2515626e-07 0)
(0.033419529 -6.0757295e-07 0)
(0.033466357 5.922461e-07 0)
(0.033426633 -5.7888668e-07 0)
(0.033459395 5.6857858e-07 0)
(0.033433448 -5.5924529e-07 0)
(0.033452626 5.4298056e-07 0)
(0.033440372 -6.0882259e-07 0)
(0.033447886 5.1462303e-07 0)
(0.031617896 0.0049147336 0)
(0.040538816 -0.00012361938 0)
(0.036632945 9.4797372e-05 0)
(0.038028655 -1.0010574e-06 0)
(0.036818191 1.6376023e-07 0)
(0.037849795 3.9825635e-06 0)
(0.036920904 -4.0388261e-06 0)
(0.037787251 3.9103186e-06 0)
(0.036982708 -3.8756751e-06 0)
(0.037738203 3.6670445e-06 0)
(0.037028937 -3.4530474e-06 0)
(0.0376949 3.2639195e-06 0)
(0.037069309 -3.0664475e-06 0)
(0.037656705 2.8907673e-06 0)
(0.037105152 -2.7203646e-06 0)
(0.037622903 2.5625609e-06 0)
(0.037136972 -2.4139213e-06 0)
(0.037592932 2.2741185e-06 0)
(0.037165223 -2.143676e-06 0)
(0.03756632 2.0204927e-06 0)
(0.037190326 -1.9058737e-06 0)
(0.03754266 1.7976327e-06 0)
(0.037212662 -1.6969978e-06 0)
(0.037521591 1.602093e-06 0)
(0.037232569 -1.5138972e-06 0)
(0.037502793 1.4308843e-06 0)
(0.037250349 -1.3537921e-06 0)
(0.03748598 1.2813993e-06 0)
(0.037266274 -1.2142476e-06 0)
(0.037470897 1.151364e-06 0)
(0.037280585 -1.0931398e-06 0)
(0.037457315 1.0388002e-06 0)
(0.037293499 -9.8862437e-07 0)
(0.037445028 9.4199448e-07 0)
(0.037305212 -8.9910814e-07 0)
(0.03743385 8.5947138e-07 0)
(0.037315903 -8.2322396e-07 0)
(0.037423611 7.8996962e-07 0)
(0.037325734 -7.5980854e-07 0)
(0.037414155 7.3242072e-07 0)
(0.037334855 -7.0788272e-07 0)
(0.037405338 6.8592454e-07 0)
(0.037343405 -6.6662248e-07 0)
(0.037397025 6.4978034e-07 0)
(0.037351516 -6.3507058e-07 0)
(0.037389077 6.2382881e-07 0)
(0.037359297 -6.1327021e-07 0)
(0.037381349 5.9494857e-07 0)
(0.037367155 -6.7374029e-07 0)
(0.037375671 5.615821e-07 0)
(0.03519103 0.0053266654 0)
(0.044189194 -0.00017060544 0)
(0.040378511 0.00010891559 0)
(0.041880434 -1.6783453e-06 0)
(0.040545261 3.4503281e-07 0)
(0.04171178 4.0037608e-06 0)
(0.040669327 -4.3491349e-06 0)
(0.041643568 4.1689017e-06 0)
(0.040738914 -4.1824522e-06 0)
(0.041588618 3.9542721e-06 0)
(0.040790886 -3.7249025e-06 0)
(0.041539948 3.5222257e-06 0)
(0.040836299 -3.3083866e-06 0)
(0.041496996 3.1192903e-06 0)
(0.040876615 -2.9352195e-06 0)
(0.041458978 2.765012e-06 0)
(0.040912403 -2.6046419e-06 0)
(0.041425268 2.4537475e-06 0)
(0.040944176 -2.3130612e-06 0)
(0.041395337 2.1800814e-06 0)
(0.040972409 -2.0564693e-06 0)
(0.041368726 1.9396183e-06 0)
(0.040997529 -1.8310851e-06 0)
(0.04134503 1.7286339e-06 0)
(0.041019917 -1.6335121e-06 0)
(0.041323888 1.5439018e-06 0)
(0.041039914 -1.4607518e-06 0)
(0.041304979 1.3826086e-06 0)
(0.041057823 -1.310177e-06 0)
(0.041288016 1.2423005e-06 0)
(0.041073916 -1.179496e-06 0)
(0.041272743 1.1208433e-06 0)
(0.041088438 -1.0667184e-06 0)
(0.041258926 1.0163882e-06 0)
(0.041101609 -9.7012465e-07 0)
(0.041246357 9.2734243e-07 0)
(0.04111363 -8.8823879e-07 0)
(0.041234844 8.5234448e-07 0)
(0.041124682 -8.1980434e-07 0)
(0.041224214 7.9023973e-07 0)
(0.041134936 -7.6376246e-07 0)
(0.041214302 7.4005287e-07 0)
(0.041144546 -7.1921939e-07 0)
(0.041204959 7.0102233e-07 0)
(0.041153662 -6.8510002e-07 0)
(0.041196028 6.7304552e-07 0)
(0.041162407 -6.613007e-07 0)
(0.041187343 6.4110528e-07 0)
(0.041171191 -7.3268469e-07 0)
(0.041180694 6.0231226e-07 0)
(0.038395938 0.0055179566 0)
(0.047705683 -0.00018952727 0)
(0.043994664 0.00012299491 0)
(0.045608853 -1.5818963e-06 0)
(0.044151811 6.159098e-07 0)
(0.045450849 3.9341332e-06 0)
(0.044295541 -4.6148287e-06 0)
(0.045376843 4.3814547e-06 0)
(0.044372707 -4.4518845e-06 0)
(0.045316014 4.2058552e-06 0)
(0.044430368 -3.9632495e-06 0)
(0.04526201 3.7490952e-06 0)
(0.04448079 -3.5206438e-06 0)
(0.04521433 3.3199116e-06 0)
(0.044525551 -3.1237785e-06 0)
(0.045172124 2.9427092e-06 0)
(0.044565282 -2.7720408e-06 0)
(0.045134699 2.6114041e-06 0)
(0.044600556 -2.4617393e-06 0)
(0.045101469 2.3201479e-06 0)
(0.044631899 -2.1886563e-06 0)
(0.045071925 2.0642358e-06 0)
(0.044659786 -1.9487822e-06 0)
(0.045045618 1.8396974e-06 0)
(0.04468464 -1.738506e-06 0)
(0.045022146 1.6430973e-06 0)
(0.044706838 -1.554638e-06 0)
(0.045001155 1.4714414e-06 0)
(0.044726718 -1.394382e-06 0)
(0.044982325 1.3221185e-06 0)
(0.044744583 -1.2552989e-06 0)
(0.04496537 1.192857e-06 0)
(0.044760702 -1.13527e-06 0)
(0.044950033 1.0816892e-06 0)
(0.044775322 -1.0324648e-06 0)
(0.044936082 9.8691973e-07 0)
(0.044788664 -9.4531173e-07 0)
(0.044923304 9.0709851e-07 0)
(0.044800931 -8.7247208e-07 0)
(0.044911506 8.409951e-07 0)
(0.044812309 -8.1281656e-07 0)
(0.044900507 7.8756718e-07 0)
(0.044822973 -7.6538924e-07 0)
(0.04489014 7.4599787e-07 0)
(0.044833087 -7.2900235e-07 0)
(0.044880234 7.1625319e-07 0)
(0.044842789 -7.0337252e-07 0)
(0.0448706 6.8150222e-07 0)
(0.044852488 -7.8546958e-07 0)
(0.044862956 6.369331e-07 0)
(0.042093378 0.0059275447 0)
(0.050984214 -0.00023574798 0)
(0.047479043 0.00013355283 0)
(0.049212786 -1.4448107e-06 0)
(0.047639203 8.1651843e-07 0)
(0.049066836 3.7459814e-06 0)
(0.0477998 -4.844736e-06 0)
(0.048986874 4.5470637e-06 0)
(0.047884292 -4.684796e-06 0)
(0.0489202 4.4220448e-06 0)
(0.047947563 -4.1684358e-06 0)
(0.048860919 3.9447902e-06 0)
(0.048002941 -3.7034884e-06 0)
(0.048808561 3.4928734e-06 0)
(0.048052101 -3.2862736e-06 0)
(0.04876221 3.0958702e-06 0)
(0.048095734 -2.9163222e-06 0)
(0.048721108 2.7472823e-06 0)
(0.048134471 -2.5898911e-06 0)
(0.048684613 2.4408646e-06 0)
(0.048168891 -2.3025953e-06 0)
(0.048652168 2.1716386e-06 0)
(0.048199516 -2.0502321e-06 0)
(0.048623276 1.9354199e-06 0)
(0.048226809 -1.829007e-06 0)
(0.0485975 1.7285929e-06 0)
(0.048251186 -1.6355652e-06 0)
(0.048574448 1.5480073e-06 0)
(0.048273017 -1.4669654e-06 0)
(0.048553769 1.3909162e-06 0)
(0.048292634 -1.3206411e-06 0)
(0.048535151 1.2549301e-06 0)
(0.048310335 -1.1943633e-06 0)
(0.04851831 1.1379783e-06 0)
(0.048326387 -1.0862053e-06 0)
(0.048502991 1.038277e-06 0)
(0.048341037 -9.9451316e-07 0)
(0.048488961 9.5429969e-07 0)
(0.048354504 -9.1787704e-07 0)
(0.048476008 8.8475018e-07 0)
(0.048366996 -8.5510634e-07 0)
(0.048463934 8.2852743e-07 0)
(0.048378702 -8.0519059e-07 0)
(0.048452554 7.8476484e-07 0)
(0.048389804 -7.6683603e-07 0)
(0.048441683 7.5350685e-07 0)
(0.048400452 -7.3955216e-07 0)
(0.048431113 7.162156e-07 0)
(0.048411054 -8.3196804e-07 0)
(0.048422457 6.6561101e-07 0)
(0.045039431 0.0059569787 0)
(0.054147272 -0.00025856521 0)
(0.050839927 0.00014240096 0)
(0.052690333 -1.9379069e-06 0)
(0.051007316 8.1740663e-07 0)
(0.052559582 3.4358021e-06 0)
(0.051182293 -5.0420269e-06 0)
(0.052473491 4.6666985e-06 0)
(0.051273861 -4.8814311e-06 0)
(0.052401013 4.603492e-06 0)
(0.051342635 -4.3408224e-06 0)
(0.052336524 4.1097342e-06 0)
(0.051402895 -3.8572815e-06 0)
(0.052279554 3.6385304e-06 0)
(0.051456389 -3.4230314e-06 0)
(0.052229117 3.2248071e-06 0)
(0.051503868 -3.0377766e-06 0)
(0.052184391 2.8616585e-06 0)
(0.051546018 -2.6977747e-06 0)
(0.05214468 2.5424768e-06 0)
(0.051583471 -2.3985158e-06 0)
(0.052109373 2.2620448e-06 0)
(0.051616794 -2.1356393e-06 0)
(0.052077935 2.0159958e-06 0)
(0.051646491 -1.9051974e-06 0)
(0.052049887 1.8005618e-06 0)
(0.051673016 -1.7036967e-06 0)
(0.052024803 1.6124614e-06 0)
(0.05169677 -1.5280736e-06 0)
(0.052002303 1.4488332e-06 0)
(0.051718114 -1.3756546e-06 0)
(0.051982045 1.3071882e-06 0)
(0.051737372 -1.2441174e-06 0)
(0.051963721 1.1853694e-06 0)
(0.051754838 -1.1314546e-06 0)
(0.051947054 1.0815182e-06 0)
(0.051770775 -1.0359425e-06 0)
(0.051931791 9.9404368e-07 0)
(0.051785427 -9.5611109e-07 0)
(0.051917699 9.2159385e-07 0)
(0.051799016 -8.9071768e-07 0)
(0.051904565 8.6301728e-07 0)
(0.051811749 -8.3870494e-07 0)
(0.051892187 8.1740341e-07 0)
(0.051823823 -7.9868105e-07 0)
(0.051880365 7.8488273e-07 0)
(0.051835405 -7.6992712e-07 0)
(0.051868875 7.4533793e-07 0)
(0.051846893 -8.7210112e-07 0)
(0.051859197 6.8854514e-07 0)
(0.048814755 0.0063456911 0)
(0.057119064 -0.00029948382 0)
(0.054074895 0.00014964761 0)
(0.056043882 -2.1042084e-06 0)
(0.054256224 7.9879964e-07 0)
(0.055929108 3.0616207e-06 0)
(0.054443221 -5.1959359e-06 0)
(0.05583653 4.744e-06 0)
(0.054541576 -5.0417296e-06 0)
(0.055758297 4.7509567e-06 0)
(0.054615727 -4.480919e-06 0)
(0.055688689 4.2444326e-06 0)
(0.054680778 -3.9824969e-06 0)
(0.055627191 3.7573262e-06 0)
(0.054738528 -3.534471e-06 0)
(0.055572741 3.3299145e-06 0)
(0.054789782 -3.1367743e-06 0)
(0.055524457 2.9548833e-06 0)
(0.054835284 -2.7857186e-06 0)
(0.055481586 2.625296e-06 0)
(0.054875715 -2.4767097e-06 0)
(0.05544347 2.3357314e-06 0)
(0.054911687 -2.2052637e-06 0)
(0.055409531 2.0816718e-06 0)
(0.054943746 -1.967309e-06 0)
(0.055379252 1.8592244e-06 0)
(0.054972379 -1.7592398e-06 0)
(0.055352174 1.6650007e-06 0)
(0.05499802 -1.5778926e-06 0)
(0.055327885 1.4960463e-06 0)
(0.055021061 -1.4205066e-06 0)
(0.055306016 1.3497908e-06 0)
(0.055041849 -1.2846835e-06 0)
(0.055286237 1.2240069e-06 0)
(0.055060702 -1.1683501e-06 0)
(0.055268246 1.116775e-06 0)
(0.055077905 -1.0697254e-06 0)
(0.055251771 1.0264514e-06 0)
(0.055093719 -9.8729027e-07 0)
(0.055236561 9.516382e-07 0)
(0.055108385 -9.1975881e-07 0)
(0.055222385 8.9114196e-07 0)
(0.055122127 -8.6603462e-07 0)
(0.055209027 8.4401397e-07 0)
(0.055135157 -8.2463689e-07 0)
(0.055196272 8.1047622e-07 0)
(0.055147655 -7.9460356e-07 0)
(0.05518388 7.6897665e-07 0)
(0.055160011 -9.058334e-07 0)
(0.055173178 7.0595974e-07 0)
(0.051576858 0.0062748729 0)
(0.059979574 -0.00032796904 0)
(0.057187386 0.00015430914 0)
(0.059274311 -2.4144408e-06 0)
(0.057385553 6.6078607e-07 0)
(0.059175276 2.615006e-06 0)
(0.057582701 -5.309673e-06 0)
(0.059075826 4.7792638e-06 0)
(0.057687575 -5.1663808e-06 0)
(0.058991915 4.8652086e-06 0)
(0.057766968 -4.5893337e-06 0)
(0.058917294 4.3495051e-06 0)
(0.057836704 -4.0796921e-06 0)
(0.058851363 3.8497983e-06 0)
(0.057898618 -3.6210914e-06 0)
(0.058792988 3.4116671e-06 0)
(0.057953567 -3.213759e-06 0)
(0.058741222 3.0273771e-06 0)
(0.058002348 -2.8541168e-06 0)
(0.058695258 2.6896955e-06 0)
(0.058045692 -2.5375275e-06 0)
(0.058654395 2.3930304e-06 0)
(0.058084256 -2.2594172e-06 0)
(0.058618008 2.1327435e-06 0)
(0.058118625 -2.0156202e-06 0)
(0.058585546 1.9048446e-06 0)
(0.058149321 -1.8024432e-06 0)
(0.058556516 1.7058615e-06 0)
(0.05817681 -1.6166453e-06 0)
(0.058530476 1.5327674e-06 0)
(0.05820151 -1.4553978e-06 0)
(0.058507032 1.3829289e-06 0)
(0.058223795 -1.316243e-06 0)
(0.058485828 1.2540638e-06 0)
(0.058244005 -1.1970564e-06 0)
(0.058466541 1.1442049e-06 0)
(0.058262446 -1.0960124e-06 0)
(0.05844888 1.0516673e-06 0)
(0.058279398 -1.0115533e-06 0)
(0.058432577 9.7501713e-07 0)
(0.058295119 -9.4235899e-07 0)
(0.058417382 9.1302695e-07 0)
(0.058309848 -8.8730157e-07 0)
(0.058403065 8.6471594e-07 0)
(0.058323812 -8.4482137e-07 0)
(0.058389397 8.3040085e-07 0)
(0.058337207 -8.1370494e-07 0)
(0.058376124 7.8725347e-07 0)
(0.05835041 -9.3316947e-07 0)
(0.058364402 7.1809809e-07 0)
(0.055255552 0.006564392 0)
(0.062697586 -0.00036380904 0)
(0.060180395 0.00015672348 0)
(0.06238441 -2.8141623e-06 0)
(0.060394679 4.4290825e-07 0)
(0.062298007 2.1137018e-06 0)
(0.060600894 -5.3776761e-06 0)
(0.062191253 4.7751652e-06 0)
(0.060711992 -5.2556774e-06 0)
(0.062101745 4.9471892e-06 0)
(0.060796472 -4.6667738e-06 0)
(0.06202223 4.4256487e-06 0)
(0.060870775 -4.1495165e-06 0)
(0.061951976 3.91656e-06 0)
(0.060936749 -3.6834688e-06 0)
(0.061889773 3.4706087e-06 0)
(0.060995299 -3.2692415e-06 0)
(0.061834611 3.079623e-06 0)
(0.061047277 -2.9034226e-06 0)
(0.061785633 2.7361042e-06 0)
(0.061093463 -2.5813719e-06 0)
(0.061742089 2.4343231e-06 0)
(0.061134554 -2.2984586e-06 0)
(0.061703316 2.1695506e-06 0)
(0.061171175 -2.0504508e-06 0)
(0.061668725 1.9377254e-06 0)
(0.061203883 -1.8335928e-06 0)
(0.061637791 1.7353149e-06 0)
(0.061233173 -1.644588e-06 0)
(0.061610044 1.5592401e-06 0)
(0.061259492 -1.4805586e-06 0)
(0.061585064 1.4068219e-06 0)
(0.061283237 -1.3390041e-06 0)
(0.06156247 1.2757387e-06 0)
(0.061304771 -1.2177626e-06 0)
(0.06154192 1.1639888e-06 0)
(0.061324419 -1.1149765e-06 0)
(0.061523103 1.0698575e-06 0)
(0.061342481 -1.0290596e-06 0)
(0.061505732 9.9188428e-07 0)
(0.06135923 -9.5866651e-07 0)
(0.061489544 9.2881613e-07 0)
(0.061374922 -9.0264553e-07 0)
(0.061474291 8.7964602e-07 0)
(0.061389797 -8.5936893e-07 0)
(0.061459733 8.4478657e-07 0)
(0.061404067 -8.2737016e-07 0)
(0.061445602 8.0030325e-07 0)
(0.061418095 -9.5415036e-07 0)
(0.061432869 7.2521694e-07 0)
(0.058055639 0.006464199 0)
(0.065323803 -0.00039075262 0)
(0.063053375 0.00015629724 0)
(0.065376981 -3.3532389e-06 0)
(0.063283279 1.5202759e-07 0)
(0.065297236 1.5558015e-06 0)
(0.063497914 -5.3992012e-06 0)
(0.065182683 4.7327758e-06 0)
(0.063614936 -5.3103719e-06 0)
(0.065087678 4.9978488e-06 0)
(0.063704339 -4.7140372e-06 0)
(0.065003402 4.4736431e-06 0)
(0.06378308 -4.1926906e-06 0)
(0.064928947 3.9582968e-06 0)
(0.063852998 -3.7222448e-06 0)
(0.064863022 3.5073466e-06 0)
(0.063915049 -3.303791e-06 0)
(0.06480456 3.1121594e-06 0)
(0.063970134 -2.9341417e-06 0)
(0.064752652 2.7650003e-06 0)
(0.06401908 -2.6086926e-06 0)
(0.064706503 2.4600347e-06 0)
(0.064062628 -2.3227881e-06 0)
(0.06466541 2.1924719e-06 0)
(0.064101439 -2.0721578e-06 0)
(0.064628751 1.9582049e-06 0)
(0.064136101 -1.8530077e-06 0)
(0.064595966 1.7536634e-06 0)
(0.064167142 -1.6620066e-06 0)
(0.06456656 1.5757356e-06 0)
(0.064195034 -1.4962461e-06 0)
(0.064540086 1.4217143e-06 0)
(0.064220198 -1.3531989e-06 0)
(0.064516142 1.2892529e-06 0)
(0.064243019 -1.2306797e-06 0)
(0.064494364 1.1763283e-06 0)
(0.064263841 -1.1268104e-06 0)
(0.064474422 1.0812068e-06 0)
(0.064282981 -1.0399868e-06 0)
(0.064456014 1.0024109e-06 0)
(0.06430073 -9.6884663e-07 0)
(0.06443886 9.3866972e-07 0)
(0.064317358 -9.1222211e-07 0)
(0.064422697 8.8895629e-07 0)
(0.064333119 -8.6842886e-07 0)
(0.064407275 8.5377807e-07 0)
(0.06434824 -8.3575173e-07 0)
(0.064392311 8.0827271e-07 0)
(0.064363068 -9.6884996e-07 0)
(0.064378581 7.2758161e-07 0)
(0.061640775 0.0066338832 0)
(0.067844047 -0.00042112697 0)
(0.065805183 0.00015440364 0)
(0.068255357 -4.115423e-06 0)
(0.066051324 -1.892745e-07 0)
(0.068172964 9.3148142e-07 0)
(0.066273906 -5.3753494e-06 0)
(0.068050018 4.6527112e-06 0)
(0.066396508 -5.3316126e-06 0)
(0.067949617 5.0180714e-06 0)
(0.06649066 -4.7320565e-06 0)
(0.067860725 4.4943128e-06 0)
(0.066573697 -4.2100109e-06 0)
(0.067782199 3.9757526e-06 0)
(0.066647436 -3.7381208e-06 0)
(0.06771267 3.5225423e-06 0)
(0.066712877 -3.3180293e-06 0)
(0.067651011 3.1255734e-06 0)
(0.066770973 -2.9468261e-06 0)
(0.067596264 2.7769054e-06 0)
(0.066822593 -2.6199803e-06 0)
(0.067547591 2.4706291e-06 0)
(0.06686852 -2.3328425e-06 0)
(0.067504252 2.2019206e-06 0)
(0.066909451 -2.0811306e-06 0)
(0.067465588 1.9666519e-06 0)
(0.066946008 -1.8610361e-06 0)
(0.067431012 1.7612369e-06 0)
(0.066978745 -1.6692133e-06 0)
(0.067399998 1.5825502e-06 0)
(0.06700816 -1.5027411e-06 0)
(0.067372077 1.4278729e-06 0)
(0.067034699 -1.3590809e-06 0)
(0.067346824 1.2948481e-06 0)
(0.067058766 -1.2360377e-06 0)
(0.067323856 1.1814435e-06 0)
(0.067080725 -1.1317243e-06 0)
(0.067302825 1.0859173e-06 0)
(0.067100911 -1.0445285e-06 0)
(0.067283412 1.0067837e-06 0)
(0.067119628 -9.7307966e-07 0)
(0.067265321 9.4276249e-07 0)
(0.067137163 -9.16201e-07 0)
(0.067248278 8.9281251e-07 0)
(0.067153783 -8.7216364e-07 0)
(0.067232017 8.5753314e-07 0)
(0.067169728 -8.3901409e-07 0)
(0.067216248 8.1131919e-07 0)
(0.067185331 -9.7737173e-07 0)
(0.067201539 7.2546194e-07 0)
(0.064486196 0.0065082154 0)
(0.070283494 -0.00044298821 0)
(0.068437945 0.00014968448 0)
(0.07101556 -4.8803287e-06 0)
(0.068699358 -4.8678624e-07 0)
(0.070925008 2.6452755e-07 0)
(0.068928966 -5.2966008e-06 0)
(0.070793139 4.5391558e-06 0)
(0.069056779 -5.3194849e-06 0)
(0.070687469 5.0091588e-06 0)
(0.069155506 -4.7217275e-06 0)
(0.070594123 4.4885704e-06 0)
(0.069242694 -4.2023268e-06 0)
(0.070511668 3.9697257e-06 0)
(0.069320124 -3.7318515e-06 0)
(0.070438659 3.516905e-06 0)
(0.069388839 -3.3126246e-06 0)
(0.070373913 3.1204952e-06 0)
(0.06944984 -2.9420685e-06 0)
(0.070316425 2.7723793e-06 0)
(0.069504042 -2.6157618e-06 0)
(0.070265316 2.4666043e-06 0)
(0.069552266 -2.3290908e-06 0)
(0.070219807 2.1983401e-06 0)
(0.069595245 -2.0777877e-06 0)
(0.070179208 1.9634623e-06 0)
(0.06963363 -1.8580517e-06 0)
(0.070142901 1.7583897e-06 0)
(0.069668005 -1.666543e-06 0)
(0.070110335 1.5800019e-06 0)
(0.069698891 -1.5003448e-06 0)
(0.070081017 1.4255843e-06 0)
(0.069726758 -1.3569225e-06 0)
(0.0700545 1.2927837e-06 0)
(0.069752028 -1.2340839e-06 0)
(0.070030383 1.1795707e-06 0)
(0.069775086 -1.1299445e-06 0)
(0.0700083 1.0842056e-06 0)
(0.069796281 -1.0428931e-06 0)
(0.069987916 1.0052035e-06 0)
(0.069815934 -9.7155929e-07 0)
(0.069968921 9.412821e-07 0)
(0.069834345 -9.1476443e-07 0)
(0.069951027 8.9139258e-07 0)
(0.069851794 -8.7074742e-07 0)
(0.069933956 8.5622127e-07 0)
(0.069868535 -8.3733208e-07 0)
(0.069917411 8.096095e-07 0)
(0.069884885 -9.7984576e-07 0)
(0.069901747 7.1912886e-07 0)
(0.067894088 0.006564496 0)
(0.072632459 -0.00046649428 0)
(0.070960732 0.00014341154 0)
(0.073651027 -5.5664757e-06 0)
(0.071227869 -6.7521756e-07 0)
(0.073552919 -4.2893406e-07 0)
(0.071463149 -5.1556398e-06 0)
(0.073411937 4.3958521e-06 0)