/*--------------------------------*- C++ -*----------------------------------*\
| =========                 |                                                 |
| \\      /  F ield         | OpenFOAM: The Open Source CFD Toolbox           |
|  \\    /   O peration     | Version:  2312                                  |
|   \\  /    A nd           | Website:  www.openfoam.com                      |
|    \\/     M anipulation  |                                                 |
\*---------------------------------------------------------------------------*/
FoamFile
{
    version     2.0;
    format      ascii;
    arch        "LSB;label=32;scalar=64";
    class       surfaceScalarField;
    location    "8";
    object      phi;
}
// * * * * * * * * * * * * * * * * * * * * * * * * * * * * * * * * * * * * * //

dimensions      [0 3 -1 0 0 0 0];

oriented        oriented;

internalField   nonuniform List<scalar> 
7870
(
1.3276647e-10
2.8154835e-09
1.3369691e-10
-9.3044479e-13
1.1284445e-10
2.0852455e-11
1.1393334e-10
-1.0888956e-12
1.1434987e-10
-4.1653192e-13
1.1287349e-10
1.4763759e-12
1.1380303e-10
-9.2953589e-13
1.1264978e-10
1.1532515e-12
1.1369338e-10
-1.0435977e-12
1.1267095e-10
1.022431e-12
1.1363052e-10
-9.5957171e-13
1.1271705e-10
9.1346328e-13
1.1357582e-10
-8.5876887e-13
1.127634e-10
8.1242562e-13
1.1352809e-10
-7.6469615e-13
1.128062e-10
7.218907e-13
1.1348643e-10
-6.8022531e-13
1.1284459e-10
6.4183795e-13
1.1344987e-10
-6.0528096e-13
1.1287862e-10
5.7124957e-13
1.1341774e-10
-5.391229e-13
1.1290862e-10
5.0912245e-13
1.1338953e-10
-4.8091295e-13
1.1293497e-10
4.5456411e-13
1.1336481e-10
-4.2984471e-13
1.1295803e-10
4.0677748e-13
1.1334321e-10
-3.8517635e-13
1.1297816e-10
3.6505062e-13
1.133244e-10
-3.4624049e-13
1.1299565e-10
3.2875227e-13
1.1330809e-10
-3.1244615e-13
1.1301077e-10
2.9732839e-13
1.1329404e-10
-2.8327675e-13
1.1302374e-10
2.7029795e-13
1.1328203e-10
-2.5828599e-13
1.1303478e-10
2.4724782e-13
1.1327188e-10
-2.3709263e-13
1.1304405e-10
2.2782717e-13
1.1326342e-10
-2.1937493e-13
1.1305168e-10
2.1174181e-13
1.1325655e-10
-2.0486542e-13
1.130578e-10
1.9874981e-13
1.1325114e-10
-1.9334229e-13
1.1306247e-10
1.8866817e-13
1.1324709e-10
-1.846161e-13
1.1306579e-10
1.8129201e-13
1.1324484e-10
-1.7904532e-13
1.1307037e-10
1.7446842e-13
1.1325281e-10
-1.8243724e-13
1.6776554e-13
3.5325269e-10
5.4104808e-09
3.81012e-10
-2.8689763e-11
3.3012064e-10
7.17438e-11
3.3076131e-10
-1.7295662e-12
3.3095508e-10
-6.1030565e-13
3.2855978e-10
3.8716717e-12
3.2949128e-10
-1.8610363e-12
3.2780819e-10
2.8363424e-12
3.2926271e-10
-2.4981189e-12
3.2779414e-10
2.491004e-12
3.2916968e-10
-2.3351115e-12
3.2785092e-10
2.2322278e-12
3.2908787e-10
-2.0957265e-12
3.2791441e-10
1.9858919e-12
3.2901726e-10
-1.8675472e-12
3.2797514e-10
1.7640109e-12
3.2895648e-10
-1.6615754e-12
3.2803025e-10
1.5680686e-12
3.2890354e-10
-1.4785675e-12
3.2807931e-10
1.3954735e-12
3.2885715e-10
-1.3169563e-12
3.2812262e-10
1.2436495e-12
3.2881646e-10
-1.1747548e-12
3.2816067e-10
1.1103582e-12
3.2878083e-10
-1.0500041e-12
3.2819398e-10
9.9362608e-13
3.2874969e-10
-9.408902e-13
3.2822304e-10
8.917011e-13
3.2872258e-10
-8.4577876e-13
3.282483e-10
8.0303491e-13
3.2869907e-10
-7.632234e-13
3.2827013e-10
7.2627136e-13
3.2867881e-10
-6.9196098e-13
3.2828888e-10
6.6023463e-13
3.2866149e-10
-6.3090115e-13
3.2830482e-10
6.0391569e-13
3.2864684e-10
-5.7911296e-13
3.2831821e-10
5.5645803e-13
3.2863465e-10
-5.3581086e-13
3.2832925e-10
5.1714322e-13
3.2862472e-10
-5.0034183e-13
3.2833809e-10
4.853794e-13
3.2861691e-10
-4.7216128e-13
3.2834485e-10
4.6073055e-13
3.28611e-10
-4.5076106e-13
3.2834953e-10
4.4275349e-13
3.2860763e-10
-4.3714072e-13
3.2835728e-10
4.2481775e-13
3.2862747e-10
-4.5262724e-13
4.0855894e-13
5.5872448e-10
7.8000063e-09
6.1599303e-10
-8.5958319e-11
5.4136027e-10
1.4637655e-10
5.42173e-10
-2.5422981e-12
5.4160337e-10
-4.0676303e-14
5.3896907e-10
6.5059703e-12
5.3931539e-10
-2.2073598e-12
5.3771947e-10
4.4322609e-12
5.3902705e-10
-3.8056903e-12
5.3765284e-10
3.8652055e-12
5.3894039e-10
-3.6226587e-12
5.3769408e-10
3.4785379e-12
5.388598e-10
-3.2614452e-12
5.3774964e-10
3.0960455e-12
5.3879085e-10
-2.9087507e-12
5.3780567e-10
2.7491848e-12
5.3873259e-10
-2.5884943e-12
5.3785739e-10
2.4432694e-12
5.3868231e-10
-2.3034943e-12
5.3790367e-10
2.1741114e-12
5.3863844e-10
-2.0517197e-12
5.379446e-10
1.9374854e-12
5.3860002e-10
-1.8301743e-12
5.3798057e-10
1.7298043e-12
5.3856639e-10
-1.6358236e-12
5.3801207e-10
1.5479483e-12
5.3853702e-10
-1.4658372e-12
5.3803955e-10
1.3891662e-12
5.3851143e-10
-1.3176624e-12
5.3806343e-10
1.2510354e-12
5.3848925e-10
-1.1890415e-12
5.3808408e-10
1.1314388e-12
5.3847013e-10
-1.0780052e-12
5.3810182e-10
1.0285439e-12
5.3845377e-10
-9.8285472e-13
5.3811691e-10
9.4077932e-13
5.3843994e-10
-9.0214064e-13
5.3812958e-10
8.6681153e-13
5.3842841e-10
-8.3463978e-13
5.3814003e-10
8.0552143e-13
5.3841903e-10
-7.7933496e-13
5.3814842e-10
7.5598499e-13
5.3841163e-10
-7.3537176e-13
5.3815482e-10
7.1753959e-13
5.3840594e-10
-7.018812e-13
5.3815913e-10
6.895675e-13
5.3840267e-10
-6.8067985e-13
5.3816824e-10
6.5924499e-13
5.3843279e-10
-7.1717689e-13
6.3457793e-13
7.6998409e-10
9.9782722e-09
8.399583e-10
-1.5593254e-10
7.4644577e-10
2.3988907e-10
7.4784024e-10
-3.9367751e-12
7.4663351e-10
1.1660492e-12
7.4375843e-10
9.3810512e-12
7.435853e-10
-2.0342325e-12
7.4209469e-10
5.9228706e-12
7.4326149e-10
-4.9724926e-12
7.4198935e-10
5.1373456e-12
7.431871e-10
-4.8204011e-12
7.4201741e-10
4.6482218e-12
7.4310883e-10
-4.3528689e-12
7.4206542e-10
4.1394554e-12
7.4304196e-10
-3.8852932e-12
7.421167e-10
3.6744496e-12
7.4298647e-10
-3.4582628e-12
7.4216487e-10
3.2648684e-12
7.4293902e-10
-3.0776532e-12
7.4220822e-10
2.9049133e-12
7.4289779e-10
-2.7412861e-12
7.4224662e-10
2.5886489e-12
7.4286174e-10
-2.4452892e-12
7.4228039e-10
2.3111483e-12
7.428302e-10
-2.185631e-12
7.4230997e-10
2.0681831e-12
7.4280265e-10
-1.9585253e-12
7.4233577e-10
1.8560498e-12
7.4277866e-10
-1.7605542e-12
7.423582e-10
1.6714991e-12
7.4275785e-10
-1.5886967e-12
7.4237759e-10
1.5116983e-12
7.4273991e-10
-1.4403205e-12
7.4239425e-10
1.3741986e-12
7.4272456e-10
-1.313157e-12
7.4240843e-10
1.2569017e-12
7.4271156e-10
-1.2052709e-12
7.4242035e-10
1.1580276e-12
7.4270074e-10
-1.1150288e-12
7.4243018e-10
1.0760808e-12
7.4269191e-10
-1.0410713e-12
7.4243807e-10
1.0098227e-12
7.4268495e-10
-9.8224806e-13
7.424441e-10
9.5838662e-13
7.4267951e-10
-9.3728729e-13
7.4244802e-10
9.2105938e-13
7.4267619e-10
-9.088514e-13
7.4245784e-10
8.7759251e-13
7.4271414e-10
-9.7347224e-13
8.4576293e-13
9.4560189e-10
1.198092e-08
1.0534147e-09
-2.637454e-10
9.4583216e-10
3.4747165e-10
9.4784934e-10
-5.9539641e-12
9.4602065e-10
2.9947305e-12
9.429112e-10
1.2490504e-11
9.4229661e-10
-1.4196391e-12
9.4093386e-10
7.2856217e-12
9.4196589e-10
-6.0045244e-12
9.4080326e-10
6.2999753e-12
9.4190957e-10
-5.9267084e-12
9.4082044e-10
5.7373467e-12
9.4183475e-10
-5.3671746e-12
9.4086132e-10
5.112884e-12
9.417704e-10
-4.7943821e-12
9.4090783e-10
4.5370228e-12
9.4171793e-10
-4.2683637e-12
9.4095234e-10
4.0304571e-12
9.416735e-10
-3.7988181e-12
9.4099264e-10
3.5857757e-12
9.4163505e-10
-3.3836916e-12
9.410284e-10
3.1952901e-12
9.4160148e-10
-3.018363e-12
9.4105987e-10
2.8527537e-12
9.4157213e-10
-2.6978854e-12
9.4108743e-10
2.552876e-12
9.4154649e-10
-2.4175818e-12
9.4111149e-10
2.2910536e-12
9.4152416e-10
-2.1732264e-12
9.4113239e-10
2.0632631e-12
9.4150478e-10
-1.9610872e-12
9.4115048e-10
1.8660044e-12
9.4148807e-10
-1.7779152e-12
9.4116601e-10
1.6962557e-12
9.4147377e-10
-1.6209121e-12
9.4117924e-10
1.5514296e-12
9.4146166e-10
-1.4876914e-12
9.4119036e-10
1.4293307e-12
9.4145157e-10
-1.3762376e-12
9.4119954e-10
1.3281126e-12
9.4144334e-10
-1.2848722e-12
9.4120692e-10
1.2462407e-12
9.4143683e-10
-1.212164e-12
9.4121256e-10
1.1826636e-12
9.4143167e-10
-1.1564016e-12
9.4121607e-10
1.1366586e-12
9.4142826e-10
-1.1210386e-12
9.4122619e-10
1.0796656e-12
9.4147201e-10
-1.2192928e-12
1.0406687e-12
1.1488469e-09
1.3780323e-08
1.256123e-09
-3.7102148e-10
1.1389497e-09
4.646449e-10
1.1422277e-09
-9.2319729e-12
1.1397413e-09
5.4810775e-12
1.1364271e-09
1.5804733e-11
1.1354493e-09
-4.4184144e-13
1.1342388e-09
8.4961773e-12
1.1351415e-09
-6.9073139e-12
1.1340946e-09
7.3469513e-12
1.1351084e-09
-6.9405676e-12
1.1341029e-09
6.7428269e-12
1.135038e-09
-6.3021982e-12
1.1341371e-09
6.0137711e-12
1.1349765e-09
-5.6338324e-12
1.1341788e-09
5.3347166e-12
1.1349273e-09
-5.0168257e-12
1.1342196e-09
4.7381518e-12
1.134886e-09
-4.4652476e-12
1.1342568e-09
4.2150577e-12
1.1348505e-09
-3.9774008e-12
1.1342898e-09
3.7559664e-12
1.1348195e-09
-3.5480378e-12
1.1343189e-09
3.3533439e-12
1.1347924e-09
-3.1713803e-12
1.1343443e-09
3.0008905e-12
1.1347687e-09
-2.8419302e-12
1.1343666e-09
2.6931618e-12
1.1347481e-09
-2.5547155e-12
1.1343859e-09
2.4254162e-12
1.1347302e-09
-2.3053479e-12
1.1344026e-09
2.1935377e-12
1.1347147e-09
-2.0900102e-12
1.134417e-09
1.9939765e-12
1.1347015e-09
-1.9054167e-12
1.1344293e-09
1.8236948e-12
1.1346903e-09
-1.7487648e-12
1.1344396e-09
1.6801142e-12
1.134681e-09
-1.6176868e-12
1.134448e-09
1.5610641e-12
1.1346734e-09
-1.5102082e-12
1.1344549e-09
1.4647325e-12
1.1346674e-09
-1.424634e-12
1.1344601e-09
1.3899014e-12
1.1346625e-09
-1.3587833e-12
1.1344632e-09
1.3359279e-12
1.134659e-09
-1.3167915e-12
1.1344733e-09
1.2653461e-12
1.1347068e-09
-1.4527382e-12
1.218099e-12
1.2975771e-09
1.5430996e-08
1.4473521e-09
-5.2079655e-10
1.3266414e-09
5.8535564e-10
1.3308984e-09
-1.3489023e-11
1.3277385e-09
8.6410115e-12
1.324299e-09
1.924418e-11
1.3230374e-09
8.1979094e-13
1.3220082e-09
9.525441e-12
1.3227885e-09
-7.6876491e-12
1.3218626e-09
8.2727945e-12
1.322784e-09
-7.8619331e-12
1.3218645e-09
7.6623153e-12
1.3227189e-09
-7.1565357e-12
1.3218924e-09
6.8402397e-12
1.3226607e-09
-6.4021181e-12
1.3219294e-09
6.0659609e-12
1.3226149e-09
-5.7022595e-12
1.3219664e-09
5.3866163e-12
1.3225769e-09
-5.0757138e-12
1.3220003e-09
4.7916006e-12
1.3225442e-09
-4.5213304e-12
1.3220306e-09
4.26966e-12
1.3225159e-09
-4.0333537e-12
1.3220572e-09
3.8120161e-12
1.3224911e-09
-3.605261e-12
1.3220805e-09
3.4114212e-12
1.3224694e-09
-3.2308058e-12
1.3221009e-09
3.0616523e-12
1.3224505e-09
-2.9043348e-12
1.3221187e-09
2.7573091e-12
1.3224342e-09
-2.6208605e-12
1.322134e-09
2.4937128e-12
1.32242e-09
-2.3760479e-12
1.3221472e-09
2.2668321e-12
1.3224079e-09
-2.1661665e-12
1.3221584e-09
2.0732184e-12
1.3223977e-09
-1.9880343e-12
1.3221678e-09
1.9099435e-12
1.3223891e-09
-1.8389609e-12
1.3221756e-09
1.7745391e-12
1.3223821e-09
-1.7167e-12
1.3221819e-09
1.6649359e-12
1.3223766e-09
-1.619311e-12
1.3221867e-09
1.5797653e-12
1.3223721e-09
-1.5441224e-12
1.3221895e-09
1.5185544e-12
1.3223685e-09
-1.4958077e-12
1.3221992e-09
1.4345883e-12
1.3224187e-09
-1.6722104e-12
1.3773965e-12
1.4866344e-09
1.6892612e-08
1.6289931e-09
-6.6315531e-10
1.507931e-09
7.0641779e-10
1.5136609e-09
-1.9218906e-11
1.5100636e-09
1.2238273e-11
1.5065585e-09
2.2749248e-11
1.5050753e-09
2.3030577e-12
1.5042483e-09
1.0352413e-11
1.50491e-09
-8.34935e-12
1.5041082e-09
9.0745729e-12
1.5049371e-09
-8.6908373e-12
1.504105e-09
8.4944248e-12
1.5048778e-09
-7.9293221e-12
1.504127e-09
7.5910652e-12
1.5048231e-09
-7.0982724e-12
1.5041593e-09
6.7297379e-12
1.5047809e-09
-6.323783e-12
1.5041925e-09
5.9749957e-12
1.5047462e-09
-5.629437e-12
1.5042231e-09
5.3146672e-12
1.5047166e-09
-5.0147916e-12
1.5042505e-09
4.7357231e-12
1.5046909e-09
-4.4736983e-12
1.5042747e-09
4.2281941e-12
1.5046684e-09
-3.9989793e-12
1.5042959e-09
3.7839511e-12
1.5046488e-09
-3.5837159e-12
1.5043144e-09
3.3960594e-12
1.5046317e-09
-3.2216398e-12
1.5043305e-09
3.0585213e-12
1.5046168e-09
-2.9072239e-12
1.5043444e-09
2.7661496e-12
1.504604e-09
-2.6356656e-12
1.5043564e-09
2.5144787e-12
1.504593e-09
-2.4028335e-12
1.5043666e-09
2.299689e-12
1.5045837e-09
-2.2052026e-12
1.5043752e-09
2.1185361e-12
1.504576e-09
-2.03979e-12
1.5043822e-09
1.9682809e-12
1.5045696e-09
-1.9041019e-12
1.504388e-09
1.8466171e-12
1.5045646e-09
-1.7959719e-12
1.5043923e-09
1.7520406e-12
1.5045604e-09
-1.7122249e-12
1.5043947e-09
1.6843353e-12
1.5045568e-09
-1.6579108e-12
1.5044039e-09
1.5874115e-12
1.5046081e-09
-1.8763766e-12
1.5183166e-12
1.6200181e-09
1.8220844e-08
1.7987358e-09
-8.4187303e-10
1.6836618e-09
8.2149181e-10
1.6894546e-09
-2.5011703e-11
1.6865156e-09
1.5177289e-11
1.6831727e-09
2.6092071e-11
1.681556e-09
3.9197445e-12
1.6809574e-09
1.0951029e-11
1.6815062e-09
-8.8981443e-12
1.6808309e-09
9.7499445e-12
1.681568e-09
-9.4280106e-12
1.6808241e-09
9.2383499e-12
1.681515e-09
-8.6202617e-12
1.6808406e-09
8.2655522e-12
1.6814641e-09
-7.7218333e-12
1.6808683e-09
7.3255033e-12
1.6814255e-09
-6.8809583e-12
1.6808977e-09
6.502852e-12
1.6813943e-09
-6.1260269e-12
1.680925e-09
5.7838857e-12
1.6813677e-09
-5.4574374e-12
1.6809496e-09
5.1538286e-12
1.6813446e-09
-4.8687602e-12
1.6809712e-09
4.6015844e-12
1.6813245e-09
-4.3522535e-12
1.6809903e-09
4.1182143e-12
1.6813069e-09
-3.9004043e-12
1.6810069e-09
3.6961411e-12
1.6812916e-09
-3.5063979e-12
1.6810213e-09
3.3288326e-12
1.6812783e-09
-3.1642264e-12
1.6810338e-09
3.0106481e-12
1.6812668e-09
-2.8686716e-12
1.6810446e-09
2.7367352e-12
1.681257e-09
-2.6152444e-12
1.6810537e-09
2.5029429e-12
1.6812486e-09
-2.4001131e-12
1.6810614e-09
2.3057439e-12
1.6812417e-09
-2.2200329e-12
1.6810678e-09
2.1421561e-12
1.681236e-09
-2.072287e-12
1.6810729e-09
2.0096567e-12
1.6812315e-09
-1.9545034e-12
1.6810769e-09
1.9066198e-12
1.6812277e-09
-1.8630001e-12
1.6810788e-09
1.8331673e-12
1.6812239e-09
-1.8030341e-12
1.6810875e-09
1.723895e-12
1.6812752e-09
-2.0641407e-12
1.6409043e-12
1.796327e-09
1.9372767e-08
1.9625226e-09
-1.0080686e-09
1.8535237e-09
9.3049071e-10
1.857737e-09
-2.9225033e-11
1.8569421e-09
1.5972135e-11
1.8541345e-09
2.8899704e-11
1.8524829e-09
5.5713855e-12
1.8521383e-09
1.1295648e-11
1.852579e-09
-9.3389359e-12
1.852031e-09
1.0298036e-11
1.8526773e-09
-1.0074363e-11
1.8520217e-09
9.8939774e-12
1.8526309e-09
-9.2294893e-12
1.8520329e-09
8.8635108e-12
1.8525839e-09
-8.2727756e-12
1.8520562e-09
7.8531413e-12
1.852549e-09
-7.3737404e-12
1.8520818e-09
6.9701183e-12
1.8525212e-09
-6.5654384e-12
1.8521058e-09
6.1992081e-12
1.8524976e-09
-5.8492237e-12
1.8521275e-09
5.5239341e-12
1.8524773e-09
-5.2184951e-12
1.8521467e-09
4.932145e-12
1.8524595e-09
-4.6650384e-12
1.8521635e-09
4.414168e-12
1.852444e-09
-4.1808257e-12
1.8521782e-09
3.9618547e-12
1.8524304e-09
-3.7585647e-12
1.852191e-09
3.5682017e-12
1.8524186e-09
-3.3918265e-12
1.8522021e-09
3.2271697e-12
1.8524085e-09
-3.0750277e-12
1.8522116e-09
2.9335662e-12
1.8523998e-09
-2.8033649e-12
1.8522198e-09
2.6829489e-12
1.8523924e-09
-2.5727363e-12
1.8522266e-09
2.4715406e-12
1.8523862e-09
-2.3796649e-12
1.8522322e-09
2.2961431e-12
1.8523812e-09
-2.2212356e-12
1.8522368e-09
2.1540387e-12
1.8523772e-09
-2.0948923e-12
1.8522403e-09
2.0434925e-12
1.8523738e-09
-1.9964507e-12
1.8522419e-09
1.9650369e-12
1.8523701e-09
-1.9312087e-12
1.8522498e-09
1.8441752e-12
1.8524203e-09
-2.2346211e-12
1.7454259e-12
1.9216872e-09
2.039933e-08
2.1136036e-09
-1.199985e-09
2.0175902e-09
1.026504e-09
2.0200342e-09
-3.166902e-11
2.0215366e-09
1.4469739e-11
2.0194971e-09
3.0939239e-11
2.0178728e-09
7.1956633e-12
2.0177956e-09
1.1372841e-11
2.0181306e-09
-9.6738988e-12
2.0177089e-09
1.0719704e-11
2.0182655e-09
-1.063092e-11
2.0176976e-09
1.0461808e-11
2.0182257e-09
-9.7575261e-12
2.017704e-09
9.3852052e-12
2.0181827e-09
-8.7514621e-12
2.0177229e-09
8.3129204e-12
2.0181516e-09
-7.8024329e-12
2.0177446e-09
7.3770586e-12
2.0181271e-09
-6.9479333e-12
2.0177654e-09
6.5608748e-12
2.0181066e-09
-6.1903762e-12
2.0177843e-09
5.8462506e-12
2.0180889e-09
-5.5230968e-12
2.017801e-09
5.2200579e-12
2.0180734e-09
-4.9375007e-12
2.0178156e-09
4.6719692e-12
2.0180599e-09
-4.4251242e-12
2.0178284e-09
4.1933365e-12
2.0180481e-09
-3.9782661e-12
2.0178396e-09
3.7767481e-12
2.0180379e-09
-3.5901353e-12
2.0178493e-09
3.4158209e-12
2.0180291e-09
-3.2548339e-12
2.0178576e-09
3.1050684e-12
2.0180215e-09
-2.9672866e-12
2.0178646e-09
2.8397959e-12
2.0180151e-09
-2.7231571e-12
2.0178706e-09
2.616009e-12
2.0180097e-09
-2.5187663e-12
2.0178755e-09
2.4303212e-12
2.0180053e-09
-2.3510253e-12
2.0178795e-09
2.2798407e-12
2.0180018e-09
-2.2172156e-12
2.0178826e-09
2.1627361e-12
2.0179988e-09
-2.1126641e-12
2.0178838e-09
2.080013e-12
2.0179952e-09
-2.0425516e-12
2.0178909e-09
1.9484426e-12
2.0180434e-09
-2.3871325e-12
1.8323234e-12
2.0810391e-09
2.1266541e-08
2.2585485e-09
-1.3774944e-09
2.1750136e-09
1.1100389e-09
2.1777466e-09
-3.440209e-11
2.1804307e-09
1.1785672e-11
2.1793016e-09
3.2068317e-11
2.177737e-09
8.7602376e-12
2.177932e-09
1.1177906e-11
2.1781614e-09
-9.9033334e-12
2.1778644e-09
1.1016737e-11
2.1783326e-09
-1.1099111e-11
2.1778517e-09
1.0942704e-11
2.1782995e-09
-1.0205329e-11
2.1778534e-09
9.83126e-12
2.1782606e-09
-9.1586211e-12
2.1778681e-09
8.7054417e-12
2.1782333e-09
-8.167653e-12
2.1778861e-09
7.7242294e-12
2.1782122e-09
-7.2740462e-12
2.1779037e-09
6.8693826e-12
2.1781947e-09
-6.4813605e-12
2.1779197e-09
6.1212146e-12
2.1781796e-09
-5.7829716e-12
2.1779339e-09
5.465706e-12
2.1781664e-09
-5.1699962e-12
2.1779465e-09
4.8919541e-12
2.1781549e-09
-4.6336132e-12
2.1779574e-09
4.3908834e-12
2.1781449e-09
-4.1657801e-12
2.1779669e-09
3.9547364e-12
2.1781362e-09
-3.7594018e-12
2.1779752e-09
3.5768393e-12
2.1781287e-09
-3.4083149e-12
2.1779823e-09
3.2514569e-12
2.1781222e-09
-3.107214e-12
2.1779883e-09
2.9736807e-12
2.1781167e-09
-2.8515638e-12
2.1779934e-09
2.7393314e-12
2.1781121e-09
-2.6375123e-12
2.1779976e-09
2.5448608e-12
2.1781084e-09
-2.4618214e-12
2.178001e-09
2.3872252e-12
2.1781054e-09
-2.3216322e-12
2.1780037e-09
2.2645079e-12
2.1781028e-09
-2.2118038e-12
2.1780046e-09
2.178239e-12
2.1780993e-09
-2.1372563e-12
2.1780108e-09
2.0369379e-12
2.1781448e-09
-2.5211691e-12
1.9021777e-12
2.2010095e-09
2.2013781e-08
2.3909836e-09
-1.5674685e-09
2.3269944e-09
1.1740281e-09
2.3310574e-09
-3.8465107e-11
2.3337116e-09
9.131404e-12
2.3335843e-09
3.2195622e-11
2.3320858e-09
1.0258779e-11
2.3325496e-09
1.07141e-11
2.3326722e-09
-1.0025944e-11
2.3324971e-09
1.1191901e-11
2.3328786e-09
-1.148069e-11
2.3324835e-09
1.1337832e-11
2.3328524e-09
-1.0574261e-11
2.3324811e-09
1.02026e-11
2.3328178e-09
-9.495316e-12
2.3324916e-09
9.0315921e-12
2.3327943e-09
-8.4702985e-12
2.3325061e-09
8.0124423e-12
2.3327766e-09
-7.5445541e-12
2.3325205e-09
7.1254535e-12
2.332762e-09
-6.722855e-12
2.3325337e-09
6.3494627e-12
2.3327495e-09
-5.998715e-12
2.3325455e-09
5.6696498e-12
2.3327386e-09
-5.3630497e-12
2.3325559e-09
5.0746184e-12
2.3327291e-09
-4.8067577e-12
2.332565e-09
4.5549361e-12
2.3327208e-09
-4.3215214e-12
2.3325729e-09
4.1025606e-12
2.3327135e-09
-3.8999982e-12
2.3325798e-09
3.7105794e-12
2.3327073e-09
-3.5358072e-12
2.3325857e-09
3.3730534e-12
2.3327019e-09
-3.2234536e-12
2.3325907e-09
3.0848973e-12
2.3326974e-09
-2.9582378e-12
2.3325949e-09
2.8417787e-12
2.3326936e-09
-2.7361638e-12
2.3325984e-09
2.6400143e-12
2.3326905e-09
-2.5538684e-12
2.3326013e-09
2.4764306e-12
2.332688e-09
-2.4083745e-12
2.3326035e-09
2.3490366e-12
2.3326858e-09
-2.2941018e-12
2.3326041e-09
2.2599259e-12
2.3326824e-09
-2.2155834e-12
2.3326094e-09
2.1099485e-12
2.3327246e-09
-2.6363883e-12
1.9556755e-12
2.3498402e-09
2.2612191e-08
2.5206423e-09
-1.7382705e-09
2.4731994e-09
1.221471e-09
2.4791426e-09
-4.4408371e-11
2.4814607e-09
6.8132891e-12
2.4823465e-09
3.1309821e-11
2.4809229e-09
1.1682386e-11
2.4816513e-09
9.9857638e-12
2.4816651e-09
-1.003973e-11
2.4816077e-09
1.12493e-11
2.4819042e-09
-1.177723e-11
2.4815931e-09
1.1648894e-11
2.4818848e-09
-1.0865899e-11
2.4815869e-09
1.0500484e-11
2.4818544e-09
-9.76287e-12
2.4815935e-09
9.292525e-12
2.4818347e-09
-8.7115058e-12
2.4816044e-09
8.2427369e-12
2.4818203e-09
-7.7604453e-12
2.4816158e-09
7.3300091e-12
2.4818086e-09
-6.9157259e-12
2.4816263e-09
6.5318086e-12
2.4817986e-09
-6.1710895e-12
2.4816357e-09
5.8326086e-12
2.48179e-09
-5.5173359e-12
2.481644e-09
5.2206001e-12
2.4817824e-09
-4.9451578e-12
2.4816513e-09
4.6860632e-12
2.4817758e-09
-4.4460267e-12
2.4816576e-09
4.2207304e-12
2.48177e-09
-4.012407e-12
2.4816631e-09
3.8175012e-12
2.481765e-09
-3.6377471e-12
2.4816678e-09
3.4702749e-12
2.4817608e-09
-3.3164029e-12
2.4816718e-09
3.1738266e-12
2.4817571e-09
-3.0435434e-12
2.4816752e-09
2.9237016e-12
2.4817541e-09
-2.8150578e-12
2.481678e-09
2.7161079e-12
2.4817516e-09
-2.6274813e-12
2.4816803e-09
2.5477639e-12
2.4817497e-09
-2.4777412e-12
2.4816821e-09
2.4166152e-12
2.4817478e-09
-2.3598516e-12
2.4816824e-09
2.3253451e-12
2.4817447e-09
-2.2778529e-12
2.4816868e-09
2.1678045e-12
2.481783e-09
-2.7325962e-12
1.9935812e-12
2.4686301e-09
2.3091811e-08
2.6409664e-09
-1.9106068e-09
2.6141463e-09
1.2482911e-09
2.6212144e-09
-5.1476401e-11
2.6237854e-09
4.242271e-12
2.6255862e-09
2.9508974e-11
2.6242503e-09
1.3018277e-11
2.6252394e-09
8.9966698e-12
2.625142e-09
-9.942261e-12
2.6251971e-09
1.1194167e-11
2.6254099e-09
-1.199003e-11
2.6251807e-09
1.1878132e-11
2.6253967e-09
-1.1081962e-11
2.6251707e-09
1.0726486e-11
2.6253707e-09
-9.9628217e-12
2.6251736e-09
9.4896308e-12
2.6253547e-09
-8.8926185e-12
2.625181e-09
8.4163517e-12
2.6253435e-09
-7.9228941e-12
2.6251894e-09
7.4841462e-12
2.6253346e-09
-7.0610048e-12
2.6251972e-09
6.6692221e-12
2.6253271e-09
-6.3010061e-12
2.6252043e-09
5.9554418e-12
2.6253206e-09
-5.6336631e-12
2.6252106e-09
5.3306636e-12
2.6253149e-09
-5.0495341e-12
2.6252161e-09
4.7849478e-12
2.62531e-09
-4.5399412e-12
2.6252208e-09
4.3098589e-12
2.6253056e-09
-4.097209e-12
2.625225e-09
3.8981575e-12
2.6253019e-09
-3.7146604e-12
2.6252286e-09
3.5436233e-12
2.6252987e-09
-3.3865402e-12
2.6252316e-09
3.240927e-12
2.625296e-09
-3.1079195e-12
2.6252341e-09
2.9855219e-12
2.6252937e-09
-2.8745998e-12
2.6252363e-09
2.7735332e-12
2.6252918e-09
-2.6830388e-12
2.625238e-09
2.6015929e-12
2.6252903e-09
-2.5300898e-12
2.6252394e-09
2.4675943e-12
2.6252889e-09
-2.4094016e-12
2.6252394e-09
2.3748231e-12
2.625286e-09
-2.3244365e-12
2.6252429e-09
2.2108749e-12
2.6253201e-09
-2.8097344e-12
2.0167135e-12
2.6090046e-09
2.3431056e-08
2.7615942e-09
-2.0631964e-09
2.749867e-09
1.2600182e-09
2.7569196e-09
-5.8528971e-11
2.7607559e-09
4.0595459e-13
2.7632986e-09
2.6966277e-11
2.7620732e-09
1.4243706e-11
2.7633158e-09
7.7540266e-12
2.7631045e-09
-9.7309318e-12
2.7632661e-09
1.1032563e-11
2.7633963e-09
-1.2120206e-11
2.7632462e-09
1.2028211e-11
2.7633885e-09
-1.1224284e-11
2.7632325e-09
1.0882463e-11
2.7633666e-09
-1.0096882e-11
2.7632317e-09
9.6245167e-12
2.7633542e-09
-9.0151521e-12
2.7632359e-09
8.5347047e-12
2.7633462e-09
-8.0332338e-12
2.7632413e-09
7.5891172e-12
2.7633401e-09
-7.1598678e-12
2.7632465e-09
6.7628113e-12
2.763335e-09
-6.3895064e-12
2.7632513e-09
6.0391329e-12
2.7633306e-09
-5.7129572e-12
2.7632556e-09
5.4056851e-12
2.7633268e-09
-5.1207132e-12
2.7632594e-09
4.8523737e-12
2.7633234e-09
-4.6040064e-12
2.7632626e-09
4.3706507e-12
2.7633205e-09
-4.1550722e-12
2.7632655e-09
3.9531845e-12
2.763318e-09
-3.7671519e-12
2.7632679e-09
3.5936759e-12
2.7633158e-09
-3.4344163e-12
2.76327e-09
3.2867256e-12
2.7633139e-09
-3.1518706e-12
2.7632717e-09
3.0277246e-12
2.7633124e-09
-2.9152562e-12
2.7632732e-09
2.8127401e-12
2.7633111e-09
-2.7209758e-12
2.7632744e-09
2.6383399e-12
2.7633101e-09
-2.5658306e-12
2.7632753e-09
2.5023757e-12
2.7633091e-09
-2.4431489e-12
2.7632752e-09
2.4087351e-12
2.7633065e-09
-2.3557512e-12
2.7632778e-09
2.2395638e-12
2.7633359e-09
-2.8678667e-12
2.0259251e-12
2.7270899e-09
2.3652216e-08
2.8743736e-09
-2.2104801e-09
2.8807494e-09
1.2536424e-09
2.8866851e-09
-6.4464693e-11
2.8923734e-09
-5.282406e-12
2.8954846e-09
2.3855104e-11
2.8943981e-09
1.5330212e-11
2.8958758e-09
6.2762991e-12
2.8955504e-09
-9.4054648e-12
2.895813e-09
1.0769936e-11
2.8958625e-09
-1.2169674e-11
2.8957891e-09
1.2101573e-11
2.89586e-09
-1.1295153e-11
2.8957721e-09
1.0970323e-11
2.8958423e-09
-1.0167017e-11
2.8957678e-09
9.6989191e-12
2.8958335e-09
-9.0808027e-12
2.8957688e-09
8.5993529e-12
2.8958286e-09
-8.0929461e-12
2.8957714e-09
7.646306e-12
2.8958251e-09
-7.2136207e-12
2.8957741e-09
6.8138047e-12
2.8958224e-09
-6.4377476e-12
2.8957767e-09
6.0847746e-12
2.89582e-09
-5.7562488e-12
2.8957791e-09
5.4466398e-12
2.895818e-09
-5.1596164e-12
2.8957811e-09
4.8892144e-12
2.8958162e-09
-4.6390489e-12
2.8957829e-09
4.4038909e-12
2.8958146e-09
-4.1867417e-12
2.8957845e-09
3.9832915e-12
2.8958132e-09
-3.7958961e-12
2.8957858e-09
3.6210767e-12
2.8958121e-09
-3.4606455e-12
2.895787e-09
3.3118106e-12
2.8958111e-09
-3.1759597e-12
2.8957879e-09
3.0508505e-12
2.8958102e-09
-2.9375467e-12
2.8957887e-09
2.8342303e-12
2.8958095e-09
-2.7417769e-12
2.8957894e-09
2.6584755e-12
2.895809e-09
-2.5854206e-12
2.89579e-09
2.5214066e-12
2.8958083e-09
-2.4615338e-12
2.8957896e-09
2.4275e-12
2.8958061e-09
-2.3722535e-12
2.8957913e-09
2.2543069e-12
2.8958306e-09
-2.907168e-12
2.0220865e-12
2.8604469e-09
2.3740019e-08
2.9877181e-09
-2.3377514e-09
3.0067316e-09
1.2346289e-09
3.0115128e-09
-6.9245896e-11
3.0187822e-09
-1.2551768e-11
3.0221948e-09
2.0442452e-11
3.0212604e-09
1.6264619e-11
3.0229232e-09
4.6135735e-12
3.0224822e-09
-8.9645253e-12
3.0228386e-09
1.0413554e-11
3.0228088e-09
-1.2139891e-11
3.0228094e-09
1.2101024e-11
3.0228112e-09
-1.1296972e-11
3.0227894e-09
1.0992149e-11
3.0227977e-09
-1.0175347e-11
3.0227819e-09
9.7147191e-12
3.0227925e-09
-9.0914065e-12
3.0227799e-09
8.6119825e-12
3.0227906e-09
-8.1036375e-12
3.0227796e-09
7.6572133e-12
3.0227897e-09
-7.2236814e-12
3.02278e-09
6.8235369e-12
3.0227892e-09
-6.4469884e-12
3.0227804e-09
6.0935558e-12
3.0227888e-09
-5.7646598e-12
3.0227809e-09
5.4545896e-12
3.0227885e-09
-5.1672474e-12
3.0227813e-09
4.8964216e-12
3.0227882e-09
-4.6459703e-12
3.0227817e-09
4.4104361e-12
3.022788e-09
-4.1930302e-12
3.022782e-09
3.9892523e-12
3.0227877e-09
-3.8016293e-12
3.0227823e-09
3.626528e-12
3.0227875e-09
-3.465898e-12
3.0227825e-09
3.3168235e-12
3.0227874e-09
-3.1808011e-12
3.0227827e-09
3.0554896e-12
3.0227872e-09
-2.9420387e-12
3.0227829e-09
2.8385512e-12
3.0227871e-09
-2.7459708e-12
3.0227831e-09
2.6625124e-12
3.022787e-09
-2.5893577e-12
3.0227832e-09
2.525174e-12
3.0227867e-09
-2.4650347e-12
3.0227827e-09
2.4315754e-12
3.0227848e-09
-2.3744339e-12
3.0227836e-09
2.2555681e-12
3.0228043e-09
-2.9279131e-12
2.0060716e-12
2.979025e-09
2.3709244e-08
3.09234e-09
-2.4510664e-09
3.1274273e-09
1.1995416e-09
3.1320628e-09
-7.3881461e-11
3.1400606e-09
-2.0549545e-11
3.1434664e-09
1.7036603e-11
3.1426932e-09
1.7037812e-11
3.1444587e-09
2.8481482e-12
3.1439025e-09
-8.4083744e-12
3.1443441e-09
9.9719997e-12
3.1442359e-09
-1.2031765e-11
3.1443072e-09
1.2029813e-11
3.1442423e-09
-1.1232151e-11
3.1442843e-09
1.0950228e-11
3.144233e-09
-1.0124097e-11
3.1442738e-09
9.6739391e-12
3.1442313e-09
-9.0489116e-12
3.1442689e-09
8.5743961e-12
3.1442323e-09
-8.0670206e-12
3.144266e-09
7.6234431e-12
3.1442339e-09
-7.1915651e-12
3.144264e-09
6.7934351e-12
3.1442356e-09
-6.4185759e-12
3.1442624e-09
6.0667492e-12
3.1442371e-09
-5.7393923e-12
3.144261e-09
5.4306725e-12
3.1442385e-09
-5.1446826e-12
3.1442599e-09
4.875016e-12
3.1442397e-09
-4.6257375e-12
3.1442589e-09
4.3912046e-12
3.1442407e-09
-4.1748099e-12
3.144258e-09
3.9718968e-12
3.1442415e-09
-3.7851412e-12
3.1442573e-09
3.6107837e-12
3.1442423e-09
-3.4508931e-12
3.1442566e-09
3.3024525e-12
3.1442429e-09
-3.1670539e-12
3.1442561e-09
3.0422749e-12
3.1442434e-09
-2.9293408e-12
3.1442557e-09
2.8262897e-12
3.1442438e-09
-2.7341249e-12
3.1442553e-09
2.6510008e-12
3.1442442e-09
-2.5781761e-12
3.1442551e-09
2.5142003e-12
3.1442443e-09
-2.4541635e-12
3.1442544e-09
2.4214531e-12
3.1442428e-09
-2.3628119e-12
3.1442545e-09
2.2438363e-12
3.144257e-09
-2.9304668e-12
1.978747e-12
3.1059439e-09
2.355155e-08
3.1973688e-09
-2.5424913e-09
3.2430404e-09
1.1538701e-09
3.2480558e-09
-7.8896886e-11
3.2560335e-09
-2.852727e-11
3.2592638e-09
1.380637e-11
3.2586911e-09
1.7610495e-11
3.260469e-09
1.0701972e-12
3.2598076e-09
-7.7469662e-12
3.2603282e-09
9.4514607e-12
3.2601434e-09
-1.1846976e-11
3.2602822e-09
1.1891011e-11
3.2601534e-09
-1.1103349e-11
3.2602567e-09
1.0846912e-11
3.2601482e-09
-1.001563e-11
3.2602434e-09
9.5786957e-12
3.2601499e-09
-8.9553763e-12
3.2602358e-09
8.4884901e-12
3.2601537e-09
-7.9849042e-12
3.2602305e-09
7.5466865e-12
3.2601578e-09
-7.1188733e-12
3.2602262e-09
6.7250071e-12
3.2601616e-09
-6.3539348e-12
3.2602226e-09
6.0057003e-12
3.2601649e-09
-5.6817183e-12
3.2602195e-09
5.3760924e-12
3.2601679e-09
-5.0930612e-12
3.2602168e-09
4.8260778e-12
3.2601705e-09
-4.5793742e-12
3.2602145e-09
4.347169e-12
3.2601727e-09
-4.133004e-12
3.2602125e-09
3.9321039e-12
3.2601746e-09
-3.7472686e-12
3.2602107e-09
3.5746417e-12
3.2601762e-09
-3.4163926e-12
3.2602093e-09
3.2694266e-12
3.2601776e-09
-3.1354162e-12
3.260208e-09
3.0118768e-12
3.2601788e-09
-2.9000978e-12
3.260207e-09
2.7980675e-12
3.2601797e-09
-2.7068399e-12
3.2602062e-09
2.6245232e-12
3.2601805e-09
-2.5524416e-12
3.2602056e-09
2.4890381e-12
3.2601809e-09
-2.4294611e-12
3.2602047e-09
2.3976552e-12
3.2601798e-09
-2.3379322e-12
3.2602041e-09
2.2196224e-12
3.2601889e-09
-2.9152748e-12
1.940962e-12
3.2242361e-09
2.3275564e-08
3.2945988e-09
-2.612854e-09
3.35351e-09
1.0949588e-09
3.359049e-09
-8.4435896e-11
3.366574e-09
-3.605225e-11
3.3695767e-09
1.0803634e-11
3.3692404e-09
1.7946808e-11
3.3709451e-09
-6.3451729e-13
3.370195e-09
-6.9968417e-12
3.3707905e-09
8.8559781e-12
3.3705311e-09
-1.1587551e-11
3.3707344e-09
1.1687686e-11
3.3705444e-09
-1.0913325e-11
3.3707066e-09
1.0684662e-11
3.3705434e-09
-9.8523935e-12
3.3706909e-09
9.4312085e-12
3.3705484e-09
-8.8129415e-12
3.3706807e-09
8.3562489e-12
3.3705549e-09
-7.8591756e-12
3.3706729e-09
7.4287128e-12
3.3705613e-09
-7.0072799e-12
3.3706665e-09
6.6198302e-12
3.3705671e-09
-6.254556e-12
3.370661e-09
5.9118182e-12
3.3705723e-09
-5.5929697e-12
3.3706562e-09
5.2921103e-12
3.3705767e-09
-5.0135769e-12
3.3706521e-09
4.7507385e-12
3.3705807e-09
-4.5079534e-12
3.3706485e-09
4.279348e-12
3.3705841e-09
-4.0685804e-12
3.3706454e-09
3.8707945e-12
3.370587e-09
-3.6888881e-12
3.3706427e-09
3.5189385e-12
3.3705895e-09
-3.363195e-12
3.3706404e-09
3.2185098e-12
3.3705916e-09
-3.0866198e-12
3.3706385e-09
2.9649981e-12
3.3705934e-09