/*--------------------------------*- C++ -*----------------------------------*\
| =========                 |                                                 |
| \\      /  F ield         | OpenFOAM: The Open Source CFD Toolbox           |
|  \\    /   O peration     | Version:  2312                                  |
|   \\  /    A nd           | Website:  www.openfoam.com                      |
|    \\/     M anipulation  |                                                 |
\*---------------------------------------------------------------------------*/
FoamFile
{
    version     2.0;
    format      ascii;
    arch        "LSB;label=32;scalar=64";
    class       surfaceScalarField;
    location    "8";
    object      phi_0;
}
// * * * * * * * * * * * * * * * * * * * * * * * * * * * * * * * * * * * * * //

dimensions      [0 3 -1 0 0 0 0];

oriented        oriented;

internalField   nonuniform List<scalar> 
7870
(
1.3027173e-10
2.8179783e-09
1.3357405e-10
-3.302317e-12
1.1283347e-10
2.074059e-11
1.1393e-10
-1.0965336e-12
1.1435034e-10
-4.203314e-13
1.1287236e-10
1.477983e-12
1.1380372e-10
-9.3136273e-13
1.1264917e-10
1.1545514e-12
1.1369396e-10
-1.0447924e-12
1.1267048e-10
1.0234854e-12
1.1363091e-10
-9.6043661e-13
1.1271674e-10
9.1417471e-13
1.1357607e-10
-8.5932687e-13
1.1276321e-10
8.1285096e-13
1.1352822e-10
-7.6500526e-13
1.1280612e-10
7.2210073e-13
1.1348647e-10
-6.8035372e-13
1.1284457e-10
6.4190007e-13
1.1344986e-10
-6.0529177e-13
1.1287864e-10
5.7122178e-13
1.1341771e-10
-5.3906798e-13
1.1290866e-10
5.0904986e-13
1.1338949e-10
-4.8083054e-13
1.1293501e-10
4.5447813e-13
1.1336477e-10
-4.2975984e-13
1.1295807e-10
4.066972e-13
1.1334318e-10
-3.851029e-13
1.1297819e-10
3.6498541e-13
1.1332437e-10
-3.461841e-13
1.1299567e-10
3.2870474e-13
1.1330808e-10
-3.1240712e-13
1.1301078e-10
2.9729716e-13
1.1329403e-10
-2.8325253e-13
1.1302375e-10
2.7027978e-13
1.1328203e-10
-2.58273e-13
1.1303479e-10
2.4723906e-13
1.1327187e-10
-2.3708732e-13
1.1304405e-10
2.2782454e-13
1.1326342e-10
-2.1937439e-13
1.1305168e-10
2.1174279e-13
1.1325655e-10
-2.0486752e-13
1.130578e-10
1.9875265e-13
1.1325114e-10
-1.9334562e-13
1.1306247e-10
1.8867178e-13
1.1324709e-10
-1.8461986e-13
1.1306579e-10
1.8129583e-13
1.1324484e-10
-1.7904915e-13
1.1307037e-10
1.744722e-13
1.1325281e-10
-1.8244115e-13
1.6776899e-13
3.5003466e-10
5.4161936e-09
3.8140449e-10
-3.4672134e-11
3.3018992e-10
7.1955172e-11
3.3075004e-10
-1.6566437e-12
3.3095475e-10
-6.2503853e-13
3.2855781e-10
3.8749311e-12
3.2949224e-10
-1.8657915e-12
3.2780737e-10
2.8394232e-12
3.2926357e-10
-2.5009934e-12
3.2779351e-10
2.4935396e-12
3.2917022e-10
-2.3371427e-12
3.278505e-10
2.2338881e-12
3.2908818e-10
-2.0970063e-12
3.2791418e-10
1.9868519e-12
3.290174e-10
-1.868228e-12
3.2797505e-10
1.7644565e-12
3.2895652e-10
-1.6618293e-12
3.2803025e-10
1.5681687e-12
3.2890351e-10
-1.4785505e-12
3.2807936e-10
1.3953701e-12
3.2885709e-10
-1.3167941e-12
3.2812269e-10
1.2434509e-12
3.2881639e-10
-1.1745381e-12
3.2816073e-10
1.110138e-12
3.2878076e-10
-1.0497908e-12
3.2819403e-10
9.9342729e-13
3.2874964e-10
-9.4071064e-13
3.2822308e-10
8.9154355e-13
3.2872254e-10
-8.45644e-13
3.2824833e-10
8.029226e-13
3.2869905e-10
-7.6313217e-13
3.2827015e-10
7.2619932e-13
3.286788e-10
-6.9190586e-13
3.2828889e-10
6.6019404e-13
3.2866149e-10
-6.3087276e-13
3.2830483e-10
6.0389724e-13
3.2864684e-10
-5.7910247e-13
3.2831821e-10
5.5645369e-13
3.2863465e-10
-5.3581119e-13
3.2832925e-10
5.1714692e-13
3.2862473e-10
-5.0034792e-13
3.2833809e-10
4.8538705e-13
3.2861692e-10
-4.7216991e-13
3.2834485e-10
4.607397e-13
3.28611e-10
-4.5077043e-13
3.2834953e-10
4.4276289e-13
3.2860763e-10
-4.3715005e-13
3.2835728e-10
4.2482689e-13
3.2862747e-10
-4.5263678e-13
4.0856712e-13
5.6505556e-10
7.7993881e-09
6.1546069e-10
-8.5077251e-11
5.4122062e-10
1.4619526e-10
5.4215715e-10
-2.5931656e-12
5.4160136e-10
-6.924831e-14
5.3896637e-10
6.509932e-12
5.3931618e-10
-2.2156094e-12
5.3771877e-10
4.4368342e-12
5.3902783e-10
-3.8100541e-12
5.3765232e-10
3.869055e-12
5.3894084e-10
-3.6256644e-12
5.3769375e-10
3.4809747e-12
5.3886003e-10
-3.2632841e-12
5.3774949e-10
3.0973954e-12
5.3879093e-10
-2.9096762e-12
5.3780563e-10
2.7497575e-12
5.3873259e-10
-2.5887834e-12
5.3785742e-10
2.4433343e-12
5.3868226e-10
-2.3033923e-12
5.3790374e-10
2.1738896e-12
5.3863837e-10
-2.0514199e-12
5.3794468e-10
1.9371411e-12
5.3859995e-10
-1.8298125e-12
5.3798064e-10
1.7294458e-12
5.3856633e-10
-1.6354831e-12
5.3801212e-10
1.5476363e-12
5.3853697e-10
-1.4655593e-12
5.3803959e-10
1.3889256e-12
5.385114e-10
-1.3174591e-12
5.3806346e-10
1.2508682e-12
5.3848923e-10
-1.1889076e-12
5.380841e-10
1.1313347e-12
5.3847012e-10
-1.0779268e-12
5.3810183e-10
1.0284876e-12
5.3845377e-10
-9.828165e-13
5.3811691e-10
9.4075575e-13
5.3843994e-10
-9.0212859e-13
5.3812958e-10
8.6680828e-13
5.3842841e-10
-8.3464305e-13
5.3814003e-10
8.0552934e-13
5.3841903e-10
-7.7934602e-13
5.3814842e-10
7.5599804e-13
5.3841163e-10
-7.3538594e-13
5.3815482e-10
7.1755428e-13
5.3840595e-10
-7.01896e-13
5.3815913e-10
6.8958216e-13
5.3840267e-10
-6.8069427e-13
5.3816824e-10
6.5925903e-13
5.3843279e-10
-7.1719165e-13
6.3459017e-13
7.5620646e-10
9.9914316e-09
8.4033549e-10
-1.6920627e-10
7.4660358e-10
2.3992719e-10
7.4782082e-10
-3.8104032e-12
7.4663118e-10
1.1204016e-12
7.4375587e-10
9.3852424e-12
7.4358591e-10
-2.045645e-12
7.4209412e-10
5.9286188e-12
7.4326219e-10
-4.9781228e-12
7.4198894e-10
5.1423092e-12
7.4318745e-10
-4.8241798e-12
7.4201717e-10
4.6512556e-12
7.4310899e-10
-4.3551048e-12
7.4206533e-10
4.1410545e-12
7.43042e-10
-3.8863433e-12
7.4211671e-10
3.6750496e-12
7.4298643e-10
-3.4585067e-12
7.4216493e-10
3.2648356e-12
7.4293895e-10
-3.0774199e-12
7.422083e-10
2.9045407e-12
7.4289771e-10
-2.7408282e-12
7.422467e-10
2.5881483e-12
7.4286167e-10
-2.4447793e-12
7.4228046e-10
2.3106544e-12
7.4283015e-10
-2.1851703e-12
7.4231001e-10
2.0677675e-12
7.4280262e-10
-1.9581602e-12
7.423358e-10
1.8557379e-12
7.4277864e-10
-1.760294e-12
7.4235822e-10
1.671288e-12
7.4275784e-10
-1.5885298e-12
7.423776e-10
1.5115708e-12
7.427399e-10
-1.4402264e-12
7.4239426e-10
1.3741327e-12
7.4272455e-10
-1.313114e-12
7.4240843e-10
1.256877e-12
7.4271157e-10
-1.2052604e-12
7.4242035e-10
1.1580277e-12
7.4270074e-10
-1.1150366e-12
7.4243017e-10
1.0760939e-12
7.4269192e-10
-1.041088e-12
7.4243807e-10
1.0098414e-12
7.4268495e-10
-9.8226779e-13
7.424441e-10
9.5840667e-13
7.4267951e-10
-9.3730719e-13
7.4244802e-10
9.2107887e-13
7.4267619e-10
-9.0887041e-13
7.4245784e-10
8.776109e-13
7.4271414e-10
-9.7349172e-13
8.457786e-13
9.6478874e-10
1.1974893e-08
1.0532886e-09
-2.5770615e-10
9.4560912e-10
3.4760673e-10
9.4782276e-10
-6.024027e-12
9.4601651e-10
2.9266512e-12
9.4290779e-10
1.2493963e-11
9.4229699e-10
-1.4348359e-12
9.4093342e-10
7.2921818e-12
9.4196648e-10
-6.0111781e-12
9.4080295e-10
6.3058365e-12
9.4190983e-10
-5.9310568e-12
9.4082029e-10
5.7407967e-12
9.4183483e-10
-5.3696504e-12
9.4086129e-10
5.1145988e-12
9.4177039e-10
-4.7954466e-12
9.4090788e-10
4.5375618e-12
9.4171786e-10
-4.2684943e-12
9.4095242e-10
4.0302766e-12
9.4167342e-10
-3.7984191e-12
9.4099273e-10
3.5852313e-12
9.4163497e-10
-3.3830655e-12
9.4102848e-10
3.1946314e-12
9.4160141e-10
-3.0177096e-12
9.4105993e-10
2.8521335e-12
9.4157208e-10
-2.6973163e-12
9.4108747e-10
2.5523699e-12
9.4154646e-10
-2.4171431e-12
9.4111151e-10
2.2906836e-12
9.4152414e-10
-2.1729217e-12
9.4113241e-10
2.0630192e-12
9.4150477e-10
-1.9608973e-12
9.4115048e-10
1.8658617e-12
9.4148807e-10
-1.7778122e-12
9.4116602e-10
1.6961858e-12
9.4147377e-10
-1.6208687e-12
9.4117924e-10
1.5514071e-12
9.4146166e-10
-1.4876847e-12
9.4119036e-10
1.4293358e-12
9.4145157e-10
-1.376251e-12
9.4119953e-10
1.3281316e-12
9.4144334e-10
-1.2848947e-12
9.4120692e-10
1.246265e-12
9.4143684e-10
-1.212189e-12
9.4121256e-10
1.1826886e-12
9.4143167e-10
-1.1564261e-12
9.4121607e-10
1.1366824e-12
9.4142826e-10
-1.1210616e-12
9.4122619e-10
1.0796877e-12
9.4147201e-10
-1.2193164e-12
1.0406871e-12
1.1249932e-09
1.379815e-08
1.2557928e-09
-3.8850568e-10
1.1391552e-09
4.6424427e-10
1.1422132e-09
-9.0820079e-12
1.1397393e-09
5.4005542e-12
1.1364244e-09
1.5808853e-11
1.1354495e-09
-4.5989478e-13
1.1342384e-09
8.5032393e-12
1.135142e-09
-6.9147549e-12
1.1340944e-09
7.353482e-12
1.1351086e-09
-6.94529e-12
1.1341029e-09
6.7465172e-12
1.135038e-09
-6.3047671e-12
1.1341371e-09
6.0154799e-12
1.1349765e-09
-5.6348148e-12
1.1341789e-09
5.3351205e-12
1.1349272e-09
-5.0167894e-12
1.1342197e-09
4.7377875e-12
1.1348859e-09
-4.4646616e-12
1.1342568e-09
4.2143321e-12
1.1348504e-09
-3.9766062e-12
1.1342899e-09
3.7551563e-12
1.1348194e-09
-3.5472521e-12
1.1343189e-09
3.3526114e-12
1.1347923e-09
-3.1707183e-12
1.1343444e-09
3.0003099e-12
1.1347687e-09
-2.8414332e-12
1.1343666e-09
2.6927479e-12
1.1347481e-09
-2.5543788e-12
1.1343859e-09
2.4251505e-12
1.1347302e-09
-2.3051441e-12
1.1344027e-09
2.1933874e-12
1.1347147e-09
-2.0899044e-12
1.134417e-09
1.9939073e-12
1.1347015e-09
-1.9053763e-12
1.1344293e-09
1.823677e-12
1.1346903e-09
-1.7487638e-12
1.1344395e-09
1.6801254e-12
1.134681e-09
-1.6177064e-12
1.134448e-09
1.5610891e-12
1.1346734e-09
-1.5102364e-12
1.1344549e-09
1.4647621e-12
1.1346674e-09
-1.4246639e-12
1.1344601e-09
1.3899309e-12
1.1346625e-09
-1.3588119e-12
1.1344632e-09
1.3359554e-12
1.134659e-09
-1.316818e-12
1.1344733e-09
1.2653714e-12
1.1347068e-09
-1.4527654e-12
1.2181197e-12
1.322833e-09
1.5423567e-08
1.448102e-09
-5.1377469e-10
1.3264155e-09
5.8593079e-10
1.330871e-09
-1.3537481e-11
1.3277345e-09
8.5370701e-12
1.3242951e-09
1.9248181e-11
1.3230374e-09
7.9787754e-13
1.322008e-09
9.5326563e-12
1.3227888e-09
-7.6956284e-12
1.3218625e-09
8.2797745e-12
1.3227841e-09
-7.8668425e-12
1.3218645e-09
7.6660821e-12
1.3227188e-09
-7.1590658e-12
1.3218925e-09
6.8418371e-12
1.3226606e-09
-6.4029386e-12
1.3219295e-09
6.0661726e-12
1.3226148e-09
-5.7020185e-12
1.3219665e-09
5.3860467e-12
1.3225768e-09
-5.0749323e-12
1.3220004e-09
4.7906955e-12
1.3225442e-09
-4.5203763e-12
1.3220306e-09
4.2687123e-12
1.3225158e-09
-4.0324523e-12
1.3220572e-09
3.8111894e-12
1.322491e-09
-3.604524e-12
1.3220806e-09
3.4107831e-12
1.3224694e-09
-3.2302661e-12
1.3221009e-09
3.0612083e-12
1.3224505e-09
-2.9039781e-12
1.3221187e-09
2.7570316e-12
1.3224342e-09
-2.620651e-12
1.322134e-09
2.4935615e-12
1.32242e-09
-2.3759443e-12
1.3221472e-09
2.2667674e-12
1.3224079e-09
-2.166132e-12
1.3221584e-09
2.0732071e-12
1.3223977e-09
-1.9880401e-12
1.3221678e-09
1.9099614e-12
1.3223891e-09
-1.8389869e-12
1.3221756e-09
1.7745701e-12
1.3223821e-09
-1.7167336e-12
1.3221819e-09
1.6649704e-12
1.3223766e-09
-1.6193454e-12
1.3221867e-09
1.5797987e-12
1.3223721e-09
-1.5441545e-12
1.3221895e-09
1.518585e-12
1.3223685e-09
-1.495837e-12
1.3221992e-09
1.4346162e-12
1.3224187e-09
-1.6722406e-12
1.3774188e-12
1.462113e-09
1.6909704e-08
1.6278702e-09
-6.7953183e-10
1.5081231e-09
7.0567786e-10
1.5136596e-09
-1.9073911e-11
1.5100642e-09
1.213248e-11
1.5065561e-09
2.275628e-11
1.5050751e-09
2.2788099e-12
1.5042482e-09
1.0359603e-11
1.5049102e-09
-8.3576256e-12
1.5041082e-09
9.0817829e-12
1.5049371e-09
-8.6957686e-12
1.5041051e-09
8.4981186e-12
1.5048777e-09
-7.9317024e-12
1.5041271e-09
7.592465e-12
1.504823e-09
-7.0988709e-12
1.5041595e-09
6.7297181e-12
1.5047808e-09
-6.3233162e-12
1.5041926e-09
5.9742139e-12
1.5047461e-09
-5.6284638e-12
1.5042232e-09
5.3135942e-12
1.5047165e-09
-5.0136945e-12
1.5042506e-09
4.7346573e-12
1.5046908e-09
-4.4727019e-12
1.5042747e-09
4.2272935e-12
1.5046684e-09
-3.9981866e-12
1.5042959e-09
3.783273e-12
1.5046488e-09
-3.5831488e-12
1.5043144e-09
3.3955985e-12
1.5046317e-09
-3.2212741e-12
1.5043305e-09
3.0582408e-12
1.5046168e-09
-2.9070156e-12
1.5043444e-09
2.7660025e-12
1.504604e-09
-2.6355681e-12
1.5043564e-09
2.5144211e-12
1.5045931e-09
-2.4028066e-12
1.5043666e-09
2.2996854e-12
1.5045837e-09
-2.2052156e-12
1.5043751e-09
2.1185608e-12
1.504576e-09
-2.0398221e-12
1.5043822e-09
1.9683174e-12
1.5045696e-09
-1.9041404e-12
1.504388e-09
1.8466559e-12
1.5045646e-09
-1.79601e-12
1.5043923e-09
1.7520773e-12
1.5045604e-09
-1.7122598e-12
1.5043947e-09
1.6843685e-12
1.5045568e-09
-1.6579423e-12
1.5044039e-09
1.5874414e-12
1.5046081e-09
-1.8764092e-12
1.5183401e-12
1.6434657e-09
1.8214488e-08
1.8000523e-09
-8.3611838e-10
1.6834636e-09
8.2226658e-10
1.6894231e-09
-2.5033441e-11
1.6865089e-09
1.5046678e-11
1.6831682e-09
2.6097041e-11
1.6815556e-09
3.8913875e-12
1.6809574e-09
1.0957759e-11
1.6815063e-09
-8.9064989e-12
1.6808309e-09
9.7571841e-12
1.6815679e-09
-9.432815e-12
1.6808242e-09
9.2418459e-12
1.6815149e-09
-8.6224021e-12
1.6808407e-09
8.2666909e-12
1.681464e-09
-7.7221699e-12
1.6808685e-09
7.3252318e-12
1.6814254e-09
-6.8802605e-12
1.6808978e-09
6.5018645e-12
1.6813942e-09
-6.1248765e-12
1.6809251e-09
5.7826644e-12
1.6813676e-09
-5.4562197e-12
1.6809496e-09
5.1526681e-12
1.6813446e-09
-4.8676915e-12
1.6809713e-09
4.6006313e-12
1.6813245e-09
-4.3514243e-12
1.6809903e-09
4.117513e-12
1.6813069e-09
-3.8998241e-12
1.6810069e-09
3.695675e-12
1.6812916e-09
-3.5060325e-12
1.6810213e-09
3.3285564e-12
1.6812783e-09
-3.1640249e-12
1.6810338e-09
3.0105094e-12
1.6812668e-09
-2.868583e-12
1.6810446e-09
2.7366866e-12
1.681257e-09
-2.615226e-12
1.6810537e-09
2.5029473e-12
1.6812486e-09
-2.4001335e-12
1.6810614e-09
2.3057752e-12
1.6812417e-09
-2.2200708e-12
1.6810678e-09
2.1421976e-12
1.681236e-09
-2.0723298e-12
1.6810729e-09
2.0096992e-12
1.6812315e-09
-1.9545446e-12
1.6810769e-09
1.9066592e-12
1.6812277e-09
-1.8630373e-12
1.6810788e-09
1.8332024e-12
1.681224e-09
-1.8030674e-12
1.6810875e-09
1.7239264e-12
1.6812752e-09
-2.0641752e-12
1.6409286e-12
1.7735607e-09
1.9389177e-08
1.9607745e-09
-1.0233322e-09
1.8536502e-09
9.2939086e-10
1.8577037e-09
-2.908689e-11
1.8569361e-09
1.5814229e-11
1.8541318e-09
2.8901415e-11
1.8524823e-09
5.540832e-12
1.8521383e-09
1.1301791e-11
1.852579e-09
-9.3471616e-12
1.852031e-09
1.0305112e-11
1.8526771e-09
-1.0078927e-11
1.8520218e-09
9.8971715e-12
1.8526307e-09
-9.2313274e-12
1.8520331e-09
8.8643469e-12
1.8525838e-09
-8.2728316e-12
1.8520564e-09
7.8526151e-12
1.8525489e-09
-7.372821e-12
1.8520818e-09
6.9689428e-12
1.8525211e-09
-6.5641338e-12
1.8521059e-09
6.1978641e-12
1.8524976e-09
-5.8479117e-12
1.8521276e-09
5.5227042e-12
1.8524772e-09
-5.2173775e-12
1.8521467e-09
4.9311602e-12
1.8524595e-09
-4.6641908e-12
1.8521635e-09
4.4134586e-12
1.852444e-09
-4.1802448e-12
1.8521782e-09
3.9613932e-12
1.8524304e-09
-3.7582073e-12
1.852191e-09
3.5679354e-12
1.8524186e-09
-3.3916359e-12
1.8522021e-09
3.227042e-12
1.8524085e-09
-3.0749498e-12
1.8522116e-09
2.9335275e-12
1.8523998e-09
-2.8033556e-12
1.8522198e-09
2.6829613e-12
1.8523924e-09
-2.5727636e-12
1.8522266e-09
2.4715777e-12
1.8523862e-09
-2.3797078e-12
1.8522322e-09
2.2961889e-12
1.8523812e-09
-2.2212819e-12
1.8522368e-09
2.1540841e-12
1.8523772e-09
-2.0949359e-12
1.8522403e-09
2.0435339e-12
1.8523738e-09
-1.9964896e-12
1.8522419e-09
1.9650734e-12
1.8523701e-09
-1.9312432e-12
1.8522498e-09
1.8442076e-12
1.8524203e-09
-2.234657e-12
1.7454505e-12
1.9413318e-09
2.0396096e-08
2.1152422e-09
-1.1972426e-09
2.0174007e-09
1.0272324e-09
2.0200003e-09
-3.168647e-11
2.0215248e-09
1.4289793e-11
2.0194925e-09
3.0933728e-11
2.017872e-09
7.1613296e-12
2.0177957e-09
1.1378045e-11
2.0181304e-09
-9.6818191e-12
2.017709e-09
1.0726461e-11
2.0182652e-09
-1.0635153e-11
2.0176978e-09
1.0464628e-11
2.0182255e-09
-9.7590234e-12
2.0177041e-09
9.3857209e-12
2.0181825e-09
-8.7512376e-12
2.017723e-09
8.3121525e-12
2.0181515e-09
-7.8013133e-12
2.0177447e-09
7.3757219e-12
2.0181271e-09
-6.9465035e-12
2.0177655e-09
6.5594376e-12
2.0181066e-09
-6.1889976e-12
2.0177843e-09
5.8449767e-12
2.0180889e-09
-5.5219529e-12
2.017801e-09
5.2190609e-12
2.0180734e-09
-4.9366507e-12
2.0178156e-09
4.6712649e-12
2.0180599e-09
-4.424553e-12
2.0178284e-09
4.1928876e-12
2.0180482e-09
-3.9779225e-12
2.0178396e-09
3.7764961e-12
2.0180379e-09
-3.5899584e-12
2.0178493e-09
3.415706e-12
2.0180291e-09
-3.2547675e-12
2.0178576e-09
3.1050399e-12
2.0180215e-09
-2.967286e-12
2.0178646e-09
2.8398158e-12
2.0180151e-09
-2.7231907e-12
2.0178706e-09
2.6160514e-12
2.0180097e-09
-2.5188135e-12
2.0178755e-09
2.4303704e-12
2.0180053e-09
-2.3510744e-12
2.0178795e-09
2.2798885e-12
2.0180018e-09
-2.217261e-12
2.0178826e-09
2.1627789e-12
2.0179988e-09
-2.1127042e-12
2.0178838e-09
2.0800505e-12
2.0179952e-09
-2.0425869e-12
2.0178909e-09
1.9484756e-12
2.0180434e-09
-2.3871694e-12
1.8323481e-12
2.0631241e-09
2.1281221e-08
2.2564903e-09
-1.3906087e-09
2.1750546e-09
1.108668e-09
2.1777345e-09
-3.4366313e-11
2.1804187e-09
1.1605605e-11
2.1792991e-09
3.2053342e-11
2.1777362e-09
8.7242101e-12
2.1779321e-09
1.1182123e-11
2.1781611e-09
-9.9108053e-12
2.1778645e-09
1.1023036e-11
2.1783323e-09
-1.1102957e-11
2.1778518e-09
1.0945104e-11
2.1782993e-09
-1.0206472e-11
2.1778536e-09
9.8314583e-12
2.1782605e-09
-9.158133e-12
2.1778681e-09
8.7044576e-12
2.1782332e-09
-8.1663638e-12
2.1778862e-09
7.722764e-12
2.1782122e-09
-7.2725235e-12
2.1779037e-09
6.8678825e-12
2.1781947e-09
-6.4799431e-12
2.1779197e-09
6.1199211e-12
2.1781796e-09
-5.7818221e-12
2.1779339e-09
5.4647136e-12
2.1781665e-09
-5.1691577e-12
2.1779464e-09
4.8912655e-12
2.178155e-09
-4.6330598e-12
2.1779574e-09
4.390453e-12
2.1781449e-09
-4.1654545e-12
2.1779669e-09
3.9545012e-12
2.1781362e-09
-3.7592401e-12
2.1779752e-09
3.5767378e-12
2.1781287e-09
-3.4082601e-12
2.1779823e-09
3.2514382e-12
2.1781222e-09
-3.1072217e-12
2.1779883e-09
2.9737073e-12
2.1781167e-09
-2.8516029e-12
2.1779934e-09
2.7393782e-12
2.1781121e-09
-2.637563e-12
2.1779976e-09
2.5449127e-12
2.1781084e-09
-2.4618727e-12
2.178001e-09
2.3872745e-12
2.1781054e-09
-2.3216788e-12
2.1780037e-09
2.2645516e-12
2.1781028e-09
-2.2118445e-12
2.1780046e-09
2.178277e-12
2.1780993e-09
-2.1372919e-12
2.1780108e-09
2.0369711e-12
2.1781448e-09
-2.5212065e-12
1.9022024e-12
2.2166519e-09
2.2012819e-08
2.3928176e-09
-1.5667744e-09
2.3268503e-09
1.1746353e-09
2.3310392e-09
-3.8555161e-11
2.3337013e-09
8.9434788e-12
2.3335808e-09
3.2173877e-11
2.3320848e-09
1.0220206e-11
2.3325497e-09
1.071717e-11
2.3326718e-09
-1.0032887e-11
2.3324972e-09
1.1197638e-11
2.3328784e-09
-1.1484125e-11
2.3324837e-09
1.1339793e-11
2.3328523e-09
-1.057506e-11
2.3324812e-09
1.0202502e-11
2.3328177e-09
-9.4945945e-12
2.3324917e-09
9.0304266e-12
2.3327942e-09
-8.4688759e-12
2.3325061e-09
8.0108838e-12
2.3327766e-09
-7.5429715e-12
2.3325205e-09
7.1239202e-12
2.332762e-09
-6.7214247e-12
2.3325337e-09
6.3481713e-12
2.3327495e-09
-5.9975777e-12
2.3325455e-09
5.6686765e-12
2.3327386e-09
-5.3622337e-12
2.3325559e-09
5.0739539e-12
2.3327291e-09
-4.806228e-12
2.332565e-09
4.5545281e-12
2.3327208e-09
-4.3212164e-12
2.3325729e-09
4.1023436e-12
2.3327135e-09
-3.8998522e-12
2.3325798e-09
3.7104914e-12
2.3327073e-09
-3.5357635e-12
2.3325857e-09
3.3730438e-12
2.3327019e-09
-3.2234686e-12
2.3325907e-09
3.0849297e-12
2.3326974e-09
-2.9582813e-12
2.3325949e-09
2.8418289e-12
2.3326936e-09
-2.736217e-12
2.3325984e-09
2.6400682e-12
2.3326905e-09
-2.553921e-12
2.3326013e-09
2.4764809e-12
2.332688e-09
-2.4084218e-12
2.3326035e-09
2.3490807e-12
2.3326858e-09
-2.2941427e-12
2.3326041e-09
2.259964e-12
2.3326824e-09
-2.2156191e-12
2.3326094e-09
2.1099817e-12
2.3327246e-09
-2.6364259e-12
1.9556999e-12
2.3358154e-09
2.2625254e-08
2.5184846e-09
-1.7494435e-09
2.4732127e-09
1.2199072e-09
2.4791417e-09
-4.4484144e-11
2.4814542e-09
6.6309749e-12
2.4823458e-09
3.1282306e-11
2.4809223e-09
1.1643676e-11
2.4816515e-09
9.988017e-12
2.4816646e-09
-1.0046017e-11
2.4816078e-09
1.1254419e-11
2.4819039e-09
-1.1780255e-11
2.4815933e-09
1.1650425e-11
2.4818846e-09
-1.0866381e-11
2.481587e-09
1.0500124e-11
2.4818544e-09
-9.7619541e-12
2.4815936e-09
9.2912184e-12
2.4818347e-09
-8.7099884e-12
2.4816044e-09
8.241121e-12
2.4818203e-09
-7.7588347e-12
2.4816157e-09
7.3284701e-12
2.4818086e-09
-6.9143054e-12
2.4816263e-09
6.5305379e-12
2.4817987e-09
-6.1699792e-12
2.4816357e-09
5.8316655e-12
2.48179e-09
-5.5165507e-12
2.481644e-09
5.2199654e-12
2.4817824e-09
-4.9446559e-12
2.4816513e-09
4.6856802e-12
2.4817758e-09
-4.4457435e-12
2.4816576e-09
4.220532e-12
2.48177e-09
-4.0122766e-12
2.4816631e-09
3.8174258e-12
2.481765e-09
-3.6377137e-12
2.4816678e-09
3.4702734e-12
2.4817608e-09
-3.3164241e-12
2.4816718e-09
3.1738637e-12
2.4817571e-09
-3.0435905e-12
2.4816752e-09
2.9237544e-12
2.4817541e-09
-2.8151128e-12
2.481678e-09
2.7161629e-12
2.4817516e-09
-2.6275347e-12
2.4816803e-09
2.5478146e-12
2.4817497e-09
-2.4777887e-12
2.4816821e-09
2.4166593e-12
2.4817478e-09
-2.3598924e-12
2.4816824e-09
2.325383e-12
2.4817447e-09
-2.2778884e-12
2.4816868e-09
2.1678375e-12
2.481783e-09
-2.7326338e-12
1.9936052e-12
2.4804895e-09
2.3093015e-08
2.642997e-09
-1.911951e-09
2.6140745e-09
1.2488297e-09
2.6212028e-09
-5.1612479e-11
2.6237812e-09
4.0525852e-12
2.6255847e-09
2.9478792e-11
2.6242498e-09
1.2978634e-11
2.6252396e-09
8.9981907e-12
2.6251414e-09
-9.9478478e-12
2.6251972e-09
1.1198641e-11
2.6254096e-09
-1.1992669e-11
2.6251808e-09
1.1879258e-11
2.6253966e-09
-1.1082169e-11
2.6251708e-09
1.0725907e-11
2.6253706e-09
-9.9617555e-12
2.6251736e-09
9.4882249e-12
2.6253546e-09
-8.8910446e-12
2.6251811e-09
8.4147121e-12
2.6253435e-09
-7.9212841e-12
2.6251893e-09
7.4826252e-12
2.6253347e-09
-7.0596134e-12
2.6251972e-09
6.667987e-12
2.6253272e-09
-6.2999341e-12
2.6252043e-09
5.9545372e-12
2.6253207e-09
-5.6329144e-12
2.6252106e-09
5.3300625e-12
2.625315e-09
-5.0490619e-12
2.625216e-09
4.7845907e-12
2.62531e-09
-4.5396799e-12
2.6252208e-09
4.3096788e-12
2.6253057e-09
-4.0970934e-12
2.625225e-09
3.8980939e-12
2.6253019e-09
-3.7146362e-12
2.6252286e-09
3.5436288e-12
2.6252987e-09
-3.3865667e-12
2.6252316e-09
3.2409678e-12
2.625296e-09
-3.1079691e-12
2.6252341e-09
2.9855764e-12
2.6252937e-09
-2.8746559e-12
2.6252363e-09
2.7735887e-12
2.6252918e-09
-2.6830923e-12
2.625238e-09
2.6016435e-12
2.6252903e-09
-2.530137e-12
2.6252394e-09
2.4676381e-12
2.6252889e-09
-2.409442e-12
2.6252394e-09
2.3748606e-12
2.625286e-09
-2.3244715e-12
2.6252429e-09
2.2109073e-12
2.6253201e-09
-2.8097716e-12
2.016737e-12
2.5986743e-09
2.344259e-08
2.7594316e-09
-2.0727082e-09
2.7498592e-09
1.258402e-09
2.7569155e-09
-5.8668693e-11
2.7607522e-09
2.1585886e-13
2.7632992e-09
2.693175e-11
2.7620731e-09
1.4204815e-11
2.763316e-09
7.75522e-12
2.7631039e-09
-9.7357623e-12
2.7632662e-09
1.1036387e-11
2.763396e-09
-1.2122499e-11
2.7632463e-09
1.2028973e-11
2.7633884e-09
-1.1224265e-11
2.7632326e-09
1.0881713e-11
2.7633666e-09
-1.009571e-11
2.7632317e-09
9.6230522e-12
2.7633542e-09
-9.0135571e-12
2.7632359e-09
8.5330714e-12
2.7633462e-09
-8.031649e-12
2.7632412e-09
7.5876337e-12
2.7633401e-09
-7.1585206e-12
2.7632465e-09
6.7616232e-12
2.7633351e-09
-6.3884807e-12
2.7632513e-09
6.0382722e-12
2.7633307e-09
-5.7122486e-12
2.7632556e-09
5.4051195e-12
2.7633268e-09
-5.1202717e-12
2.7632594e-09
4.8520424e-12
2.7633234e-09
-4.6037664e-12
2.7632626e-09
4.3704877e-12
2.7633205e-09
-4.1549702e-12
2.7632655e-09
3.9531315e-12
2.763318e-09
-3.7671355e-12
2.7632679e-09
3.5936872e-12
2.7633158e-09
-3.4344469e-12
2.76327e-09
3.2867692e-12
2.7633139e-09
-3.1519219e-12
2.7632717e-09
3.02778e-12
2.7633124e-09
-2.9153126e-12
2.7632732e-09
2.8127955e-12
2.7633111e-09
-2.7210289e-12
2.7632744e-09
2.63839e-12
2.7633101e-09
-2.5658772e-12
2.7632753e-09
2.5024188e-12
2.7633091e-09
-2.4431886e-12
2.7632752e-09
2.4087719e-12
2.7633065e-09
-2.3557855e-12
2.7632778e-09
2.2395956e-12
2.7633359e-09
-2.8679034e-12
2.025948e-12
2.7355777e-09
2.3655263e-08
2.876535e-09
-2.2136656e-09
2.8807454e-09
1.2541917e-09
2.886675e-09
-6.4598276e-11
2.892372e-09
-5.4811858e-12
2.8954845e-09
2.3819287e-11
2.894398e-09
1.5291312e-11
2.895876e-09
6.2772454e-12
2.8955498e-09
-9.4096163e-12
2.8958131e-09
1.0773112e-11
2.8958623e-09
-1.217167e-11
2.8957892e-09
1.2102023e-11
2.8958599e-09
-1.1294959e-11
2.8957722e-09
1.096945e-11
2.8958422e-09
-1.0165783e-11
2.8957678e-09
9.6974335e-12
2.8958335e-09
-9.0792175e-12
2.8957688e-09
8.5977511e-12
2.8958286e-09
-8.0914064e-12
2.8957713e-09
7.6448752e-12
2.8958252e-09
-7.2123288e-12
2.8957741e-09
6.8126714e-12
2.8958224e-09
-6.4367735e-12
2.8957767e-09
6.0839611e-12
2.89582e-09
-5.7555819e-12
2.895779e-09
5.4461102e-12
2.895818e-09
-5.1592052e-12
2.8957811e-09
4.8889081e-12
2.8958162e-09
-4.638829e-12
2.8957829e-09
4.4037439e-12
2.8958146e-09
-4.1866519e-12
2.8957845e-09
3.9832476e-12
2.8958132e-09
-3.7958864e-12
2.8957858e-09
3.6210926e-12
2.8958121e-09
-3.460679e-12
2.895787e-09
3.311856e-12
2.8958111e-09
-3.1760119e-12
2.8957879e-09
3.0509061e-12
2.8958102e-09
-2.9376029e-12
2.8957887e-09
2.8342853e-12
2.8958095e-09
-2.7418293e-12
2.8957894e-09
2.6585247e-12
2.895809e-09
-2.5854662e-12
2.89579e-09
2.5214488e-12
2.8958083e-09
-2.4615725e-12
2.8957896e-09
2.4275359e-12
2.8958061e-09
-2.372287e-12
2.8957913e-09
2.2543378e-12
2.8958306e-09
-2.9072039e-12
2.0221087e-12
2.8536912e-09
2.3749821e-08
2.9855584e-09
-2.3455327e-09
3.0067e-09
1.2330501e-09
3.0115109e-09
-6.9409204e-11
3.0187801e-09
-1.2750401e-11
3.0221963e-09
2.0403132e-11
3.0212606e-09
1.6227035e-11
3.0229232e-09
4.6145859e-12
3.0224816e-09
-8.9680233e-12
3.0228387e-09
1.0416088e-11
3.0228086e-09
-1.2141644e-11
3.0228094e-09
1.2101218e-11
3.0228111e-09
-1.1296653e-11
3.0227894e-09
1.0991199e-11
3.0227977e-09
-1.0174089e-11
3.0227819e-09
9.7132443e-12
3.0227925e-09
-9.0898565e-12
3.0227798e-09
8.6104321e-12
3.0227906e-09
-8.1021579e-12
3.0227796e-09
7.6558461e-12
3.0227897e-09
-7.2224524e-12
3.0227799e-09
6.8224632e-12
3.0227892e-09
-6.4460688e-12
3.0227804e-09
6.0927906e-12
3.0227889e-09
-5.7640347e-12
3.0227809e-09
5.4540953e-12
3.0227885e-09
-5.1668654e-12
3.0227813e-09
4.896139e-12
3.0227882e-09
-4.6457691e-12
3.0227817e-09
4.4103034e-12
3.022788e-09
-4.1929513e-12
3.022782e-09
3.9892162e-12
3.0227878e-09
-3.801625e-12
3.0227823e-09
3.6265475e-12
3.0227876e-09
-3.4659336e-12
3.0227825e-09
3.3168699e-12
3.0227874e-09
-3.1808535e-12
3.0227827e-09
3.0555448e-12
3.0227872e-09
-2.9420941e-12
3.0227829e-09
2.8386051e-12
3.0227871e-09
-2.7460221e-12
3.0227831e-09
2.6625605e-12
3.022787e-09
-2.5894022e-12
3.0227832e-09
2.5252151e-12
3.0227867e-09
-2.4650724e-12
3.0227827e-09
2.4316103e-12
3.0227848e-09
-2.3744663e-12
3.0227836e-09
2.2555981e-12
3.0228043e-09
-2.9279481e-12
2.0060932e-12
2.9841525e-09
2.3713919e-08
3.0945113e-09
-2.4558915e-09
3.1274746e-09
1.2000869e-09
3.1320721e-09
-7.4006725e-11
3.1400634e-09
-2.0741672e-11
3.1434676e-09
1.6998948e-11
3.1426932e-09
1.7001375e-11
3.1444586e-09
2.8492261e-12
3.1439019e-09
-8.41136e-12
3.1443441e-09
9.9738923e-12
3.1442358e-09
-1.2033324e-11
3.1443072e-09
1.2029809e-11
3.1442423e-09
-1.1231752e-11
3.1442843e-09
1.0949243e-11
3.144233e-09
-1.0122846e-11
3.1442738e-09
9.672501e-12
3.1442313e-09
-9.0474167e-12
3.1442688e-09
8.5729119e-12
3.1442323e-09
-8.0656117e-12
3.144266e-09
7.6221465e-12
3.1442339e-09
-7.1904037e-12
3.144264e-09
6.7924235e-12
3.1442356e-09
-6.4177118e-12
3.1442624e-09
6.0660322e-12
3.1442371e-09
-5.7388082e-12
3.144261e-09
5.4302123e-12
3.1442385e-09
-5.1443284e-12
3.1442599e-09
4.8747554e-12
3.1442397e-09
-4.6255534e-12
3.1442589e-09
4.3910849e-12
3.1442407e-09
-4.1747403e-12
3.144258e-09
3.9718673e-12
3.1442415e-09
-3.7851413e-12
3.1442573e-09
3.6108057e-12
3.1442423e-09
-3.4509299e-12
3.1442566e-09
3.3024991e-12
3.1442429e-09
-3.1671058e-12
3.1442561e-09
3.0423292e-12
3.1442434e-09
-2.929395e-12
3.1442557e-09
2.8263423e-12
3.1442438e-09
-2.7341748e-12
3.1442553e-09
2.6510475e-12
3.1442442e-09
-2.5782192e-12
3.1442551e-09
2.51424e-12
3.1442443e-09
-2.4542e-12
3.1442544e-09
2.4214869e-12
3.1442428e-09
-2.3628433e-12
3.1442545e-09
2.2438653e-12
3.144257e-09
-2.9305009e-12
1.9787678e-12
3.1025388e-09
2.355963e-08
3.1952463e-09
-2.548599e-09
3.2429748e-09
1.1523584e-09
3.2480625e-09
-7.9094447e-11
3.2560339e-09
-2.8713067e-11
3.2592656e-09
1.3767231e-11
3.258691e-09
1.7575929e-11
3.2604689e-09
1.0713785e-12
3.259807e-09
-7.749498e-12
3.2603282e-09
9.452734e-12
3.2601432e-09
-1.184838e-11
3.2602822e-09
1.1890864e-11
3.2601533e-09
-1.1102906e-11
3.2602567e-09
1.0845925e-11
3.2601482e-09
-1.0014412e-11
3.2602434e-09
9.5773141e-12
3.26015e-09
-8.953951e-12
3.2602358e-09
8.4870821e-12
3.2601537e-09
-7.9835726e-12
3.2602304e-09
7.5454645e-12
3.2601578e-09
-7.1177812e-12
3.2602262e-09
6.7240579e-12
3.2601616e-09
-6.3531255e-12
3.2602226e-09
6.0050304e-12
3.2601649e-09
-5.6811736e-12
3.2602195e-09
5.3756646e-12
3.2601679e-09
-5.092733e-12
3.2602168e-09
4.8258375e-12
3.2601705e-09
-4.5792056e-12
3.2602145e-09
4.3470606e-12
3.2601727e-09
-4.1329426e-12
3.2602125e-09
3.9320798e-12
3.2601746e-09
-3.747272e-12
3.2602107e-09
3.5746654e-12
3.2601762e-09
-3.41643e-12
3.2602093e-09
3.2694729e-12
3.2601776e-09
-3.1354672e-12
3.260208e-09
3.0119298e-12
3.2601788e-09
-2.9001504e-12
3.260207e-09
2.7981185e-12
3.2601797e-09
-2.7068881e-12
3.2602062e-09
2.6245683e-12
3.2601805e-09
-2.5524831e-12
3.2602056e-09
2.4890764e-12
3.2601809e-09
-2.4294963e-12
3.2602047e-09
2.3976877e-12
3.2601798e-09
-2.3379624e-12
3.2602041e-09
2.2196502e-12
3.2601889e-09
-2.9153077e-12
1.9409821e-12
3.2261777e-09
2.3281702e-08
3.2966898e-09
-2.6191111e-09
3.3535902e-09
1.095458e-09
3.3590655e-09
-8.4569694e-11
3.3665779e-09
-3.6225456e-11
3.3695784e-09
1.0766723e-11
3.3692403e-09
1.7914078e-11
3.3709449e-09
-6.3327402e-13
3.3701945e-09
-6.99905e-12
3.3707905e-09
8.856651e-12
3.370531e-09
-1.1588831e-11
3.3707344e-09
1.1687448e-11
3.3705444e-09
-1.0912869e-11
3.3707066e-09
1.0683701e-11
3.3705434e-09
-9.8512275e-12
3.3706908e-09
9.4298971e-12
3.3705485e-09
-8.8115952e-12
3.3706806e-09
8.3549229e-12
3.370555e-09
-7.8579247e-12
3.3706729e-09
7.4275668e-12
3.3705614e-09
-7.0062572e-12
3.3706665e-09
6.6189426e-12
3.3705671e-09
-6.2538002e-12
3.370661e-09
5.9111935e-12
3.3705723e-09
-5.5924626e-12
3.3706562e-09
5.2917129e-12
3.3705768e-09
-5.0132728e-12
3.3706521e-09
4.7505169e-12
3.3705807e-09
-4.5077988e-12
3.3706485e-09
4.2792498e-12
3.3705841e-09
-4.0685259e-12
3.3706454e-09
3.8707748e-12
3.370587e-09
-3.6888939e-12
3.3706427e-09
3.5189632e-12
3.3705895e-09
-3.3632323e-12
3.3706404e-09
3.2185553e-12
3.3705916e-09
-3.0866695e-12
3.3706385e-09
2.9650495e-12
3.3705934e-09
-2.8550362e-12