/*--------------------------------*- C++ -*----------------------------------*\
| =========                 |                                                 |
| \\      /  F ield         | OpenFOAM: The Open Source CFD Toolbox           |
|  \\    /   O peration     | Version:  2312                                  |
|   \\  /    A nd           | Website:  www.openfoam.com                      |
|    \\/     M anipulation  |                                                 |
\*---------------------------------------------------------------------------*/
FoamFile
{
    version     2.0;
    format      ascii;
    arch        "LSB;label=32;scalar=64";
    class       volSymmTensorField;
    location    "8";
    object      sigma;
}
// * * * * * * * * * * * * * * * * * * * * * * * * * * * * * * * * * * * * * //

dimensions      [0 2 -2 0 0 0 0];

internalField   nonuniform List<symmTensor> 
4000
(
(-2.2595511 -1.0097485 0 -0.4071086 0 0)
(-5.6651429 -0.44144745 0 -0.0029429509 0 0)
(-2.9238117 -0.31332776 0 -0.00086277458 0 0)
(-3.1198645 -0.32240002 0 1.1342979e-05 0 0)
(-2.93596 -0.3126777 0 2.1033699e-05 0 0)
(-3.0381673 -0.31849436 0 -5.4372189e-05 0 0)
(-2.920169 -0.31179986 0 3.4958789e-05 0 0)
(-3.0028552 -0.31658151 0 -4.3055182e-05 0 0)
(-2.9229605 -0.311954 0 3.8487801e-05 0 0)
(-2.9938673 -0.31608533 0 -3.7698916e-05 0 0)
(-2.9273441 -0.31220634 0 3.5269306e-05 0 0)
(-2.9890785 -0.31581319 0 -3.3557222e-05 0 0)
(-2.9309653 -0.31241738 0 3.150845e-05 0 0)
(-2.9853673 -0.31559946 0 -2.9805859e-05 0 0)
(-2.9341557 -0.31260386 0 2.8030756e-05 0 0)
(-2.9822019 -0.31541622 0 -2.6464878e-05 0 0)
(-2.9370274 -0.3127717 0 2.4920634e-05 0 0)
(-2.9794247 -0.31525511 0 -2.3518774e-05 0 0)
(-2.9395997 -0.31292199 0 2.2167523e-05 0 0)
(-2.9769671 -0.3151124 0 -2.0926183e-05 0 0)
(-2.9418946 -0.31305601 0 1.9741377e-05 0 0)
(-2.9747854 -0.31498566 0 -1.8647999e-05 0 0)
(-2.9439396 -0.31317535 0 1.76095e-05 0 0)
(-2.9728448 -0.31487294 0 -1.6649693e-05 0 0)
(-2.9457629 -0.31328165 0 1.5740832e-05 0 0)
(-2.9711151 -0.31477254 0 -1.4900713e-05 0 0)
(-2.9473911 -0.31337643 0 1.4107153e-05 0 0)
(-2.9695699 -0.31468294 0 -1.3374103e-05 0 0)
(-2.9488487 -0.31346113 0 1.26834e-05 0 0)
(-2.9681852 -0.31460278 0 -1.2046264e-05 0 0)
(-2.9501578 -0.31353703 0 1.1447649e-05 0 0)
(-2.9669398 -0.31453083 0 -1.0896723e-05 0 0)
(-2.9513381 -0.31360528 0 1.038094e-05 0 0)
(-2.9658148 -0.31446601 0 -9.907881e-06 0 0)
(-2.9524075 -0.31366691 0 9.4670354e-06 0 0)
(-2.9647932 -0.31440733 0 -9.0647464e-06 0 0)
(-2.9533818 -0.31372285 0 8.6921763e-06 0 0)
(-2.9638596 -0.31435391 0 -8.3546984e-06 0 0)
(-2.9542755 -0.31377393 0 8.0448649e-06 0 0)
(-2.9630001 -0.31430497 0 -7.7672904e-06 0 0)
(-2.9551018 -0.31382091 0 7.5157181e-06 0 0)
(-2.9622022 -0.31425977 0 -7.2941743e-06 0 0)
(-2.9558729 -0.31386448 0 7.0973307e-06 0 0)
(-2.9614539 -0.31421766 0 -6.9295482e-06 0 0)
(-2.9565987 -0.31390522 0 6.7843089e-06 0 0)
(-2.9607418 -0.31417788 0 -6.6685362e-06 0 0)
(-2.9572911 -0.31394368 0 6.590187e-06 0 0)
(-2.9600899 -0.31414143 0 -6.4573133e-06 0 0)
(-2.958132 -0.31398874 0 6.6867238e-06 0 0)
(-2.9600735 -0.31414023 0 -6.4818772e-06 0 0)
(-1.9585625 -0.91653495 0 -0.38058358 0 0)
(-4.875065 -0.42182956 0 -0.00808611 0 0)
(-2.9865402 -0.32147997 0 -0.0025842314 0 0)
(-2.8815424 -0.30956533 0 -2.2198838e-05 0 0)
(-2.7210999 -0.3010643 0 -6.3058602e-06 0 0)
(-2.8097405 -0.30646501 0 -7.4574592e-05 0 0)
(-2.7109834 -0.30037641 0 1.9170469e-05 0 0)
(-2.7793782 -0.30466605 0 -4.9023332e-05 0 0)
(-2.7115616 -0.30037677 0 3.9350169e-05 0 0)
(-2.7715489 -0.30420195 0 -4.100457e-05 0 0)
(-2.7150803 -0.30059671 0 3.7972443e-05 0 0)
(-2.767505 -0.30395335 0 -3.66111e-05 0 0)
(-2.7181292 -0.3007914 0 3.4200366e-05 0 0)
(-2.764349 -0.3037548 0 -3.2521814e-05 0 0)
(-2.7208304 -0.30096475 0 3.0496262e-05 0 0)
(-2.7616485 -0.30358367 0 -2.8850236e-05 0 0)
(-2.7232659 -0.30112104 0 2.7134193e-05 0 0)
(-2.7592809 -0.30343329 0 -2.5626429e-05 0 0)
(-2.7254484 -0.30126098 0 2.4143887e-05 0 0)
(-2.7571875 -0.30330021 0 -2.2797847e-05 0 0)
(-2.7273958 -0.30138574 0 2.1504687e-05 0 0)
(-2.7553299 -0.30318209 0 -2.031569e-05 0 0)
(-2.7291314 -0.30149682 0 1.9184524e-05 0 0)
(-2.7536777 -0.30307707 0 -1.8139764e-05 0 0)
(-2.7306792 -0.30159575 0 1.7150581e-05 0 0)
(-2.752205 -0.30298353 0 -1.623582e-05 0 0)
(-2.732062 -0.30168398 0 1.5372391e-05 0 0)
(-2.7508889 -0.30290004 0 -1.4574156e-05 0 0)
(-2.7333004 -0.30176284 0 1.3822749e-05 0 0)
(-2.749709 -0.30282532 0 -1.3128988e-05 0 0)
(-2.7344133 -0.30183354 0 1.247785e-05 0 0)
(-2.7486474 -0.30275823 0 -1.1878051e-05 0 0)
(-2.7354174 -0.30189713 0 1.1317137e-05 0 0)
(-2.7476878 -0.30269776 0 -1.0802271e-05 0 0)
(-2.7363278 -0.30195458 0 1.0323051e-05 0 0)
(-2.7468158 -0.302643 0 -9.8854611e-06 0 0)
(-2.7371579 -0.30200676 0 9.4807736e-06 0 0)
(-2.7460185 -0.30259313 0 -9.1140762e-06 0 0)
(-2.7379202 -0.30205443 0 8.7780313e-06 0 0)
(-2.7452839 -0.30254741 0 -8.4770458e-06 0 0)
(-2.7386256 -0.3020983 0 8.2050269e-06 0 0)
(-2.7446012 -0.30250518 0 -7.9658287e-06 0 0)
(-2.7392848 -0.30213901 0 7.7543424e-06 0 0)
(-2.7439603 -0.30246581 0 -7.5758762e-06 0 0)
(-2.7399065 -0.30217711 0 7.4203382e-06 0 0)
(-2.7433492 -0.30242859 0 -7.3051346e-06 0 0)
(-2.7404972 -0.30221283 0 7.2376233e-06 0 0)
(-2.7427709 -0.30239308 0 -7.0249694e-06 0 0)
(-2.7411675 -0.30225006 0 7.7099949e-06 0 0)
(-2.7426376 -0.30238467 0 -6.9679408e-06 0 0)
(-1.862385 -0.87131705 0 -0.35413441 0 0)
(-4.2772739 -0.39443938 0 -0.0095613244 0 0)
(-2.9001287 -0.32076801 0 -0.0038771978 0 0)
(-2.7513562 -0.3024507 0 -0.00012107202 0 0)
(-2.5822307 -0.29327142 0 -2.814865e-05 0 0)
(-2.661394 -0.29837511 0 -8.5666717e-05 0 0)
(-2.5742493 -0.29268309 0 3.1553114e-06 0 0)
(-2.6349066 -0.29670049 0 -4.9702021e-05 0 0)
(-2.5742951 -0.29262554 0 3.5796831e-05 0 0)
(-2.627768 -0.29625315 0 -3.9435051e-05 0 0)
(-2.5773481 -0.29282831 0 3.6190517e-05 0 0)
(-2.6241512 -0.29601888 0 -3.5249738e-05 0 0)
(-2.5800663 -0.29301331 0 3.2778058e-05 0 0)
(-2.6213352 -0.29583055 0 -3.1307748e-05 0 0)
(-2.5824794 -0.29317832 0 2.9276148e-05 0 0)
(-2.6189225 -0.29566773 0 -2.7748437e-05 0 0)
(-2.5846551 -0.29332707 0 2.6065656e-05 0 0)
(-2.6168081 -0.29552469 0 -2.463617e-05 0 0)
(-2.5866049 -0.29346025 0 2.3198901e-05 0 0)
(-2.6149396 -0.29539817 0 -2.1912716e-05 0 0)
(-2.5883446 -0.29357896 0 2.0665062e-05 0 0)
(-2.6132821 -0.29528592 0 -1.9525633e-05 0 0)
(-2.5898952 -0.29368463 0 1.8436383e-05 0 0)
(-2.611808 -0.29518612 0 -1.7434058e-05 0 0)
(-2.5912781 -0.29377875 0 1.6482271e-05 0 0)
(-2.6104941 -0.29509722 0 -1.5604244e-05 0 0)
(-2.5925137 -0.29386271 0 1.477372e-05 0 0)
(-2.6093197 -0.29501786 0 -1.4007349e-05 0 0)
(-2.5936206 -0.29393777 0 1.3284674e-05 0 0)
(-2.6082667 -0.29494681 0 -1.2618509e-05 0 0)
(-2.5946155 -0.29400508 0 1.1992316e-05 0 0)
(-2.607319 -0.294883 0 -1.1416338e-05 0 0)
(-2.5955134 -0.29406565 0 1.087696e-05 0 0)
(-2.6064622 -0.29482545 0 -1.0382564e-05 0 0)
(-2.5963276 -0.29412039 0 9.9218274e-06 0 0)
(-2.6056834 -0.29477332 0 -9.5017382e-06 0 0)
(-2.5970702 -0.29417013 0 9.112815e-06 0 0)
(-2.604971 -0.29472581 0 -8.7610043e-06 0 0)
(-2.5977523 -0.29421559 0 8.4383391e-06 0 0)
(-2.6043145 -0.29468223 0 -8.1499917e-06 0 0)
(-2.5983837 -0.29425746 0 7.8893662e-06 0 0)
(-2.6037041 -0.29464194 0 -7.660985e-06 0 0)
(-2.598974 -0.29429633 0 7.4594279e-06 0 0)
(-2.6031307 -0.29460436 0 -7.2911384e-06 0 0)
(-2.599531 -0.29433276 0 7.143424e-06 0 0)
(-2.6025834 -0.29456882 0 -7.0429078e-06 0 0)
(-2.6000599 -0.29436686 0 6.9856973e-06 0 0)
(-2.6020602 -0.29453439 0 -6.7558941e-06 0 0)
(-2.6006467 -0.29440045 0 7.6931022e-06 0 0)
(-2.6018828 -0.29452446 0 -7.1345506e-06 0 0)
(-1.7710842 -0.81854946 0 -0.32205815 0 0)
(-3.8635938 -0.37740953 0 -0.011284037 0 0)
(-2.7977977 -0.31988653 0 -0.0053543865 0 0)
(-2.6281412 -0.29558407 0 -0.00022623133 0 0)
(-2.4496986 -0.28563131 0 -6.3927986e-05 0 0)
(-2.5181369 -0.29029965 0 -9.523776e-05 0 0)
(-2.4405008 -0.28498414 0 -1.7440747e-05 0 0)
(-2.4948668 -0.2887392 0 -4.6634932e-05 0 0)
(-2.4401663 -0.28487506 0 2.8540114e-05 0 0)
(-2.4883196 -0.28830758 0 -3.4404643e-05 0 0)
(-2.4428257 -0.28506033 0 3.1197482e-05 0 0)
(-2.485045 -0.28808702 0 -3.0842128e-05 0 0)
(-2.4452664 -0.28523552 0 2.8493708e-05 0 0)
(-2.482504 -0.28790865 0 -2.7394324e-05 0 0)
(-2.447441 -0.28539212 0 2.5512156e-05 0 0)
(-2.480324 -0.28775393 0 -2.4248038e-05 0 0)
(-2.4494014 -0.28553329 0 2.2737291e-05 0 0)
(-2.4784137 -0.28761803 0 -2.1513343e-05 0 0)
(-2.451158 -0.28565965 0 2.024461e-05 0 0)
(-2.4767264 -0.28749789 0 -1.9129978e-05 0 0)
(-2.4527255 -0.28577228 0 1.8036486e-05 0 0)
(-2.4752301 -0.28739131 0 -1.7044734e-05 0 0)
(-2.4541226 -0.28587254 0 1.6092725e-05 0 0)
(-2.4738995 -0.28729656 0 -1.5218899e-05 0 0)
(-2.4553687 -0.28596186 0 1.4387868e-05 0 0)
(-2.4727136 -0.28721215 0 -1.3621897e-05 0 0)
(-2.4564823 -0.28604155 0 1.2896959e-05 0 0)
(-2.4716536 -0.28713677 0 -1.2228169e-05 0 0)
(-2.45748 -0.28611282 0 1.1597383e-05 0 0)
(-2.4707033 -0.28706927 0 -1.1015916e-05 0 0)
(-2.4583768 -0.28617675 0 1.046931e-05 0 0)
(-2.4698479 -0.28700862 0 -9.9664939e-06 0 0)
(-2.4591862 -0.28623431 0 9.495644e-06 0 0)
(-2.4690747 -0.28695389 0 -9.0640294e-06 0 0)
(-2.4599202 -0.28628636 0 8.6618414e-06 0 0)
(-2.4683719 -0.28690429 0 -8.2951385e-06 0 0)
(-2.4605897 -0.28633368 0 7.9557133e-06 0 0)
(-2.4677291 -0.28685906 0 -7.6487392e-06 0 0)
(-2.4612045 -0.28637696 0 7.3673174e-06 0 0)
(-2.4671368 -0.28681755 0 -7.1159802e-06 0 0)
(-2.4617737 -0.28641684 0 6.8890543e-06 0 0)
(-2.4665862 -0.28677914 0 -6.6904732e-06 0 0)
(-2.4623057 -0.28645391 0 6.5156893e-06 0 0)
(-2.4660692 -0.28674328 0 -6.3710761e-06 0 0)
(-2.4628079 -0.28648869 0 6.242137e-06 0 0)
(-2.4655758 -0.28670936 0 -6.1635528e-06 0 0)
(-2.463284 -0.28652123 0 6.1205469e-06 0 0)
(-2.4650993 -0.28667595 0 -5.8618026e-06 0 0)
(-2.4637981 -0.28655142 0 7.0700063e-06 0 0)
(-2.4648815 -0.28666411 0 -6.5719415e-06 0 0)
(-1.7255476 -0.78928417 0 -0.30411743 0 0)
(-3.4468744 -0.35904158 0 -0.012681856 0 0)
(-2.6563729 -0.31622128 0 -0.0066427767 0 0)
(-2.5046889 -0.2886995 0 -0.00033273368 0 0)
(-2.3234818 -0.27811429 0 -0.0001065441 0 0)
(-2.3797812 -0.28224821 0 -0.00010616272 0 0)
(-2.3100109 -0.27726053 0 -3.5833389e-05 0 0)
(-2.3589858 -0.28078565 0 -4.3512991e-05 0 0)
(-2.309333 -0.27711485 0 2.1743053e-05 0 0)
(-2.3529377 -0.28036915 0 -2.9496496e-05 0 0)
(-2.3116567 -0.27728495 0 2.6430481e-05 0 0)
(-2.3499496 -0.28016102 0 -2.6555176e-05 0 0)
(-2.3138584 -0.27745131 0 2.4358549e-05 0 0)
(-2.3476447 -0.27999191 0 -2.3595701e-05 0 0)
(-2.3158297 -0.27760026 0 2.1868107e-05 0 0)
(-2.3456658 -0.27984478 0 -2.0853974e-05 0 0)
(-2.3176065 -0.27773446 0 1.9513332e-05 0 0)
(-2.3439316 -0.27971553 0 -1.8486853e-05 0 0)
(-2.3191983 -0.27785456 0 1.7382849e-05 0 0)
(-2.3424004 -0.27960132 0 -1.6433673e-05 0 0)
(-2.3206186 -0.2779616 0 1.5490206e-05 0 0)
(-2.3410428 -0.27950001 0 -1.4641069e-05 0 0)
(-2.3218845 -0.27805689 0 1.3822333e-05 0 0)
(-2.3398359 -0.27940995 0 -1.3072666e-05 0 0)
(-2.3230138 -0.27814179 0 1.2358752e-05 0 0)
(-2.3387602 -0.2793297 0 -1.1701081e-05 0 0)
(-2.324023 -0.27821756 0 1.1078464e-05 0 0)
(-2.3377987 -0.27925802 0 -1.0504001e-05 0 0)
(-2.3249273 -0.27828534 0 9.9622126e-06 0 0)
(-2.3369368 -0.27919381 0 -9.4626258e-06 0 0)
(-2.3257402 -0.27834617 0 8.9930614e-06 0 0)
(-2.336161 -0.27913609 0 -8.5609686e-06 0 0)
(-2.3264738 -0.27840095 0 8.1564131e-06 0 0)
(-2.3354599 -0.279084 0 -7.7854586e-06 0 0)
(-2.327139 -0.2784505 0 7.4398557e-06 0 0)
(-2.3348227 -0.27903676 0 -7.1246769e-06 0 0)
(-2.3277457 -0.27849557 0 6.833005e-06 0 0)
(-2.3342402 -0.27899368 0 -6.5691953e-06 0 0)
(-2.3283027 -0.27853682 0 6.3274244e-06 0 0)
(-2.3337035 -0.27895411 0 -6.1115271e-06 0 0)
(-2.3288181 -0.27857484 0 5.9167547e-06 0 0)
(-2.3332049 -0.27891747 0 -5.7463598e-06 0 0)
(-2.3292997 -0.2786102 0 5.5966848e-06 0 0)
(-2.3327368 -0.27888326 0 -5.4736717e-06 0 0)
(-2.3297543 -0.27864342 0 5.3615404e-06 0 0)
(-2.3322905 -0.27885088 0 -5.3016054e-06 0 0)
(-2.3301846 -0.27867451 0 5.265897e-06 0 0)
(-2.3318567 -0.27881859 0 -4.9839537e-06 0 0)
(-2.3306383 -0.27870196 0 6.3864512e-06 0 0)
(-2.3316137 -0.27880526 0 -5.9523936e-06 0 0)
(-1.6438766 -0.73647797 0 -0.27273291 0 0)
(-3.0533935 -0.33973706 0 -0.01330772 0 0)
(-2.5000586 -0.31103878 0 -0.0077373504 0 0)
(-2.3778204 -0.28154593 0 -0.00042604296 0 0)
(-2.2012759 -0.27061968 0 -0.00015363002 0 0)
(-2.2458608 -0.27420566 0 -0.00011771519 0 0)
(-2.1828443 -0.2695108 0 -5.0931577e-05 0 0)
(-2.2270764 -0.27283309 0 -4.0739869e-05 0 0)
(-2.181921 -0.26934692 0 1.6172077e-05 0 0)
(-2.2214908 -0.27243484 0 -2.5343569e-05 0 0)
(-2.1839633 -0.26950486 0 2.2526457e-05 0 0)
(-2.2187612 -0.27223894 0 -2.2981186e-05 0 0)
(-2.185954 -0.2696632 0 2.0937444e-05 0 0)
(-2.2166677 -0.27207875 0 -2.0443019e-05 0 0)
(-2.1877452 -0.26980501 0 1.8845612e-05 0 0)
(-2.2148688 -0.27193886 0 -1.8039115e-05 0 0)
(-2.1893589 -0.26993262 0 1.6839481e-05 0 0)
(-2.2132919 -0.27181594 0 -1.5977152e-05 0 0)
(-2.190804 -0.27004679 0 1.5010089e-05 0 0)
(-2.2118997 -0.27170733 0 -1.4197947e-05 0 0)
(-2.1920933 -0.27014854 0 1.3379375e-05 0 0)
(-2.2106657 -0.27161101 0 -1.2648101e-05 0 0)
(-2.1932427 -0.27023913 0 1.194032e-05 0 0)
(-2.2095687 -0.27152538 0 -1.1293168e-05 0 0)
(-2.194268 -0.27031985 0 1.0676722e-05 0 0)
(-2.2085909 -0.27144906 0 -1.0108442e-05 0 0)
(-2.1951845 -0.2703919 0 9.5709455e-06 0 0)
(-2.2077171 -0.27138087 0 -9.0743349e-06 0 0)
(-2.1960058 -0.27045639 0 8.6065572e-06 0 0)
(-2.2069337 -0.27131977 0 -8.1745541e-06 0 0)
(-2.196744 -0.27051426 0 7.7690404e-06 0 0)
(-2.2062287 -0.27126484 0 -7.3953228e-06 0 0)
(-2.1974103 -0.27056641 0 7.0458664e-06 0 0)
(-2.2055916 -0.27121525 0 -6.7249739e-06 0 0)
(-2.1980144 -0.2706136 0 6.4263791e-06 0 0)
(-2.2050128 -0.27117026 0 -6.1537006e-06 0 0)
(-2.1985652 -0.27065652 0 5.9016658e-06 0 0)
(-2.2044837 -0.27112921 0 -5.6734155e-06 0 0)
(-2.1990708 -0.27069582 0 5.4644979e-06 0 0)
(-2.2039965 -0.27109149 0 -5.2777121e-06 0 0)
(-2.1995385 -0.27073207 0 5.1094736e-06 0 0)
(-2.2035439 -0.27105657 0 -4.9620686e-06 0 0)
(-2.1999754 -0.2707658 0 4.8329236e-06 0 0)
(-2.2031194 -0.27102393 0 -4.727155e-06 0 0)
(-2.2003875 -0.2707975 0 4.6283344e-06 0 0)
(-2.202715 -0.27099304 0 -4.5829073e-06 0 0)
(-2.2007773 -0.27082719 0 4.5499609e-06 0 0)
(-2.2023198 -0.27096191 0 -4.248314e-06 0 0)
(-2.2011786 -0.27085232 0 5.7861993e-06 0 0)
(-2.2020615 -0.27094729 0 -5.3930382e-06 0 0)
(-1.6092642 -0.70937807 0 -0.25692496 0 0)
(-2.6927396 -0.3242182 0 -0.014790554 0 0)
(-2.3325167 -0.30423246 0 -0.0085924839 0 0)
(-2.2441479 -0.27416307 0 -0.00059260228 0 0)
(-2.0835203 -0.26336475 0 -0.00024171389 0 0)
(-2.1172291 -0.26626919 0 -0.00013889186 0 0)
(-2.0596237 -0.26178457 0 -6.6842216e-05 0 0)
(-2.0993627 -0.26489772 0 -3.8898949e-05 0 0)
(-2.0581265 -0.26158098 0 1.1273853e-05 0 0)
(-2.093991 -0.26450626 0 -2.1807538e-05 0 0)
(-2.0598217 -0.26172296 0 1.9231437e-05 0 0)
(-2.0914476 -0.26431991 0 -1.9931818e-05 0 0)
(-2.0616005 -0.26187277 0 1.8034775e-05 0 0)
(-2.0895355 -0.26416795 0 -1.7760128e-05 0 0)
(-2.063225 -0.26200756 0 1.6275096e-05 0 0)
(-2.087898 -0.26403502 0 -1.5645513e-05 0 0)
(-2.0646909 -0.26212881 0 1.4565355e-05 0 0)
(-2.0864632 -0.2639182 0 -1.3843346e-05 0 0)
(-2.0660036 -0.26223727 0 1.2992483e-05 0 0)
(-2.0851967 -0.263815 0 -1.2297163e-05 0 0)
(-2.0671749 -0.26233392 0 1.1584718e-05 0 0)
(-2.0840742 -0.26372348 0 -1.0953729e-05 0 0)
(-2.0682191 -0.26241998 0 1.034027e-05 0 0)
(-2.0830763 -0.2636421 0 -9.7802616e-06 0 0)
(-2.0691509 -0.26249669 0 9.2466747e-06 0 0)
(-2.0821869 -0.26356956 0 -8.7543537e-06 0 0)
(-2.0699838 -0.26256518 0 8.2892178e-06 0 0)
(-2.0813921 -0.26350473 0 -7.8587549e-06 0 0)
(-2.0707302 -0.26262649 0 7.453895e-06 0 0)
(-2.0806795 -0.26344663 0 -7.0793157e-06 0 0)
(-2.0714013 -0.26268153 0 6.7282555e-06 0 0)
(-2.0800383 -0.26339437 0 -6.4041404e-06 0 0)
(-2.0720069 -0.26273114 0 6.1015282e-06 0 0)
(-2.0794589 -0.26334719 0 -5.8231739e-06 0 0)
(-2.0725559 -0.26277604 0 5.5645411e-06 0 0)
(-2.0789327 -0.26330436 0 -5.3279688e-06 0 0)
(-2.0730565 -0.2628169 0 5.1096182e-06 0 0)
(-2.0784517 -0.26326528 0 -4.9115603e-06 0 0)
(-2.0735158 -0.26285432 0 4.7305365e-06 0 0)
(-2.0780089 -0.26322936 0 -4.5684336e-06 0 0)
(-2.0739407 -0.26288885 0 4.4226734e-06 0 0)
(-2.0775978 -0.26319608 0 -4.2946904e-06 0 0)
(-2.0743374 -0.26292099 0 4.1828559e-06 0 0)
(-2.0772123 -0.26316497 0 -4.0914544e-06 0 0)
(-2.0747115 -0.26295123 0 4.00375e-06 0 0)
(-2.0768455 -0.26313553 0 -3.9702125e-06 0 0)
(-2.075065 -0.26297957 0 3.9376986e-06 0 0)
(-2.0764854 -0.2631056 0 -3.6218449e-06 0 0)
(-2.0754206 -0.2630027 0 5.244997e-06 0 0)
(-2.0762196 -0.26308991 0 -4.8847278e-06 0 0)
(-1.5673608 -0.67555785 0 -0.23575047 0 0)
(-2.3490622 -0.30755052 0 -0.015577868 0 0)
(-2.1784153 -0.29733486 0 -0.0090562061 0 0)
(-2.0975474 -0.26558262 0 -0.00076059538 0 0)
(-1.9558691 -0.25537579 0 -0.00031243802 0 0)
(-1.9893131 -0.25818223 0 -0.00015698152 0 0)
(-1.9382184 -0.25397562 0 -7.9373412e-05 0 0)
(-1.9749137 -0.25693977 0 -3.6858294e-05 0 0)
(-1.9375795 -0.25380095 0 7.1403602e-06 0 0)
(-1.9702465 -0.25657642 0 -1.8570436e-05 0 0)
(-1.9391856 -0.25393691 0 1.6377053e-05 0 0)
(-1.9679581 -0.25640253 0 -1.7201678e-05 0 0)
(-1.9408066 -0.25407985 0 1.5477111e-05 0 0)
(-1.9662241 -0.25625906 0 -1.5375628e-05 0 0)
(-1.9422853 -0.2542081 0 1.3998737e-05 0 0)
(-1.9647357 -0.25613299 0 -1.3522811e-05 0 0)
(-1.9436182 -0.25432325 0 1.2549747e-05 0 0)
(-1.9634304 -0.2560221 0 -1.1952023e-05 0 0)
(-1.9448113 -0.25442619 0 1.1204155e-05 0 0)
(-1.9622781 -0.25592412 0 -1.0612546e-05 0 0)
(-1.9458757 -0.25451793 0 9.9940338e-06 0 0)
(-1.9612567 -0.25583723 0 -9.4520357e-06 0 0)
(-1.9468247 -0.25459963 0 8.9220437e-06 0 0)
(-1.9603488 -0.25575995 0 -8.43933e-06 0 0)
(-1.9476717 -0.25467247 0 7.9790695e-06 0 0)
(-1.9595395 -0.25569105 0 -7.5541082e-06 0 0)
(-1.948429 -0.25473752 0 7.1530172e-06 0 0)
(-1.9588162 -0.25562946 0 -6.7812117e-06 0 0)
(-1.9491077 -0.25479577 0 6.4320507e-06 0 0)
(-1.9581678 -0.25557425 0 -6.1083958e-06 0 0)
(-1.9497179 -0.25484808 0 5.8055518e-06 0 0)
(-1.9575844 -0.25552458 0 -5.5254285e-06 0 0)
(-1.9502686 -0.25489523 0 5.2643018e-06 0 0)
(-1.9570573 -0.25547971 0 -5.0236757e-06 0 0)
(-1.9507679 -0.25493793 0 4.8004352e-06 0 0)
(-1.9565785 -0.25543899 0 -4.5958838e-06 0 0)
(-1.951223 -0.25497679 0 4.4073609e-06 0 0)
(-1.9561411 -0.25540181 0 -4.2360704e-06 0 0)
(-1.9516405 -0.2550124 0 4.0797325e-06 0 0)
(-1.9557385 -0.25536763 0 -3.9394943e-06 0 0)
(-1.9520266 -0.25504526 0 3.8135968e-06 0 0)
(-1.9553649 -0.25533594 0 -3.7027825e-06 0 0)
(-1.952387 -0.25507586 0 3.6061995e-06 0 0)
(-1.9550147 -0.25530631 0 -3.527364e-06 0 0)
(-1.9527269 -0.25510468 0 3.4495068e-06 0 0)
(-1.9546817 -0.25527828 0 -3.4260869e-06 0 0)
(-1.9530477 -0.25513171 0 3.3930523e-06 0 0)
(-1.9543537 -0.25524958 0 -3.0681936e-06 0 0)
(-1.9533631 -0.25515312 0 4.735668e-06 0 0)
(-1.954086 -0.255233 0 -4.4085975e-06 0 0)
(-1.567234 -0.63224812 0 -0.20385746 0 0)
(-2.0493074 -0.2921783 0 -0.016036525 0 0)
(-2.0230469 -0.286643 0 -0.0085323536 0 0)
(-1.9630552 -0.25977186 0 -0.0015528793 0 0)
(-1.8397351 -0.24824187 0 -0.00050444788 0 0)
(-1.8678914 -0.25028319 0 -0.00019310425 0 0)
(-1.8215852 -0.24623484 0 -9.5962068e-05 0 0)
(-1.8548365 -0.24900951 0 -3.5864247e-05 0 0)
(-1.8208011 -0.24602823 0 3.1959986e-06 0 0)
(-1.8504391 -0.2486536 0 -1.5686957e-05 0 0)
(-1.8221569 -0.24615012 0 1.3825943e-05 0 0)
(-1.8483107 -0.24848823 0 -1.4736044e-05 0 0)
(-1.8236027 -0.24628503 0 1.3184513e-05 0 0)
(-1.8467251 -0.24835234 0 -1.3225722e-05 0 0)
(-1.8249428 -0.24640672 0 1.1952208e-05 0 0)
(-1.8453699 -0.24823281 0 -1.1611874e-05 0 0)
(-1.8261539 -0.24651595 0 1.0736339e-05 0 0)
(-1.8441823 -0.24812763 0 -1.0250184e-05 0 0)
(-1.8272379 -0.24661357 0 9.595042e-06 0 0)
(-1.8431338 -0.2480347 0 -9.0968147e-06 0 0)
(-1.8282052 -0.24670058 0 8.5626943e-06 0 0)
(-1.8422045 -0.24795226 0 -8.1008268e-06 0 0)
(-1.8290679 -0.24677808 0 7.6458009e-06 0 0)
(-1.8413783 -0.24787893 0 -7.2326727e-06 0 0)
(-1.8298379 -0.2468472 0 6.8382737e-06 0 0)
(-1.8406418 -0.24781353 0 -6.4739512e-06 0 0)
(-1.8305264 -0.24690894 0 6.1303965e-06 0 0)
(-1.8399836 -0.24775506 0 -5.8113997e-06 0 0)
(-1.8311436 -0.24696424 0 5.5122904e-06 0 0)
(-1.8393936 -0.24770263 0 -5.234488e-06 0 0)
(-1.8316986 -0.24701391 0 4.9749828e-06 0 0)
(-1.8388627 -0.24765545 0 -4.7344742e-06 0 0)
(-1.8321994 -0.2470587 0 4.5106437e-06 0 0)
(-1.8383831 -0.24761283 0 -4.3039935e-06 0 0)
(-1.8326534 -0.24709927 0 4.1125736e-06 0 0)
(-1.8379475 -0.24757413 0 -3.9368561e-06 0 0)
(-1.8330672 -0.2471362 0 3.775147e-06 0 0)
(-1.8375497 -0.24753879 0 -3.6279523e-06 0 0)
(-1.8334469 -0.24717005 0 3.4937945e-06 0 0)
(-1.8371836 -0.24750629 0 -3.3732239e-06 0 0)
(-1.8337978 -0.2472013 0 3.2651479e-06 0 0)
(-1.8368439 -0.24747615 0 -3.1697508e-06 0 0)
(-1.8341253 -0.24723041 0 3.086816e-06 0 0)
(-1.8365257 -0.24744795 0 -3.0191521e-06 0 0)
(-1.834434 -0.24725785 0 2.9502104e-06 0 0)
(-1.8362235 -0.24742128 0 -2.9354169e-06 0 0)
(-1.8347254 -0.24728362 0 2.9014963e-06 0 0)
(-1.8359248 -0.24739382 0 -2.5722426e-06 0 0)
(-1.8350053 -0.24730352 0 4.249294e-06 0 0)
(-1.8356593 -0.24737655 0 -3.9604824e-06 0 0)
(-1.5810543 -0.60746162 0 -0.18586493 0 0)
(-1.8131908 -0.27981775 0 -0.016886116 0 0)
(-1.8716134 -0.2738989 0 -0.0076490006 0 0)
(-1.826667 -0.25235701 0 -0.00201292 0 0)
(-1.7210876 -0.24044485 0 -0.00060944304 0 0)
(-1.7485888 -0.24222937 0 -0.0002102351 0 0)
(-1.7074416 -0.23841203 0 -0.00010386223 0 0)
(-1.7381492 -0.2410546 0 -3.2924865e-05 0 0)
(-1.7073639 -0.23824051 0 3.5203141e-07 0 0)
(-1.7343634 -0.240729 0 -1.284785e-05 0 0)
(-1.7086697 -0.23835897 0 1.1625461e-05 0 0)
(-1.7324564 -0.24057551 0 -1.2472597e-05 0 0)
(-1.7099882 -0.2384877 0 1.1134204e-05 0 0)
(-1.7310194 -0.24044754 0 -1.1276529e-05 0 0)
(-1.7112073 -0.23860333 0 1.0108424e-05 0 0)
(-1.7297883 -0.24033443 0 -9.8851125e-06 0 0)
(-1.7123081 -0.2387069 0 9.0999801e-06 0 0)
(-1.7287086 -0.24023478 0 -8.7136367e-06 0 0)
(-1.7132931 -0.23879942 0 8.1425115e-06 0 0)
(-1.727755 -0.2401467 0 -7.7284658e-06 0 0)
(-1.714172 -0.23888188 0 7.2704653e-06 0 0)
(-1.7269096 -0.24006855 0 -6.8809319e-06 0 0)
(-1.7149559 -0.23895535 0 6.4934685e-06 0 0)
(-1.726158 -0.23999901 0 -6.1431706e-06 0 0)
(-1.7156558 -0.23902088 0 5.8081286e-06 0 0)
(-1.725488 -0.23993699 0 -5.4985667e-06 0 0)
(-1.7162817 -0.23907945 0 5.2068785e-06 0 0)
(-1.7248892 -0.23988152 0 -4.9355796e-06 0 0)
(-1.7168429 -0.2391319 0 4.6816035e-06 0 0)
(-1.7243524 -0.23983176 0 -4.4452234e-06 0 0)
(-1.7173474 -0.23917904 0 4.2248094e-06 0 0)
(-1.7238694 -0.23978699 0 -4.020093e-06 0 0)
(-1.7178028 -0.23922155 0 3.8299104e-06 0 0)
(-1.7234331 -0.23974652 0 -3.6539595e-06 0 0)
(-1.7182156 -0.23926006 0 3.4912497e-06 0 0)
(-1.723037 -0.23970978 0 -3.3415839e-06 0 0)
(-1.7185917 -0.23929514 0 3.2040649e-06 0 0)
(-1.7226752 -0.23967621 0 -3.0786347e-06 0 0)
(-1.7189368 -0.23932728 0 2.9644781e-06 0 0)
(-1.7223424 -0.23964533 0 -2.8616604e-06 0 0)
(-1.7192557 -0.23935698 0 2.7696354e-06 0 0)
(-1.7220337 -0.23961669 0 -2.6881353e-06 0 0)
(-1.7195532 -0.23938465 0 2.617464e-06 0 0)
(-1.7217446 -0.23958989 0 -2.5597764e-06 0 0)
(-1.7198336 -0.23941075 0 2.4989763e-06 0 0)
(-1.7214703 -0.23956453 0 -2.4914615e-06 0 0)
(-1.7200983 -0.23943529 0 2.4566619e-06 0 0)
(-1.7211985 -0.23953831 0 -2.1270455e-06 0 0)
(-1.7203467 -0.23945387 0 3.7839944e-06 0 0)
(-1.7209384 -0.23952051 0 -3.5405522e-06 0 0)
(-1.5844569 -0.57573032 0 -0.16440645 0 0)
(-1.6358797 -0.26480189 0 -0.015699569 0 0)
(-1.7234837 -0.26669173 0 -0.0091237686 0 0)
(-1.6979648 -0.2435311 0 -0.0020066904 0 0)
(-1.6100078 -0.23260745 0 -0.00064156041 0 0)
(-1.6349253 -0.23421608 0 -0.00021095457 0 0)
(-1.5977367 -0.230612 0 -0.00010630779 0 0)
(-1.6256611 -0.23311432 0 -2.8407573e-05 0 0)
(-1.5976611 -0.23045507 0 -1.6245701e-06 0 0)
(-1.6221596 -0.23280919 0 -1.0057571e-05 0 0)
(-1.5988008 -0.2305662 0 9.7303547e-06 0 0)
(-1.6204078 -0.23266538 0 -1.038794e-05 0 0)
(-1.5999846 -0.23068832 0 9.2970751e-06 0 0)
(-1.6191 -0.23254477 0 -9.5038438e-06 0 0)
(-1.6010906 -0.23079804 0 8.4434041e-06 0 0)
(-1.6179818 -0.23243782 0 -8.3202669e-06 0 0)
(-1.6020904 -0.23089617 0 7.6195456e-06 0 0)
(-1.6170008 -0.2323435 0 -7.3224369e-06 0 0)
(-1.6029849 -0.23098379 0 6.8277318e-06 0 0)
(-1.6161341 -0.23226008 0 -6.4897111e-06 0 0)
(-1.6037831 -0.23106188 0 6.1005522e-06 0 0)
(-1.6153656 -0.23218605 0 -5.7764865e-06 0 0)
(-1.6044951 -0.23113148 0 5.4500654e-06 0 0)
(-1.6146822 -0.23212016 0 -5.1566631e-06 0 0)
(-1.6051309 -0.23119357 0 4.8752541e-06 0 0)
(-1.614073 -0.23206138 0 -4.6152935e-06 0 0)
(-1.6056996 -0.23124907 0 4.3704852e-06 0 0)
(-1.6135285 -0.23200879 0 -4.1424005e-06 0 0)
(-1.6062095 -0.2312988 0 3.9292334e-06 0 0)
(-1.6130404 -0.23196162 0 -3.7303892e-06 0 0)
(-1.606668 -0.23134349 0 3.5453325e-06 0 0)
(-1.6126013 -0.23191916 0 -3.3730546e-06 0 0)
(-1.6070817 -0.23138381 0 3.2133131e-06 0 0)
(-1.6122047 -0.23188078 0 -3.0651868e-06 0 0)
(-1.6074568 -0.23142034 0 2.928454e-06 0 0)
(-1.6118446 -0.23184592 0 -2.8023991e-06 0 0)
(-1.6077985 -0.23145361 0 2.6867662e-06 0 0)
(-1.6115159 -0.23181406 0 -2.5810572e-06 0 0)
(-1.608112 -0.23148412 0 2.4849907e-06 0 0)
(-1.6112135 -0.23178476 0 -2.3982513e-06 0 0)
(-1.6084016 -0.23151231 0 2.3207294e-06 0 0)
(-1.6109331 -0.23175756 0 -2.2518044e-06 0 0)
(-1.6086717 -0.23153859 0 2.1921929e-06 0 0)
(-1.6106706 -0.2317321 0 -2.1434598e-06 0 0)
(-1.6089263 -0.23156338 0 2.0901555e-06 0 0)
(-1.6104217 -0.23170802 0 -2.0887157e-06 0 0)
(-1.6091666 -0.23158674 0 2.0533273e-06 0 0)
(-1.6101747 -0.23168303 0 -1.7269313e-06 0 0)
(-1.609387 -0.23160416 0 3.3385064e-06 0 0)
(-1.6099223 -0.23166484 0 -3.1485979e-06 0 0)
(-1.5809983 -0.55610364 0 -0.15275069 0 0)
(-1.4866308 -0.2537754 0 -0.015743935 0 0)
(-1.5794493 -0.25593059 0 -0.0091144719 0 0)
(-1.5806162 -0.23395629 0 -0.0015200709 0 0)
(-1.5061863 -0.22463086 0 -0.00056257631 0 0)
(-1.5261668 -0.22613215 0 -0.00017752645 0 0)
(-1.4920412 -0.22277447 0 -9.6016409e-05 0 0)
(-1.5171644 -0.22516434 0 -1.9982368e-05 0 0)
(-1.4916276 -0.22266208 0 -1.9792068e-06 0 0)
(-1.5137922 -0.22489043 0 -7.0335925e-06 0 0)
(-1.4925555 -0.22277051 0 8.1979105e-06 0 0)
(-1.5121548 -0.22475726 0 -8.4252576e-06 0 0)
(-1.4936025 -0.22288679 0 7.6601082e-06 0 0)
(-1.5109588 -0.2246439 0 -7.8799454e-06 0 0)
(-1.4946017 -0.22299089 0 6.9374481e-06 0 0)
(-1.5099427 -0.22454292 0 -6.8958989e-06 0 0)
(-1.4955085 -0.22308381 0 6.2761111e-06 0 0)
(-1.509052 -0.22445373 0 -6.0580819e-06 0 0)
(-1.4963201 -0.22316672 0 5.6335473e-06 0 0)
(-1.508265 -0.2243748 0 -5.3642048e-06 0 0)
(-1.4970443 -0.22324063 0 5.0376021e-06 0 0)
(-1.507567 -0.22430472 0 -4.7729602e-06 0 0)
(-1.4976905 -0.2233065 0 4.50189e-06 0 0)
(-1.5069462 -0.22424234 0 -4.2601983e-06 0 0)
(-1.4982676 -0.22336529 0 4.0274142e-06 0 0)
(-1.5063927 -0.22418667 0 -3.8125573e-06 0 0)
(-1.4987839 -0.22341785 0 3.610265e-06 0 0)
(-1.5058981 -0.22413686 0 -3.4214877e-06 0 0)
(-1.4992468 -0.22346495 0 3.245345e-06 0 0)
(-1.5054546 -0.22409217 0 -3.0806503e-06 0 0)
(-1.4996631 -0.22350729 0 2.9276827e-06 0 0)
(-1.5050557 -0.22405194 0 -2.7849205e-06 0 0)
(-1.5000387 -0.22354549 0 2.6528133e-06 0 0)
(-1.5046955 -0.22401557 0 -2.5300055e-06 0 0)
(-1.5003792 -0.22358011 0 2.4168578e-06 0 0)
(-1.5043685 -0.22398252 0 -2.3122862e-06 0 0)
(-1.5006894 -0.22361165 0 2.216524e-06 0 0)
(-1.50407 -0.22395233 0 -2.1287562e-06 0 0)
(-1.5009739 -0.22364057 0 2.0491101e-06 0 0)
(-1.5037955 -0.22392453 0 -1.9769927e-06 0 0)
(-1.5012367 -0.22366731 0 1.9126254e-06 0 0)
(-1.503541 -0.22389873 0 -1.855132e-06 0 0)
(-1.5014818 -0.22369224 0 1.8055363e-06 0 0)
(-1.5033028 -0.22387457 0 -1.7648894e-06 0 0)
(-1.5017127 -0.22371578 0 1.7185403e-06 0 0)
(-1.5030773 -0.22385172 0 -1.7221053e-06 0 0)
(-1.5019308 -0.22373799 0 1.6866152e-06 0 0)
(-1.502853 -0.22382795 0 -1.3666295e-06 0 0)
(-1.5021261 -0.22375437 0 2.9114619e-06 0 0)
(-1.50261 -0.22380951 0 -2.7837726e-06 0 0)
(-1.5806929 -0.51961509 0 -0.1304152 0 0)
(-1.3678079 -0.24197686 0 -0.014740018 0 0)
(-1.4520633 -0.24560759 0 -0.0090353736 0 0)
(-1.4724231 -0.22500131 0 -0.0011665901 0 0)
(-1.4065295 -0.21677639 0 -0.00049726355 0 0)
(-1.4221537 -0.2181327 0 -0.00014424915 0 0)
(-1.3903235 -0.2149615 0 -8.498453e-05 0 0)
(-1.4127093 -0.2172322 0 -1.1236407e-05 0 0)
(-1.3893158 -0.2148728 0 -1.8547969e-06 0 0)
(-1.4092776 -0.21697738 0 -4.0792525e-06 0 0)
(-1.3899573 -0.21497396 0 6.9055488e-06 0 0)
(-1.4076965 -0.21685197 0 -6.591865e-06 0 0)
(-1.3908543 -0.21508355 0 6.1937543e-06 0 0)
(-1.4065905 -0.21674504 0 -6.3879574e-06 0 0)
(-1.3917492 -0.21518202 0 5.5715043e-06 0 0)
(-1.405665 -0.2166497 0 -5.5948616e-06 0 0)
(-1.3925691 -0.2152699 0 5.0533048e-06 0 0)
(-1.4048565 -0.21656542 0 -4.9051457e-06 0 0)
(-1.3933043 -0.21534829 0 4.5454045e-06 0 0)
(-1.4041425 -0.2164908 0 -4.3382173e-06 0 0)
(-1.3939607 -0.21541817 0 4.0686563e-06 0 0)
(-1.4035092 -0.21642452 0 -3.8581308e-06 0 0)
(-1.3945465 -0.21548047 0 3.6373998e-06 0 0)
(-1.4029459 -0.21636551 0 -3.4428788e-06 0 0)
(-1.3950698 -0.21553608 0 3.2543101e-06 0 0)
(-1.4024436 -0.21631283 0 -3.0806203e-06 0 0)
(-1.3955379 -0.21558581 0 2.9170028e-06 0 0)
(-1.4019947 -0.2162657 0 -2.7641122e-06 0 0)
(-1.3959577 -0.21563038 0 2.6216634e-06 0 0)
(-1.4015924 -0.2162234 0 -2.4881512e-06 0 0)
(-1.3963352 -0.21567046 0 2.3643967e-06 0 0)
(-1.4012304 -0.21618531 0 -2.248588e-06 0 0)
(-1.3966758 -0.21570662 0 2.1416447e-06 0 0)
(-1.4009036 -0.21615087 0 -2.0419579e-06 0 0)
(-1.3969846 -0.21573939 0 1.95029e-06 0 0)
(-1.400607 -0.21611958 0 -1.8653361e-06 0 0)
(-1.3972659 -0.21576926 0 1.787671e-06 0 0)
(-1.4003363 -0.21609098 0 -1.716284e-06 0 0)
(-1.3975237 -0.21579666 0 1.6515904e-06 0 0)
(-1.4000874 -0.21606465 0 -1.5928201e-06 0 0)
(-1.397762 -0.21582199 0 1.5404241e-06 0 0)
(-1.3998567 -0.2160402 0 -1.4933654e-06 0 0)
(-1.397984 -0.21584562 0 1.452872e-06 0 0)
(-1.3996408 -0.21601729 0 -1.4195667e-06 0 0)
(-1.3981933 -0.21586794 0 1.3797091e-06 0 0)