/*--------------------------------*- C++ -*----------------------------------*\
| =========                 |                                                 |
| \\      /  F ield         | OpenFOAM: The Open Source CFD Toolbox           |
|  \\    /   O peration     | Version:  2312                                  |
|   \\  /    A nd           | Website:  www.openfoam.com                      |
|    \\/     M anipulation  |                                                 |
\*---------------------------------------------------------------------------*/
FoamFile
{
    version     2.0;
    format      ascii;
    arch        "LSB;label=32;scalar=64";
    class       volSymmTensorField;
    location    "8";
    object      sigma_0;
}
// * * * * * * * * * * * * * * * * * * * * * * * * * * * * * * * * * * * * * //

dimensions      [0 2 -2 0 0 0 0];

internalField   nonuniform List<symmTensor> 
4000
(
(-2.2436523 -1.0048279 0 -0.40604726 0 0)
(-5.6651398 -0.44148218 0 -0.0029264855 0 0)
(-2.9236635 -0.31332742 0 -0.00086350166 0 0)
(-3.1198223 -0.32239366 0 1.103007e-05 0 0)
(-2.9358678 -0.3126721 0 2.118245e-05 0 0)
(-3.0382461 -0.31849808 0 -5.4440842e-05 0 0)
(-2.9201193 -0.31179682 0 3.5020978e-05 0 0)
(-3.0029075 -0.3165846 0 -4.3106559e-05 0 0)
(-2.9229232 -0.31195167 0 3.8527823e-05 0 0)
(-2.9938996 -0.31608742 0 -3.7732276e-05 0 0)
(-2.9273196 -0.31220466 0 3.5293874e-05 0 0)
(-2.9890971 -0.31581453 0 -3.3575161e-05 0 0)
(-2.9309522 -0.31241636 0 3.152042e-05 0 0)
(-2.9853759 -0.31560019 0 -2.9813002e-05 0 0)
(-2.9341508 -0.31260336 0 2.8034029e-05 0 0)
(-2.9822039 -0.31541653 0 -2.6465158e-05 0 0)
(-2.9370276 -0.31277155 0 2.4918726e-05 0 0)
(-2.9794229 -0.31525514 0 -2.3515337e-05 0 0)
(-2.9396026 -0.31292205 0 2.2163139e-05 0 0)
(-2.9769635 -0.31511228 0 -2.0921295e-05 0 0)
(-2.9418985 -0.31305618 0 1.9736352e-05 0 0)
(-2.9747814 -0.31498547 0 -1.8643094e-05 0 0)
(-2.9439434 -0.31317555 0 1.7604906e-05 0 0)
(-2.9728412 -0.31487275 0 -1.6645527e-05 0 0)
(-2.9457661 -0.31328183 0 1.5737163e-05 0 0)
(-2.9711123 -0.31477238 0 -1.4897563e-05 0 0)
(-2.9473935 -0.31337658 0 1.4104517e-05 0 0)
(-2.9695679 -0.31468282 0 -1.337195e-05 0 0)
(-2.9488504 -0.31346124 0 1.2681687e-05 0 0)
(-2.9681839 -0.31460269 0 -1.2044941e-05 0 0)
(-2.9501588 -0.3135371 0 1.1446661e-05 0 0)
(-2.9669391 -0.31453078 0 -1.0896016e-05 0 0)
(-2.9513387 -0.31360532 0 1.0380462e-05 0 0)
(-2.9658145 -0.31446598 0 -9.9075878e-06 0 0)
(-2.9524077 -0.31366693 0 9.4668852e-06 0 0)
(-2.9647931 -0.31440731 0 -9.0647048e-06 0 0)
(-2.9533818 -0.31372286 0 8.6922135e-06 0 0)
(-2.9638596 -0.31435391 0 -8.3547911e-06 0 0)
(-2.9542754 -0.31377393 0 8.0449939e-06 0 0)
(-2.9630002 -0.31430497 0 -7.7674414e-06 0 0)
(-2.9551017 -0.31382091 0 7.5158799e-06 0 0)
(-2.9622023 -0.31425978 0 -7.2943394e-06 0 0)
(-2.9558728 -0.31386448 0 7.0974936e-06 0 0)
(-2.961454 -0.31421766 0 -6.9297059e-06 0 0)
(-2.9565986 -0.31390521 0 6.7844598e-06 0 0)
(-2.9607419 -0.31417788 0 -6.6686798e-06 0 0)
(-2.9572911 -0.31394368 0 6.590324e-06 0 0)
(-2.9600899 -0.31414143 0 -6.4574442e-06 0 0)
(-2.9581319 -0.31398874 0 6.6868557e-06 0 0)
(-2.9600735 -0.31414023 0 -6.4819989e-06 0 0)
(-1.9772263 -0.92413051 0 -0.38355744 0 0)
(-4.8738367 -0.42182914 0 -0.0081295102 0 0)
(-2.9858673 -0.32143438 0 -0.0025830824 0 0)
(-2.8814674 -0.30955632 0 -2.1851052e-05 0 0)
(-2.7210412 -0.30105868 0 -5.9805079e-06 0 0)
(-2.8098027 -0.30646813 0 -7.4608046e-05 0 0)
(-2.7109498 -0.30037396 0 1.9236628e-05 0 0)
(-2.779418 -0.30466867 0 -4.9078168e-05 0 0)
(-2.7115354 -0.30037492 0 3.9387512e-05 0 0)
(-2.7715715 -0.3042036 0 -4.1038664e-05 0 0)
(-2.7150639 -0.30059546 0 3.7995393e-05 0 0)
(-2.7675169 -0.30395431 0 -3.662755e-05 0 0)
(-2.7181215 -0.30079072 0 3.4210508e-05 0 0)
(-2.7643535 -0.30375526 0 -3.2527067e-05 0 0)
(-2.7208286 -0.30096448 0 3.0497693e-05 0 0)
(-2.7616483 -0.30358379 0 -2.884876e-05 0 0)
(-2.7232675 -0.30112103 0 2.7130697e-05 0 0)
(-2.7592782 -0.30343321 0 -2.5621583e-05 0 0)
(-2.7254516 -0.30126112 0 2.4138299e-05 0 0)
(-2.757184 -0.30330003 0 -2.2791957e-05 0 0)
(-2.7273994 -0.30138594 0 2.1498856e-05 0 0)
(-2.7553265 -0.30318189 0 -2.0310158e-05 0 0)
(-2.7291346 -0.30149701 0 1.9179461e-05 0 0)
(-2.7536749 -0.30307689 0 -1.8135266e-05 0 0)
(-2.7306817 -0.30159591 0 1.7146691e-05 0 0)
(-2.7522029 -0.30298339 0 -1.6232541e-05 0 0)
(-2.7320637 -0.3016841 0 1.5369694e-05 0 0)
(-2.7508874 -0.30289993 0 -1.4571996e-05 0 0)
(-2.7333016 -0.30176293 0 1.3821066e-05 0 0)
(-2.7497081 -0.30282525 0 -1.3127719e-05 0 0)
(-2.734414 -0.30183359 0 1.247693e-05 0 0)
(-2.7486469 -0.30275819 0 -1.1877419e-05 0 0)
(-2.7354178 -0.30189716 0 1.1316736e-05 0 0)
(-2.7476876 -0.30269774 0 -1.0802052e-05 0 0)
(-2.7363279 -0.30195459 0 1.0322969e-05 0 0)
(-2.7468158 -0.30264299 0 -9.8854811e-06 0 0)
(-2.7371579 -0.30200676 0 9.4808648e-06 0 0)
(-2.7460185 -0.30259313 0 -9.1142157e-06 0 0)
(-2.7379201 -0.30205442 0 8.7781997e-06 0 0)
(-2.745284 -0.30254742 0 -8.4772298e-06 0 0)
(-2.7386255 -0.30209829 0 8.2052158e-06 0 0)
(-2.7446013 -0.30250518 0 -7.9660159e-06 0 0)
(-2.7392847 -0.302139 0 7.7545232e-06 0 0)
(-2.7439604 -0.30246581 0 -7.5760484e-06 0 0)
(-2.7399065 -0.3021771 0 7.4205005e-06 0 0)
(-2.7433492 -0.3024286 0 -7.3052877e-06 0 0)
(-2.7404971 -0.30221283 0 7.2377683e-06 0 0)
(-2.742771 -0.30239308 0 -7.0251069e-06 0 0)
(-2.7411675 -0.30225006 0 7.7101393e-06 0 0)
(-2.7426376 -0.30238467 0 -6.9680621e-06 0 0)
(-1.8432786 -0.86172942 0 -0.34905804 0 0)
(-4.2762232 -0.39420098 0 -0.0094598188 0 0)
(-2.900211 -0.32077768 0 -0.0038767781 0 0)
(-2.751302 -0.30244469 0 -0.00012143371 0 0)
(-2.5821847 -0.29326577 0 -2.7753738e-05 0 0)
(-2.6614491 -0.29837799 0 -8.5685533e-05 0 0)
(-2.5742233 -0.29268094 0 3.2208075e-06 0 0)
(-2.6349399 -0.29670283 0 -4.9755003e-05 0 0)
(-2.5742745 -0.29262398 0 3.5828472e-05 0 0)
(-2.6277857 -0.29625454 0 -3.9466928e-05 0 0)
(-2.5773358 -0.29282729 0 3.6210151e-05 0 0)
(-2.6241596 -0.29601963 0 -3.5263685e-05 0 0)
(-2.5800612 -0.29301281 0 3.2785979e-05 0 0)
(-2.6213375 -0.29583085 0 -3.131118e-05 0 0)
(-2.5824791 -0.29317818 0 2.9276133e-05 0 0)
(-2.6189212 -0.29566774 0 -2.7745837e-05 0 0)
(-2.5846573 -0.29332715 0 2.6061343e-05 0 0)
(-2.6168051 -0.29552455 0 -2.4630759e-05 0 0)
(-2.5866081 -0.29346043 0 2.3192967e-05 0 0)
(-2.6149362 -0.29539797 0 -2.1906655e-05 0 0)
(-2.5883479 -0.29357917 0 2.0659197e-05 0 0)
(-2.6132789 -0.29528571 0 -1.952017e-05 0 0)
(-2.589898 -0.29368482 0 1.843146e-05 0 0)
(-2.6118055 -0.29518594 0 -1.7429747e-05 0 0)
(-2.5912802 -0.29377891 0 1.6478592e-05 0 0)
(-2.6104923 -0.29509709 0 -1.5601185e-05 0 0)
(-2.5925151 -0.29386282 0 1.4771238e-05 0 0)
(-2.6093185 -0.29501777 0 -1.4005392e-05 0 0)
(-2.5936215 -0.29393784 0 1.3283174e-05 0 0)
(-2.608266 -0.29494676 0 -1.2617402e-05 0 0)
(-2.594616 -0.29400512 0 1.1991533e-05 0 0)
(-2.6073187 -0.29488297 0 -1.1415821e-05 0 0)
(-2.5955136 -0.29406566 0 1.0876652e-05 0 0)
(-2.6064621 -0.29482544 0 -1.0382419e-05 0 0)
(-2.5963276 -0.2941204 0 9.9218017e-06 0 0)
(-2.6056835 -0.29477331 0 -9.5018e-06 0 0)
(-2.5970702 -0.29417013 0 9.1129356e-06 0 0)
(-2.6049711 -0.29472581 0 -8.7611633e-06 0 0)
(-2.5977522 -0.29421559 0 8.438519e-06 0 0)
(-2.6043146 -0.29468223 0 -8.1501811e-06 0 0)
(-2.5983836 -0.29425745 0 7.8895558e-06 0 0)
(-2.6037042 -0.29464194 0 -7.6611696e-06 0 0)
(-2.5989739 -0.29429633 0 7.4596035e-06 0 0)
(-2.6031307 -0.29460436 0 -7.2913037e-06 0 0)
(-2.599531 -0.29433275 0 7.1435784e-06 0 0)
(-2.6025835 -0.29456882 0 -7.0430523e-06 0 0)
(-2.6000599 -0.29436686 0 6.9858335e-06 0 0)
(-2.6020602 -0.29453439 0 -6.7560223e-06 0 0)
(-2.6006467 -0.29440045 0 7.6932411e-06 0 0)
(-2.6018828 -0.29452446 0 -7.1346691e-06 0 0)
(-1.796247 -0.83144804 0 -0.32911344 0 0)
(-3.8645771 -0.37787217 0 -0.01145126 0 0)
(-2.7969734 -0.31984699 0 -0.0053583218 0 0)
(-2.6280503 -0.29557369 0 -0.00022568891 0 0)
(-2.4496649 -0.28562542 0 -6.3339322e-05 0 0)
(-2.5181859 -0.29030213 0 -9.5200737e-05 0 0)
(-2.440482 -0.28498235 0 -1.7383211e-05 0 0)
(-2.4948944 -0.28874123 0 -4.6680434e-05 0 0)
(-2.4401506 -0.2848738 0 2.8560531e-05 0 0)
(-2.4883331 -0.2883087 0 -3.4430057e-05 0 0)
(-2.4428169 -0.28505956 0 3.1210395e-05 0 0)
(-2.4850506 -0.28808756 0 -3.0850932e-05 0 0)
(-2.4452635 -0.28523519 0 2.8497501e-05 0 0)
(-2.4825048 -0.2879088 0 -2.7394623e-05 0 0)
(-2.4474418 -0.2853921 0 2.5509903e-05 0 0)
(-2.4803221 -0.28775386 0 -2.4243934e-05 0 0)
(-2.449404 -0.28553342 0 2.2732106e-05 0 0)
(-2.4784106 -0.28761785 0 -2.1507553e-05 0 0)
(-2.4511612 -0.28565986 0 2.0238685e-05 0 0)
(-2.4767232 -0.28749768 0 -1.9124207e-05 0 0)
(-2.4527285 -0.28577249 0 1.8031103e-05 0 0)
(-2.4752273 -0.28739112 0 -1.7039872e-05 0 0)
(-2.454125 -0.28587272 0 1.6088461e-05 0 0)
(-2.4738974 -0.28729641 0 -1.521526e-05 0 0)
(-2.4553705 -0.28596199 0 1.4384837e-05 0 0)
(-2.4727121 -0.28721204 0 -1.361944e-05 0 0)
(-2.4564834 -0.28604164 0 1.2895017e-05 0 0)
(-2.4716527 -0.2871367 0 -1.2226683e-05 0 0)
(-2.4574806 -0.28611287 0 1.1596283e-05 0 0)
(-2.4707028 -0.28706923 0 -1.101514e-05 0 0)
(-2.4583771 -0.28617678 0 1.0468794e-05 0 0)
(-2.4698477 -0.2870086 0 -9.9661867e-06 0 0)
(-2.4591863 -0.28623432 0 9.4954951e-06 0 0)
(-2.4690746 -0.28695389 0 -9.0640004e-06 0 0)
(-2.4599202 -0.28628636 0 8.6618969e-06 0 0)
(-2.4683719 -0.28690429 0 -8.295253e-06 0 0)
(-2.4605896 -0.28633367 0 7.955864e-06 0 0)
(-2.4677292 -0.28685907 0 -7.6489109e-06 0 0)
(-2.4612044 -0.28637695 0 7.3674972e-06 0 0)
(-2.4671369 -0.28681755 0 -7.1161603e-06 0 0)
(-2.4617736 -0.28641684 0 6.8892282e-06 0 0)
(-2.4665863 -0.28677914 0 -6.6906379e-06 0 0)
(-2.4623056 -0.2864539 0 6.5158426e-06 0 0)
(-2.4660692 -0.28674329 0 -6.371218e-06 0 0)
(-2.4628078 -0.28648868 0 6.2422674e-06 0 0)
(-2.4655758 -0.28670936 0 -6.1636734e-06 0 0)
(-2.463284 -0.28652123 0 6.1206594e-06 0 0)
(-2.4650994 -0.28667595 0 -5.8619073e-06 0 0)
(-2.4637981 -0.28655142 0 7.0701248e-06 0 0)
(-2.4648815 -0.28666411 0 -6.5720413e-06 0 0)
(-1.7050131 -0.77717946 0 -0.29701216 0 0)
(-3.4446129 -0.35838831 0 -0.012483082 0 0)
(-2.6565398 -0.31619446 0 -0.006631842 0 0)
(-2.5046309 -0.28869132 0 -0.00033218333 0 0)
(-2.3234653 -0.27810898 0 -0.00010584992 0 0)
(-2.3798237 -0.28225029 0 -0.0001061009 0 0)
(-2.3099978 -0.27725904 0 -3.578184e-05 0 0)
(-2.3590082 -0.28078736 0 -4.3549317e-05 0 0)
(-2.3093216 -0.27711386 0 2.1753737e-05 0 0)
(-2.3529476 -0.28037002 0 -2.9515618e-05 0 0)
(-2.3116508 -0.2772844 0 2.6437443e-05 0 0)
(-2.3499529 -0.28016137 0 -2.6559463e-05 0 0)
(-2.3138572 -0.27745113 0 2.4358875e-05 0 0)
(-2.3476442 -0.27999195 0 -2.3593485e-05 0 0)
(-2.3158313 -0.27760033 0 2.1864181e-05 0 0)
(-2.3456634 -0.27984464 0 -2.0848872e-05 0 0)
(-2.3176093 -0.27773464 0 1.950771e-05 0 0)
(-2.3439285 -0.27971533 0 -1.8481051e-05 0 0)
(-2.3192013 -0.27785478 0 1.7377227e-05 0 0)
(-2.3423975 -0.2796011 0 -1.6428422e-05 0 0)
(-2.3206212 -0.2779618 0 1.5485476e-05 0 0)
(-2.3410404 -0.27949983 0 -1.4636928e-05 0 0)
(-2.3218866 -0.27805706 0 1.3818803e-05 0 0)
(-2.3398341 -0.27940981 0 -1.3069737e-05 0 0)
(-2.3230152 -0.27814191 0 1.235638e-05 0 0)
(-2.338759 -0.2793296 0 -1.1699216e-05 0 0)
(-2.3240239 -0.27821763 0 1.1077039e-05 0 0)
(-2.337798 -0.27925796 0 -1.0502954e-05 0 0)
(-2.3249278 -0.27828538 0 9.9614752e-06 0 0)
(-2.3369364 -0.27919378 0 -9.4621424e-06 0 0)
(-2.3257404 -0.27834619 0 8.9927751e-06 0 0)
(-2.3361609 -0.27913608 0 -8.5608357e-06 0 0)
(-2.3264739 -0.27840095 0 8.1563918e-06 0 0)
(-2.3354599 -0.279084 0 -7.7855185e-06 0 0)
(-2.327139 -0.2784505 0 7.439969e-06 0 0)
(-2.3348228 -0.27903677 0 -7.1248245e-06 0 0)
(-2.3277456 -0.27849557 0 6.8331702e-06 0 0)
(-2.3342402 -0.27899368 0 -6.5693676e-06 0 0)
(-2.3283026 -0.27853681 0 6.3275949e-06 0 0)
(-2.3337036 -0.27895411 0 -6.1116911e-06 0 0)
(-2.3288181 -0.27857484 0 5.9169082e-06 0 0)
(-2.3332049 -0.27891748 0 -5.7465017e-06 0 0)
(-2.3292997 -0.2786102 0 5.5968141e-06 0 0)
(-2.3327369 -0.27888326 0 -5.4737893e-06 0 0)
(-2.3297542 -0.27864341 0 5.3616468e-06 0 0)
(-2.3322906 -0.27885088 0 -5.3017025e-06 0 0)
(-2.3301846 -0.2786745 0 5.2659867e-06 0 0)
(-2.3318567 -0.27881859 0 -4.9840359e-06 0 0)
(-2.3306383 -0.27870196 0 6.3865489e-06 0 0)
(-2.3316137 -0.27880526 0 -5.9524754e-06 0 0)
(-1.657532 -0.74562466 0 -0.27813265 0 0)
(-3.0562425 -0.34047046 0 -0.013518046 0 0)
(-2.4999657 -0.31105129 0 -0.007746555 0 0)
(-2.3778019 -0.28153848 0 -0.0004252125 0 0)
(-2.201263 -0.27061445 0 -0.0001527605 0 0)
(-2.2458989 -0.27420746 0 -0.00011762283 0 0)
(-2.1828374 -0.2695097 0 -5.088774e-05 0 0)
(-2.2270953 -0.27283456 0 -4.0771039e-05 0 0)
(-2.1819135 -0.26934622 0 1.6173162e-05 0 0)
(-2.2214978 -0.2724355 0 -2.5357987e-05 0 0)
(-2.1839598 -0.2695045 0 2.2528448e-05 0 0)
(-2.2187627 -0.27223913 0 -2.2982018e-05 0 0)
(-2.1859542 -0.26966315 0 2.0935182e-05 0 0)
(-2.2166663 -0.27207868 0 -2.0439065e-05 0 0)
(-2.1877474 -0.26980514 0 1.8840655e-05 0 0)
(-2.2148661 -0.27193867 0 -1.8033538e-05 0 0)
(-2.1893618 -0.26993284 0 1.6833827e-05 0 0)
(-2.2132889 -0.27181572 0 -1.5971638e-05 0 0)
(-2.1908068 -0.27004701 0 1.5004977e-05 0 0)
(-2.2118971 -0.27170713 0 -1.4193344e-05 0 0)
(-2.1920957 -0.27014872 0 1.3375359e-05 0 0)
(-2.2106636 -0.27161085 0 -1.2644691e-05 0 0)
(-2.1932444 -0.27023927 0 1.1937496e-05 0 0)
(-2.2095672 -0.27152526 0 -1.1290895e-05 0 0)
(-2.1942692 -0.27031994 0 1.0674938e-05 0 0)
(-2.20859 -0.27144898 0 -1.010709e-05 0 0)
(-2.1951852 -0.27039196 0 9.5699547e-06 0 0)
(-2.2077166 -0.27138083 0 -9.0736466e-06 0 0)
(-2.1960061 -0.27045642 0 8.6061085e-06 0 0)
(-2.2069334 -0.27131975 0 -8.1742963e-06 0 0)
(-2.1967442 -0.27051428 0 7.7689253e-06 0 0)
(-2.2062287 -0.27126483 0 -7.3953148e-06 0 0)
(-2.1974103 -0.27056641 0 7.0459321e-06 0 0)
(-2.2055916 -0.27121525 0 -6.72509e-06 0 0)
(-2.1980143 -0.27061359 0 6.4265248e-06 0 0)
(-2.2050129 -0.27117026 0 -6.1538623e-06 0 0)
(-2.1985651 -0.27065652 0 5.9018318e-06 0 0)
(-2.2044838 -0.27112922 0 -5.6735791e-06 0 0)
(-2.1990707 -0.27069582 0 5.4646533e-06 0 0)
(-2.2039966 -0.2710915 0 -5.277857e-06 0 0)
(-2.1995385 -0.27073206 0 5.109606e-06 0 0)
(-2.203544 -0.27105657 0 -4.9621884e-06 0 0)
(-2.1999753 -0.27076579 0 4.8330309e-06 0 0)
(-2.2031195 -0.27102393 0 -4.727251e-06 0 0)
(-2.2003875 -0.2707975 0 4.6284201e-06 0 0)
(-2.202715 -0.27099304 0 -4.5829846e-06 0 0)
(-2.2007773 -0.27082719 0 4.5500315e-06 0 0)
(-2.2023198 -0.27096191 0 -4.2483776e-06 0 0)
(-2.2011786 -0.27085232 0 5.7862789e-06 0 0)
(-2.2020615 -0.27094729 0 -5.3931053e-06 0 0)
(-1.6056101 -0.70800804 0 -0.25645617 0 0)
(-2.690635 -0.32350627 0 -0.014636825 0 0)
(-2.332587 -0.30416493 0 -0.0085735185 0 0)
(-2.2441908 -0.27416094 0 -0.00059216236 0 0)
(-2.0835095 -0.26336024 0 -0.00024098355 0 0)
(-2.1172572 -0.26627063 0 -0.00013883936 0 0)
(-2.059618 -0.26178368 0 -6.6805469e-05 0 0)
(-2.0993758 -0.26489882 0 -3.8920803e-05 0 0)
(-2.058121 -0.26158047 0 1.1269783e-05 0 0)
(-2.093995 -0.26450668 0 -2.1816871e-05 0 0)
(-2.05982 -0.26172276 0 1.9229964e-05 0 0)
(-2.0914475 -0.26431997 0 -1.9929827e-05 0 0)
(-2.0616016 -0.26187282 0 1.8030718e-05 0 0)
(-2.0895334 -0.26416781 0 -1.7755013e-05 0 0)
(-2.0632275 -0.26200775 0 1.6269598e-05 0 0)
(-2.0878952 -0.2640348 0 -1.5639834e-05 0 0)
(-2.0646937 -0.26212904 0 1.4559942e-05 0 0)
(-2.0864604 -0.26391798 0 -1.3838307e-05 0 0)
(-2.0660061 -0.26223748 0 1.2987993e-05 0 0)
(-2.0851944 -0.26381481 0 -1.2293259e-05 0 0)
(-2.0671769 -0.26233408 0 1.1581422e-05 0 0)
(-2.0840725 -0.26372334 0 -1.0951021e-05 0 0)
(-2.0682205 -0.2624201 0 1.0338098e-05 0 0)
(-2.0830752 -0.263642 0 -9.7785764e-06 0 0)
(-2.0691517 -0.26249677 0 9.2454032e-06 0 0)
(-2.0821863 -0.2635695 0 -8.7534371e-06 0 0)
(-2.0699843 -0.26256522 0 8.2885866e-06 0 0)
(-2.0813917 -0.2635047 0 -7.8583561e-06 0 0)
(-2.0707304 -0.26262651 0 7.4536731e-06 0 0)
(-2.0806794 -0.26344662 0 -7.0792299e-06 0 0)
(-2.0714013 -0.26268154 0 6.7282664e-06 0 0)
(-2.0800383 -0.26339437 0 -6.40422e-06 0 0)
(-2.0720068 -0.26273113 0 6.1016511e-06 0 0)
(-2.079459 -0.26334719 0 -5.8233233e-06 0 0)
(-2.0725559 -0.26277603 0 5.564702e-06 0 0)
(-2.0789327 -0.26330437 0 -5.3281323e-06 0 0)
(-2.0730564 -0.2628169 0 5.1097767e-06 0 0)
(-2.0784518 -0.26326529 0 -4.91171e-06 0 0)
(-2.0735158 -0.26285432 0 4.7306742e-06 0 0)
(-2.078009 -0.26322937 0 -4.5685587e-06 0 0)
(-2.0739407 -0.26288885 0 4.4227852e-06 0 0)
(-2.0775979 -0.26319609 0 -4.2947897e-06 0 0)
(-2.0743373 -0.26292099 0 4.1829433e-06 0 0)
(-2.0772124 -0.26316497 0 -4.0915315e-06 0 0)
(-2.0747115 -0.26295123 0 4.0038178e-06 0 0)
(-2.0768455 -0.26313553 0 -3.9702729e-06 0 0)
(-2.075065 -0.26297957 0 3.9377532e-06 0 0)
(-2.0764854 -0.2631056 0 -3.6218929e-06 0 0)
(-2.0754206 -0.2630027 0 5.2450612e-06 0 0)
(-2.0762196 -0.26308991 0 -4.8847829e-06 0 0)
(-1.5658483 -0.6717698 0 -0.2328615 0 0)
(-2.3506532 -0.30813586 0 -0.015678224 0 0)
(-2.1784262 -0.2973674 0 -0.0090671001 0 0)
(-2.0974619 -0.26557453 0 -0.00076124028 0 0)
(-1.9558352 -0.2553678 0 -0.00031128887 0 0)
(-1.98933 -0.25818233 0 -0.00015681176 0 0)
(-1.9382173 -0.25397481 0 -7.9321376e-05 0 0)
(-1.9749264 -0.2569407 0 -3.6877575e-05 0 0)
(-1.9375785 -0.25380074 0 7.1270611e-06 0 0)
(-1.9702496 -0.25657671 0 -1.8577799e-05 0 0)
(-1.9391858 -0.25393688 0 1.637203e-05 0 0)
(-1.9679572 -0.25640249 0 -1.7197935e-05 0 0)
(-1.9408084 -0.25408 0 1.5471746e-05 0 0)
(-1.9662217 -0.25625887 0 -1.5369911e-05 0 0)
(-1.9422879 -0.25420832 0 1.3993083e-05 0 0)
(-1.964733 -0.25613276 0 -1.3517343e-05 0 0)
(-1.9436208 -0.25432348 0 1.2544793e-05 0 0)
(-1.963428 -0.25602188 0 -1.1947601e-05 0 0)
(-1.9448134 -0.25442638 0 1.1200365e-05 0 0)
(-1.9622761 -0.25592395 0 -1.060937e-05 0 0)
(-1.9458773 -0.25451807 0 9.9914463e-06 0 0)
(-1.9612553 -0.25583711 0 -9.4499901e-06 0 0)
(-1.9468258 -0.25459973 0 8.9204688e-06 0 0)
(-1.9603479 -0.25575987 0 -8.4381665e-06 0 0)
(-1.9476724 -0.25467253 0 7.9782411e-06 0 0)
(-1.959539 -0.25569101 0 -7.553558e-06 0 0)
(-1.9484293 -0.25473755 0 7.1526811e-06 0 0)
(-1.958816 -0.25562944 0 -6.7810438e-06 0 0)
(-1.9491078 -0.25479578 0 6.4320043e-06 0 0)
(-1.9581677 -0.25557424 0 -6.1084383e-06 0 0)
(-1.9497179 -0.25484808 0 5.8056524e-06 0 0)
(-1.9575844 -0.25552458 0 -5.5255666e-06 0 0)
(-1.9502686 -0.25489523 0 5.2644592e-06 0 0)
(-1.9570573 -0.25547972 0 -5.023841e-06 0 0)
(-1.9507678 -0.25493792 0 4.8005987e-06 0 0)
(-1.9565786 -0.255439 0 -4.5960403e-06 0 0)
(-1.9512229 -0.25497679 0 4.407506e-06 0 0)
(-1.9561412 -0.25540182 0 -4.2362028e-06 0 0)
(-1.9516405 -0.25501239 0 4.079851e-06 0 0)
(-1.9557386 -0.25536763 0 -3.9395994e-06 0 0)
(-1.9520266 -0.25504525 0 3.8136887e-06 0 0)
(-1.9553649 -0.25533595 0 -3.7028627e-06 0 0)
(-1.952387 -0.25507586 0 3.6062688e-06 0 0)
(-1.9550147 -0.25530632 0 -3.5274242e-06 0 0)
(-1.9527268 -0.25510468 0 3.449559e-06 0 0)
(-1.9546818 -0.25527828 0 -3.4261328e-06 0 0)
(-1.9530477 -0.25513171 0 3.3930932e-06 0 0)
(-1.9543537 -0.25524958 0 -3.0682284e-06 0 0)
(-1.9533631 -0.25515312 0 4.7357185e-06 0 0)
(-1.954086 -0.255233 0 -4.4086426e-06 0 0)
(-1.566713 -0.63491425 0 -0.2061593 0 0)
(-2.0467749 -0.29158944 0 -0.015934962 0 0)
(-2.0227194 -0.28660591 0 -0.0085304524 0 0)
(-1.963075 -0.2597466 0 -0.0015425328 0 0)
(-1.8398441 -0.24824911 0 -0.00050483231 0 0)
(-1.8679247 -0.25028567 0 -0.00019319665 0 0)
(-1.8215878 -0.24623482 0 -9.5968026e-05 0 0)
(-1.8548421 -0.24901011 0 -3.5877438e-05 0 0)
(-1.8207987 -0.24602808 0 3.1816888e-06 0 0)
(-1.8504388 -0.24865365 0 -1.5689581e-05 0 0)
(-1.8221573 -0.24615016 0 1.3819677e-05 0 0)
(-1.8483087 -0.24848807 0 -1.4730605e-05 0 0)
(-1.8236047 -0.24628522 0 1.3178639e-05 0 0)
(-1.8467225 -0.24835211 0 -1.3219764e-05 0 0)
(-1.8249454 -0.24640696 0 1.1946779e-05 0 0)
(-1.8453674 -0.24823258 0 -1.1606857e-05 0 0)
(-1.8261562 -0.24651617 0 1.0732014e-05 0 0)
(-1.8441802 -0.24812743 0 -1.0246477e-05 0 0)
(-1.8272398 -0.24661374 0 9.5919954e-06 0 0)
(-1.8431322 -0.24803455 0 -9.094365e-06 0 0)
(-1.8282065 -0.2467007 0 8.5607848e-06 0 0)
(-1.8422034 -0.24795216 0 -8.0993921e-06 0 0)
(-1.8290687 -0.24677816 0 7.644759e-06 0 0)
(-1.8413776 -0.24787887 0 -7.2319614e-06 0 0)
(-1.8298383 -0.24684724 0 6.8378187e-06 0 0)
(-1.8406415 -0.2478135 0 -6.4737011e-06 0 0)
(-1.8305267 -0.24690896 0 6.1302953e-06 0 0)
(-1.8399835 -0.24775505 0 -5.8114095e-06 0 0)
(-1.8311437 -0.24696424 0 5.512374e-06 0 0)
(-1.8393935 -0.24770263 0 -5.2346207e-06 0 0)
(-1.8316986 -0.24701391 0 4.9751425e-06 0 0)
(-1.8388627 -0.24765546 0 -4.7346466e-06 0 0)
(-1.8321994 -0.2470587 0 4.5108171e-06 0 0)
(-1.8383831 -0.24761283 0 -4.304161e-06 0 0)
(-1.8326534 -0.24709926 0 4.1127299e-06 0 0)
(-1.8379476 -0.24757414 0 -3.9369991e-06 0 0)
(-1.8330672 -0.2471362 0 3.7752749e-06 0 0)
(-1.8375498 -0.24753879 0 -3.6280655e-06 0 0)
(-1.8334468 -0.24717004 0 3.4938932e-06 0 0)
(-1.8371837 -0.24750629 0 -3.3733094e-06 0 0)
(-1.8337978 -0.24720129 0 3.2652211e-06 0 0)
(-1.836844 -0.24747615 0 -3.1698134e-06 0 0)
(-1.8341252 -0.24723041 0 3.0868692e-06 0 0)
(-1.8365258 -0.24744796 0 -3.0191976e-06 0 0)
(-1.834434 -0.24725785 0 2.9502491e-06 0 0)
(-1.8362235 -0.24742128 0 -2.9354504e-06 0 0)
(-1.8347254 -0.24728362 0 2.9015257e-06 0 0)
(-1.8359248 -0.24739382 0 -2.5722664e-06 0 0)
(-1.8350053 -0.24730352 0 4.2493328e-06 0 0)
(-1.8356593 -0.24737655 0 -3.9605192e-06 0 0)
(-1.5817891 -0.60307711 0 -0.18260017 0 0)
(-1.8146595 -0.28037424 0 -0.01693905 0 0)
(-1.8710808 -0.27400198 0 -0.0077228868 0 0)
(-1.8263673 -0.25230769 0 -0.0020071765 0 0)
(-1.7210557 -0.24043135 0 -0.00060757896 0 0)
(-1.7486026 -0.24222777 0 -0.00020983491 0 0)
(-1.7074484 -0.23841145 0 -0.00010376922 0 0)
(-1.7381591 -0.24105514 0 -3.2932962e-05 0 0)
(-1.7073678 -0.2382407 0 3.2722639e-07 0 0)
(-1.7343646 -0.24072904 0 -1.2851842e-05 0 0)
(-1.7086721 -0.23835917 0 1.1616492e-05 0 0)
(-1.7324546 -0.24057533 0 -1.2466916e-05 0 0)
(-1.7099907 -0.23848794 0 1.1128001e-05 0 0)
(-1.7310169 -0.24044731 0 -1.1270833e-05 0 0)
(-1.7112097 -0.23860357 0 1.0103455e-05 0 0)
(-1.7297861 -0.24033421 0 -9.8807509e-06 0 0)
(-1.7123101 -0.2387071 0 9.0963918e-06 0 0)
(-1.7287068 -0.24023461 0 -8.710695e-06 0 0)
(-1.7132946 -0.23879957 0 8.1402106e-06 0 0)
(-1.7277537 -0.24014657 0 -7.7267106e-06 0 0)
(-1.714173 -0.23888198 0 7.2691797e-06 0 0)
(-1.7269088 -0.24006847 0 -6.8800399e-06 0 0)
(-1.7149565 -0.23895541 0 6.4928859e-06 0 0)
(-1.7261576 -0.23999897 0 -6.1428371e-06 0 0)
(-1.7156561 -0.23902091 0 5.8079768e-06 0 0)
(-1.7254878 -0.23993697 0 -5.4985523e-06 0 0)
(-1.7162819 -0.23907946 0 5.2069554e-06 0 0)
(-1.7248891 -0.23988151 0 -4.9357185e-06 0 0)
(-1.7168429 -0.23913191 0 4.6817767e-06 0 0)
(-1.7243524 -0.23983177 0 -4.4454138e-06 0 0)
(-1.7173474 -0.23917904 0 4.2250024e-06 0 0)
(-1.7238695 -0.23978699 0 -4.02028e-06 0 0)
(-1.7178027 -0.23922155 0 3.8300851e-06 0 0)
(-1.7234332 -0.23974653 0 -3.6541189e-06 0 0)
(-1.7182155 -0.23926006 0 3.491392e-06 0 0)
(-1.7230371 -0.23970978 0 -3.3417091e-06 0 0)
(-1.7185917 -0.23929513 0 3.2041734e-06 0 0)
(-1.7226753 -0.23967622 0 -3.078728e-06 0 0)
(-1.7189367 -0.23932728 0 2.9645572e-06 0 0)
(-1.7223425 -0.23964534 0 -2.8617274e-06 0 0)
(-1.7192557 -0.23935697 0 2.7696915e-06 0 0)
(-1.7220338 -0.2396167 0 -2.6881823e-06 0 0)
(-1.7195531 -0.23938465 0 2.6175031e-06 0 0)
(-1.7217446 -0.23958989 0 -2.5598092e-06 0 0)
(-1.7198336 -0.23941074 0 2.4990035e-06 0 0)
(-1.7214703 -0.23956453 0 -2.4914847e-06 0 0)
(-1.7200983 -0.23943529 0 2.4566817e-06 0 0)
(-1.7211986 -0.23953831 0 -2.1270602e-06 0 0)
(-1.7203467 -0.23945387 0 3.7840231e-06 0 0)
(-1.7209384 -0.23952051 0 -3.5405825e-06 0 0)
(-1.583386 -0.58483589 0 -0.17076883 0 0)
(-1.634635 -0.26445723 0 -0.015733945 0 0)
(-1.7228223 -0.26656614 0 -0.0091299287 0 0)
(-1.6981163 -0.24355655 0 -0.0020120186 0 0)
(-1.6100751 -0.23261318 0 -0.00064208278 0 0)
(-1.6349458 -0.23421815 0 -0.00021100096 0 0)
(-1.597739 -0.23061244 0 -0.00010634034 0 0)
(-1.6256604 -0.2331145 0 -2.8423181e-05 0 0)
(-1.59766 -0.23045516 0 -1.6490894e-06 0 0)
(-1.6221569 -0.23280901 0 -1.0058118e-05 0 0)
(-1.5988021 -0.23056639 0 9.721703e-06 0 0)
(-1.6204052 -0.23266512 0 -1.0381663e-05 0 0)
(-1.5999867 -0.23068856 0 9.2912802e-06 0 0)
(-1.6190976 -0.23254453 0 -9.4985906e-06 0 0)
(-1.6010926 -0.23079826 0 8.4391374e-06 0 0)
(-1.6179799 -0.23243762 0 -8.3166637e-06 0 0)
(-1.6020921 -0.23089635 0 7.6167491e-06 0 0)
(-1.6169994 -0.23234335 0 -7.3202599e-06 0 0)
(-1.6029861 -0.23098391 0 6.8261411e-06 0 0)
(-1.6161332 -0.23225998 0 -6.4885904e-06 0 0)
(-1.6037838 -0.23106195 0 6.0998171e-06 0 0)
(-1.615365 -0.23218599 0 -5.7760576e-06 0 0)
(-1.6044955 -0.23113152 0 5.4498629e-06 0 0)
(-1.6146819 -0.23212013 0 -5.1566323e-06 0 0)
(-1.6051311 -0.23119359 0 4.8753372e-06 0 0)
(-1.6140729 -0.23206137 0 -4.6154548e-06 0 0)
(-1.6056996 -0.23124907 0 4.3706893e-06 0 0)
(-1.6135285 -0.23200879 0 -4.1426263e-06 0 0)
(-1.6062095 -0.2312988 0 3.9294622e-06 0 0)
(-1.6130404 -0.23196163 0 -3.7306106e-06 0 0)
(-1.6066679 -0.23134349 0 3.5455384e-06 0 0)
(-1.6126014 -0.23191916 0 -3.3732414e-06 0 0)
(-1.6070817 -0.2313838 0 3.2134786e-06 0 0)
(-1.6122047 -0.23188078 0 -3.0653312e-06 0 0)
(-1.6074567 -0.23142033 0 2.928578e-06 0 0)
(-1.6118447 -0.23184592 0 -2.8025044e-06 0 0)
(-1.6077985 -0.23145361 0 2.6868546e-06 0 0)
(-1.6115159 -0.23181407 0 -2.581131e-06 0 0)
(-1.6081119 -0.23148412 0 2.4850515e-06 0 0)
(-1.6112135 -0.23178476 0 -2.3983014e-06 0 0)
(-1.6084016 -0.2315123 0 2.3207702e-06 0 0)
(-1.6109331 -0.23175756 0 -2.2518377e-06 0 0)
(-1.6086717 -0.23153858 0 2.1922198e-06 0 0)
(-1.6106706 -0.2317321 0 -2.1434817e-06 0 0)
(-1.6089263 -0.23156338 0 2.0901731e-06 0 0)
(-1.6104218 -0.23170802 0 -2.0887302e-06 0 0)
(-1.6091666 -0.23158674 0 2.0533393e-06 0 0)
(-1.6101747 -0.23168303 0 -1.7269385e-06 0 0)
(-1.609387 -0.23160416 0 3.3385265e-06 0 0)
(-1.6099223 -0.23166484 0 -3.1486228e-06 0 0)
(-1.5810472 -0.5470158 0 -0.14682276 0 0)
(-1.488423 -0.2540025 0 -0.015659308 0 0)
(-1.5796667 -0.25599771 0 -0.0091202784 0 0)
(-1.5806068 -0.23393772 0 -0.0015132016 0 0)
(-1.5062123 -0.22462533 0 -0.00056055661 0 0)
(-1.5261848 -0.22613172 0 -0.00017709037 0 0)
(-1.4920507 -0.22277473 0 -9.5958699e-05 0 0)
(-1.5171693 -0.22516465 0 -1.9997295e-05 0 0)
(-1.4916316 -0.22266248 0 -2.0128691e-06 0 0)
(-1.5137914 -0.22489031 0 -7.0369683e-06 0 0)
(-1.4925581 -0.22277079 0 8.187769e-06 0 0)
(-1.5121527 -0.22475702 0 -8.4197206e-06 0 0)
(-1.4936047 -0.22288703 0 7.6547023e-06 0 0)
(-1.5109568 -0.22464367 0 -7.8754622e-06 0 0)
(-1.4946034 -0.22299109 0 6.9339624e-06 0 0)
(-1.5099411 -0.22454275 0 -6.8931172e-06 0 0)
(-1.4955098 -0.22308396 0 6.2741e-06 0 0)
(-1.5090509 -0.22445361 0 -6.0566293e-06 0 0)
(-1.496321 -0.22316682 0 5.6326022e-06 0 0)
(-1.5082643 -0.22437472 0 -5.3636392e-06 0 0)
(-1.4970449 -0.22324068 0 5.0373333e-06 0 0)
(-1.5075666 -0.22430468 0 -4.7729104e-06 0 0)
(-1.4976908 -0.22330653 0 4.5019891e-06 0 0)
(-1.506946 -0.22424232 0 -4.2603987e-06 0 0)
(-1.4982677 -0.2233653 0 4.0276702e-06 0 0)
(-1.5063927 -0.22418667 0 -3.8128414e-06 0 0)
(-1.4987839 -0.22341785 0 3.6105527e-06 0 0)
(-1.5058981 -0.22413687 0 -3.4217653e-06 0 0)
(-1.4992468 -0.22346494 0 3.2456021e-06 0 0)
(-1.5054547 -0.22409218 0 -3.0808819e-06 0 0)
(-1.499663 -0.22350728 0 2.9278866e-06 0 0)
(-1.5050558 -0.22405195 0 -2.7850965e-06 0 0)
(-1.5000387 -0.22354548 0 2.6529628e-06 0 0)
(-1.5046955 -0.22401557 0 -2.5301307e-06 0 0)
(-1.5003791 -0.2235801 0 2.4169614e-06 0 0)
(-1.5043686 -0.22398253 0 -2.3123712e-06 0 0)
(-1.5006894 -0.22361164 0 2.2165928e-06 0 0)
(-1.50407 -0.22395233 0 -2.1288117e-06 0 0)
(-1.5009739 -0.22364057 0 2.0491542e-06 0 0)
(-1.5037955 -0.22392454 0 -1.9770278e-06 0 0)
(-1.5012367 -0.2236673 0 1.9126528e-06 0 0)
(-1.503541 -0.22389874 0 -1.8551536e-06 0 0)
(-1.5014818 -0.22369224 0 1.8055528e-06 0 0)
(-1.5033028 -0.22387457 0 -1.7649023e-06 0 0)
(-1.5017127 -0.22371577 0 1.7185499e-06 0 0)
(-1.5030773 -0.22385173 0 -1.7221128e-06 0 0)
(-1.5019307 -0.22373799 0 1.6866208e-06 0 0)
(-1.502853 -0.22382795 0 -1.3666308e-06 0 0)
(-1.5021261 -0.22375437 0 2.9114748e-06 0 0)
(-1.50261 -0.22380951 0 -2.7837934e-06 0 0)
(-1.57855 -0.52771963 0 -0.13573777 0 0)
(-1.3670165 -0.24181046 0 -0.014834248 0 0)
(-1.4520864 -0.24551322 0 -0.0090134463 0 0)
(-1.4725872 -0.22500209 0 -0.001162758 0 0)
(-1.4065768 -0.21677527 0 -0.00049567149 0 0)
(-1.4221683 -0.2181334 0 -0.0001439058 0 0)
(-1.390327 -0.21496202 0 -8.4944691e-05 0 0)
(-1.4127074 -0.2172322 0 -1.1242262e-05 0 0)
(-1.3893164 -0.21487307 0 -1.8824608e-06 0 0)
(-1.4092746 -0.21697712 0 -4.0795832e-06 0 0)
(-1.3899589 -0.2149742 0 6.896769e-06 0 0)
(-1.4076942 -0.21685172 0 -6.5865997e-06 0 0)
(-1.3908561 -0.21508377 0 6.1891878e-06 0 0)
(-1.4065888 -0.21674484 0 -6.3843019e-06 0 0)
(-1.3917506 -0.2151822 0 5.5688602e-06 0 0)
(-1.4056638 -0.21664956 0 -5.5928931e-06 0 0)
(-1.3925701 -0.21527002 0 5.0520312e-06 0 0)
(-1.4048557 -0.21656533 0 -4.9043471e-06 0 0)
(-1.393305 -0.21534836 0 4.5450194e-06 0 0)
(-1.404142 -0.21649074 0 -4.3381169e-06 0 0)
(-1.3939611 -0.21541821 0 4.0687655e-06 0 0)
(-1.4035089 -0.2164245 0 -3.8583772e-06 0 0)
(-1.3945467 -0.21548049 0 3.6377261e-06 0 0)
(-1.4029458 -0.2163655 0 -3.4432457e-06 0 0)
(-1.3950698 -0.21553609 0 3.2546845e-06 0 0)
(-1.4024436 -0.21631283 0 -3.0809826e-06 0 0)
(-1.3955379 -0.21558581 0 2.9173387e-06 0 0)
(-1.4019948 -0.2162657 0 -2.7644141e-06 0 0)
(-1.3959577 -0.21563038 0 2.6219282e-06 0 0)
(-1.4015924 -0.2162234 0 -2.4883782e-06 0 0)
(-1.3963351 -0.21567045 0 2.3645882e-06 0 0)
(-1.4012305 -0.21618532 0 -2.2487465e-06 0 0)
(-1.3966758 -0.21570661 0 2.1417742e-06 0 0)
(-1.4009037 -0.21615088 0 -2.0420622e-06 0 0)
(-1.3969845 -0.21573939 0 1.9503729e-06 0 0)
(-1.4006071 -0.21611959 0 -1.8654012e-06 0 0)
(-1.3972658 -0.21576926 0 1.7877215e-06 0 0)
(-1.4003363 -0.21609098 0 -1.7163228e-06 0 0)
(-1.3975237 -0.21579666 0 1.6516196e-06 0 0)
(-1.4000874 -0.21606465 0 -1.5928421e-06 0 0)
(-1.397762 -0.21582199 0 1.5404401e-06 0 0)
(-1.3998567 -0.2160402 0 -1.493377e-06 0 0)
(-1.397984 -0.21584562 0 1.45288e-06 0 0)
(-1.3996408 -0.2160173 0 -1.4195722e-06 0 0)
(-1.3981933 -0.21586794 0 1.3797123e-06 0 0)