/*--------------------------------*- C++ -*----------------------------------*\
| =========                 |                                                 |
| \\      /  F ield         | OpenFOAM: The Open Source CFD Toolbox           |
|  \\    /   O peration     | Version:  2312                                  |
|   \\  /    A nd           | Website:  www.openfoam.com                      |
|    \\/     M anipulation  |                                                 |
\*---------------------------------------------------------------------------*/
FoamFile
{
    version     2.0;
    format      ascii;
    arch        "LSB;label=32;scalar=64";
    class       volScalarField;
    location    "8";
    object      T;
}
// * * * * * * * * * * * * * * * * * * * * * * * * * * * * * * * * * * * * * //

dimensions      [0 0 0 1 0 0 0];

internalField   nonuniform List<scalar> 
4000
(
329.77597
328.5777
328.38968
328.311
328.25498
328.20244
328.16174
328.11861
328.08414
328.04549
328.01392
327.97793
327.94802
327.91382
327.88496
327.85203
327.82388
327.7919
327.76427
327.73301
327.70577
327.67508
327.64814
327.6179
327.5912
327.56134
327.53483
327.50527
327.47894
327.44962
327.42345
327.39433
327.36829
327.33933
327.31342
327.28459
327.25881
327.23008
327.20442
327.17576
327.15023
327.12161
327.09622
327.0676
327.04237
327.01371
326.98869
326.95989
326.93526
326.90569
331.85101
329.79101
329.28592
329.10207
328.98632
328.88103
328.81109
328.73395
328.68272
328.61899
328.57645
328.52072
328.48314
328.43276
328.39834
328.35176
328.3195
328.27576
328.24505
328.20347
328.17392
328.13406
328.1054
328.06691
328.03898
328.00158
327.97426
327.93776
327.91096
327.87519
327.84884
327.81368
327.78775
327.75307
327.72753
327.69324
327.66807
327.63407
327.60928
327.57549
327.55108
327.51741
327.49341
327.45976
327.43625
327.40247
327.37959
327.34538
327.32369
327.28725
333.17209
330.9668
330.17542
329.88917
329.71477
329.55749
329.45848
329.34774
329.27973
329.19121
329.13764
329.06237
329.01707
328.95066
328.91063
328.85054
328.8141
328.7587
328.72486
328.67306
328.64115
328.59219
328.56178
328.51508
328.48589
328.44102
328.41284
328.36946
328.34215
328.29999
328.27344
328.23227
328.20642
328.16605
328.14086
328.10113
328.07656
328.03732
328.01337
327.97448
327.95117
327.91248
327.88987
327.8512
327.82939
327.79052
327.76975
327.73016
327.71135
327.66835
334.0683
332.06968
331.04721
330.66638
330.43619
330.22881
330.10136
329.95793
329.87331
329.76057
329.696
329.6016
329.54854
329.46643
329.42072
329.34737
329.30669
329.23985
329.2028
329.14095
329.10662
329.0487
329.01649
328.96171
328.9312
328.87897
328.84988
328.79971
328.77185
328.72337
328.69658
328.64948
328.62367
328.57768
328.55279
328.50769
328.48368
328.43926
328.41612
328.37218
328.34995
328.30628
328.28501
328.24139
328.22124
328.17732
328.15863
328.11373
328.09771
328.04855
334.70442
333.06953
331.88705
331.42554
331.14487
330.8908
330.73627
330.56175
330.46096
330.32497
330.24957
330.13672
330.07594
329.97863
329.92723
329.841
329.79605
329.71808
329.67777
329.60614
329.56933
329.50268
329.4686
329.40593
329.37405
329.31461
329.28457
329.22775
329.19928
329.14461
329.11753
329.06461
329.0388
328.98729
328.96267
328.91228
328.88879
328.83926
328.8169
328.76798
328.74678
328.69821
328.67825
328.62974
328.61121
328.56233
328.54565
328.49555
328.48215
328.42735
335.16966
333.94413
332.67966
332.15693
331.83388
331.53825
331.35899
331.15573
331.03966
330.88184
330.79598
330.66565
330.59733
330.48553
330.42852
330.32997
330.28075
330.19208
330.14851
330.06745
330.02813
329.95304
329.91706
329.84676
329.81347
329.74704
329.71599
329.65271
329.6236
329.5629
329.53549
329.4769
329.45104
329.39415
329.36974
329.31419
329.29118
329.23666
329.21503
329.16124
329.14102
329.08766
329.06895
329.01566
328.99867
328.94495
328.93018
328.87506
328.86406
328.80414
335.51813
334.68279
333.41083
332.85018
332.49554
332.16529
331.96471
331.73591
331.60594
331.42819
331.33255
331.18602
331.1105
330.98516
330.92271
330.81257
330.75917
330.66039
330.61358
330.52355
330.48174
330.3986
330.3607
330.28309
330.24836
330.17523
330.14315
330.07366
330.04386
329.97736
329.94957
329.8855
329.85955
329.79745
329.77321
329.71267
329.69008
329.63073
329.60977
329.55126
329.53196
329.47395
329.45642
329.39849
329.38296
329.32456
329.31159
329.25166
329.2428
329.17831
335.78331
335.28351
334.06914
333.49531
333.12198
332.76566
332.54825
332.29794
332.15601
331.96072
331.8563
331.6952
331.61304
331.47533
331.40777
331.28692
331.22954
331.12135
331.07142
330.973
330.92875
330.83804
330.79825
330.71374
330.67758
330.59809
330.56496
330.48957
330.45906
330.38702
330.35884
330.28952
330.26345
330.19635
330.17226
330.10691
330.0847
330.0207
330.00036
329.93731
329.91887
329.85638
329.83995
329.77757
329.7634
329.70053
329.68919
329.62474
329.6177
329.54917
335.98865
335.75408
334.64724
334.08373
333.70581
333.33317
333.10437
332.83734
332.68593
332.47598
332.36412
332.19037
332.10238
331.95369
331.88151
331.75102
331.68997
331.5732
331.52036
331.41423
331.36767
331.26996
331.22836
331.13742
331.09988
331.01444
330.9803
330.89935
330.86815
330.79088
330.76229
330.68802
330.66181
330.58996
330.56597
330.49606
330.4742
330.40577
330.38599
330.31861
330.30097
330.23421
330.2188
330.15219
330.13928
330.07217
330.0623
329.99366
329.98813
329.91603
336.15016
336.108
335.14212
334.60913
334.24076
333.86212
333.62807
333.34969
333.19178
332.97045
332.85283
332.66868
332.57586
332.41782
332.34168
332.20278
332.1385
332.01413
331.95867
331.84561
331.79694
331.69288
331.64962
331.5528
331.51397
331.42305
331.38796
331.30187
331.27001
331.18787
331.1589
331.07999
331.05364
330.97736
330.95346
330.87925
330.8577
330.7851
330.76585
330.69439
330.67747
330.6067
330.59222
330.52163
330.50985
330.4388
330.43022
330.35774
330.3534
330.27819
336.27959
336.36345
335.55514
335.06812
334.72211
334.34775
334.11488
333.83089
333.66986
333.44076
333.31936
333.12727
333.03088
332.8653
332.78601
332.6401
332.57314
332.44227
332.38457
332.26549
332.21499
332.10531
332.06058
331.95851
331.91854
331.82268
331.78673
331.69596
331.66352
331.57693
331.54761
331.46444
331.43797
331.35758
331.33377
331.25559
331.23433
331.15784
331.13908
331.06382
331.04758
330.97307
330.95944
330.88516
330.87439
330.79971
330.79223
330.71631
330.71288
330.63494
336.38551
336.54018
335.89135
335.46036
335.14714
334.78653
334.5612
334.27742
334.11685
333.8838
333.76081
333.56346
333.46492
333.29376
333.21232
333.06088
332.99195
332.85576
332.79634
332.67218
332.62023
332.50574
332.45981
332.35317
332.31226
332.21204
332.17539
332.08046
332.04754
331.95695
331.92736
331.84033
331.81379
331.72966
331.70596
331.62415
331.60318
331.52315
331.50484
331.4261
331.41047
331.33254
331.31968
331.24204
331.23214
331.15419
331.14762
331.06866
331.06588
330.98559
336.47405
336.65772
336.15868
335.78834
335.51523
335.17644
334.96451
334.68653
334.53006
334.29689
334.17465
333.9748
333.87569
333.70103
333.61852
333.46318
333.39306
333.25284
333.19227
333.0641
333.01112
332.89269
332.8459
332.73543
332.69383
332.58989
332.55273
332.45419
332.42093
332.32684
332.29708
332.20665
332.1801
332.09265
332.06911
331.98404
331.96337
331.88015
331.86228
331.78042
331.76535
331.68435
331.67216
331.59151
331.58236
331.50153
331.49568
331.41409
331.41177
331.32945
336.54977
336.7336
336.36671
336.05689
335.82784
335.51706
335.32349
335.05639
334.90747
334.67793
334.55881
334.35923
334.2612
334.08516
334.00278
333.84519
333.77476
333.63184
333.57079
333.4397
333.3862
333.26476
333.2175
333.10398
333.06199
332.95502
332.91758
332.81604
332.78261
332.68556
332.65576
332.56241
332.53594
332.44561
332.42227
332.33437
332.31402
332.22801
332.21057
332.12595
332.11142
332.02771
332.01613
331.93286
331.92434
331.84102
331.83573
331.75193
331.74988
331.66584
336.61578
336.78231
336.52573
336.27248
336.08833
335.80959
335.63815
335.38621
335.24794
335.02547
334.91174
334.71511
334.61984
334.44451
334.36349
334.20535
334.13553
333.9913
333.93047
333.79761
333.74414
333.62065
333.57335
333.45761
333.41557
333.30628
333.26883
333.16491
333.13153
333.03208
333.0024
332.90664
332.88037
332.78764
332.76457
332.67428
332.65429
332.56591
332.5489
332.46194
332.4479
332.3619
332.35085
332.26536
332.25737
332.17196
332.1671
332.08148
332.07959
331.99412
336.67433
336.81496
336.64574
336.44258
336.3015
336.05661
335.90972
335.67626
335.55119
335.33882
335.23255
335.04136
334.95044
334.77784
334.69943
334.54236
334.47413
334.32994
334.27009
334.1366
334.08376
333.95919
333.91232
333.79521
333.75349
333.64263
333.60545
333.49983
333.46672
333.36547
333.33607
333.23845
333.2125
333.11787
333.09517
333.00296
332.98337
332.89306
332.87651
332.78763
332.77407
332.68619
332.67562
332.58832
332.58077
332.4937
332.48914
332.4021
332.40029
332.31368
336.72689
336.8393
336.7359
336.57495
336.47312
336.26188
336.14057
335.92781
335.81783
335.61802
335.52098
335.33743
335.25233
335.08432
335.00969
334.85528
334.78958
334.64676
334.58865
334.45566
334.40406
334.27939
334.23343
334.1158
334.0748
333.96312
333.92654
333.81988
333.78729
333.68484
333.65594
333.55701
333.53154
333.43552
333.41329
333.31963
333.30053
333.20875
333.19267
333.10232
333.08923
332.9999
332.98977
332.9011
332.89391
332.80559
332.80125
332.71318
332.71138
332.62392
336.77453
336.8603
336.80403
336.6771
336.60937
336.42994
336.33393
336.14301
336.04927
335.86385
335.77742
335.60335
335.52535
335.36359
335.29382
335.14351
335.08123
334.94104
334.88541
334.75401
334.70426
334.58044
334.5359
334.41859
334.37872
334.26696
334.23131
334.12428
334.09249
333.98946
333.96126
333.86158
333.83675
333.73986
333.71823
333.62362
333.60507
333.51229
333.49674
333.40537
333.39275
333.30242
333.2927
333.20308
333.19619
333.10704
333.10286
333.01412
333.01232
332.92431
336.81795
336.88065
336.85648
336.75583
336.71642
336.56579
336.49369
336.32469
336.24762
336.07778
336.0029
335.83974
335.76983
335.61572
335.55176
335.40682
335.34879
335.21237
335.15992
335.03113
334.98381
334.86176
334.81913
334.70295
334.66461
334.55351
334.51913
334.4124
334.38168
334.27867
334.25139
334.15153
334.12751
334.03028
334.00938
333.91432
333.89641
333.80311
333.78812
333.69619
333.68407
333.59317
333.58384
333.4937
333.4871
333.39752
333.39346
333.30442
333.3026
333.21433
336.85766
336.90154
336.89815
336.817
336.80005
336.67449
336.62408
336.47622
336.41556
336.26179
336.19896
336.04769
335.98662
335.84126
335.78385
335.64538
335.5923
335.46066
335.41201
335.28677
335.24242
335.12299
335.08272
334.96845
334.93204
334.8223
334.78951
334.68372
334.65435
334.55196
334.52583
334.42634
334.40331
334.30626
334.28621
334.1912
334.17403
334.08067
334.06632
333.97428
333.96268
333.87166
333.86273
333.77249
333.76615
333.67654
333.67259
333.58359
333.58176
333.49354
336.89404
336.92319
336.93256
336.86534
336.86543
336.76093
336.72943
336.60123
336.55612
336.41835
336.3676
336.22877
336.17695
336.04114
335.99083
335.85969
335.81212
335.68614
335.64182
335.52095
335.48005
335.36399
335.32652
335.21487
335.18075
335.07304
335.04215
334.93793
334.91015
334.80897
334.78419
334.68562
334.66374
334.5674
334.54833
334.45385
334.43752
334.34458
334.33092
334.23922
334.22818
334.13746
334.12895
334.03902
334.03294
333.94368
333.93984
333.85123
333.84941
333.76155
336.92742
336.94533
336.96215
336.90454
336.91692
336.82956
336.81394
336.70344
336.67256
336.55019
336.51116
336.38489
336.34243
336.21666
336.17378
336.05061
336.00896
335.88932
335.84975
335.73394
335.6969
335.5849
335.55059
335.4422
335.41069
335.30562
335.27692
335.17483
335.1489
335.04946
335.02624
334.9291
334.90855
334.81339
334.79545
334.70196
334.68658
334.59449
334.58161
334.49067
334.48023
334.39024
334.38217
334.29295
334.28714
334.1986
334.19488
334.10699
334.1052
334.01801
336.95805
336.96747
336.98846
336.93733
336.9581
336.88427
336.88149
336.78646
336.76817
336.6602
336.63217
336.51823
336.48497
336.3694
336.33406
336.21926
336.18378
336.07099
336.03648
335.92628
335.89342
335.78603
335.75519
335.65062
335.62201
335.52012
335.49385
335.39443
335.37056
335.27336
335.25189
335.15667
335.13759
335.04408
335.02739
334.93535
334.92099
334.8302
334.81816
334.72841
334.71862
334.62974
334.62214
334.53401
334.52849
334.44102
334.43746
334.35061
334.34888
334.26266
336.98619
336.98918
337.01243
336.9656
336.99173
336.92831
336.9355
336.85366
336.84613
336.75127
336.73329
336.63112
336.60662
336.50118
336.47327
336.36703
336.33779
336.23218
336.2029
336.09874
336.07026
335.96795
335.9408
335.84052
335.81503
335.71679
335.69317
335.59687
335.57525
335.48075
335.46119
335.36832
335.35086
335.25943
335.24409
335.15391
335.14069
335.05159
335.04045
334.95227
334.94319
334.8558
334.84872
334.76202
334.75684
334.67076
334.66738
334.58189
334.58022
334.49529
337.01206
337.01008
337.03458
336.99066
337.01987
336.96431
336.97891
336.90803
336.90943
336.82621
336.81713
336.72593
336.70959
336.61392
336.59318
336.49545
336.47238
336.37412
336.35012
336.25226
336.22829
336.1314
336.10808
336.01247
335.99026
335.89606
335.87525
335.78247
335.76325
335.67185
335.65433
335.56421
335.54849
335.45952
335.44564
335.3577
335.34568
335.25864
335.24848
335.16223
335.15391
335.06836
335.06183
334.97689
334.97208
334.88771
334.88455
334.8007
334.79913
334.71576
337.03586
337.02994
337.05516
337.01332
337.04402
336.99431
337.01414
336.9522
336.96072
336.88764
336.88621
336.80503
336.79606
336.70966
336.69564
336.60621
336.5891
336.49817
336.47939
336.38796
336.36851
336.27726
336.25786
336.16719
336.14836
336.05851
336.04061
335.95169
335.93496
335.847
335.83163
335.7446
335.7307
335.64455
335.6322
335.54684
335.5361
335.45146
335.44233
335.35834
335.35083
335.26742
335.26149
335.17861
335.17421
335.09184
335.08892
335.00699
335.00554
334.92402
337.05777
337.04864
337.0743
337.03407
337.0652
337.01981
337.04313
336.98834
337.00235
336.93791
336.94287
336.87065
336.86818
336.79039
336.78252
336.70104
336.68956
336.60582
336.59206
336.50709
336.49208
336.40657
336.39107
336.30553
336.29011
336.20484
336.1899
336.1051
336.09094
336.00669
335.99353
335.90989
335.89788
335.81483
335.80408
335.7216
335.71219
335.63024
335.62219
335.54075
335.53408
335.4531
335.4478
335.36727
335.36331
335.28319
335.28054
335.20079
335.19947
335.12005
337.07795
337.06613
337.09206
337.05321
337.08408
337.04193
337.06736
337.01822
337.03628
336.97909
336.98922
336.92489
336.92799
336.85806
336.8557
336.78169
336.7754
336.69859
336.68959
336.61095
336.60022
336.52048
336.50879
336.42847
336.41641
336.33588
336.3239
336.2434
336.23182
336.15152
336.1406
336.06057
336.05049
335.97079
335.96167
335.88232
335.87427
335.79528
335.78834
335.70969
335.70391
335.6256
335.62097
335.54301
335.53952
335.46189
335.45955
335.3822
335.38103
335.30395
337.09654
337.08242
337.10848
337.07089
337.1011
337.06142
337.08794
337.04326
337.06412
337.01295
337.02712
336.96961
336.97738
336.9145
336.91696
336.84986
336.84825
336.77801
336.77342
336.70091
336.69423
336.62016
336.61214
336.53704
336.52826
336.45253
336.44346
336.36738
336.35837
336.28215
336.27346
336.19723
336.18908
336.11293
336.10546
336.02944
336.02278
335.94694
335.94113
335.8655
335.86061
335.7852
335.78125
335.70608
335.70309
335.62814
335.62612
335.55139
335.55037
335.47585
337.11366
337.09755
337.12357
337.08721
337.11652
337.07881
337.10569
337.0645
337.08719
337.04095
337.05814
337.00648
337.01802
336.96139
336.96796
336.90717
336.9097
336.8456
336.845
336.77836
336.77543
336.70687
336.7023
336.63235
336.6267
336.55577
336.54951
336.47791
336.47139
336.39935
336.39286
336.32054
336.3143
336.24183
336.23601
336.16348
336.15819
336.08568
336.08102
336.00856
336.00459
335.93223
335.92899
335.85677
335.85429
335.78221
335.78053
335.70859
335.70774
335.63594
337.12941
337.11155
337.13737
337.1022
337.1305
337.09444
337.12116
337.08277
337.10649
337.06427
337.08362
337.03691
337.05141
337.00026
337.01023
336.95513
336.96123
336.9028
336.90576
336.84463
336.84511
336.78184
336.78046
336.71553
336.71282
336.64663
336.64303
336.5759
336.57177
336.50394
336.49957
336.43124
336.42685
336.35817
336.35394
336.28502
336.28109
336.21202
336.20849
336.13934
336.13628
336.06712
336.06459
335.99546
335.99351
335.92444
335.92309
335.85409
335.85341
335.78449
337.14387
337.12447
337.14992
337.11591
337.14315
337.10853
337.13476
337.09863
337.12279
337.08387
337.10464
337.0621
337.07883
337.03244
337.04515
336.99512
337.00422
336.95098
336.95701
336.90103
336.90454
336.84628
336.8478
336.7877
336.7877
336.72612
336.72502
336.66229
336.66042
336.59678
336.59443
336.5301
336.52749
336.46263
336.45995
336.39469
336.39208
336.32653
336.32411
336.25836
336.2562
336.19034
336.18851
336.12258
336.12114
336.05519
336.05419
335.98824
335.98773
335.92182
337.15708
337.13632
337.16123
337.12835
337.15451
337.1212
337.14675
337.11252
337.13667
337.10047
337.12208
337.08304
337.10136
337.05907
337.07391
337.02837
337.03993
336.99137
337.00002
336.94878
336.95494
336.90138
336.90548
336.84996
336.85242
336.7953
336.79647
336.73804
336.73826
336.67875
336.67829
336.61793
336.617
336.55596
336.55475
336.49318
336.49184
336.42985
336.42849
336.36619
336.36491
336.30239
336.30125
336.23859
336.23767
336.17491
336.17425
336.11144
336.1111
336.04828
337.16909
337.1471
337.17132
337.13953
337.16464
337.13257
337.15731
337.12472
337.14856
337.11463
337.13662
337.10054
337.1199
337.08114
337.09756
337.05596
337.06947
337.02511
337.03593
336.98902
336.99743
336.94824
336.95458
336.9034
336.90803
336.85515
336.85839
336.80409
336.80622
336.75074
336.75201
336.69555
336.69618
336.63892
336.63909
336.58118
336.58103
336.52261
336.52226
336.46343
336.46298
336.40385
336.40337
336.34401
336.34358
336.28407
336.28373
336.22412
336.22394
336.16428
337.17985
337.15679
337.18019
337.14948
337.17355
337.14268
337.16656
337.13544
337.15878
337.12678
337.1488
337.11522
337.13519
337.09946
337.11699
337.07883
337.09383
337.05322
337.06577
337.02278
337.03307
336.98789
336.99615
336.94901
336.95553
336.90667
336.91172
336.86138
336.86521
336.81361
336.81646
336.76379
336.76585
336.71229
336.71372
336.65943
336.66038
336.60549
336.60608
336.55071
336.55103
336.49528
336.49542
336.43938
336.43941
336.38316
336.38314
336.32674
336.32671
336.27024
337.18932
337.16534
337.18786
337.1582
337.18128
337.15158
337.17461
337.14483
337.16754
337.13724
337.15903
337.12759
337.14782
337.1147
337.13293
337.09779
337.11386
337.07656
337.09045
337.051
337.06279
337.02129
337.03113
336.98774
336.99586
336.95076
336.95738
336.91079
336.91612
336.86822
336.87247
336.82345
336.82678
336.77682
336.7794
336.72863
336.7306
336.67917
336.68063
336.62865
336.6297
336.57729
336.57801
336.52526
336.52573
336.47272
336.47299
336.4198
336.41992
336.36663
337.19735
337.17269
337.19431
337.16572
337.18786
337.15933
337.18151
337.15301
337.17502
337.14624
337.16762
337.13805
337.15826
337.1274
337.14601
337.11349
337.13027
337.09591
337.11077
337.0745
337.08744
337.04928
337.0604
337.02045
337.02989
336.9883
336.99623
336.95316
336.95977
336.91539
336.92085
336.87532
336.87978
336.83327
336.83687
336.78952
336.79238
336.74432
336.74656
336.69791
336.69961
336.65049
336.65174
336.60223
336.60309
336.55329
336.55383
336.50381
336.50407
336.45393
337.2038
337.1788
337.19957
337.17206
337.19334
337.16598
337.18734
337.16008
337.18135
337.15396
337.17481
337.1469
337.16688
337.138
337.15671
337.1265
337.14368
337.11191
337.12742
337.09399
337.10778
337.07264
337.08473
337.04793
337.05842
337.02006
337.02907
336.98929
336.99696
336.95589
336.96237
336.92016
336.92557
336.88236
336.88684
336.84277
336.84642
336.80162
336.80454
336.75912
336.76141
336.71547
336.71719
336.67085
336.67207
336.62541
336.62619
336.57929
336.57967
336.53264
337.20852
337.18363
337.20365
337.17728
337.19776
337.17158
337.19216
337.16611
337.18664
337.16056
337.1808
337.15439
337.17398
337.14685
337.16544
337.13726
337.15458
337.12511
337.141
337.11009
337.12444
337.09202
337.10481
337.07088
337.08216
337.04677
337.05662
337.01989
337.02841
336.99044
336.99775
336.95866
336.96487
336.92479
336.93001
336.88907
336.89339
336.85171
336.85522
336.81291
336.8157
336.77285
336.77498
336.73171
336.73324
336.68963
336.69063
336.64677
336.64725
336.60325
337.21151
337.18722
337.20662
337.18144
337.2012
337.1762
337.19605
337.17118
337.19098
337.16614
337.18573
337.16069
337.17979
337.15423
337.17253
337.14615
337.1634
337.13596
337.15199
337.12333
337.13799
337.10801
337.12126
337.08991
337.10175
337.06908
337.07955
337.04562
337.05479
337.01969
337.02766
336.99149
336.99833
336.9612
336.96702
336.92905
336.93392
336.89521
336.89922
336.85987
336.86308
336.8232
336.82568
336.78536
336.78717
336.74651
336.74768
336.70677
336.70734
336.66627
337.21289
337.18967
337.20858
337.18463
337.20374
337.17992
337.19908
337.17537
337.19446
337.17081
337.18973
337.16596
337.18449
337.16035
337.17824
337.15346
337.17048
337.14484
337.1608
337.13414
337.14891
337.1211
337.13458
337.10557
337.11775
337.08755
337.09843
337.06707
337.0767
337.04426
337.0527
337.01925
337.02658
336.99221
336.99849
336.9633
336.96862
336.93271
336.93712
336.90059
336.90415
336.86709
336.86986
336.83237
336.83439
336.79656
336.79788
336.75979
336.76044
336.72219
337.21298
337.19114
337.20966
337.18695
337.20547
337.18282
337.20133
337.17876
337.19717
337.17466
337.1929
337.17032
337.18824
337.16539
337.18277
337.15942
337.17607
337.15204
337.16777
337.14289
337.15757
337.13171
337.14523
337.11832
337.13064
337.10267
337.11378
337.08477
337.09469
337.06467
337.07344
337.04249
337.05016
337.01835
337.02498
336.9924
336.99804
336.96477
336.96948
336.93561
336.93944
336.90505
336.90805
336.87324
336.87544
336.84029
336.84174
336.80634
336.80706
336.7715
337.21217
337.19183
337.21
337.18853
337.2065
337.185
337.20288
337.18143
337.19917
337.17776
337.19532
337.17387
337.19114
337.16948
337.18628
337.16423
337.1804
337.1578
337.17317
337.14987
337.16431
337.14018
337.15358
337.12855
337.14085
337.11488
337.12606
337.09916
337.10921
337.08142
337.09036
337.06171
337.06959
337.04015
337.047
337.01684
337.0227
336.99189
336.99682
336.96544
336.96946
336.9376
336.94075
336.90848
336.91081
336.87822
336.87975
336.84691
336.84767
336.81467
337.21084
337.19196
337.20976
337.18949
337.20694
337.18655
337.20383
337.18346
337.20055
337.1802
337.19709
337.17669
337.19329
337.17273
337.1889
337.16803
337.18363
337.16231
337.17721
337.15532
337.16939
337.1468
337.15993
337.13658
337.14871
337.12455
337.13564
337.11066
337.1207
337.09492
337.10391
337.07736
337.08532
337.05805
337.06501
337.03709
337.04308
337.01456
337.01961
336.99056
336.9947
336.96519
336.96846
336.93857
336.94099
336.91079
336.91239
336.88196
336.88275
336.85217
337.20929
337.1917
337.20909
337.18994
337.20687
337.18756
337.20426
337.18492
337.20138
337.18204
337.19826
337.17886
337.19477
337.17522
337.19072
337.17091
337.18589
337.16572
337.18006
337.15942
337.17301
337.15179
337.16454
337.14268
337.15451
337.13196
337.14284
337.11959
337.12949
337.10553
337.11445
337.08981
337.09775
337.07247
337.07944
337.05358
337.0596
337.03319
337.03829
337.0114
337.0156
336.98829
336.99161
336.96395
336.96641
336.93846
336.94009
336.91192
336.91273
336.88442
337.20768
337.1912
337.2081
337.19001
337.20641
337.18812
337.20423
337.18589
337.20173
337.18334
337.19889
337.18042
337.19564
337.17702
337.19182
337.17298
337.18727
337.16813
337.18184
337.1623
337.17534
337.15533
337.1676
337.14706
337.1585
337.13738
337.14795
337.12624
337.13589
337.11358
337.12231
337.09942
337.10723
337.08377
337.09066
337.06667
337.07265
337.04819
337.05327
337.02837
337.03257
337.00729
337.01062
336.98502
336.9875
336.96163
336.96327
336.93721
336.93803
336.91183
337.20609
337.19055
337.2069
337.18977
337.20564
337.1883
337.20384
337.18643
337.20165
337.18415
337.19904
337.18143
337.19594
337.17817
337.19224
337.17427
337.18784
337.16961
337.18263
337.16408
337.17649
337.15756
337.16926
337.1499
337.16085
337.14101
337.15117
337.13084
337.14016
337.11933
337.12779
337.10646
337.11406
337.09225
337.09898
337.07672
337.08258
337.05989
337.06489
337.04183
337.04597
337.02257
337.02586
337.00217
337.00463
336.9807
336.98233
336.95823
336.95904
336.93481
337.20454
337.18983
337.20556
337.1893
337.20462
337.18817
337.20314
337.18659
337.20119
337.18453
337.19873
337.18192
337.19569
337.1787
337.19201
337.17481
337.18763
337.17021
337.1825
337.16482
337.17654
337.15856
337.16964
337.15131
337.16171
337.14301
337.15268
337.13358
337.1425
337.12299
337.13111
337.11119
337.11851
337.09819
337.1047
337.084
337.08968
337.06862
337.07348
337.0521
337.05614
337.03446
337.03768
337.01575
337.01815
336.99601
336.99761
336.97532
336.97611
336.9537
337.20299
337.18904
337.20412
337.18865
337.20341
337.1878
337.20217
337.18643
337.2004
337.18448
337.198
337.18189
337.19492
337.1786
337.19114
337.17463
337.18666
337.16995
337.18148
337.16456
337.17556
337.1584
337.16882
337.1514
337.1612
337.1435
337.15263
337.13463
337.14307
337.12475
337.13247
337.11382
337.1208
337.10183
337.10806
337.08877
337.09423
337.07464
337.07933
337.05947
337.06337
337.04327
337.04638
337.02606
337.0284
337.0079
337.00945
336.98882
336.98959
336.96886
337.20145
337.18821
337.20262
337.18788
337.20207
337.18721
337.20099
337.18597
337.19929
337.18404
337.19684
337.18135
337.1936
337.17789
337.18962
337.1737
337.18493
337.16884
337.17957
337.16332
337.17356
337.15714
337.16684
337.15023
337.15938
337.14257
337.15113
337.13409
337.14203
337.12475
337.13204
337.11452
337.12112
337.10336
337.10926
337.09125
337.09645
337.0782
337.08267
337.06421
337.06794
337.04927
337.05225
337.03341
337.03565
337.01666
337.01815
336.99904
336.99979
336.98059
337.19988
337.18735
337.20108
337.187
337.20061
337.18644
337.19961
337.18523
337.19787
337.1832
337.19524
337.18028
337.19173
337.17652
337.18742
337.17201
337.1824
337.16685
337.17677
337.1611
337.17055
337.15477
337.16375
337.14784
337.15632
337.14029
337.14824
337.13207
337.13946
337.12313
337.12994
337.11344
337.11963
337.10295
337.1085
337.09165
337.09655
337.07952
337.08374
337.06654
337.07007
337.05271
337.05555
337.03805
337.04018
337.02257
337.02398
337.00627
337.00698
336.9892
337.19828
337.18644
337.19949
337.18603
337.19906
337.18551
337.19805
337.18421
337.19613
337.18192
337.19318
337.17864
337.18926
337.17445
337.1845
337.16951
337.17905
337.16395
337.17304
337.15787
337.16653
337.1513
337.15954
337.14426
337.15205
337.13671
337.14404
337.12864
337.13546
337.11998
337.12628
337.11069
337.11645
337.10075
337.10593
337.09012
337.0947
337.07876
337.08272
337.06667
337.06999
337.05382
337.05649
337.04022
337.04222
337.02586
337.0272
337.01077
337.01143
336.99494
337.19664
337.18548
337.19786
337.18497
337.19743
337.18441
337.19628
337.18288
337.19403
337.18018
337.1906
337.17638
337.18612
337.17163
337.1808
337.16614
337.17483
337.16009
337.16836
337.1536
337.16147
337.14673
337.15422
337.13948
337.14658
337.13187
337.13856
337.12384
337.1301
337.11536
337.12116
337.10639
337.1117
337.09689
337.10167
337.0868
337.09105
337.07611
337.07979
337.06478
337.06787
337.05279
337.05527
337.04012
337.04199
337.02678
337.02803
337.01276
337.01338
336.99807
337.19493
337.18447
337.19619
337.18383
337.1957
337.18314
337.19428
337.18119
337.19152
337.1779
337.18744
337.17341
337.18225
337.16798
337.17625
337.16185
337.16966
337.15523
337.16266
337.14826
337.15534
337.14102
337.14777
337.13352
337.13993
337.12576
337.13183
337.11772
337.12341
337.10936
337.11464
337.10062
337.10547
337.09146
337.09585
337.08183
337.08574
337.0717
337.07509
337.06103
337.06389
337.04979
337.05209
337.03795
337.03969
337.02552
337.02668
337.01247
337.01305
336.9988
337.19315
337.1834
337.19447
337.18261
337.19386
337.18164
337.19199
337.17908
337.18851
337.175
337.18358
337.16966
337.17755
337.1634
337.17076
337.15654
337.16348
337.14929
337.15589
337.1418
337.14811
337.13415
337.14017
337.12636
337.1321
337.11842
337.12387
337.11032
337.11545
337.10201
337.10679
337.09344
337.09784
337.08455
337.08855
337.07531
337.07888
337.06566
337.06877
337.05556
337.05818
337.04498
337.0471
337.03389
337.03549
337.02226
337.02333
337.01009
337.01062
336.99736
337.19129
337.18227
337.19271
337.18128
337.19187
337.17985
337.18932
337.17645
337.18489
337.17135
337.17893
337.165
337.17191
337.15782
337.16424
337.15015
337.15621
337.14222
337.148
337.13418
337.13972
337.12609
337.1314
337.11798
337.12307
337.10985
337.1147
337.10166
337.10624
337.09336
337.09765
337.08491
337.08888
337.07625
337.07987
337.06733
337.07057
337.0581
337.06092
337.0485
337.0509
337.03851
337.04044
337.02808
337.02954
337.01718
337.01816
337.0058
337.00629
336.99392
337.18933
337.1811
337.19088
337.1798
337.18966
337.1777
337.18616
337.17316
337.18053
337.16683
337.17334
337.15931
337.16521
337.1511
337.1566
337.14258
337.14778
337.13394
337.13893
337.12533
337.13014
337.11681
337.12145
337.10838
337.11285
337.10004
337.10432
337.09175
337.09581
337.08345
337.08728
337.0751
337.07865
337.06663
337.06988
337.05799
337.06091
337.04912
337.05168
337.03998
337.04214
337.0305
337.03226
337.02066
337.022
337.01043
337.01132
336.99977
337.00022
336.98867
337.18724
337.17988
337.18898
337.17814
337.18714
337.17504
337.18237
337.16907
337.17526
337.16127
337.16667
337.15245
337.15734
337.14316
337.14773
337.13374
337.13811
337.1244
337.12862
337.11523
337.11934
337.10629
337.11028
337.09756
337.10143
337.08902
337.09275
337.08063
337.0842
337.07232
337.0757
337.06406
337.06721
337.05576
337.05865
337.04737
337.04997
337.03883
337.04112
337.03008
337.03203
337.02108
337.02266
337.01178
337.01299
337.00215
337.00296
336.99215
336.99256
336.98176
337.18503
337.17865
337.18696
337.17621
337.18417
337.17171
337.17775
337.16397
337.1689
337.15452
337.15877
337.1443
337.14817
337.13388
337.13754
337.12357
337.12712
337.11354
337.11703
337.10384
337.10729
337.0945
337.09789
337.0855
337.08882
337.07678
337.08001
337.06831
337.07142
337.06001
337.06297
337.05182
337.0546
337.04368
337.04625
337.03553
337.03784
337.02729
337.02933
337.01892
337.02066
337.01035