/*--------------------------------*- C++ -*----------------------------------*\
| =========                 |                                                 |
| \\      /  F ield         | OpenFOAM: The Open Source CFD Toolbox           |
|  \\    /   O peration     | Version:  2312                                  |
|   \\  /    A nd           | Website:  www.openfoam.com                      |
|    \\/     M anipulation  |                                                 |
\*---------------------------------------------------------------------------*/
FoamFile
{
    version     2.0;
    format      ascii;
    arch        "LSB;label=32;scalar=64";
    class       volVectorField;
    location    "8";
    object      U;
}
// * * * * * * * * * * * * * * * * * * * * * * * * * * * * * * * * * * * * * //

dimensions      [0 1 -1 0 0 0 0];

internalField   nonuniform List<vector> 
4000
(
(0.0026792191 0.00052906008 0)
(0.0043102572 -1.0123251e-05 0)
(0.0028688865 -3.8216337e-07 0)
(0.0031118961 7.0389924e-08 0)
(0.0030046554 -2.0238362e-07 0)
(0.0030579822 1.8845216e-07 0)
(0.0029969977 -2.1431849e-07 0)
(0.0030397954 1.8339798e-07 0)
(0.0029992402 -1.759504e-07 0)
(0.0030351783 1.6446392e-07 0)
(0.0030015384 -1.550565e-07 0)
(0.0030327398 1.4584707e-07 0)
(0.0030033702 -1.3760951e-07 0)
(0.0030308783 1.2960236e-07 0)
(0.003004977 -1.2226137e-07 0)
(0.0030292934 1.1523819e-07 0)
(0.0030064263 -1.0869258e-07 0)
(0.0030278976 1.0250454e-07 0)
(0.003007729 -9.6701437e-08 0)
(0.0030266568 9.1247862e-08 0)
(0.0030088951 -8.6125391e-08 0)
(0.0030255508 8.1326825e-08 0)
(0.0030099374 -7.6820474e-08 0)
(0.0030245636 7.2608174e-08 0)
(0.0030108689 -6.8656104e-08 0)
(0.0030236812 6.4968794e-08 0)
(0.0030117024 -6.1514007e-08 0)
(0.0030228911 5.8296908e-08 0)
(0.0030124497 -5.5288048e-08 0)
(0.0030221817 5.249255e-08 0)
(0.0030131218 -4.9884096e-08 0)
(0.0030215425 4.7467533e-08 0)
(0.0030137287 -4.5219699e-08 0)
(0.003020964 4.3145067e-08 0)
(0.0030142795 -4.1223527e-08 0)
(0.0030204373 3.9459121e-08 0)
(0.0030147826 -3.7834652e-08 0)
(0.0030199546 3.6353688e-08 0)
(0.0030152455 -3.50018e-08 0)
(0.0030195087 3.3782061e-08 0)
(0.0030156751 -3.2682658e-08 0)
(0.003019093 3.1706326e-08 0)
(0.0030160778 -3.0843568e-08 0)
(0.0030187011 3.0096641e-08 0)
(0.0030164587 -2.9462607e-08 0)
(0.0030183263 2.8926985e-08 0)
(0.0030168258 -2.8534391e-08 0)
(0.0030179881 2.8237415e-08 0)
(0.0030172953 -2.7702116e-08 0)
(0.0030180167 3.0091607e-08 0)
(0.0068796523 0.0013787316 0)
(0.011824132 1.9635753e-06 0)
(0.0085693285 1.4104189e-05 0)
(0.0089805369 -5.8850368e-07 0)
(0.0087202501 -1.8907123e-07 0)
(0.0088766611 8.6435992e-07 0)
(0.0086991105 -4.8534776e-07 0)
(0.0088247115 6.5771911e-07 0)
(0.0087049572 -5.8688232e-07 0)
(0.0088118843 5.8005187e-07 0)
(0.0087118638 -5.4371859e-07 0)
(0.0088048336 5.1865366e-07 0)
(0.0087173444 -4.872456e-07 0)
(0.0087993203 4.6130676e-07 0)
(0.008722155 -4.3402162e-07 0)
(0.0087945943 4.0983661e-07 0)
(0.0087264925 -3.8611388e-07 0)
(0.0087904287 3.6435427e-07 0)
(0.0087303875 -3.4358064e-07 0)
(0.008786727 3.2426855e-07 0)
(0.0087338718 -3.0602761e-07 0)
(0.0087834285 2.8899675e-07 0)
(0.0087369847 -2.7298557e-07 0)
(0.0087804847 2.5802611e-07 0)
(0.0087397664 -2.4399804e-07 0)
(0.0087778535 2.309014e-07 0)
(0.0087422558 -2.1864378e-07 0)
(0.0087754965 2.0721715e-07 0)
(0.0087444887 -1.965436e-07 0)
(0.008773379 1.8661441e-07 0)
(0.0087464983 -1.7736181e-07 0)
(0.0087714694 1.6877845e-07 0)
(0.0087483147 -1.6080514e-07 0)
(0.008769739 1.5343624e-07 0)
(0.0087499653 -1.466204e-07 0)
(0.0087681618 1.4035347e-07 0)
(0.0087514747 -1.3459144e-07 0)
(0.008766714 1.2933135e-07 0)
(0.0087528658 -1.245361e-07 0)
(0.0087653742 1.2020346e-07 0)
(0.0087541591 -1.1630333e-07 0)
(0.0087641223 1.1283347e-07 0)
(0.008755374 -1.0976842e-07 0)
(0.0087629395 1.0712095e-07 0)
(0.0087565269 -1.0482323e-07 0)
(0.0087618044 1.0295874e-07 0)
(0.0087576342 -1.0170354e-07 0)
(0.0087607405 9.8992035e-08 0)
(0.0087589421 -1.0445872e-07 0)
(0.0087606008 9.546159e-08 0)
(0.010864085 0.002146667 0)
(0.018800469 -1.9448212e-05 0)
(0.014124424 3.5191216e-05 0)
(0.014691316 -6.5669259e-07 0)
(0.014284821 -1.4271152e-07 0)
(0.014546662 1.6985761e-06 0)
(0.014250939 -7.0460034e-07 0)
(0.014463501 1.2050078e-06 0)
(0.014261437 -1.0479969e-06 0)
(0.014442835 1.0542771e-06 0)
(0.014273378 -9.8773121e-07 0)
(0.01443109 9.4621593e-07 0)
(0.014282724 -8.8775689e-07 0)
(0.014421776 8.4192541e-07 0)
(0.014290912 -7.9140235e-07 0)
(0.014413761 7.4774344e-07 0)
(0.014298288 -7.0418771e-07 0)
(0.014406692 6.6461991e-07 0)
(0.014304905 -6.2664011e-07 0)
(0.01440041 5.9143739e-07 0)
(0.014310821 -5.5814683e-07 0)
(0.014394814 5.2707886e-07 0)
(0.014316105 -4.9787832e-07 0)
(0.014389821 4.7058375e-07 0)
(0.014320826 -4.4500676e-07 0)
(0.014385357 4.2111029e-07 0)
(0.01432505 -3.9876286e-07 0)
(0.014381359 3.7791331e-07 0)
(0.01432884 -3.5845324e-07 0)
(0.014377766 3.4033531e-07 0)
(0.014332252 -3.2346435e-07 0)
(0.014374525 3.0780097e-07 0)
(0.014335337 -2.9326063e-07 0)
(0.014371587 2.798118e-07 0)
(0.014338141 -2.6737994e-07 0)
(0.014368908 2.559402e-07 0)
(0.014340707 -2.4542783e-07 0)
(0.014366447 2.3582328e-07 0)
(0.014343073 -2.2707149e-07 0)
(0.014364167 2.1915663e-07 0)
(0.014345275 -2.1203427e-07 0)
(0.014362036 2.0568935e-07 0)
(0.014347344 -2.0008482e-07 0)
(0.014360021 1.9523917e-07 0)
(0.014349311 -1.9099948e-07 0)
(0.014358084 1.8762568e-07 0)
(0.0143512 -1.8524603e-07 0)
(0.014356244 1.7971721e-07 0)
(0.014353357 -1.933663e-07 0)
(0.014355803 1.7296227e-07 0)
(0.015571783 0.003100192 0)
(0.02536168 -3.3460026e-05 0)
(0.019507412 6.2927056e-05 0)
(0.020245973 -1.0687128e-06 0)
(0.019699152 1.3193776e-07 0)
(0.020067266 2.6259586e-06 0)
(0.019652436 -7.4377345e-07 0)
(0.019956397 1.7329265e-06 0)
(0.019668556 -1.4716155e-06 0)
(0.019928218 1.5065897e-06 0)
(0.019685944 -1.4121966e-06 0)
(0.01991168 1.3586338e-06 0)
(0.01969938 -1.2731139e-06 0)
(0.0198984 1.2094985e-06 0)
(0.019711131 -1.1358518e-06 0)
(0.019886934 1.0738341e-06 0)
(0.019721704 -1.0108901e-06 0)
(0.019876814 9.5425264e-07 0)
(0.019731183 -8.9960748e-07 0)
(0.019867823 8.4909161e-07 0)
(0.019739653 -8.0128116e-07 0)
(0.019859814 7.5666423e-07 0)
(0.019747214 -7.1475817e-07 0)
(0.019852669 6.7555265e-07 0)
(0.019753969 -6.388565e-07 0)
(0.019846283 6.0453089e-07 0)
(0.019760013 -5.7247019e-07 0)
(0.019840563 5.4252093e-07 0)
(0.019765435 -5.146014e-07 0)
(0.019835423 4.8857504e-07 0)
(0.019770317 -4.6436775e-07 0)
(0.019830785 4.4186583e-07 0)
(0.019774731 -4.2099987e-07 0)
(0.01982658 4.0167743e-07 0)
(0.019778745 -3.8383441e-07 0)
(0.019822745 3.6739624e-07 0)
(0.019782418 -3.5230533e-07 0)
(0.019819222 3.3850154e-07 0)
(0.019785806 -3.2593487e-07 0)
(0.019815958 3.1455605e-07 0)
(0.019788958 -3.043255e-07 0)
(0.019812906 2.9519809e-07 0)
(0.019791923 -2.8714187e-07 0)
(0.019810019 2.8017071e-07 0)
(0.019794742 -2.7402959e-07 0)
(0.019807243 2.6924327e-07 0)
(0.019797448 -2.6573415e-07 0)
(0.019804582 2.5697507e-07 0)
(0.019800464 -2.8206065e-07 0)
(0.019803701 2.4749935e-07 0)
(0.01878669 0.0034880159 0)
(0.031515256 -7.8900492e-05 0)
(0.024737399 9.6988246e-05 0)
(0.025649636 -1.4920306e-06 0)
(0.024962709 6.1874133e-07 0)
(0.025437682 3.6264866e-06 0)
(0.024903501 -6.1310642e-07 0)
(0.025303265 2.2136942e-06 0)
(0.024926445 -1.8417669e-06 0)
(0.025267895 1.9165491e-06 0)
(0.024949677 -1.7998054e-06 0)
(0.025246477 1.7386378e-06 0)
(0.024967413 -1.6273536e-06 0)
(0.025229082 1.5487679e-06 0)
(0.024982899 -1.4530595e-06 0)
(0.025214015 1.3745821e-06 0)
(0.024996818 -1.2934784e-06 0)
(0.025200711 1.2212461e-06 0)
(0.025009286 -1.151148e-06 0)
(0.025188891 1.086557e-06 0)
(0.025020421 -1.0253406e-06 0)
(0.025178365 9.6824644e-07 0)
(0.025030359 -9.146296e-07 0)
(0.025168976 8.6444919e-07 0)
(0.025039234 -8.1751073e-07 0)
(0.025160586 7.73574e-07 0)
(0.025047175 -7.3256719e-07 0)
(0.025153071 6.9423108e-07 0)
(0.025054299 -6.5851944e-07 0)
(0.025146318 6.2520325e-07 0)
(0.025060713 -5.9423696e-07 0)
(0.025140225 5.6543035e-07 0)
(0.025066512 -5.3873503e-07 0)
(0.025134701 5.139964e-07 0)
(0.025071785 -4.9116529e-07 0)
(0.025129662 4.701169e-07 0)
(0.025076611 -4.5080408e-07 0)
(0.025125034 4.3312614e-07 0)
(0.025081061 -4.1704045e-07 0)
(0.025120747 4.0246462e-07 0)
(0.025085203 -3.893657e-07 0)
(0.025116737 3.7766808e-07 0)
(0.025089097 -3.6734764e-07 0)
(0.025112944 3.5841452e-07 0)
(0.025092801 -3.5049079e-07 0)
(0.025109299 3.4445552e-07 0)
(0.025096355 -3.3981838e-07 0)
(0.025105786 3.2770775e-07 0)
(0.025100239 -3.6653206e-07 0)
(0.025104345 3.1589466e-07 0)
(0.023861487 0.0045445616 0)
(0.037281578 -8.9450891e-05 0)
(0.02978172 0.00013529124 0)
(0.030904684 -2.7159984e-06 0)
(0.030074577 1.323666e-06 0)
(0.030657575 4.6966764e-06 0)
(0.030004458 -3.38901e-07 0)
(0.030503785 2.6445979e-06 0)
(0.030035521 -2.16333e-06 0)
(0.030461519 2.2851296e-06 0)
(0.030064925 -2.1529763e-06 0)
(0.030435167 2.0877866e-06 0)
(0.030087124 -1.9522028e-06 0)
(0.030413542 1.8611735e-06 0)
(0.030106481 -1.7444742e-06 0)
(0.030394759 1.6513005e-06 0)
(0.030123862 -1.5532345e-06 0)
(0.030378165 1.4667935e-06 0)
(0.03013942 -1.3824089e-06 0)
(0.030363425 1.3049114e-06 0)
(0.030153307 -1.2313544e-06 0)
(0.0303503 1.162795e-06 0)
(0.030165697 -1.0984157e-06 0)
(0.030338596 1.0381439e-06 0)
(0.030176762 -9.8179732e-07 0)
(0.030328138 9.2902105e-07 0)
(0.03018666 -8.79797e-07 0)
(0.03031877 8.3374612e-07 0)
(0.030195539 -7.9087598e-07 0)
(0.030310353 7.5085304e-07 0)
(0.030203533 -7.1367574e-07 0)
(0.030302759 6.7906766e-07 0)
(0.030210761 -6.4701404e-07 0)
(0.030295874 6.1729053e-07 0)
(0.030217333 -5.8987301e-07 0)
(0.030289595 5.6458054e-07 0)
(0.030223346 -5.4138451e-07 0)
(0.030283827 5.2013903e-07 0)
(0.030228892 -5.0081529e-07 0)
(0.030278486 4.8329405e-07 0)
(0.030234051 -4.6755424e-07 0)
(0.030273491 4.5348598e-07 0)
(0.030238903 -4.4107865e-07 0)
(0.030268767 4.3033488e-07 0)
(0.030243515 -4.2074156e-07 0)
(0.030264229 4.1360505e-07 0)
(0.030247941 -4.0781775e-07 0)
(0.030259838 3.9232621e-07 0)
(0.0302527 -4.4654758e-07 0)
(0.030257738 3.7802139e-07 0)
(0.026501895 0.0046420994 0)
(0.042574877 -0.00016580869 0)
(0.034686854 0.00017606354 0)
(0.036009539 -4.3354056e-06 0)
(0.035032222 2.1890571e-06 0)
(0.035726434 5.8161743e-06 0)
(0.034955436 3.691053e-08 0)
(0.035557504 3.0184804e-06 0)
(0.034996171 -2.443187e-06 0)
(0.035508704 2.6136089e-06 0)
(0.035032038 -2.4750639e-06 0)
(0.035477418 2.4082723e-06 0)
(0.035058825 -2.2500855e-06 0)
(0.035451487 2.1487709e-06 0)
(0.035082152 -2.0121374e-06 0)
(0.035428908 1.9058569e-06 0)
(0.035103079 -1.7919581e-06 0)
(0.035408951 1.6925787e-06 0)
(0.035121797 -1.5949938e-06 0)
(0.035391224 1.5056651e-06 0)
(0.035138498 -1.4207545e-06 0)
(0.035375444 1.3416622e-06 0)
(0.035153396 -1.2673963e-06 0)
(0.035361372 1.197847e-06 0)
(0.035166697 -1.1328617e-06 0)
(0.035348801 1.0719561e-06 0)
(0.035178595 -1.0151867e-06 0)
(0.035337541 9.6203951e-07 0)
(0.035189268 -9.125947e-07 0)
(0.035327423 8.6640157e-07 0)
(0.035198876 -8.2351823e-07 0)
(0.035318295 7.8357186e-07 0)
(0.035207564 -7.4659416e-07 0)
(0.03531002 7.1228293e-07 0)
(0.035215462 -6.8064945e-07 0)
(0.035302473 6.5145024e-07 0)
(0.035222689 -6.2468356e-07 0)
(0.035295542 6.0015321e-07 0)
(0.035229353 -5.7785087e-07 0)
(0.035289124 5.5761634e-07 0)
(0.035235552 -5.3944583e-07 0)
(0.035283123 5.2319104e-07 0)
(0.035241379 -5.0886089e-07 0)
(0.035277451 4.964449e-07 0)
(0.035246918 -4.852887e-07 0)
(0.035272003 4.7718447e-07 0)
(0.035252232 -4.702105e-07 0)
(0.035266719 4.5139657e-07 0)
(0.035257868 -5.2207786e-07 0)
(0.035263873 4.3411508e-07 0)
(0.03162682 0.0056407484 0)
(0.047534795 -0.00017252624 0)
(0.039413643 0.00021526749 0)
(0.040951481 -5.1451137e-06 0)
(0.039837608 3.6123617e-06 0)
(0.040645048 7.0266737e-06 0)
(0.039757331 5.137053e-07 0)
(0.040464294 3.3334368e-06 0)
(0.039808857 -2.6818422e-06 0)
(0.040409164 2.9019754e-06 0)
(0.039851342 -2.766483e-06 0)
(0.040372945 2.7002016e-06 0)
(0.039882791 -2.5211804e-06 0)
(0.040342663 2.4116188e-06 0)
(0.039910155 -2.2561558e-06 0)
(0.040316235 2.1383204e-06 0)
(0.039934681 -2.009739e-06 0)
(0.040292868 1.8986792e-06 0)
(0.039956604 -1.7889851e-06 0)
(0.040272114 1.6888958e-06 0)
(0.039976159 -1.593617e-06 0)
(0.040253641 1.5049209e-06 0)
(0.039993598 -1.421641e-06 0)
(0.040237171 1.3436249e-06 0)
(0.040009166 -1.2707663e-06 0)
(0.040222456 1.2024392e-06 0)
(0.040023091 -1.1387922e-06 0)
(0.040209277 1.079165e-06 0)
(0.040035583 -1.0237261e-06 0)
(0.040197435 9.7189742e-07 0)
(0.040046828 -9.2381041e-07 0)
(0.040186752 8.7898752e-07 0)
(0.040056996 -8.3751802e-07 0)
(0.040177067 7.9901525e-07 0)
(0.040066239 -7.6353494e-07 0)
(0.040168236 7.307658e-07 0)
(0.040074696 -7.0074025e-07 0)
(0.040160126 6.732076e-07 0)
(0.040082493 -6.4818586e-07 0)
(0.040152617 6.2547048e-07 0)
(0.040089744 -6.0507968e-07 0)
(0.040145598 5.8682342e-07 0)
(0.04009656 -5.7073552e-07 0)
(0.040138964 5.5678645e-07 0)
(0.040103037 -5.4417958e-07 0)
(0.040132597 5.3523765e-07 0)
(0.04010925 -5.2704664e-07 0)
(0.04012641 5.050436e-07 0)
(0.040115762 -5.9276134e-07 0)
(0.040122748 4.8414291e-07 0)
(0.034331237 0.0056281643 0)
(0.051945888 -0.00027532377 0)
(0.044054661 0.00025038094 0)
(0.045682861 -5.8970428e-06 0)
(0.044481798 4.9492015e-06 0)
(0.045411635 8.2163917e-06 0)
(0.044410171 1.0429613e-06 0)
(0.045223761 3.5740477e-06 0)
(0.044473878 -2.8829475e-06 0)
(0.045162608 3.1483241e-06 0)
(0.044523107 -3.0274255e-06 0)
(0.045121495 2.9629056e-06 0)
(0.04455926 -2.7651439e-06 0)
(0.045086846 2.6492044e-06 0)
(0.044590697 -2.4761288e-06 0)
(0.045056546 2.34827e-06 0)
(0.044618852 -2.2062083e-06 0)
(0.045029746 2.0847385e-06 0)
(0.044644004 -1.9640548e-06 0)
(0.045005944 1.8542933e-06 0)
(0.044666431 -1.7496504e-06 0)
(0.04498476 1.652297e-06 0)
(0.044686428 -1.5608897e-06 0)
(0.044965873 1.4752329e-06 0)
(0.044704279 -1.3952782e-06 0)
(0.044949001 1.3202503e-06 0)
(0.044720246 -1.250404e-06 0)
(0.044933889 1.1849244e-06 0)
(0.044734569 -1.124081e-06 0)
(0.044920311 1.0671617e-06 0)
(0.044747463 -1.0143815e-06 0)
(0.044908062 9.6515286e-07 0)
(0.044759121 -9.196311e-07 0)
(0.044896957 8.7734096e-07 0)
(0.044769719 -8.3838945e-07 0)
(0.044886831 8.0239419e-07 0)
(0.044779415 -7.6942736e-07 0)
(0.044877534 7.3918112e-07 0)
(0.044788352 -7.117043e-07 0)
(0.044868927 6.8674594e-07 0)
(0.044796664 -6.6434979e-07 0)
(0.044860882 6.44282e-07 0)
(0.044804474 -6.2660565e-07 0)
(0.044853281 6.1126654e-07 0)
(0.044811895 -5.9732891e-07 0)
(0.04484599 5.8767731e-07 0)
(0.044819013 -5.7825167e-07 0)
(0.044838897 5.5325185e-07 0)
(0.044826396 -6.5816524e-07 0)
(0.04483436 5.2805023e-07 0)
(0.03956193 0.0064735061 0)
(0.056120305 -0.00027906936 0)
(0.048614607 0.00029502294 0)
(0.050182254 -8.7085185e-06 0)
(0.048957399 5.4232443e-06 0)
(0.050025462 9.2381467e-06 0)
(0.048914308 1.5888398e-06 0)
(0.049835721 3.7327037e-06 0)
(0.048991563 -3.0475099e-06 0)
(0.049768806 3.3523387e-06 0)
(0.049047581 -3.2578791e-06 0)
(0.049722848 3.19617e-06 0)
(0.049088446 -2.9818e-06 0)
(0.04968384 2.8612783e-06 0)
(0.049123965 -2.6718626e-06 0)
(0.049649665 2.5354971e-06 0)
(0.049155754 -2.3811892e-06 0)
(0.04961943 2.2505832e-06 0)
(0.049184139 -2.1200451e-06 0)
(0.049592578 2.0017079e-06 0)
(0.049209441 -1.8887142e-06 0)
(0.04956868 1.7836577e-06 0)
(0.049231999 -1.6850156e-06 0)
(0.049547375 1.5925516e-06 0)
(0.049252135 -1.5062824e-06 0)
(0.049528343 1.4252811e-06 0)
(0.049270146 -1.3499177e-06 0)
(0.049511297 1.2792193e-06 0)
(0.049286302 -1.2135646e-06 0)
(0.04949598 1.1521047e-06 0)
(0.049300846 -1.0951453e-06 0)
(0.049482162 1.0419864e-06 0)
(0.049313997 -9.9285523e-07 0)
(0.049469636 9.47186e-07 0)
(0.049325952 -9.0514201e-07 0)
(0.049458214 8.6626816e-07 0)
(0.049336888 -8.3068043e-07 0)
(0.049447727 7.9801261e-07 0)
(0.049346967 -7.6834759e-07 0)
(0.049438021 7.4138704e-07 0)
(0.04935634 -7.1720281e-07 0)
(0.04942895 6.955162e-07 0)
(0.049365145 -6.7642292e-07 0)
(0.049420381 6.5983894e-07 0)
(0.049373512 -6.4469606e-07 0)
(0.049412165 6.3445855e-07 0)
(0.049381534 -6.2379515e-07 0)
(0.049404169 5.960327e-07 0)
(0.049389782 -7.1793864e-07 0)
(0.049398709 5.6587417e-07 0)
(0.042600531 0.0064933511 0)
(0.059768377 -0.00040006928 0)
(0.053024091 0.00032935656 0)
(0.054522728 -1.1219653e-05 0)
(0.053272828 5.0612896e-06 0)
(0.054488398 1.0022203e-05 0)
(0.053270708 2.1238101e-06 0)
(0.054300116 3.7985998e-06 0)
(0.053362228 -3.178177e-06 0)
(0.054227555 3.5133876e-06 0)
(0.05342499 -3.4583723e-06 0)
(0.054176806 3.3999791e-06 0)
(0.053470538 -3.1712769e-06 0)
(0.054133467 3.0478389e-06 0)
(0.053510125 -2.8434109e-06 0)
(0.054095438 2.7000212e-06 0)
(0.053545535 -2.5347204e-06 0)
(0.054061784 2.3962416e-06 0)
(0.053577138 -2.2569881e-06 0)
(0.054031895 2.1311677e-06 0)
(0.053605303 -2.0108345e-06 0)
(0.054005297 1.8990276e-06 0)
(0.05363041 -1.7940402e-06 0)
(0.053981584 1.6956009e-06 0)
(0.053652821 -1.6037961e-06 0)
(0.053960401 1.5175476e-06 0)
(0.053672867 -1.4373468e-06 0)
(0.053941427 1.3620622e-06 0)
(0.05369085 -1.2921879e-06 0)
(0.053924379 1.2267369e-06 0)
(0.053707038 -1.1661109e-06 0)
(0.053908998 1.1094969e-06 0)
(0.053721676 -1.0571983e-06 0)
(0.053895055 1.0085583e-06 0)
(0.053734982 -9.6379994e-07 0)
(0.053882343 9.2239514e-07 0)
(0.053747153 -8.8450656e-07 0)
(0.053870672 8.497094e-07 0)
(0.05375837 -8.1812294e-07 0)
(0.05385987 7.8940137e-07 0)
(0.0537688 -7.6364641e-07 0)
(0.053849777 7.405343e-07 0)
(0.053778596 -7.2019598e-07 0)
(0.053840244 7.0251282e-07 0)
(0.053787903 -6.8629399e-07 0)
(0.053831109 6.7558846e-07 0)
(0.053796827 -6.6369967e-07 0)
(0.053822214 6.3343775e-07 0)
(0.053805929 -7.7181901e-07 0)
(0.053815796 5.977347e-07 0)
(0.047515424 0.007074911 0)
(0.063353485 -0.00039658221 0)
(0.057169048 0.00035840665 0)
(0.058773383 -1.2104675e-05 0)
(0.057433616 4.2113473e-06 0)
(0.05880194 1.0514059e-05 0)
(0.057480073 2.6446733e-06 0)
(0.058616843 3.7744467e-06 0)
(0.057586108 -3.2736344e-06 0)
(0.058538652 3.6325429e-06 0)
(0.057655519 -3.6291418e-06 0)
(0.058483189 3.5746367e-06 0)
(0.057705705 -3.3338162e-06 0)
(0.05843557 3.2090542e-06 0)
(0.057749327 -2.9909664e-06 0)
(0.058393725 2.8420003e-06 0)
(0.057788324 -2.6669666e-06 0)
(0.058356685 2.5218615e-06 0)
(0.057823116 -2.3750265e-06 0)
(0.058323789 2.2428052e-06 0)
(0.057854117 -2.1161358e-06 0)
(0.058294514 1.9985229e-06 0)
(0.05788175 -1.8880716e-06 0)
(0.058268415 1.7844825e-06 0)
(0.057906415 -1.6879134e-06 0)
(0.0582451 1.5971386e-06 0)
(0.057928479 -1.512774e-06 0)
(0.058224216 1.4335315e-06 0)
(0.057948272 -1.3600237e-06 0)
(0.05820545 1.2911277e-06 0)
(0.05796609 -1.2273435e-06 0)
(0.05818852 1.1677466e-06 0)
(0.057982202 -1.1127191e-06 0)
(0.058173173 1.0615142e-06 0)
(0.057996848 -1.0144168e-06 0)
(0.058159181 9.7082676e-07 0)
(0.058010244 -9.3095515e-07 0)
(0.058146335 8.9431936e-07 0)
(0.05802259 -8.6107649e-07 0)
(0.058134447 8.3083394e-07 0)
(0.058034067 -8.0372432e-07 0)
(0.058123342 7.7937946e-07 0)
(0.058044846 -7.5796717e-07 0)
(0.058112853 7.3933023e-07 0)
(0.058055085 -7.2216734e-07 0)
(0.058102807 7.1110511e-07 0)
(0.058064902 -6.9801977e-07 0)
(0.058093025 6.6554105e-07 0)
(0.058074845 -8.1961089e-07 0)
(0.058085622 6.238069e-07 0)
(0.050790008 0.0071296203 0)
(0.066478132 -0.00052344442 0)
(0.061107404 0.00038087254 0)
(0.062940495 -1.2119655e-05 0)
(0.061443138 3.4141808e-06 0)
(0.06296738 1.0777747e-05 0)
(0.061543044 3.1674175e-06 0)
(0.062785805 3.6677894e-06 0)
(0.06166342 -3.331744e-06 0)
(0.062701916 3.7110595e-06 0)
(0.061739332 -3.7706358e-06 0)
(0.062641833 3.7204899e-06 0)
(0.061794093 -3.4698228e-06 0)
(0.062590006 3.3451798e-06 0)
(0.061841701 -3.1148393e-06 0)
(0.062544402 2.961685e-06 0)
(0.061884239 -2.7781872e-06 0)
(0.062504025 2.6276752e-06 0)
(0.061922175 -2.4743843e-06 0)
(0.062468162 2.3368277e-06 0)
(0.061955973 -2.2048129e-06 0)
(0.062436247 2.0823264e-06 0)
(0.061986098 -1.9672802e-06 0)
(0.062407794 1.8593569e-06 0)
(0.062012989 -1.7587842e-06 0)
(0.062382375 1.6641958e-06 0)
(0.062037043 -1.5763315e-06 0)
(0.062359606 1.4937526e-06 0)
(0.062058623 -1.41719e-06 0)
(0.062339145 1.345389e-06 0)
(0.06207805 -1.2789488e-06 0)
(0.062320686 1.2168363e-06 0)
(0.062095617 -1.1595131e-06 0)
(0.062303952 1.106145e-06 0)
(0.062111585 -1.0570795e-06 0)
(0.062288696 1.0116465e-06 0)
(0.062126191 -9.7010613e-07 0)
(0.062274691 9.3191959e-07 0)
(0.06213965 -8.9728243e-07 0)
(0.062261731 8.657567e-07 0)
(0.062152161 -8.3750625e-07 0)
(0.062249625 8.1211985e-07 0)
(0.06216391 -7.8980305e-07 0)
(0.062238194 7.7035679e-07 0)
(0.062175069 -7.5238334e-07 0)
(0.06222725 7.4106881e-07 0)
(0.062185768 -7.2683255e-07 0)
(0.062216594 6.9243164e-07 0)
(0.062196538 -8.6117478e-07 0)
(0.062208187 6.4430502e-07 0)
(0.055576647 0.0075170124 0)
(0.069630242 -0.00051980524 0)
(0.064869959 0.00040171404 0)
(0.066975527 -1.3155435e-05 0)
(0.065305963 2.8111729e-06 0)
(0.066984497 1.0705616e-05 0)
(0.065459912 3.6785883e-06 0)
(0.066806916 3.4776497e-06 0)
(0.065594398 -3.3515552e-06 0)
(0.066717222 3.7505055e-06 0)
(0.065676592 -3.8831493e-06 0)
(0.066652603 3.8381471e-06 0)
(0.065735837 -3.5797286e-06 0)
(0.066596653 3.4566098e-06 0)
(0.065787363 -3.2154166e-06 0)
(0.066547361 3.0594236e-06 0)
(0.06583338 -2.8687201e-06 0)
(0.066503706 2.7139941e-06 0)
(0.065874406 -2.5553561e-06 0)
(0.066464929 2.4135108e-06 0)
(0.065910952 -2.2771242e-06 0)
(0.066430421 2.1506809e-06 0)
(0.065943526 -2.0318934e-06 0)
(0.066399655 1.9204384e-06 0)
(0.065972603 -1.8166093e-06 0)
(0.066372167 1.7189089e-06 0)
(0.065998614 -1.6281979e-06 0)
(0.066347545 1.5428945e-06 0)
(0.06602195 -1.4638462e-06 0)
(0.066325418 1.3896722e-06 0)
(0.06604296 -1.3210698e-06 0)
(0.066305455 1.2569023e-06 0)
(0.066061957 -1.1977097e-06 0)
(0.066287358 1.1425745e-06 0)
(0.066079225 -1.091906e-06 0)
(0.06627086 1.0449675e-06 0)
(0.06609502 -1.0020676e-06 0)
(0.066255715 9.6261417e-07 0)
(0.066109574 -9.2684085e-07 0)
(0.066241701 8.9426651e-07 0)
(0.066123102 -8.6508589e-07 0)
(0.066228612 8.3884678e-07 0)
(0.066135804 -8.1579253e-07 0)
(0.066216254 7.9567986e-07 0)
(0.066147867 -7.7702994e-07 0)
(0.066204427 7.6556031e-07 0)
(0.066159434 -7.5023523e-07 0)
(0.066192914 7.1421263e-07 0)
(0.066171012 -8.9642235e-07 0)
(0.066183493 6.5947296e-07 0)
(0.059158077 0.0075837951 0)
(0.07238488 -0.00064075672 0)
(0.068532323 0.00041038333 0)
(0.070830447 -1.5182061e-05 0)
(0.069028106 2.0782752e-06 0)
(0.070853002 1.0262098e-05 0)
(0.069230858 4.1435463e-06 0)
(0.070680098 3.1924644e-06 0)
(0.069379252 -3.3370554e-06 0)
(0.070584469 3.7507052e-06 0)
(0.069467448 -3.9677959e-06 0)
(0.070515383 3.9280392e-06 0)
(0.069531058 -3.6641711e-06 0)
(0.070455402 3.5437846e-06 0)
(0.069586419 -3.2931913e-06 0)
(0.070402504 3.1356355e-06 0)
(0.06963584 -2.9389834e-06 0)
(0.070355643 2.7811981e-06 0)
(0.06967989 -2.6183049e-06 0)
(0.070314016 2.4731918e-06 0)
(0.069719125 -2.3333875e-06 0)
(0.070276968 2.2038846e-06 0)
(0.069754096 -2.0821912e-06 0)
(0.070243937 1.967991e-06 0)
(0.069785313 -1.8616369e-06 0)
(0.070214425 1.7615124e-06 0)
(0.06981324 -1.668594e-06 0)
(0.070187988 1.5811666e-06 0)
(0.069838296 -1.5001897e-06 0)
(0.070164229 1.4241652e-06 0)
(0.069860855 -1.3538845e-06 0)
(0.070142793 1.2881141e-06 0)
(0.069881254 -1.2274699e-06 0)
(0.070123362 1.1709563e-06 0)
(0.069899795 -1.1190428e-06 0)
(0.070105646 1.07093e-06 0)
(0.069916754 -1.0269739e-06 0)
(0.070089385 9.865323e-07 0)
(0.069932381 -9.4987596e-07 0)
(0.070074339 9.1648337e-07 0)
(0.069946904 -8.8657925e-07 0)
(0.070060287 8.596731e-07 0)
(0.06996054 -8.3604532e-07 0)
(0.070047021 8.1540707e-07 0)
(0.069973489 -7.9621448e-07 0)
(0.070034329 7.846796e-07 0)
(0.069985906 -7.6834351e-07 0)
(0.07002198 7.3100069e-07 0)
(0.069998273 -9.2531249e-07 0)
(0.070011542 6.6957631e-07 0)
(0.063799325 0.0077898171 0)
(0.075231076 -0.00063195754 0)
(0.072119208 0.00042007623 0)
(0.074482134 -1.8004891e-05 0)
(0.072613926 1.0222084e-06 0)
(0.074572283 9.47667e-06 0)
(0.072856237 4.5605697e-06 0)
(0.07440527 2.8135118e-06 0)
(0.073018155 -3.2876539e-06 0)
(0.074303568 3.7134514e-06 0)
(0.07311203 -4.0250256e-06 0)
(0.074230074 3.9909929e-06 0)
(0.073179863 -3.7237326e-06 0)
(0.07416616 3.6072906e-06 0)
(0.073238959 -3.3486985e-06 0)
(0.074109747 3.1908281e-06 0)
(0.073291699 -2.9894519e-06 0)
(0.074059761 2.8297338e-06 0)
(0.073338697 -2.6636487e-06 0)
(0.074015354 2.5162644e-06 0)
(0.073380555 -2.3739716e-06 0)
(0.073975831 2.2422855e-06 0)
(0.073417863 -2.1185001e-06 0)
(0.073940591 2.0023231e-06 0)
(0.073451168 -1.8941569e-06 0)
(0.073909103 1.7922809e-06 0)
(0.073480965 -1.6977786e-06 0)
(0.073880895 1.6088143e-06 0)
(0.073507699 -1.5264527e-06 0)
(0.073855544 1.4490883e-06 0)
(0.073531769 -1.3776017e-06 0)
(0.073832671 1.3106705e-06 0)
(0.073553535 -1.2489827e-06 0)
(0.073811937 1.191471e-06 0)
(0.073573319 -1.138662e-06 0)
(0.073793034 1.0896988e-06 0)
(0.073591414 -1.0449828e-06 0)
(0.073775683 1.0038257e-06 0)
(0.073608087 -9.6653358e-07 0)
(0.07375963 9.3254808e-07 0)
(0.073623583 -9.0212238e-07 0)
(0.073744637 8.7473098e-07 0)
(0.07363813 -8.5068985e-07 0)
(0.073730486 8.2966425e-07 0)
(0.073651942 -8.1006159e-07 0)
(0.073716951 7.98544e-07 0)
(0.07366519 -7.8128931e-07 0)
(0.073703788 7.4292491e-07 0)
(0.073678324 -9.4784705e-07 0)
(0.073692335 6.7489514e-07 0)
(0.067592643 0.0078502129 0)
(0.077736043 -0.00074433119 0)
(0.075629009 0.00041865274 0)
(0.077952761 -2.0984578e-05 0)
(0.076064063 -8.2640576e-07 0)
(0.078141752 8.4625747e-06 0)
(0.076336685 4.9209703e-06 0)
(0.077982151 2.3471114e-06 0)
(0.076511141 -3.2024577e-06 0)
(0.077874361 3.6405701e-06 0)
(0.076610405 -4.0555014e-06 0)
(0.077796562 4.027732e-06 0)
(0.07668233 -3.7591846e-06 0)
(0.077728836 3.6477094e-06 0)
(0.07674506 -3.3825804e-06 0)
(0.077669013 3.2255457e-06 0)
(0.076801027 -3.0206708e-06 0)
(0.077615994 2.8600942e-06 0)
(0.076850889 -2.6918608e-06 0)
(0.077568886 2.5431682e-06 0)
(0.076895296 -2.3992923e-06 0)
(0.077526957 2.2662738e-06 0)
(0.076934876 -2.1411879e-06 0)
(0.077489569 2.0237818e-06 0)
(0.076970211 -1.9144966e-06 0)
(0.077456161 1.8115238e-06 0)
(0.077001825 -1.716044e-06 0)
(0.077426231 1.6261146e-06 0)
(0.07703019 -1.5428973e-06 0)
(0.077399332 1.4646906e-06 0)
(0.07705573 -1.3924577e-06 0)
(0.077375062 1.3247966e-06 0)
(0.077078825 -1.2624621e-06 0)
(0.077353061 1.2043228e-06 0)
(0.077099818 -1.1509583e-06 0)
(0.077333003 1.1014606e-06 0)
(0.077119018 -1.0562729e-06 0)
(0.077314593 1.0146658e-06 0)
(0.077136708 -9.7697858e-07 0)
(0.07729756 9.4261975e-07 0)
(0.077153149 -9.1186903e-07 0)
(0.077281654 8.8416968e-07 0)
(0.077168582 -8.5987111e-07 0)
(0.07726664 8.3859331e-07 0)
(0.077183235 -8.1871129e-07 0)
(0.077252286 8.0728626e-07 0)
(0.077197291 -7.8921864e-07 0)
(0.077238333 7.5012553e-07 0)
(0.077211169 -9.6406676e-07 0)
(0.077225876 6.7571794e-07 0)
(0.072043374 0.0079012189 0)
(0.080398195 -0.00072997456 0)
(0.07901181 0.00041882757 0)
(0.081288915 -2.3031441e-05 0)
(0.079385391 -3.1215291e-06 0)
(0.081562225 7.3360465e-06 0)
(0.079674083 5.253426e-06 0)
(0.081410743 1.8165546e-06 0)
(0.079858407 -3.0756388e-06 0)
(0.081296794 3.5363752e-06 0)
(0.079962672 -4.0588632e-06 0)
(0.081214768 4.0395251e-06 0)
(0.080038539 -3.7711368e-06 0)
(0.081143358 3.6657869e-06 0)
(0.080104791 -3.395483e-06 0)
(0.081080239 3.2404109e-06 0)
(0.080163884 -3.0332216e-06 0)
(0.081024282 2.8728259e-06 0)
(0.080216521 -2.7034547e-06 0)
(0.08097456 2.5543863e-06 0)
(0.080263396 -2.409804e-06 0)
(0.0809303 2.276278e-06 0)
(0.080305178 -2.1506581e-06 0)
(0.080890832 2.0327483e-06 0)
(0.080342479 -1.9230155e-06 0)
(0.080855563 1.8195816e-06 0)
(0.080375853 -1.7237118e-06 0)
(0.080823965 1.6333726e-06 0)
(0.080405799 -1.5498124e-06 0)
(0.080795566 1.4712466e-06 0)
(0.080432763 -1.3987129e-06 0)
(0.080769942 1.3307401e-06 0)
(0.080457146 -1.2681439e-06 0)
(0.080746714 1.2097366e-06 0)
(0.080479309 -1.1561465e-06 0)
(0.080725537 1.1064207e-06 0)
(0.08049958 -1.0610408e-06 0)
(0.080706101 1.0192416e-06 0)
(0.080518257 -9.8139264e-07 0)
(0.080688118 9.4687367e-07 0)
(0.080535613 -9.1598856e-07 0)
(0.080671326 8.8815351e-07 0)
(0.080551905 -8.6374865e-07 0)
(0.080655478 8.4235036e-07 0)
(0.080567372 -8.2231708e-07 0)
(0.08064033 8.1105282e-07 0)
(0.080582211 -7.9228972e-07 0)
(0.080625612 7.5275274e-07 0)
(0.080596809 -9.7404739e-07 0)
(0.080612165 6.7233651e-07 0)
(0.075992111 0.0079399716 0)
(0.082773867 -0.00082867446 0)
(0.08221603 0.00040534185 0)
(0.084521666 -2.3934628e-05 0)
(0.082581993 -5.5212036e-06 0)
(0.084833804 6.2401623e-06 0)
(0.082870316 5.5648132e-06 0)
(0.084690926 1.2469366e-06 0)
(0.083060116 -2.9058971e-06 0)
(0.084570833 3.4038675e-06 0)
(0.083168925 -4.0354033e-06 0)
(0.084484628 4.0274219e-06 0)
(0.083248561 -3.7603871e-06 0)
(0.084409664 3.6622513e-06 0)
(0.083318213 -3.3881357e-06 0)
(0.084343366 3.2360723e-06 0)
(0.083380324 -3.0277387e-06 0)
(0.084284577 2.8685098e-06 0)
(0.08343564 -2.698986e-06 0)
(0.084232332 2.5504368e-06 0)
(0.083484899 -2.405997e-06 0)
(0.084185822 2.2727594e-06 0)
(0.083528805 -2.1473461e-06 0)
(0.084144345 2.0296337e-06 0)
(0.083568004 -1.9201019e-06 0)
(0.08410728 1.8168217e-06 0)
(0.083603078 -1.7211295e-06 0)
(0.084074072 1.6309177e-06 0)
(0.08363455 -1.5475099e-06 0)
(0.084044224 1.4690525e-06 0)
(0.083662889 -1.3966486e-06 0)
(0.084017293 1.328769e-06 0)
(0.083688516 -1.2662829e-06 0)
(0.083992879 1.2079557e-06 0)
(0.08371181 -1.1544587e-06 0)
(0.083970622 1.1048013e-06 0)
(0.083733115 -1.0594993e-06 0)
(0.083950194 1.0177574e-06 0)
(0.083752744 -9.7997218e-07 0)
(0.083931294 9.4549929e-07 0)
(0.083770985 -9.1466402e-07 0)
(0.083913646 8.8686e-07 0)
(0.083788106 -8.6249489e-07 0)
(0.083896992 8.41104e-07 0)
(0.083804359 -8.2104435e-07 0)
(0.083881077 8.1000227e-07 0)
(0.083819956 -7.9067126e-07 0)
(0.083865623 7.5096558e-07 0)
(0.083835246 -9.7789637e-07 0)
(0.083851206 6.6504178e-07 0)
(0.080204389 0.0078544399 0)
(0.085330955 -0.00080629641 0)
(0.085260449 0.00039482433 0)
(0.08764319 -2.5208169e-05 0)
(0.085646766 -8.119673e-06 0)
(0.087954252 5.1335514e-06 0)
(0.085925719 5.8021792e-06 0)
(0.087822074 6.5359778e-07 0)
(0.086116188 -2.6997884e-06 0)