/*--------------------------------*- C++ -*----------------------------------*\
| =========                 |                                                 |
| \\      /  F ield         | OpenFOAM: The Open Source CFD Toolbox           |
|  \\    /   O peration     | Version:  2312                                  |
|   \\  /    A nd           | Website:  www.openfoam.com                      |
|    \\/     M anipulation  |                                                 |
\*---------------------------------------------------------------------------*/
FoamFile
{
    version     2.0;
    format      ascii;
    arch        "LSB;label=32;scalar=64";
    class       volScalarField;
    location    "2";
    object      p;
}
// * * * * * * * * * * * * * * * * * * * * * * * * * * * * * * * * * * * * * //

dimensions      [0 2 -2 0 0 0 0];

internalField   nonuniform List<scalar> 
4000
(
14.378424
13.887068
13.775695
13.323342
13.191636
12.757267
12.606466
12.189323
12.022066
11.620196
11.438587
11.050129
10.855958
10.479255
10.274083
9.9076733
9.6928721
9.3354699
9.1122449
8.7627195
8.5321315
8.1894875
7.9524711
7.6158309
7.3732103
7.0417992
6.7943031
6.4674358
6.2157094
5.892778
5.6373944
5.3178581
5.0593284
4.7427037
4.4814857
4.1673384
3.9038445
3.591782
3.3263864
3.0160512
2.7490961
2.4401594
2.1719613
1.8641176
1.594972
1.2879341
1.018121
0.71161494
0.44140322
0.13515981
14.377285
13.886627
13.775693
13.32335
13.191628
12.757274
12.606459
12.189329
12.02206
11.620201
11.438582
11.050134
10.855954
10.479259
10.274079
9.907677
9.6928686
9.3354732
9.1122418
8.7627224
8.5321288
8.1894901
7.9524686
7.6158332
7.3732082
7.0418013
6.7943012
6.4674377
6.2157076
5.8927797
5.6373928
5.3178596
5.059327
4.7427051
4.4814844
4.1673397
3.9038433
3.5917832
3.3263853
3.0160522
2.7490951
2.4401604
2.1719603
1.8641185
1.5949711
1.287935
1.0181201
0.71161584
0.44140231
0.13516098
14.374668
13.886228
13.775708
13.32335
13.191628
12.757274
12.606459
12.189329
12.02206
11.620201
11.438582
11.050134
10.855953
10.479259
10.274079
9.9076771
9.6928685
9.3354733
9.1122417
8.7627225
8.5321287
8.1894902
7.9524686
7.6158333
7.3732081
7.0418014
6.7943011
6.4674377
6.2157076
5.8927797
5.6373928
5.3178596
5.0593269
4.7427051
4.4814844
4.1673397
3.9038433
3.5917832
3.3263853
3.0160523
2.7490951
2.4401604
2.1719603
1.8641186
1.594971
1.2879351
1.0181201
0.71161589
0.44140223
0.13516131
14.371678
13.885871
13.775729
13.323347
13.19163
12.757271
12.606461
12.189327
12.022062
11.620199
11.438583
11.050133
10.855955
10.479258
10.274081
9.9076758
9.6928698
9.3354721
9.1122428
8.7627215
8.5321297
8.1894892
7.9524694
7.6158324
7.3732089
7.0418006
6.7943018
6.467437
6.2157082
5.8927791
5.6373934
5.3178591
5.0593274
4.7427046
4.4814848
4.1673392
3.9038437
3.5917828
3.3263857
3.0160519
2.7490955
2.4401601
2.1719606
1.8641182
1.5949714
1.2879348
1.0181204
0.71161557
0.44140252
0.13516125
14.368826
13.885539
13.775746
13.323345
13.191633
12.757268
12.606463
12.189324
12.022064
11.620197
11.438585
11.050131
10.855957
10.479256
10.274082
9.9076744
9.6928711
9.3354708
9.1122439
8.7627204
8.5321307
8.1894883
7.9524704
7.6158316
7.3732097
7.0417999
6.7943025
6.4674364
6.2157088
5.8927785
5.6373939
5.3178585
5.059328
4.7427041
4.4814853
4.1673388
3.9038442
3.5917824
3.3263861
3.0160515
2.7490958
2.4401597
2.171961
1.8641179
1.5949717
1.2879344
1.0181208
0.71161523
0.44140283
0.13516115
14.366149
13.885223
13.77576
13.323345
13.191636
12.757266
12.606465
12.189322
12.022066
11.620196
11.438587
11.050129
10.855958
10.479255
10.274083
9.9076733
9.6928721
9.3354699
9.1122449
8.7627195
8.5321315
8.1894875
7.9524711
7.6158309
7.3732104
7.0417992
6.7943031
6.4674358
6.2157094
5.892778
5.6373944
5.3178581
5.0593284
4.7427037
4.4814857
4.1673384
3.9038445
3.591782
3.3263864
3.0160511
2.7490962
2.4401594
2.1719613
1.8641176
1.594972
1.2879341
1.018121
0.71161496
0.4414031
0.13516107
14.363591
13.884922
13.775771
13.323344
13.191638
12.757264
12.606467
12.189321
12.022067
11.620194
11.438588
11.050128
10.855959
10.479254
10.274084
9.9076723
9.692873
9.335469
9.1122457
8.7627188
8.5321322
8.1894868
7.9524717
7.6158303
7.3732109
7.0417987
6.7943036
6.4674353
6.2157098
5.8927776
5.6373948
5.3178577
5.0593288
4.7427034
4.4814861
4.1673381
3.9038448
3.5917817
3.3263867
3.0160509
2.7490964
2.4401591
2.1719615
1.8641173
1.5949723
1.2879339
1.0181213
0.71161472
0.44140333
0.13516101
14.361134
13.884636
13.775779
13.323344
13.191641
12.757262
12.606468
12.189319
12.022069
11.620193
11.438589
11.050127
10.85596
10.479253
10.274085
9.9076715
9.6928738
9.3354682
9.1122464
8.7627181
8.5321329
8.1894862
7.9524723
7.6158297
7.3732114
7.0417982
6.7943041
6.4674349
6.2157102
5.8927772
5.6373952
5.3178574
5.0593291
4.742703
4.4814864
4.1673378
3.9038451
3.5917815
3.326387
3.0160506
2.7490967
2.4401589
2.1719618
1.8641171
1.5949725
1.2879337
1.0181215
0.7116145
0.44140354
0.13516094
14.358779
13.884366
13.775785
13.323342
13.191643
12.757261
12.60647
12.189318
12.02207
11.620192
11.43859
11.050126
10.855961
10.479252
10.274086
9.9076707
9.6928746
9.3354675
9.112247
8.7627175
8.5321335
8.1894857
7.9524728
7.6158292
7.3732119
7.0417978
6.7943045
6.4674345
6.2157106
5.8927768
5.6373955
5.317857
5.0593294
4.7427027
4.4814866
4.1673375
3.9038454
3.5917812
3.3263872
3.0160504
2.7490969
2.4401587
2.171962
1.8641169
1.5949727
1.2879335
1.0181217
0.71161429
0.44140375
0.13516087
14.356527
13.88411
13.77579
13.32334
13.191644
12.757259
12.606471
12.189317
12.022071
11.620191
11.438591
11.050125
10.855962
10.479251
10.274087
9.9076699
9.6928753
9.3354669
9.1122477
8.7627169
8.532134
8.1894852
7.9524733
7.6158288
7.3732123
7.0417974
6.7943049
6.4674342
6.2157109
5.8927765
5.6373958
5.3178567
5.0593297
4.7427025
4.4814869
4.1673373
3.9038456
3.591781
3.3263874
3.0160502
2.7490971
2.4401585
2.1719622
1.8641167
1.5949729
1.2879333
1.0181219
0.7116141
0.44140394
0.13516079
14.354375
13.883869
13.775793
13.323339
13.191645
12.757258
12.606472
12.189316
12.022072
11.62019
11.438592
11.050124
10.855963
10.479251
10.274088
9.9076693
9.6928759
9.3354663
9.1122482
8.7627163
8.5321345
8.1894847
7.9524737
7.6158284
7.3732127
7.041797
6.7943052
6.4674338
6.2157113
5.8927762
5.6373961
5.3178565
5.05933
4.7427022
4.4814871
4.167337
3.9038458
3.5917808
3.3263876
3.01605
2.7490973
2.4401583
2.1719624
1.8641165
1.594973
1.2879331
1.018122
0.71161393
0.44140412
0.13516072
14.352323
13.88364
13.775795
13.323338
13.191646
12.757257
12.606473
12.189315
12.022073
11.620189
11.438593
11.050123
10.855964
10.47925
10.274088
9.9076686
9.6928765
9.3354657
9.1122487
8.7627159
8.532135
8.1894843
7.9524741
7.615828
7.3732131
7.0417967
6.7943056
6.4674335
6.2157115
5.8927759
5.6373964
5.3178562
5.0593302
4.742702
4.4814874
4.1673368
3.903846
3.5917806
3.3263878
3.0160498
2.7490975
2.4401581
2.1719625
1.8641164
1.5949732
1.287933
1.0181222
0.71161377
0.44140429
0.13516064
14.350369
13.88342
13.775797
13.323338
13.191646
12.757256
12.606474
12.189314
12.022074
11.620188
11.438594
11.050123
10.855964
10.479249
10.274089
9.9076681
9.692877
9.3354652
9.1122492
8.7627154
8.5321354
8.1894839
7.9524745
7.6158276
7.3732134
7.0417963
6.7943059
6.4674332
6.2157118
5.8927757
5.6373966
5.317856
5.0593304
4.7427018
4.4814876
4.1673366
3.9038462
3.5917804
3.326388
3.0160496
2.7490976
2.4401579
2.1719627
1.8641162
1.5949733
1.2879328
1.0181223
0.71161362
0.44140445
0.13516057
14.348514
13.883211
13.775801
13.323339
13.191645
12.757255
12.606475
12.189313
12.022075
11.620187
11.438595
11.050122
10.855965
10.479249
10.274089
9.9076675
9.6928775
9.3354648
9.1122497
8.762715
8.5321358
8.1894835
7.9524749
7.6158273
7.3732137
7.0417961
6.7943061
6.467433
6.2157121
5.8927754
5.6373968
5.3178558
5.0593306
4.7427016
4.4814877
4.1673365
3.9038464
3.5917802
3.3263882
3.0160495
2.7490978
2.4401578
2.1719628
1.8641161
1.5949735
1.2879327
1.0181225
0.71161348
0.4414046
0.13516049
14.346756
13.883022
13.775802
13.323338
13.191644
12.757254
12.606476
12.189312
12.022075
11.620187
11.438595
11.050121
10.855966
10.479248
10.27409
9.907667
9.692878
9.3354643
9.1122501
8.7627146
8.5321361
8.1894832
7.9524752
7.615827
7.373214
7.0417958
6.7943064
6.4674327
6.2157123
5.8927752
5.6373971
5.3178556
5.0593308
4.7427014
4.4814879
4.1673363
3.9038465
3.5917801
3.3263883
3.0160493
2.7490979
2.4401577
2.1719629
1.864116
1.5949736
1.2879325
1.0181226
0.71161335
0.44140475
0.13516042
14.345089
13.882887
13.775773
13.323331
13.191642
12.757253
12.606477
12.189312
12.022076
11.620186
11.438596
11.050121
10.855966
10.479247
10.27409
9.9076666
9.6928784
9.3354639
9.1122504
8.7627142
8.5321365
8.1894828
7.9524755
7.6158267
7.3732143
7.0417955
6.7943066
6.4674325
6.2157125
5.892775
5.6373973
5.3178554
5.059331
4.7427013
4.4814881
4.1673362
3.9038467
3.5917799
3.3263884
3.0160492
2.749098
2.4401575
2.1719631
1.8641158
1.5949737
1.2879324
1.0181227
0.71161323
0.44140489
0.13516034
14.343511
13.882829
13.775687
13.323315
13.191637
12.757252
12.606478
12.189311
12.022077
11.620185
11.438597
11.05012
10.855967
10.479247
10.274091
9.9076662
9.6928788
9.3354635
9.1122508
8.7627139
8.5321368
8.1894825
7.9524758
7.6158264
7.3732145
7.0417953
6.7943069
6.4674323
6.2157127
5.8927748
5.6373974
5.3178552
5.0593311
4.7427011
4.4814882
4.167336
3.9038468
3.5917798
3.3263886
3.0160491
2.7490982
2.4401574
2.1719632
1.8641157
1.5949738
1.2879323
1.0181228
0.71161311
0.44140501
0.13516027
14.342026
13.882787
13.775582
13.323299
13.191633
12.75725
12.606479
12.18931
12.022078
11.620185
11.438597
11.05012
10.855967
10.479247
10.274091
9.9076658
9.6928792
9.3354632
9.1122511
8.7627136
8.5321371
8.1894823
7.952476
7.6158262
7.3732148
7.0417951
6.7943071
6.4674321
6.2157129
5.8927747
5.6373976
5.3178551
5.0593313
4.742701
4.4814884
4.1673359
3.903847
3.5917797
3.3263887
3.016049
2.7490983
2.4401573
2.1719633
1.8641156
1.5949739
1.2879322
1.0181229
0.71161301
0.44140514
0.1351602
14.340636
13.882663
13.775537
13.323296
13.191631
12.75725
12.606479
12.18931
12.022078
11.620184
11.438598
11.050119
10.855968
10.479246
10.274092
9.9076654
9.6928795
9.3354629
9.1122514
8.7627133
8.5321374
8.189482
7.9524763
7.615826
7.373215
7.0417949
6.7943073
6.4674319
6.2157131
5.8927745
5.6373978
5.3178549
5.0593314
4.7427008
4.4814885
4.1673358
3.9038471
3.5917796
3.3263888
3.0160489
2.7490984
2.4401572
2.1719634
1.8641155
1.594974
1.2879321
1.018123
0.71161291
0.44140525
0.13516013
14.339339
13.882467
13.775554
13.323301
13.191631
12.75725
12.60648
12.189309
12.022079
11.620184
11.438598
11.050119
10.855968
10.479246
10.274092
9.9076651
9.6928799
9.3354626
9.1122517
8.762713
8.5321376
8.1894818
7.9524765
7.6158258
7.3732152
7.0417947
6.7943074
6.4674317
6.2157132
5.8927743
5.6373979
5.3178548
5.0593316
4.7427007
4.4814886
4.1673356
3.9038472
3.5917795
3.3263889
3.0160488
2.7490985
2.4401571
2.1719635
1.8641154
1.5949741
1.287932
1.0181231
0.71161282
0.44140536
0.13516006
14.338136
13.88227
13.775585
13.323305
13.191632
12.75725
12.606481
12.189309
12.022079
11.620183
11.438599
11.050118
10.855968
10.479245
10.274092
9.9076647
9.6928802
9.3354623
9.112252
8.7627128
8.5321379
8.1894816
7.9524767
7.6158256
7.3732154
7.0417945
6.7943076
6.4674316
6.2157134
5.8927742
5.637398
5.3178546
5.0593317
4.7427006
4.4814887
4.1673355
3.9038473
3.5917794
3.326389
3.0160487
2.7490986
2.440157
2.1719636
1.8641153
1.5949742
1.287932
1.0181232
0.71161274
0.44140546
0.13516
14.33702
13.882103
13.775607
13.323302
13.191631
12.75725
12.606482
12.189309
12.02208
11.620183
11.438599
11.050118
10.855969
10.479245
10.274093
9.9076644
9.6928804
9.335462
9.1122522
8.7627126
8.5321381
8.1894814
7.9524769
7.6158254
7.3732155
7.0417943
6.7943078
6.4674314
6.2157135
5.8927741
5.6373982
5.3178545
5.0593318
4.7427005
4.4814888
4.1673354
3.9038474
3.5917793
3.3263891
3.0160486
2.7490986
2.440157
2.1719636
1.8641153
1.5949743
1.2879319
1.0181233
0.71161266
0.44140555
0.13515994
14.335986
13.881964
13.775619
13.323295
13.191631
12.757249
12.606482
12.189308
12.02208
11.620183
11.438599
11.050118
10.855969
10.479245
10.274093
9.9076642
9.6928807
9.3354618
9.1122525
8.7627124
8.5321383
8.1894812
7.9524771
7.6158252
7.3732157
7.0417942
6.7943079
6.4674313
6.2157136
5.8927739
5.6373983
5.3178544
5.0593319
4.7427004
4.4814889
4.1673353
3.9038475
3.5917792
3.3263892
3.0160485
2.7490987
2.4401569
2.1719637
1.8641152
1.5949744
1.2879318
1.0181233
0.71161259
0.44140564
0.13515987
14.33503
13.881845
13.775625
13.323286
13.191631
12.757249
12.606483
12.189308
12.022081
11.620182
11.4386
11.050117
10.855969
10.479244
10.274093
9.9076639
9.6928809
9.3354616
9.1122527
8.7627122
8.5321385
8.189481
7.9524772
7.6158251
7.3732158
7.0417941
6.794308
6.4674312
6.2157138
5.8927738
5.6373984
5.3178543
5.059332
4.7427003
4.481489
4.1673353
3.9038476
3.5917791
3.3263892
3.0160484
2.7490988
2.4401568
2.1719638
1.8641151
1.5949744
1.2879317
1.0181234
0.71161253
0.44140572
0.13515982
14.334149
13.88174
13.775624
13.323279
13.191632
12.757249
12.606484
12.189308
12.022081
11.620182
11.4386
11.050117
10.85597
10.479244
10.274093
9.9076637
9.6928812
9.3354613
9.1122529
8.762712
8.5321386
8.1894808
7.9524774
7.6158249
7.373216
7.0417939
6.7943082
6.4674311
6.2157139
5.8927737
5.6373985
5.3178542
5.0593321
4.7427002
4.4814891
4.1673352
3.9038476
3.591779
3.3263893
3.0160484
2.7490989
2.4401568
2.1719638
1.8641151
1.5949745
1.2879317
1.0181235
0.71161247
0.44140579
0.13515976
14.333341
13.881647
13.775616
13.323277
13.191633
12.75725
12.606485
12.189308
12.022082
11.620182
11.4386
11.050117
10.85597
10.479244
10.274094
9.9076635
9.6928814
9.3354612
9.1122531
8.7627118
8.5321388
8.1894807
7.9524775
7.6158248
7.3732161
7.0417938
6.7943083
6.4674309
6.215714
5.8927736
5.6373986
5.3178541
5.0593322
4.7427001
4.4814892
4.1673351
3.9038477
3.591779
3.3263894
3.0160483
2.7490989
2.4401567
2.1719639
1.864115
1.5949745
1.2879316
1.0181235
0.71161241
0.44140586
0.13515971
14.332603
13.881565
13.775601
13.323278
13.191635
12.75725
12.606485
12.189307
12.022082
11.620181
11.438601
11.050117
10.85597
10.479244
10.274094
9.9076633
9.6928816
9.335461
9.1122532
8.7627116
8.5321389
8.1894805
7.9524777
7.6158247
7.3732162
7.0417937
6.7943084
6.4674308
6.2157141
5.8927735
5.6373987
5.3178541
5.0593322
4.7427
4.4814892
4.167335
3.9038478
3.5917789
3.3263894
3.0160483
2.749099
2.4401566
2.171964
1.864115
1.5949746
1.2879316
1.0181236
0.71161236
0.44140593
0.13515966
14.331934
13.881491
13.775581
13.323284
13.191636
12.757251
12.606486
12.189307
12.022082
11.620181
11.438601
11.050116
10.85597
10.479244
10.274094
9.9076631
9.6928817
9.3354608
9.1122534
8.7627115
8.5321391
8.1894804
7.9524778
7.6158245
7.3732163
7.0417936
6.7943085
6.4674308
6.2157142
5.8927735
5.6373987
5.317854
5.0593323
4.7427
4.4814893
4.167335
3.9038478
3.5917789
3.3263895
3.0160482
2.749099
2.4401566
2.171964
1.8641149
1.5949746
1.2879315
1.0181236
0.71161232
0.44140598
0.13515962
14.331331
13.881424
13.775559
13.323292
13.191637
12.757251
12.606486
12.189307
12.022083
11.620181
11.438601
11.050116
10.855971
10.479243
10.274094
9.9076629
9.6928819
9.3354607
9.1122535
8.7627114
8.5321392
8.1894803
7.9524779
7.6158244
7.3732164
7.0417935
6.7943086
6.4674307
6.2157142
5.8927734
5.6373988
5.3178539
5.0593324
4.7426999
4.4814894
4.1673349
3.9038479
3.5917788
3.3263895
3.0160482
2.7490991
2.4401565
2.171964
1.8641149
1.5949747
1.2879315
1.0181237
0.71161228
0.44140603
0.13515958
14.330792
13.881363
13.775536
13.323302
13.191638
12.757251
12.606487
12.189307
12.022083
11.620181
11.438601
11.050116
10.855971
10.479243
10.274094
9.9076628
9.692882
9.3354605
9.1122536
8.7627112
8.5321393
8.1894802
7.952478
7.6158243
7.3732165
7.0417934
6.7943086
6.4674306
6.2157143
5.8927733
5.6373989
5.3178539
5.0593324
4.7426999
4.4814894
4.1673349
3.9038479
3.5917788
3.3263896
3.0160481
2.7490991
2.4401565
2.1719641
1.8641148
1.5949747
1.2879314
1.0181237
0.71161224
0.44140608
0.13515954
14.330316
13.881305
13.775512
13.323314
13.191638
12.757251
12.606487
12.189307
12.022083
11.62018
11.438602
11.050116
10.855971
10.479243
10.274095
9.9076626
9.6928822
9.3354604
9.1122537
8.7627111
8.5321394
8.1894801
7.9524781
7.6158243
7.3732166
7.0417933
6.7943087
6.4674305
6.2157144
5.8927733
5.6373989
5.3178538
5.0593325
4.7426998
4.4814894
4.1673348
3.903848
3.5917787
3.3263896
3.0160481
2.7490991
2.4401565
2.1719641
1.8641148
1.5949748
1.2879314
1.0181237
0.71161221
0.44140611
0.13515951
14.329902
13.881249
13.775488
13.323327
13.191637
12.757251
12.606487
12.189306
12.022083
11.62018
11.438602
11.050116
10.855971
10.479243
10.274095
9.9076625
9.6928823
9.3354603
9.1122539
8.762711
8.5321395
8.18948
7.9524782
7.6158242
7.3732167
7.0417933
6.7943088
6.4674305
6.2157144
5.8927732
5.637399
5.3178538
5.0593325
4.7426998
4.4814895
4.1673348
3.903848
3.5917787
3.3263897
3.016048
2.7490992
2.4401564
2.1719642
1.8641148
1.5949748
1.2879314
1.0181238
0.71161219
0.44140614
0.13515948
14.329549
13.881192
13.775464
13.32334
13.191636
12.757251
12.606487
12.189306
12.022083
11.62018
11.438602
11.050115
10.855971
10.479243
10.274095
9.9076624
9.6928824
9.3354602
9.1122539
8.762711
8.5321396
8.1894799
7.9524782
7.6158241
7.3732167
7.0417932
6.7943088
6.4674304
6.2157145
5.8927732
5.637399
5.3178537
5.0593326
4.7426997
4.4814895
4.1673348
3.903848
3.5917787
3.3263897
3.016048
2.7490992
2.4401564
2.1719642
1.8641147
1.5949748
1.2879314
1.0181238
0.71161217
0.44140616
0.13515945
14.329257
13.881131
13.775443
13.323347
13.191637
12.757251
12.606488
12.189306
12.022084
11.62018
11.438602
11.050115
10.855971
10.479243
10.274095
9.9076623
9.6928825
9.3354601
9.112254
8.7627109
8.5321396
8.1894799
7.9524783
7.6158241
7.3732168
7.0417932
6.7943089
6.4674304
6.2157145
5.8927731
5.6373991
5.3178537
5.0593326
4.7426997
4.4814896
4.1673347
3.9038481
3.5917786
3.3263897
3.016048
2.7490992
2.4401564
2.1719642
1.8641147
1.5949748
1.2879313
1.0181238
0.71161215
0.44140618
0.13515944
14.329026
13.881066
13.775425
13.323342
13.191643
12.757253
12.606489
12.189306
12.022084
11.62018
11.438602
11.050115
10.855971
10.479243
10.274095
9.9076622
9.6928825
9.3354601
9.1122541
8.7627108
8.5321397
8.1894798
7.9524783
7.615824
7.3732168
7.0417931
6.7943089
6.4674303
6.2157145
5.8927731
5.6373991
5.3178536
5.0593326
4.7426997
4.4814896
4.1673347
3.9038481
3.5917786
3.3263897
3.016048
2.7490993
2.4401564
2.1719642
1.8641147
1.5949748
1.2879313
1.0181238
0.71161214
0.44140618
0.13515942
14.328856
13.880994
13.77541
13.32333
13.191651
12.757256
12.60649
12.189306
12.022084
11.62018
11.438602
11.050115
10.855972
10.479242
10.274095
9.9076621
9.6928826
9.33546
9.1122541
8.7627108
8.5321398
8.1894798
7.9524784
7.615824
7.3732169
7.0417931
6.7943089
6.4674303
6.2157146
5.8927731
5.6373991
5.3178536
5.0593327
4.7426996
4.4814896
4.1673347
3.9038481
3.5917786
3.3263898
3.0160479
2.7490993
2.4401564
2.1719642
1.8641147
1.5949749
1.2879313
1.0181238
0.71161214
0.44140618
0.13515941
14.328748
13.880917
13.775396
13.323318
13.191658
12.757259
12.606491
12.189306
12.022084
11.62018
11.438602
11.050115
10.855972
10.479242
10.274095
9.9076621
9.6928826
9.33546
9.1122542
8.7627107
8.5321398
8.1894797
7.9524784
7.6158239
7.3732169
7.0417931
6.794309
6.4674303
6.2157146
5.892773
5.6373991
5.3178536
5.0593327
4.7426996
4.4814896
4.1673347
3.9038481
3.5917786
3.3263898
3.0160479
2.7490993
2.4401563
2.1719642
1.8641147
1.5949749
1.2879313
1.0181238
0.71161215
0.44140617
0.13515941
14.328696
13.880841
13.77538
13.323309
13.191662
12.757262
12.606491
12.189306
12.022084
11.62018
11.438602
11.050115
10.855972
10.479242
10.274095
9.9076621
9.6928827
9.3354599
9.1122542
8.7627107
8.5321398
8.1894797
7.9524784
7.6158239
7.3732169
7.041793
6.794309
6.4674303
6.2157146
5.892773
5.6373991
5.3178536
5.0593327
4.7426996
4.4814896
4.1673347
3.9038481
3.5917786
3.3263898
3.0160479
2.7490993
2.4401563
2.1719642
1.8641147
1.5949749
1.2879313
1.0181238
0.71161216
0.44140615
0.13515941
14.328685
13.880777
13.775367
13.323305
13.191663
12.757263
12.606492
12.189306
12.022084
11.62018
11.438602
11.050115
10.855972
10.479242
10.274095
9.907662
9.6928827
9.3354599
9.1122542
8.7627107
8.5321398
8.1894797
7.9524785
7.6158239
7.3732169
7.041793
6.794309
6.4674303
6.2157146
5.892773
5.6373992
5.3178536
5.0593327
4.7426996
4.4814896
4.1673347
3.9038481
3.5917786
3.3263898
3.0160479
2.7490993
2.4401563
2.1719642
1.8641147
1.5949749
1.2879313
1.0181238
0.71161217
0.44140614
0.13515941
14.32869
13.880739
13.775358
13.323304
13.191663
12.757264
12.606492
12.189306
12.022084
11.62018
11.438602
11.050115
10.855972
10.479242
10.274095
9.907662
9.6928827
9.3354599
9.1122542
8.7627107
8.5321398
8.1894797
7.9524785
7.6158239
7.3732169
7.041793
6.794309
6.4674303
6.2157146
5.892773
5.6373992
5.3178536
5.0593327
4.7426996
4.4814896
4.1673347
3.9038481
3.5917786
3.3263898
3.0160479
2.7490993
2.4401563
2.1719642
1.8641147
1.5949748
1.2879313
1.0181238
0.71161217
0.44140613
0.13515941
14.32869
13.880739
13.775358
13.323304
13.191663
12.757264
12.606492
12.189306
12.022084
11.62018
11.438602
11.050115
10.855972
10.479242
10.274095
9.907662
9.6928827
9.3354599
9.1122542
8.7627107
8.5321398
8.1894797
7.9524785
7.6158239
7.3732169
7.041793
6.794309
6.4674303
6.2157146
5.892773
5.6373992
5.3178536
5.0593327
4.7426996
4.4814896
4.1673347
3.9038481
3.5917786
3.3263898
3.0160479
2.7490993
2.4401563
2.1719642
1.8641147
1.5949748
1.2879313
1.0181238
0.71161217
0.44140613
0.13515941
14.328685
13.880777
13.775367
13.323305
13.191663
12.757263
12.606492
12.189306
12.022084
11.62018
11.438602
11.050115
10.855972
10.479242
10.274095
9.907662
9.6928827
9.3354599
9.1122542
8.7627107
8.5321398
8.1894797
7.9524785
7.6158239
7.3732169
7.041793
6.794309
6.4674303
6.2157146
5.892773
5.6373992
5.3178536
5.0593327
4.7426996
4.4814896
4.1673347
3.9038481
3.5917786
3.3263898
3.0160479
2.7490993
2.4401563
2.1719642
1.8641147
1.5949749
1.2879313
1.0181238
0.71161217
0.44140614
0.13515941
14.328696
13.880841
13.77538
13.323309
13.191662
12.757262
12.606491
12.189306
12.022084
11.62018
11.438602
11.050115
10.855972
10.479242
10.274095
9.9076621
9.6928827
9.3354599
9.1122542
8.7627107
8.5321398
8.1894797
7.9524784
7.6158239
7.3732169
7.041793
6.794309
6.4674303
6.2157146
5.892773
5.6373991
5.3178536
5.0593327
4.7426996
4.4814896
4.1673347
3.9038481
3.5917786
3.3263898
3.0160479
2.7490993
2.4401563
2.1719642
1.8641147
1.5949749
1.2879313
1.0181238
0.71161216
0.44140615
0.13515941
14.328748
13.880917
13.775396
13.323318
13.191658
12.757259
12.606491
12.189306
12.022084
11.62018
11.438602
11.050115
10.855972
10.479242
10.274095
9.9076621
9.6928826
9.33546
9.1122542
8.7627107
8.5321398
8.1894797
7.9524784
7.6158239
7.3732169
7.0417931
6.794309
6.4674303
6.2157146
5.892773
5.6373991
5.3178536
5.0593327
4.7426996
4.4814896
4.1673347
3.9038481
3.5917786
3.3263898
3.0160479
2.7490993
2.4401563
2.1719642
1.8641147
1.5949749
1.2879313
1.0181238
0.71161215
0.44140617
0.13515941
14.328856
13.880994
13.77541
13.32333
13.191651
12.757256
12.60649
12.189306
12.022084
11.62018
11.438602
11.050115
10.855972
10.479242
10.274095
9.9076621
9.6928826
9.33546
9.1122541
8.7627108
8.5321398
8.1894798
7.9524784
7.615824
7.3732169
7.0417931
6.7943089
6.4674303
6.2157146
5.8927731
5.6373991
5.3178536
5.0593327
4.7426996
4.4814896
4.1673347
3.9038481
3.5917786
3.3263898
3.0160479
2.7490993
2.4401564
2.1719642
1.8641147
1.5949749
1.2879313
1.0181238
0.71161214
0.44140618
0.13515941
14.329026
13.881066
13.775425
13.323342
13.191643
12.757253
12.606489
12.189306
12.022084
11.62018
11.438602
11.050115
10.855971
10.479243
10.274095
9.9076622
9.6928825
9.3354601
9.1122541
8.7627108
8.5321397
8.1894798
7.9524783
7.615824
7.3732168
7.0417931
6.7943089
6.4674303
6.2157145
5.8927731
5.6373991
5.3178536
5.0593326
4.7426997
4.4814896
4.1673347
3.9038481
3.5917786
3.3263897
3.016048
2.7490993
2.4401564
2.1719642
1.8641147
1.5949748
1.2879313
1.0181238
0.71161214
0.44140618
0.13515942
14.329257
13.881131
13.775443
13.323347
13.191637
12.757251
12.606488
12.189306
12.022084
11.62018
11.438602
11.050115
10.855971
10.479243
10.274095
9.9076623
9.6928825
9.3354601
9.112254
8.7627109
8.5321396
8.1894799
7.9524783
7.6158241
7.3732168
7.0417932
6.7943089
6.4674304
6.2157145
5.8927731
5.6373991
5.3178537
5.0593326
4.7426997
4.4814896
4.1673347
3.9038481
3.5917786
3.3263897
3.016048
2.7490992
2.4401564
2.1719642
1.8641147
1.5949748
1.2879313
1.0181238
0.71161215
0.44140618
0.13515944
14.329549
13.881191
13.775464
13.32334
13.191636
12.757251
12.606487
12.189306
12.022083
11.62018
11.438602
11.050115
10.855971
10.479243
10.274095
9.9076624
9.6928824
9.3354602
9.1122539
8.762711
8.5321396
8.1894799
7.9524782
7.6158241
7.3732167
7.0417932
6.7943088
6.4674304
6.2157145
5.8927732
5.637399
5.3178537
5.0593326
4.7426997
4.4814895
4.1673348
3.903848
3.5917787
3.3263897
3.016048
2.7490992
2.4401564
2.1719642
1.8641147
1.5949748
1.2879314
1.0181238
0.71161217
0.44140616
0.13515945
14.329902
13.881249
13.775488
13.323327
13.191637
12.757251
12.606487
12.189306
12.022083
11.62018
11.438602
11.050116
10.855971
10.479243
10.274095
9.9076625
9.6928823
9.3354603
9.1122539
8.762711
8.5321395
8.18948
7.9524782
7.6158242
7.3732167
7.0417933
6.7943088
6.4674305
6.2157144
5.8927732
5.637399
5.3178538
5.0593325
4.7426998
4.4814895
4.1673348
3.903848
3.5917787
3.3263897
3.016048
2.7490992
2.4401564
2.1719642
1.8641148
1.5949748
1.2879314
1.0181238
0.71161219
0.44140614
0.13515948
14.330316
13.881305
13.775512
13.323314
13.191638
12.757251
12.606487
12.189307
12.022083
11.62018
11.438602
11.050116
10.855971
10.479243
10.274095
9.9076626
9.6928822
9.3354604
9.1122537
8.7627111
8.5321394
8.1894801
7.9524781
7.6158243
7.3732166
7.0417933
6.7943087
6.4674305
6.2157144
5.8927733
5.6373989
5.3178538
5.0593325
4.7426998
4.4814894
4.1673348
3.903848
3.5917787
3.3263896
3.0160481
2.7490991
2.4401565
2.1719641
1.8641148
1.5949748
1.2879314
1.0181237
0.71161221
0.44140611
0.13515951
14.330792
13.881363
13.775536
13.323302
13.191638
12.757251
12.606487
12.189307
12.022083
11.620181
11.438601
11.050116
10.855971
10.479243
10.274094
9.9076628
9.692882
9.3354605
9.1122536
8.7627112
8.5321393
8.1894802
7.952478
7.6158243
7.3732165
7.0417934
6.7943086
6.4674306
6.2157143
5.8927733
5.6373989
5.3178539
5.0593324
4.7426999
4.4814894
4.1673349
3.9038479
3.5917788
3.3263896
3.0160481
2.7490991
2.4401565
2.1719641
1.8641148
1.5949747
1.2879314
1.0181237
0.71161224
0.44140608
0.13515954
14.331331
13.881424
13.775559
13.323292
13.191637
12.757251
12.606486
12.189307
12.022083
11.620181
11.438601
11.050116
10.855971
10.479243
10.274094
9.9076629
9.6928819
9.3354607
9.1122535
8.7627114
8.5321392
8.1894803
7.9524779
7.6158244
7.3732164
7.0417935
6.7943086
6.4674307
6.2157142
5.8927734
5.6373988
5.3178539
5.0593324
4.7426999
4.4814894
4.1673349
3.9038479
3.5917788
3.3263895
3.0160482
2.7490991
2.4401565
2.171964
1.8641149
1.5949747
1.2879315
1.0181237
0.71161228
0.44140603
0.13515958
14.331934
13.881491
13.775581
13.323284
13.191636
12.757251
12.606486
12.189307
12.022082
11.620181
11.438601
11.050116
10.85597
10.479244
10.274094
9.9076631
9.6928817
9.3354608
9.1122534
8.7627115
8.5321391
8.1894804
7.9524778
7.6158245
7.3732163
7.0417936
6.7943085
6.4674308
6.2157142
5.8927735
5.6373987
5.317854
5.0593323
4.7427
4.4814893
4.167335
3.9038478
3.5917789
3.3263895
3.0160482
2.749099
2.4401566
2.171964
1.8641149
1.5949746
1.2879315
1.0181236
0.71161232
0.44140598
0.13515962
14.332603
13.881565
13.775601
13.323278
13.191635
12.75725
12.606485
12.189307
12.022082
11.620181
11.438601
11.050117
10.85597
10.479244
10.274094
9.9076633
9.6928816
9.335461
9.1122532
8.7627116
8.5321389
8.1894805
7.9524777
7.6158247
7.3732162
7.0417937
6.7943084
6.4674308
6.2157141
5.8927735
5.6373987
5.3178541
5.0593322
4.7427
4.4814892
4.167335
3.9038478
3.5917789
3.3263894
3.0160483
2.749099
2.4401566
2.171964
1.864115
1.5949746
1.2879316
1.0181236
0.71161236
0.44140593
0.13515966
14.333341
13.881647
13.775616
13.323277
13.191633
12.75725
12.606485
12.189308
12.022082
11.620182
11.4386
11.050117
10.85597
10.479244
10.274094
9.9076635
9.6928814
9.3354612
9.1122531
8.7627118
8.5321388
8.1894807
7.9524775
7.6158248
7.3732161
7.0417938
6.7943083
6.4674309
6.215714
5.8927736
5.6373986
5.3178541
5.0593322
4.7427001
4.4814892
4.1673351
3.9038477
3.591779
3.3263894
3.0160483
2.7490989
2.4401567
2.1719639
1.864115
1.5949745
1.2879316
1.0181235
0.71161241
0.44140586
0.13515971
14.334149
13.88174
13.775624
13.323279
13.191632
12.757249
12.606484
12.189308
12.022081
11.620182
11.4386
11.050117
10.85597
10.479244
10.274093
9.9076637
9.6928812
9.3354613
9.1122529
8.762712
8.5321386
8.1894808
7.9524774
7.6158249
7.373216
7.0417939
6.7943082
6.4674311
6.2157139
5.8927737
5.6373985
5.3178542
5.0593321
4.7427002
4.4814891
4.1673352
3.9038476
3.591779
3.3263893
3.0160484
2.7490989
2.4401568
2.1719638
1.8641151
1.5949745
1.2879317
1.0181235
0.71161247
0.44140579
0.13515976
14.33503
13.881845
13.775625
13.323286
13.191631
12.757249
12.606483
12.189308
12.022081
11.620182
11.4386
11.050117
10.855969
10.479244
10.274093
9.9076639
9.6928809
9.3354616
9.1122527
8.7627122
8.5321385
8.189481
7.9524772
7.6158251
7.3732158
7.0417941
6.794308
6.4674312
6.2157138
5.8927738
5.6373984
5.3178543
5.059332
4.7427003
4.481489
4.1673353
3.9038476
3.5917791
3.3263892
3.0160484
2.7490988
2.4401568
2.1719638
1.8641151
1.5949744
1.2879317
1.0181234
0.71161253
0.44140572
0.13515982
14.335986
13.881964
13.775619
13.323295
13.191631
12.757249
12.606482
12.189308
12.02208
11.620183
11.438599
11.050118
10.855969
10.479245
10.274093
9.9076642
9.6928807
9.3354618
9.1122525
8.7627124
8.5321383
8.1894812
7.9524771
7.6158252
7.3732157
7.0417942
6.7943079
6.4674313
6.2157136
5.8927739
5.6373983
5.3178544
5.0593319
4.7427004
4.4814889
4.1673353
3.9038475
3.5917792
3.3263892
3.0160485
2.7490987
2.4401569
2.1719637
1.8641152
1.5949744
1.2879318
1.0181233
0.71161259
0.44140564
0.13515988
14.33702
13.882103
13.775607
13.323302
13.191631
12.75725
12.606482
12.189309
12.02208
11.620183
11.438599
11.050118
10.855969
10.479245
10.274093
9.9076644
9.6928804
9.335462
9.1122522
8.7627126
8.5321381
8.1894814