/*--------------------------------*- C++ -*----------------------------------*\
| =========                 |                                                 |
| \\      /  F ield         | OpenFOAM: The Open Source CFD Toolbox           |
|  \\    /   O peration     | Version:  2312                                  |
|   \\  /    A nd           | Website:  www.openfoam.com                      |
|    \\/     M anipulation  |                                                 |
\*---------------------------------------------------------------------------*/
FoamFile
{
    version     2.0;
    format      ascii;
    arch        "LSB;label=32;scalar=64";
    class       surfaceScalarField;
    location    "2";
    object      phi;
}
// * * * * * * * * * * * * * * * * * * * * * * * * * * * * * * * * * * * * * //

dimensions      [0 3 -1 0 0 0 0];

oriented        oriented;

internalField   nonuniform List<scalar> 
7870
(
5.3045041e-11
1.293205e-09
5.1924813e-11
1.1202283e-12
5.1957674e-11
-3.2862024e-14
5.1213106e-11
7.4456834e-13
5.2054425e-11
-8.4131973e-13
5.1282633e-11
7.7179218e-13
5.2025508e-11
-7.4287493e-13
5.1332253e-11
6.9325546e-13
5.1985523e-11
-6.5327018e-13
5.1372969e-11
6.125543e-13
5.1948593e-11
-5.7562411e-13
5.1408054e-11
5.4053954e-13
5.1915974e-11
-5.0792031e-13
5.1438674e-11
4.773001e-13
5.1887367e-11
-4.4869316e-13
5.1465458e-11
4.2190902e-13
5.1862324e-11
-3.9686539e-13
5.1488885e-11
3.7343915e-13
5.1840421e-11
-3.5153633e-13
5.1509359e-11
3.3106206e-13
5.1821285e-11
-3.1192579e-13
5.1527234e-11
2.9405117e-13
5.1804588e-11
-2.7735385e-13
5.1542816e-11
2.6177206e-13
5.1790044e-11
-2.4722813e-13
5.1556372e-11
2.336723e-13
5.1777405e-11
-2.2103352e-13
5.1568133e-11
2.0927196e-13
5.1766456e-11
-1.9832316e-13
5.1578301e-11
1.8815539e-13
5.1757012e-11
-1.7871081e-13
5.1587047e-11
1.6996402e-13
5.1748911e-11
-1.6186398e-13
5.1594521e-11
1.5439006e-13
5.1742019e-11
-1.4749802e-13
5.1600848e-11
1.4117088e-13
5.1736219e-11
-1.3537115e-13
5.1606134e-11
1.3008452e-13
5.1731414e-11
-1.2527998e-13
5.1610469e-11
1.2094545e-13
5.1727525e-11
-1.1705593e-13
5.1613923e-11
1.1360125e-13
5.1724485e-11
-1.1056203e-13
5.1616556e-11
1.0792988e-13
5.1722245e-11
-1.0568985e-13
5.1618407e-11
1.0383853e-13
5.1720775e-11
-1.023676e-13
5.1619658e-11
1.0111707e-13
5.1721247e-11
-1.0158914e-13
9.7654614e-14
1.4953347e-10
2.4899215e-09
1.5083183e-10
-1.7813271e-13
1.5025506e-10
5.4390211e-13
1.4929641e-10
1.7032241e-12
1.5050997e-10
-2.0548821e-12
1.4943022e-10
1.8515422e-12
1.5049663e-10
-1.8092809e-12
1.4950765e-10
1.6822289e-12
1.50443e-10
-1.5886167e-12
1.4956714e-10
1.4884105e-12
1.5039076e-10
-1.3992442e-12
1.4961757e-10
1.313734e-12
1.5034426e-10
-1.2346068e-12
1.4966143e-10
1.1601262e-12
1.5030341e-10
-1.0906692e-12
1.4969977e-10
1.0255469e-12
1.5026763e-10
-9.6472846e-13
1.497333e-10
9.077767e-13
1.5023634e-10
-8.5458144e-13
1.4976259e-10
8.0480833e-13
1.50209e-10
-7.5832964e-13
1.4978817e-10
7.1487717e-13
1.5018514e-10
-6.7432022e-13
1.4981047e-10
6.3644177e-13
1.5016436e-10
-6.0111359e-13
1.4982987e-10
5.6816007e-13
1.5014629e-10
-5.3745815e-13
1.498467e-10
5.0886609e-13
1.5013064e-10
-4.8226806e-13
1.4986125e-10
4.5754997e-13
1.5011714e-10
-4.34605e-13
1.4987376e-10
4.133409e-13
1.5010556e-10
-3.9366138e-13
1.4988446e-10
3.7549108e-13
1.5009571e-10
-3.5874555e-13
1.4989351e-10
3.4336276e-13
1.5008741e-10
-3.2927043e-13
1.4990108e-10
3.1641683e-13
1.5008054e-10
-3.0474199e-13
1.4990729e-10
2.9420267e-13
1.5007498e-10
-2.847506e-13
1.4991223e-10
2.7634992e-13
1.5007063e-10
-2.6896342e-13
1.49916e-10
2.6256168e-13
1.5006743e-10
-2.571153e-13
1.4991865e-10
2.5261373e-13
1.5006531e-10
-2.4902253e-13
1.499205e-10
2.4592498e-13
1.5006705e-10
-2.4814022e-13
2.3676022e-13
2.4295165e-10
3.5932198e-09
2.4726673e-10
-4.4932165e-12
2.458287e-10
1.9819367e-12
2.4508871e-10
2.4432093e-12
2.4623357e-10
-3.1997364e-12
2.4525801e-10
2.8270944e-12
2.4625908e-10
-2.8103442e-12
2.4533862e-10
2.6026903e-12
2.4621365e-10
-2.4636497e-12
2.4539582e-10
2.3062408e-12
2.4616562e-10
-2.1690409e-12
2.4544324e-10
2.0361073e-12
2.4612237e-10
-1.9137282e-12
2.454843e-10
1.7981915e-12
2.4608429e-10
-1.690662e-12
2.4552015e-10
1.5896889e-12
2.4605093e-10
-1.4955106e-12
2.4555149e-10
1.4072171e-12
2.4602175e-10
-1.3248355e-12
2.4557888e-10
1.2476751e-12
2.4599624e-10
-1.1756904e-12
2.4560279e-10
1.1083302e-12
2.4597398e-10
-1.0455131e-12
2.4562363e-10
9.8679436e-13
2.4595459e-10
-9.3207269e-13
2.4564176e-10
8.809885e-13
2.4593773e-10
-8.3342979e-13
2.4565749e-10
7.8910614e-13
2.4592313e-10
-7.4790201e-13
2.4567109e-10
7.0958303e-13
2.4591052e-10
-6.7403577e-13
2.4568279e-10
6.4107033e-13
2.4589971e-10
-6.1058011e-13
2.4569279e-10
5.8240998e-13
2.4589051e-10
-5.5646368e-13
2.4570126e-10
5.3261408e-13
2.4588277e-10
-5.1077731e-13
2.4570833e-10
4.9084788e-13
2.4587635e-10
-4.7275576e-13
2.4571414e-10
4.5641347e-13
2.4587115e-10
-4.4176448e-13
2.4571876e-10
4.2873673e-13
2.4586709e-10
-4.1728721e-13
2.4572229e-10
4.0735679e-13
2.4586409e-10
-3.9890996e-13
2.4572477e-10
3.9192721e-13
2.4586208e-10
-3.8633213e-13
2.457266e-10
3.8140752e-13
2.4586517e-10
-3.8670962e-13
3.662128e-13
3.3410351e-10
4.6053663e-09
3.4107992e-10
-1.1469634e-11
3.3891827e-10
4.1435908e-12
3.3836514e-10
2.9963385e-12
3.394388e-10
-4.2734005e-12
3.3856602e-10
3.6998839e-12
3.3950103e-10
-3.7453616e-12
3.3864897e-10
3.4547501e-12
3.3946328e-10
-3.27796e-12
3.387037e-10
3.0658253e-12
3.3941937e-10
-2.8847153e-12
3.3874806e-10
2.707418e-12
3.3937937e-10
-2.5450298e-12
3.3878629e-10
2.3912711e-12
3.3934407e-10
-2.2484436e-12
3.3881963e-10
2.1141297e-12
3.3931312e-10
-1.9890051e-12
3.3884877e-10
1.8715726e-12
3.3928604e-10
-1.7621101e-12
3.3887423e-10
1.65949e-12
3.3926237e-10
-1.5638356e-12
3.3889645e-10
1.4742518e-12
3.3924171e-10
-1.3907738e-12
3.3891582e-10
1.3126833e-12
3.3922371e-10
-1.2399586e-12
3.3893268e-10
1.1720215e-12
3.3920806e-10
-1.1088122e-12
3.389473e-10
1.0498653e-12
3.3919449e-10
-9.9509785e-13
3.3895994e-10
9.4413555e-13
3.3918279e-10
-8.9688385e-13
3.3897082e-10
8.530403e-13
3.3917275e-10
-8.125079e-13
3.3898012e-10
7.7504042e-13
3.391642e-10
-7.4054591e-13
3.3898799e-10
7.0882343e-13
3.39157e-10
-6.7979014e-13
3.3899457e-10
6.5328023e-13
3.3915104e-10
-6.2922364e-13
3.3899997e-10
6.0748328e-13
3.391462e-10
-5.8800267e-13
3.3900427e-10
5.7066915e-13
3.3914242e-10
-5.5544033e-13
3.3900756e-10
5.4222332e-13
3.3913963e-10
-5.3098083e-13
3.3900987e-10
5.2168505e-13
3.3913774e-10
-5.141966e-13
3.3901164e-10
5.0749934e-13
3.3914185e-10
-5.1691052e-13
4.8638715e-13
4.2278609e-10
5.5288302e-09
4.3222009e-10
-2.0903637e-11
4.2951912e-10
6.8445659e-12
4.2912857e-10
3.3868805e-12
4.3012552e-10
-5.2703473e-12
4.2935421e-10
4.4711916e-12
4.302224e-10
-4.6135456e-12
4.2943862e-10
4.2385273e-12
4.301918e-10
-4.0311384e-12
4.2949068e-10
3.766942e-12
4.3015194e-10
-3.5459748e-12
4.2953194e-10
3.3274236e-12
4.3011517e-10
-3.1282638e-12
4.295673e-10
2.9391393e-12
4.3008265e-10
-2.7637932e-12
4.2959812e-10
2.5986633e-12
4.3005413e-10
-2.4450127e-12
4.2962505e-10
2.3006557e-12
4.3002916e-10
-2.1662242e-12
4.2964857e-10
2.0400822e-12
4.3000733e-10
-1.9226e-12
4.296691e-10
1.8124853e-12
4.2998828e-10
-1.7099511e-12
4.29687e-10
1.613965e-12
4.2997167e-10
-1.5246329e-12
4.2970256e-10
1.4411269e-12
4.2995723e-10
-1.3634778e-12
4.2971607e-10
1.2910214e-12
4.2994471e-10
-1.2237379e-12
4.2972775e-10
1.1610947e-12
4.2993391e-10
-1.1030404e-12
4.297378e-10
1.0491459e-12
4.2992464e-10
-9.9934347e-13
4.2974639e-10
9.5328485e-13
4.2991675e-10
-9.1089791e-13
4.2975367e-10
8.7189962e-13
4.299101e-10
-8.3622072e-13
4.2975975e-10
8.0362836e-13
4.2990459e-10
-7.7406265e-13
4.2976474e-10
7.4733179e-13
4.2990013e-10
-7.2338705e-13
4.2976872e-10
7.0207107e-13
4.2989663e-10
-6.8334842e-13
4.2977177e-10
6.6708863e-13
4.2989404e-10
-6.5325681e-13
4.2977391e-10
6.4181666e-13
4.2989226e-10
-6.3254501e-13
4.2977561e-10
6.2415242e-13
4.2989713e-10
-6.3843423e-13
5.9716812e-13
5.0896761e-10
6.3661126e-09
5.2068913e-10
-3.262515e-11
5.1763021e-10
9.9034796e-12
5.1738148e-10
3.6356096e-12
5.1829372e-10
-6.1825866e-12
5.1762253e-10
5.1423803e-12
5.1842331e-10
-5.4143278e-12
5.1770747e-10
4.954374e-12
5.1839932e-10
-4.7229872e-12
5.1775669e-10
4.4095673e-12
5.1836343e-10
-4.1527134e-12
5.177948e-10
3.8960579e-12
5.1832988e-10
-3.6633464e-12
5.1782729e-10
3.441726e-12
5.1830014e-10
-3.2366343e-12
5.1785558e-10
3.0432213e-12
5.1827403e-10
-2.863461e-12
5.1788028e-10
2.6944002e-12
5.1825117e-10
-2.5371089e-12
5.1790186e-10
2.3893877e-12
5.1823118e-10
-2.251918e-12
5.179207e-10
2.1229691e-12
5.1821373e-10
-2.0029824e-12
5.1793711e-10
1.8905797e-12
5.1819852e-10
-1.7860352e-12
5.179514e-10
1.6882471e-12
5.1818529e-10
-1.597369e-12
5.1796379e-10
1.5125192e-12
5.1817382e-10
-1.4337669e-12
5.179745e-10
1.360407e-12
5.1816392e-10
-1.2924523e-12
5.1798373e-10
1.229336e-12
5.1815542e-10
-1.1710362e-12
5.1799161e-10
1.1170942e-12
5.1814818e-10
-1.0674713e-12
5.1799828e-10
1.0217959e-12
5.1814209e-10
-9.8002289e-13
5.1800387e-10
9.4184769e-13
5.1813703e-10
-9.0722902e-13
5.1800845e-10
8.7591628e-13
5.1813294e-10
-8.4787577e-13
5.1801211e-10
8.2290203e-13
5.1812973e-10
-8.0097198e-13
5.180149e-10
7.819144e-13
5.1812735e-10
-7.6570047e-13
5.1801688e-10
7.5228523e-13
5.1812568e-10
-7.4134191e-13
5.1801848e-10
7.3135025e-13
5.1813108e-10
-7.5103612e-13
6.9843977e-13
5.9270344e-10
7.1196592e-09
6.0649723e-10
-4.6418937e-11
6.032493e-10
1.3151408e-11
6.0312442e-10
3.760495e-12
6.0394348e-10
-7.0016491e-12
6.0337083e-10
5.715029e-12
6.0410392e-10
-6.1474204e-12
6.0345539e-10
5.6029104e-12
6.0408595e-10
-5.3535507e-12
6.0350161e-10
4.993906e-12
6.0405394e-10
-4.7050418e-12
6.0353654e-10
4.4134565e-12
6.0402358e-10
-4.150384e-12
6.0356617e-10
3.899139e-12
6.0399659e-10
-3.6670576e-12
6.0359192e-10
3.4478918e-12
6.0397289e-10
-3.2444252e-12
6.0361441e-10
3.0528779e-12
6.0395213e-10
-2.8748256e-12
6.0363405e-10
2.7074643e-12
6.0393397e-10
-2.5518386e-12
6.0365119e-10
2.405749e-12
6.0391811e-10
-2.2699062e-12
6.0366613e-10
2.1425632e-12
6.0390429e-10
-2.0241953e-12
6.0367913e-10
1.9134093e-12
6.0389227e-10
-1.8105078e-12
6.0369041e-10
1.7143784e-12
6.0388184e-10
-1.6252006e-12
6.0370016e-10
1.5420867e-12
6.0387284e-10
-1.4651304e-12
6.0370856e-10
1.3936196e-12
6.0386511e-10
-1.3275926e-12
6.0371573e-10
1.2664739e-12
6.0385853e-10
-1.2102693e-12
6.0372181e-10
1.1585143e-12
6.0385298e-10
-1.1111973e-12
6.0372689e-10
1.0679381e-12
6.0384839e-10
-1.0287214e-12
6.0373107e-10
9.932354e-13
6.0384466e-10
-9.6146664e-13
6.037344e-10
9.3315961e-13
6.0384174e-10
-9.0830809e-13
6.0373695e-10
8.8669795e-13
6.0383956e-10
-8.683095e-13
6.0373876e-10
8.5308859e-13
6.03838e-10
-8.4058705e-13
6.0374025e-10
8.2910662e-13
6.0384374e-10
-8.5453299e-13
7.9018431e-13
6.7405511e-10
7.7918541e-09
6.8966025e-10
-6.2024075e-11
6.8637307e-10
1.6438588e-11
6.8635449e-10
3.7790718e-12
6.8707508e-10
-7.7222369e-12
6.8659891e-10
6.1912003e-12
6.8726434e-10
-6.8128508e-12
6.8668226e-10
6.1849898e-12
6.872518e-10
-5.9230891e-12
6.8672534e-10
5.5203668e-12
6.8722356e-10
-5.2032634e-12
6.8675708e-10
4.8799354e-12
6.8719635e-10
-4.5896531e-12
6.8678385e-10
4.311645e-12
6.8717209e-10
-4.0553039e-12
6.8680708e-10
3.8129032e-12
6.8715077e-10
-3.5881128e-12
6.8682736e-10
3.3762844e-12
6.8713209e-10
-3.1795521e-12
6.8684508e-10
2.9944792e-12
6.8711575e-10
-2.8225142e-12
6.8686053e-10
2.6609679e-12
6.8710148e-10
-2.5108524e-12
6.8687401e-10
2.3700371e-12
6.8708903e-10
-2.2392239e-12
6.8688573e-10
2.1167168e-12
6.8707821e-10
-2.0029885e-12
6.868959e-10
1.896687e-12
6.8706882e-10
-1.7981192e-12
6.869047e-10
1.7062081e-12
6.8706071e-10
-1.6211426e-12
6.8691227e-10
1.5420607e-12
6.8705374e-10
-1.4690709e-12
6.8691874e-10
1.4014781e-12
6.8704781e-10
-1.3393418e-12
6.8692422e-10
1.2821019e-12
6.8704281e-10
-1.2297873e-12
6.8692881e-10
1.1819404e-12
6.8703867e-10
-1.1385779e-12
6.8693258e-10
1.0993249e-12
6.870353e-10
-1.0641934e-12
6.8693559e-10
1.0328763e-12
6.8703267e-10
-1.0053879e-12
6.869379e-10
9.8146971e-13
6.870307e-10
-9.6111357e-13
6.8693953e-10
9.4425593e-13
6.8702926e-10
-9.3031211e-13
6.869409e-10
9.1746367e-13
6.8703516e-10
-9.487968e-13
8.7245985e-13
7.530701e-10
8.385034e-09
7.7019719e-10
-7.9151163e-11
7.6699703e-10
1.9638748e-11
7.6706543e-10
3.7106697e-12
7.6768913e-10
-8.3459352e-12
7.6730651e-10
6.5738203e-12
7.6790466e-10
-7.4109991e-12
7.6738799e-10
6.7016588e-12
7.6789696e-10
-6.4320546e-12
7.6742779e-10
5.9895376e-12
7.6787237e-10
-5.6478525e-12
7.6745634e-10
5.2959697e-12
7.6784827e-10
-4.9815802e-12
7.6748026e-10
4.6796514e-12
7.678267e-10
-4.4017459e-12
7.67501e-10
4.1386077e-12
7.6780774e-10
-3.8948475e-12
7.675191e-10
3.664925e-12
7.6779111e-10
-3.4515693e-12
7.675349e-10
3.2506968e-12
7.6777657e-10
-3.0641881e-12
7.6754868e-10
2.888854e-12
7.6776386e-10
-2.7260318e-12
7.675607e-10
2.5731991e-12
7.6775278e-10
-2.4313036e-12
7.6757116e-10
2.298341e-12
7.6774314e-10
-2.1749694e-12
7.6758023e-10
2.0595935e-12
7.6773477e-10
-1.9526602e-12
7.6758808e-10
1.8529006e-12
7.6772754e-10
-1.7606091e-12
7.6759483e-10
1.6747713e-12
7.6772134e-10
-1.5955757e-12
7.6760061e-10
1.5222056e-12
7.6771605e-10
-1.454781e-12
7.6760551e-10
1.3926457e-12
7.6771159e-10
-1.3358746e-12
7.676096e-10
1.2839322e-12
7.6770789e-10
-1.2368718e-12
7.6761296e-10
1.1942552e-12
7.6770489e-10
-1.156123e-12
7.6761565e-10
1.1221166e-12
7.6770254e-10
-1.0922735e-12
7.6761772e-10
1.0662901e-12
7.6770078e-10
-1.0441722e-12
7.6761919e-10
1.0258459e-12
7.6769945e-10
-1.0105782e-12
7.6762043e-10
9.9648942e-13
7.6770538e-10
-1.0337489e-12
9.453744e-13
8.2978626e-10
8.9014977e-09
8.4812802e-10
-9.7492928e-11
8.4511587e-10
2.2650898e-11
8.4525051e-10
3.5760355e-12
8.4578655e-10
-8.8819825e-12
8.4549338e-10
6.8669978e-12
8.4602494e-10
-7.9425671e-12
8.4557247e-10
7.1541286e-12
8.460215e-10
-6.8810762e-12
8.4560887e-10
6.4021682e-12
8.4600045e-10
-6.0394378e-12
8.4563424e-10
5.6621789e-12
8.4597939e-10
-5.3267281e-12
8.4565535e-10
5.0036927e-12
8.4596048e-10
-4.7068765e-12
8.4567362e-10
4.4254704e-12
8.4594383e-10
-4.1650594e-12
8.4568955e-10
3.9192041e-12
8.4592924e-10
-3.691252e-12
8.4570346e-10
3.4764689e-12
8.4591646e-10
-3.2771868e-12
8.457156e-10
3.0897144e-12
8.459053e-10
-2.9157291e-12
8.4572618e-10
2.7523164e-12
8.4589556e-10
-2.6006827e-12
8.4573539e-10
2.4585148e-12
8.4588709e-10
-2.3266674e-12
8.4574338e-10
2.2033016e-12
8.4587973e-10
-2.0890135e-12
8.4575029e-10
1.9823426e-12
8.4587337e-10
-1.8836965e-12
8.4575624e-10
1.7919092e-12
8.4586791e-10
-1.7072547e-12
8.4576132e-10
1.6287956e-12
8.4586326e-10
-1.5567181e-12
8.4576564e-10
1.4902699e-12
8.4585934e-10
-1.4295766e-12
8.4576925e-10
1.3740254e-12
8.4585608e-10
-1.3237096e-12
8.4577221e-10
1.2781277e-12
8.4585344e-10
-1.2373528e-12
8.4577458e-10
1.2009744e-12
8.4585136e-10
-1.1690557e-12
8.4577641e-10
1.1412479e-12
8.4584981e-10
-1.117572e-12
8.4577771e-10
1.0979439e-12
8.458486e-10
-1.0814734e-12
8.4577882e-10
1.0662768e-12
8.4585442e-10
-1.1093566e-12
1.0090749e-12
9.0423661e-10
9.3435111e-09
9.2347095e-10
-1.1672726e-10
9.2072391e-10
2.5397928e-11
9.2090575e-10
3.3942045e-12
9.2136844e-10
-9.3446772e-12
9.2115936e-10
7.0760791e-12
9.2162526e-10
-8.4084653e-12
9.2123563e-10
7.5437565e-12
9.216255e-10
-7.2709425e-12
9.2126851e-10
6.7591568e-12
9.2160786e-10
-6.3787903e-12
9.2129072e-10
5.979315e-12
9.2158978e-10
-5.6257844e-12
9.2130905e-10
5.2844207e-12
9.2157348e-10
-4.9712989e-12
9.2132489e-10
4.6740592e-12
9.2155911e-10
-4.3992759e-12
9.2133869e-10
4.1396178e-12
9.215465e-10
-3.8990611e-12
9.2135074e-10
3.6722292e-12
9.2153547e-10
-3.4619132e-12
9.2136125e-10
3.2639275e-12
9.2152582e-10
-3.0802968e-12
9.2137042e-10
2.9077204e-12
9.2151741e-10
-2.7476699e-12
9.2137839e-10
2.5975288e-12
9.2151008e-10
-2.4583535e-12
9.2138531e-10
2.3280664e-12
9.2150372e-10
-2.2074178e-12
9.213913e-10
2.0947592e-12
9.2149822e-10
-1.9906158e-12
9.2139645e-10
1.8936729e-12
9.2149349e-10
-1.8042948e-12
9.2140086e-10
1.7214252e-12
9.2148947e-10
-1.64532e-12
9.214046e-10
1.5751332e-12
9.2148607e-10
-1.5110438e-12
9.2140773e-10
1.4523634e-12
9.2148325e-10
-1.3992278e-12
9.214103e-10
1.3510742e-12
9.2148096e-10
-1.308009e-12
9.2141236e-10
1.2695717e-12
9.2147916e-10
-1.2358523e-12
9.2141395e-10
1.2064579e-12
9.214778e-10
-1.181426e-12
9.2141508e-10
1.1606612e-12
9.2147672e-10
-1.1431112e-12
9.2141606e-10
1.1269417e-12
9.2148233e-10
-1.1756285e-12
1.0637413e-12
9.7645087e-10
9.7133102e-09
9.9624172e-10
-1.3651811e-10
9.9381546e-10
2.7824182e-11
9.9403059e-10
3.1790798e-12
9.9443576e-10
-9.7498508e-12
9.9430442e-10
7.2074177e-12
9.9470565e-10
-8.8096909e-12
9.9437738e-10
7.8720301e-12
9.9470902e-10
-7.6025866e-12
9.9440664e-10
7.0615375e-12
9.9469466e-10
-6.6668106e-12
9.9442572e-10
6.2482514e-12
9.9467949e-10
-5.8795515e-12
9.9444132e-10
5.5225943e-12
9.9466574e-10
-5.1957176e-12
9.9445476e-10
4.8850377e-12
9.946536e-10
-4.5981139e-12
9.9446647e-10
4.3267462e-12
9.9464295e-10
-4.0755369e-12
9.9447669e-10
3.8384852e-12
9.9463362e-10
-3.6188409e-12
9.9448561e-10
3.4119384e-12
9.9462546e-10
-3.2201501e-12
9.9449338e-10
3.0398015e-12
9.9461834e-10
-2.8726302e-12
9.9450014e-10
2.7157259e-12
9.9461214e-10
-2.570349e-12
9.9450601e-10
2.4341904e-12
9.9460675e-10
-2.3081565e-12
9.9451109e-10
2.1904175e-12
9.946021e-10
-2.0816182e-12
9.9451547e-10
1.9803005e-12
9.9459809e-10
-1.8869201e-12
9.9451921e-10
1.8003067e-12
9.9459468e-10
-1.7207876e-12
9.9452238e-10
1.6474266e-12
9.945918e-10
-1.5804577e-12
9.9452504e-10
1.5191196e-12
9.9458941e-10
-1.4635922e-12
9.9452723e-10
1.4132531e-12
9.9458746e-10
-1.368244e-12
9.9452898e-10
1.3280559e-12
9.9458593e-10
-1.2928065e-12
9.9453033e-10
1.2620598e-12
9.9458477e-10
-1.2358704e-12
9.945313e-10
1.2141321e-12
9.9458382e-10
-1.1956285e-12
9.9453214e-10
1.1786223e-12
9.9458912e-10
-1.2326124e-12
1.1095825e-12
1.0464551e-09
1.0013105e-08
1.0664546e-09
-1.5651758e-10
1.0643848e-09
2.9893909e-11
1.0646267e-09
2.9372604e-12
1.0649892e-09
-1.0112392e-11
1.0649286e-09
7.2680044e-12
1.0652662e-09
-9.1472431e-12
1.0649976e-09
8.1405529e-12
1.0652721e-09
-7.8770715e-12
1.0650232e-09
7.3104695e-12
1.0652609e-09
-6.9045186e-12
1.0650392e-09
6.4699726e-12
1.0652486e-09
-6.0889366e-12
1.0650521e-09
5.7190708e-12
1.0652373e-09
-5.3809294e-12
1.0650632e-09
5.0591556e-12
1.0652274e-09
-4.7622726e-12
1.0650729e-09
4.4812467e-12
1.0652186e-09
-4.2212926e-12
1.0650813e-09
3.9758135e-12
1.0652109e-09
-3.748508e-12
1.0650886e-09
3.5342528e-12
1.0652042e-09
-3.335762e-12
1.065095e-09
3.1490043e-12
1.0651984e-09
-2.9759797e-12
1.0651006e-09
2.8134983e-12
1.0651933e-09
-2.6630211e-12
1.0651055e-09
2.5220195e-12
1.0651889e-09
-2.3915549e-12
1.0651097e-09
2.2696247e-12
1.065185e-09
-2.1569927e-12
1.0651133e-09
2.0520647e-12
1.0651817e-09
-1.9553884e-12
1.0651163e-09
1.8656848e-12
1.0651789e-09
-1.7833527e-12
1.065119e-09
1.7073707e-12
1.0651765e-09
-1.6380281e-12
1.0651212e-09
1.5744946e-12
1.0651746e-09
-1.5169945e-12
1.065123e-09
1.4648495e-12
1.065173e-09
-1.4182358e-12
1.0651244e-09
1.376599e-12
1.0651717e-09
-1.3400846e-12
1.0651255e-09
1.3082158e-12
1.0651707e-09
-1.2810649e-12
1.0651264e-09
1.2585137e-12
1.0651699e-09
-1.2391839e-12
1.0651271e-09
1.2214768e-12
1.0651748e-09
-1.2803911e-12
1.1468315e-12
1.1142696e-09
1.0245086e-08
1.1341227e-09
-1.7637072e-10
1.1324268e-09
3.158983e-11
1.1326962e-09
2.6678072e-12
1.1330291e-09
-1.0445281e-11
1.133032e-09
7.2651031e-12
1.1333069e-09
-9.4220818e-12
1.1330964e-09
8.3510318e-12
1.1333149e-09
-8.0955777e-12
1.1331181e-09
7.507226e-12
1.1333067e-09
-7.0930423e-12
1.1331311e-09
6.6455645e-12
1.1332971e-09
-6.2549426e-12
1.1331413e-09
5.874797e-12
1.1332882e-09
-5.5278166e-12
1.1331501e-09
5.1972428e-12
1.1332804e-09
-4.8925261e-12
1.1331578e-09
4.6038468e-12
1.1332735e-09
-4.337008e-12
1.1331645e-09
4.0848529e-12
1.1332675e-09
-3.8515119e-12
1.1331703e-09
3.6314329e-12
1.1332622e-09
-3.4276584e-12
1.1331754e-09
3.2358238e-12
1.1332576e-09
-3.0581823e-12
1.1331798e-09
2.8912822e-12
1.1332536e-09
-2.7367798e-12
1.1331836e-09
2.5919405e-12
1.1332501e-09
-2.4579762e-12
1.133187e-09
2.3327236e-12
1.133247e-09
-2.2170628e-12
1.1331898e-09
2.1092723e-12
1.1332444e-09
-2.0099896e-12
1.1331923e-09
1.9178343e-12
1.1332422e-09
-1.8332763e-12
1.1331943e-09
1.7552142e-12
1.1332403e-09
-1.6839919e-12
1.1331961e-09
1.6187152e-12
1.1332387e-09
-1.5596519e-12
1.1331975e-09
1.5060713e-12
1.1332375e-09
-1.4581848e-12
1.1331987e-09
1.4153952e-12
1.1332365e-09
-1.3778755e-12
1.1331996e-09
1.3451103e-12
1.1332357e-09
-1.3171892e-12
1.1332002e-09
1.2939832e-12
1.133235e-09
-1.2739563e-12
1.1332008e-09
1.2556831e-12
1.1332395e-09
-1.3190807e-12
1.1757422e-12
1.1799044e-09
1.0411431e-08
1.1992586e-09
-1.9572497e-10
1.1979406e-09
3.2907809e-11
1.1982413e-09
2.3671656e-12
1.1985557e-09
-1.075966e-11
1.1986147e-09
7.2060433e-12
1.1988278e-09
-9.6351203e-12
1.1986735e-09
8.5052692e-12
1.1988373e-09
-8.2593924e-12
1.1986914e-09
7.653185e-12
1.1988319e-09
-7.233608e-12
1.1987013e-09
6.7762052e-12
1.198825e-09
-6.3786596e-12
1.198709e-09
5.9908014e-12
1.1988185e-09
-5.6373379e-12
1.1987156e-09
5.3002009e-12
1.1988128e-09
-4.989717e-12
1.1987213e-09
4.6953389e-12
1.1988077e-09
-4.4234238e-12
1.1987262e-09
4.1663e-12
1.1988032e-09
-3.9285046e-12
1.1987306e-09
3.7040913e-12
1.1987993e-09
-3.4964135e-12
1.1987344e-09
3.3008004e-12
1.1987959e-09
-3.119745e-12
1.1987376e-09
2.9495558e-12
1.1987929e-09
-2.7920739e-12
1.1987405e-09
2.6443766e-12
1.1987903e-09
-2.5078195e-12
1.198743e-09
2.3800917e-12
1.1987881e-09
-2.2621844e-12
1.1987451e-09
2.1522598e-12
1.1987862e-09
-2.0510422e-12
1.1987469e-09
1.9570582e-12
1.1987845e-09
-1.8708458e-12
1.1987485e-09
1.791231e-12
1.1987831e-09
-1.7186106e-12
1.1987498e-09
1.6520314e-12
1.1987819e-09
-1.5918038e-12
1.1987509e-09
1.5371499e-12
1.198781e-09
-1.4883138e-12
1.1987517e-09
1.44466e-12
1.1987802e-09
-1.4063879e-12
1.1987524e-09
1.3729468e-12
1.1987797e-09
-1.3444436e-12
1.1987529e-09
1.3207375e-12
1.1987791e-09
-1.3001435e-12
1.1987533e-09
1.2814367e-12
1.1987831e-09
-1.3488265e-12
1.1965847e-12
1.2433481e-09
1.0514333e-08
1.2618739e-09
-2.142508e-10
1.2609403e-09
3.3841377e-11
1.2612622e-09
2.0452451e-12
1.2615684e-09
-1.1065831e-11
1.2616765e-09
7.097905e-12
1.2618288e-09
-9.7874094e-12
1.261729e-09
8.6051135e-12
1.2618395e-09
-8.3699175e-12
1.2617429e-09
7.7498148e-12
1.2618368e-09
-7.3275323e-12
1.2617499e-09
6.8631568e-12
1.2618325e-09
-6.4612569e-12
1.2617551e-09
6.0681872e-12
1.2618283e-09
-5.710523e-12
1.2617595e-09
5.3689984e-12
1.2618245e-09
-5.0547507e-12
1.2617633e-09
4.7565735e-12
1.2618212e-09
-4.4813366e-12
1.2617666e-09
4.2209033e-12
1.2618183e-09
-3.9801876e-12
1.2617695e-09
3.7528883e-12
1.2618157e-09
-3.5426466e-12
1.261772e-09
3.3445168e-12
1.2618134e-09
-3.161215e-12
1.2617742e-09
2.9888343e-12
1.2618115e-09
-2.8293885e-12
1.2617761e-09
2.6797858e-12
1.2618098e-09
-2.5415159e-12
1.2617777e-09
2.4121361e-12
1.2618083e-09
-2.2927423e-12
1.2617791e-09
2.1813927e-12
1.261807e-09
-2.0788923e-12
1.2617804e-09
1.9836852e-12
1.2618059e-09
-1.8963738e-12
1.2617814e-09
1.8157194e-12
1.261805e-09
-1.7421684e-12
1.2617823e-09
1.6747158e-12
1.2618042e-09
-1.6137121e-12
1.261783e-09
1.5583362e-12
1.2618036e-09
-1.5088651e-12
1.2617836e-09
1.4646283e-12
1.261803e-09
-1.4258502e-12
1.261784e-09
1.3919482e-12
1.2618026e-09
-1.3630456e-12
1.2617844e-09
1.338991e-12
1.2618022e-09
-1.3179604e-12
1.2617847e-09
1.2989501e-12
1.2618057e-09
-1.3698019e-12
1.2096437e-12
1.304539e-09
1.0556044e-08
1.3219685e-09
-2.3168029e-10
1.3214835e-09
3.4326387e-11
1.321765e-09
1.7637544e-12
1.3220667e-09
-1.136757e-11
1.322217e-09
6.9476209e-12
1.3223099e-09
-9.8802769e-12
1.3222626e-09
8.6523605e-12
1.3223214e-09
-8.4287122e-12
1.3222726e-09
7.7986433e-12
1.3223213e-09
-7.3762247e-12
1.3222767e-09
6.9077528e-12
1.3223194e-09
-6.5039775e-12
1.3222795e-09
6.108124e-12
1.3223174e-09
-5.7484652e-12
1.3222818e-09
5.4046628e-12
1.3223156e-09
-5.0885893e-12
1.3222837e-09
4.7884554e-12
1.322314e-09
-4.5115935e-12
1.3222854e-09
4.2494597e-12
1.3223125e-09
-4.0073077e-12
1.3222869e-09
3.7785261e-12
1.3223113e-09
-3.5670168e-12
1.3222882e-09
3.3675941e-12
1.3223102e-09
-3.1831761e-12
1.3222893e-09
3.0096684e-12
1.3223092e-09
-2.8492416e-12
1.3222903e-09
2.6986568e-12
1.3223083e-09
-2.5595268e-12
1.3222912e-09
2.4292938e-12
1.3223076e-09
-2.3091496e-12
1.3222919e-09
2.1970617e-12
1.3223069e-09
-2.0939105e-12
1.3222925e-09
1.9980679e-12
1.3223064e-09
-1.9101957e-12
1.3222931e-09
1.8289992e-12
1.3223059e-09
-1.7549713e-12
1.3222935e-09
1.6870613e-12
1.3223055e-09
-1.6256572e-12
1.3222939e-09
1.5699017e-12
1.3223051e-09
-1.5201003e-12
1.3222942e-09
1.4755533e-12
1.3223049e-09
-1.436508e-12
1.3222945e-09
1.4023542e-12
1.3223047e-09
-1.3732306e-12
1.3222947e-09
1.3489753e-12
1.3223044e-09
-1.3276385e-12
1.3222949e-09
1.3084513e-12
1.3223073e-09
-1.382205e-12
1.2152144e-12
1.363378e-09
1.0538916e-08
1.3795245e-09
-2.4782673e-10
1.3796619e-09
3.4188909e-11
1.3797754e-09
1.6503524e-12
1.3800544e-09
-1.1646609e-11
1.3802376e-09
6.7643614e-12
1.3802714e-09
-9.9140129e-12
1.3802746e-09
8.6491567e-12
1.3802832e-09
-8.4373109e-12
1.3802805e-09
7.8013131e-12
1.3802854e-09
-7.3811532e-12
1.3802818e-09
6.9114015e-12
1.3802859e-09
-6.5081275e-12
1.3802822e-09
6.1118435e-12
1.3802861e-09
-5.7523161e-12
1.3802825e-09
5.4082771e-12
1.3802861e-09
-5.0922467e-12
1.3802826e-09
4.7919374e-12
1.3802861e-09
-4.515088e-12
1.3802828e-09
4.2528092e-12
1.3802861e-09
-4.0106534e-12
1.3802829e-09
3.7817471e-12
1.3802861e-09
-3.5702215e-12
1.380283e-09
3.3706885e-12
1.3802861e-09
-3.1862456e-12
1.3802831e-09
3.0126397e-12
1.3802861e-09
-2.8521817e-12
1.3802832e-09
2.7015079e-12
1.380286e-09
-2.5623409e-12
1.3802833e-09
2.4320268e-12
1.380286e-09
-2.3118433e-12
1.3802834e-09
2.1996823e-12
1.3802859e-09
-2.096491e-12
1.3802834e-09
2.0005809e-12
1.3802859e-09
-1.9126682e-12
1.3802835e-09
1.8314112e-12
1.3802859e-09
-1.7573446e-12
1.3802835e-09
1.68938e-12
1.3802858e-09
-1.6279394e-12
1.3802836e-09
1.5721343e-12
1.3802858e-09
-1.5222978e-12
1.3802836e-09
1.4777048e-12
1.3802858e-09
-1.438624e-12
1.3802837e-09
1.4044211e-12
1.3802857e-09
-1.3752492e-12
1.3802837e-09
1.350937e-12
1.3802855e-09
-1.329424e-12
1.3802838e-09
1.310183e-12
1.3802879e-09
-1.3862575e-12
1.2136013e-12
1.4199303e-09
1.0465236e-08
1.4345744e-09
-2.6247084e-10
1.4354165e-09
3.3346788e-11
1.4352873e-09
1.7795398e-12
1.4355283e-09
-1.1887585e-11
1.4357377e-09
6.5549821e-12
1.4357131e-09
-9.8894336e-12
1.4357647e-09
8.5975652e-12
1.4357248e-09
-8.3973746e-12
1.4357666e-09
7.7595199e-12
1.4357293e-09
-7.3438593e-12
1.4357651e-09
6.8755703e-12
1.4357321e-09
-6.475073e-12
1.4357633e-09
6.0806327e-12
1.4357342e-09
-5.7232795e-12
1.4357615e-09
5.3809729e-12
1.4357361e-09
-5.0667837e-12
1.43576e-09
4.7680169e-12
1.4357377e-09
-4.4927557e-12
1.4357586e-09
4.2318318e-12
1.435739e-09
-3.9910508e-12
1.4357575e-09
3.7633283e-12
1.4357402e-09
-3.5529909e-12
1.4357564e-09
3.3544885e-12
1.4357412e-09
-3.1710714e-12
1.4357555e-09
2.9983601e-12
1.4357421e-09
-2.8387847e-12
1.4357548e-09
2.688883e-12
1.4357429e-09
-2.5504726e-12
1.4357541e-09
2.4208224e-12
1.4357435e-09
-2.3012849e-12
1.4357535e-09
2.1896912e-12
1.4357441e-09
-2.0870484e-12
1.435753e-09
1.9916194e-12
1.4357445e-09
-1.9041675e-12
1.4357526e-09
1.8233146e-12
1.4357449e-09
-1.749632e-12
1.4357523e-09
1.6820012e-12
1.4357452e-09
-1.6208748e-12
1.435752e-09
1.5653398e-12
1.4357455e-09
-1.5157526e-12
1.4357518e-09
1.4713689e-12
1.4357457e-09
-1.4324756e-12
1.4357517e-09
1.3984199e-12
1.4357458e-09
-1.3693673e-12
1.4357516e-09
1.3451377e-12
1.4357457e-09
-1.3235772e-12
1.4357515e-09
1.304401e-12
1.4357475e-09
-1.3822015e-12
1.2051152e-12
1.47434e-09
1.0337146e-08
1.4871612e-09
-2.7529206e-10
1.4885999e-09
3.1908076e-11
1.488281e-09
2.0984726e-12
1.4884832e-09
-1.2089745e-11
1.4887156e-09
6.3225264e-12
1.4886347e-09
-9.8085097e-12
1.4887328e-09
8.4994435e-12
1.4886462e-09
-8.3107321e-12
1.4887307e-09
7.6749903e-12
1.4886528e-09
-7.2659556e-12
1.4887266e-09
6.8017788e-12
1.4886578e-09
-6.4062349e-12
1.4887226e-09
6.0158276e-12
1.4886619e-09
-5.6626075e-12
1.4887189e-09
5.3239271e-12
1.4886655e-09
-5.0133039e-12
1.4887158e-09
4.7177311e-12
1.4886686e-09
-4.4455702e-12
1.488713e-09
4.187443e-12
1.4886713e-09
-3.9493603e-12
1.4887105e-09
3.7240801e-12
1.4886736e-09
-3.5160874e-12
1.4887084e-09
3.319712e-12
1.4886756e-09
-3.1383295e-12
1.4887065e-09
2.9674666e-12
1.4886774e-09
-2.8096524e-12
1.4887049e-09
2.6613512e-12
1.4886789e-09
-2.5244589e-12
1.4887036e-09
2.3961887e-12
1.4886802e-09
-2.2779556e-12
1.4887024e-09
2.1675467e-12
1.4886813e-09
-2.0660179e-12
1.4887014e-09
1.971597e-12
1.4886823e-09
-1.8850882e-12
1.4887005e-09
1.8050863e-12
1.4886831e-09
-1.732194e-12
1.4886998e-09
1.6652714e-12
1.4886837e-09
-1.6047965e-12
1.4886992e-09
1.5498382e-12
1.4886842e-09
-1.5007742e-12
1.4886988e-09
1.4568457e-12
1.4886846e-09
-1.4183553e-12
1.4886984e-09
1.3846357e-12
1.4886849e-09
-1.3558636e-12
1.4886982e-09
1.3318517e-12
1.488685e-09
-1.3103709e-12
1.488698e-09
1.2913744e-12
1.4886861e-09
-1.3702992e-12
1.190072e-12
1.526609e-09
1.0156787e-08
1.5372788e-09
-2.8596182e-10
1.5391813e-09
3.0005567e-11
1.5387706e-09
2.5091891e-12
1.5389201e-09
-1.2239319e-11
1.5391724e-09
6.0703203e-12
1.5390365e-09
-9.6726398e-12
1.539179e-09
8.3568984e-12
1.5390475e-09
-8.1791899e-12
1.5391729e-09
7.5495401e-12
1.5390561e-09
-7.1490964e-12
1.5391663e-09
6.6916017e-12
1.5390631e-09
-6.30308e-12
1.5391601e-09
5.9188101e-12
1.5390691e-09
-5.5715943e-12
1.5391547e-09
5.2383564e-12
1.5390743e-09
-4.932949e-12
1.5391499e-09
4.6421538e-12
1.5390789e-09
-4.3745398e-12
1.5391457e-09
4.1205917e-12
1.5390828e-09
-3.8864734e-12
1.5391421e-09
3.6648414e-12
1.5390863e-09
-3.4603004e-12
1.5391389e-09
3.2671035e-12
1.5390893e-09
-3.0887217e-12
1.5391361e-09
2.9206221e-12
1.5390919e-09
-2.7654097e-12
1.5391337e-09
2.6195027e-12
1.5390941e-09
-2.4848588e-12
1.5391317e-09
2.3586557e-12
1.5390961e-09
-2.2423577e-12
1.5391299e-09
2.1337243e-12
1.5390977e-09
-2.0338516e-12
1.5391284e-09
1.940945e-12
1.5390991e-09
-1.8558413e-12
1.5391271e-09
1.7771192e-12
1.5391003e-09
-1.7054069e-12
1.539126e-09
1.639551e-12