/*--------------------------------*- C++ -*----------------------------------*\
| =========                 |                                                 |
| \\      /  F ield         | OpenFOAM: The Open Source CFD Toolbox           |
|  \\    /   O peration     | Version:  2312                                  |
|   \\  /    A nd           | Website:  www.openfoam.com                      |
|    \\/     M anipulation  |                                                 |
\*---------------------------------------------------------------------------*/
FoamFile
{
    version     2.0;
    format      ascii;
    arch        "LSB;label=32;scalar=64";
    class       volSymmTensorField;
    location    "2";
    object      sigma;
}
// * * * * * * * * * * * * * * * * * * * * * * * * * * * * * * * * * * * * * //

dimensions      [0 2 -2 0 0 0 0];

internalField   nonuniform List<symmTensor> 
4000
(
(-0.39057735 -0.207656 0 -0.070834077 0 0)
(-0.66838221 -0.14918626 0 -2.9950589e-05 0 0)
(-0.59343953 -0.14062513 0 3.5756828e-06 0 0)
(-0.63306422 -0.14533257 0 -2.9581082e-05 0 0)
(-0.60085451 -0.14144893 0 3.218707e-05 0 0)
(-0.63117948 -0.14511791 0 -2.950054e-05 0 0)
(-0.60347845 -0.14176624 0 2.8319576e-05 0 0)
(-0.62956525 -0.14492472 0 -2.6439717e-05 0 0)
(-0.60516844 -0.14197244 0 2.490017e-05 0 0)
(-0.62806886 -0.14474518 0 -2.3360081e-05 0 0)
(-0.6065869 -0.1421456 0 2.1945176e-05 0 0)
(-0.62673239 -0.14458471 0 -2.0616812e-05 0 0)
(-0.60782824 -0.14229699 0 1.936849e-05 0 0)
(-0.62555232 -0.14444292 0 -1.8208346e-05 0 0)
(-0.60892193 -0.14243023 0 1.7114286e-05 0 0)
(-0.62451204 -0.14431784 0 -1.609894e-05 0 0)
(-0.60988735 -0.14254771 0 1.5141638e-05 0 0)
(-0.62359443 -0.14420747 0 -1.4253172e-05 0 0)
(-0.61074057 -0.14265143 0 1.3416271e-05 0 0)
(-0.62278404 -0.14410995 0 -1.2639436e-05 0 0)
(-0.61149561 -0.14274313 0 1.1908485e-05 0 0)
(-0.62206723 -0.14402368 0 -1.1230024e-05 0 0)
(-0.61216483 -0.14282431 0 1.05924e-05 0 0)
(-0.62143199 -0.14394723 0 -1.0000754e-05 0 0)
(-0.61275914 -0.14289634 0 9.4454727e-06 0 0)
(-0.62086775 -0.14387933 0 -8.9305803e-06 0 0)
(-0.6132882 -0.14296038 0 8.4481063e-06 0 0)
(-0.62036518 -0.14381887 0 -8.0012294e-06 0 0)
(-0.61376057 -0.1430175 0 7.5833086e-06 0 0)
(-0.61991604 -0.14376486 0 -7.1968844e-06 0 0)
(-0.61418384 -0.1430686 0 6.8364014e-06 0 0)
(-0.61951301 -0.14371644 0 -6.5039135e-06 0 0)
(-0.61456477 -0.14311453 0 6.1947611e-06 0 0)
(-0.61914961 -0.14367282 0 -5.9106248e-06 0 0)
(-0.61490941 -0.14315601 0 5.6475926e-06 0 0)
(-0.61882002 -0.14363331 0 -5.4070629e-06 0 0)
(-0.61522318 -0.14319371 0 5.1857495e-06 0 0)
(-0.61851904 -0.14359729 0 -4.984837e-06 0 0)
(-0.61551096 -0.1432282 0 4.801569e-06 0 0)
(-0.61824196 -0.14356418 0 -4.6369781e-06 0 0)
(-0.61577721 -0.14326004 0 4.4887575e-06 0 0)
(-0.61798449 -0.14353349 0 -4.3578461e-06 0 0)
(-0.616026 -0.14328971 0 4.2423296e-06 0 0)
(-0.61774266 -0.14350474 0 -4.1431188e-06 0 0)
(-0.61626112 -0.14331766 0 4.0586536e-06 0 0)
(-0.61751276 -0.14347748 0 -3.9900518e-06 0 0)
(-0.61648609 -0.1433443 0 3.9363336e-06 0 0)
(-0.61729146 -0.14345132 0 -3.8943877e-06 0 0)
(-0.6167096 -0.14337058 0 3.9110125e-06 0 0)
(-0.6171183 -0.14343089 0 -3.8549804e-06 0 0)
(-0.35555364 -0.19383081 0 -0.066203767 0 0)
(-0.60614302 -0.14215979 0 -0.00023890832 0 0)
(-0.55219239 -0.13568592 0 -3.383061e-05 0 0)
(-0.58586654 -0.13984266 0 -2.8737279e-05 0 0)
(-0.55746363 -0.13620088 0 3.6635426e-05 0 0)
(-0.58424802 -0.13965557 0 -3.1972099e-05 0 0)
(-0.55978157 -0.13649864 0 3.1970483e-05 0 0)
(-0.58284681 -0.1394779 0 -2.9522807e-05 0 0)
(-0.56127592 -0.13669305 0 2.7971679e-05 0 0)
(-0.58152736 -0.13930916 0 -2.6182184e-05 0 0)
(-0.56252799 -0.13685622 0 2.4623596e-05 0 0)
(-0.58034647 -0.13915799 0 -2.3122782e-05 0 0)
(-0.56362341 -0.13699884 0 2.1729143e-05 0 0)
(-0.57930335 -0.13902436 0 -2.0425831e-05 0 0)
(-0.5645887 -0.13712436 0 1.9201332e-05 0 0)
(-0.5783836 -0.13890645 0 -1.8062018e-05 0 0)
(-0.56544102 -0.13723507 0 1.699e-05 0 0)
(-0.57757211 -0.13880238 0 -1.599334e-05 0 0)
(-0.56619452 -0.13733283 0 1.5055998e-05 0 0)
(-0.57685527 -0.13871041 0 -1.4184651e-05 0 0)
(-0.56686156 -0.13741928 0 1.3365908e-05 0 0)
(-0.57622101 -0.13862902 0 -1.2604946e-05 0 0)
(-0.56745302 -0.13749585 0 1.1890692e-05 0 0)
(-0.57565873 -0.13855687 0 -1.122713e-05 0 0)
(-0.56797851 -0.13756381 0 1.0605081e-05 0 0)
(-0.57515911 -0.13849276 0 -1.0027629e-05 0 0)
(-0.56844654 -0.13762426 0 9.487122e-06 0 0)
(-0.5747139 -0.13843566 0 -8.9859737e-06 0 0)
(-0.56886463 -0.13767819 0 8.5177782e-06 0 0)
(-0.57431582 -0.13838463 0 -8.0844555e-06 0 0)
(-0.56923949 -0.13772648 0 7.6806221e-06 0 0)
(-0.57395842 -0.13833886 0 -7.3078256e-06 0 0)
(-0.56957707 -0.13776989 0 6.9615357e-06 0 0)
(-0.57363597 -0.1382976 0 -6.6430157e-06 0 0)
(-0.5698827 -0.13780912 0 6.3484564e-06 0 0)
(-0.57334333 -0.13826021 0 -6.0789163e-06 0 0)
(-0.57016116 -0.13784479 0 5.8311945e-06 0 0)
(-0.5730759 -0.1382261 0 -5.6061972e-06 0 0)
(-0.57041678 -0.13787746 0 5.4012496e-06 0 0)
(-0.57282953 -0.13819473 0 -5.2171639e-06 0 0)
(-0.57065347 -0.13790762 0 5.0517171e-06 0 0)
(-0.57260039 -0.13816563 0 -4.9056952e-06 0 0)
(-0.57087485 -0.13793575 0 4.7772944e-06 0 0)
(-0.57238499 -0.13813836 0 -4.6673685e-06 0 0)
(-0.5710843 -0.13796227 0 4.5745203e-06 0 0)
(-0.57218002 -0.13811248 0 -4.5002771e-06 0 0)
(-0.57128493 -0.13798757 0 4.4437621e-06 0 0)
(-0.57198216 -0.13808759 0 -4.3983125e-06 0 0)
(-0.57148264 -0.13801215 0 4.4852055e-06 0 0)
(-0.57181752 -0.1380669 0 -4.3027223e-06 0 0)
(-0.33383613 -0.18401514 0 -0.061744155 0 0)
(-0.5663192 -0.13704186 0 -0.0001272462 0 0)
(-0.52448642 -0.13225748 0 -5.4644968e-05 0 0)
(-0.55532015 -0.13618149 0 -2.7209392e-05 0 0)
(-0.52933773 -0.13268858 0 3.6952423e-05 0 0)
(-0.55386968 -0.13600334 0 -3.0905104e-05 0 0)
(-0.53146492 -0.13297385 0 3.1991238e-05 0 0)
(-0.55259631 -0.13583499 0 -2.9251224e-05 0 0)
(-0.53283454 -0.13316058 0 2.7849519e-05 0 0)
(-0.55138983 -0.13567334 0 -2.6019644e-05 0 0)
(-0.53398066 -0.13331721 0 2.4490517e-05 0 0)
(-0.55030888 -0.13552834 0 -2.2991343e-05 0 0)
(-0.53498324 -0.13345409 0 2.160866e-05 0 0)
(-0.54935387 -0.13540012 0 -2.0312767e-05 0 0)
(-0.53586686 -0.13357458 0 1.9095513e-05 0 0)
(-0.5485117 -0.13528698 0 -1.7963616e-05 0 0)
(-0.53664723 -0.13368087 0 1.6897605e-05 0 0)
(-0.54776859 -0.13518709 0 -1.5907527e-05 0 0)
(-0.5373373 -0.13377474 0 1.4975423e-05 0 0)
(-0.54711205 -0.13509881 0 -1.4109796e-05 0 0)
(-0.53794833 -0.13385778 0 1.3295651e-05 0 0)
(-0.54653105 -0.13502066 0 -1.2539637e-05 0 0)
(-0.53849028 -0.13393134 0 1.1829411e-05 0 0)
(-0.54601589 -0.13495136 0 -1.1170121e-05 0 0)
(-0.53897191 -0.13399664 0 1.0551592e-05 0 0)
(-0.54555802 -0.13488978 0 -9.9778232e-06 0 0)
(-0.53940101 -0.13405475 0 9.44038e-06 0 0)
(-0.54514991 -0.13483491 0 -8.9424055e-06 0 0)
(-0.53978445 -0.13410661 0 8.4768677e-06 0 0)
(-0.5447849 -0.13478586 0 -8.0462776e-06 0 0)
(-0.54012835 -0.13415305 0 7.6447476e-06 0 0)
(-0.54445708 -0.13474183 0 -7.2743073e-06 0 0)
(-0.54043817 -0.13419482 0 6.930016e-06 0 0)
(-0.54416121 -0.13470214 0 -6.613533e-06 0 0)
(-0.54071877 -0.13423259 0 6.3207152e-06 0 0)
(-0.5438926 -0.13466615 0 -6.052956e-06 0 0)
(-0.54097453 -0.13426694 0 5.8067774e-06 0 0)
(-0.54364702 -0.1346333 0 -5.5833724e-06 0 0)
(-0.5412094 -0.13429842 0 5.3798382e-06 0 0)
(-0.54342067 -0.13460308 0 -5.1972457e-06 0 0)
(-0.54142697 -0.1343275 0 5.0331862e-06 0 0)
(-0.54321006 -0.13457503 0 -4.8887019e-06 0 0)
(-0.54163057 -0.13435463 0 4.761853e-06 0 0)
(-0.54301198 -0.13454872 0 -4.6537894e-06 0 0)
(-0.54182329 -0.13438022 0 4.5630639e-06 0 0)
(-0.54282336 -0.13452375 0 -4.4918625e-06 0 0)
(-0.54200802 -0.13440465 0 4.4391045e-06 0 0)
(-0.54264105 -0.1344997 0 -4.3986525e-06 0 0)
(-0.54218971 -0.13442824 0 4.5332954e-06 0 0)
(-0.54248444 -0.13447934 0 -4.4243444e-06 0 0)
(-0.3191259 -0.17546298 0 -0.056859564 0 0)
(-0.53010548 -0.13236245 0 -6.732571e-05 0 0)
(-0.49726138 -0.12880864 0 -7.9453611e-05 0 0)
(-0.52565316 -0.13252189 0 -2.2658368e-05 0 0)
(-0.50184905 -0.12917607 0 3.3745762e-05 0 0)
(-0.52439256 -0.13235217 0 -2.657088e-05 0 0)
(-0.50380992 -0.12944896 0 2.9040302e-05 0 0)
(-0.52323224 -0.13219307 0 -2.6153524e-05 0 0)
(-0.50506838 -0.12962807 0 2.5089006e-05 0 0)
(-0.52212497 -0.1320384 0 -2.3372253e-05 0 0)
(-0.50612027 -0.12977819 0 2.2028029e-05 0 0)
(-0.52113176 -0.13189945 0 -2.0668906e-05 0 0)
(-0.50704029 -0.12990935 0 1.9431797e-05 0 0)
(-0.52025409 -0.13177656 0 -1.8265285e-05 0 0)
(-0.50785125 -0.13002483 0 1.7172741e-05 0 0)
(-0.51948006 -0.1316681 0 -1.6155265e-05 0 0)
(-0.5085676 -0.1301267 0 1.5197872e-05 0 0)
(-0.518797 -0.13157232 0 -1.4308118e-05 0 0)
(-0.50920119 -0.1302167 0 1.3470862e-05 0 0)
(-0.51819345 -0.13148765 0 -1.2692979e-05 0 0)
(-0.50976235 -0.13029632 0 1.1961631e-05 0 0)
(-0.51765928 -0.13141269 0 -1.1282242e-05 0 0)
(-0.51026018 -0.13036688 0 1.0644207e-05 0 0)
(-0.51718556 -0.13134619 0 -1.0051719e-05 0 0)
(-0.51070273 -0.13042954 0 9.4960251e-06 0 0)
(-0.51676445 -0.13128709 0 -8.9803744e-06 0 0)
(-0.5110971 -0.1304853 0 8.497499e-06 0 0)
(-0.51638903 -0.1312344 0 -8.0499452e-06 0 0)
(-0.51144961 -0.13053509 0 7.6316482e-06 0 0)
(-0.5160532 -0.13118729 0 -7.2446437e-06 0 0)
(-0.51176586 -0.1305797 0 6.8838453e-06 0 0)
(-0.51575152 -0.13114499 0 -6.5509013e-06 0 0)
(-0.51205085 -0.13061984 0 6.2415368e-06 0 0)
(-0.51547917 -0.13110683 0 -5.9571031e-06 0 0)
(-0.51230903 -0.13065615 0 5.6940115e-06 0 0)
(-0.51523186 -0.13107222 0 -5.453411e-06 0 0)
(-0.51254443 -0.13068919 0 5.232282e-06 0 0)
(-0.51500571 -0.13104061 0 -5.031622e-06 0 0)
(-0.51276066 -0.13071948 0 4.8489124e-06 0 0)
(-0.51479722 -0.13101152 0 -4.6850699e-06 0 0)
(-0.51296102 -0.13074748 0 4.5380087e-06 0 0)
(-0.51460319 -0.13098449 0 -4.4086602e-06 0 0)
(-0.51314857 -0.13077362 0 4.2953703e-06 0 0)
(-0.51442065 -0.13095913 0 -4.1992311e-06 0 0)
(-0.51332614 -0.1307983 0 4.1190665e-06 0 0)
(-0.51424679 -0.13093505 0 -4.0573171e-06 0 0)
(-0.51349642 -0.13082187 0 4.0127819e-06 0 0)
(-0.51407859 -0.13091182 0 -3.9787426e-06 0 0)
(-0.51366349 -0.13084449 0 4.1620588e-06 0 0)
(-0.51392922 -0.13089171 0 -4.0992719e-06 0 0)
(-0.3056417 -0.16726747 0 -0.052171545 0 0)
(-0.49511343 -0.12772418 0 6.0108496e-06 0 0)
(-0.4704486 -0.12531087 0 -9.6195917e-05 0 0)
(-0.49679747 -0.1288646 0 -1.8998925e-05 0 0)
(-0.47501123 -0.12565934 0 2.9985691e-05 0 0)
(-0.49577606 -0.1287044 0 -2.2110633e-05 0 0)
(-0.47683759 -0.12592094 0 2.5852316e-05 0 0)
(-0.49471924 -0.12855389 0 -2.2852995e-05 0 0)
(-0.47799614 -0.12609279 0 2.2123452e-05 0 0)
(-0.49370146 -0.12840582 0 -2.0536177e-05 0 0)
(-0.47896323 -0.12623673 0 1.9386482e-05 0 0)
(-0.49278746 -0.12827264 0 -1.8178484e-05 0 0)
(-0.47980895 -0.12636247 0 1.7096951e-05 0 0)
(-0.49197964 -0.12815482 0 -1.6068928e-05 0 0)
(-0.48055453 -0.12647319 0 1.5110057e-05 0 0)
(-0.49126716 -0.12805081 0 -1.4214914e-05 0 0)
(-0.48121326 -0.12657088 0 1.3373978e-05 0 0)
(-0.49063836 -0.12795895 0 -1.259149e-05 0 0)
(-0.48179601 -0.1266572 0 1.1855906e-05 0 0)
(-0.4900827 -0.12787772 0 -1.1171863e-05 0 0)
(-0.48231226 -0.12673359 0 1.0529248e-05 0 0)
(-0.48959085 -0.12780579 0 -9.9318272e-06 0 0)
(-0.48277035 -0.1268013 0 9.3711394e-06 0 0)
(-0.48915461 -0.12774197 0 -8.8501284e-06 0 0)
(-0.48317766 -0.12686143 0 8.3617471e-06 0 0)
(-0.48876675 -0.12768523 0 -7.9082915e-06 0 0)
(-0.48354072 -0.12691498 0 7.4838605e-06 0 0)
(-0.48842093 -0.12763463 0 -7.0902714e-06 0 0)
(-0.48386532 -0.1269628 0 6.7225605e-06 0 0)
(-0.48811151 -0.12758937 0 -6.3822049e-06 0 0)
(-0.48415661 -0.12700566 0 6.0650099e-06 0 0)
(-0.48783351 -0.12754872 0 -5.7721914e-06 0 0)
(-0.48441915 -0.12704425 0 5.5001998e-06 0 0)
(-0.4875825 -0.12751204 0 -5.2500461e-06 0 0)
(-0.48465706 -0.12707916 0 5.0187382e-06 0 0)
(-0.48735453 -0.12747875 0 -4.8071579e-06 0 0)
(-0.48487401 -0.12711094 0 4.6127751e-06 0 0)
(-0.48714603 -0.12744833 0 -4.4363701e-06 0 0)
(-0.48507333 -0.1271401 0 4.2758339e-06 0 0)
(-0.48695379 -0.12742033 0 -4.1319024e-06 0 0)
(-0.48525806 -0.12716706 0 4.0028365e-06 0 0)
(-0.48677485 -0.1273943 0 -3.8894159e-06 0 0)
(-0.48543099 -0.12719225 0 3.7902888e-06 0 0)
(-0.48660651 -0.12736985 0 -3.7064169e-06 0 0)
(-0.48559474 -0.12721604 0 3.6368917e-06 0 0)
(-0.48644615 -0.12734663 0 -3.5842223e-06 0 0)
(-0.48575179 -0.12723877 0 3.5469377e-06 0 0)
(-0.48629095 -0.12732421 0 -3.5180607e-06 0 0)
(-0.48590555 -0.1272605 0 3.7361862e-06 0 0)
(-0.48614915 -0.12730443 0 -3.7207159e-06 0 0)
(-0.29255949 -0.15930944 0 -0.047710312 0 0)
(-0.4618094 -0.12317713 0 9.3352786e-05 0 0)
(-0.44419707 -0.12177906 0 -0.00010418662 0 0)
(-0.46875507 -0.12520763 0 -1.6207514e-05 0 0)
(-0.44885131 -0.12213942 0 2.6393825e-05 0 0)
(-0.46799597 -0.12505901 0 -1.8213744e-05 0 0)
(-0.4505706 -0.12239079 0 2.3076553e-05 0 0)
(-0.46703776 -0.12491673 0 -1.9962282e-05 0 0)
(-0.45163835 -0.12255568 0 1.9528915e-05 0 0)
(-0.46610232 -0.124775 0 -1.8052365e-05 0 0)
(-0.45252769 -0.12269365 0 1.707401e-05 0 0)
(-0.46526108 -0.12464736 0 -1.5997527e-05 0 0)
(-0.45330525 -0.12281418 0 1.5052693e-05 0 0)
(-0.46451742 -0.12453442 0 -1.4145423e-05 0 0)
(-0.45399084 -0.12292031 0 1.3303909e-05 0 0)
(-0.46386146 -0.12443469 0 -1.2515494e-05 0 0)
(-0.45459669 -0.12301397 0 1.1776758e-05 0 0)
(-0.46328251 -0.1243466 0 -1.108788e-05 0 0)
(-0.45513277 -0.12309675 0 1.0441496e-05 0 0)
(-0.46277084 -0.12426869 0 -9.8393643e-06 0 0)
(-0.45560779 -0.12317002 0 9.2745786e-06 0 0)
(-0.46231788 -0.12419969 0 -8.7487196e-06 0 0)
(-0.45602939 -0.12323498 0 8.255862e-06 0 0)
(-0.46191606 -0.12413845 0 -7.7972614e-06 0 0)
(-0.45640434 -0.12329269 0 7.3678989e-06 0 0)
(-0.46155877 -0.12408398 0 -6.9687546e-06 0 0)
(-0.45673864 -0.1233441 0 6.5955581e-06 0 0)
(-0.46124014 -0.1240354 0 -6.249095e-06 0 0)
(-0.45703759 -0.12339002 0 5.925722e-06 0 0)
(-0.460955 -0.12399193 0 -5.6261034e-06 0 0)
(-0.45730592 -0.12343119 0 5.3471182e-06 0 0)
(-0.46069877 -0.12395287 0 -5.0893353e-06 0 0)
(-0.45754784 -0.12346826 0 4.850084e-06 0 0)
(-0.46046739 -0.12391762 0 -4.6298541e-06 0 0)
(-0.45776709 -0.12350183 0 4.4263778e-06 0 0)
(-0.4602572 -0.1238856 0 -4.2401151e-06 0 0)
(-0.45796707 -0.1235324 0 4.0691341e-06 0 0)
(-0.46006495 -0.12385635 0 -3.9138658e-06 0 0)
(-0.45815084 -0.12356045 0 3.7727022e-06 0 0)
(-0.45988766 -0.12382939 0 -3.6460832e-06 0 0)
(-0.45832117 -0.1235864 0 3.532691e-06 0 0)
(-0.45972264 -0.12380433 0 -3.4330498e-06 0 0)
(-0.45848063 -0.12361066 0 3.3461679e-06 0 0)
(-0.45956737 -0.12378078 0 -3.2727746e-06 0 0)
(-0.45863165 -0.12363358 0 3.2122592e-06 0 0)
(-0.45941946 -0.1237584 0 -3.1670376e-06 0 0)
(-0.4587765 -0.1236555 0 3.1353422e-06 0 0)
(-0.45927627 -0.12373677 0 -3.1099859e-06 0 0)
(-0.458918 -0.12367637 0 3.352119e-06 0 0)
(-0.45914207 -0.12371736 0 -3.3749866e-06 0 0)
(-0.28000248 -0.15163153 0 -0.043454777 0 0)
(-0.43018006 -0.11871752 0 0.00019601275 0 0)
(-0.41853464 -0.11821817 0 -0.00010406333 0 0)
(-0.44154849 -0.12154977 0 -1.3390513e-05 0 0)
(-0.42338408 -0.11861676 0 2.2981196e-05 0 0)
(-0.44104153 -0.12141524 0 -1.4793354e-05 0 0)
(-0.42501819 -0.11885904 0 2.0634832e-05 0 0)
(-0.44017842 -0.12128104 0 -1.741267e-05 0 0)
(-0.42600334 -0.11901721 0 1.7239469e-05 0 0)
(-0.43931942 -0.12114544 0 -1.5860076e-05 0 0)
(-0.42682101 -0.1191494 0 1.5032899e-05 0 0)
(-0.43854549 -0.12102319 0 -1.4072455e-05 0 0)
(-0.42753567 -0.11926485 0 1.3248191e-05 0 0)
(-0.43786115 -0.12091498 0 -1.2447491e-05 0 0)
(-0.42816588 -0.11936653 0 1.1709475e-05 0 0)
(-0.43725747 -0.12081942 0 -1.1015251e-05 0 0)
(-0.4287229 -0.11945628 0 1.0366646e-05 0 0)
(-0.43672461 -0.12073499 0 -9.7603789e-06 0 0)
(-0.42921589 -0.11953562 0 9.1926633e-06 0 0)
(-0.43625362 -0.12066031 0 -8.6628145e-06 0 0)
(-0.42965282 -0.11960585 0 8.1666705e-06 0 0)
(-0.43583661 -0.12059414 0 -7.7039583e-06 0 0)
(-0.4300407 -0.11966814 0 7.2709246e-06 0 0)
(-0.43546664 -0.12053541 0 -6.867393e-06 0 0)
(-0.43038576 -0.1197235 0 6.4900843e-06 0 0)
(-0.4351376 -0.12048316 0 -6.1388599e-06 0 0)
(-0.43069347 -0.11977281 0 5.8108521e-06 0 0)
(-0.43484412 -0.12043654 0 -5.5059666e-06 0 0)
(-0.43096872 -0.11981688 0 5.2216985e-06 0 0)
(-0.43458145 -0.12039481 0 -4.9580171e-06 0 0)
(-0.43121583 -0.11985641 0 4.71273e-06 0 0)
(-0.43434537 -0.12035731 0 -4.485851e-06 0 0)
(-0.43143866 -0.11989202 0 4.2754702e-06 0 0)
(-0.43413214 -0.12032344 0 -4.0816282e-06 0 0)
(-0.43164067 -0.11992427 0 3.9026865e-06 0 0)
(-0.43393841 -0.12029267 0 -3.7387411e-06 0 0)
(-0.43182495 -0.11995365 0 3.5883787e-06 0 0)
(-0.43376119 -0.12026455 0 -3.4517273e-06 0 0)
(-0.43199432 -0.11998062 0 3.3276129e-06 0 0)
(-0.43359774 -0.12023862 0 -3.2162169e-06 0 0)
(-0.43215133 -0.12000559 0 3.1165857e-06 0 0)
(-0.43344559 -0.12021451 0 -3.0290178e-06 0 0)
(-0.43229834 -0.12002893 0 2.9528267e-06 0 0)
(-0.43330242 -0.12019184 0 -2.8885274e-06 0 0)
(-0.43243757 -0.120051 0 2.8357517e-06 0 0)
(-0.43316605 -0.12017028 0 -2.7967873e-06 0 0)
(-0.43257112 -0.12007212 0 2.7695262e-06 0 0)
(-0.43303399 -0.12014943 0 -2.7467324e-06 0 0)
(-0.43270132 -0.12009218 0 3.0040373e-06 0 0)
(-0.43290736 -0.12013041 0 -3.0598041e-06 0 0)
(-0.26806558 -0.14424674 0 -0.039382588 0 0)
(-0.40021413 -0.11434873 0 0.00031100181 0 0)
(-0.39345859 -0.11463165 0 -9.7411174e-05 0 0)
(-0.41521877 -0.1178927 0 -9.8083094e-06 0 0)
(-0.3986248 -0.11509161 0 1.9816741e-05 0 0)
(-0.41490914 -0.11777291 0 -1.1689364e-05 0 0)
(-0.40018585 -0.11532583 0 1.8399286e-05 0 0)
(-0.41413634 -0.11764665 0 -1.5082808e-05 0 0)
(-0.40109575 -0.11547751 0 1.5141084e-05 0 0)
(-0.41334848 -0.11751703 0 -1.3852649e-05 0 0)
(-0.40184728 -0.11560408 0 1.3162842e-05 0 0)
(-0.41263692 -0.11740001 0 -1.230915e-05 0 0)
(-0.40250379 -0.1157146 0 1.1594954e-05 0 0)
(-0.41200754 -0.11729641 0 -1.0892035e-05 0 0)
(-0.40308278 -0.11581194 0 1.024859e-05 0 0)
(-0.41145228 -0.1172049 0 -9.6407408e-06 0 0)
(-0.40359463 -0.11589788 0 9.0745183e-06 0 0)
(-0.41096211 -0.11712404 0 -8.5439869e-06 0 0)
(-0.40404775 -0.11597387 0 8.0481898e-06 0 0)
(-0.4105288 -0.1170525 0 -7.5845968e-06 0 0)
(-0.40444944 -0.11604115 0 7.1512148e-06 0 0)
(-0.4101451 -0.1169891 0 -6.7463759e-06 0 0)
(-0.40480612 -0.11610084 0 6.3680492e-06 0 0)
(-0.40980464 -0.11693281 0 -6.0149821e-06 0 0)
(-0.40512349 -0.1161539 0 5.6852801e-06 0 0)
(-0.40950179 -0.11688271 0 -5.3779648e-06 0 0)
(-0.40540659 -0.11620118 0 5.0912886e-06 0 0)
(-0.40923162 -0.11683801 0 -4.8244969e-06 0 0)
(-0.40565988 -0.11624345 0 4.5759982e-06 0 0)
(-0.40898977 -0.11679797 0 -4.34524e-06 0 0)
(-0.40588733 -0.11628137 0 4.1307771e-06 0 0)
(-0.40877236 -0.11676198 0 -3.9322058e-06 0 0)
(-0.40609249 -0.11631555 0 3.7482314e-06 0 0)
(-0.40857596 -0.11672947 0 -3.5785559e-06 0 0)
(-0.4062785 -0.11634651 0 3.4220505e-06 0 0)
(-0.4083975 -0.11669993 0 -3.2785359e-06 0 0)
(-0.40644824 -0.11637473 0 3.1470193e-06 0 0)
(-0.40823422 -0.1166729 0 -3.0273992e-06 0 0)
(-0.40660426 -0.11640064 0 2.9188534e-06 0 0)
(-0.40808361 -0.11664799 0 -2.821365e-06 0 0)
(-0.40674892 -0.11642465 0 2.7342732e-06 0 0)
(-0.40794339 -0.1166248 0 -2.6576999e-06 0 0)
(-0.40688438 -0.1164471 0 2.5912002e-06 0 0)
(-0.40781145 -0.116603 0 -2.5351144e-06 0 0)
(-0.40701268 -0.11646833 0 2.4892542e-06 0 0)
(-0.40768576 -0.11658225 0 -2.4557719e-06 0 0)
(-0.40713575 -0.11648866 0 2.4322013e-06 0 0)
(-0.40756405 -0.11656217 0 -2.4113538e-06 0 0)
(-0.4072555 -0.11650793 0 2.6766137e-06 0 0)
(-0.40744489 -0.11654357 0 -2.7619298e-06 0 0)
(-0.25672872 -0.13714352 0 -0.035485736 0 0)
(-0.37188147 -0.11007046 0 0.00043586607 0 0)
(-0.3689812 -0.11102217 0 -8.5458889e-05 0 0)
(-0.38977814 -0.11423758 0 -5.2256338e-06 0 0)
(-0.37458731 -0.11156427 0 1.7099695e-05 0 0)
(-0.38959651 -0.11413207 0 -8.821308e-06 0 0)
(-0.37607855 -0.11179118 0 1.6324846e-05 0 0)
(-0.38890761 -0.11401354 0 -1.2925574e-05 0 0)
(-0.37691944 -0.11193662 0 1.3189906e-05 0 0)
(-0.38818596 -0.11388973 0 -1.1989202e-05 0 0)
(-0.37760986 -0.11205771 0 1.1425364e-05 0 0)
(-0.38753228 -0.11377781 0 -1.0671479e-05 0 0)
(-0.37821255 -0.11216343 0 1.005906e-05 0 0)
(-0.38695387 -0.11367869 0 -9.4471388e-06 0 0)
(-0.37874412 -0.11225656 0 8.891295e-06 0 0)
(-0.38644352 -0.11359112 0 -8.363753e-06 0 0)
(-0.37921415 -0.11233879 0 7.8738737e-06 0 0)
(-0.38599294 -0.11351373 0 -7.4137383e-06 0 0)
(-0.37963034 -0.11241152 0 6.9846016e-06 0 0)
(-0.38559458 -0.11344524 0 -6.5825828e-06 0 0)
(-0.37999937 -0.11247593 0 6.2073834e-06 0 0)
(-0.38524178 -0.11338454 0 -5.8563217e-06 0 0)
(-0.38032713 -0.11253308 0 5.5287172e-06 0 0)
(-0.38492868 -0.11333063 0 -5.2225381e-06 0 0)
(-0.38061885 -0.1125839 0 4.936981e-06 0 0)
(-0.38465013 -0.11328263 0 -4.6704594e-06 0 0)
(-0.38087912 -0.1126292 0 4.4221135e-06 0 0)
(-0.38440159 -0.11323979 0 -4.1907104e-06 0 0)
(-0.38111205 -0.11266971 0 3.9753861e-06 0 0)
(-0.38417906 -0.11320142 0 -3.7752101e-06 0 0)
(-0.38132127 -0.11270607 0 3.5893361e-06 0 0)
(-0.38397899 -0.1131669 0 -3.4170574e-06 0 0)
(-0.38151002 -0.11273885 0 3.2575733e-06 0 0)
(-0.38379822 -0.11313572 0 -3.1103392e-06 0 0)
(-0.3816812 -0.11276855 0 2.9746381e-06 0 0)
(-0.38363393 -0.11310737 0 -2.85009e-06 0 0)
(-0.38183742 -0.11279564 0 2.7360416e-06 0 0)
(-0.38348359 -0.11308142 0 -2.6322219e-06 0 0)
(-0.38198105 -0.11282052 0 2.5380927e-06 0 0)
(-0.3833449 -0.11305749 0 -2.453489e-06 0 0)
(-0.38211424 -0.11284358 0 2.3779849e-06 0 0)
(-0.38321578 -0.11303521 0 -2.3115678e-06 0 0)
(-0.38223897 -0.11286515 0 2.2539811e-06 0 0)
(-0.38309426 -0.11301425 0 -2.2054218e-06 0 0)
(-0.38235712 -0.11288557 0 2.1658327e-06 0 0)
(-0.38297852 -0.1129943 0 -2.1372222e-06 0 0)
(-0.38247045 -0.11290512 0 2.1167763e-06 0 0)
(-0.38286642 -0.11297498 0 -2.0973861e-06 0 0)
(-0.38258051 -0.11292364 0 2.3643661e-06 0 0)
(-0.38275459 -0.11295683 0 -2.4770943e-06 0 0)
(-0.24593021 -0.13030523 0 -0.031761834 0 0)
(-0.34514799 -0.10588134 0 0.00056904112 0 0)
(-0.34517254 -0.10739587 0 -6.8902072e-05 0 0)
(-0.36518974 -0.11058235 0 1.2990402e-07 0 0)
(-0.35127944 -0.10803501 0 1.500553e-05 0 0)
(-0.36509975 -0.11049269 0 -6.1511367e-06 0 0)
(-0.35270063 -0.10825514 0 1.4401612e-05 0 0)
(-0.36448857 -0.11038169 0 -1.0926019e-05 0 0)
(-0.35347795 -0.10839454 0 1.1372851e-05 0 0)
(-0.36382861 -0.11026353 0 -1.0257617e-05 0 0)
(-0.35411185 -0.10851031 0 9.8090061e-06 0 0)
(-0.36322871 -0.11015656 0 -9.148701e-06 0 0)
(-0.35466467 -0.10861137 0 8.6304453e-06 0 0)
(-0.36269763 -0.1100618 0 -8.1033125e-06 0 0)
(-0.35515229 -0.10870039 0 7.6287083e-06 0 0)
(-0.36222897 -0.10997807 0 -7.1759077e-06 0 0)
(-0.35558353 -0.10877902 0 6.7568665e-06 0 0)
(-0.36181516 -0.10990405 0 -6.3622271e-06 0 0)
(-0.35596547 -0.10884857 0 5.9949567e-06 0 0)
(-0.36144926 -0.10983854 0 -5.6502173e-06 0 0)
(-0.3563042 -0.10891019 0 5.3290247e-06 0 0)
(-0.36112516 -0.10978046 0 -5.0279839e-06 0 0)
(-0.35660514 -0.10896488 0 4.747468e-06 0 0)
(-0.36083748 -0.10972886 0 -4.4848985e-06 0 0)
(-0.35687304 -0.10901352 0 4.240329e-06 0 0)
(-0.3605815 -0.10968292 0 -4.0117466e-06 0 0)
(-0.35711212 -0.10905689 0 3.7989933e-06 0 0)
(-0.36035307 -0.10964189 0 -3.6005003e-06 0 0)
(-0.35732613 -0.10909568 0 3.4159839e-06 0 0)
(-0.36014849 -0.10960513 0 -3.2442471e-06 0 0)
(-0.35751841 -0.10913051 0 3.0849238e-06 0 0)
(-0.35996453 -0.10957206 0 -2.9370925e-06 0 0)
(-0.35769192 -0.10916193 0 2.8003521e-06 0 0)
(-0.35979829 -0.10954217 0 -2.6739817e-06 0 0)
(-0.35784931 -0.1091904 0 2.5575986e-06 0 0)
(-0.35964719 -0.10951498 0 -2.4506779e-06 0 0)
(-0.35799297 -0.10921638 0 2.3528427e-06 0 0)
(-0.35950889 -0.10949009 0 -2.2636991e-06 0 0)
(-0.35812508 -0.10924026 0 2.18294e-06 0 0)
(-0.3593813 -0.10946713 0 -2.1102897e-06 0 0)
(-0.35824759 -0.10926239 0 2.0455121e-06 0 0)
(-0.35926249 -0.10944574 0 -1.9884898e-06 0 0)
(-0.35836234 -0.1092831 0 1.9391152e-06 0 0)
(-0.35915068 -0.10942561 0 -1.8974666e-06 0 0)
(-0.35847104 -0.10930271 0 1.8635795e-06 0 0)
(-0.35904419 -0.10940644 0 -1.8393072e-06 0 0)
(-0.3585753 -0.10932151 0 1.8215211e-06 0 0)
(-0.35894106 -0.10938786 0 -1.8031755e-06 0 0)
(-0.35867637 -0.1093393 0 2.0664645e-06 0 0)
(-0.35883637 -0.10937018 0 -2.2049561e-06 0 0)
(-0.23560615 -0.12371633 0 -0.028208104 0 0)
(-0.31997219 -0.10177924 0 0.00070969491 0 0)
(-0.3221179 -0.10375953 0 -4.8201402e-05 0 0)
(-0.34140904 -0.10692459 0 5.8886422e-06 0 0)
(-0.32870382 -0.10450399 0 1.3599123e-05 0 0)
(-0.34141421 -0.10685468 0 -3.6608441e-06 0 0)
(-0.33005563 -0.10471773 0 1.262042e-05 0 0)
(-0.3408759 -0.10675104 0 -9.0734457e-06 0 0)
(-0.33077445 -0.10485132 0 9.6805296e-06 0 0)
(-0.34027351 -0.10663839 0 -8.6492915e-06 0 0)
(-0.33135603 -0.10496192 0 8.3055645e-06 0 0)
(-0.33972365 -0.10653623 0 -7.7331814e-06 0 0)
(-0.33186259 -0.10505844 0 7.3019233e-06 0 0)
(-0.33923658 -0.10644571 0 -6.8538079e-06 0 0)
(-0.3323094 -0.10514348 0 6.4545034e-06 0 0)
(-0.33880668 -0.10636572 0 -6.0712503e-06 0 0)
(-0.33270465 -0.1052186 0 5.7179131e-06 0 0)
(-0.33842705 -0.10629499 0 -5.3841954e-06 0 0)
(-0.33305477 -0.10528506 0 5.0743225e-06 0 0)
(-0.33809133 -0.10623237 0 -4.7828536e-06 0 0)
(-0.33336537 -0.10534396 0 4.5117752e-06 0 0)
(-0.33779392 -0.10617684 0 -4.2572495e-06 0 0)
(-0.33364137 -0.10539624 0 4.0204348e-06 0 0)
(-0.33752989 -0.1061275 0 -3.7984156e-06 0 0)
(-0.33388713 -0.10544276 0 3.5918907e-06 0 0)
(-0.33729491 -0.10608355 0 -3.398584e-06 0 0)
(-0.33410652 -0.10548425 0 3.2188721e-06 0 0)
(-0.33708517 -0.1060443 0 -3.0509778e-06 0 0)
(-0.33430294 -0.10552137 0 2.8950639e-06 0 0)
(-0.33689732 -0.10600911 0 -2.7497674e-06 0 0)
(-0.33447946 -0.10555471 0 2.6150959e-06 0 0)
(-0.33672836 -0.10597745 0 -2.4899927e-06 0 0)
(-0.33463878 -0.10558479 0 2.3743695e-06 0 0)
(-0.33657564 -0.10594881 0 -2.2673925e-06 0 0)
(-0.33478334 -0.10561207 0 2.1689437e-06 0 0)
(-0.33643681 -0.10592277 0 -2.0784043e-06 0 0)
(-0.33491531 -0.10563697 0 1.995617e-06 0 0)
(-0.33630973 -0.10589891 0 -1.9201049e-06 0 0)
(-0.33503668 -0.10565985 0 1.8517448e-06 0 0)
(-0.33619248 -0.10587689 0 -1.7901843e-06 0 0)
(-0.33514926 -0.10568108 0 1.7353372e-06 0 0)
(-0.33608328 -0.10585638 0 -1.6870095e-06 0 0)
(-0.33525471 -0.10570095 0 1.6452066e-06 0 0)
(-0.33598052 -0.10583706 0 -1.6099095e-06 0 0)
(-0.33535459 -0.10571977 0 1.5812158e-06 0 0)
(-0.33588265 -0.10581866 0 -1.5608153e-06 0 0)
(-0.33545041 -0.10573782 0 1.545313e-06 0 0)
(-0.33578788 -0.10580082 0 -1.5276871e-06 0 0)
(-0.33554312 -0.1057549 0 1.7826484e-06 0 0)
(-0.33569013 -0.10578362 0 -1.9455464e-06 0 0)
(-0.22569909 -0.11736332 0 -0.024820891 0 0)
(-0.29630599 -0.097761162 0 0.00085774407 0 0)
(-0.29987638 -0.1001183 0 -2.4206486e-05 0 0)
(-0.31841426 -0.1032639 0 1.1743624e-05 0 0)
(-0.30686154 -0.10097128 0 1.2829921e-05 0 0)
(-0.31853603 -0.10321801 0 -1.3476207e-06 0 0)
(-0.30814659 -0.10117902 0 1.0965956e-05 0 0)
(-0.31806668 -0.10312156 0 -7.356839e-06 0 0)
(-0.30881167 -0.101307 0 8.1024868e-06 0 0)
(-0.31751812 -0.10301427 0 -7.1547128e-06 0 0)
(-0.30934479 -0.10141257 0 6.9059629e-06 0 0)
(-0.31701488 -0.1029168 0 -6.4164787e-06 0 0)
(-0.30980841 -0.10150467 0 6.0655355e-06 0 0)
(-0.31656876 -0.1028304 0 -5.6911631e-06 0 0)
(-0.31021732 -0.10158583 0 5.3616701e-06 0 0)
(-0.31617494 -0.10275404 0 -5.043194e-06 0 0)
(-0.3105791 -0.10165754 0 4.7508279e-06 0 0)
(-0.31582712 -0.10268651 0 -4.4738263e-06 0 0)
(-0.31089966 -0.101721 0 4.2172324e-06 0 0)
(-0.31551949 -0.10262671 0 -3.9753474e-06 0 0)
(-0.31118409 -0.10177725 0 3.7507969e-06 0 0)
(-0.31524692 -0.10257366 0 -3.5395626e-06 0 0)
(-0.31143691 -0.10182719 0 3.343329e-06 0 0)
(-0.3150049 -0.10252652 0 -3.1590469e-06 0 0)
(-0.31166208 -0.10187164 0 2.9878564e-06 0 0)
(-0.31478948 -0.10248452 0 -2.8273765e-06 0 0)
(-0.31186313 -0.10191129 0 2.6783568e-06 0 0)
(-0.31459716 -0.10244699 0 -2.5389358e-06 0 0)
(-0.31204318 -0.10194679 0 2.4095945e-06 0 0)
(-0.31442488 -0.10241334 0 -2.2889014e-06 0 0)
(-0.31220503 -0.10197868 0 2.1771345e-06 0 0)
(-0.31426989 -0.10238305 0 -2.0731788e-06 0 0)
(-0.31235113 -0.10200745 0 1.9771769e-06 0 0)
(-0.31412979 -0.10235565 0 -1.8882433e-06 0 0)
(-0.31248373 -0.10203356 0 1.8064574e-06 0 0)
(-0.3140024 -0.10233072 0 -1.7311556e-06 0 0)
(-0.3126048 -0.1020574 0 1.6623449e-06 0 0)
(-0.31388578 -0.10230787 0 -1.5995068e-06 0 0)
(-0.31271617 -0.10207932 0 1.5426564e-06 0 0)
(-0.31377817 -0.10228678 0 -1.4913972e-06 0 0)
(-0.31281948 -0.10209965 0 1.4457544e-06 0 0)
(-0.31367794 -0.10226712 0 -1.4054845e-06 0 0)
(-0.31291625 -0.1021187 0 1.3706731e-06 0 0)
(-0.31358363 -0.1022486 0 -1.3412273e-06 0 0)
(-0.31300792 -0.10213675 0 1.3172774e-06 0 0)
(-0.3134938 -0.10223095 0 -1.3003468e-06 0 0)
(-0.31309586 -0.10215406 0 1.2868305e-06 0 0)
(-0.31340683 -0.10221383 0 -1.2696799e-06 0 0)
(-0.31318078 -0.10217045 0 1.5123893e-06 0 0)
(-0.3133158 -0.10219713 0 -1.6985996e-06 0 0)
(-0.21615411 -0.11123361 0 -0.021597108 0 0)
(-0.27408579 -0.093822047 0 0.0010135181 0 0)
(-0.27848267 -0.096477424 0 1.3271199e-06 0 0)
(-0.2962022 -0.099600851 0 1.7562559e-05 0 0)
(-0.28575397 -0.097436831 0 1.2630181e-05 0 0)
(-0.29646219 -0.099582622 0 8.0082296e-07 0 0)
(-0.28697618 -0.097639026 0 9.4242466e-06 0 0)
(-0.29605837 -0.099493194 0 -5.7655649e-06 0 0)
(-0.28759202 -0.097761606 0 6.628623e-06 0 0)
(-0.29556022 -0.099391127 0 -5.7648178e-06 0 0)
(-0.28808026 -0.097862302 0 5.601466e-06 0 0)
(-0.29510044 -0.099298218 0 -5.1905117e-06 0 0)
(-0.28850398 -0.097950106 0 4.9136431e-06 0 0)
(-0.29469247 -0.099215839 0 -4.6082252e-06 0 0)
(-0.28887766 -0.098027491 0 4.3434856e-06 0 0)
(-0.29433224 -0.099143011 0 -4.0854226e-06 0 0)
(-0.28920833 -0.098095878 0 3.8496779e-06 0 0)
(-0.29401405 -0.099078592 0 -3.6255403e-06 0 0)
(-0.28950138 -0.09815641 0 3.4184438e-06 0 0)
(-0.29373259 -0.099021535 0 -3.2227651e-06 0 0)
(-0.28976147 -0.098210076 0 3.0414503e-06 0 0)
(-0.29348316 -0.098970914 0 -2.8705533e-06 0 0)
(-0.2899927 -0.098257741 0 2.712037e-06 0 0)
(-0.29326165 -0.098925911 0 -2.5629144e-06 0 0)
(-0.29019869 -0.098300172 0 2.424571e-06 0 0)
(-0.29306446 -0.098885806 0 -2.2946742e-06 0 0)
(-0.29038267 -0.098338041 0 2.1741914e-06 0 0)
(-0.29288838 -0.098849962 0 -2.0612969e-06 0 0)
(-0.29054747 -0.098371946 0 1.9566662e-06 0 0)
(-0.29273061 -0.098817816 0 -1.8588934e-06 0 0)