/*--------------------------------*- C++ -*----------------------------------*\
| =========                 |                                                 |
| \\      /  F ield         | OpenFOAM: The Open Source CFD Toolbox           |
|  \\    /   O peration     | Version:  2312                                  |
|   \\  /    A nd           | Website:  www.openfoam.com                      |
|    \\/     M anipulation  |                                                 |
\*---------------------------------------------------------------------------*/
FoamFile
{
    version     2.0;
    format      ascii;
    arch        "LSB;label=32;scalar=64";
    class       volScalarField;
    location    "2";
    object      T;
}
// * * * * * * * * * * * * * * * * * * * * * * * * * * * * * * * * * * * * * //

dimensions      [0 0 0 1 0 0 0];

internalField   nonuniform List<scalar> 
4000
(
309.26115
310.16147
310.28949
310.37101
310.43276
310.492
310.54262
310.59464
310.64094
310.68944
310.73357
310.77989
310.82252
310.86706
310.90831
310.95117
310.99109
311.03244
311.07125
311.11143
311.14947
311.18886
311.22647
311.26542
311.30287
311.34164
311.37913
311.41786
311.45548
311.49426
311.53201
311.57084
311.60869
311.64756
311.68547
311.72436
311.7623
311.8012
311.83915
311.87807
311.91599
311.95495
311.99284
312.03184
312.06967
312.10875
312.14646
312.18573
312.2231
312.26328
307.44592
309.25762
309.56158
309.72764
309.83454
309.93389
310.00742
310.08511
310.14571
310.21283
310.2669
310.32751
310.37712
310.4324
310.47789
310.52815
310.56965
310.6154
310.65356
310.6958
310.73163
310.7715
310.80602
310.84455
310.8786
310.91656
310.9507
310.98858
311.02309
311.06108
311.096
311.13415
311.16938
311.20764
311.24306
311.28138
311.31688
311.35525
311.39076
311.42919
311.46464
311.50316
311.5385
311.57717
311.61233
311.65125
311.68604
311.72553
311.75931
311.80145
306.13322
308.36634
308.83644
309.08581
309.2376
309.37674
309.47316
309.57635
309.65127
309.73689
309.80094
309.87575
309.93241
309.99845
310.0483
310.10602
310.14928
310.19954
310.23722
310.2816
310.31537
310.35578
310.38732
310.42545
310.45616
310.4933
310.52412
310.5611
310.59252
310.6297
310.6618
310.69924
310.73186
310.76949
310.80243
310.84017
310.87324
310.91107
310.94415
310.98209
311.01508
311.05316
311.08597
311.1243
311.1568
311.19556
311.22744
311.26715
311.29737
311.34127
305.14864
307.50124
308.1182
308.44774
308.64357
308.82176
308.94093
309.06923
309.15844
309.26229
309.33635
309.42521
309.48903
309.56577
309.62018
309.68546
309.73075
309.78563
309.82312
309.86977
309.90171
309.94274
309.97147
310.00923
310.03669
310.073
310.10055
310.13659
310.16494
310.20125
310.23055
310.26723
310.29726
310.33423
310.36471
310.40185
310.43252
310.4698
310.50047
310.5379
310.56846
310.60609
310.6364
310.67438
310.70425
310.74283
310.77184
310.81174
310.83845
310.88383
304.38879
306.67585
307.41242
307.81651
308.05467
308.27059
308.41211
308.56488
308.66827
308.78993
308.87398
308.97662
309.04769
309.13504
309.19426
309.26714
309.31479
309.37446
309.41211
309.46119
309.49161
309.53336
309.55951
309.59693
309.6213
309.65675
309.68111
309.71614
309.74147
309.77683
309.80335
309.83921
309.86669
309.90294
309.931
309.9675
309.99581
310.0325
310.06082
310.09772
310.12588
310.16305
310.1909
310.2285
310.25579
310.29417
310.32036
310.3604
310.38372
310.43022
303.7893
305.90192
306.72561
307.19592
307.47361
307.72525
307.88842
308.06469
308.18201
308.32087
308.41482
308.53084
308.60923
308.70701
308.77127
308.8518
308.90218
308.96679
309.00501
309.0567
309.08597
309.12858
309.15243
309.18957
309.21102
309.24558
309.26685
309.3008
309.32315
309.35748
309.38125
309.41622
309.44117
309.47665
309.50233
309.53816
309.56416
309.60023
309.62625
309.66258
309.68841
309.72508
309.75052
309.78773
309.81249
309.85063
309.87407
309.9142
309.93427
309.9815
303.30828
305.18849
306.06469
306.59031
306.90352
307.18812
307.37181
307.57029
307.70109
307.85634
307.96001
308.08887
308.17457
308.28253
308.35205
308.44019
308.4937
308.56338
308.60263
308.6571
308.68565
308.72926
308.75114
308.78806
308.80682
308.84047
308.85877
308.89155
308.91099
308.94419
308.96526
308.99924
309.02171
309.05636
309.07971
309.11481
309.13855
309.17397
309.19774
309.23348
309.25703
309.29318
309.31628
309.35305
309.37536
309.41322
309.434
309.47414
309.49114
309.53869
302.91728
304.54159
305.43639
306.00433
306.34782
306.66183
306.86446
307.08347
307.22711
307.39772
307.51078
307.65182
307.74475
307.8625
307.93743
308.03311
308.0901
308.16498
308.20572
308.26317
308.29144
308.33622
308.35649
308.39328
308.40959
308.44233
308.4578
308.48934
308.50594
308.5379
308.55632
308.58921
308.60925
308.64298
308.66406
308.69837
308.71992
308.75464
308.77624
308.81135
308.8327
308.86828
308.88913
308.92541
308.94535
308.98288
309.00111
309.04115
309.05532
309.10278
302.59622
303.96426
304.84678
305.44265
305.81007
306.14918
306.36869
306.60619
306.76175
306.9465
307.06849
307.22086
307.32084
307.4479
307.52832
307.63137
307.69218
307.77232
307.81501
307.87561
307.90408
307.95019
307.96926
308.00602
308.02017
308.05198
308.0648
308.09503
308.10886
308.13948
308.15529
308.187
308.20465
308.23738
308.25625
308.28971
308.30915
308.34312
308.36263
308.39705
308.4163
308.45126
308.46994
308.5057
308.52337
308.56049
308.57631
308.61613
308.62772
308.67471
302.33046
303.45676
304.30082
304.90971
305.29383
305.65304
305.88691
306.14049
306.30683
306.50425
306.63455
306.79728
306.904
307.03975
307.12567
307.23582
307.3007
307.38612
307.43119
307.49511
307.52425
307.57187
307.59016
307.62699
307.63928
307.67021
307.68055
307.7094
307.72058
307.74974
307.763
307.79341
307.80873
307.84038
307.8571
307.88965
307.90703
307.94021
307.95771
307.99141
308.00863
308.04294
308.05954
308.09472
308.11025
308.14689
308.16043
308.1999
308.20918
308.25535
302.10896
303.01704
303.80212
304.40944
304.80249
305.17625
305.42153
305.68844
305.86416
306.07258
306.21042
306.38238
306.49542
306.63912
306.73042
306.84733
306.91647
307.00711
307.05495
307.12229
307.15256
307.20187
307.2198
307.25685
307.26762
307.29769
307.30577
307.33318
307.34181
307.36941
307.38019
307.40919
307.42223
307.4527
307.46734
307.49891
307.51433
307.54665
307.56223
307.59516
307.61045
307.64406
307.6587
307.69324
307.70673
307.74281
307.75425
307.79321
307.80047
307.84551
301.9232
302.64112
303.35272
303.94506
304.33908
304.72151
304.97489
305.2521
305.43557
305.65314
305.79758
305.97751
306.09631
306.24712
306.34358
306.46676
306.54025
306.63598
306.68691
306.75777
306.78961
306.84076
306.85877
306.89618
306.90577
306.93505
306.94108
306.96703
306.97322
306.99917
307.00753
307.03501
307.04584
307.07503
307.08765
307.11817
307.1317
307.16312
307.17686
307.20898
307.22245
307.25529
307.26808
307.30192
307.31352
307.34895
307.35845
307.39675
307.40227
307.44592
301.76647
302.32369
302.95315
303.51889
303.90616
304.29123
304.54916
304.83344
305.02281
305.24753
305.39749
305.584
305.70789
305.86485
305.96612
306.09501
306.17283
306.27343
306.32771
306.4021
306.4359
306.48905
306.50756
306.54548
306.55425
306.58282
306.58705
306.61151
306.61541
306.63962
306.64562
306.67148
306.68014
306.70797
306.71864
306.74803
306.75976
306.79021
306.80223
306.83347
306.84523
306.87726
306.88832
306.92138
306.93122
306.96592
306.97367
307.01114
307.0152
307.05726
301.63343
302.05857
302.6025
303.13228
303.50569
303.88749
304.14628
304.43426
304.62753
304.85727
305.01154
305.20315
305.33135
305.49339
305.59902
305.73294
305.81498
305.92014
305.97793
306.05583
306.09194
306.1472
306.16661
306.20519
306.2135
306.24146
306.24414
306.26713
306.26887
306.29127
306.295
306.31914
306.32568
306.35205
306.36084
306.38902
306.39904
306.42846
306.43885
306.46917
306.47932
306.51048
306.51994
306.55217
306.5604
306.59425
306.60044
306.63694
306.63979
306.68009
301.51976
301.83917
302.2986
302.78558
303.13895
303.51189
303.7679
304.05617
304.25123
304.48379
304.64105
304.8362
304.96782
305.13382
305.24324
305.38143
305.46745
305.57678
305.63815
305.71946
305.75814
305.8156
305.83629
305.87568
305.8839
305.91136
305.91277
305.9343
305.93404
305.95457
305.9561
305.97843
305.98291
306.00774
306.01471
306.04162
306.05
306.07834
306.0872
306.11654
306.12521
306.15544
306.16342
306.19475
306.20152
306.23444
306.23926
306.27462
306.27651
306.31493
301.42197
301.65889
302.03831
302.47818
302.80649
303.16555
303.41527
303.70051
303.89521
304.12835
304.28722
304.48431
304.61839
304.78713
304.8997
305.04131
305.13098
305.24399
305.30891
305.39346
305.43493
305.49462
305.51692
305.55727
305.56575
305.59284
305.59324
305.61336
305.61128
305.6299
305.62932
305.64975
305.65223
305.67543
305.68063
305.7062
305.71304
305.74024
305.74766
305.77597
305.78327
305.81253
305.81916
305.84951
305.85497
305.88687
305.8905
305.92461
305.92574
305.96221
301.33724
301.51141
301.81774
302.20859
302.50817
302.84904
303.08926
303.36829
303.56052
303.79203
303.95107
304.14849
304.28401
304.45426
304.56924
304.71337
304.80624
304.92238
304.99072
305.07827
305.12265
305.18458
305.20877
305.25021
305.25927
305.28614
305.28581
305.3046
305.30085
305.31755
305.31494
305.3334
305.33394
305.35543
305.35894
305.3831
305.38846
305.41447
305.42056
305.4478
305.45383
305.48206
305.48747
305.5168
305.52109
305.55187
305.5545
305.58724
305.58779
305.62228
301.26328
301.39094
301.63263
301.97462
302.24317
302.56239
302.79031
303.06024
303.24794
303.4757
303.63349
303.82963
303.96554
304.13605
304.25265
304.39834
304.49389
304.61253
304.68407
304.77431
304.82164
304.88576
304.91207
304.9547
304.96465
304.99143
304.99066
305.00819
305.00296
305.01773
305.01321
305.02964
305.02829
305.048
305.04988
305.07256
305.07653
305.10129
305.10615
305.13226
305.13715
305.1643
305.16862
305.19685
305.20014
305.22972
305.23151
305.26279
305.26291
305.29541
301.19825
301.29232
301.47849
301.77356
302.01007
302.3051
302.51841
302.77668
302.95797
303.17999
303.33513
303.52845
303.66369
303.83322
303.95061
304.09688
304.19452
304.31496
304.38939
304.48195
304.53219
304.59839
304.62698
304.67088
304.68201
304.70884
304.70789
304.72427
304.71775
304.73061
304.72426
304.73863
304.73546
304.75332
304.75362
304.77477
304.77742
304.80089
304.8046
304.82956
304.8334
304.85943
304.86279
304.88987
304.89228
304.92061
304.92172
304.95146
304.95128
304.9818
301.14066
301.21114
301.35095
301.60229
301.80696
302.07621
302.27315
302.51762
302.69082
302.90528
303.05644
303.2455
303.37902
303.54637
303.66369
303.80954
303.90862
304.03015
304.10707
304.20152
304.25455
304.32266
304.35365
304.39885
304.41139
304.43842
304.43755
304.45289
304.44527
304.45626
304.4482
304.46047
304.45554
304.4715
304.47027
304.48985
304.49125
304.51338
304.51605
304.5398
304.54271
304.56759
304.57009
304.59598
304.59765
304.62466
304.62522
304.65338
304.65301
304.68158
301.08934
301.14369
301.24582
301.45753
301.63158
301.87433
302.05373
302.2827
302.4464
302.6517
302.79767
302.98112
303.11192
303.27594
303.39235
303.53682
303.63665
303.7585
303.83746
303.93331
303.98892
304.05874
304.09216
304.13868
304.15283
304.18018
304.17963
304.19404
304.18552
304.19469
304.18503
304.19518
304.18856
304.20258
304.1999
304.21784
304.21807
304.23883
304.24053
304.26305
304.26513
304.28881
304.29059
304.31524
304.31629
304.34194
304.34208
304.36864
304.36814
304.39483
301.04333
301.08697
301.1593
301.33596
301.4814
301.69774
301.85899
302.07126
302.22432
302.41911
302.55883
302.73545
302.8626
303.02225
303.13691
303.27906
303.37894
303.50035
303.58083
303.67755
303.73549
303.80675
303.84257
303.89037
303.90629
303.93406
303.93406
303.94768
303.93843
303.94585
303.93471
303.94275
303.93451
303.94656
303.94247
303.95875
303.95787
303.97723
303.97805
303.99931
304.00066
304.02311
304.02426
304.04765
304.0482
304.07246
304.07228
304.09722
304.09666
304.12153
301.00189
301.03862
301.08801
301.23434
301.35377
301.5445
301.68753
301.88235
302.02394
302.20717
302.3397
302.50847
302.63112
302.78543
302.89756
303.03651
303.13573
303.25595
303.3374
303.43445
303.49437
303.56676
303.60488
303.65391
303.67169
303.69998
303.70071
303.71367
303.70388
303.70962
303.69712
303.70308
303.69329
303.70335
303.69792
303.71251
303.71058
303.72851
303.72854
303.74851
303.74922
303.77044
303.77105
303.79316
303.79331
303.81615
303.81575
303.83909
303.83851
303.86163
300.96443
300.99679
301.02904
301.14967
301.24601
301.4125
301.53771
301.7148
301.8444
302.01527
302.13988
302.29993
302.41734
302.56547
302.67436
302.80928
302.90716
303.02545
303.1073
303.20411
303.26563
303.33882
303.37909
303.42922
303.44892
303.47779
303.47943
303.49185
303.4817
303.48586
303.47212
303.47602
303.46476
303.47282
303.46611
303.47899
303.47609
303.49257
303.49187
303.51055
303.5107
303.53066
303.53084
303.55165
303.55149
303.57292
303.57238
303.59413
303.59357
303.61501
300.93049
300.96011
300.97995
301.07919
301.15554
301.29954
301.40775
301.56724
301.68463
301.84263
301.95878
302.10944
302.22098
302.36222
302.4672
302.59738
302.69326
302.80894
302.89061
302.98661
303.04931
303.12292
303.16514
303.21623
303.23785
303.26733
303.27002
303.28201
303.27165
303.27433
303.25948
303.26138
303.24872
303.25479
303.24686
303.25802
303.25421
303.26924
303.26788
303.28527
303.28493
303.30364
303.30346
303.32297
303.32257
303.34261
303.34197
303.36219
303.36166
303.38151
300.89968
300.92757
300.93874
301.02047
301.0799
301.20346
301.29579
301.43815
301.5434
301.68832
301.79564
301.93641
302.04159
302.17536
302.27588
302.40068
302.49397
302.60638
302.68731
302.78194
302.84538
302.91901
302.96292
303.01479
303.03829
303.0684
303.07223
303.08389
303.07348
303.07478
303.05894
303.05889
303.04493
303.04904
303.03995
303.0494
303.04473
303.05831
303.05635
303.07244
303.07169
303.08915
303.08868
303.10691
303.10634
303.125
303.12432
303.14305
303.14256
303.16092
300.87172
300.89845
300.90382
300.97142
301.01685
301.12214
301.19995
301.32597
301.41938
301.55123
301.64955
301.78015
301.87859
302.00445
302.10004
302.21894
302.30908
302.41767
302.4973
302.59002
302.65374
302.727
302.7723
302.82475
302.85004
302.88075
302.88579
302.89722
302.88689
302.8869
302.8702
302.86827
302.8531
302.85527
302.84509
302.85285
302.84738
302.85952
302.85703
302.87183
302.87073
302.88695
302.88626
302.90322
302.90254
302.91985
302.91917
302.93647
302.93603
302.95296
300.84637
300.87222
300.87393
300.93028
300.96437
301.05361
301.11839
301.22906
301.31115
301.43019
301.51951
301.63981
301.73128
301.84893
301.93922
302.05179
302.13833
302.24258
302.32041
302.41073
302.47426
302.54674
302.59312
302.64592
302.67286
302.70413
302.71041
302.72168
302.71153
302.71037
302.69292
302.68919
302.6729
302.67318
302.66199
302.66807
302.66187
302.67258
302.66962
302.68315
302.68175
302.69676
302.6959
302.71162
302.71087
302.72688
302.72621
302.74215
302.74176
302.75735
300.82344
300.84854
300.84813
300.89557
300.92069
300.99603
301.04932
301.14584
301.21728
301.32396
301.40443
301.51448
301.59886
301.70814
301.79286
301.89879
301.98133
302.08083
302.15639
302.24384
302.30674
302.37805
302.42517
302.47806
302.50649
302.53824
302.54577
302.55692
302.54704
302.54482
302.52673
302.52129
302.50397
302.50243
302.49028
302.49473
302.48785
302.49717
302.49379
302.50607
302.50443
302.51824
302.51727
302.53178
302.531
302.54575
302.54512
302.55977
302.55943
302.57375
300.80278
300.82716
300.82568
300.86612
300.8843
300.94775
300.99111
301.07472
301.13633
301.23124
301.30317
301.40316
301.48045
301.58133
301.6603
301.75938
301.83762
301.93202
302.0049
302.08909
302.15092
302.22068
302.2682
302.32092
302.35065
302.38278
302.39151
302.40258
302.39305
302.38985
302.37122
302.36417
302.34591
302.34263
302.32961
302.33247
302.32498
302.33293
302.32918
302.34025
302.33841
302.35107
302.35
302.36335
302.36257
302.37611
302.37553
302.38897
302.38867
302.40181
300.78426
300.8079
300.80607
300.84097
300.85391
300.90732
300.94221
301.01424
301.06689
301.15077
301.21455
301.30481
301.37513
301.46767
301.54082
301.63296
301.70666
301.79571
301.86556
301.94613
302.00651
302.07436
302.12193
302.17422
302.20503
302.23742
302.24728
302.25829
302.24915
302.24505
302.22599
302.21742
302.19833
302.19337
302.17956
302.1809
302.17284
302.17948
302.1754
302.1853
302.18331
302.19484
302.19373
302.20595
302.20519
302.2176
302.21707
302.22936
302.22911
302.24114
300.7678
300.79066
300.78888
300.8194
300.82846
300.87346
300.90127
300.96301
301.00763
301.08129
301.13742
301.21838
301.28193
301.36631
301.43364
301.51883
301.58784
301.67138
301.73791
301.81458
301.87314
301.93877
301.98604
302.03765
302.06929
302.1018
302.11271
302.12364
302.11491
302.11
302.09059
302.08062
302.06078
302.05425
302.03972
302.03961
302.03105
302.03643
302.03207
302.04084
302.03872
302.04918
302.04804
302.0592
302.05847
302.06979
302.06933
302.08054
302.08033
302.09133
300.75332
300.77532
300.77383
300.80081
300.80709
300.84509
300.86706
300.91978
300.95728
301.02158
301.07062
301.1428
301.19985
301.27635
301.33795
301.41628
301.48051
301.55845
301.62143
301.69398
301.7504
301.81354
301.8602
301.91086
301.9431
301.97557
301.9874
301.99822
301.98992
301.98426
301.96457
301.9533
301.93282
301.92482
301.90965
301.90817
301.89917
301.90335
301.89875
301.90645
301.90423
301.91367
301.91253
301.92267
301.92198
301.93229
301.93188
301.94209
301.94192
301.95196
300.74076
300.7618
300.7607
300.78476
300.78908
300.8213
300.83852
300.88339
300.91468
300.9705
301.01304
301.07702
301.12792
301.19687
301.25291
301.32452
301.38398
301.45631
301.51559
301.58385
301.63787
301.69826
301.74401
301.79349
301.82607
301.85835
301.87096
301.88163
301.87373
301.86739
301.84749
301.83503
301.814
301.80463
301.78891
301.78614
301.77677
301.77981
301.77501
301.78169
301.77941
301.78788
301.78675
301.79593
301.7953
301.80465
301.8043
301.81358
301.81344
301.82258
300.73005
300.75003
300.74931
300.77089
300.77387
300.80131
300.81473
300.85284
300.87876
300.92698
300.96365
301.02004
301.06518
301.12699
301.17766
301.24279
301.29753
301.3643
301.41978
301.48365
301.53506
301.59251
301.63708
301.68516
301.71783
301.74975
301.76298
301.77344
301.76591
301.75892
301.73888
301.72533
301.70385
301.69322
301.67704
301.67309
301.66339
301.66538
301.66042
301.66614
301.66381
301.67138
301.67026
301.67856
301.67797
301.68644
301.68614
301.69455
301.69444
301.70275
300.72112
300.73993
300.73951
300.75894
300.76101
300.7845
300.7949
300.82723
300.84858
300.89005
300.92146
300.9709
301.0107
301.0658
301.11137
301.17031
301.22043
301.28176
301.33339
301.39285
301.44147
301.49584
301.53897
301.58546
301.61798
301.64936
301.66305
301.67323
301.66602
301.65842
301.63828
301.62375
301.60191
301.59015
301.57359
301.56855
301.5586
301.55961
301.55453
301.55936
301.557
301.56372
301.56263
301.57009
301.56956
301.57721
301.57695
301.58457
301.58448
301.59202
300.7139
300.73138
300.73116
300.74866
300.75013
300.77033
300.77838
300.80579
300.82329
300.8588
300.88555
300.92868
300.96358
301.01246
301.05322
301.10628
301.15195
301.20801
301.2558
301.31085
301.35656
301.40774
301.44925
301.49396
301.5261
301.55679
301.57075
301.58057
301.57361
301.56544
301.54524
301.52984
301.50772
301.49496
301.47811
301.47209
301.46194
301.46206
301.4569
301.4609
301.45854
301.46446
301.46341
301.47009
301.46961
301.4765
301.47629
301.48317
301.4831
301.48992
300.70826
300.72427
300.72415
300.73987
300.74093
300.75839
300.76462
300.78786
300.80213
300.83245
300.8551
300.89256
300.92301
300.96614
301.00241
301.04995
301.09136
301.14236
301.18637
301.23708
301.27981
301.32774
301.36745
301.41025
301.44179
301.47161
301.48567
301.49503
301.48826
301.47954
301.45931
301.44314
301.42083
301.40719
301.39014
301.38326
301.37297
301.37229
301.36707
301.37032
301.36796
301.37316
301.37215
301.37812
301.37769
301.38387
301.3837
301.3899
301.38985
301.39602
300.70405
300.71849
300.71834
300.7324
300.73318
300.74832
300.75315
300.77287
300.78447
300.81027
300.82937
300.86176
300.88819
300.92607
300.95818
301.00058
301.03796
301.08415
301.12447
301.17094
301.21067
301.25533
301.2931
301.33387
301.36461
301.39341
301.40739
301.4162
301.40953
301.40027
301.38005
301.36321
301.3408
301.32641
301.30924
301.30161
301.29125
301.28985
301.28462
301.28718
301.28484
301.28937
301.2884
301.29372
301.29333
301.29887
301.29874
301.30431
301.30428
301.30984
300.7011
300.71387
300.7136
300.72611
300.72668
300.73984
300.74358
300.76034
300.76974
300.79165
300.80768
300.83558
300.85841
300.89153
300.91983
300.95746
300.99107
301.0327
301.06947
301.11184
301.14858
301.18999
301.22574
301.26437
301.29413
301.32178
301.3355
301.34366
301.33701
301.32722
301.30704
301.28962
301.26719
301.25218
301.23498
301.22671
301.21635
301.21431
301.2091
301.21104
301.20875
301.21266
301.21174
301.21645
301.21611
301.22107
301.22096
301.22596
301.22594
301.23095
300.69919
300.71027
300.70981
300.72085
300.72125
300.7327
300.73562
300.74987
300.75748
300.77603
300.78944
300.81339
300.83302
300.86185
300.88667
300.91995
300.95003
300.98741
301.02077
301.05922
301.093
301.13122
301.16487
301.20131
301.22993
301.25629
301.26958
301.277
301.27029
301.25998
301.23985
301.22196
301.19959
301.18409
301.16694
301.15815
301.14783
301.14526
301.1401
301.14149
301.13924
301.14261
301.14174
301.1459
301.1456
301.15002
301.14994
301.15442
301.15441
301.15891
300.6981
300.70753
300.70683
300.71651
300.71674
300.7267
300.72898
300.74112
300.74726
300.76296
300.77414
300.79462
300.81144
300.83641
300.8581
300.8874
300.91422
300.94764
300.97778
301.01249
301.04341
301.07851
301.11003
301.14424
301.17158
301.19654
301.20924
301.21583
301.20897
301.19816
301.17809
301.15982
301.1376
301.12172
301.10471
301.09552
301.08531
301.08229
301.0772
301.07811
301.07593
301.0788
301.07797
301.08164
301.08138
301.08531
301.08525
301.08925
301.08926
301.09329
300.6976
300.70548
300.70454
300.71294
300.71303
300.72168
300.72347
300.73381
300.73876
300.75201
300.76131
300.77878
300.79313
300.81468
300.83355
300.85925
300.88308
300.91284
300.93994
300.97113
300.99927
301.03137
301.06075
301.09272
301.11866
301.14211
301.15407
301.15976
301.15267
301.14136
301.12138
301.10283
301.08083
301.06471
301.04791
301.03842
301.02837
301.02499
301.02
301.0205
301.01839
301.02082
301.02004
301.02327
301.02303
301.02652
301.02648
301.03005
301.03007
301.03368
300.6975
300.70399
300.70282
300.71005
300.71
300.71748
300.71888
300.7277
300.73168
300.74286
300.75057
300.76542
300.77763
300.79615
300.8125
300.83496
300.85607
300.88247
300.90672
300.93462
300.96011
300.98933
301.01658
301.0463
301.07075
301.09261
301.10371
301.10842
301.10102
301.08924
301.06937
301.05062
301.02891
301.01267
300.99616
300.98649
300.97665
300.97298
300.96813
300.96828
300.96624
300.96829
300.96756
300.97038
300.97017
300.97327
300.97324
300.97642
300.97644
300.97967
300.69763
300.70291
300.70155
300.70773
300.70754
300.71399
300.71507
300.72258
300.72579
300.7352
300.74158
300.75417
300.76451
300.78037
300.79448
300.81405
300.83269
300.85602
300.87764
300.90246
300.92544
300.95192
300.97708
301.00458
301.02746
301.04766
301.05777
301.06144
301.05368
301.04144
301.0217
301.00285
300.98151
300.96526
300.94912
300.93935
300.92978
300.92591
300.92121
300.92107
300.91912
300.92082
300.92014
300.9226
300.92243
300.92516
300.92515
300.92797
300.928
300.93088
300.69787
300.70215
300.70065
300.70587
300.70556
300.7111
300.71192
300.7183
300.72087
300.72878
300.73405
300.7447
300.75343
300.76695
300.7791
300.79609
300.8125
300.83304
300.85222
300.8742
300.89481
300.91871
300.94183
300.96714
300.98839
301.00687
301.0159
301.01848
301.01031
300.99764
300.97806
300.95921
300.9383
300.92214
300.90644
300.89668
300.88741
300.88341
300.8789
300.87851
300.87666
300.87807
300.87743
300.87958
300.87942
300.88183
300.88183
300.88434
300.88436
300.88693
300.69813
300.7016
300.70002
300.70441
300.70397
300.7087
300.7093
300.71472
300.71676
300.72339
300.72773
300.73672
300.74406
300.75554
300.76596
300.78068
300.79508
300.81311
300.83004
300.84941
300.86781
300.88928
300.91042
300.93359
300.95317
300.9699
300.97776
300.97923
300.97061
300.95753
300.93815
300.91937
300.89897
300.88302
300.86781
300.85815
300.84923
300.84517
300.84085
300.84028
300.83852
300.83967
300.83908
300.84095
300.84081
300.84294
300.84294
300.84516
300.84519
300.84747
300.69838
300.70121
300.69959
300.70325
300.70272
300.70672
300.70714
300.7117
300.71331
300.71885
300.72242
300.72998
300.73613
300.74584
300.75476
300.76747
300.78008
300.79583
300.81071
300.82769
300.84403
300.86324
300.88247
300.90356
300.92144
300.9364
300.94303
300.94336
300.93428
300.92084
300.90169
300.88308
300.86324
300.84759
300.83293
300.82346
300.81492
300.81085
300.80675
300.80604
300.80438
300.80532
300.80477
300.80639
300.80627
300.80814
300.80815
300.81012
300.81015
300.81216
300.69857
300.70091
300.69931
300.70233
300.70172
300.70508
300.70533
300.70916
300.7104
300.71502
300.71794
300.72427
300.7294
300.73759
300.7452
300.75615
300.76716
300.78088
300.79388
300.80868
300.82312
300.84022
300.85763
300.8767
300.89286
300.90604
300.9114
300.9106
300.90104
300.8873
300.86842
300.85006
300.83085
300.81559
300.80154
300.79232
300.78419
300.78017
300.7763
300.77548
300.77393
300.77469
300.77419
300.77559
300.77549
300.77712
300.77714
300.77887
300.77891
300.78069
300.69871
300.70067
300.69912
300.7016
300.70093
300.70372
300.70382
300.707
300.70794
300.71177
300.71414
300.71942
300.72368
300.73055
300.73703
300.74645
300.75604
300.76792
300.77923
300.79205
300.80474
300.8199
300.83556
300.85267
300.86713
300.87854
300.8826
300.88069
300.87066
300.85666
300.8381
300.82008
300.80155
300.78677
300.77336
300.76446
300.75677
300.75285
300.74921
300.74833
300.74689
300.74749
300.74704
300.74825
300.74816
300.7496
300.74962
300.75114
300.75117
300.75275
300.6988
300.70046
300.699
300.70101
300.70029
300.70257
300.70254
300.70515
300.70583
300.70898
300.7109
300.71528
300.71879
300.72453
300.73003
300.73811
300.74644
300.75669
300.76646
300.7775
300.78859
300.80194
300.81595
300.83118
300.84394
300.8536
300.85636
300.85336
300.84289
300.82871
300.81052
300.79292
300.77512
300.76089
300.74816
300.73963
300.7324
300.72862
300.72522
300.72431
300.72298
300.72346
300.72304
300.72409
300.72402
300.72527
300.7253
300.72663
300.72667
300.72806
300.69885
300.70027
300.69891
300.70053
300.69976
300.70159
300.70144
300.70355
300.704
300.70656
300.7081
300.71171
300.71458
300.71935
300.72402
300.73094
300.73815
300.74695
300.75532
300.76476
300.77438
300.78608
300.79851
300.81193
300.82302
300.83097
300.83245
300.82841
300.81754
300.80324
300.78547
300.76837
300.75135
300.73773
300.72572
300.71761
300.71084
300.70724
300.70409
300.70317
300.70195
300.70232
300.70195
300.70285
300.70279
300.70388
300.70391
300.70509
300.70512
300.70634
300.69885
300.70009
300.69883
300.70011
300.6993
300.70074
300.70047
300.70214
300.70238
300.70445
300.70565
300.70861
300.71093
300.71489
300.71883
300.72475
300.73096
300.73846
300.74558
300.75358
300.76187
300.77205
300.78298
300.79467
300.80412
300.81041
300.81064
300.80564
300.7944
300.78007
300.76278
300.74624
300.73005
300.7171
300.70582
300.69817
300.69188
300.68847
300.68557
300.68467
300.68355
300.68385
300.68351
300.68429
300.68424
300.68519
300.68522
300.68625
300.68628
300.68736
300.69883
300.6999
300.69874
300.69973
300.69889
300.69997
300.69959
300.70087
300.70094
300.70257
300.70349
300.70588
300.70774
300.711
300.71433
300.71937
300.7247
300.73105
300.73704
300.74376
300.75083
300.75961
300.76912
300.77916
300.78702
300.79172
300.79075
300.78485
300.77333
300.75904
300.74228
300.72638
300.71105
300.6988
300.68827
300.68111
300.67529
300.67211
300.66945
300.66859
300.66758
300.66781
300.6675
300.66818
300.66813
300.66897
300.66899
300.66989
300.66992
300.67087
300.69878
300.69971
300.69864
300.69937
300.69849
300.69926
300.69877
300.6997
300.69961
300.70087
300.70154
300.70345
300.70492
300.70758
300.71039
300.71468
300.71922
300.72454
300.72953
300.73509
300.74106
300.74856
300.75672
300.76519
300.77151
300.7747
300.77259
300.76589
300.75415
300.74
300.72383
300.70863
300.69418
300.68267
300.6729
300.66624
300.6609
300.65796
300.65553
300.65472
300.6538
300.65399
300.65372
300.6543
300.65426
300.65499
300.65501
300.6558
300.65583
300.65665
300.69871
300.69952
300.69852
300.699
300.69808
300.69856
300.69798
300.69859
300.69837
300.6993
300.69976
300.70125
300.70239
300.70456
300.70692
300.71054
300.71439
300.71879
300.72287
300.72742
300.73239
300.7387
300.74559
300.75257
300.75742
300.75918
300.75602
300.74862
300.73675
300.72282
300.70729
300.69284
300.67929
300.66856
300.65953
300.65339
300.64852
300.64582
300.64363
300.64287
300.64205
300.6422
300.64196
300.64246
300.64243
300.64306
300.64309
300.64378
300.6438
300.64452
300.69861
300.6993
300.69835
300.69861
300.69765
300.69786
300.69718
300.69752
300.69717
300.69783
300.6981
300.69923
300.70009
300.70184
300.70382
300.70687
300.71009
300.71369
300.71695
300.72059
300.72465
300.72988
300.73557
300.74114
300.74459
300.74503
300.74091
300.73292
300.721
300.70738
300.69254
300.67888
300.66625
300.6563
300.64802
300.64239
300.63798
300.63552
300.63356
300.63287
300.63214
300.63225
300.63204
300.63248
300.63245
300.63301
300.63303
300.63363
300.63365
300.63428
300.69849
300.69907
300.69814
300.69818
300.69716
300.69713
300.69635
300.69645
300.696
300.69641
300.69651
300.69735
300.69798
300.69938
300.70103
300.70358
300.70623
300.70911
300.71165
300.71448
300.71772
300.72194
300.7265
300.73075
300.7329
300.73212
300.72715
300.71868
300.7068
300.69357
300.67947
300.66664
300.65493
300.64577
300.63822
300.63311
300.62913
300.62692
300.62516
300.62454
300.62389
300.62399
300.62381
300.62419
300.62416
300.62465
300.62467
300.62519
300.62521
300.62576
300.69834
300.69882
300.69787
300.69769
300.6966
300.69635
300.69548
300.69536
300.69482
300.69502
300.69499
300.69557
300.696
300.69711
300.69848
300.70059
300.70273
300.70497
300.70687
300.70898
300.71146
300.71477
300.71827
300.72128
300.72221
300.72034
300.71463
300.70582
300.69407
300.6813
300.66798
300.65601
300.64522
300.63684
300.62999
300.62538
300.62182
300.61985
300.61829
300.61774
300.61717
300.61726
300.6171