/*--------------------------------*- C++ -*----------------------------------*\
| =========                 |                                                 |
| \\      /  F ield         | OpenFOAM: The Open Source CFD Toolbox           |
|  \\    /   O peration     | Version:  2312                                  |
|   \\  /    A nd           | Website:  www.openfoam.com                      |
|    \\/     M anipulation  |                                                 |
\*---------------------------------------------------------------------------*/
FoamFile
{
    version     2.0;
    format      ascii;
    arch        "LSB;label=32;scalar=64";
    class       volVectorField;
    location    "2";
    object      U;
}
// * * * * * * * * * * * * * * * * * * * * * * * * * * * * * * * * * * * * * //

dimensions      [0 1 -1 0 0 0 0];

internalField   nonuniform List<vector> 
4000
(
(0.0013473405 0.00023021753 0)
(0.0014478656 -1.2428911e-06 0)
(0.0013494772 -1.5230157e-07 0)
(0.0013958852 1.4853949e-07 0)
(0.0013597048 -1.3766576e-07 0)
(0.0013937479 1.3085782e-07 0)
(0.0013626975 -1.2160698e-07 0)
(0.0013919335 1.1441093e-07 0)
(0.0013646163 -1.0725931e-07 0)
(0.0013902667 1.0075297e-07 0)
(0.0013662242 -9.4594234e-08 0)
(0.0013887777 8.8857027e-08 0)
(0.0013676299 -8.3476887e-08 0)
(0.0013874617 7.8446374e-08 0)
(0.001368867 -7.3737532e-08 0)
(0.0013863008 6.9333273e-08 0)
(0.0013699579 -6.5212587e-08 0)
(0.001385276 6.1359818e-08 0)
(0.0013709211 -5.7756205e-08 0)
(0.0013843705 5.4388832e-08 0)
(0.0013717727 -5.1240477e-08 0)
(0.0013835691 4.830067e-08 0)
(0.001372527 -4.5553651e-08 0)
(0.0013828586 4.2990969e-08 0)
(0.0013731963 -4.0598276e-08 0)
(0.0013822273 3.836883e-08 0)
(0.0013737918 -3.6289596e-08 0)
(0.0013816648 3.4355257e-08 0)
(0.0013743232 -3.2554092e-08 0)
(0.001381162 3.0881898e-08 0)
(0.0013747992 -2.9328205e-08 0)
(0.0013807106 2.7889674e-08 0)
(0.0013752274 -2.6557158e-08 0)
(0.0013803034 2.5327964e-08 0)
(0.0013756148 -2.4194167e-08 0)
(0.0013799339 2.3153529e-08 0)
(0.0013759675 -2.2199383e-08 0)
(0.0013795963 2.1329849e-08 0)
(0.0013762911 -2.0539439e-08 0)
(0.0013792852 1.9826547e-08 0)
(0.0013765907 -1.9186756e-08 0)
(0.0013789958 1.8618704e-08 0)
(0.0013768708 -1.8119091e-08 0)
(0.0013787236 1.7686846e-08 0)
(0.001377136 -1.7319757e-08 0)
(0.0013784644 1.701694e-08 0)
(0.00137739 -1.6779104e-08 0)
(0.0013782147 1.6603558e-08 0)
(0.0013776446 -1.6459768e-08 0)
(0.0013780253 1.7042206e-08 0)
(0.0037610117 0.00063527135 0)
(0.0041633716 4.1269e-07 0)
(0.0039230297 4.3952663e-08 0)
(0.0040519818 4.1151301e-07 0)
(0.0039468247 -4.801518e-07 0)
(0.0040462039 4.3686106e-07 0)
(0.0039554605 -4.2321605e-07 0)
(0.0040409366 3.9430744e-07 0)
(0.003961045 -3.7191594e-07 0)
(0.0040360681 3.4861504e-07 0)
(0.0039657413 -3.2765463e-07 0)
(0.0040317183 3.0766298e-07 0)
(0.0039698491 -2.8911111e-07 0)
(0.0040278739 2.7167845e-07 0)
(0.0039734653 -2.5540237e-07 0)
(0.0040244814 2.4015624e-07 0)
(0.0039766551 -2.259064e-07 0)
(0.004021486 2.1257209e-07 0)
(0.0039794723 -2.0010919e-07 0)
(0.0040188383 1.8845523e-07 0)
(0.0039819641 -1.7756644e-07 0)
(0.0040164943 1.6739218e-07 0)
(0.0039841718 -1.5789109e-07 0)
(0.0040144153 1.4902187e-07 0)
(0.003986132 -1.4074604e-07 0)
(0.0040125671 1.3302994e-07 0)
(0.0039878767 -1.2583816e-07 0)
(0.0040109194 1.1914335e-07 0)
(0.0039894345 -1.1291315e-07 0)
(0.0040094455 1.0712547e-07 0)
(0.0039908308 -1.0175119e-07 0)
(0.0040081215 9.6772429e-08 0)
(0.003992088 -9.2163249e-08 0)
(0.0040069262 8.7908989e-08 0)
(0.0039932263 -8.398723e-08 0)
(0.0040058405 8.0385861e-08 0)
(0.0039942637 -7.7085813e-08 0)
(0.0040048474 7.4076878e-08 0)
(0.0039952165 -7.1343291e-08 0)
(0.0040039312 6.8876503e-08 0)
(0.0039960996 -6.6663922e-08 0)
(0.0040030778 6.4698502e-08 0)
(0.0039969266 -6.2970423e-08 0)
(0.0040022741 6.147403e-08 0)
(0.0039977103 -6.0201847e-08 0)
(0.0040015074 5.9152211e-08 0)
(0.0039984625 -5.8320225e-08 0)
(0.0040007663 5.7611253e-08 0)
(0.0039992093 -5.8017661e-08 0)
(0.0040001725 5.5641526e-08 0)
(0.0061086341 0.001019523 0)
(0.0067982869 -5.1853154e-07 0)
(0.0064312292 3.7691509e-07 0)
(0.0066410169 6.9532209e-07 0)
(0.0064667133 -8.7114228e-07 0)
(0.0066315738 7.7803707e-07 0)
(0.0064809063 -7.6595841e-07 0)
(0.0066228217 7.1092468e-07 0)
(0.0064901446 -6.7206161e-07 0)
(0.0066147367 6.2943161e-07 0)
(0.0064979354 -5.9183557e-07 0)
(0.0066075165 5.5562582e-07 0)
(0.0065047535 -5.2218667e-07 0)
(0.0066011354 4.9067753e-07 0)
(0.0065107568 -4.6131241e-07 0)
(0.0065955039 4.3376769e-07 0)
(0.0065160529 -4.0805243e-07 0)
(0.006590531 3.8396471e-07 0)
(0.0065207312 -3.614719e-07 0)
(0.0065861345 3.4042066e-07 0)
(0.0065248699 -3.2076746e-07 0)
(0.0065822416 3.0238957e-07 0)
(0.0065285374 -2.8524007e-07 0)
(0.0065787882 2.6921964e-07 0)
(0.0065317943 -2.5428085e-07 0)
(0.0065757173 2.4034336e-07 0)
(0.0065346941 -2.2736051e-07 0)
(0.0065729789 2.1526753e-07 0)
(0.0065372841 -2.040199e-07 0)
(0.0065705284 1.9356537e-07 0)
(0.0065396063 -1.8386232e-07 0)
(0.0065683264 1.7486844e-07 0)
(0.006541698 -1.6654612e-07 0)
(0.0065663376 1.5886078e-07 0)
(0.0065435926 -1.5177909e-07 0)
(0.0065645304 1.4527263e-07 0)
(0.0065453201 -1.3931278e-07 0)
(0.0065628764 1.3387601e-07 0)
(0.0065469076 -1.2893852e-07 0)
(0.0065613497 1.2448072e-07 0)
(0.0065483798 -1.2048322e-07 0)
(0.0065599267 1.1692987e-07 0)
(0.0065497594 -1.1380588e-07 0)
(0.0065585855 1.1109814e-07 0)
(0.0065510677 -1.0879464e-07 0)
(0.0065573053 1.0689143e-07 0)
(0.0065523245 -1.0537114e-07 0)
(0.0065560658 1.0404672e-07 0)
(0.0065535686 -1.0522846e-07 0)
(0.0065550464 1.0005408e-07 0)
(0.0084096684 0.0013735712 0)
(0.0093589701 -2.4083936e-06 0)
(0.0088738081 9.7700069e-07 0)
(0.0091631903 9.1895994e-07 0)
(0.0089192851 -1.2489917e-06 0)
(0.0091499469 1.0935633e-06 0)
(0.0089389611 -1.0956275e-06 0)
(0.0091376701 1.0128705e-06 0)
(0.0089518496 -9.5976871e-07 0)
(0.0091263445 8.9809623e-07 0)
(0.0089627487 -8.4483483e-07 0)
(0.0091162361 7.9299057e-07 0)
(0.0089722917 -7.4537328e-07 0)
(0.0091073031 7.0035732e-07 0)
(0.0089806957 -6.5849928e-07 0)
(0.009099419 6.1916595e-07 0)
(0.0089881105 -5.8250092e-07 0)
(0.0090924562 5.4810885e-07 0)
(0.0089946611 -5.1603507e-07 0)
(0.0090862998 4.8598029e-07 0)
(0.0090004568 -4.5795347e-07 0)
(0.0090808478 4.3171634e-07 0)
(0.0090055936 -4.0725805e-07 0)
(0.0090760105 3.8438699e-07 0)
(0.009010156 -3.6308006e-07 0)
(0.0090717083 3.4318267e-07 0)
(0.0090142189 -3.246643e-07 0)
(0.0090678711 3.0740015e-07 0)
(0.0090178486 -2.9135556e-07 0)
(0.0090644367 2.7643001e-07 0)
(0.0090211036 -2.6258773e-07 0)
(0.0090613498 2.4974741e-07 0)
(0.0090240363 -2.3787399e-07 0)
(0.009058561 2.2690115e-07 0)
(0.0090266934 -2.1679681e-07 0)
(0.0090560261 2.0750677e-07 0)
(0.0090291169 -1.9900259e-07 0)
(0.0090537053 1.912393e-07 0)
(0.0090313447 -1.8419306e-07 0)
(0.0090515624 1.7782661e-07 0)
(0.0090334115 -1.7212095e-07 0)
(0.0090495644 1.6704544e-07 0)
(0.009035349 -1.6258547e-07 0)
(0.0090476804 1.5871574e-07 0)
(0.0090371871 -1.5542403e-07 0)
(0.0090458813 1.5270217e-07 0)
(0.0090389538 -1.5051601e-07 0)
(0.0090441378 1.4857436e-07 0)
(0.009040699 -1.5095388e-07 0)
(0.0090426719 1.425164e-07 0)
(0.010655544 0.0016965024 0)
(0.011843105 -5.1893317e-06 0)
(0.011250377 1.7938034e-06 0)
(0.011618644 1.0784838e-06 0)
(0.01130455 -1.5976736e-06 0)
(0.011601306 1.370606e-06 0)
(0.011329641 -1.3990869e-06 0)
(0.011585462 1.2882e-06 0)
(0.011346173 -1.2235795e-06 0)
(0.011570874 1.1439416e-06 0)
(0.011360192 -1.0765794e-06 0)
(0.011557862 1.0103262e-06 0)
(0.011372473 -9.4978609e-07 0)
(0.011546364 8.9238488e-07 0)
(0.01138329 -8.3911302e-07 0)
(0.011536215 7.8898161e-07 0)
(0.011392834 -7.4230744e-07 0)
(0.011527252 6.9847947e-07 0)
(0.011401267 -6.5764552e-07 0)
(0.011519326 6.1934678e-07 0)
(0.011408729 -5.8366254e-07 0)
(0.011512306 5.5022955e-07 0)
(0.011415343 -5.1908684e-07 0)
(0.011506077 4.8994339e-07 0)
(0.011421219 -4.6281151e-07 0)
(0.011500536 4.3745739e-07 0)
(0.011426452 -4.1387465e-07 0)
(0.011495593 3.9187549e-07 0)
(0.011431128 -3.7144172e-07 0)
(0.011491169 3.524224e-07 0)
(0.011435322 -3.3479217e-07 0)
(0.011487191 3.1842919e-07 0)
(0.011439101 -3.0330551e-07 0)
(0.011483597 2.8932204e-07 0)
(0.011442526 -2.7645083e-07 0)
(0.011480329 2.646111e-07 0)
(0.01144565 -2.5377713e-07 0)
(0.011477337 2.4388253e-07 0)
(0.011448523 -2.3490533e-07 0)
(0.011474573 2.2679072e-07 0)
(0.011451189 -2.1952067e-07 0)
(0.011471996 2.130501e-07 0)
(0.011453688 -2.07366e-07 0)
(0.011469565 2.0243116e-07 0)
(0.01145606 -1.9823338e-07 0)
(0.011467244 1.9476155e-07 0)
(0.01145834 -1.9195695e-07 0)
(0.011464992 1.8943147e-07 0)
(0.011460589 -1.9332028e-07 0)
(0.011463063 1.8140197e-07 0)
(0.01284438 0.0019896484 0)
(0.014250874 -8.7411273e-06 0)
(0.013560858 2.7664929e-06 0)
(0.0140074 1.1833946e-06 0)
(0.013622617 -1.9164429e-06 0)
(0.013985542 1.6110602e-06 0)
(0.01365305 -1.6774086e-06 0)
(0.013966101 1.5382182e-06 0)
(0.013673207 -1.4645384e-06 0)
(0.013948241 1.3679995e-06 0)
(0.013690347 -1.2880132e-06 0)
(0.013932319 1.2085261e-06 0)
(0.013705369 -1.1362606e-06 0)
(0.013918252 1.0675443e-06 0)
(0.013718602 -1.0038903e-06 0)
(0.013905835 9.4390504e-07 0)
(0.013730279 -8.8812035e-07 0)
(0.013894868 8.3568415e-07 0)
(0.013740598 -7.8687502e-07 0)
(0.013885169 7.4105637e-07 0)
(0.013749729 -6.9839972e-07 0)
(0.013876578 6.5840316e-07 0)
(0.013757824 -6.2117274e-07 0)
(0.013868953 5.8630824e-07 0)
(0.013765016 -5.5387051e-07 0)
(0.013862171 5.2353905e-07 0)
(0.013771422 -4.953428e-07 0)
(0.013856119 4.6902477e-07 0)
(0.013777147 -4.4459163e-07 0)
(0.013850702 4.2183761e-07 0)
(0.013782283 -4.0075522e-07 0)
(0.01384583 3.8117896e-07 0)
(0.013786911 -3.6309266e-07 0)
(0.013841428 3.4636215e-07 0)
(0.013791106 -3.3096822e-07 0)
(0.013837425 3.1680212e-07 0)
(0.013794934 -3.0384408e-07 0)
(0.013833759 2.9200458e-07 0)
(0.013798454 -2.8126619e-07 0)
(0.013830373 2.7155524e-07 0)
(0.01380172 -2.6285788e-07 0)
(0.013827214 2.5511371e-07 0)
(0.013804784 -2.4831253e-07 0)
(0.013824235 2.4240402e-07 0)
(0.013807692 -2.3737747e-07 0)
(0.013821388 2.3321927e-07 0)
(0.013810488 -2.298394e-07 0)
(0.013818627 2.2676512e-07 0)
(0.013813241 -2.3238738e-07 0)
(0.013816222 2.1677532e-07 0)
(0.014978568 0.0022545064 0)
(0.016582841 -1.301312e-05 0)
(0.015805228 3.831164e-06 0)
(0.016329361 1.2430292e-06 0)
(0.015873613 -2.205025e-06 0)
(0.016302531 1.8179138e-06 0)
(0.015909303 -1.9327453e-06 0)
(0.016279479 1.7652639e-06 0)
(0.015933052 -1.6846545e-06 0)
(0.016258349 1.572212e-06 0)
(0.015953302 -1.4809329e-06 0)
(0.016239525 1.3892871e-06 0)
(0.015971057 -1.3063854e-06 0)
(0.016222894 1.2273294e-06 0)
(0.015986701 -1.1542326e-06 0)
(0.016208214 1.0852537e-06 0)
(0.016000506 -1.0211781e-06 0)
(0.016195246 9.6088768e-07 0)
(0.016012707 -9.0481832e-07 0)
(0.016183777 8.5213923e-07 0)
(0.016023504 -8.0313398e-07 0)
(0.016173618 7.5714987e-07 0)
(0.016033077 -7.143757e-07 0)
(0.0161646 6.7429221e-07 0)
(0.016041583 -6.3702187e-07 0)
(0.016156578 6.0215009e-07 0)
(0.016049161 -5.6975071e-07 0)
(0.016149419 5.3949247e-07 0)
(0.016055934 -5.1141528e-07 0)
(0.016143009 4.8525436e-07 0)
(0.01606201 -4.6102596e-07 0)
(0.016137245 4.3851743e-07 0)
(0.016067487 -4.1773068e-07 0)
(0.016132035 3.9849372e-07 0)
(0.016072452 -3.8080011e-07 0)
(0.016127298 3.6451069e-07 0)
(0.016076983 -3.4961534e-07 0)
(0.016122958 3.3600031e-07 0)
(0.01608115 -3.2365566e-07 0)
(0.016118949 3.1248791e-07 0)
(0.016085018 -3.0248838e-07 0)
(0.016115208 2.9358043e-07 0)
(0.016088646 -2.8575898e-07 0)
(0.01611168 2.7896011e-07 0)
(0.016092089 -2.7317533e-07 0)
(0.016108309 2.6838815e-07 0)
(0.016095401 -2.6447065e-07 0)
(0.016105038 2.6088148e-07 0)
(0.016098658 -2.6837792e-07 0)
(0.016102147 2.4890941e-07 0)
(0.017060656 0.0024919305 0)
(0.018839746 -1.7933783e-05 0)
(0.017983593 4.9330742e-06 0)
(0.018584246 1.2642028e-06 0)
(0.018057668 -2.4616828e-06 0)
(0.018552162 1.9923922e-06 0)
(0.018098505 -2.1656846e-06 0)
(0.0185255 1.9701726e-06 0)
(0.018125799 -1.884532e-06 0)
(0.018501113 1.7572008e-06 0)
(0.018149137 -1.6558955e-06 0)
(0.018479402 1.553143e-06 0)
(0.018169609 -1.4606553e-06 0)
(0.018460223 1.3722078e-06 0)
(0.018187648 -1.2905768e-06 0)
(0.018443292 1.2134392e-06 0)
(0.01820357 -1.1418644e-06 0)
(0.018428336 1.0744513e-06 0)
(0.018217641 -1.0118139e-06 0)
(0.018415107 9.5291421e-07 0)
(0.018230096 -8.9816453e-07 0)
(0.018403387 8.4675151e-07 0)
(0.01824114 -7.9895982e-07 0)
(0.018392984 7.5414449e-07 0)
(0.018250954 -7.1249946e-07 0)
(0.018383727 6.735108e-07 0)
(0.018259698 -6.3730622e-07 0)
(0.018375466 6.034755e-07 0)
(0.018267513 -5.7209828e-07 0)
(0.018368068 5.4284754e-07 0)
(0.018274526 -5.1576952e-07 0)
(0.018361415 4.9060229e-07 0)
(0.018280849 -4.6736908e-07 0)
(0.018355401 4.458585e-07 0)
(0.018286581 -4.2608074e-07 0)
(0.018349931 4.0786546e-07 0)
(0.018291812 -3.9121477e-07 0)
(0.018344919 3.7598911e-07 0)
(0.018296624 -3.6218816e-07 0)
(0.018340289 3.4969751e-07 0)
(0.018301091 -3.3851693e-07 0)
(0.01833597 3.2855274e-07 0)
(0.018305281 -3.1980577e-07 0)
(0.018331894 3.1219721e-07 0)
(0.018309259 -3.0572236e-07 0)
(0.018328 3.0036169e-07 0)
(0.018313084 -2.9594425e-07 0)
(0.018324221 2.9187892e-07 0)
(0.018316843 -3.0133081e-07 0)
(0.018320838 2.7789009e-07 0)
(0.019092393 0.0027026382 0)
(0.021022368 -2.3412791e-05 0)
(0.020096186 6.0249371e-06 0)
(0.020771581 1.2536171e-06 0)
(0.020174917 -2.6855361e-06 0)
(0.020734327 2.1352017e-06 0)
(0.020220745 -2.3762308e-06 0)
(0.020704076 2.1531956e-06 0)
(0.020251529 -2.0642301e-06 0)
(0.020676458 1.9230768e-06 0)
(0.020277923 -1.8129783e-06 0)
(0.020651885 1.7001768e-06 0)
(0.020301087 -1.5991411e-06 0)
(0.02063018 1.5022484e-06 0)
(0.0203215 -1.4129835e-06 0)
(0.020611019 1.3285194e-06 0)
(0.020339519 -1.2502324e-06 0)
(0.020594091 1.1764255e-06 0)
(0.020355445 -1.1079066e-06 0)
(0.020579117 1.0434234e-06 0)
(0.020369543 -9.8352865e-07 0)
(0.02056585 9.2724319e-07 0)
(0.020382045 -8.7495692e-07 0)
(0.020554072 8.2589462e-07 0)
(0.020393156 -7.8033002e-07 0)
(0.020543591 7.3764661e-07 0)
(0.020403057 -6.9803155e-07 0)
(0.020534236 6.60994e-07 0)
(0.020411908 -6.2665873e-07 0)
(0.020525858 5.9463492e-07 0)
(0.020419851 -5.6500207e-07 0)
(0.020518322 5.3744747e-07 0)
(0.020427012 -5.1202035e-07 0)
(0.020511509 4.884687e-07 0)
(0.020433506 -4.6682187e-07 0)
(0.020505311 4.4687691e-07 0)
(0.020439433 -4.286508e-07 0)
(0.020499633 4.1197824e-07 0)
(0.020444886 -3.9687057e-07 0)
(0.020494386 3.8319235e-07 0)
(0.020449948 -3.7095166e-07 0)
(0.02048949 3.6003756e-07 0)
(0.020454697 -3.5045868e-07 0)
(0.020484871 3.4212154e-07 0)
(0.020459206 -3.3502541e-07 0)
(0.020480457 3.2914739e-07 0)
(0.020463543 -3.2426857e-07 0)
(0.020476173 3.1976749e-07 0)
(0.020467799 -3.3120205e-07 0)
(0.020472293 3.0374485e-07 0)
(0.021074954 0.0028873896 0)
(0.023131553 -2.934954e-05 0)
(0.022143226 7.0679426e-06 0)
(0.022890862 1.2181566e-06 0)
(0.022225507 -2.8781674e-06 0)
(0.022848933 2.2474038e-06 0)
(0.022276106 -2.5644696e-06 0)
(0.022815129 2.3146169e-06 0)
(0.022310315 -2.2238425e-06 0)
(0.022784313 2.069981e-06 0)
(0.022339726 -1.9522882e-06 0)
(0.022756912 1.8304989e-06 0)
(0.022365548 -1.72194e-06 0)
(0.022732711 1.6175451e-06 0)
(0.022388307 -1.5215381e-06 0)
(0.022711347 1.4305753e-06 0)
(0.022408398 -1.3463541e-06 0)
(0.02269247 1.2668781e-06 0)
(0.022426158 -1.1931586e-06 0)
(0.022675771 1.1237257e-06 0)
(0.02244188 -1.0592803e-06 0)
(0.022660974 9.9867548e-07 0)
(0.022455824 -9.4241265e-07 0)
(0.022647836 8.8958563e-07 0)
(0.022468217 -8.4055244e-07 0)
(0.022636144 7.9459336e-07 0)
(0.022479263 -7.5195999e-07 0)
(0.022625708 7.1207965e-07 0)
(0.022489138 -6.7512545e-07 0)
(0.022616359 6.4064231e-07 0)
(0.022498001 -6.0874695e-07 0)
(0.022607949 5.7907592e-07 0)
(0.022505993 -5.5170553e-07 0)
(0.022600345 5.263433e-07 0)
(0.022513241 -5.0304005e-07 0)
(0.022593427 4.8156111e-07 0)
(0.022519858 -4.6193949e-07 0)
(0.022587088 4.4398351e-07 0)
(0.022525945 -4.2771732e-07 0)
(0.02258123 4.1298411e-07 0)
(0.022531598 -3.9980311e-07 0)
(0.022575763 3.8804604e-07 0)
(0.022536901 -3.777293e-07 0)
(0.022570605 3.6874396e-07 0)
(0.022541935 -3.6109452e-07 0)
(0.022565675 3.5475474e-07 0)
(0.022546778 -3.4945472e-07 0)
(0.022560892 3.4456258e-07 0)
(0.022551528 -3.5796544e-07 0)
(0.022556513 3.2650032e-07 0)
(0.023009181 0.003046948 0)
(0.02516822 -3.5637934e-05 0)
(0.024124766 8.0316242e-06 0)
(0.024941736 1.1642019e-06 0)
(0.02420958 -3.0435555e-06 0)
(0.024895894 2.330594e-06 0)
(0.024264665 -2.730641e-06 0)
(0.024858586 2.454846e-06 0)
(0.024302227 -2.3635854e-06 0)
(0.024824614 2.1981702e-06 0)
(0.024334606 -2.0740414e-06 0)
(0.024794427 1.9443219e-06 0)
(0.024363046 -1.8292451e-06 0)
(0.024767767 1.718281e-06 0)
(0.024388116 -1.6164087e-06 0)
(0.024744231 1.5197656e-06 0)
(0.024410249 -1.4303779e-06 0)
(0.024723434 1.3459488e-06 0)
(0.024429815 -1.2676988e-06 0)
(0.024705035 1.1939418e-06 0)
(0.024447138 -1.1255311e-06 0)
(0.024688729 1.0611532e-06 0)
(0.024462504 -1.0014248e-06 0)
(0.024674251 9.4530896e-07 0)
(0.024476162 -8.9325204e-07 0)
(0.024661364 8.4443169e-07 0)
(0.024488336 -7.9916591e-07 0)
(0.02464986 7.5680163e-07 0)
(0.024499222 -7.1756305e-07 0)
(0.024639554 6.8093167e-07 0)
(0.024508994 -6.4706232e-07 0)
(0.024630281 6.1554116e-07 0)
(0.024517806 -5.8647475e-07 0)
(0.024621896 5.5953039e-07 0)
(0.024525799 -5.3478154e-07 0)
(0.024614267 5.1196125e-07 0)
(0.024533096 -4.9112028e-07 0)
(0.024607275 4.7204172e-07 0)
(0.024539811 -4.5476373e-07 0)
(0.024600813 4.3910881e-07 0)
(0.024546046 -4.2510624e-07 0)
(0.024594782 4.1261076e-07 0)
(0.024551897 -4.0164806e-07 0)
(0.024589091 3.9209463e-07 0)
(0.024557451 -3.8395995e-07 0)
(0.024583652 3.7721408e-07 0)
(0.024562795 -3.7153339e-07 0)
(0.024578375 3.6629375e-07 0)
(0.024568031 -3.8160851e-07 0)
(0.024573499 3.4621393e-07 0)
(0.024895667 0.0031820635 0)
(0.02713336 -4.2169937e-05 0)
(0.026040654 8.8939787e-06 0)
(0.02692405 1.0976334e-06 0)
(0.026127258 -3.1868138e-06 0)
(0.026875139 2.3868134e-06 0)
(0.02618649 -2.8750623e-06 0)
(0.026834381 2.5743673e-06 0)
(0.026227325 -2.4837495e-06 0)
(0.026797304 2.3079705e-06 0)
(0.026262618 -2.1785202e-06 0)
(0.026764378 2.0419203e-06 0)
(0.026293629 -1.9213084e-06 0)
(0.026735302 1.8046947e-06 0)
(0.026320969 -1.6978175e-06 0)
(0.026709631 1.5962992e-06 0)
(0.026345108 -1.5024965e-06 0)
(0.026686947 1.4138188e-06 0)
(0.02636645 -1.3316963e-06 0)
(0.026666876 1.2542309e-06 0)
(0.026385348 -1.1824298e-06 0)
(0.026649088 1.1148161e-06 0)
(0.026402111 -1.0521231e-06 0)
(0.026633291 9.9318704e-07 0)
(0.026417014 -9.3854276e-07 0)
(0.026619229 8.872682e-07 0)
(0.026430298 -8.3974971e-07 0)
(0.026606674 7.9525522e-07 0)
(0.026442178 -7.540607e-07 0)
(0.026595426 7.1558575e-07 0)
(0.026452844 -6.800256e-07 0)
(0.026585304 6.469177e-07 0)
(0.026462464 -6.1639823e-07 0)
(0.02657615 5.8809569e-07 0)
(0.026471191 -5.6210731e-07 0)
(0.02656782 5.3813601e-07 0)
(0.026479158 -5.162504e-07 0)
(0.026560185 4.9620833e-07 0)
(0.026486491 -4.7806232e-07 0)
(0.026553128 4.616145e-07 0)
(0.026493301 -4.4690666e-07 0)
(0.026546541 4.3377705e-07 0)
(0.02649969 -4.2225998e-07 0)
(0.026540325 4.1221692e-07 0)
(0.026505758 -4.036634e-07 0)
(0.026534384 3.9656587e-07 0)
(0.026511595 -3.9054635e-07 0)
(0.02652862 3.8500584e-07 0)
(0.02651731 -4.0214698e-07 0)
(0.026523248 3.6294507e-07 0)
(0.02673475 0.0032934797 0)
(0.029028026 -4.8841349e-05 0)
(0.027890599 9.6472489e-06 0)
(0.028837793 1.0237329e-06 0)
(0.027978639 -3.31289e-06 0)
(0.028786607 2.4183828e-06 0)
(0.028041646 -2.9980629e-06 0)
(0.028742453 2.6737012e-06 0)
(0.028085668 -2.5846724e-06 0)
(0.028702326 2.3997523e-06 0)
(0.028123812 -2.2660495e-06 0)
(0.028666716 2.1236078e-06 0)
(0.028157343 -1.9984184e-06 0)
(0.028635272 1.8770589e-06 0)
(0.028186907 -1.7660169e-06 0)
(0.02860751 1.6604139e-06 0)
(0.028213013 -1.5629329e-06 0)
(0.028582976 1.4706977e-06 0)
(0.028236095 -1.3853461e-06 0)
(0.028561266 1.3047761e-06 0)
(0.028256536 -1.2301466e-06 0)
(0.028542024 1.1598244e-06 0)
(0.02827467 -1.0946577e-06 0)
(0.028524934 1.0333605e-06 0)
(0.028290793 -9.7655657e-07 0)
(0.028509719 9.2322766e-07 0)
(0.028305167 -8.7382751e-07 0)
(0.028496133 8.2754897e-07 0)
(0.028318023 -7.8472036e-07 0)
(0.02848396 7.4470217e-07 0)
(0.028329567 -7.0772896e-07 0)
(0.028473004 6.7329121e-07 0)
(0.02833998 -6.4155674e-07 0)
(0.028463095 6.1211662e-07 0)
(0.028349426 -5.8509194e-07 0)
(0.028454077 5.6015555e-07 0)
(0.028358053 -5.373949e-07 0)
(0.02844581 5.1654461e-07 0)
(0.028365993 -4.976721e-07 0)
(0.028438168 4.8056041e-07 0)
(0.028373367 -4.6526195e-07 0)
(0.028431035 4.5159925e-07 0)
(0.028380287 -4.3961649e-07 0)
(0.028424302 4.2916158e-07 0)
(0.028386858 -4.2025542e-07 0)
(0.028417868 4.1286056e-07 0)
(0.02839318 -4.0654413e-07 0)
(0.028411626 4.0074672e-07 0)
(0.028399367 -4.1959716e-07 0)
(0.028405763 3.7677492e-07 0)
(0.028526475 0.0033819311 0)
(0.030853251 -5.5554099e-05 0)
(0.02967427 1.0305606e-05 0)
(0.030683012 9.4376412e-07 0)
(0.029763797 -3.4267871e-06 0)
(0.030630245 2.427601e-06 0)
(0.02983019 -3.0999869e-06 0)
(0.030582745 2.7534016e-06 0)
(0.029877309 -2.6667279e-06 0)
(0.030539632 2.473922e-06 0)
(0.029918236 -2.3369873e-06 0)
(0.030501398 2.1897304e-06 0)
(0.029954227 -2.0608944e-06 0)
(0.03046764 1.9356753e-06 0)
(0.029985966 -1.8212886e-06 0)
(0.030437834 1.7123746e-06 0)
(0.030013993 -1.6119325e-06 0)
(0.030411491 1.5168161e-06 0)
(0.030038778 -1.428864e-06 0)
(0.030388178 1.3457805e-06 0)
(0.030060727 -1.2688721e-06 0)
(0.030367513 1.1963569e-06 0)
(0.030080202 -1.1291955e-06 0)
(0.030349158 1.0659869e-06 0)
(0.03009752 -1.0074405e-06 0)
(0.030332815 9.5244789e-07 0)
(0.03011296 -9.0152941e-07 0)
(0.030318221 8.5380641e-07 0)
(0.030126772 -8.0965807e-07 0)
(0.030305141 7.68389e-07 0)
(0.030139174 -7.3027385e-07 0)
(0.03029337 6.9475926e-07 0)
(0.030150364 -6.6204255e-07 0)
(0.030282721 6.3167986e-07 0)
(0.030160516 -6.0381623e-07 0)
(0.030273028 5.7809767e-07 0)
(0.030169789 -5.5462969e-07 0)
(0.030264142 5.3312411e-07 0)
(0.030178323 -5.1366296e-07 0)
(0.030255927 4.9601103e-07 0)
(0.030186251 -4.8023352e-07 0)
(0.030248258 4.6613823e-07 0)
(0.030193691 -4.5377797e-07 0)
(0.030241019 4.4298688e-07 0)
(0.030200756 -4.3379221e-07 0)
(0.030234101 4.261528e-07 0)
(0.030207554 -4.1958257e-07 0)
(0.030227391 4.1357497e-07 0)
(0.030214201 -4.3399923e-07 0)
(0.030221043 3.8777771e-07 0)
(0.03027064 0.0034481489 0)
(0.032609781 -6.2176593e-05 0)
(0.031391586 1.0873585e-05 0)
(0.032459758 8.5426665e-07 0)
(0.031482788 -3.533763e-06 0)
(0.032406003 2.4164845e-06 0)
(0.031552176 -3.1812778e-06 0)
(0.032355207 2.8140144e-06 0)
(0.031602295 -2.7303386e-06 0)
(0.032309176 2.5309201e-06 0)
(0.031645933 -2.3917283e-06 0)
(0.032268384 2.2406659e-06 0)
(0.031684322 -2.109086e-06 0)
(0.03223237 1.9808735e-06 0)
(0.031718179 -1.863939e-06 0)
(0.03220057 1.7524694e-06 0)
(0.031748081 -1.6497662e-06 0)
(0.032172463 1.5524289e-06 0)
(0.031774525 -1.4624876e-06 0)
(0.032147588 1.3774671e-06 0)
(0.031797946 -1.2988141e-06 0)
(0.032125535 1.2246093e-06 0)
(0.031818729 -1.1559203e-06 0)
(0.032105945 1.0912386e-06 0)
(0.031837212 -1.0313568e-06 0)
(0.032088501 9.7508227e-07 0)
(0.031853693 -9.2299862e-07 0)
(0.032072922 8.7416166e-07 0)
(0.031868438 -8.290001e-07 0)
(0.032058958 7.8676711e-07 0)
(0.031881679 -7.4777468e-07 0)
(0.032046389 7.1142856e-07 0)
(0.031893628 -6.779565e-07 0)
(0.032035017 6.4688209e-07 0)
(0.031904469 -6.1837344e-07 0)
(0.032024665 5.9205035e-07 0)
(0.031914373 -5.6803662e-07 0)
(0.032015174 5.4602416e-07 0)
(0.031923489 -5.2610955e-07 0)
(0.032006399 5.0804102e-07 0)
(0.031931958 -4.9189403e-07 0)
(0.031998206 4.7746277e-07 0)
(0.031939906 -4.6480973e-07 0)
(0.031990472 4.5375722e-07 0)
(0.031947455 -4.443378e-07 0)
(0.031983081 4.3650638e-07 0)
(0.031954717 -4.2972523e-07 0)
(0.031975913 4.235504e-07 0)
(0.031961816 -4.4538974e-07 0)
(0.031969088 3.960489e-07 0)
(0.031966792 0.003492819 0)
(0.034297465 -6.8424364e-05 0)
(0.033043305 1.1198488e-05 0)
(0.034168018 7.385856e-07 0)
(0.033135645 -3.6383956e-06 0)
(0.034113826 2.3877422e-06 0)
(0.033207651 -3.2421441e-06 0)
(0.034059789 2.8561936e-06 0)
(0.033260672 -2.7759401e-06 0)
(0.034010915 2.5712245e-06 0)
(0.033306941 -2.4306947e-06 0)
(0.033967635 2.2768218e-06 0)
(0.033347661 -2.1433698e-06 0)
(0.033929428 2.0130094e-06 0)
(0.033383578 -1.8943007e-06 0)
(0.033895689 1.7810114e-06 0)
(0.033415302 -1.6767245e-06 0)
(0.033865867 1.577809e-06 0)
(0.03344336 -1.4864729e-06 0)
(0.033839471 1.4000769e-06 0)
(0.033468214 -1.320199e-06 0)
(0.033816068 1.2447944e-06 0)
(0.03349027 -1.175031e-06 0)
(0.033795277 1.1093034e-06 0)
(0.033509887 -1.0484811e-06 0)
(0.033776761 9.9129574e-07 0)
(0.033527381 -9.383911e-07 0)
(0.033760223 8.8876286e-07 0)
(0.033543034 -8.4288596e-07 0)
(0.033745398 7.9996669e-07 0)
(0.033557093 -7.6035396e-07 0)
(0.033732052 7.2341686e-07 0)
(0.03356978 -6.894102e-07 0)
(0.033719975 6.5782839e-07 0)
(0.033581294 -6.2886184e-07 0)
(0.033708981 6.0210822e-07 0)
(0.033591812 -5.7770815e-07 0)
(0.0336989 5.5533434e-07 0)
(0.033601496 -5.350971e-07 0)
(0.033689578 5.1672941e-07 0)
(0.033610492 -5.003189e-07 0)
(0.033680875 4.8564756e-07 0)
(0.033618937 -4.7278577e-07 0)
(0.033672658 4.6154409e-07 0)
(0.033626956 -4.5196123e-07 0)
(0.033664805 4.4398848e-07 0)
(0.033634672 -4.3704021e-07 0)
(0.03365719 4.3074372e-07 0)
(0.03364221 -4.5382968e-07 0)
(0.033649897 4.0167276e-07 0)
(0.033614458 0.0035167176 0)
(0.035913496 -7.4119349e-05 0)
(0.034632225 1.1183945e-05 0)
(0.035808077 5.8359026e-07 0)
(0.034722396 -3.7476249e-06 0)
(0.035753652 2.3423986e-06 0)
(0.034796651 -3.2832749e-06 0)
(0.035696445 2.8804611e-06 0)
(0.034852477 -2.8040517e-06 0)
(0.035644812 2.595328e-06 0)
(0.034901296 -2.4543453e-06 0)
(0.035599119 2.2986303e-06 0)
(0.034944276 -2.1641492e-06 0)
(0.035558784 2.0324619e-06 0)
(0.034982191 -1.9127272e-06 0)
(0.035523166 1.7983326e-06 0)
(0.035015682 -1.6931203e-06 0)
(0.03549168 1.5932505e-06 0)
(0.035045306 -1.5010946e-06 0)
(0.035463808 1.4138679e-06 0)
(0.035071549 -1.333268e-06 0)
(0.035439095 1.2571393e-06 0)
(0.035094841 -1.1867411e-06 0)
(0.035417138 1.1203818e-06 0)
(0.035115558 -1.0590025e-06 0)
(0.035397581 1.001267e-06 0)
(0.035134037 -9.4787412e-07 0)
(0.035380111 8.9776686e-07 0)
(0.035150572 -8.5146354e-07 0)
(0.035364449 8.081294e-07 0)
(0.035165425 -7.6814599e-07 0)
(0.035350348 7.3084972e-07 0)
(0.035178831 -6.9652254e-07 0)
(0.035337587 6.6463278e-07 0)
(0.035190998 -6.3539152e-07 0)
(0.035325969 6.0837535e-07 0)
(0.035202114 -5.837413e-07 0)
(0.035315314 5.6114652e-07 0)
(0.035212349 -5.4071443e-07 0)
(0.035305461 5.2216487e-07 0)
(0.035221858 -5.0559451e-07 0)
(0.03529626 4.9077452e-07 0)
(0.035230785 -4.7778409e-07 0)
(0.035287574 4.6642436e-07 0)
(0.035239264 -4.5673879e-07 0)
(0.035279272 4.4867504e-07 0)
(0.035247421 -4.4160283e-07 0)
(0.035271223 4.3522564e-07 0)
(0.035255386 -4.5937298e-07 0)
(0.035263473 4.047551e-07 0)
(0.035212961 0.0035206362 0)
(0.037453245 -7.9877194e-05 0)
(0.03616203 1.1331393e-05 0)
(0.037381135 5.3260611e-07 0)
(0.036243219 -3.8409359e-06 0)
(0.037325503 2.28709e-06 0)
(0.036319233 -3.3040631e-06 0)
(0.037265142 2.8876907e-06 0)
(0.036377751 -2.815128e-06 0)
(0.037210831 2.6037773e-06 0)
(0.036429032 -2.4631529e-06 0)
(0.037162803 2.3065511e-06 0)
(0.036474196 -2.1718482e-06 0)
(0.037120411 2.0396323e-06 0)
(0.036514043 -1.9195939e-06 0)
(0.037082974 1.8047862e-06 0)
(0.036549244 -1.6992822e-06 0)
(0.037049878 1.5990622e-06 0)
(0.036580383 -1.5066429e-06 0)
(0.037020579 1.4191133e-06 0)
(0.036607971 -1.338278e-06 0)
(0.036994598 1.2618854e-06 0)
(0.036632458 -1.1912769e-06 0)
(0.036971511 1.1246873e-06 0)
(0.036654242 -1.063121e-06 0)
(0.036950947 1.0051842e-06 0)
(0.036673673 -9.5162573e-07 0)
(0.036932575 9.0134286e-07 0)
(0.036691063 -8.5489252e-07 0)
(0.036916102 8.1140441e-07 0)
(0.036706686 -7.7129142e-07 0)
(0.03690127 7.338623e-07 0)
(0.036720787 -6.9942183e-07 0)
(0.036887845 6.6741629e-07 0)
(0.036733587 -6.3807589e-07 0)
(0.036875621 6.1096096e-07 0)
(0.036745283 -5.8624292e-07 0)
(0.03686441 5.6356424e-07 0)
(0.036756053 -5.430602e-07 0)
(0.036854041 5.2443918e-07 0)
(0.036766061 -5.0780855e-07 0)
(0.036844359 4.9293044e-07 0)
(0.036775456 -4.7989064e-07 0)
(0.036835217 4.6848109e-07 0)
(0.036784379 -4.5875084e-07 0)
(0.036826479 4.5064428e-07 0)
(0.036792964 -4.4349192e-07 0)
(0.036818009 4.3707762e-07 0)
(0.036801344 -4.6209839e-07 0)
(0.036809813 4.0538657e-07 0)
(0.036761036 0.0035053114 0)
(0.038921434 -8.5387588e-05 0)
(0.037629771 1.1448081e-05 0)
(0.038886972 5.8588586e-07 0)
(0.03769802 -3.9206956e-06 0)
(0.038829312 2.2230031e-06 0)
(0.037775427 -3.3051729e-06 0)
(0.038765841 2.8784513e-06 0)
(0.037836526 -2.8097526e-06 0)
(0.038708941 2.5971129e-06 0)
(0.037890179 -2.4576275e-06 0)
(0.038658661 2.3010615e-06 0)
(0.037937449 -2.1669142e-06 0)
(0.038614284 2.0349402e-06 0)
(0.037979159 -1.915293e-06 0)
(0.038575093 1.8007408e-06 0)
(0.03801601 -1.6955574e-06 0)
(0.038540443 1.5955707e-06 0)
(0.03804861 -1.5034233e-06 0)
(0.038509766 1.4160999e-06 0)
(0.038077496 -1.3354976e-06 0)
(0.038482561 1.2592857e-06 0)
(0.038103137 -1.1888767e-06 0)
(0.038458384 1.122444e-06 0)
(0.03812595 -1.061048e-06 0)
(0.038436847 1.0032473e-06 0)
(0.038146302 -9.4983345e-07 0)
(0.038417603 8.9966687e-07 0)
(0.038164517 -8.5333903e-07 0)
(0.038400347 8.0995092e-07 0)
(0.038180883 -7.6994137e-07 0)
(0.038384808 7.3259618e-07 0)
(0.038195658 -6.9824229e-07 0)
(0.038370742 6.6630766e-07 0)
(0.03820907 -6.3703942e-07 0)
(0.038357933 6.099829e-07 0)
(0.038221326 -5.8532304e-07 0)
(0.038346184 5.6269185e-07 0)
(0.038232614 -5.4223542e-07 0)
(0.038335316 5.23653e-07 0)
(0.038243103 -5.070592e-07 0)
(0.038325167 4.9220859e-07 0)
(0.03825295 -4.7919435e-07 0)
(0.038315584 4.6780195e-07 0)
(0.038262304 -4.5808427e-07 0)
(0.038306425 4.4998261e-07 0)
(0.038271303 -4.427929e-07 0)
(0.038297548 4.3637977e-07 0)
(0.038280084 -4.620743e-07 0)
(0.03828892 4.0367989e-07 0)
(0.03825711 0.0034715172 0)
(0.040327328 -8.9924316e-05 0)
(0.039028469 1.1014341e-05 0)
(0.04032471 6.5160616e-07 0)
(0.039086611 -3.9972492e-06 0)