/*--------------------------------*- C++ -*----------------------------------*\
| =========                 |                                                 |
| \\      /  F ield         | OpenFOAM: The Open Source CFD Toolbox           |
|  \\    /   O peration     | Version:  2312                                  |
|   \\  /    A nd           | Website:  www.openfoam.com                      |
|    \\/     M anipulation  |                                                 |
\*---------------------------------------------------------------------------*/
FoamFile
{
    version     2.0;
    format      ascii;
    arch        "LSB;label=32;scalar=64";
    class       volScalarField;
    location    "3";
    object      p;
}
// * * * * * * * * * * * * * * * * * * * * * * * * * * * * * * * * * * * * * //

dimensions      [0 2 -2 0 0 0 0];

internalField   nonuniform List<scalar> 
4000
(
26.554195
25.479806
25.189803
24.33928
24.088505
23.291528
23.016569
22.252403
21.949627
21.212707
20.884621
20.171622
19.821145
19.129209
18.758979
18.0856
17.697961
17.040923
16.637957
15.995297
15.57885
14.948828
14.520542
13.901609
13.462943
12.853722
12.405977
11.805237
11.349577
10.756219
10.293684
9.7067207
9.238247
8.65679
8.1832218
7.6064674
7.1285708
6.5557878
6.074262
5.5047802
5.0202686
4.4534691
3.9665686
3.4018741
2.9131446
2.3500104
1.8599832
1.2978883
0.8070724
0.24550571
26.549208
25.478215
25.189942
24.339291
24.088496
23.29154
23.016559
22.252413
21.949618
21.212715
20.884613
20.171629
19.821138
19.129216
18.758973
18.085606
17.697955
17.040928
16.637952
15.995302
15.578846
14.948832
14.520538
13.901613
13.46294
12.853725
12.405974
11.80524
11.349574
10.756222
10.293682
9.7067232
9.2382446
8.6567923
8.1832196
7.6064695
7.1285688
6.5557897
6.0742601
5.504782
5.0202668
4.4534708
3.9665669
3.4018757
2.913143
2.350012
1.8599817
1.2978899
0.80707083
0.24550816
26.540583
25.477169
25.19021
24.33928
24.088504
23.291538
23.01656
22.252412
21.949619
21.212714
20.884614
20.171628
19.821139
19.129215
18.758973
18.085605
17.697956
17.040928
16.637952
15.995301
15.578846
14.948832
14.520538
13.901612
13.46294
12.853725
12.405975
11.80524
11.349575
10.756221
10.293682
9.7067229
9.2382449
8.656792
8.1832199
7.6064693
7.128569
6.5557895
6.0742604
5.5047818
5.020267
4.4534706
3.9665671
3.4018755
2.9131432
2.3500118
1.8599819
1.2978897
0.80707087
0.24550894
26.529093
25.475991
25.190494
24.339267
24.088518
23.291532
23.016566
22.252407
21.949623
21.21271
20.884618
20.171624
19.821142
19.129212
18.758977
18.085602
17.697959
17.040925
16.637955
15.995299
15.578849
14.94883
14.52054
13.90161
13.462942
12.853723
12.405976
11.805239
11.349576
10.75622
10.293683
9.7067216
9.2382461
8.6567908
8.183221
7.6064682
7.1285701
6.5557884
6.0742613
5.5047809
5.020268
4.4534697
3.966568
3.4018747
2.913144
2.350011
1.8599827
1.2978889
0.80707156
0.24550899
26.519773
25.474995
25.190744
24.339259
24.088532
23.291527
23.01657
22.252402
21.949628
21.212706
20.884622
20.171621
19.821146
19.129209
18.75898
18.085599
17.697962
17.040922
16.637957
15.995296
15.578851
14.948828
14.520542
13.901609
13.462944
12.853721
12.405978
11.805237
11.349578
10.756219
10.293684
9.7067204
9.2382473
8.6567897
8.1832221
7.6064672
7.1285711
6.5557875
6.0742622
5.50478
5.0202688
4.4534689
3.9665688
3.4018739
2.9131448
2.3500102
1.8599834
1.2978881
0.80707224
0.24550897
26.508767
25.473696
25.19092
24.339263
24.088548
23.291523
23.016574
22.252398
21.949631
21.212702
20.884625
20.171618
19.821148
19.129206
18.758982
18.085597
17.697964
17.04092
16.637959
15.995295
15.578853
14.948826
14.520544
13.901607
13.462945
12.85372
12.405979
11.805236
11.349579
10.756218
10.293685
9.7067195
9.2382482
8.6567889
8.1832229
7.6064664
7.1285718
6.5557868
6.0742629
5.5047793
5.0202695
4.4534683
3.9665694
3.4018733
2.9131454
2.3500096
1.859984
1.2978875
0.80707281
0.24550898
26.500554
25.472824
25.191021
24.339291
24.088569
23.29152
23.016577
22.252394
21.949634
21.2127
20.884627
20.171616
19.821151
19.129204
18.758984
18.085595
17.697966
17.040919
16.637961
15.995293
15.578854
14.948825
14.520545
13.901606
13.462946
12.853719
12.40598
11.805235
11.34958
10.756217
10.293686
9.7067187
9.2382489
8.6567882
8.1832236
7.6064657
7.1285724
6.5557862
6.0742635
5.5047788
5.02027
4.4534677
3.9665699
3.4018728
2.9131459
2.3500091
1.8599845
1.297887
0.80707331
0.24550899
26.492085
25.471607
25.190981
24.339353
24.088594
23.29152
23.01658
22.252391
21.949636
21.212697
20.88463
20.171613
19.821153
19.129202
18.758986
18.085593
17.697967
17.040917
16.637962
15.995292
15.578855
14.948824
14.520546
13.901605
13.462947
12.853718
12.405981
11.805234
11.34958
10.756216
10.293687
9.706718
9.2382496
8.6567875
8.1832242
7.6064652
7.128573
6.5557856
6.074264
5.5047783
5.0202705
4.4534673
3.9665704
3.4018723
2.9131463
2.3500087
1.8599849
1.2978865
0.80707378
0.24550898
26.483128
25.470769
25.190869
24.33941
24.088612
23.291518
23.016583
22.252389
21.949638
21.212695
20.884632
20.171612
19.821154
19.129201
18.758987
18.085592
17.697969
17.040916
16.637963
15.995291
15.578856
14.948823
14.520547
13.901604
13.462948
12.853717
12.405982
11.805233
11.349581
10.756215
10.293688
9.7067174
9.2382502
8.656787
8.1832247
7.6064647
7.1285735
6.5557852
6.0742645
5.5047778
5.0202709
4.4534668
3.9665708
3.4018719
2.9131467
2.3500083
1.8599853
1.2978861
0.80707422
0.24550896
26.475842
25.469563
25.190765
24.339383
24.088606
23.291511
23.016584
22.252386
21.94964
21.212693
20.884633
20.17161
19.821156
19.129199
18.758989
18.085591
17.69797
17.040915
16.637964
15.99529
15.578857
14.948822
14.520548
13.901603
13.462949
12.853716
12.405982
11.805233
11.349582
10.756215
10.293688
9.7067169
9.2382507
8.6567865
8.1832252
7.6064642
7.1285739
6.5557847
6.0742649
5.5047774
5.0202713
4.4534665
3.9665712
3.4018715
2.9131471
2.3500079
1.8599857
1.2978857
0.80707463
0.24550893
26.466753
25.46844
25.190804
24.339306
24.088583
23.291501
23.016583
22.252383
21.949641
21.212692
20.884635
20.171608
19.821157
19.129198
18.75899
18.085589
17.697971
17.040914
16.637965
15.995289
15.578858
14.948821
14.520549
13.901603
13.462949
12.853716
12.405983
11.805232
11.349582
10.756214
10.293689
9.7067164
9.2382512
8.656786
8.1832256
7.6064638
7.1285743
6.5557844
6.0742653
5.504777
5.0202717
4.4534661
3.9665715
3.4018712
2.9131474
2.3500076
1.859986
1.2978853
0.80707502
0.24550889
26.460426
25.466998
25.190827
24.339258
24.088562
23.291491
23.016583
22.252381
21.949643
21.21269
20.884636
20.171607
19.821159
19.129197
18.758991
18.085588
17.697972
17.040913
16.637966
15.995288
15.578859
14.94882
14.520549
13.901602
13.46295
12.853715
12.405984
11.805232
11.349583
10.756214
10.293689
9.7067159
9.2382516
8.6567856
8.183226
7.6064634
7.1285747
6.555784
6.0742656
5.5047767
5.020272
4.4534658
3.9665718
3.4018709
2.9131477
2.3500073
1.8599863
1.297885
0.80707538
0.24550883
26.452872
25.465773
25.190721
24.339208
24.088537
23.291482
23.016582
22.252379
21.949644
21.212688
20.884638
20.171606
19.82116
19.129195
18.758992
18.085587
17.697973
17.040912
16.637967
15.995287
15.57886
14.948819
14.52055
13.901601
13.462951
12.853715
12.405984
11.805231
11.349583
10.756213
10.29369
9.7067155
9.238252
8.6567852
8.1832264
7.6064631
7.128575
6.5557837
6.0742659
5.5047764
5.0202723
4.4534655
3.9665721
3.4018706
2.913148
2.3500071
1.8599865
1.2978847
0.80707573
0.24550877
26.44738
25.46455
25.190416
24.339125
24.088505
23.291471
23.016581
22.252376
21.949645
21.212687
20.884639
20.171605
19.821161
19.129194
18.758993
18.085586
17.697974
17.040911
16.637968
15.995286
15.57886
14.948819
14.520551
13.901601
13.462951
12.853714
12.405985
11.805231
11.349584
10.756213
10.29369
9.7067152
9.2382523
8.6567849
8.1832267
7.6064627
7.1285753
6.5557834
6.0742662
5.5047761
5.0202725
4.4534653
3.9665724
3.4018704
2.9131482
2.3500068
1.8599867
1.2978844
0.80707605
0.24550871
26.440905
25.46334
25.190049
24.339035
24.088471
23.29146
23.01658
22.252374
21.949646
21.212686
20.88464
20.171604
19.821162
19.129194
18.758994
18.085586
17.697974
17.04091
16.637968
15.995286
15.578861
14.948818
14.520551
13.9016
13.462952
12.853714
12.405985
11.80523
11.349584
10.756212
10.29369
9.7067148
9.2382527
8.6567846
8.183227
7.6064625
7.1285756
6.5557831
6.0742665
5.5047759
5.0202728
4.453465
3.9665726
3.4018702
2.9131484
2.3500066
1.859987
1.2978842
0.80707636
0.24550864
26.436073
25.462052
25.189618
24.338947
24.088438
23.291448
23.016577
22.252372
21.949647
21.212685
20.884641
20.171603
19.821163
19.129193
18.758995
18.085585
17.697975
17.04091
16.637969
15.995285
15.578861
14.948818
14.520552
13.9016
13.462952
12.853713
12.405985
11.80523
11.349585
10.756212
10.293691
9.7067145
9.238253
8.6567843
8.1832273
7.6064622
7.1285759
6.5557829
6.0742667
5.5047757
5.020273
4.4534648
3.9665728
3.40187
2.9131486
2.3500064
1.8599872
1.297884
0.80707666
0.24550857
26.430585
25.46073
25.189195
24.338855
24.088404
23.291434
23.016574
22.252369
21.949647
21.212683
20.884642
20.171602
19.821163
19.129192
18.758996
18.085584
17.697976
17.040909
16.63797
15.995285
15.578862
14.948817
14.520552
13.901599
13.462952
12.853713
12.405986
11.805229
11.349585
10.756212
10.293691
9.7067142
9.2382532
8.6567841
8.1832275
7.606462
7.1285761
6.5557827
6.0742669
5.5047755
5.0202732
4.4534646
3.966573
3.4018698
2.9131488
2.3500062
1.8599873
1.2978838
0.80707694
0.2455085
26.426462
25.459466
25.188782
24.338737
24.088362
23.291416
23.016569
22.252366
21.949647
21.212682
20.884642
20.171601
19.821164
19.129191
18.758996
18.085584
17.697976
17.040908
16.63797
15.995284
15.578862
14.948817
14.520553
13.901599
13.462953
12.853712
12.405986
11.805229
11.349585
10.756211
10.293691
9.706714
9.2382535
8.6567838
8.1832277
7.6064617
7.1285763
6.5557825
6.0742671
5.5047753
5.0202734
4.4534644
3.9665732
3.4018696
2.913149
2.350006
1.8599875
1.2978836
0.8070772
0.24550842
26.421945
25.458154
25.188442
24.338602
24.08831
23.291395
23.016563
22.252362
21.949647
21.212681
20.884643
20.1716
19.821165
19.129191
18.758997
18.085583
17.697977
17.040908
16.637971
15.995284
15.578863
14.948816
14.520553
13.901598
13.462953
12.853712
12.405986
11.805229
11.349585
10.756211
10.293692
9.7067137
9.2382537
8.6567836
8.183228
7.6064615
7.1285765
6.5557823
6.0742673
5.5047751
5.0202736
4.4534643
3.9665733
3.4018694
2.9131492
2.3500059
1.8599877
1.2978835
0.80707745
0.24550834
26.418496
25.457008
25.188092
24.338484
24.088258
23.291374
23.016556
22.252358
21.949647
21.21268
20.884643
20.171599
19.821165
19.12919
18.758997
18.085582
17.697977
17.040907
16.637971
15.995283
15.578863
14.948816
14.520553
13.901598
13.462954
12.853712
12.405987
11.805229
11.349586
10.756211
10.293692
9.7067135
9.2382539
8.6567834
8.1832281
7.6064613
7.1285767
6.5557821
6.0742675
5.5047749
5.0202737
4.4534641
3.9665735
3.4018693
2.9131493
2.3500057
1.8599878
1.2978833
0.80707769
0.24550827
26.41485
25.455813
25.187739
24.338394
24.088217
23.291358
23.01655
22.252355
21.949646
21.212678
20.884644
20.171599
19.821166
19.129189
18.758998
18.085582
17.697978
17.040907
16.637972
15.995283
15.578864
14.948815
14.520554
13.901598
13.462954
12.853712
12.405987
11.805228
11.349586
10.756211
10.293692
9.7067133
9.2382541
8.6567832
8.1832283
7.6064612
7.1285768
6.5557819
6.0742676
5.5047748
5.0202739
4.453464
3.9665736
3.4018692
2.9131494
2.3500056
1.8599879
1.2978832
0.80707791
0.24550819
26.411974
25.454868
25.187368
24.338307
24.088188
23.291351
23.016548
22.252352
21.949646
21.212677
20.884644
20.171598
19.821166
19.129189
18.758998
18.085582
17.697978
17.040906
16.637972
15.995283
15.578864
14.948815
14.520554
13.901598
13.462954
12.853711
12.405987
11.805228
11.349586
10.756211
10.293692
9.7067131
9.2382543
8.656783
8.1832285
7.606461
7.128577
6.5557818
6.0742678
5.5047746
5.020274
4.4534638
3.9665738
3.401869
2.9131496
2.3500055
1.8599881
1.297883
0.80707812
0.24550812
26.409063
25.453833
25.187029
24.338216
24.088166
23.29135
23.016547
22.252351
21.949646
21.212677
20.884645
20.171597
19.821167
19.129188
18.758999
18.085581
17.697979
17.040906
16.637972
15.995282
15.578864
14.948815
14.520554
13.901597
13.462954
12.853711
12.405987
11.805228
11.349586
10.75621
10.293692
9.7067129
9.2382545
8.6567829
8.1832287
7.6064609
7.1285771
6.5557817
6.0742679
5.5047745
5.0202741
4.4534637
3.9665739
3.4018689
2.9131497
2.3500054
1.8599882
1.2978829
0.80707832
0.24550804
26.40665
25.453092
25.18671
24.338126
24.088145
23.291354
23.016548
22.252351
21.949647
21.212676
20.884645
20.171597
19.821167
19.129188
18.758999
18.085581
17.697979
17.040906
16.637973
15.995282
15.578865
14.948815
14.520555
13.901597
13.462955
12.853711
12.405988
11.805228
11.349587
10.75621
10.293693
9.7067127
9.2382546
8.6567827
8.1832288
7.6064607
7.1285773
6.5557815
6.074268
5.5047744
5.0202742
4.4534636
3.966574
3.4018688
2.9131498
2.3500053
1.8599883
1.2978828
0.8070785
0.24550797
26.404399
25.452217
25.186429
24.338047
24.088121
23.29136
23.016548
22.25235
21.949647
21.212675
20.884646
20.171596
19.821168
19.129187
18.759
18.08558
17.697979
17.040905
16.637973
15.995282
15.578865
14.948814
14.520555
13.901597
13.462955
12.853711
12.405988
11.805227
11.349587
10.75621
10.293693
9.7067126
9.2382548
8.6567826
8.1832289
7.6064606
7.1285774
6.5557814
6.0742681
5.5047743
5.0202744
4.4534635
3.9665741
3.4018687
2.9131499
2.3500052
1.8599884
1.2978827
0.80707868
0.2455079
26.402267
25.451655
25.186169
24.337978
24.088096
23.291368
23.01655
22.25235
21.949648
21.212675
20.884646
20.171596
19.821168
19.129187
18.759
18.08558
17.69798
17.040905
16.637973
15.995281
15.578865
14.948814
14.520555
13.901597
13.462955
12.85371
12.405988
11.805227
11.349587
10.75621
10.293693
9.7067125
9.2382549
8.6567824
8.183229
7.6064605
7.1285775
6.5557813
6.0742682
5.5047742
5.0202745
4.4534634
3.9665742
3.4018686
2.91315
2.3500051
1.8599884
1.2978827
0.80707884
0.24550784
26.400716
25.450949
25.18594
24.337921
24.088071
23.291375
23.016552
22.25235
21.949649
21.212674
20.884646
20.171595
19.821168
19.129187
18.759
18.08558
17.69798
17.040905
16.637973
15.995281
15.578865
14.948814
14.520555
13.901596
13.462955
12.85371
12.405988
11.805227
11.349587
10.75621
10.293693
9.7067123
9.238255
8.6567823
8.1832292
7.6064604
7.1285776
6.5557812
6.0742683
5.5047741
5.0202745
4.4534633
3.9665743
3.4018685
2.9131501
2.350005
1.8599885
1.2978826
0.80707898
0.24550778
26.398732
25.450503
25.185733
24.337872
24.088049
23.29138
23.016554
22.252351
21.949649
21.212674
20.884647
20.171595
19.821169
19.129186
18.759001
18.085579
17.69798
17.040905
16.637974
15.995281
15.578866
14.948814
14.520555
13.901596
13.462955
12.85371
12.405988
11.805227
11.349587
10.75621
10.293693
9.7067122
9.2382551
8.6567822
8.1832293
7.6064603
7.1285777
6.5557811
6.0742684
5.504774
5.0202746
4.4534632
3.9665743
3.4018685
2.9131501
2.3500049
1.8599886
1.2978825
0.80707912
0.24550772
26.397589
25.449955
25.185559
24.337833
24.088031
23.291383
23.016557
22.252353
21.94965
21.212674
20.884647
20.171594
19.821169
19.129186
18.759001
18.085579
17.697981
17.040904
16.637974
15.995281
15.578866
14.948813
14.520556
13.901596
13.462956
12.85371
12.405989
11.805227
11.349587
10.756209
10.293693
9.7067121
9.2382552
8.6567821
8.1832294
7.6064602
7.1285778
6.555781
6.0742685
5.5047739
5.0202747
4.4534632
3.9665744
3.4018684
2.9131502
2.3500048
1.8599887
1.2978825
0.80707924
0.24550766
26.395912
25.449628
25.185408
24.337801
24.088018
23.291384
23.016559
22.252355
21.949651
21.212674
20.884647
20.171594
19.821169
19.129186
18.759001
18.085579
17.697981
17.040904
16.637974
15.99528
15.578866
14.948813
14.520556
13.901596
13.462956
12.85371
12.405989
11.805227
11.349587
10.756209
10.293693
9.706712
9.2382553
8.656782
8.1832294
7.6064601
7.1285779
6.555781
6.0742686
5.5047739
5.0202748
4.4534631
3.9665745
3.4018683
2.9131503
2.3500048
1.8599887
1.2978824
0.80707935
0.24550762
26.395006
25.449221
25.185291
24.337778
24.088008
23.291385
23.01656
22.252358
21.949653
21.212674
20.884648
20.171594
19.821169
19.129185
18.759001
18.085579
17.697981
17.040904
16.637974
15.99528
15.578866
14.948813
14.520556
13.901596
13.462956
12.85371
12.405989
11.805227
11.349588
10.756209
10.293693
9.7067119
9.2382554
8.656782
8.1832295
7.60646
7.1285779
6.5557809
6.0742686
5.5047738
5.0202748
4.453463
3.9665745
3.4018683
2.9131503
2.3500047
1.8599888
1.2978824
0.80707945
0.24550757
26.39372
25.449018
25.185197
24.337763
24.088002
23.291387
23.016561
22.252361
21.949654
21.212674
20.884648
20.171594
19.82117
19.129185
18.759001
18.085578
17.697981
17.040904
16.637974
15.99528
15.578866
14.948813
14.520556
13.901596
13.462956
12.85371
12.405989
11.805227
11.349588
10.756209
10.293693
9.7067118
9.2382555
8.6567819
8.1832296
7.60646
7.128578
6.5557808
6.0742687
5.5047737
5.0202749
4.453463
3.9665746
3.4018682
2.9131504
2.3500047
1.8599888
1.2978823
0.80707953
0.24550753
26.393064
25.44872
25.185131
24.337754
24.087999
23.291389
23.01656
22.252364
21.949655
21.212674
20.884648
20.171593
19.82117
19.129185
18.759002
18.085578
17.697981
17.040904
16.637975
15.99528
15.578866
14.948813
14.520556
13.901596
13.462956
12.853709
12.405989
11.805226
11.349588
10.756209
10.293694
9.7067118
9.2382556
8.6567818
8.1832296
7.6064599
7.128578
6.5557808
6.0742687
5.5047737
5.0202749
4.453463
3.9665746
3.4018682
2.9131504
2.3500046
1.8599888
1.2978823
0.80707959
0.2455075
26.392084
25.448608
25.185081
24.33775
24.087998
23.291391
23.016559
22.252367
21.949656
21.212674
20.884648
20.171593
19.82117
19.129185
18.759002
18.085578
17.697981
17.040904
16.637975
15.99528
15.578866
14.948813
14.520556
13.901595
13.462956
12.853709
12.405989
11.805226
11.349588
10.756209
10.293694
9.7067117
9.2382556
8.6567818
8.1832297
7.6064599
7.1285781
6.5557807
6.0742688
5.5047737
5.020275
4.4534629
3.9665747
3.4018681
2.9131504
2.3500046
1.8599889
1.2978823
0.80707964
0.24550748
26.391679
25.448387
25.185052
24.337751
24.087999
23.291394
23.016558
22.25237
21.949657
21.212674
20.884649
20.171593
19.82117
19.129185
18.759002
18.085578
17.697981
17.040903
16.637975
15.99528
15.578867
14.948813
14.520556
13.901595
13.462956
12.853709
12.405989
11.805226
11.349588
10.756209
10.293694
9.7067117
9.2382557
8.6567817
8.1832297
7.6064598
7.1285781
6.5557807
6.0742688
5.5047736
5.020275
4.4534629
3.9665747
3.4018681
2.9131505
2.3500046
1.8599889
1.2978823
0.80707966
0.24550746
26.390958
25.448336
25.185031
24.337754
24.088001
23.291397
23.016557
22.252372
21.949658
21.212674
20.884649
20.171593
19.82117
19.129184
18.759002
18.085578
17.697982
17.040903
16.637975
15.99528
15.578867
14.948813
14.520556
13.901595
13.462956
12.853709
12.405989
11.805226
11.349588
10.756209
10.293694
9.7067116
9.2382557
8.6567817
8.1832298
7.6064598
7.1285782
6.5557807
6.0742689
5.5047736
5.020275
4.4534629
3.9665747
3.4018681
2.9131505
2.3500046
1.8599889
1.2978823
0.80707967
0.24550745
26.390801
25.448163
25.185021
24.337757
24.088003
23.291399
23.016556
22.252374
21.949659
21.212674
20.884649
20.171593
19.82117
19.129184
18.759002
18.085578
17.697982
17.040903
16.637975
15.99528
15.578867
14.948813
14.520556
13.901595
13.462956
12.853709
12.405989
11.805226
11.349588
10.756209
10.293694
9.7067116
9.2382557
8.6567817
8.1832298
7.6064598
7.1285782
6.5557806
6.0742689
5.5047736
5.020275
4.4534628
3.9665747
3.4018681
2.9131505
2.3500045
1.8599889
1.2978823
0.80707964
0.24550746
26.390328
25.448142
25.185011
24.33776
24.088004
23.291401
23.016556
22.252374
21.94966
21.212674
20.884649
20.171592
19.82117
19.129184
18.759002
18.085578
17.697982
17.040903
16.637975
15.99528
15.578867
14.948813
14.520556
13.901595
13.462956
12.853709
12.405989
11.805226
11.349588
10.756209
10.293694
9.7067116
9.2382557
8.6567816
8.1832298
7.6064598
7.1285782
6.5557806
6.0742689
5.5047736
5.020275
4.4534628
3.9665747
3.4018681
2.9131505
2.3500046
1.8599889
1.2978823
0.8070796
0.24550747
26.390415
25.447999
25.185006
24.337761
24.088005
23.291402
23.016555
22.252374
21.949662
21.212675
20.884649
20.171592
19.82117
19.129184
18.759002
18.085578
17.697982
17.040903
16.637975
15.99528
15.578867
14.948813
14.520557
13.901595
13.462956
12.853709
12.405989
11.805226
11.349588
10.756209
10.293694
9.7067116
9.2382558
8.6567816
8.1832298
7.6064597
7.1285782
6.5557806
6.0742689
5.5047736
5.020275
4.4534628
3.9665747
3.4018681
2.9131505
2.3500046
1.8599889
1.2978823
0.80707954
0.24550749
26.390143
25.448026
25.184999
24.33776
24.088006
23.291402
23.016555
22.252374
21.949663
21.212675
20.884649
20.171592
19.82117
19.129184
18.759002
18.085578
17.697982
17.040903
16.637975
15.99528
15.578867
14.948813
14.520557
13.901595
13.462956
12.853709
12.405989
11.805226
11.349588
10.756209
10.293694
9.7067116
9.2382558
8.6567816
8.1832298
7.6064598
7.1285782
6.5557806
6.0742689
5.5047736
5.020275
4.4534629
3.9665747
3.4018681
2.9131505
2.3500046
1.8599889
1.2978823
0.8070795
0.24550751
26.390361
25.44796
25.185001
24.337761
24.088006
23.291402
23.016555
22.252374
21.949663
21.212675
20.884649
20.171592
19.82117
19.129184
18.759002
18.085578
17.697982
17.040903
16.637975
15.99528
15.578867
14.948813
14.520557
13.901595
13.462956
12.853709
12.405989
11.805226
11.349588
10.756209
10.293694
9.7067116
9.2382558
8.6567816
8.1832298
7.6064598
7.1285782
6.5557806
6.0742689
5.5047736
5.020275
4.4534629
3.9665747
3.4018681
2.9131505
2.3500046
1.8599889
1.2978823
0.8070795
0.24550751
26.390179
25.448078
25.185007
24.337761
24.088005
23.291402
23.016555
22.252374
21.949662
21.212675
20.884649
20.171592
19.82117
19.129184
18.759002
18.085578
17.697982
17.040903
16.637975
15.99528
15.578867
14.948813
14.520557
13.901595
13.462956
12.853709
12.405989
11.805226
11.349588
10.756209
10.293694
9.7067116
9.2382558
8.6567816
8.1832298
7.6064597
7.1285782
6.5557806
6.0742689
5.5047736
5.020275
4.4534628
3.9665747
3.4018681
2.9131505
2.3500046
1.8599889
1.2978823
0.80707954
0.24550749
26.39053
25.44809
25.185016
24.33776
24.088004
23.291401
23.016556
22.252374
21.94966
21.212674
20.884649
20.171592
19.82117
19.129184
18.759002
18.085578
17.697982
17.040903
16.637975
15.99528
15.578867
14.948813
14.520556
13.901595
13.462956
12.853709
12.405989
11.805226
11.349588
10.756209
10.293694
9.7067116
9.2382557
8.6567816
8.1832298
7.6064598
7.1285782
6.5557806
6.0742689
5.5047736
5.020275
4.4534628
3.9665747
3.4018681
2.9131505
2.3500046
1.8599889
1.2978823
0.8070796
0.24550747
26.390548
25.448257
25.185024
24.337757
24.088003
23.291399
23.016556
22.252374
21.949659
21.212674
20.884649
20.171593
19.82117
19.129184
18.759002
18.085578
17.697982
17.040903
16.637975
15.99528
15.578867
14.948813
14.520556
13.901595
13.462956
12.853709
12.405989
11.805226
11.349588
10.756209
10.293694
9.7067116
9.2382557
8.6567817
8.1832298
7.6064598
7.1285782
6.5557806
6.0742689
5.5047736
5.020275
4.4534628
3.9665747
3.4018681
2.9131505
2.3500045
1.8599889
1.2978823
0.80707964
0.24550746
26.391144
25.448298
25.185038
24.337754
24.088001
23.291397
23.016557
22.252372
21.949658
21.212674
20.884649
20.171593
19.82117
19.129184
18.759002
18.085578
17.697982
17.040903
16.637975
15.99528
15.578867
14.948813
14.520556
13.901595
13.462956
12.853709
12.405989
11.805226
11.349588
10.756209
10.293694
9.7067116
9.2382557
8.6567817
8.1832298
7.6064598
7.1285782
6.5557807
6.0742689
5.5047736
5.020275
4.4534629
3.9665747
3.4018681
2.9131505
2.3500046
1.8599889
1.2978823
0.80707967
0.24550745
26.391405
25.448499
25.185058
24.337751
24.087999
23.291394
23.016558
22.25237
21.949657
21.212674
20.884649
20.171593
19.82117
19.129185
18.759002
18.085578
17.697981
17.040903
16.637975
15.99528
15.578867
14.948813
14.520556
13.901595
13.462956
12.853709
12.405989
11.805226
11.349588
10.756209
10.293694
9.7067117
9.2382557
8.6567817
8.1832297
7.6064598
7.1285781
6.5557807
6.0742688
5.5047736
5.020275
4.4534629
3.9665747
3.4018681
2.9131505
2.3500046
1.8599889
1.2978823
0.80707966
0.24550746
26.392259
25.448585
25.185092
24.337751
24.087999
23.291391
23.01656
22.252367
21.949656
21.212674
20.884648
20.171593
19.82117
19.129185
18.759002
18.085578
17.697981
17.040904
16.637975
15.99528
15.578866
14.948813
14.520556
13.901595
13.462956
12.853709
12.405989
11.805226
11.349588
10.756209
10.293694
9.7067117
9.2382556
8.6567818
8.1832297
7.6064599
7.1285781
6.5557807
6.0742688
5.5047737
5.020275
4.4534629
3.9665747
3.4018681
2.9131504
2.3500046
1.8599889
1.2978823
0.80707964
0.24550748
26.392763
25.448849
25.185141
24.337754
24.088
23.291389
23.01656
22.252364
21.949655
21.212674
20.884648
20.171593
19.82117
19.129185
18.759002
18.085578
17.697981
17.040904
16.637975
15.99528
15.578866
14.948813
14.520556
13.901596
13.462956
12.853709
12.405989
11.805226
11.349588
10.756209
10.293694
9.7067118
9.2382556
8.6567818
8.1832296
7.6064599
7.128578
6.5557808
6.0742687
5.5047737
5.0202749
4.453463
3.9665746
3.4018682
2.9131504
2.3500046
1.8599888
1.2978823
0.80707959
0.2455075
26.393906
25.449013
25.185213
24.337764
24.088003
23.291387
23.016561
22.252361
21.949654
21.212674
20.884648
20.171594
19.82117
19.129185
18.759001
18.085578
17.697981
17.040904
16.637974
15.99528
15.578866
14.948813
14.520556
13.901596
13.462956
12.85371
12.405989
11.805227
11.349588
10.756209
10.293693
9.7067118
9.2382555
8.6567819
8.1832296
7.60646
7.128578
6.5557808
6.0742687
5.5047737
5.0202749
4.453463
3.9665746
3.4018682
2.9131504
2.3500047
1.8599888
1.2978823
0.80707953
0.24550753
26.394659
25.449371
25.185306
24.33778
24.088009
23.291385
23.01656
22.252358
21.949653
21.212674
20.884648
20.171594
19.821169
19.129185
18.759001
18.085579
17.697981
17.040904
16.637974
15.99528
15.578866
14.948813
14.520556
13.901596
13.462956
12.85371
12.405989
11.805227
11.349588
10.756209
10.293693
9.7067119
9.2382554
8.656782
8.1832295
7.60646
7.1285779
6.5557809
6.0742686
5.5047738
5.0202748
4.453463
3.9665745
3.4018683
2.9131503
2.3500047
1.8599888
1.2978824
0.80707945
0.24550757
26.396141
25.449643
25.185429
24.337803
24.088018
23.291384
23.016559
22.252355
21.949651
21.212674
20.884647
20.171594
19.821169
19.129186
18.759001
18.085579
17.697981
17.040904
16.637974
15.99528
15.578866
14.948813
14.520556
13.901596
13.462956
12.85371
12.405989
11.805227
11.349587
10.756209
10.293693
9.706712
9.2382553
8.656782
8.1832294
7.6064601
7.1285779
6.555781
6.0742686
5.5047739
5.0202748
4.4534631
3.9665745
3.4018683
2.9131503
2.3500048
1.8599887
1.2978824
0.80707935
0.24550762
26.397148
25.450128
25.185577
24.337835
24.088032
23.291383
23.016557
22.252353
21.94965
21.212674
20.884647
20.171594
19.821169
19.129186
18.759001
18.085579
17.697981
17.040904
16.637974
15.995281
15.578866
14.948813
14.520556
13.901596
13.462956
12.85371
12.405989
11.805227
11.349587
10.756209
10.293693
9.7067121
9.2382552
8.6567821
8.1832294
7.6064602
7.1285778
6.555781
6.0742685
5.5047739
5.0202747
4.4534632
3.9665744
3.4018684
2.9131502
2.3500048
1.8599887
1.2978825
0.80707924
0.24550766
26.398915
25.450512
25.185756
24.337874
24.08805
23.29138
23.016555
22.252351
21.949649
21.212674
20.884647
20.171595
19.821169
19.129186
18.759001
18.085579
17.69798
17.040905
16.637974
15.995281
15.578866
14.948814
14.520555
13.901596
13.462955
12.85371
12.405988
11.805227
11.349587
10.75621
10.293693
9.7067122
9.2382551
8.6567822
8.1832293
7.6064603
7.1285777
6.5557811
6.0742684
5.504774
5.0202746
4.4534632
3.9665743
3.4018685
2.9131501
2.3500049
1.8599886
1.2978825
0.80707912
0.24550772
26.400309
25.451149
25.185961
24.337923
24.088072
23.291375
23.016552
22.25235
21.949649
21.212674
20.884646
20.171595
19.821168
19.129187
18.759
18.08558
17.69798
17.040905
16.637973
15.995281
15.578865
14.948814
14.520555
13.901596
13.462955
12.85371
12.405988
11.805227
11.349587
10.75621
10.293693
9.7067123
9.238255
8.6567823
8.1832292
7.6064604
7.1285776
6.5557812
6.0742683
5.5047741
5.0202745
4.4534633
3.9665743
3.4018685
2.9131501
2.350005
1.8599885
1.2978826
0.80707898
0.24550778
26.402266
25.451647
25.186193
24.337981
24.088097
23.291368
23.01655
22.25235
21.949648
21.212675
20.884646
20.171596
19.821168
19.129187
18.759
18.08558
17.69798
17.040905
16.637973
15.995281
15.578865
14.948814
14.520555
13.901597
13.462955
12.85371
12.405988
11.805227
11.349587
10.75621
10.293693
9.7067125
9.2382549
8.6567824
8.183229
7.6064605
7.1285775
6.5557813
6.0742682
5.5047742
5.0202745
4.4534634
3.9665742
3.4018686
2.91315
2.3500051
1.8599884
1.2978827
0.80707884
0.24550784
26.404232
25.452448
25.186451
24.338049
24.088122
23.29136
23.016549
22.25235
21.949647
21.212675
20.884646
20.171596
19.821168
19.129187
18.759
18.08558
17.697979
17.040905
16.637973
15.995282
15.578865
14.948814
14.520555
13.901597
13.462955
12.853711
12.405988
11.805227
11.349587
10.75621
10.293693
9.7067126
9.2382548
8.6567826
8.1832289
7.6064606
7.1285774
6.5557814
6.0742681
5.5047743
5.0202744
4.4534635
3.9665741
3.4018687
2.9131499
2.3500052
1.8599884
1.2978827
0.80707868
0.2455079
26.40645
25.453104
25.186739
24.338129
24.088145
23.291354
23.016548
22.252351
21.949647
21.212676
20.884645
20.171597
19.821167
19.129188
18.758999
18.085581
17.697979
17.040906
16.637973
15.995282
15.578865
14.948815
14.520555
13.901597
13.462955
12.853711
12.405988
11.805228
11.349587
10.75621
10.293693
9.7067127
9.2382546
8.6567827
8.1832288
7.6064607
7.1285773
6.5557815
6.074268
5.5047744
5.0202742
4.4534636
3.966574
3.4018688
2.9131498
2.3500053
1.8599883
1.2978828
0.8070785
0.24550797
26.409021
25.454067
25.187051
24.338218
24.088167
23.29135
23.016547
22.252351
21.949647
21.212677
20.884645
20.171597
19.821167
19.129188
18.758999
18.085581
17.697979
17.040906
16.637972
15.995282
15.578864
14.948815
14.520554
13.901597
13.462954
12.853711
12.405987
11.805228
11.349586
10.75621
10.293692
9.7067129
9.2382545
8.6567829
8.1832287
7.6064609
7.1285771
6.5557817
6.0742679
5.5047745
5.0202741
4.4534637
3.9665739
3.4018689
2.9131497
2.3500054
1.8599882
1.2978829
0.80707832
0.24550804
26.411645
25.454915
25.187401
24.33831
24.088189
23.291351
23.016548
22.252353
21.949646
21.212677
20.884644
20.171598
19.821166
19.129189
18.758998
18.085582
17.697978
17.040906
16.637972
15.995283
15.578864
14.948815
14.520554
13.901598
13.462954
12.853711
12.405987
11.805228
11.349586
10.756211
10.293692
9.7067131