/*--------------------------------*- C++ -*----------------------------------*\
| =========                 |                                                 |
| \\      /  F ield         | OpenFOAM: The Open Source CFD Toolbox           |
|  \\    /   O peration     | Version:  2312                                  |
|   \\  /    A nd           | Website:  www.openfoam.com                      |
|    \\/     M anipulation  |                                                 |
\*---------------------------------------------------------------------------*/
FoamFile
{
    version     2.0;
    format      ascii;
    arch        "LSB;label=32;scalar=64";
    class       surfaceScalarField;
    location    "3";
    object      phi;
}
// * * * * * * * * * * * * * * * * * * * * * * * * * * * * * * * * * * * * * //

dimensions      [0 3 -1 0 0 0 0];

oriented        oriented;

internalField   nonuniform List<scalar> 
7870
(
1.0170823e-10
2.3560418e-09
1.0152099e-10
1.8725025e-13
9.4552746e-11
6.9682388e-12
9.3961116e-11
5.9163224e-13
9.5089348e-11
-1.1282321e-12
9.3654161e-11
1.4351882e-12
9.499258e-11
-1.3384193e-12
9.3708753e-11
1.2838273e-12
9.4921299e-11
-1.2125464e-12
9.3776083e-11
1.1452163e-12
9.4854082e-11
-1.0779985e-12
9.3837792e-11
1.0162902e-12
9.4794695e-11
-9.5690361e-13
9.3892855e-11
9.0183986e-13
9.4742556e-11
-8.4970043e-13
9.394155e-11
8.0100566e-13
9.4696715e-11
-7.5516461e-13
9.3984469e-11
7.1224607e-13
9.4656399e-11
-6.7193018e-13
9.4022226e-11
6.34173e-13
9.462097e-11
-5.9874361e-13
9.4055388e-11
5.6558169e-13
9.458988e-11
-5.344916e-13
9.4084459e-11
5.0542075e-13
9.4562653e-11
-4.781939e-13
9.4109883e-11
4.527699e-13
9.4538873e-11
-4.2899019e-13
9.413205e-11
4.068237e-13
9.4518177e-11
-3.8612742e-13
9.4151299e-11
3.6687842e-13
9.4500248e-11
-3.489487e-13
9.4167926e-11
3.3232138e-13
9.4484809e-11
-3.1688308e-13
9.4182188e-11
3.0262147e-13
9.4471625e-11
-2.894373e-13
9.4194304e-11
2.7732153e-13
9.4460492e-11
-2.661885e-13
9.4204461e-11
2.5603147e-13
9.4451238e-11
-2.4677774e-13
9.4212816e-11
2.3842213e-13
9.4443721e-11
-2.3090492e-13
9.42195e-11
2.2422128e-13
9.4437823e-11
-2.1832311e-13
9.4224609e-11
2.1321422e-13
9.4433432e-11
-2.088236e-13
9.4228213e-11
2.0521967e-13
9.4430746e-11
-2.0253336e-13
9.4232145e-11
1.9860138e-13
9.4436959e-11
-2.0481414e-13
1.9077769e-13
2.7849852e-10
4.5352932e-09
2.9240532e-10
-1.3719549e-11
2.7443621e-10
2.4937355e-11
2.7368375e-10
1.3440924e-12
2.7494198e-10
-2.3864579e-12
2.7288161e-10
3.4955607e-12
2.7477527e-10
-3.2320813e-12
2.729394e-10
3.1196971e-12
2.7468194e-10
-2.9550913e-12
2.7303362e-10
2.7935447e-12
2.7458504e-10
-2.6294175e-12
2.7312134e-10
2.4799884e-12
2.7449909e-10
-2.3346513e-12
2.7320034e-10
2.2005892e-12
2.7442392e-10
-2.0732813e-12
2.7327043e-10
1.9544939e-12
2.7435794e-10
-1.8426804e-12
2.7333227e-10
1.7379178e-12
2.7429996e-10
-1.6396126e-12
2.733867e-10
1.5474326e-12
2.74249e-10
-1.4610486e-12
2.734345e-10
1.3800853e-12
2.7420429e-10
-1.3042808e-12
2.734764e-10
1.2333071e-12
2.7416513e-10
-1.1669201e-12
2.7351305e-10
1.1048516e-12
2.7413092e-10
-1.0468678e-12
2.7354499e-10
9.9275344e-13
2.7410115e-10
-9.4228628e-13
2.7357274e-10
8.9529523e-13
2.7407536e-10
-8.5157257e-13
2.735967e-10
8.1098186e-13
2.7405315e-10
-7.7333301e-13
2.7361725e-10
7.3851713e-13
2.7403418e-10
-7.0636366e-13
2.7363472e-10
6.7678541e-13
2.7401816e-10
-6.4963247e-13
2.7364936e-10
6.2483457e-13
2.7400484e-10
-6.0226289e-13
2.736614e-10
5.8186063e-13
2.7399402e-10
-5.6352216e-13
2.7367104e-10
5.4719858e-13
2.7398553e-10
-5.3280614e-13
2.7367841e-10
5.2032684e-13
2.7397917e-10
-5.0957905e-13
2.7368354e-10
5.0084906e-13
2.7397518e-10
-4.9417574e-13
2.7368994e-10
4.8384288e-13
2.7399098e-10
-5.0584824e-13
4.6410302e-13
4.5003361e-10
6.5430096e-09
4.7642266e-10
-4.0108586e-11
4.492785e-10
5.2081516e-11
4.491203e-10
1.5022898e-12
4.4976358e-10
-3.0297302e-12
4.4786104e-10
5.3981024e-12
4.4960266e-10
-4.9737057e-12
4.4789314e-10
4.8292223e-12
4.4953071e-10
-4.5926648e-12
4.4797853e-10
4.3457214e-12
4.4943942e-10
-4.0902998e-12
4.4805969e-10
3.8597194e-12
4.4935785e-10
-3.6328206e-12
4.4813375e-10
3.4246945e-12
4.492869e-10
-3.226432e-12
4.4819977e-10
3.0416255e-12
4.4922478e-10
-2.867687e-12
4.482581e-10
2.70459e-12
4.4917021e-10
-2.5517174e-12
4.4830946e-10
2.4081837e-12
4.4912227e-10
-2.2738587e-12
4.4835457e-10
2.1477882e-12
4.490802e-10
-2.0299121e-12
4.483941e-10
1.9194001e-12
4.4904335e-10
-1.8161644e-12
4.4842868e-10
1.7195221e-12
4.4901116e-10
-1.6293502e-12
4.4845882e-10
1.5450955e-12
4.4898314e-10
-1.4666094e-12
4.4848499e-10
1.3934473e-12
4.4895886e-10
-1.3254471e-12
4.485076e-10
1.2622505e-12
4.4893796e-10
-1.2036935e-12
4.4852699e-10
1.1494872e-12
4.489201e-10
-1.0994743e-12
4.4854346e-10
1.0534211e-12
4.4890501e-10
-1.0111828e-12
4.4855728e-10
9.725698e-13
4.4889247e-10
-9.3745352e-13
4.4856865e-10
9.0568039e-13
4.4888227e-10
-8.7714503e-13
4.4857775e-10
8.5171615e-13
4.4887426e-10
-8.2931298e-13
4.4858472e-10
8.0986771e-13
4.4886822e-10
-7.9307679e-13
4.4858948e-10
7.7958189e-13
4.4886434e-10
-7.6902896e-13
4.485967e-10
7.5147558e-13
4.4888856e-10
-7.9770263e-13
7.2026668e-13
6.124773e-10
8.3882823e-09
6.5412267e-10
-8.1753947e-11
6.1955381e-10
8.6650375e-11
6.1984562e-10
1.2104847e-12
6.1994663e-10
-3.130743e-12
6.1822509e-10
7.1196398e-12
6.1982164e-10
-6.5702527e-12
6.1824464e-10
6.4062238e-12
6.1977516e-10
-6.1231878e-12
6.1832259e-10
5.7982925e-12
6.1968992e-10
-5.4576281e-12
6.1839719e-10
5.15245e-12
6.1961295e-10
-4.8485771e-12
6.1846617e-10
4.5714657e-12
6.1954635e-10
-4.3066058e-12
6.1852796e-10
4.0600153e-12
6.1948818e-10
-3.8279121e-12
6.1858263e-10
3.6101428e-12
6.1943713e-10
-3.4062193e-12
6.1863078e-10
3.2145381e-12
6.1939229e-10
-3.0353681e-12
6.1867307e-10
2.8670058e-12
6.1935293e-10
-2.7097734e-12
6.1871014e-10
2.5621942e-12
6.1931846e-10
-2.4244846e-12
6.1874255e-10
2.2954328e-12
6.1928834e-10
-2.1751441e-12
6.187708e-10
2.0626383e-12
6.1926212e-10
-1.9579334e-12
6.1879533e-10
1.8602422e-12
6.192394e-10
-1.7695217e-12
6.1881652e-10
1.6851379e-12
6.1921983e-10
-1.6070113e-12
6.1883469e-10
1.5346312e-12
6.1920312e-10
-1.4678994e-12
6.1885013e-10
1.4064038e-12
6.1918899e-10
-1.3500407e-12
6.1886308e-10
1.2984761e-12
6.1917724e-10
-1.2516103e-12
6.1887375e-10
1.2091729e-12
6.1916769e-10
-1.1710822e-12
6.188823e-10
1.137107e-12
6.1916017e-10
-1.1071898e-12
6.1888884e-10
1.0811981e-12
6.1915445e-10
-1.0586901e-12
6.1889324e-10
1.0407965e-12
6.191506e-10
-1.0263932e-12
6.1890084e-10
1.001242e-12
6.1918123e-10
-1.0780931e-12
9.5954542e-13
7.7592003e-10
1.0070112e-08
8.2535425e-10
-1.3118817e-10
7.8509825e-10
1.2690638e-10
7.8585105e-10
4.5769192e-13
7.8548877e-10
-2.7684687e-12
7.8397436e-10
8.6340496e-12
7.8543208e-10
-8.0279713e-12
7.8399347e-10
7.8448376e-12
7.8541501e-10
-7.5447248e-12
7.8406535e-10
7.1479466e-12
7.853363e-10
-6.7285709e-12
7.8413346e-10
6.3552878e-12
7.8526413e-10
-5.9792532e-12
7.8419726e-10
5.6383449e-12
7.8520206e-10
-5.3114076e-12
7.8425468e-10
5.0073977e-12
7.8514798e-10
-4.7212213e-12
7.8430556e-10
4.4525642e-12
7.8510056e-10
-4.2012189e-12
7.8435039e-10
3.9647065e-12
7.8505891e-10
-3.743886e-12
7.8438977e-10
3.5361447e-12
7.8502236e-10
-3.3423581e-12
7.8442428e-10
3.1602682e-12
7.8499034e-10
-2.9905365e-12
7.8445446e-10
2.8313139e-12
7.8496236e-10
-2.6830477e-12
7.8448075e-10
2.5442448e-12
7.84938e-10
-2.4151809e-12
7.8450358e-10
2.2946592e-12
7.8491689e-10
-2.1828277e-12
7.845233e-10
2.0787247e-12
7.848987e-10
-1.9824125e-12
7.8454022e-10
1.8931177e-12
7.8488317e-10
-1.8108472e-12
7.8455459e-10
1.7349781e-12
7.8487004e-10
-1.665485e-12
7.8456665e-10
1.6018634e-12
7.8485911e-10
-1.5440722e-12
7.8457658e-10
1.4917037e-12
7.8485022e-10
-1.4447241e-12
7.8458454e-10
1.4027836e-12
7.8484322e-10
-1.3658693e-12
7.8459066e-10
1.3337669e-12
7.8483785e-10
-1.3058887e-12
7.8459468e-10
1.2839675e-12
7.8483401e-10
-1.2657228e-12
7.8460237e-10
1.232881e-12
7.8486938e-10
-1.3450948e-12
1.1807649e-12
9.2295399e-10
1.1604908e-08
9.8961784e-10
-1.97852e-10
9.460624e-10
1.7046181e-10
9.4712121e-10
-6.0111646e-13
9.4639057e-10
-2.0378288e-12
9.451101e-10
9.9145207e-12
9.4643521e-10
-9.3530752e-12
9.4513946e-10
9.1405875e-12
9.4645073e-10
-8.8559955e-12
9.4520654e-10
8.3921339e-12
9.4637895e-10
-7.9009774e-12
9.4526825e-10
7.4659905e-12
9.4631178e-10
-7.0227871e-12
9.4532677e-10
6.6233543e-12
9.4625434e-10
-6.23898e-12
9.4537972e-10
5.8820218e-12
9.4620446e-10
-5.545958e-12
9.4542672e-10
5.230299e-12
9.4616074e-10
-4.9352415e-12
9.4546815e-10
4.6573051e-12
9.4612236e-10
-4.3980993e-12
9.4550453e-10
4.1539719e-12
9.4608867e-10
-3.9264959e-12
9.4553642e-10
3.7125219e-12
9.4605916e-10
-3.5132755e-12
9.4556429e-10
3.3261817e-12
9.4603337e-10
-3.1521264e-12
9.4558858e-10
2.9890337e-12
9.4601091e-10
-2.8375139e-12
9.4560966e-10
2.6959062e-12
9.4599145e-10
-2.5646113e-12
9.4562788e-10
2.4422969e-12
9.4597468e-10
-2.3292164e-12
9.456435e-10
2.2243004e-12
9.4596035e-10
-2.1277007e-12
9.4565677e-10
2.0385569e-12
9.4594824e-10
-1.9569539e-12
9.4566791e-10
1.8821956e-12
9.4593816e-10
-1.8143251e-12
9.4567708e-10
1.7527806e-12
9.4592996e-10
-1.6975968e-12
9.4568445e-10
1.648291e-12
9.4592349e-10
-1.6049126e-12
9.4569011e-10
1.5671498e-12
9.4591849e-10
-1.5342677e-12
9.4569376e-10
1.5086932e-12
9.4591466e-10
-1.4866172e-12
9.4570132e-10
1.4462165e-12
9.459533e-10
-1.5970696e-12
1.382911e-12
1.0787355e-09
1.2983923e-08
1.1481138e-09
-2.6723026e-10
1.1023255e-09
2.1625015e-10
1.1036109e-09
-1.8865472e-12
1.102644e-09
-1.0709736e-12
1.1016332e-09
1.0925388e-11
1.1028323e-09
-1.0552189e-11
1.1016824e-09
1.0290479e-11
1.1028828e-09
-1.0056374e-11
1.1017458e-09
9.5291316e-12
1.1028182e-09
-8.9734282e-12
1.1018012e-09
8.4830123e-12
1.1027562e-09
-7.9777759e-12
1.1018544e-09
7.5251365e-12
1.1027035e-09
-7.0880504e-12
1.1019028e-09
6.6826873e-12
1.1026578e-09
-6.3009846e-12
1.1019459e-09
5.9422806e-12
1.1026179e-09
-5.6072725e-12
1.1019838e-09
5.2913835e-12
1.1025828e-09
-4.9971037e-12
1.1020172e-09
4.7196393e-12
1.102552e-09
-4.4613797e-12
1.1020464e-09
4.218197e-12
1.1025251e-09
-3.9919794e-12
1.1020719e-09
3.7793569e-12
1.1025015e-09
-3.581733e-12
1.1020941e-09
3.3963945e-12
1.102481e-09
-3.2243503e-12
1.1021135e-09
3.0634331e-12
1.1024632e-09
-2.9143475e-12
1.1021301e-09
2.7753572e-12
1.1024479e-09
-2.6469479e-12
1.1021444e-09
2.5277281e-12
1.1024348e-09
-2.4180276e-12
1.1021566e-09
2.3167287e-12
1.1024237e-09
-2.2240526e-12
1.1021668e-09
2.1390957e-12
1.1024145e-09
-2.0620062e-12
1.1021752e-09
1.9920563e-12
1.102407e-09
-1.929366e-12
1.1021819e-09
1.873308e-12
1.102401e-09
-1.8240097e-12
1.1021871e-09
1.7810478e-12
1.1023964e-09
-1.7435435e-12
1.1021904e-09
1.7146901e-12
1.1023926e-09
-1.6888083e-12
1.1021977e-09
1.6411516e-12
1.1024333e-09
-1.8326499e-12
1.5654307e-12
1.2119073e-09
1.4229765e-08
1.2991857e-09
-3.5450863e-10
1.2540257e-09
2.6141015e-10
1.2552902e-09
-3.1511015e-12
1.2542437e-09
-2.4441182e-14
1.2535456e-09
1.1623461e-11
1.2546253e-09
-1.163182e-11
1.2536225e-09
1.1293232e-11
1.2547117e-09
-1.1145562e-11
1.2536828e-09
1.0558036e-11
1.2546545e-09
-9.9451104e-12
1.2537321e-09
9.4054306e-12
1.2545977e-09
-8.8433939e-12
1.2537799e-09
8.3428804e-12
1.2545497e-09
-7.8578614e-12
1.2538237e-09
7.4086792e-12
1.2545084e-09
-6.9856206e-12
1.2538628e-09
6.5878728e-12
1.2544722e-09
-6.2167038e-12
1.2538972e-09
5.866374e-12
1.2544405e-09
-5.5403553e-12
1.2539275e-09
5.2326385e-12
1.2544126e-09
-4.9465225e-12
1.253954e-09
4.6768376e-12
1.2543882e-09
-4.4262116e-12
1.2539771e-09
4.1904291e-12
1.2543669e-09
-3.9714744e-12
1.2539973e-09
3.7659569e-12
1.2543483e-09
-3.5753354e-12
1.2540148e-09
3.3969047e-12
1.2543322e-09
-3.2317145e-12
1.25403e-09
3.0776004e-12
1.2543183e-09
-2.9353138e-12
1.2540429e-09
2.8031222e-12
1.2543065e-09
-2.6815603e-12
1.254054e-09
2.5692381e-12
1.2542964e-09
-2.4665352e-12
1.2540632e-09
2.3723286e-12
1.2542881e-09
-2.2868893e-12
1.2540708e-09
2.2093138e-12
1.2542813e-09
-2.1398218e-12
1.254077e-09
2.0776335e-12
1.2542759e-09
-2.0229665e-12
1.2540817e-09
1.9752739e-12
1.2542717e-09
-1.9335418e-12
1.2540846e-09
1.9017799e-12
1.2542679e-09
-1.8721425e-12
1.2540914e-09
1.8176619e-12
1.2543095e-09
-2.0507066e-12
1.7281256e-12
1.3583306e-09
1.5329185e-08
1.4453278e-09
-4.4150583e-10
1.4010719e-09
3.0566612e-10
1.4021324e-09
-4.2116399e-12
1.4011799e-09
9.2802393e-13
1.4008493e-09
1.1954152e-11
1.4018161e-09
-1.2598631e-11
1.4009602e-09
1.2149061e-11
1.4019381e-09
-1.2123416e-11
1.4010174e-09
1.1478723e-11
1.401888e-09
-1.0815697e-11
1.4010605e-09
1.0232888e-11
1.4018365e-09
-9.6193114e-12
1.4011031e-09
9.0762581e-12
1.4017933e-09
-8.5481051e-12
1.4011423e-09
8.0597081e-12
1.4017563e-09
-7.5995858e-12
1.4011773e-09
7.1668173e-12
1.4017239e-09
-6.7632825e-12
1.4012082e-09
6.3820438e-12
1.4016955e-09
-6.0276266e-12
1.4012354e-09
5.6927596e-12
1.4016706e-09
-5.3817191e-12
1.4012592e-09
5.0882528e-12
1.4016487e-09
-4.8157859e-12
1.4012799e-09
4.5592245e-12
1.4016296e-09
-4.321181e-12
1.401298e-09
4.0975616e-12
1.401613e-09
-3.8903136e-12
1.4013137e-09
3.6961744e-12
1.4015986e-09
-3.5165696e-12
1.4013273e-09
3.3488915e-12
1.4015862e-09
-3.1941825e-12
1.4013389e-09
3.0503576e-12
1.4015756e-09
-2.9181768e-12
1.4013488e-09
2.7959689e-12
1.4015666e-09
-2.6842885e-12
1.4013571e-09
2.581786e-12
1.4015591e-09
-2.4888687e-12
1.401364e-09
2.4044523e-12
1.401553e-09
-2.3288669e-12
1.4013695e-09
2.2611745e-12
1.4015482e-09
-2.2016933e-12
1.4013737e-09
2.1497429e-12
1.4015444e-09
-2.1041866e-12
1.4013763e-09
2.0698802e-12
1.4015407e-09
-2.0365684e-12
1.4013826e-09
1.9757894e-12
1.4015822e-09
-2.2503234e-12
1.8710438e-12
1.4829273e-09
1.6304008e-08
1.5837262e-09
-5.4230473e-10
1.5435352e-09
3.4585712e-10
1.544235e-09
-4.9114512e-12
1.5434756e-09
1.687413e-12
1.543545e-09
1.1884794e-11
1.544405e-09
-1.3458682e-11
1.5436953e-09
1.2858806e-11
1.5445622e-09
-1.2990362e-11
1.5437494e-09
1.2291571e-11
1.544519e-09
-1.158537e-11
1.5437864e-09
1.0965507e-11
1.5444728e-09
-1.0305654e-11
1.5438236e-09
9.7253709e-12
1.5444344e-09
-9.1588788e-12
1.5438583e-09
8.6358664e-12
1.5444016e-09
-8.1429603e-12
1.5438893e-09
7.6791947e-12
1.5443731e-09
-7.2470763e-12
1.5439166e-09
6.8384621e-12
1.544348e-09
-6.4589746e-12
1.5439407e-09
6.1000602e-12
1.544326e-09
-5.7670168e-12
1.5439617e-09
5.4524906e-12
1.5443067e-09
-5.1607414e-12
1.5439801e-09
4.885782e-12
1.5442898e-09
-4.6308843e-12
1.5439962e-09
4.3912398e-12
1.5442752e-09
-4.1693101e-12
1.5440101e-09
3.9612664e-12
1.5442624e-09
-3.7689318e-12
1.5440221e-09
3.5892487e-12
1.5442515e-09
-3.4235681e-12
1.5440324e-09
3.2694474e-12
1.5442421e-09
-3.1278871e-12
1.5440411e-09
2.9969305e-12
1.5442342e-09
-2.8773195e-12
1.5440485e-09
2.7674749e-12
1.5442275e-09
-2.6679498e-12
1.5440545e-09
2.5774771e-12
1.5442222e-09
-2.4965053e-12
1.5440594e-09
2.4239363e-12
1.5442179e-09
-2.3601957e-12
1.5440632e-09
2.3044619e-12
1.5442145e-09
-2.2554914e-12
1.5440654e-09
2.2189962e-12
1.5442109e-09
-2.1821259e-12
1.5440711e-09
2.1156399e-12
1.5442515e-09
-2.4307782e-12
1.9944226e-12
1.6197544e-09
1.7142003e-08
1.7179192e-09
-6.4046956e-10
1.6812289e-09
3.8254743e-10
1.6817614e-09
-5.4438902e-12
1.6812028e-09
2.2459248e-12
1.6816442e-09
1.1443423e-11
1.6823955e-09
-1.4209935e-11
1.681828e-09
1.3426287e-11
1.6825844e-09
-1.3746824e-11
1.6818785e-09
1.299755e-11
1.6825478e-09
-1.225474e-11
1.6819095e-09
1.1603855e-11
1.6825068e-09
-1.0902955e-11
1.6819415e-09
1.0290712e-11
1.6824732e-09
-9.6906458e-12
1.6819715e-09
9.1375929e-12
1.6824447e-09
-8.6161499e-12
1.6819985e-09
8.1253928e-12
1.6824198e-09
-7.668442e-12
1.6820223e-09
7.2359703e-12
1.6823981e-09
-6.8347135e-12
1.6820433e-09
6.4548411e-12
1.682379e-09
-6.1026928e-12
1.6820617e-09
5.769815e-12
1.6823622e-09
-5.4613217e-12
1.6820777e-09
5.1703336e-12
1.6823476e-09
-4.9007987e-12
1.6820916e-09
4.647195e-12
1.6823348e-09
-4.412513e-12
1.6821037e-09
4.1923596e-12
1.6823238e-09
-3.9889671e-12
1.6821142e-09
3.7988296e-12
1.6823143e-09
-3.6236173e-12
1.6821232e-09
3.4605314e-12
1.6823061e-09
-3.3108214e-12
1.6821308e-09
3.1722473e-12
1.6822992e-09
-3.0457449e-12
1.6821372e-09
2.9295068e-12
1.6822935e-09
-2.824238e-12
1.6821425e-09
2.7284903e-12
1.6822888e-09
-2.642835e-12
1.6821467e-09
2.5660142e-12
1.6822851e-09
-2.498566e-12
1.68215e-09
2.439523e-12
1.6822821e-09
-2.3875521e-12
1.6821519e-09
2.3492135e-12
1.6822787e-09
-2.3089371e-12
1.6821569e-09
2.2373795e-12
1.6823177e-09
-2.5915264e-12
2.0986531e-12
1.7391233e-09
1.786063e-08
1.8442813e-09
-7.4562755e-10
1.8141591e-09
4.1266964e-10
1.8147255e-09
-6.0103147e-12
1.814392e-09
2.5793982e-12
1.8151491e-09
1.0686301e-11
1.8157883e-09
-1.4849112e-11
1.8153584e-09
1.3856164e-11
1.8160051e-09
-1.4393477e-11
1.8154045e-09
1.3598105e-11
1.8159746e-09
-1.282481e-11
1.8154296e-09
1.2148899e-11
1.8159387e-09
-1.1412119e-11
1.8154563e-09
1.0773125e-11
1.8159099e-09
-1.0144202e-11
1.8154818e-09
9.5656384e-12
1.8158855e-09
-9.0198555e-12
1.8155049e-09
8.5060771e-12
1.8158644e-09
-8.0279991e-12
1.8155252e-09
7.5751573e-12
1.8158459e-09
-7.1553912e-12
1.8155431e-09
6.7576223e-12
1.8158297e-09
-6.3892312e-12
1.8155588e-09
6.0406859e-12
1.8158154e-09
-5.7179553e-12
1.8155725e-09
5.4132857e-12
1.815803e-09
-5.1313034e-12
1.8155844e-09
4.8657871e-12
1.8157921e-09
-4.6202592e-12
1.8155947e-09
4.3897734e-12
1.8157827e-09
-4.1769748e-12
1.8156036e-09
3.9779184e-12
1.8157746e-09
-3.794597e-12
1.8156113e-09
3.6238634e-12
1.8157677e-09
-3.4672195e-12
1.8156178e-09
3.3221478e-12
1.8157618e-09
-3.1897814e-12
1.8156232e-09
3.0680894e-12
1.8157569e-09
-2.9579314e-12
1.8156277e-09
2.8576823e-12
1.8157529e-09
-2.7680386e-12
1.8156314e-09
2.6875862e-12
1.8157498e-09
-2.616977e-12
1.8156342e-09
2.5550959e-12
1.8157472e-09
-2.5005395e-12
1.8156357e-09
2.4606914e-12
1.815744e-09
-2.4171983e-12
1.8156401e-09
2.3412306e-12
1.8157808e-09
-2.732186e-12
2.1842507e-12
1.8661972e-09
1.8452183e-08
1.9674111e-09
-8.4684151e-10
1.9423879e-09
4.3769289e-10
1.9430836e-09
-6.7059682e-12
1.9430314e-09
2.6315002e-12
1.9440603e-09
9.6574187e-12
1.9445842e-09
-1.5372945e-11
1.9442871e-09
1.4153251e-11
1.9448247e-09
-1.4931048e-11
1.9443275e-09
1.4095209e-11
1.9447996e-09
-1.329687e-11
1.9443465e-09
1.2602e-11
1.9447688e-09
-1.1834367e-11
1.9443681e-09
1.1173781e-11
1.9447445e-09
-1.0520638e-11
1.9443891e-09
9.9210375e-12
1.9447243e-09
-9.3550429e-12
1.9444082e-09
8.8221636e-12
1.9447068e-09
-8.3266024e-12
1.9444252e-09
7.8568337e-12
1.9446915e-09
-7.4217651e-12
1.94444e-09
7.0091221e-12
1.9446781e-09
-6.6273035e-12
1.9444531e-09
6.2657393e-12
1.9446663e-09
-5.9312377e-12
1.9444644e-09
5.6152026e-12
1.944656e-09
-5.3229277e-12
1.9444743e-09
5.0475174e-12
1.9446471e-09
-4.7930192e-12
1.9444829e-09
4.5539541e-12
1.9446393e-09
-4.3333749e-12
1.9444903e-09
4.1269141e-12
1.9446326e-09
-3.9368838e-12
1.9444966e-09
3.7598018e-12
1.9446268e-09
-3.5974204e-12
1.944502e-09
3.4469554e-12
1.944622e-09
-3.3097363e-12
1.9445066e-09
3.1835169e-12
1.9446179e-09
-3.0693111e-12
1.9445103e-09
2.9653241e-12
1.9446146e-09
-2.8723769e-12
1.9445133e-09
2.7889049e-12
1.944612e-09
-2.7156738e-12
1.9445157e-09
2.6514211e-12
1.9446099e-09
-2.5946929e-12
1.9445169e-09
2.5536567e-12
1.9446069e-09
-2.507172e-12
1.9445206e-09
2.4274682e-12
1.944641e-09
-2.8525239e-12
2.2518289e-12
1.9805975e-09
1.8929335e-08
2.0830281e-09
-9.4927204e-10
2.065948e-09
4.5477294e-10
2.0668824e-09
-7.6403288e-12
2.0671289e-09
2.3849933e-12
2.0683821e-09
8.40427e-12
2.0687836e-09
-1.5774467e-11
2.0686139e-09
1.432295e-11
2.0690433e-09
-1.5360441e-11
2.0686473e-09
1.4491185e-11
2.069023e-09
-1.3672549e-11
2.0686601e-09
1.2964837e-11
2.068997e-09
-1.2171224e-11
2.0686766e-09
1.1494135e-11
2.0689773e-09
-1.0821312e-11
2.0686933e-09
1.0205077e-11
2.0689612e-09
-9.6229169e-12
2.0687085e-09
9.0747927e-12
2.0689472e-09
-8.5653197e-12
2.0687221e-09
8.0820103e-12
2.0689351e-09
-7.6347815e-12
2.068734e-09
7.210236e-12
2.0689244e-09
-6.8177492e-12
2.0687444e-09
6.44577e-12
2.0689151e-09
-6.1019148e-12
2.0687535e-09
5.7767901e-12
2.0689069e-09
-5.4763345e-12
2.0687614e-09
5.1930141e-12
2.0688998e-09
-4.9313844e-12
2.0687682e-09
4.6854625e-12
2.0688936e-09
-4.4586963e-12
2.0687742e-09
4.2463187e-12
2.0688882e-09
-4.0509524e-12
2.0687792e-09
3.8687983e-12
2.0688837e-09
-3.7018528e-12
2.0687835e-09
3.5470796e-12
2.0688798e-09
-3.4059995e-12
2.0687872e-09
3.2761631e-12
2.0688766e-09
-3.1587347e-12
2.0687901e-09
3.0517599e-12
2.0688739e-09
-2.9561812e-12
2.0687926e-09
2.8702917e-12
2.0688719e-09
-2.794968e-12
2.0687945e-09
2.7288036e-12
2.0688701e-09
-2.6703141e-12
2.0687954e-09
2.6283978e-12
2.0688674e-09
-2.5791805e-12
2.0687984e-09
2.4964165e-12
2.0688983e-09
-2.9524424e-12
2.3020769e-12
2.099113e-09
1.9287972e-08
2.1961742e-09
-1.0463333e-09
2.1849235e-09
4.6602365e-10
2.1861292e-09
-8.845998e-12
2.1866679e-09
1.8463165e-12
2.1881136e-09
6.958583e-12
2.1883857e-09
-1.6046658e-11
2.1883384e-09
1.4370343e-11
2.188661e-09
-1.568306e-11
2.1883636e-09
1.4788562e-11
2.1886449e-09
-1.3953811e-11
2.1883703e-09
1.3239357e-11
2.1886236e-09
-1.2424487e-11
2.1883818e-09
1.1735897e-11
2.1886084e-09
-1.1047825e-11
2.1883942e-09
1.0419272e-11
2.1885961e-09
-9.8248956e-12
2.1884056e-09
9.2653058e-12
2.1885857e-09
-8.7454082e-12
2.1884158e-09
8.2518762e-12
2.1885766e-09
-7.795556e-12
2.1884248e-09
7.3620193e-12
2.1885686e-09
-6.9615589e-12
2.1884327e-09
6.5817149e-12
2.1885617e-09
-6.2308667e-12
2.1884396e-09
5.8988816e-12
2.1885555e-09
-5.5923082e-12
2.1884455e-09
5.3030198e-12
2.1885502e-09
-5.0360547e-12
2.1884507e-09
4.7849622e-12
2.1885456e-09
-4.553566e-12
2.1884552e-09
4.336728e-12
2.1885416e-09
-4.137367e-12
2.188459e-09
3.95139e-12
2.1885382e-09
-3.7810267e-12
2.1884622e-09
3.6230072e-12
2.1885353e-09
-3.4790351e-12
2.188465e-09
3.3464727e-12
2.1885329e-09
-3.2266282e-12
2.1884672e-09
3.1174e-12
2.1885309e-09
-3.0198472e-12
2.188469e-09
2.9321297e-12
2.1885293e-09
-2.8552314e-12
2.1884705e-09
2.7876073e-12
2.1885279e-09
-2.7277614e-12
2.1884711e-09
2.6852596e-12
2.1885255e-09
-2.6335998e-12
2.1884735e-09
2.5484442e-12
2.188553e-09
-3.0319673e-12
2.3357397e-12
2.2096679e-09
1.9536054e-08
2.3023285e-09
-1.1389938e-09
2.2993596e-09
4.6899258e-10
2.3008691e-09
-1.0355502e-11
2.3016422e-09
1.0732445e-12
2.3032568e-09
5.3439878e-12
2.3033912e-09
-1.6181088e-11
2.3034606e-09
1.4300931e-11
2.303678e-09
-1.5900431e-11
2.3034763e-09
1.4990207e-11
2.3036654e-09
-1.4142866e-11
2.303477e-09
1.342778e-11
2.3036487e-09
-1.2596191e-11
2.3034836e-09
1.1901005e-11
2.3036377e-09
-1.120199e-11
2.3034917e-09
1.0565337e-11
2.3036294e-09
-9.9625878e-12
2.3034994e-09
9.3952242e-12
2.3036223e-09
-8.8682951e-12
2.3035064e-09
8.3677807e-12
2.3036162e-09
-7.905355e-12
2.3035126e-09
7.4656691e-12
2.3036109e-09
-7.0598575e-12
2.3035179e-09
6.6746378e-12
2.3036062e-09
-6.3190947e-12
2.3035226e-09
5.9824239e-12
2.3036021e-09
-5.6717406e-12
2.3035267e-09
5.3783796e-12
2.3035985e-09
-5.1078278e-12
2.3035302e-09
4.8532096e-12
2.3035954e-09
-4.6186989e-12
2.3035333e-09
4.3988211e-12
2.3035927e-09
-4.1967713e-12
2.3035359e-09
4.0081899e-12
2.3035904e-09
-3.8355252e-12
2.3035381e-09
3.6752951e-12
2.3035884e-09
-3.5293748e-12
2.3035399e-09
3.3949553e-12
2.3035868e-09
-3.2734805e-12
2.3035415e-09
3.1627153e-12
2.3035855e-09
-3.0638282e-12
2.3035427e-09
2.9748588e-12
2.3035844e-09
-2.8968908e-12
2.3035437e-09
2.8282491e-12
2.3035834e-09
-2.7674448e-12
2.3035441e-09
2.7246375e-12
2.3035813e-09
-2.6708536e-12
2.3035458e-09
2.5839619e-12
2.3036051e-09
-3.0912372e-12
2.3536024e-12
2.3209201e-09
1.9672884e-08
2.4066236e-09
-1.2246972e-09
2.4093992e-09
4.6621697e-10
2.4111515e-09
-1.2107828e-11
2.4120385e-09
1.8620807e-13
2.4138123e-09
3.5701937e-12
2.4137998e-09
-1.616856e-11
2.4139803e-09
1.4120414e-11
2.4140943e-09
-1.6014393e-11
2.4139853e-09
1.5099161e-11
2.4140847e-09
-1.4242196e-11
2.4139799e-09
1.3532528e-11
2.4140723e-09
-1.2688592e-11
2.4139817e-09
1.1991599e-11
2.4140655e-09
-1.1285813e-11
2.4139857e-09
1.0645168e-11
2.4140609e-09
-1.0037772e-11
2.4139899e-09
9.4662281e-12
2.4140572e-09
-8.9355582e-12
2.4139937e-09
8.4312142e-12
2.4140539e-09
-7.9655796e-12
2.4139971e-09
7.5225095e-12
2.4140511e-09
-7.1138906e-12
2.4140001e-09
6.7257161e-12
2.4140487e-09
-6.3677071e-12
2.4140026e-09
6.0284662e-12
2.4140465e-09
-5.7156212e-12
2.4140049e-09
5.4200299e-12
2.4140446e-09
-5.1475878e-12
2.4140068e-09
4.8910433e-12
2.414043e-09
-4.6548891e-12
2.4140084e-09
4.4333525e-12
2.4140416e-09
-4.2298812e-12
2.4140099e-09
4.03988e-12
2.4140403e-09
-3.8659971e-12
2.4140111e-09
3.7045631e-12
2.4140393e-09
-3.5576105e-12
2.4140121e-09
3.4221787e-12
2.4140384e-09
-3.2998358e-12
2.4140129e-09
3.1882303e-12
2.4140377e-09
-3.0886307e-12
2.4140136e-09
2.9989694e-12
2.4140371e-09
-2.9204222e-12
2.4140142e-09
2.8511944e-12
2.4140366e-09
-2.7898207e-12
2.4140142e-09
2.746974e-12
2.4140348e-09
-2.691409e-12
2.4140153e-09
2.6034179e-12
2.4140546e-09
-3.1304928e-12
2.3564756e-12
2.4281266e-09
1.9702508e-08
2.504297e-09
-1.3008677e-09
2.5149402e-09
4.5557377e-10
2.5170325e-09
-1.4200161e-11
2.5178626e-09
-6.4387524e-13
2.5197833e-09
1.6495148e-12
2.5196123e-09
-1.5997577e-11
2.5198975e-09
1.3835215e-11
2.51991e-09
-1.6026851e-11
2.5198904e-09
1.5118693e-11
2.5199028e-09
-1.4254499e-11
2.5198791e-09
1.3556227e-11
2.5198946e-09
-1.2704137e-11
2.5198762e-09
1.2009994e-11
2.5198919e-09
-1.1301468e-11
2.5198762e-09
1.0660818e-11
2.5198908e-09
-1.0052377e-11
2.5198769e-09
9.4801394e-12
2.5198903e-09
-8.9489093e-12
2.5198777e-09
8.4437939e-12
2.5198898e-09
-7.97775e-12
2.5198784e-09
7.5339764e-12
2.5198895e-09
-7.1250097e-12
2.519879e-09
6.7362274e-12
2.5198892e-09
-6.3779081e-12
2.5198795e-09
6.038147e-12
2.5198889e-09
-5.7250242e-12
2.51988e-09
5.4289887e-12
2.5198887e-09
-5.1562973e-12
2.5198803e-09
4.8993764e-12
2.5198884e-09
-4.6630011e-12
2.5198807e-09
4.4411436e-12
2.5198882e-09
-4.2374767e-12
2.5198809e-09
4.0472033e-12
2.5198881e-09
-3.8731502e-12
2.5198812e-09
3.7114877e-12
2.5198879e-09
-3.5643888e-12
2.5198813e-09
3.428763e-12
2.5198878e-09
-3.30629e-12
2.5198815e-09
3.1945188e-12
2.5198877e-09
-3.0948081e-12
2.5198817e-09
3.004998e-12
2.5198876e-09
-2.9263466e-12
2.5198818e-09
2.856952e-12
2.5198874e-09
-2.7953879e-12
2.5198816e-09
2.7527534e-12
2.519886e-09
-2.6957709e-12
2.5198821e-09
2.6072952e-12
2.5199017e-09
-3.1500674e-12
2.3451841e-12
2.5324202e-09
1.9627837e-08
2.6004927e-09
-1.3689402e-09
2.616117e-09
4.399495e-10
2.6184477e-09
-1.6530835e-11
2.6191144e-09
-1.3106174e-12
2.6211673e-09
-4.033783e-13
2.6208284e-09
-1.5658609e-11
2.6212113e-09
1.3452263e-11
2.6211246e-09
-1.5940177e-11
2.6211913e-09
1.5052039e-11
2.6211196e-09
-1.4182809e-11
2.6211742e-09
1.3501594e-11
2.6211156e-09
-1.2645484e-11
2.6211669e-09
1.1958643e-11
2.6211168e-09
-1.1251289e-11
2.6211631e-09
1.0614478e-11
2.6211192e-09
-1.0008467e-11
2.6211604e-09
9.4389027e-12
2.6211217e-09
-8.9101782e-12
2.6211582e-09
8.4072465e-12
2.621124e-09
-7.9434917e-12
2.6211564e-09
7.5016055e-12
2.621126e-09
-7.0946612e-12
2.6211547e-09
6.7075386e-12
2.6211278e-09
-6.3509866e-12
2.6211532e-09
6.0126859e-12
2.6211293e-09
-5.7011015e-12
2.621152e-09
5.4063464e-12
2.6211306e-09
-5.1349874e-12
2.6211508e-09
4.8791867e-12
2.6211318e-09
-4.6439619e-12
2.6211499e-09
4.4230759e-12
2.6211328e-09
-4.2203954e-12
2.621149e-09
4.0309579e-12
2.6211336e-09
-3.8577449e-12
2.6211483e-09
3.6967957e-12
2.6211343e-09
-3.5504049e-12
2.6211477e-09
3.4153751e-12
2.6211349e-09
-3.2934833e-12
2.6211472e-09
3.1821983e-12
2.6211354e-09
-3.0829569e-12
2.6211469e-09
2.9935225e-12
2.6211357e-09
-2.915225e-12
2.6211466e-09
2.84607e-12
2.6211359e-09
-2.7846832e-12
2.6211462e-09
2.7424983e-12
2.6211349e-09
-2.6844787e-12
2.6211461e-09
2.5961083e-12
2.6211464e-09
-3.1503783e-12
2.3205571e-12
2.6361195e-09
1.9449468e-08
2.6906424e-09
-1.423463e-09
2.7127884e-09
4.1780347e-10
2.7152755e-09
-1.9017869e-11
2.7157995e-09
-1.8346671e-12
2.7179576e-09
-2.5614702e-12
2.7174468e-09
-1.5147821e-11
2.7179208e-09
1.2978285e-11
2.7177379e-09
-1.5757243e-11
2.7178875e-09
1.4902404e-11
2.7177351e-09
-1.4030446e-11
2.7178653e-09
1.3371437e-11
2.7177353e-09
-1.2515474e-11
2.7178538e-09
1.1840119e-11
2.7177403e-09
-1.1137752e-11
2.7178463e-09
1.0508451e-11
2.7177461e-09
-9.9082239e-12
2.7178404e-09
9.3445707e-12
2.7177515e-09
-8.8213e-12
2.7178354e-09
8.3233968e-12
2.7177564e-09
-7.8645235e-12
2.717831e-09
7.427019e-12
2.7177607e-09
-7.0243743e-12
2.7178271e-09
6.6410949e-12
2.7177644e-09
-6.288306e-12
2.7178238e-09
5.9533725e-12
2.7177677e-09
-5.6450712e-12
2.7178208e-09
5.3532573e-12
2.7177706e-09
-5.0847508e-12
2.7178183e-09
4.8315112e-12
2.7177731e-09
-4.5987547e-12
2.717816e-09
4.3800839e-12
2.7177752e-09
-4.1795254e-12
2.7178141e-09
3.9919904e-12
2.717777e-09
-3.8205888e-12
2.7178125e-09
3.6612592e-12
2.7177785e-09
-3.5163975e-12
2.7178112e-09
3.3827243e-12
2.7177798e-09
-3.2620976e-12
2.7178101e-09
3.1519259e-12
2.7177808e-09
-3.0537112e-12
2.7178092e-09
2.965158e-12
2.7177816e-09
-2.8876552e-12
2.7178085e-09
2.8191319e-12
2.7177821e-09
-2.7582775e-12
2.7178079e-09
2.7167653e-12
2.7177815e-09
-2.6581023e-12
2.7178072e-09
2.5704003e-12
2.7177887e-09
-3.1319187e-12
2.2834193e-12
2.7331972e-09
1.9174021e-08
2.7795508e-09
-1.4698167e-09
2.805104e-09
3.922503e-10
2.8074853e-09
-2.1399115e-11
2.8079291e-09
-2.2785232e-12
2.8101493e-09
-4.7816661e-12
2.8094682e-09
-1.4466725e-11
2.8100263e-09
1.2420228e-11
2.8097498e-09
-1.5480813e-11
2.809979e-09
1.4673205e-11
2.8097494e-09
-1.3800837e-11
2.8099522e-09
1.3168717e-11
2.8097538e-09
-1.231707e-11
2.8099368e-09
1.1657116e-11
2.8097624e-09
-1.0963444e-11
2.8099257e-09
1.0345152e-11
2.8097715e-09
-9.7539325e-12
2.8099167e-09
9.1992909e-12
2.8097797e-09
-8.6842994e-12
2.809909e-09
8.194154e-12
2.8097871e-09
-7.742645e-12
2.8099022e-09
7.3119162e-12
2.8097936e-09
-6.9157514e-12
2.8098963e-09
6.5384102e-12
2.8097993e-09
-6.1912958e-12
2.8098911e-09
5.8615591e-12
2.8098042e-09
-5.5582121e-12
2.8098865e-09
5.2709322e-12
2.8098085e-09
-5.0067338e-12
2.8098826e-09
4.7574374e-12
2.8098122e-09
-4.5284117e-12
2.8098792e-09
4.3131491e-12
2.8098155e-09
-4.1158008e-12
2.8098763e-09
3.9311913e-12
2.8098182e-09
-3.762531e-12
2.8098738e-09
3.6056902e-12
2.8098205e-09
-3.4631442e-12
2.8098717e-09