/*--------------------------------*- C++ -*----------------------------------*\
| =========                 |                                                 |
| \\      /  F ield         | OpenFOAM: The Open Source CFD Toolbox           |
|  \\    /   O peration     | Version:  2312                                  |
|   \\  /    A nd           | Website:  www.openfoam.com                      |
|    \\/     M anipulation  |                                                 |
\*---------------------------------------------------------------------------*/
FoamFile
{
    version     2.0;
    format      ascii;
    arch        "LSB;label=32;scalar=64";
    class       volSymmTensorField;
    location    "3";
    object      sigma;
}
// * * * * * * * * * * * * * * * * * * * * * * * * * * * * * * * * * * * * * //

dimensions      [0 2 -2 0 0 0 0];

internalField   nonuniform List<symmTensor> 
4000
(
(-1.4157202 -0.61903862 0 -0.23036183 0 0)
(-2.860306 -0.30959829 0 -0.00083011745 0 0)
(-1.973446 -0.25687414 0 -0.00027400961 0 0)
(-2.1397556 -0.26719412 0 -3.265692e-05 0 0)
(-2.0102238 -0.25865772 0 4.4527992e-05 0 0)
(-2.101982 -0.26491935 0 -5.402388e-05 0 0)
(-2.0159965 -0.25902469 0 4.9751233e-05 0 0)
(-2.0941898 -0.26440486 0 -4.7727094e-05 0 0)
(-2.0211987 -0.25938098 0 4.4978425e-05 0 0)
(-2.0894901 -0.26408633 0 -4.2493152e-05 0 0)
(-2.0252909 -0.25966427 0 3.9969617e-05 0 0)
(-2.0855458 -0.26381718 0 -3.7703296e-05 0 0)
(-2.0288672 -0.25991199 0 3.5480266e-05 0 0)
(-2.0820976 -0.2635815 0 -3.3458077e-05 0 0)
(-2.0320487 -0.26013211 0 3.1508279e-05 0 0)
(-2.0790526 -0.26337326 0 -2.9718258e-05 0 0)
(-2.0348788 -0.26032767 0 2.8005347e-05 0 0)
(-2.0763545 -0.26318869 0 -2.6426186e-05 0 0)
(-2.0373954 -0.26050138 0 2.4920851e-05 0 0)
(-2.0739594 -0.26302483 0 -2.3530519e-05 0 0)
(-2.0396347 -0.26065576 0 2.2208566e-05 0 0)
(-2.0718299 -0.26287918 0 -2.0986681e-05 0 0)
(-2.0416294 -0.26079311 0 1.9827393e-05 0 0)
(-2.0699337 -0.26274951 0 -1.8755723e-05 0 0)
(-2.043409 -0.26091549 0 1.7741096e-05 0 0)
(-2.0682419 -0.2626339 0 -1.6803514e-05 0 0)
(-2.0449997 -0.26102473 0 1.5917829e-05 0 0)
(-2.066729 -0.26253059 0 -1.5100162e-05 0 0)
(-2.0464253 -0.26112245 0 1.4329698e-05 0 0)
(-2.0653721 -0.26243804 0 -1.361954e-05 0 0)
(-2.0477068 -0.26121013 0 1.2952366e-05 0 0)
(-2.0641509 -0.26235488 0 -1.233891e-05 0 0)
(-2.0488632 -0.26128907 0 1.176469e-05 0 0)
(-2.063047 -0.26227985 0 -1.1238587e-05 0 0)
(-2.0499116 -0.26136044 0 1.0748433e-05 0 0)
(-2.0620439 -0.26221185 0 -1.0301665e-05 0 0)
(-2.0508676 -0.26142532 0 9.8880123e-06 0 0)
(-2.0611268 -0.26214985 0 -9.5137903e-06 0 0)
(-2.0517452 -0.26148465 0 9.1702919e-06 0 0)
(-2.0602819 -0.26209296 0 -8.8629771e-06 0 0)
(-2.0525573 -0.26153931 0 8.5844637e-06 0 0)
(-2.0594969 -0.26204032 0 -8.3395619e-06 0 0)
(-2.0533158 -0.26159011 0 8.1220069e-06 0 0)
(-2.0587602 -0.26199116 0 -7.9364674e-06 0 0)
(-2.0540313 -0.26163776 0 7.7766752e-06 0 0)
(-2.0580596 -0.2619447 0 -7.6493093e-06 0 0)
(-2.0547136 -0.26168287 0 7.5551807e-06 0 0)
(-2.0574003 -0.26190106 0 -7.4372865e-06 0 0)
(-2.0554763 -0.26173202 0 7.6213116e-06 0 0)
(-2.0572076 -0.26188817 0 -7.4254193e-06 0 0)
(-1.2611381 -0.57098715 0 -0.21699614 0 0)
(-2.5231854 -0.29425208 0 -0.0029390354 0 0)
(-1.8928616 -0.25283471 0 -0.00084578682 0 0)
(-1.975844 -0.25677547 0 -3.3802527e-05 0 0)
(-1.8681737 -0.24925217 0 3.0008411e-05 0 0)
(-1.9446922 -0.25491199 0 -6.0003033e-05 0 0)
(-1.8709381 -0.24943015 0 5.2994325e-05 0 0)
(-1.9379958 -0.25444347 0 -5.2049593e-05 0 0)
(-1.875299 -0.24975323 0 4.9293467e-05 0 0)
(-1.9340101 -0.25415232 0 -4.6697412e-05 0 0)
(-1.8788071 -0.25001728 0 4.3899669e-05 0 0)
(-1.9306229 -0.25390151 0 -4.146764e-05 0 0)
(-1.8818742 -0.25024853 0 3.8996367e-05 0 0)
(-1.9276533 -0.25368108 0 -3.6792144e-05 0 0)
(-1.8846044 -0.25045418 0 3.4640237e-05 0 0)
(-1.9250306 -0.25348626 0 -3.2677263e-05 0 0)
(-1.8870341 -0.25063694 0 3.0793072e-05 0 0)
(-1.9227066 -0.25331357 0 -2.9057839e-05 0 0)
(-1.8891953 -0.25079931 0 2.7403909e-05 0 0)
(-1.9206435 -0.25316026 0 -2.5875267e-05 0 0)
(-1.891119 -0.25094364 0 2.4423391e-05 0 0)
(-1.9188091 -0.25302395 0 -2.3079808e-05 0 0)
(-1.892833 -0.25107207 0 2.1806773e-05 0 0)
(-1.9171753 -0.2529026 0 -2.0628436e-05 0 0)
(-1.8943626 -0.25118653 0 1.9514355e-05 0 0)
(-1.9157173 -0.25279437 0 -1.8483578e-05 0 0)
(-1.8957305 -0.25128871 0 1.7511171e-05 0 0)
(-1.9144131 -0.25269764 0 -1.6612374e-05 0 0)
(-1.8969569 -0.25138015 0 1.5766579e-05 0 0)
(-1.913243 -0.25261096 0 -1.4986124e-05 0 0)
(-1.8980599 -0.25146222 0 1.4253861e-05 0 0)
(-1.9121894 -0.25253305 0 -1.3579873e-05 0 0)
(-1.8990559 -0.25153613 0 1.294982e-05 0 0)
(-1.9112365 -0.25246273 0 -1.2372043e-05 0 0)
(-1.8999595 -0.251603 0 1.1834489e-05 0 0)
(-1.9103701 -0.25239897 0 -1.134416e-05 0 0)
(-1.9007842 -0.2516638 0 1.0890878e-05 0 0)
(-1.9095773 -0.25234082 0 -1.0480619e-05 0 0)
(-1.9015419 -0.25171944 0 1.0104759e-05 0 0)
(-1.9088464 -0.25228741 0 -9.7685302e-06 0 0)
(-1.9022439 -0.25177074 0 9.4646663e-06 0 0)
(-1.9081666 -0.25223797 0 -9.1978382e-06 0 0)
(-1.9029005 -0.25181845 0 8.961991e-06 0 0)
(-1.9075278 -0.25219178 0 -8.7621856e-06 0 0)
(-1.9035209 -0.25186325 0 8.5907361e-06 0 0)
(-1.9069195 -0.25214809 0 -8.4608496e-06 0 0)
(-1.9041122 -0.25190555 0 8.3708769e-06 0 0)
(-1.9063366 -0.25210618 0 -8.2012687e-06 0 0)
(-1.9047428 -0.25194813 0 8.773922e-06 0 0)
(-1.9060784 -0.25208748 0 -8.0809429e-06 0 0)
(-1.1800217 -0.5391172 0 -0.20265652 0 0)
(-2.2884425 -0.27923153 0 -0.0033859274 0 0)
(-1.8109469 -0.24835258 0 -0.0012668128 0 0)
(-1.8737651 -0.25014041 0 -5.8017999e-05 0 0)
(-1.775478 -0.24291549 0 1.3855311e-05 0 0)
(-1.8432506 -0.24823187 0 -5.9499183e-05 0 0)
(-1.7767796 -0.24300678 0 5.0292065e-05 0 0)
(-1.8369904 -0.24778072 0 -5.0216791e-05 0 0)
(-1.780621 -0.24331057 0 4.7798204e-05 0 0)
(-1.8334167 -0.24750638 0 -4.5328104e-05 0 0)
(-1.7837756 -0.24356265 0 4.2590566e-05 0 0)
(-1.8303766 -0.24726787 0 -4.027867e-05 0 0)
(-1.7865329 -0.24378327 0 3.7848543e-05 0 0)
(-1.8277069 -0.24705777 0 -3.5730083e-05 0 0)
(-1.7889873 -0.24397945 0 3.3627631e-05 0 0)
(-1.8253487 -0.24687202 0 -3.1730681e-05 0 0)
(-1.7911719 -0.24415383 0 2.9895674e-05 0 0)
(-1.8232593 -0.24670737 0 -2.8215298e-05 0 0)
(-1.7931158 -0.24430879 0 2.6606557e-05 0 0)
(-1.8214044 -0.24656117 0 -2.5125073e-05 0 0)
(-1.7948461 -0.24444654 0 2.37136e-05 0 0)
(-1.8197551 -0.24643118 0 -2.2411034e-05 0 0)
(-1.7963883 -0.24456915 0 2.1173752e-05 0 0)
(-1.8182861 -0.24631543 0 -2.0031204e-05 0 0)
(-1.7977647 -0.24467842 0 1.8948598e-05 0 0)
(-1.816975 -0.24621218 0 -1.7949036e-05 0 0)
(-1.7989959 -0.244776 0 1.7004235e-05 0 0)
(-1.8158021 -0.24611988 0 -1.6132613e-05 0 0)
(-1.8001 -0.24486335 0 1.5310932e-05 0 0)
(-1.8147496 -0.24603715 0 -1.4554074e-05 0 0)
(-1.8010932 -0.24494176 0 1.3842786e-05 0 0)
(-1.8138017 -0.24596275 0 -1.3189214e-05 0 0)
(-1.8019903 -0.24501241 0 1.2577315e-05 0 0)
(-1.8129441 -0.24589559 0 -1.2017129e-05 0 0)
(-1.8028045 -0.24507634 0 1.1495204e-05 0 0)
(-1.8121642 -0.24583465 0 -1.1019972e-05 0 0)
(-1.8035477 -0.24513451 0 1.0580083e-05 0 0)
(-1.8114502 -0.24577905 0 -1.0182747e-05 0 0)
(-1.8042309 -0.24518776 0 9.8183379e-06 0 0)
(-1.8107917 -0.24572795 0 -9.4932014e-06 0 0)
(-1.8048641 -0.24523689 0 9.1992314e-06 0 0)
(-1.8101788 -0.24568061 0 -8.9421175e-06 0 0)
(-1.8054566 -0.24528261 0 8.715167e-06 0 0)
(-1.8096026 -0.24563635 0 -8.5246377e-06 0 0)
(-1.8060168 -0.24532558 0 8.3613654e-06 0 0)
(-1.8090534 -0.24559447 0 -8.2445894e-06 0 0)
(-1.806551 -0.24536616 0 8.164784e-06 0 0)
(-1.808524 -0.24555396 0 -7.9904648e-06 0 0)
(-1.8071123 -0.24540553 0 8.7870116e-06 0 0)
(-1.8082469 -0.24553421 0 -8.2927704e-06 0 0)
(-1.1342558 -0.51391668 0 -0.18822922 0 0)
(-2.1022105 -0.26801117 0 -0.0040629845 0 0)
(-1.7268602 -0.24374654 0 -0.0017324875 0 0)
(-1.7749788 -0.24353971 0 -8.5013541e-05 0 0)
(-1.6847742 -0.23659455 0 -1.1287259e-05 0 0)
(-1.7451691 -0.24156169 0 -5.3915801e-05 0 0)
(-1.6847018 -0.23658548 0 4.273889e-05 0 0)
(-1.7391633 -0.24112182 0 -4.3734191e-05 0 0)
(-1.6880462 -0.23686809 0 4.2035379e-05 0 0)
(-1.7359112 -0.24086328 0 -3.9894166e-05 0 0)
(-1.6908969 -0.23710815 0 3.7473231e-05 0 0)
(-1.7331564 -0.24063674 0 -3.5494054e-05 0 0)
(-1.6933931 -0.23731816 0 3.331938e-05 0 0)
(-1.7307339 -0.24043667 0 -3.1477236e-05 0 0)
(-1.6956148 -0.23750489 0 2.9612737e-05 0 0)
(-1.7285936 -0.24025974 0 -2.7949767e-05 0 0)
(-1.6975926 -0.23767091 0 2.6329916e-05 0 0)
(-1.7266974 -0.2401029 0 -2.485245e-05 0 0)
(-1.6993527 -0.23781844 0 2.3434726e-05 0 0)
(-1.7250142 -0.23996362 0 -2.2130864e-05 0 0)
(-1.7009198 -0.23794963 0 2.0887716e-05 0 0)
(-1.7235177 -0.23983976 0 -1.9740974e-05 0 0)
(-1.7023166 -0.2380664 0 1.8651479e-05 0 0)
(-1.7221847 -0.23972946 0 -1.7645539e-05 0 0)
(-1.7035635 -0.2381705 0 1.6692336e-05 0 0)
(-1.7209952 -0.23963104 0 -1.5812282e-05 0 0)
(-1.7046789 -0.23826349 0 1.4980466e-05 0 0)
(-1.719931 -0.23954304 0 -1.4213075e-05 0 0)
(-1.7056793 -0.23834674 0 1.3489691e-05 0 0)
(-1.718976 -0.23946415 0 -1.2823377e-05 0 0)
(-1.7065794 -0.2384215 0 1.2197223e-05 0 0)
(-1.7181159 -0.23939318 0 -1.1621888e-05 0 0)
(-1.7073925 -0.23848889 0 1.1083282e-05 0 0)
(-1.7173378 -0.23932907 0 -1.059023e-05 0 0)
(-1.7081305 -0.23854991 0 1.0130911e-05 0 0)
(-1.7166301 -0.23927088 0 -9.7127599e-06 0 0)
(-1.7088044 -0.23860545 0 9.3257888e-06 0 0)
(-1.7159822 -0.23921775 0 -8.976389e-06 0 0)
(-1.7094238 -0.23865633 0 8.6560712e-06 0 0)
(-1.7153847 -0.2391689 0 -8.3705232e-06 0 0)
(-1.709998 -0.23870331 0 8.1126091e-06 0 0)
(-1.7148285 -0.23912361 0 -7.8874592e-06 0 0)
(-1.7105354 -0.23874707 0 7.6892677e-06 0 0)
(-1.7143056 -0.23908122 0 -7.5239942e-06 0 0)
(-1.7110436 -0.23878823 0 7.3821501e-06 0 0)
(-1.7138072 -0.23904108 0 -7.2875168e-06 0 0)
(-1.7115282 -0.23882714 0 7.2230823e-06 0 0)
(-1.7133242 -0.23900193 0 -7.0368234e-06 0 0)
(-1.7120284 -0.23886349 0 8.0703093e-06 0 0)
(-1.713029 -0.23898079 0 -7.6621325e-06 0 0)
(-1.0851711 -0.48435655 0 -0.17113894 0 0)
(-1.9179455 -0.25632169 0 -0.0044696756 0 0)
(-1.6357959 -0.23837871 0 -0.0021161286 0 0)
(-1.6783131 -0.2369554 0 -0.0001260888 0 0)
(-1.5957574 -0.23025126 0 -3.8073117e-05 0 0)
(-1.6500767 -0.23490462 0 -4.8796048e-05 0 0)
(-1.5948132 -0.23015545 0 3.5402853e-05 0 0)
(-1.644279 -0.23447155 0 -3.7272151e-05 0 0)
(-1.5977038 -0.2304177 0 3.635515e-05 0 0)
(-1.641287 -0.23422684 0 -3.4470264e-05 0 0)
(-1.600285 -0.23064661 0 3.2387248e-05 0 0)
(-1.6387784 -0.23401141 0 -3.0723999e-05 0 0)
(-1.6025551 -0.23084685 0 2.8809853e-05 0 0)
(-1.6365713 -0.23382072 0 -2.7238941e-05 0 0)
(-1.6045757 -0.23102485 0 2.5613774e-05 0 0)
(-1.6346209 -0.23365203 0 -2.4182074e-05 0 0)
(-1.6063746 -0.23118312 0 2.2777792e-05 0 0)
(-1.6328931 -0.23350247 0 -2.1501335e-05 0 0)
(-1.6079757 -0.23132379 0 2.0274683e-05 0 0)
(-1.6313595 -0.23336965 0 -1.9146977e-05 0 0)
(-1.6094014 -0.23144888 0 1.8072038e-05 0 0)
(-1.629996 -0.23325153 0 -1.7079939e-05 0 0)
(-1.6106723 -0.23156025 0 1.6138019e-05 0 0)
(-1.6287818 -0.23314631 0 -1.5267713e-05 0 0)
(-1.6118069 -0.23165955 0 1.4443645e-05 0 0)
(-1.6276982 -0.23305242 0 -1.3682283e-05 0 0)
(-1.612822 -0.23174826 0 1.2963148e-05 0 0)
(-1.6267288 -0.23296845 0 -1.229929e-05 0 0)
(-1.6137324 -0.23182771 0 1.1673881e-05 0 0)
(-1.6258589 -0.23289315 0 -1.10975e-05 0 0)
(-1.6145517 -0.23189908 0 1.0556144e-05 0 0)
(-1.6250756 -0.23282539 0 -1.0058494e-05 0 0)
(-1.6152917 -0.23196343 0 9.592831e-06 0 0)
(-1.6243669 -0.23276416 0 -9.1663935e-06 0 0)
(-1.6159635 -0.23202171 0 8.7693062e-06 0 0)
(-1.6237224 -0.23270856 0 -8.4077143e-06 0 0)
(-1.6165769 -0.23207479 0 8.0732412e-06 0 0)
(-1.6231325 -0.23265777 0 -7.7712087e-06 0 0)
(-1.6171407 -0.23212345 0 7.4944733e-06 0 0)
(-1.6225883 -0.23261105 0 -7.2478264e-06 0 0)
(-1.6176633 -0.2321684 0 7.0252836e-06 0 0)
(-1.6220821 -0.2325677 0 -6.8311589e-06 0 0)
(-1.6181523 -0.23221029 0 6.6606896e-06 0 0)
(-1.6216061 -0.2325271 0 -6.5191381e-06 0 0)
(-1.6186148 -0.23224974 0 6.3970345e-06 0 0)
(-1.6211526 -0.23248864 0 -6.3214895e-06 0 0)
(-1.6190556 -0.23228705 0 6.2669184e-06 0 0)
(-1.6207116 -0.23245087 0 -6.070491e-06 0 0)
(-1.6195037 -0.2323209 0 7.2733624e-06 0 0)
(-1.6204082 -0.23242875 0 -6.9551662e-06 0 0)
(-1.0523866 -0.46369155 0 -0.15942668 0 0)
(-1.7464669 -0.24525384 0 -0.00485968 0 0)
(-1.5430758 -0.23254117 0 -0.0024168716 0 0)
(-1.5831867 -0.23034817 0 -0.00018432419 0 0)
(-1.5085032 -0.22388938 0 -6.6930794e-05 0 0)
(-1.5577452 -0.22825475 0 -4.5562445e-05 0 0)
(-1.5072169 -0.22372011 0 2.9118292e-05 0 0)
(-1.5522178 -0.22782747 0 -3.1787134e-05 0 0)
(-1.5097093 -0.22396258 0 3.1626956e-05 0 0)
(-1.5494498 -0.22759515 0 -2.9886857e-05 0 0)
(-1.5120439 -0.22418078 0 2.8114531e-05 0 0)
(-1.5471594 -0.22739019 0 -2.6705914e-05 0 0)
(-1.5141109 -0.22437176 0 2.5014261e-05 0 0)
(-1.5451454 -0.22720841 0 -2.3670087e-05 0 0)
(-1.5159513 -0.22454147 0 2.2247382e-05 0 0)
(-1.5433653 -0.22704753 0 -2.1009405e-05 0 0)
(-1.5175899 -0.22469237 0 1.9787539e-05 0 0)
(-1.5417885 -0.22690489 0 -1.8679384e-05 0 0)
(-1.5190485 -0.22482652 0 1.7614445e-05 0 0)
(-1.540389 -0.2267782 0 -1.6634241e-05 0 0)
(-1.5203475 -0.22494582 0 1.570163e-05 0 0)
(-1.539145 -0.22666552 0 -1.4839057e-05 0 0)
(-1.5215055 -0.22505204 0 1.4021961e-05 0 0)
(-1.5380371 -0.22656515 0 -1.3265294e-05 0 0)
(-1.5225395 -0.22514677 0 1.2550408e-05 0 0)
(-1.5370485 -0.22647556 0 -1.1888515e-05 0 0)
(-1.5234646 -0.22523142 0 1.1264614e-05 0 0)
(-1.5361641 -0.22639543 0 -1.0687534e-05 0 0)
(-1.5242945 -0.22530724 0 1.0144896e-05 0 0)
(-1.5353706 -0.22632354 0 -9.6438989e-06 0 0)
(-1.5250413 -0.22537537 0 9.1741528e-06 0 0)
(-1.534656 -0.22625884 0 -8.7416128e-06 0 0)
(-1.5257159 -0.22543682 0 8.3375198e-06 0 0)
(-1.5340096 -0.22620036 0 -7.9668939e-06 0 0)
(-1.5263283 -0.22549249 0 7.6223012e-06 0 0)
(-1.5334217 -0.22614724 0 -7.3080618e-06 0 0)
(-1.5268874 -0.22554322 0 7.0178263e-06 0 0)
(-1.5328837 -0.22609869 0 -6.7553902e-06 0 0)
(-1.5274014 -0.22558974 0 6.5153073e-06 0 0)
(-1.5323875 -0.226054 0 -6.3010784e-06 0 0)
(-1.5278778 -0.22563274 0 6.108161e-06 0 0)
(-1.5319259 -0.22601252 0 -5.9397073e-06 0 0)
(-1.5283235 -0.22567283 0 5.792229e-06 0 0)
(-1.531492 -0.22597366 0 -5.6699198e-06 0 0)
(-1.528745 -0.22571062 0 5.5637137e-06 0 0)
(-1.5310789 -0.22593682 0 -5.5029691e-06 0 0)
(-1.5291465 -0.22574639 0 5.4538958e-06 0 0)
(-1.530676 -0.22590044 0 -5.2475899e-06 0 0)
(-1.5295487 -0.22577804 0 6.5681381e-06 0 0)
(-1.5303705 -0.2258775 0 -6.3152831e-06 0 0)
(-1.0118274 -0.43678604 0 -0.14419476 0 0)
(-1.5850409 -0.23419218 0 -0.0050201701 0 0)
(-1.4502218 -0.22617296 0 -0.0025837795 0 0)
(-1.4894221 -0.22371785 0 -0.00026655326 0 0)
(-1.4229497 -0.21751107 0 -0.00010105911 0 0)
(-1.4680484 -0.22161025 0 -4.487031e-05 0 0)
(-1.4219346 -0.2172817 0 2.3303474e-05 0 0)
(-1.4629195 -0.22118798 0 -2.7120704e-05 0 0)
(-1.4241052 -0.21750448 0 2.7596242e-05 0 0)
(-1.4603556 -0.22096668 0 -2.5935631e-05 0 0)
(-1.4262133 -0.2177121 0 2.4452768e-05 0 0)
(-1.458261 -0.22077167 0 -2.3251595e-05 0 0)
(-1.4280954 -0.21789413 0 2.1754244e-05 0 0)
(-1.4564221 -0.22059846 0 -2.0603928e-05 0 0)
(-1.4297725 -0.21805586 0 1.935519e-05 0 0)
(-1.4547968 -0.22044513 0 -1.8283718e-05 0 0)
(-1.4312658 -0.21819966 0 1.7218478e-05 0 0)
(-1.4533572 -0.22030916 0 -1.6254945e-05 0 0)
(-1.4325952 -0.2183275 0 1.5328916e-05 0 0)
(-1.4520796 -0.22018839 0 -1.4475422e-05 0 0)
(-1.4337793 -0.21844122 0 1.3665091e-05 0 0)
(-1.4509439 -0.22008097 0 -1.2913772e-05 0 0)
(-1.434835 -0.21854248 0 1.220392e-05 0 0)
(-1.4499326 -0.21998526 0 -1.1544856e-05 0 0)
(-1.4357778 -0.2186328 0 1.0923771e-05 0 0)
(-1.4490303 -0.21989983 0 -1.0347304e-05 0 0)
(-1.4366214 -0.21871351 0 9.8052173e-06 0 0)
(-1.4482231 -0.21982339 0 -9.3026584e-06 0 0)
(-1.4373782 -0.21878583 0 8.8311228e-06 0 0)
(-1.4474988 -0.21975482 0 -8.3948553e-06 0 0)
(-1.4380593 -0.21885084 0 7.9866153e-06 0 0)
(-1.4468465 -0.21969307 0 -7.6099745e-06 0 0)
(-1.4386746 -0.21890948 0 7.2587534e-06 0 0)
(-1.4462566 -0.21963725 0 -6.9360317e-06 0 0)
(-1.4392332 -0.21896263 0 6.6365029e-06 0 0)
(-1.44572 -0.21958652 0 -6.3628886e-06 0 0)
(-1.4397433 -0.21901108 0 6.1106058e-06 0 0)
(-1.445229 -0.21954014 0 -5.8821102e-06 0 0)
(-1.4402121 -0.21905553 0 5.6734335e-06 0 0)
(-1.4447762 -0.21949743 0 -5.4869417e-06 0 0)
(-1.4406467 -0.21909663 0 5.3193422e-06 0 0)
(-1.444355 -0.21945776 0 -5.1727608e-06 0 0)
(-1.4410531 -0.21913498 0 5.0448081e-06 0 0)
(-1.4439593 -0.21942058 0 -4.9386841e-06 0 0)
(-1.4414375 -0.21917115 0 4.8457712e-06 0 0)
(-1.4435825 -0.21938532 0 -4.7970641e-06 0 0)
(-1.4418036 -0.21920542 0 4.7511007e-06 0 0)
(-1.4432144 -0.21935035 0 -4.5373216e-06 0 0)
(-1.4421651 -0.21923513 0 5.9318357e-06 0 0)
(-1.4429117 -0.21932679 0 -5.7335187e-06 0 0)
(-0.98398682 -0.41668772 0 -0.1327398 0 0)
(-1.4374472 -0.22421519 0 -0.0053345555 0 0)
(-1.3598641 -0.21953934 0 -0.0026567344 0 0)
(-1.3971326 -0.21705861 0 -0.0003682276 0 0)
(-1.3390353 -0.21109495 0 -0.00013575296 0 0)
(-1.3808314 -0.21495892 0 -4.4993784e-05 0 0)
(-1.3389241 -0.21083645 0 1.7964376e-05 0 0)
(-1.3763275 -0.21455126 0 -2.298452e-05 0 0)
(-1.3409025 -0.21104344 0 2.4006895e-05 0 0)
(-1.3739789 -0.21434096 0 -2.2395965e-05 0 0)
(-1.3428128 -0.21124092 0 2.1183747e-05 0 0)
(-1.3720641 -0.21415552 0 -2.016031e-05 0 0)
(-1.3445268 -0.21141429 0 1.8839118e-05 0 0)
(-1.3703847 -0.21399061 0 -1.7861521e-05 0 0)
(-1.3460552 -0.21156829 0 1.6768213e-05 0 0)
(-1.3689007 -0.21384456 0 -1.5845968e-05 0 0)
(-1.3474163 -0.21170522 0 1.4920465e-05 0 0)
(-1.3675861 -0.21371505 0 -1.4086562e-05 0 0)
(-1.3486281 -0.21182696 0 1.3284506e-05 0 0)
(-1.3664197 -0.21360001 0 -1.2544546e-05 0 0)
(-1.3497076 -0.21193527 0 1.1843378e-05 0 0)
(-1.3653829 -0.21349768 0 -1.1191715e-05 0 0)
(-1.3506703 -0.21203173 0 1.0577618e-05 0 0)
(-1.3644596 -0.21340649 0 -1.0005961e-05 0 0)
(-1.35153 -0.21211777 0 9.4686391e-06 0 0)
(-1.3636359 -0.21332508 0 -8.9686593e-06 0 0)
(-1.3522994 -0.21219469 0 8.4996345e-06 0 0)
(-1.362899 -0.21325223 0 -8.0637857e-06 0 0)
(-1.3529896 -0.21226362 0 7.6557481e-06 0 0)
(-1.3622378 -0.21318685 0 -7.2774149e-06 0 0)
(-1.3536109 -0.21232559 0 6.9241024e-06 0 0)
(-1.3616424 -0.21312797 0 -6.5974823e-06 0 0)
(-1.3541723 -0.21238151 0 6.2934739e-06 0 0)
(-1.3611038 -0.21307472 0 -6.0136078e-06 0 0)
(-1.354682 -0.21243222 0 5.7543109e-06 0 0)
(-1.360614 -0.21302631 0 -5.5170268e-06 0 0)
(-1.3551474 -0.21247846 0 5.2986116e-06 0 0)
(-1.3601657 -0.21298204 0 -5.1004478e-06 0 0)
(-1.3555752 -0.2125209 0 4.9197702e-06 0 0)
(-1.3597524 -0.21294125 0 -4.7580347e-06 0 0)
(-1.3559717 -0.21256016 0 4.6129606e-06 0 0)
(-1.359368 -0.21290335 0 -4.4858438e-06 0 0)
(-1.3563425 -0.21259681 0 4.3751799e-06 0 0)
(-1.3590068 -0.21286779 0 -4.283322e-06 0 0)
(-1.3566932 -0.2126314 0 4.2020963e-06 0 0)
(-1.3586632 -0.21283408 0 -4.1636197e-06 0 0)
(-1.3570271 -0.21266422 0 4.1196385e-06 0 0)
(-1.3583269 -0.21280051 0 -3.9010082e-06 0 0)
(-1.3573523 -0.2126922 0 5.3337414e-06 0 0)
(-1.3580305 -0.21277651 0 -5.1868756e-06 0 0)
(-0.95668848 -0.39583841 0 -0.12110384 0 0)
(-1.300977 -0.21408351 0 -0.0053605483 0 0)
(-1.2718997 -0.21228523 0 -0.0025389702 0 0)
(-1.3067461 -0.21042829 0 -0.00049565566 0 0)
(-1.2572876 -0.2046881 0 -0.00017217518 0 0)
(-1.2961872 -0.20830817 0 -4.5647795e-05 0 0)
(-1.2582401 -0.20438544 0 1.3207587e-05 0 0)
(-1.2924194 -0.20791658 0 -1.9170629e-05 0 0)
(-1.2601137 -0.204579 0 2.0796856e-05 0 0)
(-1.2902983 -0.20771771 0 -1.9165147e-05 0 0)
(-1.2618563 -0.20476712 0 1.8226778e-05 0 0)
(-1.2885526 -0.20754167 0 -1.7350508e-05 0 0)
(-1.2634188 -0.20493221 0 1.6194552e-05 0 0)
(-1.28702 -0.2073848 0 -1.5371712e-05 0 0)
(-1.2648118 -0.20507876 0 1.4419979e-05 0 0)
(-1.2856653 -0.20724582 0 -1.3633183e-05 0 0)
(-1.2660523 -0.20520906 0 1.2834315e-05 0 0)
(-1.2844652 -0.20712256 0 -1.2118281e-05 0 0)
(-1.2671569 -0.20532491 0 1.1428524e-05 0 0)
(-1.2834004 -0.20701306 0 -1.0791795e-05 0 0)
(-1.268141 -0.20542798 0 1.0189518e-05 0 0)
(-1.282454 -0.20691564 0 -9.6284482e-06 0 0)
(-1.2690186 -0.2055198 0 9.1011064e-06 0 0)
(-1.2816113 -0.20682882 0 -8.6088898e-06 0 0)
(-1.2698025 -0.20560171 0 8.1474633e-06 0 0)
(-1.2808593 -0.2067513 0 -7.7169843e-06 0 0)
(-1.2705041 -0.20567495 0 7.3141638e-06 0 0)
(-1.2801867 -0.20668191 0 -6.9389196e-06 0 0)
(-1.2711337 -0.2057406 0 6.5884219e-06 0 0)
(-1.2795832 -0.20661963 0 -6.2627104e-06 0 0)
(-1.2717004 -0.20579964 0 5.9591707e-06 0 0)
(-1.2790397 -0.20656353 0 -5.6779747e-06 0 0)
(-1.2722125 -0.20585293 0 5.4167449e-06 0 0)
(-1.278548 -0.20651277 0 -5.1757864e-06 0 0)
(-1.2726775 -0.20590127 0 4.9529359e-06 0 0)
(-1.2781009 -0.20646662 0 -4.7486232e-06 0 0)
(-1.2731021 -0.20594536 0 4.5608762e-06 0 0)
(-1.2776918 -0.20642438 0 -4.3902226e-06 0 0)
(-1.2734925 -0.20598585 0 4.2348768e-06 0 0)
(-1.2773145 -0.20638545 0 -4.0955679e-06 0 0)
(-1.2738542 -0.20602333 0 3.9708352e-06 0 0)
(-1.2769636 -0.20634927 0 -3.8613051e-06 0 0)
(-1.2741926 -0.20605833 0 3.7661862e-06 0 0)
(-1.2766341 -0.2063153 0 -3.6871066e-06 0 0)
(-1.2745125 -0.20609138 0 3.6163506e-06 0 0)
(-1.2763206 -0.20628309 0 -3.5866445e-06 0 0)
(-1.2748172 -0.20612278 0 3.5440561e-06 0 0)
(-1.2760135 -0.20625091 0 -3.3229929e-06 0 0)
(-1.2751097 -0.2061492 0 4.7634546e-06 0 0)
(-1.2757258 -0.20622663 0 -4.6694164e-06 0 0)
(-0.93420028 -0.3720302 0 -0.10661732 0 0)
(-1.1795735 -0.20467301 0 -0.0053166361 0 0)
(-1.1843415 -0.20508352 0 -0.0024994368 0 0)
(-1.2216095 -0.20364044 0 -0.00052151223 0 0)
(-1.1783968 -0.19822153 0 -0.00018430644 0 0)
(-1.2144614 -0.20165793 0 -4.2816926e-05 0 0)
(-1.1800372 -0.19793182 0 9.3667992e-06 0 0)
(-1.2112377 -0.20128631 0 -1.5696058e-05 0 0)
(-1.1817794 -0.19811236 0 1.7866042e-05 0 0)
(-1.2093094 -0.20109741 0 -1.6232911e-05 0 0)
(-1.1833623 -0.19829097 0 1.5535282e-05 0 0)
(-1.2077156 -0.20093018 0 -1.4792852e-05 0 0)
(-1.1847847 -0.19844797 0 1.3787762e-05 0 0)
(-1.2063169 -0.20078105 0 -1.3105407e-05 0 0)
(-1.1860536 -0.19858731 0 1.2282504e-05 0 0)
(-1.2050806 -0.20064888 0 -1.1619141e-05 0 0)
(-1.1871837 -0.1987112 0 1.0935299e-05 0 0)
(-1.2039856 -0.20053165 0 -1.0326739e-05 0 0)
(-1.18819 -0.19882136 0 9.7389798e-06 0 0)
(-1.203014 -0.2004275 0 -9.1963582e-06 0 0)
(-1.1890867 -0.19891938 0 8.6839173e-06 0 0)
(-1.2021504 -0.20033483 0 -8.2054113e-06 0 0)
(-1.1898865 -0.1990067 0 7.7568909e-06 0 0)
(-1.2013815 -0.20025224 0 -7.3370562e-06 0 0)
(-1.190601 -0.19908463 0 6.9445897e-06 0 0)
(-1.2006955 -0.20017848 0 -6.5774233e-06 0 0)
(-1.1912405 -0.19915431 0 6.2347606e-06 0 0)
(-1.2000817 -0.20011245 0 -5.9147135e-06 0 0)
(-1.1918145 -0.19921679 0 5.6165022e-06 0 0)
(-1.1995311 -0.20005316 0 -5.3387087e-06 0 0)
(-1.1923312 -0.19927299 0 5.0803969e-06 0 0)
(-1.1990351 -0.19999974 0 -4.8405564e-06 0 0)
(-1.1927983 -0.19932373 0 4.6181964e-06 0 0)
(-1.1985865 -0.1999514 0 -4.4126523e-06 0 0)
(-1.1932223 -0.19936978 0 4.2229124e-06 0 0)
(-1.1981785 -0.19990742 0 -4.0486006e-06 0 0)
(-1.1936096 -0.1994118 0 3.8887044e-06 0 0)
(-1.1978052 -0.19986716 0 -3.7430675e-06 0 0)
(-1.1939657 -0.1994504 0 3.6107087e-06 0 0)
(-1.1974609 -0.19983004 0 -3.4917722e-06 0 0)
(-1.1942956 -0.19948614 0 3.3854673e-06 0 0)
(-1.1971408 -0.19979552 0 -3.291876e-06 0 0)
(-1.1946043 -0.19951954 0 3.2107839e-06 0 0)
(-1.1968401 -0.1997631 0 -3.1431942e-06 0 0)
(-1.1948961 -0.1995511 0 3.0818768e-06 0 0)
(-1.1965543 -0.19973234 0 -3.0596619e-06 0 0)
(-1.1951739 -0.19958111 0 3.0182083e-06 0 0)
(-1.196274 -0.19970155 0 -2.7968769e-06 0 0)
(-1.1954372 -0.19960613 0 4.2189152e-06 0 0)
(-1.195997 -0.19967712 0 -4.1809892e-06 0 0)
(-0.92011748 -0.35689925 0 -0.098075261 0 0)
(-1.0742145 -0.19557532 0 -0.0051704321 0 0)
(-1.0979389 -0.1979058 0 -0.0024994664 0 0)
(-1.1421349 -0.19667312 0 -0.00042481974 0 0)
(-1.1023321 -0.19164142 0 -0.00015781497 0 0)
(-1.1355945 -0.19498178 0 -3.00691e-05 0 0)
(-1.1042841 -0.19146378 0 8.6249916e-06 0 0)
(-1.1327395 -0.19465571 0 -1.1807508e-05 0 0)
(-1.1058971 -0.1916418 0 1.5400665e-05 0 0)
(-1.1309911 -0.19447926 0 -1.3501647e-05 0 0)
(-1.1073386 -0.19181225 0 1.3100275e-05 0 0)
(-1.1295397 -0.19432086 0 -1.2453876e-05 0 0)
(-1.1086341 -0.19196158 0 1.1595237e-05 0 0)
(-1.128265 -0.19417926 0 -1.1037748e-05 0 0)
(-1.1097896 -0.19209399 0 1.0333394e-05 0 0)
(-1.1271379 -0.19405369 0 -9.7823076e-06 0 0)
(-1.1108185 -0.19221169 0 9.2033099e-06 0 0)
(-1.1261395 -0.19394229 0 -8.6928761e-06 0 0)
(-1.1117347 -0.19231635 0 8.1979499e-06 0 0)
(-1.1252536 -0.19384331 0 -7.7412855e-06 0 0)
(-1.1125512 -0.1924095 0 7.3105973e-06 0 0)
(-1.1244663 -0.19375523 0 -6.9074933e-06 0 0)
(-1.1132796 -0.19249249 0 6.530707e-06 0 0)
(-1.1237652 -0.19367671 0 -6.1769611e-06 0 0)
(-1.1139304 -0.19256655 0 5.8472594e-06 0 0)
(-1.1231397 -0.19360659 0 -5.5378879e-06 0 0)
(-1.114513 -0.1926328 0 5.2499825e-06 0 0)
(-1.1225801 -0.1935438 0 -4.9803121e-06 0 0)
(-1.1150359 -0.19269221 0 4.7296962e-06 0 0)
(-1.122078 -0.19348741 0 -4.4956274e-06 0 0)
(-1.1155067 -0.19274566 0 4.2784868e-06 0 0)
(-1.1216258 -0.19343658 0 -4.0763756e-06 0 0)
(-1.1159323 -0.19279395 0 3.8893979e-06 0 0)
(-1.1212167 -0.19339057 0 -3.7161557e-06 0 0)
(-1.1163188 -0.19283778 0 3.5565522e-06 0 0)
(-1.1208447 -0.1933487 0 -3.4095966e-06 0 0)
(-1.1166718 -0.19287778 0 3.275042e-06 0 0)
(-1.1205042 -0.19331036 0 -3.1522051e-06 0 0)
(-1.1169964 -0.19291455 0 3.0407488e-06 0 0)
(-1.1201903 -0.193275 0 -2.9403628e-06 0 0)
(-1.1172972 -0.19294861 0 2.8507913e-06 0 0)
(-1.1198984 -0.19324209 0 -2.7716863e-06 0 0)
(-1.1175785 -0.19298045 0 2.7032887e-06 0 0)
(-1.1196243 -0.19321117 0 -2.6460734e-06 0 0)
(-1.1178445 -0.19301056 0 2.5933164e-06 0 0)
(-1.1193638 -0.19318183 0 -2.5774823e-06 0 0)
(-1.1180978 -0.19303923 0 2.5371645e-06 0 0)
(-1.1191082 -0.1931524 0 -2.3175605e-06 0 0)
(-1.1183347 -0.19306296 0 3.6988632e-06 0 0)
(-1.1188431 -0.19312795 0 -3.7213815e-06 0 0)
(-0.90275607 -0.33444186 0 -0.084847105 0 0)
(-0.98889514 -0.18691933 0 -0.0044455981 0 0)
(-1.0131546 -0.19018516 0 -0.0026466083 0 0)
(-1.0625864 -0.18991832 0 -0.00047782686 0 0)
(-1.0283669 -0.18517229 0 -0.00016280558 0 0)
(-1.0592293 -0.18834042 0 -2.646572e-05 0 0)
(-1.0309455 -0.18500361 0 5.9864164e-06 0 0)
(-1.0569076 -0.18803144 0 -8.7633274e-06 0 0)
(-1.0324846 -0.18516984 0 1.3018344e-05 0 0)
(-1.0553384 -0.18786406 0 -1.1040108e-05 0 0)
(-1.0337989 -0.18533143 0 1.0865119e-05 0 0)
(-1.054018 -0.1877138 0 -1.0317085e-05 0 0)
(-1.0349772 -0.1854732 0 9.5895656e-06 0 0)
(-1.0528568 -0.1875794 0 -9.1470629e-06 0 0)
(-1.0360279 -0.18559888 0 8.5506809e-06 0 0)
(-1.0518301 -0.18746018 0 -8.1025906e-06 0 0)
(-1.0369636 -0.1857106 0 7.6191503e-06 0 0)
(-1.0509207 -0.18735441 0 -7.198697e-06 0 0)
(-1.0377971 -0.18580996 0 6.7884082e-06 0 0)
(-1.0501137 -0.18726042 0 -6.4105304e-06 0 0)
(-1.0385398 -0.18589838 0 6.0543994e-06 0 0)
(-1.0493966 -0.18717678 0 -5.7203801e-06 0 0)
(-1.0392025 -0.18597718 0 5.4090278e-06 0 0)
(-1.048758 -0.1871022 0 -5.1158143e-06 0 0)
(-1.0397947 -0.18604752 0 4.8433736e-06 0 0)
(-1.0481883 -0.18703559 0 -4.5869243e-06 0 0)
(-1.0403249 -0.18611045 0 4.348981e-06 0 0)
(-1.0476786 -0.18697593 0 -4.1254289e-06 0 0)
(-1.0408009 -0.1861669 0 3.9182449e-06 0 0)
(-1.0472212 -0.18692234 0 -3.7241969e-06 0 0)
(-1.0412295 -0.1862177 0 3.5446281e-06 0 0)
(-1.0468092 -0.18687402 0 -3.3770432e-06 0 0)
(-1.041617 -0.1862636 0 3.2223551e-06 0 0)
(-1.0464366 -0.18683028 0 -3.0786666e-06 0 0)
(-1.0419689 -0.18630528 0 2.9465635e-06 0 0)
(-1.0460976 -0.18679045 0 -2.82463e-06 0 0)
(-1.0422904 -0.18634333 0 2.7131948e-06 0 0)
(-1.0457874 -0.18675397 0 -2.6112038e-06 0 0)
(-1.042586 -0.18637833 0 2.5188076e-06 0 0)
(-1.0455015 -0.1867203 0 -2.4353705e-06 0 0)
(-1.0428599 -0.18641075 0 2.3610397e-06 0 0)
(-1.0452355 -0.18668896 0 -2.2951515e-06 0 0)
(-1.0431161 -0.18644109 0 2.238283e-06 0 0)
(-1.0449858 -0.1866595 0 -2.190484e-06 0 0)
(-1.0433583 -0.18646978 0 2.14554e-06 0 0)
(-1.0447487 -0.18663153 0 -2.135129e-06 0 0)
(-1.0435891 -0.18649714 0 2.0961361e-06 0 0)
(-1.0445159 -0.18660345 0 -1.8801069e-06 0 0)
(-1.043802 -0.18651969 0 3.2018022e-06 0 0)
(-1.0442637 -0.1865791 0 -3.289736e-06 0 0)
(-0.88990779 -0.32133656 0 -0.077979979 0 0)
(-0.90958733 -0.17887479 0 -0.0041569164 0 0)
(-0.93736751 -0.18266323 0 -0.0024467439 0 0)
(-0.98665096 -0.18293485 0 -0.00042404662 0 0)
(-0.95704642 -0.17861151 0 -0.0001391017 0 0)
(-0.98548291 -0.18166743 0 -1.5618682e-05 0 0)
(-0.96000115 -0.17852668 0 5.7507166e-06 0 0)
(-0.98369468 -0.18140465 0 -5.3482172e-06 0 0)
(-0.9615252 -0.17869319 0 1.1022872e-05 0 0)
(-0.98232682 -0.18125033 0 -8.727301e-06 0 0)
(-0.96274308 -0.17884798 0 8.8344822e-06 0 0)
(-0.98113785 -0.18110864 0 -8.3513999e-06 0 0)
(-0.96381885 -0.17898276 0 7.7527083e-06 0 0)
(-0.98008431 -0.18098133 0 -7.4125974e-06 0 0)
(-0.96477459 -0.17910202 0 6.916176e-06 0 0)
(-0.97915092 -0.18086828 0 -6.5623072e-06 0 0)
(-0.96562491 -0.17920798 0 6.1663776e-06 0 0)
(-0.97832369 -0.18076795 0 -5.8285899e-06 0 0)
(-0.96638212 -0.17930221 0 5.4956774e-06 0 0)
(-0.97758965 -0.18067879 0 -5.1902141e-06 0 0)
(-0.967057 -0.17938608 0 4.9022353e-06 0 0)
(-0.97693726 -0.18059943 0 -4.6316997e-06 0 0)
(-0.96765919 -0.17946084 0 4.380169e-06 0 0)
(-0.97635638 -0.18052867 0 -4.1425637e-06 0 0)
(-0.96819737 -0.17952758 0 3.9224815e-06 0 0)
(-0.97583804 -0.18046544 0 -3.7146355e-06 0 0)
(-0.96867933 -0.1795873 0 3.5223838e-06 0 0)
(-0.97537432 -0.18040881 0 -3.3411762e-06 0 0)
(-0.96911204 -0.17964088 0 3.1737172e-06 0 0)
(-0.97495819 -0.18035793 0 -3.016407e-06 0 0)
(-0.96950176 -0.17968911 0 2.8712068e-06 0 0)
(-0.97458338 -0.18031204 0 -2.7353096e-06 0 0)
(-0.96985412 -0.17973271 0 2.6101595e-06 0 0)
(-0.97424429 -0.18027048 0 -2.4935895e-06 0 0)
(-0.9701742 -0.17977231 0 2.3866427e-06 0 0)
(-0.97393588 -0.18023263 0 -2.287664e-06 0 0)
(-0.97046658 -0.17980848 0 2.1973741e-06 0 0)
(-0.97365362 -0.18019795 0 -2.1145e-06 0 0)
(-0.97073546 -0.17984175 0 2.0395289e-06 0 0)
(-0.97339339 -0.18016593 0 -1.9716261e-06 0 0)
(-0.97098466 -0.17987259 0 1.9112153e-06 0 0)
(-0.97315141 -0.18013611 0 -1.857428e-06 0 0)
(-0.97121773 -0.17990146 0 1.811064e-06 0 0)