/*--------------------------------*- C++ -*----------------------------------*\
| =========                 |                                                 |
| \\      /  F ield         | OpenFOAM: The Open Source CFD Toolbox           |
|  \\    /   O peration     | Version:  2312                                  |
|   \\  /    A nd           | Website:  www.openfoam.com                      |
|    \\/     M anipulation  |                                                 |
\*---------------------------------------------------------------------------*/
FoamFile
{
    version     2.0;
    format      ascii;
    arch        "LSB;label=32;scalar=64";
    class       volScalarField;
    location    "3";
    object      T;
}
// * * * * * * * * * * * * * * * * * * * * * * * * * * * * * * * * * * * * * //

dimensions      [0 0 0 1 0 0 0];

internalField   nonuniform List<scalar> 
4000
(
329.07575
327.96555
327.813
327.73486
327.67981
327.62672
327.58569
327.54115
327.50518
327.4649
327.43145
327.39373
327.36173
327.32574
327.29465
327.25988
327.22941
327.19557
327.16553
327.13239
327.10267
327.0701
327.04062
327.0085
326.97922
326.94747
326.91834
326.8869
326.85791
326.82672
326.79784
326.76685
326.7381
326.70726
326.67863
326.64792
326.61941
326.58879
326.56042
326.52986
326.50164
326.47111
326.44307
326.41254
326.38472
326.35415
326.3266
326.29588
326.2688
326.2373
331.05199
329.04272
328.64659
328.46943
328.36136
328.25925
328.19318
328.11667
328.06577
328.00202
327.95867
327.90262
327.86362
327.81272
327.77648
327.72925
327.69486
327.65038
327.61729
327.57494
327.54281
327.50215
327.47075
327.43146
327.40062
327.36245
327.33209
327.29482
327.26487
327.22835
327.19876
327.16284
327.13361
327.09816
327.06929
327.03421
327.00572
326.9709
326.94282
326.90819
326.88057
326.84603
326.81896
326.78441
326.75798
326.72329
326.69769
326.66257
326.63838
326.601
332.35168
330.09267
329.47476
329.20098
329.04057
328.8901
328.79903
328.69092
328.62505
328.53808
328.48475
328.41055
328.36449
328.29883
328.25736
328.19779
328.15941
328.10441
328.06821
328.01674
327.98214
327.93347
327.90009
327.85368
327.82127
327.77671
327.74509
327.70204
327.6711
327.62928
327.59897
327.55814
327.52842
327.48838
327.45926
327.41982
327.39134
327.35234
327.32454
327.28584
327.25882
327.22026
327.19415
327.15558
327.13053
327.09173
327.06805
327.02853
327.00719
326.96416
333.25663
331.08919
330.28904
329.92498
329.71417
329.51691
329.4012
329.26229
329.18149
329.07181
329.00847
328.91649
328.86329
328.78316
328.73637
328.6647
328.62225
328.55691
328.51752
328.45708
328.41995
328.3634
328.32799
328.27458
328.24052
328.18968
328.15674
328.10799
328.07602
328.02899
327.9979
327.95223
327.92199
327.8774
327.84801
327.80425
327.77576
327.7326
327.70508
327.66231
327.63588
327.59332
327.56814
327.52556
327.50187
327.45895
327.43717
327.39325
327.37468
327.32634
333.91319
332.0085
331.07832
330.63511
330.37773
330.13645
329.99695
329.82858
329.73309
329.60156
329.52824
329.41909
329.35871
329.26455
329.21239
329.12897
329.08237
329.00698
328.96432
328.89515
328.85541
328.79118
328.75366
328.69342
328.65766
328.60068
328.56637
328.51205
328.479
328.42684
328.39494
328.34452
328.31372
328.26466
328.23497
328.18695
328.15842
328.11115
328.08388
328.03709
328.01123
327.96468
327.94042
327.89384
327.87147
327.82446
327.80453
327.75625
327.7403
327.68706
334.40416
332.83312
331.83035
331.32376
331.02584
330.74467
330.58293
330.38708
330.27745
330.12528
330.04219
329.9167
329.84919
329.74165
329.68409
329.5894
329.53861
329.45356
329.40758
329.33
329.28758
329.21594
329.17624
329.10941
329.07187
329.00895
328.97321
328.91348
328.8793
328.82217
328.78941
328.73435
328.70296
328.64953
328.61951
328.56731
328.53872
328.48741
328.46036
328.40962
328.38429
328.33381
328.31043
328.25988
328.2388
328.18773
328.16956
328.11702
328.10348
328.04578
334.77915
333.55213
332.53321
331.98263
331.6524
331.33693
331.15531
330.93464
330.8118
330.6406
330.54814
330.40743
330.33297
330.21285
330.14996
330.04464
329.98965
329.89545
329.84612
329.76055
329.7154
329.63671
329.59478
329.52164
329.48228
329.41366
329.37644
329.31152
329.27616
329.21423
329.18058
329.12104
329.08903
329.03135
329.00098
328.94471
328.91604
328.86077
328.83393
328.77929
328.75448
328.70012
328.67759
328.62315
328.60329
328.54823
328.53173
328.47503
328.46368
328.40194
335.07053
334.16217
333.17674
332.60345
332.25107
331.90824
331.70995
331.46779
331.33312
331.14491
331.04375
330.88918
330.8081
330.67641
330.60837
330.49318
330.43409
330.33134
330.27868
330.18562
330.13775
330.05241
330.00824
329.92914
329.88793
329.81391
329.77519
329.70532
329.66876
329.60224
329.56768
329.50383
329.47119
329.40941
329.37868
329.31846
329.28971
329.23059
329.20394
329.14551
329.12118
329.06304
329.04132
328.98306
328.96436
328.90541
328.89047
328.82977
328.82032
328.75497
335.29987
334.66558
333.75342
333.17876
332.81564
332.45351
332.24255
331.9829
331.8382
331.6354
331.52647
331.35969
331.27252
331.13045
331.05754
330.9334
330.87038
330.75981
330.70392
330.60396
330.55342
330.46191
330.41552
330.33087
330.28782
330.20875
330.16852
330.09399
330.05623
329.98538
329.9499
329.88196
329.84867
329.78299
329.75188
329.68788
329.65903
329.5962
329.56974
329.50763
329.48377
329.42196
329.401
329.33904
329.32143
329.25872
329.24519
329.18069
329.17285
329.10428
335.48279
335.07018
334.25905
333.70252
333.34052
332.96787
332.74891
332.47631
332.32383
332.10922
331.99374
331.81663
331.72408
331.573
331.49567
331.36362
331.29693
331.17938
331.12043
331.01423
330.96113
330.86402
330.81548
330.72574
330.6809
330.59717
330.55546
330.47661
330.43767
330.36276
330.32639
330.2546
330.22069
330.1513
330.11984
330.05223
330.0233
329.95692
329.93064
329.86501
329.8416
329.77625
329.75602
329.69049
329.67389
329.60758
329.59533
329.52727
329.52074
329.44928
335.63048
335.38694
334.69279
334.17068
333.82115
333.44699
333.22514
332.94452
332.78687
332.56352
332.44298
332.25765
332.16062
332.00206
331.92089
331.78211
331.71214
331.58852
331.52678
331.41509
331.35961
331.25751
331.20694
331.11264
331.06609
330.97814
330.93501
330.85222
330.81216
330.73351
330.69629
330.62092
330.58642
330.51357
330.48179
330.41078
330.38178
330.31205
330.28595
330.21697
330.19399
330.12529
330.10574
330.03682
330.02114
329.95144
329.94029
329.86894
329.86345
329.78942
335.7514
335.62911
335.05696
334.58137
334.25433
333.88735
333.66788
333.38436
333.22443
332.99564
332.87173
332.68046
332.58004
332.41568
332.33137
332.18714
332.11438
331.9857
331.92151
331.80516
331.74754
331.64114
331.58873
331.49043
331.44231
331.35061
331.30619
331.21986
331.17875
331.09672
331.05872
330.98007
330.94505
330.869
330.83694
330.76278
330.73374
330.66087
330.63497
330.56284
330.5403
330.46842
330.44952
330.37742
330.36258
330.28971
330.27952
330.20515
330.20044
330.12411
335.85188
335.81044
335.35645
334.93496
334.6384
334.28647
334.07449
333.79317
333.63397
333.40314
333.27775
333.08294
332.98034
332.81196
332.72535
332.57704
332.50208
332.36944
332.30322
332.1831
332.12365
332.01368
331.95966
331.85798
331.80847
331.71356
331.66798
331.57855
331.53653
331.45149
331.41281
331.33122
331.29576
331.2168
331.18453
331.10747
331.07844
331.00267
330.977
330.90196
330.87984
330.80503
330.78674
330.71169
330.6976
330.62181
330.61243
330.53535
330.53121
330.45281
335.93669
335.94425
335.59805
335.23387
334.97334
334.64305
334.44319
334.16892
334.01346
333.78397
333.65907
333.46316
333.35973
333.18917
333.10121
332.95025
332.87376
332.7383
332.67055
332.54759
332.4867
332.37394
332.3186
332.21419
332.16353
332.06595
332.01941
331.92735
331.88457
331.79694
331.7577
331.67353
331.63773
331.55618
331.52378
331.44412
331.41517
331.33676
331.31136
331.23365
331.21197
331.13447
331.11676
331.03902
331.0256
330.94719
330.93847
330.85898
330.85524
330.775
336.00942
336.04243
335.78962
335.48216
335.26065
334.957
334.77319
334.5103
334.36144
334.13652
334.01411
333.81953
333.71666
333.54578
333.45748
333.30533
333.22806
333.09097
333.02226
332.89743
332.83553
332.72078
332.66447
332.55801
332.50648
332.40681
332.35953
332.26535
332.222
332.1322
332.09257
332.00619
331.97018
331.88637
331.85396
331.772
331.7432
331.66245
331.63736
331.55726
331.53604
331.45613
331.43897
331.35883
331.34601
331.26527
331.25708
331.17551
331.17202
331.09014
336.07271
336.11507
335.93943
335.68512
335.50318
335.22945
335.06465
334.8168
334.6771
334.45974
334.34171
334.15078
334.04989
333.88052
333.79292
333.64105
333.5638
333.42626
333.35721
333.2315
333.16907
333.05316
332.99627
332.88846
332.83638
332.73521
332.68747
332.59167
332.54797
332.45645
332.41662
332.32842
332.29236
332.20666
332.17434
332.09041
332.06185
331.97907
331.95435
331.87218
331.85142
331.7694
331.75278
331.67054
331.65826
331.57551
331.56775
331.4844
331.48107
331.39776
336.12855
336.17017
336.05546
335.84871
335.7048
335.46254
335.31868
335.08872
334.96029
334.75308
334.6412
334.45606
334.35852
334.19239
334.10656
333.95639
333.87999
333.74318
333.67443
333.54883
333.48639
333.37016
333.31311
333.20466
333.15237
333.05032
333.0024
332.90551
332.86171
332.76893
332.7291
332.6395
332.60356
332.51634
332.48425
332.3987
332.37049
332.286
332.26172
332.17778
332.15753
332.07372
332.05763
331.97361
331.96182
331.87738
331.86997
331.78514
331.7819
331.69737
336.17835
336.21373
336.14504
335.97912
335.87008
335.65928
335.53719
335.32709
335.21154
335.01663
334.9124
334.73495
334.64203
334.48075
334.39771
334.25059
334.17585
334.04092
333.97313
333.8486
333.7867
333.67096
333.6142
333.50582
333.45371
333.35137
333.30359
333.20615
333.16252
333.06895
333.02934
332.93877
332.90312
332.81477
332.78306
332.69626
332.66849
332.58265
332.55888
332.47352
332.45381
332.36854
332.35297
332.26751
332.25617
332.17038
332.16326
332.07725
332.07407
331.98853
336.22315
336.24999
336.21449
336.08235
336.00393
335.82326
335.7228
335.5336
335.43198
335.25097
335.15563
334.98747
334.90028
334.74528
334.66598
334.52316
334.45088
334.31889
334.25272
334.13018
334.06937
333.95492
333.89892
333.79129
333.73974
333.63773
333.59043
333.49295
333.44977
333.35589
333.31675
333.22563
333.19048
333.10139
333.07022
332.98252
332.95533
332.86849
332.84531
332.75887
332.73974
332.65336
332.63833
332.55177
332.54086
332.45405
332.44717
332.36029
332.35715
332.27083
336.26373
336.28175
336.26904
336.1639
336.1113
335.95843
335.87858
335.7105
335.62326
335.45723
335.37166
335.21406
335.13352
334.98603
334.91131
334.77389
334.70481
334.57674
334.51283
334.39314
334.33395
334.22156
334.16676
334.06055
334.00997
333.90886
333.86238
333.7654
333.72296
333.62924
333.5908
333.49956
333.46511
333.37568
333.34521
333.257
333.23051
333.14303
333.12053
333.03337
333.01487
332.92773
332.91325
332.82594
332.81544
332.72795
332.7213
332.63385
332.63074
332.54389
336.30064
336.3107
336.3128
336.22859
336.1969
336.06884
336.00791
335.86041
335.78748
335.63696
335.5617
335.41554
335.34237
335.20336
335.13395
335.00287
334.93765
334.81437
334.7533
334.63725
334.5802
334.47055
334.41742
334.31325
334.26402
334.16439
334.11906
334.02308
333.98168
333.88856
333.85109
333.76015
333.72661
333.63723
333.60763
333.51928
333.49362
333.40586
333.38413
333.2966
333.2788
333.19124
333.17733
333.08962
333.07953
332.99169
332.98527
332.89754
332.89448
332.80734
336.33431
336.33775
336.34885
336.28043
336.265
336.15845
336.11428
335.98622
335.92705
335.79206
335.72728
335.59311
335.52778
335.39798
335.33442
335.21046
335.14964
335.03191
334.97419
334.86248
334.80803
334.70178
334.65073
334.54918
334.50169
334.40404
334.36021
334.26569
334.22562
334.13355
334.09729
334.00706
333.97463
333.8857
333.85712
333.76902
333.7443
333.65663
333.63576
333.54823
333.53117
333.44355
333.43025
333.34248
333.33282
333.24495
333.23876
333.15104
333.14805
333.06089
336.36507
336.36334
336.37944
336.32267
336.31934
336.23091
336.20111
336.0909
336.04453
335.92466
335.87022
335.74822
335.69097
335.57084
335.51354
335.39727
335.3413
335.22971
335.1758
335.06901
335.01759
334.91528
334.86671
334.76829
334.72288
334.6277
334.58568
334.49308
334.45461
334.36401
334.32918
334.24006
334.20894
334.12083
334.09345
334.00595
333.98231
333.89508
333.87516
333.78797
333.77171
333.68439
333.67172
333.58423
333.57501
333.48744
333.48149
333.39408
333.39118
333.30427
336.3932
336.38761
336.40609
336.35778
336.36303
336.28951
336.2716
336.17738
336.14259
336.03705
335.99254
335.88257
335.83341
335.72316
335.67234
335.56414
335.51334
335.40835
335.3586
335.25721
335.20918
335.11127
335.06553
334.9707
334.92769
334.8354
334.79548
334.7052
334.66858
334.57984
334.54668
334.45904
334.42941
334.34249
334.31644
334.2299
334.20744
334.12102
334.10212
334.01561
334.00022
333.91352
333.90153
333.81464
333.8059
333.71893
333.71326
333.62643
333.62364
333.53725
336.41894
336.41055
336.42982
336.38764
336.3986
336.3371
336.3287
336.24846
336.22383
336.13158
336.09632
335.99799
335.95671
335.85633
335.81204
335.71211
335.66668
335.5686
335.52326
335.42763
335.38327
335.29015
335.24752
335.15665
335.11633
335.0273
334.98973
334.90214
334.86761
334.78108
334.74977
334.66397
334.63599
334.5506
334.52602
334.44078
334.41962
334.33432
334.31654
334.23104
334.21657
334.13082
334.11954
334.03356
334.02532
333.93925
333.93388
333.84792
333.84526
333.75967
336.44248
336.4321
336.45126
336.41356
336.42802
336.37603
336.37496
336.30671
336.29075
336.21055
336.18372
336.09639
336.06262
335.97187
335.93402
335.84237
335.80238
335.71137
335.6706
335.58097
335.5405
335.45245
335.41316
335.32655
335.28915
335.2037
335.1687
335.08411
335.05187
334.96786
334.93859
334.85492
334.82876
334.7452
334.72223
334.63859
334.61882
334.53496
334.51836
334.43419
334.42068
334.33618
334.32566
334.24089
334.23319
334.1483
334.14325
334.05843
334.05593
333.9714
336.464
336.45223
336.4708
336.43646
336.4528
336.40824
336.41258
336.3544
336.34565
336.27616
336.25681
336.17969
336.15291
336.07139
336.03975
335.95624
335.92164
335.83772
335.8016
335.71809
335.68164
335.59885
335.56306
335.48094
335.44663
335.365
335.33275
335.25142
335.22163
335.14042
335.11333
335.03209
335.00786
334.92643
334.90516
334.82341
334.80512
334.72298
334.70763
334.62507
334.61258
334.52962
334.51988
334.4366
334.42946
334.34602
334.34133
334.25791
334.25558
334.17238
336.48365
336.4709
336.48865
336.45695
336.47401
336.43521
336.44337
336.39353
336.39057
336.33045
336.31759
336.24976
336.22935
336.15652
336.13074
336.0551
336.02573
335.9488
335.91729
335.83994
335.80755
335.73011
335.69793
335.62045
335.58936
335.51174
335.48237
335.40451
335.37729
335.29911
335.27432
335.19574
335.17355
335.09449
335.07501
334.99541
334.97866
334.89851
334.88446
334.80377
334.79235
334.71118
334.70226
334.62073
334.61418
334.53244
334.52812
334.44634
334.4442
334.36257
336.50158
336.48812
336.50497
336.47543
336.49246
336.45812
336.4688
336.42575
336.42731
336.37525
336.36788
336.30839
336.29366
336.22887
336.20852
336.14036
336.11597
336.04583
336.01883
335.94754
335.9192
335.84713
335.81859
335.74582
335.71801
335.64452
335.61811
335.54388
335.51933
335.44436
335.42195
335.34624
335.32615
335.24969
335.23205
335.15484
335.13968
335.06175
335.04904
334.97046
334.96012
334.88099
334.87292
334.79337
334.78742
334.70761
334.70369
334.62379
334.62183
334.54202
336.51789
336.5039
336.51982
336.49215
336.50866
336.4778
336.49
336.45246
336.45742
336.41218
336.40935
336.35722
336.34745
336.29
336.27459
336.21342
336.19371
336.13005
336.10737
336.04198
336.0176
335.95083
335.92591
335.85785
335.83334
335.76404
335.74064
335.67014
335.6483
335.57668
335.55669
335.48401
335.46608
335.39239
335.37663
335.302
335.28846
335.21297
335.20161
335.12536
335.11613
335.03925
335.03203
334.95467
334.94935
334.87168
334.86817
334.79035
334.7886
334.71081
336.5327
336.51829
336.53326
336.50727
336.52299
336.49489
336.50786
336.47474
336.48217
336.44266
336.44347
336.39776
336.39223
336.34139
336.33037
336.27566
336.26026
336.20271
336.18411
336.12438
336.10382
336.0422
336.02082
335.95742
335.93618
335.87107
335.85066
335.78395
335.76482
335.69663
335.67909
335.60956
335.5938
335.52303
335.50917
335.43728
335.42537
335.35248
335.3425
335.26875
335.26063
335.18618
335.17983
335.10484
335.10017
335.02481
335.02172
334.94617
334.94463
334.86906
336.54607
336.53132
336.54535
336.52089
336.53571
336.50984
336.52305
336.49348
336.50261
336.46784
336.47151
336.43133
336.42935
336.38438
336.37722
336.3284
336.31689
336.26504
336.25023
336.19586
336.1789
336.12225
336.10427
336.04542
336.02736
335.9664
335.94892
335.886
335.86956
335.80487
335.78974
335.72345
335.70984
335.64211
335.63014
335.56111
335.55083
335.48068
335.47207
335.40097
335.39396
335.3221
335.31662
335.24416
335.24012
335.16725
335.16458
335.09147
335.09014
335.01696
336.55807
336.54302
336.55612
336.53309
336.54696
336.52297
336.53605
336.50935
336.51956
336.48872
336.49457
336.45909
336.46003
336.42021
336.41636
336.37285
336.36481
336.31819
336.30685
336.2575
336.24392
336.19198
336.17724
336.12277
336.10776
336.05086
336.03623
335.97707
335.96324
335.90204
335.88929
335.82627
335.81478
335.75015
335.74004
335.67398
335.66529
335.598
335.59073
335.52241
335.5165
335.44734
335.44272
335.37293
335.36953
335.29927
335.29702
335.22648
335.22536
335.15471
336.56873
336.55343
336.5656
336.54393
336.55688
336.53449
336.54723
336.52288
336.53371
336.5061
336.51354
336.48205
336.48531
336.44998
336.44893
336.41014
336.40514
336.36328
336.35507
336.31036
336.29989
336.25239
336.24067
336.19039
336.17827
336.12529
336.11338
336.0579
336.04659
335.98886
335.97839
335.91867
335.90923
335.84774
335.83943
335.77639
335.76926
335.7049
335.69894
335.63348
335.62865
335.5623
335.55853
335.4915
335.48871
335.42119
335.41935
335.3515
335.35058
335.28259
336.57804
336.56256
336.57385
336.55345
336.56554
336.54458
336.55686
336.53444
336.54555
336.52061
336.52917
336.50103
336.50612
336.47465
336.47592
336.4413
336.43891
336.40134
336.3959
336.35545
336.3478
336.30443
336.2955
336.24917
336.23976
336.19053
336.18119
336.12928
336.12035
336.06603
336.05775
336.00129
335.99381
335.93547
335.92889
335.86891
335.86328
335.8019
335.7972
335.73467
335.73086
335.6674
335.66443
335.60025
335.59807
335.53335
335.53191
335.46685
335.46613
335.40088
336.58598
336.57044
336.58088
336.56172
336.57302
336.55337
336.56512
336.54435
336.5555
336.53277
336.54207
336.51674
336.52321
336.49505
336.4982
336.46722
336.46706
336.43331
336.43028
336.39369
336.38857
336.349
336.34262
336.29998
336.29306
336.2474
336.24044
336.19197
336.18528
336.13427
336.12805
336.0748
336.06918
336.01396
336.00903
335.95209
335.94789
335.88951
335.88601
335.82643
335.82362
335.76308
335.76089
335.6996
335.69799
335.63615
335.63509
335.57287
335.57234
335.50991
336.59251
336.57707
336.58676
336.56879
336.57939
336.56096
336.57217
336.55284
336.56386
336.54298
336.55272
336.52975
336.53724
336.51189
336.51654
336.48872
336.4904
336.46002
336.45908
336.42596
336.42305
336.38697
336.38286
336.34365
336.33899
336.29669
336.29192
336.24672
336.2421
336.19429
336.18998
336.13986
336.13598
336.08382
336.08043
336.02653
336.02366
335.96827
335.9659
335.90929
335.9074
335.84981
335.84835
335.78998
335.78892
335.72998
335.72928
335.66994
335.66959
335.61003
336.5976
336.58249
336.59154
336.57473
336.58472
336.56744
336.57813
336.56007
336.57087
336.55156
336.56152
336.54053
336.54873
336.52577
336.53157
336.50647
336.50966
336.48224
336.48305
336.45303
336.45204
336.41911
336.41701
336.38096
336.37832
336.33915
336.33636
336.29426
336.29153
336.24678
336.24423
336.19713
336.19484
336.14569
336.14372
336.09279
336.09116
336.03873
336.03742
335.98375
335.98273
335.92807
335.9273
335.87185
335.8713
335.81526
335.8149
335.75846
335.75828
335.70159
336.60127
336.58675
336.59529
336.57963
336.58909
336.57291
336.58312
336.5662
336.57671
336.55875
336.56878
336.54945
336.55813
336.53718
336.54384
336.52108
336.52546
336.50061
336.50288
336.47559
336.47624
336.44614
336.44578
336.41262
336.41176
336.37549
336.37447
336.33527
336.33424
336.29239
336.29143
336.24724
336.24641
336.20016
336.19949
336.15146
336.15097
336.10144
336.1011
336.05033
336.05011
335.99835
335.99821
335.94566
335.94558
335.89244
335.89239
335.83883
335.83881
335.785
336.60359
336.58994
336.59809
336.58356
336.59257
336.57744
336.58721
336.57135
336.58154
336.56477
336.57473
336.55683
336.56577
336.54653
336.55381
336.53303
336.53834
336.51571
336.51916
336.49427
336.49628
336.46871
336.46984
336.43928
336.43997
336.40638
336.4069
336.37041
336.37088
336.33178
336.33223
336.29081
336.29127
336.24782
336.24832
336.2031
336.20363
336.15694
336.15747
336.10955
336.11004
336.06114
336.06157
336.01188
336.01223
335.96195
335.96218
335.91149
335.9116
335.86065
336.60477
336.5922
336.60006
336.58662
336.59525
336.58113
336.5905
336.57562
336.58549
336.56976
336.57958
336.56289
336.57196
336.55416
336.56185
336.54275
336.54874
336.52802
336.53239
336.50959
336.51272
336.48739
336.48975
336.46155
336.46355
336.4324
336.43424
336.40027
336.40204
336.36551
336.3672
336.32841
336.33002
336.28923
336.29077
336.24826
336.2497
336.20575
336.20706
336.1619
336.16305
336.11692
336.11787
336.07098
336.07171
336.02424
336.02473
335.97685
335.97709
335.92894
336.60503
336.59366
336.60131
336.58893
336.59723
336.58407
336.59308
336.57911
336.58865
336.57387
336.58348
336.56784
336.5769
336.56032
336.56825
336.55057
336.55705
336.53795
336.54302
336.52203
336.52604
336.50267
336.50605
336.47995
336.48303
336.4541
336.45706
336.42541
336.42828
336.39416
336.39691
336.36059
336.36319
336.32494
336.32738
336.28746
336.2897
336.24838
336.25037
336.20789
336.2096
336.16618
336.16758
336.12342
336.12448
336.07975
336.08046
336.03533
336.03568
335.99029
336.60465
336.59448
336.60197
336.59059
336.59859
336.58635
336.59501
336.58191
336.59111
336.57718
336.58655
336.57182
336.58078
336.56524
336.57326
336.55677
336.56356
336.54583
336.55141
336.53197
336.53665
336.515
336.51917
336.49495
336.4989
336.47198
336.47586
336.44632
336.45012
336.41822
336.42186
336.38786
336.3913
336.35545
336.35865
336.3212
336.32412
336.28532
336.2879
336.24799
336.25019
336.20938
336.21117
336.16964
336.17099
336.12892
336.12983
336.08736
336.08781
336.04508
336.60388
336.59483
336.60214
336.5917
336.59943
336.58804
336.59639
336.58408
336.59296
336.5798
336.58888
336.57495
336.58373
336.56907
336.57706
336.56158
336.56852
336.55194
336.55786
336.53974
336.5449
336.52475
336.52951
336.50694
336.51157
336.48645
336.49106
336.46346
336.468
336.43815
336.44253
336.41068
336.41482
336.38122
336.38506
336.34994
336.35343
336.31703
336.32011
336.28265
336.28527
336.24696
336.24907
336.21008
336.21168
336.17217
336.17324
336.13335
336.13388
336.09374
336.60292
336.59484
336.60195
336.59235
336.59982
336.58922
336.59727
336.5857
336.59425
336.5818
336.59056
336.57733
336.58586
336.57193
336.57981
336.56515
336.57212
336.55651
336.5626
336.5456
336.55107
336.53221
336.53739
336.51628
336.52141
336.49791
336.50306
336.47723
336.48234
336.45438
336.45934
336.42949
336.43419
336.40269
336.40705
336.37413
336.37808
336.34395
336.34743
336.31231
336.31527
336.27934
336.28173
336.24517
336.24697
336.20992
336.21112
336.1737
336.1743
336.13665
336.60188
336.5946
336.60147
336.59264
336.59984
336.58998
336.59772
336.58684
336.59505
336.58323
336.59164
336.57901
336.58724
336.57393
336.5816
336.56763
336.57452
336.5597
336.56583
336.54978
336.55541
336.53766
336.54309
336.52327
336.52873
336.50667
336.51222
336.48798
336.49351
336.46728
336.47267
336.44467
336.4498
336.42026
336.42502
336.39416
336.39847
336.36649
336.37029
336.33738
336.3406
336.30695
336.30955
336.2753
336.27727
336.24255
336.24387
336.20881
336.20947
336.17419
336.60081
336.5942
336.60079
336.59264
336.59957
336.59037
336.5978
336.58754
336.59539
336.58413
336.59217
336.58005
336.58792
336.57513
336.58251
336.5691
336.5758
336.56163
336.5677
336.55243
336.5581
336.54129
336.54685
336.52814
336.5338
336.51302
336.51881
336.496
336.50182
336.47717
336.48286
336.45657
336.462
336.43429
336.43934
336.4104
336.41499
336.38502
336.38905
336.35823
336.36166
336.33015
336.33292
336.30086
336.30295
336.27046
336.27186
336.23906
336.23975
336.20674
336.59972
336.59368
336.59996
336.5924
336.59904
336.59044
336.59755
336.58784
336.59532
336.58453
336.59215
336.58047
336.58794
336.57555
336.58259
336.56962
336.57606
336.56241
336.56832
336.55369
336.55928
336.54328
336.54884
336.5311
336.53682
336.51719
336.52309
336.50158
336.50756
336.48434
336.49022
336.4655
336.47113
336.4451
336.45035
336.4232
336.42798
336.39989
336.40409
336.37523
336.37879
336.3493
336.35219
336.3222
336.32438
336.294
336.29546
336.26479
336.26552
336.23465
336.59862
336.59306
336.59901
336.59196
336.59832
336.59024
336.59701
336.58777
336.59483
336.58446
336.59162
336.58028
336.58728
336.57522
336.58185
336.56922
336.57533
336.5621
336.56775
336.55366
336.55908
336.54375
336.54921
336.53232
336.53799
336.51937
336.52528
336.50494
336.51096
336.48906
336.49502
336.47174
336.47746
336.453
336.45836
336.43287
336.43775
336.41142
336.41572
336.38869
336.39234
336.36475
336.36771
336.33967
336.3419
336.31351
336.31501
336.28636
336.2871
336.25827
336.59749
336.59236
336.59797
336.59137
336.59742
336.5898
336.59619
336.58735
336.59395
336.58389
336.59054
336.57946
336.58596
336.57414
336.58029
336.56792
336.57364
336.56072
336.56606
336.55239
336.55757
336.54281
336.54808
336.53193
336.53746
336.51974
336.52555
336.50627
336.51224
336.49153
336.49747
336.47552
336.48126
336.45823
336.46362
336.43968
336.4446
336.4199
336.42424
336.39893
336.40262
336.3768
336.3798
336.35358
336.35585
336.32932
336.33083
336.30408
336.30484
336.27792
336.59631
336.59159
336.59686
336.59064
336.59637
336.58912
336.59511
336.58656
336.59265
336.58282
336.5889
336.578
336.58393
336.57227
336.5779
336.56571
336.57098
336.5583
336.56326
336.54993
336.5548
336.54053
336.54553
336.53002
336.53534
336.51842
336.52406
336.50573
336.51157
336.49195
336.4978
336.47706
336.48274
336.46104
336.46639
336.44388
336.44878
336.4256
336.42993
336.40621
336.4099
336.38575
336.38874
336.36424
336.3665
336.34173
336.34324
336.31826
336.31902
336.2939
336.59507
336.59073
336.59567
336.58978
336.59518
336.58821
336.59374
336.58538
336.59091
336.5812
336.58665
336.57584
336.58115
336.56958
336.57465
336.56256
336.56733
336.55482
336.55937
336.54631
336.55082
336.53695
336.54164
336.52669
336.53173
336.51552
336.52092
336.50345
336.5091
336.49047
336.49617
336.47654
336.48211
336.46163
336.46689
336.4457
336.45053
336.42876
336.43304
336.4108
336.41445
336.39184
336.3948
336.3719
336.37414
336.35101
336.35251
336.3292
336.32995
336.30651
336.59376
336.58978
336.59441
336.58879
336.59383
336.58704
336.59205
336.58377
336.58866
336.57897
336.58373
336.57293
336.57757
336.56601
336.57047
336.55844
336.56268
336.55028
336.55437
336.54153
336.54564
336.53211
336.53645
336.52199
336.5267
336.51114
336.51625
336.49957
336.50497
336.48725
336.49274
336.47414
336.47953
336.46018
336.46531
336.44534
336.45006
336.42959
336.43378
336.41292
336.4165
336.39533
336.39824
336.37683
336.37903
336.35742
336.3589
336.33715
336.33789
336.31602
336.59237
336.58876
336.59308
336.58767
336.59231
336.58559
336.59
336.58167
336.58583
336.57606
336.58007
336.56919
336.57311
336.56151
336.56532
336.55329
336.55698
336.54465
336.54826
336.53558
336.53927
336.52604
336.52999
336.51597
336.52032
336.50535
336.51013
336.49417
336.49928
336.4824
336.48764
336.46999
336.47517
336.45686
336.46181
336.44298
336.44755
336.4283
336.43237
336.41279
336.41628
336.39645
336.39929
336.37926
336.38141
336.36122
336.36267
336.34236
336.34308
336.32269
336.59087
336.58764
336.59167
336.58639
336.59057
336.58378
336.5875
336.57898
336.58234
336.57237
336.57556
336.56454
336.5677
336.556
336.55914
336.54708
336.55018
336.5379
336.54101
336.52847
336.53171
336.51874
336.52229
336.50866
336.51264
336.4982
336.50264
336.48734
336.49213
336.47603
336.48099
336.46422
336.46916
336.45182
336.45657
336.43879
336.44319
336.42506
336.42899
336.41061
336.41398
336.39539
336.39814
336.3794
336.38149
336.36263
336.36403
336.34507
336.34578
336.32675
336.58927
336.58643
336.59016
336.58492
336.58855
336.58153
336.58445
336.5756
336.57806
336.56779
336.57011
336.55887
336.56123
336.5494
336.55185
336.53973
336.54225
336.52998
336.53259
336.52017
336.52297
336.51023
336.51337
336.50011
336.5037
336.48976
336.49383
336.47916
336.4836
336.46824
336.47289
336.45694
336.46162
336.44519
336.44971
336.43291
336.43712
336.42004
336.42381
336.40653
336.40978
336.39235
336.395
336.37746
336.37947
336.36185
336.3632
336.3455
336.34618
336.32843
336.58755
336.58513
336.58853
336.58319
336.58615
336.57872
336.58072
336.57139
336.57287
336.5622
336.56361
336.55208
336.55364
336.54164
336.54339
336.5312
336.53313
336.52088
336.52298
336.51068
336.51303
336.50052
336.50324
336.49034
336.49354
336.48007
336.48376
336.46968
336.47378
336.4591
336.46344
336.44826
336.45266
336.43708
336.44136
336.42548
336.42948
336.41339
336.41699
336.40074
336.40385
336.38749
336.39004
336.37361
336.37555
336.35907
336.36037
336.34385
336.3445
336.32794
336.5857
336.58375
336.58673
336.58113
336.58327
336.57521
336.57616
336.56619
336.56662
336.55546
336.55592
336.54408
336.54481
336.53264
336.53369
336.52144
336.52278
336.51056
336.51217
336.49998
336.5019
336.48961
336.49194
336.47937
336.48218
336.46917
336.47249
336.45897
336.46272
336.4487
336.45272
336.43828
336.44238
336.42761
336.43164
336.41662
336.42041
336.40523
336.40866
336.39337
336.39633
336.38099
336.38342
336.36804
336.36989
336.35448
336.35573
336.3403
336.34093
336.32548
336.58369
336.58228
336.58471
336.57862
336.57972
336.57083
336.57058
336.55984
336.55916
336.54745
336.54694
336.53476
336.53467
336.52233
336.5227
336.51039
336.51117
336.499
336.50013
336.48807
336.48958
336.47752
336.47946
336.46723
336.46968
336.45711
336.46007
336.4471
336.4505
336.43711
336.4408
336.42707
336.43088
336.41688
336.42064
336.40645
336.41002
336.39571
336.39894
336.38457
336.38738
336.37298
336.37529
336.36089