/*--------------------------------*- C++ -*----------------------------------*\
| =========                 |                                                 |
| \\      /  F ield         | OpenFOAM: The Open Source CFD Toolbox           |
|  \\    /   O peration     | Version:  2312                                  |
|   \\  /    A nd           | Website:  www.openfoam.com                      |
|    \\/     M anipulation  |                                                 |
\*---------------------------------------------------------------------------*/
FoamFile
{
    version     2.0;
    format      ascii;
    arch        "LSB;label=32;scalar=64";
    class       volVectorField;
    location    "3";
    object      U;
}
// * * * * * * * * * * * * * * * * * * * * * * * * * * * * * * * * * * * * * //

dimensions      [0 1 -1 0 0 0 0];

internalField   nonuniform List<vector> 
4000
(
(0.0023138495 0.00042291827 0)
(0.0030383524 -6.2239197e-06 0)
(0.0024283687 -3.6725956e-07 0)
(0.0025693516 2.2269748e-07 0)
(0.0024864443 -2.6127829e-07 0)
(0.0025434722 2.3546293e-07 0)
(0.0024907167 -2.2230309e-07 0)
(0.0025386102 2.0880398e-07 0)
(0.0024939939 -1.9607642e-07 0)
(0.0025357138 1.8452258e-07 0)
(0.0024965256 -1.7375493e-07 0)
(0.0025333103 1.6358412e-07 0)
(0.0024987315 -1.5410815e-07 0)
(0.0025312123 1.451731e-07 0)
(0.0025006911 -1.3680661e-07 0)
(0.0025293586 1.2894548e-07 0)
(0.0025024325 -1.2157001e-07 0)
(0.0025277148 1.1465292e-07 0)
(0.00250398 -1.0816013e-07 0)
(0.0025262542 1.0207805e-07 0)
(0.0025053565 -9.6370183e-08 0)
(0.0025249545 9.1029037e-08 0)
(0.0025065824 -8.6019449e-08 0)
(0.002523796 8.1337181e-08 0)
(0.0025076763 -7.6949599e-08 0)
(0.0025227611 7.2854469e-08 0)
(0.0025086544 -6.9022e-08 0)
(0.0025218344 6.5451255e-08 0)
(0.0025095315 -6.2115383e-08 0)
(0.0025210021 5.9014281e-08 0)
(0.0025103207 -5.6123991e-08 0)
(0.0025202517 5.3444932e-08 0)
(0.0025110336 -5.0955962e-08 0)
(0.0025195722 4.8657782e-08 0)
(0.0025116811 -4.6531963e-08 0)
(0.0025189534 4.4579321e-08 0)
(0.0025122725 -4.2784041e-08 0)
(0.0025183861 4.1146937e-08 0)
(0.0025128168 -3.9654725e-08 0)
(0.002517862 3.8308118e-08 0)
(0.0025133219 -3.7096267e-08 0)
(0.0025173734 3.6019833e-08 0)
(0.0025137952 -3.5070308e-08 0)
(0.002516913 3.4248392e-08 0)
(0.0025142435 -3.3549711e-08 0)
(0.0025164734 3.2966868e-08 0)
(0.0025146734 -3.2526406e-08 0)
(0.002516062 3.2193064e-08 0)
(0.0025151722 -3.17147e-08 0)
(0.0025159737 3.3946943e-08 0)
(0.0061949062 0.0011492336 0)
(0.0085502953 -1.1412203e-06 0)
(0.0071230652 4.8489008e-06 0)
(0.0074457823 3.1713706e-07 0)
(0.0072174892 -6.0377802e-07 0)
(0.007383818 8.1627951e-07 0)
(0.0072288101 -7.5658723e-07 0)
(0.0073704625 7.2841528e-07 0)
(0.0072385044 -6.8850721e-07 0)
(0.0073620637 6.5061851e-07 0)
(0.0072459953 -6.1238025e-07 0)
(0.0073549733 5.7745126e-07 0)
(0.0072525318 -5.4365623e-07 0)
(0.0073487648 5.1240874e-07 0)
(0.0072583414 -4.8277026e-07 0)
(0.0073432755 4.5511162e-07 0)
(0.0072635054 -4.2906654e-07 0)
(0.0073384061 4.0468106e-07 0)
(0.0072680959 -3.8177929e-07 0)
(0.0073340783 3.603241e-07 0)
(0.00727218 -3.4019941e-07 0)
(0.0073302257 3.2135478e-07 0)
(0.0072758188 -3.0369537e-07 0)
(0.00732679 2.8717543e-07 0)
(0.0072790668 -2.7171061e-07 0)
(0.0073237197 2.5726304e-07 0)
(0.0072819728 -2.4375636e-07 0)
(0.0073209688 2.3116003e-07 0)
(0.0072845801 -2.1940487e-07 0)
(0.0073184964 2.0846657e-07 0)
(0.0072869277 -1.9828294e-07 0)
(0.0073162656 1.888346e-07 0)
(0.0072890505 -1.8006623e-07 0)
(0.0073142432 1.7196243e-07 0)
(0.0072909801 -1.6447462e-07 0)
(0.0073123993 1.5759052e-07 0)
(0.0072927452 -1.5126806e-07 0)
(0.0073107067 1.4549749e-07 0)
(0.0072943717 -1.4024297e-07 0)
(0.0073091404 1.3549678e-07 0)
(0.0072958836 -1.312295e-07 0)
(0.0073076772 1.2743468e-07 0)
(0.0072973034 -1.2408874e-07 0)
(0.0073062957 1.2119181e-07 0)
(0.0072986511 -1.1870306e-07 0)
(0.0073049731 1.1667439e-07 0)
(0.0072999443 -1.1516362e-07 0)
(0.00730371 1.1286547e-07 0)
(0.0073013654 -1.1718509e-07 0)
(0.00730325 1.0861111e-07 0)
(0.010103615 0.0018706898 0)
(0.013790933 -4.8458576e-06 0)
(0.011696413 1.2297655e-05 0)
(0.012197246 4.7780286e-07 0)
(0.011822661 -9.2982447e-07 0)
(0.012102463 1.4771052e-06 0)
(0.011842402 -1.3618808e-06 0)
(0.012080997 1.3188622e-06 0)
(0.011858836 -1.2509968e-06 0)
(0.012066999 1.1832338e-06 0)
(0.011871456 -1.1136551e-06 0)
(0.012055079 1.0506153e-06 0)
(0.011882472 -9.8894527e-07 0)
(0.012044626 9.3222824e-07 0)
(0.011892263 -8.7826921e-07 0)
(0.012035379 8.2796526e-07 0)
(0.011900967 -7.8059777e-07 0)
(0.012027176 7.3621885e-07 0)
(0.011908704 -6.945809e-07 0)
(0.012019883 6.5552839e-07 0)
(0.011915589 -6.1894147e-07 0)
(0.01201339 5.8464021e-07 0)
(0.011921725 -5.5253426e-07 0)
(0.012007599 5.2246525e-07 0)
(0.011927202 -4.9434778e-07 0)
(0.012002423 4.6805178e-07 0)
(0.011932104 -4.4349322e-07 0)
(0.011997784 4.2056718e-07 0)
(0.011936503 -3.99192e-07 0)
(0.011993613 3.7928392e-07 0)
(0.011940465 -3.6076512e-07 0)
(0.011989849 3.4356859e-07 0)
(0.011944049 -3.2762211e-07 0)
(0.011986435 3.1287205e-07 0)
(0.011947308 -2.9925288e-07 0)
(0.01198332 2.8672164e-07 0)
(0.011950291 -2.7522021e-07 0)
(0.01198046 2.6471399e-07 0)
(0.011953041 -2.5515269e-07 0)
(0.011977811 2.4650847e-07 0)
(0.011955599 -2.3873997e-07 0)
(0.011975335 2.3182332e-07 0)
(0.011958004 -2.2572582e-07 0)
(0.011972994 2.2043838e-07 0)
(0.011960289 -2.1587856e-07 0)
(0.011970751 2.121937e-07 0)
(0.011962483 -2.0935816e-07 0)
(0.011968592 2.0478135e-07 0)
(0.011964844 -2.1563941e-07 0)
(0.011967643 1.9639884e-07 0)
(0.013746576 0.0024678425 0)
(0.018812752 -2.3354676e-05 0)
(0.016151514 2.2654612e-05 0)
(0.016823374 4.9446927e-07 0)
(0.016301905 -1.0660587e-06 0)
(0.016699644 2.097311e-06 0)
(0.016331308 -1.9321701e-06 0)
(0.016670435 1.8801237e-06 0)
(0.016354814 -1.791495e-06 0)
(0.016650723 1.6958266e-06 0)
(0.016372751 -1.5961424e-06 0)
(0.016633809 1.5064835e-06 0)
(0.01638841 -1.4178023e-06 0)
(0.016618957 1.3366557e-06 0)
(0.016402329 -1.2592518e-06 0)
(0.016605816 1.1871298e-06 0)
(0.016414702 -1.1192553e-06 0)
(0.016594154 1.0555872e-06 0)
(0.016425702 -9.9594161e-07 0)
(0.016583787 9.3990643e-07 0)
(0.01643549 -8.8749867e-07 0)
(0.016574556 8.3828092e-07 0)
(0.016444213 -7.9229023e-07 0)
(0.016566322 7.491473e-07 0)
(0.016452002 -7.0886783e-07 0)
(0.016558961 6.7114024e-07 0)
(0.016458972 -6.3595699e-07 0)
(0.016552364 6.0306591e-07 0)
(0.016465229 -5.7244146e-07 0)
(0.016546432 5.4388096e-07 0)
(0.016470864 -5.1734729e-07 0)
(0.016541077 4.9267708e-07 0)
(0.016475963 -4.6982744e-07 0)
(0.01653622 4.486666e-07 0)
(0.016480601 -4.291502e-07 0)
(0.016531788 4.111717e-07 0)
(0.016484846 -3.9468837e-07 0)
(0.016527716 3.7961367e-07 0)
(0.016488762 -3.6590857e-07 0)
(0.016523944 3.5350289e-07 0)
(0.016492405 -3.4236473e-07 0)
(0.016520417 3.3243404e-07 0)
(0.016495831 -3.2368716e-07 0)
(0.016517082 3.1609081e-07 0)
(0.016499088 -3.0952255e-07 0)
(0.016513885 3.0426619e-07 0)
(0.016502217 -3.0010784e-07 0)
(0.016510792 2.9299804e-07 0)
(0.016505531 -3.1306021e-07 0)
(0.016509231 2.807962e-07 0)
(0.017660966 0.0031423212 0)
(0.023616205 -2.8897047e-05 0)
(0.020480088 3.5306865e-05 0)
(0.021323733 2.7554052e-07 0)
(0.020655187 -1.0277969e-06 0)
(0.021175272 2.6431406e-06 0)
(0.020695644 -2.4460257e-06 0)
(0.021138653 2.3878241e-06 0)
(0.020726536 -2.288141e-06 0)
(0.021113125 2.1673082e-06 0)
(0.020749965 -2.040028e-06 0)
(0.021091067 1.9263567e-06 0)
(0.020770421 -1.8125881e-06 0)
(0.021071674 1.7090986e-06 0)
(0.020788604 -1.6100473e-06 0)
(0.02105451 1.5178684e-06 0)
(0.020804767 -1.4311107e-06 0)
(0.021039277 1.3496817e-06 0)
(0.020819136 -1.2734685e-06 0)
(0.021025735 1.2017894e-06 0)
(0.020831923 -1.134829e-06 0)
(0.021013675 1.07187e-06 0)
(0.020843319 -1.0131076e-06 0)
(0.021002918 9.5792146e-07 0)
(0.020853495 -9.0645417e-07 0)
(0.020993301 8.5819734e-07 0)
(0.020862601 -8.1323991e-07 0)
(0.020984682 7.7117091e-07 0)
(0.020870776 -7.3203689e-07 0)
(0.020976931 6.9550802e-07 0)
(0.020878139 -6.6159989e-07 0)
(0.020969934 6.3004712e-07 0)
(0.020884802 -6.0084532e-07 0)
(0.020963587 5.7378082e-07 0)
(0.020890863 -5.4883724e-07 0)
(0.020957795 5.2584223e-07 0)
(0.02089641 -5.0477341e-07 0)
(0.020952474 4.8549102e-07 0)
(0.020901528 -4.6797108e-07 0)
(0.020947544 4.5210042e-07 0)
(0.02090629 -4.3785938e-07 0)
(0.020942934 4.2515094e-07 0)
(0.020910768 -4.1396298e-07 0)
(0.020938575 4.0423769e-07 0)
(0.020915026 -3.9580489e-07 0)
(0.020934394 3.8913161e-07 0)
(0.020919119 -3.836825e-07 0)
(0.020930339 3.7400176e-07 0)
(0.0209234 -4.0516021e-07 0)
(0.020928063 3.5834374e-07 0)
(0.020954747 0.0035502055 0)
(0.028165283 -6.1950488e-05 0)
(0.02469135 4.9293077e-05 0)
(0.025697118 -2.172905e-08 0)
(0.02488289 -8.2963606e-07 0)
(0.025528995 3.1124642e-06 0)
(0.024935829 -2.9088908e-06 0)
(0.025485299 2.8437751e-06 0)
(0.024974344 -2.7435681e-06 0)
(0.025453887 2.5996852e-06 0)
(0.025003401 -2.4473008e-06 0)
(0.025426571 2.3120131e-06 0)
(0.025028774 -2.1750108e-06 0)
(0.025402528 2.0511384e-06 0)
(0.025051326 -1.9321606e-06 0)
(0.025381243 1.8215875e-06 0)
(0.025071371 -1.717498e-06 0)
(0.025362351 1.6197534e-06 0)
(0.025089192 -1.5283473e-06 0)
(0.025345555 1.4422914e-06 0)
(0.025105051 -1.3619885e-06 0)
(0.025330598 1.2864009e-06 0)
(0.025119185 -1.2159285e-06 0)
(0.025317255 1.1496756e-06 0)
(0.025131805 -1.0879499e-06 0)
(0.025305327 1.0300185e-06 0)
(0.0251431 -9.7609795e-07 0)
(0.025294636 9.2559706e-07 0)
(0.025153239 -8.786589e-07 0)
(0.025285022 8.3480989e-07 0)
(0.025162373 -7.9413797e-07 0)
(0.025276343 7.5626283e-07 0)
(0.025170638 -7.2123419e-07 0)
(0.02526847 6.8874651e-07 0)
(0.025178155 -6.5882399e-07 0)
(0.025261285 6.3122056e-07 0)
(0.025185037 -6.0594441e-07 0)
(0.025254685 5.8279622e-07 0)
(0.025191384 -5.6177496e-07 0)
(0.02524857 5.4271971e-07 0)
(0.025197291 -5.2562945e-07 0)
(0.025242852 5.1036611e-07 0)
(0.025202845 -4.9693478e-07 0)
(0.025237444 4.8524848e-07 0)
(0.025208127 -4.7508703e-07 0)
(0.025232259 4.6713631e-07 0)
(0.025213204 -4.6041149e-07 0)
(0.025227221 4.4817936e-07 0)
(0.025218462 -4.9179269e-07 0)
(0.025224143 4.2898093e-07 0)
(0.024901024 0.0042006172 0)
(0.032528153 -6.6365064e-05 0)
(0.028781288 6.4661962e-05 0)
(0.029941146 -4.3139025e-07 0)
(0.028984983 -5.3010716e-07 0)
(0.029760417 3.4988718e-06 0)
(0.029052306 -3.3277783e-06 0)
(0.029709999 3.2510506e-06 0)
(0.029098603 -3.1615932e-06 0)
(0.029672669 2.9960977e-06 0)
(0.029133379 -2.8210055e-06 0)
(0.029640021 2.6662382e-06 0)
(0.02916375 -2.5077193e-06 0)
(0.029611253 2.365252e-06 0)
(0.029190743 -2.2279338e-06 0)
(0.02958578 2.1004895e-06 0)
(0.029214734 -1.9804958e-06 0)
(0.029563168 1.8677611e-06 0)
(0.029236063 -1.7624263e-06 0)
(0.029543064 1.6631563e-06 0)
(0.029255045 -1.5706238e-06 0)
(0.029525161 1.4834291e-06 0)
(0.029271962 -1.4022231e-06 0)
(0.029509191 1.3257997e-06 0)
(0.029287068 -1.2546701e-06 0)
(0.029494913 1.1878489e-06 0)
(0.029300587 -1.1257113e-06 0)
(0.029482116 1.0674633e-06 0)
(0.029312724 -1.0133697e-06 0)
(0.029470608 9.6279582e-07 0)
(0.029323656 -9.1592177e-07 0)
(0.029460219 8.7223871e-07 0)
(0.029333549 -8.3186654e-07 0)
(0.029450794 7.9439711e-07 0)
(0.029342547 -7.5990795e-07 0)
(0.029442195 7.2807108e-07 0)
(0.029350785 -6.9893525e-07 0)
(0.029434294 6.7223518e-07 0)
(0.029358382 -6.4800105e-07 0)
(0.029426975 6.2601894e-07 0)
(0.029365453 -6.0631317e-07 0)
(0.02942013 5.8869964e-07 0)
(0.0293721 -5.7320651e-07 0)
(0.029413659 5.5971254e-07 0)
(0.029378422 -5.479481e-07 0)
(0.029407454 5.388449e-07 0)
(0.029384498 -5.3084821e-07 0)
(0.029401418 5.1613828e-07 0)
(0.029390738 -5.7307109e-07 0)
(0.029397466 4.9305094e-07 0)
(0.027924988 0.0044564092 0)
(0.03660746 -0.00011515422 0)
(0.032758856 7.9182557e-05 0)
(0.034054202 -6.3469034e-07 0)
(0.032961483 -1.3165465e-07 0)
(0.033869231 3.7965049e-06 0)
(0.033045492 -3.7053659e-06 0)
(0.033812437 3.6099309e-06 0)
(0.033099638 -3.5429798e-06 0)
(0.033769175 3.3569485e-06 0)
(0.033140181 -3.1615797e-06 0)
(0.03373115 2.9893733e-06 0)
(0.0331756 -2.8110559e-06 0)
(0.033697614 2.6517482e-06 0)
(0.033207077 -2.4976613e-06 0)
(0.033667912 2.3548511e-06 0)
(0.033235052 -2.2203635e-06 0)
(0.033641545 2.0939512e-06 0)
(0.033259923 -1.975936e-06 0)
(0.033618101 1.8646037e-06 0)
(0.033282057 -1.7609398e-06 0)
(0.033597223 1.6631497e-06 0)
(0.033301785 -1.572174e-06 0)
(0.033578599 1.4864681e-06 0)
(0.0333194 -1.4067785e-06 0)
(0.033561949 1.3318447e-06 0)
(0.033335166 -1.2622265e-06 0)
(0.033547024 1.1969098e-06 0)
(0.033349319 -1.1363016e-06 0)
(0.033533604 1.0795924e-06 0)
(0.033362068 -1.0270711e-06 0)
(0.033521488 9.7808962e-07 0)
(0.033373605 -9.3285137e-07 0)
(0.033510496 8.908373e-07 0)
(0.033384099 -8.521892e-07 0)
(0.033500467 8.1649031e-07 0)
(0.033393706 -7.8383906e-07 0)
(0.033491253 7.5389857e-07 0)
(0.033402566 -7.2673723e-07 0)
(0.033482717 7.0208391e-07 0)
(0.033410811 -6.7999403e-07 0)
(0.033474736 6.6023382e-07 0)
(0.033418562 -6.4285978e-07 0)
(0.03346719 6.277111e-07 0)
(0.033425934 -6.1447139e-07 0)
(0.033459957 6.0433789e-07 0)
(0.033433019 -5.9507902e-07 0)
(0.033452914 5.7801406e-07 0)
(0.033440242 -6.487334e-07 0)
(0.033448027 5.5057073e-07 0)
(0.031802829 0.0050200406 0)
(0.040539768 -0.00011770534 0)
(0.036620398 9.4713541e-05 0)
(0.038035103 -1.1069762e-06 0)
(0.036812152 1.9814831e-07 0)
(0.037855162 3.9711247e-06 0)
(0.036915757 -4.0451261e-06 0)
(0.037792347 3.919979e-06 0)
(0.036977741 -3.8873379e-06 0)
(0.037743145 3.6819111e-06 0)
(0.037024058 -3.4686112e-06 0)
(0.037699727 3.2810304e-06 0)
(0.037064544 -3.0846488e-06 0)
(0.037661405 2.9102752e-06 0)
(0.037100521 -2.7410095e-06 0)
(0.037627458 2.5843599e-06 0)
(0.037132495 -2.4368028e-06 0)
(0.03759732 2.2980454e-06 0)
(0.037160922 -2.1686096e-06 0)
(0.037570523 2.0463848e-06 0)
(0.037186221 -1.9326986e-06 0)
(0.037546659 1.8253407e-06 0)
(0.03720877 -1.7255686e-06 0)
(0.03752537 1.6314815e-06 0)
(0.037228904 -1.5440839e-06 0)
(0.037506337 1.4618266e-06 0)
(0.037246926 -1.3854721e-06 0)
(0.037489277 1.3137747e-06 0)
(0.037263104 -1.2472995e-06 0)
(0.037473935 1.1850529e-06 0)
(0.037277678 -1.1274452e-06 0)
(0.037460085 1.0736822e-06 0)
(0.037290866 -1.0240609e-06 0)
(0.03744752 9.779457e-07 0)
(0.037302863 -9.3555096e-07 0)
(0.037436055 8.9636706e-07 0)
(0.037313845 -8.6054836e-07 0)
(0.037425521 8.2768331e-07 0)
(0.037323974 -7.9788399e-07 0)
(0.037415763 7.7081941e-07 0)
(0.037333399 -7.465804e-07 0)
(0.037406639 7.2488092e-07 0)
(0.037342259 -7.058095e-07 0)
(0.037398014 6.8916242e-07 0)
(0.037350684 -6.7458002e-07 0)
(0.037389749 6.6353827e-07 0)
(0.037358783 -6.5303823e-07 0)
(0.037381697 6.3377964e-07 0)
(0.037366986 -7.184127e-07 0)
(0.037375826 6.0149601e-07 0)
(0.034813086 0.0052156098 0)
(0.044175309 -0.0001787404 0)
(0.040365871 0.00010843825 0)
(0.041887616 -1.8546605e-06 0)
(0.04053844 3.8607988e-07 0)
(0.041717973 3.9895649e-06 0)
(0.040663384 -4.3554027e-06 0)
(0.041649462 4.1793451e-06 0)
(0.040733162 -4.1950911e-06 0)
(0.041594344 3.9707036e-06 0)
(0.040785231 -3.7419775e-06 0)
(0.041545541 3.5410113e-06 0)
(0.040830777 -3.3283357e-06 0)
(0.041502441 3.140667e-06 0)
(0.040871249 -2.9578249e-06 0)
(0.041464254 2.7888709e-06 0)
(0.040907218 -2.6296746e-06 0)
(0.041430351 2.4799147e-06 0)
(0.040939197 -2.3403227e-06 0)
(0.041400204 2.2083841e-06 0)
(0.040967657 -2.085788e-06 0)
(0.041373356 1.9698974e-06 0)
(0.040993023 -1.8623055e-06 0)
(0.041349405 1.7607453e-06 0)
(0.041015674 -1.6664951e-06 0)
(0.041327992 1.5777086e-06 0)
(0.041035949 -1.4953646e-06 0)
(0.041308798 1.4179799e-06 0)
(0.041054151 -1.3462874e-06 0)
(0.041291536 1.2791057e-06 0)
(0.041070549 -1.2169747e-06 0)
(0.041275952 1.1589505e-06 0)
(0.041085387 -1.1054307e-06 0)
(0.041261814 1.0556609e-06 0)
(0.041098885 -1.0099336e-06 0)
(0.041248914 9.676442e-07 0)
(0.041111241 -9.2900802e-07 0)
(0.041237061 8.9353692e-07 0)
(0.041122638 -8.6139028e-07 0)
(0.041226082 8.3217625e-07 0)
(0.041133243 -8.0602404e-07 0)
(0.041215816 7.8259442e-07 0)
(0.041143212 -7.6201097e-07 0)
(0.041206112 7.4402367e-07 0)
(0.041152691 -7.2823448e-07 0)
(0.041196815 7.1640465e-07 0)
(0.041161802 -7.0469619e-07 0)
(0.041187757 6.8343268e-07 0)
(0.041170981 -7.8181225e-07 0)
(0.041180863 6.4585479e-07 0)
(0.038569122 0.0056324461 0)
(0.047717582 -0.00018091171 0)
(0.043980239 0.000122874 0)
(0.04561683 -1.7892739e-06 0)
(0.044143979 6.538931e-07 0)
(0.045457885 3.9134334e-06 0)
(0.044288766 -4.6214127e-06 0)
(0.045383571 4.3924855e-06 0)
(0.044366133 -4.4654647e-06 0)
(0.045322558 4.2237641e-06 0)
(0.044423904 -3.9817311e-06 0)
(0.045268404 3.7694348e-06 0)
(0.044474478 -3.5422061e-06 0)
(0.045220554 3.3430118e-06 0)
(0.04451942 -3.1481875e-06 0)
(0.045178152 2.968461e-06 0)
(0.044559359 -2.7990484e-06 0)
(0.045140505 2.6396264e-06 0)
(0.044594868 -2.4911352e-06 0)
(0.045107027 2.3506601e-06 0)
(0.044626471 -2.2202607e-06 0)
(0.045077213 2.0968714e-06 0)
(0.044654639 -1.982431e-06 0)
(0.045050615 1.8743039e-06 0)
(0.044679793 -1.7740516e-06 0)
(0.045026834 1.6795291e-06 0)
(0.044702309 -1.5919387e-06 0)
(0.045005517 1.509558e-06 0)
(0.044722523 -1.433295e-06 0)
(0.044986347 1.3617789e-06 0)
(0.044740735 -1.2956849e-06 0)
(0.044969038 1.2339185e-06 0)
(0.044757215 -1.1769829e-06 0)
(0.044953335 1.124004e-06 0)
(0.044772207 -1.0753563e-06 0)
(0.044939006 1.0303401e-06 0)
(0.044785932 -9.8923435e-07 0)
(0.044925841 9.5147456e-07 0)
(0.044798591 -9.172701e-07 0)
(0.044913646 8.8616812e-07 0)
(0.04481037 -8.583383e-07 0)
(0.044902243 8.3338775e-07 0)
(0.044821442 -8.1147674e-07 0)
(0.044891464 7.9230754e-07 0)
(0.04483197 -7.7544914e-07 0)
(0.044881141 7.6294828e-07 0)
(0.044842089 -7.5007612e-07 0)
(0.044871082 7.2701357e-07 0)
(0.044852234 -8.3871695e-07 0)
(0.044863138 6.8375239e-07 0)
(0.041681382 0.0058141517 0)
(0.050972147 -0.00024857169 0)
(0.047464873 0.00013268396 0)
(0.049221709 -1.696495e-06 0)
(0.047630527 8.6453328e-07 0)
(0.049074759 3.7219614e-06 0)
(0.047792156 -4.8510528e-06 0)
(0.048994466 4.5587279e-06 0)
(0.047876863 -4.6991754e-06 0)
(0.048927595 4.4413664e-06 0)
(0.047940258 -4.1882019e-06 0)
(0.048868144 3.9665548e-06 0)
(0.04799581 -3.7265198e-06 0)
(0.048815592 3.5175424e-06 0)
(0.048045175 -3.3123205e-06 0)
(0.048769018 3.1233395e-06 0)
(0.048089045 -2.9451199e-06 0)
(0.048727664 2.7773664e-06 0)
(0.048128049 -2.6212203e-06 0)
(0.048690889 2.4733774e-06 0)
(0.048162763 -2.3362692e-06 0)
(0.048658138 2.2064071e-06 0)
(0.048193705 -2.0860792e-06 0)
(0.048628918 1.9722852e-06 0)
(0.048221338 -1.8668728e-06 0)
(0.048602793 1.7674009e-06 0)
(0.048246073 -1.6752993e-06 0)
(0.048579374 1.5886089e-06 0)
(0.04826828 -1.5084153e-06 0)
(0.048558312 1.4331608e-06 0)
(0.048288288 -1.3636582e-06 0)
(0.048539294 1.2986647e-06 0)
(0.048306395 -1.2387907e-06 0)
(0.04852204 1.1830444e-06 0)
(0.048322867 -1.1318843e-06 0)
(0.048506296 1.0845167e-06 0)
(0.048337948 -1.0412866e-06 0)
(0.048491829 1.0015534e-06 0)
(0.048351858 -9.6557783e-07 0)
(0.048478429 9.3284721e-07 0)
(0.048364802 -9.0357277e-07 0)
(0.048465899 8.7730889e-07 0)
(0.048376967 -8.5425388e-07 0)
(0.048454056 8.3406054e-07 0)
(0.048388535 -8.1627123e-07 0)
(0.048442715 8.0321261e-07 0)
(0.048399654 -7.8923369e-07 0)
(0.048431667 7.6458976e-07 0)
(0.048410753 -8.8897609e-07 0)
(0.048422651 7.1534279e-07 0)
(0.0452528 0.0060776002 0)
(0.054178677 -0.00024751716 0)
(0.050825029 0.00014275538 0)
(0.052700364 -2.1639257e-06 0)
(0.050997633 8.726019e-07 0)
(0.052568422 3.4075892e-06 0)
(0.051173756 -5.0476596e-06 0)
(0.052481976 4.6789863e-06 0)
(0.051265547 -4.8965335e-06 0)
(0.052409286 4.6241244e-06 0)
(0.051334461 -4.3617502e-06 0)
(0.052344607 4.1327833e-06 0)
(0.051394917 -3.8816298e-06 0)
(0.052287419 3.6646053e-06 0)
(0.051448644 -3.4505427e-06 0)
(0.05223673 3.2538105e-06 0)
(0.05149639 -3.0681719e-06 0)
(0.052191721 2.8934033e-06 0)
(0.05153884 -2.7308278e-06 0)
(0.052151695 2.5767734e-06 0)
(0.051576622 -2.4340351e-06 0)
(0.052116047 2.2987155e-06 0)
(0.051610299 -2.173447e-06 0)
(0.052084241 2.0548754e-06 0)
(0.051640376 -1.9451321e-06 0)
(0.052055804 1.8414891e-06 0)
(0.0516673 -1.7456009e-06 0)
(0.05203031 1.6552788e-06 0)
(0.051691473 -1.5717856e-06 0)
(0.052007382 1.4933815e-06 0)
(0.051713255 -1.4210171e-06 0)
(0.051986678 1.3533052e-06 0)
(0.051732967 -1.2909638e-06 0)
(0.051967894 1.2328867e-06 0)
(0.0517509 -1.1796166e-06 0)
(0.051950752 1.1302688e-06 0)
(0.05176732 -1.0852539e-06 0)
(0.051935001 1.0438583e-06 0)
(0.051782465 -1.0063946e-06 0)
(0.05192041 9.7229187e-07 0)
(0.051796558 -9.4180329e-07 0)
(0.051906767 9.1443174e-07 0)
(0.051809804 -8.9041353e-07 0)
(0.051893872 8.6935241e-07 0)
(0.051822399 -8.5077046e-07 0)
(0.051881526 8.3726335e-07 0)
(0.051834505 -8.2224686e-07 0)
(0.051869503 7.9624478e-07 0)
(0.051846544 -9.3248815e-07 0)
(0.051859403 7.4081798e-07 0)
(0.048423809 0.0062380566 0)
(0.057109464 -0.00031708457 0)
(0.054060322 0.00014840079 0)
(0.056054914 -2.4287639e-06 0)
(0.054245681 8.5674022e-07 0)
(0.055938905 3.0271631e-06 0)
(0.054433765 -5.201504e-06 0)
(0.055845935 4.7566744e-06 0)
(0.054532351 -5.0574761e-06 0)
(0.055767475 4.7727996e-06 0)
(0.05460666 -4.5028716e-06 0)
(0.055697654 4.2686194e-06 0)
(0.054671931 -4.0080017e-06 0)
(0.05563591 3.7846366e-06 0)
(0.054729942 -3.5632657e-06 0)
(0.055581181 3.360262e-06 0)
(0.054781494 -3.1685682e-06 0)
(0.05553258 2.9880814e-06 0)
(0.054827329 -2.8202804e-06 0)
(0.05548936 2.6611534e-06 0)
(0.054868125 -2.5138439e-06 0)
(0.055450865 2.3740662e-06 0)
(0.054904491 -2.244787e-06 0)
(0.055416519 2.1223142e-06 0)
(0.054936969 -2.0090548e-06 0)
(0.055385809 1.9020062e-06 0)
(0.054966045 -1.8030431e-06 0)
(0.055358277 1.7097571e-06 0)
(0.054992151 -1.6235836e-06 0)
(0.055333513 1.5426098e-06 0)
(0.055015675 -1.4679204e-06 0)
(0.055311152 1.3979908e-06 0)
(0.055036966 -1.3336444e-06 0)
(0.055290862 1.273666e-06 0)
(0.055056337 -1.2186811e-06 0)
(0.055272346 1.1677182e-06 0)
(0.055074073 -1.121253e-06 0)
(0.055255331 1.0785017e-06 0)
(0.055090433 -1.0398277e-06 0)
(0.055239569 1.0046053e-06 0)
(0.055105657 -9.7312862e-07 0)
(0.055224831 9.4485175e-07 0)
(0.055119967 -9.2004888e-07 0)
(0.055210901 8.9827457e-07 0)
(0.055133572 -8.7903749e-07 0)
(0.055197566 8.6518685e-07 0)
(0.05514665 -8.492136e-07 0)
(0.055184584 8.2207942e-07 0)
(0.055159612 -9.6920001e-07 0)
(0.055173395 7.6039557e-07 0)
(0.051824757 0.0063692545 0)
(0.060029906 -0.00031534118 0)
(0.057174117 0.00015478859 0)
(0.059286458 -2.7080349e-06 0)
(0.057373954 7.2374928e-07 0)
(0.059186041 2.5755831e-06 0)
(0.057572309 -5.3142388e-06 0)
(0.059086173 4.7924678e-06 0)
(0.057677419 -5.1826465e-06 0)
(0.059002017 4.8881527e-06 0)
(0.057756987 -4.6121681e-06 0)
(0.05892716 4.3746743e-06 0)
(0.05782697 -4.106187e-06 0)
(0.058860957 3.8781679e-06 0)
(0.057889173 -3.6509831e-06 0)
(0.058802271 3.4431628e-06 0)
(0.057944451 -3.2467469e-06 0)
(0.058750155 3.0618156e-06 0)
(0.0579936 -2.8899659e-06 0)
(0.058703807 2.7268848e-06 0)
(0.058037346 -2.5760401e-06 0)
(0.058662526 2.4327858e-06 0)
(0.058076343 -2.3004055e-06 0)
(0.058625692 2.1748909e-06 0)
(0.058111173 -2.058912e-06 0)
(0.058592756 1.9492096e-06 0)
(0.058142356 -1.8478679e-06 0)
(0.058563227 1.7522725e-06 0)
(0.058170355 -1.6640252e-06 0)
(0.058536667 1.5810501e-06 0)
(0.058195587 -1.5045612e-06 0)
(0.058512681 1.432905e-06 0)
(0.058218424 -1.3670064e-06 0)
(0.058490916 1.305548e-06 0)
(0.058239203 -1.2492353e-06 0)
(0.058471052 1.1970155e-06 0)
(0.05825823 -1.1494267e-06 0)
(0.058452798 1.1056198e-06 0)
(0.058275782 -1.0660078e-06 0)
(0.058435887 1.0299133e-06 0)
(0.058292116 -9.9767055e-07 0)
(0.058420075 9.6868736e-07 0)
(0.058307468 -9.4327416e-07 0)
(0.05840513 9.2093867e-07 0)
(0.058322064 -9.0118251e-07 0)
(0.058390826 8.870888e-07 0)
(0.058336097 -8.702506e-07 0)
(0.058376906 8.4220863e-07 0)
(0.05834996 -9.9909946e-07 0)
(0.058364629 7.7431728e-07 0)
(0.055051972 0.0065001076 0)
(0.062699317 -0.00038242478 0)
(0.060166142 0.00015556736 0)
(0.062397677 -3.157571e-06 0)
(0.060382182 5.1498745e-07 0)
(0.062309775 2.0684021e-06 0)
(0.060589546 -5.3816443e-06 0)
(0.062202558 4.7886828e-06 0)
(0.060700888 -5.2723816e-06 0)
(0.062112788 4.9711116e-06 0)
(0.060785563 -4.6903398e-06 0)
(0.062033012 4.4516399e-06 0)
(0.060860138 -4.1768294e-06 0)
(0.061962459 3.9458071e-06 0)
(0.06092643 -3.7142661e-06 0)
(0.061899914 3.5030526e-06 0)
(0.060985342 -3.3032142e-06 0)
(0.061844369 3.1150846e-06 0)
(0.061037723 -2.940334e-06 0)
(0.061794969 2.7743924e-06 0)
(0.061084348 -2.621022e-06 0)
(0.061750969 2.4752505e-06 0)
(0.061125913 -2.3406558e-06 0)
(0.061711708 2.21294e-06 0)
(0.061163038 -2.095019e-06 0)
(0.061676599 1.9833969e-06 0)
(0.061196276 -1.8803553e-06 0)
(0.061645121 1.7830909e-06 0)
(0.061226124 -1.6933607e-06 0)
(0.061616805 1.60894e-06 0)
(0.061253023 -1.531164e-06 0)
(0.061591233 1.4582609e-06 0)
(0.06127737 -1.3912515e-06 0)
(0.061568028 1.3287246e-06 0)
(0.061299526 -1.2714613e-06 0)
(0.061546847 1.2183343e-06 0)
(0.061319814 -1.1699413e-06 0)
(0.061527383 1.1253727e-06 0)
(0.06133853 -1.0850881e-06 0)
(0.06150935 1.0483635e-06 0)
(0.061355948 -1.0155707e-06 0)
(0.061492487 9.8607534e-07 0)
(0.06137232 -9.6022277e-07 0)
(0.06147655 9.3747531e-07 0)
(0.061387884 -9.1733403e-07 0)
(0.061461298 9.0309301e-07 0)
(0.061402849 -8.8549152e-07 0)
(0.061446462 8.5676329e-07 0)
(0.061417594 -1.0222159e-06 0)
(0.061433105 7.8283803e-07 0)
(0.058298222 0.0065145158 0)
(0.065386951 -0.00037733248 0)
(0.063040753 0.00015707221 0)
(0.065391827 -3.6476487e-06 0)
(0.063269747 2.3002406e-07 0)
(0.065310015 1.5046484e-06 0)
(0.063485603 -5.4018825e-06 0)
(0.06519496 4.746708e-06 0)
(0.063602871 -5.3273852e-06 0)
(0.065099674 5.0226258e-06 0)
(0.06369249 -4.7381774e-06 0)
(0.065015112 4.5002913e-06 0)
(0.063771529 -4.2206454e-06 0)
(0.064940328 3.9882366e-06 0)
(0.063841796 -3.753753e-06 0)
(0.064874031 3.540535e-06 0)
(0.063904241 -3.3385364e-06 0)
(0.064815152 3.1484233e-06 0)
(0.063959765 -2.971886e-06 0)
(0.064762785 2.8041502e-06 0)
(0.064009189 -2.6492355e-06 0)
(0.06471614 2.501882e-06 0)
(0.06405325 -2.3659345e-06 0)
(0.064674518 2.2368362e-06 0)
(0.064092607 -2.1177275e-06 0)
(0.064637296 2.0049016e-06 0)
(0.064127846 -1.9008201e-06 0)
(0.064603922 1.8025097e-06 0)
(0.064159492 -1.7118713e-06 0)
(0.064573898 1.6265459e-06 0)
(0.064188013 -1.5479809e-06 0)
(0.064546782 1.4742982e-06 0)
(0.064213831 -1.4066072e-06 0)
(0.064522174 1.3434127e-06 0)
(0.064237326 -1.2855657e-06 0)
(0.064499712 1.2318722e-06 0)
(0.064258841 -1.1829847e-06 0)
(0.064479068 1.1379399e-06 0)
(0.064278692 -1.0972409e-06 0)
(0.064459942 1.0601219e-06 0)
(0.064297166 -1.0269897e-06 0)
(0.064442056 9.9717194e-07 0)
(0.064314531 -9.7104563e-07 0)
(0.064425152 9.4803182e-07 0)
(0.064331039 -9.2763671e-07 0)
(0.064408977 9.1333942e-07 0)
(0.064346914 -8.9508519e-07 0)
(0.064393251 8.6588599e-07 0)
(0.064362515 -1.0386121e-06 0)
(0.064378825 7.8622625e-07 0)
(0.061556056 0.0066089332 0)
(0.067847077 -0.00043863668 0)
(0.065789792 0.00015345336 0)
(0.068271624 -4.464822e-06 0)
(0.06603693 -9.5873427e-08 0)
(0.068186782 8.7521267e-07 0)
(0.066260622 -5.3765638e-06 0)
(0.068063275 4.6669941e-06 0)
(0.066383474 -5.3488087e-06 0)
(0.067962574 5.0435749e-06 0)
(0.066477863 -4.7566084e-06 0)
(0.06787337 4.5214503e-06 0)
(0.066561226 -4.2384286e-06 0)
(0.067794487 4.0061975e-06 0)
(0.066635344 -3.7701428e-06 0)
(0.067724553 3.5562695e-06 0)
(0.066701213 -3.3533326e-06 0)
(0.067662443 3.162417e-06 0)
(0.066759782 -2.9851723e-06 0)
(0.0676072 2.8166781e-06 0)
(0.066811918 -2.6611685e-06 0)
(0.067557992 2.513141e-06 0)
(0.0668584 -2.3766749e-06 0)
(0.06751408 2.2469895e-06 0)
(0.066899921 -2.1274247e-06 0)
(0.06747481 2.0140892e-06 0)
(0.0669371 -1.9096066e-06 0)
(0.067439596 1.8108556e-06 0)
(0.066970489 -1.7198654e-06 0)
(0.067407917 1.6341605e-06 0)
(0.067000584 -1.5552889e-06 0)
(0.067379303 1.48128e-06 0)
(0.067027828 -1.413323e-06 0)
(0.067353334 1.3498497e-06 0)
(0.067052623 -1.2917744e-06 0)
(0.067329628 1.2378448e-06 0)
(0.06707533 -1.1887637e-06 0)
(0.067307839 1.1435203e-06 0)
(0.067096282 -1.1026571e-06 0)
(0.067287652 1.0653722e-06 0)
(0.067115781 -1.0321044e-06 0)
(0.067268772 1.0021478e-06 0)
(0.067134111 -9.7590917e-07 0)
(0.067250929 9.52771e-07 0)
(0.067151536 -9.3225019e-07 0)
(0.067233857 9.179829e-07 0)
(0.067168294 -8.9919395e-07 0)
(0.067217267 8.6973305e-07 0)
(0.067184726 -1.0483858e-06 0)
(0.067201792 7.8475393e-07 0)
(0.064622634 0.0065192554 0)
(0.070343145 -0.00042960185 0)
(0.068424078 0.00015064464 0)
(0.071033396 -5.1599319e-06 0)
(0.068683961 -3.7773364e-07 0)
(0.070939845 2.0375185e-07 0)
(0.068914706 -5.2957029e-06 0)
(0.070807378 4.553864e-06 0)
(0.069042773 -5.3367355e-06 0)
(0.07070139 5.0352528e-06 0)
(0.06914176 -4.7465257e-06 0)
(0.070607706 4.5160277e-06 0)
(0.0692293 -4.2310271e-06 0)
(0.070524864 4.0004872e-06 0)
(0.069307139 -3.7641892e-06 0)
(0.070451419 3.5509641e-06 0)
(0.069376314 -3.3482702e-06 0)
(0.070386187 3.1576942e-06 0)
(0.069437825 -2.9807837e-06 0)
(0.070328166 2.8125338e-06 0)
(0.069492582 -2.6573464e-06 0)
(0.070276482 2.5095242e-06 0)
(0.069541402 -2.3733449e-06 0)
(0.070230358 2.2438415e-06 0)
(0.069585014 -2.124526e-06 0)
(0.070189107 2.0113535e-06 0)
(0.069624067 -1.907087e-06 0)
(0.070152116 1.8084804e-06 0)
(0.069659143 -1.7176759e-06 0)
(0.070118835 1.6320996e-06 0)
(0.069690759 -1.5533873e-06 0)
(0.070088773 1.4794908e-06 0)
(0.069719382 -1.4116695e-06 0)
(0.070061487 1.3482935e-06 0)
(0.069745434 -1.2903331e-06 0)
(0.070036578 1.2364874e-06 0)
(0.069769295 -1.1875023e-06 0)
(0.070013682 1.1423282e-06 0)
(0.069791312 -1.1015425e-06 0)
(0.069992467 1.0643131e-06 0)
(0.069811804 -1.031107e-06 0)
(0.069972626 1.00119e-06 0)
(0.069831067 -9.749942e-07 0)
(0.069953873 9.5186922e-07 0)
(0.06984938 -9.3134726e-07 0)
(0.069935934 9.1719144e-07 0)
(0.069866993 -8.9799219e-07 0)
(0.069918509 8.6847008e-07 0)
(0.069884229 -1.0516613e-06 0)
(0.069902006 7.7869901e-07 0)
(0.067864798 0.0065718713 0)
(0.072631831 -0.0004820313 0)
(0.070943318 0.0001426293 0)
(0.073669942 -5.9094373e-06 0)
(0.071211555 -5.4902521e-07 0)
(0.073568787 -4.9526347e-07 0)
(0.071447912 -5.153067e-06 0)
(0.073427156 4.410763e-06 0)