/*--------------------------------*- C++ -*----------------------------------*\
| =========                 |                                                 |
| \\      /  F ield         | OpenFOAM: The Open Source CFD Toolbox           |
|  \\    /   O peration     | Version:  2312                                  |
|   \\  /    A nd           | Website:  www.openfoam.com                      |
|    \\/     M anipulation  |                                                 |
\*---------------------------------------------------------------------------*/
FoamFile
{
    version     2.0;
    format      ascii;
    arch        "LSB;label=32;scalar=64";
    class       surfaceScalarField;
    location    "8";
    object      phi;
}
// * * * * * * * * * * * * * * * * * * * * * * * * * * * * * * * * * * * * * //

dimensions      [0 3 -1 0 0 0 0];

oriented        oriented;

internalField   nonuniform List<scalar> 
7870
(
5.3082662e-11
1.2931673e-09
5.1927921e-11
1.154741e-12
5.1958651e-11
-3.0729992e-14
5.1215356e-11
7.4329508e-13
5.2052881e-11
-8.375245e-13
5.1284633e-11
7.6824724e-13
5.2023472e-11
-7.3883878e-13
5.1334594e-11
6.8887766e-13
5.1982986e-11
-6.4839198e-13
5.1375754e-11
6.072324e-13
5.1945597e-11
-5.6984333e-13
5.1411273e-11
5.3432425e-13
5.191255e-11
-5.012769e-13
5.1442304e-11
4.7024619e-13
5.1883544e-11
-4.4123983e-13
5.146947e-11
4.1407346e-13
5.185813e-11
-3.8866031e-13
5.1493248e-11
3.6488216e-13
5.1835889e-11
-3.4264099e-13
5.1514043e-11
3.218462e-13
5.1816447e-11
-3.0240348e-13
5.1532207e-11
2.8424006e-13
5.1799475e-11
-2.6726839e-13
5.1548046e-11
2.5142926e-13
5.1784688e-11
-2.3664266e-13
5.1561828e-11
2.2286012e-13
5.1771838e-11
-2.1000936e-13
5.1573787e-11
1.9805053e-13
5.1760706e-11
-1.8691894e-13
5.1584124e-11
1.7658175e-13
5.1751106e-11
-1.6698161e-13
5.1593014e-11
1.5809142e-13
5.1742875e-11
-1.4986078e-13
5.1600608e-11
1.4226738e-13
5.1735875e-11
-1.3526738e-13
5.1607033e-11
1.2884245e-13
5.1729988e-11
-1.2295496e-13
5.1612398e-11
1.1758992e-13
5.1725113e-11
-1.1271554e-13
5.1616794e-11
1.0831967e-13
5.172117e-11
-1.0437608e-13
5.1620295e-11
1.0087502e-13
5.171809e-11
-9.7795563e-14
5.162296e-11
9.5130083e-14
5.1715822e-11
-9.2862146e-14
5.1624834e-11
9.098866e-14
5.1714333e-11
-8.949981e-14
5.1626073e-11
8.8260217e-14
5.1714633e-11
-8.8560149e-14
8.5012904e-14
1.4960167e-10
2.4898157e-09
1.5083743e-10
-8.1017822e-14
1.5025937e-10
5.4732754e-13
1.4930121e-10
1.7014614e-12
1.5050772e-10
-2.0440389e-12
1.4943334e-10
1.8426253e-12
1.5049371e-10
-1.7992083e-12
1.4951111e-10
1.6714832e-12
1.5043931e-10
-1.5765964e-12
1.4957122e-10
1.4753205e-12
1.503864e-10
-1.3850152e-12
1.4962228e-10
1.2984406e-12
1.5033926e-10
-1.2182588e-12
1.4966674e-10
1.14277e-12
1.5029783e-10
-1.0723311e-12
1.4970563e-10
1.0062703e-12
1.5026152e-10
-9.4454441e-13
1.4973967e-10
8.8672938e-13
1.5022973e-10
-8.3270403e-13
1.4976943e-10
7.8214556e-13
1.5020194e-10
-7.3491583e-13
1.4979543e-10
6.9075666e-13
1.5017769e-10
-6.4952817e-13
1.498181e-10
6.1102103e-13
1.5015655e-10
-5.7509963e-13
1.4983782e-10
5.4159325e-13
1.5013818e-10
-5.1037386e-13
1.4985493e-10
4.8130169e-13
1.5012227e-10
-4.5425827e-13
1.4986973e-10
4.2912883e-13
1.5010855e-10
-4.0580555e-13
1.4988245e-10
3.8419406e-13
1.5009678e-10
-3.6419767e-13
1.4989331e-10
3.4573882e-13
1.5008678e-10
-3.2873204e-13
1.4990251e-10
3.1311379e-13
1.5007836e-10
-2.988097e-13
1.4991018e-10
2.8576794e-13
1.5007139e-10
-2.7392512e-13
1.4991647e-10
2.632392e-13
1.5006575e-10
-2.536576e-13
1.4992148e-10
2.4514655e-13
1.5006135e-10
-2.3766409e-13
1.499253e-10
2.3118353e-13
1.5005811e-10
-2.2567129e-13
1.4992798e-10
2.2111731e-13
1.5005596e-10
-2.1748651e-13
1.499298e-10
2.1442717e-13
1.5005731e-10
-2.1607173e-13
2.0582061e-13
2.4301712e-10
3.5930485e-09
2.4727212e-10
-4.3360224e-12
2.4583654e-10
1.9829145e-12
2.4509538e-10
2.4426156e-12
2.4623136e-10
-3.1800153e-12
2.4526129e-10
2.8126976e-12
2.4625636e-10
-2.7942785e-12
2.4534199e-10
2.5858501e-12
2.4621013e-10
-2.4447336e-12
2.4539977e-10
2.2856799e-12
2.4616142e-10
-2.1466729e-12
2.4544779e-10
2.0120746e-12
2.4611757e-10
-1.8880359e-12
2.4548942e-10
1.7709186e-12
2.4607893e-10
-1.6618471e-12
2.455258e-10
1.5594032e-12
2.4604506e-10
-1.4638017e-12
2.4555763e-10
1.3741564e-12
2.460154e-10
-1.2904745e-12
2.4558546e-10
1.2120858e-12
2.4598947e-10
-1.1389262e-12
2.4560977e-10
1.0704624e-12
2.4596683e-10
-1.0065962e-12
2.4563096e-10
9.4689732e-13
2.4594711e-10
-8.9125029e-13
2.456494e-10
8.3930589e-13
2.4592996e-10
-7.9094146e-13
2.4566539e-10
7.4587253e-13
2.4591511e-10
-7.0397632e-13
2.4567922e-10
6.6502044e-13
2.459023e-10
-6.288867e-13
2.4569111e-10
5.9538496e-13
2.4589132e-10
-5.6440478e-13
2.4570126e-10
5.3579057e-13
2.4588197e-10
-5.0944167e-13
2.4570986e-10
4.8523099e-13
2.4587412e-10
-4.6306898e-13
2.4571703e-10
4.428522e-13
2.4586761e-10
-4.2450308e-13
2.4572291e-10
4.0793788e-13
2.4586235e-10
-3.9309166e-13
2.457276e-10
3.7989708e-13
2.4585823e-10
-3.6830225e-13
2.4573116e-10
3.5825365e-13
2.458552e-10
-3.4970834e-13
2.4573367e-10
3.4264729e-13
2.4585318e-10
-3.3699775e-13
2.4573545e-10
3.3215585e-13
2.4585569e-10
-3.36308e-13
3.1784277e-13
3.341435e-10
4.605155e-09
3.4108301e-10
-1.1275535e-11
3.3892923e-10
4.1366995e-12
3.3837372e-10
2.9981248e-12
3.3943657e-10
-4.2428663e-12
3.3856939e-10
3.6798767e-12
3.394985e-10
-3.7233943e-12
3.3865225e-10
3.4321077e-12
3.3945993e-10
-3.2524169e-12
3.387075e-10
3.0381112e-12
3.3941537e-10
-2.8545401e-12
3.3875243e-10
2.6750088e-12
3.3937478e-10
-2.5103788e-12
3.387912e-10
2.3544942e-12
3.3933894e-10
-2.2095885e-12
3.3882505e-10
2.0732969e-12
3.393075e-10
-1.9462567e-12
3.3885465e-10
1.8270084e-12
3.3927997e-10
-1.7157979e-12
3.3888053e-10
1.61153e-12
3.392559e-10
-1.5142979e-12
3.3890313e-10
1.4232357e-12
3.3923488e-10
-1.3383512e-12
3.3892283e-10
1.2589502e-12
3.3921657e-10
-1.184987e-12
3.3893997e-10
1.1159018e-12
3.3920065e-10
-1.0516162e-12
3.3895484e-10
9.916769e-13
3.3918685e-10
-9.359872e-13
3.3896769e-10
8.8417906e-13
3.3917495e-10
-8.3614776e-13
3.3897875e-10
7.9159395e-13
3.3916475e-10
-7.504121e-13
3.3898818e-10
7.1235862e-13
3.3915608e-10
-6.7733229e-13
3.3899617e-10
6.4513508e-13
3.3914878e-10
-6.1567376e-13
3.3900284e-10
5.8878771e-13
3.3914273e-10
-5.6439428e-13
3.3900831e-10
5.4236373e-13
3.3913784e-10
-5.2262595e-13
3.3901266e-10
5.0507655e-13
3.3913402e-10
-4.8965942e-13
3.3901598e-10
4.7629101e-13
3.391312e-10
-4.6492285e-13
3.3901831e-10
4.5552754e-13
3.3912929e-10
-4.4797737e-13
3.3902003e-10
4.4141914e-13
3.3913269e-10
-4.4896433e-13
4.2145315e-13
4.2279444e-10
5.5286106e-09
4.3221962e-10
-2.0700706e-11
4.2953277e-10
6.8235444e-12
4.2913912e-10
3.3917787e-12
4.3012319e-10
-5.2269369e-12
4.2935765e-10
4.4454167e-12
4.3022007e-10
-4.5858125e-12
4.2944178e-10
4.2103891e-12
4.3018862e-10
-3.9992571e-12
4.2949433e-10
3.7324098e-12
4.3014813e-10
-3.508345e-12
4.2953612e-10
3.2870228e-12
4.301108e-10
-3.0850639e-12
4.29572e-10
2.8932967e-12
4.3007777e-10
-2.7153617e-12
4.2960329e-10
2.5477743e-12
4.3004878e-10
-2.3917402e-12
4.2963066e-10
2.2451292e-12
4.3002338e-10
-2.1085254e-12
4.2965457e-10
1.9803405e-12
4.3000118e-10
-1.8609005e-12
4.2967546e-10
1.7489555e-12
4.2998178e-10
-1.6446788e-12
4.2969366e-10
1.547073e-12
4.2996488e-10
-1.4562092e-12
4.297095e-10
1.3712871e-12
4.2995019e-10
-1.2923096e-12
4.2972324e-10
1.2186321e-12
4.2993746e-10
-1.150213e-12
4.2973511e-10
1.0865318e-12
4.2992648e-10
-1.0275201e-12
4.2974532e-10
9.7275666e-13
4.2991707e-10
-9.2215906e-13
4.2975404e-10
8.7538608e-13
4.2990906e-10
-8.323504e-13
4.2976142e-10
7.9277574e-13
4.2990232e-10
-7.5657667e-13
4.2976758e-10
7.2352982e-13
4.2989674e-10
-6.9355664e-13
4.2977263e-10
6.66477e-13
4.2989222e-10
-6.422229e-13
4.2977665e-10
6.2064941e-13
4.2988869e-10
-6.0170183e-13
4.2977972e-10
5.8526348e-13
4.2988608e-10
-5.7128412e-13
4.2978188e-10
5.5972795e-13
4.298843e-10
-5.5039529e-13
4.2978351e-10
5.4220646e-13
4.2988835e-10
-5.5380588e-13
5.1659875e-13
5.0895261e-10
6.365908e-09
5.2068482e-10
-3.2432915e-11
5.176461e-10
9.8622589e-12
5.1739403e-10
3.6438564e-12
5.1829123e-10
-6.1241376e-12
5.1762598e-10
5.1106608e-12
5.1842118e-10
-5.3810081e-12
5.1771051e-10
4.9210599e-12
5.1839633e-10
-4.6850751e-12
5.1776017e-10
4.3685696e-12
5.1835982e-10
-4.1080023e-12
5.1779877e-10
3.8480721e-12
5.1832574e-10
-3.6120313e-12
5.1783176e-10
3.3872813e-12
5.1829551e-10
-3.179117e-12
5.1786049e-10
2.982795e-12
5.1826896e-10
-2.8002096e-12
5.1788561e-10
2.6284832e-12
5.182457e-10
-2.4686205e-12
5.1790756e-10
2.3184863e-12
5.1822536e-10
-2.1787021e-12
5.1792672e-10
2.0475948e-12
5.1820759e-10
-1.9255514e-12
5.1794342e-10
1.8112421e-12
5.1819211e-10
-1.7048931e-12
5.1795795e-10
1.6054414e-12
5.1817864e-10
-1.5130015e-12
5.1797055e-10
1.4267206e-12
5.1816698e-10
-1.3466366e-12
5.1798145e-10
1.2720638e-12
5.1815692e-10
-1.2029893e-12
5.1799081e-10
1.1388607e-12
5.1814829e-10
-1.0796339e-12
5.1799881e-10
1.0248629e-12
5.1814095e-10
-9.7448648e-13
5.1800558e-10
9.2814493e-13
5.1813477e-10
-8.8577031e-13
5.1801123e-10
8.4707249e-13
5.1812966e-10
-8.1198477e-13
5.1801586e-10
7.802735e-13
5.1812551e-10
-7.5187904e-13
5.1801955e-10
7.2661329e-13
5.1812228e-10
-7.0442787e-13
5.1802237e-10
6.8517052e-13
5.1811988e-10
-6.6879253e-13
5.1802436e-10
6.5524955e-13
5.1811822e-10
-6.4425375e-13
5.1802589e-10
6.3453594e-13
5.1812273e-10
-6.5065482e-13
6.0322618e-13
5.9268112e-10
7.1194769e-09
6.0648966e-10
-4.6241454e-11
6.0326688e-10
1.3085041e-11
6.0313881e-10
3.7719293e-12
6.0394078e-10
-6.926107e-12
6.0337425e-10
5.6771879e-12
6.0410198e-10
-6.1087397e-12
6.0345829e-10
5.5647533e-12
6.0408315e-10
-5.309934e-12
6.035049e-10
4.9468127e-12
6.0405055e-10
-4.6536434e-12
6.035403e-10
4.3583144e-12
6.0401968e-10
-4.0914114e-12
6.0357038e-10
3.8365811e-12
6.0399224e-10
-3.6009722e-12
6.0359656e-10
3.378475e-12
6.0396812e-10
-3.1717692e-12
6.0361943e-10
2.9771724e-12
6.0394698e-10
-2.7961754e-12
6.0363941e-10
2.6260573e-12
6.039285e-10
-2.4677849e-12
6.0365686e-10
2.3192329e-12
6.0391235e-10
-2.1810422e-12
6.0367206e-10
2.0515282e-12
6.0389827e-10
-1.9311041e-12
6.0368529e-10
1.8184277e-12
6.0388604e-10
-1.7137502e-12
6.0369676e-10
1.6159988e-12
6.0387543e-10
-1.5253105e-12
6.0370667e-10
1.4408257e-12
6.0386628e-10
-1.362603e-12
6.0371519e-10
1.289952e-12
6.0385844e-10
-1.2228798e-12
6.0372247e-10
1.1608308e-12
6.0385176e-10
-1.1037803e-12
6.0372863e-10
1.0512813e-12
6.0384615e-10
-1.0032916e-12
6.0373377e-10
9.5945174e-13
6.038415e-10
-9.1971339e-13
6.0373798e-10
8.8378736e-13
6.0383773e-10
-8.5162754e-13
6.0374134e-10
8.2300103e-13
6.0383479e-10
-7.9786981e-13
6.0374391e-10
7.7604438e-13
6.038326e-10
-7.5748033e-13
6.0374573e-10
7.4212459e-13
6.0383106e-10
-7.2958668e-13
6.0374714e-10
7.1845329e-13
6.0383587e-10
-7.3938785e-13
6.8136719e-13
6.7404003e-10
7.7916868e-09
6.8965049e-10
-6.1851921e-11
6.8639162e-10
1.634391e-11
6.8637014e-10
3.7934118e-12
6.8707216e-10
-7.6281213e-12
6.8660225e-10
6.1470986e-12
6.872626e-10
-6.7690895e-12
6.8668501e-10
6.1423354e-12
6.8724919e-10
-5.8741128e-12
6.8672844e-10
5.4675654e-12
6.8722039e-10
-5.1455927e-12
6.8676062e-10
4.8180874e-12
6.8719271e-10
-4.5235043e-12
6.867878e-10
4.2414875e-12
6.8716802e-10
-3.9811939e-12
6.8681143e-10
3.73507e-12
6.8714631e-10
-3.5066548e-12
6.8683207e-10
3.2914218e-12
6.8712729e-10
-3.0913985e-12
6.8685009e-10
2.9032517e-12
6.8711064e-10
-2.728333e-12
6.8686583e-10
2.5640453e-12
6.870961e-10
-2.411314e-12
6.8687954e-10
2.2680863e-12
6.8708343e-10
-2.1349866e-12
6.8689147e-10
2.0103834e-12
6.870724e-10
-1.8946843e-12
6.8690181e-10
1.7865889e-12
6.8706285e-10
-1.6863496e-12
6.8691075e-10
1.5929268e-12
6.8705461e-10
-1.506464e-12
6.8691844e-10
1.4261287e-12
6.8704755e-10
-1.3519894e-12
6.86925e-10
1.2833786e-12
6.8704153e-10
-1.2203159e-12
6.8693055e-10
1.1622654e-12
6.8703648e-10
-1.1092174e-12
6.8693519e-10
1.0607416e-12
6.8703229e-10
-1.0168135e-12
6.8693899e-10
9.7708731e-13
6.8702889e-10
-9.4153478e-13
6.8694202e-10
9.0987734e-13
6.8702624e-10
-8.8209067e-13
6.8694433e-10
8.5794707e-13
6.8702426e-10
-8.3740872e-13
6.8694597e-10
8.2041367e-13
6.8702284e-10
-8.064565e-13
6.8694727e-10
7.9402929e-13
6.8702781e-10
-8.199299e-13
7.5111832e-13
7.5307019e-10
8.3848667e-09
7.7018638e-10
-7.8968111e-11
7.6701565e-10
1.9514637e-11
7.670813e-10
3.7277663e-12
7.6768601e-10
-8.2328356e-12
7.6730969e-10
6.5234137e-12
7.6790311e-10
-7.3625013e-12
7.6739058e-10
6.654864e-12
7.6789455e-10
-6.3780834e-12
7.6743068e-10
5.9314326e-12
7.6786943e-10
-5.5843445e-12
7.6745963e-10
5.2278873e-12
7.6784489e-10
-4.9087593e-12
7.6748394e-10
4.6024316e-12
7.6782293e-10
-4.3201802e-12
7.6750504e-10
4.0529583e-12
7.678036e-10
-3.8052175e-12
7.6752346e-10
3.5715645e-12
7.6778666e-10
-3.3545996e-12
7.6753955e-10
3.1503635e-12
7.6777184e-10
-2.9606199e-12
7.6755359e-10
2.782291e-12
7.6775889e-10
-2.616609e-12
7.6756583e-10
2.4611458e-12
7.677476e-10
-2.3167552e-12
7.6757647e-10
2.1815118e-12
7.6773778e-10
-2.0559945e-12
7.675857e-10
1.9386718e-12
7.6772927e-10
-1.8299235e-12
7.6759367e-10
1.7285284e-12
7.6772193e-10
-1.6347242e-12
7.6760052e-10
1.5475351e-12
7.6771563e-10
-1.4670993e-12
7.6760637e-10
1.3926362e-12
7.6771027e-10
-1.3242167e-12
7.6761132e-10
1.2612153e-12
7.6770577e-10
-1.2036602e-12
7.6761546e-10
1.15105e-12
7.6770203e-10
-1.1033885e-12
7.6761885e-10
1.0602731e-12
7.6769901e-10
-1.0216969e-12
7.6762155e-10
9.873356e-13
7.6769664e-10
-9.5718119e-13
7.6762362e-10
9.3096746e-13
7.6769488e-10
-9.0866508e-13
7.6762509e-10
8.9020304e-13
7.6769358e-10
-8.7495135e-13
7.6762626e-10
8.6135758e-13
7.6769857e-10
-8.9224904e-13
8.1261812e-13
8.2980187e-10
8.9013148e-09
8.481168e-10
-9.7283039e-11
8.4513345e-10
2.2497992e-11
8.4526548e-10
3.5957355e-12
8.4578332e-10
-8.7506771e-12
8.4549634e-10
6.8103884e-12
8.4602358e-10
-7.8897386e-12
8.4557489e-10
7.1035602e-12
8.460193e-10
-6.8224934e-12
8.4561155e-10
6.3391807e-12
8.4599775e-10
-5.9705473e-12
8.4563728e-10
5.5883537e-12
8.4597629e-10
-5.2477608e-12
8.4565875e-10
4.9199708e-12
8.4595701e-10
-4.6184479e-12
8.4567734e-10
4.3326297e-12
8.4594004e-10
-4.0679131e-12
8.4569357e-10
3.8180316e-12
8.4592515e-10
-3.5861808e-12
8.4570774e-10
3.3677726e-12
8.4591212e-10
-3.1650009e-12
8.4572011e-10
2.9743059e-12
8.4590074e-10
-2.7972412e-12
8.4573088e-10
2.6310034e-12
8.4589082e-10
-2.4766879e-12
8.4574025e-10
2.332076e-12
8.4588219e-10
-2.1979275e-12
8.4574838e-10
2.0724811e-12
8.458747e-10
-1.956252e-12
8.4575539e-10
1.8478387e-12
8.4586825e-10
-1.7475798e-12
8.4576143e-10
1.6543577e-12
8.4586271e-10
-1.5683858e-12
8.4576658e-10
1.4887715e-12
8.45858e-10
-1.4156419e-12
8.4577094e-10
1.348283e-12
8.4585404e-10
-1.2867648e-12
8.4577457e-10
1.2305158e-12
8.4585076e-10
-1.1795713e-12
8.4577756e-10
1.1334728e-12
8.458481e-10
-1.0922373e-12
8.4577994e-10
1.0554954e-12
8.4584601e-10
-1.0232574e-12
8.4578176e-10
9.9521899e-13
8.4584446e-10
-9.7136075e-13
8.4578306e-10
9.5160247e-13
8.4584329e-10
-9.3518273e-13
8.457841e-10
9.2055301e-13
8.458482e-10
-9.563525e-13
8.6603701e-13
9.0426275e-10
9.343302e-09
9.2345924e-10
-1.1647953e-10
9.2073917e-10
2.5218065e-11
9.2091905e-10
3.4158561e-12
9.2136521e-10
-9.1968361e-12
9.2116206e-10
7.0135362e-12
9.2162408e-10
-8.3517587e-12
9.2123785e-10
7.4897897e-12
9.2162351e-10
-7.2081493e-12
9.2127096e-10
6.6917233e-12
9.2160541e-10
-6.3049902e-12
9.212935e-10
5.9002577e-12
9.2158696e-10
-5.541217e-12
9.2131215e-10
5.1947781e-12
9.2157033e-10
-4.8766226e-12
9.2132828e-10
4.5746757e-12
9.2155566e-10
-4.2952934e-12
9.2134235e-10
4.0313442e-12
9.215428e-10
-3.7866287e-12
9.2135463e-10
3.5559384e-12
9.2153153e-10
-3.3419054e-12
9.2136534e-10
3.1404952e-12
9.2152169e-10
-2.9535901e-12
9.2137468e-10
2.7780176e-12
9.2151311e-10
-2.6151211e-12
9.213828e-10
2.4623935e-12
9.2150565e-10
-2.3207817e-12
9.2138983e-10
2.1882989e-12
9.2149918e-10
-2.0656008e-12
9.2139591e-10
1.9511092e-12
9.214936e-10
-1.8452682e-12
9.2140113e-10
1.7468216e-12
9.2148881e-10
-1.6560618e-12
9.214056e-10
1.571987e-12
9.2148474e-10
-1.4947836e-12
9.2140937e-10
1.4236517e-12
9.2148131e-10
-1.3587058e-12
9.2141252e-10
1.2993062e-12
9.2147847e-10
-1.245522e-12
9.214151e-10
1.1968404e-12
9.2147617e-10
-1.1533043e-12
9.2141716e-10
1.1145004e-12
9.2147437e-10
-1.0804588e-12
9.2141875e-10
1.0508377e-12
9.2147301e-10
-1.0256291e-12
9.2141987e-10
1.0047433e-12
9.2147197e-10
-9.8728355e-13
9.2142078e-10
9.7175006e-13
9.2147671e-10
-1.0122831e-12
9.1157219e-13
9.7648092e-10
9.7130711e-09
9.9622903e-10
-1.3622763e-10
9.9382701e-10
2.7620076e-11
9.9404184e-10
3.2010278e-12
9.9443265e-10
-9.5876446e-12
9.9430682e-10
7.1393635e-12
9.9470465e-10
-8.7495883e-12
9.943794e-10
7.8150475e-12
9.9470725e-10
-7.536e-12
9.9440886e-10
6.9901089e-12
9.9469246e-10
-6.5885914e-12
9.9442823e-10
6.1644904e-12
9.9467696e-10
-5.7899495e-12
9.9444411e-10
5.4276324e-12
9.9466291e-10
-5.0954299e-12
9.9445781e-10
4.7797811e-12
9.9465051e-10
-4.4879977e-12
9.9446975e-10
4.2121053e-12
9.9463963e-10
-3.9565072e-12
9.9448018e-10
3.7153925e-12
9.946301e-10
-3.4918311e-12
9.9448927e-10
3.2813284e-12
9.9462177e-10
-3.0860957e-12
9.9449719e-10
2.9026035e-12
9.9461451e-10
-2.7324441e-12
9.9450407e-10
2.5728321e-12
9.9460819e-10
-2.4249027e-12
9.9451004e-10
2.2864518e-12
9.9460272e-10
-2.1582773e-12
9.945152e-10
2.0386309e-12
9.9459799e-10
-1.928064e-12
9.9451963e-10
1.8251871e-12
9.9459394e-10
-1.7303734e-12
9.9452341e-10
1.6425166e-12
9.9459049e-10
-1.5618641e-12
9.9452661e-10
1.4875333e-12
9.9458759e-10
-1.419685e-12
9.9452928e-10
1.3576144e-12
9.9458518e-10
-1.3014255e-12
9.9453147e-10
1.2505539e-12
9.9458323e-10
-1.2050693e-12
9.9453322e-10
1.1645163e-12
9.945817e-10
-1.128946e-12
9.9453456e-10
1.0979805e-12
9.9458056e-10
-1.0716237e-12
9.9453552e-10
1.0497766e-12
9.9457965e-10
-1.0314062e-12
9.9453629e-10
1.0151013e-12
9.9458413e-10
-1.0601162e-12
9.4944353e-13
1.0464839e-09
1.0012837e-08
1.0664404e-09
-1.5618407e-10
1.0643913e-09
2.9669179e-11
1.0646357e-09
2.9565928e-12
1.0649863e-09
-9.9382463e-12
1.0649307e-09
7.1949823e-12
1.0652653e-09
-9.0842417e-12
1.0649995e-09
8.0809428e-12
1.0652706e-09
-7.8071226e-12
1.0650252e-09
7.23551e-12
1.065259e-09
-6.8223866e-12
1.0650414e-09
6.3820525e-12
1.0652463e-09
-5.9948829e-12
1.0650546e-09
5.6194091e-12
1.0652348e-09
-5.2756857e-12
1.0650659e-09
4.9487156e-12
1.0652246e-09
-4.6467453e-12
1.0650757e-09
4.3609928e-12
1.0652157e-09
-4.0964504e-12
1.0650843e-09
3.8467328e-12
1.0652079e-09
-3.6153379e-12
1.0650919e-09
3.3973332e-12
1.065201e-09
-3.1952527e-12
1.0650984e-09
3.0052276e-12
1.065195e-09
-2.8290948e-12
1.0651041e-09
2.663805e-12
1.0651898e-09
-2.5106791e-12
1.065109e-09
2.3673068e-12
1.0651853e-09
-2.2346271e-12
1.0651132e-09
2.1107307e-12
1.0651814e-09
-1.9962757e-12
1.0651169e-09
1.8897466e-12
1.0651781e-09
-1.7915977e-12
1.06512e-09
1.7006236e-12
1.0651753e-09
-1.617133e-12
1.0651226e-09
1.5401657e-12
1.0651729e-09
-1.4699293e-12
1.0651248e-09
1.4056573e-12
1.0651709e-09
-1.3474897e-12
1.0651266e-09
1.2948131e-12
1.0651693e-09
-1.2477245e-12
1.0651281e-09
1.2057293e-12
1.065168e-09
-1.1688994e-12
1.0651292e-09
1.1368231e-12
1.0651671e-09
-1.1095166e-12
1.06513e-09
1.0868717e-12
1.0651663e-09
-1.0677207e-12
1.0651306e-09
1.0507758e-12
1.0651705e-09
-1.0999563e-12
9.7988953e-13
1.114295e-09
1.0244792e-08
1.1341068e-09
-1.7599589e-10
1.1324271e-09
3.1348925e-11
1.132703e-09
2.6806958e-12
1.1330265e-09
-1.026181e-11
1.1330338e-09
7.1877525e-12
1.1333062e-09
-9.3566824e-12
1.133098e-09
8.2891865e-12
1.1333136e-09
-8.0227099e-12
1.1331199e-09
7.4292117e-12
1.133305e-09
-7.007518e-12
1.133133e-09
6.5540445e-12
1.1332951e-09
-6.1570358e-12
1.1331435e-09
5.7710714e-12
1.1332861e-09
-5.418289e-12
1.1331525e-09
5.0823262e-12
1.1332781e-09
-4.7723285e-12
1.1331603e-09
4.4787527e-12
1.133271e-09
-4.2071569e-12
1.1331671e-09
3.9506169e-12
1.1332648e-09
-3.713042e-12
1.1331731e-09
3.4890901e-12
1.1332594e-09
-3.2816058e-12
1.1331782e-09
3.0864031e-12
1.1332547e-09
-2.9055556e-12
1.1331827e-09
2.735767e-12
1.1332506e-09
-2.5785386e-12
1.1331866e-09
2.4312678e-12
1.133247e-09
-2.295031e-12
1.13319e-09
2.1677686e-12
1.133244e-09
-2.0502433e-12
1.1331929e-09
1.9408223e-12
1.1332413e-09
-1.8400393e-12
1.1331954e-09
1.7465972e-12
1.1332391e-09
-1.6608651e-12
1.1331975e-09
1.5818109e-12
1.1332372e-09
-1.5096882e-12
1.1331992e-09
1.4436738e-12
1.1332357e-09
-1.3839431e-12
1.1332006e-09
1.3298375e-12
1.1332344e-09
-1.2814815e-12
1.1332018e-09
1.2383439e-12
1.1332334e-09
-1.2005174e-12
1.1332027e-09
1.1675587e-12
1.1332326e-09
-1.1394968e-12
1.1332033e-09
1.1162144e-12
1.133232e-09
-1.0964134e-12
1.1332038e-09
1.078958e-12
1.1332358e-09
-1.131935e-12
1.0031637e-12
1.179926e-09
1.0411116e-08
1.1992413e-09
-1.953112e-10
1.1979352e-09
3.2655086e-11
1.1982455e-09
2.3704074e-12
1.1985534e-09
-1.0569782e-11
1.1986161e-09
7.1250725e-12
1.1988273e-09
-9.56783e-12
1.1986749e-09
8.4415829e-12
1.1988362e-09
-8.1840602e-12
1.1986928e-09
7.5726024e-12
1.1988305e-09
-7.1452243e-12
1.1987029e-09
6.6816575e-12
1.1988234e-09
-6.2775121e-12
1.1987108e-09
5.8836618e-12
1.1988167e-09
-5.5242136e-12
1.1987175e-09
5.18153e-12
1.1988108e-09
-4.8656054e-12
1.1987234e-09
4.5661926e-12
1.1988056e-09
-4.2893832e-12
1.1987285e-09
4.0277568e-12
1.198801e-09
-3.7856113e-12
1.1987329e-09
3.5572278e-12
1.198797e-09
-3.3457451e-12
1.1987367e-09
3.146686e-12
1.1987935e-09
-2.9623485e-12
1.1987401e-09
2.7892105e-12
1.1987905e-09
-2.6289445e-12
1.198743e-09
2.4787723e-12
1.1987879e-09
-2.339901e-12
1.1987455e-09
2.2101343e-12
1.1987856e-09
-2.0903346e-12
1.1987477e-09
1.9787627e-12
1.1987836e-09
-1.8760282e-12
1.1987495e-09
1.7807509e-12
1.198782e-09
-1.6933581e-12
1.198751e-09
1.6127523e-12
1.1987806e-09
-1.5392319e-12
1.1987523e-09
1.4719223e-12
1.1987794e-09
-1.4110332e-12
1.1987534e-09
1.3558652e-12
1.1987785e-09
-1.3065694e-12
1.1987543e-09
1.2625814e-12
1.1987777e-09
-1.2240144e-12
1.1987549e-09
1.1903963e-12
1.1987772e-09
-1.1617686e-12
1.1987554e-09
1.1380054e-12
1.1987767e-09
-1.1176851e-12
1.1987558e-09
1.0998461e-12
1.19878e-09
-1.1562075e-12
1.0195315e-12
1.2433633e-09
1.0514003e-08
1.2618553e-09
-2.1380314e-10
1.2609337e-09
3.3576666e-11
1.2612637e-09
2.0404084e-12
1.2615665e-09
-1.0872603e-11
1.2616775e-09
7.0140326e-12
1.2618285e-09
-9.7187789e-12
1.2617301e-09
8.5399632e-12
1.2618386e-09
-8.2925931e-12
1.2617441e-09
7.6671561e-12
1.2618357e-09
-7.2368342e-12
1.2617512e-09
6.7661635e-12
1.2618312e-09
-6.3574926e-12
1.2617565e-09
5.9582951e-12
1.2618268e-09
-5.594501e-12
1.261761e-09
5.2473072e-12
1.2618229e-09
-4.9274936e-12
1.2617649e-09
4.624176e-12
1.2618195e-09
-4.3439385e-12
1.2617683e-09
4.0789142e-12
1.2618165e-09
-3.8337597e-12
1.2617713e-09
3.6024186e-12
1.2618139e-09
-3.3883014e-12
1.2617739e-09
3.1866706e-12
1.2618116e-09
-3.0000323e-12
1.2617761e-09
2.8246622e-12
1.2618096e-09
-2.6623925e-12
1.261778e-09
2.5102879e-12
1.2618078e-09
-2.369678e-12
1.2617797e-09
2.2382444e-12
1.2618063e-09
-2.1169434e-12
1.2617811e-09
2.0039405e-12
1.261805e-09
-1.8999174e-12
1.2617824e-09
1.8034198e-12
1.2618039e-09
-1.7149302e-12
1.2617834e-09
1.6332932e-12
1.261803e-09
-1.5588496e-12
1.2617843e-09
1.4906792e-12
1.2618022e-09
-1.4290246e-12
1.261785e-09
1.3731504e-12
1.2618016e-09
-1.3232329e-12
1.2617855e-09
1.2786786e-12
1.2618011e-09
-1.23962e-12
1.261786e-09
1.2055594e-12
1.2618007e-09
-1.1765505e-12
1.2617863e-09
1.1524593e-12
1.2618004e-09
-1.1317497e-12
1.2617866e-09
1.1136509e-12
1.2618033e-09
-1.1729511e-12
1.0292672e-12
1.3045378e-09
1.0555715e-08
1.3219464e-09
-2.3121169e-10
1.3214882e-09
3.4034832e-11
1.3217657e-09
1.7628519e-12
1.3220655e-09
-1.1172336e-11
1.3222177e-09
6.8618078e-12
1.3223097e-09
-9.810762e-12
1.3222635e-09
8.5861426e-12
1.3223208e-09
-8.3498681e-12
1.3222735e-09
7.7144097e-12
1.3223205e-09
-7.2837649e-12
1.3222777e-09
6.8089051e-12
1.3223185e-09
-6.3982293e-12
1.3222806e-09
5.99615e-12
1.3223164e-09
-5.6302543e-12
1.322283e-09
5.2806953e-12
1.3223144e-09
-4.9589651e-12
1.322285e-09
4.6536169e-12
1.3223127e-09
-4.3716794e-12
1.3222868e-09
4.1048947e-12
1.3223112e-09
-3.8582433e-12
1.3222883e-09
3.6253738e-12
1.3223099e-09
-3.409943e-12
1.3222896e-09
3.2069861e-12
1.3223088e-09
-3.0191982e-12
1.3222908e-09
2.8426794e-12
1.3223078e-09
-2.679407e-12
1.3222918e-09
2.5263097e-12
1.3223069e-09
-2.3848287e-12
1.3222926e-09
2.2525401e-12
1.3223062e-09
-2.1304862e-12
1.3222933e-09
2.0167503e-12
1.3223055e-09
-1.9120807e-12
1.322294e-09
1.8149588e-12
1.322305e-09
-1.7259186e-12
1.3222945e-09
1.6437546e-12
1.3223045e-09
-1.5688472e-12
1.3222949e-09
1.5002372e-12
1.3223041e-09
-1.4381978e-12
1.3222953e-09
1.3819624e-12
1.3223038e-09
-1.3317314e-12
1.3222956e-09
1.286886e-12
1.3223035e-09
-1.247577e-12
1.3222958e-09
1.2132843e-12
1.3223033e-09
-1.1840736e-12
1.322296e-09
1.159803e-12
1.3223031e-09
-1.1388331e-12
1.3222961e-09
1.1205947e-12
1.3223055e-09
-1.1823625e-12
1.0326521e-12
1.3633585e-09
1.0538607e-08
1.3795001e-09
-2.4735329e-10
1.3796831e-09
3.3851873e-11
1.3797761e-09
1.6698101e-12
1.3800539e-09
-1.1450098e-11
1.3802381e-09
6.6775513e-12
1.3802714e-09
-9.8439994e-12
1.3802752e-09
8.5822793e-12
1.3802828e-09
-8.3574178e-12
1.3802812e-09
7.716014e-12
1.3802849e-09
-7.2874897e-12
1.3802825e-09
6.8112967e-12
1.3802853e-09
-6.4010347e-12
1.380283e-09
5.998465e-12
1.3802854e-09
-5.6326314e-12
1.3802833e-09
5.2827834e-12
1.3802854e-09
-4.9610402e-12
1.3802835e-09
4.6554744e-12
1.3802853e-09
-4.3735054e-12
1.3802837e-09
4.1065442e-12
1.3802853e-09
-3.8598559e-12
1.3802838e-09
3.6268403e-12
1.3802852e-09
-3.4113712e-12
1.3802839e-09
3.2082928e-12
1.3802852e-09
-3.0204673e-12
1.380284e-09
2.8438471e-12
1.3802852e-09
-2.680539e-12
1.3802841e-09
2.5273574e-12
1.3802851e-09
-2.3858433e-12
1.3802842e-09
2.2534845e-12
1.3802851e-09
-2.1314007e-12
1.3802843e-09
2.0176066e-12
1.3802851e-09
-1.9129104e-12
1.3802843e-09
1.8157405e-12
1.3802851e-09
-1.7266771e-12
1.3802843e-09
1.6444735e-12
1.380285e-09
-1.5695462e-12
1.3802844e-09
1.5009036e-12
1.380285e-09
-1.4388469e-12
1.3802844e-09
1.3825841e-12
1.380285e-09
-1.3323373e-12
1.3802844e-09
1.2874669e-12
1.380285e-09
-1.2481406e-12
1.3802845e-09
1.2138195e-12
1.380285e-09
-1.1845803e-12
1.3802845e-09
1.1602746e-12
1.3802848e-09
-1.1391721e-12
1.3802845e-09
1.1209099e-12
1.3802868e-09
-1.184656e-12
1.0299716e-12
1.4199061e-09
1.046495e-08
1.4345534e-09
-2.6200058e-10
1.4354428e-09
3.2962456e-11
1.435285e-09
1.8275613e-12
1.4355279e-09
-1.1692949e-11
1.4357378e-09
6.4676654e-12
1.4357132e-09
-9.8194188e-12
1.4357651e-09
8.5303989e-12
1.4357246e-09
-8.316919e-12
1.4357669e-09
7.6736632e-12
1.435729e-09
-7.2495551e-12
1.4357655e-09
6.7748089e-12
1.4357317e-09
-6.3672787e-12
1.4357637e-09
5.9665302e-12
1.4357339e-09
-5.6028398e-12
1.435762e-09
5.2547066e-12
1.4357357e-09
-4.9347827e-12
1.4357604e-09
4.6307487e-12
1.4357373e-09
-4.3503547e-12
1.4357591e-09
4.0847447e-12
1.4357386e-09
-3.8394252e-12
1.4357579e-09
3.6075968e-12
1.4357398e-09
-3.3933175e-12
1.4357568e-09
3.1912792e-12
1.4357409e-09
-3.0044869e-12
1.4357559e-09
2.8287756e-12
1.4357418e-09
-2.6663629e-12
1.4357551e-09
2.5139729e-12
1.4357425e-09
-2.3732328e-12
1.4357545e-09
2.2415606e-12
1.4357432e-09
-2.1201431e-12
1.4357539e-09
2.0069414e-12
1.4357438e-09
-1.9028159e-12
1.4357534e-09
1.8061533e-12
1.4357443e-09
-1.7175749e-12
1.4357529e-09
1.6358016e-12
1.4357447e-09
-1.5612818e-12
1.4357526e-09
1.4929989e-12
1.435745e-09
-1.4312791e-12
1.4357523e-09
1.3753105e-12
1.4357453e-09
-1.3253346e-12
1.435752e-09
1.2806959e-12
1.4357455e-09
-1.2415767e-12
1.4357519e-09
1.2074237e-12
1.4357456e-09
-1.1783238e-12
1.4357518e-09
1.1541224e-12
1.4357456e-09
-1.1330129e-12
1.4357517e-09
1.1148386e-12
1.4357471e-09
-1.1800616e-12
1.0215142e-12
1.4743177e-09
1.0336883e-08
1.4871452e-09
-2.7482808e-10
1.488624e-09
3.1483646e-11
1.4882747e-09
2.1768913e-12
1.4884828e-09
-1.1901051e-11
1.4887153e-09
6.2350997e-12
1.4886349e-09
-9.7389736e-12
1.4887329e-09
8.4323605e-12
1.4886462e-09
-8.2301991e-12
1.4887308e-09
7.5890863e-12
1.4886528e-09
-7.1715751e-12
1.4887267e-09
6.7009624e-12
1.4886578e-09
-6.298383e-12
1.4887226e-09
5.9016823e-12
1.4886619e-09
-5.5421316e-12
1.488719e-09
5.1976414e-12
1.4886655e-09
-4.8812957e-12
1.4887158e-09
4.5804761e-12
1.4886686e-09
-4.3031994e-12
1.4887129e-09
4.0404101e-12
1.4886713e-09
-3.7978094e-12
1.4887105e-09
3.5684501e-12
1.4886737e-09
-3.3565402e-12
1.4887083e-09
3.1566591e-12
1.4886758e-09
-2.9719283e-12
1.4887064e-09
2.7980972e-12
1.4886775e-09
-2.6374743e-12
1.4887048e-09
2.486718e-12
1.4886791e-09
-2.347527e-12
1.4887034e-09
2.2172689e-12
1.4886804e-09
-2.0971866e-12
1.4887022e-09
1.9852026e-12
1.4886816e-09
-1.8822214e-12
1.4887011e-09
1.7866001e-12
1.4886825e-09
-1.6989947e-12
1.4887002e-09
1.6181033e-12
1.4886834e-09
-1.5444017e-12
1.4886995e-09
1.4768556e-12
1.488684e-09
-1.4158128e-12
1.4886989e-09
1.3604474e-12
1.4886846e-09
-1.311018e-12
1.4886984e-09
1.2668576e-12
1.488685e-09
-1.2281614e-12
1.4886981e-09
1.1943657e-12
1.4886853e-09
-1.1655662e-12
1.4886978e-09
1.1416037e-12
1.4886854e-09
-1.1206104e-12
1.4886976e-09
1.1026309e-12
1.4886864e-09
-1.1688237e-12
1.0075694e-12
1.5265864e-09
1.0156546e-08
1.5372673e-09
-2.8550898e-10
1.5392037e-09
2.9547266e-11
1.5387608e-09
2.6198285e-12
1.5389199e-09
-1.2060231e-11
1.5391718e-09
5.9832531e-12
1.5390368e-09
-9.6039997e-12
1.5391789e-09
8.2902767e-12
1.5390478e-09
-8.0990599e-12
1.5391727e-09
7.4640987e-12
1.5390564e-09
-7.0552015e-12
1.539166e-09
6.59133e-12
1.5390634e-09
-6.1958121e-12
1.5391598e-09
5.8053005e-12
1.5390695e-09
-5.4517981e-12
1.5391543e-09
5.1128011e-12
1.5390747e-09
-4.801717e-12
1.5391495e-09
4.5057256e-12
1.5390793e-09
-4.2330427e-12
1.5391453e-09
3.9744831e-12
1.5390833e-09
-3.7358935e-12
1.5391416e-09
3.5102328e-12
1.5390868e-09
-3.3018215e-12
1.5391383e-09
3.1051684e-12
1.5390899e-09
-2.9234841e-12
1.5391355e-09
2.752464e-12
1.5390925e-09
-2.5944875e-12
1.5391331e-09
2.4461721e-12
1.5390948e-09
-2.3092726e-12
1.539131e-09
2.1811259e-12
1.5390968e-09
-2.0630194e-12
1.5391292e-09
1.9528525e-12
1.5390985e-09
-1.8515649e-12
1.5391276e-09
1.7574966e-12
1.5390999e-09
-1.6713316e-12
1.5391263e-09
1.5917548e-12
1.5391011e-09
-1.5192647e-12
1.5391252e-09
1.4528168e-12
1.5391022e-09