/*--------------------------------*- C++ -*----------------------------------*\
| =========                 |                                                 |
| \\      /  F ield         | OpenFOAM: The Open Source CFD Toolbox           |
|  \\    /   O peration     | Version:  2312                                  |
|   \\  /    A nd           | Website:  www.openfoam.com                      |
|    \\/     M anipulation  |                                                 |
\*---------------------------------------------------------------------------*/
FoamFile
{
    version     2.0;
    format      ascii;
    arch        "LSB;label=32;scalar=64";
    class       volSymmTensorField;
    location    "8";
    object      sigma_0;
}
// * * * * * * * * * * * * * * * * * * * * * * * * * * * * * * * * * * * * * //

dimensions      [0 2 -2 0 0 0 0];

internalField   nonuniform List<symmTensor> 
4000
(
(-0.39079283 -0.20770258 0 -0.070834385 0 0)
(-0.66804695 -0.1491498 0 -3.0150713e-05 0 0)
(-0.59380303 -0.14066779 0 3.5034036e-06 0 0)
(-0.63278869 -0.14530109 0 -2.9517654e-05 0 0)
(-0.60116996 -0.141486 0 3.2037466e-05 0 0)
(-0.63086001 -0.14508125 0 -2.9358391e-05 0 0)
(-0.60379688 -0.14180361 0 2.8156782e-05 0 0)
(-0.62924408 -0.14488778 0 -2.6261948e-05 0 0)
(-0.605482 -0.14200925 0 2.4702179e-05 0 0)
(-0.62775254 -0.14470869 0 -2.3143741e-05 0 0)
(-0.606895 -0.14218179 0 2.1710358e-05 0 0)
(-0.62642254 -0.14454886 0 -2.0364115e-05 0 0)
(-0.60812992 -0.14233245 0 1.9098595e-05 0 0)
(-0.62525011 -0.14440786 0 -1.79216e-05 0 0)
(-0.60921606 -0.14246483 0 1.6811546e-05 0 0)
(-0.62421857 -0.14428371 0 -1.5780548e-05 0 0)
(-0.61017277 -0.14258133 0 1.4808505e-05 0 0)
(-0.62331078 -0.14417439 0 -1.3905672e-05 0 0)
(-0.61101614 -0.14268393 0 1.3055331e-05 0 0)
(-0.62251127 -0.14407806 0 -1.2265457e-05 0 0)
(-0.61176023 -0.14277437 0 1.1522392e-05 0 0)
(-0.62180637 -0.14399311 0 -1.0832233e-05 0 0)
(-0.61241742 -0.14285418 0 1.0183822e-05 0 0)
(-0.62118405 -0.14391809 0 -9.5818056e-06 0 0)
(-0.61299867 -0.14292471 0 9.0170401e-06 0 0)
(-0.62063368 -0.14385174 0 -8.4930669e-06 0 0)
(-0.61351369 -0.14298715 0 8.0023634e-06 0 0)
(-0.62014591 -0.14379294 0 -7.5476373e-06 0 0)
(-0.61397108 -0.14304255 0 7.1226751e-06 0 0)
(-0.61971241 -0.14374071 0 -6.7295585e-06 0 0)
(-0.61437851 -0.14309184 0 6.3631364e-06 0 0)
(-0.61932584 -0.14369415 0 -6.0250239e-06 0 0)
(-0.6147428 -0.14313585 0 5.7109372e-06 0 0)
(-0.61897964 -0.14365249 0 -5.4221474e-06 0 0)
(-0.61507006 -0.14317534 0 5.155083e-06 0 0)
(-0.61866792 -0.14361501 0 -4.9107655e-06 0 0)
(-0.61536578 -0.14321096 0 4.6862134e-06 0 0)
(-0.6183854 -0.1435811 0 -4.4822719e-06 0 0)
(-0.61563493 -0.14324331 0 4.2964532e-06 0 0)
(-0.61812732 -0.14355017 0 -4.1294847e-06 0 0)
(-0.61588203 -0.14327294 0 3.9792987e-06 0 0)
(-0.61788928 -0.14352171 0 -3.8465548e-06 0 0)
(-0.61611126 -0.14330035 0 3.7295556e-06 0 0)
(-0.61766727 -0.14349523 0 -3.6289495e-06 0 0)
(-0.61632646 -0.14332601 0 3.5433788e-06 0 0)
(-0.61745748 -0.14347029 0 -3.4736746e-06 0 0)
(-0.61653125 -0.14335034 0 3.4190214e-06 0 0)
(-0.61725649 -0.14344646 0 -3.3767107e-06 0 0)
(-0.61673351 -0.14337418 0 3.3870078e-06 0 0)
(-0.61709751 -0.14342766 0 -3.3338382e-06 0 0)
(-0.35580391 -0.19390042 0 -0.066203916 0 0)
(-0.60578945 -0.14212163 0 -0.00023964823 0 0)
(-0.55253915 -0.13572897 0 -3.3819004e-05 0 0)
(-0.5856038 -0.13981074 0 -2.8721541e-05 0 0)
(-0.55776665 -0.13623894 0 3.6393508e-05 0 0)
(-0.58394175 -0.13961809 0 -3.1803005e-05 0 0)
(-0.56008559 -0.13653671 0 3.1776802e-05 0 0)
(-0.58253998 -0.13944029 0 -2.9320039e-05 0 0)
(-0.56157493 -0.13673051 0 2.7743231e-05 0 0)
(-0.58122548 -0.13927204 0 -2.593372e-05 0 0)
(-0.56282152 -0.13689301 0 2.4353287e-05 0 0)
(-0.58005108 -0.13912156 0 -2.2832103e-05 0 0)
(-0.56391052 -0.13703485 0 2.1418556e-05 0 0)
(-0.57901559 -0.13898876 0 -2.0095917e-05 0 0)
(-0.56486829 -0.13715947 0 1.8853003e-05 0 0)
(-0.57810452 -0.13887183 0 -1.7695744e-05 0 0)
(-0.56571197 -0.13726913 0 1.6606799e-05 0 0)
(-0.57730274 -0.13876887 0 -1.5593696e-05 0 0)
(-0.56645577 -0.13736572 0 1.4640957e-05 0 0)
(-0.5765966 -0.13867814 0 -1.3754721e-05 0 0)
(-0.56711207 -0.13745086 0 1.2922134e-05 0 0)
(-0.57597401 -0.13859812 0 -1.2147851e-05 0 0)
(-0.56769178 -0.137526 0 1.1421306e-05 0 0)
(-0.57542432 -0.13852746 0 -1.0745972e-05 0 0)
(-0.56820456 -0.13759241 0 1.0113152e-05 0 0)
(-0.57493817 -0.13846496 0 -9.5254241e-06 0 0)
(-0.56865898 -0.1376512 0 8.9756057e-06 0 0)
(-0.57450726 -0.13840957 0 -8.4656097e-06 0 0)
(-0.56906263 -0.13770337 0 7.9894814e-06 0 0)
(-0.57412425 -0.13836036 0 -7.5486463e-06 0 0)
(-0.56942226 -0.13774979 0 7.1381508e-06 0 0)
(-0.57378265 -0.13831649 0 -6.7590683e-06 0 0)
(-0.56974389 -0.13779125 0 6.4072662e-06 0 0)
(-0.57347664 -0.13827723 0 -6.0835699e-06 0 0)
(-0.57003292 -0.13782845 0 5.7845244e-06 0 0)
(-0.57320105 -0.13824191 0 -5.5107875e-06 0 0)
(-0.5702942 -0.13786201 0 5.2594694e-06 0 0)
(-0.57295118 -0.13820994 0 -5.0311228e-06 0 0)
(-0.57053212 -0.1378925 0 4.8233369e-06 0 0)
(-0.57272282 -0.13818078 0 -4.6366114e-06 0 0)
(-0.57075067 -0.13792044 0 4.4689529e-06 0 0)
(-0.57251209 -0.13815393 0 -4.3208603e-06 0 0)
(-0.57095355 -0.1379463 0 4.1907292e-06 0 0)
(-0.57231542 -0.13812894 0 -4.0791399e-06 0 0)
(-0.57114419 -0.13797051 0 3.9848754e-06 0 0)
(-0.57212942 -0.1381054 0 -3.9090954e-06 0 0)
(-0.57132579 -0.13799347 0 3.8511022e-06 0 0)
(-0.57195077 -0.13808286 0 -3.8052627e-06 0 0)
(-0.57150379 -0.13801567 0 3.8754078e-06 0 0)
(-0.5718011 -0.138064 0 -3.7099582e-06 0 0)
(-0.33413968 -0.1841044 0 -0.061743754 0 0)
(-0.56595248 -0.1370025 0 -0.00012854096 0 0)
(-0.52481899 -0.13230059 0 -5.4545655e-05 0 0)
(-0.55506736 -0.13614927 0 -2.7232411e-05 0 0)
(-0.52962975 -0.1327272 0 3.6646094e-05 0 0)
(-0.55357457 -0.1359654 0 -3.0732357e-05 0 0)
(-0.53175706 -0.13301232 0 3.1792158e-05 0 0)
(-0.55230114 -0.13579701 0 -2.9048457e-05 0 0)
(-0.53312174 -0.13319839 0 2.7618667e-05 0 0)
(-0.55109963 -0.13563588 0 -2.5769288e-05 0 0)
(-0.53426247 -0.13335433 0 2.4217597e-05 0 0)
(-0.55002512 -0.1354916 0 -2.269788e-05 0 0)
(-0.53525875 -0.1334904 0 2.1294968e-05 0 0)
(-0.54907765 -0.13536426 0 -1.9979473e-05 0 0)
(-0.53613498 -0.13360995 0 1.8743587e-05 0 0)
(-0.54824404 -0.13525213 0 -1.7593484e-05 0 0)
(-0.53690691 -0.13371516 0 1.651038e-05 0 0)
(-0.54751047 -0.13515339 0 -1.5503636e-05 0 0)
(-0.53758749 -0.13380782 0 1.4556011e-05 0 0)
(-0.54686441 -0.13506638 0 -1.3675313e-05 0 0)
(-0.53818805 -0.13388951 0 1.2847239e-05 0 0)
(-0.5462948 -0.13498964 0 -1.2077761e-05 0 0)
(-0.53871856 -0.13396161 0 1.1355197e-05 0 0)
(-0.5457919 -0.13492187 0 -1.068403e-05 0 0)
(-0.53918787 -0.13402533 0 1.0054714e-05 0 0)
(-0.54534711 -0.13486193 0 -9.4705991e-06 0 0)
(-0.53960379 -0.13408174 0 8.9238572e-06 0 0)
(-0.54495285 -0.1348088 0 -8.4169932e-06 0 0)
(-0.53997328 -0.1341318 0 7.9435595e-06 0 0)
(-0.54460241 -0.13476159 0 -7.5054392e-06 0 0)
(-0.5403025 -0.13417636 0 7.0972992e-06 0 0)
(-0.54428982 -0.1347195 0 -6.7205712e-06 0 0)
(-0.54059697 -0.13421615 0 6.3708269e-06 0 0)
(-0.54400978 -0.13468183 0 -6.0491774e-06 0 0)
(-0.54086163 -0.13425187 0 5.7519338e-06 0 0)
(-0.54375753 -0.13464793 0 -5.4799881e-06 0 0)
(-0.54110091 -0.13428409 0 5.2302622e-06 0 0)
(-0.54352879 -0.13461724 0 -5.003509e-06 0 0)
(-0.54131884 -0.13431338 0 4.7971638e-06 0 0)
(-0.54331968 -0.13458924 0 -4.611909e-06 0 0)
(-0.54151907 -0.13434022 0 4.4456276e-06 0 0)
(-0.54312667 -0.13456345 0 -4.2990022e-06 0 0)
(-0.541705 -0.13436507 0 4.1703453e-06 0 0)
(-0.54294646 -0.13453944 0 -4.0604593e-06 0 0)
(-0.54187976 -0.13438835 0 3.968117e-06 0 0)
(-0.54277595 -0.1345168 0 -3.8950058e-06 0 0)
(-0.54204633 -0.13441044 0 3.8403104e-06 0 0)
(-0.54261199 -0.13449511 0 -3.7988704e-06 0 0)
(-0.54220932 -0.13443166 0 3.9100338e-06 0 0)
(-0.54247045 -0.13447664 0 -3.8061926e-06 0 0)
(-0.31947714 -0.17556016 0 -0.056858344 0 0)
(-0.52973071 -0.13232218 0 -6.9291628e-05 0 0)
(-0.49757882 -0.12885154 0 -7.9258533e-05 0 0)
(-0.52540947 -0.1324894 0 -2.2730145e-05 0 0)
(-0.50213049 -0.12921522 0 3.3375132e-05 0 0)
(-0.52410807 -0.13231382 0 -2.6408359e-05 0 0)
(-0.50409074 -0.12948776 0 2.8851431e-05 0 0)
(-0.5229481 -0.13215478 0 -2.5968719e-05 0 0)
(-0.50534434 -0.12966617 0 2.4875409e-05 0 0)
(-0.52184577 -0.13200065 0 -2.3141726e-05 0 0)
(-0.50639098 -0.12981557 0 2.1776016e-05 0 0)
(-0.52085889 -0.13186246 0 -2.0398076e-05 0 0)
(-0.50730482 -0.1299459 0 1.9142143e-05 0 0)
(-0.51998862 -0.13174048 0 -1.7957523e-05 0 0)
(-0.50810857 -0.13006039 0 1.6847746e-05 0 0)
(-0.51922298 -0.13163306 0 -1.5813452e-05 0 0)
(-0.50881668 -0.13016115 0 1.4840295e-05 0 0)
(-0.51854925 -0.13153847 0 -1.3935172e-05 0 0)
(-0.50944103 -0.1302499 0 1.308364e-05 0 0)
(-0.51795592 -0.13145511 0 -1.2291893e-05 0 0)
(-0.509992 -0.13032815 0 1.1547769e-05 0 0)
(-0.51743283 -0.13138159 0 -1.0856029e-05 0 0)
(-0.51047874 -0.13039721 0 1.0206715e-05 0 0)
(-0.51697102 -0.13131666 0 -9.6033692e-06 0 0)
(-0.51090934 -0.13045824 0 9.037853e-06 0 0)
(-0.51656259 -0.13125922 0 -8.5127783e-06 0 0)
(-0.51129098 -0.13051229 0 8.0214714e-06 0 0)
(-0.51620058 -0.13120831 0 -7.5658569e-06 0 0)
(-0.51163002 -0.13056026 0 7.1404368e-06 0 0)
(-0.5158788 -0.13116307 0 -6.746637e-06 0 0)
(-0.51193212 -0.13060295 0 6.3799071e-06 0 0)
(-0.51559178 -0.13112273 0 -6.0413176e-06 0 0)
(-0.51220235 -0.13064109 0 5.7270865e-06 0 0)
(-0.51533466 -0.13108661 0 -5.4380391e-06 0 0)
(-0.51244524 -0.13067532 0 5.1710208e-06 0 0)
(-0.51510305 -0.13105411 0 -4.9266971e-06 0 0)
(-0.51266484 -0.13070622 0 4.7024324e-06 0 0)
(-0.51489303 -0.13102467 0 -4.4988003e-06 0 0)
(-0.51286486 -0.13073431 0 4.3136038e-06 0 0)
(-0.51470104 -0.1309978 0 -4.1473854e-06 0 0)
(-0.51304865 -0.13076007 0 3.9983368e-06 0 0)
(-0.51452382 -0.13097305 0 -3.8670381e-06 0 0)
(-0.51321932 -0.13078392 0 3.7520712e-06 0 0)
(-0.51435835 -0.13094999 0 -3.6541848e-06 0 0)
(-0.51337976 -0.13080628 0 3.5724037e-06 0 0)
(-0.51420176 -0.13092824 0 -3.5086222e-06 0 0)
(-0.51353273 -0.13082751 0 3.4619588e-06 0 0)
(-0.51405107 -0.13090738 0 -3.4268111e-06 0 0)
(-0.51368206 -0.13084779 0 3.5799814e-06 0 0)
(-0.51391687 -0.13088924 0 -3.5145131e-06 0 0)
(-0.30603012 -0.16736372 0 -0.052170494 0 0)
(-0.49473327 -0.12768301 0 3.2542582e-06 0 0)
(-0.47075111 -0.12535344 0 -9.5937444e-05 0 0)
(-0.49656192 -0.12883178 0 -1.9110645e-05 0 0)
(-0.4752822 -0.12569893 0 2.9551117e-05 0 0)
(-0.49550192 -0.12866572 0 -2.1961149e-05 0 0)
(-0.47710743 -0.12596 0 2.567661e-05 0 0)
(-0.49444581 -0.12851533 0 -2.2688182e-05 0 0)
(-0.47826124 -0.12613114 0 2.1929573e-05 0 0)
(-0.4934329 -0.12836784 0 -2.0328118e-05 0 0)
(-0.47922322 -0.12627433 0 1.91583e-05 0 0)
(-0.49252512 -0.12823544 0 -1.7933467e-05 0 0)
(-0.48006293 -0.12639921 0 1.6834741e-05 0 0)
(-0.49172455 -0.12811856 0 -1.5790356e-05 0 0)
(-0.48080149 -0.12650891 0 1.4815848e-05 0 0)
(-0.49102026 -0.12801563 0 -1.3905507e-05 0 0)
(-0.48145219 -0.12660545 0 1.3050311e-05 0 0)
(-0.49040056 -0.12792498 0 -1.2253959e-05 0 0)
(-0.48202597 -0.1266905 0 1.15055e-05 0 0)
(-0.48985485 -0.1278451 0 -1.0808985e-05 0 0)
(-0.48253233 -0.12676547 0 1.0154881e-05 0 0)
(-0.48937378 -0.12777465 0 -9.5463853e-06 0 0)
(-0.48297967 -0.12683165 0 8.9755952e-06 0 0)
(-0.48894908 -0.12771242 0 -8.4448853e-06 0 0)
(-0.48337544 -0.12689015 0 7.9477414e-06 0 0)
(-0.4885735 -0.12765737 0 -7.4859034e-06 0 0)
(-0.4837262 -0.12694194 0 7.0539864e-06 0 0)
(-0.48824061 -0.12760858 0 -6.6532644e-06 0 0)
(-0.48403782 -0.12698792 0 6.2792662e-06 0 0)
(-0.48794474 -0.12756521 0 -5.932932e-06 0 0)
(-0.48431549 -0.12702884 0 5.6105336e-06 0 0)
(-0.48768086 -0.12752654 0 -5.3127779e-06 0 0)
(-0.48456386 -0.12706541 0 5.0365446e-06 0 0)
(-0.48744446 -0.12749191 0 -4.7823847e-06 0 0)
(-0.48478709 -0.12709823 0 4.5476797e-06 0 0)
(-0.48723155 -0.12746074 0 -4.3328853e-06 0 0)
(-0.48498892 -0.12712786 0 4.1358035e-06 0 0)
(-0.48703849 -0.12743251 0 -3.9568437e-06 0 0)
(-0.48517273 -0.12715481 0 3.7941697e-06 0 0)
(-0.48686203 -0.12740673 0 -3.6481917e-06 0 0)
(-0.48534163 -0.12717952 0 3.5174027e-06 0 0)
(-0.48669915 -0.12738297 0 -3.4022734e-06 0 0)
(-0.48549846 -0.12720242 0 3.3016451e-06 0 0)
(-0.48654709 -0.12736084 0 -3.2161755e-06 0 0)
(-0.48564588 -0.12722389 0 3.1451148e-06 0 0)
(-0.48640321 -0.12733995 0 -3.0904277e-06 0 0)
(-0.48578643 -0.12724428 0 3.0510136e-06 0 0)
(-0.48626469 -0.12731989 0 -3.0210908e-06 0 0)
(-0.48592336 -0.12726369 0 3.2043125e-06 0 0)
(-0.48613798 -0.12730215 0 -3.1785908e-06 0 0)
(-0.29296499 -0.15939924 0 -0.047709479 0 0)
(-0.46142553 -0.12313513 0 8.9740767e-05 0 0)
(-0.44448437 -0.12182125 0 -0.0001039112 0 0)
(-0.46852735 -0.12517439 0 -1.6340559e-05 0 0)
(-0.44911196 -0.12217939 0 2.5896048e-05 0 0)
(-0.46773201 -0.12502004 0 -1.8076466e-05 0 0)
(-0.45082967 -0.12243006 0 2.2913108e-05 0 0)
(-0.46677486 -0.12487797 0 -1.9815249e-05 0 0)
(-0.45189279 -0.1225942 0 1.9352539e-05 0 0)
(-0.46584423 -0.12473685 0 -1.7864281e-05 0 0)
(-0.45277717 -0.12273141 0 1.6867024e-05 0 0)
(-0.46500908 -0.12461002 0 -1.5775504e-05 0 0)
(-0.45354888 -0.12285105 0 1.4814932e-05 0 0)
(-0.4642725 -0.12449803 0 -1.3892881e-05 0 0)
(-0.45422764 -0.12295614 0 1.3037153e-05 0 0)
(-0.46362454 -0.12439942 0 -1.2235004e-05 0 0)
(-0.4548257 -0.12304863 0 1.1483349e-05 0 0)
(-0.46305445 -0.12431257 0 -1.0781969e-05 0 0)
(-0.45535307 -0.1231301 0 1.0123956e-05 0 0)
(-0.46255246 -0.12423604 0 -9.5106091e-06 0 0)
(-0.45581851 -0.12320193 0 8.9354795e-06 0 0)
(-0.46210995 -0.12416854 0 -8.3996974e-06 0 0)
(-0.45622971 -0.12326533 0 7.8977795e-06 0 0)
(-0.46171932 -0.12410891 0 -7.4305261e-06 0 0)
(-0.45659351 -0.12332137 0 6.9933385e-06 0 0)
(-0.46137388 -0.12405617 0 -6.586751e-06 0 0)
(-0.45691594 -0.123371 0 6.2069033e-06 0 0)
(-0.46106773 -0.12400941 0 -5.8541435e-06 0 0)
(-0.4572024 -0.12341505 0 5.5252194e-06 0 0)
(-0.46079565 -0.12396785 0 -5.2203576e-06 0 0)
(-0.45745764 -0.12345427 0 4.9368089e-06 0 0)
(-0.46055299 -0.12393079 0 -4.6747272e-06 0 0)
(-0.45768595 -0.12348932 0 4.4317829e-06 0 0)
(-0.46033563 -0.1238976 0 -4.2080946e-06 0 0)
(-0.45789115 -0.12352078 0 4.0016862e-06 0 0)
(-0.46013987 -0.12386772 0 -3.8126707e-06 0 0)
(-0.45807666 -0.12354919 0 3.6393758e-06 0 0)
(-0.45996239 -0.12384065 0 -3.4819342e-06 0 0)
(-0.4582456 -0.12357503 0 3.3389431e-06 0 0)
(-0.45980017 -0.12381592 0 -3.2105839e-06 0 0)
(-0.45840082 -0.12359874 0 3.0957099e-06 0 0)
(-0.45965047 -0.12379314 0 -2.9945962e-06 0 0)
(-0.45854494 -0.1236207 0 2.9063866e-06 0 0)
(-0.45951072 -0.12377189 0 -2.8315639e-06 0 0)
(-0.4586804 -0.1236413 0 2.7696233e-06 0 0)
(-0.45937851 -0.12375184 0 -2.7224659e-06 0 0)
(-0.45880954 -0.12366089 0 2.6887402e-06 0 0)
(-0.45925121 -0.12373257 0 -2.662513e-06 0 0)
(-0.45893508 -0.12367946 0 2.8664053e-06 0 0)
(-0.45913192 -0.12371524 0 -2.8730259e-06 0 0)
(-0.28040331 -0.15171367 0 -0.043453961 0 0)
(-0.42979466 -0.11867485 0 0.00019160692 0 0)
(-0.41880349 -0.11825986 0 -0.0001038371 0 0)
(-0.44133094 -0.12151613 0 -1.3513644e-05 0 0)
(-0.42363483 -0.11865703 0 2.2431705e-05 0 0)
(-0.44078778 -0.12137606 0 -1.4666852e-05 0 0)
(-0.42526661 -0.11889844 0 2.0483243e-05 0 0)
(-0.43992597 -0.12124214 0 -1.7281492e-05 0 0)
(-0.42624727 -0.11905585 0 1.7078784e-05 0 0)
(-0.43907171 -0.12110718 0 -1.5689876e-05 0 0)
(-0.42706012 -0.11918725 0 1.4844913e-05 0 0)
(-0.43830373 -0.12098576 0 -1.3871053e-05 0 0)
(-0.4277691 -0.11930179 0 1.3032373e-05 0 0)
(-0.43762631 -0.12087854 0 -1.2218316e-05 0 0)
(-0.42839267 -0.1194024 0 1.1467374e-05 0 0)
(-0.43703041 -0.12078411 0 -1.0760736e-05 0 0)
(-0.42894213 -0.11949095 0 1.0100424e-05 0 0)
(-0.43650616 -0.12070096 0 -9.4828811e-06 0 0)
(-0.42942668 -0.11956895 0 8.90466e-06 0 0)
(-0.43604457 -0.12062768 0 -8.3647289e-06 0 0)
(-0.42985433 -0.11963773 0 7.8592717e-06 0 0)
(-0.43563769 -0.12056304 0 -7.3876722e-06 0 0)
(-0.43023217 -0.11969844 0 6.9465158e-06 0 0)
(-0.43527853 -0.12050594 0 -6.5352705e-06 0 0)
(-0.43056646 -0.1197521 0 6.1509782e-06 0 0)
(-0.43496095 -0.12045543 0 -5.7931528e-06 0 0)
(-0.43086275 -0.11979962 0 5.4592414e-06 0 0)
(-0.4346795 -0.12041065 0 -5.1488077e-06 0 0)
(-0.43112597 -0.11984181 0 4.8596469e-06 0 0)
(-0.43442938 -0.12037085 0 -4.59138e-06 0 0)
(-0.43136052 -0.11987937 0 4.3421006e-06 0 0)
(-0.43420632 -0.12033535 0 -4.1114926e-06 0 0)
(-0.43157031 -0.11991294 0 3.8979079e-06 0 0)
(-0.43400654 -0.12030356 0 -3.7010969e-06 0 0)
(-0.43175886 -0.11994308 0 3.5196381e-06 0 0)
(-0.43382662 -0.12027493 0 -3.3533517e-06 0 0)
(-0.43192931 -0.1199703 0 3.2010194e-06 0 0)
(-0.43366351 -0.12024899 0 -3.0625368e-06 0 0)
(-0.43208454 -0.11999506 0 2.9368748e-06 0 0)
(-0.43351445 -0.1202253 0 -2.8240171e-06 0 0)
(-0.43222714 -0.12001778 0 2.7231263e-06 0 0)
(-0.4333769 -0.12020345 0 -2.6343057e-06 0 0)
(-0.43235953 -0.12003884 0 2.5569548e-06 0 0)
(-0.43324851 -0.12018308 0 -2.4913956e-06 0 0)
(-0.43248396 -0.1200586 0 2.4373202e-06 0 0)
(-0.43312707 -0.12016384 0 -2.3965355e-06 0 0)
(-0.43260257 -0.12007739 0 2.367399e-06 0 0)
(-0.43301012 -0.12014534 0 -2.3439442e-06 0 0)
(-0.43271765 -0.12009517 0 2.5608777e-06 0 0)
(-0.43289812 -0.12012845 0 -2.5954268e-06 0 0)
(-0.26844744 -0.14432293 0 -0.039381439 0 0)
(-0.3998317 -0.1143057 0 0.00030599188 0 0)
(-0.39370139 -0.11467236 0 -9.7316471e-05 0 0)
(-0.41501689 -0.11785901 0 -9.8863206e-06 0 0)
(-0.39886658 -0.11513212 0 1.9241285e-05 0 0)
(-0.41466588 -0.11773361 0 -1.1571642e-05 0 0)
(-0.40042379 -0.11536529 0 1.826014e-05 0 0)
(-0.41389431 -0.11760769 0 -1.4966244e-05 0 0)
(-0.40132926 -0.11551621 0 1.4995151e-05 0 0)
(-0.41311108 -0.11747873 0 -1.3699164e-05 0 0)
(-0.40207611 -0.11564196 0 1.2992666e-05 0 0)
(-0.41240534 -0.11736256 0 -1.2127073e-05 0 0)
(-0.4027271 -0.11575154 0 1.1399713e-05 0 0)
(-0.41178269 -0.11725997 0 -1.0684775e-05 0 0)
(-0.40329966 -0.1158478 0 1.0029625e-05 0 0)
(-0.411235 -0.11716962 0 -9.4105987e-06 0 0)
(-0.4038042 -0.11593251 0 8.8338142e-06 0 0)
(-0.41075319 -0.11709006 0 -8.293156e-06 0 0)
(-0.40424915 -0.11600714 0 7.7879139e-06 0 0)
(-0.41032899 -0.11701994 0 -7.3152965e-06 0 0)
(-0.40464187 -0.11607294 0 6.8735715e-06 0 0)
(-0.40995509 -0.11695808 0 -6.4608108e-06 0 0)
(-0.40498886 -0.11613103 0 6.0752411e-06 0 0)
(-0.40962507 -0.11690345 0 -5.7153332e-06 0 0)
(-0.40529585 -0.11618237 0 5.3794355e-06 0 0)
(-0.40933326 -0.11685512 0 -5.0662994e-06 0 0)
(-0.40556796 -0.11622785 0 4.7744177e-06 0 0)
(-0.40907466 -0.11681227 0 -4.5027696e-06 0 0)
(-0.40580971 -0.11626822 0 4.249991e-06 0 0)
(-0.40884487 -0.11677417 0 -4.0152526e-06 0 0)
(-0.40602512 -0.11630417 0 3.7973277e-06 0 0)
(-0.40863995 -0.1167402 0 -3.5955507e-06 0 0)
(-0.40621779 -0.1163363 0 3.4088256e-06 0 0)
(-0.40845641 -0.11670976 0 -3.236629e-06 0 0)
(-0.40639094 -0.11636515 0 3.0779902e-06 0 0)
(-0.40829115 -0.11668236 0 -2.9325114e-06 0 0)
(-0.40654747 -0.11639121 0 2.7993439e-06 0 0)
(-0.40814133 -0.11665752 0 -2.6782061e-06 0 0)
(-0.40669002 -0.11641492 0 2.5683732e-06 0 0)
(-0.40800443 -0.11663482 0 -2.4696796e-06 0 0)
(-0.40682096 -0.11643668 0 2.3815382e-06 0 0)
(-0.40787812 -0.1166139 0 -2.3039198e-06 0 0)
(-0.40694251 -0.11645686 0 2.2364269e-06 0 0)
(-0.40776023 -0.11659438 0 -2.1792501e-06 0 0)
(-0.40705674 -0.1164758 0 2.1322281e-06 0 0)
(-0.40764874 -0.11657594 0 -2.0970647e-06 0 0)
(-0.40716562 -0.11649381 0 2.0718113e-06 0 0)
(-0.40754137 -0.11655819 0 -2.0505348e-06 0 0)
(-0.40727106 -0.11651082 0 2.2743074e-06 0 0)
(-0.40743648 -0.11654175 0 -2.3341408e-06 0 0)
(-0.25708872 -0.13721678 0 -0.035483955 0 0)
(-0.37150853 -0.11002752 0 0.00043050983 0 0)
(-0.36919327 -0.11106152 0 -8.5558221e-05 0 0)
(-0.38959432 -0.11420403 0 -5.2512784e-06 0 0)
(-0.37482104 -0.11160496 0 1.6530519e-05 0 0)
(-0.38936407 -0.11409274 0 -8.710114e-06 0 0)
(-0.37630616 -0.11183064 0 1.6199195e-05 0 0)
(-0.38867599 -0.11397459 0 -1.282259e-05 0 0)
(-0.3771426 -0.11197529 0 1.3058151e-05 0 0)
(-0.38795885 -0.11385146 0 -1.1851625e-05 0 0)
(-0.37782848 -0.11209555 0 1.1272206e-05 0 0)
(-0.38731082 -0.11374041 0 -1.0507854e-05 0 0)
(-0.37842583 -0.11220031 0 9.8834874e-06 0 0)
(-0.38673895 -0.11364232 0 -9.2608232e-06 0 0)
(-0.37895118 -0.11229233 0 8.6944506e-06 0 0)
(-0.38623595 -0.11355593 0 -8.1569135e-06 0 0)
(-0.37941413 -0.11237332 0 7.6575733e-06 0 0)
(-0.38579347 -0.11347986 0 -7.1884053e-06 0 0)
(-0.37982243 -0.11244467 0 6.75084e-06 0 0)
(-0.38540392 -0.11341281 0 -6.3408018e-06 0 0)
(-0.38018282 -0.11250758 0 5.9581865e-06 0 0)
(-0.38506058 -0.11335367 0 -5.6001174e-06 0 0)
(-0.38050124 -0.11256311 0 5.2661081e-06 0 0)
(-0.38475755 -0.11330143 0 -4.9539122e-06 0 0)
(-0.38078298 -0.11261221 0 4.6629072e-06 0 0)
(-0.38448961 -0.11325522 0 -4.3912986e-06 0 0)
(-0.38103271 -0.11265569 0 4.1384074e-06 0 0)
(-0.38425219 -0.11321424 0 -3.9027956e-06 0 0)
(-0.38125456 -0.11269429 0 3.6837688e-06 0 0)
(-0.38404122 -0.11317781 0 -3.4801776e-06 0 0)
(-0.38145225 -0.11272867 0 3.2913392e-06 0 0)
(-0.3838531 -0.11314531 0 -3.1163406e-06 0 0)
(-0.38162907 -0.1127594 0 2.9545297e-06 0 0)
(-0.38368462 -0.1131162 0 -2.8051895e-06 0 0)
(-0.38178798 -0.112787 0 2.6677131e-06 0 0)
(-0.38353292 -0.11308999 0 -2.5415485e-06 0 0)
(-0.38193163 -0.11281193 0 2.4261462e-06 0 0)
(-0.38339542 -0.11306622 0 -2.3210983e-06 0 0)
(-0.38206243 -0.11283462 0 2.2259262e-06 0 0)
(-0.38326978 -0.11304451 0 -2.1403561e-06 0 0)
(-0.38218258 -0.11285544 0 2.0640025e-06 0 0)
(-0.38315386 -0.11302447 0 -1.9967366e-06 0 0)
(-0.3822941 -0.11287476 0 1.9383205e-06 0 0)
(-0.3830457 -0.11300579 0 -1.8888387e-06 0 0)
(-0.3823989 -0.11289289 0 1.8482357e-06 0 0)
(-0.38294341 -0.11298812 0 -1.8181035e-06 0 0)
(-0.38249877 -0.11291015 0 1.7961957e-06 0 0)
(-0.38284492 -0.11297112 0 -1.7766273e-06 0 0)
(-0.3825953 -0.11292643 0 2.0019003e-06 0 0)
(-0.38274693 -0.11295515 0 -2.0853889e-06 0 0)
(-0.24627517 -0.13037842 0 -0.031759305 0 0)
(-0.34479108 -0.10583894 0 0.00056360324 0 0)
(-0.34535758 -0.107434 0 -6.9219908e-05 0 0)
(-0.36501977 -0.11054865 0 1.1908118e-07 0 0)
(-0.35150529 -0.10807584 0 1.4468279e-05 0 0)
(-0.36487817 -0.11045341 0 -6.0454142e-06 0 0)
(-0.35291801 -0.10829451 0 1.4290325e-05 0 0)
(-0.36426739 -0.11034282 0 -1.0835617e-05 0 0)
(-0.35369083 -0.10843311 0 1.1254804e-05 0 0)
(-0.36361176 -0.11022536 0 -1.0135226e-05 0 0)
(-0.35432033 -0.10854804 0 9.6721781e-06 0 0)
(-0.36301735 -0.11011928 0 -9.0027629e-06 0 0)
(-0.35486799 -0.10864811 0 8.4737427e-06 0 0)
(-0.36249261 -0.11002557 0 -7.9370903e-06 0 0)
(-0.3553496 -0.10873602 0 7.4530938e-06 0 0)
(-0.36203106 -0.10994304 0 -6.9914299e-06 0 0)
(-0.35577401 -0.10881338 0 6.5639877e-06 0 0)
(-0.36162508 -0.10987035 0 -6.1613613e-06 0 0)
(-0.35614834 -0.10888154 0 5.7866383e-06 0 0)
(-0.36126768 -0.1098063 0 -5.4348368e-06 0 0)
(-0.35647876 -0.10894164 0 5.1071154e-06 0 0)
(-0.36095269 -0.1097498 0 -4.7999355e-06 0 0)
(-0.35677072 -0.1089947 0 4.5138136e-06 0 0)
(-0.3606747 -0.10969989 0 -4.2460066e-06 0 0)
(-0.35702904 -0.1090416 0 3.9966991e-06 0 0)
(-0.36042891 -0.10965572 0 -3.7637208e-06 0 0)
(-0.35725801 -0.10908315 0 3.5470463e-06 0 0)
(-0.36021113 -0.10961657 0 -3.3449524e-06 0 0)
(-0.35746144 -0.10912003 0 3.1572767e-06 0 0)
(-0.36001762 -0.10958176 0 -2.9826518e-06 0 0)
(-0.3576427 -0.10915288 0 2.82083e-06 0 0)
(-0.35984508 -0.1095507 0 -2.6707306e-06 0 0)
(-0.35780483 -0.10918225 0 2.5320586e-06 0 0)
(-0.35969056 -0.10952288 0 -2.4039657e-06 0 0)
(-0.35795052 -0.10920862 0 2.2861396e-06 0 0)
(-0.35955144 -0.10949782 0 -2.1779232e-06 0 0)
(-0.35808223 -0.10923246 0 2.0790102e-06 0 0)
(-0.35942535 -0.1094751 0 -1.9889052e-06 0 0)
(-0.35820215 -0.10925415 0 1.9073302e-06 0 0)
(-0.35931014 -0.10945434 0 -1.8339345e-06 0 0)
(-0.35831229 -0.10927406 0 1.7684955e-06 0 0)
(-0.35920387 -0.10943518 0 -1.71081e-06 0 0)
(-0.35841452 -0.10929254 0 1.6607661e-06 0 0)
(-0.35910471 -0.1094173 0 -1.6183608e-06 0 0)
(-0.35851057 -0.10930989 0 1.5836138e-06 0 0)
(-0.35901096 -0.1094004 0 -1.557995e-06 0 0)
(-0.3586021 -0.10932641 0 1.5389873e-06 0 0)
(-0.3589207 -0.10938412 0 -1.5207326e-06 0 0)
(-0.3586904 -0.10934198 0 1.742889e-06 0 0)
(-0.35882939 -0.10936863 0 -1.8487879e-06 0 0)
(-0.23594731 -0.12379118 0 -0.028204914 0 0)
(-0.31963673 -0.10173771 0 0.00070443427 0 0)
(-0.32228232 -0.10379669 0 -4.8778436e-05 0 0)
(-0.34124753 -0.10689047 0 5.8333764e-06 0 0)
(-0.32892143 -0.10454489 0 1.3105785e-05 0 0)
(-0.34120338 -0.10681555 0 -3.5617229e-06 0 0)
(-0.33026281 -0.10475694 0 1.2523759e-05 0 0)
(-0.34066516 -0.10671234 0 -8.9946986e-06 0 0)
(-0.33097708 -0.10488972 0 9.5757698e-06 0 0)
(-0.34006691 -0.1066004 0 -8.541406e-06 0 0)
(-0.33155441 -0.10499946 0 8.1844366e-06 0 0)
(-0.33952237 -0.10649915 0 -7.6042196e-06 0 0)
(-0.33205599 -0.10509498 0 7.1633525e-06 0 0)
(-0.33904142 -0.10640969 0 -6.7068889e-06 0 0)
(-0.33249702 -0.10517888 0 6.2992904e-06 0 0)
(-0.3386184 -0.10633091 0 -5.9082584e-06 0 0)
(-0.33288568 -0.10525273 0 5.5475413e-06 0 0)
(-0.33824631 -0.10626153 0 -5.2068358e-06 0 0)
(-0.3332285 -0.10531778 0 4.8904467e-06 0 0)
(-0.33791877 -0.10620038 0 -4.5928277e-06 0 0)
(-0.33353111 -0.10537515 0 4.3160688e-06 0 0)
(-0.33763012 -0.10614644 0 -4.056228e-06 0 0)
(-0.3337985 -0.10542579 0 3.8145685e-06 0 0)
(-0.33737538 -0.10609879 0 -3.5880482e-06 0 0)
(-0.3340351 -0.10547057 0 3.3774588e-06 0 0)
(-0.33715016 -0.10605663 0 -3.1804064e-06 0 0)
(-0.33424481 -0.10551023 0 2.9973626e-06 0 0)
(-0.33695062 -0.10601925 0 -2.8264362e-06 0 0)
(-0.33443113 -0.10554545 0 2.6678732e-06 0 0)
(-0.33677332 -0.10598601 0 -2.5201797e-06 0 0)
(-0.33459715 -0.10557681 0 2.3834451e-06 0 0)
(-0.33661524 -0.10595636 0 -2.2564916e-06 0 0)
(-0.33474564 -0.10560485 0 2.1393042e-06 0 0)
(-0.33647368 -0.10592979 0 -2.0309584e-06 0 0)
(-0.33487908 -0.10563004 0 1.9313743e-06 0 0)
(-0.33634624 -0.10590585 0 -1.8398333e-06 0 0)
(-0.3349997 -0.1056528 0 1.7562223e-06 0 0)
(-0.33623074 -0.10588415 0 -1.679993e-06 0 0)
(-0.33510952 -0.10567352 0 1.6110272e-06 0 0)
(-0.33612523 -0.10586431 0 -1.5489248e-06 0 0)
(-0.33521039 -0.10569255 0 1.4935926e-06 0 0)
(-0.3360279 -0.10584601 0 -1.4447748e-06 0 0)
(-0.33530399 -0.10571021 0 1.4024565e-06 0 0)
(-0.3359371 -0.10582892 0 -1.3665645e-06 0 0)
(-0.33539193 -0.10572679 0 1.337168e-06 0 0)
(-0.33585127 -0.10581276 0 -1.315607e-06 0 0)
(-0.33547572 -0.10574259 0 1.2991343e-06 0 0)
(-0.33576865 -0.10579718 0 -1.2818795e-06 0 0)
(-0.33555639 -0.10575748 0 1.4969764e-06 0 0)
(-0.33568376 -0.10578219 0 -1.6242669e-06 0 0)
(-0.22604559 -0.11743983 0 -0.024817305 0 0)
(-0.2959949 -0.097720559 0 0.00085290993 0 0)
(-0.30002488 -0.10015468 0 -2.5170428e-05 0 0)
(-0.31825798 -0.10322929 0 1.1598188e-05 0 0)
(-0.30707039 -0.10101215 0 1.2384434e-05 0 0)
(-0.31833585 -0.10317911 0 -1.2566243e-06 0 0)
(-0.30834356 -0.10121798 0 1.0883733e-05 0 0)
(-0.31786638 -0.1030831 0 -7.2889413e-06 0 0)
(-0.3090041 -0.10134514 0 8.010619e-06 0 0)
(-0.31732177 -0.10297653 0 -7.0607145e-06 0 0)
(-0.30953312 -0.10144985 0 6.7999638e-06 0 0)
(-0.31682365 -0.10287998 0 -6.3038468e-06 0 0)
(-0.30999195 -0.10154094 0 5.9444249e-06 0 0)
(-0.31638344 -0.10279466 0 -5.5628274e-06 0 0)
(-0.3103953 -0.10162095 0 5.2261033e-06 0 0)
(-0.31599624 -0.10271952 0 -4.9008879e-06 0 0)
(-0.31075076 -0.10169137 0 4.6021259e-06 0 0)
(-0.31565567 -0.10265335 0 -4.3190919e-06 0 0)
(-0.31106431 -0.10175341 0 4.0568817e-06 0 0)
(-0.31535589 -0.10259503 0 -3.8097155e-06 0 0)
(-0.31134109 -0.10180812 0 3.5802967e-06 0 0)
(-0.31509172 -0.10254358 0 -3.3645292e-06 0 0)
(-0.31158568 -0.10185642 0 3.1641765e-06 0 0)
(-0.31485859 -0.10249813 0 -2.976089e-06 0 0)
(-0.31180209 -0.10189913 0 2.8014729e-06 0 0)
(-0.3146525 -0.10245792 0 -2.6378587e-06 0 0)
(-0.31199392 -0.10193696 0 2.4860633e-06 0 0)
(-0.3144699 -0.10242226 0 -2.3441421e-06 0 0)
(-0.31216435 -0.10197055 0 2.2126307e-06 0 0)
(-0.31430766 -0.10239055 0 -2.0899966e-06 0 0)
(-0.31231621 -0.10200047 0 1.9765728e-06 0 0)
(-0.31416303 -0.10236226 0 -1.8711531e-06 0 0)
(-0.31245204 -0.10202722 0 1.7739276e-06 0 0)
(-0.31403351 -0.10233691 0 -1.6839494e-06 0 0)
(-0.31257409 -0.10205125 0 1.601312e-06 0 0)
(-0.31391692 -0.10231408 0 -1.5252769e-06 0 0)
(-0.31268442 -0.10207297 0 1.4558767e-06 0 0)
(-0.31381127 -0.10229337 0 -1.3925437e-06 0 0)
(-0.31278486 -0.10209275 0 1.3352806e-06 0 0)
(-0.31371475 -0.10227443 0 -1.2836649e-06 0 0)
(-0.3128771 -0.10211091 0 1.2377006e-06 0 0)
(-0.31362574 -0.10225695 0 -1.1971014e-06 0 0)
(-0.3129627 -0.10212777 0 1.1619218e-06 0 0)
(-0.31354271 -0.10224063 0 -1.1320364e-06 0 0)
(-0.3130431 -0.10214361 0 1.1075408e-06 0 0)
(-0.31346423 -0.1022252 0 -1.0896423e-06 0 0)
(-0.31311969 -0.10215871 0 1.0754105e-06 0 0)
(-0.31338871 -0.10221032 0 -1.0589186e-06 0 0)
(-0.31319331 -0.10217294 0 1.2636333e-06 0 0)
(-0.31330998 -0.10219582 0 -1.411491e-06 0 0)
(-0.21651007 -0.11131113 0 -0.021593627 0 0)
(-0.27379747 -0.093782124 0 0.0010090909 0 0)
(-0.27861941 -0.096513494 0 -1.7100358e-07 0 0)
(-0.2960507 -0.099565858 0 1.7330661e-05 0 0)
(-0.28595383 -0.097477558 0 1.2244204e-05 0 0)
(-0.29627267 -0.099544061 0 8.8667085e-07 0 0)
(-0.28716297 -0.097677672 0 9.3574006e-06 0 0)
(-0.29586851 -0.099455063 0 -5.7073562e-06 0 0)
(-0.28777428 -0.097799412 0 6.5494258e-06 0 0)
(-0.29537411 -0.099353725 0 -5.6841002e-06 0 0)
(-0.28825857 -0.097899234 0 5.5100958e-06 0 0)
(-0.29491925 -0.099261744 0 -5.0936168e-06 0 0)
(-0.2886777 -0.097986024 0 4.8093852e-06 0 0)
(-0.29451696 -0.099180451 0 -4.4978163e-06 0 0)
(-0.28904605 -0.098062251 0 4.2268771e-06 0 0)
(-0.29416308 -0.099108854 0 -3.9630718e-06 0 0)
(-0.28937067 -0.098129343 0 3.7218815e-06 0 0)
(-0.29385184 -0.099045799 0 -3.4926256e-06 0 0)
(-0.28965702 -0.098188453 0 3.2807783e-06 0 0)
(-0.29357789 -0.098990227 0 -3.0806467e-06 0 0)
(-0.28990981 -0.098240578 0 2.8952416e-06 0 0)
(-0.29333648 -0.098941203 0 -2.7205539e-06 0 0)
(-0.29013319 -0.098286599 0 2.5586108e-06 0 0)
(-0.29312346 -0.098897896 0 -2.4063402e-06 0 0)
(-0.29033084 -0.09832729 0 2.2651778e-06 0 0)
(-0.29293515 -0.098859575 0 -2.132721e-06 0 0)
(-0.29050605 -0.098363336 0 2.0099878e-06 0 0)
(-0.29276831 -0.098825594 0 -1.8950896e-06 0 0)
(-0.29066171 -0.098395346 0 1.7887382e-06 0 0)