/*--------------------------------*- C++ -*----------------------------------*\
| =========                 |                                                 |
| \\      /  F ield         | OpenFOAM: The Open Source CFD Toolbox           |
|  \\    /   O peration     | Version:  2312                                  |
|   \\  /    A nd           | Website:  www.openfoam.com                      |
|    \\/     M anipulation  |                                                 |
\*---------------------------------------------------------------------------*/
FoamFile
{
    version     2.0;
    format      ascii;
    arch        "LSB;label=32;scalar=64";
    class       volScalarField;
    location    "8";
    object      T;
}
// * * * * * * * * * * * * * * * * * * * * * * * * * * * * * * * * * * * * * //

dimensions      [0 0 0 1 0 0 0];

internalField   nonuniform List<scalar> 
4000
(
309.26112
310.16178
310.28943
310.37128
310.43265
310.49226
310.5425
310.59491
310.6408
310.68965
310.73331
310.78005
310.82239
310.86773
310.90921
310.95357
310.99446
311.03809
311.07855
311.12162
311.16176
311.20439
311.24427
311.28656
311.32622
311.36824
311.40772
311.44952
311.48884
311.53046
311.56964
311.61112
311.65016
311.69153
311.73046
311.77175
311.81055
311.85178
311.89045
311.93166
311.9702
312.01141
312.0498
312.09104
312.12926
312.1706
312.20858
312.25012
312.28764
312.33013
307.44583
309.25854
309.56139
309.72845
309.83423
309.93466
310.00706
310.08592
310.14528
310.21347
310.26613
310.32799
310.37669
310.43436
310.4805
310.53522
310.57958
310.63212
310.67518
310.72605
310.76813
310.8177
310.85899
310.90754
310.94819
310.99591
311.03602
311.08307
311.12271
311.16923
311.20844
311.25454
311.29336
311.33913
311.37757
311.42311
311.46117
311.50654
311.54423
311.58952
311.62681
311.6721
311.70895
311.75434
311.79067
311.83633
311.87194
311.91823
311.95247
312.00153
306.13307
308.36789
308.83612
309.08717
309.23708
309.37802
309.47255
309.5777
309.65055
309.73796
309.79966
309.87655
309.93164
310.00159
310.0524
310.11743
310.16528
310.22669
310.27237
310.33101
310.37505
310.43153
310.47426
310.52902
310.57068
310.62408
310.66483
310.71713
310.75709
310.8085
310.84775
310.89846
310.93705
310.98722
311.02518
311.07495
311.11229
311.16179
311.1985
311.24785
311.2839
311.33326
311.36858
311.41811
311.45255
311.50253
311.53579
311.58681
311.61779
311.67322
305.14842
307.5034
308.11774
308.44966
308.64285
308.82355
308.94006
309.07111
309.15743
309.26383
309.33459
309.42633
309.48785
309.56992
309.62545
309.70069
309.75207
309.82226
309.8706
309.93693
309.98296
310.04628
310.09048
310.15142
310.19411
310.25314
310.29456
310.35205
310.39236
310.44863
310.48794
310.54323
310.58161
310.63614
310.67364
310.72762
310.76425
310.81785
310.8536
310.907
310.94182
310.99523
311.02903
311.08268
311.11525
311.16953
311.20045
311.25617
311.28395
311.34545
304.38848
306.67864
307.41182
307.81898
308.05373
308.27289
308.41098
308.56729
308.66698
308.79194
308.87175
308.97806
309.04604
309.14002
309.2003
309.28557
309.34052
309.41935
309.47039
309.5443
309.59236
309.66243
309.70813
309.77515
309.81892
309.8835
309.92562
309.98825
310.02894
310.09
310.1294
310.18921
310.22741
310.28627
310.32333
310.38148
310.41742
310.47509
310.50989
310.56731
310.60092
310.65835
310.69064
310.74839
310.77911
310.83766
310.86626
310.92664
310.95129
311.01849
303.7889
305.90532
306.72487
307.19895
307.47246
307.72808
307.88701
308.06764
308.18043
308.32339
308.41215
308.53262
308.60703
308.71262
308.77767
308.87274
308.93128
309.01856
309.07234
309.15366
309.2038
309.28047
309.32772
309.40071
309.44558
309.51562
309.55848
309.62616
309.66725
309.73303
309.77254
309.83683
309.87487
309.93799
309.97464
310.0369
310.07217
310.13386
310.16775
310.22914
310.26156
310.32296
310.35378
310.41557
310.44448
310.50723
310.53358
310.59852
310.62018
310.69266
303.30775
305.1925
306.06378
306.5939
306.90214
307.19147
307.37011
307.57376
307.69921
307.85939
307.95691
308.09101
308.17178
308.28858
308.35838
308.46293
308.52507
308.62056
308.67708
308.76563
308.81785
308.90098
308.94978
309.02861
309.0746
309.14999
309.1936
309.26623
309.30775
309.37817
309.41782
309.48649
309.52439
309.59171
309.62796
309.69428
309.72891
309.79455
309.82755
309.89285
309.92412
309.98943
310.01881
310.08458
310.11171
310.1786
310.20275
310.27215
310.29098
310.36829
302.91661
304.5462
305.43531
306.00847
306.3462
306.66571
306.86245
307.08746
307.22492
307.40131
307.50729
307.65435
307.74131
307.86884
307.9433
308.05697
308.12267
308.22606
308.28532
308.38084
308.43516
308.52453
308.57491
308.6594
308.70654
308.78713
308.83151
308.90896
308.95093
309.02587
309.06568
309.13863
309.17643
309.24785
309.28373
309.35402
309.38803
309.45755
309.48968
309.55882
309.58896
309.65812
309.68609
309.75576
309.78118
309.85211
309.87414
309.94785
309.96406
310.04574
302.59539
303.96946
304.8455
305.44735
305.80821
306.15358
306.36636
306.6107
306.75924
306.95065
307.06462
307.22382
307.31674
307.4544
307.53339
307.65571
307.72491
307.83584
307.8978
308.00001
308.0564
308.15177
308.20372
308.29367
308.34196
308.42757
308.47273
308.55485
308.59729
308.67662
308.7166
308.79372
308.83142
308.90684
308.94238
309.01653
309.04995
309.12326
309.15455
309.22743
309.25649
309.32939
309.35601
309.42948
309.45324
309.5281
309.54811
309.62595
309.63977
309.72538
302.32944
303.46255
304.29934
304.91496
305.29171
305.65796
305.88424
306.1455
306.30398
306.50896
306.63032
306.8007
306.89922
307.04632
307.12963
307.26009
307.33265
307.45071
307.5153
307.62384
307.68227
307.78336
307.83686
307.93203
307.98145
308.07187
308.11782
308.20444
308.24734
308.3309
308.37107
308.45221
308.48984
308.56912
308.60434
308.68224
308.7151
308.79208
308.82257
308.89909
308.92709
309.00364
309.02894
309.10611
309.12827
309.20692
309.22503
309.30679
309.31848
309.40758
302.10772
303.02338
303.8004
304.41523
304.80009
305.1817
305.4185
305.69394
305.86094
306.07787
306.20585
306.38631
306.48998
306.64572
306.73308
306.87106
306.9468
307.07151
307.1386
307.25311
307.31349
307.41998
307.47497
307.5751
307.62562
307.72063
307.76734
307.85825
307.90162
307.98923
308.02958
308.1146
308.15216
308.23516
308.27007
308.35159
308.3839
308.46443
308.49414
308.57417
308.60117
308.68123
308.70528
308.78599
308.80665
308.88892
308.90526
308.99071
309.00053
309.09271
301.92172
302.64801
303.35074
303.95138
304.33638
304.72747
304.97149
305.25809
305.43196
305.659
305.79267
305.98197
306.09024
306.25373
306.34477
306.4896
306.56829
306.69912
306.76855
306.88858
306.9508
307.06234
307.11875
307.22352
307.27509
307.37444
307.42187
307.51685
307.56065
307.65213
307.69265
307.78136
307.81885
307.90541
307.94002
308.025
308.05679
308.14073
308.16969
308.25309
308.27912
308.36255
308.38541
308.46952
308.48875
308.57446
308.58917
308.67805
308.68626
308.78116
301.76472
302.3311
302.95088
303.52573
303.90314
304.29771
304.54537
304.8399
305.01879
305.25394
305.39223
305.58903
305.70123
305.87148
305.96576
306.1167
306.19803
306.33439
306.40596
306.53104
306.59495
306.71114
306.76886
306.87795
306.93049
307.03388
307.08199
307.18079
307.22499
307.32011
307.36079
307.45298
307.49039
307.58034
307.61464
307.70293
307.73421
307.82138
307.84963
307.93624
307.96135
308.04798
308.06971
308.15704
308.17494
308.26389
308.27711
308.36914
308.37601
308.47328
301.63139
302.06647
302.59992
303.13961
303.50233
303.89446
304.14209
304.44118
304.62308
304.86422
305.00594
305.20878
305.32413
305.50009
305.59711
305.75333
305.83696
305.97821
306.05165
306.18127
306.24668
306.3671
306.42598
306.53903
306.59245
306.69957
306.74828
306.85063
306.89518
306.99369
307.03449
307.12996
307.16728
307.2604
307.2944
307.3858
307.41657
307.50681
307.53437
307.62402
307.64824
307.7379
307.75857
307.84892
307.8656
307.95755
307.96945
308.06434
308.0701
308.16945
301.51739
301.84753
302.29567
302.79338
303.13521
303.51934
303.76329
304.06352
304.24632
304.49126
304.63509
304.84244
304.9601
305.14064
305.2398
305.40046
305.48596
305.63142
305.70644
305.84004
305.90673
306.03091
306.0908
306.20742
306.26158
306.3721
306.42131
306.52692
306.57175
306.6734
306.71427
306.81278
306.84997
306.94606
306.97974
307.07405
307.10433
307.19744
307.22432
307.31681
307.3402
307.43268
307.45235
307.54553
307.56107
307.6558
307.66652
307.76399
307.76886
307.87
301.41926
301.66767
302.03499
302.48642
302.80236
303.17346
303.41023
303.70828
303.88982
304.13631
304.28088
304.49116
304.61019
304.79414
304.8948
305.05899
305.14589
305.29485
305.37109
305.50809
305.5758
305.70326
305.76395
305.88373
305.93848
306.05205
306.10165
306.2102
306.25523
306.35974
306.40062
306.50192
306.53894
306.63776
306.67111
306.7681
306.79789
306.89365
306.91988
307.01501
307.0376
307.1327
307.15144
307.24721
307.26173
307.35897
307.36868
307.46841
307.47259
307.57529
301.33415
301.52059
301.81402
302.21723
302.50361
302.85738
303.08377
303.37647
303.55462
303.80045
303.94435
304.15594
304.27538
304.46153
304.56299
304.72977
304.81757
304.96927
305.04636
305.18614
305.25458
305.3848
305.44608
305.56857
305.62375
305.73998
305.78984
305.901
305.94613
306.05319
306.09402
306.19783
306.23464
306.33594
306.36894
306.46838
306.49766
306.59586
306.62145
306.71899
306.74082
306.83832
306.85619
306.95431
306.96791
307.0674
307.07624
307.17795
307.18161
307.28562
301.25978
301.40047
301.62845
301.98364
302.23815
302.57114
302.78435
303.0688
303.24153
303.48455
303.62635
303.83767
303.9565
304.14364
304.24517
304.41358
304.50173
304.65541
304.73293
304.87485
304.94371
305.07616
305.13777
305.26253
305.31793
305.43643
305.48641
305.59982
305.64494
305.75425
305.79493
305.90097
305.93751
306.04103
306.07363
306.17528
306.20405
306.30443
306.3294
306.42912
306.45022
306.54987
306.56695
306.66716
306.67994
306.78141
306.78952
306.89292
306.89619
307.00133
301.19431
301.30216
301.47384
301.78291
302.00456
302.31422
302.51198
302.78561
302.95104
303.18924
303.32755
303.53706
303.65427
303.84119
303.94203
304.11112
304.19904
304.35391
304.43142
304.57485
304.64377
304.7779
304.83957
304.96613
305.02155
305.14191
305.19183
305.30715
305.35212
305.46335
305.50379
305.61177
305.64797
305.75343
305.78559
305.88918
305.91742
306.01975
306.04409
306.14574
306.16616
306.2677
306.28405
306.3861
306.39815
306.50132
306.50882
306.61363
306.61663
306.72269
301.13625
301.22124
301.34578
301.61194
301.80095
302.08566
302.26622
302.52688
302.68335
302.91489
303.04841
303.25464
303.36923
303.55476
303.65414
303.82296
303.91007
304.06535
304.1424
304.28667
304.35529
304.49055
304.55201
304.67987
304.73509
304.85689
304.90657
305.02341
305.0681
305.18092
305.22101
305.33062
305.3664
305.47352
305.50519
305.61045
305.63814
305.74214
305.76588
305.8692
305.88894
305.99214
306.0078
306.11142
306.12283
306.22743
306.23444
306.34038
306.3432
306.45
301.08441
301.154
301.24011
301.46743
301.62503
301.88408
302.04628
302.29227
302.43838
302.66164
302.78917
302.99074
303.10176
303.28478
303.38197
303.54958
303.63529
303.79021
303.86632
304.01079
304.07875
304.21458
304.27551
304.40421
304.45897
304.58179
304.63104
304.74903
304.79328
304.90734
304.94697
305.05789
305.09318
305.20165
305.23278
305.33944
305.36653
305.47195
305.49506
305.59979
305.6189
305.72346
305.7385
305.84342
305.85427
305.96002
305.96662
306.07344
306.07615
306.18352
301.03787
301.09745
301.15302
301.34606
301.47429
301.70775
301.85103
302.08111
302.21575
302.42936
302.54984
302.74553
302.85209
303.03154
303.12581
303.29134
303.37507
303.52888
303.60358
303.7476
303.81452
303.95037
304.01047
304.13952
304.19358
304.31699
304.36561
304.48436
304.52802
304.64298
304.68202
304.79393
304.82862
304.93815
304.96868
305.07644
305.10292
305.20947
305.23195
305.33781
305.3563
305.46197
305.47642
305.58237
305.59272
305.69935
305.70564
305.81309
305.81572
305.92348
300.99587
301.0492
301.08113
301.24459
301.34608
301.55473
301.67904
301.89245
302.01483
302.21767
302.33023
302.51895
302.62025
302.79518
302.88585
303.04846
303.12965
303.28164
303.35448
303.49743
303.56292
303.69824
303.75721
303.88613
303.93924
304.0628
304.1106
304.22973
304.27263
304.38812
304.42645
304.53902
304.57303
304.68331
304.71317
304.82175
304.84757
304.95497
304.97681
305.08353
305.10141
305.20791
305.22181
305.32853
305.33844
305.44568
305.45171
305.55955
305.56215
305.67013
300.95782
301.00743
301.02154
301.16002
301.23774
301.42289
301.52869
301.72511
301.83475
302.026
302.12992
302.31077
302.40611
302.57566
302.66212
302.82106
302.89917
303.04866
303.11919
303.26049
303.32419
303.45845
303.51598
303.64429
303.69621
303.81951
303.86627
303.98539
304.02737
304.14305
304.18054
304.29344
304.32667
304.43739
304.46651
304.57561
304.60073
304.70869
304.72988
304.83718
304.85446
304.96152
304.97491
305.08211
305.09163
305.19923
305.20504
305.31305
305.31563
305.42365
300.92325
300.97075
300.97181
301.0896
301.14667
301.31006
301.39819
301.57772
301.67444
301.85357
301.94833
302.12058
302.20939
302.37283
302.45452
302.60909
302.68365
302.83002
302.89783
303.0369
303.09845
303.23117
303.28696
303.41421
303.46469
303.5873
303.63283
303.75156
303.79246
303.90797
303.94449
304.0574
304.08975
304.2006
304.22892
304.33823
304.36262
304.47086
304.49138
304.59898
304.61566
304.72301
304.7359
304.84332
304.85249
304.96019
304.96583
305.07379
305.07636
305.18425
300.89179
300.93816
300.92994
301.03089
301.07042
301.21406
301.28569
301.44878
301.53269
301.69942
301.7847
301.94782
302.02964
302.18635
302.26282
302.41242
302.483
302.62567
302.69038
302.8267
302.88578
303.01647
303.07024
303.196
303.24479
303.36633
303.41043
303.5284
303.56805
303.68306
303.71848
303.83108
303.86244
303.97313
304.00056
304.10981
304.1334
304.24164
304.26146
304.36909
304.38518
304.49255
304.50496
304.61235
304.62118
304.72875
304.73423
304.84193
304.84449
304.95208
300.86315
300.90892
300.89435
300.98181
301.00676
301.13279
301.18932
301.33671
301.40816
301.56247
301.63814
301.79177
301.86628
302.01579
302.08666
302.23077
302.297
302.43548
302.49674
302.62985
302.68615
302.81436
302.86585
302.98971
303.03659
303.15668
303.19915
303.31601
303.35426
303.46843
303.50263
303.6146
303.64488
303.7551
303.78157
303.89047
303.91323
304.02119
304.04029
304.14768
304.16316
304.27029
304.28223
304.38933
304.39786
304.50504
304.51039
304.61762
304.62016
304.72727
300.8371
300.88253
300.86379
300.94059
300.95368
301.06426
301.10723
301.23988
301.29945
301.44154
301.50766
301.65161
301.71862
301.86057
301.92556
302.06377
302.12534
302.2592
302.31671
302.44619
302.49944
302.62477
302.67374
302.79533
302.84009
302.95836
302.99903
303.11444
303.15114
303.26416
303.29701
303.40804
303.43715
303.54661
303.57206
303.68033
303.70219
303.80961
303.82795
303.93484
303.94971
304.05634
304.06782
304.17438
304.18261
304.2892
304.29441
304.40098
304.4035
304.50996
300.81345
300.85863
300.83731
300.90576
300.90941
301.00665
301.03767
301.1567
301.20512
301.33538
301.39215
301.52642
301.58587
301.72004
301.77895
301.91095
301.96761
302.09649
302.15002
302.27549
302.32546
302.44756
302.49379
302.61275
302.6552
302.77133
302.81003
302.92368
302.95869
303.07024
303.10163
303.21145
303.23929
303.34771
303.37207
303.47944
303.50036
303.60698
303.62453
303.73067
303.74491
303.8508
303.86181
303.96761
303.97554
304.08132
304.08638
304.19211
304.19458
304.30022
300.79206
300.83699
300.81421
300.87616
300.87245
300.95832
300.97897
301.0856
301.12373
301.24272
301.29049
301.41521
301.46714
301.59344
301.64618
301.77174
301.82333
301.94695
301.9963
302.11745
302.16394
302.28249
302.3258
302.44182
302.4818
302.59547
302.63206
302.74366
302.77685
302.88666
302.91648
303.0248
303.05129
303.15841
303.18161
303.28782
303.30777
303.41332
303.43006
303.5352
303.5488
303.65371
303.66425
303.76906
303.77668
303.88146
303.88637
303.99107
303.99349
304.09812
300.77281
300.81743
300.79395
300.85085
300.84151
300.9178
300.92962
301.02512
301.05389
301.16228
301.20151
301.31694
301.36153
301.47995
301.52652
301.6455
301.69194
301.81008
301.85511
301.9717
302.01456
302.12929
302.16953
302.28232
302.31969
302.43064
302.46499
302.57425
302.60552
302.71332
302.74149
302.84805
302.87311
302.97868
303.00066
303.10546
303.12438
303.22865
303.24454
303.34845
303.36138
303.4651
303.47515
303.57878
303.58608
303.68965
303.69439
303.79789
303.80025
303.90372
300.75561
300.79986
300.77615
300.82908
300.81556
300.88384
300.88825
300.97386
300.99426
301.0928
301.12405
301.23055
301.26805
301.37872
301.41919
301.53155
301.5728
301.68533
301.72596
301.83779
301.87691
301.98759
302.02464
302.13399
302.16862
302.2766
302.3086
302.4153
302.44454
302.55009
302.57652
302.68109
302.70466
302.80844
302.82914
302.93231
302.95017
303.05291
303.06793
303.1704
303.18265
303.28496
303.29451
303.39674
303.40372
303.5059
303.51046
303.6126
303.61488
303.71702
300.74041
300.78417
300.76053
300.81028
300.79371
300.85536
300.85366
300.93058
300.94358
301.03308
301.05696
301.15498
301.18573
301.28885
301.32337
301.42914
301.46524
301.57209
301.60829
301.71523
301.75054
301.85701
301.89079
301.99648
302.02829
302.13309
302.16267
302.26657
302.29372
302.3968
302.42141
302.52377
302.54579
302.64756
302.66695
302.76828
302.78503
302.88604
302.90017
303.00099
303.01253
303.11324
303.12228
303.22294
303.22957
303.3302
303.33456
303.43517
303.43736
303.53802
300.72715
300.77031
300.74687
300.79402
300.77529
300.83144
300.82478
300.89413
300.9007
300.98198
300.99914
301.0892
301.1136
301.20943
301.23822
301.33751
301.36856
301.46971
301.50151
301.60347
301.63497
301.73708
301.76754
301.86942
301.89836
301.99981
302.02688
302.12781
302.1528
302.25321
302.27597
302.37592
302.39634
302.49591
302.51394
302.61323
302.62884
302.72794
302.74114
302.84013
302.85095
302.94989
302.95838
303.05731
303.06358
303.16249
303.16664
303.26557
303.26766
303.36668
300.71579
300.7582
300.73501
300.77995
300.75972
300.81132
300.8007
300.86351
300.86455
300.93842
300.94954
301.0322
301.05069
301.13957
301.1629
301.25588
301.28203
301.37754
301.405
301.50195
301.52964
301.62732
301.65445
301.7524
301.77844
301.87638
301.90093
301.99872
302.02151
302.11909
302.13994
302.23731
302.2561
302.35329
302.36994
302.46701
302.48146
302.57846
302.59072
302.68771
302.69778
302.79478
302.80273
302.89976
302.90565
303.00271
303.00662
303.10374
303.10571
303.20296
300.70629
300.74777
300.72482
300.7678
300.74656
300.79438
300.78064
300.83782
300.83419
300.90144
300.90719
300.98301
300.99608
301.07838
301.09658
301.18345
301.2049
301.29486
301.3181
301.41007
301.434
301.52721
301.55104
301.64497
301.6681
301.76243
301.78443
301.87895
301.89952
301.99413
302.01306
302.10769
302.12482
302.21949
302.23472
302.32942
302.3427
302.43745
302.44875
302.54357
302.55289
302.6478
302.65518
302.75017
302.75567
302.85074
302.85441
302.94958
302.95143
303.04677
300.69859
300.73894
300.71616
300.75735
300.73545
300.7801
300.76395
300.8163
300.80876
300.87013
300.87118
300.94074
300.94889
301.02501
301.03842
301.11945
301.13643
301.221
301.24016
301.3272
301.34748
301.43621
301.45678
301.54665
301.56689
301.65753
301.677
301.76815
301.7865
301.87801
301.89501
301.98678
302.00225
302.09424
302.10806
302.20024
302.21233
302.3047
302.31502
302.40755
302.41611
302.5088
302.5156
302.60843
302.61352
302.70647
302.70988
302.80298
302.8047
302.89801
300.69259
300.73161
300.70893
300.74842
300.7261
300.76806
300.75007
300.79829
300.78752
300.84371
300.84067
300.90455
300.90827
300.97864
300.98763
301.06312
301.07589
301.15524
301.17052
301.25273
301.26947
301.35376
301.37115
301.45695
301.47436
301.56126
301.57821
301.66592
301.68206
301.77039
301.78546
301.87427
301.88807
301.97729
301.98968
302.07924
302.09013
302.17999
302.18934
302.27946
302.28724
302.37759
302.3838
302.47435
302.47902
302.56975
302.57289
302.66381
302.6654
302.75657
300.68817
300.72567
300.703
300.74085
300.71827
300.7579
300.73854
300.78322
300.76984
300.82146
300.81493
300.87366
300.87345
300.9385
300.94347
301.01371
301.02258
301.09692
301.10852
301.18602
301.19938
301.27929
301.29361
301.37535
301.39
301.47314
301.48763
301.57186
301.58583
301.6709
301.68407
301.76983
301.78198
301.86832
301.8793
301.96613
301.97584
302.06308
302.07146
302.15906
302.16606
302.25397
302.25959
302.34776
302.35201
302.44041
302.44327
302.53192
302.53337
302.6223
300.68516
300.72096
300.69824
300.73448
300.71176
300.74934
300.72899
300.77062
300.75515
300.80277
300.79327
300.84739
300.84373
300.90388
300.90521
300.97053
300.9758
301.04536
301.05352
301.12647
301.13662
301.21225
301.22362
301.30135
301.31333
301.39272
301.40482
301.48553
301.49737
301.57916
301.59045
301.67311
301.68363
301.76703
301.77662
301.86063
301.86917
301.95372
301.96112
302.04612
302.05235
302.13773
302.14275
302.22846
302.23227
302.31827
302.32085
302.40714
302.40845
302.49504
300.68335
300.71734
300.69452
300.72919
300.70641
300.74214
300.7211
300.76009
300.74297
300.78708
300.77512
300.82509
300.81843
300.8741
300.87218
300.93292
300.9349
300.99993
301.0049
301.07348
301.08061
301.15206
301.16064
301.23442
301.24385
301.31951
301.32931
301.40651
301.41629
301.49476
301.50423
301.58375
301.59268
301.67308
301.6813
301.76245
301.76983
301.85161
301.85806
301.94039
301.94584
302.02863
302.03306
302.11623
302.11961
302.20313
302.20542
302.28927
302.29044
302.37462
300.68251
300.71465
300.69172
300.72484
300.70206
300.73611
300.7146
300.75128
300.7329
300.77392
300.75994
300.80621
300.79698
300.84856
300.84378
300.90026
300.89926
300.96003
300.96206
301.02645
301.03077
301.09819
301.10413
301.17406
301.18106
301.25305
301.26064
301.33435
301.34216
301.4173
301.42502
301.50137
301.50876
301.58613
301.59301
301.67125
301.6775
301.75648
301.76198
301.84159
301.84628
301.92642
301.93025
302.01084
302.01378
302.09476
302.09677
302.17812
302.17914
302.26085
300.6824
300.71272
300.68971
300.72131
300.69857
300.73107
300.70928
300.74391
300.72459
300.7629
300.74729
300.79025
300.77885
300.82671
300.81942
300.87196
300.86831
300.92506
300.92442
300.98484
300.98656
301.0501
301.05358
301.11976
301.12447
301.19287
301.19837
301.26863
301.27454
301.34638
301.35241
301.42559
301.4315
301.50583
301.51142
301.58672
301.59187
301.66801
301.6726
301.74944
301.75339
301.83083
301.83409
301.91204
301.91455
301.99294
301.99467
302.07347
302.07435
302.15353
300.68282
300.71141
300.68834
300.71849
300.69584
300.72687
300.70494
300.73775
300.71775
300.75367
300.73676
300.77676
300.76356
300.80805
300.7986
300.84751
300.84151
300.89451
300.89146
300.94811
300.94746
301.00728
301.00849
301.07104
301.07362
301.1385
301.14202
301.2089
301.21302
301.28159
301.28601
301.35604
301.36053
301.43181
301.43617
301.50853
301.51262
301.58589
301.58959
301.66364
301.66687
301.74159
301.74428
301.81956
301.82166
301.89743
301.89887
301.97509
301.97583
302.05244
300.68356
300.71056
300.68752
300.71626
300.69374
300.72339
300.70144
300.7326
300.71214
300.74592
300.72803
300.76538
300.7507
300.79213
300.78085
300.82642
300.81837
300.86787
300.86268
300.91576
300.91297
300.96924
300.96836
301.02741
301.02802
301.08949
301.09118
301.15473
301.15717
301.22252
301.22543
301.29234
301.29548
301.36373
301.36691
301.43632
301.4394
301.50981
301.51266
301.58391
301.58645
301.65842
301.66056
301.73316
301.73484
301.80797
301.80914
301.88274
301.88334
301.95735
300.68447
300.71005
300.68711
300.71452
300.69217
300.72052
300.69864
300.72828
300.70755
300.73942
300.72078
300.75577
300.73991
300.77856
300.76575
300.80825
300.79844
300.84468
300.83761
300.88734
300.88262
300.93551
300.93275
300.98844
300.98724
301.0454
301.04539
301.10571
301.10658
301.16878
301.17026
301.2341
301.23597
301.30123
301.30329
301.36978
301.37189
301.43944
301.44148
301.50994
301.5118
301.58104
301.58265
301.65255
301.65384
301.72431
301.72522
301.79618
301.79665
301.86805
300.68546
300.70977
300.68704
300.71317
300.69106
300.71815
300.69642
300.72465
300.70381
300.73394
300.71479
300.74764
300.73085
300.76699
300.75293
300.79261
300.7813
300.82453
300.81581
300.8624
300.85598
300.90567
300.90121
300.9537
300.95085
301.00583
301.00426
301.06144
301.06086
301.11998
301.12014
301.18096
301.18164
301.24394
301.24496
301.30855
301.30976
301.37447
301.37574
301.44142
301.44265
301.50915
301.51026
301.57746
301.57837
301.64618
301.64684
301.71516
301.71551
301.78427
300.68644
300.70964
300.68721
300.71215
300.6903
300.7162
300.69468
300.7216
300.70076
300.7293
300.70983
300.74074
300.72327
300.75713
300.74205
300.77916
300.7666
300.80703
300.7969
300.84055
300.83265
300.87931
300.87335
300.92277
300.91844
300.97036
300.96738
301.02152
301.01963
301.07574
301.07469
301.13255
301.13214
301.19153
301.19158
301.25232
301.25268
301.31458
301.31513
301.37804
301.37868
301.44246
301.44309
301.50761
301.50817
301.57332
301.57374
301.63943
301.63966
301.70579
300.68739
300.7096
300.68756
300.71136
300.68984
300.71459
300.69334
300.71901
300.69828
300.72537
300.70572
300.73487
300.71692
300.74869
300.73284
300.76757
300.754
300.79184
300.78053
300.82143
300.81224
300.85605
300.84877
300.89528
300.88965
300.93863
300.93438
300.98559
300.9825
301.03571
301.03355
301.08853
301.08711
301.14366
301.14281
301.20074
301.20032
301.25946
301.25934
301.31952
301.3196
301.38068
301.38087
301.44273
301.44295
301.50547
301.50566
301.56873
301.56884
301.63236
300.68827
300.7096
300.68803
300.71075
300.68961
300.71324
300.69231
300.7168
300.69626
300.72199
300.70232
300.72985
300.71159
300.74146
300.72503
300.75759
300.74321
300.77865
300.76637
300.8047
300.79443
300.83555
300.82713
300.87088
300.86409
300.91027
300.90491
300.9533
300.94913
300.99952
300.99637
301.04855
301.04622
301.09999
301.09832
301.15351
301.15237
301.20879
301.20805
301.26555
301.26511
301.32354
301.32331
301.38253
301.38245
301.44234
301.44233
301.50279
301.5028
301.56372
300.68909
300.70961
300.68856
300.71027
300.68955
300.7121
300.69153
300.71489
300.69462
300.71907
300.69948
300.72552
300.70711
300.73523
300.7184
300.74896
300.73397
300.76719
300.75413
300.79006
300.77889
300.81749
300.8081
300.84923
300.84146
300.88496
300.87862
300.9243
300.9192
300.96687
300.96282
301.01229
301.00914
301.06022
301.05781
301.11031
301.10852
301.16227
301.16098
301.21583
301.21493
301.27073
301.27013
301.32675
301.32638
301.38369
301.38348
301.44137
301.44127
301.49962
300.68984
300.7096
300.68914
300.70987
300.6896
300.71111
300.69095
300.71322
300.69327
300.71651
300.69711
300.72176
300.70333
300.72983
300.71277
300.74148
300.72606
300.75721
300.74355
300.77724
300.76535
300.80157
300.79139
300.83004
300.82143
300.86239
300.8552
300.8983
300.89237
300.93743
300.9326
300.97945
300.97557
301.02402
301.02096
301.07085
301.06847
301.11962
301.11782
301.17009
301.16876
301.22199
301.22105
301.27511
301.27447
301.32924
301.32885
301.3842
301.38402
301.43982
300.69053
300.70955
300.68972
300.70951
300.68974
300.71023
300.69051
300.71171
300.69214
300.71424
300.6951
300.71845
300.70012
300.72512
300.70797
300.73497
300.71926
300.7485
300.73441
300.76601
300.75356
300.78755
300.77672
300.81303
300.80373
300.84227
300.83437
300.87499
300.86836
300.91091
300.90541
300.94972
300.94522
300.99113
300.98749
301.03483
301.03194
301.08056
301.07831
301.12804
301.12633
301.17704
301.17579
301.22734
301.22647
301.27873
301.27819
301.33103
301.33077
301.38407
300.69116
300.70947
300.69028
300.70916
300.68991
300.70941
300.69016
300.71033
300.69118
300.71218
300.69338
300.7155
300.69738
300.72097
300.70385
300.72926
300.71342
300.74088
300.72649
300.75614
300.74329
300.77518
300.76385
300.79796
300.7881
300.82434
300.81586
300.85411
300.8469
300.88704
300.88097
300.92285
300.9178
300.96125
300.95712
301.00199
300.99866
301.0448
301.04216
301.08942
301.08738
301.13562
301.13411
301.18319
301.18212
301.23191
301.23124
301.28162
301.28129
301.33213
300.69174
300.70933
300.69081
300.70879
300.69009
300.70861
300.68986
300.70902
300.69035
300.71029
300.69189
300.71284
300.695
300.71729
300.70031
300.72423
300.70838
300.73417
300.71963
300.74745
300.73433
300.76425
300.75257
300.78458
300.7743
300.80835
300.79942
300.83542
300.82773
300.86556
300.85902
300.89855
300.89306
300.93414
300.92958
300.97207
300.96835
301.01209
301.00912
301.05398
301.05165
301.09748
301.09573
301.14241
301.14116
301.18854
301.18774
301.23571
301.23532
301.28374
300.69227
300.70914
300.6913
300.70838
300.69025
300.70781
300.68958
300.70776
300.68959
300.7085
300.69055
300.7104
300.69292
300.71397
300.69723
300.71975
300.704
300.72824
300.71367
300.73978
300.72651
300.75458
300.74266
300.7727
300.76212
300.7941
300.78482
300.81867
300.81061
300.84623
300.83933
300.8766
300.87074
300.90953
300.90464
300.94481
300.94078
300.98219
300.97893
301.02145
301.01889
301.06237
301.06042
301.10474
301.10335
301.14837
301.14747
301.19307
301.19263
301.23869
300.69274
300.7089
300.69172
300.70792
300.69035
300.70697
300.68929
300.7065
300.68887
300.70679
300.68934
300.70813
300.69107
300.71094
300.69452
300.71574
300.70019
300.72296
300.70848
300.73297
300.71968
300.74599
300.73395
300.76213
300.75136
300.78137
300.77185
300.80366
300.79534
300.82884
300.82165
300.85676
300.85062
300.88721
300.88204
300.91998
300.9157
300.95485
300.95137
300.99162
300.98886
301.03005
301.02795
301.06997
301.06845
301.11117
301.11018
301.15347
301.15299
301.19672
300.69316
300.70859
300.69207
300.70737
300.69039
300.70607
300.68896
300.70523
300.68816
300.70511
300.68821
300.70597
300.6894
300.70815
300.69213
300.7121
300.69684
300.71823
300.70392
300.7269
300.71368
300.73835
300.72629
300.7527
300.74185
300.77
300.76034
300.79019
300.7817
300.81318
300.8058
300.83883
300.83249
300.86695
300.86159
300.89736
300.89289
300.92986
300.92621
300.96424
300.96133
301.0003
300.99807
301.03785
301.03623
301.0767
301.07566
301.11668
301.11617
301.15763
300.69352
300.70821
300.69233
300.70673
300.69033
300.70509
300.68857
300.70391
300.68744
300.70345
300.68712
300.7039
300.68785
300.70554
300.68997
300.70877
300.69387
300.71396
300.69991
300.72146
300.7084
300.73151
300.71954
300.74427
300.73343
300.75981
300.7501
300.7781
300.76952
300.79907
300.79157
300.82261
300.81614
300.84856
300.84306
300.87676
300.87215
300.907
300.90323
300.93912