/*--------------------------------*- C++ -*----------------------------------*\
| =========                 |                                                 |
| \\      /  F ield         | OpenFOAM: The Open Source CFD Toolbox           |
|  \\    /   O peration     | Version:  2312                                  |
|   \\  /    A nd           | Website:  www.openfoam.com                      |
|    \\/     M anipulation  |                                                 |
\*---------------------------------------------------------------------------*/
FoamFile
{
    version     2.0;
    format      ascii;
    arch        "LSB;label=32;scalar=64";
    class       volVectorField;
    location    "8";
    object      U;
}
// * * * * * * * * * * * * * * * * * * * * * * * * * * * * * * * * * * * * * //

dimensions      [0 1 -1 0 0 0 0];

internalField   nonuniform List<vector> 
4000
(
(0.0013496085 0.00023021577 0)
(0.0014476168 -1.2408785e-06 0)
(0.0013498569 -1.5185267e-07 0)
(0.0013956147 1.481074e-07 0)
(0.0013600224 -1.3728172e-07 0)
(0.0013934342 1.3032899e-07 0)
(0.0013630184 -1.2099439e-07 0)
(0.001391617 1.137135e-07 0)
(0.0013649317 -1.064882e-07 0)
(0.0013899547 9.9907116e-08 0)
(0.0013665334 -9.367649e-08 0)
(0.0013884721 8.7869089e-08 0)
(0.0013679319 -8.2420563e-08 0)
(0.0013871638 7.7324138e-08 0)
(0.0013691607 -7.255117e-08 0)
(0.0013860116 6.8085507e-08 0)
(0.0013702423 -6.3905306e-08 0)
(0.0013849966 5.9995882e-08 0)
(0.0013711951 -5.6337634e-08 0)
(0.0013841019 5.2918521e-08 0)
(0.0013720354 -4.9720531e-08 0)
(0.0013833123 4.6733961e-08 0)
(0.0013727772 -4.3942338e-08 0)
(0.0013826148 4.1337843e-08 0)
(0.0013734331 -3.8905542e-08 0)
(0.0013819973 3.6639111e-08 0)
(0.0013740143 -3.4525136e-08 0)
(0.0013814496 3.2558478e-08 0)
(0.0013745304 -3.0727191e-08 0)
(0.0013809625 2.9027082e-08 0)
(0.0013749903 -2.7447606e-08 0)
(0.0013805276 2.5985331e-08 0)
(0.0013754017 -2.4631033e-08 0)
(0.0013801377 2.3381901e-08 0)
(0.0013757714 -2.2229948e-08 0)
(0.0013797862 2.1172873e-08 0)
(0.0013761059 -2.0203853e-08 0)
(0.0013794671 1.9321009e-08 0)
(0.0013764106 -1.8518615e-08 0)
(0.0013791752 1.7795148e-08 0)
(0.0013766908 -1.714593e-08 0)
(0.0013789054 1.6569748e-08 0)
(0.0013769512 -1.6062948e-08 0)
(0.0013786532 1.5624628e-08 0)
(0.0013771961 -1.5252219e-08 0)
(0.0013784143 1.4945053e-08 0)
(0.0013774298 -1.4703188e-08 0)
(0.001378185 1.4524278e-08 0)
(0.0013776626 -1.4383485e-08 0)
(0.0013780089 1.4877161e-08 0)
(0.0037655981 0.00063524865 0)
(0.0041624419 4.3422536e-07 0)
(0.0039242056 4.5016274e-08 0)
(0.0040511213 4.109242e-07 0)
(0.0039478318 -4.7784004e-07 0)
(0.0040452062 4.3481581e-07 0)
(0.0039564755 -4.2089108e-07 0)
(0.0040399357 3.9180418e-07 0)
(0.0039620413 -3.6912172e-07 0)
(0.0040350834 3.4556888e-07 0)
(0.0039667168 -3.2434472e-07 0)
(0.004030755 3.0410454e-07 0)
(0.0039708008 -2.8530745e-07 0)
(0.0040269357 2.6763973e-07 0)
(0.0039743899 -2.5113506e-07 0)
(0.0040235719 2.3567009e-07 0)
(0.0039775491 -2.2120892e-07 0)
(0.0040206087 2.0767322e-07 0)
(0.0039803325 -1.9501688e-07 0)
(0.0040179963 1.8317957e-07 0)
(0.0039827871 -1.7211566e-07 0)
(0.0040156909 1.617763e-07 0)
(0.0039849546 -1.5211854e-07 0)
(0.0040136536 1.4310231e-07 0)
(0.0039868715 -1.3468798e-07 0)
(0.0040118501 1.268425e-07 0)
(0.0039885701 -1.1952979e-07 0)
(0.0040102499 1.1272247e-07 0)
(0.0039900791 -1.0638809e-07 0)
(0.0040088261 1.0050392e-07 0)
(0.0039914241 -9.5041063e-08 0)
(0.0040075546 8.9980637e-08 0)
(0.0039926276 -8.5297159e-08 0)
(0.0040064141 8.0974986e-08 0)
(0.0039937101 -7.6991886e-08 0)
(0.0040053852 7.3334953e-08 0)
(0.0039946897 -6.998504e-08 0)
(0.0040044507 6.6931575e-08 0)
(0.0039955831 -6.4158349e-08 0)
(0.0040035948 6.1656796e-08 0)
(0.0039964052 -5.941352e-08 0)
(0.004002803 5.7421697e-08 0)
(0.00399717 -5.5670669e-08 0)
(0.004002062 5.4155202e-08 0)
(0.0039978905 -5.2866964e-08 0)
(0.004001359 5.1804256e-08 0)
(0.0039985787 -5.0961547e-08 0)
(0.0040006822 5.0258792e-08 0)
(0.0039992586 -5.054804e-08 0)
(0.004000135 4.8404959e-08 0)
(0.0061139065 0.0010194753 0)
(0.0067965253 -4.7489363e-07 0)
(0.0064332254 3.7796214e-07 0)
(0.0066395242 6.9484197e-07 0)
(0.0064684523 -8.6623296e-07 0)
(0.0066298464 7.7420345e-07 0)
(0.0064826589 -7.6164473e-07 0)
(0.0066210933 7.063593e-07 0)
(0.0064918639 -6.6694539e-07 0)
(0.0066130376 6.2386472e-07 0)
(0.0064996181 -5.8578222e-07 0)
(0.0066058553 5.4912055e-07 0)
(0.0065063943 -5.1523257e-07 0)
(0.0065995186 4.8329491e-07 0)
(0.0065123499 -4.5351229e-07 0)
(0.0065939376 4.2556869e-07 0)
(0.0065175924 -3.9946775e-07 0)
(0.006589021 3.7501324e-07 0)
(0.0065222114 -3.5216787e-07 0)
(0.0065846865 3.3078313e-07 0)
(0.0065262852 -3.1081111e-07 0)
(0.0065808611 2.9213331e-07 0)
(0.0065298825 -2.7469886e-07 0)
(0.0065774803 2.5841183e-07 0)
(0.0065330641 -2.4322149e-07 0)
(0.0065744872 2.290497e-07 0)
(0.0065358837 -2.1584764e-07 0)
(0.0065718312 2.0355143e-07 0)
(0.006538389 -1.9211524e-07 0)
(0.0065694676 1.8148669e-07 0)
(0.0065406222 -1.7162364e-07 0)
(0.0065673566 1.6248308e-07 0)
(0.006542621 -1.5402688e-07 0)
(0.0065654625 1.4621977e-07 0)
(0.0065444191 -1.3902783e-07 0)
(0.0065637534 1.3242218e-07 0)
(0.0065460469 -1.2637316e-07 0)
(0.0065622006 1.2085727e-07 0)
(0.0065475319 -1.158491e-07 0)
(0.0065607776 1.1132963e-07 0)
(0.0065488991 -1.0727772e-07 0)
(0.0065594607 1.0367813e-07 0)
(0.0065501717 -1.0051396e-07 0)
(0.0065582274 9.7773188e-08 0)
(0.0065513712 -9.5442137e-08 0)
(0.0065570566 9.3516863e-08 0)
(0.006552518 -9.1980357e-08 0)
(0.0065559278 9.0674877e-08 0)
(0.0065536479 -9.1580869e-08 0)
(0.0065549926 8.6918032e-08 0)
(0.0084145434 0.0013735038 0)
(0.0093562472 -2.3475163e-06 0)
(0.0088766428 9.7646216e-07 0)
(0.0091610255 9.1909488e-07 0)
(0.0089217978 -1.2407909e-06 0)
(0.0091474442 1.0878541e-06 0)
(0.0089414944 -1.0892935e-06 0)
(0.0091351713 1.0062815e-06 0)
(0.008954334 -9.5235357e-07 0)
(0.0091238895 8.90043e-07 0)
(0.0089651795 -8.3607057e-07 0)
(0.0091138366 7.8357556e-07 0)
(0.0089746613 -7.353076e-07 0)
(0.0091049686 6.8967315e-07 0)
(0.0089829956 -6.4721112e-07 0)
(0.0090971583 6.0730231e-07 0)
(0.0089903321 -5.7008021e-07 0)
(0.0090902778 5.351595e-07 0)
(0.0089967962 -5.0257691e-07 0)
(0.0090842117 4.7204205e-07 0)
(0.0090024973 -4.4355568e-07 0)
(0.009078858 4.1688746e-07 0)
(0.0090075319 -3.9201917e-07 0)
(0.0090741264 3.6876554e-07 0)
(0.0090119849 -3.4709723e-07 0)
(0.0090699371 3.2686439e-07 0)
(0.0090159314 -3.0803154e-07 0)
(0.0090662196 2.9047697e-07 0)
(0.0090194381 -2.7416257e-07 0)
(0.0090629111 2.5898922e-07 0)
(0.0090225643 -2.4491854e-07 0)
(0.0090599558 2.3186967e-07 0)
(0.0090253626 -2.1980566e-07 0)
(0.009057304 2.0866051e-07 0)
(0.0090278803 -1.9839982e-07 0)
(0.0090549108 1.8896982e-07 0)
(0.0090301599 -1.8033944e-07 0)
(0.009052736 1.7246497e-07 0)
(0.0090322398 -1.6531926e-07 0)
(0.0090507427 1.5886692e-07 0)
(0.0090341552 -1.5308511e-07 0)
(0.0090488975 1.4794534e-07 0)
(0.0090359385 -1.4342936e-07 0)
(0.0090471689 1.3951442e-07 0)
(0.0090376201 -1.3618511e-07 0)
(0.0090455273 1.3343346e-07 0)
(0.0090392285 -1.3122749e-07 0)
(0.0090439432 1.2932228e-07 0)
(0.0090408101 -1.312088e-07 0)
(0.0090426036 1.2360669e-07 0)
(0.010659776 0.0016964278 0)
(0.011839339 -5.1207777e-06 0)
(0.011254065 1.7896465e-06 0)
(0.01161577 1.0795901e-06 0)
(0.011307877 -1.5855157e-06 0)
(0.011597984 1.3629903e-06 0)
(0.011332997 -1.3907892e-06 0)
(0.011582151 1.2797091e-06 0)
(0.011349464 -1.2139823e-06 0)
(0.011567623 1.1335369e-06 0)
(0.011363411 -1.0652465e-06 0)
(0.011554685 9.9815633e-07 0)
(0.011375611 -9.3677374e-07 0)
(0.011543273 8.7857529e-07 0)
(0.011386334 -8.2452327e-07 0)
(0.011533223 7.7365031e-07 0)
(0.011395774 -7.2625725e-07 0)
(0.01152437 6.8174875e-07 0)
(0.011404092 -6.4025927e-07 0)
(0.011516564 6.0134331e-07 0)
(0.011411428 -5.6506781e-07 0)
(0.011509675 5.3108138e-07 0)
(0.011417906 -4.9941187e-07 0)
(0.011503587 4.697782e-07 0)
(0.011423636 -4.4218281e-07 0)
(0.011498196 4.1639957e-07 0)
(0.011428714 -3.9241444e-07 0)
(0.011493412 3.7004483e-07 0)
(0.011433227 -3.4926655e-07 0)
(0.011489155 3.2993173e-07 0)
(0.01143725 -3.1201062e-07 0)
(0.011485351 2.9538325e-07 0)
(0.011440851 -2.8001756e-07 0)
(0.011481939 2.6581615e-07 0)
(0.011444091 -2.5274703e-07 0)
(0.011478858 2.4073116e-07 0)
(0.011447025 -2.2973831e-07 0)
(0.011476059 2.1970445e-07 0)
(0.011449703 -2.1060238e-07 0)
(0.011473493 2.0238041e-07 0)
(0.011452169 -1.9501524e-07 0)
(0.011471118 1.8846528e-07 0)
(0.011454465 -1.8271186e-07 0)
(0.011468892 1.7772156e-07 0)
(0.01145663 -1.7347779e-07 0)
(0.011466778 1.6996973e-07 0)
(0.011458701 -1.6714421e-07 0)
(0.011464737 1.6467578e-07 0)
(0.011460735 -1.6781442e-07 0)
(0.01146298 1.5706966e-07 0)
(0.012848436 0.0019895771 0)
(0.014246037 -8.6738177e-06 0)
(0.013565412 2.7565489e-06 0)
(0.014003779 1.1856156e-06 0)
(0.013626797 -1.8996153e-06 0)
(0.013981358 1.6014935e-06 0)
(0.013657268 -1.6672131e-06 0)
(0.013961938 1.5279462e-06 0)
(0.013677343 -1.4528767e-06 0)
(0.013944153 1.3553777e-06 0)
(0.013694393 -1.2742541e-06 0)
(0.013928326 1.1937563e-06 0)
(0.013709311 -1.1204668e-06 0)
(0.013914369 1.0507856e-06 0)
(0.013722426 -9.8618541e-07 0)
(0.013902077 9.253031e-07 0)
(0.013733972 -8.6864796e-07 0)
(0.013891248 8.1538938e-07 0)
(0.013744144 -7.6578724e-07 0)
(0.013881701 7.1922361e-07 0)
(0.013753117 -6.7585266e-07 0)
(0.013873276 6.3518915e-07 0)
(0.01376104 -5.9732352e-07 0)
(0.013865829 5.6186926e-07 0)
(0.013768048 -5.2887365e-07 0)
(0.013859235 4.9802712e-07 0)
(0.013774259 -4.6934736e-07 0)
(0.013853384 4.4258556e-07 0)
(0.013779779 -4.1773964e-07 0)
(0.013848177 3.9460904e-07 0)
(0.013784699 -3.7317909e-07 0)
(0.013843525 3.5328783e-07 0)
(0.013789104 -3.3491323e-07 0)
(0.013839351 3.1792436e-07 0)
(0.013793067 -3.0229572e-07 0)
(0.013835583 2.8792145e-07 0)
(0.013796656 -2.747754e-07 0)
(0.013832159 2.627721e-07 0)
(0.013799931 -2.5188686e-07 0)
(0.01382902 2.420508e-07 0)
(0.013802947 -2.3324226e-07 0)
(0.013826114 2.2540581e-07 0)
(0.013805756 -2.1852396e-07 0)
(0.013823392 2.1255196e-07 0)
(0.013808405 -2.0747312e-07 0)
(0.013820805 2.0327398e-07 0)
(0.01381094 -1.9987456e-07 0)
(0.013818307 1.968795e-07 0)
(0.013813425 -2.0146477e-07 0)
(0.013816124 1.8738779e-07 0)
(0.014983291 0.0022544426 0)
(0.016576948 -1.2951514e-05 0)
(0.015810665 3.8135835e-06 0)
(0.016324948 1.2462946e-06 0)
(0.015878685 -2.1828133e-06 0)
(0.016297445 1.8063366e-06 0)
(0.015914422 -1.9207224e-06 0)
(0.016274426 1.753323e-06 0)
(0.01593807 -1.6710372e-06 0)
(0.016253389 1.5574973e-06 0)
(0.015958211 -1.4648795e-06 0)
(0.01623468 1.372061e-06 0)
(0.01597584 -1.2879634e-06 0)
(0.016218183 1.2077856e-06 0)
(0.015991339 -1.1335863e-06 0)
(0.016203656 1.0635647e-06 0)
(0.016004984 -9.9847582e-07 0)
(0.016190858 9.3723049e-07 0)
(0.016017006 -8.8023954e-07 0)
(0.016179575 8.2669656e-07 0)
(0.016027609 -7.7686236e-07 0)
(0.016169617 7.3010599e-07 0)
(0.016036973 -6.865957e-07 0)
(0.016160816 6.4583066e-07 0)
(0.016045256 -6.0791502e-07 0)
(0.016153023 5.7244907e-07 0)
(0.016052596 -5.394918e-07 0)
(0.016146108 5.0872316e-07 0)
(0.016059119 -4.8017075e-07 0)
(0.016139953 4.5357761e-07 0)
(0.016064935 -4.2895018e-07 0)
(0.016134456 4.0608172e-07 0)
(0.01607014 -3.8496506e-07 0)
(0.016129522 3.6543368e-07 0)
(0.016074825 -3.474724e-07 0)
(0.016125069 3.3094701e-07 0)
(0.016079066 -3.1583853e-07 0)
(0.016121022 3.0203885e-07 0)
(0.016082937 -2.895283e-07 0)
(0.016117313 2.7821987e-07 0)
(0.016086501 -2.6809551e-07 0)
(0.016113878 2.5908519e-07 0)
(0.016089821 -2.5117416e-07 0)
(0.01611066 2.4430559e-07 0)
(0.016092952 -2.3846373e-07 0)
(0.016107603 2.3363236e-07 0)
(0.016095948 -2.296995e-07 0)
(0.016104651 2.2621391e-07 0)
(0.016098882 -2.3236997e-07 0)
(0.016102035 2.1481348e-07 0)
(0.017066794 0.0024918735 0)
(0.018832822 -1.7876625e-05 0)
(0.017989943 4.9065033e-06 0)
(0.018578971 1.2684172e-06 0)
(0.018063667 -2.4334862e-06 0)
(0.018546135 1.978743e-06 0)
(0.01810456 -2.1519175e-06 0)
(0.018519521 1.9566747e-06 0)
(0.018131735 -1.8690699e-06 0)
(0.018495246 1.7405185e-06 0)
(0.018154942 -1.6376816e-06 0)
(0.018473672 1.533606e-06 0)
(0.018175265 -1.4397604e-06 0)
(0.018454653 1.3500444e-06 0)
(0.018193132 -1.2671641e-06 0)
(0.018437904 1.1888481e-06 0)
(0.018208862 -1.1161271e-06 0)
(0.018423149 1.0476359e-06 0)
(0.018222722 -9.8395686e-07 0)
(0.018410141 9.2408304e-07 0)
(0.018234946 -8.6839773e-07 0)
(0.018398661 8.1611533e-07 0)
(0.018245741 -7.6749444e-07 0)
(0.018388514 7.2191321e-07 0)
(0.018255289 -6.795426e-07 0)
(0.018379531 6.3988782e-07 0)
(0.018263752 -6.0305708e-07 0)
(0.018371558 5.6865537e-07 0)
(0.018271272 -5.3674635e-07 0)
(0.018364463 5.0701389e-07 0)
(0.018277977 -4.7949064e-07 0)
(0.018358125 4.5392307e-07 0)
(0.018283978 -4.3032294e-07 0)
(0.018352437 4.0848662e-07 0)
(0.018289378 -3.8841258e-07 0)
(0.018347303 3.6993715e-07 0)
(0.018294268 -3.5305115e-07 0)
(0.018342638 3.3762301e-07 0)
(0.01829873 -3.2364018e-07 0)
(0.018338361 3.109969e-07 0)
(0.01830284 -2.9968044e-07 0)
(0.018334402 2.896056e-07 0)
(0.018306667 -2.8076171e-07 0)
(0.018330691 2.7307934e-07 0)
(0.018310277 -2.6654454e-07 0)
(0.018327167 2.6113821e-07 0)
(0.018313731 -2.5671188e-07 0)
(0.018323763 2.5277437e-07 0)
(0.01831711 -2.6057237e-07 0)
(0.01832071 2.3943972e-07 0)
(0.019100355 0.0027025836 0)
(0.02101443 -2.3355106e-05 0)
(0.020103494 5.9885789e-06 0)
(0.020765352 1.2587777e-06 0)
(0.020181883 -2.6510197e-06 0)
(0.020727324 2.1194443e-06 0)
(0.020227768 -2.3608242e-06 0)
(0.020697139 2.1382571e-06 0)
(0.020258415 -2.0470408e-06 0)
(0.020669652 1.9045578e-06 0)
(0.020284657 -1.7927445e-06 0)
(0.02064524 1.6784814e-06 0)
(0.020307645 -1.5759363e-06 0)
(0.020623721 1.4776396e-06 0)
(0.020327858 -1.3869891e-06 0)
(0.020604772 1.3012211e-06 0)
(0.020345653 -1.2216638e-06 0)
(0.02058808 1.1466652e-06 0)
(0.020361333 -1.076994e-06 0)
(0.020573364 1.0114357e-06 0)
(0.020375162 -9.5050729e-07 0)
(0.020560375 8.9326365e-07 0)
(0.020387374 -8.4006273e-07 0)
(0.020548896 7.9015802e-07 0)
(0.020398176 -7.4379459e-07 0)
(0.020538733 7.0037988e-07 0)
(0.02040775 -6.6007719e-07 0)
(0.020529713 6.2241469e-07 0)
(0.020416258 -5.8749682e-07 0)
(0.020521686 5.5494693e-07 0)
(0.020423842 -5.2482775e-07 0)
(0.020514515 4.9683797e-07 0)
(0.020430632 -4.7101145e-07 0)
(0.020508081 4.471068e-07 0)
(0.020436741 -4.2513865e-07 0)
(0.020502273 4.049134e-07 0)
(0.020442273 -3.8643377e-07 0)
(0.020496995 3.695444e-07 0)
(0.020447321 -3.5424153e-07 0)
(0.020492157 3.4040042e-07 0)
(0.02045197 -3.2801495e-07 0)
(0.020487677 3.1698461e-07 0)
(0.0204563 -3.0730381e-07 0)
(0.02048348 2.9889025e-07 0)
(0.020460384 -2.9173257e-07 0)
(0.020479493 2.8580863e-07 0)
(0.020464291 -2.8092985e-07 0)
(0.020475642 2.7658188e-07 0)
(0.02046811 -2.8604898e-07 0)
(0.02047215 2.6130133e-07 0)
(0.021084762 0.002887332 0)
(0.023122598 -2.9285255e-05 0)
(0.02215153 7.0215659e-06 0)
(0.022883582 1.2242918e-06 0)
(0.022233477 -2.8373694e-06 0)
(0.02284092 2.2295472e-06 0)
(0.022284128 -2.5475472e-06 0)
(0.022807204 2.2983584e-06 0)
(0.02231818 -2.2050506e-06 0)
(0.022776539 2.0497631e-06 0)
(0.022347416 -1.9301829e-06 0)
(0.022749323 1.8068057e-06 0)
(0.022373037 -1.696597e-06 0)
(0.022725337 1.5906736e-06 0)
(0.022395565 -1.4931549e-06 0)
(0.022704216 1.4007735e-06 0)
(0.022415399 -1.3151689e-06 0)
(0.02268561 1.2343975e-06 0)
(0.022432875 -1.1594242e-06 0)
(0.022669207 1.0888241e-06 0)
(0.022448289 -1.0232557e-06 0)
(0.02265473 9.6161242e-07 0)
(0.022461901 -9.0435774e-07 0)
(0.022641935 8.5061944e-07 0)
(0.022473941 -8.0072164e-07 0)
(0.022630606 7.5397338e-07 0)
(0.022484612 -7.1059714e-07 0)
(0.022620553 6.700439e-07 0)
(0.022494094 -6.3246225e-07 0)
(0.022611606 5.9741489e-07 0)
(0.022502548 -5.6499735e-07 0)
(0.022603614 5.3486061e-07 0)
(0.022510116 -5.0706284e-07 0)
(0.022596441 4.8132499e-07 0)
(0.022516925 -4.5767973e-07 0)
(0.022589968 4.3590368e-07 0)
(0.022523091 -4.1601295e-07 0)
(0.022584085 3.9782856e-07 0)
(0.022528717 -3.8135677e-07 0)
(0.022578693 3.6645403e-07 0)
(0.022533899 -3.5312179e-07 0)
(0.0225737 3.4124436e-07 0)
(0.022538725 -3.3082198e-07 0)
(0.022569021 3.2175951e-07 0)
(0.022543277 -3.140487e-07 0)
(0.022564578 3.0766436e-07 0)
(0.022547632 -3.0237501e-07 0)
(0.022560286 2.9765979e-07 0)
(0.022551885 -3.0878498e-07 0)
(0.022556356 2.8044028e-07 0)
(0.023020581 0.0030468826 0)
(0.025158235 -3.5562384e-05 0)
(0.024134074 7.9756129e-06 0)
(0.024933328 1.1712339e-06 0)
(0.024218588 -2.9968769e-06 0)
(0.024886842 2.3107091e-06 0)
(0.024273712 -2.7123458e-06 0)
(0.024849646 2.437392e-06 0)
(0.024311096 -2.3433217e-06 0)
(0.024815847 2.1763961e-06 0)
(0.024343278 -2.0502192e-06 0)
(0.02478587 1.9187979e-06 0)
(0.024371489 -1.8019427e-06 0)
(0.024759454 1.6893373e-06 0)
(0.024396297 -1.5858389e-06 0)
(0.024736194 1.4876731e-06 0)
(0.024418138 -1.3967984e-06 0)
(0.024715704 1.3109805e-06 0)
(0.024437383 -1.2313852e-06 0)
(0.02469764 1.1563785e-06 0)
(0.024454357 -1.0867645e-06 0)
(0.024681697 1.0212765e-06 0)
(0.024469347 -9.6048699e-07 0)
(0.024667606 9.0339908e-07 0)
(0.024482605 -8.5041896e-07 0)
(0.024655131 8.0075836e-07 0)
(0.024494356 -7.5470143e-07 0)
(0.02464406 7.1162297e-07 0)
(0.024504799 -6.7171786e-07 0)
(0.024634207 6.3448902e-07 0)
(0.024514108 -6.0006665e-07 0)
(0.024625405 5.6805475e-07 0)
(0.024522442 -5.3853739e-07 0)
(0.024617507 5.1119855e-07 0)
(0.02452994 -4.8609025e-07 0)
(0.024610378 4.6295992e-07 0)
(0.02453673 -4.4183816e-07 0)
(0.0246039 4.2252288e-07 0)
(0.024542926 -4.0503129e-07 0)
(0.024597961 3.892014e-07 0)
(0.024548633 -3.7504303e-07 0)
(0.024592463 3.6242559e-07 0)
(0.024553947 -3.5135575e-07 0)
(0.024587311 3.417257e-07 0)
(0.024558959 -3.3353078e-07 0)
(0.024582418 3.2674268e-07 0)
(0.024563755 -3.2108524e-07 0)
(0.024577692 3.1604673e-07 0)
(0.024568435 -3.2878595e-07 0)
(0.024573326 2.9691565e-07 0)
(0.02490831 0.0031819886 0)
(0.02712234 -4.2081318e-05 0)
(0.026050944 8.8297017e-06 0)
(0.026914462 1.1053569e-06 0)
(0.026137337 -3.1348856e-06 0)
(0.026865023 2.3650227e-06 0)
(0.026196585 -2.8555496e-06 0)
(0.026824403 2.5558439e-06 0)
(0.026237222 -2.4621506e-06 0)
(0.02678752 2.2847886e-06 0)
(0.026272293 -2.153142e-06 0)
(0.026754831 2.014739e-06 0)
(0.026303047 -1.8922321e-06 0)
(0.026726029 1.7738762e-06 0)
(0.026330094 -1.6652693e-06 0)
(0.026700669 1.5621355e-06 0)
(0.026353905 -1.4667538e-06 0)
(0.026678329 1.3766041e-06 0)
(0.026374887 -1.2930545e-06 0)
(0.026658634 1.2142664e-06 0)
(0.026393392 -1.1411905e-06 0)
(0.026641251 1.0724039e-06 0)
(0.026409735 -1.0085891e-06 0)
(0.026625889 9.4862772e-07 0)
(0.02642419 -8.9300926e-07 0)
(0.026612287 8.4085066e-07 0)
(0.026437002 -7.9249894e-07 0)
(0.026600217 7.4725481e-07 0)
(0.026448386 -7.0536053e-07 0)
(0.026589474 6.6626103e-07 0)
(0.026458536 -6.3012216e-07 0)
(0.026579878 5.9650244e-07 0)
(0.026467622 -5.6551274e-07 0)
(0.026571267 5.3680128e-07 0)
(0.026475797 -5.1044024e-07 0)
(0.026563495 4.8614889e-07 0)
(0.0264832 -4.6397302e-07 0)
(0.026556432 4.4368827e-07 0)
(0.026489955 -4.2532338e-07 0)
(0.026549957 4.0869863e-07 0)
(0.026496177 -3.9383268e-07 0)
(0.026543963 3.8058059e-07 0)
(0.026501971 -3.6895581e-07 0)
(0.026538346 3.5883829e-07 0)
(0.026507435 -3.5022726e-07 0)
(0.026533011 3.4309128e-07 0)
(0.026512663 -3.3710866e-07 0)
(0.02652786 3.3179105e-07 0)
(0.026517761 -3.4607216e-07 0)
(0.026523062 3.1079761e-07 0)
(0.026748349 0.003293395 0)
(0.029015985 -4.8741045e-05 0)
(0.02790183 9.5779146e-06 0)
(0.02882699 1.0314258e-06 0)
(0.027989815 -3.2565139e-06 0)
(0.028775407 2.3948442e-06 0)
(0.028052808 -2.9774986e-06 0)
(0.028731417 2.6542377e-06 0)
(0.028096612 -2.5618795e-06 0)
(0.028691507 2.3753149e-06 0)
(0.028134509 -2.2392812e-06 0)
(0.028656161 2.0949481e-06 0)
(0.028167753 -1.9677596e-06 0)
(0.028625023 1.8445691e-06 0)
(0.028196992 -1.7317062e-06 0)
(0.028597606 1.6244061e-06 0)
(0.028222733 -1.5252643e-06 0)
(0.028573454 1.4314845e-06 0)
(0.028245415 -1.3446342e-06 0)
(0.028552162 1.2626782e-06 0)
(0.02826542 -1.1867121e-06 0)
(0.02853337 1.1151627e-06 0)
(0.028283087 -1.0488216e-06 0)
(0.028516762 9.8645399e-07 0)
(0.028298714 -9.2863206e-07 0)
(0.028502058 8.7438199e-07 0)
(0.028312564 -8.2411347e-07 0)
(0.028489009 7.7705638e-07 0)
(0.028324871 -7.3350041e-07 0)
(0.028477395 6.9283513e-07 0)
(0.028335844 -6.5526225e-07 0)
(0.028467021 6.2029691e-07 0)
(0.028345666 -5.880771e-07 0)
(0.028457712 5.58217e-07 0)
(0.028354504 -5.3080929e-07 0)
(0.02844931 5.0554645e-07 0)
(0.028362507 -4.8248983e-07 0)
(0.028441674 4.613939e-07 0)
(0.02836981 -4.4229928e-07 0)
(0.028434674 4.2500941e-07 0)
(0.028376536 -4.0955206e-07 0)
(0.028428194 3.9576867e-07 0)
(0.028382799 -3.8367969e-07 0)
(0.028422122 3.7315337e-07 0)
(0.028388706 -3.6419304e-07 0)
(0.028416355 3.5676416e-07 0)
(0.028394358 -3.5049963e-07 0)
(0.028410787 3.4494695e-07 0)
(0.028399866 -3.6067426e-07 0)
(0.028405563 3.2216328e-07 0)
(0.028540897 0.0033818392 0)
(0.030840207 -5.5442577e-05 0)
(0.029686414 1.0234749e-05 0)
(0.030670969 9.4994319e-07 0)
(0.029776091 -3.3669644e-06 0)
(0.030617943 2.4024597e-06 0)
(0.029842436 -3.0785509e-06 0)
(0.030570635 2.7331239e-06 0)
(0.029889315 -2.6428881e-06 0)
(0.030527763 2.4483861e-06 0)
(0.029929971 -2.3090006e-06 0)
(0.03048982 2.1597764e-06 0)
(0.029965646 -2.0288504e-06 0)
(0.0304564 1.9017237e-06 0)
(0.029997024 -1.7854364e-06 0)
(0.030426974 1.6747553e-06 0)
(0.03002465 -1.5725826e-06 0)
(0.030401053 1.4758596e-06 0)
(0.030048992 -1.3863473e-06 0)
(0.030378201 1.301824e-06 0)
(0.030070462 -1.223526e-06 0)
(0.030358033 1.1497382e-06 0)
(0.030089423 -1.0813583e-06 0)
(0.030340209 1.0170418e-06 0)
(0.030106194 -9.5744126e-07 0)
(0.030324427 9.0149752e-07 0)
(0.030121058 -8.4968155e-07 0)
(0.030310422 8.0115661e-07 0)
(0.030134267 -7.5625898e-07 0)
(0.030297958 7.1432621e-07 0)
(0.030146042 -6.7559537e-07 0)
(0.030286824 6.3954094e-07 0)
(0.030156584 -6.0632775e-07 0)
(0.030276833 5.7553811e-07 0)
(0.030166069 -5.4728512e-07 0)
(0.030267815 5.212362e-07 0)
(0.030174658 -4.9746825e-07 0)
(0.03025962 4.75716e-07 0)
(0.030182496 -4.5603197e-07 0)
(0.030252108 4.382039e-07 0)
(0.030189715 -4.222687e-07 0)
(0.030245152 4.0805515e-07 0)
(0.030196437 -3.9559071e-07 0)
(0.030238636 3.8473265e-07 0)
(0.030202776 -3.7548851e-07 0)
(0.030232447 3.6782071e-07 0)
(0.030208842 -3.6131776e-07 0)
(0.030226472 3.5557355e-07 0)
(0.030214749 -3.7263191e-07 0)
(0.030220829 3.3109501e-07 0)
(0.030285899 0.0034480463 0)
(0.032595698 -6.2041077e-05 0)
(0.031404694 1.0791647e-05 0)
(0.032446445 8.5650513e-07 0)
(0.031496215 -3.4714862e-06 0)
(0.032392588 2.3899953e-06 0)
(0.031565517 -3.1591311e-06 0)
(0.032342009 2.7930574e-06 0)
(0.031615376 -2.7056005e-06 0)
(0.032296244 2.5044461e-06 0)
(0.031658715 -2.3626984e-06 0)
(0.032255772 2.2096063e-06 0)
(0.031696758 -2.0758586e-06 0)
(0.032220128 1.9456745e-06 0)
(0.031730221 -1.8267725e-06 0)
(0.032188745 1.7134774e-06 0)
(0.031759682 -1.6089841e-06 0)
(0.032161101 1.5099889e-06 0)
(0.031785641 -1.4184365e-06 0)
(0.03213673 1.3319324e-06 0)
(0.031808538 -1.2518465e-06 0)
(0.032115221 1.1763323e-06 0)
(0.031828759 -1.1063887e-06 0)
(0.032096212 1.0405695e-06 0)
(0.031846644 -9.7960448e-07 0)
(0.032079381 9.2235532e-07 0)
(0.031862497 -8.6935189e-07 0)
(0.032064445 8.1969591e-07 0)
(0.031876583 -7.7376853e-07 0)
(0.032051152 7.3085935e-07 0)
(0.031889142 -6.9123963e-07 0)
(0.032039278 6.5434642e-07 0)
(0.031900384 -6.2037061e-07 0)
(0.032028622 5.8886523e-07 0)
(0.0319105 -5.5996324e-07 0)
(0.032019005 5.3330914e-07 0)
(0.03191966 -5.0899503e-07 0)
(0.032010264 4.8673754e-07 0)
(0.031928019 -4.6660088e-07 0)
(0.032002253 4.4835843e-07 0)
(0.031935718 -4.3205613e-07 0)
(0.031994835 4.1751112e-07 0)
(0.031942887 -4.0475776e-07 0)
(0.031987885 3.9364323e-07 0)
(0.031949647 -3.8417931e-07 0)
(0.031981285 3.7632544e-07 0)
(0.031956116 -3.6962763e-07 0)
(0.031974915 3.637347e-07 0)
(0.031962412 -3.8199309e-07 0)
(0.03196886 3.3767952e-07 0)
(0.031983011 0.0034927075 0)
(0.034282082 -6.8248431e-05 0)
(0.033057638 1.1087669e-05 0)
(0.034153417 7.3349657e-07 0)
(0.033150212 -3.5750782e-06 0)
(0.034099286 2.3600585e-06 0)
(0.033222095 -3.2194807e-06 0)
(0.034045496 2.8346808e-06 0)
(0.033274835 -2.7504601e-06 0)
(0.033996913 2.5439755e-06 0)
(0.033320779 -2.4008021e-06 0)
(0.033953982 2.2448492e-06 0)
(0.033361122 -2.1091654e-06 0)
(0.033916178 1.9767817e-06 0)
(0.033396609 -1.8560506e-06 0)
(0.033882894 1.7408891e-06 0)
(0.033427853 -1.6347652e-06 0)
(0.033853576 1.5341511e-06 0)
(0.033455384 -1.4411632e-06 0)
(0.033827729 1.3532491e-06 0)
(0.033479667 -1.271904e-06 0)
(0.033804917 1.195162e-06 0)
(0.033501112 -1.1241165e-06 0)
(0.033784756 1.0572292e-06 0)
(0.03352008 -9.9530208e-07 0)
(0.033766906 9.3712546e-07 0)
(0.033536892 -8.8328449e-07 0)
(0.033751065 8.3282531e-07 0)
(0.033551832 -7.8617141e-07 0)
(0.033736967 7.4256912e-07 0)
(0.033565151 -7.0232213e-07 0)
(0.033724374 6.6483374e-07 0)
(0.033577074 -6.3031964e-07 0)
(0.033713072 5.9830656e-07 0)
(0.033587803 -5.6894646e-07 0)
(0.033702873 5.418632e-07 0)
(0.033597518 -5.171635e-07 0)
(0.033693603 4.9454777e-07 0)
(0.033606383 -4.7409149e-07 0)
(0.033685106 4.5555515e-07 0)
(0.033614548 -4.3899343e-07 0)
(0.033677239 4.2421301e-07 0)
(0.033622151 -4.1125495e-07 0)
(0.033669868 3.9995729e-07 0)
(0.033629321 -3.9033599e-07 0)
(0.033662868 3.8234766e-07 0)
(0.033636181 -3.7549847e-07 0)
(0.033656113 3.6949863e-07 0)
(0.033642855 -3.8881339e-07 0)
(0.033649657 3.4200696e-07 0)
(0.03363179 0.0035166077 0)
(0.035896123 -7.3965325e-05 0)
(0.034648358 1.1087585e-05 0)
(0.035792281 5.8145683e-07 0)
(0.034738122 -3.6825776e-06 0)
(0.035737988 2.3140744e-06 0)
(0.034812201 -3.2602007e-06 0)
(0.035681053 2.8585364e-06 0)
(0.034867726 -2.7779829e-06 0)
(0.035629736 2.5674706e-06 0)
(0.034916194 -2.4237723e-06 0)
(0.035584421 2.2659405e-06 0)
(0.034958764 -2.1291772e-06 0)
(0.035544524 1.9954279e-06 0)
(0.034996213 -1.873629e-06 0)
(0.035509398 1.7573271e-06 0)
(0.035029186 -1.6502413e-06 0)
(0.035478457 1.548643e-06 0)
(0.035058239 -1.4548053e-06 0)
(0.035451179 1.3660359e-06 0)
(0.035083865 -1.2839441e-06 0)
(0.035427105 1.2064583e-06 0)
(0.035106496 -1.1347585e-06 0)
(0.035405828 1.0672249e-06 0)
(0.035126514 -1.004726e-06 0)
(0.03538699 9.4598884e-07 0)
(0.035144256 -8.9164963e-07 0)
(0.035370273 8.4070549e-07 0)
(0.035160022 -7.936191e-07 0)
(0.035355395 7.495987e-07 0)
(0.035174078 -7.0897809e-07 0)
(0.035342104 6.7113096e-07 0)
(0.035186661 -6.3629614e-07 0)
(0.035330178 6.0397727e-07 0)
(0.035197983 -5.7434413e-07 0)
(0.035319413 5.4700254e-07 0)
(0.035208236 -5.2207297e-07 0)
(0.03530963 4.9924166e-07 0)
(0.035217592 -4.7859473e-07 0)
(0.035300663 4.5988146e-07 0)
(0.035226209 -4.4316473e-07 0)
(0.03529236 4.2824216e-07 0)
(0.035234233 -4.151611e-07 0)
(0.035284582 4.0375157e-07 0)
(0.0352418 -3.9403355e-07 0)
(0.035277194 3.8596103e-07 0)
(0.035249039 -3.790037e-07 0)
(0.035270067 3.7293761e-07 0)
(0.035256079 -3.931553e-07 0)
(0.03526322 3.4417012e-07 0)
(0.035231464 0.00352053 0)
(0.037433722 -7.9759617e-05 0)
(0.036180197 1.1257505e-05 0)
(0.037364182 5.4096079e-07 0)
(0.036260103 -3.7743648e-06 0)
(0.037308721 2.2585137e-06 0)
(0.036335891 -3.2807149e-06 0)
(0.037248652 2.8654886e-06 0)
(0.036394086 -2.7886287e-06 0)
(0.037194682 2.5754803e-06 0)
(0.036444989 -2.4320854e-06 0)
(0.037147063 2.2733424e-06 0)
(0.036489711 -2.1363211e-06 0)
(0.037105142 2.0020168e-06 0)
(0.036529056 -1.8798846e-06 0)
(0.037068236 1.7631464e-06 0)
(0.036563698 -1.6557448e-06 0)
(0.037035726 1.5537771e-06 0)
(0.036594223 -1.4596559e-06 0)
(0.037007066 1.3705683e-06 0)
(0.036621147 -1.2882254e-06 0)
(0.036981772 1.2104645e-06 0)
(0.036644924 -1.1385433e-06 0)
(0.036959417 1.0707719e-06 0)
(0.036665956 -1.0080785e-06 0)
(0.036939624 9.4913612e-07 0)
(0.036684597 -8.9462678e-07 0)
(0.03692206 8.4350579e-07 0)
(0.036701162 -7.9627125e-07 0)
(0.036906427 7.5209898e-07 0)
(0.03671593 -7.1135008e-07 0)
(0.036892463 6.7337309e-07 0)
(0.036729151 -6.3842795e-07 0)
(0.036879932 6.0599874e-07 0)
(0.036741047 -5.7627156e-07 0)
(0.036868622 5.4883699e-07 0)
(0.036751819 -5.2382815e-07 0)
(0.036858343 5.0091934e-07 0)
(0.036761649 -4.802065e-07 0)
(0.036848921 4.6142947e-07 0)
(0.036770703 -4.4465875e-07 0)
(0.036840197 4.2968429e-07 0)
(0.036779134 -4.1655929e-07 0)
(0.036832024 4.0510694e-07 0)
(0.036787085 -3.9535104e-07 0)
(0.036824262 3.8724315e-07 0)
(0.03679469 -3.8022049e-07 0)
(0.036816775 3.7412753e-07 0)
(0.036802084 -3.9508748e-07 0)
(0.036809548 3.4426361e-07 0)
(0.03678067 0.0035052121 0)
(0.038900529 -8.5231865e-05 0)
(0.0376495 1.1330748e-05 0)
(0.03886873 5.9709013e-07 0)
(0.037716029 -3.8552005e-06 0)
(0.038811409 2.1939688e-06 0)
(0.037793185 -3.2817899e-06 0)
(0.038748257 2.8560814e-06 0)
(0.037853941 -2.7829869e-06 0)
(0.038691724 2.5685442e-06 0)
(0.037907188 -2.4262524e-06 0)
(0.038641882 2.2675335e-06 0)
(0.037953985 -2.1310458e-06 0)
(0.038598011 1.9969698e-06 0)
(0.037995157 -1.8752123e-06 0)
(0.038559388 1.7587179e-06 0)
(0.038031408 -1.6516235e-06 0)
(0.038525368 1.5498803e-06 0)
(0.038063351 -1.4560216e-06 0)
(0.038495375 1.3671346e-06 0)
(0.038091526 -1.2850183e-06 0)
(0.038468905 1.2074351e-06 0)
(0.038116408 -1.1357098e-06 0)
(0.038445511 1.0680953e-06 0)
(0.038138417 -1.0055713e-06 0)
(0.038424798 9.4676669e-07 0)
(0.038157924 -8.9240367e-07 0)
(0.038406417 8.4140334e-07 0)
(0.038175259 -7.9429491e-07 0)
(0.038390058 7.5022779e-07 0)
(0.038190714 -7.0958723e-07 0)
(0.038375444 6.7170134e-07 0)
(0.038204549 -6.3684883e-07 0)
(0.03836233 6.0449794e-07 0)
(0.038216998 -5.7484938e-07 0)
(0.038350494 5.4748144e-07 0)
(0.038228271 -5.2253859e-07 0)
(0.038339737 4.9968556e-07 0)
(0.038238559 -4.7902714e-07 0)
(0.038329877 4.6029559e-07 0)
(0.038248034 -4.4356833e-07 0)
(0.038320747 4.2862913e-07 0)
(0.038256857 -4.1553649e-07 0)
(0.038312194 4.0410804e-07 0)
(0.038265177 -3.9437112e-07 0)
(0.038304071 3.8627517e-07 0)
(0.038273136 -3.7922943e-07 0)
(0.038296238 3.7314755e-07 0)
(0.038280871 -3.9468414e-07 0)
(0.038288643 3.4238322e-07 0)
(0.038277786 0.0034714266 0)
(0.04030548 -8.974955e-05 0)
(0.039049408 1.0864857e-05 0)
(0.04030514 6.6981948e-07 0)