/*--------------------------------*- C++ -*----------------------------------*\
| =========                 |                                                 |
| \\      /  F ield         | OpenFOAM: The Open Source CFD Toolbox           |
|  \\    /   O peration     | Version:  2312                                  |
|   \\  /    A nd           | Website:  www.openfoam.com                      |
|    \\/     M anipulation  |                                                 |
\*---------------------------------------------------------------------------*/
FoamFile
{
    version     2.0;
    format      ascii;
    arch        "LSB;label=32;scalar=64";
    class       volVectorField;
    location    "8";
    object      U_0;
}
// * * * * * * * * * * * * * * * * * * * * * * * * * * * * * * * * * * * * * //

dimensions      [0 1 -1 0 0 0 0];

internalField   nonuniform List<vector> 
4000
(
(0.0013493579 0.00023021474 0)
(0.0014476663 -1.2387519e-06 0)
(0.0013498556 -1.5162642e-07 0)
(0.0013956143 1.4811516e-07 0)
(0.0013600227 -1.3728005e-07 0)
(0.0013934339 1.3032837e-07 0)
(0.0013630186 -1.2099381e-07 0)
(0.0013916168 1.1371309e-07 0)
(0.0013649318 -1.0648792e-07 0)
(0.0013899547 9.9906938e-08 0)
(0.0013665335 -9.3676407e-08 0)
(0.0013884721 8.786905e-08 0)
(0.0013679319 -8.2420576e-08 0)
(0.0013871638 7.7324155e-08 0)
(0.0013691607 -7.2551207e-08 0)
(0.0013860116 6.8085532e-08 0)
(0.0013702423 -6.3905334e-08 0)
(0.0013849966 5.99959e-08 0)
(0.0013711951 -5.6337647e-08 0)
(0.0013841019 5.291853e-08 0)
(0.0013720354 -4.9720535e-08 0)
(0.0013833124 4.6733967e-08 0)
(0.0013727772 -4.3942338e-08 0)
(0.0013826148 4.1337847e-08 0)
(0.0013734331 -3.8905541e-08 0)
(0.0013819973 3.6639114e-08 0)
(0.0013740143 -3.4525136e-08 0)
(0.0013814496 3.255848e-08 0)
(0.0013745304 -3.0727192e-08 0)
(0.0013809625 2.9027083e-08 0)
(0.0013749903 -2.7447607e-08 0)
(0.0013805276 2.5985333e-08 0)
(0.0013754016 -2.4631035e-08 0)
(0.0013801377 2.3381903e-08 0)
(0.0013757714 -2.2229949e-08 0)
(0.0013797862 2.1172875e-08 0)
(0.0013761059 -2.0203854e-08 0)
(0.0013794671 1.9321011e-08 0)
(0.0013764106 -1.8518616e-08 0)
(0.0013791752 1.7795151e-08 0)
(0.0013766908 -1.7145931e-08 0)
(0.0013789054 1.6569751e-08 0)
(0.0013769512 -1.606295e-08 0)
(0.0013786532 1.562463e-08 0)
(0.0013771961 -1.5252221e-08 0)
(0.0013784143 1.4945055e-08 0)
(0.0013774298 -1.470319e-08 0)
(0.001378185 1.452428e-08 0)
(0.0013776626 -1.4383487e-08 0)
(0.0013780089 1.4877163e-08 0)
(0.0037651893 0.0006352505 0)
(0.0041624841 4.3160524e-07 0)
(0.0039242001 4.5528083e-08 0)
(0.0040511203 4.1089478e-07 0)
(0.0039478324 -4.7783901e-07 0)
(0.0040452056 4.3481474e-07 0)
(0.003956476 -4.208906e-07 0)
(0.0040399353 3.9180374e-07 0)
(0.0039620415 -3.6912141e-07 0)
(0.0040350832 3.4556864e-07 0)
(0.0039667169 -3.243446e-07 0)
(0.004030755 3.0410446e-07 0)
(0.0039708008 -2.8530745e-07 0)
(0.0040269357 2.6763974e-07 0)
(0.0039743899 -2.511351e-07 0)
(0.0040235719 2.3567012e-07 0)
(0.0039775491 -2.2120897e-07 0)
(0.0040206087 2.0767325e-07 0)
(0.0039803325 -1.950169e-07 0)
(0.0040179963 1.831796e-07 0)
(0.0039827871 -1.7211567e-07 0)
(0.0040156909 1.6177631e-07 0)
(0.0039849546 -1.5211854e-07 0)
(0.0040136536 1.4310232e-07 0)
(0.0039868715 -1.3468799e-07 0)
(0.0040118501 1.268425e-07 0)
(0.0039885701 -1.1952979e-07 0)
(0.0040102499 1.1272247e-07 0)
(0.0039900791 -1.0638809e-07 0)
(0.0040088261 1.0050392e-07 0)
(0.0039914241 -9.5041067e-08 0)
(0.0040075546 8.998064e-08 0)
(0.0039926276 -8.5297163e-08 0)
(0.0040064141 8.0974992e-08 0)
(0.0039937101 -7.6991891e-08 0)
(0.0040053852 7.333496e-08 0)
(0.0039946897 -6.9985046e-08 0)
(0.0040044507 6.6931583e-08 0)
(0.0039955831 -6.4158356e-08 0)
(0.0040035948 6.1656804e-08 0)
(0.0039964052 -5.9413528e-08 0)
(0.004002803 5.7421705e-08 0)
(0.00399717 -5.5670678e-08 0)
(0.004002062 5.4155208e-08 0)
(0.0039978905 -5.2866972e-08 0)
(0.004001359 5.1804262e-08 0)
(0.0039985787 -5.0961555e-08 0)
(0.0040006822 5.0258798e-08 0)
(0.0039992586 -5.0548046e-08 0)
(0.004000135 4.8404965e-08 0)
(0.0061132219 0.0010194793 0)
(0.0067965046 -4.8159976e-07 0)
(0.0064332161 3.7859978e-07 0)
(0.0066395227 6.9475066e-07 0)
(0.0064684531 -8.6623341e-07 0)
(0.0066298455 7.7420206e-07 0)
(0.0064826594 -7.6164478e-07 0)
(0.0066210929 7.0635915e-07 0)
(0.0064918641 -6.6694533e-07 0)
(0.0066130375 6.2386463e-07 0)
(0.0064996181 -5.8578219e-07 0)
(0.0066058553 5.4912052e-07 0)
(0.0065063943 -5.1523259e-07 0)
(0.0065995186 4.8329492e-07 0)
(0.0065123499 -4.5351234e-07 0)
(0.0065939376 4.2556872e-07 0)
(0.0065175924 -3.9946779e-07 0)
(0.006589021 3.7501328e-07 0)
(0.0065222114 -3.521679e-07 0)
(0.0065846865 3.3078316e-07 0)
(0.0065262851 -3.1081113e-07 0)
(0.0065808611 2.9213333e-07 0)
(0.0065298825 -2.7469888e-07 0)
(0.0065774803 2.5841184e-07 0)
(0.0065330641 -2.432215e-07 0)
(0.0065744872 2.290497e-07 0)
(0.0065358837 -2.1584765e-07 0)
(0.0065718312 2.0355143e-07 0)
(0.006538389 -1.9211524e-07 0)
(0.0065694676 1.814867e-07 0)
(0.0065406222 -1.7162365e-07 0)
(0.0065673566 1.6248308e-07 0)
(0.006542621 -1.5402689e-07 0)
(0.0065654625 1.4621978e-07 0)
(0.0065444191 -1.3902784e-07 0)
(0.0065637534 1.3242219e-07 0)
(0.0065460469 -1.2637318e-07 0)
(0.0065622006 1.2085728e-07 0)
(0.0065475319 -1.1584911e-07 0)
(0.0065607776 1.1132964e-07 0)
(0.0065488991 -1.0727774e-07 0)
(0.0065594607 1.0367814e-07 0)
(0.0065501717 -1.0051397e-07 0)
(0.0065582274 9.7773199e-08 0)
(0.0065513712 -9.5442153e-08 0)
(0.0065570566 9.3516873e-08 0)
(0.006552518 -9.1980371e-08 0)
(0.0065559278 9.0674887e-08 0)
(0.0065536479 -9.158088e-08 0)
(0.0065549926 8.6918042e-08 0)
(0.008413731 0.0013735151 0)
(0.0093561752 -2.358641e-06 0)
(0.0088766329 9.7682904e-07 0)
(0.0091610239 9.1892883e-07 0)
(0.0089217987 -1.240794e-06 0)
(0.0091474434 1.0878527e-06 0)
(0.008941495 -1.0892945e-06 0)
(0.009135171 1.0062819e-06 0)
(0.0089543342 -9.5235396e-07 0)
(0.0091238894 8.9004317e-07 0)
(0.0089651795 -8.3607068e-07 0)
(0.0091138366 7.835756e-07 0)
(0.0089746613 -7.3530762e-07 0)
(0.0091049687 6.8967316e-07 0)
(0.0089829956 -6.4721114e-07 0)
(0.0090971583 6.0730232e-07 0)
(0.008990332 -5.7008023e-07 0)
(0.0090902778 5.3515953e-07 0)
(0.0089967962 -5.0257694e-07 0)
(0.0090842117 4.7204208e-07 0)
(0.0090024973 -4.4355571e-07 0)
(0.009078858 4.1688748e-07 0)
(0.0090075319 -3.9201919e-07 0)
(0.0090741264 3.6876555e-07 0)
(0.0090119848 -3.4709725e-07 0)
(0.0090699371 3.268644e-07 0)
(0.0090159314 -3.0803155e-07 0)
(0.0090662196 2.9047698e-07 0)
(0.0090194381 -2.7416258e-07 0)
(0.0090629111 2.5898923e-07 0)
(0.0090225643 -2.4491855e-07 0)
(0.0090599558 2.3186968e-07 0)
(0.0090253626 -2.1980567e-07 0)
(0.009057304 2.0866052e-07 0)
(0.0090278803 -1.9839984e-07 0)
(0.0090549108 1.8896983e-07 0)
(0.0090301598 -1.8033946e-07 0)
(0.009052736 1.7246499e-07 0)
(0.0090322398 -1.6531928e-07 0)
(0.0090507427 1.5886693e-07 0)
(0.0090341552 -1.5308513e-07 0)
(0.0090488975 1.4794536e-07 0)
(0.0090359385 -1.4342938e-07 0)
(0.0090471689 1.3951443e-07 0)
(0.0090376201 -1.3618513e-07 0)
(0.0090455273 1.3343347e-07 0)
(0.0090392285 -1.3122751e-07 0)
(0.0090439432 1.2932229e-07 0)
(0.0090408101 -1.3120881e-07 0)
(0.0090426036 1.236067e-07 0)
(0.010659115 0.0016964459 0)
(0.011839261 -5.1367487e-06 0)
(0.011254058 1.7894985e-06 0)
(0.011615768 1.0793576e-06 0)
(0.011307878 -1.5855214e-06 0)
(0.011597983 1.3629892e-06 0)
(0.011332997 -1.3907913e-06 0)
(0.011582151 1.2797101e-06 0)
(0.011349464 -1.2139831e-06 0)
(0.011567622 1.1335372e-06 0)
(0.011363411 -1.0652467e-06 0)
(0.011554685 9.9815638e-07 0)
(0.011375611 -9.3677373e-07 0)
(0.011543273 8.7857526e-07 0)
(0.011386334 -8.2452325e-07 0)
(0.011533223 7.7365031e-07 0)
(0.011395774 -7.2625726e-07 0)
(0.01152437 6.8174877e-07 0)
(0.011404092 -6.4025929e-07 0)
(0.011516564 6.0134334e-07 0)
(0.011411428 -5.6506784e-07 0)
(0.011509675 5.310814e-07 0)
(0.011417906 -4.9941191e-07 0)
(0.011503587 4.6977822e-07 0)
(0.011423636 -4.4218284e-07 0)
(0.011498196 4.1639958e-07 0)
(0.011428714 -3.9241446e-07 0)
(0.011493412 3.7004484e-07 0)
(0.011433227 -3.4926656e-07 0)
(0.011489155 3.2993174e-07 0)
(0.01143725 -3.1201063e-07 0)
(0.011485351 2.9538326e-07 0)
(0.011440851 -2.8001757e-07 0)
(0.011481939 2.6581617e-07 0)
(0.011444091 -2.5274705e-07 0)
(0.011478858 2.4073118e-07 0)
(0.011447025 -2.2973833e-07 0)
(0.011476059 2.1970447e-07 0)
(0.011449703 -2.1060241e-07 0)
(0.011473493 2.0238042e-07 0)
(0.011452169 -1.9501527e-07 0)
(0.011471118 1.884653e-07 0)
(0.011454465 -1.8271189e-07 0)
(0.011468892 1.7772157e-07 0)
(0.01145663 -1.7347782e-07 0)
(0.011466778 1.6996974e-07 0)
(0.011458701 -1.6714424e-07 0)
(0.011464737 1.646758e-07 0)
(0.011460735 -1.6781445e-07 0)
(0.01146298 1.5706967e-07 0)
(0.012848136 0.0019895971 0)
(0.014245997 -8.6930467e-06 0)
(0.01356541 2.7559954e-06 0)
(0.014003778 1.1853436e-06 0)
(0.013626798 -1.8996214e-06 0)
(0.013981357 1.6014924e-06 0)
(0.013657269 -1.6672158e-06 0)
(0.013961938 1.5279474e-06 0)
(0.013677343 -1.4528776e-06 0)
(0.013944153 1.3553781e-06 0)
(0.013694393 -1.2742543e-06 0)
(0.013928326 1.1937563e-06 0)
(0.013709311 -1.1204668e-06 0)
(0.013914369 1.0507856e-06 0)
(0.013722426 -9.8618536e-07 0)
(0.013902077 9.2530309e-07 0)
(0.013733972 -8.6864796e-07 0)
(0.013891248 8.153894e-07 0)
(0.013744144 -7.6578727e-07 0)
(0.013881701 7.1922365e-07 0)
(0.013753117 -6.758527e-07 0)
(0.013873276 6.3518918e-07 0)
(0.01376104 -5.9732356e-07 0)
(0.013865829 5.6186928e-07 0)
(0.013768048 -5.2887368e-07 0)
(0.013859235 4.9802713e-07 0)
(0.013774259 -4.6934738e-07 0)
(0.013853384 4.4258557e-07 0)
(0.013779779 -4.1773966e-07 0)
(0.013848177 3.9460906e-07 0)
(0.013784699 -3.7317911e-07 0)
(0.013843525 3.5328785e-07 0)
(0.013789104 -3.3491325e-07 0)
(0.013839351 3.1792438e-07 0)
(0.013793067 -3.0229574e-07 0)
(0.013835583 2.8792147e-07 0)
(0.013796656 -2.7477542e-07 0)
(0.013832159 2.6277212e-07 0)
(0.013799931 -2.5188689e-07 0)
(0.01382902 2.4205082e-07 0)
(0.013802947 -2.332423e-07 0)
(0.013826114 2.2540583e-07 0)
(0.013805756 -2.18524e-07 0)
(0.013823392 2.1255198e-07 0)
(0.013808405 -2.0747316e-07 0)
(0.013820805 2.03274e-07 0)
(0.01381094 -1.9987459e-07 0)
(0.013818307 1.9687952e-07 0)
(0.013813425 -2.014648e-07 0)
(0.013816124 1.8738781e-07 0)
(0.014983356 0.0022544625 0)
(0.016576962 -1.2971326e-05 0)
(0.015810667 3.8129681e-06 0)
(0.016324948 1.2460144e-06 0)
(0.015878685 -2.1828173e-06 0)
(0.016297445 1.8063351e-06 0)
(0.015914423 -1.9207253e-06 0)
(0.016274426 1.7533241e-06 0)
(0.015938071 -1.6710381e-06 0)
(0.016253389 1.5574976e-06 0)
(0.015958211 -1.4648797e-06 0)
(0.01623468 1.372061e-06 0)
(0.01597584 -1.2879634e-06 0)
(0.016218183 1.2077855e-06 0)
(0.015991339 -1.1335862e-06 0)
(0.016203656 1.0635647e-06 0)
(0.016004984 -9.9847583e-07 0)
(0.016190858 9.3723053e-07 0)
(0.016017006 -8.8023958e-07 0)
(0.016179575 8.266966e-07 0)
(0.016027609 -7.7686241e-07 0)
(0.016169617 7.3010602e-07 0)
(0.016036973 -6.8659575e-07 0)
(0.016160816 6.4583068e-07 0)
(0.016045256 -6.0791505e-07 0)
(0.016153023 5.7244908e-07 0)
(0.016052596 -5.3949183e-07 0)
(0.016146108 5.0872317e-07 0)
(0.016059119 -4.8017077e-07 0)
(0.016139953 4.5357763e-07 0)
(0.016064935 -4.2895019e-07 0)
(0.016134456 4.0608174e-07 0)
(0.01607014 -3.8496508e-07 0)
(0.016129522 3.654337e-07 0)
(0.016074825 -3.4747242e-07 0)
(0.016125069 3.3094703e-07 0)
(0.016079066 -3.1583855e-07 0)
(0.016121022 3.0203887e-07 0)
(0.016082937 -2.8952833e-07 0)
(0.016117313 2.7821989e-07 0)
(0.016086501 -2.6809555e-07 0)
(0.016113878 2.5908521e-07 0)
(0.016089821 -2.511742e-07 0)
(0.01611066 2.4430561e-07 0)
(0.016092952 -2.3846377e-07 0)
(0.016107603 2.3363238e-07 0)
(0.016095948 -2.2969954e-07 0)
(0.016104651 2.2621393e-07 0)
(0.016098882 -2.3237001e-07 0)
(0.016102035 2.1481351e-07 0)
(0.017067104 0.002491892 0)
(0.018832878 -1.7894971e-05 0)
(0.017989947 4.9061635e-06 0)
(0.018578971 1.2681491e-06 0)
(0.018063668 -2.4334871e-06 0)
(0.018546135 1.9787409e-06 0)
(0.01810456 -2.1519201e-06 0)
(0.018519521 1.9566754e-06 0)
(0.018131735 -1.8690707e-06 0)
(0.018495246 1.7405188e-06 0)
(0.018154942 -1.6376818e-06 0)
(0.018473672 1.533606e-06 0)
(0.018175265 -1.4397603e-06 0)
(0.018454653 1.3500444e-06 0)
(0.018193132 -1.2671641e-06 0)
(0.018437904 1.1888481e-06 0)
(0.018208862 -1.1161271e-06 0)
(0.018423149 1.0476359e-06 0)
(0.018222722 -9.839569e-07 0)
(0.018410141 9.2408308e-07 0)
(0.018234946 -8.6839778e-07 0)
(0.018398661 8.1611536e-07 0)
(0.018245741 -7.6749448e-07 0)
(0.018388514 7.2191322e-07 0)
(0.018255289 -6.7954264e-07 0)
(0.018379531 6.3988784e-07 0)
(0.018263752 -6.0305711e-07 0)
(0.018371558 5.6865538e-07 0)
(0.018271272 -5.3674637e-07 0)
(0.018364463 5.0701391e-07 0)
(0.018277977 -4.7949066e-07 0)
(0.018358125 4.5392309e-07 0)
(0.018283978 -4.3032296e-07 0)
(0.018352437 4.0848665e-07 0)
(0.018289378 -3.8841261e-07 0)
(0.018347303 3.6993718e-07 0)
(0.018294268 -3.5305118e-07 0)
(0.018342638 3.3762303e-07 0)
(0.01829873 -3.2364021e-07 0)
(0.018338361 3.1099693e-07 0)
(0.01830284 -2.9968048e-07 0)
(0.018334402 2.8960562e-07 0)
(0.018306667 -2.8076175e-07 0)
(0.018330691 2.7307936e-07 0)
(0.018310277 -2.6654458e-07 0)
(0.018327167 2.6113823e-07 0)
(0.018313731 -2.5671192e-07 0)
(0.018323763 2.527744e-07 0)
(0.01831711 -2.605724e-07 0)
(0.01832071 2.3943975e-07 0)
(0.019100735 0.0027025995 0)
(0.021014499 -2.3371048e-05 0)
(0.020103496 5.9887001e-06 0)
(0.020765351 1.2585254e-06 0)
(0.020181884 -2.6510181e-06 0)
(0.020727324 2.1194414e-06 0)
(0.020227769 -2.3608265e-06 0)
(0.020697139 2.1382575e-06 0)
(0.020258415 -2.0470415e-06 0)
(0.020669652 1.904558e-06 0)
(0.020284657 -1.7927446e-06 0)
(0.02064524 1.6784814e-06 0)
(0.020307645 -1.5759363e-06 0)
(0.020623721 1.4776396e-06 0)
(0.020327858 -1.3869891e-06 0)
(0.020604773 1.3012212e-06 0)
(0.020345653 -1.2216639e-06 0)
(0.02058808 1.1466653e-06 0)
(0.020361333 -1.0769941e-06 0)
(0.020573364 1.0114357e-06 0)
(0.020375162 -9.5050734e-07 0)
(0.020560375 8.9326368e-07 0)
(0.020387374 -8.4006277e-07 0)
(0.020548896 7.9015803e-07 0)
(0.020398176 -7.4379462e-07 0)
(0.020538733 7.0037989e-07 0)
(0.02040775 -6.6007722e-07 0)
(0.020529713 6.224147e-07 0)
(0.020416258 -5.8749684e-07 0)
(0.020521686 5.5494695e-07 0)
(0.020423842 -5.2482777e-07 0)
(0.020514515 4.96838e-07 0)
(0.020430632 -4.7101147e-07 0)
(0.020508081 4.4710683e-07 0)
(0.020436741 -4.2513867e-07 0)
(0.020502273 4.0491343e-07 0)
(0.020442273 -3.864338e-07 0)
(0.020496995 3.6954443e-07 0)
(0.020447321 -3.5424156e-07 0)
(0.020492157 3.4040045e-07 0)
(0.02045197 -3.2801499e-07 0)
(0.020487677 3.1698463e-07 0)
(0.0204563 -3.0730386e-07 0)
(0.02048348 2.9889028e-07 0)
(0.020460384 -2.9173261e-07 0)
(0.020479493 2.8580866e-07 0)
(0.020464291 -2.8092989e-07 0)
(0.020475642 2.7658192e-07 0)
(0.02046811 -2.8604902e-07 0)
(0.02047215 2.6130137e-07 0)
(0.021085059 0.0028873453 0)
(0.02312265 -2.9298912e-05 0)
(0.02215153 7.0221209e-06 0)
(0.022883581 1.2240416e-06 0)
(0.022233477 -2.8373679e-06 0)
(0.022840919 2.2295435e-06 0)
(0.022284129 -2.5475492e-06 0)
(0.022807203 2.2983585e-06 0)
(0.02231818 -2.2050512e-06 0)
(0.022776539 2.0497632e-06 0)
(0.022347416 -1.930183e-06 0)
(0.022749323 1.8068057e-06 0)
(0.022373037 -1.696597e-06 0)
(0.022725338 1.5906736e-06 0)
(0.022395565 -1.493155e-06 0)
(0.022704216 1.4007736e-06 0)
(0.022415399 -1.3151689e-06 0)
(0.02268561 1.2343976e-06 0)
(0.022432875 -1.1594243e-06 0)
(0.022669207 1.0888241e-06 0)
(0.022448289 -1.0232557e-06 0)
(0.02265473 9.6161244e-07 0)
(0.022461901 -9.0435778e-07 0)
(0.022641935 8.5061946e-07 0)
(0.022473941 -8.0072167e-07 0)
(0.022630606 7.539734e-07 0)
(0.022484612 -7.1059717e-07 0)
(0.022620553 6.7004392e-07 0)
(0.022494094 -6.3246227e-07 0)
(0.022611606 5.9741491e-07 0)
(0.022502548 -5.6499738e-07 0)
(0.022603614 5.3486064e-07 0)
(0.022510116 -5.0706286e-07 0)
(0.022596441 4.8132502e-07 0)
(0.022516925 -4.5767976e-07 0)
(0.022589968 4.3590372e-07 0)
(0.022523091 -4.1601299e-07 0)
(0.022584085 3.9782859e-07 0)
(0.022528717 -3.8135681e-07 0)
(0.022578693 3.6645406e-07 0)
(0.022533899 -3.5312184e-07 0)
(0.0225737 3.4124439e-07 0)
(0.022538725 -3.3082203e-07 0)
(0.022569021 3.2175954e-07 0)
(0.022543277 -3.1404874e-07 0)
(0.022564578 3.0766439e-07 0)
(0.022547632 -3.0237505e-07 0)
(0.022560286 2.9765983e-07 0)
(0.022551885 -3.0878502e-07 0)
(0.022556356 2.8044032e-07 0)
(0.023020714 0.0030468946 0)
(0.025158254 -3.5574689e-05 0)
(0.024134071 7.9764259e-06 0)
(0.024933327 1.170965e-06 0)
(0.024218589 -2.9968772e-06 0)
(0.024886841 2.3107047e-06 0)
(0.024273712 -2.7123477e-06 0)
(0.024849646 2.437392e-06 0)
(0.024311096 -2.3433222e-06 0)
(0.024815847 2.1763962e-06 0)
(0.024343278 -2.0502193e-06 0)
(0.02478587 1.918798e-06 0)
(0.024371489 -1.8019427e-06 0)
(0.024759454 1.6893374e-06 0)
(0.024396297 -1.5858389e-06 0)
(0.024736194 1.4876731e-06 0)
(0.024418138 -1.3967984e-06 0)
(0.024715704 1.3109806e-06 0)
(0.024437383 -1.2313852e-06 0)
(0.02469764 1.1563785e-06 0)
(0.024454357 -1.0867645e-06 0)
(0.024681697 1.0212766e-06 0)
(0.024469347 -9.6048703e-07 0)
(0.024667606 9.033991e-07 0)
(0.024482605 -8.50419e-07 0)
(0.024655131 8.0075837e-07 0)
(0.024494356 -7.5470146e-07 0)
(0.02464406 7.1162299e-07 0)
(0.024504799 -6.7171788e-07 0)
(0.024634207 6.3448905e-07 0)
(0.024514108 -6.0006668e-07 0)
(0.024625405 5.6805478e-07 0)
(0.024522442 -5.3853742e-07 0)
(0.024617507 5.1119859e-07 0)
(0.02452994 -4.8609028e-07 0)
(0.024610378 4.6295995e-07 0)
(0.02453673 -4.418382e-07 0)
(0.0246039 4.2252291e-07 0)
(0.024542926 -4.0503133e-07 0)
(0.024597961 3.8920143e-07 0)
(0.024548633 -3.7504308e-07 0)
(0.024592463 3.6242563e-07 0)
(0.024553947 -3.513558e-07 0)
(0.024587311 3.4172573e-07 0)
(0.024558959 -3.3353083e-07 0)
(0.024582418 3.2674272e-07 0)
(0.024563755 -3.2108529e-07 0)
(0.024577692 3.1604677e-07 0)
(0.024568435 -3.28786e-07 0)
(0.024573326 2.9691569e-07 0)
(0.024908279 0.0031820004 0)
(0.027122327 -4.209339e-05 0)
(0.026050939 8.8305434e-06 0)
(0.026914461 1.1050512e-06 0)
(0.026137338 -3.134888e-06 0)
(0.026865022 2.3650174e-06 0)
(0.026196585 -2.8555515e-06 0)
(0.026824403 2.555844e-06 0)
(0.026237222 -2.4621512e-06 0)
(0.02678752 2.2847887e-06 0)
(0.026272293 -2.1531422e-06 0)
(0.026754831 2.0147391e-06 0)
(0.026303047 -1.8922321e-06 0)
(0.026726029 1.7738762e-06 0)
(0.026330094 -1.6652693e-06 0)
(0.026700669 1.5621355e-06 0)
(0.026353905 -1.4667538e-06 0)
(0.026678329 1.3766042e-06 0)
(0.026374887 -1.2930545e-06 0)
(0.026658634 1.2142664e-06 0)
(0.026393392 -1.1411906e-06 0)
(0.026641251 1.072404e-06 0)
(0.026409735 -1.0085891e-06 0)
(0.026625889 9.4862774e-07 0)
(0.02642419 -8.9300929e-07 0)
(0.026612287 8.4085068e-07 0)
(0.026437002 -7.9249897e-07 0)
(0.026600217 7.4725483e-07 0)
(0.026448386 -7.0536055e-07 0)
(0.026589474 6.6626106e-07 0)
(0.026458536 -6.3012219e-07 0)
(0.026579878 5.9650247e-07 0)
(0.026467622 -5.6551277e-07 0)
(0.026571267 5.3680132e-07 0)
(0.026475797 -5.1044028e-07 0)
(0.026563495 4.8614893e-07 0)
(0.0264832 -4.6397306e-07 0)
(0.026556432 4.436883e-07 0)
(0.026489955 -4.2532343e-07 0)
(0.026549957 4.0869867e-07 0)
(0.026496177 -3.9383273e-07 0)
(0.026543963 3.8058063e-07 0)
(0.026501971 -3.6895586e-07 0)
(0.026538346 3.5883833e-07 0)
(0.026507435 -3.5022731e-07 0)
(0.026533011 3.4309131e-07 0)
(0.026512663 -3.3710871e-07 0)
(0.02652786 3.3179109e-07 0)
(0.026517761 -3.460722e-07 0)
(0.026523062 3.1079765e-07 0)
(0.026748213 0.0032934077 0)
(0.029015953 -4.8753806e-05 0)
(0.027901824 9.5786169e-06 0)
(0.028826989 1.0310751e-06 0)
(0.027989816 -3.2565176e-06 0)
(0.028775406 2.3948381e-06 0)
(0.028052809 -2.9775006e-06 0)
(0.028731416 2.6542378e-06 0)
(0.028096612 -2.5618801e-06 0)
(0.028691507 2.375315e-06 0)
(0.028134509 -2.2392813e-06 0)
(0.028656161 2.0949481e-06 0)
(0.028167753 -1.9677597e-06 0)
(0.028625023 1.8445692e-06 0)
(0.028196992 -1.7317062e-06 0)
(0.028597606 1.6244062e-06 0)
(0.028222733 -1.5252643e-06 0)
(0.028573454 1.4314845e-06 0)
(0.028245415 -1.3446343e-06 0)
(0.028552162 1.2626783e-06 0)
(0.02826542 -1.1867122e-06 0)
(0.02853337 1.1151627e-06 0)
(0.028283087 -1.0488216e-06 0)
(0.028516762 9.8645401e-07 0)
(0.028298714 -9.2863209e-07 0)
(0.028502058 8.7438201e-07 0)
(0.028312564 -8.241135e-07 0)
(0.028489009 7.770564e-07 0)
(0.028324871 -7.3350044e-07 0)
(0.028477395 6.9283516e-07 0)
(0.028335844 -6.5526228e-07 0)
(0.028467021 6.2029695e-07 0)
(0.028345666 -5.8807713e-07 0)
(0.028457712 5.5821704e-07 0)
(0.028354504 -5.3080933e-07 0)
(0.02844931 5.0554649e-07 0)
(0.028362507 -4.8248987e-07 0)
(0.028441674 4.6139394e-07 0)
(0.02836981 -4.4229933e-07 0)
(0.028434674 4.2500945e-07 0)
(0.028376536 -4.0955211e-07 0)
(0.028428194 3.9576871e-07 0)
(0.028382799 -3.8367974e-07 0)
(0.028422122 3.7315341e-07 0)
(0.028388706 -3.6419309e-07 0)
(0.028416355 3.567642e-07 0)
(0.028394358 -3.5049968e-07 0)
(0.028410787 3.4494699e-07 0)
(0.028399866 -3.606743e-07 0)
(0.028405563 3.2216332e-07 0)
(0.028540736 0.0033818531 0)
(0.030840172 -5.5456368e-05 0)
(0.02968641 1.0235221e-05 0)
(0.030670968 9.4954744e-07 0)
(0.029776091 -3.3669679e-06 0)
(0.030617943 2.4024526e-06 0)
(0.029842436 -3.078553e-06 0)
(0.030570634 2.733124e-06 0)
(0.029889315 -2.6428887e-06 0)
(0.030527762 2.4483863e-06 0)
(0.029929971 -2.3090008e-06 0)
(0.03048982 2.1597765e-06 0)
(0.029965646 -2.0288504e-06 0)
(0.0304564 1.9017237e-06 0)
(0.029997024 -1.7854365e-06 0)
(0.030426974 1.6747553e-06 0)
(0.030024649 -1.5725826e-06 0)
(0.030401053 1.4758597e-06 0)
(0.030048992 -1.3863474e-06 0)
(0.030378201 1.3018241e-06 0)
(0.030070462 -1.2235261e-06 0)
(0.030358033 1.1497383e-06 0)
(0.030089423 -1.0813584e-06 0)
(0.030340209 1.0170418e-06 0)
(0.030106194 -9.5744129e-07 0)
(0.030324427 9.0149754e-07 0)
(0.030121058 -8.4968158e-07 0)
(0.030310422 8.0115664e-07 0)
(0.030134267 -7.5625901e-07 0)
(0.030297958 7.1432624e-07 0)
(0.030146042 -6.755954e-07 0)
(0.030286824 6.3954098e-07 0)
(0.030156584 -6.0632778e-07 0)
(0.030276833 5.7553816e-07 0)
(0.030166069 -5.4728515e-07 0)
(0.030267815 5.2123624e-07 0)
(0.030174658 -4.9746829e-07 0)
(0.03025962 4.7571605e-07 0)
(0.030182496 -4.5603202e-07 0)
(0.030252108 4.3820394e-07 0)
(0.030189715 -4.2226876e-07 0)
(0.030245152 4.0805519e-07 0)
(0.030196437 -3.9559076e-07 0)
(0.030238636 3.8473269e-07 0)
(0.030202776 -3.7548856e-07 0)
(0.030232447 3.6782075e-07 0)
(0.030208842 -3.6131781e-07 0)
(0.030226472 3.555736e-07 0)
(0.030214749 -3.7263196e-07 0)
(0.030220829 3.3109506e-07 0)
(0.03028578 0.0034480611 0)
(0.032595675 -6.2055795e-05 0)
(0.031404691 1.0791907e-05 0)
(0.032446444 8.5607642e-07 0)
(0.031496215 -3.471488e-06 0)
(0.032392587 2.3899874e-06 0)
(0.031565518 -3.1591333e-06 0)
(0.032342009 2.7930575e-06 0)
(0.031615376 -2.7056011e-06 0)
(0.032296244 2.5044462e-06 0)
(0.031658716 -2.3626986e-06 0)
(0.032255772 2.2096064e-06 0)
(0.031696758 -2.0758586e-06 0)
(0.032220128 1.9456745e-06 0)
(0.03173022 -1.8267725e-06 0)
(0.032188745 1.7134774e-06 0)
(0.031759682 -1.6089841e-06 0)
(0.032161101 1.5099889e-06 0)
(0.031785641 -1.4184366e-06 0)
(0.03213673 1.3319324e-06 0)
(0.031808538 -1.2518465e-06 0)
(0.032115221 1.1763323e-06 0)
(0.031828759 -1.1063888e-06 0)
(0.032096212 1.0405695e-06 0)
(0.031846644 -9.7960451e-07 0)
(0.032079381 9.2235534e-07 0)
(0.031862497 -8.6935192e-07 0)
(0.032064445 8.1969593e-07 0)
(0.031876583 -7.7376856e-07 0)
(0.032051152 7.3085938e-07 0)
(0.031889142 -6.9123966e-07 0)
(0.032039278 6.5434646e-07 0)
(0.031900384 -6.2037064e-07 0)
(0.032028622 5.8886527e-07 0)
(0.0319105 -5.5996328e-07 0)
(0.032019005 5.3330919e-07 0)
(0.03191966 -5.0899508e-07 0)
(0.032010264 4.8673758e-07 0)
(0.031928019 -4.6660093e-07 0)
(0.032002253 4.4835847e-07 0)
(0.031935718 -4.3205619e-07 0)
(0.031994835 4.1751116e-07 0)
(0.031942887 -4.0475782e-07 0)
(0.031987885 3.9364328e-07 0)
(0.031949647 -3.8417937e-07 0)
(0.031981285 3.7632548e-07 0)
(0.031956116 -3.6962769e-07 0)
(0.031974915 3.6373474e-07 0)
(0.031962412 -3.8199314e-07 0)
(0.03196886 3.3767957e-07 0)
(0.031982964 0.0034927229 0)
(0.034282074 -6.8263761e-05 0)
(0.033057638 1.1087924e-05 0)
(0.034153417 7.3306098e-07 0)
(0.033150213 -3.5750769e-06 0)
(0.034099285 2.3600499e-06 0)
(0.033222095 -3.2194827e-06 0)
(0.034045496 2.8346809e-06 0)
(0.033274835 -2.7504607e-06 0)
(0.033996913 2.5439757e-06 0)
(0.033320779 -2.4008023e-06 0)
(0.033953982 2.2448492e-06 0)
(0.033361122 -2.1091654e-06 0)
(0.033916178 1.9767817e-06 0)
(0.033396609 -1.8560507e-06 0)
(0.033882894 1.7408891e-06 0)
(0.033427853 -1.6347652e-06 0)
(0.033853576 1.5341512e-06 0)
(0.033455384 -1.4411632e-06 0)
(0.033827729 1.3532492e-06 0)
(0.033479667 -1.2719041e-06 0)
(0.033804917 1.195162e-06 0)
(0.033501112 -1.1241166e-06 0)
(0.033784756 1.0572292e-06 0)
(0.03352008 -9.9530212e-07 0)
(0.033766906 9.3712549e-07 0)
(0.033536892 -8.8328453e-07 0)
(0.033751065 8.3282534e-07 0)
(0.033551832 -7.8617144e-07 0)
(0.033736967 7.4256916e-07 0)
(0.033565151 -7.0232216e-07 0)
(0.033724374 6.6483378e-07 0)
(0.033577074 -6.3031968e-07 0)
(0.033713072 5.9830661e-07 0)
(0.033587803 -5.689465e-07 0)
(0.033702873 5.4186325e-07 0)
(0.033597518 -5.1716355e-07 0)
(0.033693603 4.9454781e-07 0)
(0.033606383 -4.7409154e-07 0)
(0.033685106 4.555552e-07 0)
(0.033614548 -4.3899348e-07 0)
(0.033677239 4.2421305e-07 0)
(0.033622151 -4.1125501e-07 0)
(0.033669868 3.9995734e-07 0)
(0.033629321 -3.9033605e-07 0)
(0.033662868 3.823477e-07 0)
(0.033636181 -3.7549853e-07 0)
(0.033656113 3.6949867e-07 0)
(0.033642855 -3.8881345e-07 0)
(0.033649657 3.4200701e-07 0)
(0.03363181 0.0035166231 0)
(0.035896129 -7.3980736e-05 0)
(0.034648358 1.1087901e-05 0)
(0.035792281 5.8100345e-07 0)
(0.034738122 -3.6825759e-06 0)
(0.035737988 2.314065e-06 0)
(0.034812202 -3.2602027e-06 0)
(0.035681053 2.8585365e-06 0)
(0.034867726 -2.7779834e-06 0)
(0.035629736 2.5674707e-06 0)
(0.034916194 -2.4237724e-06 0)
(0.035584421 2.2659405e-06 0)
(0.034958764 -2.1291772e-06 0)
(0.035544524 1.9954279e-06 0)
(0.034996213 -1.873629e-06 0)
(0.035509398 1.7573272e-06 0)
(0.035029186 -1.6502413e-06 0)
(0.035478457 1.548643e-06 0)
(0.035058239 -1.4548053e-06 0)
(0.035451179 1.3660359e-06 0)
(0.035083865 -1.2839442e-06 0)
(0.035427105 1.2064583e-06 0)
(0.035106496 -1.1347586e-06 0)
(0.035405828 1.0672249e-06 0)
(0.035126514 -1.004726e-06 0)
(0.03538699 9.4598887e-07 0)
(0.035144256 -8.9164967e-07 0)
(0.035370273 8.4070552e-07 0)
(0.035160022 -7.9361913e-07 0)
(0.035355395 7.4959874e-07 0)
(0.035174078 -7.0897813e-07 0)
(0.035342104 6.71131e-07 0)
(0.035186661 -6.3629618e-07 0)
(0.035330178 6.0397732e-07 0)
(0.035197983 -5.7434417e-07 0)
(0.035319413 5.4700259e-07 0)
(0.035208236 -5.2207302e-07 0)
(0.03530963 4.9924171e-07 0)
(0.035217592 -4.7859478e-07 0)
(0.035300663 4.598815e-07 0)
(0.035226209 -4.4316479e-07 0)
(0.03529236 4.282422e-07 0)
(0.035234233 -4.1516115e-07 0)
(0.035284582 4.0375161e-07 0)
(0.0352418 -3.9403361e-07 0)
(0.035277194 3.8596107e-07 0)
(0.035249039 -3.7900375e-07 0)
(0.035270067 3.7293766e-07 0)
(0.035256079 -3.9315536e-07 0)
(0.03526322 3.4417017e-07 0)
(0.035231521 0.003520545 0)
(0.037433737 -7.9774513e-05 0)
(0.036180195 1.1257732e-05 0)
(0.037364181 5.40482e-07 0)
(0.036260103 -3.7743633e-06 0)
(0.03730872 2.2585037e-06 0)
(0.036335892 -3.2807167e-06 0)
(0.037248652 2.8654887e-06 0)
(0.036394086 -2.7886291e-06 0)
(0.037194682 2.5754804e-06 0)
(0.036444989 -2.4320855e-06 0)
(0.037147063 2.2733424e-06 0)
(0.036489711 -2.1363211e-06 0)
(0.037105142 2.0020168e-06 0)
(0.036529056 -1.8798846e-06 0)
(0.037068236 1.7631464e-06 0)
(0.036563698 -1.6557448e-06 0)
(0.037035726 1.5537771e-06 0)
(0.036594223 -1.4596559e-06 0)
(0.037007066 1.3705683e-06 0)
(0.036621147 -1.2882254e-06 0)
(0.036981772 1.2104645e-06 0)
(0.036644924 -1.1385433e-06 0)
(0.036959417 1.0707719e-06 0)
(0.036665956 -1.0080786e-06 0)
(0.036939624 9.4913614e-07 0)
(0.036684597 -8.9462681e-07 0)
(0.03692206 8.4350582e-07 0)
(0.036701162 -7.9627128e-07 0)
(0.036906427 7.5209901e-07 0)
(0.03671593 -7.1135011e-07 0)
(0.036892463 6.7337313e-07 0)
(0.036729151 -6.3842799e-07 0)
(0.036879932 6.0599879e-07 0)
(0.036741047 -5.762716e-07 0)
(0.036868622 5.4883704e-07 0)
(0.036751819 -5.238282e-07 0)
(0.036858343 5.0091939e-07 0)
(0.036761649 -4.8020655e-07 0)
(0.036848921 4.6142951e-07 0)
(0.036770703 -4.4465881e-07 0)
(0.036840197 4.2968434e-07 0)
(0.036779134 -4.1655935e-07 0)
(0.036832024 4.0510699e-07 0)
(0.036787085 -3.9535109e-07 0)
(0.036824262 3.8724319e-07 0)
(0.03679469 -3.8022054e-07 0)
(0.036816775 3.7412758e-07 0)
(0.036802084 -3.9508754e-07 0)
(0.036809548 3.4426366e-07 0)
(0.036780731 0.0035052267 0)
(0.038900544 -8.5246426e-05 0)
(0.037649499 1.1331136e-05 0)
(0.038868729 5.9660535e-07 0)
(0.03771603 -3.8551984e-06 0)
(0.038811409 2.1939583e-06 0)
(0.037793185 -3.2817915e-06 0)
(0.038748256 2.8560815e-06 0)
(0.037853941 -2.7829874e-06 0)
(0.038691724 2.5685444e-06 0)
(0.037907189 -2.4262524e-06 0)
(0.038641882 2.2675336e-06 0)
(0.037953985 -2.1310458e-06 0)
(0.038598011 1.9969698e-06 0)
(0.037995157 -1.8752123e-06 0)
(0.038559388 1.758718e-06 0)
(0.038031408 -1.6516235e-06 0)
(0.038525368 1.5498803e-06 0)
(0.038063351 -1.4560217e-06 0)
(0.038495375 1.3671347e-06 0)
(0.038091526 -1.2850183e-06 0)
(0.038468905 1.2074351e-06 0)
(0.038116408 -1.1357099e-06 0)
(0.038445511 1.0680953e-06 0)
(0.038138417 -1.0055713e-06 0)
(0.038424798 9.4676672e-07 0)
(0.038157924 -8.9240371e-07 0)
(0.038406417 8.4140337e-07 0)
(0.038175259 -7.9429495e-07 0)
(0.038390058 7.5022783e-07 0)
(0.038190714 -7.0958726e-07 0)
(0.038375444 6.7170139e-07 0)
(0.038204549 -6.3684887e-07 0)
(0.03836233 6.0449799e-07 0)
(0.038216998 -5.7484942e-07 0)
(0.038350494 5.4748148e-07 0)
(0.038228271 -5.2253864e-07 0)
(0.038339737 4.996856e-07 0)
(0.038238559 -4.790272e-07 0)
(0.038329877 4.6029564e-07 0)
(0.038248034 -4.4356839e-07 0)
(0.038320747 4.2862918e-07 0)
(0.038256857 -4.1553655e-07 0)
(0.038312194 4.0410809e-07 0)
(0.038265177 -3.9437118e-07 0)
(0.038304071 3.8627522e-07 0)
(0.038273136 -3.7922948e-07 0)
(0.038296238 3.731476e-07 0)
(0.038280871 -3.9468419e-07 0)
(0.038288643 3.4238327e-07 0)
(0.038277826 0.0034714409 0)
(0.040305489 -8.9763912e-05 0)
(0.039049408 1.0865476e-05 0)
(0.040305139 6.6932423e-07 0)
(0.039105734 -3.9334282e-06 0)