/*--------------------------------*- C++ -*----------------------------------*\
| =========                 |                                                 |
| \\      /  F ield         | OpenFOAM: The Open Source CFD Toolbox           |
|  \\    /   O peration     | Version:  2312                                  |
|   \\  /    A nd           | Website:  www.openfoam.com                      |
|    \\/     M anipulation  |                                                 |
\*---------------------------------------------------------------------------*/
FoamFile
{
    version     2.0;
    format      ascii;
    arch        "LSB;label=32;scalar=64";
    class       surfaceScalarField;
    location    "3";
    object      phi_0;
}
// * * * * * * * * * * * * * * * * * * * * * * * * * * * * * * * * * * * * * //

dimensions      [0 3 -1 0 0 0 0];

oriented        oriented;

internalField   nonuniform List<scalar> 
7870
(
1.3318693e-10
2.8150631e-09
1.3367775e-10
-4.9082607e-13
1.1284254e-10
2.0835212e-11
1.1390941e-10
-1.066876e-12
1.1435978e-10
-4.5036908e-13
1.1287262e-10
1.4871616e-12
1.1380454e-10
-9.3191804e-13
1.1264833e-10
1.1562033e-12
1.136966e-10
-1.0482638e-12
1.1266779e-10
1.0288075e-12
1.1363513e-10
-9.6733343e-13
1.1271212e-10
9.230051e-13
1.1358167e-10
-8.6955316e-13
1.12757e-10
8.2467756e-13
1.1353523e-10
-7.7823437e-13
1.1279849e-10
7.3674238e-13
1.1349476e-10
-6.9627353e-13
1.1283573e-10
6.5903375e-13
1.1345926e-10
-6.2352737e-13
1.1286878e-10
5.9047591e-13
1.1342803e-10
-5.5924546e-13
1.1289796e-10
5.3006893e-13
1.1340057e-10
-5.0261086e-13
1.1292363e-10
4.7694677e-13
1.1337648e-10
-4.5285046e-13
1.1294613e-10
4.3034798e-13
1.1335539e-10
-4.0925972e-13
1.1296579e-10
3.8959754e-13
1.13337e-10
-3.7120819e-13
1.129829e-10
3.5409985e-13
1.1332104e-10
-3.3813856e-13
1.1299771e-10
3.2333213e-13
1.1330727e-10
-3.0956315e-13
1.1301043e-10
2.9683936e-13
1.1329549e-10
-2.8505876e-13
1.1302126e-10
2.74229e-13
1.1328552e-10
-2.6426214e-13
1.1303036e-10
2.5516537e-13
1.1327722e-10
-2.4686453e-13
1.1303786e-10
2.3936535e-13
1.1327046e-10
-2.3260763e-13
1.1304387e-10
2.2659484e-13
1.1326514e-10
-2.2127488e-13
1.1304847e-10
2.1667905e-13
1.1326114e-10
-2.1267801e-13
1.1305174e-10
2.0939958e-13
1.1325903e-10
-2.0728825e-13
1.130568e-10
2.0223343e-13
1.1326854e-10
-2.1174429e-13
1.9543393e-13
3.5542414e-10
5.4078889e-09
3.81359e-10
-2.6425708e-11
3.3011966e-10
7.2074564e-11
3.3069695e-10
-1.644179e-12
3.3097251e-10
-7.2592213e-13
3.2856618e-10
3.8934846e-12
3.2949028e-10
-1.8560122e-12
3.2780836e-10
2.8381154e-12
3.2926726e-10
-2.5071596e-12
3.277903e-10
2.5057662e-12
3.2917687e-10
-2.3538992e-12
3.2784369e-10
2.2561823e-12
3.2909673e-10
-2.1225876e-12
3.2790487e-10
2.0165431e-12
3.2902794e-10
-1.901308e-12
3.2796364e-10
1.8010482e-12
3.2896889e-10
-1.7015236e-12
3.2801708e-10
1.6108387e-12
3.2891745e-10
-1.5238922e-12
3.2806474e-10
1.4431901e-12
3.2887234e-10
-1.3668487e-12
3.2810687e-10
1.2955447e-12
3.2883273e-10
-1.2284713e-12
3.2814394e-10
1.1657348e-12
3.2879798e-10
-1.1068892e-12
3.2817645e-10
1.0518781e-12
3.2876757e-10
-1.000383e-12
3.2820486e-10
9.5231518e-13
3.2874106e-10
-9.0741089e-13
3.2822957e-10
8.6558613e-13
3.2871804e-10
-8.2660955e-13
3.2825096e-10
7.9041153e-13
3.2869819e-10
-7.5678656e-13
3.2826935e-10
7.2567854e-13
3.286812e-10
-6.96907e-13
3.28285e-10
6.7042774e-13
3.2866682e-10
-6.4608313e-13
3.2829815e-10
6.2383851e-13
3.2865484e-10
-6.0356016e-13
3.2830899e-10
5.8521834e-13
3.2864509e-10
-5.6870646e-13
3.2831769e-10
5.5399377e-13
3.286374e-10
-5.4098879e-13
3.2832433e-10
5.2975141e-13
3.2863154e-10
-5.1989054e-13
3.2832892e-10
5.1202232e-13
3.2862837e-10
-5.0673451e-13
3.2833764e-10
4.9296261e-13
3.2865196e-10
-5.2606579e-13
4.7704159e-13
5.5942374e-10
7.7967152e-09
6.1577852e-10
-8.2780502e-11
5.4127131e-10
1.4658178e-10
5.420827e-10
-2.4555791e-12
5.4162482e-10
-2.6803711e-13
5.3898521e-10
6.5330855e-12
5.3931015e-10
-2.1809499e-12
5.377225e-10
4.425766e-12
5.3903137e-10
-3.8160241e-12
5.3765004e-10
3.8870906e-12
5.3894802e-10
-3.6518704e-12
5.3768701e-10
3.517184e-12
5.3886878e-10
-3.3043502e-12
5.3774016e-10
3.145164e-12
5.3880149e-10
-2.9626414e-12
5.3779427e-10
2.8082778e-12
5.3874484e-10
-2.6520952e-12
5.3784439e-10
2.5112892e-12
5.3869597e-10
-2.3754709e-12
5.3788936e-10
2.2498056e-12
5.3865329e-10
-2.130779e-12
5.3792919e-10
2.0196438e-12
5.3861586e-10
-1.9151444e-12
5.3796426e-10
1.8173355e-12
5.3858305e-10
-1.7256807e-12
5.3799502e-10
1.6399111e-12
5.3855435e-10
-1.5597115e-12
5.380219e-10
1.4847667e-12
5.3852932e-10
-1.4148322e-12
5.3804529e-10
1.3496207e-12
5.3850759e-10
-1.2889153e-12
5.3806553e-10
1.2324755e-12
5.3848885e-10
-1.1801014e-12
5.3808293e-10
1.1315951e-12
5.384728e-10
-1.0867765e-12
5.3809774e-10
1.0454846e-12
5.3845922e-10
-1.0075568e-12
5.3811019e-10
9.7286353e-13
5.384479e-10
-9.4126507e-13
5.3812046e-10
9.1265167e-13
5.3843867e-10
-8.8691572e-13
5.3812872e-10
8.6395187e-13
5.384314e-10
-8.4366912e-13
5.3813501e-10
8.2614096e-13
5.3842574e-10
-8.1062406e-13
5.3813919e-10
7.9856824e-13
5.3842265e-10
-7.9019012e-13
5.3814964e-10
7.6597398e-13
5.3845838e-10
-8.3480418e-13
7.4293421e-13
7.7010622e-10
9.974859e-09
8.4063046e-10
-1.5330476e-10
7.4641931e-10
2.4079294e-10
7.4770655e-10
-3.7428328e-12
7.4666127e-10
7.7724817e-13
7.4378336e-10
9.4109864e-12
7.4357622e-10
-1.9738113e-12
7.421e-10
5.9019834e-12
7.4326588e-10
-4.981898e-12
7.4198734e-10
5.1656287e-12
7.4319526e-10
-4.8597814e-12
7.4201043e-10
4.7020143e-12
7.4311794e-10
-4.4118617e-12
7.42056e-10
4.2071032e-12
7.4305255e-10
-3.9591876e-12
7.4210543e-10
3.7554e-12
7.4299852e-10
-3.5451872e-12
7.421521e-10
3.357714e-12
7.4295238e-10
-3.1757482e-12
7.4219423e-10
3.0079551e-12
7.4291224e-10
-2.8487872e-12
7.4223163e-10
2.7002564e-12
7.428771e-10
-2.5606165e-12
7.4226458e-10
2.4298597e-12
7.4284631e-10
-2.3074167e-12
7.4229348e-10
2.1927471e-12
7.4281938e-10
-2.0856148e-12
7.4231873e-10
1.9854164e-12
7.427959e-10
-1.8919956e-12
7.4234071e-10
1.8048093e-12
7.4277551e-10
-1.723713e-12
7.4235973e-10
1.6482524e-12
7.4275791e-10
-1.5782806e-12
7.4237608e-10
1.5134235e-12
7.4274285e-10
-1.4535397e-12
7.4239001e-10
1.3983242e-12
7.4273009e-10
-1.3476405e-12
7.4240171e-10
1.301242e-12
7.4271945e-10
-1.2590081e-12
7.4241138e-10
1.2207307e-12
7.4271078e-10
-1.1863227e-12
7.4241915e-10
1.1555853e-12
7.4270393e-10
-1.12845e-12
7.4242508e-10
1.1049964e-12
7.426985e-10
-1.0840474e-12
7.4242885e-10
1.0682213e-12
7.4269532e-10
-1.0566672e-12
7.4244024e-10
1.021061e-12
7.4274033e-10
-1.1349013e-12
9.9287093e-13
9.4968504e-10
1.1973424e-08
1.0528852e-09
-2.5650499e-10
9.4564484e-10
3.4803336e-10
9.4769237e-10
-5.7903763e-12
9.4605353e-10
2.4160958e-12
9.4294449e-10
1.2520012e-11
9.4228401e-10
-1.3133304e-12
9.4094096e-10
7.2450359e-12
9.419705e-10
-6.011436e-12
9.4080186e-10
6.3342663e-12
9.419183e-10
-5.97621e-12
9.408135e-10
5.806811e-12
9.4184395e-10
-5.4423074e-12
9.4085198e-10
5.1990735e-12
9.4178088e-10
-4.8880922e-12
9.4089674e-10
4.6395475e-12
9.4172974e-10
-4.3781887e-12
9.4093986e-10
4.1475988e-12
9.416865e-10
-3.922385e-12
9.4097904e-10
3.7154153e-12
9.4164904e-10
-3.5187845e-12
9.4101389e-10
3.3354035e-12
9.4161629e-10
-3.1630192e-12
9.4104462e-10
3.0015366e-12
9.4158762e-10
-2.8504205e-12
9.4107157e-10
2.7087957e-12
9.4156254e-10
-2.5765835e-12
9.4109513e-10
2.4528295e-12
9.4154067e-10
-2.3375377e-12
9.4111563e-10
2.2298537e-12
9.4152168e-10
-2.1297663e-12
9.4113337e-10
2.0365626e-12
9.4150529e-10
-1.9501984e-12
9.4114863e-10
1.8700871e-12
9.4149125e-10
-1.7961671e-12
9.4116162e-10
1.7279603e-12
9.4147937e-10
-1.6653883e-12
9.4117254e-10
1.6080649e-12
9.4146945e-10
-1.5559148e-12
9.4118157e-10
1.5086126e-12
9.4146136e-10
-1.4661141e-12
9.4118884e-10
1.4281071e-12
9.4145496e-10
-1.3945698e-12
9.4119438e-10
1.3655728e-12
9.4144978e-10
-1.3394475e-12
9.4119773e-10
1.3202738e-12
9.4144646e-10
-1.3053944e-12
9.4120956e-10
1.2579594e-12
9.4149838e-10
-1.4237253e-12
1.2250045e-12
1.1405576e-09
1.3781116e-08
1.2566025e-09
-3.7254983e-10
1.1389174e-09
4.6571844e-10
1.1420256e-09
-8.8985806e-12
1.1397838e-09
4.6578709e-12
1.1364672e-09
1.5836597e-11
1.1354335e-09
-2.7960699e-13
1.1342473e-09
8.4312438e-12
1.1351465e-09
-6.9106243e-12
1.1340937e-09
7.3870779e-12
1.1351177e-09
-7.0002508e-12
1.134096e-09
6.8284877e-12
1.1350472e-09
-6.3934778e-12
1.1341279e-09
6.1184295e-12
1.1349869e-09
-5.7470806e-12
1.134168e-09
5.4584276e-12
1.1349388e-09
-5.1490185e-12
1.1342075e-09
4.8789411e-12
1.1348986e-09
-4.6135165e-12
1.1342436e-09
4.3704165e-12
1.1348639e-09
-4.1391037e-12
1.1342758e-09
3.9235085e-12
1.1348337e-09
-3.7208585e-12
1.1343042e-09
3.5309535e-12
1.1348072e-09
-3.3533493e-12
1.1343292e-09
3.1867845e-12
1.134784e-09
-3.0314062e-12
1.134351e-09
2.8858568e-12
1.1347638e-09
-2.7503618e-12
1.1343699e-09
2.6237111e-12
1.1347463e-09
-2.5060788e-12
1.1343864e-09
2.3964569e-12
1.1347311e-09
-2.2949463e-12
1.1344005e-09
2.2007185e-12
1.1347181e-09
-2.1138269e-12
1.1344125e-09
2.033596e-12
1.1347072e-09
-1.9600344e-12
1.1344226e-09
1.8925973e-12
1.134698e-09
-1.8312774e-12
1.134431e-09
1.7756159e-12
1.1346905e-09
-1.7256313e-12
1.1344377e-09
1.6808816e-12
1.1346846e-09
-1.6414134e-12
1.1344429e-09
1.6072702e-12
1.1346797e-09
-1.5762552e-12
1.1344458e-09
1.554158e-12
1.1346762e-09
-1.5357811e-12
1.1344577e-09
1.4764782e-12
1.1347329e-09
-1.6989948e-12
1.43777e-12
1.3094469e-09
1.5419919e-08
1.4475509e-09
-5.1065379e-10
1.3264729e-09
5.8679638e-10
1.3306888e-09
-1.3114437e-11
1.327793e-09
7.5536534e-12
1.3243461e-09
1.9283544e-11
1.3230189e-09
1.047541e-12
1.3220179e-09
9.4322621e-12
1.3227938e-09
-7.686546e-12
1.3218622e-09
8.3187143e-12
1.3227938e-09
-7.9319032e-12
1.3218577e-09
7.7646424e-12
1.3227281e-09
-7.2638897e-12
1.3218833e-09
6.9631823e-12
1.3226708e-09
-6.5345182e-12
1.3219189e-09
6.2103494e-12
1.322626e-09
-5.8561633e-12
1.3219547e-09
5.5502743e-12
1.3225889e-09
-5.2477814e-12
1.3219877e-09
4.9716639e-12
1.3225571e-09
-4.7085238e-12
1.3220172e-09
4.4634152e-12
1.3225294e-09
-4.2330369e-12
1.3220433e-09
4.0170708e-12
1.3225051e-09
-3.8152128e-12
1.3220661e-09
3.6257745e-12
1.3224839e-09
-3.4491859e-12
1.3220861e-09
3.2836455e-12
1.3224654e-09
-3.1296525e-12
1.3221035e-09
2.985605e-12
1.3224494e-09
-2.8519065e-12
1.3221186e-09
2.7272249e-12
1.3224355e-09
-2.6118425e-12
1.3221315e-09
2.5046652e-12
1.3224236e-09
-2.4058917e-12
1.3221426e-09
2.31463e-12
1.3224135e-09
-2.2309995e-12
1.3221519e-09
2.1542818e-12
1.3224051e-09
-2.0845574e-12
1.3221595e-09
2.0212216e-12
1.3223983e-09
-1.9643718e-12
1.3221657e-09
1.9134232e-12
1.3223928e-09
-1.8685106e-12
1.3221705e-09
1.82963e-12
1.3223883e-09
-1.7940389e-12
1.322173e-09
1.7694365e-12
1.3223846e-09
-1.7473965e-12
1.3221846e-09
1.6764975e-12
1.3224443e-09
-1.9587639e-12
1.6302239e-12
1.4802249e-09
1.6887945e-08
1.6304271e-09
-6.6085606e-10
1.5081527e-09
7.0907079e-10
1.5134563e-09
-1.8418044e-11
1.5101342e-09
1.0875763e-11
1.5066082e-09
2.2809515e-11
1.505053e-09
2.6028178e-12
1.5042585e-09
1.022671e-11
1.5049155e-09
-8.3435155e-12
1.504108e-09
9.1261718e-12
1.5049474e-09
-8.7712513e-12
1.5040982e-09
8.613781e-12
1.5048869e-09
-8.0525788e-12
1.5041181e-09
7.731977e-12
1.5048329e-09
-7.2493144e-12
1.5041491e-09
6.8941616e-12
1.5047916e-09
-6.4986071e-12
1.5041812e-09
6.1606052e-12
1.5047577e-09
-5.8242606e-12
1.5042111e-09
5.5182797e-12
1.5047288e-09
-5.2262163e-12
1.5042379e-09
4.9543371e-12
1.5047036e-09
-4.6988051e-12
1.5042615e-09
4.4591777e-12
1.5046817e-09
-4.2353308e-12
1.5042823e-09
4.025119e-12
1.5046624e-09
-3.8293028e-12
1.5043005e-09
3.6456055e-12
1.5046457e-09
-3.4748425e-12
1.5043163e-09
3.3149937e-12
1.5046311e-09
-3.1667283e-12
1.50433e-09
3.0283681e-12
1.5046185e-09
-2.9004066e-12
1.5043417e-09
2.7814666e-12
1.5046077e-09
-2.6719167e-12
1.5043517e-09
2.5706342e-12
1.5045986e-09
-2.4778697e-12
1.5043602e-09
2.3927197e-12
1.504591e-09
-2.3153685e-12
1.5043672e-09
2.2450565e-12
1.5045848e-09
-2.1819735e-12
1.5043728e-09
2.125382e-12
1.5045798e-09
-2.0755218e-12
1.5043771e-09
2.0323205e-12
1.5045756e-09
-1.9924903e-12
1.5043792e-09
1.965789e-12
1.5045718e-09
-1.9399458e-12
1.5043903e-09
1.8579622e-12
1.5046329e-09
-2.2013819e-12
1.8019014e-12
1.6389824e-09
1.8197212e-08
1.800058e-09
-8.2193169e-10
1.6837141e-09
8.2541467e-10
1.6893111e-09
-2.401505e-11
1.6866135e-09
1.3573355e-11
1.6832302e-09
2.6192811e-11
1.6815324e-09
4.3006566e-12
1.6809688e-09
1.079033e-11
1.6815122e-09
-8.8869187e-12
1.680831e-09
9.8073246e-12
1.6815787e-09
-9.5189239e-12
1.6808175e-09
9.3750118e-12
1.681524e-09
-8.7591176e-12
1.680832e-09
8.4239797e-12
1.6814736e-09
-7.8908722e-12
1.6808586e-09
7.5091791e-12
1.6814357e-09
-7.0757712e-12
1.680887e-09
6.7093523e-12
1.6814051e-09
-6.3424218e-12
1.6809137e-09
6.0097508e-12
1.6813792e-09
-5.6916951e-12
1.6809377e-09
5.3958112e-12
1.6813566e-09
-5.1177185e-12
1.6809589e-09
4.856851e-12
1.6813369e-09
-4.613295e-12
1.6809776e-09
4.3844292e-12
1.6813197e-09
-4.17138e-12
1.6809939e-09
3.9713765e-12
1.6813046e-09
-3.7855831e-12
1.6810081e-09
3.6115432e-12
1.6812916e-09
-3.4502202e-12
1.6810204e-09
3.2995754e-12
1.6812803e-09
-3.1603364e-12
1.6810309e-09
3.0308315e-12
1.6812706e-09
-2.9116191e-12
1.6810399e-09
2.8013362e-12
1.6812624e-09
-2.7003796e-12
1.6810475e-09
2.6076541e-12
1.6812556e-09
-2.5234606e-12
1.6810538e-09
2.4468784e-12
1.68125e-09
-2.3782002e-12
1.6810589e-09
2.3165293e-12
1.6812456e-09
-2.2622247e-12
1.6810628e-09
2.2151247e-12
1.6812417e-09
-2.1714122e-12
1.6810645e-09
2.1430014e-12
1.6812378e-09
-2.1132549e-12
1.6810749e-09
2.0208796e-12
1.6812989e-09
-2.4254635e-12
1.9526767e-12
1.78729e-09
1.9358172e-08
1.9633524e-09
-9.9799407e-10
1.8537755e-09
9.3499156e-10
1.8575953e-09
-2.7834828e-11
1.8570506e-09
1.411802e-11
1.854192e-09
2.9051455e-11
1.8524553e-09
6.0373246e-12
1.8521496e-09
1.1096055e-11
1.852585e-09
-9.3223526e-12
1.8520313e-09
1.0361034e-11
1.8526883e-09
-1.0175886e-11
1.8520152e-09
1.0048048e-11
1.8526396e-09
-9.3835191e-12
1.8520248e-09
9.0388455e-12
1.8525929e-09
-8.4590251e-12
1.852047e-09
8.0551388e-12
1.8525587e-09
-7.5874656e-12
1.8520717e-09
7.196304e-12
1.8525314e-09
-6.8020777e-12
1.8520952e-09
6.4458902e-12
1.8525083e-09
-6.1047809e-12
1.8521165e-09
5.7876638e-12
1.8524883e-09
-5.4896059e-12
1.8521353e-09
5.2099262e-12
1.8524709e-09
-4.9489413e-12
1.8521518e-09
4.7035465e-12
1.8524557e-09
-4.4752601e-12
1.8521663e-09
4.2608068e-12
1.8524424e-09
-4.0617227e-12
1.8521788e-09
3.8751066e-12
1.8524308e-09
-3.7022361e-12
1.8521897e-09
3.5407047e-12
1.8524209e-09
-3.391491e-12
1.8521991e-09
3.252623e-12
1.8524123e-09
-3.1248631e-12
1.8522071e-09
3.006603e-12
1.8524051e-09
-2.8983979e-12
1.8522138e-09
2.7989573e-12
1.852399e-09
-2.7087077e-12
1.8522193e-09
2.6265644e-12
1.8523941e-09
-2.5529312e-12
1.8522239e-09
2.4867484e-12
1.8523901e-09
-2.4285052e-12
1.8522273e-09
2.377931e-12
1.8523866e-09
-2.330709e-12
1.8522287e-09
2.300958e-12
1.8523827e-09
-2.2672575e-12
1.8522382e-09
2.1653165e-12
1.8524426e-09
-2.6298658e-12
2.0826852e-12
1.9392171e-09
2.0367205e-08
2.1149094e-09
-1.1736864e-09
2.0177327e-09
1.0321682e-09
2.0198891e-09
-2.9991252e-11
2.0216268e-09
1.2380333e-11
2.0195543e-09
3.1124036e-11
2.0178417e-09
7.7499138e-12
2.017807e-09
1.1130733e-11
2.0181366e-09
-9.6519217e-12
2.0177094e-09
1.078818e-11
2.0182766e-09
-1.0743075e-11
2.0176914e-09
1.0633246e-11
2.018234e-09
-9.9261572e-12
2.0176962e-09
9.5766809e-12
2.0181912e-09
-8.9539896e-12
2.0177142e-09
8.5321593e-12
2.0181605e-09
-8.0338493e-12
2.0177353e-09
7.6215812e-12
2.0181365e-09
-7.203352e-12
2.0177556e-09
6.8268049e-12
2.0181164e-09
-6.4655712e-12
2.0177741e-09
6.1299826e-12
2.018099e-09
-5.8145427e-12
2.0177905e-09
5.5184715e-12
2.0180839e-09
-5.2423266e-12
2.0178049e-09
4.9825226e-12
2.0180706e-09
-4.7409838e-12
2.0178175e-09
4.5139317e-12
2.0180591e-09
-4.3032884e-12
2.0178285e-09
4.105707e-12
2.018049e-09
-3.9227917e-12
2.017838e-09
3.7517682e-12
2.0180404e-09
-3.5938764e-12
2.0178461e-09
3.446844e-12
2.0180329e-09
-3.3116468e-12
2.0178531e-09
3.186431e-12
2.0180266e-09
-3.0719171e-12
2.0178589e-09
2.9666197e-12
2.0180213e-09
-2.8710972e-12
2.0178638e-09
2.7841013e-12
2.018017e-09
-2.7061514e-12
2.0178677e-09
2.6360244e-12
2.0180136e-09
-2.574348e-12
2.0178708e-09
2.520725e-12
2.0180105e-09
-2.4703785e-12
2.0178718e-09
2.4396337e-12
2.0180065e-09
-2.4019841e-12
2.0178804e-09
2.2913995e-12
2.0180642e-09
-2.8136698e-12
2.1922738e-12
2.0710264e-09
2.1244429e-08
2.2590157e-09
-1.3616757e-09
2.1754331e-09
1.1157509e-09
2.1776432e-09
-3.2201362e-11
2.1805171e-09
9.5064376e-12
2.1793616e-09
3.2279503e-11
2.1777038e-09
9.4076929e-12
2.1779436e-09
1.0890913e-11
2.1781674e-09
-9.8757169e-12
2.177865e-09
1.1090572e-11
2.1783438e-09
-1.1221836e-11
2.1778457e-09
1.11313e-11
2.1783074e-09
-1.0387836e-11
2.1778462e-09
1.0037949e-11
2.1782685e-09
-9.376345e-12
2.17786e-09
8.9406932e-12
2.1782415e-09
-8.4153972e-12
2.1778775e-09
7.9856028e-12
2.1782208e-09
-7.5466481e-12
2.1778948e-09
7.152866e-12
2.1782036e-09
-6.7744122e-12
2.1779105e-09
6.4230911e-12
2.1781888e-09
-6.0928272e-12
2.1779245e-09
5.7827666e-12
2.1781759e-09
-5.4937075e-12
2.1779368e-09
5.2215975e-12
2.1781646e-09
-4.968772e-12
2.1779475e-09
4.7309584e-12
2.1781547e-09
-4.5104698e-12
2.1779569e-09
4.3035214e-12
2.1781462e-09
-4.1120496e-12
2.177965e-09
3.932918e-12
2.1781388e-09
-3.7676325e-12
2.177972e-09
3.6136256e-12
2.1781324e-09
-3.4720908e-12
2.1779779e-09
3.3409328e-12
2.1781271e-09
-3.2210412e-12
2.1779829e-09
3.1107397e-12
2.1781226e-09
-3.0107209e-12
2.1779871e-09
2.9195761e-12
2.1781189e-09
-2.8379428e-12
2.1779905e-09
2.764437e-12
2.178116e-09
-2.6998294e-12
2.1779931e-09
2.643581e-12
2.1781132e-09
-2.5905041e-12
2.1779938e-09
2.5590879e-12
2.1781093e-09
-2.5175521e-12
2.1780014e-09
2.3993107e-12
2.1781639e-09
-2.9761628e-12
2.2819588e-12
2.2206759e-09
2.1972003e-08
2.3923742e-09
-1.533374e-09
2.3273342e-09
1.1807908e-09
2.3310895e-09
-3.5956639e-11
2.3337819e-09
6.8141032e-12
2.3336469e-09
3.2414428e-11
2.3320495e-09
1.1005134e-11
2.3325608e-09
1.0379616e-11
2.3326778e-09
-9.9927583e-12
2.3324977e-09
1.1270722e-11
2.3328898e-09
-1.1613921e-11
2.3324779e-09
1.1543151e-11
2.3328599e-09
-1.0769782e-11
2.3324744e-09
1.0423403e-11
2.3328251e-09
-9.727013e-12
2.3324843e-09
9.2814814e-12
2.3328018e-09
-8.7328728e-12
2.3324983e-09
8.2890508e-12
2.3327843e-09
-7.8326216e-12
2.3325125e-09
7.4246811e-12
2.3327699e-09
-7.0318747e-12
2.3325255e-09
6.6675238e-12
2.3327576e-09
-6.3249581e-12
2.3325371e-09
6.0032804e-12
2.3327469e-09
-5.7035209e-12
2.3325474e-09
5.4211828e-12
2.3327376e-09
-5.1590072e-12
2.3325563e-09
4.9122471e-12
2.3327294e-09
-4.683603e-12
2.3325641e-09
4.468867e-12
2.3327223e-09
-4.2703057e-12
2.3325708e-09
4.0844334e-12
2.3327162e-09
-3.9130205e-12
2.3325766e-09
3.7532145e-12
2.332711e-09
-3.606427e-12
2.3325816e-09
3.4703285e-12
2.3327065e-09
-3.3459778e-12
2.3325857e-09
3.2315143e-12
2.3327028e-09
-3.1277656e-12
2.3325892e-09
3.0331678e-12
2.3326997e-09
-2.9484762e-12
2.332592e-09
2.8721513e-12
2.3326973e-09
-2.8051087e-12
2.3325942e-09
2.7466556e-12
2.332695e-09
-2.6912478e-12
2.3325946e-09
2.6594569e-12
2.3326912e-09
-2.6141578e-12
2.3326012e-09
2.4892872e-12
2.3327419e-09
-3.1168221e-12
2.3523894e-12
2.3380391e-09
2.2582214e-08
2.5200262e-09
-1.7153612e-09
2.4736252e-09
1.2271919e-09
2.4793669e-09
-4.1698377e-11
2.4815325e-09
4.6485346e-12
2.4824167e-09
3.1530165e-11
2.4808855e-09
1.2536417e-11
2.4816624e-09
9.6026661e-12
2.4816703e-09
-1.000061e-11
2.4816082e-09
1.133275e-11
2.4819151e-09
-1.1920785e-11
2.4815879e-09
1.1870313e-11
2.4818916e-09
-1.1073416e-11
2.4815808e-09
1.0734145e-11
2.481861e-09
-1.0007177e-11
2.4815869e-09
9.5555419e-12
2.4818414e-09
-8.9872877e-12
2.4815976e-09
8.5328467e-12
2.4818271e-09
-8.0621518e-12
2.4816087e-09
7.64307e-12
2.4818156e-09
-7.2387298e-12
2.4816191e-09
6.8640058e-12
2.4818057e-09
-6.5116145e-12
2.4816284e-09
6.180653e-12
2.4817972e-09
-5.8723656e-12
2.4816365e-09
5.581843e-12
2.4817898e-09
-5.312219e-12
2.4816437e-09
5.0582981e-12
2.4817833e-09
-4.8231569e-12
2.4816499e-09
4.6021868e-12
2.4817776e-09
-4.3979767e-12
2.4816553e-09
4.2067087e-12
2.4817727e-09
-4.0304119e-12
2.48166e-09
3.8659634e-12
2.4817685e-09
-3.7149883e-12
2.4816639e-09
3.5749344e-12
2.481765e-09
-3.4470269e-12
2.4816673e-09
3.3292306e-12
2.481762e-09
-3.222505e-12
2.48167e-09
3.1251391e-12
2.4817596e-09
-3.038004e-12
2.4816723e-09
2.9594122e-12
2.4817576e-09
-2.8904225e-12
2.4816741e-09
2.83018e-12
2.4817557e-09
-2.7728438e-12
2.4816742e-09
2.7409493e-12
2.4817521e-09
-2.6920676e-12
2.4816798e-09
2.5616159e-12
2.4817983e-09
-3.2353e-12
2.4043163e-12
2.4841676e-09
2.3046296e-08
2.6417632e-09
-1.8729568e-09
2.6144441e-09
1.254511e-09
2.6216447e-09
-4.8899043e-11
2.6238335e-09
2.4597901e-12
2.6256608e-09
2.9702858e-11
2.6242104e-09
1.3986812e-11
2.62525e-09
8.5630118e-12
2.6251465e-09
-9.8970349e-12
2.6251975e-09
1.1281675e-11
2.6254204e-09
-1.2143661e-11
2.6251759e-09
1.2114814e-11
2.6254028e-09
-1.1300306e-11
2.6251654e-09
1.0971598e-11
2.6253764e-09
-1.0218244e-11
2.6251678e-09
9.7641418e-12
2.6253604e-09
-9.1798734e-12
2.6251751e-09
8.7181256e-12
2.6253493e-09
-8.2363182e-12
2.6251833e-09
7.809042e-12
2.6253405e-09
-7.3959283e-12
2.6251911e-09
7.0134315e-12
2.6253331e-09
-6.6536365e-12
2.6251981e-09
6.3156768e-12
2.6253267e-09
-6.000986e-12
2.6252043e-09
5.7042821e-12
2.6253211e-09
-5.4290681e-12
2.6252097e-09
5.169736e-12
2.6253163e-09
-4.9297199e-12
2.6252144e-09
4.7040381e-12
2.625312e-09
-4.4955879e-12
2.6252185e-09
4.3002423e-12
2.6253084e-09
-4.1202779e-12
2.625222e-09
3.95232e-12
2.6253052e-09
-3.7981994e-12
2.625225e-09
3.6551561e-12
2.6253025e-09
-3.5245744e-12
2.6252275e-09
3.4042575e-12
2.6253003e-09
-3.2952917e-12
2.6252296e-09
3.1958293e-12
2.6252985e-09
-3.1068525e-12
2.6252313e-09
3.0265355e-12
2.625297e-09
-2.9560769e-12
2.6252327e-09
2.8944542e-12
2.6252955e-09
-2.8355919e-12
2.6252326e-09
2.803839e-12
2.6252921e-09
-2.7516115e-12
2.6252371e-09
2.6166325e-12
2.6253332e-09
-3.3314099e-12
2.4385654e-12
2.5946428e-09
2.3399903e-08
2.7599759e-09
-2.03829e-09
2.7501289e-09
1.264358e-09
2.7574381e-09
-5.6208265e-11
2.7607705e-09
-8.7263465e-13
2.76337e-09
2.7103406e-11
2.7620285e-09
1.5328242e-11
2.7633257e-09
7.2658268e-12
2.7631082e-09
-9.6794871e-12
2.7632665e-09
1.1123391e-11
2.7634064e-09
-1.2283549e-11
2.763242e-09
1.2279142e-11
2.7633939e-09
-1.145213e-11
2.763228e-09
1.1137495e-11
2.7633715e-09
-1.0361805e-11
2.7632269e-09
9.9087833e-12
2.7633591e-09
-9.3120472e-12
2.763231e-09
8.8462183e-12
2.763351e-09
-8.3563744e-12
2.7632363e-09
7.9237776e-12
2.7633449e-09
-7.5045802e-12
2.7632415e-09
7.1168483e-12
2.7633399e-09
-6.7520087e-12
2.7632463e-09
6.4092822e-12
2.7633356e-09
-6.0902569e-12
2.7632505e-09
5.7893265e-12
2.7633318e-09
-5.5103341e-12
2.7632542e-09
5.247299e-12
2.7633285e-09
-5.003988e-12
2.7632574e-09
4.7750807e-12
2.7633256e-09
-4.5637631e-12
2.7632602e-09
4.3656265e-12
2.7633231e-09
-4.1831797e-12
2.7632626e-09
4.0128187e-12
2.763321e-09
-3.8565681e-12
2.7632647e-09
3.7114775e-12
2.7633192e-09
-3.5790823e-12
2.7632664e-09
3.4570381e-12
2.7633177e-09
-3.3465506e-12
2.7632679e-09
3.2456475e-12
2.7633164e-09
-3.155416e-12
2.7632691e-09
3.0739041e-12
2.7633154e-09
-3.0024427e-12
2.76327e-09
2.9398412e-12
2.7633143e-09
-2.8798523e-12
2.7632697e-09
2.848461e-12
2.7633112e-09
-2.7931767e-12
2.7632732e-09
2.6547167e-12
2.7633469e-09
-3.4051129e-12
2.456015e-12
2.734987e-09
2.3613166e-08
2.8747453e-09
-2.1780483e-09
2.8808983e-09
1.2582051e-09
2.8872009e-09
-6.2510964e-11
2.8923619e-09
-6.0335466e-12
2.8955515e-09
2.3913719e-11
2.8943458e-09
1.6533985e-11
2.8958854e-09
5.7262516e-12
2.8955531e-09
-9.3472503e-12
2.8958133e-09
1.0863203e-11
2.895872e-09
-1.2342231e-11
2.8957856e-09
1.2365562e-11
2.8958645e-09
-1.1531034e-11
2.8957684e-09
1.1233631e-11
2.8958463e-09
-1.0439722e-11
2.895764e-09
9.9911138e-12
2.8958373e-09
-9.385425e-12
2.8957649e-09
8.9186111e-12
2.8958323e-09
-8.4237387e-12
2.8957675e-09
7.988604e-12
2.8958288e-09
-7.5659397e-12
2.8957703e-09
7.1754377e-12
2.8958261e-09
-6.8078448e-12
2.8957729e-09
6.4625208e-12
2.8958238e-09
-6.1411703e-12
2.8957752e-09
5.8379153e-12
2.8958217e-09
-5.556902e-12
2.8957772e-09
5.2918252e-12
2.89582e-09
-5.0467537e-12
2.895779e-09
4.8160665e-12
2.8958185e-09
-4.6032143e-12
2.8957805e-09
4.4035384e-12
2.8958171e-09
-4.2197599e-12
2.8957819e-09
4.0480717e-12
2.895816e-09
-3.8906775e-12
2.895783e-09
3.7444569e-12
2.895815e-09
-3.6110836e-12
2.895784e-09
3.4880832e-12
2.8958142e-09
-3.3767718e-12
2.8957848e-09
3.2750662e-12
2.8958135e-09
-3.1841505e-12
2.8957854e-09
3.1019598e-12
2.8958129e-09
-3.029949e-12
2.895786e-09
2.9667614e-12
2.8958122e-09
-2.9060401e-12
2.8957855e-09
2.8752058e-12
2.8958095e-09
-2.8172019e-12
2.8957879e-09
2.6762911e-12
2.8958393e-09
-3.4565056e-12
2.457577e-12
2.8481769e-09
2.3713239e-08
2.9860584e-09
-2.3159298e-09
3.006792e-09
1.2374715e-09
3.0118768e-09
-6.7595791e-11
3.0187457e-09
-1.2902397e-11
3.0222506e-09
2.0408831e-11
3.0211954e-09
1.75891e-11
3.0229327e-09
3.9889919e-12
3.0224837e-09
-8.8982509e-12
3.0228388e-09
1.0508153e-11
3.0228176e-09
-1.2321107e-11
3.0228065e-09
1.237667e-11
3.0228148e-09
-1.1539326e-11
3.0227865e-09
1.1261984e-11
3.0228008e-09
-1.0454038e-11
3.022779e-09
1.0012941e-11
3.0227953e-09
-9.4017818e-12
3.022777e-09
8.9369361e-12
3.0227932e-09
-8.4399707e-12
3.0227769e-09
8.0049809e-12
3.0227923e-09
-7.581388e-12
3.0227772e-09
7.1905013e-12
3.0227918e-09
-6.8223733e-12
3.0227777e-09
6.4765541e-12
3.0227914e-09
-6.1548216e-12
3.0227782e-09
5.8510848e-12
3.0227911e-09
-5.569752e-12
3.0227787e-09
5.3042442e-12
3.0227908e-09
-5.0588962e-12
3.022779e-09
4.8278303e-12
3.0227906e-09
-4.6147331e-12
3.0227794e-09
4.4147306e-12
3.0227903e-09
-4.2307344e-12
3.0227796e-09
4.058762e-12
3.0227901e-09
-3.9011783e-12
3.0227799e-09
3.7547157e-12
3.02279e-09
-3.6211733e-12
3.0227801e-09
3.497965e-12
3.0227898e-09
-3.3865053e-12
3.0227803e-09
3.2846157e-12
3.0227897e-09
-3.1935682e-12
3.0227805e-09
3.1112001e-12
3.0227896e-09
-3.0390784e-12
3.0227807e-09
2.9756873e-12
3.0227892e-09
-2.9146209e-12
3.0227799e-09
2.8845156e-12
3.0227869e-09
-2.824172e-12
3.0227814e-09
2.6818161e-12
3.0228107e-09
-3.4858093e-12
2.4441813e-12
2.985039e-09
2.3676451e-08
3.0933316e-09
-2.4242225e-09
3.1275293e-09
1.2032739e-09
3.132275e-09
-7.2341545e-11
3.1400042e-09
-2.0631629e-11
3.1435113e-09
1.6901733e-11
3.1426139e-09
1.8486551e-11
3.1444695e-09
2.1334129e-12
3.1439028e-09
-8.3315569e-12
3.144344e-09
1.0066866e-11
3.1442439e-09
-1.2220966e-11
3.144305e-09
1.2315552e-11
3.144245e-09
-1.1479332e-11
3.1442823e-09
1.122476e-11
3.1442351e-09
-1.0406916e-11
3.1442719e-09
9.9762326e-12
3.1442331e-09
-9.3630229e-12
3.1442671e-09
8.9029589e-12
3.1442339e-09
-8.4067529e-12
3.1442644e-09
7.9744862e-12
3.1442354e-09
-7.5524185e-12
3.1442624e-09
7.1634474e-12
3.144237e-09
-6.7969244e-12
3.1442609e-09
6.4526393e-12
3.1442385e-09
-6.1323992e-12
3.1442596e-09
5.8299612e-12
3.1442398e-09
-5.5499482e-12
3.1442585e-09
5.2855649e-12
3.144241e-09
-5.0413719e-12
3.1442575e-09
4.8112807e-12
3.144242e-09
-4.5991821e-12
3.1442567e-09
4.4000248e-12
3.1442428e-09
-4.2168846e-12
3.1442559e-09
4.045635e-12
3.1442435e-09
-3.8887827e-12
3.1442553e-09
3.7429367e-12
3.1442442e-09
-3.6100051e-12
3.1442548e-09
3.4873106e-12
3.1442447e-09
-3.3763541e-12
3.1442544e-09
3.2748785e-12
3.1442451e-09
-3.1842322e-12
3.1442541e-09
3.1021714e-12
3.1442454e-09
-3.0303623e-12
3.1442539e-09
2.9671396e-12
3.1442454e-09
-2.9061059e-12
3.144253e-09
2.8768791e-12
3.1442435e-09
-2.8146134e-12
3.1442535e-09
2.6717891e-12
3.1442611e-09
-3.4933585e-12
2.4167624e-12
3.0981584e-09
2.3526542e-08
3.1963523e-09
-2.5224164e-09
3.2430663e-09
1.1565599e-09
3.2481446e-09
-7.7419794e-11
3.2559882e-09
-2.8475302e-11
3.2592978e-09
1.3592162e-11
3.2586e-09
1.9184317e-11
3.2604829e-09
2.5058543e-13
3.259807e-09
-7.6556727e-12
3.260328e-09
9.5458482e-12
3.2601504e-09
-1.2043333e-11
3.2602808e-09
1.2185155e-11
3.2601551e-09
-1.1353645e-11
3.2602556e-09
1.1124253e-11
3.2601494e-09
-1.0300683e-11
3.2602425e-09
9.8830696e-12
3.2601507e-09
-9.2711818e-12
3.2602351e-09
8.8185551e-12
3.2601542e-09
-8.3258791e-12
3.2602299e-09
7.8987999e-12
3.2601581e-09
-7.4806242e-12
3.2602258e-09
7.0957777e-12
3.2601618e-09
-6.7329186e-12
3.2602223e-09
6.3921201e-12
3.2601651e-09
-6.0751736e-12
3.2602193e-09
5.7757472e-12
3.260168e-09
-5.4986307e-12
3.2602167e-09
5.2368693e-12
3.2601705e-09
-4.9952063e-12
3.2602144e-09
4.7673924e-12
3.2601727e-09
-4.5574876e-12
3.2602124e-09
4.3603029e-12
3.2601746e-09
-4.1790511e-12
3.2602107e-09
4.009494e-12
3.2601762e-09
-3.8542573e-12
3.2602093e-09
3.7098535e-12
3.2601776e-09
-3.5782827e-12
3.2602081e-09
3.4567977e-12
3.2601787e-09
-3.346971e-12
3.2602071e-09
3.2464846e-12
3.2601796e-09
-3.1567523e-12
3.2602063e-09
3.0754662e-12
3.2601803e-09
-3.0043764e-12
3.2602058e-09
2.941682e-12
3.2601807e-09
-2.8810484e-12
3.2602048e-09
2.8528288e-12
3.2601793e-09
-2.7890899e-12
3.2602043e-09
2.6467396e-12
3.2601905e-09
-3.4795919e-12
2.3762484e-12
3.228474e-09
2.3246318e-08
3.2960493e-09
-2.5899918e-09
3.3536206e-09
1.0989886e-09
3.359113e-09
-8.2912175e-11
3.3665457e-09
-3.5908041e-11
3.3696008e-09
1.0537036e-11
3.3691435e-09
1.9641653e-11
3.370963e-09
-1.5689431e-12
3.3701939e-09
-6.8865145e-12
3.3707903e-09
8.9494178e-12
3.3705371e-09
-1.1790093e-11
3.3707338e-09
1.1988448e-11
3.3705451e-09
-1.1164981e-11
3.3707065e-09
1.0962895e-11
3.3705436e-09
-1.0137763e-11
3.370691e-09
9.7356558e-12
3.3705482e-09
-9.1283901e-12
3.370681e-09
8.6857047e-12
3.3705544e-09
-8.1992366e-12
3.3706735e-09
7.779694e-12
3.3705606e-09
-7.3676844e-12
3.3706673e-09
6.989077e-12
3.3705662e-09
-6.6318556e-12
3.3706619e-09
6.2964147e-12
3.3705712e-09
-5.9844876e-12
3.3706572e-09
5.6897163e-12
3.3705756e-09
-5.4170049e-12
3.3706532e-09
5.1593013e-12
3.3705795e-09
-4.9214859e-12
3.3706497e-09
4.697199e-12
3.3705828e-09
-4.4906324e-12
3.3706466e-09
4.2965021e-12
3.3705857e-09
-4.1181271e-12
3.370644e-09
3.9511921e-12
3.3705882e-09
-3.7984187e-12
3.3706418e-09
3.6562497e-12
3.3705902e-09
-3.5267578e-12
3.3706399e-09
3.4071486e-12
3.370592e-09
-3.2990519e-12
3.3706383e-09
3.2001069e-12