/*--------------------------------*- C++ -*----------------------------------*\
| =========                 |                                                 |
| \\      /  F ield         | OpenFOAM: The Open Source CFD Toolbox           |
|  \\    /   O peration     | Version:  2312                                  |
|   \\  /    A nd           | Website:  www.openfoam.com                      |
|    \\/     M anipulation  |                                                 |
\*---------------------------------------------------------------------------*/
FoamFile
{
    version     2.0;
    format      ascii;
    arch        "LSB;label=32;scalar=64";
    class       volSymmTensorField;
    location    "3";
    object      sigma;
}
// * * * * * * * * * * * * * * * * * * * * * * * * * * * * * * * * * * * * * //

dimensions      [0 2 -2 0 0 0 0];

internalField   nonuniform List<symmTensor> 
4000
(
(-2.2710452 -1.0084469 0 -0.403922 0 0)
(-5.6704098 -0.44173163 0 -0.0029177959 0 0)
(-2.9230189 -0.31325711 0 -0.00086216598 0 0)
(-3.1199851 -0.3224196 0 1.0951442e-05 0 0)
(-2.9348718 -0.31260517 0 2.1708396e-05 0 0)
(-3.0396529 -0.31858269 0 -5.4533188e-05 0 0)
(-2.9190574 -0.31173552 0 3.4911769e-05 0 0)
(-3.0037866 -0.31663438 0 -4.3082275e-05 0 0)
(-2.9221793 -0.31190961 0 3.8611033e-05 0 0)
(-2.9946572 -0.31612902 0 -3.789801e-05 0 0)
(-2.9266159 -0.31216578 0 3.5536732e-05 0 0)
(-2.9898537 -0.31585564 0 -3.3901342e-05 0 0)
(-2.9301999 -0.3123751 0 3.1907799e-05 0 0)
(-2.9861626 -0.31564299 0 -3.0267765e-05 0 0)
(-2.9333615 -0.31255993 0 2.854556e-05 0 0)
(-2.9830141 -0.31546092 0 -2.7033142e-05 0 0)
(-2.9362178 -0.31272668 0 2.5535653e-05 0 0)
(-2.9802433 -0.31530051 0 -2.4178743e-05 0 0)
(-2.9387882 -0.31287653 0 2.2866877e-05 0 0)
(-2.9777799 -0.31515786 0 -2.1662661e-05 0 0)
(-2.9410937 -0.31301079 0 2.0510225e-05 0 0)
(-2.9755809 -0.31503055 0 -1.944717e-05 0 0)
(-2.9431603 -0.31313099 0 1.8434953e-05 0 0)
(-2.9736131 -0.31491669 0 -1.7499789e-05 0 0)
(-2.9450144 -0.31323868 0 1.6612188e-05 0 0)
(-2.9718481 -0.31481465 0 -1.5792116e-05 0 0)
(-2.9466808 -0.31333531 0 1.5015783e-05 0 0)
(-2.970261 -0.31472302 0 -1.4299126e-05 0 0)
(-2.9481824 -0.3134222 0 1.3622472e-05 0 0)
(-2.9688295 -0.31464052 0 -1.2998848e-05 0 0)
(-2.9495399 -0.31350057 0 1.2411777e-05 0 0)
(-2.9675334 -0.31456598 0 -1.187208e-05 0 0)
(-2.9507721 -0.3135715 0 1.1365847e-05 0 0)
(-2.9663547 -0.31449839 0 -1.0902172e-05 0 0)
(-2.951896 -0.31363598 0 1.0469251e-05 0 0)
(-2.9652771 -0.31443679 0 -1.0074822e-05 0 0)
(-2.9529268 -0.3136949 0 9.7088112e-06 0 0)
(-2.9642859 -0.31438034 0 -9.3778887e-06 0 0)
(-2.9538786 -0.31374906 0 9.0734365e-06 0 0)
(-2.9633674 -0.31432828 0 -8.8012744e-06 0 0)
(-2.9547644 -0.31379919 0 8.5540468e-06 0 0)
(-2.9625095 -0.3142799 0 -8.3369149e-06 0 0)
(-2.9555957 -0.31384597 0 8.1434732e-06 0 0)
(-2.9617001 -0.31423454 0 -7.9793873e-06 0 0)
(-2.9563824 -0.31388995 0 7.8365652e-06 0 0)
(-2.9609258 -0.31419145 0 -7.7237633e-06 0 0)
(-2.9571366 -0.3139317 0 7.6507251e-06 0 0)
(-2.960219 -0.31415201 0 -7.5075832e-06 0 0)
(-2.9580745 -0.31398176 0 7.781312e-06 0 0)
(-2.9602495 -0.3141534 0 -7.5670815e-06 0 0)
(-1.9910633 -0.92527807 0 -0.38195176 0 0)
(-4.8795982 -0.42222611 0 -0.0081445858 0 0)
(-2.9865661 -0.32145136 0 -0.0025879452 0 0)
(-2.8816536 -0.30957732 0 -2.2501322e-05 0 0)
(-2.7199699 -0.30098728 0 -4.4629859e-06 0 0)
(-2.8110744 -0.30654784 0 -7.4721894e-05 0 0)
(-2.7100153 -0.30031909 0 1.8744342e-05 0 0)
(-2.7802197 -0.30471566 0 -4.8880349e-05 0 0)
(-2.7108269 -0.30033255 0 3.9427478e-05 0 0)
(-2.7723055 -0.30424673 0 -4.1203467e-05 0 0)
(-2.7143734 -0.30055407 0 3.8266867e-05 0 0)
(-2.7682606 -0.30399836 0 -3.7018504e-05 0 0)
(-2.7173868 -0.30074653 0 3.4657215e-05 0 0)
(-2.765119 -0.30380092 0 -3.3054767e-05 0 0)
(-2.7200671 -0.30091839 0 3.1082956e-05 0 0)
(-2.7624271 -0.30363066 0 -2.9497399e-05 0 0)
(-2.7224955 -0.30107393 0 2.7830644e-05 0 0)
(-2.7600581 -0.30348059 0 -2.6372209e-05 0 0)
(-2.7246831 -0.30121384 0 2.4931534e-05 0 0)
(-2.7579529 -0.30334719 0 -2.3625648e-05 0 0)
(-2.7266464 -0.30133922 0 2.2366964e-05 0 0)
(-2.756074 -0.30322815 0 -2.1210557e-05 0 0)
(-2.7284068 -0.30145149 0 2.0107404e-05 0 0)
(-2.7543923 -0.30312168 0 -1.9089074e-05 0 0)
(-2.7299869 -0.30155209 0 1.8122601e-05 0 0)
(-2.7528835 -0.30302626 0 -1.7229371e-05 0 0)
(-2.7314078 -0.30164238 0 1.6384403e-05 0 0)
(-2.7515262 -0.30294054 0 -1.5603838e-05 0 0)
(-2.7326891 -0.30172362 0 1.4867566e-05 0 0)
(-2.7503012 -0.30286332 0 -1.4188447e-05 0 0)
(-2.7338483 -0.30179692 0 1.3549825e-05 0 0)
(-2.7491913 -0.30279353 0 -1.2962278e-05 0 0)
(-2.7349014 -0.3018633 0 1.2411799e-05 0 0)
(-2.7481813 -0.30273019 0 -1.1907245e-05 0 0)
(-2.7358629 -0.30192369 0 1.1436764e-05 0 0)
(-2.747257 -0.30267244 0 -1.1007899e-05 0 0)
(-2.7367458 -0.30197891 0 1.0610526e-05 0 0)
(-2.7464059 -0.30261948 0 -1.0251197e-05 0 0)
(-2.7375621 -0.30202971 0 9.9212615e-06 0 0)
(-2.7456165 -0.30257059 0 -9.6264752e-06 0 0)
(-2.7383227 -0.30207678 0 9.3595499e-06 0 0)
(-2.7448781 -0.30252512 0 -9.1255859e-06 0 0)
(-2.7390379 -0.30212075 0 8.918306e-06 0 0)
(-2.7441807 -0.30248247 0 -8.7447454e-06 0 0)
(-2.739716 -0.30216214 0 8.5920978e-06 0 0)
(-2.7435118 -0.3024419 0 -8.4821405e-06 0 0)
(-2.7403631 -0.30220111 0 8.4244654e-06 0 0)
(-2.7428785 -0.30240306 0 -8.1856013e-06 0 0)
(-2.7411121 -0.30224245 0 8.9925925e-06 0 0)
(-2.7427658 -0.30239599 0 -8.1765788e-06 0 0)
(-1.8561647 -0.86873884 0 -0.35311844 0 0)
(-4.2814986 -0.39499699 0 -0.0096388636 0 0)
(-2.900808 -0.32084018 0 -0.0038958156 0 0)
(-2.7514511 -0.30246418 0 -0.00012296716 0 0)
(-2.5811351 -0.29319253 0 -2.542831e-05 0 0)
(-2.6626056 -0.2984535 0 -8.5736426e-05 0 0)
(-2.5733685 -0.29262969 0 2.4074383e-06 0 0)
(-2.6356943 -0.29674879 0 -4.9447864e-05 0 0)
(-2.5735957 -0.29258112 0 3.5836176e-05 0 0)
(-2.6284947 -0.2962987 0 -3.9613229e-05 0 0)
(-2.5766647 -0.29278435 0 3.6474279e-05 0 0)
(-2.6248819 -0.29606534 0 -3.5663081e-05 0 0)
(-2.5793497 -0.29296698 0 3.3227274e-05 0 0)
(-2.6220771 -0.29587805 0 -3.183697e-05 0 0)
(-2.5817459 -0.29313065 0 2.985332e-05 0 0)
(-2.6196688 -0.29571589 0 -2.8385936e-05 0 0)
(-2.5839184 -0.29327889 0 2.6749075e-05 0 0)
(-2.6175493 -0.2955729 0 -2.5367662e-05 0 0)
(-2.5858763 -0.29341228 0 2.3969777e-05 0 0)
(-2.6156663 -0.29544581 0 -2.2722309e-05 0 0)
(-2.5876338 -0.29353184 0 2.150716e-05 0 0)
(-2.6139858 -0.29533241 0 -2.0399023e-05 0 0)
(-2.58921 -0.29363891 0 1.9336191e-05 0 0)
(-2.6124817 -0.29523097 0 -1.8359226e-05 0 0)
(-2.5906251 -0.29373488 0 1.7428883e-05 0 0)
(-2.6111321 -0.29514004 0 -1.6571555e-05 0 0)
(-2.591898 -0.29382103 0 1.5758488e-05 0 0)
(-2.6099177 -0.29505833 0 -1.5009171e-05 0 0)
(-2.5930461 -0.29389857 0 1.4300857e-05 0 0)
(-2.6088213 -0.29498469 0 -1.3648899e-05 0 0)
(-2.5940852 -0.29396856 0 1.303463e-05 0 0)
(-2.6078277 -0.29491809 0 -1.247062e-05 0 0)
(-2.5950296 -0.29403199 0 1.1941241e-05 0 0)
(-2.606923 -0.29485762 0 -1.1456992e-05 0 0)
(-2.5958922 -0.29408972 0 1.1004689e-05 0 0)
(-2.6060947 -0.29480244 0 -1.0593273e-05 0 0)
(-2.5966846 -0.29414254 0 1.0211474e-05 0 0)
(-2.6053317 -0.29475181 0 -9.8670856e-06 0 0)
(-2.5974175 -0.29419117 0 9.5504657e-06 0 0)
(-2.6046235 -0.29470502 0 -9.2684862e-06 0 0)
(-2.5981008 -0.29423627 0 9.0130452e-06 0 0)
(-2.6039606 -0.29466148 0 -8.7902228e-06 0 0)
(-2.5987437 -0.29427843 0 8.5931647e-06 0 0)
(-2.603334 -0.29462059 0 -8.4304962e-06 0 0)
(-2.5993539 -0.29431817 0 8.2858887e-06 0 0)
(-2.6027325 -0.29458168 0 -8.1926779e-06 0 0)
(-2.5999357 -0.29435553 0 8.1469041e-06 0 0)
(-2.6021563 -0.29454381 0 -7.8858648e-06 0 0)
(-2.6005928 -0.29439285 0 8.9876553e-06 0 0)
(-2.6019862 -0.29453481 0 -8.3986425e-06 0 0)
(-1.7848037 -0.83075162 0 -0.33066278 0 0)
(-3.8666414 -0.37827082 0 -0.01159553 0 0)
(-2.7978559 -0.31995485 0 -0.0053846758 0 0)
(-2.6283827 -0.29560745 0 -0.00022946143 0 0)
(-2.4485887 -0.2855476 0 -6.0274473e-05 0 0)
(-2.5192574 -0.29037546 0 -9.5245564e-05 0 0)
(-2.4396765 -0.28493285 0 -1.8509045e-05 0 0)
(-2.4956156 -0.28878721 0 -4.6270464e-05 0 0)
(-2.4394904 -0.2848297 0 2.8539007e-05 0 0)
(-2.4890247 -0.28835431 0 -3.4551533e-05 0 0)
(-2.4421596 -0.28501483 0 3.1454701e-05 0 0)
(-2.4857567 -0.28813503 0 -3.1239952e-05 0 0)
(-2.4445709 -0.28518774 0 2.8906411e-05 0 0)
(-2.4832237 -0.2879575 0 -2.7885593e-05 0 0)
(-2.4467327 -0.28534325 0 2.6039943e-05 0 0)
(-2.4810443 -0.28780317 0 -2.4830929e-05 0 0)
(-2.4486933 -0.28548418 0 2.3358107e-05 0 0)
(-2.479126 -0.28766705 0 -2.2176521e-05 0 0)
(-2.4504606 -0.28561103 0 2.0940885e-05 0 0)
(-2.4774221 -0.28754608 0 -1.985977e-05 0 0)
(-2.4520473 -0.28572474 0 1.879372e-05 0 0)
(-2.4759017 -0.28743815 0 -1.7828854e-05 0 0)
(-2.4534705 -0.2858266 0 1.6899188e-05 0 0)
(-2.4745411 -0.28734158 0 -1.6047112e-05 0 0)
(-2.4547485 -0.28591791 0 1.5234279e-05 0 0)
(-2.4733202 -0.287255 0 -1.4486107e-05 0 0)
(-2.4558982 -0.28599992 0 1.3776048e-05 0 0)
(-2.4722215 -0.28717716 0 -1.3122004e-05 0 0)
(-2.4569355 -0.28607376 0 1.2503543e-05 0 0)
(-2.4712295 -0.28710698 0 -1.1934449e-05 0 0)
(-2.4578746 -0.28614046 0 1.1398155e-05 0 0)
(-2.4703303 -0.28704348 0 -1.0905852e-05 0 0)
(-2.4587282 -0.28620094 0 1.0443723e-05 0 0)
(-2.4695116 -0.28698578 0 -1.0021094e-05 0 0)
(-2.459508 -0.28625602 0 9.6263306e-06 0 0)
(-2.468762 -0.2869331 0 -9.2673888e-06 0 0)
(-2.4602245 -0.28630645 0 8.9342975e-06 0 0)
(-2.4680713 -0.28688471 0 -8.6340424e-06 0 0)
(-2.4608875 -0.28635293 0 8.3580762e-06 0 0)
(-2.4674302 -0.28683996 0 -8.1125897e-06 0 0)
(-2.4615056 -0.28639607 0 7.890458e-06 0 0)
(-2.4668301 -0.28679827 0 -7.6971049e-06 0 0)
(-2.4620872 -0.28643644 0 7.5266228e-06 0 0)
(-2.4662629 -0.2867591 0 -7.3876539e-06 0 0)
(-2.4626396 -0.28647456 0 7.2614005e-06 0 0)
(-2.4657183 -0.28672178 0 -7.1912888e-06 0 0)
(-2.4631655 -0.28651037 0 7.1604321e-06 0 0)
(-2.4651907 -0.2866848 0 -6.861245e-06 0 0)
(-2.4637424 -0.28654393 0 8.281766e-06 0 0)
(-2.464968 -0.28667342 0 -7.7762243e-06 0 0)
(-1.7126481 -0.78842859 0 -0.30537982 0 0)
(-3.4492361 -0.35937637 0 -0.012798664 0 0)
(-2.6563569 -0.31629211 0 -0.0066675373 0 0)
(-2.5046462 -0.2887158 0 -0.00033691363 0 0)
(-2.3224025 -0.27802659 0 -0.0001017672 0 0)
(-2.3808352 -0.28232217 0 -0.00010611177 0 0)
(-2.309239 -0.27721061 0 -3.7151398e-05 0 0)
(-2.3597083 -0.28083417 0 -4.3071797e-05 0 0)
(-2.308677 -0.27706826 0 2.1717059e-05 0 0)
(-2.3536252 -0.28041727 0 -2.9620891e-05 0 0)
(-2.3110057 -0.27723786 0 2.6665275e-05 0 0)
(-2.350644 -0.28021055 0 -2.6937635e-05 0 0)
(-2.3131821 -0.27740213 0 2.4734472e-05 0 0)
(-2.3483438 -0.28004204 0 -2.404796e-05 0 0)
(-2.3151444 -0.27755026 0 2.2345663e-05 0 0)
(-2.3463622 -0.27989501 0 -2.1381166e-05 0 0)
(-2.3169244 -0.2776845 0 2.0070725e-05 0 0)
(-2.3446175 -0.27976528 0 -1.9080868e-05 0 0)
(-2.3185288 -0.27780533 0 1.8003964e-05 0 0)
(-2.3430681 -0.27965001 0 -1.7083177e-05 0 0)
(-2.3199693 -0.27791367 0 1.6162381e-05 0 0)
(-2.3416858 -0.27954715 0 -1.5335824e-05 0 0)
(-2.3212617 -0.27801073 0 1.4535625e-05 0 0)
(-2.3404488 -0.27945512 0 -1.3804195e-05 0 0)
(-2.3224223 -0.27809776 0 1.3105472e-05 0 0)
(-2.3393388 -0.27937257 0 -1.2462775e-05 0 0)
(-2.3234666 -0.27817596 0 1.1852655e-05 0 0)
(-2.3383399 -0.27929834 0 -1.1290676e-05 0 0)
(-2.3244089 -0.27824639 0 1.075933e-05 0 0)
(-2.337438 -0.27923138 0 -1.0270298e-05 0 0)
(-2.3252621 -0.27831004 0 9.8095461e-06 0 0)
(-2.3366205 -0.27917077 0 -9.3864979e-06 0 0)
(-2.3260378 -0.27836778 0 8.9894599e-06 0 0)
(-2.3358761 -0.27911567 0 -8.6262878e-06 0 0)
(-2.3267465 -0.2784204 0 8.2871434e-06 0 0)
(-2.3351945 -0.27906532 0 -7.9787461e-06 0 0)
(-2.3273977 -0.27846861 0 7.6926264e-06 0 0)
(-2.3345665 -0.27901904 0 -7.4347372e-06 0 0)
(-2.3280002 -0.27851307 0 7.1978044e-06 0 0)
(-2.3339836 -0.27897623 0 -6.9871113e-06 0 0)
(-2.328562 -0.27855437 0 6.7966659e-06 0 0)
(-2.3334381 -0.2789363 0 -6.6309845e-06 0 0)
(-2.3290906 -0.27859305 0 6.4852701e-06 0 0)
(-2.3329226 -0.27889874 0 -6.3676054e-06 0 0)
(-2.3295925 -0.27862963 0 6.2575097e-06 0 0)
(-2.3324279 -0.27886297 0 -6.206694e-06 0 0)
(-2.3300699 -0.27866399 0 6.182481e-06 0 0)
(-2.3319451 -0.27882702 0 -5.852245e-06 0 0)
(-2.3305802 -0.27869457 0 7.5031865e-06 0 0)
(-2.3316879 -0.27881372 0 -7.0816257e-06 0 0)
(-1.6467423 -0.73764152 0 -0.27256983 0 0)
(-3.0646613 -0.34081104 0 -0.0133832 0 0)
(-2.5031327 -0.31133167 0 -0.0077624418 0 0)
(-2.378461 -0.2816095 0 -0.00043156688 0 0)
(-2.2001243 -0.27052784 0 -0.00014777261 0 0)
(-2.2468464 -0.27427916 0 -0.00011774853 0 0)
(-2.1821057 -0.26946148 0 -5.2482106e-05 0 0)
(-2.227773 -0.27288244 0 -4.0263406e-05 0 0)
(-2.1812801 -0.2692989 0 1.6130934e-05 0 0)
(-2.2221607 -0.27248433 0 -2.5455279e-05 0 0)
(-2.1833264 -0.26945618 0 2.274626e-05 0 0)
(-2.2194381 -0.27228988 0 -2.335329e-05 0 0)
(-2.1852965 -0.26961273 0 2.1283056e-05 0 0)
(-2.2173463 -0.27213002 0 -2.0863134e-05 0 0)
(-2.1870824 -0.269754 0 1.9281154e-05 0 0)
(-2.2155419 -0.27198996 0 -1.8519659e-05 0 0)
(-2.1887019 -0.26988193 0 1.7343623e-05 0 0)
(-2.2139522 -0.27186631 0 -1.6513055e-05 0 0)
(-2.1901613 -0.26999705 0 1.556807e-05 0 0)
(-2.2125405 -0.27175643 0 -1.4780007e-05 0 0)
(-2.1914717 -0.27010029 0 1.3980176e-05 0 0)
(-2.2112813 -0.27165838 0 -1.326789e-05 0 0)
(-2.1926475 -0.2701928 0 1.2575556e-05 0 0)
(-2.2101544 -0.27157064 0 -1.1943727e-05 0 0)
(-2.1937036 -0.27027578 0 1.1340058e-05 0 0)
(-2.2091432 -0.27149192 0 -1.0784415e-05 0 0)
(-2.1946541 -0.27035035 0 1.0257516e-05 0 0)
(-2.2082332 -0.27142111 0 -9.7715183e-06 0 0)
(-2.1955119 -0.27041755 0 9.3126864e-06 0 0)
(-2.2074115 -0.27135721 0 -8.8897236e-06 0 0)
(-2.1962886 -0.2704783 0 8.4918274e-06 0 0)
(-2.2066667 -0.27129934 0 -8.1259184e-06 0 0)
(-2.196995 -0.27053343 0 7.7830134e-06 0 0)
(-2.2059883 -0.2712467 0 -7.4688755e-06 0 0)
(-2.1976403 -0.27058371 0 7.1759541e-06 0 0)
(-2.2053672 -0.27119858 0 -6.9092023e-06 0 0)
(-2.1982335 -0.27062981 0 6.6620722e-06 0 0)
(-2.204795 -0.27115433 0 -6.4390267e-06 0 0)
(-2.1987822 -0.27067234 0 6.2344193e-06 0 0)
(-2.2042639 -0.27111335 0 -6.052232e-06 0 0)
(-2.1992938 -0.27071187 0 5.8878984e-06 0 0)
(-2.203767 -0.27107511 0 -5.7446863e-06 0 0)
(-2.1997752 -0.27074893 0 5.6191569e-06 0 0)
(-2.2032975 -0.27103913 0 -5.518343e-06 0 0)
(-2.2002323 -0.270784 0 5.4208954e-06 0 0)
(-2.2028473 -0.27100484 0 -5.3849756e-06 0 0)
(-2.2006666 -0.27081698 0 5.3623157e-06 0 0)
(-2.2024052 -0.27096999 0 -5.0057594e-06 0 0)
(-2.2011192 -0.27084503 0 6.818916e-06 0 0)
(-2.2021257 -0.27095498 0 -6.451403e-06 0 0)
(-1.6256522 -0.71066029 0 -0.2542587 0 0)
(-2.7014106 -0.32358496 0 -0.014206731 0 0)
(-2.336575 -0.30427749 0 -0.0085082231 0 0)
(-2.2454086 -0.27422099 0 -0.00058651565 0 0)
(-2.0823866 -0.26325449 0 -0.00023137019 0 0)
(-2.1181176 -0.26633585 0 -0.00013832433 0 0)
(-2.0589173 -0.26173368 0 -6.8306567e-05 0 0)
(-2.1000351 -0.26494731 0 -3.833148e-05 0 0)
(-2.0575011 -0.26153131 0 1.1246062e-05 0 0)
(-2.0946442 -0.26455699 0 -2.1905985e-05 0 0)
(-2.0592 -0.26167282 0 1.9441568e-05 0 0)
(-2.0921067 -0.26437211 0 -2.0295565e-05 0 0)
(-2.0609625 -0.26182117 0 1.8353747e-05 0 0)
(-2.0901933 -0.2642202 0 -1.8152316e-05 0 0)
(-2.062585 -0.26195572 0 1.6673872e-05 0 0)
(-2.0885476 -0.26408683 0 -1.608544e-05 0 0)
(-2.0640589 -0.26207753 0 1.5023116e-05 0 0)
(-2.0870982 -0.26396905 0 -1.4328753e-05 0 0)
(-2.0653873 -0.26218716 0 1.3495669e-05 0 0)
(-2.0858111 -0.26386438 0 -1.282079e-05 0 0)
(-2.0665802 -0.26228547 0 1.2123771e-05 0 0)
(-2.0846631 -0.26377098 0 -1.1508758e-05 0 0)
(-2.0676508 -0.26237359 0 1.0908163e-05 0 0)
(-2.0836357 -0.26368737 0 -1.036105e-05 0 0)
(-2.0686126 -0.26245266 0 9.8382382e-06 0 0)
(-2.0827138 -0.26361235 0 -9.35661e-06 0 0)
(-2.0694784 -0.26252374 0 8.9004994e-06 0 0)
(-2.0818841 -0.26354483 0 -8.4790911e-06 0 0)
(-2.0702599 -0.26258782 0 8.0819364e-06 0 0)
(-2.0811348 -0.26348388 0 -7.7151299e-06 0 0)
(-2.0709678 -0.26264577 0 7.3706902e-06 0 0)
(-2.0804555 -0.26342866 0 -7.0533409e-06 0 0)
(-2.0716115 -0.26269839 0 6.7564655e-06 0 0)
(-2.0798368 -0.2633784 0 -6.4839887e-06 0 0)
(-2.0721998 -0.2627464 0 6.2303595e-06 0 0)
(-2.0792703 -0.26333243 0 -5.9989754e-06 0 0)
(-2.0727406 -0.26279044 0 5.7849667e-06 0 0)
(-2.0787484 -0.26329014 0 -5.5914849e-06 0 0)
(-2.0732409 -0.26283111 0 5.4143029e-06 0 0)
(-2.078264 -0.26325095 0 -5.256255e-06 0 0)
(-2.0737074 -0.26286893 0 5.1140112e-06 0 0)
(-2.0778107 -0.26321435 0 -4.9897384e-06 0 0)
(-2.0741462 -0.2629044 0 4.8811876e-06 0 0)
(-2.0773826 -0.26317989 0 -4.7943309e-06 0 0)
(-2.074563 -0.26293802 0 4.7073913e-06 0 0)
(-2.0769724 -0.26314705 0 -4.68363e-06 0 0)
(-2.0749587 -0.26296965 0 4.6599311e-06 0 0)
(-2.0765675 -0.26311337 0 -4.2841561e-06 0 0)
(-2.0753609 -0.26299555 0 6.2009009e-06 0 0)
(-2.0762751 -0.26309688 0 -5.8756056e-06 0 0)
(-1.6035658 -0.66720975 0 -0.2242091 0 0)
(-2.3614503 -0.30802037 0 -0.015159935 0 0)
(-2.1824397 -0.29744233 0 -0.0090243156 0 0)
(-2.0996125 -0.26569829 0 -0.00075859006 0 0)
(-1.9555477 -0.25531752 0 -0.00030467113 0 0)
(-1.9903705 -0.25826409 0 -0.00015763206 0 0)
(-1.9376471 -0.25393165 0 -8.1433253e-05 0 0)
(-1.9756074 -0.25699304 0 -3.6389189e-05 0 0)
(-1.9369865 -0.25375098 0 7.0726795e-06 0 0)
(-1.9708877 -0.25662871 0 -1.8672567e-05 0 0)
(-1.9385812 -0.25388558 0 1.6575272e-05 0 0)
(-1.9685985 -0.25645584 0 -1.7557936e-05 0 0)
(-1.9401886 -0.2540273 0 1.5770651e-05 0 0)
(-1.9668603 -0.25631211 0 -1.5741434e-05 0 0)
(-1.9416683 -0.25415559 0 1.4363234e-05 0 0)
(-1.9653615 -0.25618534 0 -1.3925017e-05 0 0)
(-1.9430113 -0.25427154 0 1.2964698e-05 0 0)
(-1.9640401 -0.25607327 0 -1.2390986e-05 0 0)
(-1.9442211 -0.25437585 0 1.165713e-05 0 0)
(-1.9628664 -0.25597365 0 -1.1082793e-05 0 0)
(-1.9453075 -0.25446941 0 1.0476825e-05 0 0)
(-1.9618195 -0.25588474 0 -9.9482026e-06 0 0)
(-1.9462826 -0.25455329 0 9.4288464e-06 0 0)
(-1.9608825 -0.25580514 0 -8.9569447e-06 0 0)
(-1.9471589 -0.25462857 0 8.5057355e-06 0 0)
(-1.9600417 -0.25573368 0 -8.0898004e-06 0 0)
(-1.9479479 -0.25469627 0 7.696379e-06 0 0)
(-1.9592848 -0.25566935 0 -7.332289e-06 0 0)
(-1.9486602 -0.25475733 0 6.9897555e-06 0 0)
(-1.9586012 -0.25561126 0 -6.6727766e-06 0 0)
(-1.9493056 -0.25481257 0 6.3756781e-06 0 0)
(-1.9579814 -0.2555586 0 -6.1014103e-06 0 0)
(-1.9498926 -0.25486276 0 5.8452956e-06 0 0)
(-1.9574168 -0.25551065 0 -5.6097733e-06 0 0)
(-1.9504292 -0.25490858 0 5.3909328e-06 0 0)
(-1.9568998 -0.25546677 0 -5.1909106e-06 0 0)
(-1.9509224 -0.25495063 0 5.0062148e-06 0 0)
(-1.9564235 -0.25542637 0 -4.8389336e-06 0 0)
(-1.9513789 -0.25498947 0 4.6860003e-06 0 0)
(-1.9559814 -0.25538892 0 -4.5493199e-06 0 0)
(-1.9518045 -0.25502563 0 4.4265677e-06 0 0)
(-1.9555677 -0.25535392 0 -4.3190131e-06 0 0)
(-1.9522049 -0.25505956 0 4.2253885e-06 0 0)
(-1.9551771 -0.25532094 0 -4.1506844e-06 0 0)
(-1.9525851 -0.25509176 0 4.0730493e-06 0 0)
(-1.9548031 -0.25528952 0 -4.0595717e-06 0 0)
(-1.952946 -0.25512209 0 4.0337825e-06 0 0)
(-1.9544323 -0.25525704 0 -3.6454273e-06 0 0)
(-1.953304 -0.25514615 0 5.6175764e-06 0 0)
(-1.954134 -0.25523931 0 -5.332774e-06 0 0)
(-1.5968578 -0.64348868 0 -0.2085458 0 0)
(-2.0565992 -0.29329359 0 -0.016341774 0 0)
(-2.0282273 -0.28730762 0 -0.0086534816 0 0)
(-1.9653208 -0.25982354 0 -0.0015364406 0 0)
(-1.8383542 -0.24807607 0 -0.00048651391 0 0)
(-1.8684786 -0.25033407 0 -0.00019201616 0 0)
(-1.8208321 -0.24617669 0 -9.7305945e-05 0 0)
(-1.8554257 -0.24905878 0 -3.5210725e-05 0 0)
(-1.8201906 -0.24597507 0 3.1875546e-06 0 0)
(-1.8510498 -0.2487062 0 -1.5767915e-05 0 0)
(-1.8215656 -0.24609742 0 1.4020581e-05 0 0)
(-1.8489299 -0.24854233 0 -1.5081611e-05 0 0)
(-1.8230055 -0.24623169 0 1.3453578e-05 0 0)
(-1.8473389 -0.248406 0 -1.3565596e-05 0 0)
(-1.8243496 -0.24635372 0 1.2283706e-05 0 0)
(-1.8459715 -0.24828554 0 -1.1978102e-05 0 0)
(-1.8255722 -0.24646397 0 1.1110686e-05 0 0)
(-1.8447665 -0.24817898 0 -1.0645384e-05 0 0)
(-1.8266738 -0.24656314 0 1.00009e-05 0 0)
(-1.8436962 -0.24808424 0 -9.5171881e-06 0 0)
(-1.8276632 -0.24665211 0 8.9930877e-06 0 0)
(-1.8427414 -0.24799967 0 -8.5423434e-06 0 0)
(-1.8285515 -0.24673189 0 8.0960144e-06 0 0)
(-1.8418868 -0.24792393 0 -7.6918978e-06 0 0)
(-1.8293499 -0.24680351 0 7.3050538e-06 0 0)
(-1.8411198 -0.24785592 0 -6.9483137e-06 0 0)
(-1.830069 -0.24686795 0 6.6112451e-06 0 0)
(-1.8404294 -0.24779468 0 -6.2987973e-06 0 0)
(-1.8307184 -0.24692609 0 6.005366e-06 0 0)
(-1.8398056 -0.24773934 0 -5.7332747e-06 0 0)
(-1.8313068 -0.24697871 0 5.4787345e-06 0 0)
(-1.8392401 -0.24768916 0 -5.2432721e-06 0 0)
(-1.8318422 -0.24702655 0 5.0237979e-06 0 0)
(-1.8387248 -0.24764345 0 -4.8215559e-06 0 0)
(-1.8323317 -0.24707023 0 4.6339831e-06 0 0)
(-1.8382529 -0.24760159 0 -4.4621961e-06 0 0)
(-1.8327817 -0.24711035 0 4.3038351e-06 0 0)
(-1.8378181 -0.24756304 0 -4.160129e-06 0 0)
(-1.8331982 -0.24714744 0 4.0289634e-06 0 0)
(-1.8374145 -0.24752727 0 -3.9114885e-06 0 0)
(-1.8335866 -0.24718198 0 3.8062e-06 0 0)
(-1.8370368 -0.24749382 0 -3.7136377e-06 0 0)
(-1.833952 -0.24721442 0 3.6333419e-06 0 0)
(-1.8366803 -0.24746229 0 -3.5693922e-06 0 0)
(-1.8342991 -0.24724522 0 3.5001933e-06 0 0)
(-1.8363392 -0.24743224 0 -3.4953938e-06 0 0)
(-1.8346284 -0.24727428 0 3.4671336e-06 0 0)
(-1.8359998 -0.247401 0 -3.0720638e-06 0 0)
(-1.8349473 -0.24729675 0 5.0585331e-06 0 0)
(-1.8357008 -0.24738223 0 -4.8183989e-06 0 0)
(-1.5919509 -0.60385671 0 -0.18198024 0 0)
(-1.8170596 -0.28065776 0 -0.01697311 0 0)
(-1.873806 -0.27414203 0 -0.0077152459 0 0)
(-1.8294505 -0.25258935 0 -0.0020300078 0 0)
(-1.7215765 -0.24045044 0 -0.00061090405 0 0)
(-1.7497343 -0.24232421 0 -0.00021298415 0 0)
(-1.7070282 -0.23837384 0 -0.0001067053 0 0)
(-1.7388441 -0.24111184 0 -3.2529255e-05 0 0)
(-1.7068247 -0.23818916 0 2.6982987e-07 0 0)
(-1.7349735 -0.24078345 0 -1.2936223e-05 0 0)
(-1.7081032 -0.23830571 0 1.181013e-05 0 0)
(-1.733056 -0.2406304 0 -1.2807051e-05 0 0)
(-1.7094132 -0.23843382 0 1.1378952e-05 0 0)
(-1.7316097 -0.24050163 0 -1.1590372e-05 0 0)
(-1.7106381 -0.23855002 0 1.0408011e-05 0 0)
(-1.7303649 -0.24038736 0 -1.021651e-05 0 0)
(-1.7117519 -0.23865482 0 9.4355529e-06 0 0)
(-1.729267 -0.24028615 0 -9.067199e-06 0 0)
(-1.712755 -0.23874905 0 8.5038366e-06 0 0)
(-1.7282915 -0.24019613 0 -8.1018878e-06 0 0)
(-1.7136559 -0.23883358 0 7.6517259e-06 0 0)
(-1.727421 -0.24011575 0 -7.2713628e-06 0 0)
(-1.7144649 -0.2389094 0 6.890922e-06 0 0)
(-1.7266418 -0.24004374 0 -6.5480796e-06 0 0)
(-1.7151922 -0.2389775 0 6.2192962e-06 0 0)
(-1.7259424 -0.23997906 0 -5.9160626e-06 0 0)
(-1.7158474 -0.23903879 0 5.6298269e-06 0 0)
(-1.7253126 -0.23992079 0 -5.3640554e-06 0 0)
(-1.7164393 -0.2390941 0 5.1149174e-06 0 0)
(-1.7247436 -0.23986812 0 -4.8833936e-06 0 0)
(-1.7169757 -0.2391442 0 4.6672446e-06 0 0)
(-1.7242276 -0.23982034 0 -4.4668487e-06 0 0)
(-1.7174639 -0.23918976 0 4.2804257e-06 0 0)
(-1.7237575 -0.23977679 0 -4.1082528e-06 0 0)
(-1.7179103 -0.23923138 0 3.9488812e-06 0 0)
(-1.7233268 -0.23973689 0 -3.8025973e-06 0 0)
(-1.7183209 -0.23926963 0 3.6679807e-06 0 0)
(-1.7229299 -0.23970012 0 -3.5455583e-06 0 0)
(-1.7187009 -0.23930501 0 3.4340042e-06 0 0)
(-1.7225615 -0.23966599 0 -3.3338507e-06 0 0)
(-1.7190553 -0.23933798 0 3.2442699e-06 0 0)
(-1.7222168 -0.23963405 0 -3.165203e-06 0 0)
(-1.7193887 -0.23936896 0 3.0968585e-06 0 0)
(-1.7218914 -0.23960392 0 -3.0424671e-06 0 0)
(-1.7197055 -0.23939841 0 2.9809957e-06 0 0)
(-1.7215803 -0.23957521 0 -2.9834073e-06 0 0)
(-1.7200061 -0.23942625 0 2.9527281e-06 0 0)
(-1.7212699 -0.23954522 0 -2.5560676e-06 0 0)
(-1.7202903 -0.23944733 0 4.5216035e-06 0 0)
(-1.7209744 -0.23952561 0 -4.3330153e-06 0 0)
(-1.5910015 -0.58366755 0 -0.16920815 0 0)
(-1.6373522 -0.26508071 0 -0.01583066 0 0)
(-1.7254557 -0.26684071 0 -0.009145966 0 0)
(-1.7002102 -0.24371319 0 -0.0020094556 0 0)
(-1.6093147 -0.2325006 0 -0.00063218046 0 0)
(-1.6356121 -0.23427679 0 -0.0002111423 0 0)
(-1.597125 -0.23055601 0 -0.00010792183 0 0)
(-1.6262477 -0.23316605 0 -2.7679579e-05 0 0)
(-1.5971064 -0.23040033 0 -1.5906538e-06 0 0)
(-1.6227378 -0.23286339 0 -1.0106298e-05 0 0)
(-1.5982513 -0.23051191 0 9.917775e-06 0 0)
(-1.6209847 -0.23272062 0 -1.070603e-05 0 0)
(-1.5994329 -0.23063405 0 9.5182892e-06 0 0)
(-1.6196665 -0.23259908 0 -9.7913956e-06 0 0)
(-1.6005465 -0.23074461 0 8.7117227e-06 0 0)
(-1.6185332 -0.23249079 0 -8.6178708e-06 0 0)
(-1.6015601 -0.23084415 0 7.9177681e-06 0 0)
(-1.6175334 -0.23239474 0 -7.6362192e-06 0 0)
(-1.6024729 -0.23093361 0 7.1467153e-06 0 0)
(-1.6166447 -0.23230928 0 -6.8187259e-06 0 0)
(-1.6032928 -0.23101387 0 6.4355085e-06 0 0)
(-1.6158516 -0.23223293 0 -6.1189381e-06 0 0)
(-1.6040291 -0.23108588 0 5.79809e-06 0 0)
(-1.6151416 -0.23216452 0 -5.5108027e-06 0 0)
(-1.6046913 -0.23115057 0 5.2345252e-06 0 0)
(-1.6145041 -0.23210306 0 -4.9798018e-06 0 0)
(-1.6052879 -0.23120882 0 4.7395369e-06 0 0)
(-1.61393 -0.23204766 0 -4.5160809e-06 0 0)
(-1.605827 -0.23126141 0 4.3070028e-06 0 0)
(-1.6134113 -0.23199757 0 -4.1122527e-06 0 0)
(-1.6063158 -0.23130906 0 3.9308279e-06 0 0)
(-1.6129408 -0.2319521 0 -3.762216e-06 0 0)
(-1.6067608 -0.23135241 0 3.605687e-06 0 0)
(-1.612512 -0.23191065 0 -3.4607644e-06 0 0)
(-1.6071677 -0.23139205 0 3.3268987e-06 0 0)
(-1.6121192 -0.23187265 0 -3.2037216e-06 0 0)
(-1.6075421 -0.23142849 0 3.0905738e-06 0 0)
(-1.6117571 -0.2318376 0 -2.9874269e-06 0 0)
(-1.6078886 -0.23146221 0 2.8935952e-06 0 0)
(-1.611421 -0.23180505 0 -2.8091171e-06 0 0)
(-1.6082119 -0.23149365 0 2.7337103e-06 0 0)
(-1.6111065 -0.23177458 0 -2.6668408e-06 0 0)
(-1.608516 -0.23152322 0 2.6092525e-06 0 0)
(-1.6108096 -0.23174582 0 -2.5634024e-06 0 0)
(-1.608805 -0.23155135 0 2.5090759e-06 0 0)
(-1.6105261 -0.23171841 0 -2.5173765e-06 0 0)
(-1.6090793 -0.23157799 0 2.4846673e-06 0 0)
(-1.6102424 -0.23168968 0 -2.0909629e-06 0 0)
(-1.6093324 -0.23159786 0 4.0053867e-06 0 0)
(-1.6099534 -0.2316694 0 -3.876732e-06 0 0)
(-1.5867315 -0.54641915 0 -0.14618876 0 0)
(-1.4881916 -0.25393471 0 -0.015636058 0 0)
(-1.5806619 -0.25621597 0 -0.0091573974 0 0)
(-1.58321 -0.23413241 0 -0.0015013561 0 0)
(-1.5065608 -0.22460257 0 -0.00055509704 0 0)
(-1.5272295 -0.22621839 0 -0.00017789684 0 0)
(-1.4916749 -0.22273122 0 -9.7964889e-05 0 0)
(-1.5178225 -0.22522149 0 -1.9218584e-05 0 0)
(-1.4911344 -0.22260868 0 -1.9183753e-06 0 0)
(-1.5143635 -0.22494574 0 -7.0549438e-06 0 0)
(-1.4920324 -0.22271595 0 8.3875302e-06 0 0)
(-1.5127093 -0.22481279 0 -8.7233121e-06 0 0)
(-1.4930748 -0.22283235 0 7.8589553e-06 0 0)
(-1.5115001 -0.22469822 0 -8.1401132e-06 0 0)
(-1.4940827 -0.2229375 0 7.175485e-06 0 0)
(-1.5104681 -0.22459573 0 -7.1602432e-06 0 0)
(-1.4950041 -0.223032 0 6.5383624e-06 0 0)
(-1.5095585 -0.2245047 0 -6.3335896e-06 0 0)
(-1.4958341 -0.22311687 0 5.9121384e-06 0 0)
(-1.5087497 -0.22442363 0 -5.6510023e-06 0 0)
(-1.4965796 -0.22319301 0 5.3287288e-06 0 0)
(-1.5080278 -0.22435118 0 -5.070131e-06 0 0)
(-1.4972493 -0.22326135 0 4.8033846e-06 0 0)
(-1.5073813 -0.22428625 0 -4.5666462e-06 0 0)
(-1.4978516 -0.22332276 0 4.3380088e-06 0 0)
(-1.5068008 -0.22422788 0 -4.1274341e-06 0 0)
(-1.4983945 -0.22337807 0 3.9288787e-06 0 0)
(-1.506278 -0.22417526 0 -3.7439335e-06 0 0)
(-1.4988852 -0.22342803 0 3.5712041e-06 0 0)
(-1.5058055 -0.22412766 0 -3.409919e-06 0 0)
(-1.4993301 -0.22347332 0 3.2600044e-06 0 0)
(-1.5053768 -0.22408443 0 -3.1203137e-06 0 0)
(-1.4997353 -0.22351454 0 2.9909127e-06 0 0)
(-1.5049861 -0.224045 0 -2.8707829e-06 0 0)
(-1.500106 -0.22355225 0 2.7600624e-06 0 0)
(-1.5046281 -0.22400883 0 -2.6579036e-06 0 0)
(-1.500447 -0.22358693 0 2.5642343e-06 0 0)
(-1.5042981 -0.22397547 0 -2.4786159e-06 0 0)
(-1.5007628 -0.22361905 0 2.4008554e-06 0 0)
(-1.5039917 -0.22394446 0 -2.330624e-06 0 0)
(-1.5010574 -0.22364901 0 2.2680565e-06 0 0)
(-1.5037049 -0.22391541 0 -2.2122643e-06 0 0)
(-1.5013346 -0.22367721 0 2.1643969e-06 0 0)
(-1.5034343 -0.22388797 0 -2.1262291e-06 0 0)
(-1.501598 -0.22370405 0 2.0785682e-06 0 0)
(-1.503176 -0.22386183 0 -2.091574e-06 0 0)
(-1.5018482 -0.22372952 0 2.0574554e-06 0 0)
(-1.5029171 -0.22383435 0 -1.6707457e-06 0 0)
(-1.5020736 -0.22374832 0 3.5083979e-06 0 0)
(-1.5026369 -0.22381358 0 -3.4489174e-06 0 0)
(-1.5824838 -0.52438774 0 -0.13335446 0 0)
(-1.367984 -0.24231299 0 -0.014942565 0 0)
(-1.4494353 -0.2457989 0 -0.0091672274 0 0)
(-1.4751261 -0.22514556 0 -0.0011236701 0 0)
(-1.4068984 -0.21672231 0 -0.00048093118 0 0)
(-1.4231907 -0.21821172 0 -0.00014243655 0 0)
(-1.3899907 -0.21491466 0 -8.6196257e-05 0 0)
(-1.4133567 -0.21728889 0 -1.0272386e-05 0 0)
(-1.3888555 -0.21481881 0 -1.7388544e-06 0 0)
(-1.409834 -0.21703298 0 -4.0804909e-06 0 0)
(-1.3894623 -0.21491924 0 7.0890907e-06 0 0)
(-1.4082298 -0.21690761 0 -6.8720641e-06 0 0)
(-1.3903534 -0.21502921 0 6.3681135e-06 0 0)
(-1.4071072 -0.21679924 0 -6.6212449e-06 0 0)
(-1.3912568 -0.2151289 0 5.7793622e-06 0 0)
(-1.4061644 -0.21670221 0 -5.8267652e-06 0 0)
(-1.3920911 -0.21521847 0 5.2806308e-06 0 0)
(-1.4053368 -0.21661597 0 -5.1438047e-06 0 0)
(-1.3928444 -0.2152989 0 4.7852936e-06 0 0)
(-1.4046014 -0.21653914 0 -4.5847645e-06 0 0)
(-1.3935214 -0.21537107 0 4.3181342e-06 0 0)
(-1.403945 -0.21647046 0 -4.1124092e-06 0 0)
(-1.3941297 -0.21543586 0 3.8949117e-06 0 0)
(-1.4033571 -0.21640887 0 -3.7043376e-06 0 0)
(-1.394677 -0.2154941 0 3.519045e-06 0 0)
(-1.4028291 -0.21635349 0 -3.3487965e-06 0 0)
(-1.3951704 -0.21554658 0 3.1881909e-06 0 0)
(-1.4023535 -0.21630355 0 -3.0384213e-06 0 0)
(-1.3956165 -0.215594 0 2.8987687e-06 0 0)
(-1.4019236 -0.21625836 0 -2.768047e-06 0 0)
(-1.3960211 -0.215637 0 2.64681e-06 0 0)
(-1.4015334 -0.2162173 0 -2.5335299e-06 0 0)
(-1.3963897 -0.21567617 0 2.4288198e-06 0 0)
(-1.4011778 -0.21617982 0 -2.331328e-06 0 0)
(-1.396727 -0.21571201 0 2.2416738e-06 0 0)
(-1.4008519 -0.21614544 0 -2.1587029e-06 0 0)
(-1.3970373 -0.21574499 0 2.0827599e-06 0 0)
(-1.4005514 -0.21611369 0 -2.0131391e-06 0 0)
(-1.3973248 -0.21577555 0 1.9499996e-06 0 0)
(-1.4002724 -0.21608417 0 -1.8927654e-06 0 0)
(-1.397593 -0.21580408 0 1.8418666e-06 0 0)
(-1.4000113 -0.21605651 0 -1.7961784e-06 0 0)
(-1.3978453 -0.21583094 0 1.7571272e-06 0 0)
(-1.3997648 -0.21603036 0 -1.7259094e-06 0 0)