/*--------------------------------*- C++ -*----------------------------------*\
| =========                 |                                                 |
| \\      /  F ield         | OpenFOAM: The Open Source CFD Toolbox           |
|  \\    /   O peration     | Version:  2312                                  |
|   \\  /    A nd           | Website:  www.openfoam.com                      |
|    \\/     M anipulation  |                                                 |
\*---------------------------------------------------------------------------*/
FoamFile
{
    version     2.0;
    format      ascii;
    arch        "LSB;label=32;scalar=64";
    class       volSymmTensorField;
    location    "3";
    object      sigma_0;
}
// * * * * * * * * * * * * * * * * * * * * * * * * * * * * * * * * * * * * * //

dimensions      [0 2 -2 0 0 0 0];

internalField   nonuniform List<symmTensor> 
4000
(
(-2.2856346 -1.0135557 0 -0.40541473 0 0)
(-5.6681367 -0.44164803 0 -0.0029485679 0 0)
(-2.9230802 -0.31326699 0 -0.00086246259 0 0)
(-3.1197623 -0.32240129 0 1.1269828e-05 0 0)
(-2.9349788 -0.31261549 0 2.1625604e-05 0 0)
(-3.0395882 -0.31857581 0 -5.4484182e-05 0 0)
(-2.919084 -0.31173901 0 3.489618e-05 0 0)
(-3.0037828 -0.3166327 0 -4.3080996e-05 0 0)
(-2.9221725 -0.31191015 0 3.8623614e-05 0 0)
(-2.994675 -0.31612945 0 -3.7918382e-05 0 0)
(-2.9265948 -0.3121649 0 3.5559964e-05 0 0)
(-2.9898779 -0.31585685 0 -3.3925737e-05 0 0)
(-2.930176 -0.31237378 0 3.1931319e-05 0 0)
(-2.9861861 -0.31564434 0 -3.0289982e-05 0 0)
(-2.9333397 -0.31255864 0 2.8566052e-05 0 0)
(-2.9830345 -0.31546214 0 -2.7051974e-05 0 0)
(-2.9361993 -0.31272554 0 2.5552951e-05 0 0)
(-2.9802604 -0.31530155 0 -2.419474e-05 0 0)
(-2.9387725 -0.31287557 0 2.2881816e-05 0 0)
(-2.9777945 -0.31515874 0 -2.1676775e-05 0 0)
(-2.9410803 -0.31300998 0 2.0523725e-05 0 0)
(-2.9755936 -0.31503131 0 -1.9460229e-05 0 0)
(-2.9431484 -0.31313029 0 1.8447711e-05 0 0)
(-2.9736244 -0.31491735 0 -1.7512358e-05 0 0)
(-2.9450037 -0.31323805 0 1.6624645e-05 0 0)
(-2.9718584 -0.31481526 0 -1.5804526e-05 0 0)
(-2.946671 -0.31333474 0 1.5028181e-05 0 0)
(-2.9702704 -0.31472358 0 -1.4311545e-05 0 0)
(-2.9481734 -0.31342168 0 1.3634921e-05 0 0)
(-2.9688381 -0.31464103 0 -1.3011342e-05 0 0)
(-2.9495317 -0.31350009 0 1.2424313e-05 0 0)
(-2.9675412 -0.31456645 0 -1.1884664e-05 0 0)
(-2.9507646 -0.31357106 0 1.1378471e-05 0 0)
(-2.9663618 -0.31449881 0 -1.0914837e-05 0 0)
(-2.9518892 -0.31363558 0 1.0481947e-05 0 0)
(-2.9652835 -0.31443717 0 -1.008755e-05 0 0)
(-2.9529208 -0.31369453 0 9.7215618e-06 0 0)
(-2.9642915 -0.31438069 0 -9.3906632e-06 0 0)
(-2.9538734 -0.31374873 0 9.0862258e-06 0 0)
(-2.9633723 -0.31432858 0 -8.8140807e-06 0 0)
(-2.9547599 -0.31379891 0 8.5668627e-06 0 0)
(-2.9625135 -0.31428016 0 -8.3497436e-06 0 0)
(-2.9555921 -0.31384573 0 8.1563076e-06 0 0)
(-2.9617034 -0.31423476 0 -7.9922342e-06 0 0)
(-2.9563796 -0.31388976 0 7.8494143e-06 0 0)
(-2.9609282 -0.31419162 0 -7.7366255e-06 0 0)
(-2.9571345 -0.31393154 0 7.6636318e-06 0 0)
(-2.9602207 -0.31415215 0 -7.5203513e-06 0 0)
(-2.9580737 -0.31398167 0 7.7946164e-06 0 0)
(-2.9602517 -0.31415356 0 -7.5802298e-06 0 0)
(-1.9711416 -0.91693716 0 -0.37841701 0 0)
(-4.8777665 -0.4219323 0 -0.0080714009 0 0)
(-2.9866351 -0.32145035 0 -0.002584354 0 0)
(-2.8814952 -0.30956441 0 -2.2514226e-05 0 0)
(-2.7200176 -0.30099239 0 -4.4942052e-06 0 0)
(-2.811053 -0.30654467 0 -7.4701816e-05 0 0)
(-2.7100169 -0.30032011 0 1.8751933e-05 0 0)
(-2.7802325 -0.3047157 0 -4.889019e-05 0 0)
(-2.7108113 -0.30033197 0 3.9449507e-05 0 0)
(-2.7723273 -0.30424785 0 -4.1231998e-05 0 0)
(-2.7143518 -0.3005528 0 3.8295199e-05 0 0)
(-2.7682833 -0.30399975 0 -3.7047115e-05 0 0)
(-2.7173656 -0.30074517 0 3.468336e-05 0 0)
(-2.7651393 -0.30380223 0 -3.3078993e-05 0 0)
(-2.7200486 -0.30091717 0 3.1104885e-05 0 0)
(-2.7624443 -0.30363179 0 -2.9517404e-05 0 0)
(-2.7224799 -0.3010729 0 2.7848961e-05 0 0)
(-2.7600727 -0.30348155 0 -2.6389167e-05 0 0)
(-2.7246698 -0.30121296 0 2.4947439e-05 0 0)
(-2.7579656 -0.30334801 0 -2.3640759e-05 0 0)
(-2.7266346 -0.30133846 0 2.2381511e-05 0 0)
(-2.7560851 -0.30322887 0 -2.1224716e-05 0 0)
(-2.7283963 -0.30145081 0 2.0121314e-05 0 0)
(-2.7544024 -0.30312233 0 -1.9102843e-05 0 0)
(-2.7299773 -0.30155148 0 1.81363e-05 0 0)
(-2.7528928 -0.30302685 0 -1.7243057e-05 0 0)
(-2.731399 -0.30164182 0 1.6398105e-05 0 0)
(-2.7515347 -0.30294108 0 -1.5617583e-05 0 0)
(-2.7326809 -0.30172309 0 1.488136e-05 0 0)
(-2.750309 -0.30286383 0 -1.42023e-05 0 0)
(-2.7338408 -0.30179644 0 1.3563731e-05 0 0)
(-2.7491985 -0.30279399 0 -1.2976239e-05 0 0)
(-2.7348946 -0.30186286 0 1.2425807e-05 0 0)
(-2.7481877 -0.30273062 0 -1.1921298e-05 0 0)
(-2.7358568 -0.30192329 0 1.1450852e-05 0 0)
(-2.7472628 -0.30267282 0 -1.1022022e-05 0 0)
(-2.7367404 -0.30197855 0 1.0624675e-05 0 0)
(-2.746411 -0.30261982 0 -1.0265372e-05 0 0)
(-2.7375574 -0.30202939 0 9.9354543e-06 0 0)
(-2.7456208 -0.30257089 0 -9.6406879e-06 0 0)
(-2.7383188 -0.3020765 0 9.373776e-06 0 0)
(-2.7448817 -0.30252538 0 -9.1398292e-06 0 0)
(-2.7390347 -0.30212051 0 8.9325607e-06 0 0)
(-2.7441836 -0.30248269 0 -8.7590228e-06 0 0)
(-2.7397136 -0.30216195 0 8.6063798e-06 0 0)
(-2.7435139 -0.30244207 0 -8.4964598e-06 0 0)
(-2.7403613 -0.30220096 0 8.4388803e-06 0 0)
(-2.7428799 -0.30240319 0 -8.1996865e-06 0 0)
(-2.7411113 -0.30224235 0 9.0081615e-06 0 0)
(-2.7427674 -0.30239613 0 -8.1911478e-06 0 0)
(-1.8697087 -0.87509229 0 -0.35628593 0 0)
(-4.28081 -0.39519909 0 -0.0097310531 0 0)
(-2.9004328 -0.32081385 0 -0.0038953647 0 0)
(-2.7512968 -0.30244904 0 -0.00012231665 0 0)
(-2.5811526 -0.29319443 0 -2.5313464e-05 0 0)
(-2.6626069 -0.29845237 0 -8.5728336e-05 0 0)
(-2.5733572 -0.2926293 0 2.4336065e-06 0 0)
(-2.6357154 -0.2967498 0 -4.9463816e-05 0 0)
(-2.5735758 -0.29257992 0 3.5862111e-05 0 0)
(-2.628518 -0.29630019 0 -3.9644483e-05 0 0)
(-2.5766432 -0.29278289 0 3.6502985e-05 0 0)
(-2.6249034 -0.29606681 0 -3.5691655e-05 0 0)
(-2.5793302 -0.29296562 0 3.325244e-05 0 0)
(-2.6220954 -0.29587933 0 -3.1860088e-05 0 0)
(-2.5817294 -0.29312948 0 2.9873981e-05 0 0)
(-2.6196841 -0.29571695 0 -2.8404726e-05 0 0)
(-2.5839045 -0.29327792 0 2.6766253e-05 0 0)
(-2.6175623 -0.2955738 0 -2.53836e-05 0 0)
(-2.5858643 -0.29341145 0 2.3984777e-05 0 0)
(-2.6156776 -0.29544659 0 -2.2736626e-05 0 0)
(-2.5876232 -0.29353112 0 2.1521006e-05 0 0)
(-2.613996 -0.2953331 0 -2.0412561e-05 0 0)
(-2.5892004 -0.29363826 0 1.9349543e-05 0 0)
(-2.612491 -0.2952316 0 -1.8372486e-05 0 0)
(-2.5906163 -0.29373427 0 1.7442108e-05 0 0)
(-2.6111407 -0.29514062 0 -1.6584795e-05 0 0)
(-2.5918898 -0.29382047 0 1.5771762e-05 0 0)
(-2.6099256 -0.29505886 0 -1.5022501e-05 0 0)
(-2.5930385 -0.29389805 0 1.4314242e-05 0 0)
(-2.6088286 -0.29498518 0 -1.3662349e-05 0 0)
(-2.5940783 -0.29396809 0 1.3048135e-05 0 0)
(-2.6078343 -0.29491855 0 -1.2484182e-05 0 0)
(-2.5950233 -0.29403155 0 1.1954848e-05 0 0)
(-2.606929 -0.29485804 0 -1.1470646e-05 0 0)
(-2.5958865 -0.29408932 0 1.1018377e-05 0 0)
(-2.6061001 -0.29480282 0 -1.0606996e-05 0 0)
(-2.5966796 -0.29414219 0 1.0225222e-05 0 0)
(-2.6053364 -0.29475214 0 -9.8808609e-06 0 0)
(-2.5974132 -0.29419086 0 9.5642588e-06 0 0)
(-2.6046275 -0.29470532 0 -9.2823016e-06 0 0)
(-2.5980972 -0.294236 0 9.0268761e-06 0 0)
(-2.6039639 -0.29466173 0 -8.8040749e-06 0 0)
(-2.5987407 -0.2942782 0 8.607032e-06 0 0)
(-2.6033367 -0.2946208 0 -8.4443946e-06 0 0)
(-2.5993516 -0.29431798 0 8.2997954e-06 0 0)
(-2.6027344 -0.29458185 0 -8.2066477e-06 0 0)
(-2.5999341 -0.29435539 0 8.1609864e-06 0 0)
(-2.6021575 -0.29454392 0 -7.8995574e-06 0 0)
(-2.6005921 -0.29439275 0 9.0033526e-06 0 0)
(-2.6019875 -0.29453493 0 -8.4138321e-06 0 0)
(-1.7766964 -0.82684571 0 -0.32861901 0 0)
(-3.8648263 -0.3776881 0 -0.011447963 0 0)
(-2.7978311 -0.31991937 0 -0.0053721942 0 0)
(-2.6282807 -0.29559823 0 -0.00022934183 0 0)
(-2.4485771 -0.28554674 0 -6.0104314e-05 0 0)
(-2.5192699 -0.29037561 0 -9.526259e-05 0 0)
(-2.4396592 -0.28493164 0 -1.8467566e-05 0 0)
(-2.4956397 -0.2887887 0 -4.628997e-05 0 0)
(-2.4394698 -0.28482823 0 2.8565492e-05 0 0)
(-2.4890474 -0.28835593 0 -3.4581857e-05 0 0)
(-2.4421396 -0.28501335 0 3.1480101e-05 0 0)
(-2.4857764 -0.28813647 0 -3.126511e-05 0 0)
(-2.4445534 -0.28518644 0 2.8927547e-05 0 0)
(-2.4832401 -0.28795871 0 -2.7904939e-05 0 0)
(-2.446718 -0.28534216 0 2.605702e-05 0 0)
(-2.4810581 -0.28780417 0 -2.4846499e-05 0 0)
(-2.4486808 -0.28548327 0 2.3372394e-05 0 0)
(-2.4791378 -0.2876679 0 -2.2189889e-05 0 0)
(-2.4504497 -0.28561024 0 2.0953584e-05 0 0)
(-2.4774325 -0.28754683 0 -1.9872013e-05 0 0)
(-2.4520374 -0.28572404 0 1.8805668e-05 0 0)
(-2.4759112 -0.28743882 0 -1.7840631e-05 0 0)
(-2.4534615 -0.28582596 0 1.6910876e-05 0 0)
(-2.4745498 -0.2873422 0 -1.6058781e-05 0 0)
(-2.4547402 -0.28591732 0 1.524596e-05 0 0)
(-2.4733282 -0.28725557 0 -1.4497835e-05 0 0)
(-2.4558906 -0.28599937 0 1.3787825e-05 0 0)
(-2.4722289 -0.28717769 0 -1.3133848e-05 0 0)
(-2.4569284 -0.28607325 0 1.2515444e-05 0 0)
(-2.4712364 -0.28710747 0 -1.1946414e-05 0 0)
(-2.457868 -0.28613999 0 1.141017e-05 0 0)
(-2.4703366 -0.28704393 0 -1.0917921e-05 0 0)
(-2.4587222 -0.2862005 0 1.045583e-05 0 0)
(-2.4695172 -0.28698619 0 -1.0033241e-05 0 0)
(-2.4595027 -0.28625562 0 9.6385069e-06 0 0)
(-2.468767 -0.28693347 0 -9.2795963e-06 0 0)
(-2.4602198 -0.2863061 0 8.946525e-06 0 0)
(-2.4680757 -0.28688504 0 -8.6462943e-06 0 0)
(-2.4608834 -0.28635262 0 8.3703435e-06 0 0)
(-2.4674339 -0.28684025 0 -8.124878e-06 0 0)
(-2.4615022 -0.2863958 0 7.9027607e-06 0 0)
(-2.4668332 -0.28679852 0 -7.7094291e-06 0 0)
(-2.4620845 -0.28643622 0 7.5389634e-06 0 0)
(-2.4662653 -0.2867593 0 -7.4000291e-06 0 0)
(-2.4626374 -0.28647438 0 7.273781e-06 0 0)
(-2.4657201 -0.28672194 0 -7.2037484e-06 0 0)
(-2.463164 -0.28651023 0 7.1730142e-06 0 0)
(-2.4651918 -0.28668492 0 -6.8733311e-06 0 0)
(-2.4637416 -0.28654384 0 8.2964378e-06 0 0)
(-2.4649691 -0.28667354 0 -7.7906249e-06 0 0)
(-1.7038911 -0.78358351 0 -0.30271957 0 0)
(-3.4487442 -0.35970282 0 -0.01290106 0 0)
(-2.6560255 -0.31627726 0 -0.0066733412 0 0)
(-2.5044815 -0.28870046 0 -0.00033652114 0 0)
(-2.3224023 -0.27802458 0 -0.00010143335 0 0)
(-2.3808563 -0.28232316 0 -0.00010612973 0 0)
(-2.3092203 -0.27720897 0 -3.7101406e-05 0 0)
(-2.3597327 -0.28083589 0 -4.309015e-05 0 0)
(-2.3086574 -0.27706671 0 2.174058e-05 0 0)
(-2.3536463 -0.28041888 0 -2.9648083e-05 0 0)
(-2.3109876 -0.27723643 0 2.668612e-05 0 0)
(-2.3506616 -0.28021191 0 -2.6958697e-05 0 0)
(-2.3131665 -0.27740091 0 2.4751339e-05 0 0)
(-2.3483584 -0.28004316 0 -2.4063544e-05 0 0)
(-2.3151312 -0.27754925 0 2.2359312e-05 0 0)
(-2.3463746 -0.27989594 0 -2.1393742e-05 0 0)
(-2.316913 -0.27768364 0 2.0082364e-05 0 0)
(-2.3446283 -0.27976609 0 -1.9091902e-05 0 0)
(-2.3185187 -0.27780457 0 1.8014574e-05 0 0)
(-2.3430777 -0.27965073 0 -1.7093528e-05 0 0)
(-2.3199601 -0.27791298 0 1.6172582e-05 0 0)
(-2.3416946 -0.27954781 0 -1.5345964e-05 0 0)
(-2.3212532 -0.2780101 0 1.454575e-05 0 0)
(-2.340457 -0.27945573 0 -1.3814352e-05 0 0)
(-2.3224144 -0.27809718 0 1.3115672e-05 0 0)
(-2.3393464 -0.27937314 0 -1.247304e-05 0 0)
(-2.3234593 -0.27817541 0 1.1862978e-05 0 0)
(-2.338347 -0.27929887 0 -1.1301067e-05 0 0)
(-2.3244022 -0.27824588 0 1.0769776e-05 0 0)
(-2.3374445 -0.27923187 0 -1.0280802e-05 0 0)
(-2.3252559 -0.27830957 0 9.8200934e-06 0 0)
(-2.3366265 -0.27917122 0 -9.3970913e-06 0 0)
(-2.3260322 -0.27836735 0 9.0000849e-06 0 0)
(-2.3358814 -0.27911607 0 -8.6369469e-06 0 0)
(-2.3267414 -0.27842001 0 8.2978251e-06 0 0)
(-2.3351992 -0.27906568 0 -7.9894535e-06 0 0)
(-2.3273933 -0.27846827 0 7.7033494e-06 0 0)
(-2.3345706 -0.27901937 0 -7.4454815e-06 0 0)
(-2.3279964 -0.27851277 0 7.2085607e-06 0 0)
(-2.3339872 -0.27897651 0 -6.997886e-06 0 0)
(-2.3285587 -0.27855411 0 6.8074536e-06 0 0)
(-2.333441 -0.27893653 0 -6.6417917e-06 0 0)
(-2.3290879 -0.27859284 0 6.4960926e-06 0 0)
(-2.3329249 -0.27889894 0 -6.3784624e-06 0 0)
(-2.3295905 -0.27862945 0 6.2683674e-06 0 0)
(-2.3324296 -0.27886312 0 -6.2176417e-06 0 0)
(-2.3300685 -0.27866386 0 6.1935428e-06 0 0)
(-2.3319462 -0.27882713 0 -5.8627189e-06 0 0)
(-2.3305795 -0.27869448 0 7.5166865e-06 0 0)
(-2.3316889 -0.27881382 0 -7.0950633e-06 0 0)
(-1.6519185 -0.74661232 0 -0.27952168 0 0)
(-3.0640507 -0.34055626 0 -0.013404828 0 0)
(-2.5025129 -0.31126832 0 -0.0077541699 0 0)
(-2.3782749 -0.28159873 0 -0.00043171328 0 0)
(-2.2000773 -0.27052246 0 -0.00014738121 0 0)
(-2.2468673 -0.27428039 0 -0.0001177567 0 0)
(-2.1820866 -0.26945959 0 -5.2426934e-05 0 0)
(-2.2277962 -0.27288418 0 -4.0275491e-05 0 0)
(-2.1812623 -0.26929739 0 1.6150102e-05 0 0)
(-2.2221797 -0.27248586 0 -2.5478189e-05 0 0)
(-2.1833104 -0.26945486 0 2.2762461e-05 0 0)
(-2.2194537 -0.27229114 0 -2.3370486e-05 0 0)
(-2.1852827 -0.26961161 0 2.1296192e-05 0 0)
(-2.2173594 -0.27213105 0 -2.0875592e-05 0 0)
(-2.1870706 -0.26975306 0 1.9292046e-05 0 0)
(-2.2155531 -0.27199084 0 -1.8529885e-05 0 0)
(-2.1886915 -0.26988111 0 1.7353212e-05 0 0)
(-2.2139622 -0.27186708 0 -1.6522295e-05 0 0)
(-2.1901519 -0.26999632 0 1.5577072e-05 0 0)
(-2.2125496 -0.27175713 0 -1.4788896e-05 0 0)
(-2.1914631 -0.27009962 0 1.3989014e-05 0 0)
(-2.2112896 -0.27165903 0 -1.327674e-05 0 0)
(-2.1926396 -0.27019218 0 1.2584435e-05 0 0)
(-2.2101622 -0.27157124 0 -1.1952668e-05 0 0)
(-2.1936962 -0.2702752 0 1.1349056e-05 0 0)
(-2.2091505 -0.27149248 0 -1.0793485e-05 0 0)
(-2.1946472 -0.27034981 0 1.0266643e-05 0 0)
(-2.2082399 -0.27142163 0 -9.7807098e-06 0 0)
(-2.1955055 -0.27041705 0 9.3219261e-06 0 0)
(-2.2074177 -0.2713577 0 -8.8990144e-06 0 0)
(-2.1962828 -0.27047784 0 8.5011542e-06 0 0)
(-2.2066723 -0.27129978 0 -8.1352839e-06 0 0)
(-2.1969896 -0.27053301 0 7.7924038e-06 0 0)
(-2.2059934 -0.2712471 0 -7.4782935e-06 0 0)
(-2.1976356 -0.27058333 0 7.1853898e-06 0 0)
(-2.2053718 -0.27119894 0 -6.9186592e-06 0 0)
(-2.1982292 -0.27062947 0 6.6715406e-06 0 0)
(-2.204799 -0.27115465 0 -6.4485123e-06 0 0)
(-2.1987785 -0.27067204 0 6.2439146e-06 0 0)
(-2.2042673 -0.27111363 0 -6.0617429e-06 0 0)
(-2.1992907 -0.27071162 0 5.8974203e-06 0 0)
(-2.2037698 -0.27107535 0 -5.7542254e-06 0 0)
(-2.1997726 -0.27074871 0 5.6287102e-06 0 0)
(-2.2032998 -0.27103932 0 -5.5279289e-06 0 0)
(-2.2002303 -0.27078383 0 5.4304759e-06 0 0)
(-2.202849 -0.27100499 0 -5.3946524e-06 0 0)
(-2.2006652 -0.27081685 0 5.3720938e-06 0 0)
(-2.2024062 -0.2709701 0 -5.0148741e-06 0 0)
(-2.2011184 -0.27084494 0 6.8313817e-06 0 0)
(-2.2021265 -0.27095507 0 -6.4639347e-06 0 0)
(-1.6181205 -0.70098951 0 -0.24747145 0 0)
(-2.7012424 -0.32363856 0 -0.014118691 0 0)
(-2.3363858 -0.3042952 0 -0.0085134115 0 0)
(-2.2452072 -0.27421134 0 -0.0005869553 0 0)
(-2.0823705 -0.26325085 0 -0.00023100189 0 0)
(-2.1181435 -0.26633764 0 -0.00013833881 0 0)
(-2.0589017 -0.26173194 0 -6.8259009e-05 0 0)
(-2.1000568 -0.26494902 0 -3.8338696e-05 0 0)
(-2.0574857 -0.26152992 0 1.1259559e-05 0 0)
(-2.0946611 -0.26455841 0 -2.1924899e-05 0 0)
(-2.059186 -0.26167161 0 1.9453467e-05 0 0)
(-2.0921205 -0.26437327 0 -2.0309471e-05 0 0)
(-2.0609503 -0.26182014 0 1.8363761e-05 0 0)
(-2.090205 -0.26422116 0 -1.8162262e-05 0 0)
(-2.0625743 -0.26195483 0 1.6682573e-05 0 0)
(-2.0885579 -0.26408767 0 -1.6093827e-05 0 0)
(-2.0640494 -0.26207675 0 1.50311e-05 0 0)
(-2.0871074 -0.26396979 0 -1.4336586e-05 0 0)
(-2.0653786 -0.26218645 0 1.3503401e-05 0 0)
(-2.0858196 -0.26386507 0 -1.282851e-05 0 0)
(-2.0665722 -0.26228482 0 1.2131508e-05 0 0)
(-2.084671 -0.26377161 0 -1.151655e-05 0 0)
(-2.0676433 -0.26237298 0 1.0916012e-05 0 0)
(-2.0836431 -0.26368797 0 -1.0368975e-05 0 0)
(-2.0686056 -0.26245208 0 9.846225e-06 0 0)
(-2.0827207 -0.2636129 0 -9.3646672e-06 0 0)
(-2.0694719 -0.2625232 0 8.9086104e-06 0 0)
(-2.0818904 -0.26354535 0 -8.4872599e-06 0 0)
(-2.0702539 -0.26258732 0 8.0901461e-06 0 0)
(-2.0811406 -0.26348436 0 -7.7233829e-06 0 0)
(-2.0709622 -0.26264531 0 7.378972e-06 0 0)
(-2.0804608 -0.26342909 0 -7.0616544e-06 0 0)
(-2.0716065 -0.26269797 0 6.7647977e-06 0 0)
(-2.0798416 -0.2633788 0 -6.492343e-06 0 0)
(-2.0721953 -0.26274603 0 6.2387269e-06 0 0)
(-2.0792746 -0.26333279 0 -6.0073594e-06 0 0)
(-2.0727366 -0.26279011 0 5.7933593e-06 0 0)
(-2.0787521 -0.26329045 0 -5.5998919e-06 0 0)
(-2.0732374 -0.26283081 0 5.4227167e-06 0 0)
(-2.0782672 -0.26325122 0 -5.2646819e-06 0 0)
(-2.0737044 -0.26286868 0 5.1224478e-06 0 0)
(-2.0778134 -0.26321458 0 -4.9981894e-06 0 0)
(-2.0741438 -0.26290419 0 4.889651e-06 0 0)
(-2.0773847 -0.26318008 0 -4.8028247e-06 0 0)
(-2.0745611 -0.26293785 0 4.7158751e-06 0 0)
(-2.076974 -0.26314719 0 -4.6922157e-06 0 0)
(-2.0749573 -0.26296953 0 4.6685995e-06 0 0)
(-2.0765686 -0.26311347 0 -4.2921031e-06 0 0)
(-2.0753602 -0.26299547 0 6.212422e-06 0 0)
(-2.0762758 -0.26309696 0 -5.8872822e-06 0 0)
(-1.6076429 -0.6762424 0 -0.23053487 0 0)
(-2.3618355 -0.30801335 0 -0.015255145 0 0)
(-2.1820034 -0.29736119 0 -0.0090100368 0 0)
(-2.0994602 -0.26568786 0 -0.00075767584 0 0)
(-1.9554473 -0.25530706 0 -0.00030377451 0 0)
(-1.9903785 -0.25826454 0 -0.00015752134 0 0)
(-1.9376271 -0.25392954 0 -8.1353049e-05 0 0)
(-1.9756246 -0.25699448 0 -3.6383301e-05 0 0)
(-1.9369725 -0.25374968 0 7.0832027e-06 0 0)
(-1.9709021 -0.25662998 0 -1.8687178e-05 0 0)
(-1.9385689 -0.25388448 0 1.6583734e-05 0 0)
(-1.9686107 -0.2564569 0 -1.7569005e-05 0 0)
(-1.9401777 -0.25402635 0 1.577815e-05 0 0)
(-1.9668709 -0.25631301 0 -1.5749346e-05 0 0)
(-1.9416586 -0.25415475 0 1.4370185e-05 0 0)
(-1.9653709 -0.25618614 0 -1.3931929e-05 0 0)
(-1.9430025 -0.25427079 0 1.2971388e-05 0 0)
(-1.9640487 -0.25607399 0 -1.239767e-05 0 0)
(-1.9442129 -0.25437516 0 1.1663809e-05 0 0)
(-1.9628744 -0.25597432 0 -1.108953e-05 0 0)
(-1.9452999 -0.25446876 0 1.0483621e-05 0 0)
(-1.9618269 -0.25588537 0 -9.9550809e-06 0 0)
(-1.9462755 -0.25455268 0 9.435793e-06 0 0)
(-1.9608895 -0.25580573 0 -8.9639717e-06 0 0)
(-1.9471523 -0.254628 0 8.5128244e-06 0 0)
(-1.9600481 -0.25573423 0 -8.0969546e-06 0 0)
(-1.9479417 -0.25469574 0 7.7035799e-06 0 0)
(-1.9592908 -0.25566986 0 -7.33954e-06 0 0)
(-1.9486545 -0.25475683 0 6.99704e-06 0 0)
(-1.9586067 -0.25561173 0 -6.6800965e-06 0 0)
(-1.9493003 -0.25481212 0 6.3830202e-06 0 0)
(-1.9579864 -0.25555903 0 -6.1087776e-06 0 0)
(-1.9498878 -0.25486235 0 5.8526764e-06 0 0)
(-1.9574214 -0.25551104 0 -5.6171711e-06 0 0)
(-1.9504249 -0.2549082 0 5.3983401e-06 0 0)
(-1.9569039 -0.25546712 0 -5.198331e-06 0 0)
(-1.9509186 -0.2549503 0 5.0136405e-06 0 0)
(-1.956427 -0.25542668 0 -4.8463706e-06 0 0)
(-1.9513756 -0.25498919 0 4.6934425e-06 0 0)
(-1.9559844 -0.25538919 0 -4.5567727e-06 0 0)
(-1.9518017 -0.25502538 0 4.4340284e-06 0 0)
(-1.9555702 -0.25535415 0 -4.326486e-06 0 0)
(-1.9522026 -0.25505936 0 4.2328725e-06 0 0)
(-1.9551791 -0.25532113 0 -4.1581962e-06 0 0)
(-1.9525834 -0.25509159 0 4.0805457e-06 0 0)
(-1.9548046 -0.25528966 0 -4.0671733e-06 0 0)
(-1.9529447 -0.25512197 0 4.0414499e-06 0 0)
(-1.9544333 -0.25525714 0 -3.6523334e-06 0 0)
(-1.9533033 -0.25514606 0 5.62819e-06 0 0)
(-1.9541345 -0.25523939 0 -5.3436103e-06 0 0)
(-1.5971379 -0.63504569 0 -0.20227027 0 0)
(-2.0571888 -0.29325334 0 -0.01617402 0 0)
(-2.028344 -0.28737766 0 -0.0086716522 0 0)
(-1.9651419 -0.2597716 0 -0.0015228842 0 0)
(-1.8383262 -0.24806917 0 -0.00048537668 0 0)
(-1.8685049 -0.25033574 0 -0.00019193872 0 0)
(-1.8208241 -0.24617534 0 -9.7251967e-05 0 0)
(-1.8554438 -0.24906024 0 -3.5203008e-05 0 0)
(-1.8201801 -0.24597397 0 3.1923701e-06 0 0)
(-1.8510629 -0.24870737 0 -1.577971e-05 0 0)
(-1.8215551 -0.24609643 0 1.4025903e-05 0 0)
(-1.8489409 -0.24854331 0 -1.509052e-05 0 0)
(-1.8229957 -0.2462308 0 1.3459e-05 0 0)
(-1.8473485 -0.24840685 0 -1.3571918e-05 0 0)
(-1.8243406 -0.24635292 0 1.2289248e-05 0 0)
(-1.8459802 -0.24828631 0 -1.1983833e-05 0 0)
(-1.825564 -0.24646324 0 1.1116316e-05 0 0)
(-1.8447746 -0.24817969 0 -1.0651114e-05 0 0)
(-1.8266661 -0.24656246 0 1.0006686e-05 0 0)
(-1.8437037 -0.2480849 0 -9.5230759e-06 0 0)
(-1.8276561 -0.24665147 0 8.9990572e-06 0 0)
(-1.8427484 -0.24800029 0 -8.5484075e-06 0 0)
(-1.8285448 -0.24673129 0 8.1021506e-06 0 0)
(-1.8418934 -0.24792451 0 -7.6981122e-06 0 0)
(-1.8293436 -0.24680295 0 7.3113248e-06 0 0)
(-1.841126 -0.24785647 0 -6.9546423e-06 0 0)
(-1.8300631 -0.24686743 0 6.6176134e-06 0 0)
(-1.8404351 -0.24779518 0 -6.305207e-06 0 0)
(-1.8307129 -0.2469256 0 6.0118018e-06 0 0)
(-1.8398109 -0.24773981 0 -5.7397385e-06 0 0)
(-1.8313018 -0.24697827 0 5.4852145e-06 0 0)
(-1.8392448 -0.24768959 0 -5.2497714e-06 0 0)
(-1.8318377 -0.24702614 0 5.030306e-06 0 0)
(-1.8387291 -0.24764384 0 -4.8280768e-06 0 0)
(-1.8323276 -0.24706987 0 4.6405101e-06 0 0)
(-1.8382568 -0.24760194 0 -4.4687327e-06 0 0)
(-1.8327781 -0.24711003 0 4.310375e-06 0 0)
(-1.8378214 -0.24756334 0 -4.1666781e-06 0 0)
(-1.8331951 -0.24714716 0 4.0355154e-06 0 0)
(-1.8374174 -0.24752753 0 -3.9180489e-06 0 0)
(-1.833584 -0.24718174 0 3.812767e-06 0 0)
(-1.8370392 -0.24749404 0 -3.7202143e-06 0 0)
(-1.8339499 -0.24721422 0 3.6399279e-06 0 0)
(-1.8366822 -0.24746247 0 -3.576003e-06 0 0)
(-1.8342974 -0.24724506 0 3.5067856e-06 0 0)
(-1.8363406 -0.24743238 0 -3.5020936e-06 0 0)
(-1.8346272 -0.24727417 0 3.4738797e-06 0 0)
(-1.8360008 -0.24740109 0 -3.0780222e-06 0 0)
(-1.8349466 -0.24729667 0 5.0682574e-06 0 0)
(-1.8357013 -0.2473823 0 -4.8284091e-06 0 0)
(-1.5940426 -0.61257171 0 -0.18778515 0 0)
(-1.8181202 -0.281009 0 -0.017212426 0 0)
(-1.8738044 -0.27410121 0 -0.0076899236 0 0)
(-1.8294293 -0.25257645 0 -0.0020247196 0 0)
(-1.7215154 -0.24043963 0 -0.00060940561 0 0)
(-1.7497395 -0.2423237 0 -0.00021264892 0 0)
(-1.7070127 -0.23837187 0 -0.00010657478 0 0)
(-1.7388559 -0.24111288 0 -3.2503166e-05 0 0)
(-1.7068139 -0.23818809 0 2.7443238e-07 0 0)
(-1.7349843 -0.24078447 0 -1.2944598e-05 0 0)
(-1.7080935 -0.23830478 0 1.1813421e-05 0 0)
(-1.7330657 -0.2406313 0 -1.281408e-05 0 0)
(-1.7094042 -0.23843298 0 1.1382837e-05 0 0)
(-1.7316185 -0.24050244 0 -1.1595407e-05 0 0)
(-1.7106298 -0.23854925 0 1.0412453e-05 0 0)
(-1.7303731 -0.2403881 0 -1.0221279e-05 0 0)
(-1.7117442 -0.2386541 0 9.4403112e-06 0 0)
(-1.7292746 -0.24028684 0 -9.0721223e-06 0 0)
(-1.7127478 -0.23874838 0 8.5088526e-06 0 0)
(-1.7282986 -0.24019678 0 -8.1070282e-06 0 0)
(-1.7136492 -0.23883295 0 7.6569583e-06 0 0)
(-1.7274277 -0.24011636 0 -7.2766915e-06 0 0)
(-1.7144586 -0.23890881 0 6.8963196e-06 0 0)
(-1.726648 -0.24004431 0 -6.5535491e-06 0 0)
(-1.7151863 -0.23897694 0 6.2248153e-06 0 0)
(-1.7259482 -0.2399796 0 -5.9216301e-06 0 0)
(-1.7158419 -0.23903827 0 5.6354257e-06 0 0)
(-1.725318 -0.23992129 0 -5.3696875e-06 0 0)
(-1.7164341 -0.23909362 0 5.1205689e-06 0 0)
(-1.7247486 -0.23986858 0 -4.8890661e-06 0 0)
(-1.716971 -0.23914376 0 4.6729282e-06 0 0)
(-1.7242321 -0.23982076 0 -4.4725466e-06 0 0)
(-1.7174596 -0.23918936 0 4.2861286e-06 0 0)
(-1.7237616 -0.23977717 0 -4.1139647e-06 0 0)
(-1.7179065 -0.23923102 0 3.9545968e-06 0 0)
(-1.7233305 -0.23973723 0 -3.8083198e-06 0 0)
(-1.7183175 -0.23926931 0 3.6737041e-06 0 0)
(-1.7229331 -0.23970042 0 -3.5512883e-06 0 0)
(-1.718698 -0.23930473 0 3.4397359e-06 0 0)
(-1.7225643 -0.23966624 0 -3.3395887e-06 0 0)
(-1.7190528 -0.23933774 0 3.2500129e-06 0 0)
(-1.7222191 -0.23963426 0 -3.1709536e-06 0 0)
(-1.7193867 -0.23936877 0 3.102617e-06 0 0)
(-1.7218932 -0.23960409 0 -3.0482474e-06 0 0)
(-1.7197039 -0.23939826 0 2.9867537e-06 0 0)
(-1.7215817 -0.23957534 0 -2.9892729e-06 0 0)
(-1.720005 -0.23942613 0 2.9586237e-06 0 0)
(-1.7212708 -0.2395453 0 -2.561163e-06 0 0)
(-1.7202896 -0.23944725 0 4.5304535e-06 0 0)
(-1.7209748 -0.23952567 0 -4.3422143e-06 0 0)
(-1.5919703 -0.57481713 0 -0.16316046 0 0)
(-1.6374005 -0.26485382 0 -0.015616188 0 0)
(-1.7257853 -0.26686017 0 -0.0091031352 0 0)
(-1.7002255 -0.24373728 0 -0.0020125337 0 0)
(-1.6092958 -0.23249688 0 -0.00063168018 0 0)
(-1.6356316 -0.23427769 0 -0.00021094893 0 0)
(-1.5971202 -0.23055485 0 -0.00010784495 0 0)
(-1.6262612 -0.23316714 0 -2.7659496e-05 0 0)
(-1.5970989 -0.23039945 0 -1.5913189e-06 0 0)
(-1.6227482 -0.23286436 0 -1.0113227e-05 0 0)
(-1.598243 -0.23051107 0 9.9191321e-06 0 0)
(-1.6209937 -0.23272148 0 -1.0711798e-05 0 0)
(-1.5994248 -0.23063325 0 9.5209037e-06 0 0)
(-1.6196748 -0.23259986 0 -9.7954659e-06 0 0)
(-1.6005388 -0.23074386 0 8.7152652e-06 0 0)
(-1.6185409 -0.23249151 0 -8.6218617e-06 0 0)
(-1.6015529 -0.23084345 0 7.9217888e-06 0 0)
(-1.6175406 -0.23239543 0 -7.6404481e-06 0 0)
(-1.6024661 -0.23093294 0 7.151052e-06 0 0)
(-1.6166515 -0.23230992 0 -6.8231962e-06 0 0)
(-1.6032864 -0.23101324 0 6.4400705e-06 0 0)
(-1.6158579 -0.23223354 0 -6.1235921e-06 0 0)
(-1.6040231 -0.23108529 0 5.8028065e-06 0 0)
(-1.6151475 -0.23216509 0 -5.5155819e-06 0 0)
(-1.6046856 -0.23115002 0 5.2393456e-06 0 0)
(-1.6145096 -0.23210359 0 -4.9846614e-06 0 0)
(-1.6052827 -0.2312083 0 4.7444208e-06 0 0)
(-1.6139351 -0.23204815 0 -4.52099e-06 0 0)
(-1.6058222 -0.23126094 0 4.3119253e-06 0 0)
(-1.613416 -0.23199802 0 -4.1171902e-06 0 0)
(-1.6063114 -0.23130863 0 3.9357722e-06 0 0)
(-1.6129451 -0.23195252 0 -3.7671701e-06 0 0)
(-1.6067567 -0.23135202 0 3.6106431e-06 0 0)
(-1.6125159 -0.23191102 0 -3.4657262e-06 0 0)
(-1.6071641 -0.23139169 0 3.331862e-06 0 0)
(-1.6121226 -0.23187298 0 -3.208689e-06 0 0)
(-1.6075389 -0.23142817 0 3.095541e-06 0 0)
(-1.6117601 -0.23183789 0 -2.9923991e-06 0 0)
(-1.6078859 -0.23146194 0 2.8985671e-06 0 0)
(-1.6114236 -0.23180531 0 -2.8140936e-06 0 0)
(-1.6082095 -0.23149342 0 2.7386907e-06 0 0)
(-1.6111087 -0.23177479 0 -2.6718263e-06 0 0)
(-1.6085141 -0.23152303 0 2.6142442e-06 0 0)
(-1.6108113 -0.23174598 0 -2.5684128e-06 0 0)
(-1.6088035 -0.2315512 0 2.5140621e-06 0 0)
(-1.6105274 -0.23171854 0 -2.5224695e-06 0 0)
(-1.6090782 -0.23157788 0 2.4897726e-06 0 0)
(-1.6102432 -0.23168976 0 -2.0952657e-06 0 0)
(-1.6093318 -0.23159778 0 4.0133758e-06 0 0)
(-1.6099537 -0.23166946 0 -3.8851417e-06 0 0)
(-1.5911839 -0.55588418 0 -0.15166008 0 0)
(-1.4902283 -0.25457814 0 -0.01590764 0 0)
(-1.5804499 -0.25622971 0 -0.0091812664 0 0)
(-1.5831858 -0.23412533 0 -0.0014980725 0 0)
(-1.506519 -0.22459415 0 -0.00055365052 0 0)
(-1.5272392 -0.22621822 0 -0.00017751874 0 0)
(-1.4916679 -0.22272994 0 -9.7847352e-05 0 0)
(-1.5178326 -0.22522236 0 -1.9189114e-05 0 0)
(-1.4911268 -0.22260783 0 -1.9189288e-06 0 0)
(-1.5143722 -0.22494662 0 -7.0597869e-06 0 0)
(-1.4920246 -0.22271514 0 8.3878298e-06 0 0)
(-1.5127174 -0.22481361 0 -8.7279681e-06 0 0)
(-1.4930672 -0.22283158 0 7.860664e-06 0 0)
(-1.5115077 -0.22469898 0 -8.1433811e-06 0 0)
(-1.4940756 -0.22293677 0 7.1783146e-06 0 0)
(-1.5104753 -0.22459644 0 -7.1635706e-06 0 0)
(-1.4949973 -0.22303131 0 6.54175e-06 0 0)
(-1.5095652 -0.22450537 0 -6.3372014e-06 0 0)
(-1.4958276 -0.22311622 0 5.9158629e-06 0 0)
(-1.5087561 -0.22442426 0 -5.6548591e-06 0 0)
(-1.4965735 -0.2231924 0 5.3326725e-06 0 0)
(-1.5080337 -0.22435178 0 -5.0741578e-06 0 0)
(-1.4972436 -0.22326077 0 4.8074652e-06 0 0)
(-1.5073869 -0.22428681 0 -4.5707798e-06 0 0)
(-1.4978463 -0.22332222 0 4.3421756e-06 0 0)
(-1.506806 -0.2242284 0 -4.1316308e-06 0 0)
(-1.4983895 -0.22337757 0 3.9330927e-06 0 0)
(-1.5062828 -0.22417574 0 -3.7481659e-06 0 0)
(-1.4988806 -0.22342757 0 3.575445e-06 0 0)
(-1.5058099 -0.2241281 0 -3.4141696e-06 0 0)
(-1.499326 -0.22347289 0 3.2642584e-06 0 0)
(-1.5053808 -0.22408484 0 -3.1245737e-06 0 0)
(-1.4997315 -0.22351415 0 2.9951723e-06 0 0)
(-1.5049897 -0.22404536 0 -2.8750456e-06 0 0)
(-1.5001026 -0.2235519 0 2.7643251e-06 0 0)
(-1.5046313 -0.22400916 0 -2.6621685e-06 0 0)
(-1.500444 -0.22358663 0 2.5684973e-06 0 0)
(-1.5043009 -0.22397575 0 -2.4828818e-06 0 0)
(-1.5007602 -0.22361878 0 2.4051204e-06 0 0)
(-1.5039941 -0.2239447 0 -2.3348916e-06 0 0)
(-1.5010552 -0.22364879 0 2.2723265e-06 0 0)
(-1.503707 -0.22391561 0 -2.2165376e-06 0 0)
(-1.5013328 -0.22367703 0 2.1686751e-06 0 0)
(-1.5034359 -0.22388813 0 -2.1305227e-06 0 0)
(-1.5015966 -0.22370391 0 2.082835e-06 0 0)
(-1.5031773 -0.22386195 0 -2.0959449e-06 0 0)
(-1.5018472 -0.22372942 0 2.0618252e-06 0 0)
(-1.5029178 -0.22383443 0 -1.6743214e-06 0 0)
(-1.502073 -0.22374825 0 3.5155374e-06 0 0)
(-1.5026372 -0.22381363 0 -3.4565587e-06 0 0)
(-1.5865271 -0.51911002 0 -0.12985604 0 0)
(-1.3681374 -0.24212024 0 -0.014802572 0 0)
(-1.4494466 -0.24583258 0 -0.0091663738 0 0)
(-1.4751941 -0.2251456 0 -0.0011192564 0 0)
(-1.4068606 -0.21671653 0 -0.00047974458 0 0)
(-1.4231983 -0.21821198 0 -0.00014208756 0 0)
(-1.3899856 -0.21491376 0 -8.6086833e-05 0 0)
(-1.4133655 -0.2172897 0 -1.0241716e-05 0 0)
(-1.388849 -0.21481803 0 -1.7397969e-06 0 0)
(-1.4098421 -0.21703381 0 -4.0838198e-06 0 0)
(-1.3894553 -0.21491848 0 7.0885974e-06 0 0)
(-1.4082374 -0.21690839 0 -6.8759219e-06 0 0)
(-1.3903464 -0.21502847 0 6.3690766e-06 0 0)
(-1.4071143 -0.21679997 0 -6.6238832e-06 0 0)
(-1.3912501 -0.21512818 0 5.781582e-06 0 0)
(-1.4061712 -0.21670291 0 -5.8295246e-06 0 0)
(-1.3920847 -0.21521779 0 5.2834523e-06 0 0)
(-1.4053431 -0.21661664 0 -5.1468585e-06 0 0)
(-1.3928383 -0.21529826 0 4.7884537e-06 0 0)
(-1.4046074 -0.21653977 0 -4.5880508e-06 0 0)
(-1.3935157 -0.21537047 0 4.3214978e-06 0 0)
(-1.4039506 -0.21647105 0 -4.1158461e-06 0 0)
(-1.3941243 -0.21543529 0 3.8983935e-06 0 0)
(-1.4033623 -0.21640942 0 -3.7078624e-06 0 0)
(-1.394672 -0.21549357 0 3.522595e-06 0 0)
(-1.402834 -0.21635401 0 -3.3523685e-06 0 0)
(-1.3951658 -0.21554608 0 3.1917748e-06 0 0)
(-1.402358 -0.21630403 0 -3.0420173e-06 0 0)
(-1.3956122 -0.21559354 0 2.9023691e-06 0 0)
(-1.4019277 -0.21625879 0 -2.7716529e-06 0 0)
(-1.3960172 -0.21563659 0 2.6504165e-06 0 0)
(-1.4015372 -0.21621769 0 -2.5371394e-06 0 0)
(-1.3963861 -0.21567579 0 2.4324269e-06 0 0)
(-1.4011812 -0.21618018 0 -2.3349359e-06 0 0)
(-1.3967238 -0.21571167 0 2.2452805e-06 0 0)
(-1.4008549 -0.21614576 0 -2.1623098e-06 0 0)
(-1.3970345 -0.21574469 0 2.0863642e-06 0 0)
(-1.400554 -0.21611397 0 -2.016745e-06 0 0)
(-1.3973223 -0.21577529 0 1.9536029e-06 0 0)
(-1.4002746 -0.21608441 0 -1.89637e-06 0 0)
(-1.3975909 -0.21580386 0 1.8454725e-06 0 0)
(-1.4000131 -0.21605671 0 -1.7997853e-06 0 0)
(-1.3978436 -0.21583076 0 1.7607374e-06 0 0)
(-1.3997663 -0.21603052 0 -1.729532e-06 0 0)