/*--------------------------------*- C++ -*----------------------------------*\
| =========                 |                                                 |
| \\      /  F ield         | OpenFOAM: The Open Source CFD Toolbox           |
|  \\    /   O peration     | Version:  2312                                  |
|   \\  /    A nd           | Website:  www.openfoam.com                      |
|    \\/     M anipulation  |                                                 |
\*---------------------------------------------------------------------------*/
FoamFile
{
    version     2.0;
    format      ascii;
    arch        "LSB;label=32;scalar=64";
    class       volScalarField;
    location    "3";
    object      T;
}
// * * * * * * * * * * * * * * * * * * * * * * * * * * * * * * * * * * * * * //

dimensions      [0 0 0 1 0 0 0];

internalField   nonuniform List<scalar> 
4000
(
310.51914
311.79536
311.99458
312.07649
312.13482
312.18871
312.23077
312.27462
312.31002
312.3491
312.38142
312.41763
312.44818
312.48248
312.51191
312.54484
312.5735
312.60543
312.63353
312.66468
312.69236
312.72292
312.75026
312.78034
312.80742
312.83712
312.86396
312.89336
312.91999
312.94915
312.9756
313.00457
313.03084
313.05966
313.08576
313.11448
313.14041
313.16905
313.19482
313.22342
313.24902
313.27759
313.30302
313.3316
313.35684
313.38547
313.41046
313.43923
313.46379
313.49333
308.30551
310.50075
311.03917
311.23291
311.35575
311.46528
311.53947
311.61895
311.67317
311.73834
311.7833
311.8399
311.87957
311.93043
311.96671
312.01349
312.04746
312.09121
312.12352
312.16496
312.19601
312.23565
312.2657
312.30391
312.33314
312.37022
312.39874
312.43492
312.46282
312.49829
312.52562
312.56052
312.58732
312.62178
312.64808
312.68221
312.70802
312.74193
312.76724
312.801
312.82581
312.85952
312.8838
312.91753
312.94122
312.97511
312.99807
313.03239
313.05407
313.09057
306.89637
309.24633
310.0909
310.39351
310.57972
310.74407
310.85022
310.96489
311.03794
311.12891
311.18657
311.26334
311.31218
311.37943
311.42264
311.48312
311.52247
311.57794
311.6145
311.66614
311.70059
311.74925
311.78203
311.82833
311.85973
311.90415
311.93437
311.9773
312.00648
312.04822
312.07645
312.11725
312.14459
312.18468
312.21117
312.25072
312.27639
312.31555
312.34041
312.37934
312.40336
312.44218
312.46533
312.5042
312.52636
312.56549
312.58644
312.62629
312.64513
312.6883
305.94011
308.06932
309.16147
309.56459
309.81115
310.02829
310.16574
310.3146
310.40632
310.52246
310.5928
310.68929
310.74735
310.83065
310.88084
310.95476
310.99955
311.06653
311.1074
311.16907
311.20698
311.26451
311.30007
311.35433
311.38795
311.43961
311.47157
311.52116
311.55165
311.59959
311.62875
311.6754
311.7033
311.74896
311.77567
311.82058
311.84614
311.89052
311.91493
311.95899
311.98223
312.02615
312.04817
312.09215
312.11281
312.15715
312.17612
312.22144
312.23754
312.287
305.26197
307.00261
308.26606
308.75483
309.0561
309.32239
309.48968
309.67104
309.78093
309.92121
310.00405
310.11955
310.18677
310.2856
310.34277
310.42973
310.47999
310.55814
310.60337
310.67481
310.71621
310.78241
310.82078
310.88283
310.9187
310.97746
311.01117
311.06731
311.09913
311.15318
311.18327
311.23569
311.26417
311.31532
311.34227
311.39247
311.41793
311.46747
311.49146
311.54058
311.56307
311.61202
311.63295
311.68198
311.70118
311.75065
311.76771
311.8184
311.83192
311.88718
304.76559
306.06874
307.42094
307.97459
308.32195
308.63191
308.82655
309.03788
309.16501
309.3279
309.42283
309.5563
309.6325
309.74609
309.81018
309.90958
309.96528
310.05416
310.10375
310.18458
310.2295
310.30406
310.34526
310.41486
310.45299
310.51864
310.55414
310.61664
310.64981
310.70982
310.74087
310.79892
310.82799
310.88452
310.91172
310.96712
310.9925
311.04711
311.07069
311.12479
311.14656
311.20045
311.22033
311.27431
311.29211
311.34661
311.36185
311.41776
311.42893
311.48947
304.39417
305.28035
306.64134
307.23493
307.61691
307.96312
308.18147
308.41934
308.56224
308.74571
308.85201
309.00207
309.08688
309.21424
309.28502
309.39613
309.45716
309.55617
309.61004
309.6998
309.7482
309.83073
309.87475
309.95157
309.99195
310.06424
310.1015
310.17016
310.20467
310.27045
310.30245
310.36597
310.39564
310.45741
310.48486
310.54533
310.57064
310.63019
310.65338
310.71235
310.73342
310.79214
310.81101
310.86983
310.88628
310.94568
310.95921
311.02013
311.02921
311.09452
304.11128
304.63882
305.93939
306.54651
306.94936
307.3227
307.55997
307.82007
307.97667
308.17815
308.29474
308.45968
308.55247
308.69237
308.76949
308.89136
308.95748
309.0659
309.12392
309.22202
309.27379
309.36383
309.41058
309.49424
309.53683
309.61541
309.65441
309.72894
309.76476
309.83608
309.86901
309.9378
309.96804
310.03488
310.06257
310.12794
310.15318
310.21752
310.24034
310.30403
310.32443
310.38783
310.40573
310.46922
310.48441
310.54852
310.56048
310.62615
310.63345
310.70302
303.8924
304.13648
305.32309
305.91851
306.32719
306.71725
306.96763
307.24486
307.41248
307.62892
307.75435
307.93211
308.03203
308.18298
308.26589
308.39741
308.46827
308.58523
308.64714
308.75289
308.80785
308.90483
308.9542
309.04423
309.08892
309.17341
309.21407
309.29414
309.33122
309.40778
309.4416
309.5154
309.54619
309.61786
309.64578
309.71585
309.74102
309.80995
309.83241
309.90062
309.9204
309.98827
310.00528
310.07323
310.08726
310.15584
310.16638
310.2365
310.24232
310.3157
303.72026
303.75842
304.79552
305.35764
305.75713
306.15285
306.4098
306.69842
306.87388
307.10176
307.23423
307.42243
307.52837
307.68866
307.77663
307.91652
307.99162
308.11611
308.18155
308.29415
308.35204
308.45531
308.50709
308.60295
308.64959
308.73954
308.78173
308.86696
308.9052
308.98667
309.02131
309.09983
309.13111
309.20735
309.23547
309.30998
309.33506
309.40835
309.43047
309.50297
309.52214
309.59427
309.61043
309.68262
309.69558
309.76836
309.77766
309.85187
309.85653
309.93328
303.58239
303.48539
304.35529
304.86756
305.24417
305.63461
305.89123
306.18513
306.36482
306.6003
306.73767
306.93369
307.04427
307.212
307.30412
307.45093
307.52962
307.66052
307.72903
307.84758
307.90805
308.01687
308.07079
308.17187
308.22024
308.31513
308.35869
308.44864
308.4879
308.57391
308.60925
308.69215
308.72385
308.80434
308.83261
308.91129
308.93626
309.01363
309.0354
309.11193
309.13053
309.20664
309.22202
309.29816
309.31016
309.38683
309.39507
309.47298
309.47675
309.55649
303.46964
303.2962
303.99695
304.44864
304.79126
305.1663
305.41579
305.70876
305.88883
306.12785
306.26775
306.46875
306.58243
306.75552
306.85071
307.00286
307.08437
307.22044
307.29144
307.41494
307.47756
307.59112
307.64683
307.75245
307.80229
307.90155
307.94626
308.04043
308.08055
308.17064
308.20657
308.29346
308.32548
308.40988
308.43822
308.52073
308.54555
308.6267
308.64811
308.72836
308.74641
308.8262
308.84087
308.92062
308.93178
309.01198
309.01934
309.10056
309.10369
309.18606
303.37546
303.17016
303.71212
304.09822
304.39907
304.75009
304.98617
305.27227
305.44881
305.68729
305.82718
306.03024
306.14528
306.32156
306.4186
306.57442
306.65785
306.79777
306.87058
306.99798
307.06221
307.17963
307.23673
307.34615
307.39713
307.50013
307.54573
307.64357
307.68433
307.77805
307.81439
307.90484
307.93706
308.02496
308.05329
308.13927
308.16389
308.24846
308.26949
308.35313
308.37065
308.45377
308.46778
308.55081
308.56123
308.64458
308.65122
308.73534
308.73803
308.8227
303.29497
303.08852
303.49052
303.81119
304.06603
304.38643
304.60379
304.87761
305.0469
305.28088
305.4182
305.62038
305.73498
305.91222
306.00978
306.16753
306.2519
306.39429
306.46815
306.59831
306.66356
306.78391
306.84191
306.95436
307.00609
307.11216
307.15834
307.25927
307.30043
307.39724
307.4338
307.52735
307.55961
307.6506
307.67881
307.76785
307.7922
307.87982
307.90044
307.98709
308.00409
308.09017
308.10358
308.18948
308.19927
308.28538
308.29146
308.37805
308.38046
308.46712
303.22489
303.03592
303.32123
303.58065
303.78857
304.07408
304.26864
304.52564
304.68435
304.91016
305.04244
305.24092
305.35324
305.52924
305.62594
305.78389
305.86813
306.01158
306.08567
306.21743
306.28305
306.40536
306.46374
306.57838
306.63044
306.73887
306.78528
306.88868
306.92997
307.02932
307.06588
307.16201
307.19416
307.28776
307.31573
307.4074
307.4314
307.52164
307.54182
307.63106
307.64755
307.73618
307.74904
307.83742
307.84666
307.9351
307.94074
308.0294
308.03165
308.12
303.16278
303.0005
303.19356
303.39868
303.56159
303.81029
303.97941
304.21609
304.36144
304.57592
304.70088
304.89305
305.00131
305.17396
305.26843
305.42486
305.50789
305.651
305.72445
305.85665
305.92193
306.04522
306.10341
306.21941
306.27133
306.38138
306.42765
306.53287
306.57397
306.67528
306.7116
306.80979
306.84163
306.93735
306.96495
307.05878
307.08235
307.17475
307.19446
307.28585
307.30183
307.39258
307.40492
307.49534
307.50412
307.59445
307.59977
307.69008
307.69225
307.78197
303.10711
302.97406
303.09778
303.25701
303.37893
303.59106
303.73361
303.94762
304.07755
304.27809
304.39381
304.57735
304.67993
304.84729
304.9382
305.09149
305.17223
305.31364
305.38556
305.51706
305.58129
305.70456
305.76198
305.87848
305.92978
306.0407
306.08643
306.19279
306.2334
306.33606
306.37188
306.47157
306.5029
306.60023
306.6273
306.7228
306.74583
306.83994
306.8591
306.95221
306.96765
307.06007
307.07193
307.16394
307.17232
307.26411
307.26919
307.36074
307.36288
307.45367
303.05671
302.95129
303.02554
303.14766
303.234
303.41157
303.52778
303.71796
303.83117
304.01587
304.1208
304.2938
304.38929
304.54964
304.63575
304.78441
304.86184
305.00026
305.06981
305.19949
305.26195
305.38426
305.4403
305.55645
305.60664
305.71768
305.76247
305.8693
305.90906
306.01247
306.04752
306.14814
306.17875
306.27715
306.30354
306.40021
306.42259
306.51792
306.53648
306.63082
306.64571
306.73934
306.75072
306.84387
306.8519
306.9447
306.94959
307.04199
307.04413
307.13567
303.01085
302.92933
302.97007
303.06338
303.12024
303.2665
303.35779
303.52408
303.62005
303.78771
303.88079
304.04178
304.12901
304.28091
304.36117
304.50388
304.57705
304.71132
304.77768
304.90451
304.96452
305.08493
305.13903
305.25401
305.30259
305.41302
305.45645
305.56309
305.60167
305.70519
305.7392
305.84018
305.86985
305.96879
305.99434
306.09165
306.11327
306.20933
306.2272
306.32229
306.3366
306.43098
306.44189
306.53572
306.54342
306.63681
306.64155
306.7344
306.73654
306.8285
302.96897
302.90687
302.92615
302.99795
303.03146
303.15045
303.21912
303.36241
303.44136
303.59148
303.67212
303.82011
303.89823
304.04055
304.11408
304.24975
304.31783
304.44692
304.50937
304.6324
304.68931
304.80698
304.85857
304.97161
305.01812
305.12722
305.16889
305.27468
305.31175
305.41478
305.44748
305.54825
305.57676
305.6757
305.70023
305.79768
305.81842
305.9147
305.93183
306.02719
306.04088
306.13552
306.14595
306.24002
306.2474
306.34094
306.34554
306.43847
306.4406
306.53264
302.93066
302.8837
302.89
302.9463
302.96219
303.05823
303.10717
303.22909
303.29186
303.42459
303.49267
303.62712
303.69563
303.82758
303.89371
304.02146
304.0838
304.20683
304.26473
304.38315
304.43639
304.55055
304.59912
304.7095
304.75349
304.86059
304.90014
305.00444
305.03969
305.14165
305.17277
305.27277
305.29992
305.39831
305.42168
305.51875
305.53849
305.6345
305.6508
305.74595
305.75897
305.85342
305.86335
305.95721
305.96427
306.05755
306.062
306.15463
306.15673
306.24852
302.89558
302.86011
302.85904
302.9045
302.90774
302.98508
303.01746
303.12014
303.16808
303.28411
303.33995
303.4608
303.51949
303.64062
303.69893
303.81814
303.87421
303.99052
304.04335
304.15645
304.20554
304.3155
304.36062
304.46769
304.50878
304.61326
304.65033
304.75257
304.78571
304.88602
304.91533
305.01402
305.03962
305.13695
305.15899
305.25519
305.27381
305.36907
305.38445
305.47893
305.49123
305.58504
305.59445
305.68766
305.69439
305.78701
305.79129
305.88325
305.88531
305.97648
302.86345
302.83659
302.8316
302.86964
302.86432
302.92685
302.94586
303.03174
303.0665
303.16697
303.21125
303.31881
303.36781
303.47797
303.52829
303.63856
303.68805
303.79713
303.84451
303.95175
303.99629
304.1015
304.1428
304.24599
304.28383
304.38515
304.41945
304.51908
304.54984
304.64799
304.67526
304.77214
304.796
304.89178
304.91235
305.0072
305.02461
305.11865
305.13304
305.22639
305.23792
305.33066
305.3395
305.43166
305.43802
305.5296
305.53368
305.62462
305.62661
305.71683
302.83399
302.81363
302.80667
302.83969
302.82898
302.88009
302.8887
302.96028
302.98374
303.07008
303.10376
303.19869
303.23837
303.33772
303.38007
303.48128
303.52404
303.62557
303.66726
303.76824
303.80796
303.90796
303.94514
304.04399
304.07831
304.17598
304.20726
304.3038
304.33197
304.42748
304.45254
304.54712
304.5691
304.66286
304.68184
304.77488
304.79097
304.88336
304.89668
304.98848
304.99919
305.09044
305.09868
305.1894
305.19536
305.28552
305.28939
305.37895
305.38084
305.46977
302.80697
302.79161
302.7837
302.81325
302.79949
302.84198
302.84286
302.90257
302.91663
302.99044
303.01468
303.09788
303.12884
303.21779
303.25242
303.34464
303.38069
303.47455
303.51045
303.60491
303.63963
303.73409
303.76697
303.86109
303.89169
303.98531
304.01338
304.10642
304.13182
304.22426
304.24694
304.33882
304.35877
304.4501
304.46738
304.5582
304.57288
304.66321
304.6754
304.76526
304.77508
304.86446
304.87206
304.96097
304.9665
305.0549
305.05851
305.14638
305.14815
305.23546
302.78218
302.77077
302.76239
302.78944
302.77428
302.81035
302.80574
302.8558
302.8623
302.92527
302.94133
303.01388
303.03689
303.11603
303.14335
303.22686
303.25636
303.34259
303.37273
303.46056
303.49024
303.57894
303.60741
303.69652
303.72328
303.81252
303.83725
303.92643
303.94894
304.03796
304.05815
304.14694
304.16477
304.25329
304.26878
304.357
304.3702
304.4581
304.4691
304.55664
304.56554
304.65271
304.65963
304.74638
304.75145
304.83776
304.84109
304.92694
304.92859
305.01396
302.75942
302.75124
302.74262
302.76774
302.75225
302.78357
302.77529
302.81766
302.81829
302.87204
302.88121
302.94428
302.96021
303.03031
303.05086
303.12607
303.14935
303.22814
303.25266
303.33388
303.35855
303.4414
303.46545
303.54937
303.57224
303.65686
303.67819
303.76323
303.78277
303.86805
303.88568
303.97106
303.9867
304.07208
304.08572
304.17102
304.18269
304.26782
304.27758
304.36249
304.37042
304.45505
304.46125
304.54555
304.55012
304.63405
304.63707
304.72062
304.72212
304.80526
302.7385
302.73306
302.72432
302.74781
302.73265
302.76045
302.7499
302.78623
302.78247
302.82854
302.83206
302.88685
302.89664
302.95853
302.97296
303.04042
303.0579
303.12954
303.14872
303.22345
303.24327
303.32027
303.33996
303.4186
303.43761
303.51745
303.53536
303.61606
303.63262
303.71392
303.72895
303.81067
303.82408
303.90604
303.9178
303.99987
304.00998
304.09206
304.10055
304.18254
304.18948
304.27129
304.27674
304.35831
304.36235
304.44363
304.44632
304.5273
304.52863
304.60929
302.71929
302.71622
302.70745
302.72948
302.71504
302.74018
302.7284
302.76001
302.75311
302.79288
302.79192
302.83958
302.84416
302.89874
302.90775
302.96808
302.98026
303.04517
303.05934
303.12782
303.14302
303.21425
303.22975
303.30311
303.31833
303.39332
303.40786
303.48409
303.49768
303.57483
303.58728
303.66512
303.6763
303.75461
303.76448
303.8431
303.85163
303.93041
303.93762
304.01644
304.02236
304.10111
304.1058
304.1844
304.18789
304.26629
304.26862
304.3468
304.34796
304.42588
302.70164
302.70067
302.69196
302.71265
302.6991
302.72218
302.7099
302.73786
302.72883
302.76349
302.75906
302.8007
302.80098
302.84912
302.85346
302.90732
302.91475
302.9734
302.98298
303.04551
303.05639
303.12204
303.13355
303.20169
303.21329
303.28342
303.29471
303.36639
303.37708
303.44997
303.45988
303.53369
303.54268
303.61718
303.62517
303.70015
303.70711
303.78239
303.78832
303.86376
303.86866
303.94415
303.94805
304.02348
304.02641
304.10173
304.10369
304.17886
304.17984
304.25482
302.68546
302.68635
302.67782
302.69725
302.68467
302.70607
302.69378
302.7189
302.70854
302.73908
302.73209
302.76867
302.7655
302.80806
302.80843
302.85651
302.85979
302.91268
302.91813
302.97508
302.982
303.04231
303.05009
303.11316
303.12134
303.18666
303.19484
303.26197
303.26989
303.33846
303.34591
303.41561
303.42246
303.49302
303.49918
303.57037
303.5758
303.64743
303.65209
303.724
303.72789
303.79995
303.80307
303.87516
303.87752
303.94958
303.95117
304.02315
304.02395
304.09581
302.67064
302.67321
302.66499
302.68323
302.67162
302.6916
302.67963
302.7025
302.69141
302.71864
302.70983
302.74222
302.73635
302.77412
302.77121
302.81418
302.8139
302.86157
302.86337
302.91514
302.91848
302.97374
302.97812
303.03631
303.0413
303.10193
303.10721
303.16983
303.17512
303.23937
303.24449
303.31002
303.31483
303.38138
303.38578
303.4531
303.45703
303.52491
303.52833
303.5966
303.59949
303.66799
303.67034
303.73897
303.74076
303.80943
303.81065
303.87931
303.87992
303.94851
302.65713
302.66122
302.65342
302.67055
302.65988
302.67862
302.66714
302.68819
302.6768
302.70138
302.69133
302.72028
302.71236
302.74606
302.74051
302.77901
302.77573
302.81871
302.81736
302.86437
302.86455
302.91508
302.91639
302.96993
302.97203
303.02812
303.03072
303.08893
303.09178
303.15175
303.15468
303.21607
303.21894
303.28146
303.28418
303.34759
303.35009
303.41415
303.41638
303.48093
303.48285
303.54772
303.54931
303.61438
303.61562
303.6808
303.68166
303.74688
303.74732
303.81252
302.6449
302.65036
302.64311
302.65918
302.64941
302.66701
302.6561
302.67563
302.66425
302.68667
302.67588
302.70197
302.69257
302.72282
302.71521
302.74982
302.74408
302.78289
302.77888
302.82156
302.819
302.86513
302.86374
302.91289
302.9124
302.96415
302.96431
303.01826
303.01887
303.07465
303.07556
303.13285
303.13392
303.19244
303.19359
303.25307
303.25422
303.31445
303.31555
303.37633
303.37734
303.43852
303.4394
303.50085
303.50155
303.56317
303.56368
303.6254
303.62566
303.6874
302.63396
302.64064
302.634
302.64908
302.64014
302.65668
302.64639
302.6646
302.65342
302.67405
302.66287
302.6866
302.67618
302.70353
302.69436
302.7256
302.71791
302.75303
302.74681
302.78557
302.78069
302.82278
302.81905
302.8641
302.86133
302.90896
302.90695
302.9568
302.9554
303.00712
303.00619
303.05947
303.0589
303.11346
303.11317
303.16876
303.16867
303.22507
303.22512
303.28214
303.28228
303.33976
303.33995
303.39776
303.39796
303.45599
303.45616
303.51433
303.51443
303.57266
302.62435
302.63208
302.6261
302.64022
302.63205
302.64755
302.63787
302.65492
302.64407
302.66318
302.65188
302.67363
302.66257
302.68745
302.67716
302.7055
302.6963
302.72816
302.72017
302.75542
302.74862
302.78701
302.7813
302.82254
302.8178
302.86156
302.85765
302.9036
302.90042
302.94824
302.94566
302.99506
302.993
303.04371
303.0421
303.09387
303.09263
303.14526
303.14434
303.19763
303.19697
303.25077
303.25033
303.30451
303.30423
303.35868
303.35852
303.41315
303.41308
303.46779
302.61618
302.62471
302.61938
302.63255
302.62507
302.63958
302.63048
302.64644
302.63599
302.65378
302.64255
302.66262
302.65122
302.674
302.66296
302.68878
302.67848
302.70747
302.69811
302.73021
302.72186
302.75689
302.74954
302.78726
302.78086
302.821
302.81548
302.85774
302.85301
302.8971
302.89309
302.93874
302.93538
302.98234
302.97956
303.02761
303.02535
303.07427
303.07248
303.1221
303.12071
303.17089
303.16986
303.22045
303.21973
303.27062
303.27017
303.32127
303.32105
303.37226
302.60956
302.61854
302.6138
302.62602
302.61915
302.63267
302.62411
302.63905
302.62904
302.64564
302.63462
302.65323
302.64172
302.6627
302.6512
302.67485
302.66377
302.69025
302.67986
302.70915
302.6996
302.73158
302.72292
302.75741
302.74966
302.78643
302.77955
302.81834
302.81231
302.85287
302.84762
302.8897
302.8852
302.92857
302.92476
302.96921
302.96604
303.01138
303.0088
303.05485
303.05281
303.09943
303.09788
303.14494
303.14382
303.19121
303.1905
303.23811
303.23777
303.28551
302.60458
302.61358
302.60932
302.62055
302.61423
302.62676
302.61871
302.63265
302.62309
302.63861
302.62789
302.6452
302.63376
302.65316
302.64144
302.6632
302.65164
302.67589
302.6648
302.69158
302.68113
302.71036
302.70069
302.73222
302.72339
302.75704
302.74908
302.78463
302.77751
302.81474
302.80847
302.84715
302.84169
302.88162
302.87694
302.91793
302.91398
302.95585
302.95259
302.99518
302.99256
303.03573
303.03371
303.07733
303.07587
303.11983
303.11889
303.16309
303.16263
303.20698
302.60121
302.60976
302.60586
302.61607
302.61021
302.62177
302.61418
302.62716
302.61804
302.63254
302.62218
302.63832
302.62707
302.64507
302.63334
302.65342
302.64162
302.66391
302.65236
302.6769
302.66584
302.69258
302.68218
302.71101
302.70136
302.73214
302.72331
302.75585
302.74788
302.78199
302.77488
302.81036
302.8041
302.84078
302.83536
302.87305
302.86844
302.90699
302.90315
302.94241
302.9393
302.97914
302.97671
303.01701
303.01524
303.05588
303.05473
303.09562
303.09506
303.13611
302.59926
302.60696
302.6033
302.61248
302.60701
302.61759
302.61044
302.62247
302.6138
302.62731
302.61736
302.63242
302.62146
302.63821
302.62661
302.64519
302.63334
302.65388
302.64211
302.66464
302.6532
302.67769
302.66679
302.69316
302.68293
302.71107
302.70161
302.73136
302.72273
302.75392
302.74616
302.77864
302.77175
302.80535
302.79933
302.8339
302.82874
302.86413
302.85981
302.89589
302.89236
302.92901
302.92625
302.96334
302.96131
302.99876
302.99743
303.03513
303.03447
303.07233
302.59841
302.605
302.60151
302.60964
302.60453
302.61415
302.6074
302.6185
302.61027
302.62284
302.61331
302.62736
302.61676
302.63235
302.621
302.63824
302.62649
302.64546
302.63364
302.65437
302.64276
302.66521
302.65402
302.67815
302.66755
302.69326
302.68337
302.71054
302.70144
302.72993
302.72168
302.75135
302.74399
302.7747
302.76822
302.79984
302.79426
302.82665
302.82194
302.855
302.85114
302.88474
302.8817
302.91574
302.9135
302.94788
302.9464
302.98103
302.9803
303.0151
302.59829
302.60369
302.60034
302.60744
302.60265
302.61133
302.60498
302.61517
302.60738
302.61903
302.60994
302.62302
302.61284
302.62735
302.61634
302.63234
302.62082
302.63836
302.62666
302.64574
302.63413
302.65474
302.64344
302.66553
302.65473
302.67823
302.66808
302.69287
302.68348
302.70946
302.70088
302.72794
302.72023
302.74824
302.74144
302.77028
302.76438
302.79396
302.78895
302.81915
302.81503
302.84574
302.84249
302.87362
302.87121
302.90268
302.90108
302.93279
302.932
302.96387
302.59854
302.60283
302.59965
302.60576
302.60128
302.60904
302.60308
302.61238
302.60502
302.61579
302.60716
302.61931
302.60957
302.62307
302.61246
302.62731
302.61613
302.63235
302.62089
302.63847
302.627
302.64592
302.63467
302.65489
302.64406
302.66552
302.65527
302.67789
302.66834
302.69201
302.68324
302.70788
302.69996
302.72546
302.71843
302.74469
302.73857
302.7655
302.76029
302.7878
302.78349
302.81148
302.80807
302.83646
302.83392
302.86262
302.86094
302.88988
302.88904
302.91814
302.59891
302.60225
302.59929
302.60448
302.60032
302.60719
302.60162
302.61006
302.60314
302.61304
302.60488
302.61613
302.60686
302.6194
302.60924
302.62302
302.61223
302.62724
302.61611
302.63232
302.62109
302.63848
302.6274
302.64591
302.63518
302.65478
302.64456
302.66517
302.65559
302.67713
302.6683
302.6907
302.68268
302.70585
302.6987
302.72256
302.71631
302.74077
302.73543
302.76043
302.756
302.78144
302.77792
302.80373
302.8011
302.8272
302.82546
302.85179
302.85092
302.8774
302.59926
302.60183
302.59915
302.60348
302.59966
302.6057
302.60053
302.60813
302.60166
302.61071
302.60303
302.61341
302.60464
302.61624
302.60657
302.61933
302.609
302.62287
302.61214
302.62708
302.61619
302.63216
302.62135
302.6383
302.62777
302.64566
302.63559
302.65436
302.64487
302.66445
302.65566
302.67599
302.66798
302.68899
302.68182
302.70344
302.69715
302.71932
302.71392
302.73657
302.73208
302.75514
302.75156
302.77496
302.77228
302.79595
302.79417
302.81804
302.81716
302.84118
302.59953
302.60148
302.59913
302.6027
302.59924
302.60449
302.59972
302.60653
302.60051
302.60874
302.60154
302.61108
302.60281
302.61352
302.60435
302.61615
302.6063
302.61911
302.60883
302.62259
302.61211
302.62677
302.61631
302.63182
302.62158
302.63791
302.62806
302.64514
302.63583
302.65361
302.64495
302.66338
302.65546
302.67449
302.66737
302.68693
302.68066
302.70071
302.69532
302.7158
302.7113
302.73215
302.72855
302.7497
302.74701
302.76841
302.76662
302.78821
302.78731
302.80903
302.59971
302.60115
302.59919
302.60206
302.59898
302.60348
302.59914
302.60518
302.59962
302.60707
302.60036
302.60907
302.60131
302.61116
302.60251
302.61338
302.60405
302.61585
302.60606
302.61872
302.60869
302.62213
302.61208
302.62627
302.61638
302.63126
302.62172
302.63725
302.6282
302.64433
302.63587
302.65256
302.6448
302.662
302.655
302.67267
302.66649
302.68458
302.67925
302.69772
302.69326
302.71206
302.70849
302.72756
302.72488
302.74417
302.74239
302.76185
302.76096
302.78055
302.59982
302.60082
302.59926
302.60151
302.59882
302.60264
302.59873
302.60404
302.59895
302.60563
302.59941
302.60733
302.60009
302.60909
302.60098
302.61095
302.60215
302.61299
302.60372
302.61533
302.60579
302.61811
302.60851
302.62146
302.61199
302.62554
302.61636
302.63047
302.62173
302.63634
302.62815
302.64324
302.6357
302.65123
302.6444
302.66033
302.65429
302.67059
302.66536
302.68199
302.67761
302.69452
302.691
302.70815
302.70551
302.72286
302.7211
302.7386
302.73772
302.75534
302.59986
302.60047
302.59933
302.60101
302.59874
302.60191
302.59845
302.60306
302.59844
302.60438
302.59866
302.6058
302.59907
302.60727
302.59968
302.6088
302.60054
302.61046
302.60171
302.61234
302.60332
302.61457
302.60545
302.61727
302.60824
302.62057
302.6118
302.62459
302.61621
302.62943
302.62156
302.63518
302.6279
302.6419
302.6353
302.64964
302.64378
302.65843
302.65335
302.66828
302.66401
302.67919
302.67576
302.69115
302.68856
302.70413
302.7024
302.7181
302.71724
302.73304
302.59986
302.60012
302.59938
302.60054
302.59869
302.60126
302.59825
302.6022
302.59805
302.60328
302.59805
302.60444
302.59823
302.60563
302.59858
302.60686
302.59913
302.60817
302.59997
302.60966
302.60116
302.61142
302.60281
302.61356
302.605
302.6162
302.60786
302.61945
302.61146
302.62341
302.61588
302.62817
302.6212
302.63379
302.62745
302.64033
302.63469
302.64783
302.64293
302.65631
302.65218
302.66578
302.66245
302.67623
302.67372
302.68765
302.68597
302.70002
302.69918
302.71333
302.59982
302.59975
302.59939
302.60009
302.59865
302.60067
302.5981
302.60143
302.59773
302.60229
302.59754
302.6032
302.59749
302.60413
302.5976
302.60508
302.59789
302.60609
302.59842
302.60722
302.59925
302.60857
302.60047
302.61023
302.60217
302.61231
302.60443
302.61491
302.60733
302.61812
302.61096
302.62202
302.61538
302.6267
302.62064
302.6322
302.6268
302.63857
302.63387
302.64584
302.64188
302.65403
302.65083
302.66313
302.66072
302.67315
302.67153
302.68408
302.68327
302.69589
302.59974
302.59937
302.59938
302.59964
302.59861
302.60011
302.59797
302.60071
302.59747
302.60137
302.59709
302.60205
302.59683
302.60273
302.59671
302.60341
302.59675
302.60414
302.597
302.60496
302.59752
302.60596
302.59837
302.60721
302.59963
302.60881
302.60139
302.61085
302.6037
302.61342
302.60665
302.61659
302.6103
302.62045
302.6147
302.62505
302.61991
302.63044
302.62595
302.63665
302.63286
302.6437
302.64064
302.65161
302.64929
302.66037
302.65882
302.66999
302.66922
302.68046
302.59962
302.59899
302.59932
302.5992
302.59855
302.59957
302.59785
302.60002
302.59722
302.60048
302.59666
302.60094
302.59621
302.60138
302.59586
302.60182
302.59567
302.60228
302.59567
302.60283
302.59591
302.60351
302.59644
302.60441
302.59733
302.60559
302.59864
302.60716
302.60045
302.60919
302.60282
302.61174
302.60581
302.6149
302.60947
302.61872
302.61385
302.62325
302.619
302.62853
302.62493
302.63459
302.63167
302.64143
302.63923
302.64908
302.6476
302.65754
302.65679
302.66679
302.59947
302.5986
302.59923
302.59876
302.59848
302.59904
302.59771
302.59934
302.59695
302.5996
302.59623
302.59984
302.59557
302.60005
302.59502
302.60025
302.59461
302.60048
302.59438
302.60077
302.59436
302.60118
302.59461
302.60177
302.59518
302.60261
302.59612
302.60377
302.5975
302.60533
302.59937
302.60736
302.60179
302.60992
302.60481
302.61307
302.60849
302.61686
302.61285
302.62133
302.61793
302.62651
302.62375
302.63242
302.63033
302.63908
302.63768
302.64649
302.64579
302.65466
302.59929
302.59822
302.59911
302.59832
302.59837
302.59851
302.59753
302.59864
302.59664
302.5987
302.59574
302.59872
302.59489
302.59871
302.59414
302.59869
302.59353
302.59869
302.59308
302.59875
302.59284
302.59892
302.59284
302.59924
302.59313
302.59978
302.59376
302.60061
302.59477
302.60177
302.59621
302.60335
302.59815
302.6054
302.60062
302.60798
302.60368
302.61113
302.60736
302.6149
302.6117
302.61931
302.61672
302.6244
302.62243
302.63018
302.62886
302.63667
302.636
302.64386
302.59908
302.59784
302.59896
302.59788
302.59822
302.59796
302.5973
302.59791
302.59626
302.59776
302.59518
302.59755
302.59414
302.59732
302.5932
302.59709
302.59239
302.59688
302.59175
302.59674
302.59131
302.59669
302.59109
302.59678
302.59114
302.59707
302.59149
302.59761
302.59219
302.59844
302.59328
302.59964
302.5948
302.60126
302.5968
302.60334
302.59933
302.60594
302.60242
302.60911
302.60611
302.61286
302.61042
302.61723
302.61538
302.62224
302.62099
302.6279
302.62727
302.63422
302.59884
302.59748
302.59878
302.59743
302.59802
302.59737
302.59698
302.59711
302.59577
302.59673
302.59451
302.5963
302.59329
302.59585
302.59216
302.59542
302.59117
302.59503
302.59035
302.5947
302.58973
302.59446
302.58933
302.59436
302.58917
302.59443
302.58929
302.59472
302.58972
302.59528
302.5905
302.59616
302.59167
302.59741
302.59327
302.59908
302.59535
302.60121
302.59793
302.60385
302.60106
302.60703
302.60475
302.61077
302.60904
302.6151
302.61393
302.62003
302.61944
302.62558
302.59857
302.59713
302.59856
302.59698
302.59775
302.59673
302.59656
302.59622
302.59516
302.5956
302.59371
302.59494
302.5923
302.59429
302.591
302.59367
302.58985
302.5931
302.58887
302.59261
302.58809
302.59221
302.58752
302.59194
302.58718
302.59183
302.58711
302.59192
302.58731
302.59224
302.58784
302.59285
302.58871
302.59379
302.58997
302.59511
302.59166
302.59684
302.5938
302.59903
302.59644
302.60171
302.5996