/*--------------------------------*- C++ -*----------------------------------*\
| =========                 |                                                 |
| \\      /  F ield         | OpenFOAM: The Open Source CFD Toolbox           |
|  \\    /   O peration     | Version:  2312                                  |
|   \\  /    A nd           | Website:  www.openfoam.com                      |
|    \\/     M anipulation  |                                                 |
\*---------------------------------------------------------------------------*/
FoamFile
{
    version     2.0;
    format      ascii;
    arch        "LSB;label=32;scalar=64";
    class       volVectorField;
    location    "3";
    object      U;
}
// * * * * * * * * * * * * * * * * * * * * * * * * * * * * * * * * * * * * * //

dimensions      [0 1 -1 0 0 0 0];

internalField   nonuniform List<vector> 
4000
(
(0.0025772102 0.00050245665 0)
(0.0043076867 -1.0718782e-05 0)
(0.0028664634 -5.0300079e-07 0)
(0.0031125318 6.350208e-08 0)
(0.0030034199 -2.0528338e-07 0)
(0.0030592366 1.9117639e-07 0)
(0.0029960819 -2.1688353e-07 0)
(0.0030405079 1.8517927e-07 0)
(0.0029987004 -1.7736337e-07 0)
(0.0030356524 1.6574824e-07 0)
(0.0030011388 -1.563568e-07 0)
(0.0030331236 1.4722939e-07 0)
(0.0030030097 -1.3916312e-07 0)
(0.0030312344 1.3133521e-07 0)
(0.0030046279 -1.2419502e-07 0)
(0.0030296423 1.1736875e-07 0)
(0.0030060794 -1.1101894e-07 0)
(0.0030282449 1.0501607e-07 0)
(0.0030073832 -9.9388682e-08 0)
(0.0030270017 9.4097801e-08 0)
(0.0030085532 -8.9126237e-08 0)
(0.0030258899 8.4465586e-08 0)
(0.0030096033 -8.0085674e-08 0)
(0.0030248929 7.5987945e-08 0)
(0.0030105468 -7.2140234e-08 0)
(0.0030239967 6.8546986e-08 0)
(0.0030113959 -6.5177657e-08 0)
(0.0030231893 6.2037329e-08 0)
(0.0030121622 -5.9098152e-08 0)
(0.0030224596 5.6365187e-08 0)
(0.0030128559 -5.3813539e-08 0)
(0.0030217976 5.1447933e-08 0)
(0.0030134866 -4.9246448e-08 0)
(0.0030211944 4.7213399e-08 0)
(0.0030140629 -4.5329697e-08 0)
(0.0030206416 4.359918e-08 0)
(0.0030145928 -4.2005533e-08 0)
(0.0030201316 4.0552071e-08 0)
(0.0030150835 -3.9225074e-08 0)
(0.0030196575 3.8027376e-08 0)
(0.0030155417 -3.6947749e-08 0)
(0.0030192129 3.5988722e-08 0)
(0.0030159735 -3.5141254e-08 0)
(0.0030187917 3.4407334e-08 0)
(0.0030163838 -3.378564e-08 0)
(0.0030183869 3.3257468e-08 0)
(0.003016781 -3.2876851e-08 0)
(0.0030180238 3.2596556e-08 0)
(0.0030173017 -3.1990638e-08 0)
(0.0030180815 3.4794061e-08 0)
(0.0067401939 0.0013445251 0)
(0.011842236 -2.3928898e-06 0)
(0.0085675902 1.4235214e-05 0)
(0.0089819297 -5.2473044e-07 0)
(0.0087168323 -2.1420569e-07 0)
(0.0088801599 8.7331723e-07 0)
(0.0086966136 -4.8730538e-07 0)
(0.0088267004 6.6005589e-07 0)
(0.0087033786 -5.8989432e-07 0)
(0.0088133293 5.8380699e-07 0)
(0.008710591 -5.480751e-07 0)
(0.0088060886 5.2394449e-07 0)
(0.008716139 -4.9314724e-07 0)
(0.0088005207 4.6802198e-07 0)
(0.0087209693 -4.4145277e-07 0)
(0.0087957784 4.1802631e-07 0)
(0.0087253143 -3.9499593e-07 0)
(0.0087916029 3.7390849e-07 0)
(0.0087292207 -3.5374814e-07 0)
(0.0087878843 3.3500987e-07 0)
(0.0087327274 -3.1729044e-07 0)
(0.0087845571 3.0073888e-07 0)
(0.0087358752 -2.8516165e-07 0)
(0.0087815721 2.7059722e-07 0)
(0.0087387043 -2.5692615e-07 0)
(0.0087788879 2.4415285e-07 0)
(0.0087412519 -2.3218706e-07 0)
(0.008776468 2.2102427e-07 0)
(0.0087435524 -2.1058904e-07 0)
(0.0087742791 2.0087527e-07 0)
(0.0087456371 -1.9181742e-07 0)
(0.0087722913 1.8341032e-07 0)
(0.0087475346 -1.7559651e-07 0)
(0.0087704773 1.6837195e-07 0)
(0.008749271 -1.6168672e-07 0)
(0.0087688124 1.5553795e-07 0)
(0.0087508699 -1.4988239e-07 0)
(0.0087672737 1.4471815e-07 0)
(0.0087523532 -1.4000876e-07 0)
(0.0087658405 1.3575257e-07 0)
(0.0087537409 -1.3192007e-07 0)
(0.0087644935 1.2850932e-07 0)
(0.0087550517 -1.2549467e-07 0)
(0.0087632142 1.2289331e-07 0)
(0.0087563013 -1.2062464e-07 0)
(0.0087619805 1.1879079e-07 0)
(0.0087575062 -1.1761724e-07 0)
(0.0087608263 1.1461169e-07 0)
(0.0087589572 -1.2110374e-07 0)
(0.0087607394 1.1112551e-07 0)
(0.011246329 0.002283772 0)
(0.018817255 -1.0921072e-05 0)
(0.014113521 3.5083015e-05 0)
(0.014692799 -7.0607717e-07 0)
(0.014279521 -2.0423874e-07 0)
(0.014552237 1.7092333e-06 0)
(0.014246942 -7.0280246e-07 0)
(0.014466729 1.2064819e-06 0)
(0.014258804 -1.0521071e-06 0)
(0.0144453 1.0605442e-06 0)
(0.014271154 -9.9545266e-07 0)
(0.014433311 9.5605636e-07 0)
(0.014280566 -8.9869795e-07 0)
(0.014423934 8.5446404e-07 0)
(0.014288772 -8.0525258e-07 0)
(0.014415899 7.6301683e-07 0)
(0.01429616 -7.20726e-07 0)
(0.014408809 6.8239444e-07 0)
(0.014302803 -6.4552954e-07 0)
(0.014402491 6.113713e-07 0)
(0.014308766 -5.7902532e-07 0)
(0.014396837 5.4882495e-07 0)
(0.014314119 -5.2040857e-07 0)
(0.014391763 4.9382677e-07 0)
(0.01431893 -4.6889393e-07 0)
(0.0143872 4.4557988e-07 0)
(0.014323263 -4.2375881e-07 0)
(0.014383085 4.0338429e-07 0)
(0.014327177 -3.8435413e-07 0)
(0.014379362 3.6662416e-07 0)
(0.014330726 -3.5010488e-07 0)
(0.014375979 3.3475922e-07 0)
(0.014333957 -3.205073e-07 0)
(0.014372891 3.0731892e-07 0)
(0.014336915 -2.9512357e-07 0)
(0.014370054 2.8389717e-07 0)
(0.014339641 -2.7357779e-07 0)
(0.014367431 2.641464e-07 0)
(0.014342171 -2.5555013e-07 0)
(0.014364986 2.4777289e-07 0)
(0.014344541 -2.4077281e-07 0)
(0.014362685 2.3453344e-07 0)
(0.014346781 -2.2901888e-07 0)
(0.014360498 2.2425578e-07 0)
(0.01434892 -2.2005923e-07 0)
(0.014358386 2.1674931e-07 0)
(0.014350981 -2.1451005e-07 0)
(0.01435638 2.0830631e-07 0)
(0.014353376 -2.2449964e-07 0)
(0.014355995 2.0184182e-07 0)
(0.014951375 0.0028813669 0)
(0.025363903 -4.8945318e-05 0)
(0.019504134 6.3160055e-05 0)
(0.020248209 -9.0565612e-07 0)
(0.019692008 3.1527518e-08 0)
(0.020074919 2.6420487e-06 0)
(0.01964695 -7.3258669e-07 0)
(0.019960888 1.7309539e-06 0)
(0.019664802 -1.4756966e-06 0)
(0.019931793 1.5149269e-06 0)
(0.01968266 -1.4231195e-06 0)
(0.019914985 1.3732045e-06 0)
(0.019696143 -1.2892013e-06 0)
(0.019901645 1.2280265e-06 0)
(0.019707907 -1.1562547e-06 0)
(0.019890155 1.0963275e-06 0)
(0.019718499 -1.0351943e-06 0)
(0.019880001 9.8034083e-07 0)
(0.019728022 -9.2728648e-07 0)
(0.019870947 8.7826353e-07 0)
(0.019736569 -8.3179711e-07 0)
(0.019862844 7.8841375e-07 0)
(0.019744242 -7.4762095e-07 0)
(0.019855573 7.0942571e-07 0)
(0.019751137 -6.7364339e-07 0)
(0.019849033 6.4014229e-07 0)
(0.019757348 -6.0882797e-07 0)
(0.019843135 5.79551e-07 0)
(0.019762958 -5.522419e-07 0)
(0.019837798 5.267651e-07 0)
(0.019768046 -5.0305798e-07 0)
(0.019832948 4.8100691e-07 0)
(0.019772679 -4.6055211e-07 0)
(0.019828518 4.4159979e-07 0)
(0.019776922 -4.2409473e-07 0)
(0.019824449 4.0796048e-07 0)
(0.019780833 -3.9314576e-07 0)
(0.019820685 3.7958868e-07 0)
(0.019784465 -3.6724499e-07 0)
(0.019817176 3.5606219e-07 0)
(0.019787866 -3.4600692e-07 0)
(0.019813872 3.3702923e-07 0)
(0.019791083 -3.2910138e-07 0)
(0.019810731 3.2224868e-07 0)
(0.019794157 -3.1615782e-07 0)
(0.019807696 3.1147787e-07 0)
(0.019797119 -3.0816442e-07 0)
(0.019804785 2.982426e-07 0)
(0.01980047 -3.2797912e-07 0)
(0.019803939 2.8959382e-07 0)
(0.019451681 0.0037668209 0)
(0.031556515 -5.6509262e-05 0)
(0.024721632 9.7403722e-05 0)
(0.025651154 -1.5521133e-06 0)
(0.024953932 4.5584647e-07 0)
(0.025447304 3.6377271e-06 0)
(0.024896491 -5.8823851e-07 0)
(0.025309081 2.2060212e-06 0)
(0.024921476 -1.8449025e-06 0)
(0.02527269 1.926596e-06 0)
(0.024945208 -1.8137712e-06 0)
(0.025250996 1.7580272e-06 0)
(0.024962962 -1.6485486e-06 0)
(0.025233546 1.573248e-06 0)
(0.024978456 -1.4799106e-06 0)
(0.025218451 1.4041572e-06 0)
(0.024992405 -1.3253559e-06 0)
(0.025205094 1.2554121e-06 0)
(0.025004942 -1.1873327e-06 0)
(0.025193181 1.1246406e-06 0)
(0.025016192 -1.0651257e-06 0)
(0.025182517 1.009593e-06 0)
(0.025026289 -9.5738328e-07 0)
(0.025172949 9.0847828e-07 0)
(0.025035363 -8.62694e-07 0)
(0.025164344 8.1979706e-07 0)
(0.025043536 -7.7973327e-07 0)
(0.025156582 7.4224534e-07 0)
(0.025050919 -7.0730581e-07 0)
(0.025149558 6.7468389e-07 0)
(0.025057614 -6.4435155e-07 0)
(0.025143175 6.1611572e-07 0)
(0.025063712 -5.8994283e-07 0)
(0.025137345 5.6567376e-07 0)
(0.025069298 -5.4327313e-07 0)
(0.025131989 5.226111e-07 0)
(0.025074446 -5.0365081e-07 0)
(0.025127034 4.8628717e-07 0)
(0.025079227 -4.7048643e-07 0)
(0.025122413 4.561601e-07 0)
(0.025083705 -4.4328553e-07 0)
(0.025118064 4.3177784e-07 0)
(0.025087942 -4.2162098e-07 0)
(0.025113928 4.1284002e-07 0)
(0.025091989 -4.0496648e-07 0)
(0.025109932 3.9908991e-07 0)
(0.02509589 -3.9468775e-07 0)
(0.025106075 3.8087002e-07 0)
(0.02510021 -4.2687569e-07 0)
(0.025104628 3.7063055e-07 0)
(0.023092092 0.0042577119 0)
(0.037244715 -0.00012129464 0)
(0.029775509 0.00013465934 0)
(0.030907258 -2.5202122e-06 0)
(0.030064186 1.095528e-06 0)
(0.030669259 4.7126207e-06 0)
(0.02999587 -2.9599949e-07 0)
(0.030511009 2.629324e-06 0)
(0.030029226 -2.1650334e-06 0)
(0.030467656 2.2967486e-06 0)
(0.030059139 -2.1699711e-06 0)
(0.030441036 2.1121671e-06 0)
(0.030081323 -1.978513e-06 0)
(0.030419361 1.8915906e-06 0)
(0.030100686 -1.7776831e-06 0)
(0.03040054 1.6878241e-06 0)
(0.030118113 -1.5924954e-06 0)
(0.03038387 1.508802e-06 0)
(0.030133771 -1.4268162e-06 0)
(0.030368998 1.3515811e-06 0)
(0.030147818 -1.2800433e-06 0)
(0.030355685 1.2133366e-06 0)
(0.030160423 -1.1506247e-06 0)
(0.030343741 1.0918629e-06 0)
(0.030171751 -1.0368841e-06 0)
(0.030332998 9.853383e-07 0)
(0.030181954 -9.3723208e-07 0)
(0.030323309 8.9218559e-07 0)
(0.030191171 -8.5023263e-07 0)
(0.03031454 8.1103322e-07 0)
(0.030199529 -7.7461061e-07 0)
(0.030306571 7.4068125e-07 0)
(0.030207142 -7.0925121e-07 0)
(0.030299293 6.8008709e-07 0)
(0.030214116 -6.531847e-07 0)
(0.030292605 6.2835379e-07 0)
(0.030220543 -6.0558019e-07 0)
(0.030286419 5.8471029e-07 0)
(0.030226513 -5.6572857e-07 0)
(0.030280649 5.4850544e-07 0)
(0.030232104 -5.3303483e-07 0)
(0.03027522 5.1919261e-07 0)
(0.030237393 -5.0698089e-07 0)
(0.030270056 4.9642001e-07 0)
(0.030242447 -4.8686927e-07 0)
(0.030265069 4.7995091e-07 0)
(0.030247316 -4.7441784e-07 0)
(0.030260234 4.5663815e-07 0)
(0.030252615 -5.2089079e-07 0)
(0.030258065 4.4473603e-07 0)
(0.027238299 0.0048798935 0)
(0.042666543 -0.00013272086 0)
(0.034673918 0.00017693983 0)
(0.036011349 -4.4074153e-06 0)
(0.035020696 1.8714337e-06 0)
(0.035740084 5.8265294e-06 0)
(0.034945191 1.0164606e-07 0)
(0.035566244 2.9945466e-06 0)
(0.034988427 -2.4430104e-06 0)
(0.035516314 2.6268257e-06 0)
(0.035024799 -2.495146e-06 0)
(0.035484771 2.4378513e-06 0)
(0.03505154 -2.2815401e-06 0)
(0.035458794 2.1851166e-06 0)
(0.035074877 -2.0516232e-06 0)
(0.03543616 1.9492032e-06 0)
(0.035095872 -1.8384228e-06 0)
(0.035416096 1.7422056e-06 0)
(0.035114729 -1.6473549e-06 0)
(0.035398192 1.5606121e-06 0)
(0.035131642 -1.4780009e-06 0)
(0.035382166 1.4010184e-06 0)
(0.035146817 -1.3286504e-06 0)
(0.035367786 1.2608175e-06 0)
(0.035160454 -1.1973894e-06 0)
(0.035354854 1.1378825e-06 0)
(0.035172736 -1.0823872e-06 0)
(0.035343189 1.0303831e-06 0)
(0.035183832 -9.8198575e-07 0)
(0.035332632 9.3673175e-07 0)
(0.035193895 -8.9471248e-07 0)
(0.035323038 8.5554202e-07 0)
(0.035203061 -8.1928015e-07 0)
(0.035314275 7.8560968e-07 0)
(0.035211457 -7.5456894e-07 0)
(0.035306223 7.2589936e-07 0)
(0.035219196 -6.996195e-07 0)
(0.035298774 6.7552081e-07 0)
(0.035226383 -6.5361278e-07 0)
(0.035291828 6.3372023e-07 0)
(0.035233115 -6.1586023e-07 0)
(0.035285291 5.9986338e-07 0)
(0.035239482 -5.8575762e-07 0)
(0.035279075 5.7355159e-07 0)
(0.035245567 -5.6242428e-07 0)
(0.035273074 5.5460443e-07 0)
(0.035251427 -5.4787943e-07 0)
(0.035267239 5.2617779e-07 0)
(0.035257712 -6.0995971e-07 0)
(0.035264244 5.1212274e-07 0)
(0.031246552 0.0054493027 0)
(0.047524986 -0.00020947028 0)
(0.039415626 0.00021512079 0)
(0.040956638 -4.8461797e-06 0)
(0.039824783 3.1976181e-06 0)
(0.040660748 7.0447615e-06 0)
(0.039745286 6.0109625e-07 0)
(0.040474643 3.298867e-06 0)
(0.039799525 -2.6799065e-06 0)
(0.040418375 2.9167514e-06 0)
(0.039842513 -2.7897709e-06 0)
(0.040381915 2.7351645e-06 0)
(0.039873889 -2.5577877e-06 0)
(0.040351585 2.4538522e-06 0)
(0.039901274 -2.3018058e-06 0)
(0.04032508 2.1883293e-06 0)
(0.039925899 -2.0631937e-06 0)
(0.040301567 1.9556657e-06 0)
(0.039948008 -1.848997e-06 0)
(0.040280582 1.7517776e-06 0)
(0.039967833 -1.6590426e-06 0)
(0.040261798 1.5726807e-06 0)
(0.039985621 -1.4914994e-06 0)
(0.040244943 1.4153797e-06 0)
(0.040001604 -1.3442451e-06 0)
(0.040229785 1.277464e-06 0)
(0.040016001 -1.2152291e-06 0)
(0.040216112 1.1568672e-06 0)
(0.040029007 -1.1025924e-06 0)
(0.040203737 1.0518057e-06 0)
(0.040040802 -1.0046814e-06 0)
(0.04019249 9.607216e-07 0)
(0.040051548 -9.2005177e-07 0)
(0.040182216 8.8226293e-07 0)
(0.040061391 -8.4744632e-07 0)
(0.040172777 8.1526872e-07 0)
(0.040070464 -7.857887e-07 0)
(0.040164043 7.5873795e-07 0)
(0.04007889 -7.3415852e-07 0)
(0.0401559 7.118245e-07 0)
(0.040086782 -6.9178153e-07 0)
(0.040148236 6.7381127e-07 0)
(0.040094246 -6.5797367e-07 0)
(0.04014095 6.4425817e-07 0)
(0.040101379 -6.3166066e-07 0)
(0.04013392 6.2307416e-07 0)
(0.040108247 -6.1510334e-07 0)
(0.040127068 5.8961262e-07 0)
(0.040115521 -6.9363312e-07 0)
(0.040123159 5.7269198e-07 0)
(0.035018575 0.0057726867 0)
(0.052080688 -0.00023212999 0)
(0.044048902 0.00025268086 0)
(0.045689261 -5.7302064e-06 0)
(0.044468529 4.4827611e-06 0)
(0.045429475 8.245357e-06 0)
(0.044396295 1.1602235e-06 0)
(0.045235873 3.529224e-06 0)
(0.04446284 -2.8786595e-06 0)
(0.045173555 3.1648599e-06 0)
(0.044512556 -3.0539653e-06 0)
(0.045132212 3.003421e-06 0)
(0.044548615 -2.8068636e-06 0)
(0.045097505 2.697234e-06 0)
(0.044580092 -2.5277805e-06 0)
(0.045067097 2.404729e-06 0)
(0.044608384 -2.2663874e-06 0)
(0.045040104 2.1487731e-06 0)
(0.044633776 -2.0313621e-06 0)
(0.04501601 1.9247155e-06 0)
(0.044656542 -1.8228251e-06 0)
(0.044994441 1.7279979e-06 0)
(0.044676966 -1.6388622e-06 0)
(0.044975089 1.5552563e-06 0)
(0.044695319 -1.47717e-06 0)
(0.044957683 1.4038154e-06 0)
(0.04471185 -1.3355026e-06 0)
(0.044941982 1.2713952e-06 0)
(0.044726786 -1.2118191e-06 0)
(0.04492777 1.1560324e-06 0)
(0.044740331 -1.1043032e-06 0)
(0.044914853 1.0560151e-06 0)
(0.044752673 -1.0113685e-06 0)
(0.044903053 9.6985774e-07 0)
(0.044763978 -9.3163411e-07 0)
(0.04489221 8.9628549e-07 0)
(0.0447744 -8.639175e-07 0)
(0.044882179 8.3419855e-07 0)
(0.044784078 -8.0720716e-07 0)
(0.044872824 7.8266495e-07 0)
(0.044793143 -7.6065048e-07 0)
(0.044864022 7.4089267e-07 0)
(0.044801716 -7.2348936e-07 0)
(0.044855654 7.0840357e-07 0)
(0.044809908 -6.944518e-07 0)
(0.044847583 6.8523168e-07 0)
(0.044817797 -6.7597296e-07 0)
(0.044839706 6.4689658e-07 0)
(0.044826058 -7.7137289e-07 0)
(0.04483481 6.263233e-07 0)
(0.039398088 0.0064035468 0)
(0.056087116 -0.00031815681 0)
(0.048609954 0.00029381798 0)
(0.050192256 -8.255492e-06 0)
(0.048942389 4.879726e-06 0)
(0.050045434 9.2906102e-06 0)
(0.04889839 1.7339732e-06 0)
(0.049849675 3.6750319e-06 0)
(0.048978674 -3.0414049e-06 0)
(0.049781609 3.3705067e-06 0)
(0.04903518 -3.2878085e-06 0)
(0.049735434 3.2423262e-06 0)
(0.049075938 -3.0285526e-06 0)
(0.049696351 2.9149554e-06 0)
(0.049111525 -2.7293015e-06 0)
(0.04966203 2.5981401e-06 0)
(0.049143499 -2.4477738e-06 0)
(0.049631546 2.3213015e-06 0)
(0.049172185 -2.1942405e-06 0)
(0.049604333 2.079225e-06 0)
(0.049197902 -1.9691585e-06 0)
(0.049579971 1.8667899e-06 0)
(0.049220971 -1.770565e-06 0)
(0.049558111 1.6802823e-06 0)
(0.049241702 -1.5960057e-06 0)
(0.049538448 1.5167862e-06 0)
(0.049260376 -1.443061e-06 0)
(0.049520711 1.3738269e-06 0)
(0.049277249 -1.3095306e-06 0)
(0.049504655 1.2492821e-06 0)
(0.049292553 -1.1934521e-06 0)
(0.04949006 1.141302e-06 0)
(0.049306498 -1.0931135e-06 0)
(0.049476726 1.0482812e-06 0)
(0.049319273 -1.0070227e-06 0)
(0.049464473 9.688447e-07 0)
(0.04933105 -9.3390331e-07 0)
(0.049453137 9.0180232e-07 0)
(0.049341988 -8.7266148e-07 0)
(0.049442565 8.4614746e-07 0)
(0.049352232 -8.2237454e-07 0)
(0.049432618 8.0101828e-07 0)
(0.04936192 -7.8221797e-07 0)
(0.049423161 7.6590348e-07 0)
(0.049371177 -7.5071888e-07 0)
(0.049414045 7.4099117e-07 0)
(0.049380092 -7.3042028e-07 0)
(0.04940514 6.9801607e-07 0)
(0.049389338 -8.4273506e-07 0)
(0.049399195 6.7299951e-07 0)
(0.042880825 0.006467717 0)
(0.059880434 -0.0003575276 0)
(0.053018992 0.00033235981 0)
(0.054533121 -1.0908771e-05 0)
(0.053255111 4.3999574e-06 0)
(0.054510364 1.0075008e-05 0)
(0.053252622 2.2967649e-06 0)
(0.05431604 3.7274678e-06 0)
(0.053347368 -3.1700817e-06 0)
(0.054242336 3.5332909e-06 0)
(0.053410616 -3.4917262e-06 0)
(0.054191378 3.451833e-06 0)
(0.053456055 -3.2229231e-06 0)
(0.054147937 3.1069583e-06 0)
(0.053495748 -2.9063697e-06 0)
(0.054109715 2.7685281e-06 0)
(0.053531397 -2.6073406e-06 0)
(0.054075748 2.4732288e-06 0)
(0.053563372 -2.3376161e-06 0)
(0.054045422 2.2152876e-06 0)
(0.053592033 -2.0980237e-06 0)
(0.054018272 1.9890373e-06 0)
(0.053617744 -1.8865881e-06 0)
(0.053993908 1.7904379e-06 0)
(0.053640849 -1.7007301e-06 0)
(0.053971993 1.6163544e-06 0)
(0.053661663 -1.537882e-06 0)
(0.053952222 1.4641403e-06 0)
(0.053680471 -1.395703e-06 0)
(0.053934323 1.3315317e-06 0)
(0.053697533 -1.2721038e-06 0)
(0.05391805 1.2165579e-06 0)
(0.05371308 -1.1652614e-06 0)
(0.053903184 1.1175086e-06 0)
(0.053727324 -1.0735867e-06 0)
(0.053889521 1.0329203e-06 0)
(0.053740456 -9.9572016e-07 0)
(0.053876879 9.615247e-07 0)
(0.053752654 -9.3049611e-07 0)
(0.053865089 9.0224694e-07 0)
(0.053764078 -8.769294e-07 0)
(0.053853996 8.5416403e-07 0)
(0.053774882 -8.3413537e-07 0)
(0.053843451 8.1673389e-07 0)
(0.053785205 -8.0044373e-07 0)
(0.053833289 7.9032875e-07 0)
(0.053795147 -7.784368e-07 0)
(0.053823357 7.4299733e-07 0)
(0.053805371 -9.0737371e-07 0)
(0.053816316 7.1280567e-07 0)
(0.047646858 0.0071505848 0)
(0.063317553 -0.00042788326 0)
(0.057165904 0.00035843407 0)
(0.0587903 -1.1462003e-05 0)
(0.057413018 3.4699925e-06 0)
(0.058826337 1.0589569e-05 0)
(0.057459789 2.8494233e-06 0)
(0.058634862 3.6886573e-06 0)
(0.057569165 -3.2636752e-06 0)
(0.058555523 3.6541279e-06 0)
(0.057639061 -3.6659684e-06 0)
(0.058499853 3.6321715e-06 0)
(0.057689144 -3.3901644e-06 0)
(0.058452096 3.2733534e-06 0)
(0.057732919 -3.0591244e-06 0)
(0.058410002 2.9159996e-06 0)
(0.05777222 -2.7452022e-06 0)
(0.058372579 2.6046548e-06 0)
(0.057807461 -2.4615854e-06 0)
(0.058339162 2.332992e-06 0)
(0.057839047 -2.2095044e-06 0)
(0.058309241 2.0948179e-06 0)
(0.057867382 -1.9870017e-06 0)
(0.058282391 1.885789e-06 0)
(0.057892846 -1.7914037e-06 0)
(0.058258236 1.7025768e-06 0)
(0.057915786 -1.6200158e-06 0)
(0.058236442 1.542382e-06 0)
(0.057936519 -1.470379e-06 0)
(0.058216711 1.4028203e-06 0)
(0.057955328 -1.3402937e-06 0)
(0.05819877 1.2818157e-06 0)
(0.057972469 -1.227842e-06 0)
(0.058182378 1.1775672e-06 0)
(0.057988175 -1.1313508e-06 0)
(0.058167311 1.088536e-06 0)
(0.058002657 -1.0493891e-06 0)
(0.05815337 1.0133841e-06 0)
(0.058016109 -9.8072848e-07 0)
(0.058140367 9.5097985e-07 0)
(0.058028709 -9.2432948e-07 0)
(0.058128132 9.0034437e-07 0)
(0.058040624 -8.792557e-07 0)
(0.058116502 8.6090908e-07 0)
(0.05805201 -8.4364277e-07 0)
(0.0581053 8.3325116e-07 0)
(0.058062975 -8.2005074e-07 0)
(0.058094348 7.8189722e-07 0)
(0.058074166 -9.6502251e-07 0)
(0.058086171 7.4588847e-07 0)
(0.050822768 0.0069989186 0)
(0.06657048 -0.00048492396 0)
(0.061096949 0.0003836203 0)
(0.062964969 -1.1653339e-05 0)
(0.061419693 2.5978318e-06 0)
(0.062994096 1.0841405e-05 0)
(0.061520404 3.4008214e-06 0)
(0.062806 3.5661431e-06 0)
(0.061644272 -3.319975e-06 0)
(0.062720973 3.7343078e-06 0)
(0.061720684 -3.8109311e-06 0)
(0.062660682 3.7836245e-06 0)
(0.061775362 -3.5306277e-06 0)
(0.062608675 3.4143352e-06 0)
(0.061823179 -3.1878257e-06 0)
(0.062562759 3.0407529e-06 0)
(0.061866092 -2.8615713e-06 0)
(0.06252192 2.7157661e-06 0)
(0.061904563 -2.5663301e-06 0)
(0.062485446 2.4325055e-06 0)
(0.061939041 -2.3037566e-06 0)
(0.062452786 2.1842778e-06 0)
(0.061969971 -2.0719428e-06 0)
(0.062423475 1.9664641e-06 0)
(0.061997769 -1.868145e-06 0)
(0.062397104 1.7755643e-06 0)
(0.062022815 -1.6895665e-06 0)
(0.062373309 1.60865e-06 0)
(0.062045453 -1.533649e-06 0)
(0.062351762 1.4632331e-06 0)
(0.062065992 -1.3981009e-06 0)
(0.06233217 1.3371499e-06 0)
(0.062084712 -1.2809245e-06 0)
(0.062314266 1.2285224e-06 0)
(0.062101867 -1.1803759e-06 0)
(0.062297808 1.1357484e-06 0)
(0.062117687 -1.0949636e-06 0)
(0.062282578 1.0574324e-06 0)
(0.062132382 -1.0234068e-06 0)
(0.062268373 9.9239212e-07 0)
(0.062146148 -9.6461933e-07 0)
(0.062255005 9.3960189e-07 0)
(0.062159165 -9.1761951e-07 0)
(0.062242299 8.9846834e-07 0)
(0.062171605 -8.8035915e-07 0)
(0.062230064 8.6979505e-07 0)
(0.062183586 -8.5531587e-07 0)
(0.062218102 8.1478374e-07 0)
(0.062195733 -1.0154768e-06 0)
(0.062208763 7.7244842e-07 0)
(0.055772912 0.0076585041 0)
(0.069592598 -0.00054317778 0)
(0.064846096 0.00040197054 0)
(0.06701458 -1.2284547e-05 0)
(0.065279324 2.0504425e-06 0)
(0.067014022 1.0800246e-05 0)
(0.065434913 3.9520536e-06 0)
(0.066829401 3.3616099e-06 0)
(0.065572954 -3.3373467e-06 0)
(0.066738556 3.7755149e-06 0)
(0.065655663 -3.9268279e-06 0)
(0.066673723 3.9067484e-06 0)
(0.065714856 -3.6446809e-06 0)
(0.06661754 3.5302458e-06 0)
(0.065766657 -3.2928083e-06 0)
(0.066567865 3.1430893e-06 0)
(0.065813127 -2.9567405e-06 0)
(0.066523663 2.8068324e-06 0)
(0.065854779 -2.6521058e-06 0)
(0.066484179 2.5140672e-06 0)
(0.065892105 -2.381006e-06 0)
(0.066448821 2.2576291e-06 0)
(0.065925592 -2.1416087e-06 0)
(0.066417086 2.0326491e-06 0)
(0.06595569 -1.9311284e-06 0)
(0.066388531 1.8354817e-06 0)
(0.06598281 -1.7466867e-06 0)
(0.066362763 1.6630883e-06 0)
(0.066007326 -1.5856481e-06 0)
(0.066339427 1.5128977e-06 0)
(0.066029572 -1.4456449e-06 0)
(0.066318204 1.3826734e-06 0)
(0.06604985 -1.3246152e-06 0)
(0.066298808 1.2704747e-06 0)
(0.066068436 -1.2207568e-06 0)
(0.066280978 1.1746487e-06 0)
(0.066085576 -1.1325294e-06 0)
(0.066264475 1.0937502e-06 0)
(0.0661015 -1.0586084e-06 0)
(0.066249082 1.0265582e-06 0)
(0.066116417 -9.9786933e-07 0)
(0.066234595 9.7200539e-07 0)
(0.066130524 -9.4929374e-07 0)
(0.066220826 9.294777e-07 0)
(0.066144004 -9.1065873e-07 0)
(0.066207571 9.0001578e-07 0)
(0.066156991 -8.8431012e-07 0)
(0.066194614 8.4174777e-07 0)
(0.066170078 -1.0585949e-06 0)
(0.066184093 7.9271818e-07 0)
(0.058876043 0.0074298609 0)
(0.072459799 -0.00060568771 0)
(0.068491429 0.00041248607 0)
(0.070882323 -1.4540142e-05 0)
(0.068997816 1.414579e-06 0)
(0.070885066 1.0346801e-05 0)
(0.069203332 4.4555518e-06 0)
(0.070704938 3.0609314e-06 0)
(0.069355418 -3.3204752e-06 0)
(0.070608157 3.7773072e-06 0)
(0.069444157 -4.0148158e-06 0)
(0.070538846 4.0018708e-06 0)
(0.069507758 -3.7329212e-06 0)
(0.070478571 3.6214656e-06 0)
(0.069563466 -3.3745218e-06 0)
(0.070425212 3.2233827e-06 0)
(0.069613428 -3.0310886e-06 0)
(0.070377713 2.8781965e-06 0)
(0.069658199 -2.7192417e-06 0)
(0.070335277 2.5779833e-06 0)
(0.06969832 -2.4415402e-06 0)
(0.070297272 2.3151421e-06 0)
(0.069734315 -2.196254e-06 0)
(0.070263157 2.084584e-06 0)
(0.06976667 -1.9805783e-06 0)
(0.070232459 1.8825405e-06 0)
(0.069795828 -1.7915765e-06 0)
(0.070204752 1.7058858e-06 0)
(0.069822189 -1.6265535e-06 0)
(0.070179658 1.5519818e-06 0)
(0.069846112 -1.4830838e-06 0)
(0.070156834 1.418536e-06 0)
(0.069867922 -1.359055e-06 0)
(0.070135971 1.3035583e-06 0)
(0.069887913 -1.2526204e-06 0)
(0.07011679 1.2053565e-06 0)
(0.069906353 -1.1622009e-06 0)
(0.070099035 1.1224482e-06 0)
(0.069923485 -1.0864382e-06 0)
(0.070082472 1.0535787e-06 0)
(0.069939536 -1.0241772e-06 0)
(0.070066885 9.976489e-07 0)
(0.069954715 -9.7436889e-07 0)
(0.070052069 9.5402528e-07 0)
(0.069969221 -9.3463167e-07 0)
(0.07003781 9.2399701e-07 0)
(0.069983198 -9.0713322e-07 0)
(0.070023874 8.6288976e-07 0)
(0.069997207 -1.0942875e-06 0)
(0.070012163 8.0696556e-07 0)
(0.063773563 0.0079158388 0)
(0.075193692 -0.00065480726 0)
(0.072062985 0.00041962764 0)
(0.074546375 -1.7161377e-05 0)
(0.072578851 4.6613029e-07 0)
(0.074606928 9.553411e-06 0)
(0.072826023 4.9082532e-06 0)
(0.07443253 2.6641229e-06 0)
(0.072991857 -3.2692425e-06 0)
(0.074329677 3.7412778e-06 0)
(0.073086314 -4.0753462e-06 0)
(0.07425594 4.0697451e-06 0)
(0.073154189 -3.7958758e-06 0)
(0.074191662 3.6885361e-06 0)
(0.073213713 -3.4334564e-06 0)
(0.074134704 3.2821031e-06 0)
(0.073267085 -3.0850543e-06 0)
(0.074083984 2.9302727e-06 0)
(0.073314905 -2.7681263e-06 0)
(0.074038664 2.6246207e-06 0)
(0.073357758 -2.4857047e-06 0)
(0.07399807 2.3571431e-06 0)
(0.073396205 -2.236184e-06 0)
(0.073961629 2.1225574e-06 0)
(0.073430768 -2.0167664e-06 0)
(0.073928833 1.9169982e-06 0)
(0.073461919 -1.8244763e-06 0)
(0.07389923 1.7372704e-06 0)
(0.073490085 -1.6565803e-06 0)
(0.073872414 1.5806889e-06 0)
(0.07351565 -1.5106097e-06 0)
(0.073848022 1.4449202e-06 0)
(0.07353896 -1.3844172e-06 0)
(0.073825723 1.3279376e-06 0)
(0.073560328 -1.276123e-06 0)
(0.073805218 1.2280222e-06 0)
(0.073580041 -1.1841206e-06 0)
(0.073786236 1.1436615e-06 0)
(0.073598359 -1.1070266e-06 0)
(0.073768526 1.0735792e-06 0)
(0.073615521 -1.0436629e-06 0)
(0.073751858 1.0166494e-06 0)
(0.073631752 -9.9295876e-07 0)
(0.073736015 9.7222305e-07 0)
(0.073647264 -9.5238767e-07 0)
(0.073720772 9.418377e-07 0)
(0.073662214 -9.2390545e-07 0)
(0.073705879 8.7833296e-07 0)
(0.073677124 -1.1225202e-06 0)
(0.073692975 8.1547274e-07 0)
(0.067215099 0.0077143807 0)
(0.077823453 -0.00071236855 0)
(0.075565926 0.00042017572 0)
(0.078019885 -2.0511133e-05 0)
(0.076025396 -1.1750323e-06 0)
(0.078178939 8.5020532e-06 0)
(0.076303542 5.3054063e-06 0)
(0.078011914 2.1774523e-06 0)
(0.076482322 -3.1823447e-06 0)
(0.077902945 3.6692501e-06 0)
(0.076582212 -4.1090407e-06 0)
(0.077824877 4.1110215e-06 0)
(0.076654242 -3.8342746e-06 0)
(0.077756712 3.7319924e-06 0)
(0.076717485 -3.4702196e-06 0)
(0.077696253 3.3197601e-06 0)
(0.076774179 -3.1191544e-06 0)
(0.077642398 2.9635282e-06 0)
(0.076824969 -2.79921e-06 0)
(0.077594268 2.6543981e-06 0)
(0.076870483 -2.5138949e-06 0)
(0.077551154 2.3840036e-06 0)
(0.07691132 -2.2617503e-06 0)
(0.077512445 2.1469009e-06 0)
(0.076948035 -2.0400046e-06 0)
(0.077477605 1.9391489e-06 0)
(0.076981129 -1.8456655e-06 0)
(0.077446153 1.7575062e-06 0)
(0.077011055 -1.6759775e-06 0)
(0.077417659 1.5992557e-06 0)
(0.077038221 -1.5284464e-06 0)
(0.077391736 1.4620384e-06 0)
(0.077062994 -1.4009029e-06 0)
(0.077368034 1.3438046e-06 0)
(0.077085708 -1.291447e-06 0)
(0.077346237 1.2428188e-06 0)
(0.077106664 -1.1984545e-06 0)
(0.077326056 1.1575506e-06 0)
(0.07712614 -1.1205265e-06 0)
(0.077307226 1.0867069e-06 0)
(0.077144388 -1.0564694e-06 0)
(0.077289502 1.0291448e-06 0)
(0.077161648 -1.0051967e-06 0)
(0.077272655 9.8420104e-07 0)
(0.077178143 -9.6405731e-07 0)
(0.077256449 9.5366241e-07 0)
(0.077194045 -9.3476467e-07 0)
(0.077240623 8.8820736e-07 0)
(0.077209834 -1.1433021e-06 0)
(0.07722653 8.1854297e-07 0)
(0.072089066 0.0080233481 0)
(0.080395205 -0.0007519205 0)
(0.078947538 0.00041790722 0)
(0.081354488 -2.2542198e-05 0)
(0.079342189 -3.3363511e-06 0)
(0.081602127 7.3554095e-06 0)
(0.079637694 5.6747106e-06 0)
(0.081443076 1.6234198e-06 0)
(0.079827013 -3.0536441e-06 0)
(0.081327885 3.565577e-06 0)
(0.079931961 -4.1154593e-06 0)
(0.081245562 4.1269258e-06 0)
(0.080008007 -3.8486765e-06 0)
(0.081173631 3.7525488e-06 0)
(0.080074865 -3.4854246e-06 0)
(0.081109781 3.3369507e-06 0)
(0.080134784 -3.1339456e-06 0)
(0.081052886 2.9784883e-06 0)
(0.080188457 -2.8129873e-06 0)
(0.081002031 2.6677823e-06 0)
(0.080236553 -2.526552e-06 0)
(0.080956469 2.3961403e-06 0)
(0.080279711 -2.273344e-06 0)
(0.080915558 2.1579844e-06 0)
(0.080318515 -2.0506425e-06 0)
(0.080878732 1.9493241e-06 0)
(0.080353496 -1.8554551e-06 0)
(0.080845483 1.7668882e-06 0)
(0.080385133 -1.6850246e-06 0)
(0.080815357 1.607947e-06 0)
(0.080413857 -1.536845e-06 0)
(0.080787946 1.4701296e-06 0)
(0.080440054 -1.4087393e-06 0)
(0.08076288 1.3513755e-06 0)
(0.080464076 -1.2987987e-06 0)
(0.080739826 1.2499449e-06 0)
(0.080486242 -1.2053916e-06 0)
(0.080718478 1.1642956e-06 0)
(0.080506845 -1.1271119e-06 0)
(0.080698557 1.0931298e-06 0)
(0.080526151 -1.0627576e-06 0)
(0.080679804 1.0352922e-06 0)
(0.080544413 -1.0112356e-06 0)
(0.080661978 9.9010956e-07 0)
(0.080561866 -9.6978682e-07 0)
(0.080644835 9.5960695e-07 0)
(0.080578696 -9.3986548e-07 0)
(0.080628101 8.926645e-07 0)
(0.08059534 -1.1566892e-06 0)
(0.080612832 8.1648033e-07 0)
(0.07568385 0.0078146718 0)
(0.082890833 -0.00079979093 0)
(0.082161043 0.00040690505 0)
(0.084581005 -2.3805973e-05 0)
(0.08253526 -5.6338001e-06 0)
(0.08487638 6.2136344e-06 0)
(0.082830488 6.0250215e-06 0)
(0.084725915 1.0261966e-06 0)
(0.083026126 -2.8809502e-06 0)
(0.084604455 3.4334083e-06 0)
(0.083135674 -4.0947852e-06 0)
(0.084517918 4.1184728e-06 0)
(0.08321557 -3.8398384e-06 0)
(0.084442346 3.7509057e-06 0)
(0.083285925 -3.4797769e-06 0)
(0.08437522 3.3343022e-06 0)
(0.083348965 -3.130046e-06 0)
(0.084315387 2.97572e-06 0)
(0.083405426 -2.810002e-06 0)
(0.084261896 2.6652807e-06 0)
(0.083456021 -2.5241553e-06 0)
(0.084213966 2.3940047e-06 0)
(0.083501423 -2.2713931e-06 0)
(0.084170925 2.1562123e-06 0)
(0.08354225 -2.0490609e-06 0)
(0.084132176 1.947884e-06 0)
(0.083579059 -1.8541874e-06 0)
(0.084097187 1.7657409e-06 0)
(0.083612353 -1.6840282e-06 0)
(0.08406548 1.6070544e-06 0)
(0.083642585 -1.5360822e-06 0)
(0.084036627 1.4694569e-06 0)
(0.083670162 -1.4081766e-06 0)
(0.084010239 1.3508892e-06 0)
(0.083695453 -1.2984057e-06 0)
(0.083985965 1.2496168e-06 0)
(0.083718793 -1.2051401e-06 0)
(0.083963485 1.1640978e-06 0)
(0.083740489 -1.1269751e-06 0)
(0.083942505 1.0930334e-06 0)
(0.083760822 -1.0627083e-06 0)
(0.083922754 1.0352658e-06 0)
(0.083780057 -1.0112442e-06 0)
(0.083903977 9.9011338e-07 0)
(0.08379844 -9.6974031e-07 0)
(0.083885924 9.5983029e-07 0)
(0.083816173 -9.3937643e-07 0)
(0.08386831 8.9185982e-07 0)
(0.083833644 -1.1627731e-06 0)
(0.083851883 8.0960022e-07 0)
(0.080329174 0.0079659581 0)
(0.085358948 -0.00082697216 0)
(0.085205656 0.00039399025 0)
(0.087700742 -2.4796206e-05 0)
(0.085597404 -8.1402017e-06 0)
(0.08799975 5.0935347e-06 0)
(0.085882536 6.3060507e-06 0)
(0.087859809 4.0087702e-07 0)
(0.086079609 -2.6706069e-06 0)