/*--------------------------------*- C++ -*----------------------------------*\
| =========                 |                                                 |
| \\      /  F ield         | OpenFOAM: The Open Source CFD Toolbox           |
|  \\    /   O peration     | Version:  2312                                  |
|   \\  /    A nd           | Website:  www.openfoam.com                      |
|    \\/     M anipulation  |                                                 |
\*---------------------------------------------------------------------------*/
FoamFile
{
    version     2.0;
    format      ascii;
    arch        "LSB;label=32;scalar=64";
    class       volVectorField;
    location    "3";
    object      U_0;
}
// * * * * * * * * * * * * * * * * * * * * * * * * * * * * * * * * * * * * * //

dimensions      [0 1 -1 0 0 0 0];

internalField   nonuniform List<vector> 
4000
(
(0.002699085 0.00052025696 0)
(0.004311883 -1.076975e-05 0)
(0.0028674646 -4.2508684e-07 0)
(0.0031122517 7.4785984e-08 0)
(0.0030036773 -2.0361584e-07 0)
(0.0030590344 1.9017388e-07 0)
(0.0029962208 -2.1607766e-07 0)
(0.0030404037 1.8466987e-07 0)
(0.002998772 -1.7705533e-07 0)
(0.0030356061 1.6558368e-07 0)
(0.0030011665 -1.5629465e-07 0)
(0.0030331101 1.4723381e-07 0)
(0.0030030138 -1.3920958e-07 0)
(0.0030312368 1.3140539e-07 0)
(0.0030046218 -1.2427658e-07 0)
(0.0030296506 1.1745402e-07 0)
(0.0030060701 -1.1110301e-07 0)
(0.0030282543 1.050966e-07 0)
(0.0030073741 -9.9464513e-08 0)
(0.0030270103 9.4168834e-08 0)
(0.0030085452 -8.919284e-08 0)
(0.0030258973 8.4528338e-08 0)
(0.0030095966 -8.0145307e-08 0)
(0.003024899 7.6045095e-08 0)
(0.0030105411 -7.2195573e-08 0)
(0.0030240019 6.860098e-08 0)
(0.0030113911 -6.5230741e-08 0)
(0.0030231938 6.2089808e-08 0)
(0.0030121579 -5.9150304e-08 0)
(0.0030224636 5.6417162e-08 0)
(0.0030128521 -5.3865473e-08 0)
(0.0030218012 5.1499902e-08 0)
(0.0030134833 -4.9298505e-08 0)
(0.0030211975 4.7265566e-08 0)
(0.00301406 -4.5381987e-08 0)
(0.0030206443 4.3651606e-08 0)
(0.0030145903 -4.205807e-08 0)
(0.0030201339 4.0604701e-08 0)
(0.0030150814 -3.9277801e-08 0)
(0.0030196595 3.8080185e-08 0)
(0.0030155399 -3.7000615e-08 0)
(0.0030192145 3.6041646e-08 0)
(0.0030159721 -3.5194227e-08 0)
(0.0030187929 3.4460345e-08 0)
(0.0030163828 -3.383868e-08 0)
(0.0030183877 3.3310487e-08 0)
(0.0030167803 -3.2929964e-08 0)
(0.0030180243 3.2649833e-08 0)
(0.0030173017 -3.204302e-08 0)
(0.0030180823 3.4851441e-08 0)
(0.0069715149 0.0013997126 0)
(0.011846414 4.4332448e-06 0)
(0.0085675125 1.427366e-05 0)
(0.0089808605 -5.7234789e-07 0)
(0.008717475 -2.1183094e-07 0)
(0.0088796838 8.7032395e-07 0)
(0.0086969118 -4.856895e-07 0)
(0.0088264829 6.5884871e-07 0)
(0.0087035206 -5.8928362e-07 0)
(0.0088132451 5.8357462e-07 0)
(0.0087106345 -5.4809371e-07 0)
(0.0088060753 5.2412335e-07 0)
(0.008716133 -4.9340919e-07 0)
(0.0088005391 4.6832701e-07 0)
(0.008720944 -4.417687e-07 0)
(0.0087958069 4.1833776e-07 0)
(0.0087252849 -3.9529292e-07 0)
(0.0087916316 3.7418771e-07 0)
(0.0087291934 -3.5400912e-07 0)
(0.0087879097 3.3525395e-07 0)
(0.0087327037 -3.175202e-07 0)
(0.0087845788 3.0095675e-07 0)
(0.0087358551 -2.8537052e-07 0)
(0.0087815906 2.707991e-07 0)
(0.0087386871 -2.5712318e-07 0)
(0.008778904 2.4434639e-07 0)
(0.0087412369 -2.3237857e-07 0)
(0.008776482 2.2121448e-07 0)
(0.0087435391 -2.1077867e-07 0)
(0.0087742916 2.0106472e-07 0)
(0.0087456253 -1.9200705e-07 0)
(0.0087723024 1.8360025e-07 0)
(0.0087475241 -1.7578687e-07 0)
(0.0087704872 1.6856278e-07 0)
(0.0087492617 -1.61878e-07 0)
(0.008768821 1.5572961e-07 0)
(0.0087508619 -1.5007446e-07 0)
(0.0087672811 1.449106e-07 0)
(0.0087523464 -1.4020147e-07 0)
(0.0087658467 1.3594549e-07 0)
(0.0087537354 -1.321132e-07 0)
(0.0087644985 1.2870257e-07 0)
(0.0087550474 -1.2568799e-07 0)
(0.0087632179 1.2308671e-07 0)
(0.0087562982 -1.2081803e-07 0)
(0.0087619828 1.1898429e-07 0)
(0.0087575044 -1.1781134e-07 0)
(0.0087608275 1.1480193e-07 0)
(0.0087589573 -1.2130648e-07 0)
(0.0087607412 1.1131563e-07 0)
(0.01090207 0.0021237066 0)
(0.018797924 -2.258781e-05 0)
(0.014117586 3.4993955e-05 0)
(0.014691967 -6.3171281e-07 0)
(0.014280334 -1.9644107e-07 0)
(0.01455161 1.7063694e-06 0)
(0.014247334 -7.0020371e-07 0)
(0.014466453 1.2046383e-06 0)
(0.014258973 -1.0513521e-06 0)
(0.014445211 1.0603677e-06 0)
(0.014271188 -9.9565894e-07 0)
(0.014433315 9.5650049e-07 0)
(0.014280537 -8.9924736e-07 0)
(0.014423977 8.5506235e-07 0)
(0.014288722 -8.0584979e-07 0)
(0.014415951 7.6359266e-07 0)
(0.014296108 -7.2126783e-07 0)
(0.014408859 6.8289957e-07 0)
(0.014302756 -6.4599995e-07 0)
(0.014402534 6.1181064e-07 0)
(0.014308726 -5.7943951e-07 0)
(0.014396874 5.4921849e-07 0)
(0.014314085 -5.2078687e-07 0)
(0.014391795 4.9419343e-07 0)
(0.0143189 -4.6925294e-07 0)
(0.014387228 4.4593348e-07 0)
(0.014323237 -4.2410924e-07 0)
(0.01438311 4.0373285e-07 0)
(0.014327154 -3.8470217e-07 0)
(0.014379384 3.6697214e-07 0)
(0.014330705 -3.5045343e-07 0)
(0.014375999 3.3510847e-07 0)
(0.014333938 -3.2085749e-07 0)
(0.014372908 3.0766992e-07 0)
(0.014336899 -2.954755e-07 0)
(0.014370069 2.8424991e-07 0)
(0.014339627 -2.7393122e-07 0)
(0.014367444 2.645003e-07 0)
(0.01434216 -2.5590458e-07 0)
(0.014364996 2.481277e-07 0)
(0.014344531 -2.4112788e-07 0)
(0.014362694 2.3488872e-07 0)
(0.014346774 -2.2937432e-07 0)
(0.014360504 2.2461137e-07 0)
(0.014348914 -2.2041452e-07 0)
(0.01435839 2.1710463e-07 0)
(0.014350978 -2.1486666e-07 0)
(0.014356382 2.086546e-07 0)
(0.014353376 -2.2487871e-07 0)
(0.014355998 2.0219125e-07 0)
(0.015535726 0.0030928652 0)
(0.025402359 -2.6632776e-05 0)
(0.019504646 6.3610869e-05 0)
(0.020245893 -1.0112495e-06 0)
(0.019693083 3.3126815e-08 0)
(0.020074133 2.6366528e-06 0)
(0.019647381 -7.3039835e-07 0)
(0.019960593 1.7288792e-06 0)
(0.019664968 -1.4750543e-06 0)
(0.019931721 1.5149885e-06 0)
(0.01968267 -1.423623e-06 0)
(0.019915018 1.3739764e-06 0)
(0.019696085 -1.290064e-06 0)
(0.019901716 1.228923e-06 0)
(0.019707829 -1.1571249e-06 0)
(0.019890232 1.0971531e-06 0)
(0.019718424 -1.0359639e-06 0)
(0.019880072 9.8105481e-07 0)
(0.019727956 -9.2795061e-07 0)
(0.019871009 8.7888429e-07 0)
(0.019736513 -8.3238371e-07 0)
(0.019862897 7.889729e-07 0)
(0.019744193 -7.4816065e-07 0)
(0.019855618 7.0995065e-07 0)
(0.019751094 -6.741589e-07 0)
(0.019849073 6.4065118e-07 0)
(0.01975731 -6.0933372e-07 0)
(0.019843171 5.8005485e-07 0)
(0.019762925 -5.5274553e-07 0)
(0.01983783 5.2726904e-07 0)
(0.019768015 -5.0356306e-07 0)
(0.019832977 4.815131e-07 0)
(0.019772652 -4.6105977e-07 0)
(0.019828544 4.4210871e-07 0)
(0.019776898 -4.2460497e-07 0)
(0.019824472 4.0847164e-07 0)
(0.019780812 -3.9365799e-07 0)
(0.019820705 3.8010177e-07 0)
(0.019784447 -3.6775873e-07 0)
(0.019817192 3.5657634e-07 0)
(0.019787852 -3.4652158e-07 0)
(0.019813885 3.3754403e-07 0)
(0.019791072 -3.296163e-07 0)
(0.01981074 3.2276368e-07 0)
(0.019794149 -3.1667248e-07 0)
(0.019807702 3.1199305e-07 0)
(0.019797115 -3.0868091e-07 0)
(0.019804787 2.9874432e-07 0)
(0.019800469 -3.2853744e-07 0)
(0.019803942 2.9010241e-07 0)
(0.019015997 0.0035759575 0)
(0.031501181 -8.106644e-05 0)
(0.024725609 9.6827852e-05 0)
(0.025650008 -1.4304874e-06 0)
(0.024954945 4.6388874e-07 0)
(0.025446518 3.6356996e-06 0)
(0.024896924 -5.8604646e-07 0)
(0.025308797 2.2038837e-06 0)
(0.024921618 -1.8446098e-06 0)
(0.025272649 1.9270088e-06 0)
(0.024945184 -1.8146266e-06 0)
(0.025251064 1.759144e-06 0)
(0.024962871 -1.6497146e-06 0)
(0.025233649 1.5744198e-06 0)
(0.02497835 -1.4810245e-06 0)
(0.025218555 1.4052015e-06 0)
(0.024992306 -1.3263235e-06 0)
(0.025205187 1.2563075e-06 0)
(0.025004855 -1.1881663e-06 0)
(0.025193261 1.1254215e-06 0)
(0.025016117 -1.0658668e-06 0)
(0.025182587 1.0103022e-06 0)
(0.025026224 -9.5807048e-07 0)
(0.02517301 9.0914909e-07 0)
(0.025035306 -8.6335506e-07 0)
(0.025164397 8.2045144e-07 0)
(0.025043485 -7.8038452e-07 0)
(0.025156631 7.4289504e-07 0)
(0.025050873 -7.0795606e-07 0)
(0.025149602 6.7533494e-07 0)
(0.025057573 -6.450044e-07 0)
(0.025143214 6.1677019e-07 0)
(0.025063675 -5.9059933e-07 0)
(0.02513738 5.6633179e-07 0)
(0.025069265 -5.4393295e-07 0)
(0.02513202 5.2327229e-07 0)
(0.025074417 -5.0431326e-07 0)
(0.02512706 4.8695032e-07 0)
(0.025079203 -4.7115053e-07 0)
(0.025122435 4.5682469e-07 0)
(0.025083686 -4.4395054e-07 0)
(0.025118082 4.3244305e-07 0)
(0.025087926 -4.2228641e-07 0)
(0.025113941 4.1350562e-07 0)
(0.025091979 -4.0563116e-07 0)
(0.025109941 3.9975508e-07 0)
(0.025095884 -3.9535492e-07 0)
(0.025106079 3.8151634e-07 0)
(0.025100209 -4.2760904e-07 0)
(0.025104632 3.7128971e-07 0)
(0.023387323 0.0043674888 0)
(0.037311826 -8.8694952e-05 0)
(0.029779113 0.00013574961 0)
(0.030904113 -2.6340985e-06 0)
(0.030065348 1.0918153e-06 0)
(0.030668388 4.7073783e-06 0)
(0.029996267 -2.9540548e-07 0)
(0.030510759 2.6273305e-06 0)
(0.030029329 -2.1651331e-06 0)
(0.030467656 2.2975412e-06 0)
(0.030059076 -2.1711726e-06 0)
(0.030441141 2.1136058e-06 0)
(0.030081198 -1.9799486e-06 0)
(0.030419496 1.8930014e-06 0)
(0.030100552 -1.7790052e-06 0)
(0.030400671 1.6890552e-06 0)
(0.03011799 -1.5936327e-06 0)
(0.030383985 1.5098548e-06 0)
(0.030133664 -1.4277987e-06 0)
(0.030369098 1.3525048e-06 0)
(0.030147725 -1.2809234e-06 0)
(0.030355772 1.2141826e-06 0)
(0.030160342 -1.151448e-06 0)
(0.030343817 1.0926694e-06 0)
(0.030171679 -1.0376809e-06 0)
(0.030333066 9.8612867e-07 0)
(0.030181889 -9.3802047e-07 0)
(0.030323371 8.9297307e-07 0)
(0.030191112 -8.5102128e-07 0)
(0.030314596 8.1182328e-07 0)
(0.030199476 -7.7540314e-07 0)
(0.030306621 7.4147579e-07 0)
(0.030207095 -7.1004825e-07 0)
(0.030299337 6.8088604e-07 0)
(0.030214074 -6.5398572e-07 0)
(0.030292645 6.2915606e-07 0)
(0.030220507 -6.0638406e-07 0)
(0.030286452 5.8551527e-07 0)
(0.030226482 -5.6653445e-07 0)
(0.030280678 5.4931174e-07 0)
(0.030232079 -5.3384182e-07 0)
(0.030275242 5.1999961e-07 0)
(0.030237373 -5.0778797e-07 0)
(0.030270073 4.972271e-07 0)
(0.030242433 -4.8767539e-07 0)
(0.030265081 4.8075842e-07 0)
(0.030247308 -4.7522668e-07 0)
(0.03026024 4.5741835e-07 0)
(0.030252614 -5.2179302e-07 0)
(0.030258069 4.4553822e-07 0)
(0.027109881 0.0048535006 0)
(0.042598324 -0.00016318426 0)
(0.034675967 0.00017587045 0)
(0.036009993 -4.2641261e-06 0)
(0.035021563 1.8705084e-06 0)
(0.035739319 5.8262891e-06 0)
(0.034945541 1.0184802e-07 0)
(0.035566038 2.9925414e-06 0)
(0.034988482 -2.4435634e-06 0)
(0.035516359 2.6279698e-06 0)
(0.035024694 -2.4966588e-06 0)
(0.035484914 2.4395719e-06 0)
(0.035051379 -2.2832035e-06 0)
(0.03545896 2.1867281e-06 0)
(0.035074714 -2.0531196e-06 0)
(0.035436317 1.9505919e-06 0)
(0.035095725 -1.8397053e-06 0)
(0.035416234 1.7433949e-06 0)
(0.0351146 -1.6484689e-06 0)
(0.035398312 1.561664e-06 0)
(0.03513153 -1.4790082e-06 0)
(0.03538227 1.4019909e-06 0)
(0.035146718 -1.3296001e-06 0)
(0.035367879 1.2617508e-06 0)
(0.035160366 -1.1983141e-06 0)
(0.035354937 1.1388017e-06 0)
(0.035172657 -1.0833048e-06 0)
(0.035343265 1.0313006e-06 0)
(0.03518376 -9.8290533e-07 0)
(0.035332701 9.3765327e-07 0)
(0.035193829 -8.9563707e-07 0)
(0.0353231 8.5646908e-07 0)
(0.035203002 -8.2021016e-07 0)
(0.03531433 7.8654173e-07 0)
(0.035211405 -7.5550341e-07 0)
(0.035306272 7.2683555e-07 0)
(0.035219151 -7.0055728e-07 0)
(0.035298816 6.7645932e-07 0)
(0.035226345 -6.5455248e-07 0)
(0.035291863 6.3466037e-07 0)
(0.035233083 -6.1680082e-07 0)
(0.035285319 6.0080404e-07 0)
(0.035239457 -5.8669845e-07 0)
(0.035279096 5.7449251e-07 0)
(0.035245549 -5.6336336e-07 0)
(0.035273088 5.555449e-07 0)
(0.035251416 -5.4882161e-07 0)
(0.035267246 5.2708496e-07 0)
(0.03525771 -6.1102571e-07 0)
(0.035264249 5.1305763e-07 0)
(0.031213891 0.005382537 0)
(0.047604617 -0.00017516683 0)
(0.039422116 0.00021663622 0)
(0.04095336 -4.9680072e-06 0)
(0.039825799 3.1835737e-06 0)
(0.040659942 7.0396578e-06 0)
(0.03974557 5.9929676e-07 0)
(0.040474492 3.2969633e-06 0)
(0.03979953 -2.6808166e-06 0)
(0.040418466 2.9182049e-06 0)
(0.039842367 -2.7915458e-06 0)
(0.040382096 2.737121e-06 0)
(0.039873695 -2.5596364e-06 0)
(0.040351782 2.4556277e-06 0)
(0.039901082 -2.3034453e-06 0)
(0.040325263 2.1898498e-06 0)
(0.039925727 -2.0646001e-06 0)
(0.040301728 1.9569745e-06 0)
(0.039947857 -1.8502282e-06 0)
(0.040280723 1.7529457e-06 0)
(0.039967701 -1.6601658e-06 0)
(0.040261922 1.5737695e-06 0)
(0.039985504 -1.4925668e-06 0)
(0.040245054 1.4164318e-06 0)
(0.040001499 -1.3452895e-06 0)
(0.040229885 1.2785036e-06 0)
(0.040015905 -1.2162687e-06 0)
(0.040216204 1.1579075e-06 0)
(0.04002892 -1.1036354e-06 0)
(0.04020382 1.0528511e-06 0)
(0.040040723 -1.0057305e-06 0)
(0.040192565 9.6177341e-07 0)
(0.040051477 -9.2110683e-07 0)
(0.040182283 8.8332031e-07 0)
(0.040061328 -8.4850625e-07 0)
(0.040172835 8.1633004e-07 0)
(0.040070409 -7.8685189e-07 0)
(0.040164094 7.5980233e-07 0)
(0.040078843 -7.3522385e-07 0)
(0.040155942 7.1289013e-07 0)
(0.040086744 -6.928479e-07 0)
(0.04014827 6.748774e-07 0)
(0.040094216 -6.5903974e-07 0)
(0.040140976 6.4532409e-07 0)
(0.040101357 -6.3272469e-07 0)
(0.040133937 6.2414082e-07 0)
(0.040108234 -6.1617022e-07 0)
(0.040127077 5.9063627e-07 0)
(0.040115518 -6.9485502e-07 0)
(0.040123165 5.7375164e-07 0)
(0.035264177 0.0059195995 0)
(0.052022899 -0.00026011921 0)
(0.044050029 0.00025152437 0)
(0.045688846 -5.5182233e-06 0)
(0.044469145 4.4758879e-06 0)
(0.045428833 8.2458459e-06 0)
(0.044396523 1.1580669e-06 0)
(0.045235775 3.527135e-06 0)
(0.044462796 -2.8799429e-06 0)
(0.04517369 3.166554e-06 0)
(0.04451237 -3.055952e-06 0)
(0.045132429 3.0055672e-06 0)
(0.044548388 -2.8088579e-06 0)
(0.045097732 2.6991401e-06 0)
(0.044579872 -2.5295361e-06 0)
(0.045067307 2.4063591e-06 0)
(0.044608187 -2.2678994e-06 0)
(0.045040288 2.1501858e-06 0)
(0.044633603 -2.0326973e-06 0)
(0.045016172 1.9259882e-06 0)
(0.044656389 -1.8240548e-06 0)
(0.044994585 1.7291946e-06 0)
(0.044676829 -1.6400387e-06 0)
(0.044975218 1.5564188e-06 0)
(0.044695195 -1.4783264e-06 0)
(0.0449578 1.4049683e-06 0)
(0.044711737 -1.3366559e-06 0)
(0.044942089 1.2725498e-06 0)
(0.044726683 -1.2129773e-06 0)
(0.044927868 1.1571935e-06 0)
(0.044740239 -1.1054683e-06 0)
(0.044914941 1.0571834e-06 0)
(0.044752589 -1.0125403e-06 0)
(0.044903131 9.7103183e-07 0)
(0.044763904 -9.3281099e-07 0)
(0.044892279 8.9746421e-07 0)
(0.044774335 -8.6509792e-07 0)
(0.044882239 8.353796e-07 0)
(0.044784023 -8.0838944e-07 0)
(0.044872874 7.8384751e-07 0)
(0.044793098 -7.6183338e-07 0)
(0.044864062 7.4207541e-07 0)
(0.044801681 -7.2467212e-07 0)
(0.044855684 7.0958625e-07 0)
(0.044809883 -6.9563151e-07 0)
(0.044847603 6.8641399e-07 0)
(0.044817781 -6.7715555e-07 0)
(0.044839717 6.4803002e-07 0)
(0.044826054 -7.7274353e-07 0)
(0.044834816 6.2749544e-07 0)
(0.039036274 0.0061749227 0)
(0.056162233 -0.00029002345 0)
(0.048618964 0.00029586158 0)
(0.050189873 -8.331325e-06 0)
(0.048943201 4.8629649e-06 0)
(0.050044763 9.2843026e-06 0)
(0.048898553 1.7298063e-06 0)
(0.049849632 3.6729119e-06 0)
(0.048978582 -3.0429112e-06 0)
(0.049781787 3.37239e-06 0)
(0.049034955 -3.2899557e-06 0)
(0.049735687 3.2446204e-06 0)
(0.049075678 -3.0306573e-06 0)
(0.049696608 2.9169636e-06 0)
(0.049111277 -2.7311498e-06 0)
(0.049662266 2.5998611e-06 0)
(0.049143277 -2.4493759e-06 0)
(0.049631755 2.3228055e-06 0)
(0.049171989 -2.1956687e-06 0)
(0.049604518 2.0805927e-06 0)
(0.049197727 -1.9704848e-06 0)
(0.049580136 1.8680851e-06 0)
(0.049220815 -1.7718422e-06 0)
(0.04955826 1.681547e-06 0)
(0.04924156 -1.5972653e-06 0)
(0.049538584 1.5180432e-06 0)
(0.049260246 -1.44432e-06 0)
(0.049520835 1.3750879e-06 0)
(0.049277131 -1.3107955e-06 0)
(0.049504768 1.2505505e-06 0)
(0.049292446 -1.1947248e-06 0)
(0.049490162 1.1425779e-06 0)
(0.049306401 -1.094393e-06 0)
(0.049476817 1.0495632e-06 0)
(0.049319187 -1.0083075e-06 0)
(0.049464554 9.7013087e-07 0)
(0.049330975 -9.351914e-07 0)
(0.049453206 9.0309154e-07 0)
(0.049341924 -8.7395154e-07 0)
(0.049442623 8.4743761e-07 0)
(0.049352179 -8.2366534e-07 0)
(0.049432665 8.0230852e-07 0)
(0.049361879 -7.8350791e-07 0)
(0.049423197 7.6719302e-07 0)
(0.049371148 -7.5200548e-07 0)
(0.049414069 7.4228189e-07 0)
(0.049380073 -7.3170901e-07 0)
(0.049405153 6.9924765e-07 0)
(0.049389332 -8.4424399e-07 0)
(0.049399202 6.742754e-07 0)
(0.04345792 0.0067646919 0)
(0.059844366 -0.00037572593 0)
(0.053019645 0.00033145613 0)
(0.054533337 -1.0689274e-05 0)
(0.053255463 4.392023e-06 0)
(0.054509894 1.007498e-05 0)
(0.053252744 2.2928917e-06 0)
(0.054316046 3.7250854e-06 0)
(0.053347231 -3.1718175e-06 0)
(0.054242553 3.5352986e-06 0)
(0.053410356 -3.4939924e-06 0)
(0.054191664 3.4542391e-06 0)
(0.053455764 -3.2251093e-06 0)
(0.054148223 3.1090449e-06 0)
(0.053495473 -2.9082921e-06 0)
(0.054109977 2.7703244e-06 0)
(0.05353115 -2.6090196e-06 0)
(0.054075982 2.4748123e-06 0)
(0.053563152 -2.3391266e-06 0)
(0.05404563 2.2167404e-06 0)
(0.053591837 -2.0994383e-06 0)
(0.054018458 1.990423e-06 0)
(0.053617567 -1.8879572e-06 0)
(0.053994078 1.7917961e-06 0)
(0.053640687 -1.702085e-06 0)
(0.053972148 1.6177078e-06 0)
(0.053661515 -1.5392375e-06 0)
(0.053952363 1.4654983e-06 0)
(0.053680336 -1.3970657e-06 0)
(0.053934452 1.332898e-06 0)
(0.05369741 -1.2734747e-06 0)
(0.053918167 1.2179322e-06 0)
(0.053712969 -1.1666395e-06 0)
(0.053903288 1.1188891e-06 0)
(0.053727226 -1.0749701e-06 0)
(0.053889613 1.0343054e-06 0)
(0.053740371 -9.9710694e-07 0)
(0.053876958 9.6291192e-07 0)
(0.053752581 -9.3188446e-07 0)
(0.053865156 9.036353e-07 0)
(0.053764018 -8.7831792e-07 0)
(0.05385405 8.5555208e-07 0)
(0.053774835 -8.3552321e-07 0)
(0.053843491 8.1812139e-07 0)
(0.053785171 -8.0182703e-07 0)
(0.053833317 7.9171608e-07 0)
(0.053795125 -7.7982196e-07 0)
(0.053823372 7.4432037e-07 0)
(0.053805363 -9.0901194e-07 0)
(0.053816322 7.1417162e-07 0)
(0.046958474 0.0067797993 0)
(0.063374875 -0.00041155883 0)
(0.057174515 0.00035962836 0)
(0.058788822 -1.1545382e-05 0)
(0.057413643 3.4579466e-06 0)
(0.058825836 1.0580866e-05 0)
(0.057459857 2.8437207e-06 0)
(0.058634913 3.6861386e-06 0)
(0.057568986 -3.2655182e-06 0)
(0.058555777 3.6562161e-06 0)
(0.057638765 -3.6683196e-06 0)
(0.058500171 3.6346602e-06 0)
(0.057688823 -3.392409e-06 0)
(0.058452411 3.2754993e-06 0)
(0.057732616 -3.0611053e-06 0)
(0.058410292 2.9178581e-06 0)
(0.057771946 -2.7469469e-06 0)
(0.058372838 2.6063081e-06 0)
(0.057807216 -2.4631693e-06 0)
(0.058339393 2.3345215e-06 0)
(0.057838827 -2.2109977e-06 0)
(0.05830945 2.0962847e-06 0)
(0.057867182 -1.9884544e-06 0)
(0.058282581 1.8872322e-06 0)
(0.057892663 -1.7928444e-06 0)
(0.05825841 1.7040166e-06 0)
(0.05791562 -1.6214591e-06 0)
(0.058236602 1.5438284e-06 0)
(0.057936367 -1.4718302e-06 0)
(0.058216856 1.4042753e-06 0)
(0.057955189 -1.3417535e-06 0)
(0.058198902 1.2832789e-06 0)
(0.057972344 -1.229309e-06 0)
(0.058182495 1.1790367e-06 0)
(0.057988064 -1.132823e-06 0)
(0.058167415 1.0900094e-06 0)
(0.058002561 -1.0508643e-06 0)
(0.058153459 1.0148602e-06 0)
(0.058016027 -9.8220521e-07 0)
(0.058140443 9.524564e-07 0)
(0.058028641 -9.2580651e-07 0)
(0.058128193 9.0182045e-07 0)
(0.05804057 -8.8073119e-07 0)
(0.058116549 8.6238384e-07 0)
(0.058051971 -8.4511348e-07 0)
(0.058105331 8.3472762e-07 0)
(0.05806295 -8.2152209e-07 0)
(0.058094365 7.832991e-07 0)
(0.058074157 -9.6677754e-07 0)
(0.058086178 7.4733566e-07 0)
(0.051751903 0.0074099003 0)
(0.066563595 -0.00048850164 0)
(0.061098 0.00038451914 0)
(0.062966563 -1.1305075e-05 0)
(0.061419781 2.6054524e-06 0)
(0.062993798 1.0838461e-05 0)
(0.061520445 3.3959229e-06 0)
(0.062806093 3.563311e-06 0)
(0.061644054 -3.3219562e-06 0)
(0.062721263 3.7364295e-06 0)
(0.061720354 -3.8133416e-06 0)
(0.062661033 3.7861731e-06 0)
(0.06177501 -3.5329121e-06 0)
(0.06260902 3.4165249e-06 0)
(0.061822847 -3.1898526e-06 0)
(0.062563076 3.0426625e-06 0)
(0.061865792 -2.8633715e-06 0)
(0.062522204 2.7174792e-06 0)
(0.061904293 -2.5679779e-06 0)
(0.062485702 2.4341022e-06 0)
(0.061938797 -2.3053208e-06 0)
(0.062453018 2.1858176e-06 0)
(0.061969749 -2.0734698e-06 0)
(0.062423687 1.967983e-06 0)
(0.061997566 -1.8696629e-06 0)
(0.062397298 1.7770822e-06 0)
(0.062022629 -1.6910877e-06 0)
(0.062373487 1.6101746e-06 0)
(0.062045282 -1.5351789e-06 0)
(0.062351925 1.4647669e-06 0)
(0.062065837 -1.3996396e-06 0)
(0.062332317 1.338692e-06 0)
(0.062084573 -1.2824705e-06 0)
(0.062314397 1.2300706e-06 0)
(0.062101744 -1.1819269e-06 0)
(0.062297924 1.137301e-06 0)
(0.062117579 -1.0965176e-06 0)
(0.062282678 1.0589866e-06 0)
(0.06213229 -1.0249618e-06 0)
(0.062268457 9.9394689e-07 0)
(0.062146072 -9.66174e-07 0)
(0.062255073 9.4115573e-07 0)
(0.062159105 -9.1917286e-07 0)
(0.062242351 9.0002101e-07 0)
(0.062171561 -8.8190641e-07 0)
(0.0622301 8.7134785e-07 0)
(0.062183559 -8.5686324e-07 0)
(0.062218122 8.1625788e-07 0)
(0.062195723 -1.0173383e-06 0)
(0.06220877 7.7396236e-07 0)
(0.054958416 0.0072281157 0)
(0.069617284 -0.00054066878 0)
(0.064852133 0.00040215394 0)
(0.067014568 -1.2395195e-05 0)
(0.065279887 2.0508278e-06 0)
(0.067013714 1.0787454e-05 0)
(0.06543492 3.9458475e-06 0)
(0.066829536 3.3586632e-06 0)
(0.065572698 -3.3393575e-06 0)
(0.066738881 3.7776454e-06 0)
(0.0656553 -3.9292788e-06 0)
(0.066674105 3.9093383e-06 0)
(0.065714473 -3.646991e-06 0)
(0.066617914 3.5324662e-06 0)
(0.065766296 -3.2948701e-06 0)
(0.06656821 3.1450399e-06 0)
(0.0658128 -2.958587e-06 0)
(0.066523974 2.808597e-06 0)
(0.065854483 -2.6538091e-06 0)
(0.066484461 2.5157229e-06 0)
(0.065891837 -2.3826311e-06 0)
(0.066449077 2.259232e-06 0)
(0.065925347 -2.1432009e-06 0)
(0.06641732 2.0342344e-06 0)
(0.065955465 -1.9327132e-06 0)
(0.066388746 1.837067e-06 0)
(0.065982604 -1.7482766e-06 0)
(0.06636296 1.6646818e-06 0)
(0.066007138 -1.5872468e-06 0)
(0.066339607 1.5145004e-06 0)
(0.066029401 -1.4472526e-06 0)
(0.066318367 1.3842844e-06 0)
(0.066049696 -1.3262298e-06 0)
(0.066298954 1.2720916e-06 0)
(0.066068299 -1.2223762e-06 0)
(0.066281106 1.176269e-06 0)
(0.066085457 -1.1341514e-06 0)
(0.066264586 1.0953729e-06 0)
(0.066101398 -1.0602313e-06 0)
(0.066249175 1.0281806e-06 0)
(0.066116333 -9.9949203e-07 0)
(0.066234671 9.7362669e-07 0)
(0.066130457 -9.5091415e-07 0)
(0.066220884 9.3109697e-07 0)
(0.066143956 -9.1227287e-07 0)
(0.066207611 9.016373e-07 0)
(0.066156961 -8.8592281e-07 0)
(0.066194635 8.4328077e-07 0)
(0.066170066 -1.0605488e-06 0)
(0.066184101 7.9429037e-07 0)
(0.059901095 0.0078184122 0)
(0.072468952 -0.0005975643 0)
(0.068492672 0.00041424264 0)
(0.070884505 -1.4087442e-05 0)
(0.068998006 1.4613468e-06 0)
(0.070884981 1.0342248e-05 0)
(0.069203337 4.4513309e-06 0)
(0.070705114 3.0579221e-06 0)
(0.069355127 -3.3225126e-06 0)
(0.070608516 3.7794328e-06 0)
(0.069443762 -4.0172883e-06 0)
(0.070539259 4.0044895e-06 0)
(0.069507344 -3.7352448e-06 0)
(0.070478975 3.6237058e-06 0)
(0.069563076 -3.3766092e-06 0)
(0.070425585 3.225365e-06 0)
(0.069613072 -3.0329724e-06 0)
(0.070378051 2.8800029e-06 0)
(0.069657877 -2.7209909e-06 0)
(0.070335584 2.5796882e-06 0)
(0.069698027 -2.443218e-06 0)
(0.070297552 2.3167997e-06 0)
(0.069734047 -2.1979017e-06 0)
(0.070263414 2.086226e-06 0)
(0.069766424 -1.9822209e-06 0)
(0.070232695 1.8841844e-06 0)
(0.069795602 -1.7932243e-06 0)
(0.070204969 1.7075375e-06 0)
(0.069821982 -1.6282107e-06 0)
(0.070179855 1.5536429e-06 0)
(0.069845924 -1.4847498e-06 0)
(0.070157013 1.4202053e-06 0)
(0.069867752 -1.3607279e-06 0)
(0.070136131 1.3052332e-06 0)
(0.069887763 -1.2542978e-06 0)
(0.070116931 1.2070353e-06 0)
(0.069906221 -1.1638808e-06 0)
(0.070099157 1.1241279e-06 0)
(0.069923373 -1.0881186e-06 0)
(0.070082575 1.0552584e-06 0)
(0.069939443 -1.0258565e-06 0)
(0.070066968 9.99327e-07 0)
(0.069954642 -9.7604619e-07 0)
(0.070052132 9.5570149e-07 0)
(0.069969167 -9.3630133e-07 0)
(0.070037854 9.2567368e-07 0)
(0.069983164 -9.0880075e-07 0)
(0.070023898 8.6447523e-07 0)
(0.069997193 -1.0963226e-06 0)
(0.070012171 8.0858114e-07 0)
(0.063064975 0.0075758267 0)
(0.075197474 -0.00065428371 0)
(0.072068633 0.00041970955 0)
(0.07454521 -1.7250374e-05 0)
(0.072579499 4.873092e-07 0)
(0.074606803 9.5378181e-06 0)
(0.072826006 4.9033001e-06 0)
(0.074432747 2.6612769e-06 0)
(0.072991532 -3.2712064e-06 0)
(0.074330069 3.7433899e-06 0)
(0.073085885 -4.077829e-06 0)
(0.074256385 4.0723803e-06 0)
(0.073153744 -3.7982033e-06 0)
(0.074192097 3.6907861e-06 0)
(0.073213294 -3.4355603e-06 0)
(0.074135106 3.2841081e-06 0)
(0.073266701 -3.0869667e-06 0)
(0.07408435 2.9321129e-06 0)
(0.073314556 -2.7699131e-06 0)
(0.074038996 2.6263663e-06 0)
(0.07335744 -2.4874247e-06 0)
(0.073998375 2.3588447e-06 0)
(0.073395914 -2.2378777e-06 0)
(0.073961908 2.1242461e-06 0)
(0.0734305 -2.0184561e-06 0)
(0.07392909 1.9186891e-06 0)
(0.073461673 -1.8261724e-06 0)
(0.073899466 1.7389703e-06 0)
(0.07348986 -1.6582855e-06 0)
(0.07387263 1.5823981e-06 0)
(0.073515445 -1.5123237e-06 0)
(0.073848217 1.4466372e-06 0)
(0.073538775 -1.3861376e-06 0)
(0.073825897 1.32966e-06 0)
(0.073560165 -1.2778477e-06 0)
(0.073805371 1.2297475e-06 0)
(0.073579898 -1.1858472e-06 0)
(0.073786368 1.1453885e-06 0)
(0.073598237 -1.1087536e-06 0)
(0.073768638 1.0753052e-06 0)
(0.07361542 -1.0453889e-06 0)
(0.073751949 1.0183736e-06 0)
(0.073631673 -9.9468177e-07 0)
(0.073736084 9.7394448e-07 0)
(0.073647205 -9.5410302e-07 0)
(0.07372082 9.4356193e-07 0)
(0.073662177 -9.2561682e-07 0)
(0.073705905 8.7995684e-07 0)
(0.073677109 -1.1246212e-06 0)
(0.073692983 8.1712389e-07 0)
(0.067929948 0.0079905128 0)
(0.077818328 -0.00070288324 0)
(0.07556847 0.00042222309 0)
(0.078019796 -2.0127819e-05 0)
(0.076025529 -1.1353386e-06 0)
(0.078178982 8.493248e-06 0)
(0.076303508 5.3021774e-06 0)
(0.078012165 2.1746675e-06 0)
(0.076481962 -3.1843022e-06 0)
(0.077903369 3.6713239e-06 0)
(0.076581751 -4.1115275e-06 0)
(0.077825355 4.1136631e-06 0)
(0.076653766 -3.836597e-06 0)
(0.077757177 3.7342429e-06 0)
(0.076717036 -3.4723317e-06 0)
(0.077696684 3.3217791e-06 0)
(0.076773767 -3.1210863e-06 0)
(0.077642791 2.9653921e-06 0)
(0.076824594 -2.8010243e-06 0)
(0.077594628 2.6561742e-06 0)
(0.076870139 -2.5156485e-06 0)
(0.077551483 2.3857404e-06 0)
(0.076911005 -2.2634795e-06 0)
(0.077512748 2.148626e-06 0)
(0.076947744 -2.0417316e-06 0)
(0.077477883 1.9408777e-06 0)
(0.076980862 -1.8473986e-06 0)
(0.077446408 1.7592432e-06 0)
(0.07701081 -1.6777201e-06 0)
(0.077417892 1.601002e-06 0)
(0.077037999 -1.5301974e-06 0)
(0.077391947 1.4637924e-06 0)
(0.077062795 -1.4026602e-06 0)
(0.077368223 1.3455635e-06 0)
(0.077085531 -1.2932082e-06 0)
(0.077346403 1.2445811e-06 0)
(0.07710651 -1.2002175e-06 0)
(0.0773262 1.1593131e-06 0)
(0.077126007 -1.1222894e-06 0)
(0.077307347 1.0884688e-06 0)
(0.077144279 -1.0582305e-06 0)
(0.0772896 1.0309043e-06 0)
(0.077161562 -1.0069551e-06 0)
(0.07727273 9.8595792e-07 0)
(0.077178079 -9.6580665e-07 0)
(0.077256501 9.5542005e-07 0)
(0.077194004 -9.3650934e-07 0)
(0.077240651 8.8986361e-07 0)
(0.077209817 -1.1454572e-06 0)
(0.077226539 8.2021475e-07 0)
(0.071412494 0.0077739532 0)
(0.080372871 -0.00075247551 0)
(0.078950647 0.00041767537 0)
(0.081351861 -2.2556022e-05 0)
(0.07934284 -3.3131098e-06 0)
(0.081602144 7.3384887e-06 0)
(0.07963762 5.6718522e-06 0)
(0.081443367 1.6210391e-06 0)
(0.079826618 -3.0554567e-06 0)
(0.081328343 3.5676097e-06 0)
(0.079931467 -4.1179431e-06 0)
(0.081246072 4.1295634e-06 0)
(0.080007499 -3.8509863e-06 0)
(0.081174127 3.7547908e-06 0)
(0.080074385 -3.4875362e-06 0)
(0.081110242 3.3389748e-06 0)
(0.080134344 -3.1358883e-06 0)
(0.081053308 2.9803677e-06 0)
(0.080188054 -2.8148204e-06 0)
(0.081002416 2.6695799e-06 0)
(0.080236184 -2.528328e-06 0)
(0.080956823 2.397901e-06 0)
(0.080279371 -2.2750988e-06 0)
(0.080915884 2.1597358e-06 0)
(0.080318202 -2.0523956e-06 0)
(0.080879032 1.951079e-06 0)
(0.080353209 -1.8572153e-06 0)
(0.080845758 1.7686522e-06 0)
(0.08038487 -1.6867938e-06 0)
(0.080815609 1.6097199e-06 0)
(0.080413617 -1.5386225e-06 0)
(0.080788173 1.4719098e-06 0)
(0.080439838 -1.4105226e-06 0)
(0.080763084 1.3531603e-06 0)
(0.080463885 -1.3005856e-06 0)
(0.080740005 1.2517319e-06 0)
(0.080486075 -1.2071797e-06 0)
(0.080718633 1.1660837e-06 0)
(0.080506702 -1.1288996e-06 0)
(0.080698687 1.0949163e-06 0)
(0.080526033 -1.0645439e-06 0)
(0.08067991 1.0370761e-06 0)
(0.08054432 -1.013018e-06 0)
(0.080662059 9.9188992e-07 0)
(0.080561797 -9.7156031e-07 0)
(0.080644891 9.6139061e-07 0)
(0.080578653 -9.4163232e-07 0)
(0.080628132 8.9433861e-07 0)
(0.080595322 -1.1588824e-06 0)
(0.080612841 8.1816583e-07 0)
(0.076201704 0.0080160876 0)
(0.082883449 -0.00078978045 0)
(0.082161241 0.00040889805 0)
(0.08458046 -2.3365307e-05 0)
(0.082535498 -5.5936101e-06 0)
(0.084876609 6.2063552e-06 0)
(0.082830389 6.0252539e-06 0)
(0.084726247 1.0240524e-06 0)
(0.083025697 -2.8826692e-06 0)
(0.084604946 3.4353842e-06 0)
(0.083135146 -4.0972588e-06 0)
(0.08451846 4.1210986e-06 0)
(0.083215031 -3.8421269e-06 0)
(0.084442873 3.7531305e-06 0)
(0.083285415 -3.4818795e-06 0)
(0.08437571 3.3363225e-06 0)
(0.083348496 -3.1319899e-06 0)
(0.084315836 2.9776043e-06 0)
(0.083404996 -2.8118433e-06 0)
(0.084262307 2.6670891e-06 0)
(0.083455626 -2.5259449e-06 0)
(0.084214345 2.3957802e-06 0)
(0.08350106 -2.2731628e-06 0)
(0.084171274 2.1579792e-06 0)
(0.083541915 -2.0508304e-06 0)
(0.084132497 1.9496554e-06 0)
(0.083578751 -1.8559632e-06 0)
(0.084097482 1.7675206e-06 0)
(0.083612071 -1.6858133e-06 0)
(0.08406575 1.6088428e-06 0)
(0.083642328 -1.537875e-06 0)
(0.084036871 1.4712524e-06 0)
(0.083669931 -1.409975e-06 0)
(0.084010457 1.3526888e-06 0)
(0.083695248 -1.3002074e-06 0)
(0.083986157 1.2514192e-06 0)
(0.083718614 -1.2069428e-06 0)
(0.08396365 1.1658996e-06 0)
(0.083740336 -1.1287771e-06 0)
(0.083942644 1.0948339e-06 0)
(0.083760696 -1.0645078e-06 0)
(0.083922867 1.0370634e-06 0)
(0.083779957 -1.0130403e-06 0)
(0.083904064 9.9190751e-07 0)
(0.083798367 -9.7152611e-07 0)
(0.083885984 9.6162545e-07 0)
(0.083816126 -9.4115498e-07 0)
(0.083868343 8.9354619e-07 0)
(0.083833625 -1.1649925e-06 0)
(0.083851892 8.1128469e-07 0)
(0.079785094 0.0077876163 0)
(0.085333255 -0.00082805023 0)
(0.085205946 0.00039351955 0)
(0.08769764 -2.4862683e-05 0)
(0.085598034 -8.1355763e-06 0)
(0.087999885 5.0755695e-06 0)
(0.085882386 6.3060542e-06 0)
(0.087860178 3.9894619e-07 0)
(0.086079148 -2.6721426e-06 0)