/*--------------------------------*- C++ -*----------------------------------*\
| =========                 |                                                 |
| \\      /  F ield         | OpenFOAM: The Open Source CFD Toolbox           |
|  \\    /   O peration     | Version:  2312                                  |
|   \\  /    A nd           | Website:  www.openfoam.com                      |
|    \\/     M anipulation  |                                                 |
\*---------------------------------------------------------------------------*/
FoamFile
{
    version     2.0;
    format      ascii;
    arch        "LSB;label=32;scalar=64";
    class       volScalarField;
    location    "9";
    object      T;
}
// * * * * * * * * * * * * * * * * * * * * * * * * * * * * * * * * * * * * * //

dimensions      [0 0 0 1 0 0 0];

internalField   nonuniform List<scalar> 
4000
(
310.8756
312.18923
312.44464
312.51244
312.59167
312.6435
312.69352
312.73684
312.77875
312.81683
312.85508
312.89047
312.92645
312.9603
312.99469
313.02753
313.06074
313.0929
313.12521
313.15687
313.18847
313.21976
313.25078
313.2818
313.31234
313.34316
313.37328
313.40395
313.43372
313.46427
313.49372
313.52419
313.55336
313.58377
313.61269
313.64307
313.67174
313.70211
313.73055
313.76093
313.78915
313.81957
313.84754
313.87805
313.90576
313.93641
313.96378
313.9947
314.02151
314.05348
308.6374
310.76043
311.45934
311.60704
311.78764
311.88666
311.9801
312.05358
312.12274
312.18048
312.23869
312.28839
312.3398
312.38484
312.43149
312.47353
312.51664
312.55661
312.59703
312.63551
312.67379
312.71118
312.74772
312.7843
312.81939
312.85536
312.88922
312.92472
312.95752
312.99267
313.02453
313.05943
313.09045
313.12517
313.15542
313.19005
313.21957
313.25417
313.28299
313.31764
313.34577
313.38056
313.40796
313.44299
313.46959
313.50506
313.53065
313.56693
313.59084
313.63013
307.25576
309.38659
310.48219
310.70785
310.98717
311.13283
311.26901
311.37248
311.46856
311.54594
311.62386
311.68788
311.75455
311.81081
311.86958
311.92084
311.97376
312.02158
312.07
312.11535
312.16023
312.20375
312.24574
312.2879
312.3275
312.36863
312.40618
312.44654
312.48233
312.5221
312.55633
312.59568
312.62851
312.66757
312.69911
312.73801
312.76835
312.8072
312.83638
312.87531
312.90333
312.94249
312.9693
313.00887
313.03435
313.07463
313.09845
313.14008
313.16111
313.20738
306.34117
308.11466
309.52742
309.82354
310.19568
310.38612
310.56347
310.69631
310.81851
310.91529
311.01244
311.09068
311.17224
311.2397
311.31031
311.3708
311.4333
311.48898
311.54524
311.59746
311.6488
311.69847
311.7458
311.79356
311.83756
311.88388
311.92504
311.97027
312.00897
312.05338
312.08991
312.13373
312.16831
312.21173
312.24452
312.2877
312.31882
312.36193
312.39143
312.43465
312.46253
312.50606
312.53227
312.57637
312.60072
312.6458
312.66784
312.71479
312.73302
312.7858
305.70805
306.98625
308.61355
308.96578
309.42064
309.65218
309.86786
310.02877
310.17569
310.29134
310.40684
310.49904
310.59489
310.6734
310.75541
310.82505
310.89677
310.96028
311.0241
311.08318
311.14074
311.19656
311.24904
311.30241
311.35064
311.40216
311.44678
311.4969
311.5384
311.58746
311.6262
311.67449
311.71074
311.75851
311.79249
311.83995
311.87178
311.91916
311.94892
311.99643
312.02414
312.07204
312.09761
312.14623
312.16943
312.21929
312.23956
312.29174
312.30733
312.36604
305.25549
306.02672
307.75974
308.14818
308.67103
308.93786
309.18759
309.37435
309.54391
309.67746
309.81003
309.91566
310.02491
310.11417
310.20692
310.28552
310.36597
310.43718
310.50816
310.57403
310.6375
310.69942
310.75677
310.81572
310.86796
310.92466
310.97256
311.02755
311.07168
311.12538
311.16619
311.21895
311.25676
311.30887
311.34392
311.39566
311.42813
311.47975
311.50972
311.56149
311.58898
311.64121
311.66612
311.71921
311.74127
311.79583
311.81438
311.87164
311.88481
311.94884
304.92504
305.24849
306.9834
307.38493
307.95658
308.25081
308.52881
308.73819
308.92756
309.07751
309.2254
309.34363
309.46508
309.56457
309.66718
309.75442
309.84293
309.92162
309.99923
310.07173
310.14068
310.20858
310.27046
310.3349
310.39088
310.45268
310.50362
310.56342
310.61
310.66828
310.71099
310.76817
310.80739
310.86381
310.89983
310.9558
310.98881
311.04463
311.07473
311.13072
311.15793
311.21444
311.23865
311.29615
311.31705
311.37621
311.39311
311.45525
311.46627
311.53502
304.67927
304.64801
306.29707
306.68907
307.28687
307.59896
307.89805
308.1258
308.3314
308.49567
308.65669
308.78631
308.91844
309.02742
309.13878
309.23415
309.32986
309.41569
309.49927
309.57814
309.65204
309.72573
309.79172
309.86149
309.92084
309.98762
310.04132
310.10582
310.1546
310.21737
310.26178
310.3233
310.36377
310.42441
310.46126
310.52139
310.55482
310.61477
310.64491
310.70504
310.73191
310.79261
310.81609
310.87788
310.89765
310.96125
310.97659
311.04334
311.05251
311.12541
304.49294
304.21038
305.70783
306.07074
306.67041
306.98991
307.30179
307.54277
307.76034
307.93631
308.10778
308.24724
308.38823
308.50566
308.62444
308.72724
308.82916
308.92161
309.01037
309.09524
309.17346
309.25265
309.32222
309.3971
309.45941
309.53098
309.58708
309.65613
309.70681
309.77394
309.81981
309.88554
309.92706
309.99181
310.02932
310.09349
310.12722
310.19118
310.22127
310.28541
310.31188
310.37664
310.39937
310.46528
310.48395
310.55177
310.56569
310.6367
310.64437
310.72087
304.34835
303.91193
305.21644
305.53585
306.11389
306.43031
306.74604
306.99446
307.2192
307.40373
307.58261
307.72998
307.8777
308.00233
308.12697
308.23631
308.34325
308.44167
308.5347
308.62506
308.70689
308.79118
308.86375
308.94341
309.0082
309.0843
309.1424
309.21576
309.26802
309.33931
309.38636
309.45612
309.49846
309.56716
309.60515
309.6732
309.70709
309.7749
309.80484
309.87283
309.89884
309.96746
309.98943
310.05925
310.07688
310.14865
310.16128
310.23618
310.24265
310.32228
304.23318
303.72494
304.81844
305.08557
305.62175
305.92536
306.23591
306.4856
306.71239
306.90198
307.08491
307.23799
307.39007
307.52039
307.64916
307.76396
307.8746
307.97818
308.07445
308.16968
308.25427
308.34318
308.41809
308.50212
308.56884
308.64912
308.70878
308.78617
308.83963
308.91482
308.96276
309.03631
309.07923
309.15164
309.18992
309.26164
309.29554
309.36699
309.39666
309.46829
309.49377
309.56604
309.58723
309.66071
309.67734
309.75276
309.76426
309.84263
309.84819
309.9305
304.13847
303.62033
304.5047
304.71664
305.19588
305.47836
305.77518
306.02005
306.24372
306.43462
306.61808
306.77442
306.92835
307.06265
307.19367
307.31267
307.42558
307.53338
307.63174
307.73111
307.81757
307.91049
307.987
308.07492
308.14297
308.22702
308.28774
308.36879
308.42306
308.50182
308.5503
308.62736
308.67058
308.74644
308.78479
308.85992
308.89366
308.9685
308.99779
309.07279
309.09769
309.17332
309.19374
309.27057
309.28627
309.36496
309.3755
309.4569
309.46179
309.5464
304.05827
303.57165
304.26353
304.42239
304.8355
305.09045
305.36611
305.60051
305.8161
306.00454
306.18498
306.34202
306.49518
306.63162
306.76292
306.88476
306.9984
307.10936
307.20862
307.31127
307.39863
307.49487
307.5722
307.66344
307.73218
307.81951
307.88076
307.96504
308.01967
308.10162
308.1503
308.23051
308.27375
308.35273
308.39092
308.46915
308.50256
308.58048
308.60928
308.68734
308.71159
308.79026
308.8099
308.88972
308.90456
308.98614
308.99587
309.07984
309.08426
309.17081
303.98832
303.55639
304.08191
304.19367
304.53728
304.76055
305.00926
305.22832
305.43137
305.61378
305.78779
305.94296
306.09278
306.22945
306.35903
306.48224
306.59505
306.70801
306.80692
306.91193
306.99919
307.09798
307.17531
307.26921
307.33796
307.42801
307.48924
307.57627
307.6308
307.71551
307.764
307.84696
307.88991
307.97164
308.00943
308.0904
308.1233
308.20394
308.23213
308.3129
308.33643
308.41778
308.43664
308.51906
308.53312
308.61715
308.6262
308.7123
308.7164
308.80453
303.92608
303.55792
303.94715
304.02003
304.29581
304.48562
304.70351
304.90345
305.09024
305.26342
305.42791
305.57877
305.72278
305.85778
305.9837
306.10677
306.2172
306.33096
306.42826
306.53464
306.62077
306.72129
306.79778
306.89363
306.9617
307.05385
307.11449
307.20371
307.25768
307.34465
307.39257
307.47783
307.52018
307.60423
307.64138
307.72468
307.75689
307.83987
307.86731
307.95039
307.97315
308.05677
308.07484
308.15945
308.17277
308.25881
308.2673
308.35508
308.35896
308.44833
303.86972
303.56468
303.84764
303.89074
304.1042
304.26096
304.44617
304.6245
304.79222
304.95353
305.10587
305.2502
305.38618
305.51771
305.63814
305.75961
305.86616
305.97949
306.07396
306.18069
306.26468
306.36606
306.44086
306.53793
306.60462
306.69822
306.75767
306.84851
306.90144
306.99013
307.03708
307.12415
307.16558
307.25149
307.28775
307.37294
307.40427
307.48915
307.51572
307.60069
307.62261
307.70806
307.72535
307.81169
307.82433
307.91191
307.91994
308.00895
308.01267
308.10295
303.8183
303.5701
303.77359
303.79563
303.95479
304.08071
304.23332
304.38885
304.53571
304.68321
304.82132
304.95726
305.08331
305.20974
305.32304
305.44151
305.5428
305.65452
305.745
305.85106
305.93193
306.03329
306.1056
306.2031
306.26774
306.36209
306.41981
306.51164
306.56305
306.6529
306.6985
306.78684
306.82705
306.91432
306.94944
307.03605
307.06631
307.15263
307.17821
307.26461
307.28561
307.37244
307.38892
307.47653
307.48853
307.57719
307.58481
307.67463
307.67822
307.76907
303.77104
303.57092
303.71716
303.72575
303.83981
303.93843
304.06011
304.1929
304.31815
304.45063
304.57309
304.69922
304.81382
304.93376
305.03854
305.15276
305.24756
305.35656
305.442
305.5464
305.62326
305.72373
305.79278
305.88993
305.95187
306.04628
306.10171
306.19389
306.24333
306.33375
306.37762
306.4667
306.50537
306.59348
306.62722
306.71474
306.74377
306.83103
306.8555
306.94285
306.96287
307.0506
307.06626
307.15466
307.16603
307.25531
307.26256
307.35277
307.35625
307.4473
303.72756
303.56648
303.67247
303.67371
303.75192
303.82754
303.92114
304.03235
304.1362
304.25321
304.35927
304.47461
304.57672
304.68908
304.78424
304.89312
304.98042
305.08569
305.16517
305.267
305.33905
305.43779
305.50288
305.59894
305.65757
305.75135
305.80398
305.89588
305.94292
306.03331
306.0751
306.16435
306.20119
306.28962
306.32175
306.40967
306.43728
306.525
306.54823
306.63603
306.65501
306.74315
306.75796
306.84668
306.85744
306.94688
306.95377
307.04395
307.04731
307.13821
303.68746
303.55733
303.6354
303.63373
303.68464
303.74179
303.81093
303.90252
303.98601
304.08779
304.17736
304.28142
304.37043
304.47443
304.55922
304.6619
304.74091
304.84159
304.91436
305.01279
305.07935
305.17559
305.23612
305.33035
305.38516
305.47763
305.52701
305.618
305.66224
305.75202
305.7914
305.88026
305.91501
306.00321
306.03352
306.12132
306.14736
306.23502
306.25691
306.34467
306.36253
306.45061
306.46454
306.5531
306.56323
306.65239
306.65892
306.74868
306.75189
306.84228
303.65052
303.54471
303.60321
303.60162
303.6325
303.67553
303.72414
303.79865
303.86345
303.95084
304.02438
304.11714
304.19291
304.28812
304.36209
304.45797
304.52814
304.62353
304.68904
304.78337
304.84388
304.93693
304.99241
305.08416
305.13468
305.22522
305.27095
305.36042
305.40154
305.49013
305.52681
305.61473
305.64714
305.73459
305.76289
305.85006
305.87438
305.96149
305.98193
306.06917
306.08584
306.17337
306.18638
306.27433
306.28382
306.37226
306.37842
306.46735
306.47041
306.55991
303.61644
303.52986
303.57422
303.57445
303.59116
303.62396
303.65595
303.71614
303.76436
303.83864
303.89711
303.97895
304.04175
304.12805
304.19112
304.27979
304.34085
304.43044
304.48832
304.57797
304.63206
304.72133
304.77137
304.86004
304.90593
304.99395
305.03572
305.12311
305.16082
305.24768
305.28142
305.36787
305.39775
305.48393
305.51005
305.5961
305.61857
305.70464
305.72354
305.80978
305.8252
305.91173
305.92378
306.01068
306.0195
306.10681
306.11257
306.20029
306.20317
306.29141
303.58498
303.51383
303.5475
303.55037
303.55733
303.58315
303.60213
303.6508
303.68475
303.74749
303.79221
303.86383
303.91429
303.99185
304.04423
304.12556
304.17748
304.26095
304.31102
304.39557
304.44301
304.52802
304.57236
304.65746
304.69846
304.78346
304.821
304.90582
304.93989
305.02452
305.05513
305.13962
305.1668
305.25123
305.27504
305.3595
305.38001
305.46458
305.48186
305.56665
305.58077
305.66585
305.67691
305.76233
305.77045
305.85624
305.86157
305.94772
305.95039
306.03703
303.55588
303.49739
303.52256
303.52826
303.52867
303.55005
303.55915
303.5989
303.62095
303.67388
303.70639
303.76875
303.80778
303.87703
303.91918
303.99325
304.03621
304.11341
304.15571
304.23489
304.27559
304.35599
304.3945
304.47562
304.51157
304.59312
304.62629
304.70809
304.73837
304.82033
304.84765
304.92974
304.9541
305.03634
305.05774
305.14015
305.15863
305.24127
305.25686
305.33978
305.35255
305.43578
305.44581
305.52936
305.53676
305.62065
305.62552
305.70976
305.7122
305.79688
303.52891
303.48105
303.49918
303.50752
303.50358
303.52239
303.52421
303.55734
303.56973
303.61457
303.63656
303.69074
303.71945
303.78099
303.81362
303.88068
303.91509
303.98605
304.02077
304.09444
304.12848
304.20403
304.2367
304.31355
304.3444
304.42215
304.45088
304.52928
304.55568
304.63458
304.65854
304.73783
304.75929
304.83894
304.85786
304.93784
304.95422
305.03454
305.0484
305.12906
305.14045
305.22144
305.23042
305.31175
305.31839
305.40004
305.40443
305.48641
305.48862
305.57103
303.50388
303.4651
303.47724
303.48787
303.48102
303.49857
303.49516
303.52357
303.52834
303.56672
303.57985
303.62702
303.64666
303.70123
303.72518
303.78564
303.81205
303.87695
303.90445
303.97261
304.0002
304.07077
304.09773
304.17008
304.19589
304.26958
304.29387
304.36858
304.3911
304.4666
304.48718
304.56334
304.58187
304.65857
304.67498
304.75218
304.76644
304.84408
304.85619
304.93424
304.94422
305.02265
305.03054
305.10933
305.11519
305.1943
305.19818
305.27762
305.27957
305.3594
303.48058
303.44969
303.4567
303.46921
303.46037
303.47748
303.4704
303.49559
303.49453
303.5279
303.53378
303.57507
303.58691
303.63532
303.65156
303.70594
303.72505
303.78416
303.80492
303.86768
303.88915
303.95474
303.97619
304.04395
304.06486
304.13431
304.15426
304.22505
304.24374
304.3156
304.33283
304.40556
304.42118
304.49465
304.50856
304.58266
304.59481
304.66946
304.67982
304.75496
304.76353
304.8391
304.8459
304.92185
304.92692
305.0032
305.00657
305.08319
305.08488
305.16187
303.45887
303.43489
303.43752
303.4515
303.44126
303.45842
303.44881
303.47192
303.46649
303.4961
303.49619
303.53267
303.53798
303.58106
303.59058
303.63947
303.65205
303.70575
303.72035
303.77793
303.7937
303.85438
303.87065
303.9338
303.95002
304.01515
304.03091
304.09764
304.11261
304.18064
304.1946
304.2637
304.27646
304.34647
304.35792
304.42868
304.43875
304.51016
304.51879
304.59076
304.59793
304.67038
304.6761
304.74896
304.75323
304.82646
304.8293
304.90286
304.90429
304.9782
303.43859
303.4207
303.41964
303.43477
303.4235
303.44095
303.42963
303.45146
303.44285
303.46971
303.46529
303.49793
303.4979
303.53644
303.54026
303.58427
303.59114
303.63986
303.64895
303.70162
303.71221
303.76813
303.7796
303.83819
303.85003
303.91082
303.92261
303.98521
303.99664
304.06072
304.07153
304.13686
304.14687
304.21323
304.22229
304.28953
304.29756
304.36554
304.37247
304.44107
304.44687
304.516
304.52064
304.59022
304.5937
304.66366
304.66598
304.73627
304.73744
304.80807
303.41963
303.40713
303.40302
303.41902
303.40698
303.42481
303.41235
303.43343
303.42258
303.44746
303.43964
303.46926
303.46497
303.49972
303.49881
303.53855
303.54053
303.58475
303.589
303.6371
303.64305
303.69444
303.70155
303.75572
303.76352
303.82002
303.82813
303.88658
303.89468
303.95476
303.96261
304.02405
304.03145
304.09404
304.10084
304.16441
304.17049
304.23488
304.24018
304.30525
304.30972
304.37536
304.37896
304.44509
304.4478
304.51433
304.51614
304.58301
304.58392
304.65111
303.40189
303.39417
303.3876
303.40426
303.39165
303.40986
303.39666
303.41732
303.40494
303.42843
303.41811
303.44537
303.43779
303.4694
303.46467
303.50073
303.49861
303.53881
303.53891
303.58281
303.58469
303.63182
303.63504
303.68497
303.68912
303.74144
303.74619
303.80053
303.80558
303.86165
303.86674
303.92427
303.92923
303.98799
303.99265
304.05246
304.05671
304.1174
304.12115
304.18258
304.18578
304.24783
304.25043
304.31298
304.31495
304.37792
304.37925
304.44256
304.44323
304.50684
303.38531
303.38182
303.37333
303.39051
303.3775
303.39602
303.38235
303.40277
303.3894
303.41189
303.39982
303.42526
303.4152
303.44424
303.43651
303.4694
303.46396
303.50058
303.49721
303.53729
303.53568
303.57885
303.57867
303.62458
303.62551
303.6738
303.67552
303.72588
303.72814
303.78026
303.78284
303.83647
303.83917
303.8941
303.89677
303.9528
303.95533
304.01228
304.01458
304.07231
304.07431
304.13268
304.13434
304.19324
304.19451
304.25384
304.2547
304.31437
304.31481
304.37477
303.3698
303.3701
303.36019
303.37776
303.36451
303.38326
303.36933
303.38958
303.37561
303.39737
303.38412
303.40813
303.39629
303.42322
303.4132
303.4434
303.43532
303.46881
303.46259
303.49923
303.4947
303.53422
303.53114
303.57328
303.5714
303.61586
303.61493
303.66142
303.66122
303.70948
303.7098
303.7596
303.76026
303.81138
303.81225
303.86449
303.86545
303.91865
303.91961
303.97361
303.97451
304.02918
304.02996
304.08517
304.08578
304.14143
304.14185
304.19784
304.19806
304.25432
303.35535
303.35906
303.34816
303.36604
303.35267
303.37156
303.35753
303.37761
303.36332
303.38449
303.37052
303.39339
303.38033
303.40552
303.39383
303.42174
303.41163
303.44238
303.43391
303.46745
303.46054
303.49673
303.49124
303.52987
303.52561
303.56644
303.56323
303.60604
303.60368
303.64823
303.64655
303.69262
303.69147
303.73885
303.7381
303.78661
303.78616
303.83563
303.83539
303.88568
303.88557
303.93654
303.93651
303.98803
303.98804
304.04001
304.04002
304.09232
304.09234
304.14489
303.34195
303.34875
303.33726
303.35536
303.342
303.36093
303.3469
303.36677
303.35237
303.37304
303.35867
303.3806
303.36676
303.39049
303.37764
303.40359
303.392
303.42036
303.41016
303.44095
303.43216
303.46531
303.45786
303.49325
303.48702
303.52447
303.51933
303.55865
303.55446
303.59544
303.59205
303.63451
303.63179
303.67554
303.67337
303.71824
303.71653
303.76236
303.76103
303.80767
303.80666
303.85397
303.85322
303.90109
303.90056
303.94886
303.94851
303.99715
303.99698
304.04584
303.32966
303.33928
303.32752
303.34575
303.3325
303.35135
303.33742
303.35701
303.34265
303.36283
303.34832
303.36941
303.35516
303.37764
303.36405
303.38831
303.3757
303.40195
303.39049
303.41883
303.4086
303.43901
303.43003
303.46244
303.45464
303.48894
303.48222
303.51826
303.51254
303.55015
303.54531
303.58433
303.58026
303.62052
303.61713
303.65847
303.65567
303.69795
303.69568
303.73875
303.73695
303.78068
303.77929
303.82357
303.82256
303.86727
303.8666
303.91162
303.91129
303.95653
303.31866
303.33078
303.31899
303.33724
303.32417
303.34284
303.32907
303.3483
303.33409
303.35375
303.33928
303.35961
303.3452
303.36658
303.35259
303.37536
303.36211
303.38651
303.37419
303.40033
303.38908
303.41701
303.40687
303.43657
303.42754
303.45893
303.45097
303.48395
303.477
303.51143
303.5054
303.54115
303.53597
303.57289
303.56848
303.60642
303.60271
303.64156
303.63849
303.67811
303.67562
303.71588
303.71395
303.75473
303.7533
303.7945
303.79356
303.83506
303.83458
303.87628
303.30922
303.32341
303.31173
303.32986
303.317
303.33537
303.32181
303.34059
303.32661
303.34571
303.33141
303.351
303.33664
303.35701
303.34289
303.36434
303.35075
303.3735
303.36066
303.38484
303.3729
303.39859
303.38764
303.41486
303.40494
303.43365
303.42475
303.45488
303.44697
303.47843
303.47146
303.50413
303.49805
303.53181
303.52656
303.56128
303.55682
303.59239
303.58865
303.62495
303.6219
303.65881
303.65641
303.69382
303.69204
303.72985
303.72867
303.76676
303.76616
303.80443
303.30168
303.31731
303.30575
303.3236
303.31096
303.32892
303.31561
303.33385
303.32015
303.33863
303.32461
303.34345
303.32929
303.34871
303.33467
303.3549
303.34124
303.36249
303.34941
303.37182
303.35949
303.38316
303.37169
303.39666
303.38612
303.41238
303.4028
303.4303
303.42169
303.45038
303.44271
303.47249
303.46572
303.4965
303.4906
303.52226
303.5172
303.54965
303.54538
303.57851
303.575
303.60871
303.60594
303.64012
303.63805
303.6726
303.67122
303.70604
303.70535
303.74032
303.29626
303.31254
303.30106
303.31845
303.30602
303.32345
303.3104
303.32804
303.31464
303.33247
303.31878
303.33686
303.323
303.3415
303.32769
303.3468
303.33324
303.35314
303.34004
303.36085
303.34837
303.3702
303.35847
303.38138
303.37048
303.39448
303.38448
303.40956
303.40047
303.42659
303.41842
303.44551
303.43825
303.46623
303.45985
303.48864
303.48312
303.51263
303.50795
303.53809
303.53422
303.56489
303.56182
303.59293
303.59063
303.62208
303.62055
303.65224
303.65147
303.6833
303.29296
303.30909
303.29757
303.31433
303.30209
303.31889
303.30612
303.32308
303.31002
303.32713
303.31382
303.33113
303.31765
303.33526
303.32178
303.33983
303.32653
303.34517
303.33222
303.35157
303.33914
303.35929
303.3475
303.36854
303.35749
303.37943
303.36921
303.39206
303.3827
303.40644
303.39796
303.42256
303.41497
303.44035
303.43364
303.45974
303.45391
303.48065
303.47568
303.503
303.49887
303.52667
303.52338
303.55158
303.54912
303.57763
303.57598
303.60471
303.60389
303.63274
303.29145
303.30679
303.29516
303.31115
303.29908
303.31517
303.3027
303.31891
303.30622
303.32257
303.30968
303.32618
303.31313
303.32985
303.31679
303.33383
303.32089
303.33835
303.3257
303.34369
303.33146
303.35008
303.33841
303.35772
303.34671
303.36676
303.35649
303.3773
303.36783
303.3894
303.38077
303.40306
303.39529
303.41826
303.41136
303.43496
303.42893
303.4531
303.44794
303.47262
303.46832
303.49343
303.48999
303.51546
303.51289
303.53863
303.53691
303.56285
303.56198
303.58804
303.29117
303.30541
303.29364
303.30878
303.29688
303.3122
303.30003
303.31547
303.30315
303.31872
303.30625
303.32193
303.30936
303.32519
303.3126
303.32865
303.31616
303.33251
303.32025
303.33699
303.32507
303.34228
303.33085
303.3486
303.33775
303.35608
303.3459
303.36484
303.35541
303.37497
303.36633
303.3865
303.37868
303.39943
303.39245
303.41374
303.40762
303.4294
303.42414
303.44637
303.44198
303.46458
303.46107
303.48398
303.48134
303.5045
303.50273
303.52607
303.52518
303.54861
303.29157
303.30466
303.29283
303.30708
303.29537
303.30987
303.29802
303.31265
303.30073
303.31548
303.30347
303.31832
303.30624
303.32119
303.3091
303.3242
303.3122
303.3275
303.31569
303.33126
303.31975
303.33565
303.32456
303.34086
303.33029
303.34704
303.33708
303.35431
303.34503
303.36276
303.35422
303.37244
303.36468
303.38339
303.37644
303.39559
303.38947
303.40905
303.40378
303.42373
303.41932
303.4396
303.43605
303.45661
303.45394
303.4747
303.47292
303.49383
303.49293
303.51392
303.2922
303.30432
303.29253
303.30589
303.29441
303.30808
303.29657
303.31039
303.29888
303.31281
303.30126
303.31527
303.30369
303.31777
303.30621
303.32038
303.3089
303.32319
303.31189
303.32635
303.31531
303.32999
303.31932
303.33429
303.32408
303.33938
303.32972
303.34538
303.33635
303.3524
303.34405
303.36049
303.35288
303.36971
303.36287
303.38007
303.37403
303.39158
303.38636
303.40422
303.39985
303.41799
303.41447
303.43283
303.43018
303.44872
303.44695
303.46562
303.46472
303.48346
303.29284
303.30419
303.29257
303.3051
303.29388
303.30673
303.29559
303.30859
303.2975
303.31061
303.29953
303.31271
303.30164
303.31486
303.30383
303.31709
303.30616
303.31948
303.30871
303.32212
303.31159
303.32514
303.31494
303.32867
303.31888
303.33284
303.32355
303.33778
303.32906
303.34358
303.3355
303.35031
303.34293
303.35804
303.35138
303.36679
303.3609
303.37658
303.37148
303.38742
303.38313
303.39931
303.39585
303.41221
303.4096
303.42611
303.42436
303.44097
303.44009
303.45676
303.2934
303.30415
303.29282
303.30457
303.29367
303.30573
303.29497
303.30718
303.29652
303.30882
303.29822
303.31057
303.30001
303.31238
303.30189
303.31427
303.30389
303.31628
303.30605
303.31847
303.30847
303.32095
303.31125
303.32383
303.31451
303.32724
303.31837
303.33127
303.32293
303.33604
303.32829
303.34161
303.3345
303.34806
303.34163
303.35541
303.34971
303.3637
303.35875
303.37295
303.36878
303.38316
303.3798
303.39432
303.39179
303.40643
303.40473
303.41945
303.4186
303.43337
303.29386
303.30412
303.29318
303.30422
303.29369
303.30499
303.29464
303.30607
303.29585
303.30737
303.29725
303.30879
303.29874
303.31028
303.30033
303.31185
303.30201
303.3135
303.30382
303.3153
303.30583
303.31731
303.30813
303.31965
303.31081
303.3224
303.31398
303.32567
303.31774
303.32956
303.32217
303.33414
303.32735
303.33948
303.33333
303.34562
303.34015
303.3526
303.34785
303.36045
303.35645
303.36919
303.36595
303.37881
303.37636
303.38931
303.38767
303.40068
303.39986
303.4129
303.29425
303.30409
303.29359
303.30397
303.29386
303.30443
303.29452
303.30521
303.29544
303.30619
303.29655
303.30731
303.29776
303.3085
303.29906
303.30975
303.30045
303.31108
303.30194
303.31252
303.30358
303.31413
303.30546
303.31599
303.30764
303.31818
303.31022
303.32081
303.3133
303.32395
303.31695
303.32769
303.32124
303.33207
303.32623
303.33717
303.33196
303.34302
303.33849
303.34965
303.34582
303.35708
303.35399
303.36534
303.363
303.37441
303.37284
303.3843
303.38351
303.39499
303.29457
303.30403
303.29402
303.30378
303.29411
303.30401
303.29454
303.30452
303.29522
303.30523
303.29606
303.30606
303.29701
303.30697
303.29803
303.30793
303.29914
303.30895
303.30033
303.31006
303.30165
303.31131
303.30315
303.31275
303.3049
303.31447
303.30698
303.31654
303.30947
303.31905
303.31244
303.32206
303.31597
303.32564
303.32011
303.32984
303.32491
303.3347
303.3304
303.34027
303.33664
303.34656
303.34363
303.35361
303.35139
303.36141
303.35992
303.36998
303.36923
303.3793
303.29484
303.30394
303.29442
303.30362
303.29441
303.30367
303.29467
303.30397
303.29513
303.30444
303.29573
303.30501
303.29642
303.30564
303.29719
303.30632
303.29802
303.30705
303.29893
303.30786
303.29995
303.30878
303.30111
303.30986
303.30248
303.31116
303.30412
303.31276
303.30611
303.31472
303.30851
303.31711
303.31139
303.32
303.31479
303.32342
303.31878
303.32744
303.32339
303.33208
303.32866
303.33738
303.33461
303.34337
303.34127
303.35006
303.34864
303.35745
303.35674
303.36555
303.29506
303.30381
303.29479
303.30345
303.29472
303.30339
303.29485
303.30351
303.29512
303.30376
303.2955
303.30408
303.29595
303.30445
303.29647
303.30486
303.29704
303.30533
303.29768
303.30585
303.29841
303.30646
303.29927
303.30722
303.30031
303.30816
303.30157
303.30934
303.30312
303.31084
303.30503
303.31271
303.30735
303.315
303.31013
303.31776
303.31341
303.32105
303.31725
303.32489
303.32168
303.32933
303.32673
303.33439
303.33242
303.34009
303.33876
303.34644
303.34578
303.35346
303.29524
303.30365
303.29512
303.30328
303.29502
303.30312
303.29505
303.3031
303.29516
303.30315
303.29533
303.30324
303.29555
303.30336
303.29582
303.30352
303.29614
303.30372
303.29653
303.30397
303.297
303.30431
303.29758
303.30477
303.29831
303.30539
303.29924
303.30622
303.30041
303.30732
303.3019
303.30874
303.30373
303.31052
303.30597
303.31272
303.30865
303.31537
303.31183
303.31853
303.31553
303.32222
303.31979
303.32647
303.32463
303.33131
303.33007
303.33675
303.33612
303.3428
303.29538
303.30346
303.29541
303.30309
303.2953
303.30287
303.29524
303.30272
303.2952
303.30258
303.29518
303.30245
303.29517
303.30233
303.2952
303.30223
303.29528
303.30218
303.29542
303.30219
303.29564
303.30227
303.29596
303.30246
303.29642
303.3028
303.29705
303.30332
303.2979
303.30407
303.29902
303.3051
303.30044
303.30645
303.30222
303.30816
303.30438
303.31028
303.30698
303.31285
303.31005
303.31589
303.31362
303.31944
303.31772
303.32352
303.32237
303.32816
303.32758
303.33336
303.29547
303.30325
303.29566
303.30288
303.29554
303.3026
303.29541
303.30233
303.29522
303.30201
303.29499
303.30166
303.29477
303.3013
303.29456
303.30097
303.2944
303.30067
303.29431
303.30044
303.29429
303.30029
303.29438
303.30024
303.29459
303.30032
303.29496
303.30057
303.29553
303.30103
303.29632
303.30172
303.29739
303.3027
303.29877
303.304
303.30049
303.30566
303.3026
303.30772
303.30512
303.3102
303.3081
303.31315
303.31155
303.31658
303.3155
303.32051
303.31997
303.32496
303.29553
303.30302
303.29586
303.30264
303.29573
303.30231
303.29552
303.30191
303.29518
303.3014
303.29475
303.30083
303.2943
303.30024
303.29386
303.29967
303.29347
303.29915
303.29315
303.29869
303.29292
303.29832
303.29278
303.29805
303.29278
303.29791
303.29291
303.29792
303.29323
303.29812
303.29375
303.29853
303.29451
303.2992
303.29555
303.30014
303.29689
303.30141
303.29858
303.30304
303.30064
303.30504
303.3031
303.30747
303.30599
303.31033
303.30933
303.31365
303.31315
303.31745
303.29554
303.30276
303.29601
303.30238
303.29588
303.30199
303.29557
303.30143
303.29504
303.30072
303.2944
303.29992
303.29372
303.2991
303.29306
303.29831
303.29245
303.29756
303.29192
303.2969
303.29148
303.29633
303.29114
303.29586
303.29094
303.29552
303.29087
303.29533
303.29096
303.2953
303.29125
303.29547
303.29175
303.29587
303.29249
303.29652
303.29351
303.29746
303.29483
303.29871
303.29649
303.30031
303.29851
303.30228
303.30092
303.30465
303.30374
303.30744
303.30698
303.31067
303.29552
303.3025
303.29612
303.3021
303.29596
303.3016
303.29552
303.30087
303.29479
303.29994
303.29392
303.29891
303.29301
303.29786
303.29212
303.29684
303.2913
303.29589
303.29057
303.29504
303.28994
303.29428
303.28943
303.29364
303.28904
303.29313
303.28879
303.29275
303.28869
303.29254
303.28877
303.2925
303.28905
303.29267
303.28955
303.29307
303.29029
303.29372
303.2913
303.29466
303.29262
303.29592
303.29426
303.29751
303.29625
303.29946
303.29861
303.30179
303.30136
303.30452
303.29545
303.30222
303.29618
303.30178
303.29597
303.30115
303.29535
303.30019
303.29439
303.29901
303.29327
303.29774
303.29212
303.29646
303.29102
303.29524
303.29
303.29411
303.28908
303.29307
303.28828
303.29215
303.2876
303.29136
303.28705
303.29069
303.28664
303.29016
303.28639
303.28978
303.28629
303.28957
303.28638
303.28955
303.28667
303.28974
303.28717
303.29016
303.28793
303.29084
303.28895
303.29179