/*--------------------------------*- C++ -*----------------------------------*\
| =========                 |                                                 |
| \\      /  F ield         | OpenFOAM: The Open Source CFD Toolbox           |
|  \\    /   O peration     | Version:  2312                                  |
|   \\  /    A nd           | Website:  www.openfoam.com                      |
|    \\/     M anipulation  |                                                 |
\*---------------------------------------------------------------------------*/
FoamFile
{
    version     2.0;
    format      ascii;
    arch        "LSB;label=32;scalar=64";
    class       volVectorField;
    location    "9";
    object      U;
}
// * * * * * * * * * * * * * * * * * * * * * * * * * * * * * * * * * * * * * //

dimensions      [0 1 -1 0 0 0 0];

internalField   nonuniform List<vector> 
4000
(
(0.0025694625 0.00052166699 0)
(0.0064012051 -1.8462106e-05 0)
(0.0031518415 -5.5700272e-07 0)
(0.0038613257 -7.1679793e-07 0)
(0.0036067862 9.3067861e-08 0)
(0.0035848953 -1.9681044e-07 0)
(0.0035906763 1.0037438e-07 0)
(0.0035356247 -1.6737571e-07 0)
(0.003564308 1.2149295e-07 0)
(0.0035305852 -1.2752614e-07 0)
(0.003556253 1.1357297e-07 0)
(0.0035320217 -1.0785547e-07 0)
(0.0035533651 1.0058635e-07 0)
(0.0035335652 -9.4545902e-08 0)
(0.003551806 8.878427e-08 0)
(0.0035347392 -8.3603811e-08 0)
(0.0035506558 7.8672071e-08 0)
(0.0035357219 -7.4174733e-08 0)
(0.0035496967 6.9919727e-08 0)
(0.0035365881 -6.5984829e-08 0)
(0.003548866 6.2294365e-08 0)
(0.0035373555 -5.8854219e-08 0)
(0.0035481372 5.5640702e-08 0)
(0.0035380356 -5.2633469e-08 0)
(0.0035474932 4.9828565e-08 0)
(0.0035386403 -4.7199337e-08 0)
(0.0035469201 4.4749301e-08 0)
(0.0035391806 -4.2452339e-08 0)
(0.003546407 4.0314795e-08 0)
(0.0035396662 -3.8312987e-08 0)
(0.0035459448 3.6454168e-08 0)
(0.0035401049 -3.4717385e-08 0)
(0.003545526 3.3109893e-08 0)
(0.0035405036 -3.161335e-08 0)
(0.0035451444 3.0234531e-08 0)
(0.003540868 -2.8957534e-08 0)
(0.0035447945 2.7788404e-08 0)
(0.0035412034 -2.6713545e-08 0)
(0.0035444714 2.573816e-08 0)
(0.0035415142 -2.4850889e-08 0)
(0.0035441707 2.4055975e-08 0)
(0.0035418049 -2.3344541e-08 0)
(0.0035438883 2.2719643e-08 0)
(0.0035420798 -2.2173804e-08 0)
(0.0035436212 2.1716902e-08 0)
(0.0035423436 -2.1318813e-08 0)
(0.0035433603 2.1042612e-08 0)
(0.0035425662 -2.0840668e-08 0)
(0.0035429846 2.0344594e-08 0)
(0.0035424597 -2.2451513e-08 0)
(0.006746948 0.0014732603 0)
(0.016836888 3.3929877e-06 0)
(0.0099495324 3.4118677e-05 0)
(0.011043543 -5.331012e-06 0)
(0.01047971 4.0435426e-06 0)
(0.010382928 -3.2274854e-07 0)
(0.010425359 1.1456479e-06 0)
(0.010259885 -1.408231e-07 0)
(0.010347278 5.3480048e-07 0)
(0.010247437 -3.3747501e-07 0)
(0.010323919 4.007064e-07 0)
(0.010252124 -3.5834876e-07 0)
(0.010315718 3.5310666e-07 0)
(0.010256765 -3.3146128e-07 0)
(0.010311221 3.1598222e-07 0)
(0.010260258 -2.9709222e-07 0)
(0.010307836 2.8124834e-07 0)
(0.010263185 -2.6468941e-07 0)
(0.010304989 2.5013822e-07 0)
(0.010265769 -2.3586888e-07 0)
(0.010302516 2.2292616e-07 0)
(0.010268061 -2.1056883e-07 0)
(0.010300342 1.9917362e-07 0)
(0.010270098 -1.8840937e-07 0)
(0.010298414 1.7840895e-07 0)
(0.010271913 -1.6900512e-07 0)
(0.010296695 1.6024541e-07 0)
(0.010273539 -1.5202948e-07 0)
(0.010295153 1.4437641e-07 0)
(0.010275002 -1.372153e-07 0)
(0.010293761 1.3055637e-07 0)
(0.010276327 -1.2434357e-07 0)
(0.010292498 1.185845e-07 0)
(0.010277532 -1.1323217e-07 0)
(0.010291346 1.0829321e-07 0)
(0.010278634 -1.0372743e-07 0)
(0.010290288 9.9540707e-08 0)
(0.01027965 -9.5698742e-08 0)
(0.01028931 9.2206656e-08 0)
(0.010280593 -8.9035237e-08 0)
(0.010288398 8.6189642e-08 0)
(0.010281476 -8.3645495e-08 0)
(0.01028754 8.140115e-08 0)
(0.010282313 -7.946661e-08 0)
(0.010286725 7.7766859e-08 0)
(0.010283121 -7.6375589e-08 0)
(0.010285937 7.5646289e-08 0)
(0.010283851 -7.2984512e-08 0)
(0.010284915 7.844671e-08 0)
(0.010283735 -7.0892644e-08 0)
(0.012956782 0.0028984896 0)
(0.025952506 -1.973025e-05 0)
(0.016487844 7.5911943e-05 0)
(0.018037269 -9.3579645e-06 0)
(0.017157045 9.6549139e-06 0)
(0.016992984 -3.9457065e-07 0)
(0.017082632 2.5503208e-06 0)
(0.016804816 4.7097862e-08 0)
(0.016957725 1.0335721e-06 0)
(0.016788931 -5.3892284e-07 0)
(0.016919721 7.2628473e-07 0)
(0.016797913 -6.3848326e-07 0)
(0.016906284 6.40776e-07 0)
(0.016805965 -6.0220878e-07 0)
(0.016898771 5.7670104e-07 0)
(0.01681193 -5.4205275e-07 0)
(0.016893049 5.1412178e-07 0)
(0.016816915 -4.8353048e-07 0)
(0.016888219 4.5733052e-07 0)
(0.016821314 -4.3111175e-07 0)
(0.016884016 4.0760566e-07 0)
(0.016825218 -3.849786e-07 0)
(0.016880314 3.6420318e-07 0)
(0.01682869 -3.445172e-07 0)
(0.016877029 3.2624935e-07 0)
(0.01683179 -3.0905452e-07 0)
(0.016874094 2.9303631e-07 0)
(0.016834568 -2.7801131e-07 0)
(0.016871457 2.6400869e-07 0)
(0.016837072 -2.5091015e-07 0)
(0.016869077 2.3872272e-07 0)
(0.016839339 -2.2735692e-07 0)
(0.016866916 2.168146e-07 0)
(0.016841402 -2.0702164e-07 0)
(0.016864944 1.9797937e-07 0)
(0.01684329 -1.8962426e-07 0)
(0.016863132 1.8195779e-07 0)
(0.016845031 -1.7492549e-07 0)
(0.016861457 1.6852889e-07 0)
(0.016846648 -1.6272106e-07 0)
(0.016859893 1.5750562e-07 0)
(0.016848163 -1.5284126e-07 0)
(0.01685842 1.4872035e-07 0)
(0.0168496 -1.4517643e-07 0)
(0.01685702 1.4200567e-07 0)
(0.016850988 -1.3950837e-07 0)
(0.01685567 1.3811531e-07 0)
(0.016852274 -1.3255259e-07 0)
(0.016853999 1.461679e-07 0)
(0.016852268 -1.2885456e-07 0)
(0.015381677 0.0031040108 0)
(0.0342393 -8.9804444e-05 0)
(0.022806872 0.00013054062 0)
(0.024853955 -1.4529753e-05 0)
(0.023639416 1.7805693e-05 0)
(0.023415843 -4.1689941e-07 0)
(0.023561699 4.3657603e-06 0)
(0.023170719 5.1496431e-07 0)
(0.023395728 1.5533964e-06 0)
(0.0231552 -6.5524247e-07 0)
(0.023343734 1.0293418e-06 0)
(0.02316935 -8.9224552e-07 0)
(0.023325166 9.1246868e-07 0)
(0.023181082 -8.5973528e-07 0)
(0.023314571 8.2713818e-07 0)
(0.023189662 -7.7737583e-07 0)
(0.023306409 7.3879013e-07 0)
(0.023196823 -6.9438203e-07 0)
(0.02329949 6.5733182e-07 0)
(0.023203141 -6.1946649e-07 0)
(0.023293459 5.8591001e-07 0)
(0.023208752 -5.5334309e-07 0)
(0.02328814 5.2356111e-07 0)
(0.023213747 -4.9526073e-07 0)
(0.023283413 4.6901974e-07 0)
(0.023218209 -4.4430515e-07 0)
(0.023279186 4.2127139e-07 0)
(0.023222212 -3.9967305e-07 0)
(0.023275387 3.7952688e-07 0)
(0.023225821 -3.6069517e-07 0)
(0.023271955 3.4315619e-07 0)
(0.02322909 -3.2681408e-07 0)
(0.023268839 3.1164096e-07 0)
(0.023232064 -2.9755947e-07 0)
(0.023265995 2.8454456e-07 0)
(0.023234788 -2.725298e-07 0)
(0.023263384 2.6149428e-07 0)
(0.023237297 -2.5138051e-07 0)
(0.023260968 2.4217135e-07 0)
(0.023239628 -2.3381625e-07 0)
(0.023258715 2.2630551e-07 0)
(0.023241813 -2.195907e-07 0)
(0.02325659 2.1364931e-07 0)
(0.023243885 -2.0855689e-07 0)
(0.02325457 2.0392105e-07 0)
(0.023245886 -2.0041505e-07 0)
(0.023252626 1.9836241e-07 0)
(0.02324777 -1.8938016e-07 0)
(0.023250305 2.1435219e-07 0)
(0.023248002 -1.8474575e-07 0)
(0.021033141 0.0044238955 0)
(0.042186093 -9.2268876e-05 0)
(0.02886192 0.00019541981 0)
(0.031490439 -2.2041296e-05 0)
(0.029926746 2.8495627e-05 0)
(0.029653551 -4.3464953e-07 0)
(0.029860856 6.5229678e-06 0)
(0.029357831 1.230275e-06 0)
(0.029661038 2.0539927e-06 0)
(0.029346515 -6.798072e-07 0)
(0.029595815 1.292449e-06 0)
(0.029366578 -1.1091847e-06 0)
(0.029572245 1.1558047e-06 0)
(0.029382211 -1.0934751e-06 0)
(0.029558524 1.056765e-06 0)
(0.02939353 -9.9332754e-07 0)
(0.029547833 9.4593469e-07 0)
(0.029402972 -8.8849377e-07 0)
(0.029538733 8.4184836e-07 0)
(0.029411305 -7.9310679e-07 0)
(0.029530785 7.5043824e-07 0)
(0.02941871 -7.0865813e-07 0)
(0.029523765 6.7062504e-07 0)
(0.029425308 -6.3436154e-07 0)
(0.02951752 6.0078087e-07 0)
(0.029431206 -5.6911903e-07 0)
(0.029511932 5.396123e-07 0)
(0.029436501 -5.11941e-07 0)
(0.029506907 4.8612068e-07 0)
(0.029441275 -4.6199195e-07 0)
(0.029502367 4.395085e-07 0)
(0.029445599 -4.185688e-07 0)
(0.029498245 3.9911691e-07 0)
(0.029449534 -3.8107358e-07 0)
(0.029494484 3.6438824e-07 0)
(0.029453135 -3.4899279e-07 0)
(0.029491032 3.3484456e-07 0)
(0.029456452 -3.2188409e-07 0)
(0.029487839 3.1007612e-07 0)
(0.029459533 -2.9936709e-07 0)
(0.02948486 2.8973519e-07 0)
(0.029462419 -2.8112349e-07 0)
(0.029482054 2.7349763e-07 0)
(0.029465156 -2.6697942e-07 0)
(0.029479385 2.60949e-07 0)
(0.029467798 -2.5658246e-07 0)
(0.02947682 2.5385244e-07 0)
(0.029470311 -2.4124929e-07 0)
(0.029473844 2.7984816e-07 0)
(0.029470891 -2.3606707e-07 0)
(0.025094255 0.0049912357 0)
(0.049096847 -0.00018822425 0)
(0.034734338 0.00026644107 0)
(0.037948573 -3.0702619e-05 0)
(0.036015189 4.1763309e-05 0)
(0.035707028 -6.2582821e-07 0)
(0.035978474 8.9582765e-06 0)
(0.035367011 2.1326834e-06 0)
(0.035753266 2.5138389e-06 0)
(0.035363376 -6.2104346e-07 0)
(0.035675679 1.5139296e-06 0)
(0.035389914 -1.2927349e-06 0)
(0.035647271 1.3718321e-06 0)
(0.035409597 -1.305353e-06 0)
(0.03563041 1.2668606e-06 0)
(0.035423742 -1.1912758e-06 0)
(0.035617129 1.1366855e-06 0)
(0.035435545 -1.0669667e-06 0)
(0.035605776 1.0118573e-06 0)
(0.035445969 -9.5296294e-07 0)
(0.035595841 9.0203796e-07 0)
(0.035455238 -8.517236e-07 0)
(0.035587055 8.0613397e-07 0)
(0.035463503 -7.6251676e-07 0)
(0.03557923 7.2218323e-07 0)
(0.035470896 -6.8411198e-07 0)
(0.035572225 6.4863822e-07 0)
(0.035477535 -6.1536593e-07 0)
(0.035565923 5.8431124e-07 0)
(0.035483522 -5.5529815e-07 0)
(0.03556023 5.2825285e-07 0)
(0.035488944 -5.0307453e-07 0)
(0.035555062 4.7967531e-07 0)
(0.035493877 -4.5798006e-07 0)
(0.035550348 4.3790898e-07 0)
(0.03549839 -4.1939753e-07 0)
(0.035546021 4.0237808e-07 0)
(0.035502547 -3.8679358e-07 0)
(0.035542022 3.7258797e-07 0)
(0.035506404 -3.597082e-07 0)
(0.035538293 3.4811864e-07 0)
(0.035510019 -3.3775499e-07 0)
(0.03553478 3.285722e-07 0)
(0.035513443 -3.2074105e-07 0)
(0.035531439 3.1338344e-07 0)
(0.035516747 -3.0829231e-07 0)
(0.035528233 3.0483693e-07 0)
(0.035519911 -2.8852264e-07 0)
(0.0355246 3.4239373e-07 0)
(0.035520934 -2.8264424e-07 0)
(0.029277903 0.0054704326 0)
(0.055707768 -0.00021101466 0)
(0.040457032 0.00033565708 0)
(0.044142492 -3.7318278e-05 0)
(0.041911685 5.8327803e-05 0)
(0.041580571 -8.8851534e-07 0)
(0.041914544 1.1693999e-05 0)
(0.041199624 3.1764092e-06 0)
(0.041672076 2.9164501e-06 0)
(0.0412063 -4.8733749e-07 0)
(0.041583065 1.6935138e-06 0)
(0.041239671 -1.4464168e-06 0)
(0.041549996 1.5621047e-06 0)
(0.041263488 -1.4974893e-06 0)
(0.041530005 1.4589814e-06 0)
(0.041280512 -1.3727884e-06 0)
(0.041514097 1.3123804e-06 0)
(0.041294732 -1.2310851e-06 0)
(0.041500441 1.1685173e-06 0)
(0.041307301 -1.100134e-06 0)
(0.041488468 1.0417235e-06 0)
(0.041318486 -9.8349702e-07 0)
(0.041477866 9.3098228e-07 0)
(0.041328465 -8.8057093e-07 0)
(0.041468417 8.3402191e-07 0)
(0.041337397 -7.9003679e-07 0)
(0.041459952 7.490618e-07 0)
(0.04134542 -7.1062467e-07 0)
(0.041452337 6.7474197e-07 0)
(0.041352655 -6.4122668e-07 0)
(0.041445457 6.0997376e-07 0)
(0.041359206 -5.8088972e-07 0)
(0.041439214 5.5385035e-07 0)
(0.041365165 -5.2879077e-07 0)
(0.04143352 5.0559793e-07 0)
(0.041370616 -4.8421617e-07 0)
(0.041428296 4.6454948e-07 0)
(0.041375634 -4.4654769e-07 0)
(0.041423468 4.3013106e-07 0)
(0.04138029 -4.1525075e-07 0)
(0.041418969 4.0185524e-07 0)
(0.04138465 -3.8987429e-07 0)
(0.041414732 3.7925345e-07 0)
(0.041388779 -3.7021241e-07 0)
(0.041410703 3.6159362e-07 0)
(0.041392759 -3.5590311e-07 0)
(0.04140684 3.5165574e-07 0)
(0.04139659 -3.3164862e-07 0)
(0.041402552 4.0185949e-07 0)
(0.041398136 -3.2458235e-07 0)
(0.03432849 0.006463323 0)
(0.061038195 -0.00030145602 0)
(0.046150637 0.00039829948 0)
(0.049877771 -4.6191477e-05 0)
(0.047587194 7.5346468e-05 0)
(0.047267089 -1.7293538e-06 0)
(0.047666671 1.4612753e-05 0)
(0.046856751 4.289688e-06 0)
(0.047417035 3.2498385e-06 0)
(0.046875685 -2.8568435e-07 0)
(0.047317748 1.8299406e-06 0)
(0.046916107 -1.5718309e-06 0)
(0.047280209 1.7266375e-06 0)
(0.046944092 -1.6703919e-06 0)
(0.047257119 1.6332161e-06 0)
(0.046964023 -1.5380211e-06 0)
(0.047238565 1.4730358e-06 0)
(0.046980696 -1.3808817e-06 0)
(0.047222574 1.3118114e-06 0)
(0.046995448 -1.2346085e-06 0)
(0.047208528 1.1694642e-06 0)
(0.047008585 -1.103949e-06 0)
(0.047196076 1.045134e-06 0)
(0.047020312 -9.8848942e-07 0)
(0.04718497 9.3626147e-07 0)
(0.047030812 -8.868602e-07 0)
(0.047175018 8.4085154e-07 0)
(0.047040247 -7.9768842e-07 0)
(0.047166064 7.5738675e-07 0)
(0.047048754 -7.1975412e-07 0)
(0.047157975 6.8465063e-07 0)
(0.047056456 -6.5199619e-07 0)
(0.047150636 6.216264e-07 0)
(0.04706346 -5.934922e-07 0)
(0.047143944 5.6744385e-07 0)
(0.047069865 -5.4343933e-07 0)
(0.047137806 5.2135139e-07 0)
(0.047075759 -5.0114074e-07 0)
(0.047132136 4.8270159e-07 0)
(0.047081227 -4.659926e-07 0)
(0.047126853 4.5094465e-07 0)
(0.047086345 -4.3748295e-07 0)
(0.047121881 4.2554539e-07 0)
(0.04709119 -4.1539801e-07 0)
(0.047117153 4.0559222e-07 0)
(0.047095857 -3.9942373e-07 0)
(0.047112622 3.9431979e-07 0)
(0.047100365 -3.7072859e-07 0)
(0.047107681 4.5786851e-07 0)
(0.047102501 -3.6180485e-07 0)
(0.037951797 0.0065230382 0)
(0.065823097 -0.00038086607 0)
(0.051977143 0.00048180007 0)
(0.055041651 -5.5368286e-05 0)
(0.053048276 9.1279929e-05 0)
(0.052765678 -2.9086118e-06 0)
(0.053236043 1.7750664e-05 0)
(0.052339461 5.434e-06 0)
(0.052987839 3.5010778e-06 0)
(0.052371888 -2.3449702e-08 0)
(0.052879574 1.9220387e-06 0)
(0.052419446 -1.6699285e-06 0)
(0.052837742 1.8652164e-06 0)
(0.052451591 -1.8240963e-06 0)
(0.052811589 1.7893304e-06 0)
(0.052474434 -1.6867569e-06 0)
(0.052790385 1.61835e-06 0)
(0.052493579 -1.5160748e-06 0)
(0.05277204 1.4414354e-06 0)
(0.052510537 -1.3561012e-06 0)
(0.0527559 1.284975e-06 0)
(0.052525648 -1.2128096e-06 0)
(0.052741578 1.1483283e-06 0)
(0.052539144 -1.0860251e-06 0)
(0.052728796 1.0286672e-06 0)
(0.052551232 -9.7436012e-07 0)
(0.052717339 9.2379805e-07 0)
(0.052562094 -8.763593e-07 0)
(0.05270703 8.3205944e-07 0)
(0.052571887 -7.9070454e-07 0)
(0.052697718 7.5211781e-07 0)
(0.052580752 -7.1623716e-07 0)
(0.052689271 6.8285553e-07 0)
(0.052588813 -6.5194399e-07 0)
(0.052681572 6.2331388e-07 0)
(0.052596181 -5.9694059e-07 0)
(0.052674511 5.7266374e-07 0)
(0.052602961 -5.5045816e-07 0)
(0.05266799 5.3019041e-07 0)
(0.052609248 -5.1182936e-07 0)
(0.052661915 4.9528713e-07 0)
(0.052615132 -4.8048548e-07 0)
(0.0526562 4.6735696e-07 0)
(0.0526207 -4.5620926e-07 0)
(0.052650767 4.4530005e-07 0)
(0.052626058 -4.3877101e-07 0)
(0.052645564 4.3275531e-07 0)
(0.052631246 -4.0576016e-07 0)
(0.052639974 5.1000578e-07 0)
(0.052634031 -3.9424757e-07 0)
(0.043172842 0.0073884131 0)
(0.069625063 -0.00048184169 0)
(0.057624142 0.00055108397 0)
(0.059788332 -6.2394415e-05 0)
(0.058325945 0.00010411757 0)
(0.05806346 -4.8064265e-06 0)
(0.058621087 2.0897461e-05 0)
(0.057648197 6.5284936e-06 0)
(0.058384231 3.6637343e-06 0)
(0.057695179 2.9013889e-07 0)
(0.058268414 1.969318e-06 0)
(0.057749878 -1.7417718e-06 0)
(0.058222443 1.977872e-06 0)
(0.057786142 -1.9587925e-06 0)
(0.058193271 1.927262e-06 0)
(0.057811885 -1.8189322e-06 0)
(0.058169423 1.7481726e-06 0)
(0.057833509 -1.6365273e-06 0)
(0.05814872 1.557225e-06 0)
(0.057852682 -1.4644615e-06 0)
(0.058130478 1.3880997e-06 0)
(0.057869777 -1.3099332e-06 0)
(0.058114275 1.240423e-06 0)
(0.057885051 -1.1730445e-06 0)
(0.058099809 1.111112e-06 0)
(0.057898734 -1.0524175e-06 0)
(0.05808684 9.9778943e-07 0)
(0.05791103 -9.4653238e-07 0)
(0.05807517 8.9866178e-07 0)
(0.057922116 -8.5398559e-07 0)
(0.05806463 8.1228883e-07 0)
(0.057932149 -7.7353103e-07 0)
(0.058055072 7.374611e-07 0)
(0.05794127 -7.0407354e-07 0)
(0.05804636 6.7313958e-07 0)
(0.057949606 -6.4465485e-07 0)
(0.058038373 6.1842495e-07 0)
(0.057957274 -5.9444117e-07 0)
(0.058030998 5.725417e-07 0)
(0.057964383 -5.5270768e-07 0)
(0.05802413 5.3483183e-07 0)
(0.057971035 -5.1883339e-07 0)
(0.05801767 5.0464211e-07 0)
(0.057977327 -4.9260111e-07 0)
(0.05801153 4.8067945e-07 0)
(0.057983377 -4.7390068e-07 0)
(0.058005651 4.6693021e-07 0)
(0.057989246 -4.367635e-07 0)
(0.057999421 5.5793239e-07 0)
(0.057992726 -4.2193708e-07 0)
(0.047252537 0.0074948086 0)
(0.073305265 -0.00055612093 0)
(0.062941942 0.00060091915 0)
(0.064250114 -6.9110888e-05 0)
(0.063448359 0.00011325273 0)
(0.063149788 -7.4702874e-06 0)
(0.063821807 2.3837565e-05 0)
(0.062784283 7.5170372e-06 0)
(0.063606004 3.7299384e-06 0)
(0.062845816 6.4536987e-07 0)
(0.063484179 1.9717293e-06 0)
(0.062907573 -1.7882805e-06 0)
(0.063434184 2.0649225e-06 0)
(0.062947888 -2.0747599e-06 0)
(0.063402038 2.0471355e-06 0)
(0.062976503 -1.9346131e-06 0)
(0.063375561 1.862508e-06 0)
(0.063000599 -1.7422385e-06 0)
(0.063352506 1.6591558e-06 0)
(0.063021985 -1.5596694e-06 0)
(0.063332164 1.4788108e-06 0)
(0.063041063 -1.3952954e-06 0)
(0.063314083 1.3213931e-06 0)
(0.063058113 -1.2495256e-06 0)
(0.063297934 1.183576e-06 0)
(0.06307339 -1.1210146e-06 0)
(0.063283455 1.0628106e-06 0)
(0.063087118 -1.0081943e-06 0)
(0.063270426 9.5718273e-07 0)
(0.063099494 -9.0958753e-07 0)
(0.063258661 8.6515566e-07 0)
(0.063110693 -8.2387071e-07 0)
(0.063247992 7.8543726e-07 0)
(0.063120871 -7.4987563e-07 0)
(0.063238271 7.1691661e-07 0)
(0.063130172 -6.8657826e-07 0)
(0.06322936 6.5863183e-07 0)
(0.063138727 -6.33087e-07 0)
(0.063221133 6.0975329e-07 0)
(0.063146657 -5.8862581e-07 0)
(0.063213474 5.6957755e-07 0)
(0.063154074 -5.5252613e-07 0)
(0.063206271 5.3740104e-07 0)
(0.063161088 -5.2457361e-07 0)
(0.063199426 5.117361e-07 0)
(0.063167827 -5.0481017e-07 0)
(0.063192874 4.9685623e-07 0)
(0.063174374 -4.6378829e-07 0)
(0.063186012 6.0138587e-07 0)
(0.063178585 -4.4497548e-07 0)
(0.05281615 0.0081799297 0)
(0.076221125 -0.0006659128 0)
(0.0679871 0.00065458639 0)
(0.068574536 -7.0876923e-05 0)
(0.068431956 0.00011935938 0)
(0.068027882 -1.0575819e-05 0)
(0.068840134 2.6312821e-05 0)
(0.067748681 8.3384138e-06 0)
(0.068653103 3.7053883e-06 0)
(0.06782398 1.0325993e-06 0)
(0.068526809 1.9299945e-06 0)
(0.067892678 -1.8100883e-06 0)
(0.068472843 2.1268277e-06 0)
(0.067936952 -2.1723312e-06 0)
(0.068437771 2.1491447e-06 0)
(0.067968403 -2.0339454e-06 0)
(0.068408692 1.9614371e-06 0)
(0.067994952 -1.8332884e-06 0)
(0.068383301 1.747282e-06 0)
(0.068018538 -1.6417829e-06 0)
(0.068360872 1.5571558e-06 0)
(0.068039587 -1.4689455e-06 0)
(0.068340925 1.3912839e-06 0)
(0.068058403 -1.3155137e-06 0)
(0.068323104 1.2461028e-06 0)
(0.068075263 -1.1801948e-06 0)
(0.068307125 1.1189037e-06 0)
(0.068090412 -1.0613865e-06 0)
(0.068292748 1.0076627e-06 0)
(0.068104069 -9.575495e-07 0)
(0.068279766 9.1075637e-07 0)
(0.068116425 -8.6729285e-07 0)
(0.068267995 8.2681958e-07 0)
(0.068127653 -7.893844e-07 0)
(0.068257271 7.546781e-07 0)
(0.068137913 -7.2274261e-07 0)
(0.068247443 6.9331528e-07 0)
(0.068147347 -6.6642541e-07 0)
(0.068238372 6.4185421e-07 0)
(0.06815609 -6.1961192e-07 0)
(0.068229927 5.9955193e-07 0)
(0.068164267 -5.8159098e-07 0)
(0.068221987 5.6566083e-07 0)
(0.068171997 -5.521531e-07 0)
(0.068214443 5.3850087e-07 0)
(0.06817942 -5.3152121e-07 0)
(0.068207222 5.2257126e-07 0)
(0.068186636 -4.8689942e-07 0)
(0.06819974 6.4016219e-07 0)
(0.068191608 -4.6351523e-07 0)
(0.057004238 0.0081930938 0)
(0.079107644 -0.00076215773 0)
(0.072864418 0.00070081097 0)
(0.072743723 -7.4013435e-05 0)
(0.073258852 0.00012165003 0)
(0.072714683 -1.3780346e-05 0)
(0.073679986 2.8168177e-05 0)
(0.072542807 8.971248e-06 0)
(0.073525515 3.6014683e-06 0)
(0.072629825 1.4435e-06 0)
(0.07339627 1.8454365e-06 0)
(0.072705329 -1.8071748e-06 0)
(0.073338317 2.1642872e-06 0)
(0.072753447 -2.2517884e-06 0)
(0.073300366 2.2335653e-06 0)
(0.072787685 -2.1171135e-06 0)
(0.073268718 2.0451056e-06 0)
(0.07281666 -1.9098133e-06 0)
(0.073241018 1.8217201e-06 0)
(0.072842423 -1.7109178e-06 0)
(0.073216526 1.6232409e-06 0)
(0.072865421 -1.5309873e-06 0)
(0.073194734 1.4501942e-06 0)
(0.072885982 -1.3711045e-06 0)
(0.07317526 1.2987848e-06 0)
(0.072904407 -1.2300468e-06 0)
(0.073157799 1.1661546e-06 0)
(0.072920962 -1.106191e-06 0)
(0.073142088 1.0501807e-06 0)
(0.072935883 -9.9794697e-07 0)
(0.073127904 9.4916356e-07 0)
(0.072949382 -9.0386669e-07 0)
(0.073115046 8.6167453e-07 0)
(0.072961648 -8.2266333e-07 0)
(0.073103332 7.86485e-07 0)
(0.072972853 -7.5320625e-07 0)
(0.073092598 7.2253146e-07 0)
(0.072983156 -6.9451037e-07 0)
(0.073082692 6.6889664e-07 0)
(0.072992703 -6.4571648e-07 0)
(0.073073472 6.2480399e-07 0)
(0.073001631 -6.0607589e-07 0)
(0.073064805 5.8946838e-07 0)
(0.073010068 -5.7538535e-07 0)
(0.073056569 5.6102295e-07 0)
(0.073018164 -5.5407351e-07 0)
(0.073048687 5.4413212e-07 0)
(0.073026039 -5.0617182e-07 0)
(0.073040598 6.7410713e-07 0)
(0.073031793 -4.7774476e-07 0)
(0.06278573 0.0087592179 0)
(0.081514489 -0.00085142947 0)
(0.07757604 0.00073576838 0)
(0.076781301 -7.6725215e-05 0)
(0.077919408 0.00012083853 0)
(0.07723186 -1.6901964e-05 0)
(0.078345337 2.9359785e-05 0)
(0.077167523 9.3976171e-06 0)
(0.078223281 3.4327982e-06 0)
(0.077263424 1.8679878e-06 0)
(0.078092534 1.7186471e-06 0)
(0.07734565 -1.7792568e-06 0)
(0.078030512 2.1780961e-06 0)
(0.07739747 -2.3134295e-06 0)
(0.077989727 2.300715e-06 0)
(0.077434439 -2.184363e-06 0)
(0.077955554 2.113711e-06 0)
(0.077465804 -1.9720126e-06 0)
(0.077925581 1.8826432e-06 0)
(0.077493712 -1.7672487e-06 0)
(0.077899058 1.6772268e-06 0)
(0.077518629 -1.5815785e-06 0)
(0.077875449 1.498273e-06 0)
(0.077540908 -1.416442e-06 0)
(0.07785435 1.3417592e-06 0)
(0.077560872 -1.2707022e-06 0)
(0.07783543 1.2046889e-06 0)
(0.077578809 -1.1427278e-06 0)
(0.077818409 1.0848514e-06 0)
(0.077594974 -1.0308892e-06 0)
(0.077803043 9.8048155e-07 0)
(0.077609597 -9.3369159e-07 0)
(0.077789115 8.900971e-07 0)
(0.077622883 -8.4980294e-07 0)
(0.077776428 8.1242402e-07 0)
(0.077635018 -7.7805202e-07 0)
(0.077764803 7.4635996e-07 0)
(0.077646175 -7.1741821e-07 0)
(0.077754076 6.9095423e-07 0)
(0.077656513 -6.6701048e-07 0)
(0.077744093 6.4540259e-07 0)
(0.077666178 -6.2604787e-07 0)
(0.077734711 6.0888901e-07 0)
(0.077675311 -5.9433417e-07 0)
(0.077725796 5.7936857e-07 0)
(0.077684069 -5.7252346e-07 0)
(0.077717263 5.6161261e-07 0)
(0.077692589 -5.2169012e-07 0)
(0.077708581 7.0311244e-07 0)
(0.07769914 -4.8787929e-07 0)
(0.067093164 0.0087354623 0)
(0.083949379 -0.00095339368 0)
(0.08220705 0.00076129633 0)
(0.080664383 -7.8814332e-05 0)
(0.082406562 0.00011704845 0)
(0.081592254 -2.004508e-05 0)
(0.082837588 2.9900801e-05 0)
(0.081623913 9.6253555e-06 0)
(0.082746329 3.223568e-06 0)
(0.081724846 2.2981954e-06 0)
(0.082615556 1.5502148e-06 0)
(0.081813752 -1.7254387e-06 0)
(0.082549345 2.1692882e-06 0)
(0.081869114 -2.3574865e-06 0)
(0.08250577 2.3509987e-06 0)
(0.081908748 -2.2359751e-06 0)
(0.082469122 2.1675159e-06 0)
(0.081942457 -2.0201383e-06 0)
(0.082436922 1.9302829e-06 0)
(0.081972468 -1.8110025e-06 0)
(0.082408407 1.7193269e-06 0)
(0.081999266 -1.620925e-06 0)
(0.08238302 1.5357161e-06 0)
(0.082023229 -1.4517134e-06 0)
(0.082360328 1.3752048e-06 0)
(0.0820447 -1.3023311e-06 0)
(0.082339979 1.2346692e-06 0)
(0.08206399 -1.1711512e-06 0)
(0.082321675 1.111822e-06 0)
(0.082081374 -1.056516e-06 0)
(0.082305152 1.0048437e-06 0)
(0.082097098 -9.5689433e-07 0)
(0.082290176 9.1220831e-07 0)
(0.082111382 -8.7091854e-07 0)
(0.082276536 8.3260541e-07 0)
(0.082124428 -7.9738529e-07 0)
(0.082264039 7.6490184e-07 0)
(0.082136422 -7.352459e-07 0)
(0.082252508 7.0812033e-07 0)
(0.082147533 -6.8358397e-07 0)
(0.082241778 6.6143484e-07 0)
(0.082157921 -6.4159159e-07 0)
(0.082231695 6.2400504e-07 0)
(0.082167735 -6.0908002e-07 0)
(0.082222115 5.9361956e-07 0)
(0.08217714 -5.8694307e-07 0)
(0.082212944 5.7510184e-07 0)
(0.082186292 -5.3354842e-07 0)
(0.082203684 7.2711229e-07 0)
(0.082193645 -4.941528e-07 0)
(0.073003202 0.0091481682 0)
(0.086126294 -0.0010302214 0)
(0.086698276 0.00077841331 0)
(0.084420035 -8.0581383e-05 0)
(0.086719184 0.00011007784 0)
(0.085800786 -2.3288503e-05 0)
(0.087157582 2.9880572e-05 0)
(0.085912599 9.666014e-06 0)
(0.087094436 2.9961302e-06 0)
(0.086014312 2.7256313e-06 0)
(0.086965231 1.3401772e-06 0)
(0.086109726 -1.6448538e-06 0)
(0.086894738 2.1389478e-06 0)
(0.086168453 -2.3842132e-06 0)
(0.086848417 2.3848509e-06 0)
(0.08621068 -2.2722956e-06 0)
(0.086809353 2.2068246e-06 0)
(0.086246681 -2.0545022e-06 0)
(0.08677498 1.9649175e-06 0)
(0.086278747 -1.842458e-06 0)
(0.086744523 1.7497995e-06 0)
(0.086307382 -1.6492777e-06 0)
(0.086717399 1.5627601e-06 0)
(0.086332987 -1.4771454e-06 0)
(0.086693153 1.3993365e-06 0)
(0.086355929 -1.3251383e-06 0)
(0.086671412 1.2562898e-06 0)
(0.086376539 -1.1916461e-06 0)
(0.086651855 1.1312683e-06 0)
(0.086395111 -1.0749943e-06 0)
(0.086634203 1.0224088e-06 0)
(0.086411908 -9.7362586e-07 0)
(0.086618205 9.2815204e-07 0)
(0.086427166 -8.8614719e-07 0)
(0.086603636 8.4716019e-07 0)
(0.086441101 -8.1133122e-07 0)
(0.086590288 7.782771e-07 0)
(0.08645391 -7.481085e-07 0)
(0.086577973 7.2050576e-07 0)
(0.086465777 -6.955437e-07 0)
(0.086566515 6.7300403e-07 0)
(0.086476869 -6.5280732e-07 0)
(0.086555748 6.3491384e-07 0)
(0.086487348 -6.1971809e-07 0)
(0.08654552 6.0387159e-07 0)
(0.086497385 -5.9741832e-07 0)
(0.086535726 5.8470216e-07 0)
(0.086507149 -5.4184938e-07 0)
(0.086525905 7.4607956e-07 0)
(0.086515307 -4.9681108e-07 0)
(0.07757486 0.0090284673 0)
(0.088352687 -0.0011427757 0)
(0.091054462 0.00078335352 0)
(0.088085035 -8.1098373e-05 0)
(0.0908696 0.0001005935 0)
(0.089857974 -2.6506256e-05 0)
(0.09130557 2.9413275e-05 0)
(0.090033612 9.5417373e-06 0)
(0.091266954 2.7726072e-06 0)
(0.090132479 3.1385608e-06 0)
(0.091141377 1.0912854e-06 0)
(0.090233657 -1.5369871e-06 0)
(0.091066627 2.0883254e-06 0)
(0.09029556 -2.3938261e-06 0)
(0.091017602 2.4027819e-06 0)
(0.090340299 -2.2937013e-06 0)
(0.09097619 2.2319991e-06 0)
(0.090378532 -2.075459e-06 0)
(0.090939704 1.9868745e-06 0)
(0.090412598 -1.8619352e-06 0)
(0.090907359 1.7689447e-06 0)
(0.090443019 -1.6669248e-06 0)
(0.090878548 1.5796778e-06 0)
(0.09047022 -1.4929978e-06 0)
(0.090852792 1.414401e-06 0)
(0.090494591 -1.3393577e-06 0)
(0.090829697 1.269773e-06 0)
(0.090516484 -1.2044231e-06 0)
(0.090808924 1.1433904e-06 0)
(0.09053621 -1.0865139e-06 0)
(0.090790176 1.0333576e-06 0)
(0.09055405 -9.8405797e-07 0)
(0.090773185 9.3809202e-07 0)
(0.090570254 -8.9564487e-07 0)
(0.090757712 8.5623736e-07 0)
(0.090585052 -8.2003221e-07 0)
(0.090743538 7.8662222e-07 0)
(0.090598655 -7.5613696e-07 0)
(0.09073046 7.2823651e-07 0)
(0.090611255 -7.0301111e-07 0)
(0.090718294 6.8022756e-07 0)
(0.090623032 -6.5980898e-07 0)
(0.090706863 6.4172598e-07 0)
(0.090634157 -6.2635653e-07 0)
(0.090696004 6.102324e-07 0)
(0.090644807 -6.0404752e-07 0)
(0.090685603 5.9052725e-07 0)
(0.090655166 -5.4670332e-07 0)
(0.09067524 7.6002217e-07 0)
(0.090664124 -4.9610574e-07 0)
(0.08399261 0.0094189184 0)
(0.090571745 -0.001173548 0)
(0.095176622 0.00078602176 0)
(0.091726276 -7.9233529e-05 0)
(0.094864147 8.9072055e-05 0)
(0.093760473 -2.9685739e-05 0)
(0.095282052 2.859234e-05 0)
(0.093986413 9.2806941e-06 0)
(0.095263139 2.5743709e-06 0)
(0.094080358 3.5197783e-06 0)
(0.09514372 8.1046439e-07 0)
(0.094185615 -1.4029167e-06 0)
(0.095064952 2.0184985e-06 0)
(0.094250496 -2.3866768e-06 0)
(0.095013268 2.4052852e-06 0)
(0.094297659 -2.3006443e-06 0)
(0.094969581 2.2434287e-06 0)
(0.094338056 -2.0834148e-06 0)
(0.094931049 1.9965169e-06 0)
(0.094374061 -1.8697947e-06 0)
(0.094896877 1.7770968e-06 0)
(0.094406212 -1.6741888e-06 0)
(0.094866432 1.5867726e-06 0)
(0.094434959 -1.4995598e-06 0)
(0.094839215 1.4206716e-06 0)
(0.094460714 -1.345249e-06 0)
(0.09481481 1.2753649e-06 0)
(0.094483848 -1.2097155e-06 0)
(0.09479286 1.1484098e-06 0)
(0.094504692 -1.0912851e-06 0)
(0.094773049 1.0378899e-06 0)
(0.094523541 -9.8838057e-07 0)
(0.094755097 9.4220918e-07 0)
(0.094540661 -8.9958397e-07 0)
(0.094738749 8.600016e-07 0)
(0.094556295 -8.2364563e-07 0)
(0.094723774 7.9008806e-07 0)
(0.094570665 -7.5947596e-07 0)
(0.094709959 7.3145181e-07 0)
(0.094583976 -7.0612035e-07 0)
(0.094697107 6.8323514e-07 0)
(0.094596417 -6.6272234e-07 0)
(0.094685033 6.4456351e-07 0)
(0.094608167 -6.2911472e-07 0)
(0.094673563 6.1282022e-07 0)
(0.094619411 -6.0693992e-07 0)
(0.094662574 5.9270038e-07 0)
(0.094630343 -5.4822737e-07 0)
(0.094651688 7.6897984e-07 0)
(0.094640094 -4.9228943e-07 0)
(0.088372849 0.0092012654 0)
(0.092651241 -0.0012947468 0)
(0.099036766 0.00076976364 0)
(0.095334848 -7.8057465e-05 0)
(0.098704339 7.6338303e-05 0)
(0.097505763 -3.2675304e-05 0)
(0.099087215 2.7502197e-05 0)
(0.097770122 8.913324e-06 0)
(0.09908276 2.4127383e-06 0)
(0.097858666 3.8526856e-06 0)
(0.098971936 5.1043945e-07 0)
(0.097965622 -1.2451689e-06 0)
(0.098889659 1.9305616e-06 0)
(0.098033312 -2.3630954e-06 0)
(0.098835366 2.3929167e-06 0)
(0.098082806 -2.2936049e-06 0)
(0.098789482 2.2415478e-06 0)
(0.098125296 -2.0788101e-06 0)
(0.098748978 1.9942453e-06 0)
(0.098163173 -1.8664289e-06 0)
(0.098713044 1.7746212e-06 0)
(0.098196993 -1.6714201e-06 0)
(0.098681023 1.5843743e-06 0)
(0.098227231 -1.4971448e-06 0)
(0.098652396 1.418445e-06 0)
(0.09825432 -1.3430933e-06 0)
(0.098626728 1.2733319e-06 0)
(0.098278652 -1.207776e-06 0)
(0.098603641 1.1465661e-06 0)
(0.098300574 -1.0895353e-06 0)
(0.098582807 1.0362219e-06 0)
(0.098320396 -9.867991e-07 0)
(0.098563927 9.4069926e-07 0)
(0.0983384 -8.9815101e-07 0)
(0.098546736 8.5863108e-07 0)
(0.098354841 -8.2234183e-07 0)
(0.098530989 7.8883782e-07 0)
(0.098369952 -7.5828212e-07 0)
(0.098516462 7.3030237e-07 0)
(0.098383948 -7.0501666e-07 0)
(0.098502948 6.8216715e-07 0)
(0.098397029 -6.6168354e-07 0)
(0.098490252 6.435585e-07 0)
(0.098409383 -6.2812186e-07 0)
(0.098478194 6.1176237e-07 0)
(0.098421199 -6.0621437e-07 0)
(0.098466636 5.9135295e-07 0)
(0.098432684 -5.4654465e-07 0)
(0.098455246 7.7302098e-07 0)
(0.098443215 -4.8561189e-07 0)
(0.094164348 0.0093447184 0)
(0.094858605 -0.0013062129 0)
(0.10264226 0.00075264509 0)
(0.098910266 -7.6146032e-05 0)
(0.10238415 6.3102796e-05 0)
(0.10109101 -3.5434322e-05 0)
(0.10272099 2.6201912e-05 0)
(0.10138388 8.4709693e-06 0)
(0.10272624 2.2859626e-06 0)
(0.10146751 4.1254457e-06 0)
(0.10262574 2.073519e-07 0)
(0.10157365 -1.0676896e-06 0)