/*--------------------------------*- C++ -*----------------------------------*\
| =========                 |                                                 |
| \\      /  F ield         | OpenFOAM: The Open Source CFD Toolbox           |
|  \\    /   O peration     | Version:  2312                                  |
|   \\  /    A nd           | Website:  www.openfoam.com                      |
|    \\/     M anipulation  |                                                 |
\*---------------------------------------------------------------------------*/
FoamFile
{
    version     2.0;
    format      ascii;
    arch        "LSB;label=32;scalar=64";
    class       surfaceScalarField;
    location    "4";
    object      phi;
}
// * * * * * * * * * * * * * * * * * * * * * * * * * * * * * * * * * * * * * //

dimensions      [0 3 -1 0 0 0 0];

oriented        oriented;

internalField   nonuniform List<scalar> 
7870
(
5.3029775e-11
1.2932202e-09
5.1924557e-11
1.1052183e-12
5.1958014e-11
-3.3457631e-14
5.1215315e-11
7.4269917e-13
5.2052878e-11
-8.3756205e-13
5.1284621e-11
7.6825622e-13
5.2023501e-11
-7.388792e-13
5.1334551e-11
6.8894911e-13
5.1983052e-11
-6.4850077e-13
5.1375677e-11
6.0737532e-13
5.1945693e-11
-5.7001638e-13
5.141117e-11
5.3452359e-13
5.1912667e-11
-5.0149755e-13
5.1442181e-11
4.7048611e-13
5.1883676e-11
-4.4149545e-13
5.1469332e-11
4.1434428e-13
5.1858277e-11
-3.8894446e-13
5.1493097e-11
3.6517952e-13
5.1836048e-11
-3.4295114e-13
5.151388e-11
3.2216864e-13
5.1816618e-11
-3.0273868e-13
5.1532031e-11
2.8458711e-13
5.1799659e-11
-2.6762794e-13
5.1547859e-11
2.5180042e-13
5.1784884e-11
-2.3702565e-13
5.156163e-11
2.2325451e-13
5.1772044e-11
-2.1041461e-13
5.1573577e-11
1.984668e-13
5.1760923e-11
-1.8734506e-13
5.1583904e-11
1.7701827e-13
5.1751331e-11
-1.6742708e-13
5.1592785e-11
1.5854637e-13
5.1743109e-11
-1.5032394e-13
5.160037e-11
1.4273891e-13
5.1736116e-11
-1.3574645e-13
5.1606788e-11
1.2932868e-13
5.1730236e-11
-1.2344807e-13
5.1612147e-11
1.1808898e-13
5.1725368e-11
-1.1322072e-13
5.1616538e-11
1.0882971e-13
5.1721429e-11
-1.048913e-13
5.1620035e-11
1.0139417e-13
5.1718354e-11
-9.831876e-14
5.1622697e-11
9.5656461e-14
5.1716089e-11
-9.3391276e-14
5.1624568e-11
9.1520338e-14
5.1714601e-11
-9.0032856e-14
5.1625807e-11
8.8794546e-14
5.1714908e-11
-8.9101212e-14
8.5542058e-14
1.4950312e-10
2.4899671e-09
1.5083126e-10
-2.229218e-13
1.5025797e-10
5.3982881e-13
1.4930115e-10
1.6995164e-12
1.5050766e-10
-2.0440725e-12
1.4943335e-10
1.8425675e-12
1.5049373e-10
-1.7992577e-12
1.4951106e-10
1.6716247e-12
1.504394e-10
-1.5768476e-12
1.4957111e-10
1.4756648e-12
1.5038654e-10
-1.3854397e-12
1.4962213e-10
1.2989323e-12
1.5033943e-10
-1.2188037e-12
1.4966656e-10
1.143362e-12
1.5029802e-10
-1.0729609e-12
1.4970543e-10
1.0069367e-12
1.5026173e-10
-9.4524295e-13
1.4973945e-10
8.8745991e-13
1.5022996e-10
-8.3346575e-13
1.4976919e-10
7.8293731e-13
1.5020219e-10
-7.35739e-13
1.4979517e-10
6.9160892e-13
1.5017796e-10
-6.5041135e-13
1.4981782e-10
6.1193275e-13
1.5015684e-10
-5.7604062e-13
1.4983753e-10
5.4256225e-13
1.5013849e-10
-5.1136971e-13
1.4985463e-10
4.8232466e-13
1.5012259e-10
-4.5530551e-13
1.4986941e-10
4.3020167e-13
1.5010888e-10
-4.0690037e-13
1.4988211e-10
3.8531229e-13
1.5009712e-10
-3.6533596e-13
1.4989297e-10
3.4689779e-13
1.5008713e-10
-3.2990947e-13
1.4990215e-10
3.1430887e-13
1.5007872e-10
-3.0002165e-13
1.4990982e-10
2.8699453e-13
1.5007176e-10
-2.7516674e-13
1.499161e-10
2.6449272e-13
1.5006613e-10
-2.5492389e-13
1.499211e-10
2.4642243e-13
1.5006174e-10
-2.3894996e-13
1.4992491e-10
2.3247712e-13
1.500585e-10
-2.2697168e-13
1.4992759e-10
2.224239e-13
1.5005635e-10
-2.1879626e-13
1.4992941e-10
2.1573983e-13
1.5005771e-10
-2.1740648e-13
2.0712356e-13
2.4291924e-10
3.5932979e-09
2.4726659e-10
-4.5702629e-12
2.4583493e-10
1.9714821e-12
2.4509527e-10
2.4391793e-12
2.4623129e-10
-3.1800922e-12
2.4526128e-10
2.8125782e-12
2.4625637e-10
-2.7943523e-12
2.4534193e-10
2.5860726e-12
2.4621022e-10
-2.4451399e-12
2.4539965e-10
2.286233e-12
2.4616156e-10
-2.147352e-12
2.4544764e-10
2.0128556e-12
2.4611773e-10
-1.888898e-12
2.4548924e-10
1.7718512e-12
2.4607912e-10
-1.6628375e-12
2.4552561e-10
1.5604489e-12
2.4604526e-10
-1.4648971e-12
2.4555742e-10
1.3753014e-12
2.4601562e-10
-1.2916682e-12
2.4558523e-10
1.2133268e-12
2.4598971e-10
-1.1402164e-12
2.4560952e-10
1.0717986e-12
2.4596709e-10
-1.0079811e-12
2.456307e-10
9.4832728e-13
2.4594738e-10
-8.9272641e-13
2.4564912e-10
8.4082597e-13
2.4593025e-10
-7.9250401e-13
2.456651e-10
7.4747745e-13
2.4591541e-10
-7.0561969e-13
2.4567891e-10
6.6670375e-13
2.4590262e-10
-6.3060476e-13
2.4569079e-10
5.9713961e-13
2.4589164e-10
-5.6619102e-13
2.4570093e-10
5.3760926e-13
2.4588231e-10
-5.1128923e-13
2.4570951e-10
4.8710643e-13
2.4587446e-10
-4.6497065e-13
2.4571668e-10
4.447771e-13
2.4586797e-10
-4.2645131e-13
2.4572255e-10
4.09905e-13
2.4586271e-10
-3.9507864e-13
2.4572723e-10
3.8189919e-13
2.458586e-10
-3.7032004e-13
2.457308e-10
3.6028339e-13
2.4585557e-10
-3.5174893e-13
2.457333e-10
3.4469732e-13
2.4585356e-10
-3.3905279e-13
2.4573508e-10
3.3421425e-13
2.4585609e-10
-3.3841132e-13
3.1989307e-13
3.3407998e-10
4.6054679e-09
3.4108054e-10
-1.1570822e-11
3.3892788e-10
4.124141e-12
3.3837348e-10
2.9935811e-12
3.3943656e-10
-4.2431739e-12
3.3856932e-10
3.6798143e-12
3.3949856e-10
-3.7235887e-12
3.3865215e-10
3.4324777e-12
3.3946004e-10
-3.2530265e-12
3.3870737e-10
3.0389003e-12
3.3941551e-10
-2.8554865e-12
3.3875228e-10
2.6760795e-12
3.3937494e-10
-2.5115511e-12
3.3879103e-10
2.3557541e-12
3.3933912e-10
-2.2109233e-12
3.3882486e-10
2.0747032e-12
3.393077e-10
-1.9477294e-12
3.3885445e-10
1.8285473e-12
3.3928018e-10
-1.7174023e-12
3.3888031e-10
1.6131988e-12
3.3925613e-10
-1.5160329e-12
3.3890289e-10
1.4250337e-12
3.3923513e-10
-1.3402146e-12
3.3892258e-10
1.2608748e-12
3.3921683e-10
-1.186974e-12
3.389397e-10
1.1179479e-12
3.3920092e-10
-1.0537201e-12
3.3895456e-10
9.9383727e-13
3.3918714e-10
-9.3820011e-13
3.389674e-10
8.8644505e-13
3.3917526e-10
-8.3846124e-13
3.3897844e-10
7.9395615e-13
3.3916507e-10
-7.5281723e-13
3.3898787e-10
7.1480729e-13
3.391564e-10
-6.7981977e-13
3.3899584e-10
6.4766038e-13
3.3914911e-10
-6.1823392e-13
3.3900251e-10
5.9137973e-13
3.3914307e-10
-5.6701707e-13
3.3900796e-10
5.4501259e-13
3.3913819e-10
-5.25301e-13
3.3901231e-10
5.0777235e-13
3.3913437e-10
-4.9237616e-13
3.3901563e-10
4.7902374e-13
3.3913155e-10
-4.6767053e-13
3.3901796e-10
4.5828731e-13
3.3912965e-10
-4.5074438e-13
3.3901968e-10
4.4418846e-13
3.3913307e-10
-4.5180751e-13
4.2422349e-13
4.2277848e-10
5.5289394e-09
4.3222095e-10
-2.1013292e-11
4.2953183e-10
6.8132619e-12
4.2913871e-10
3.3866979e-12
4.3012325e-10
-5.2277101e-12
4.2935751e-10
4.4455556e-12
4.3022015e-10
-4.5862339e-12
4.2944166e-10
4.210976e-12
4.3018875e-10
-4.0001164e-12
4.2949419e-10
3.7334583e-12
4.3014827e-10
-3.509567e-12
4.2953597e-10
3.2883789e-12
4.3011095e-10
-3.0865355e-12
4.2957184e-10
2.8948675e-12
4.3007794e-10
-2.7170225e-12
4.2960312e-10
2.5495206e-12
4.3004896e-10
-2.3935692e-12
4.2963047e-10
2.2470404e-12
4.3002358e-10
-2.1105185e-12
4.2965437e-10
1.9824151e-12
4.3000139e-10
-1.8630571e-12
4.2967523e-10
1.7511921e-12
4.2998202e-10
-1.6469963e-12
4.2969342e-10
1.5494676e-12
4.2996513e-10
-1.4586814e-12
4.2970924e-10
1.373833e-12
4.2995045e-10
-1.2949279e-12
4.2972297e-10
1.22132e-12
4.2993774e-10
-1.1529673e-12
4.2973483e-10
1.0893511e-12
4.2992677e-10
-1.0303995e-12
4.2974503e-10
9.7569591e-13
4.2991736e-10
-9.2515233e-13
4.2975374e-10
8.7843323e-13
4.2990936e-10
-8.3544583e-13
4.2976111e-10
7.9591856e-13
4.2990263e-10
-7.5976228e-13
4.2976726e-10
7.267559e-13
4.2989706e-10
-6.9682007e-13
4.297723e-10
6.6977382e-13
4.2989255e-10
-6.4555148e-13
4.2977632e-10
6.2400442e-13
4.2988903e-10
-6.050826e-13
4.2977939e-10
5.8866405e-13
4.2988642e-10
-5.7470373e-13
4.2978154e-10
5.6316178e-13
4.2988464e-10
-5.5383884e-13
4.2978318e-10
5.4564995e-13
4.2988873e-10
-5.5735681e-13
5.2005822e-13
5.0897808e-10
6.3662113e-09
5.2068908e-10
-3.2724296e-11
5.1764548e-10
9.8568707e-12
5.1739347e-10
3.6387017e-12
5.1829135e-10
-6.1255868e-12
5.176258e-10
5.1111065e-12
5.1842129e-10
-5.3817238e-12
5.1771036e-10
4.9219008e-12
5.1839645e-10
-4.6862045e-12
5.1776003e-10
4.3698819e-12
5.1835996e-10
-4.1094946e-12
5.1779863e-10
3.8497012e-12
5.1832588e-10
-3.6137856e-12
5.1783161e-10
3.3891439e-12
5.1829567e-10
-3.1810836e-12
5.1786033e-10
2.9848602e-12
5.1826913e-10
-2.8023732e-12
5.1788543e-10
2.6307446e-12
5.1824589e-10
-2.4709797e-12
5.1790736e-10
2.3209436e-12
5.1822556e-10
-2.1812567e-12
5.1792651e-10
2.0502458e-12
5.1820781e-10
-1.9282979e-12
5.1794319e-10
1.8140811e-12
5.1819234e-10
-1.707824e-12
5.1795771e-10
1.6084597e-12
5.1817889e-10
-1.5161062e-12
5.179703e-10
1.429907e-12
5.1816724e-10
-1.3499028e-12
5.1798118e-10
1.2754059e-12
5.1815719e-10
-1.2064038e-12
5.1799054e-10
1.1423451e-12
5.1814857e-10
-1.083183e-12
5.1799853e-10
1.0284754e-12
5.1814124e-10
-9.7815634e-13
5.1800528e-10
9.3187123e-13
5.1813507e-10
-8.8954675e-13
5.1801093e-10
8.5089773e-13
5.1812996e-10
-8.1585331e-13
5.1801555e-10
7.8418265e-13
5.1812582e-10
-7.5582491e-13
5.1801924e-10
7.3059119e-13
5.1812259e-10
-7.0843592e-13
5.1802205e-10
6.8920201e-13
5.181202e-10
-6.7284694e-13
5.1802404e-10
6.5931997e-13
5.1811854e-10
-6.483363e-13
5.1802557e-10
6.3861529e-13
5.1812309e-10
-6.5487813e-13
6.073402e-13
5.9272929e-10
7.119732e-09
6.0649493e-10
-4.6489938e-11
6.0326633e-10
1.3085473e-11
6.0313814e-10
3.7668891e-12
6.0394093e-10
-6.9283735e-12
6.0337405e-10
5.6779799e-12
6.0410209e-10
-6.1097594e-12
6.0345815e-10
5.5658414e-12
6.0408327e-10
-5.3113216e-12
6.0350478e-10
4.9483711e-12
6.0405067e-10
-4.6553862e-12
6.0354017e-10
4.3601954e-12
6.0401981e-10
-4.093427e-12
6.0357024e-10
3.8387139e-12
6.0399238e-10
-3.6032228e-12
6.0359641e-10
3.3808374e-12
6.0396828e-10
-3.1742456e-12
6.0361926e-10
2.9797619e-12
6.0394716e-10
-2.798878e-12
6.0363923e-10
2.6288739e-12
6.0392869e-10
-2.4707134e-12
6.0365666e-10
2.3222734e-12
6.0391255e-10
-2.1841919e-12
6.0367185e-10
2.0547849e-12
6.0389849e-10
-1.9344659e-12
6.0368506e-10
1.8218898e-12
6.0388627e-10
-1.7173118e-12
6.0369652e-10
1.6196535e-12
6.0387567e-10
-1.5290575e-12
6.0370642e-10
1.4446588e-12
6.0386654e-10
-1.36652e-12
6.0371493e-10
1.2939483e-12
6.038587e-10
-1.2269508e-12
6.037222e-10
1.1649743e-12
6.0385204e-10
-1.1079896e-12
6.0372835e-10
1.0555554e-12
6.0384643e-10
-1.0076228e-12
6.0373349e-10
9.6383952e-13
6.0384178e-10
-9.2415008e-13
6.0373769e-10
8.8827139e-13
6.0383802e-10
-8.5615294e-13
6.0374105e-10
8.2756372e-13
6.0383508e-10
-8.0246669e-13
6.0374361e-10
7.8066814e-13
6.038329e-10
-7.6213051e-13
6.0374543e-10
7.4679249e-13
6.0383136e-10
-7.3426855e-13
6.0374684e-10
7.2312877e-13
6.0383621e-10
-7.442451e-13
6.8609803e-13
6.7409064e-10
7.7918914e-09
6.8965474e-10
-6.2054045e-11
6.8639093e-10
1.6349292e-11
6.8636942e-10
3.7883982e-12
6.870723e-10
-7.6312596e-12
6.8660206e-10
6.1482203e-12
6.8726268e-10
-6.7703771e-12
6.8668489e-10
6.1436317e-12
6.8724929e-10
-5.875724e-12
6.8672833e-10
5.4693374e-12
6.872205e-10
-5.1475569e-12
6.867605e-10
4.8201941e-12
6.8719283e-10
-4.5257567e-12
6.8678767e-10
4.2438679e-12
6.8716816e-10
-3.9837063e-12
6.8681129e-10
3.737708e-12
6.8714646e-10
-3.5094219e-12
6.8683191e-10
3.2943167e-12
6.8712745e-10
-3.0944215e-12
6.8684992e-10
2.9064035e-12
6.8711082e-10
-2.7316106e-12
6.8686564e-10
2.5674491e-12
6.8709629e-10
-2.4148402e-12
6.8687934e-10
2.2717328e-12
6.8708363e-10
-2.1387507e-12
6.8689126e-10
2.0142598e-12
6.8707262e-10
-1.8986722e-12
6.8690159e-10
1.7906808e-12
6.8706308e-10
-1.6905448e-12
6.8691052e-10
1.5972181e-12
6.8705485e-10
-1.5108494e-12
6.869182e-10
1.4306024e-12
6.8704779e-10
-1.3565472e-12
6.8692475e-10
1.2880171e-12
6.8704179e-10
-1.2250281e-12
6.8693029e-10
1.1670502e-12
6.8703674e-10
-1.114066e-12
6.8693492e-10
1.0656537e-12
6.8703255e-10
-1.0217799e-12
6.8693872e-10
9.8210707e-13
6.8702916e-10
-9.4660044e-13
6.8694174e-10
9.1498503e-13
6.8702651e-10
-8.8723631e-13
6.8694406e-10
8.6312283e-13
6.8702454e-10
-8.4261386e-13
6.8694569e-10
8.2563833e-13
6.8702312e-10
-8.1169609e-13
6.8694699e-10
7.9925975e-13
6.8702813e-10
-8.2537986e-13
7.5642555e-13
7.5310836e-10
8.385033e-09
7.7018827e-10
-7.9133955e-11
7.6701471e-10
1.9522847e-11
7.6708059e-10
3.7225237e-12
7.6768614e-10
-8.2368128e-12
7.6730954e-10
6.5248187e-12
7.6790316e-10
-7.3640005e-12
7.6739048e-10
6.6563182e-12
7.6789463e-10
-6.3798764e-12
7.6743059e-10
5.9333819e-12
7.6786953e-10
-5.5864995e-12
7.6745953e-10
5.230193e-12
7.67845e-10
-4.911224e-12
7.6748383e-10
4.6050374e-12
7.6782305e-10
-4.3229322e-12
7.6750491e-10
4.0558502e-12
7.6780374e-10
-3.8082531e-12
7.6752332e-10
3.574742e-12
7.6778681e-10
-3.3579194e-12
7.6753939e-10
3.1538255e-12
7.67772e-10
-2.9642212e-12
7.6755342e-10
2.7860313e-12
7.6775906e-10
-2.6204842e-12
7.6756564e-10
2.4651531e-12
7.6774779e-10
-2.3208917e-12
7.6757627e-10
2.1857718e-12
7.6773798e-10
-2.0603766e-12
7.6758549e-10
1.9431683e-12
7.6772948e-10
-1.8345332e-12
7.6759345e-10
1.7332437e-12
7.6772215e-10
-1.6395426e-12
7.676003e-10
1.5524505e-12
7.6771586e-10
-1.4721071e-12
7.6760614e-10
1.3977324e-12
7.6771051e-10
-1.329394e-12
7.6761109e-10
1.266472e-12
7.6770601e-10
-1.2089872e-12
7.6761522e-10
1.1564465e-12
7.6770228e-10
-1.1088448e-12
7.676186e-10
1.0657878e-12
7.6769926e-10
-1.0272621e-12
7.676213e-10
9.9294688e-13
7.676969e-10
-9.6283392e-13
7.6762337e-10
9.3665333e-13
7.6769514e-10
-9.143827e-13
7.6762483e-10
8.9594216e-13
7.6769384e-10
-8.8070535e-13
7.67626e-10
8.671004e-13
7.6769887e-10
-8.9824807e-13
8.1845891e-13
8.2982085e-10
8.9014622e-09
8.4811604e-10
-9.7429145e-11
8.4513233e-10
2.2506557e-11
8.4526485e-10
3.590012e-12
8.4578343e-10
-8.7553955e-12
8.4549622e-10
6.8120271e-12
8.4602362e-10
-7.891397e-12
8.455748e-10
7.1051293e-12
8.4601936e-10
-6.824433e-12
8.4561147e-10
6.3412767e-12
8.4599783e-10
-5.9728665e-12
8.4563719e-10
5.5908346e-12
8.4597638e-10
-5.2504154e-12
8.4565864e-10
4.9227805e-12
8.4595713e-10
-4.6214179e-12
8.4567722e-10
4.3357538e-12
8.4594016e-10
-4.0711947e-12
8.4569344e-10
3.8214684e-12
8.4592529e-10
-3.5897731e-12
8.457076e-10
3.3715192e-12
8.4591228e-10
-3.1688995e-12
8.4571995e-10
2.9783545e-12
8.459009e-10
-2.8014364e-12
8.4573072e-10
2.6353414e-12
8.4589099e-10
-2.4811658e-12
8.4574007e-10
2.3366876e-12
8.4588237e-10
-2.2026707e-12
8.4574819e-10
2.0773483e-12
8.458749e-10
-1.9612412e-12
8.457552e-10
1.8529424e-12
8.4586845e-10
-1.7527947e-12
8.4576122e-10
1.6596776e-12
8.4586292e-10
-1.5738054e-12
8.4576637e-10
1.4942866e-12
8.4585822e-10
-1.421245e-12
8.4577072e-10
1.3539715e-12
8.4585426e-10
-1.2925297e-12
8.4577435e-10
1.2363554e-12
8.4585098e-10
-1.1854761e-12
8.4577733e-10
1.1394403e-12
8.4584833e-10
-1.0982596e-12
8.4577971e-10
1.0615673e-12
8.4584625e-10
-1.0293741e-12
8.4578153e-10
1.0013716e-12
8.4584469e-10
-9.7754686e-13
8.4578282e-10
9.5781221e-13
8.4584352e-10
-9.4140642e-13
8.4578386e-10
9.2676404e-13
8.4584847e-10
-9.6285481e-13
8.7236649e-13
9.0426314e-10
9.3434491e-09
9.2345653e-10
-1.1662254e-10
9.2073807e-10
2.5225016e-11
9.2091852e-10
3.4095595e-12
9.213653e-10
-9.2021696e-12
9.2116195e-10
7.0153718e-12
9.216241e-10
-8.3535416e-12
9.2123778e-10
7.4914475e-12
9.2162356e-10
-7.2102133e-12
9.2127089e-10
6.6939451e-12
9.2160548e-10
-6.3074538e-12
9.2129342e-10
5.9028942e-12
9.2158705e-10
-5.5440418e-12
9.2131206e-10
5.1977716e-12
9.2157043e-10
-4.8797897e-12
9.2132817e-10
4.5780102e-12
9.2155577e-10
-4.2987979e-12
9.2134223e-10
4.0350161e-12
9.2154292e-10
-3.7904683e-12
9.213545e-10
3.559943e-12
9.2153167e-10
-3.3460737e-12
9.213652e-10
3.1448233e-12
9.2152184e-10
-2.9580756e-12
9.2137453e-10
2.7826553e-12
9.2151327e-10
-2.6199081e-12
9.2138263e-10
2.4673234e-12
9.2150581e-10
-2.3258516e-12
9.2138966e-10
2.1935018e-12
9.2149935e-10
-2.0709332e-12
9.2139573e-10
1.9565644e-12
9.2149378e-10
-1.8508415e-12
9.2140095e-10
1.7525073e-12
9.21489e-10
-1.6618538e-12
9.214054e-10
1.5778809e-12
9.2148493e-10
-1.5007717e-12
9.2140917e-10
1.4297306e-12
9.2148151e-10
-1.3648669e-12
9.2141232e-10
1.3055462e-12
9.2147867e-10
-1.2518324e-12
9.214149e-10
1.2032171e-12
9.2147638e-10
-1.15974e-12
9.2141696e-10
1.1209887e-12
9.2147458e-10
-1.0869947e-12
9.2141854e-10
1.0574122e-12
9.2147323e-10
-1.0322384e-12
9.2141966e-10
1.0113783e-12
9.2147219e-10
-9.93931e-13
9.2142057e-10
9.7838367e-13
9.2147695e-10
-1.0192411e-12
9.1834378e-13
9.7646809e-10
9.713231e-09
9.9622566e-10
-1.3638011e-10
9.9382618e-10
2.7624491e-11
9.9404143e-10
3.19431e-12
9.9443273e-10
-9.5934674e-12
9.9430673e-10
7.1413757e-12
9.9470467e-10
-8.7514797e-12
9.9437933e-10
7.8167842e-12
9.9470729e-10
-7.5381784e-12
9.944088e-10
6.9924447e-12
9.9469253e-10
-6.5911857e-12
9.9442815e-10
6.1672666e-12
9.9467704e-10
-5.7929266e-12
9.9444402e-10
5.4307904e-12
9.94663e-10
-5.098773e-12
9.9445771e-10
4.7833038e-12
9.9465061e-10
-4.4917016e-12
9.9446964e-10
4.2159874e-12
9.9463974e-10
-3.9605679e-12
9.9448006e-10
3.7196278e-12
9.9463022e-10
-3.4962404e-12
9.9448914e-10
3.2859061e-12
9.9462191e-10
-3.0908404e-12
9.9449705e-10
2.9075085e-12
9.9461465e-10
-2.737507e-12
9.9450393e-10
2.578046e-12
9.9460834e-10
-2.4302641e-12
9.9450989e-10
2.291954e-12
9.9460287e-10
-2.1639156e-12
9.9451504e-10
2.0443994e-12
9.9459815e-10
-1.9339567e-12
9.9451946e-10
1.8311989e-12
9.945941e-10
-1.7364974e-12
9.9452324e-10
1.6487481e-12
9.9459066e-10
-1.5681954e-12
9.9452643e-10
1.4939599e-12
9.9458776e-10
-1.4261992e-12
9.945291e-10
1.3642111e-12
9.9458536e-10
-1.3080975e-12
9.9453129e-10
1.257295e-12
9.9458342e-10
-1.2118733e-12
9.9453303e-10
1.1713756e-12
9.9458189e-10
-1.1358553e-12
9.9453437e-10
1.1049307e-12
9.9458074e-10
-1.0786097e-12
9.9453533e-10
1.0567904e-12
9.9457983e-10
-1.0384305e-12
9.9453611e-10
1.0221106e-12
9.9458434e-10
-1.0674806e-12
9.5660928e-13
1.0464651e-09
1.0013016e-08
1.0664378e-09
-1.5635273e-10
1.0643909e-09
2.9671305e-11
1.0646354e-09
2.9498365e-12
1.0649864e-09
-9.9444457e-12
1.0649306e-09
7.1971621e-12
1.0652654e-09
-9.0862371e-12
1.0649994e-09
8.0827582e-12
1.0652706e-09
-7.8094117e-12
1.0650251e-09
7.2379524e-12
1.065259e-09
-6.8251006e-12
1.0650413e-09
6.3849541e-12
1.0652464e-09
-5.9979957e-12
1.0650545e-09
5.6227123e-12
1.0652349e-09
-5.279184e-12
1.0650658e-09
4.9524037e-12
1.0652247e-09
-4.6506244e-12
1.0650757e-09
4.3650594e-12
1.0652158e-09
-4.1007052e-12
1.0650842e-09
3.8511704e-12
1.065208e-09
-3.6199585e-12
1.0650917e-09
3.4021298e-12
1.0652011e-09
-3.2002245e-12
1.0650983e-09
3.0103668e-12
1.0651952e-09
-2.8343994e-12
1.0651039e-09
2.6692675e-12
1.06519e-09
-2.5162956e-12
1.0651089e-09
2.3730709e-12
1.0651855e-09
-2.2405332e-12
1.0651131e-09
2.1167733e-12
1.0651816e-09
-2.0024481e-12
1.0651167e-09
1.8960438e-12
1.0651783e-09
-1.7980121e-12
1.0651199e-09
1.7071503e-12
1.0651754e-09
-1.6237645e-12
1.0651225e-09
1.5468966e-12
1.065173e-09
-1.4767523e-12
1.0651247e-09
1.4125661e-12
1.0651711e-09
-1.3544779e-12
1.0651265e-09
1.301873e-12
1.0651695e-09
-1.2548506e-12
1.0651279e-09
1.212913e-12
1.0651682e-09
-1.1761353e-12
1.065129e-09
1.1441019e-12
1.0651673e-09
-1.1168319e-12
1.0651298e-09
1.0942165e-12
1.0651665e-09
-1.0750742e-12
1.0651305e-09
1.0581128e-12
1.0651707e-09
-1.1076766e-12
9.874005e-13
1.114277e-09
1.0244989e-08
1.134106e-09
-1.7618176e-10
1.1324273e-09
3.1349953e-11
1.1327028e-09
2.6744099e-12
1.1330266e-09
-1.0268287e-11
1.1330337e-09
7.190092e-12
1.1333062e-09
-9.3587798e-12
1.1330979e-09
8.2910817e-12
1.1333136e-09
-8.0251063e-12
1.1331198e-09
7.4317534e-12
1.133305e-09
-7.0103405e-12
1.1331329e-09
6.557057e-12
1.1332952e-09
-6.1602672e-12
1.1331434e-09
5.7745001e-12
1.1332862e-09
-5.4219211e-12
1.1331524e-09
5.0861563e-12
1.1332781e-09
-4.7763578e-12
1.1331602e-09
4.4829776e-12
1.1332711e-09
-4.2115779e-12
1.133167e-09
3.9552279e-12
1.1332649e-09
-3.7178436e-12
1.133173e-09
3.4940741e-12
1.1332595e-09
-3.286772e-12
1.1331781e-09
3.0917428e-12
1.1332548e-09
-2.9110669e-12
1.1331826e-09
2.741442e-12
1.1332507e-09
-2.5843733e-12
1.1331865e-09
2.4372558e-12
1.1332472e-09
-2.301166e-12
1.1331899e-09
2.1740454e-12
1.1332441e-09
-2.0566546e-12
1.1331928e-09
1.9473631e-12
1.1332415e-09
-1.8467019e-12
1.1331952e-09
1.7533762e-12
1.1332392e-09
-1.6677532e-12
1.1331973e-09
1.5888016e-12
1.1332373e-09
-1.5167751e-12
1.1331991e-09
1.4508492e-12
1.1332358e-09
-1.3912014e-12
1.1332005e-09
1.3371698e-12
1.1332345e-09
-1.2888828e-12
1.1332016e-09
1.2458046e-12
1.1332335e-09
-1.2080321e-12
1.1332025e-09
1.1751181e-12
1.1332328e-09
-1.1470932e-12
1.1332031e-09
1.1238416e-12
1.1332321e-09
-1.1040475e-12
1.1332037e-09
1.0865741e-12
1.1332359e-09
-1.1399595e-12
1.0109702e-12
1.1799137e-09
1.0411325e-08
1.1992428e-09
-1.9551085e-10
1.197936e-09
3.2656708e-11
1.1982454e-09
2.3650447e-12
1.1985535e-09
-1.0576437e-11
1.198616e-09
7.1275563e-12
1.1988273e-09
-9.5700219e-12
1.1986748e-09
8.4435542e-12
1.1988363e-09
-8.1865555e-12
1.1986928e-09
7.5752329e-12
1.1988306e-09
-7.1481417e-12
1.1987029e-09
6.6847646e-12
1.1988235e-09
-6.2808438e-12
1.1987108e-09
5.8871955e-12
1.1988168e-09
-5.5279573e-12
1.1987175e-09
5.1854781e-12
1.1988109e-09
-4.8697595e-12
1.1987233e-09
4.5705488e-12
1.1988057e-09
-4.293942e-12
1.1987284e-09
4.0325118e-12
1.1988011e-09
-3.7905627e-12
1.1987328e-09
3.5623673e-12
1.1987971e-09
-3.3510722e-12
1.1987367e-09
3.1521917e-12
1.1987936e-09
-2.968031e-12
1.19874e-09
2.7950615e-12
1.1987906e-09
-2.63496e-12
1.1987429e-09
2.4849454e-12
1.198788e-09
-2.3462256e-12
1.1987454e-09
2.2166048e-12
1.1987857e-09
-2.0969438e-12
1.1987476e-09
1.9855051e-12
1.1987837e-09
-1.8828962e-12
1.1987494e-09
1.7877386e-12
1.1987821e-09
-1.7004584e-12
1.1987509e-09
1.6199581e-12
1.1987807e-09
-1.5465371e-12
1.1987522e-09
1.4793183e-12
1.1987795e-09
-1.4185148e-12
1.1987533e-09
1.3634228e-12
1.1987786e-09
-1.3141981e-12
1.1987541e-09
1.2702713e-12
1.1987779e-09
-1.2317598e-12
1.1987548e-09
1.1981876e-12
1.1987773e-09
-1.1695975e-12
1.1987553e-09
1.1458659e-12
1.1987768e-09
-1.1255509e-12
1.1987557e-09
1.1076921e-12
1.1987802e-09
-1.1644837e-12
1.0275833e-12
1.2433592e-09
1.0514216e-08
1.2618587e-09
-2.1401038e-10
1.2609347e-09
3.3580734e-11
1.2612637e-09
2.036073e-12
1.2615666e-09
-1.0879337e-11
1.2616775e-09
7.0166367e-12
1.2618285e-09
-9.7210463e-12
1.2617301e-09
8.5420007e-12
1.2618387e-09
-8.2951721e-12
1.261744e-09
7.6698605e-12
1.2618357e-09
-7.2398294e-12
1.2617511e-09
6.7693472e-12
1.2618312e-09
-6.3609049e-12
1.2617565e-09
5.9619125e-12
1.2618269e-09
-5.5983337e-12
1.261761e-09
5.2513489e-12
1.261823e-09
-4.9317469e-12
1.2617649e-09
4.6286364e-12
1.2618196e-09
-4.3486064e-12
1.2617683e-09
4.083783e-12
1.2618166e-09
-3.8388296e-12
1.2617712e-09
3.6076809e-12
1.2618139e-09
-3.3937557e-12
1.2617738e-09
3.1923076e-12
1.2618116e-09
-3.00585e-12
1.261776e-09
2.830652e-12
1.2618096e-09
-2.6685507e-12
1.261778e-09
2.5166071e-12
1.2618079e-09
-2.3761524e-12
1.2617796e-09
2.2448678e-12
1.2618064e-09
-2.1237088e-12
1.2617811e-09
2.010842e-12
1.2618051e-09
-1.9069476e-12
1.2617823e-09
1.8105723e-12
1.261804e-09
-1.7221981e-12
1.2617833e-09
1.6406688e-12
1.2618031e-09
-1.566327e-12
1.2617842e-09
1.4982494e-12
1.2618023e-09
-1.4366825e-12
1.2617849e-09
1.3808859e-12
1.2618017e-09
-1.3310411e-12
1.2617854e-09
1.2865493e-12
1.2618012e-09
-1.2475473e-12
1.2617859e-09
1.2135336e-12
1.2618008e-09
-1.1845628e-12
1.2617862e-09
1.1605035e-12
1.2618005e-09
-1.1397977e-12
1.2617865e-09
1.1216774e-12
1.2618034e-09
-1.181426e-12
1.0375138e-12
1.3045424e-09
1.0555924e-08
1.3219513e-09
-2.3141927e-10
1.3214887e-09
3.4043328e-11
1.3217657e-09
1.7590177e-12
1.3220655e-09
-1.1179137e-11
1.3222177e-09
6.8644877e-12
1.3223097e-09
-9.8130831e-12
1.3222635e-09
8.5882289e-12
1.3223208e-09
-8.3525107e-12
1.3222735e-09
7.7171691e-12
1.3223205e-09
-7.2868181e-12
1.3222777e-09
6.8121452e-12
1.3223185e-09
-6.4017015e-12
1.3222806e-09
5.9998292e-12
1.3223164e-09
-5.6341528e-12
1.3222829e-09
5.284806e-12
1.3223145e-09
-4.9632914e-12
1.322285e-09
4.6581538e-12
1.3223128e-09
-4.3764274e-12
1.3222867e-09
4.1098472e-12
1.3223113e-09
-3.8634001e-12
1.3222882e-09
3.6307264e-12
1.32231e-09
-3.4154904e-12
1.3222896e-09
3.2127192e-12
1.3223088e-09
-3.025115e-12
1.3222907e-09
2.8487709e-12
1.3223078e-09
-2.6856698e-12
1.3222917e-09
2.5327358e-12
1.322307e-09
-2.3914129e-12
1.3222926e-09
2.2592754e-12
1.3223062e-09
-2.1373661e-12
1.3222933e-09
2.0237683e-12
1.3223056e-09
-1.9192296e-12
1.3222939e-09
1.822232e-12
1.322305e-09
-1.7333091e-12
1.3222944e-09
1.6512545e-12
1.3223046e-09
-1.5764506e-12
1.3222949e-09
1.5079349e-12
1.3223042e-09
-1.4459846e-12
1.3222952e-09
1.3898282e-12
1.3223039e-09
-1.339671e-12
1.3222955e-09
1.2948891e-12
1.3223036e-09
-1.2556374e-12
1.3222958e-09
1.2213921e-12
1.3223034e-09
-1.1922198e-12
1.3222959e-09
1.1679811e-12
1.3223031e-09
-1.1470138e-12
1.3222961e-09
1.1287522e-12
1.3223056e-09
-1.1909827e-12
1.0410426e-12
1.3633698e-09
1.0538804e-08
1.3795054e-09
-2.4755488e-10
1.3796827e-09
3.3866046e-11
1.379776e-09
1.665654e-12
1.3800539e-09
-1.1456965e-11
1.3802381e-09
6.68026e-12
1.3802714e-09
-9.846351e-12
1.3802752e-09
8.5843926e-12
1.3802828e-09
-8.3601008e-12
1.3802811e-09
7.7188071e-12
1.3802849e-09
-7.2905796e-12
1.3802825e-09
6.8145724e-12
1.3802853e-09
-6.404545e-12
1.380283e-09
6.0021836e-12
1.3802854e-09
-5.636572e-12
1.3802833e-09
5.2869382e-12
1.3802854e-09
-4.9654132e-12
1.3802835e-09
4.6600603e-12
1.3802853e-09
-4.3783047e-12
1.3802836e-09
4.1115502e-12
1.3802853e-09
-3.865068e-12
1.3802838e-09
3.6322503e-12
1.3802853e-09
-3.4169779e-12
1.3802839e-09
3.214087e-12
1.3802852e-09
-3.026447e-12
1.380284e-09
2.8500032e-12
1.3802852e-09
-2.6868683e-12
1.3802841e-09
2.5338513e-12
1.3802852e-09
-2.3924972e-12
1.3802842e-09
2.2602908e-12
1.3802851e-09
-2.1383531e-12
1.3802842e-09
2.0246984e-12
1.3802851e-09
-1.9201346e-12
1.3802843e-09
1.8230901e-12
1.3802851e-09
-1.7341452e-12
1.3802843e-09
1.6520523e-12
1.3802851e-09
-1.5772294e-12
1.3802843e-09
1.5086822e-12
1.3802851e-09
-1.4467153e-12
1.3802844e-09
1.3905324e-12
1.380285e-09
-1.3403599e-12
1.3802844e-09
1.2955536e-12
1.380285e-09
-1.2562851e-12
1.3802844e-09
1.2220115e-12
1.380285e-09
-1.1928111e-12
1.3802844e-09
1.1685368e-12
1.3802849e-09
-1.1474358e-12
1.3802845e-09
1.129149e-12
1.3802869e-09
-1.1933681e-12
1.0384553e-12
1.4199204e-09
1.0465134e-08
1.4345579e-09
-2.6219239e-10
1.435442e-09
3.2981913e-11
1.4352851e-09
1.8225741e-12
1.4355279e-09
-1.1699765e-11
1.4357378e-09
6.4703763e-12
1.4357132e-09
-9.821771e-12
1.4357651e-09
8.532519e-12
1.4357246e-09
-8.3196184e-12
1.4357669e-09
7.6764687e-12
1.435729e-09
-7.2526602e-12
1.4357655e-09
6.7780992e-12
1.4357317e-09
-6.3708054e-12
1.4357637e-09
5.9702657e-12
1.4357339e-09
-5.6067989e-12
1.4357619e-09
5.2588807e-12
1.4357357e-09
-4.9391763e-12
1.4357604e-09
4.6353559e-12
1.4357373e-09
-4.3551761e-12
1.4357591e-09
4.0897738e-12
1.4357387e-09
-3.8446612e-12
1.4357579e-09
3.6130315e-12
1.4357398e-09
-3.3989495e-12
1.4357568e-09
3.1970996e-12
1.4357409e-09
-3.0104935e-12
1.4357559e-09
2.8349592e-12
1.4357418e-09
-2.6727206e-12
1.4357551e-09
2.5204956e-12
1.4357425e-09
-2.3799163e-12
1.4357544e-09
2.2483969e-12
1.4357432e-09
-2.1271264e-12
1.4357538e-09
2.0140645e-12
1.4357438e-09
-1.910072e-12
1.4357533e-09
1.8135353e-12
1.4357443e-09
-1.7250758e-12
1.4357529e-09
1.6434138e-12
1.4357447e-09
-1.5689987e-12
1.4357525e-09
1.5008117e-12
1.435745e-09
-1.4391819e-12
1.4357523e-09
1.3832936e-12
1.4357453e-09
-1.3333922e-12
1.435752e-09
1.2888177e-12
1.4357455e-09
-1.2497566e-12
1.4357519e-09
1.2156509e-12
1.4357456e-09
-1.1865898e-12
1.4357518e-09
1.1624192e-12
1.4357456e-09
-1.14131e-12
1.4357517e-09
1.1231101e-12
1.4357471e-09
-1.1888126e-12
1.0300403e-12
1.4743314e-09
1.0337052e-08
1.4871482e-09
-2.7500918e-10
1.4886231e-09
3.1507035e-11
1.4882749e-09
2.1707936e-12
1.4884828e-09
-1.1907664e-11
1.4887154e-09
6.2377911e-12
1.4886349e-09
-9.7413012e-12
1.4887329e-09
8.4344685e-12
1.4886462e-09
-8.2328928e-12
1.4887308e-09
7.5918841e-12
1.4886528e-09
-7.1746742e-12
1.4887267e-09
6.7042463e-12
1.4886578e-09
-6.3019044e-12
1.4887226e-09
5.9054121e-12
1.4886619e-09
-5.5460856e-12
1.488719e-09
5.2018098e-12
1.4886655e-09
-4.8856836e-12
1.4887158e-09
4.5850772e-12
1.4886686e-09
-4.3080143e-12
1.4887129e-09
4.0454323e-12
1.4886713e-09
-3.8030379e-12
1.4887105e-09
3.5738771e-12
1.4886737e-09
-3.362164e-12
1.4887083e-09
3.1624708e-12
1.4886757e-09
-2.9779261e-12
1.4887064e-09
2.8042714e-12
1.4886775e-09
-2.6438225e-12
1.4887048e-09
2.4932307e-12
1.4886791e-09
-2.3542005e-12
1.4887034e-09
2.2240946e-12
1.4886804e-09
-2.1041593e-12
1.4887022e-09
1.9923147e-12
1.4886816e-09
-1.8894663e-12
1.4887011e-09
1.7939708e-12
1.4886825e-09
-1.706484e-12
1.4887002e-09
1.6257038e-12
1.4886834e-09
-1.5521065e-12
1.4886995e-09
1.4846564e-12
1.488684e-09
-1.4237031e-12
1.4886989e-09
1.368418e-12
1.4886846e-09
-1.3190629e-12
1.4886984e-09
1.2749664e-12
1.488685e-09
-1.2363282e-12
1.4886981e-09
1.2025791e-12
1.4886853e-09
-1.1738186e-12
1.4886978e-09
1.1498858e-12
1.4886854e-09
-1.1288917e-12
1.4886976e-09
1.110886e-12
1.4886864e-09
-1.1775608e-12
1.0160873e-12
1.5265972e-09
1.0156705e-08
1.5372686e-09
-2.8568064e-10
1.5392026e-09
2.9573072e-11
1.5387611e-09
2.6123253e-12
1.5389199e-09
-1.2066506e-11
1.5391718e-09
5.9859039e-12
1.5390368e-09
-9.6062845e-12
1.5391789e-09
8.2923563e-12
1.5390477e-09
-8.1017285e-12
1.5391728e-09
7.46687e-12
1.5390564e-09
-7.058275e-12
1.539166e-09
6.5945875e-12
1.5390634e-09
-6.199307e-12
1.5391598e-09
5.8090025e-12
1.5390695e-09
-5.4557235e-12
1.5391543e-09
5.1169393e-12
1.5390747e-09
-4.8060733e-12
1.5391495e-09
4.5102933e-12
1.5390793e-09
-4.2378226e-12
1.5391453e-09
3.9794687e-12
1.5390833e-09
-3.7410837e-12
1.5391416e-09
3.51562e-12
1.5390868e-09
-3.3074039e-12
1.5391384e-09
3.1109374e-12
1.5390899e-09
-2.9294377e-12
1.5391355e-09
2.7585925e-12
1.5390925e-09
-2.6007888e-12
1.5391331e-09
2.4526365e-12
1.5390948e-09
-2.3158968e-12
1.539131e-09
2.187901e-12
1.5390968e-09
-2.0699405e-12
1.5391292e-09
1.9599118e-12
1.5390985e-09
-1.8587561e-12
1.5391276e-09
1.7648126e-12
1.5390999e-09
-1.6787651e-12
1.5391263e-09
1.599299e-12
1.5391011e-09
-1.5269121e-12
1.5391252e-09
1.4605596e-12