/*--------------------------------*- C++ -*----------------------------------*\
| =========                 |                                                 |
| \\      /  F ield         | OpenFOAM: The Open Source CFD Toolbox           |
|  \\    /   O peration     | Version:  2312                                  |
|   \\  /    A nd           | Website:  www.openfoam.com                      |
|    \\/     M anipulation  |                                                 |
\*---------------------------------------------------------------------------*/
FoamFile
{
    version     2.0;
    format      ascii;
    arch        "LSB;label=32;scalar=64";
    class       volScalarField;
    location    "4";
    object      T;
}
// * * * * * * * * * * * * * * * * * * * * * * * * * * * * * * * * * * * * * //

dimensions      [0 0 0 1 0 0 0];

internalField   nonuniform List<scalar> 
4000
(
329.27845
328.41719
328.29771
328.22293
328.16712
328.11376
328.06864
328.02223
327.98128
327.93831
327.8995
327.85859
327.82104
327.78149
327.74475
327.70616
327.66998
327.63211
327.59633
327.55902
327.52353
327.48666
327.4514
327.41488
327.37981
327.34357
327.30866
327.27265
327.23788
327.20205
327.16741
327.13173
327.09723
327.06167
327.02733
326.99185
326.95769
326.92227
326.88831
326.85294
326.8192
326.78385
326.75033
326.71499
326.6817
326.64634
326.61331
326.57782
326.54523
326.50897
331.02164
329.2846
328.99582
328.8396
328.74015
328.64808
328.58069
328.50944
328.45455
328.39364
328.34516
328.29041
328.2457
328.19503
328.15276
328.10499
328.06439
328.01877
327.97937
327.93542
327.89692
327.85427
327.81647
327.77487
327.73763
327.69687
327.66011
327.62003
327.58368
327.54417
327.50822
327.46915
327.43361
327.39489
327.35982
327.32136
327.28683
327.24855
327.21463
327.17647
327.1432
327.10511
327.07252
327.03446
327.00256
326.96443
326.9333
326.89481
326.865
326.82424
332.28223
330.13996
329.69131
329.45482
329.312
329.18152
329.09188
328.99596
328.92711
328.84836
328.79018
328.72167
328.66978
328.60806
328.56023
328.50332
328.45827
328.40495
328.36191
328.31135
328.26981
328.22142
328.18106
328.1344
328.09498
328.04973
328.01109
327.96698
327.92904
327.88585
327.84857
327.80612
327.76954
327.72767
327.69187
327.65042
327.61552
327.57436
327.54048
327.49951
327.46672
327.42587
327.3942
327.35341
327.32287
327.28197
327.25273
327.21122
327.18416
327.13905
333.22774
330.97025
330.38023
330.06649
329.88111
329.71294
329.6012
329.48097
329.39817
329.30183
329.23392
329.15183
329.09272
329.02008
328.96665
328.90071
328.85118
328.79024
328.74352
328.68642
328.64182
328.58774
328.54479
328.49313
328.45149
328.40179
328.36127
328.31315
328.2736
328.22676
328.18815
328.14234
328.10471
328.05968
328.02315
327.9787
327.94343
327.89938
327.86553
327.82174
327.7894
327.74578
327.71501
327.67147
327.64227
327.59858
327.5712
327.52668
327.50231
327.45309
333.95745
331.76244
331.05726
330.67166
330.44537
330.24077
330.10731
329.9634
329.86676
329.75321
329.6756
329.58019
329.51384
329.43049
329.37142
329.29663
329.24258
329.17415
329.12372
329.06019
329.01249
328.95282
328.90723
328.85065
328.80678
328.75269
328.71025
328.65818
328.617
328.56656
328.5266
328.47745
328.43875
328.39059
328.35331
328.30588
328.27022
328.22328
328.18944
328.14281
328.11092
328.0645
328.0346
327.98829
327.9604
327.91392
327.88834
327.84081
327.81906
327.766
334.53316
332.50529
331.71614
331.2667
331.00218
330.76308
330.60861
330.44192
330.3317
330.20149
330.11426
330.00593
329.93237
329.83858
329.77388
329.69044
329.63185
329.55611
329.50195
329.43214
329.3813
329.31616
329.26792
329.20652
329.16038
329.102
329.05761
329.00166
328.95884
328.90485
328.86352
328.81108
328.77131
328.72004
328.68201
328.63159
328.59555
328.54569
328.51187
328.46237
328.43091
328.38168
328.35261
328.30354
328.27689
328.22763
328.20378
328.15328
328.134
328.07742
334.9951
333.19009
332.35026
331.84743
331.54857
331.27761
331.10322
330.915
330.79161
330.64551
330.54884
330.4281
330.3474
330.24357
330.17325
330.08146
330.01833
329.93552
329.8776
329.8017
329.74772
329.67726
329.62635
329.56026
329.51183
329.44926
329.40291
329.34318
329.29869
329.24123
329.19853
329.14284
329.10199
329.04764
329.00886
328.95547
328.91904
328.86627
328.83245
328.78008
328.74902
328.69697
328.66869
328.61684
328.59139
328.53935
328.51716
328.46371
328.44674
328.38698
335.37061
333.81106
332.95312
332.4094
332.08124
331.78183
331.58906
331.3809
331.245
331.08395
330.97815
330.84565
330.75796
330.64455
330.5687
330.46892
330.40129
330.31168
330.25003
330.16826
330.11113
330.03555
329.98196
329.91134
329.86062
329.79399
329.74568
329.68227
329.63611
329.57527
329.53118
329.47232
329.4304
329.37301
329.33349
329.27714
329.24033
329.18464
329.15082
329.09558
329.06489
329.01001
328.98248
328.92786
328.90353
328.84873
328.8281
328.77177
328.75692
328.69429
335.67894
334.36527
333.51892
332.94812
332.59678
332.27305
332.0639
331.83778
331.69022
331.51539
331.4009
331.25742
331.16299
331.04057
330.95932
330.85198
330.77993
330.68387
330.61852
330.53117
330.47092
330.39044
330.33419
330.25922
330.20621
330.13568
330.08541
330.01845
329.97063
329.90651
329.86105
329.7991
329.7561
329.69574
329.65548
329.59621
329.55902
329.50044
329.46661
329.4085
329.37816
329.32046
329.29362
329.23625
329.21297
329.15545
329.13625
329.07713
329.06418
328.99898
335.93418
334.85246
334.04288
333.45932
333.09176
332.74852
332.52544
332.28365
332.12558
331.93834
331.81576
331.66221
331.56137
331.43061
331.34417
331.22978
331.15342
331.05131
330.98236
330.88974
330.82641
330.7413
330.68241
330.60331
330.54804
330.47379
330.42158
330.35123
330.30176
330.23448
330.18766
330.12272
330.07868
330.01541
329.97443
329.91228
329.87473
329.81328
329.77944
329.71847
329.68846
329.62796
329.60176
329.54167
329.51934
329.45915
329.44127
329.37945
329.36815
329.30067
336.14692
335.2746
334.52153
333.93924
333.56294
333.2055
332.97136
332.71654
332.54931
332.35124
332.22131
332.05876
331.95196
331.81361
331.72225
331.60138
331.52092
331.4132
331.34076
331.24323
331.17693
331.08747
331.02601
330.94303
330.88554
330.80778
330.75366
330.68008
330.629
330.5587
330.51056
330.44274
330.39767
330.33158
330.28991
330.22494
330.18705
330.12277
330.08893
330.02514
329.99543
329.93217
329.90654
329.84378
329.8223
329.75951
329.74281
329.67841
329.66852
329.59901
336.32534
335.6355
334.9529
334.38476
334.00741
333.64141
333.3994
333.13445
332.95967
332.75252
332.61615
332.44577
332.33356
332.18848
332.09257
331.96586
331.88153
331.7687
331.69295
331.59091
331.52175
331.42828
331.36434
331.27775
331.21811
331.13707
331.0811
331.00449
330.95184
330.87868
330.82926
330.75868
330.71265
330.64382
330.60151
330.53378
330.49558
330.42852
330.39469
330.32813
330.29869
330.23272
330.2076
330.14224
330.12151
330.0562
330.04053
329.97369
329.96497
329.89364
336.47588
335.94026
335.33646
334.79365
334.42268
334.05391
333.80748
333.53551
333.35496
333.14065
332.99888
332.82197
332.70502
332.55413
332.4541
332.32226
332.23436
332.11698
332.03813
331.93203
331.86017
331.76305
331.69676
331.60685
331.54516
331.46108
331.40334
331.32391
331.26976
331.19392
331.14328
331.07008
331.02313
330.95169
330.90878
330.83838
330.79992
330.73014
330.69634
330.62707
330.59788
330.52927
330.50459
330.43671
330.41663
330.34891
330.33412
330.26498
330.25719
330.18422
336.60367
336.19479
335.67311
335.16461
334.80689
334.44102
334.19371
333.91797
333.73361
333.51417
333.36817
333.18611
333.06516
332.90948
332.80585
332.66964
332.57853
332.4572
332.37552
332.26584
332.19147
332.0911
332.0226
331.92971
331.86608
331.77925
331.71983
331.63781
331.58224
331.50391
331.45213
331.37647
331.32868
331.25473
331.2113
331.13833
331.09965
331.02725
330.99348
330.92159
330.89264
330.82147
330.79718
330.72687
330.70734
330.63732
330.62325
330.55196
330.5449
330.47044
336.71287
336.40543
335.9649
335.49729
335.15878
334.80119
334.55654
334.28028
334.09416
333.8717
333.72274
333.53701
333.4129
333.2535
333.14684
333.00708
332.91319
332.78854
332.70433
332.59159
332.51496
332.41175
332.34123
332.24571
332.18029
332.09099
332.03002
331.94565
331.88877
331.80815
331.75533
331.67737
331.62883
331.55252
331.50864
331.43322
331.39437
331.31944
331.28575
331.21133
331.18259
331.10899
331.08501
331.0124
330.9933
330.92111
330.90763
330.83435
330.82781
330.75198
336.80681
336.5785
336.21485
335.79229
335.47783
335.13332
334.89472
334.62116
334.43536
334.21203
334.06146
333.87356
333.74721
333.5852
333.47616
333.3337
333.23749
333.11021
333.02383
332.90856
332.82994
332.72434
332.65201
332.55423
332.4872
332.39575
332.33336
332.24691
332.18884
332.10616
332.0524
331.97233
331.92313
331.84462
331.80037
331.72262
331.68367
331.60634
331.57274
331.49592
331.46739
331.39148
331.36775
331.29297
331.27422
331.2
331.18696
331.11184
331.10566
331.02855
336.88821
336.72007
336.42667
336.05101
335.76415
335.43687
335.20742
334.93959
334.7562
334.53411
334.38333
334.19479
334.06716
333.90368
333.79295
333.64868
333.55067
333.42145
333.33329
333.21607
333.13575
333.02823
332.95434
332.85469
332.78624
332.69296
332.62933
332.54107
332.48196
332.39744
332.34287
332.26089
332.21115
332.13059
332.08608
332.00614
331.96717
331.88757
331.85411
331.77503
331.74669
331.66861
331.64509
331.56828
331.54977
331.47367
331.46095
331.38415
331.3782
331.29988
336.95928
336.83572
336.60448
336.27554
336.01854
335.71181
335.49421
335.2349
335.0559
334.83711
334.6875
334.49983
334.37192
334.20812
334.09644
333.95125
333.852
333.72156
333.63204
333.51345
333.43178
333.32283
333.24764
333.14653
333.07687
332.98212
332.91742
332.82765
332.76764
332.68154
332.62629
332.54261
332.49245
332.41003
332.36536
332.2834
332.24448
332.16276
332.12948
332.04829
332.02015
331.94006
331.91669
331.83802
331.81967
331.74185
331.72934
331.651
331.64516
331.56571
337.02178
336.93037
336.75255
336.46851
336.24234
335.9586
335.75509
335.50675
335.33397
335.1204
334.97332
334.788
334.66081
334.49785
334.38597
334.24076
334.14084
334.0099
333.91949
333.80012
333.71746
333.60756
333.53137
333.42921
333.3586
333.26271
333.19715
333.10616
333.04544
332.958
332.90224
332.81707
332.76664
332.68255
332.63783
332.55402
332.51524
332.43157
332.39851
332.31539
332.28744
332.20552
332.18226
332.1019
332.08364
332.00426
331.99187
331.91214
331.90633
331.82579
337.07713
337.00828
336.8751
336.63287
336.43738
336.17817
335.99045
335.75514
335.59021
335.38361
335.24036
335.05878
334.9333
334.77227
334.66096
334.51663
334.41663
334.28592
334.19509
334.07554
333.99227
333.88193
333.80504
333.70226
333.63094
333.53428
333.46808
333.37618
333.31494
333.22643
333.17032
333.08388
333.03331
332.94775
332.90311
332.81764
332.77908
332.69364
332.66086
332.57599
332.54824
332.46469
332.44151
332.35964
332.34141
332.26064
332.24829
332.16731
332.16147
332.0799
337.12648
337.073
336.97614
336.7718
336.60582
336.37183
336.20105
335.9804
335.8247
335.62662
335.48837
335.31183
335.18901
335.03098
334.92098
334.77839
334.67892
334.54915
334.45837
334.33924
334.25574
334.14546
334.0682
333.96522
333.89348
333.79641
333.7298
333.6373
333.57573
333.48642
333.43013
333.34267
333.29212
333.20529
333.16086
333.07392
333.03569
332.94868
332.91622
332.82981
332.80227
332.71728
332.69416
332.61097
332.59272
332.51072
332.49836
332.41626
332.41036
332.32781
337.17072
337.12742
337.05931
336.88848
336.75009
336.54123
336.38798
336.18316
336.03779
335.84953
335.71733
335.547
335.42773
335.27367
335.16571
335.02568
334.92733
334.79919
334.70895
334.59082
334.50751
334.39778
334.32048
334.21773
334.14583
334.04872
333.98193
333.88916
333.82747
333.73764
333.68135
333.5931
333.54273
333.45486
333.41076
333.32256
333.28475
333.19637
333.1643
333.07656
333.04925
332.96303
332.93995
332.85564
332.83734
332.75429
332.74188
332.65879
332.65281
332.56934
337.21058
337.17381
337.12786
336.986
336.87272
336.68825
336.5526
336.36431
336.23008
336.05268
335.92743
335.76431
335.64939
335.5002
335.39498
335.25828
335.16162
335.03577
334.94655
334.82998
334.74725
334.63855
334.56156
334.45944
334.38768
334.29089
334.22417
334.13144
334.06983
333.97975
333.92365
333.83486
333.78483
333.69614
333.65252
333.56327
333.52597
333.43645
333.40482
333.31597
333.28891
333.20169
333.17865
333.09341
333.07505
332.9911
332.97862
332.89467
332.88862
332.8043
337.24662
337.21393
337.18459
337.06726
336.97628
336.81489
336.69645
336.52499
336.40239
336.23663
336.11905
335.96399
335.85413
335.71061
335.60874
335.47607
335.38166
335.2587
335.17097
335.05648
334.97473
334.86753
334.79117
334.6901
334.61876
334.52264
334.45624
334.36385
334.30256
334.2125
334.15678
334.0677
334.01816
333.92888
333.88586
333.79579
333.75911
333.66866
333.63754
333.5478
333.52103
333.43302
333.41003
333.32406
333.30563
333.22096
333.20842
333.12373
333.11761
333.03252
337.2793
337.24912
337.23183
337.1349
337.06325
336.92327
336.82126
336.66651
336.55576
336.40212
336.29274
336.14641
336.04221
335.90502
335.80709
335.67907
335.5874
335.4679
335.3821
335.2702
335.1898
335.08453
335.00914
334.9095
334.83887
334.74377
334.67793
334.58619
334.52542
334.43566
334.3805
334.29138
334.2425
334.15286
334.11058
334.01991
333.98394
333.89279
333.86224
333.77184
333.74541
333.65682
333.63391
333.5474
333.52891
333.44369
333.43108
333.34579
333.33963
333.25386
337.30897
337.28033
337.27151
337.19125
337.13598
337.01545
336.92879
336.7903
336.69133
336.55005
336.44922
336.31211
336.21405
336.08375
335.99023
335.86741
335.77894
335.6634
335.57993
335.47107
335.39238
335.28946
335.21536
335.1175
335.04786
334.9541
334.88907
334.79827
334.73824
334.64905
334.59464
334.50571
334.45764
334.36789
334.32646
334.23543
334.20028
334.10866
334.07874
333.98791
333.96184
333.87291
333.8501
333.76325
333.74473
333.65911
333.64648
333.56071
333.55453
333.46818
337.33591
337.30828
337.30516
337.23831
337.19662
337.09346
337.02085
336.89788
336.81039
336.68146
336.58935
336.46176
336.37018
336.2472
336.1585
336.04133
335.95645
335.84531
335.76455
335.65913
335.5825
335.48229
335.40977
335.31405
335.24566
335.15355
335.08956
334.99999
334.9409
334.85253
334.79904
334.71055
334.66345
334.57381
334.53337
334.4422
334.40795
334.31609
334.28687
334.19585
334.17019
334.08113
334.05846
333.97147
333.95295
333.86709
333.85446
333.76834
333.76218
333.67536
337.36035
337.33345
337.33396
337.2778
337.24711
337.15921
337.09921
336.9908
336.91428
336.79748
336.71408
336.59614
336.51128
336.3959
336.31233
336.20117
336.12023
336.01385
335.93612
335.83451
335.76023
335.66308
335.59241
335.49914
335.43225
335.34207
335.27935
335.19127
335.13332
335.04601
334.99363
334.90582
334.85982
334.77052
334.73117
334.64011
334.60684
334.51498
334.48652
334.39552
334.37033
334.28134
334.25886
334.17191
334.15344
334.06751
334.05492
333.96859
333.96248
333.87531
337.38248
337.35619
337.35884
337.3111
337.28914
337.21444
337.16555
337.07059
337.00438
336.89929
336.82444
336.71614
336.63809
336.5305
336.45228
336.34738
336.27064
336.16932
336.0949
335.99739
335.92575
335.83193
335.76338
335.67283
335.60767
335.5197
335.45845
335.3721
335.31547
335.22948
335.17835
335.09144
335.04668
334.95794
334.91981
334.82906
334.79686
334.70522
334.67759
334.58683
334.56217
334.47346
334.45122
334.36449
334.34613
334.26026
334.24777
334.16136
334.15533
334.06795
337.40243
337.37673
337.38049
337.33936
337.32416
337.26073
337.22147
337.13874
337.08207
336.98811
336.92152
336.82269
336.75143
336.65168
336.57895
336.48048
336.40814
336.31211
336.24122
336.14807
336.07928
335.98906
335.92284
335.83526
335.77204
335.6865
335.62691
335.54253
335.48739
335.40292
335.3532
335.26741
335.22402
335.13606
335.09922
335.00902
334.97797
334.88676
334.86002
334.76972
334.74563
334.6574
334.63547
334.54913
334.53092
334.44529
334.43294
334.34658
334.34067
334.25322
337.42032
337.39523
337.39942
337.36348
337.35341
337.29949
337.26842
337.19668
337.14868
337.06517
337.00644
336.91678
336.8522
336.76023
336.69303
336.60107
336.53326
336.44266
336.37549
336.28686
336.22112
336.1347
336.071
335.9866
335.92551
335.84261
335.78485
335.70264
335.64915
335.56641
335.51822
335.43376
335.39184
335.30487
335.26942
335.17998
335.15014
335.05958
335.03379
334.94414
334.9207
334.83312
334.81156
334.72578
334.70779
334.62254
334.61038
334.52422
334.51846
334.43108
337.43624
337.41182
337.41601
337.38417
337.37788
337.33192
337.30771
337.24573
337.20549
337.13167
337.0803
336.99941
336.94131
336.85695
336.79524
336.70979
336.64658
336.56149
336.49815
336.41419
336.35164
336.26917
336.20816
336.12711
336.06829
335.98821
335.93244
335.85258
335.80087
335.72005
335.67351
335.59057
335.55021
335.46444
335.43045
335.34196
335.3134
335.22369
335.1989
335.1101
335.08735
335.00061
334.97948
334.89442
334.87672
334.79198
334.78007
334.69426
334.68867
334.60151
337.45027
337.42657
337.43052
337.40198
337.39842
337.35907
337.34051
337.28708
337.2537
337.18875
337.14419
337.07159
337.01967
336.94269
336.88637
336.80733
336.74872
336.66915
336.60971
336.53049
336.47124
336.39283
336.33463
336.25706
336.20065
336.12355
336.06988
335.99253
335.94272
335.86398
335.81919
335.73795
335.69923
335.61484
335.58238
335.49504
335.46781
335.37913
335.3554
335.26762
335.24563
335.15988
335.13925
335.05505
335.0377
334.95364
334.94202
334.85668
334.8513
334.76451
337.46245
337.43956
337.44318
337.41734
337.41571
337.38181
337.36784
337.32184
337.29443
337.23751
337.19917
337.1343
337.08822
337.0183
336.96719
336.8944
336.84034
336.76624
336.71072
336.63626
336.58037
336.50609
336.45078
336.37679
336.32289
336.24888
336.19742
336.12272
336.07489
335.99839
335.95543
335.87605
335.83904
335.7562
335.72531
335.63931
335.61344
335.52599
335.50335
335.41676
335.39558
335.31098
335.29091
335.20772
335.19078
335.10752
335.09623
335.01153
335.00637
334.92009
337.47285
337.45087
337.45415
337.43059
337.43027
337.40087
337.39057
337.35096
337.32869
337.27896
337.24622
337.1885
337.14786
337.08462
337.0385
336.97175
336.92212
336.85338
336.80175
336.73202
336.67952
336.60939
336.55703
336.48668
336.43536
336.36452
336.31535
336.2434
336.19763
336.1235
336.08243
336.00506
335.9698
335.88868
335.85939
335.7749
335.75043
335.66437
335.64287
335.55762
335.5373
335.45398
335.43454
335.35248
335.33601
335.25368
335.24278
335.15884
335.15392
335.06831
337.48151
337.46058
337.46356
337.44198
337.44253
337.41685
337.40944
337.37529
337.35739
337.31403
337.28627
337.2351
337.19947
337.14248
337.10108
337.04009
336.99475
336.93122
336.8834
336.81832
336.7692
336.7032
336.65381
336.58713
336.53843
336.47083
336.42398
336.35488
336.31122
336.23957
336.20042
336.12519
336.09172
336.01246
335.9848
335.90197
335.87892
335.7944
335.77407
335.69029
335.67089
335.58897
335.57021
335.48941
335.47347
335.3922
335.38171
335.29867
335.29401
335.20921
337.48852
337.46876
337.47152
337.45173
337.45285
337.43026
337.42508
337.39557
337.38132
337.34356
337.32019
337.27494
337.24387
337.19268
337.15569
337.10015
337.0589
337.00037
336.95627
336.89573
336.84992
336.78801
336.74158
336.67855
336.63249
336.56816
336.52368
336.45747
336.41595
336.34686
336.30967
336.2367
336.20502
336.12776
336.10173
336.02071
335.99909
335.91624
335.89711
335.81494
335.79649
335.71608
335.69806
335.61863
335.60326
335.52318
335.51313
335.43113
335.42673
335.34288
337.49397
337.47551
337.47817
337.46
337.4615
337.44148
337.43802
337.41242
337.40118
337.36831
337.34874
337.3088
337.28183
337.23598
337.20306
337.15264
337.11525
337.0615
337.02096
336.9648
336.92224
336.86432
336.82081
336.7614
336.71798
336.6569
336.61479
336.55153
336.51216
336.4457
336.41047
336.33985
336.30996
336.23483
336.21042
336.13133
336.11114
336.0301
336.01217
335.93171
335.91425
335.83546
335.81823
335.74026
335.72551
335.64673
335.63714
335.55631
335.55217
335.46941
337.49799
337.48097
337.48361
337.46697
337.46871
337.45085
337.44868
337.42637
337.41759
337.38893
337.37263
337.3374
337.31409
337.27309
337.2439
337.19823
337.16445
337.11521
337.07806
337.02611
336.98668
336.93264
336.89199
336.83614
336.79531
336.73748
336.69773
336.63742
336.60018
336.53641
336.50312
336.43494
336.40682
336.33391
336.31111
336.23406
336.2153
336.13616
336.11946
336.04081
336.02436
335.94728
335.93087
335.85446
335.84036
335.76299
335.75388
335.67433
335.67046
335.58892
337.50074
337.48524
337.48796
337.47275
337.47465
337.45864
337.45743
337.43787
337.43106
337.40601
337.39246
337.36139
337.34128
337.30467
337.27885
337.23755
337.20712
337.1621
337.12816
337.08021
337.04378
336.99348
336.95561
336.90322
336.86493
336.8103
336.77287
336.71551
336.68038
336.61932
336.58796
336.52227
336.4959
336.42529
336.40406
336.32917
336.3118
336.23467
336.21919
336.14243
336.12703
336.05171
336.03617
335.9614
335.94798
335.87212
335.8635
335.78535
335.78175
335.70155
337.50242
337.48848
337.49133
337.47747
337.47949
337.46506
337.46455
337.44728
337.44203
337.42004
337.40879
337.38134
337.36402
337.33132
337.30852
337.27121
337.24385
337.20276
337.17182
337.12764
337.09407
337.04734
337.01214
336.96311
336.92729
336.8758
336.84063
336.78619
336.75314
336.6948
336.66531
336.60218
336.5775
336.50927
336.48957
336.41691
336.4009
336.32588
336.3116
336.23681
336.22246
336.14898
336.13432
336.06127
336.04856
335.97429
335.96617
335.88953
335.88618
335.80743
337.50322
337.49082
337.49385
337.48126
337.48336
337.4703
337.47028
337.45492
337.45086
337.43144
337.42208
337.39775
337.38282
337.35358
337.33346
337.29977
337.2752
337.23773
337.20958
337.16893
337.13805
337.09471
337.06207
337.01626
336.98283
336.93439
336.90142
336.84986
336.81882
336.76321
336.73554
336.67498
336.65194
336.58616
336.56793
336.49757
336.48289
336.41004
336.39695
336.32419
336.31089
336.2393
336.22555
336.15427
336.14228
336.06969
336.06207
335.98703
335.98393
335.90673
337.50336
337.49241
337.49562
337.48421
337.48638
337.4745
337.4748
337.46101
337.45785
337.44057
337.43273
337.41107
337.39815
337.37195
337.35418
337.32373
337.30168
337.26752
337.24193
337.20457
337.17621
337.13608
337.10585
337.06313
337.03198
336.98649
336.95565
336.90692
336.87781
336.82491
336.79899
336.74103
336.71956
336.65627
336.63944
336.57145
336.55805
336.48742
336.4755
336.40481
336.39257
336.32291
336.31008
336.24062
336.22936
336.15852
336.15139
336.07804
336.07519
335.99964
337.503
337.49338
337.49676
337.48643
337.48865
337.47779
337.47828
337.46577
337.46324
337.44772
337.44106
337.42166
337.41042
337.38686
337.37112
337.34356
337.32375
337.29261
337.26935
337.23503
337.20901
337.17189
337.14394
337.10415
337.07517
337.03253
337.00371
336.95774
336.9305
336.88027
336.85603
336.80067
336.7807
336.71992
336.70443
336.63885
336.62666
336.55831
336.54753
336.47895
336.46775
336.40006
336.38814
336.32055
336.31002
336.241
336.23435
336.16277
336.16015
336.08632
337.50231
337.49385
337.49737
337.48801
337.49025
337.48026
337.48083
337.46934
337.46723
337.45313
337.44737
337.42984
337.41997
337.39869
337.38468
337.35968
337.34185
337.31343
337.29228
337.26076
337.2369
337.20258
337.17676
337.13975
337.11282
337.07291
337.04602
337.00272
336.97725
336.92965
336.90701
336.85424
336.83568
336.77744
336.76321
336.70008
336.68904
336.62301
336.61331
336.54687
336.5367
336.47099
336.46
336.39431
336.38451
336.31735
336.31118
336.24143
336.23902
336.167
337.5014
337.49392
337.49753
337.48903
337.49126
337.48198
337.48253
337.47185
337.46996
337.45698
337.45188
337.43589
337.42711
337.40776
337.39521
337.37245
337.35635
337.33037
337.31112
337.28216
337.26027
337.22856
337.20473
337.17033
337.14533
337.10802
337.08296
337.04224
337.01845
336.97342
336.95229
336.90209
336.88486
336.82916
336.81609
336.75544
336.74548
336.68179
336.67313
336.60886
336.59969
336.53599
336.52589
336.46213
336.45305
336.38781
336.38208
336.31423
336.31201
336.24186
337.50036
337.49368
337.49732
337.48956
337.49172
337.48303
337.48346
337.47338
337.47155
337.45944
337.45476
337.44001
337.43208
337.41435
337.40303
337.3822
337.36762
337.34381
337.32625
337.29961
337.27953
337.25022
337.22822
337.19627
337.17307
337.13823
337.11489
337.07666
337.05445
337.01193
336.99221
336.94455
336.92855
336.87539
336.86341
336.80525
336.79629
336.73497
336.72729
336.6652
336.65699
336.5953
336.5861
336.52428
336.51591
336.4526
336.44732
336.3814
336.37937
336.31114
337.49922
337.49319
337.4968
337.48966
337.4917
337.48344
337.48366
337.47399
337.47208
337.46059
337.45615
337.44238
337.43509
337.41871
337.40838
337.38923
337.37594
337.35405
337.33801
337.31346
337.29501
337.26792
337.2476
337.21793
337.19642
337.16391
337.14218
337.10633
337.0856
337.04552
337.02712
336.98196
336.96711
336.91647
336.90548
336.84981
336.84177
336.78283
336.77606
336.71617
336.70887
336.64921
336.64087
336.58102
336.57333
336.51199
336.50712
336.44318
336.44131
336.37506
337.498
337.49249
337.49602
337.48936
337.49121
337.48324
337.48314
337.47371
337.4716
337.46053
337.45617
337.44315
337.4363
337.42102
337.41151
337.39379
337.3816
337.3614
337.34668
337.32402
337.30705
337.28198
337.26321
337.23567
337.21571
337.1854
337.16517
337.13159
337.11225
337.07453
337.05736
337.01464
337.00083
336.9527
336.94261
336.88944
336.88223
336.82568
336.81975
336.76206
336.75563
336.69799
336.69048
336.63259
336.62557
336.56622
336.56173
336.49981
336.49808
336.43385
337.49672
337.49163
337.49502
337.48869
337.49026
337.48242
337.48192
337.47256
337.47013
337.4593
337.45489
337.44241
337.43585
337.42147
337.41259
337.39608
337.38483
337.36612
337.35256
337.33159
337.31594
337.29272
337.27537
337.24979
337.23126
337.20302
337.18419
337.15278
337.13472
337.09928
337.08324
337.04291
337.03006
336.9844
336.97512
336.92442
336.91796
336.86379
336.85864
336.80314
336.79753
336.74192
336.7352
336.67927
336.67289
336.61554
336.61141
336.55153
336.54992
336.48774
337.49537
337.4906
337.4938
337.48766
337.48886
337.48097
337.47996
337.47053
337.46767
337.45694
337.45236
337.44026
337.43386
337.42018
337.41179
337.39631
337.38583
337.36842
337.35588
337.33642
337.32196
337.30042
337.28435
337.26059
337.24339
337.21709
337.19954
337.17019
337.15332
337.12007
337.10507
337.06707
337.05508
337.01185
337.00329
336.95505
336.94926
336.89747
336.89301
336.83971
336.83484
336.78125
336.77529
336.72133
336.71554
336.66019
336.65641
336.59857
336.59708
336.53697
337.49392
337.48944
337.49237
337.48627
337.48696
337.47887
337.47725
337.46759
337.46423
337.45344
337.4486
337.43674
337.43039
337.41726
337.40924
337.39462
337.3848
337.36851
337.35686
337.33875
337.32535
337.30534
337.29044
337.26835
337.25237
337.22787
337.21153
337.18411
337.16835
337.13719
337.12315
337.08741
337.0762
337.03536
337.02742
336.98162
336.97641
336.92699
336.92315
336.87203
336.86785
336.81627
336.81101
336.75901
336.7538
336.70045
336.69698
336.6412
336.6398
336.58178
337.49238
337.48812
337.49072
337.48448
337.48454
337.47606
337.47372
337.46371
337.45976
337.44882
337.44364
337.4319
337.42552
337.41282
337.40506
337.39116
337.38189
337.36658
337.35569
337.33879
337.32634
337.30771
337.29388
337.27333
337.25846
337.23565
337.22041
337.19483
337.18009
337.15093
337.13776
337.10421
337.0937
337.05519
337.0478
337.00441
336.99969
336.95262
336.94931
336.90037
336.89682
336.84724
336.84264
336.79258
336.78791
336.73655
336.73337
336.67965
336.67833
336.62242
337.49072
337.48665
337.48882
337.48225
337.48152
337.47247
337.46932
337.45883
337.45424
337.44304
337.43748
337.42576
337.41929
337.40691
337.39935
337.38605
337.37723
337.36277
337.35256
337.33674
337.32513
337.30776
337.29489
337.27576
337.26191
337.24068
337.22645
337.2026
337.1888
337.16155
337.14918
337.11773
337.10785
337.07161
337.0647
337.02367
337.01937
336.97462
336.97178
336.925
336.922
336.87442
336.87041
336.82229
336.81812
336.76874
336.76582
336.71417
336.71291
336.65913
337.48892
337.485
337.48662
337.4795
337.47782
337.46804
337.46397
337.45289
337.44762
337.43609
337.43012
337.41836
337.41175
337.39961
337.39218
337.37939
337.37094
337.35724
337.34762
337.33276
337.3219
337.30568
337.29369
337.27586
337.26295
337.24318
337.22989
337.20767
337.19472
337.1693
337.15766
337.12824
337.11892
337.08488
337.07838
337.03966
337.03571
336.99326
336.9908
336.94618
336.94365
336.89806
336.8946
336.8484
336.84469
336.79727
336.7946
336.745
336.7438
336.69214
337.48697
337.48315
337.48405
337.47614
337.47333
337.46265
337.45758
337.44584
337.43984
337.42794
337.42154
337.40969
337.40292
337.39096
337.38362
337.37127
337.36315
337.35011
337.34101
337.32701
337.31684
337.30166
337.29046
337.27383
337.26179
337.24337
337.23095
337.21025
337.19811
337.17441
337.16344
337.13597
337.12714
337.09525
337.08908
337.05264
337.04895
337.00878
337.00662
336.96414
336.96202
336.9184
336.91544
336.87114
336.86786
336.82239
336.81993
336.77238
336.77122
336.7217
337.48485
337.48105
337.48102
337.47206
337.46795
337.4562
337.45006
337.43759
337.43087
337.41857
337.41174
337.39978
337.39284
337.38102
337.37375
337.36178
337.35394
337.34148
337.33285
337.31963
337.31008
337.29585
337.28538
337.26986
337.25861
337.24146
337.22983
337.21058
337.19917
337.17711
337.16676
337.14114
337.13276
337.10294
337.09706
337.06283
337.05935
337.02142
337.0195
336.97913
336.97735
336.9357
336.93317
336.89077
336.88787
336.84433
336.84207
336.79655
336.79543
336.74804
337.48254
337.47865
337.47741
337.46712
337.46152
337.44858
337.44133
337.42809
337.42065
337.40795
337.40071
337.38863
337.38153
337.36983
337.36263
337.35099
337.3434
337.33148
337.32327
337.31076
337.30177
337.28841
337.27861
337.26411
337.2536
337.23763
337.22675
337.20884
337.19812
337.17761
337.16782
337.14398
337.136
337.10817
337.10253
337.07046
337.06714
337.0314
337.02965
336.99137
336.98987
336.95017
336.94802
336.9075
336.90495
336.86332
336.86124
336.81774
336.81666
336.77139
337.47999
337.47585
337.47307
337.46117
337.4539
337.43967
337.43128
337.41727
337.40914
337.39606
337.38844
337.37626
337.36902
337.35744
337.3503
337.33897
337.33162
337.32019
337.31237
337.30051
337.29205
337.27949
337.27031
337.25676
337.24693
337.23206
337.22187
337.20522
337.19514
337.17609
337.16683
337.14469
337.13706
337.11116
337.10571
337.07574
337.07252
337.03894
337.0373
337.0011
336.99981
336.96205