/*--------------------------------*- C++ -*----------------------------------*\
| =========                 |                                                 |
| \\      /  F ield         | OpenFOAM: The Open Source CFD Toolbox           |
|  \\    /   O peration     | Version:  2312                                  |
|   \\  /    A nd           | Website:  www.openfoam.com                      |
|    \\/     M anipulation  |                                                 |
\*---------------------------------------------------------------------------*/
FoamFile
{
    version     2.0;
    format      ascii;
    arch        "LSB;label=32;scalar=64";
    class       volVectorField;
    location    "4";
    object      U_0;
}
// * * * * * * * * * * * * * * * * * * * * * * * * * * * * * * * * * * * * * //

dimensions      [0 1 -1 0 0 0 0];

internalField   nonuniform List<vector> 
4000
(
(0.0013471197 0.00023022047 0)
(0.0014475349 -1.2452625e-06 0)
(0.0013497921 -1.5218412e-07 0)
(0.001395642 1.4804844e-07 0)
(0.0013599986 -1.3727279e-07 0)
(0.0013934527 1.3032553e-07 0)
(0.001363003 -1.2099667e-07 0)
(0.0013916302 1.1372341e-07 0)
(0.0013649198 -1.0650474e-07 0)
(0.0013899659 9.9930073e-08 0)
(0.0013665226 -9.3704709e-08 0)
(0.0013884828 8.790181e-08 0)
(0.0013679213 -8.2456825e-08 0)
(0.0013871743 7.7363489e-08 0)
(0.0013691503 -7.2593029e-08 0)
(0.0013860218 6.8129746e-08 0)
(0.0013702322 -6.3951666e-08 0)
(0.0013850065 6.0044342e-08 0)
(0.0013711854 -5.6388156e-08 0)
(0.0013841114 5.2971036e-08 0)
(0.0013720261 -4.9775127e-08 0)
(0.0013833214 4.6790501e-08 0)
(0.0013727684 -4.400093e-08 0)
(0.0013826233 4.1398343e-08 0)
(0.0013734248 -3.8967992e-08 0)
(0.0013820054 3.6703426e-08 0)
(0.0013740065 -3.4591251e-08 0)
(0.0013814572 3.2626388e-08 0)
(0.0013745232 -3.079674e-08 0)
(0.0013809694 2.9098318e-08 0)
(0.0013749837 -2.7520333e-08 0)
(0.001380534 2.6059598e-08 0)
(0.0013753956 -2.4706664e-08 0)
(0.0013801434 2.3458893e-08 0)
(0.001375766 -2.2308189e-08 0)
(0.0013797913 2.1252285e-08 0)
(0.0013761011 -2.0284399e-08 0)
(0.0013794716 1.9402537e-08 0)
(0.0013764065 -1.8601147e-08 0)
(0.001379179 1.7878491e-08 0)
(0.0013766874 -1.7230121e-08 0)
(0.0013789085 1.6654605e-08 0)
(0.0013769484 -1.6148469e-08 0)
(0.0013786556 1.5710695e-08 0)
(0.0013771941 -1.5338752e-08 0)
(0.001378416 1.5032027e-08 0)
(0.0013774284 -1.4790439e-08 0)
(0.001378186 1.4611951e-08 0)
(0.001377662 -1.4470845e-08 0)
(0.0013780095 1.49692e-08 0)
(0.0037609976 0.00063527776 0)
(0.004162325 4.0648952e-07 0)
(0.0039240699 4.3632579e-08 0)
(0.0040511815 4.1059063e-07 0)
(0.0039477755 -4.7785521e-07 0)
(0.0040452532 4.3481335e-07 0)
(0.0039564333 -4.2091441e-07 0)
(0.004039974 3.9184847e-07 0)
(0.0039620048 -3.6919022e-07 0)
(0.0040351187 3.4565735e-07 0)
(0.003966682 -3.2445035e-07 0)
(0.0040307894 3.0422422e-07 0)
(0.0039707667 -2.8543854e-07 0)
(0.0040269695 2.6778081e-07 0)
(0.0039743565 -2.5128458e-07 0)
(0.0040236048 2.3582772e-07 0)
(0.0039775168 -2.2137403e-07 0)
(0.0040206403 2.0784578e-07 0)
(0.0039803015 -1.9519679e-07 0)
(0.0040180266 1.8336669e-07 0)
(0.0039827576 -1.7231019e-07 0)
(0.0040157197 1.6197787e-07 0)
(0.0039849266 -1.5232741e-07 0)
(0.0040136808 1.4331804e-07 0)
(0.0039868451 -1.3491066e-07 0)
(0.0040118756 1.2707181e-07 0)
(0.0039885455 -1.1976554e-07 0)
(0.0040102737 1.1296455e-07 0)
(0.0039900563 -1.0663606e-07 0)
(0.0040088481 1.0075781e-07 0)
(0.0039914031 -9.5300307e-08 0)
(0.0040075747 9.0245287e-08 0)
(0.0039926085 -8.5566675e-08 0)
(0.0040064322 8.1249321e-08 0)
(0.003993693 -7.7270622e-08 0)
(0.0040054013 7.3617886e-08 0)
(0.0039946747 -7.0271903e-08 0)
(0.0040044647 6.7222008e-08 0)
(0.0039955702 -6.4452219e-08 0)
(0.0040036067 6.1953623e-08 0)
(0.0039963945 -5.9713252e-08 0)
(0.0040028127 5.7723807e-08 0)
(0.0039971615 -5.5975103e-08 0)
(0.0040020694 5.4461479e-08 0)
(0.0039978842 -5.3174934e-08 0)
(0.0040013641 5.2113605e-08 0)
(0.0039985747 -5.1271901e-08 0)
(0.004000685 5.0569614e-08 0)
(0.0039992571 -5.0863782e-08 0)
(0.0040001362 4.8713596e-08 0)
(0.0061095198 0.0010195364 0)
(0.0067964875 -5.3212749e-07 0)
(0.0064330699 3.7540631e-07 0)
(0.0066395989 6.9410789e-07 0)
(0.0064683762 -8.6627517e-07 0)
(0.0066299142 7.7419728e-07 0)
(0.0064825936 -7.6169167e-07 0)
(0.0066211555 7.0644398e-07 0)
(0.0064918024 -6.6707596e-07 0)
(0.0066130983 6.2403071e-07 0)
(0.0064995575 -5.8597873e-07 0)
(0.0066059154 5.4934142e-07 0)
(0.0065063346 -5.154734e-07 0)
(0.0065995776 4.835531e-07 0)
(0.0065122917 -4.5378548e-07 0)
(0.0065939948 4.2585631e-07 0)
(0.0065175362 -3.9976889e-07 0)
(0.006589076 3.753279e-07 0)
(0.0065221575 -3.5249599e-07 0)
(0.0065847391 3.3112445e-07 0)
(0.0065262338 -3.1116601e-07 0)
(0.0065809111 2.9250115e-07 0)
(0.0065298338 -2.7508006e-07 0)
(0.0065775275 2.5880561e-07 0)
(0.0065330183 -2.4362799e-07 0)
(0.0065745315 2.2946833e-07 0)
(0.0065358409 -2.1627808e-07 0)
(0.0065718725 2.039934e-07 0)
(0.0065383493 -1.9256801e-07 0)
(0.0065695058 1.8195023e-07 0)
(0.0065405857 -1.7209699e-07 0)
(0.0065673914 1.6296627e-07 0)
(0.0065425879 -1.5451896e-07 0)
(0.0065654939 1.4672066e-07 0)
(0.0065443895 -1.3953672e-07 0)
(0.0065637813 1.3293877e-07 0)
(0.0065460209 -1.2689687e-07 0)
(0.0065622247 1.2138755e-07 0)
(0.0065475096 -1.1638557e-07 0)
(0.006560798 1.1187155e-07 0)
(0.0065488806 -1.0782489e-07 0)
(0.0065594772 1.0422964e-07 0)
(0.0065501571 -1.010697e-07 0)
(0.00655824 9.8332227e-08 0)
(0.0065513606 -9.6004304e-08 0)
(0.0065570653 9.4081414e-08 0)
(0.0065525113 -9.2546705e-08 0)
(0.0065559325 9.1241725e-08 0)
(0.0065536454 -9.2159167e-08 0)
(0.0065549944 8.74819e-08 0)
(0.008411925 0.001373589 0)
(0.00935636 -2.4273827e-06 0)
(0.008876492 9.7335849e-07 0)
(0.0091611083 9.1802386e-07 0)
(0.0089217055 -1.2409185e-06 0)
(0.0091475317 1.0878779e-06 0)
(0.008941406 -1.0893924e-06 0)
(0.0091352585 1.0064257e-06 0)
(0.008954246 -9.5256062e-07 0)
(0.0091239774 8.9029512e-07 0)
(0.0089650913 -8.3636281e-07 0)
(0.0091139243 7.8389919e-07 0)
(0.0089745742 -7.3565793e-07 0)
(0.0091050546 6.9004673e-07 0)
(0.0089829108 -6.4760571e-07 0)
(0.0090972416 6.0771711e-07 0)
(0.0089902503 -5.7051454e-07 0)
(0.0090903578 5.3561333e-07 0)
(0.0089967179 -5.0305028e-07 0)
(0.0090842882 4.7253472e-07 0)
(0.0090024227 -4.4406799e-07 0)
(0.0090789307 4.1741872e-07 0)
(0.0090074612 -3.9256971e-07 0)
(0.0090741951 3.6933442e-07 0)
(0.0090119182 -3.4768454e-07 0)
(0.0090700016 3.2746922e-07 0)
(0.0090158691 -3.0865355e-07 0)
(0.0090662797 2.9111554e-07 0)
(0.0090193803 -2.7481691e-07 0)
(0.0090629665 2.5965895e-07 0)
(0.0090225112 -2.4560261e-07 0)
(0.0090600064 2.3256784e-07 0)
(0.0090253145 -2.2051676e-07 0)
(0.0090573496 2.0938429e-07 0)
(0.0090278373 -1.9913515e-07 0)
(0.0090549512 1.8971634e-07 0)
(0.0090301221 -1.8109612e-07 0)
(0.009052771 1.7323129e-07 0)
(0.0090322075 -1.6609437e-07 0)
(0.0090507723 1.5965006e-07 0)
(0.0090341284 -1.5387569e-07 0)
(0.0090489214 1.4874228e-07 0)
(0.0090359174 -1.4423239e-07 0)
(0.0090471871 1.4032214e-07 0)
(0.0090376047 -1.3699745e-07 0)
(0.0090455398 1.3424905e-07 0)
(0.0090392189 -1.3204577e-07 0)
(0.0090439499 1.3014063e-07 0)
(0.0090408066 -1.320477e-07 0)
(0.0090426058 1.2442367e-07 0)
(0.010659361 0.0016965201 0)
(0.011839612 -5.2093068e-06 0)
(0.011253916 1.7870062e-06 0)
(0.011615865 1.0783447e-06 0)
(0.011307764 -1.5858086e-06 0)
(0.011598095 1.3630913e-06 0)
(0.011332881 -1.3909744e-06 0)
(0.011582267 1.2799339e-06 0)
(0.011349346 -1.2142791e-06 0)
(0.01156774 1.1338808e-06 0)
(0.011363294 -1.0656353e-06 0)
(0.011554802 9.9857975e-07 0)
(0.011375494 -9.3722848e-07 0)
(0.011543388 8.790575e-07 0)
(0.011386221 -8.2503183e-07 0)
(0.011533334 7.7418421e-07 0)
(0.011395665 -7.2681646e-07 0)
(0.011524476 6.8233318e-07 0)
(0.011403987 -6.408691e-07 0)
(0.011516666 6.0197842e-07 0)
(0.011411328 -5.6572828e-07 0)
(0.011509772 5.317667e-07 0)
(0.011417812 -5.0012201e-07 0)
(0.011503678 4.7051225e-07 0)
(0.011423547 -4.4294062e-07 0)
(0.011498282 4.1718001e-07 0)
(0.011428631 -3.9321719e-07 0)
(0.011493492 3.7086876e-07 0)
(0.01143315 -3.5011107e-07 0)
(0.011489228 3.3079586e-07 0)
(0.011437179 -3.1289351e-07 0)
(0.011485419 2.962841e-07 0)
(0.011440787 -2.8093527e-07 0)
(0.011481999 2.6675013e-07 0)
(0.011444034 -2.5369591e-07 0)
(0.011478912 2.4169456e-07 0)
(0.011446975 -2.3071467e-07 0)
(0.011476106 2.2069347e-07 0)
(0.01144966 -2.116025e-07 0)
(0.011473533 2.0339113e-07 0)
(0.011452133 -1.9603535e-07 0)
(0.01147115 1.8949375e-07 0)
(0.011454436 -1.8374812e-07 0)
(0.011468916 1.7876383e-07 0)
(0.011456609 -1.7452616e-07 0)
(0.011466795 1.7102205e-07 0)
(0.011458689 -1.6820021e-07 0)
(0.011464746 1.65731e-07 0)
(0.011460731 -1.6890109e-07 0)
(0.011462983 1.5812784e-07 0)
(0.012849729 0.0019896626 0)
(0.014246427 -8.7573317e-06 0)
(0.013565248 2.7552484e-06 0)
(0.014003898 1.1843321e-06 0)
(0.013626655 -1.9001393e-06 0)
(0.0139815 1.6017019e-06 0)
(0.013657121 -1.6675028e-06 0)
(0.013962086 1.5282601e-06 0)
(0.013677194 -1.4532671e-06 0)
(0.013944303 1.3558128e-06 0)
(0.013694243 -1.2747362e-06 0)
(0.013928474 1.1942741e-06 0)
(0.013709165 -1.1210195e-06 0)
(0.013914513 1.0513693e-06 0)
(0.013722284 -9.8680035e-07 0)
(0.013902217 9.259482e-07 0)
(0.013733835 -8.6932398e-07 0)
(0.013891382 8.1609615e-07 0)
(0.013744013 -7.6652503e-07 0)
(0.01388183 7.1999248e-07 0)
(0.013752991 -6.7665226e-07 0)
(0.013873398 6.360193e-07 0)
(0.013760921 -5.9818363e-07 0)
(0.013865944 5.6275861e-07 0)
(0.013767936 -5.2979174e-07 0)
(0.013859344 4.9897265e-07 0)
(0.013774154 -4.7032004e-07 0)
(0.013853485 4.435837e-07 0)
(0.013779681 -4.1876298e-07 0)
(0.01384827 3.9565585e-07 0)
(0.01378461 -3.7424889e-07 0)
(0.01384361 3.5437914e-07 0)
(0.013789023 -3.3602513e-07 0)
(0.013839427 3.1905586e-07 0)
(0.013792995 -3.0344529e-07 0)
(0.013835651 2.8908867e-07 0)
(0.013796593 -2.7595817e-07 0)
(0.013832218 2.6397041e-07 0)
(0.013799877 -2.5309837e-07 0)
(0.01382907 2.4327542e-07 0)
(0.013802902 -2.3447802e-07 0)
(0.013826155 2.2665187e-07 0)
(0.01380572 -2.1977936e-07 0)
(0.013823422 2.1381463e-07 0)
(0.013808379 -2.0874328e-07 0)
(0.013820826 2.0454869e-07 0)
(0.013810923 -2.0115386e-07 0)
(0.013818319 1.9815694e-07 0)
(0.013813419 -2.0278579e-07 0)
(0.013816128 1.8867418e-07 0)
(0.014985312 0.0022545135 0)
(0.01657738 -1.3021621e-05 0)
(0.015810465 3.8139995e-06 0)
(0.016325099 1.245027e-06 0)
(0.015878505 -2.1836071e-06 0)
(0.016297625 1.8066584e-06 0)
(0.015914238 -1.9211147e-06 0)
(0.016274609 1.7537197e-06 0)
(0.015937886 -1.6715147e-06 0)
(0.016253572 1.5580159e-06 0)
(0.015958028 -1.4654473e-06 0)
(0.01623486 1.3726658e-06 0)
(0.015975661 -1.2886067e-06 0)
(0.016218359 1.2084634e-06 0)
(0.015991166 -1.1343004e-06 0)
(0.016203826 1.0643138e-06 0)
(0.016004817 -9.9926134e-07 0)
(0.016191021 9.3805214e-07 0)
(0.016016846 -8.8109764e-07 0)
(0.016179731 8.2759124e-07 0)
(0.016027457 -7.7779293e-07 0)
(0.016169765 7.3107245e-07 0)
(0.016036828 -6.8759701e-07 0)
(0.016160956 6.468662e-07 0)
(0.016045119 -6.0898397e-07 0)
(0.016153155 5.7355e-07 0)
(0.016052469 -5.4062436e-07 0)
(0.016146231 5.0988524e-07 0)
(0.016059001 -4.8136229e-07 0)
(0.016140067 4.5479627e-07 0)
(0.016064826 -4.3019577e-07 0)
(0.01613456 4.0735216e-07 0)
(0.016070042 -3.8625961e-07 0)
(0.016129616 3.6675092e-07 0)
(0.016074736 -3.4881071e-07 0)
(0.016125152 3.3230588e-07 0)
(0.016078989 -3.1721543e-07 0)
(0.016121094 3.0343396e-07 0)
(0.01608287 -2.909386e-07 0)
(0.016117374 2.796456e-07 0)
(0.016086446 -2.6953404e-07 0)
(0.016113928 2.6053583e-07 0)
(0.016089778 -2.5263558e-07 0)
(0.016110698 2.4577548e-07 0)
(0.01609292 -2.3994235e-07 0)
(0.016107629 2.3511613e-07 0)
(0.016095928 -2.3118856e-07 0)
(0.016104664 2.2770001e-07 0)
(0.016098875 -2.3391235e-07 0)
(0.016102038 2.1631542e-07 0)
(0.017068615 0.0024919289 0)
(0.018833228 -1.7931721e-05 0)
(0.017989692 4.9084348e-06 0)
(0.018579161 1.2671356e-06 0)
(0.018063447 -2.4345642e-06 0)
(0.018546355 1.9791682e-06 0)
(0.018104337 -2.1523971e-06 0)
(0.018519742 1.9571391e-06 0)
(0.018131514 -1.8696218e-06 0)
(0.018495465 1.7411094e-06 0)
(0.018154725 -1.6383255e-06 0)
(0.018473887 1.5342891e-06 0)
(0.018175053 -1.4404863e-06 0)
(0.018454862 1.3508091e-06 0)
(0.018192927 -1.2679702e-06 0)
(0.018438106 1.1896942e-06 0)
(0.018208664 -1.1170149e-06 0)
(0.018423343 1.048565e-06 0)
(0.018222532 -9.8492773e-07 0)
(0.018410327 9.2509561e-07 0)
(0.018234765 -8.6945117e-07 0)
(0.018398837 8.1720956e-07 0)
(0.018245569 -7.6862818e-07 0)
(0.018388681 7.2308577e-07 0)
(0.018255127 -6.8075297e-07 0)
(0.018379688 6.411344e-07 0)
(0.0182636 -6.0433941e-07 0)
(0.018371705 5.699711e-07 0)
(0.018271131 -5.3809541e-07 0)
(0.018364598 5.0839358e-07 0)
(0.018277847 -4.8090084e-07 0)
(0.018358248 4.553613e-07 0)
(0.018283861 -4.317885e-07 0)
(0.018352548 4.0997779e-07 0)
(0.018289273 -3.8992766e-07 0)
(0.018347402 3.7147543e-07 0)
(0.018294176 -3.5460985e-07 0)
(0.018342723 3.3920229e-07 0)
(0.018298651 -3.2523665e-07 0)
(0.018338434 3.1261086e-07 0)
(0.018302774 -3.0130881e-07 0)
(0.01833446 2.9124773e-07 0)
(0.018306615 -2.8241596e-07 0)
(0.018330736 2.7474318e-07 0)
(0.018310239 -2.6821817e-07 0)
(0.018327198 2.6281763e-07 0)
(0.018313707 -2.5839696e-07 0)
(0.01832378 2.5445557e-07 0)
(0.018317101 -2.6232265e-07 0)
(0.018320714 2.4114403e-07 0)
(0.019101391 0.0027026272 0)
(0.021014772 -2.339866e-05 0)
(0.020103188 5.9914239e-06 0)
(0.020765585 1.2573965e-06 0)
(0.02018162 -2.6523761e-06 0)
(0.020727586 2.1199568e-06 0)
(0.020227505 -2.3613722e-06 0)
(0.020697398 2.1387725e-06 0)
(0.020258156 -2.0476534e-06 0)
(0.020669907 1.9052093e-06 0)
(0.020284404 -1.7934545e-06 0)
(0.02064549 1.6792342e-06 0)
(0.020307399 -1.576737e-06 0)
(0.020623964 1.478484e-06 0)
(0.02032762 -1.3878799e-06 0)
(0.020605007 1.3021571e-06 0)
(0.020345423 -1.2226467e-06 0)
(0.020588306 1.1476944e-06 0)
(0.020361112 -1.0780699e-06 0)
(0.020573579 1.0125579e-06 0)
(0.020374951 -9.5167518e-07 0)
(0.020560581 8.9447673e-07 0)
(0.020387174 -8.4131975e-07 0)
(0.020549091 7.9145803e-07 0)
(0.020397987 -7.4513648e-07 0)
(0.020538915 7.0176192e-07 0)
(0.020407573 -6.6149872e-07 0)
(0.020529884 6.238733e-07 0)
(0.020416094 -5.889922e-07 0)
(0.020521843 5.5647633e-07 0)
(0.020423691 -5.2639083e-07 0)
(0.020514659 4.9843215e-07 0)
(0.020430495 -4.7263587e-07 0)
(0.02050821 4.4875954e-07 0)
(0.020436619 -4.2681793e-07 0)
(0.020502388 4.0661828e-07 0)
(0.020442165 -3.8816139e-07 0)
(0.020497095 3.7129468e-07 0)
(0.020447229 -3.5601097e-07 0)
(0.020492241 3.4218911e-07 0)
(0.020451894 -3.2981968e-07 0)
(0.020487746 3.1880453e-07 0)
(0.02045624 -3.091371e-07 0)
(0.020483533 3.0073421e-07 0)
(0.020460339 -2.9358714e-07 0)
(0.020479529 2.8766972e-07 0)
(0.020464263 -2.8279662e-07 0)
(0.020475662 2.7844407e-07 0)
(0.020468099 -2.8799283e-07 0)
(0.020472155 2.63194e-07 0)
(0.021084833 0.0028873704 0)
(0.02312288 -2.9323088e-05 0)
(0.022151173 7.024591e-06 0)
(0.022883861 1.2227258e-06 0)
(0.022233172 -2.8389828e-06 0)
(0.022841222 2.2301328e-06 0)
(0.022283826 -2.5481483e-06 0)
(0.022807502 2.298912e-06 0)
(0.022317884 -2.2057135e-06 0)
(0.022776832 2.0504659e-06 0)
(0.022347126 -1.9309508e-06 0)
(0.02274961 1.8076208e-06 0)
(0.022372754 -1.6974653e-06 0)
(0.022725615 1.5915907e-06 0)
(0.022395292 -1.4941235e-06 0)
(0.022704485 1.4017922e-06 0)
(0.022415135 -1.3162392e-06 0)
(0.022685869 1.2355189e-06 0)
(0.022432622 -1.160597e-06 0)
(0.022669454 1.0900474e-06 0)
(0.022448047 -1.0245292e-06 0)
(0.022654965 9.6293502e-07 0)
(0.022461671 -9.0572845e-07 0)
(0.022642158 8.5203687e-07 0)
(0.022473724 -8.021847e-07 0)
(0.022630816 7.5548021e-07 0)
(0.022484409 -7.1214682e-07 0)
(0.022620749 6.7163412e-07 0)
(0.022493906 -6.3409228e-07 0)
(0.022611787 5.9908214e-07 0)
(0.022502375 -5.667011e-07 0)
(0.022603779 5.3659832e-07 0)
(0.022509959 -5.0883342e-07 0)
(0.02259659 4.831264e-07 0)
(0.022516784 -4.5951011e-07 0)
(0.0225901 4.377618e-07 0)
(0.022522967 -4.1789602e-07 0)
(0.0225842 3.9973608e-07 0)
(0.022528611 -3.832854e-07 0)
(0.02257879 3.6840339e-07 0)
(0.022533812 -3.5508878e-07 0)
(0.022573778 3.4322778e-07 0)
(0.022538656 -3.3281992e-07 0)
(0.022569082 3.2376912e-07 0)
(0.022543226 -3.1606957e-07 0)
(0.022564619 3.0969252e-07 0)
(0.0225476 -3.0440858e-07 0)
(0.022560308 2.9968824e-07 0)
(0.022551872 -3.1090723e-07 0)
(0.022556361 2.8250648e-07 0)
(0.023019829 0.003046922 0)
(0.025158494 -3.5600304e-05 0)
(0.024133678 7.9782214e-06 0)
(0.024933653 1.1694466e-06 0)
(0.024218244 -2.9987143e-06 0)
(0.024887183 2.3113589e-06 0)
(0.02427337 -2.712991e-06 0)
(0.024849983 2.4379769e-06 0)
(0.024310761 -2.3440289e-06 0)
(0.024816178 2.1771442e-06 0)
(0.02434295 -2.051039e-06 0)
(0.024786194 1.919669e-06 0)
(0.024371169 -1.8028721e-06 0)
(0.024759769 1.6903204e-06 0)
(0.024395988 -1.586878e-06 0)
(0.024736498 1.4887671e-06 0)
(0.02441784 -1.3979486e-06 0)
(0.024715996 1.312186e-06 0)
(0.024437096 -1.2326463e-06 0)
(0.02469792 1.1576941e-06 0)
(0.024454083 -1.0881343e-06 0)
(0.024681964 1.022699e-06 0)
(0.024469087 -9.6196133e-07 0)
(0.024667859 9.0492348e-07 0)
(0.02448236 -8.5199242e-07 0)
(0.024655368 8.0237883e-07 0)
(0.024494127 -7.5636779e-07 0)
(0.024644281 7.1333302e-07 0)
(0.024504586 -6.7347042e-07 0)
(0.024634411 6.3628177e-07 0)
(0.024513912 -6.0189838e-07 0)
(0.024625592 5.699231e-07 0)
(0.024522264 -5.4044096e-07 0)
(0.024617675 5.1313523e-07 0)
(0.024529781 -4.8805813e-07 0)
(0.024610528 4.6495742e-07 0)
(0.024536591 -4.438627e-07 0)
(0.02460403 4.2457341e-07 0)
(0.024542806 -4.0710477e-07 0)
(0.024598071 3.9129688e-07 0)
(0.024548534 -3.7715764e-07 0)
(0.024592552 3.6455771e-07 0)
(0.024553868 -3.5350343e-07 0)
(0.02458738 3.4388598e-07 0)
(0.024558901 -3.357028e-07 0)
(0.024582465 3.2892277e-07 0)
(0.024563718 -3.2327025e-07 0)
(0.024577718 3.182262e-07 0)
(0.02456842 -3.3107076e-07 0)
(0.024573332 2.9913993e-07 0)
(0.02490705 0.003182033 0)
(0.027122631 -4.2123414e-05 0)
(0.026050522 8.8315914e-06 0)
(0.026914832 1.1033841e-06 0)
(0.026136953 -3.1369102e-06 0)
(0.026865404 2.3657328e-06 0)
(0.026196204 -2.8562355e-06 0)
(0.026824779 2.5564584e-06 0)
(0.026236848 -2.4628998e-06 0)
(0.02678789 2.2855787e-06 0)
(0.026271926 -2.1540097e-06 0)
(0.026755193 2.0156611e-06 0)
(0.02630269 -1.8932169e-06 0)
(0.026726381 1.7749188e-06 0)
(0.026329747 -1.6663722e-06 0)
(0.026701009 1.5632975e-06 0)
(0.026353571 -1.4679759e-06 0)
(0.026678656 1.3778853e-06 0)
(0.026374566 -1.2943952e-06 0)
(0.026658947 1.215665e-06 0)
(0.026393086 -1.142647e-06 0)
(0.02664155 1.0739162e-06 0)
(0.026409444 -1.0101566e-06 0)
(0.026626172 9.5024829e-07 0)
(0.026423915 -8.9468194e-07 0)
(0.026612553 8.4257326e-07 0)
(0.026436745 -7.9427013e-07 0)
(0.026600465 7.490725e-07 0)
(0.026448148 -7.0722316e-07 0)
(0.026589703 6.6816648e-07 0)
(0.026458317 -6.3206883e-07 0)
(0.026580087 5.984881e-07 0)
(0.026467423 -5.6753572e-07 0)
(0.026571456 5.3885941e-07 0)
(0.026475619 -5.1253159e-07 0)
(0.026563662 4.8827152e-07 0)
(0.026483043 -4.6612459e-07 0)
(0.026556577 4.4586716e-07 0)
(0.026489821 -4.2752693e-07 0)
(0.02655008 4.1092527e-07 0)
(0.026496065 -3.9607982e-07 0)
(0.026544063 3.8284618e-07 0)
(0.026501882 -3.7123787e-07 0)
(0.026538423 3.6113381e-07 0)
(0.02650737 -3.5253488e-07 0)
(0.026533064 3.4540769e-07 0)
(0.026512622 -3.3942941e-07 0)
(0.026527889 3.3410583e-07 0)
(0.026517745 -3.4850306e-07 0)
(0.026523068 3.1316403e-07 0)
(0.026746928 0.0032934459 0)
(0.029016358 -4.8789109e-05 0)
(0.027901389 9.579056e-06 0)
(0.028827407 1.0293806e-06 0)
(0.027989391 -3.258687e-06 0)
(0.028775828 2.3956139e-06 0)
(0.028052387 -2.9782241e-06 0)
(0.028731833 2.654882e-06 0)
(0.028096198 -2.5626697e-06 0)
(0.028691917 2.3761447e-06 0)
(0.028134103 -2.2401929e-06 0)
(0.028656562 2.0959163e-06 0)
(0.028167357 -1.9687943e-06 0)
(0.028625413 1.8456649e-06 0)
(0.028196607 -1.7328657e-06 0)
(0.028597983 1.6256284e-06 0)
(0.028222362 -1.5265501e-06 0)
(0.028573817 1.4328328e-06 0)
(0.028245059 -1.3460455e-06 0)
(0.02855251 1.2641504e-06 0)
(0.02826508 -1.1882454e-06 0)
(0.028533702 1.1167544e-06 0)
(0.028282764 -1.0504716e-06 0)
(0.028517076 9.8815962e-07 0)
(0.028298409 -9.3039249e-07 0)
(0.028502353 8.7619485e-07 0)
(0.028312279 -8.2597734e-07 0)
(0.028489284 7.7896916e-07 0)
(0.028324607 -7.3546032e-07 0)
(0.028477649 6.9484014e-07 0)
(0.0283356 -6.5731048e-07 0)
(0.028467253 6.223862e-07 0)
(0.028345445 -5.9020558e-07 0)
(0.028457921 5.6038241e-07 0)
(0.028354306 -5.3300969e-07 0)
(0.028449495 5.0777961e-07 0)
(0.028362333 -4.847536e-07 0)
(0.028441835 4.6368618e-07 0)
(0.028369661 -4.4461771e-07 0)
(0.028434811 4.2735189e-07 0)
(0.028376412 -4.1191623e-07 0)
(0.028428305 3.9815214e-07 0)
(0.028382701 -3.8608042e-07 0)
(0.028422207 3.7556831e-07 0)
(0.028388634 -3.6662037e-07 0)
(0.028416414 3.592009e-07 0)
(0.028394312 -3.5294009e-07 0)
(0.028410819 3.4738097e-07 0)
(0.028399847 -3.6323433e-07 0)
(0.02840557 3.2465549e-07 0)
(0.028539592 0.0033818958 0)
(0.030840697 -5.5496336e-05 0)
(0.029685959 1.0235338e-05 0)
(0.030671433 9.4799884e-07 0)
(0.029775624 -3.3692438e-06 0)
(0.030618407 2.4032893e-06 0)
(0.029841973 -3.0793139e-06 0)
(0.030571092 2.7337981e-06 0)
(0.02988886 -2.6437175e-06 0)
(0.030528213 2.4492528e-06 0)
(0.029929524 -2.3099526e-06 0)
(0.030490261 2.1607858e-06 0)
(0.02996521 -2.029929e-06 0)
(0.030456829 1.9028659e-06 0)
(0.029996601 -1.7866454e-06 0)
(0.030427389 1.6760299e-06 0)
(0.030024242 -1.5739238e-06 0)
(0.030401453 1.4772662e-06 0)
(0.0300486 -1.3878197e-06 0)
(0.030378584 1.30336e-06 0)
(0.030070088 -1.2251257e-06 0)
(0.030358398 1.1513989e-06 0)
(0.030089067 -1.0830797e-06 0)
(0.030340554 1.0188211e-06 0)
(0.030105858 -9.5927767e-07 0)
(0.030324752 9.033885e-07 0)
(0.030120744 -8.5162566e-07 0)
(0.030310725 8.0315167e-07 0)
(0.030133975 -7.5830312e-07 0)
(0.030298238 7.1641735e-07 0)
(0.030145774 -6.7773151e-07 0)
(0.03028708 6.4171988e-07 0)
(0.030156341 -6.0854753e-07 0)
(0.030277063 5.7779636e-07 0)
(0.030165852 -5.4957989e-07 0)
(0.03026802 5.2356502e-07 0)
(0.030174467 -4.998291e-07 0)
(0.030259797 4.781064e-07 0)
(0.030182332 -4.5844978e-07 0)
(0.030252258 4.4064661e-07 0)
(0.030189579 -4.2473413e-07 0)
(0.030245275 4.1054062e-07 0)
(0.030196329 -3.9809408e-07 0)
(0.03023873 3.8725087e-07 0)
(0.030202697 -3.7801936e-07 0)
(0.030232512 3.7036145e-07 0)
(0.030208791 -3.6386163e-07 0)
(0.030226508 3.5811047e-07 0)
(0.030214728 -3.7530377e-07 0)
(0.030220836 3.336964e-07 0)
(0.030284874 0.0034481067 0)
(0.032596318 -6.2099724e-05 0)
(0.031404216 1.0792843e-05 0)
(0.032446958 8.5489495e-07 0)
(0.031495705 -3.4738309e-06 0)
(0.032393094 2.3908784e-06 0)
(0.031565013 -3.1599279e-06 0)
(0.032342509 2.7937589e-06 0)
(0.031614879 -2.7064655e-06 0)
(0.032296736 2.5053453e-06 0)
(0.031658228 -2.3636855e-06 0)
(0.032256253 2.2106511e-06 0)
(0.031696282 -2.0769748e-06 0)
(0.032220597 1.9468561e-06 0)
(0.031729759 -1.8280234e-06 0)
(0.032189199 1.7147963e-06 0)
(0.031759236 -1.6103721e-06 0)
(0.032161538 1.5114447e-06 0)
(0.031785213 -1.4199604e-06 0)
(0.032137149 1.3335221e-06 0)
(0.031808129 -1.2535022e-06 0)
(0.03211562 1.178051e-06 0)
(0.03182837 -1.1081703e-06 0)
(0.032096589 1.0424109e-06 0)
(0.031846278 -9.8150489e-07 0)
(0.032079736 9.2431209e-07 0)
(0.031862154 -8.713636e-07 0)
(0.032064776 8.2176023e-07 0)
(0.031876265 -7.7588362e-07 0)
(0.032051458 7.3302299e-07 0)
(0.031888849 -6.9344981e-07 0)
(0.032039557 6.5660084e-07 0)
(0.031900118 -6.2266727e-07 0)
(0.032028874 5.9120163e-07 0)
(0.031910262 -5.6233746e-07 0)
(0.032019228 5.3571851e-07 0)
(0.031919451 -5.114376e-07 0)
(0.032010459 4.8921057e-07 0)
(0.03192784 -4.6910234e-07 0)
(0.032002417 4.5088556e-07 0)
(0.031935569 -4.3460678e-07 0)
(0.031994969 4.2008244e-07 0)
(0.031942768 -4.0734753e-07 0)
(0.031987988 3.9624836e-07 0)
(0.03194956 -3.8679727e-07 0)
(0.031981356 3.7895363e-07 0)
(0.03195606 -3.7225839e-07 0)
(0.031974954 3.6635798e-07 0)
(0.031962389 -3.8475907e-07 0)
(0.031968868 3.4037321e-07 0)
(0.031982303 0.0034927691 0)
(0.034282828 -6.8310724e-05 0)
(0.033057117 1.1091122e-05 0)
(0.034153981 7.3243651e-07 0)
(0.033149657 -3.5774342e-06 0)
(0.034099837 2.3609902e-06 0)
(0.033221546 -3.2203025e-06 0)
(0.034046039 2.8354054e-06 0)
(0.033274295 -2.7513548e-06 0)
(0.033997448 2.5449018e-06 0)
(0.03332025 -2.4018182e-06 0)
(0.033954505 2.245923e-06 0)
(0.033360605 -2.1103125e-06 0)
(0.033916687 1.9779955e-06 0)
(0.033396108 -1.8573358e-06 0)
(0.033883387 1.742244e-06 0)
(0.03342737 -1.6361913e-06 0)
(0.03385405 1.5356469e-06 0)
(0.03345492 -1.4427289e-06 0)
(0.033828183 1.3548826e-06 0)
(0.033479223 -1.2736052e-06 0)
(0.03380535 1.1969279e-06 0)
(0.03350069 -1.1259468e-06 0)
(0.033785166 1.0591209e-06 0)
(0.033519683 -9.9725438e-07 0)
(0.033767291 9.3913553e-07 0)
(0.03353652 -8.8535102e-07 0)
(0.033751424 8.3494573e-07 0)
(0.033551486 -7.8834401e-07 0)
(0.033737299 7.4479149e-07 0)
(0.033564833 -7.0459232e-07 0)
(0.033724677 6.671493e-07 0)
(0.033576786 -6.3267861e-07 0)
(0.033713346 6.0070631e-07 0)
(0.033587545 -5.7138504e-07 0)
(0.033703115 5.4433786e-07 0)
(0.033597291 -5.1967225e-07 0)
(0.033693814 4.9708778e-07 0)
(0.033606188 -4.766607e-07 0)
(0.033685284 4.5815068e-07 0)
(0.033614386 -4.416131e-07 0)
(0.033677384 4.2685387e-07 0)
(0.033622023 -4.1391469e-07 0)
(0.033669979 4.0263276e-07 0)
(0.033629227 -3.9302447e-07 0)
(0.033662945 3.8504656e-07 0)
(0.033636121 -3.7819943e-07 0)
(0.033656156 3.721916e-07 0)
(0.03364283 -3.9165556e-07 0)
(0.033649666 3.4477594e-07 0)
(0.033631335 0.0035166676 0)
(0.035896994 -7.4025582e-05 0)
(0.034647758 1.1091047e-05 0)
(0.035792892 5.8041968e-07 0)
(0.03473752 -3.6849928e-06 0)
(0.035738585 2.3150277e-06 0)
(0.034811609 -3.2610416e-06 0)
(0.03568164 2.8592768e-06 0)
(0.034867144 -2.7789e-06 0)
(0.035630313 2.5684169e-06 0)
(0.034915623 -2.4248104e-06 0)
(0.035584986 2.2670363e-06 0)
(0.034958207 -2.1303479e-06 0)
(0.035545073 1.9966664e-06 0)
(0.034995673 -1.8749405e-06 0)
(0.035509929 1.7587097e-06 0)
(0.035028664 -1.6516966e-06 0)
(0.035478969 1.5501694e-06 0)
(0.035057738 -1.4564031e-06 0)
(0.03545167 1.3677028e-06 0)
(0.035083386 -1.28568e-06 0)
(0.035427572 1.2082602e-06 0)
(0.035106041 -1.1366261e-06 0)
(0.035406271 1.0691551e-06 0)
(0.035126085 -1.006718e-06 0)
(0.035387406 9.4803964e-07 0)
(0.035143854 -8.9375806e-07 0)
(0.035370661 8.4286877e-07 0)
(0.035159649 -7.9583568e-07 0)
(0.035355753 7.5186594e-07 0)
(0.035173735 -7.1129416e-07 0)
(0.035342431 6.7349326e-07 0)
(0.03518635 -6.3870272e-07 0)
(0.035330473 6.0642544e-07 0)
(0.035197705 -5.7683189e-07 0)
(0.035319675 5.4952711e-07 0)
(0.035207991 -5.2463229e-07 0)
(0.035309858 5.0183287e-07 0)
(0.035217382 -4.8121569e-07 0)
(0.035300855 4.6252926e-07 0)
(0.035226034 -4.4583712e-07 0)
(0.035292517 4.3093613e-07 0)
(0.035234094 -4.1787427e-07 0)
(0.035284702 4.0648071e-07 0)
(0.035241698 -3.9677586e-07 0)
(0.035277278 3.887138e-07 0)
(0.035248974 -3.8175805e-07 0)
(0.035270113 3.7568355e-07 0)
(0.035256052 -3.9605562e-07 0)
(0.035263229 3.4699719e-07 0)
(0.035231142 0.0035205865 0)
(0.037434679 -7.9815718e-05 0)
(0.036179505 1.1260692e-05 0)
(0.037364839 5.3966677e-07 0)
(0.036259454 -3.7768219e-06 0)
(0.037309362 2.2594721e-06 0)
(0.036335254 -3.281565e-06 0)
(0.037249283 2.8662376e-06 0)
(0.03639346 -2.78956e-06 0)
(0.037195302 2.5764395e-06 0)
(0.036444375 -2.4331381e-06 0)
(0.037147669 2.2744531e-06 0)
(0.036489113 -2.1375081e-06 0)
(0.037105731 2.0032723e-06 0)
(0.036528476 -1.8812144e-06 0)
(0.037068806 1.7645482e-06 0)
(0.036563138 -1.6572205e-06 0)
(0.037036276 1.5553248e-06 0)
(0.036593685 -1.461276e-06 0)
(0.037007593 1.3722585e-06 0)
(0.036620633 -1.2899853e-06 0)
(0.036982273 1.2122914e-06 0)
(0.036644436 -1.1404366e-06 0)
(0.036959892 1.0727287e-06 0)
(0.036665495 -1.0100979e-06 0)
(0.036940071 9.5121504e-07 0)
(0.036684166 -8.9676416e-07 0)
(0.036922476 8.4569866e-07 0)
(0.036700761 -7.9851821e-07 0)
(0.036906812 7.5439718e-07 0)
(0.036715562 -7.1369784e-07 0)
(0.036892814 6.7576765e-07 0)
(0.036728817 -6.4086739e-07 0)
(0.036880249 6.0848035e-07 0)
(0.036740748 -5.7879325e-07 0)
(0.036868903 5.5139604e-07 0)
(0.036751556 -5.2642235e-07 0)
(0.036858587 5.0354592e-07 0)
(0.036761424 -4.8286317e-07 0)
(0.036849127 4.6411335e-07 0)
(0.036770516 -4.4736751e-07 0)
(0.036840365 4.3241489e-07 0)
(0.036778985 -4.1930932e-07 0)
(0.036832153 4.0787303e-07 0)
(0.036786975 -3.9813043e-07 0)
(0.036824352 3.9003291e-07 0)
(0.036794621 -3.8301139e-07 0)
(0.036816825 3.7690966e-07 0)
(0.036802055 -3.9802785e-07 0)
(0.036809558 3.4713151e-07 0)
(0.036780345 0.0035052644 0)
(0.0389015 -8.5287255e-05 0)
(0.037648737 1.1337281e-05 0)
(0.038869439 5.9584046e-07 0)
(0.037715335 -3.8575957e-06 0)
(0.038812096 2.1949391e-06 0)
(0.037792504 -3.2826364e-06 0)
(0.038748931 2.8568327e-06 0)
(0.037853272 -2.7839244e-06 0)
(0.038692386 2.5695091e-06 0)
(0.037906533 -2.4273124e-06 0)
(0.038642529 2.2686519e-06 0)
(0.037953346 -2.1322417e-06 0)
(0.03859864 1.9982347e-06 0)
(0.037994537 -1.8765524e-06 0)
(0.038559998 1.7601305e-06 0)
(0.03803081 -1.6531106e-06 0)
(0.038525955 1.5514399e-06 0)
(0.038062776 -1.4576541e-06 0)
(0.038495938 1.3688377e-06 0)
(0.038090977 -1.2867915e-06 0)
(0.038469441 1.2092759e-06 0)
(0.038115886 -1.1376174e-06 0)
(0.038446018 1.0700668e-06 0)
(0.038137925 -1.0076058e-06 0)
(0.038425275 9.4886115e-07 0)
(0.038157463 -8.9455708e-07 0)
(0.038406861 8.4361254e-07 0)
(0.038174831 -7.9655868e-07 0)
(0.038390468 7.5254309e-07 0)
(0.038190321 -7.1195249e-07 0)
(0.038375819 6.7411372e-07 0)
(0.038204192 -6.3930641e-07 0)
(0.038362669 6.0699803e-07 0)
(0.038216679 -5.7738978e-07 0)
(0.038350794 5.5005954e-07 0)
(0.038227991 -5.2515202e-07 0)
(0.038339998 5.0233166e-07 0)
(0.038238318 -4.8170348e-07 0)
(0.038330097 4.6299937e-07 0)
(0.038247834 -4.4629712e-07 0)
(0.038320927 4.3137988e-07 0)
(0.038256698 -4.183068e-07 0)
(0.038312332 4.0689438e-07 0)
(0.03826506 -3.9717084e-07 0)
(0.038304167 3.8908507e-07 0)
(0.038273062 -3.8204004e-07 0)
(0.038296291 3.7594915e-07 0)
(0.038280839 -3.9764655e-07 0)
(0.038288654 3.4527463e-07 0)
(0.038277343 0.0034714751 0)
(0.040306429 -8.9803182e-05 0)
(0.039048587 1.0873627e-05 0)
(0.040305901 6.6831862e-07 0)
(0.039104994 -3.9357504e-06 0)