/*--------------------------------*- C++ -*----------------------------------*\
| =========                 |                                                 |
| \\      /  F ield         | OpenFOAM: The Open Source CFD Toolbox           |
|  \\    /   O peration     | Version:  2312                                  |
|   \\  /    A nd           | Website:  www.openfoam.com                      |
|    \\/     M anipulation  |                                                 |
\*---------------------------------------------------------------------------*/
FoamFile
{
    version     2.0;
    format      ascii;
    arch        "LSB;label=32;scalar=64";
    class       surfaceScalarField;
    location    "9";
    object      phi;
}
// * * * * * * * * * * * * * * * * * * * * * * * * * * * * * * * * * * * * * //

dimensions      [0 3 -1 0 0 0 0];

oriented        oriented;

internalField   nonuniform List<scalar> 
7870
(
1.3279919e-10
2.8154508e-09
1.3369641e-10
-8.9722449e-13
1.1284543e-10
2.0850975e-11
1.1393384e-10
-1.0884178e-12
1.1435084e-10
-4.1700058e-13
1.1287728e-10
1.4735563e-12
1.1380194e-10
-9.2465328e-13
1.1265161e-10
1.1503223e-12
1.1369155e-10
-1.0399403e-12
1.1267269e-10
1.018866e-12
1.1362882e-10
-9.5613205e-13
1.1271857e-10
9.1025185e-13
1.1357447e-10
-8.5590275e-13
1.1276455e-10
8.0992634e-13
1.1352713e-10
-7.6258489e-13
1.1280698e-10
7.2015487e-13
1.1348582e-10
-6.7884147e-13
1.1284505e-10
6.4077205e-13
1.1344954e-10
-6.0449257e-13
1.1287884e-10
5.7069749e-13
1.1341761e-10
-5.3876494e-13
1.1290869e-10
5.0892e-13
1.1338952e-10
-4.8082978e-13
1.1293495e-10
4.5456914e-13
1.1336486e-10
-4.2991066e-13
1.1295798e-10
4.0688223e-13
1.1334328e-10
-3.8530166e-13
1.1297809e-10
3.6518269e-13
1.1332446e-10
-3.4636872e-13
1.1299559e-10
3.2886945e-13
1.1330814e-10
-3.1254735e-13
1.1301073e-10
2.9741103e-13
1.1329407e-10
-2.8333961e-13
1.1302373e-10
2.7034127e-13
1.1328204e-10
-2.5831064e-13
1.1303478e-10
2.4725547e-13
1.1327187e-10
-2.3708504e-13
1.1304406e-10
2.2780647e-13
1.132634e-10
-2.1934306e-13
1.130517e-10
2.1170078e-13
1.1325652e-10
-2.0481691e-13
1.1305783e-10
1.9869547e-13
1.1325111e-10
-1.9328337e-13
1.130625e-10
1.8860587e-13
1.1324705e-10
-1.8455128e-13
1.1306583e-10
1.8122545e-13
1.1324481e-10
-1.7897735e-13
1.1307041e-10
1.7440073e-13
1.1325277e-10
-1.823654e-13
1.676987e-13
3.5330546e-10
5.4103953e-09
3.8103891e-10
-2.8630684e-11
3.3012743e-10
7.1762448e-11
3.307656e-10
-1.726597e-12
3.3095764e-10
-6.0904835e-13
3.2856934e-10
3.8618529e-12
3.2949012e-10
-1.8454305e-12
3.2781136e-10
2.8290813e-12
3.2925986e-10
-2.488443e-12
3.2779677e-10
2.4819593e-12
3.2916716e-10
-2.3265255e-12
3.278531e-10
2.2243178e-12
3.2908597e-10
-2.0887708e-12
3.2791599e-10
1.9798986e-12
3.2901596e-10
-1.862547e-12
3.2797616e-10
1.7599533e-12
3.289557e-10
-1.6583856e-12
3.2803082e-10
1.5656541e-12
3.2890315e-10
-1.4768191e-12
3.2807956e-10
1.3942868e-12
3.2885702e-10
-1.3162238e-12
3.2812266e-10
1.2432764e-12
3.2881648e-10
-1.1746519e-12
3.281606e-10
1.110451e-12
3.2878092e-10
-1.0502274e-12
3.2819387e-10
9.9392794e-13
3.287498e-10
-9.4122836e-13
3.2822294e-10
8.9204412e-13
3.2872267e-10
-8.4610303e-13
3.2824822e-10
8.0332482e-13
3.2869914e-10
-7.634688e-13
3.2827008e-10
7.2646751e-13
3.2867885e-10
-6.9210623e-13
3.2828886e-10
6.6033068e-13
3.286615e-10
-6.3095091e-13
3.2830483e-10
6.0392394e-13
3.2864683e-10
-5.790844e-13
3.2831824e-10
5.5639826e-13
3.2863462e-10
-5.3572467e-13
3.2832928e-10
5.1703572e-13
3.2862468e-10
-5.0021704e-13
3.2833814e-10
4.8524138e-13
3.2861687e-10
-4.7201298e-13
3.283449e-10
4.6057481e-13
3.2861095e-10
-4.5059988e-13
3.2834958e-10
4.4258861e-13
3.2860758e-10
-4.3697287e-13
3.2835733e-10
4.2465142e-13
3.2862741e-10
-4.5244768e-13
4.0839476e-13
5.5857037e-10
7.800075e-09
6.1599812e-10
-8.6058448e-11
5.4137619e-10
1.4638437e-10
5.4218393e-10
-2.5343534e-12
5.4160704e-10
-3.2160619e-14
5.3898351e-10
6.4853789e-12
5.3931491e-10
-2.1768263e-12
5.377231e-10
4.4208925e-12
5.3902412e-10
-3.789469e-12
5.3765543e-10
3.8506515e-12
5.3893798e-10
-3.6090704e-12
5.3769609e-10
3.4662069e-12
5.3885809e-10
-3.2507761e-12
5.3775102e-10
3.0869774e-12
5.3878976e-10
-2.9012945e-12
5.3780649e-10
2.7432282e-12
5.38732e-10
-2.5838927e-12
5.3785779e-10
2.4398628e-12
5.3868207e-10
-2.3010972e-12
5.379038e-10
2.172555e-12
5.386384e-10
-2.0508309e-12
5.3794456e-10
1.9371163e-12
5.386001e-10
-1.8301865e-12
5.3798046e-10
1.7300846e-12
5.3856651e-10
-1.636274e-12
5.3801195e-10
1.5484922e-12
5.3853713e-10
-1.4664132e-12
5.3803945e-10
1.3897296e-12
5.3851152e-10
-1.3181807e-12
5.3806336e-10
1.2514879e-12
5.3848931e-10
-1.189416e-12
5.3808404e-10
1.1317304e-12
5.3847015e-10
-1.0782137e-12
5.3810181e-10
1.0286739e-12
5.3845377e-10
-9.8291207e-13
5.3811692e-10
9.4077251e-13
5.3843991e-10
-9.0207771e-13
5.3812961e-10
8.6670165e-13
5.3842838e-10
-8.3449063e-13
5.3814007e-10
8.053411e-13
5.3841898e-10
-7.7912962e-13
5.3814846e-10
7.5576088e-13
5.3841159e-10
-7.3513326e-13
5.3815487e-10
7.1729097e-13
5.3840589e-10
-7.0162539e-13
5.3815918e-10
6.8930688e-13
5.3840262e-10
-6.8041542e-13
5.3816829e-10
6.5898447e-13
5.3843273e-10
-7.1689033e-13
6.3432076e-13
7.7020085e-10
9.9781241e-09
8.400212e-10
-1.5587881e-10
7.4646941e-10
2.3993615e-10
7.4785745e-10
-3.9224053e-12
7.4663813e-10
1.1871504e-12
7.4377675e-10
9.3467625e-12
7.4358566e-10
-1.9857442e-12
7.4209859e-10
5.907972e-12
7.4325867e-10
-4.9495579e-12
7.419918e-10
5.1175312e-12
7.4318489e-10
-4.8021655e-12
7.4201917e-10
4.6319241e-12
7.4310738e-10
-4.3389856e-12
7.4206654e-10
4.1278184e-12
7.4304112e-10
-3.8758678e-12
7.421173e-10
3.6670444e-12
7.4298606e-10
-3.4526521e-12
7.421651e-10
3.2608196e-12
7.4293891e-10
-3.0749023e-12
7.4220824e-10
2.9032289e-12
7.4289784e-10
-2.7404327e-12
7.4224652e-10
2.5884304e-12
7.4286186e-10
-2.4455237e-12
7.4228026e-10
2.3116896e-12
7.4283034e-10
-2.1863545e-12
7.4230984e-10
2.0689929e-12
7.4280277e-10
-1.9593463e-12
7.4233567e-10
1.8568283e-12
7.4277874e-10
-1.7612528e-12
7.4235813e-10
1.6720952e-12
7.427579e-10
-1.5891783e-12
7.4237756e-10
1.5120627e-12
7.4273992e-10
-1.4405704e-12
7.4239425e-10
1.3743421e-12
7.4272454e-10
-1.313204e-12
7.4240845e-10
1.2568645e-12
7.4271154e-10
-1.2051611e-12
7.4242038e-10
1.1578578e-12
7.427007e-10
-1.1148095e-12
7.4243022e-10
1.0758228e-12
7.4269187e-10
-1.0407827e-12
7.4243812e-10
1.0095116e-12
7.4268491e-10
-9.8191999e-13
7.4244415e-10
9.5804699e-13
7.4267946e-10
-9.3693975e-13
7.4244806e-10
9.2070665e-13
7.4267614e-10
-9.0849469e-13
7.4245789e-10
8.772429e-13
7.4271408e-10
-9.7308101e-13
8.4541771e-13
9.4529347e-10
1.1981081e-08
1.0535065e-09
-2.6409189e-10
9.4589601e-10
3.4754666e-10
9.4787832e-10
-5.904734e-12
9.4602602e-10
3.0394503e-12
9.4293286e-10
1.243992e-11
9.4229801e-10
-1.3508892e-12
9.4093784e-10
7.2681377e-12
9.4196333e-10
-5.9750456e-12
9.4080547e-10
6.2753931e-12
9.4190766e-10
-5.9043555e-12
9.4082191e-10
5.717674e-12
9.4183359e-10
-5.3506627e-12
9.4086217e-10
5.0992378e-12
9.417698e-10
-4.7834994e-12
9.4090822e-10
4.5286239e-12
9.417177e-10
-4.2621354e-12
9.4095243e-10
4.0260942e-12
9.4167351e-10
-3.7959799e-12
9.4099256e-10
3.5841728e-12
9.4163516e-10
-3.3830322e-12
9.4102826e-10
3.1953363e-12
9.4160163e-10
-3.0188967e-12
9.4105972e-10
2.8536023e-12
9.4157227e-10
-2.6989043e-12
9.410873e-10
2.5539554e-12
9.415466e-10
-2.4186383e-12
9.411114e-10
2.2920287e-12
9.4152422e-10
-2.1740817e-12
9.4113234e-10
2.0639763e-12
9.4150481e-10
-1.9616493e-12
9.4115046e-10
1.8664158e-12
9.4148807e-10
-1.778183e-12
9.4116602e-10
1.6963922e-12
9.4147375e-10
-1.6209313e-12
9.4117927e-10
1.5513479e-12
9.4146163e-10
-1.4875237e-12
9.4119039e-10
1.4290929e-12
9.4145153e-10
-1.3759429e-12
9.4119958e-10
1.3277738e-12
9.4144329e-10
-1.2844993e-12
9.4120696e-10
1.2458432e-12
9.4143679e-10
-1.2117483e-12
9.412126e-10
1.182236e-12
9.4143163e-10
-1.1559663e-12
9.4121612e-10
1.1362183e-12
9.4142822e-10
-1.1205948e-12
9.4122623e-10
1.0792326e-12
9.4147195e-10
-1.2188006e-12
1.0402413e-12
1.1493801e-09
1.3779951e-08
1.256396e-09
-3.7110781e-10
1.1390361e-09
4.6490656e-10
1.1422662e-09
-9.1348332e-12
1.1397474e-09
5.5581771e-12
1.136451e-09
1.5736338e-11
1.1354519e-09
-3.5175941e-13
1.1342427e-09
8.4773251e-12
1.1351394e-09
-6.8717335e-12
1.1340965e-09
7.3182985e-12
1.1351069e-09
-6.9147468e-12
1.1341041e-09
6.7204643e-12
1.1350371e-09
-6.2836876e-12
1.1341377e-09
5.9986946e-12
1.1349762e-09
-5.622e-12
1.134179e-09
5.3257592e-12
1.1349272e-09
-5.0103417e-12
1.1342196e-09
4.7337666e-12
1.1348861e-09
-4.4625498e-12
1.1342566e-09
4.2137066e-12
1.1348506e-09
-3.9770564e-12
1.1342896e-09
3.7563568e-12
1.1348196e-09
-3.5489167e-12
1.1343187e-09
3.3545194e-12
1.1347925e-09
-3.1726946e-12
1.1343442e-09
3.0022255e-12
1.1347688e-09
-2.8431991e-12
1.1343665e-09
2.6943048e-12
1.1347481e-09
-2.5556964e-12
1.1343859e-09
2.4262156e-12
1.1347302e-09
-2.3059611e-12
1.1344026e-09
2.1939695e-12
1.1347147e-09
-2.0902727e-12
1.134417e-09
1.9940864e-12
1.1347015e-09
-1.9053923e-12
1.1344293e-09
1.8235562e-12
1.1346903e-09
-1.7485303e-12
1.1344396e-09
1.6798026e-12
1.134681e-09
-1.6173132e-12
1.1344481e-09
1.5606434e-12
1.1346733e-09
-1.5097516e-12
1.1344549e-09
1.4642506e-12
1.1346673e-09
-1.424134e-12
1.1344602e-09
1.38939e-12
1.1346625e-09
-1.3582651e-12
1.1344633e-09
1.3354054e-12
1.1346589e-09
-1.3162664e-12
1.1344733e-09
1.2648359e-12
1.1347067e-09
-1.4521498e-12
1.2175962e-12
1.2974226e-09
1.5430778e-08
1.447498e-09
-5.2118316e-10
1.3267398e-09
5.8566468e-10
1.3309484e-09
-1.3343448e-11
1.3277441e-09
8.7625212e-12
1.3243252e-09
1.9155229e-11
1.3230414e-09
9.3202499e-13
1.322012e-09
9.5067625e-12
1.3227868e-09
-7.646606e-12
1.3218642e-09
8.2409072e-12
1.3227829e-09
-7.8333718e-12
1.3218653e-09
7.6379895e-12
1.3227183e-09
-7.1366657e-12
1.3218927e-09
6.8242976e-12
1.3226605e-09
-6.3898144e-12
1.3219294e-09
6.0568408e-12
1.3226149e-09
-5.6958366e-12
1.3219662e-09
5.3824536e-12
1.322577e-09
-5.0733377e-12
1.3220001e-09
4.7906279e-12
1.3225444e-09
-4.5213825e-12
1.3220304e-09
4.2704393e-12
1.322516e-09
-4.0345944e-12
1.322057e-09
3.8135138e-12
1.3224912e-09
-3.6068514e-12
1.3220804e-09
3.4129827e-12
1.3224695e-09
-3.2322529e-12
1.3221009e-09
3.062927e-12
1.3224506e-09
-2.9054056e-12
1.3221186e-09
2.7581611e-12
1.3224342e-09
-2.6214948e-12
1.322134e-09
2.494139e-12
1.32242e-09
-2.3762835e-12
1.3221472e-09
2.266898e-12
1.3224079e-09
-2.1660852e-12
1.3221584e-09
2.0730133e-12
1.3223976e-09
-1.9877267e-12
1.3221679e-09
1.9095544e-12
1.3223891e-09
-1.8385072e-12
1.3221757e-09
1.7740372e-12
1.3223821e-09
-1.716162e-12
1.322182e-09
1.6643732e-12
1.3223766e-09
-1.6187312e-12
1.3221868e-09
1.5791753e-12
1.322372e-09
-1.543527e-12
1.3221895e-09
1.5179557e-12
1.3223684e-09
-1.4952077e-12
1.3221993e-09
1.4340074e-12
1.3224186e-09
-1.6715315e-12
1.3768253e-12
1.4872884e-09
1.6891739e-08
1.6293306e-09
-6.6322541e-10
1.5080707e-09
7.0692454e-10
1.5137394e-09
-1.901209e-11
1.5100697e-09
1.2432163e-11
1.5065854e-09
2.2639595e-11
1.5050802e-09
2.4372278e-12
1.5042517e-09
1.0335239e-11
1.5049088e-09
-8.3037575e-12
1.5041094e-09
9.0403139e-12
1.5049364e-09
-8.6603022e-12
1.5041055e-09
8.4688625e-12
1.5048775e-09
-7.9087045e-12
1.504127e-09
7.5747828e-12
1.5048232e-09
-7.0859247e-12
1.5041592e-09
6.720796e-12
1.504781e-09
-6.3176822e-12
1.5041923e-09
5.9712465e-12
1.5047464e-09
-5.6275141e-12
1.5042229e-09
5.3141549e-12
1.5047168e-09
-5.0152831e-12
1.5042503e-09
4.7369036e-12
1.504691e-09
-4.475291e-12
1.5042746e-09
4.2299886e-12
1.5046685e-09
-4.0008109e-12
1.5042958e-09
3.7856991e-12
1.5046489e-09
-3.5852997e-12
1.5043144e-09
3.3974253e-12
1.5046317e-09
-3.2227633e-12
1.5043305e-09
3.0593926e-12
1.5046168e-09
-2.9078506e-12
1.5043444e-09
2.7665464e-12
1.504604e-09
-2.6358552e-12
1.5043564e-09
2.5144861e-12
1.504593e-09
-2.4026848e-12
1.5043666e-09
2.2994106e-12
1.5045837e-09
-2.204818e-12
1.5043752e-09
2.1180681e-12
1.5045759e-09
-2.0392569e-12
1.5043823e-09
1.9677002e-12
1.5045696e-09
-1.9034862e-12
1.504388e-09
1.8459783e-12
1.5045646e-09
-1.7953176e-12
1.5043924e-09
1.7513779e-12
1.5045604e-09
-1.7115586e-12
1.5043947e-09
1.6836669e-12
1.5045567e-09
-1.6572425e-12
1.504404e-09
1.5867666e-12
1.5046081e-09
-1.8756137e-12
1.5176844e-12
1.6202185e-09
1.8219771e-08
1.798667e-09
-8.4167398e-10
1.6837419e-09
8.218496e-10
1.68955e-09
-2.4820191e-11
1.6865269e-09
1.545526e-11
1.6832023e-09
2.5964265e-11
1.6815625e-09
4.076974e-12
1.6809606e-09
1.0937173e-11
1.6815057e-09
-8.8488427e-12
1.6808317e-09
9.714256e-12
1.6815677e-09
-9.3962375e-12
1.6808243e-09
9.212245e-12
1.681515e-09
-8.5994564e-12
1.6808404e-09
8.249392e-12
1.6814643e-09
-7.7098048e-12
1.6808681e-09
7.3170152e-12
1.6814258e-09
-6.8753794e-12
1.6808974e-09
6.4996508e-12
1.6813945e-09
-6.1246391e-12
1.6809248e-09
5.783873e-12
1.6813679e-09
-5.4583756e-12
1.6809494e-09
5.1553941e-12
1.6813448e-09
-4.8706732e-12
1.6809711e-09
4.6036343e-12
1.6813246e-09
-4.3542802e-12
1.6809902e-09
4.1201017e-12
1.681307e-09
-3.9020795e-12
1.6810068e-09
3.6975567e-12
1.6812916e-09
-3.5075371e-12
1.6810213e-09
3.3296917e-12
1.6812783e-09
-3.1648197e-12
1.6810338e-09
3.0109951e-12
1.6812668e-09
-2.8687997e-12
1.6810446e-09
2.7366729e-12
1.6812569e-09
-2.6150211e-12
1.6810538e-09
2.5025872e-12
1.6812486e-09
-2.3996503e-12
1.6810615e-09
2.3051981e-12
1.6812416e-09
-2.2194233e-12
1.6810678e-09
2.1415007e-12
1.6812359e-09
-2.0715986e-12
1.681073e-09
2.0089474e-12
1.6812314e-09
-1.9537808e-12
1.6810769e-09
1.9058909e-12
1.6812276e-09
-1.8622696e-12
1.6810789e-09
1.8324359e-12
1.6812239e-09
-1.8023047e-12
1.6810875e-09
1.723193e-12
1.6812752e-09
-2.0633006e-12
1.6402184e-12
1.7966578e-09
1.9371363e-08
1.9626019e-09
-1.0076181e-09
1.8535609e-09
9.3089058e-10
1.8578559e-09
-2.9115177e-11
1.8569787e-09
1.633242e-11
1.8541668e-09
2.8776171e-11
1.8524906e-09
5.7532343e-12
1.852141e-09
1.1286796e-11
1.852579e-09
-9.2868978e-12
1.8520315e-09
1.0261787e-11
1.8526773e-09
-1.0042057e-11
1.8520216e-09
9.867954e-12
1.8526311e-09
-9.2089824e-12
1.8520327e-09
8.8478599e-12
1.8525842e-09
-8.2613542e-12
1.8520559e-09
7.8453132e-12
1.8525493e-09
-7.3688197e-12
1.8520815e-09
6.9675443e-12
1.8525214e-09
-6.5646207e-12
1.8521056e-09
6.1996958e-12
1.8524978e-09
-5.8505855e-12
1.8521274e-09
5.5258453e-12
1.8524774e-09
-5.2206797e-12
1.8521466e-09
4.9343973e-12
1.8524595e-09
-4.6672073e-12
1.8521635e-09
4.4161444e-12
1.852444e-09
-4.1825466e-12
1.8521782e-09
3.9632798e-12
1.8524304e-09
-3.7596857e-12
1.8521911e-09
3.5690208e-12
1.8524186e-09
-3.3923644e-12
1.8522021e-09
3.2274503e-12
1.8524084e-09
-3.0750827e-12
1.8522117e-09
2.9334269e-12
1.8523997e-09
-2.8030631e-12
1.8522198e-09
2.6825148e-12
1.8523923e-09
-2.5721966e-12
1.8522266e-09
2.4709199e-12
1.8523862e-09
-2.378983e-12
1.8522323e-09
2.2954183e-12
1.8523811e-09
-2.2204805e-12
1.8522368e-09
2.1532655e-12
1.8523772e-09
-2.0941082e-12
1.8522403e-09
2.0427043e-12
1.8523737e-09
-1.9956631e-12
1.8522419e-09
1.9642495e-12
1.85237e-09
-1.930425e-12
1.8522498e-09
1.8434229e-12
1.8524202e-09
-2.2337113e-12
1.7446934e-12
1.9222808e-09
2.0397332e-08
2.1138175e-09
-1.1991548e-09
2.0177564e-09
1.0269517e-09
2.0201583e-09
-3.1517028e-11
2.0216047e-09
1.4885947e-11
2.0195324e-09
3.0848531e-11
2.0178816e-09
7.403953e-12
2.0177979e-09
1.1370502e-11
2.0181311e-09
-9.6200218e-12
2.0177091e-09
1.0683729e-11
2.0182658e-09
-1.05987e-11
2.0176973e-09
1.0436405e-11
2.018226e-09
-9.7377179e-12
2.0177035e-09
9.3703651e-12
2.018183e-09
-8.7408584e-12
2.0177225e-09
8.3058882e-12
2.0181519e-09
-7.7982467e-12
2.0177443e-09
7.3751404e-12
2.0181274e-09
-6.9476796e-12
2.0177652e-09
6.5618317e-12
2.0181068e-09
-6.1921147e-12
2.0177842e-09
5.8484512e-12
2.018089e-09
-5.5254935e-12
2.0178009e-09
5.2224537e-12
2.0180735e-09
-4.9397563e-12
2.0178156e-09
4.6739846e-12
2.0180599e-09
-4.4268473e-12
2.0178285e-09
4.1947344e-12
2.0180481e-09
-3.9793392e-12
2.0178396e-09
3.7775041e-12
2.0180379e-09
-3.5906007e-12
2.0178493e-09
3.4160231e-12
2.018029e-09
-3.2548082e-12
2.0178576e-09
3.1048481e-12
2.0180214e-09
-2.9669054e-12
2.0178647e-09
2.839285e-12
2.018015e-09
-2.7225438e-12
2.0178706e-09
2.6153184e-12
2.0180097e-09
-2.5180179e-12
2.0178755e-09
2.4295333e-12
2.0180053e-09
-2.3502104e-12
2.0178795e-09
2.2790107e-12
2.0180018e-09
-2.2163772e-12
2.0178826e-09
2.1618958e-12
2.0179988e-09
-2.1118264e-12
2.0178838e-09
2.0791767e-12
2.0179951e-09
-2.0417208e-12
2.0178909e-09
1.9476467e-12
2.0180434e-09
-2.3861605e-12
1.8315515e-12
2.0820499e-09
2.1263532e-08
2.2592132e-09
-1.3763181e-09
2.1752481e-09
1.1109167e-09
2.1777911e-09
-3.4059983e-11
2.1805169e-09
1.2160082e-11
2.1793347e-09
3.2030768e-11
2.177746e-09
8.9926715e-12
2.1779339e-09
1.1182572e-11
2.1781624e-09
-9.8485415e-12
2.1778644e-09
1.0981801e-11
2.1783331e-09
-1.1067486e-11
2.1778512e-09
1.091837e-11
2.1783e-09
-1.0186522e-11
2.1778529e-09
9.8174465e-12
2.178261e-09
-9.148969e-12
2.1778676e-09
8.6992758e-12
2.1782336e-09
-8.164223e-12
2.1778858e-09
7.7229518e-12
2.1782124e-09
-7.2743167e-12
2.1779035e-09
6.8707527e-12
2.1781948e-09
-6.4834116e-12
2.1779196e-09
6.1236378e-12
2.1781796e-09
-5.7855154e-12
2.1779339e-09
5.4681845e-12
2.1781664e-09
-5.1722845e-12
2.1779465e-09
4.8939618e-12
2.1781549e-09
-4.6352994e-12
2.1779574e-09
4.3922229e-12
2.1781449e-09
-4.1667809e-12
2.177967e-09
3.9554113e-12
2.1781361e-09
-3.7597822e-12
2.1779752e-09
3.5769555e-12
2.1781286e-09
-3.4082048e-12
2.1779823e-09
3.2511551e-12
2.1781222e-09
-3.1067554e-12
2.1779883e-09
2.9730968e-12
2.1781167e-09
-2.8508821e-12
2.1779934e-09
2.7385768e-12
2.1781121e-09
-2.6367043e-12
2.1779976e-09
2.544017e-12
2.1781084e-09
-2.4609541e-12
2.178001e-09
2.3863457e-12
2.1781054e-09
-2.3207469e-12
2.1780037e-09
2.2636228e-12
2.1781028e-09
-2.2109233e-12
2.1780046e-09
2.1773609e-12
2.1780993e-09
-2.1363854e-12
2.1780108e-09
2.0361051e-12
2.1781448e-09
-2.5201426e-12
1.9013732e-12
2.2019919e-09
2.2009791e-08
2.3913821e-09
-1.5657083e-09
2.3272391e-09
1.1750596e-09
2.3310522e-09
-3.7873014e-11
2.333797e-09
9.4152451e-12
2.3336111e-09
3.2216652e-11
2.3320935e-09
1.0510327e-11
2.332551e-09
1.0725032e-11
2.3326737e-09
-9.9712416e-12
2.3324969e-09
1.1158634e-11
2.3328794e-09
-1.1450061e-11
2.3324829e-09
1.131491e-11
2.332853e-09
-1.0556661e-11
2.3324805e-09
1.0189946e-11
2.3328182e-09
-9.4866785e-12
2.3324912e-09
9.0263046e-12
2.3327946e-09
-8.4676005e-12
2.3325058e-09
8.0117553e-12
2.3327768e-09
-7.5452839e-12
2.3325204e-09
7.1271639e-12
2.3327621e-09
-6.7251446e-12
2.3325337e-09
6.3520369e-12
2.3327495e-09
-6.00134e-12
2.3325455e-09
5.6721529e-12
2.3327386e-09
-5.3653207e-12
2.332556e-09
5.0765771e-12
2.332729e-09
-4.8083742e-12
2.3325651e-09
4.5561918e-12
2.3327207e-09
-4.3224317e-12
2.332573e-09
4.103142e-12
2.3327135e-09
-3.9002861e-12
2.3325798e-09
3.7106063e-12
2.3327072e-09
-3.5356125e-12
2.3325857e-09
3.3726726e-12
2.3327019e-09
-3.2229219e-12
2.3325907e-09
3.084246e-12
2.3326974e-09
-2.9574943e-12
2.332595e-09
2.8409674e-12
2.3326936e-09
-2.7353036e-12
2.3325985e-09
2.6391224e-12
2.3326905e-09
-2.5529563e-12
2.3326013e-09
2.4755093e-12
2.332688e-09
-2.4074498e-12
2.3326035e-09
2.348114e-12
2.3326858e-09
-2.2931855e-12
2.3326041e-09
2.2590128e-12
2.3326824e-09
-2.2146792e-12
2.3326094e-09
2.1090853e-12
2.3327246e-09
-2.635315e-12
1.9548449e-12
2.3506003e-09
2.260744e-08
2.5212275e-09
-1.7363356e-09
2.4734376e-09
1.2228496e-09
2.4791477e-09
-4.3583116e-11
2.4815365e-09
7.0263815e-12
2.4823659e-09
3.1387256e-11
2.480929e-09
1.1947265e-11
2.4816522e-09
1.0001885e-11
2.4816669e-09
-9.9859859e-12
2.4816073e-09
1.1218203e-11
2.4819052e-09
-1.1747901e-11
2.4815925e-09
1.1627621e-11
2.4818854e-09
-1.0849625e-11
2.4815863e-09
1.0489047e-11
2.4818549e-09
-9.7552483e-12
2.4815931e-09
9.2880801e-12
2.481835e-09
-8.7094798e-12
2.4816042e-09
8.242565e-12
2.4818205e-09
-7.7615532e-12
2.4816156e-09
7.3319779e-12
2.4818087e-09
-6.9181762e-12
2.4816262e-09
6.534463e-12
2.4817986e-09
-6.1737336e-12
2.4816357e-09
5.8350836e-12
2.4817899e-09
-5.5195464e-12
2.481644e-09
5.2224757e-12
2.4817823e-09
-4.9466785e-12
2.4816513e-09
4.6872166e-12
2.4817757e-09
-4.4468338e-12
2.4816576e-09
4.2212111e-12
2.48177e-09
-4.0125994e-12
2.4816631e-09
3.8174389e-12
2.481765e-09
-3.6374708e-12
2.4816678e-09
3.4698198e-12
2.4817607e-09
-3.3158041e-12
2.4816719e-09
3.173115e-12
2.4817571e-09
-3.0427457e-12
2.4816752e-09
2.9228414e-12
2.4817541e-09
-2.8141534e-12
2.481678e-09
2.7151758e-12
2.4817516e-09
-2.6265323e-12
2.4816803e-09
2.5468083e-12
2.4817496e-09
-2.4767844e-12
2.4816821e-09
2.4156623e-12
2.4817478e-09
-2.3589066e-12
2.4816824e-09
2.324404e-12
2.4817447e-09
-2.2769221e-12
2.4816868e-09
2.1669171e-12
2.481783e-09
-2.7314841e-12
1.9927307e-12
2.4692528e-09
2.3086437e-08
2.641154e-09
-1.9082367e-09
2.614373e-09
1.2496305e-09
2.6212803e-09
-5.0490423e-11
2.6238451e-09
4.4615727e-12
2.6255993e-09
2.9633035e-11
2.6242546e-09
1.3292049e-11
2.6252397e-09
9.0167261e-12
2.625144e-09
-9.8902578e-12
2.6251966e-09
1.116557e-11
2.625411e-09
-1.1962227e-11
2.6251799e-09
1.1858636e-11
2.6253974e-09
-1.1067051e-11
2.6251702e-09
1.0716258e-11
2.6253711e-09
-9.9561674e-12
2.6251732e-09
9.4859564e-12
2.6253549e-09
-8.8911793e-12
2.6251809e-09
8.416604e-12
2.6253436e-09
-7.9242907e-12
2.6251893e-09
7.4862891e-12
2.6253347e-09
-7.0635401e-12
2.6251972e-09
6.6718906e-12
2.6253271e-09
-6.3036139e-12
2.6252043e-09
5.9578435e-12
2.6253206e-09
-5.6357776e-12
2.6252106e-09
5.3324294e-12
2.6253149e-09
-5.0509401e-12
2.6252161e-09
4.7859864e-12
2.6253099e-09
-4.5406383e-12
2.6252209e-09
4.3102363e-12
2.6253056e-09
-4.0973068e-12
2.625225e-09
3.8980097e-12
2.6253019e-09
-3.7143078e-12
2.6252286e-09
3.5431005e-12
2.6252987e-09
-3.385882e-12
2.6252316e-09
3.240163e-12
2.6252959e-09
-3.1070759e-12
2.6252342e-09
2.9846212e-12
2.6252937e-09
-2.8736595e-12
2.6252363e-09
2.7725688e-12
2.6252918e-09
-2.6820607e-12
2.625238e-09
2.6006106e-12
2.6252903e-09
-2.5291083e-12
2.6252394e-09
2.4666182e-12
2.6252889e-09
-2.4084346e-12
2.6252394e-09
2.3738605e-12
2.625286e-09
-2.3234856e-12
2.625243e-09
2.2099694e-12
2.6253201e-09
-2.8085911e-12
2.0158491e-12
2.6095822e-09
2.3425105e-08
2.7620309e-09
-2.0606853e-09
2.7500908e-09
1.2615706e-09
2.7570281e-09
-5.7427761e-11
2.7608005e-09
6.8920072e-13
2.7633059e-09
2.7127598e-11
2.7620757e-09
1.4522251e-11
2.7633158e-09
7.7766467e-12
2.7631067e-09
-9.6811726e-12
2.7632656e-09
1.1006722e-11
2.7633974e-09
-1.2094049e-11
2.7632455e-09
1.2010534e-11
2.7633892e-09
-1.1210709e-11
2.763232e-09
1.0873386e-11
2.763367e-09
-1.0091109e-11
2.7632314e-09
9.6215165e-12
2.7633544e-09
-9.0141997e-12
2.7632358e-09
8.5352839e-12
2.7633463e-09
-8.0348291e-12
2.7632412e-09
7.5913538e-12
2.7633401e-09
-7.1624189e-12
2.7632466e-09
6.7654363e-12
2.763335e-09
-6.3920312e-12
2.7632514e-09
6.0414252e-12
2.7633306e-09
-5.714949e-12
2.7632557e-09
5.4073225e-12
2.7633267e-09
-5.1219925e-12
2.7632594e-09
4.8532913e-12
2.7633234e-09
-4.6045914e-12
2.7632627e-09
4.3709263e-12
2.7633205e-09
-4.1550795e-12
2.7632655e-09
3.9529571e-12
2.7633179e-09
-3.7667301e-12
2.7632679e-09
3.5930936e-12
2.7633158e-09
-3.4337071e-12
2.76327e-09
3.2859181e-12
2.7633139e-09
-3.1509897e-12
2.7632717e-09
3.0267919e-12
2.7633124e-09
-2.9142881e-12
2.7632732e-09
2.8117514e-12
2.7633111e-09
-2.7199762e-12
2.7632744e-09
2.6373383e-12
2.7633101e-09
-2.5648314e-12
2.7632753e-09
2.5013832e-12
2.7633091e-09
-2.4421665e-12
2.7632752e-09
2.4077574e-12
2.7633065e-09
-2.3547864e-12
2.7632778e-09
2.2386461e-12
2.7633359e-09
-2.8666998e-12
2.0250524e-12
2.7277224e-09
2.3645633e-08
2.8744159e-09
-2.2073789e-09
2.8809411e-09
1.2550454e-09
2.8868092e-09
-6.3295868e-11
2.8924051e-09
-4.9067059e-12
2.8954882e-09
2.4044507e-11
2.8943993e-09
1.5611177e-11
2.8958759e-09
6.3000228e-12
2.8955528e-09
-9.3580868e-12
2.8958125e-09
1.0747067e-11
2.8958636e-09
-1.2145183e-11
2.8957884e-09
1.2085687e-11
2.8958606e-09
-1.1282838e-11
2.8957717e-09
1.0962299e-11
2.8958426e-09
-1.016202e-11
2.8957676e-09
9.6964821e-12
2.8958336e-09
-9.0802334e-12
2.8957688e-09
8.6001619e-12
2.8958286e-09
-8.0946555e-12
2.8957714e-09
7.6485635e-12
2.8958251e-09
-7.2161277e-12
2.8957742e-09
6.8163383e-12
2.8958223e-09
-6.4401527e-12
2.8957768e-09
6.0869307e-12
2.8958199e-09
-5.7580993e-12
2.8957791e-09
5.4481373e-12
2.8958179e-09
-5.1607633e-12
2.8957812e-09
4.8900097e-12
2.8958161e-09
-4.6395241e-12
2.895783e-09
4.4040696e-12
2.8958146e-09
-4.186665e-12
2.8957845e-09
3.9829922e-12
2.8958132e-09
-3.7954137e-12
2.8957859e-09
3.6204436e-12
2.895812e-09
-3.4598942e-12
2.895787e-09
3.3109683e-12
2.8958111e-09
-3.1750502e-12
2.8957879e-09
3.0498941e-12
2.8958102e-09
-2.9365591e-12
2.8957887e-09
2.8332252e-12
2.8958095e-09
-2.7407632e-12
2.8957894e-09
2.6574617e-12
2.895809e-09
-2.5844105e-12
2.89579e-09
2.5204042e-12
2.8958083e-09
-2.4605424e-12
2.8957896e-09
2.4265134e-12
2.8958061e-09
-2.3712809e-12
2.8957913e-09
2.2533825e-12
2.8958306e-09
-2.905985e-12
2.0212107e-12
2.8608643e-09
2.3733018e-08
2.9880633e-09
-2.3345779e-09
3.0069106e-09
1.2361981e-09
3.0116057e-09
-6.7990966e-11
3.0188005e-09
-1.2101551e-11
3.0221932e-09
2.0651847e-11
3.0212599e-09
1.6544464e-11
3.0229233e-09
4.636584e-12
3.0224847e-09
-8.9194952e-12
3.022838e-09
1.0393761e-11
3.0228099e-09
-1.2117031e-11
3.0228087e-09
1.2086839e-11
3.0228117e-09
-1.1285807e-11
3.022789e-09
1.0985056e-11
3.0227979e-09
-1.0171009e-11
3.0227817e-09
9.7127319e-12
3.0227926e-09
-9.0911189e-12
3.0227798e-09
8.612932e-12
3.0227905e-09
-8.1053858e-12
3.0227797e-09
7.6594301e-12
3.0227896e-09
-7.2260957e-12
3.02278e-09
6.8259422e-12
3.0227891e-09
-6.4492472e-12
3.0227805e-09
6.0955577e-12
3.0227888e-09
-5.7663582e-12
3.022781e-09
5.4559424e-12
3.0227885e-09
-5.1682614e-12
3.0227814e-09
4.8970977e-12
3.0227882e-09
-4.6463411e-12
3.0227817e-09
4.410525e-12
3.0227879e-09
-4.1928778e-12
3.022782e-09
3.9888902e-12
3.0227877e-09
-3.8010955e-12
3.0227823e-09
3.6258536e-12
3.0227875e-09
-3.4651138e-12
3.0227825e-09
3.3159554e-12
3.0227874e-09
-3.1798715e-12
3.0227827e-09
3.0545178e-12
3.0227872e-09
-2.9410393e-12
3.0227829e-09
2.8375371e-12
3.0227871e-09
-2.7449503e-12
3.0227831e-09
2.6614932e-12
3.022787e-09
-2.5883433e-12
3.0227832e-09
2.5241681e-12
3.0227867e-09
-2.4640404e-12
3.0227827e-09
2.4305858e-12
3.0227848e-09
-2.3734592e-12
3.0227836e-09
2.2546425e-12
3.0228043e-09
-2.9267214e-12
2.005198e-12
2.9794714e-09
2.3701797e-08
3.0923106e-09
-2.447417e-09
3.1275793e-09
1.2009293e-09
3.1321231e-09
-7.2534773e-11
3.1400666e-09
-2.0045016e-11
3.1434614e-09
1.725702e-11
3.1426917e-09
1.7314142e-11
3.1444591e-09
2.8692081e-12
3.143905e-09
-8.3654304e-12
3.1443435e-09
9.9553012e-12
3.1442369e-09
-1.2010464e-11
3.1443066e-09
1.2017193e-11
3.1442428e-09
-1.1222011e-11
3.1442839e-09
1.0943935e-11
3.1442332e-09
-1.0120299e-11
3.1442736e-09
9.6722933e-12
3.1442313e-09
-9.0488136e-12
3.1442689e-09
8.5754084e-12
3.1442322e-09
-8.0687453e-12
3.1442661e-09
7.62557e-12
3.1442338e-09
-7.1938499e-12
3.1442641e-09
6.7956861e-12
3.1442355e-09
-6.4206711e-12
3.1442625e-09
6.0685871e-12
3.1442371e-09
-5.7409345e-12
3.1442611e-09
5.431881e-12
3.1442384e-09
-5.1455674e-12
3.1442599e-09
4.8755791e-12
3.1442396e-09
-4.6260117e-12
3.1442589e-09
4.3912127e-12
3.1442406e-09
-4.1745912e-12
3.144258e-09
3.9714815e-12
3.1442415e-09
-3.7845657e-12
3.1442573e-09
3.6100773e-12
3.1442423e-09
-3.4500851e-12
3.1442566e-09
3.3015673e-12
3.1442429e-09
-3.1661126e-12
3.1442561e-09
3.0412956e-12
3.1442434e-09
-2.9283372e-12
3.1442557e-09
2.8252737e-12
3.1442438e-09
-2.7331043e-12
3.1442553e-09
2.6499828e-12
3.1442442e-09
-2.5771638e-12
3.1442551e-09
2.5131969e-12
3.1442443e-09
-2.4531722e-12
3.1442544e-09
2.4204664e-12
3.1442428e-09
-2.3618408e-12
3.1442545e-09
2.2429148e-12
3.144257e-09
-2.9292737e-12
1.9778803e-12
3.1060083e-09
2.3544039e-08
3.1976752e-09
-2.539084e-09
3.2431887e-09
1.1554158e-09
3.2480911e-09
-7.7437205e-11
3.2560374e-09
-2.7991298e-11
3.2592569e-09
1.4037568e-11
3.2586896e-09
1.788142e-11
3.2604698e-09
1.0889553e-12
3.25981e-09
-7.7056318e-12
3.2603276e-09
9.437786e-12
3.2601442e-09
-1.1827141e-11
3.2602816e-09
1.187979e-11
3.2601537e-09
-1.1094109e-11
3.2602564e-09
1.0841284e-11
3.2601483e-09
-1.0012263e-11
3.2602433e-09
9.5772935e-12
3.2601499e-09
-8.9553896e-12
3.2602358e-09
8.489501e-12
3.2601536e-09
-7.9865562e-12
3.2602305e-09
7.5486873e-12
3.2601577e-09
-7.1210031e-12
3.2602263e-09
6.7270874e-12
3.2601615e-09
-6.3558574e-12
3.2602227e-09
6.0073714e-12
3.2601648e-09
-5.6831056e-12
3.2602196e-09
5.3771614e-12
3.2601678e-09
-5.0938239e-12
3.2602169e-09
4.8265364e-12
3.2601704e-09
-4.5795613e-12
3.2602145e-09
4.3471062e-12
3.2601727e-09
-4.1327291e-12
3.2602125e-09
3.9316452e-12
3.2601746e-09
-3.7466609e-12
3.2602108e-09
3.5739125e-12
3.2601762e-09
-3.4155696e-12
3.2602093e-09
3.2685327e-12
3.2601776e-09
-3.1344711e-12
3.260208e-09
3.0108976e-12
3.2601788e-09
-2.8990971e-12
3.260207e-09
2.7970566e-12
3.2601797e-09
-2.7058258e-12
3.2602062e-09
2.6235126e-12
3.2601805e-09
-2.5514373e-12
3.2602056e-09
2.4880431e-12
3.2601809e-09
-2.4284784e-12
3.2602047e-09
2.3966769e-12
3.2601799e-09
-2.3369701e-12
3.2602041e-09
2.2187098e-12
3.2601889e-09
-2.9140874e-12
1.9401068e-12
3.2244672e-09
2.3267822e-08
3.2945203e-09
-2.6091372e-09
3.3536266e-09
1.0963096e-09
3.3590814e-09
-8.289209e-11
3.3665766e-09
-3.548643e-11
3.3695695e-09
1.1044597e-11
3.3692398e-09
1.8211155e-11
3.3709462e-09
-6.1746993e-13
3.3701972e-09
-6.9566145e-12
3.3707899e-09
8.8451155e-12
3.3705318e-09
-1.1569081e-11
3.3707339e-09
1.167769e-11
3.3705447e-09
-1.0904864e-11
3.3707064e-09
1.0679578e-11
3.3705435e-09
-9.8493631e-12
3.3706908e-09
9.4299684e-12
3.3705484e-09
-8.8130022e-12
3.3706807e-09
8.3572096e-12
3.3705549e-09
-7.8607193e-12
3.370673e-09
7.4305632e-12
3.3705612e-09
-7.0092397e-12
3.3706666e-09
6.6217325e-12
3.370567e-09
-6.2563042e-12
3.3706611e-09
5.9133249e-12
3.3705722e-09
-5.5942078e-12
3.3706563e-09
5.2930477e-12
3.3705767e-09
-5.0142265e-12
3.3706521e-09
4.7511028e-12
3.3705806e-09
-4.5080637e-12
3.3706485e-09
4.2792247e-12
3.370584e-09
-4.0682593e-12
3.3706454e-09
3.8703024e-12
3.370587e-09
-3.6882576e-12
3.3706427e-09
3.5181955e-12
3.3705895e-09
-3.3623655e-12
3.3706404e-09
3.2176151e-12
3.3705916e-09
-3.0856786e-12
3.3706385e-09
2.964026e-12
3.3705934e-09