/*--------------------------------*- C++ -*----------------------------------*\
| =========                 |                                                 |
| \\      /  F ield         | OpenFOAM: The Open Source CFD Toolbox           |
|  \\    /   O peration     | Version:  2312                                  |
|   \\  /    A nd           | Website:  www.openfoam.com                      |
|    \\/     M anipulation  |                                                 |
\*---------------------------------------------------------------------------*/
FoamFile
{
    version     2.0;
    format      ascii;
    arch        "LSB;label=32;scalar=64";
    class       surfaceScalarField;
    location    "9";
    object      phi_0;
}
// * * * * * * * * * * * * * * * * * * * * * * * * * * * * * * * * * * * * * //

dimensions      [0 3 -1 0 0 0 0];

oriented        oriented;

internalField   nonuniform List<scalar> 
7870
(
1.3033107e-10
2.8179189e-09
1.3357221e-10
-3.2411426e-12
1.1283551e-10
2.0736712e-11
1.1393286e-10
-1.0973483e-12
1.1435019e-10
-4.1732614e-13
1.1287678e-10
1.4734161e-12
1.1380187e-10
-9.2509216e-13
1.1265146e-10
1.150407e-12
1.136917e-10
-1.0402413e-12
1.1267252e-10
1.019183e-12
1.1362902e-10
-9.5649774e-13
1.1271838e-10
9.106322e-13
1.1357466e-10
-8.5627339e-13
1.1276438e-10
8.1027636e-13
1.1352728e-10
-7.6290121e-13
1.1280685e-10
7.2043281e-13
1.1348593e-10
-6.7907728e-13
1.1284496e-10
6.4096578e-13
1.1344961e-10
-6.0464597e-13
1.1287879e-10
5.7081364e-13
1.1341764e-10
-5.3884817e-13
1.1290867e-10
5.0897471e-13
1.1338953e-10
-4.8086092e-13
1.1293494e-10
4.5458115e-13
1.1336485e-10
-4.2990798e-13
1.1295798e-10
4.0686862e-13
1.1334326e-10
-3.8528055e-13
1.1297811e-10
3.6515684e-13
1.1332445e-10
-3.4634047e-13
1.1299561e-10
3.2884058e-13
1.1330813e-10
-3.1251924e-13
1.1301074e-10
2.9738465e-13
1.1329406e-10
-2.833156e-13
1.1302374e-10
2.7032002e-13
1.1328203e-10
-2.5829228e-13
1.1303479e-10
2.4724002e-13
1.1327186e-10
-2.3707237e-13
1.1304407e-10
2.2779638e-13
1.132634e-10
-2.1933528e-13
1.1305171e-10
2.1169505e-13
1.1325652e-10
-2.0481293e-13
1.1305783e-10
1.9869297e-13
1.1325111e-10
-1.932821e-13
1.130625e-10
1.8860559e-13
1.1324705e-10
-1.8455179e-13
1.1306583e-10
1.8122657e-13
1.1324481e-10
-1.7897891e-13
1.130704e-10
1.7440258e-13
1.1325277e-10
-1.8236759e-13
1.6770076e-13
3.5009884e-10
5.4160701e-09
3.8141579e-10
-3.4558076e-11
3.3020458e-10
7.1947931e-11
3.3075967e-10
-1.6524226e-12
3.309557e-10
-6.1335194e-13
3.2856802e-10
3.8610978e-12
3.2948983e-10
-1.8469076e-12
3.2781102e-10
2.8292198e-12
3.292601e-10
-2.4893242e-12
3.2779649e-10
2.4827965e-12
3.2916747e-10
-2.3274834e-12
3.2785281e-10
2.2252909e-12
3.2908624e-10
-2.0897023e-12
3.2791575e-10
1.9807654e-12
3.2901617e-10
-1.8633194e-12
3.2797598e-10
1.7606232e-12
3.2895585e-10
-1.6589463e-12
3.2803071e-10
1.566108e-12
3.2890323e-10
-1.4771725e-12
3.280795e-10
1.3945487e-12
3.2885706e-10
-1.3164059e-12
3.2812264e-10
1.2433904e-12
3.2881649e-10
-1.1747103e-12
3.2816061e-10
1.1104651e-12
3.2878091e-10
-1.050208e-12
3.2819389e-10
9.9388424e-13
3.2874978e-10
-9.4116858e-13
3.2822296e-10
8.919748e-13
3.2872265e-10
-8.4602961e-13
3.2824824e-10
8.0325141e-13
3.2869912e-10
-7.6339846e-13
3.282701e-10
7.2640239e-13
3.2867883e-10
-6.9204764e-13
3.2828887e-10
6.6027935e-13
3.2866149e-10
-6.3090705e-13
3.2830484e-10
6.038874e-13
3.2864682e-10
-5.7905474e-13
3.2831824e-10
5.5637492e-13
3.2863461e-10
-5.3570694e-13
3.2832929e-10
5.1702289e-13
3.2862468e-10
-5.0020839e-13
3.2833814e-10
4.8523622e-13
3.2861687e-10
-4.7201066e-13
3.283449e-10
4.6057479e-13
3.2861095e-10
-4.5060166e-13
3.2834958e-10
4.4259177e-13
3.2860758e-10
-4.3697704e-13
3.2835733e-10
4.2465623e-13
3.2862741e-10
-4.5245336e-13
4.0839995e-13
5.6495217e-10
7.7993679e-09
6.1549957e-10
-8.5105462e-11
5.4123946e-10
1.4620805e-10
5.4217316e-10
-2.5861046e-12
5.4160371e-10
-4.3906034e-14
5.3898082e-10
6.4839977e-12
5.393144e-10
-2.1804896e-12
5.3772262e-10
4.4209966e-12
5.3902439e-10
-3.7910921e-12
5.3765512e-10
3.8520668e-12
5.389383e-10
-3.6106693e-12
5.376958e-10
3.4677908e-12
5.3885836e-10
-3.2522628e-12
5.3775079e-10
3.0883382e-12
5.3878996e-10
-2.9024879e-12
5.3780633e-10
2.7442472e-12
5.3873212e-10
-2.584732e-12
5.378577e-10
2.44053e-12
5.3868213e-10
-2.3016056e-12
5.3790376e-10
2.1729212e-12
5.3863843e-10
-2.0510751e-12
5.3794456e-10
1.9372579e-12
5.3860009e-10
-1.8302459e-12
5.3798048e-10
1.7300795e-12
5.3856649e-10
-1.6362215e-12
5.3801197e-10
1.5484063e-12
5.3853711e-10
-1.4663064e-12
5.3803947e-10
1.3896116e-12
5.385115e-10
-1.3180595e-12
5.3806338e-10
1.2513693e-12
5.3848929e-10
-1.1893042e-12
5.3808406e-10
1.1316285e-12
5.3847014e-10
-1.0781232e-12
5.3810182e-10
1.0285955e-12
5.3845376e-10
-9.8284586e-13
5.3811693e-10
9.40718e-13
5.3843991e-10
-9.0203405e-13
5.3812962e-10
8.6666778e-13
5.3842837e-10
-8.3446538e-13
5.3814007e-10
8.0532327e-13
5.3841898e-10
-7.7911805e-13
5.3814846e-10
7.5575448e-13
5.3841159e-10
-7.3513105e-13
5.3815487e-10
7.1729209e-13
5.384059e-10
-7.0162909e-13
5.3815917e-10
6.8931253e-13
5.3840262e-10
-6.8042249e-13
5.3816828e-10
6.5899241e-13
5.3843273e-10
-7.1689973e-13
6.3432901e-13
7.5610383e-10
9.9915141e-09
8.4036926e-10
-1.6937088e-10
7.4664547e-10
2.3993185e-10
7.4784646e-10
-3.7870785e-12
7.4663423e-10
1.1683194e-12
7.4377391e-10
9.3443269e-12
7.4358499e-10
-1.9915745e-12
7.4209799e-10
5.9079952e-12
7.4325895e-10
-4.9520514e-12
7.4199146e-10
5.1195549e-12
7.4318522e-10
-4.8044248e-12
7.420189e-10
4.6341081e-12
7.4310763e-10
-4.3409976e-12
7.4206634e-10
4.1296301e-12
7.4304128e-10
-3.8774309e-12
7.4211717e-10
3.6683581e-12
7.4298616e-10
-3.4537156e-12
7.4216504e-10
3.2616483e-12
7.4293895e-10
-3.0755186e-12
7.4220821e-10
2.9036576e-12
7.4289784e-10
-2.7407035e-12
7.4224653e-10
2.5885702e-12
7.4286185e-10
-2.4455606e-12
7.4228028e-10
2.3116475e-12
7.4283031e-10
-2.1862559e-12
7.4230986e-10
2.0688561e-12
7.4280274e-10
-1.9591871e-12
7.4233569e-10
1.8566591e-12
7.4277872e-10
-1.7610834e-12
7.4235815e-10
1.6719327e-12
7.4275788e-10
-1.5890277e-12
7.4237758e-10
1.5119271e-12
7.4273991e-10
-1.4404514e-12
7.4239426e-10
1.3742404e-12
7.4272454e-10
-1.313119e-12
7.4240846e-10
1.2567955e-12
7.4271153e-10
-1.2051066e-12
7.4242038e-10
1.1578162e-12
7.427007e-10
-1.1147791e-12
7.4243022e-10
1.0758019e-12
7.4269187e-10
-1.0407698e-12
7.4243812e-10
1.0095052e-12
7.4268491e-10
-9.8191885e-13
7.4244415e-10
9.5804994e-13
7.4267947e-10
-9.3694585e-13
7.4244806e-10
9.2071509e-13
7.4267615e-10
-9.0850482e-13
7.4245788e-10
8.7725401e-13
7.4271408e-10
-9.7309417e-13
8.4542885e-13
9.6493394e-10
1.197483e-08
1.0535077e-09
-2.5794462e-10
9.4567948e-10
3.4776008e-10
9.4785628e-10
-5.9638677e-12
9.4602048e-10
3.0041189e-12
9.4292844e-10
1.2436369e-11
9.4229714e-10
-1.3602725e-12
9.4093717e-10
7.2679655e-12
9.419636e-10
-5.9784837e-12
9.4080513e-10
6.278023e-12
9.4190797e-10
-5.9072616e-12
9.4082166e-10
5.7204182e-12
9.4183381e-10
-5.3531475e-12
9.40862e-10
5.1014392e-12
9.4176993e-10
-4.7853682e-12
9.4090812e-10
4.5301692e-12
9.4171777e-10
-4.2633638e-12
9.4095239e-10
4.0270308e-12
9.4167353e-10
-3.7966571e-12
9.4099256e-10
3.5846245e-12
9.4163515e-10
-3.3832971e-12
9.4102828e-10
3.1954487e-12
9.4160161e-10
-3.0188918e-12
9.4105974e-10
2.8535093e-12
9.4157224e-10
-2.6987503e-12
9.4108733e-10
2.5537623e-12
9.4154657e-10
-2.4184246e-12
9.4111142e-10
2.2918085e-12
9.415242e-10
-2.173866e-12
9.4113236e-10
2.063773e-12
9.415048e-10
-1.9614636e-12
9.4115047e-10
1.8662508e-12
9.4148806e-10
-1.77804e-12
9.4116603e-10
1.6962713e-12
9.4147374e-10
-1.6208316e-12
9.4117927e-10
1.5512678e-12
9.4146163e-10
-1.4874613e-12
9.411904e-10
1.4290462e-12
9.4145153e-10
-1.3759095e-12
9.4119958e-10
1.3277518e-12
9.4144329e-10
-1.2844865e-12
9.4120696e-10
1.2458379e-12
9.4143679e-10
-1.211749e-12
9.412126e-10
1.1822413e-12
9.4143163e-10
-1.1559751e-12
9.4121611e-10
1.1362297e-12
9.4142822e-10
-1.1206079e-12
9.4122622e-10
1.0792467e-12
9.4147195e-10
-1.2188174e-12
1.040255e-12
1.125166e-09
1.3797914e-08
1.256031e-09
-3.8880965e-10
1.1392631e-09
4.6452805e-10
1.1422594e-09
-8.9601579e-12
1.1397432e-09
5.5202735e-12
1.1364473e-09
1.5732296e-11
1.1354509e-09
-3.6390215e-13
1.134242e-09
8.4769302e-12
1.1351396e-09
-6.8761449e-12
1.1340962e-09
7.3214955e-12
1.1351072e-09
-6.9182561e-12
1.1341039e-09
6.7237031e-12
1.1350373e-09
-6.2865743e-12
1.1341375e-09
6.0012114e-12
1.1349763e-09
-5.6241023e-12
1.134179e-09
5.3274689e-12
1.1349273e-09
-5.0116745e-12
1.1342195e-09
4.7347586e-12
1.1348861e-09
-4.4632439e-12
1.1342566e-09
4.2141454e-12
1.1348506e-09
-3.9772874e-12
1.1342896e-09
3.7564209e-12
1.1348196e-09
-3.5488551e-12
1.1343187e-09
3.3543658e-12
1.1347925e-09
-3.17248e-12
1.1343443e-09
3.0019741e-12
1.1347688e-09
-2.8429314e-12
1.1343665e-09
2.6940361e-12
1.1347481e-09
-2.5554383e-12
1.1343859e-09
2.4259761e-12
1.1347302e-09
-2.3057452e-12
1.1344027e-09
2.19378e-12
1.1347147e-09
-2.0901104e-12
1.134417e-09
1.9939508e-12
1.1347015e-09
-1.9052817e-12
1.1344293e-09
1.8234686e-12
1.1346903e-09
-1.7484632e-12
1.1344396e-09
1.6797532e-12
1.134681e-09
-1.6172789e-12
1.1344481e-09
1.5606216e-12
1.1346733e-09
-1.5097401e-12
1.1344549e-09
1.4642473e-12
1.1346673e-09
-1.4241371e-12
1.1344602e-09
1.389398e-12
1.1346625e-09
-1.3582767e-12
1.1344633e-09
1.3354197e-12
1.134659e-09
-1.3162825e-12
1.1344733e-09
1.264853e-12
1.1347067e-09
-1.4521701e-12
1.2176121e-12
1.3237188e-09
1.5422445e-08
1.4484791e-09
-5.1356988e-10
1.3265175e-09
5.8648964e-10
1.3309219e-09
-1.3364534e-11
1.3277378e-09
8.7043816e-12
1.3243196e-09
1.9150515e-11
1.3230403e-09
9.154039e-13
1.3220112e-09
9.5059741e-12
1.322787e-09
-7.6519672e-12
1.3218639e-09
8.2446011e-12
1.3227831e-09
-7.8374143e-12
1.3218652e-09
7.6416372e-12
1.3227184e-09
-7.1398703e-12
1.3218926e-09
6.8270477e-12
1.3226606e-09
-6.3920747e-12
1.3219294e-09
6.0586475e-12
1.3226149e-09
-5.6972158e-12
1.3219663e-09
5.3834528e-12
1.322577e-09
-5.0740096e-12
1.3220001e-09
4.7910236e-12
1.3225444e-09
-4.5215571e-12
1.3220304e-09
4.2704395e-12
1.322516e-09
-4.0344662e-12
1.3220571e-09
3.8132945e-12
1.3224912e-09
-3.6065745e-12
1.3220805e-09
3.4126744e-12
1.3224695e-09
-3.2319345e-12
1.3221009e-09
3.0626144e-12
1.3224506e-09
-2.9051104e-12
1.3221186e-09
2.7578911e-12
1.3224342e-09
-2.6212544e-12
1.322134e-09
2.4939305e-12
1.32242e-09
-2.3761067e-12
1.3221472e-09
2.266752e-12
1.3224079e-09
-2.1659676e-12
1.3221584e-09
2.0729214e-12
1.3223976e-09
-1.9876574e-12
1.3221679e-09
1.9095044e-12
1.3223891e-09
-1.8384736e-12
1.3221757e-09
1.774017e-12
1.3223821e-09
-1.7161526e-12
1.322182e-09
1.6643724e-12
1.3223766e-09
-1.618737e-12
1.3221868e-09
1.5791861e-12
1.322372e-09
-1.5435415e-12
1.3221895e-09
1.5179727e-12
1.3223684e-09
-1.4952265e-12
1.3221993e-09
1.4340271e-12
1.3224186e-09
-1.6715549e-12
1.3768431e-12
1.4624117e-09
1.6908284e-08
1.6281478e-09
-6.7930599e-10
1.5082831e-09
7.0635441e-10
1.5137436e-09
-1.8825066e-11
1.5100658e-09
1.23822e-11
1.5065812e-09
2.2635123e-11
1.505079e-09
2.4176125e-12
1.5042509e-09
1.0334018e-11
1.504909e-09
-8.3100063e-12
1.5041092e-09
9.0444073e-12
1.5049365e-09
-8.6647871e-12
1.5041054e-09
8.4728206e-12
1.5048776e-09
-7.9121361e-12
1.504127e-09
7.5776817e-12
1.5048232e-09
-7.0882688e-12
1.5041592e-09
6.722636e-12
1.504781e-09
-6.3190551e-12
1.5041923e-09
5.9722106e-12
1.5047464e-09
-5.6281314e-12
1.5042229e-09
5.3144838e-12
1.5047168e-09
-5.0153849e-12
1.5042504e-09
4.7368298e-12
1.504691e-09
-4.4750913e-12
1.5042746e-09
4.2297026e-12
1.5046685e-09
-4.0004737e-12
1.5042958e-09
3.7853379e-12
1.5046488e-09
-3.584936e-12
1.5043144e-09
3.3970751e-12
1.5046317e-09
-3.2224374e-12
1.5043305e-09
3.0590984e-12
1.5046168e-09
-2.9075916e-12
1.5043444e-09
2.7663242e-12
1.504604e-09
-2.6356689e-12
1.5043564e-09
2.5143339e-12
1.504593e-09
-2.4025637e-12
1.5043666e-09
2.2993173e-12
1.5045837e-09
-2.2047488e-12
1.5043752e-09
2.1180194e-12
1.5045759e-09
-2.0392254e-12
1.5043823e-09
1.9676825e-12
1.5045696e-09
-1.9034796e-12
1.504388e-09
1.8459803e-12
1.5045646e-09
-1.7953263e-12
1.5043924e-09
1.7513915e-12
1.5045604e-09
-1.7115757e-12
1.5043947e-09
1.6836865e-12
1.5045567e-09
-1.6572638e-12
1.504404e-09
1.5867886e-12
1.5046081e-09
-1.8756398e-12
1.5177036e-12
1.644326e-09
1.8212208e-08
1.8002091e-09
-8.3518907e-10
1.6835405e-09
8.2302305e-10
1.6895219e-09
-2.4806501e-11
1.6865185e-09
1.538559e-11
1.6831958e-09
2.5957851e-11
1.6815611e-09
4.0522875e-12
1.6809599e-09
1.0935261e-11
1.6815057e-09
-8.8558754e-12
1.6808315e-09
9.7186362e-12
1.6815678e-09
-9.4010605e-12
1.6808242e-09
9.216409e-12
1.6815151e-09
-8.6030231e-12
1.6808404e-09
8.2523581e-12
1.6814643e-09
-7.7121636e-12
1.6808681e-09
7.3188318e-12
1.6814258e-09
-6.8767007e-12
1.6808974e-09
6.5005455e-12
1.6813945e-09
-6.1251768e-12
1.6809248e-09
5.7841182e-12
1.6813678e-09
-5.4583947e-12
1.6809494e-09
5.1552418e-12
1.6813447e-09
-4.8704015e-12
1.6809712e-09
4.6032844e-12
1.6813246e-09
-4.3538877e-12
1.6809902e-09
4.1196939e-12
1.681307e-09
-3.9016775e-12
1.6810069e-09
3.6971759e-12
1.6812916e-09
-3.5071875e-12
1.6810213e-09
3.3293799e-12
1.6812783e-09
-3.1645482e-12
1.6810338e-09
3.0107646e-12
1.6812668e-09
-2.8686085e-12
1.6810446e-09
2.7365184e-12
1.6812569e-09
-2.6148997e-12
1.6810538e-09
2.502495e-12
1.6812486e-09
-2.3995832e-12
1.6810615e-09
2.3051522e-12
1.6812416e-09
-2.2193947e-12
1.6810678e-09
2.1414861e-12
1.6812359e-09
-2.0715952e-12
1.681073e-09
2.0089525e-12
1.6812314e-09
-1.9537924e-12
1.6810769e-09
1.9059071e-12
1.6812276e-09
-1.8622892e-12
1.6810789e-09
1.8324577e-12
1.6812239e-09
-1.802328e-12
1.6810875e-09
1.7232168e-12
1.6812752e-09
-2.0633291e-12
1.6402386e-12
1.7738749e-09
1.9386583e-08
1.9606834e-09
-1.0219976e-09
1.8537048e-09
9.3000167e-10
1.8578416e-09
-2.8943297e-11
1.8569731e-09
1.6254142e-11
1.8541628e-09
2.8768152e-11
1.8524893e-09
5.72578e-12
1.8521403e-09
1.1284246e-11
1.852579e-09
-9.2945857e-12
1.8520313e-09
1.0266323e-11
1.8526774e-09
-1.0047111e-11
1.8520216e-09
9.8722193e-12
1.8526311e-09
-9.2125972e-12
1.8520327e-09
8.8508182e-12
1.8525842e-09
-8.263667e-12
1.8520559e-09
7.8470585e-12
1.8525493e-09
-7.3700533e-12
1.8520815e-09
6.9683437e-12
1.8525214e-09
-6.5650616e-12
1.8521057e-09
6.1998476e-12
1.8524978e-09
-5.8505179e-12
1.8521274e-09
5.525615e-12
1.8524773e-09
-5.2203398e-12
1.8521466e-09
4.9339894e-12
1.8524595e-09
-4.6667667e-12
1.8521635e-09
4.415698e-12
1.852444e-09
-4.1821144e-12
1.8521783e-09
3.9628763e-12
1.8524304e-09
-3.7593198e-12
1.8521911e-09
3.5686979e-12
1.8524186e-09
-3.3920861e-12
1.8522022e-09
3.2272163e-12
1.8524084e-09
-3.0748906e-12
1.8522117e-09
2.9332734e-12
1.8523997e-09
-2.802944e-12
1.8522198e-09
2.6824257e-12
1.8523923e-09
-2.572133e-12
1.8522266e-09
2.4708777e-12
1.8523862e-09
-2.3789582e-12
1.8522323e-09
2.2954073e-12
1.8523811e-09
-2.2204804e-12
1.8522368e-09
2.1532736e-12
1.8523772e-09
-2.0941225e-12
1.8522403e-09
2.0427229e-12
1.8523737e-09
-1.9956848e-12
1.8522419e-09
1.9642733e-12
1.85237e-09
-1.93045e-12
1.8522498e-09
1.8434483e-12
1.8524202e-09
-2.2337416e-12
1.7447142e-12
1.9424778e-09
2.0392355e-08
2.1158414e-09
-1.1953612e-09
2.0176174e-09
1.0282257e-09
2.02014e-09
-3.1465884e-11
2.0215964e-09
1.4797752e-11
2.0195259e-09
3.0838604e-11
2.0178802e-09
7.3715404e-12
2.0177974e-09
1.1367072e-11
2.018131e-09
-9.6282175e-12
2.017709e-09
1.0688297e-11
2.0182658e-09
-1.0603876e-11
2.0176973e-09
1.0440676e-11
2.018226e-09
-9.7413012e-12
2.0177036e-09
9.3732508e-12
2.018183e-09
-8.7430748e-12
2.0177225e-09
8.3075246e-12
2.0181518e-09
-7.7993659e-12
2.0177444e-09
7.3758275e-12
2.0181273e-09
-6.9480143e-12
2.0177653e-09
6.561887e-12
2.0181067e-09
-6.1919616e-12
2.0177842e-09
5.8481476e-12
2.0180889e-09
-5.5250922e-12
2.0178009e-09
5.2219961e-12
2.0180734e-09
-4.9392765e-12
2.0178156e-09
4.6735085e-12
2.0180599e-09
-4.4263933e-12
2.0178285e-09
4.1943161e-12
2.0180481e-09
-3.9789638e-12
2.0178396e-09
3.7771762e-12
2.0180379e-09
-3.5903207e-12
2.0178493e-09
3.41579e-12
2.018029e-09
-3.2546187e-12
2.0178576e-09
3.1046983e-12
2.0180214e-09
-2.9667906e-12
2.0178647e-09
2.8392004e-12
2.018015e-09
-2.7224848e-12
2.0178706e-09
2.6152805e-12
2.0180097e-09
-2.5179972e-12
2.0178755e-09
2.429526e-12
2.0180053e-09
-2.3502136e-12
2.0178795e-09
2.2790216e-12
2.0180018e-09
-2.2163939e-12
2.0178826e-09
2.1619166e-12
2.0179988e-09
-2.1118499e-12
2.0178838e-09
2.079202e-12
2.0179951e-09
-2.0417471e-12
2.0178909e-09
1.9476732e-12
2.0180434e-09
-2.3861923e-12
1.8315726e-12
2.0643634e-09
2.1276242e-08
2.2570794e-09
-1.3880771e-09
2.1753631e-09
1.109942e-09
2.1778019e-09
-3.390464e-11
2.1805099e-09
1.2089779e-11
2.1793315e-09
3.2017011e-11
2.1777449e-09
8.9581395e-12
2.1779334e-09
1.1178509e-11
2.1781623e-09
-9.8570613e-12
2.1778643e-09
1.0986278e-11
2.1783331e-09
-1.1072684e-11
2.1778512e-09
1.0922557e-11
2.1782999e-09
-1.0190007e-11
2.177853e-09
9.8202067e-12
2.178261e-09
-9.15105e-12
2.1778677e-09
8.7007762e-12
2.1782335e-09
-8.1652108e-12
2.1778859e-09
7.7235179e-12
2.1782124e-09
-7.2745427e-12
2.1779036e-09
6.8707138e-12
2.1781948e-09
-6.4831788e-12
2.1779197e-09
6.1232689e-12
2.1781796e-09
-5.7850621e-12
2.1779339e-09
5.4676871e-12
2.1781664e-09
-5.1717751e-12
2.1779465e-09
4.8934652e-12
2.1781549e-09
-4.6348322e-12
2.1779574e-09
4.3917972e-12
2.1781449e-09
-4.1664027e-12
2.177967e-09
3.955084e-12
2.1781361e-09
-3.7595051e-12
2.1779752e-09
3.5767268e-12
2.1781286e-09
-3.4080206e-12
2.1779823e-09
3.2510111e-12
2.1781222e-09
-3.1066464e-12
2.1779883e-09
2.9730178e-12
2.1781167e-09
-2.8508284e-12
2.1779934e-09
2.7385436e-12
2.1781121e-09
-2.6366877e-12
2.1779976e-09
2.5440133e-12
2.1781084e-09
-2.4609604e-12
2.178001e-09
2.3863592e-12
2.1781054e-09
-2.3207657e-12
2.1780037e-09
2.2636453e-12
2.1781028e-09
-2.2109482e-12
2.1780046e-09
2.1773873e-12
2.1780993e-09
-2.1364126e-12
2.1780108e-09
2.0361323e-12
2.1781448e-09
-2.5201754e-12
1.9013943e-12
2.2181089e-09
2.2006383e-08
2.3936553e-09
-1.5636236e-09
2.327158e-09
1.1764393e-09
2.3310441e-09
-3.7790758e-11
2.3337913e-09
9.342529e-12
2.3336062e-09
3.220211e-11
2.3320923e-09
1.0472064e-11
2.3325506e-09
1.0720225e-11
2.3326735e-09
-9.9799394e-12
2.3324968e-09
1.1162906e-11
2.3328794e-09
-1.1455195e-11
2.332483e-09
1.131894e-11
2.332853e-09
-1.0559995e-11
2.3324806e-09
1.019254e-11
2.3328182e-09
-9.4885972e-12
2.3324913e-09
9.0276526e-12
2.3327945e-09
-8.4684487e-12
2.3325059e-09
8.012199e-12
2.3327767e-09
-7.5454048e-12
2.3325204e-09
7.1270379e-12
2.3327621e-09
-6.7248414e-12
2.3325337e-09
6.3516134e-12
2.3327495e-09
-6.0008455e-12
2.3325456e-09
5.6716263e-12
2.3327386e-09
-5.3647919e-12
2.332556e-09
5.0760691e-12
2.332729e-09
-4.8079017e-12
2.3325651e-09
4.5557657e-12
2.3327207e-09
-4.3220564e-12
2.332573e-09
4.1028199e-12
2.3327135e-09
-3.9000157e-12
2.3325798e-09
3.710385e-12
2.3327073e-09
-3.5354358e-12
2.3325857e-09
3.3725359e-12
2.3327019e-09
-3.2228198e-12
2.3325907e-09
3.0841733e-12
2.3326974e-09
-2.957446e-12
2.332595e-09
2.840939e-12
2.3326936e-09
-2.735291e-12
2.3325985e-09
2.6391221e-12
2.3326905e-09
-2.5529653e-12
2.3326013e-09
2.475525e-12
2.332688e-09
-2.4074704e-12
2.3326035e-09
2.3481378e-12
2.3326858e-09
-2.2932114e-12
2.3326041e-09
2.25904e-12
2.3326824e-09
-2.214707e-12
2.3326094e-09
2.1091129e-12
2.3327246e-09
-2.6353485e-12
1.9548658e-12
2.3367365e-09
2.2617896e-08
2.5188804e-09
-1.7457674e-09
2.4734951e-09
1.2218247e-09
2.4791662e-09
-4.3461848e-11
2.4815316e-09
6.9771125e-12
2.4823645e-09
3.1369188e-11
2.4809284e-09
1.1908189e-11
2.4816519e-09
9.9967085e-12
2.4816666e-09
-9.9946733e-12
2.4816074e-09
1.1222177e-11
2.4819051e-09
-1.1752895e-11
2.4815926e-09
1.1631436e-11
2.4818853e-09
-1.0852767e-11
2.4815864e-09
1.0491448e-11
2.4818548e-09
-9.7569889e-12
2.4815932e-09
9.2892689e-12
2.4818349e-09
-8.7101883e-12
2.4816042e-09
8.2428915e-12
2.4818204e-09
-7.7615774e-12
2.4816157e-09
7.3317754e-12
2.4818086e-09
-6.9178142e-12
2.4816263e-09
6.5339966e-12
2.4817986e-09
-6.1732095e-12
2.4816357e-09
5.8345385e-12
2.4817899e-09
-5.5190078e-12
2.481644e-09
5.2219648e-12
2.4817823e-09
-4.9462081e-12
2.4816513e-09
4.6867961e-12
2.4817757e-09
-4.4464663e-12
2.4816576e-09
4.2208981e-12
2.48177e-09
-4.0123385e-12
2.4816631e-09
3.8172272e-12
2.481765e-09
-3.6373031e-12
2.4816678e-09
3.4696914e-12
2.4817607e-09
-3.3157094e-12
2.4816718e-09
3.1730487e-12
2.4817571e-09
-3.042703e-12
2.4816752e-09
2.9228177e-12
2.4817541e-09
-2.8141447e-12
2.481678e-09
2.7151785e-12
2.4817516e-09
-2.6265437e-12
2.4816803e-09
2.5468258e-12
2.4817496e-09
-2.4768064e-12
2.4816821e-09
2.4156871e-12
2.4817478e-09
-2.3589332e-12
2.4816824e-09
2.3244315e-12
2.4817447e-09
-2.2769501e-12
2.4816868e-09
2.1669449e-12
2.481783e-09
-2.7315178e-12
1.9927512e-12
2.481466e-09
2.308468e-08
2.643579e-09
-1.9078804e-09
2.6143373e-09
1.2510665e-09
2.621276e-09
-5.0400565e-11
2.6238413e-09
4.4117771e-12
2.6255962e-09
2.9614267e-11
2.624254e-09
1.3250464e-11
2.6252395e-09
9.0111266e-12
2.6251437e-09
-9.8988255e-12
2.6251967e-09
1.116918e-11
2.6254108e-09
-1.1967014e-11
2.6251801e-09
1.1862195e-11
2.6253973e-09
-1.1069977e-11
2.6251703e-09
1.071845e-11
2.625371e-09
-9.9577246e-12
2.6251733e-09
9.4869872e-12
2.6253548e-09
-8.8917546e-12
2.6251809e-09
8.4168232e-12
2.6253436e-09
-7.92423e-12
2.6251893e-09
7.4860231e-12
2.6253346e-09
-7.0631323e-12
2.6251972e-09
6.6713939e-12
2.6253271e-09
-6.3030717e-12
2.6252043e-09
5.9572903e-12
2.6253206e-09
-5.6352382e-12
2.6252106e-09
5.3319232e-12
2.6253149e-09
-5.0504779e-12
2.6252161e-09
4.7855766e-12
2.6253099e-09
-4.5402824e-12
2.6252209e-09
4.3099355e-12
2.6253056e-09
-4.0970576e-12
2.625225e-09
3.8978089e-12
2.6253019e-09
-3.7141501e-12
2.6252286e-09
3.542981e-12
2.6252987e-09
-3.3857949e-12
2.6252316e-09
3.2401033e-12
2.6252959e-09
-3.1070385e-12
2.6252342e-09
2.9846018e-12
2.6252937e-09
-2.8736542e-12
2.6252363e-09
2.7725741e-12
2.6252918e-09
-2.6820741e-12
2.625238e-09
2.6006296e-12
2.6252903e-09
-2.5291312e-12
2.6252394e-09
2.4666435e-12
2.6252889e-09
-2.4084615e-12
2.6252394e-09
2.3738881e-12
2.625286e-09
-2.3235135e-12
2.625243e-09
2.209997e-12
2.6253201e-09
-2.8086248e-12
2.0158689e-12
2.599377e-09
2.3433553e-08
2.7595628e-09
-2.0680662e-09
2.7500902e-09
1.260539e-09
2.7570357e-09
-5.7346095e-11
2.7607945e-09
6.5302438e-13
2.7633058e-09
2.7103022e-11
2.7620757e-09
1.4480527e-11
2.7633158e-09
7.771064e-12
2.7631064e-09
-9.6894789e-12
2.7632657e-09
1.1009917e-11
2.7633972e-09
-1.2098584e-11
2.7632456e-09
1.2013811e-11
2.763389e-09
-1.1213406e-11
2.7632321e-09
1.0875365e-11
2.7633669e-09
-1.0092486e-11
2.7632315e-09
9.6223975e-12
2.7633544e-09
-9.0146531e-12
2.7632358e-09
8.5354091e-12
2.7633463e-09
-8.0346976e-12
2.7632412e-09
7.5910383e-12
2.7633401e-09
-7.1619785e-12
2.7632466e-09
6.7649214e-12
2.763335e-09
-6.3914816e-12
2.7632514e-09
6.0408731e-12
2.7633306e-09
-5.7144166e-12
2.7632557e-09
5.4068274e-12
2.7633267e-09
-5.1215438e-12
2.7632594e-09
4.852896e-12
2.7633234e-09
-4.6042502e-12
2.7632627e-09
4.3706396e-12
2.7633205e-09
-4.1548434e-12
2.7632655e-09
3.9527682e-12
2.7633179e-09
-3.7665828e-12
2.7632679e-09
3.592983e-12
2.7633158e-09
-3.4336275e-12
2.76327e-09
3.2858645e-12
2.7633139e-09
-3.1509572e-12
2.7632717e-09
3.0267763e-12
2.7633124e-09
-2.9142858e-12
2.7632732e-09
2.811759e-12
2.7633111e-09
-2.7199911e-12
2.7632744e-09
2.6373583e-12
2.7633101e-09
-2.5648549e-12
2.7632753e-09
2.5014088e-12
2.7633091e-09
-2.4421934e-12
2.7632752e-09
2.4077849e-12
2.7633065e-09
-2.3548141e-12
2.7632778e-09
2.2386733e-12
2.7633359e-09
-2.8667332e-12
2.0250715e-12
2.7362952e-09
2.3645508e-08
2.8769249e-09
-2.2086959e-09
2.8809412e-09
1.2565227e-09
2.8867938e-09
-6.3198677e-11
2.892402e-09
-4.9551698e-12
2.8954865e-09
2.4018518e-11
2.8943992e-09
1.5567906e-11
2.8958758e-09
6.2944423e-12
2.8955524e-09
-9.3661425e-12
2.8958126e-09
1.0749801e-11
2.8958634e-09
-1.2149439e-11
2.8957886e-09
1.2088669e-11
2.8958605e-09
-1.1285304e-11
2.8957718e-09
1.0964068e-11
2.8958425e-09
-1.0163227e-11
2.8957677e-09
9.6972264e-12
2.8958336e-09
-9.0805798e-12
2.8957688e-09
8.6002089e-12
2.8958286e-09
-8.0944683e-12
2.8957714e-09
7.6482128e-12
2.8958251e-09
-7.2156676e-12
2.8957742e-09
6.8158166e-12
2.8958223e-09
-6.4396055e-12
2.8957768e-09
6.0863879e-12
2.89582e-09
-5.7575804e-12
2.8957791e-09
5.4476585e-12
2.8958179e-09
-5.1603318e-12
2.8957812e-09
4.8896319e-12
2.8958161e-09
-4.6391996e-12
2.895783e-09
4.4037984e-12
2.8958146e-09
-4.1864428e-12
2.8957845e-09
3.9828156e-12
2.8958132e-09
-3.7952769e-12
2.8957859e-09
3.6203418e-12
2.895812e-09
-3.4598218e-12
2.895787e-09
3.3109205e-12
2.8958111e-09
-3.1750223e-12
2.8957879e-09
3.049882e-12
2.8958102e-09
-2.9365592e-12
2.8957887e-09
2.8332345e-12
2.8958095e-09
-2.7407793e-12
2.8957894e-09
2.6574823e-12
2.895809e-09
-2.5844343e-12
2.89579e-09
2.5204298e-12
2.8958083e-09
-2.460569e-12
2.8957896e-09
2.4265404e-12
2.8958061e-09
-2.3713081e-12
2.8957913e-09
2.2534092e-12
2.8958306e-09
-2.9060178e-12
2.0212291e-12
2.8542044e-09
2.3739554e-08
2.9855072e-09
-2.3399987e-09
3.0068463e-09
1.2351837e-09
3.0115984e-09
-6.7950803e-11
3.0187941e-09
-1.2150877e-11
3.0221941e-09
2.0618575e-11
3.0212603e-09
1.6501699e-11
3.0229233e-09
4.6314353e-12
3.0224844e-09
-8.9272358e-12
3.0228382e-09
1.0396016e-11
3.0228097e-09
-1.2120995e-11
3.0228089e-09
1.2089525e-11
3.0228116e-09
-1.1288052e-11
3.022789e-09
1.0986628e-11
3.0227979e-09
-1.0172061e-11
3.0227817e-09
9.7133561e-12
3.0227925e-09
-9.0913748e-12
3.0227798e-09
8.6129168e-12
3.0227905e-09
-8.1051579e-12
3.0227797e-09
7.6590577e-12
3.0227896e-09
-7.2256276e-12
3.02278e-09
6.8254237e-12
3.0227891e-09
-6.4487105e-12
3.0227805e-09
6.0950308e-12
3.0227888e-09
-5.765858e-12
3.0227809e-09
5.4554837e-12
3.0227885e-09
-5.1678501e-12
3.0227814e-09
4.8967393e-12
3.0227882e-09
-4.6460346e-12
3.0227817e-09
4.41027e-12
3.0227879e-09
-4.1926699e-12
3.022782e-09
3.9887257e-12
3.0227877e-09
-3.8009689e-12
3.0227823e-09
3.6257602e-12
3.0227875e-09
-3.4650481e-12
3.0227825e-09
3.3159128e-12
3.0227874e-09
-3.1798476e-12
3.0227827e-09
3.0545086e-12
3.0227872e-09
-2.9410415e-12
3.0227829e-09
2.8375477e-12
3.0227871e-09
-2.7449671e-12
3.0227831e-09
2.6615142e-12
3.022787e-09
-2.5883671e-12
3.0227832e-09
2.5241934e-12
3.0227867e-09
-2.4640665e-12
3.0227827e-09
2.4306123e-12
3.0227848e-09
-2.3734857e-12
3.0227836e-09
2.2546684e-12
3.0228043e-09
-2.9267535e-12
2.0052156e-12
2.9844088e-09
2.3703395e-08
3.0947857e-09
-2.4503756e-09
3.1276043e-09
1.2023651e-09
3.1321105e-09
-7.2456937e-11
3.1400661e-09
-2.0106474e-11
3.1434614e-09
1.7223248e-11
3.142692e-09
1.7271043e-11
3.144459e-09
2.8645142e-12
3.1439047e-09
-8.372948e-12
3.1443436e-09
9.9570688e-12
3.1442368e-09
-1.2014138e-11
3.1443067e-09
1.2019592e-11
3.1442427e-09
-1.1224049e-11
3.144284e-09
1.0945326e-11
3.1442331e-09
-1.0121214e-11
3.1442737e-09
9.6728155e-12
3.1442313e-09
-9.0489961e-12
3.1442689e-09
8.5753469e-12
3.1442322e-09
-8.0684905e-12
3.1442661e-09
7.6251881e-12
3.1442338e-09
-7.1933841e-12
3.1442641e-09
6.7951791e-12
3.1442355e-09
-6.4201517e-12
3.1442625e-09
6.0680812e-12
3.1442371e-09
-5.7404569e-12
3.1442611e-09
5.4314453e-12
3.1442384e-09
-5.1451782e-12
3.1442599e-09
4.8752413e-12
3.1442396e-09
-4.6257238e-12
3.1442589e-09
4.3909741e-12
3.1442406e-09
-4.1743973e-12
3.144258e-09
3.9713289e-12
3.1442415e-09
-3.7844489e-12
3.1442573e-09
3.6099917e-12
3.1442423e-09
-3.4500256e-12
3.1442566e-09
3.3015295e-12
3.1442429e-09
-3.1660922e-12
3.1442561e-09
3.0412889e-12
3.1442434e-09
-2.928341e-12
3.1442557e-09
2.8252853e-12
3.1442438e-09
-2.7331215e-12
3.1442553e-09
2.6500038e-12
3.1442442e-09
-2.5771872e-12
3.1442551e-09
2.5132216e-12
3.1442443e-09
-2.4531976e-12
3.1442544e-09
2.4204921e-12
3.1442428e-09
-2.3618664e-12
3.1442545e-09
2.2429397e-12
3.144257e-09
-2.9293049e-12
1.9778971e-12
3.102723e-09
2.3548922e-08
3.1950984e-09
-2.542751e-09
3.2430654e-09
1.1543981e-09
3.2480817e-09
-7.7473277e-11
3.2560321e-09
-2.8056804e-11
3.2592584e-09
1.3996908e-11
3.25869e-09
1.7839442e-11
3.2604697e-09
1.0848418e-12
3.2598097e-09
-7.712961e-12
3.2603277e-09
9.4390898e-12
3.2601441e-09
-1.1830536e-11
3.2602817e-09
1.1881917e-11
3.2601536e-09
-1.1095959e-11
3.2602565e-09
1.0842513e-11
3.2601483e-09
-1.001306e-11
3.2602434e-09
9.5777322e-12
3.2601499e-09
-8.955515e-12
3.2602358e-09
8.489408e-12
3.2601536e-09
-7.986287e-12
3.2602305e-09
7.5483062e-12
3.2601577e-09
-7.120548e-12
3.2602263e-09
6.7265986e-12
3.2601615e-09
-6.3553604e-12
3.2602227e-09
6.0068902e-12
3.2601649e-09
-5.6826532e-12
3.2602196e-09
5.3767503e-12
3.2601678e-09
-5.0934577e-12
3.2602169e-09
4.8262196e-12
3.2601704e-09
-4.579292e-12
3.2602145e-09
4.3468837e-12
3.2601727e-09
-4.1325489e-12
3.2602125e-09
3.931504e-12
3.2601746e-09
-3.7465533e-12
3.2602108e-09
3.5738342e-12
3.2601762e-09
-3.4155157e-12
3.2602093e-09
3.268499e-12
3.2601776e-09
-3.1344537e-12
3.260208e-09
3.0108928e-12
3.2601788e-09
-2.8991021e-12
3.260207e-09
2.7970687e-12
3.2601797e-09
-2.705843e-12
3.2602062e-09
2.6235333e-12
3.2601805e-09
-2.5514602e-12
3.2602056e-09
2.4880672e-12
3.2601809e-09
-2.428503e-12
3.2602047e-09
2.3967016e-12
3.2601799e-09
-2.3369947e-12
3.2602041e-09
2.2187338e-12
3.2601889e-09
-2.9141174e-12
1.9401227e-12
3.2259302e-09
2.3271242e-08
3.2968898e-09
-2.6137105e-09
3.3536766e-09
1.0976113e-09
3.3590714e-09
-8.2868103e-11
3.3665766e-09
-3.5562002e-11
3.3695702e-09
1.1003294e-11
3.36924e-09
1.8169679e-11
3.370946e-09
-6.2114048e-13
3.3701969e-09
-6.9638883e-12
3.37079e-09
8.8460002e-12
3.3705317e-09
-1.1572215e-11
3.370734e-09
1.1679567e-11
3.3705446e-09
-1.0906546e-11
3.3707064e-09
1.0680667e-11
3.3705434e-09
-9.8500603e-12
3.3706908e-09
9.4303409e-12
3.3705484e-09
-8.8130855e-12
3.3706807e-09
8.3570978e-12
3.3705549e-09
-7.8604463e-12
3.370673e-09
7.4301915e-12
3.3705612e-09
-7.0088018e-12
3.3706666e-09
6.6212668e-12
3.370567e-09
-6.2558331e-12
3.3706611e-09
5.9128709e-12
3.3705722e-09
-5.5937822e-12
3.3706563e-09
5.2926621e-12
3.3705767e-09
-5.0138838e-12
3.3706521e-09
4.7508069e-12
3.3705806e-09
-4.5078127e-12
3.3706485e-09
4.2790179e-12
3.370584e-09
-4.0680922e-12
3.3706454e-09
3.8701718e-12
3.370587e-09
-3.6881585e-12
3.3706427e-09
3.5181239e-12
3.3705895e-09
-3.3623166e-12
3.3706404e-09
3.2175851e-12
3.3705916e-09
-3.0856636e-12
3.3706385e-09
2.9640229e-12
3.3705934e-09