/*--------------------------------*- C++ -*----------------------------------*\
| =========                 |                                                 |
| \\      /  F ield         | OpenFOAM: The Open Source CFD Toolbox           |
|  \\    /   O peration     | Version:  2312                                  |
|   \\  /    A nd           | Website:  www.openfoam.com                      |
|    \\/     M anipulation  |                                                 |
\*---------------------------------------------------------------------------*/
FoamFile
{
    version     2.0;
    format      ascii;
    arch        "LSB;label=32;scalar=64";
    class       volScalarField;
    location    "9";
    object      T;
}
// * * * * * * * * * * * * * * * * * * * * * * * * * * * * * * * * * * * * * //

dimensions      [0 0 0 1 0 0 0];

internalField   nonuniform List<scalar> 
4000
(
329.77597
328.57775
328.38966
328.311
328.25498
328.20246
328.16175
328.11861
328.08414
328.04549
328.01392
327.97793
327.94802
327.91382
327.88496
327.85203
327.82388
327.7919
327.76427
327.73301
327.70577
327.67508
327.64814
327.6179
327.5912
327.56134
327.53483
327.50527
327.47894
327.44962
327.42345
327.39433
327.36829
327.33933
327.31342
327.28459
327.25881
327.23008
327.20442
327.17576
327.15023
327.12161
327.09622
327.0676
327.04237
327.01371
326.98869
326.95989
326.93526
326.90569
331.851
329.79117
329.28586
329.10206
328.98633
328.88106
328.81111
328.73396
328.68271
328.61899
328.57644
328.52072
328.48313
328.43276
328.39834
328.35177
328.3195
328.27576
328.24505
328.20348
328.17392
328.13406
328.1054
328.06691
328.03898
328.00158
327.97426
327.93776
327.91096
327.87519
327.84884
327.81368
327.78775
327.75307
327.72753
327.69324
327.66807
327.63407
327.60928
327.57549
327.55108
327.51741
327.49341
327.45976
327.43625
327.40247
327.37959
327.34538
327.32369
327.28725
333.17208
330.96707
330.17533
329.88915
329.71479
329.55755
329.45851
329.34776
329.27973
329.1912
329.13763
329.06236
329.01706
328.95066
328.91063
328.85054
328.8141
328.75871
328.72486
328.67306
328.64115
328.59219
328.56178
328.51508
328.48589
328.44102
328.41284
328.36946
328.34215
328.29999
328.27344
328.23227
328.20642
328.16606
328.14086
328.10113
328.07656
328.03732
328.01337
327.97448
327.95117
327.91248
327.88987
327.8512
327.82939
327.79052
327.76975
327.73017
327.71135
327.66835
334.06829
332.07003
331.04708
330.66633
330.4362
330.22889
330.1014
329.95796
329.87331
329.76056
329.69598
329.60159
329.54853
329.46643
329.42072
329.34737
329.3067
329.23985
329.2028
329.14095
329.10662
329.0487
329.01649
328.96171
328.9312
328.87897
328.84988
328.79971
328.77185
328.72337
328.69658
328.64948
328.62367
328.57768
328.55279
328.50769
328.48368
328.43926
328.41612
328.37218
328.34994
328.30628
328.28501
328.24139
328.22124
328.17732
328.15863
328.11373
328.09771
328.04855
334.70442
333.06997
331.88688
331.42546
331.14487
330.89089
330.73632
330.56179
330.46096
330.32497
330.24955
330.1367
330.07592
329.97862
329.92723
329.84101
329.79606
329.71808
329.67778
329.60614
329.56933
329.50268
329.4686
329.40593
329.37405
329.31461
329.28457
329.22775
329.19928
329.14461
329.11753
329.06461
329.0388
328.98729
328.96267
328.91228
328.88879
328.83926
328.8169
328.76798
328.74678
328.69821
328.67825
328.62974
328.61121
328.56233
328.54565
328.49555
328.48215
328.42735
335.16966
333.94459
332.67943
332.15681
331.83387
331.53837
331.35906
331.15578
331.03967
330.88183
330.79596
330.66563
330.59731
330.48552
330.42851
330.32997
330.28076
330.19209
330.14852
330.06745
330.02813
329.95305
329.91706
329.84676
329.81347
329.74704
329.71599
329.65272
329.6236
329.5629
329.53549
329.4769
329.45104
329.39415
329.36974
329.31419
329.29118
329.23666
329.21503
329.16125
329.14102
329.08766
329.06895
329.01566
328.99867
328.94495
328.93018
328.87506
328.86406
328.80414
335.51815
334.68324
333.41053
332.85001
332.4955
332.16542
331.96479
331.73598
331.60595
331.42818
331.33252
331.186
331.11048
330.98515
330.92271
330.81257
330.75918
330.66039
330.61359
330.52356
330.48174
330.39861
330.3607
330.2831
330.24836
330.17523
330.14315
330.07366
330.04386
329.97736
329.94957
329.8855
329.85955
329.79745
329.77322
329.71267
329.69008
329.63073
329.60977
329.55127
329.53196
329.47395
329.45641
329.39849
329.38296
329.32457
329.31159
329.25166
329.2428
329.17831
335.78336
335.28388
334.06877
333.49509
333.12191
332.76579
332.54835
332.29803
332.15603
331.96072
331.85628
331.69517
331.61302
331.47531
331.40776
331.28692
331.22955
331.12135
331.07143
330.97301
330.92875
330.83805
330.79825
330.71375
330.67758
330.59809
330.56496
330.48957
330.45906
330.38702
330.35884
330.28953
330.26345
330.19636
330.17226
330.10691
330.0847
330.0207
330.00036
329.93731
329.91887
329.85638
329.83995
329.77757
329.7634
329.70053
329.68919
329.62475
329.6177
329.54917
335.98873
335.75438
334.64681
334.08346
333.70571
333.3333
333.10448
332.83744
332.68596
332.47599
332.3641
332.19035
332.10235
331.95367
331.8815
331.75102
331.68997
331.57321
331.52037
331.41424
331.36767
331.26997
331.22836
331.13743
331.09988
331.01444
330.9803
330.89935
330.86815
330.79088
330.76229
330.68802
330.66181
330.58997
330.56597
330.49607
330.4742
330.40577
330.38599
330.31862
330.30097
330.23421
330.2188
330.15219
330.13928
330.07217
330.0623
329.99366
329.98813
329.91603
336.15027
336.10822
335.14165
334.60882
334.24062
333.86225
333.62819
333.3498
333.19183
332.97047
332.85282
332.66866
332.57583
332.4178
332.34166
332.20278
332.1385
332.01414
331.95867
331.84562
331.79695
331.69289
331.64962
331.55281
331.51397
331.42306
331.38796
331.30187
331.27001
331.18788
331.1589
331.08
331.05364
330.97736
330.95346
330.87926
330.8577
330.7851
330.76585
330.69439
330.67747
330.6067
330.59222
330.52163
330.50985
330.4388
330.43022
330.35774
330.3534
330.27819
336.27973
336.36363
335.55466
335.06776
334.72194
334.34787
334.11501
333.83101
333.66992
333.44079
333.31935
333.12725
333.03085
332.86527
332.78599
332.64008
332.57314
332.44227
332.38458
332.26549
332.215
332.10532
332.06059
331.95852
331.91854
331.82268
331.78673
331.69596
331.66352
331.57693
331.54761
331.46444
331.43797
331.35758
331.33377
331.25559
331.23433
331.15785
331.13908
331.06383
331.04758
330.97307
330.95944
330.88516
330.87439
330.79971
330.79223
330.71631
330.71288
330.63494
336.38567
336.54035
335.89087
335.45996
335.14695
334.78663
334.56134
334.27755
334.11693
333.88384
333.76081
333.56344
333.46489
333.29374
333.21229
333.06087
332.99194
332.85576
332.79634
332.67219
332.62023
332.50575
332.45982
332.35318
332.31226
332.21205
332.17539
332.08046
332.04754
331.95695
331.92736
331.84034
331.81379
331.72966
331.70597
331.62415
331.60318
331.52315
331.50484
331.42611
331.41047
331.33254
331.31968
331.24204
331.23214
331.1542
331.14762
331.06866
331.06588
330.98559
336.47423
336.65788
336.1582
335.78791
335.515
335.17652
334.96464
334.68666
334.53014
334.29694
334.17466
333.97479
333.87567
333.70101
333.61849
333.46316
333.39304
333.25283
333.19227
333.06411
333.01112
332.8927
332.84591
332.73544
332.69383
332.5899
332.55273
332.4542
332.42093
332.32685
332.29708
332.20666
332.1801
332.09266
332.06911
331.98405
331.96337
331.88015
331.86228
331.78042
331.76535
331.68435
331.67216
331.59152
331.58236
331.50153
331.49568
331.41409
331.41177
331.32945
336.54998
336.73378
336.36625
336.05643
335.82759
335.51712
335.32362
335.05653
334.90756
334.67798
334.55882
334.35922
334.26118
334.08513
334.00275
333.84517
333.77474
333.63184
333.57079
333.43971
333.38621
333.26477
333.21751
333.10399
333.06199
332.95503
332.91758
332.81604
332.78261
332.68556
332.65576
332.56241
332.53594
332.44562
332.42227
332.33438
332.31402
332.22801
332.21057
332.12596
332.11142
332.02772
332.01613
331.93286
331.92434
331.84102
331.83573
331.75193
331.74988
331.66584
336.61601
336.7825
336.5253
336.272
336.08807
335.80962
335.63827
335.38636
335.24803
335.02553
334.91176
334.71512
334.61983
334.44449
334.36346
334.20532
334.13551
333.99129
333.93047
333.79762
333.74415
333.62066
333.57335
333.45762
333.41557
333.30629
333.26883
333.16492
333.13153
333.03209
333.0024
332.90665
332.88037
332.78764
332.76457
332.67429
332.65429
332.56591
332.5489
332.46195
332.4479
332.3619
332.35085
332.26536
332.25737
332.17197
332.1671
332.08148
332.07959
331.99412
336.67457
336.81518
336.64536
336.4421
336.30123
336.05662
335.90984
335.67641
335.55129
335.33888
335.23258
335.04137
334.95043
334.77782
334.6994
334.54233
334.4741
334.32993
334.27008
334.13661
334.08377
333.95921
333.91233
333.79522
333.7535
333.64264
333.60545
333.49983
333.46672
333.36547
333.33607
333.23845
333.2125
333.11787
333.09517
333.00296
332.98337
332.89307
332.87651
332.78764
332.77407
332.68619
332.67562
332.58833
332.58077
332.4937
332.48914
332.4021
332.40029
332.31368
336.72715
336.83955
336.73557
336.57448
336.47283
336.26186
336.14067
335.92796
335.81793
335.61809
335.52101
335.33745
335.25233
335.08431
335.00966
334.85525
334.78955
334.64674
334.58864
334.45566
334.40406
334.27941
334.23344
334.11582
334.07481
333.96313
333.92655
333.81988
333.7873
333.68485
333.65594
333.55701
333.53154
333.43552
333.41329
333.31964
333.30053
333.20875
333.19267
333.10233
333.08923
332.99991
332.98977
332.9011
332.89391
332.80559
332.80125
332.71318
332.71138
332.62392
336.77481
336.86056
336.80375
336.67665
336.60908
336.42991
336.33402
336.14314
336.04937
335.86393
335.77746
335.60338
335.52535
335.36358
335.2938
335.14348
335.0812
334.94102
334.8854
334.75401
334.70426
334.58046
334.53591
334.41861
334.37873
334.26698
334.23132
334.12429
334.0925
333.98946
333.96126
333.86158
333.83675
333.73986
333.71823
333.62363
333.60508
333.5123
333.49674
333.40537
333.39275
333.30242
333.2927
333.20308
333.19619
333.10705
333.10286
333.01413
333.01232
332.9243
336.81824
336.88092
336.85626
336.75542
336.71612
336.56573
336.49377
336.32482
336.24772
336.07785
336.00294
335.83977
335.76984
335.61572
335.55174
335.4068
335.34876
335.21235
335.1599
335.03113
334.98381
334.86177
334.81914
334.70297
334.66462
334.55353
334.51914
334.41241
334.38168
334.27868
334.25139
334.15153
334.12751
334.03029
334.00938
333.91432
333.89641
333.80311
333.78813
333.69619
333.68407
333.59317
333.58385
333.49371
333.4871
333.39752
333.39346
333.30442
333.3026
333.21433
336.85796
336.90182
336.89797
336.81661
336.79975
336.67442
336.62414
336.47634
336.41565
336.26186
336.199
336.04772
335.98663
335.84127
335.78384
335.64536
335.59226
335.46064
335.41199
335.28676
335.24242
335.12299
335.08273
334.96847
334.93205
334.82232
334.78952
334.68374
334.65435
334.55197
334.52583
334.42635
334.40331
334.30627
334.28621
334.1912
334.17403
334.08068
334.06633
333.97428
333.96268
333.87166
333.86273
333.7725
333.76615
333.67654
333.67259
333.58359
333.58176
333.49354
336.89435
336.92347
336.93243
336.86498
336.86513
336.76084
336.72948
336.60134
336.55621
336.41842
336.36764
336.22881
336.17697
336.04116
335.99082
335.85968
335.81209
335.68611
335.64179
335.52093
335.48004
335.364
335.32653
335.21489
335.18076
335.07306
335.04216
334.93794
334.91016
334.80897
334.78419
334.68562
334.66374
334.5674
334.54833
334.45385
334.43752
334.34458
334.33093
334.23922
334.22818
334.13746
334.12895
334.03903
334.03294
333.94368
333.93984
333.85123
333.84941
333.76155
336.92772
336.94561
336.96205
336.90422
336.91663
336.82946
336.81398
336.70354
336.67264
336.55026
336.5112
336.38493
336.34246
336.21668
336.17378
336.0506
336.00893
335.88929
335.84972
335.73392
335.69689
335.5849
335.55059
335.44221
335.4107
335.30564
335.27693
335.17485
335.14891
335.04946
335.02625
334.92911
334.90855
334.81339
334.79545
334.70197
334.68658
334.59449
334.58161
334.49068
334.48024
334.39024
334.38217
334.29295
334.28714
334.1986
334.19488
334.107
334.10521
334.01801
336.95836
336.96775
336.98839
336.93703
336.95782
336.88415
336.88151
336.78655
336.76825
336.66026
336.63221
336.51827
336.485
336.36943
336.33407
336.21926
336.18375
336.07096
336.03644
335.92626
335.8934
335.78603
335.75519
335.65063
335.62202
335.52013
335.49387
335.39444
335.37057
335.27337
335.2519
335.15667
335.13759
335.04408
335.02738
334.93535
334.92099
334.8302
334.81816
334.72841
334.71862
334.62974
334.62215
334.53401
334.5285
334.44103
334.43746
334.35062
334.34888
334.26266
336.9865
336.98945
337.01239
336.96534
336.99145
336.92819
336.9355
336.85373
336.84621
336.75132
336.73332
336.63115
336.60665
336.50121
336.47329
336.36703
336.33776
336.23215
336.20287
336.09871
336.07024
335.96795
335.9408
335.84054
335.81505
335.71681
335.69319
335.59689
335.57526
335.48076
335.4612
335.36832
335.35086
335.25943
335.24409
335.15391
335.14068
335.05159
335.04045
334.95228
334.9432
334.85581
334.84872
334.76202
334.75684
334.67077
334.66738
334.58189
334.58023
334.49529
337.01236
337.01035
337.03456
336.99042
337.01961
336.96418
336.9789
336.9081
336.90949
336.82626
336.81716
336.72596
336.70962
336.61396
336.5932
336.49546
336.47237
336.37409
336.35009
336.25223
336.22826
336.13139
336.10808
336.01248
335.99028
335.89608
335.87526
335.78249
335.76326
335.67186
335.65434
335.56421
335.54849
335.45952
335.44563
335.3577
335.34568
335.25864
335.24848
335.16224
335.15391
335.06836
335.06183
334.97689
334.97208
334.88772
334.88455
334.8007
334.79913
334.71576
337.03615
337.0302
337.05516
337.01311
337.04377
336.99417
337.01413
336.95225
336.96078
336.88768
336.88624
336.80506
336.79609
336.7097
336.69566
336.60623
336.58909
336.49815
336.47935
336.38793
336.36848
336.27725
336.25785
336.1672
336.14837
336.05853
336.04062
335.9517
335.93498
335.84701
335.83164
335.7446
335.7307
335.64455
335.6322
335.54684
335.5361
335.45146
335.44233
335.35835
335.35083
335.26742
335.26149
335.17862
335.17422
335.09184
335.08892
335.00699
335.00554
334.92402
337.05804
337.04889
337.07432
337.03389
337.06496
337.01967
337.0431
336.98838
337.0024
336.93795
336.94289
336.87068
336.86821
336.79043
336.78256
336.70106
336.68955
336.6058
336.59203
336.50705
336.49205
336.40656
336.39107
336.30554
336.29012
336.20486
336.18991
336.10511
336.09095
336.00671
335.99354
335.90989
335.89788
335.81483
335.80408
335.7216
335.71218
335.63024
335.62219
335.54075
335.53408
335.45311
335.44781
335.36727
335.36331
335.28319
335.28055
335.20079
335.19947
335.12006
337.07821
337.06636
337.09209
337.05305
337.08386
337.04178
337.06732
337.01826
337.03632
336.97913
336.98924
336.92491
336.92802
336.85809
336.85574
336.78172
336.7754
336.69857
336.68956
336.61091
336.60019
336.52046
336.50878
336.42847
336.41642
336.33589
336.32391
336.24342
336.23184
336.15153
336.1406
336.06057
336.05049
335.97079
335.96167
335.88232
335.87427
335.79527
335.78834
335.7097
335.70391
335.62561
335.62097
335.54301
335.53953
335.46189
335.45955
335.3822
335.38103
335.30395
337.09678
337.08263
337.10851
337.07075
337.10089
337.06128
337.0879
337.04328
337.06416
337.01298
337.02713
336.96963
336.9774
336.91453
336.91699
336.84989
336.84826
336.778
336.77339
336.70088
336.6942
336.62014
336.61213
336.53704
336.52827
336.45254
336.44347
336.3674
336.35838
336.28216
336.27347
336.19724
336.18908
336.11293
336.10546
336.02944
336.02277
335.94693
335.94113
335.8655
335.86061
335.7852
335.78126
335.70608
335.70309
335.62815
335.62613
335.55139
335.55038
335.47585
337.11388
337.09774
337.12361
337.08708
337.11633
337.07868
337.10564
337.06452
337.08723
337.04098
337.05815
337.00649
337.01804
336.96143
336.968
336.9072
336.90971
336.8456
336.84498
336.77833
336.77539
336.70685
336.70228
336.63235
336.62671
336.55579
336.54953
336.47793
336.47141
336.39936
336.39287
336.32055
336.3143
336.24184
336.236
336.16348
336.15819
336.08567
336.08101
336.00856
336.00459
335.93224
335.929
335.85677
335.8543
335.78222
335.78053
335.70859
335.70774
335.63594
337.12961
337.11172
337.13741
337.10209
337.13033
337.09431
337.12111
337.08278
337.10652
337.0643
337.08363
337.03692
337.05142
337.00029
337.01027
336.95517
336.96125
336.90281
336.90573
336.8446
336.84507
336.78181
336.78044
336.71552
336.71282
336.64664
336.64305
336.57592
336.57179
336.50396
336.49958
336.43125
336.42686
336.35817
336.35394
336.28501
336.28109
336.21201
336.20848
336.13934
336.13628
336.06712
336.06459
335.99547
335.99351
335.92444
335.9231
335.85409
335.85341
335.7845
337.14405
337.12462
337.14995
337.11581
337.14299
337.1084
337.1347
337.09864
337.12281
337.08389
337.10465
337.0621
337.07884
337.03246
337.04518
336.99515
337.00424
336.95098
336.957
336.901
336.90451
336.84625
336.84778
336.78769
336.7877
336.72613
336.72503
336.6623
336.66043
336.5968
336.59444
336.53011
336.5275
336.46263
336.45995
336.39469
336.39208
336.32653
336.32411
336.25836
336.2562
336.19034
336.18851
336.12258
336.12115
336.05519
336.0542
335.98825
335.98773
335.92182
337.15724
337.13645
337.16126
337.12827
337.15437
337.12109
337.14669
337.11252
337.13669
337.10049
337.12208
337.08304
337.10136
337.05909
337.07394
337.0284
337.03996
336.99138
337.00001
336.94875
336.95491
336.90135
336.90546
336.84995
336.85242
336.7953
336.79649
336.73805
336.73827
336.67877
336.6783
336.61794
336.61701
336.55596
336.55475
336.49317
336.49183
336.42984
336.42848
336.36619
336.36491
336.3024
336.30126
336.2386
336.23767
336.17491
336.17425
336.11144
336.1111
336.04828
337.16922
337.14721
337.17135
337.13946
337.16451
337.13246
337.15725
337.12472
337.14858
337.11465
337.13663
337.10053
337.1199
337.08116
337.0976
337.056
337.0695
337.02513
337.03592
336.989
336.9974
336.94821
336.95456
336.90339
336.90803
336.85516
336.8584
336.80411
336.80624
336.75075
336.75203
336.69556
336.69619
336.63892
336.63909
336.58118
336.58103
336.52261
336.52225
336.46343
336.46298
336.40385
336.40337
336.34402
336.34358
336.28407
336.28374
336.22412
336.22394
336.16428
337.17996
337.15688
337.18022
337.14942
337.17344
337.14258
337.16651
337.13543
337.15879
337.1268
337.1488
337.11521
337.13519
337.09947
337.11702
337.07887
337.09386
337.05323
337.06576
337.02276
337.03304
336.98786
336.99613
336.949
336.95552
336.90667
336.91173
336.86139
336.86523
336.81363
336.81647
336.7638
336.76585
336.71229
336.71372
336.65942
336.66038
336.60548
336.60608
336.5507
336.55103
336.49528
336.49543
336.43939
336.43942
336.38316
336.38314
336.32674
336.32672
336.27024
337.1894
337.16541
337.18788
337.15815
337.18119
337.1515
337.17456
337.14483
337.16755
337.13726
337.15903
337.12759
337.14782
337.11471
337.13296
337.09782
337.11389
337.07658
337.09044
337.05098
337.06276
337.02126
337.03111
336.98772
336.99585
336.95077
336.95739
336.9108
336.91613
336.86824
336.87248
336.82346
336.82679
336.77682
336.7794
336.72863
336.73059
336.67916
336.68062
336.62865
336.6297
336.57729
336.57801
336.52527
336.52573
336.47272
336.473
336.4198
336.41993
336.36663
337.19741
337.17275
337.19433
337.16568
337.18778
337.15926
337.18147
337.15301
337.17503
337.14625
337.16762
337.13805
337.15825
337.12741
337.14603
337.11353
337.1303
337.09593
337.11077
337.07448
337.08742
337.04925
337.06037
337.02043
337.02988
336.9883
336.99624
336.95318
336.95979
336.91541
336.92086
336.87534
336.87978
336.83327
336.83687
336.78951
336.79237
336.74432
336.74655
336.69791
336.69961
336.65049
336.65174
336.60223
336.60309
336.55329
336.55383
336.50382
336.50407
336.45393
337.20384
337.17884
337.19958
337.17203
337.19327
337.16592
337.1873
337.16008
337.18136
337.15398
337.17481
337.1469
337.16687
337.13801
337.15673
337.12653
337.14371
337.11193
337.12743
337.09398
337.10775
337.07261
337.0847
337.04791
337.05841
337.02006
337.02908
336.9893
336.99697
336.95591
336.96238
336.92017
336.92558
336.88237
336.88684
336.84277
336.84642
336.80161
336.80454
336.75912
336.7614
336.71547
336.71719
336.67085
336.67208
336.62541
336.62619
336.5793
336.57968
336.53264
337.20854
337.18366
337.20366
337.17725
337.1977
337.17152
337.19213
337.16611
337.18665
337.16057
337.1808
337.15438
337.17397
337.14686
337.16546
337.13729
337.15461
337.12513
337.141
337.11008
337.12442
337.09199
337.10479
337.07086
337.08215
337.04677
337.05663
337.0199
337.02842
336.99045
336.99776
336.95867
336.96488
336.9248
336.93001
336.88907
336.89339
336.8517
336.85522
336.8129
336.81569
336.77285
336.77498
336.73171
336.73325
336.68964
336.69063
336.64678
336.64726
336.60325
337.21152
337.18724
337.20663
337.18142
337.20115
337.17615
337.19602
337.17118
337.19099
337.16615
337.18573
337.16068
337.17978
337.15423
337.17255
337.14617
337.16343
337.13598
337.152
337.12332
337.13797
337.10798
337.12123
337.0899
337.10174
337.06908
337.07955
337.04563
337.0548
337.0197
337.02767
336.9915
336.99834
336.96121
336.96702
336.92905
336.93392
336.8952
336.89921
336.85987
336.86308
336.8232
336.82568
336.78537
336.78717
336.74651
336.74768
336.70677
336.70734
336.66627
337.21289
337.18968
337.20858
337.18461
337.2037
337.17988
337.19906
337.17537
337.19447
337.17082
337.18973
337.16595
337.18449
337.16035
337.17825
337.15348
337.1705
337.14486
337.16081
337.13413
337.14889
337.12108
337.13456
337.10556
337.11774
337.08754
337.09843
337.06708
337.07672
337.04427
337.05272
337.01926
337.02659
336.99221
336.99849
336.9633
336.96861
336.93271
336.93711
336.90058
336.90414
336.86709
336.86986
336.83237
336.83439
336.79656
336.79788
336.75979
336.76044
336.72219
337.21298
337.19115
337.20966
337.18693
337.20544
337.18279
337.20131
337.17876
337.19718
337.17467
337.1929
337.17031
337.18823
337.16539
337.18278
337.15944
337.17609
337.15206
337.16778
337.14288
337.15755
337.13169
337.14521
337.11831
337.13063
337.10267
337.11379
337.08477
337.0947
337.06468
337.07345
337.0425
337.05017
337.01836
337.02498
336.99239
336.99803
336.96476
336.96947
336.9356
336.93943
336.90505
336.90804
336.87324
336.87544
336.8403
336.84174
336.80635
336.80706
336.7715
337.21217
337.19183
337.21
337.18852
337.20648
337.18498
337.20287
337.18143
337.19918
337.17777
337.19533
337.17386
337.19113
337.16948
337.18629
337.16425
337.18042
337.15782
337.17318
337.14986
337.16429
337.14016
337.15356
337.12853
337.14084
337.11488
337.12606
337.09917
337.10922
337.08143
337.09038
337.06172
337.0696
337.04015
337.047
337.01683
337.0227
336.99189
336.99681
336.96543
336.96945
336.93759
336.94075
336.90848
336.91082
336.87822
336.87976
336.84692
336.84768
336.81468
337.21084
337.19196
337.20976
337.18948
337.20692
337.18653
337.20382
337.18346
337.20056
337.18021
337.19709
337.17669
337.19328
337.17273
337.18891
337.16804
337.18365
337.16233
337.17722
337.15531
337.16937
337.14678
337.15992
337.13657
337.1487
337.12454
337.13564
337.11066
337.1207
337.09493
337.10392
337.07737
337.08533
337.05806
337.06502
337.03709
337.04307
337.01455
337.0196
336.99055
336.9947
336.96519
336.96846
336.93857
336.94099
336.91079
336.91239
336.88196
336.88275
336.85217
337.20929
337.1917
337.20908
337.18993
337.20686
337.18755
337.20425
337.18492
337.20139
337.18204
337.19826
337.17885
337.19476
337.17522
337.19073
337.17093
337.18591
337.16573
337.18007
337.15941
337.173
337.15178
337.16453
337.14267
337.15451
337.13196
337.14284
337.11959
337.1295
337.10554
337.11446
337.08982
337.09775
337.07248
337.07944
337.05357
337.0596
337.03319
337.03829
337.0114
337.0156
336.98829
336.99161
336.96395
336.96641
336.93846
336.94009
336.91193
336.91273
336.88442
337.20769
337.1912
337.2081
337.19
337.2064
337.18811
337.20423
337.18589
337.20173
337.18334
337.19889
337.18042
337.19563
337.17702
337.19182
337.17299
337.18729
337.16814
337.18184
337.1623
337.17533
337.15532
337.16759
337.14705
337.15849
337.13738
337.14795
337.12624
337.1359
337.11359
337.12232
337.09943
337.10723
337.08377
337.09066
337.06667
337.07265
337.04818
337.05326
337.02837
337.03256
337.00729
337.01062
336.98502
336.9875
336.96164
336.96328
336.93722
336.93803
336.91183
337.2061
337.19056
337.2069
337.18976
337.20562
337.18829
337.20384
337.18643
337.20165
337.18416
337.19904
337.18143
337.19593
337.17817
337.19224
337.17428
337.18785
337.16962
337.18264
337.16408
337.17648
337.15754
337.16925
337.14989
337.16084
337.14101
337.15117
337.13084
337.14016
337.11933
337.1278
337.10647
337.11407
337.09225
337.09898
337.07671
337.08258
337.05989
337.06489
337.04182
337.04596
337.02256
337.02586
337.00217
337.00463
336.9807
336.98233
336.95823
336.95904
336.93481
337.20455
337.18983
337.20556
337.18929
337.20461
337.18817
337.20313
337.18659
337.2012
337.18453
337.19873
337.18191
337.19569
337.1787
337.19201
337.17482
337.18764
337.17022
337.18251
337.16482
337.17653
337.15855
337.16963
337.1513
337.16171
337.14301
337.15268
337.13359
337.1425
337.12299
337.13112
337.1112
337.11852
337.09819
337.1047
337.08399
337.08968
337.06862
337.07348
337.05209
337.05613
337.03445
337.03768
337.01575
337.01815
336.99602
336.99762
336.97532
336.97611
336.9537
337.203
337.18904
337.20412
337.18864
337.2034
337.18779
337.20217
337.18643
337.2004
337.18449
337.198
337.18189
337.19491
337.1786
337.19114
337.17463
337.18667
337.16996
337.18148
337.16456
337.17555
337.15839
337.16881
337.1514
337.16119
337.1435
337.15263
337.13463
337.14308
337.12475
337.13248
337.11382
337.12081
337.10183
337.10806
337.08877
337.09422
337.07464
337.07932
337.05946
337.06337
337.04326
337.04638
337.02606
337.0284
337.0079
337.00946
336.98882
336.98959
336.96886
337.20146
337.18822
337.20262
337.18787
337.20206
337.1872
337.20099
337.18597
337.19929
337.18405
337.19684
337.18135
337.1936
337.17789
337.18962
337.17371
337.18493
337.16884
337.17958
337.16332
337.17355
337.15713
337.16683
337.15023
337.15938
337.14257
337.15113
337.13409
337.14203
337.12476
337.13204
337.11452
337.12113
337.10336
337.10926
337.09125
337.09645
337.0782
337.08267
337.0642
337.06793
337.04927
337.05225
337.03341
337.03565
337.01666
337.01815
336.99905
336.99979
336.9806
337.1999
337.18735
337.20107
337.18699
337.2006
337.18644
337.19961
337.18523
337.19788
337.1832
337.19524
337.18028
337.19173
337.17652
337.18742
337.17201
337.18241
337.16685
337.17677
337.16109
337.17055
337.15476
337.16374
337.14784
337.15632
337.14029
337.14824
337.13207
337.13947
337.12314
337.12994
337.11344
337.11963
337.10295
337.1085
337.09165
337.09654
337.07951
337.08373
337.06653
337.07007
337.05271
337.05555
337.03805
337.04018
337.02257
337.02399
337.00628
337.00698
336.9892
337.1983
337.18644
337.19948
337.18601
337.19905
337.18551
337.19805
337.18421
337.19614
337.18193
337.19318
337.17864
337.18926
337.17445
337.1845
337.16951
337.17906
337.16395
337.17305
337.15786
337.16653
337.1513
337.15953
337.14425
337.15205
337.13671
337.14404
337.12864
337.13547
337.11998
337.12629
337.1107
337.11645
337.10075
337.10593
337.09012
337.09469
337.07876
337.08272
337.06666
337.06998
337.05382
337.05649
337.04022
337.04222
337.02586
337.0272
337.01077
337.01144
336.99494
337.19666
337.18548
337.19785
337.18496
337.19742
337.18441
337.19628
337.18288
337.19404
337.18019
337.19061
337.17637
337.18612
337.17163
337.1808
337.16615
337.17483
337.1601
337.16836
337.1536
337.16147
337.14672
337.15421
337.13948
337.14658
337.13186
337.13856
337.12384
337.1301
337.11537
337.12116
337.1064
337.1117
337.09689
337.10167
337.0868
337.09105
337.07611
337.07978
337.06477
337.06787
337.05278
337.05527
337.04012
337.042
337.02678
337.02803
337.01276
337.01339
336.99807
337.19495
337.18447
337.19618
337.18382
337.19569
337.18313
337.19428
337.1812
337.19153
337.17791
337.18744
337.17341
337.18225
337.16798
337.17625
337.16185
337.16966
337.15523
337.16266
337.14826
337.15534
337.14101
337.14776
337.13352
337.13993
337.12576
337.13183
337.11773
337.12342
337.10936
337.11465
337.10062
337.10547
337.09146
337.09585
337.08183
337.08573
337.0717
337.07509
337.06102
337.06388
337.04978
337.05209
337.03795
337.03969
337.02552
337.02668
337.01247
337.01305
336.99881
337.19317
337.18341
337.19446
337.18259
337.19385
337.18163
337.19199
337.17909
337.18852
337.175
337.18358
337.16966
337.17755
337.1634
337.17076
337.15654
337.16348
337.1493
337.15589
337.1418
337.1481
337.13414
337.14017
337.12635
337.1321
337.11842
337.12387
337.11032
337.11545
337.10201
337.10679
337.09344
337.09784
337.08455
337.08855
337.07531
337.07887
337.06566
337.06876
337.05556
337.05818
337.04498
337.0471
337.03389
337.03549
337.02226
337.02333
337.01009
337.01063
336.99736
337.19131
337.18228
337.1927
337.18126
337.19186
337.17985
337.18932
337.17646
337.1849
337.17135
337.17893
337.165
337.17191
337.15782
337.16424
337.15015
337.15621
337.14222
337.148
337.13417
337.13971
337.12609
337.1314
337.11798
337.12307
337.10985
337.1147
337.10166
337.10624
337.09336
337.09766
337.08491
337.08888
337.07625
337.07987
337.06733
337.07057
337.0581
337.06092
337.0485
337.05089
337.03851
337.04044
337.02808
337.02954
337.01718
337.01816
337.0058
337.0063
336.99392
337.18935
337.18111
337.19087
337.17979
337.18965
337.17769
337.18617
337.17317
337.18053
337.16683
337.17334
337.15931
337.16521
337.1511
337.1566
337.14258
337.14778
337.13394
337.13893
337.12533
337.13014
337.11681
337.12145
337.10838
337.11285
337.10004
337.10432
337.09175
337.09581
337.08346
337.08728
337.0751
337.07865
337.06663
337.06988
337.05799
337.0609
337.04912
337.05167
337.03997
337.04214
337.0305
337.03226
337.02066
337.022
337.01043
337.01132
336.99977
337.00022
336.98867
337.18727
337.17989
337.18896
337.17812
337.18712
337.17504
337.18237
337.16907
337.17526
337.16128
337.16668
337.15245
337.15734
337.14316
337.14773
337.13374
337.13811
337.1244
337.12862
337.11523
337.11934
337.10629
337.11028
337.09756
337.10143
337.08902
337.09275
337.08063
337.0842
337.07233
337.0757
337.06406
337.06721
337.05576
337.05865
337.04736
337.04997
337.03882
337.04111
337.03008
337.03203
337.02108
337.02267
337.01178
337.01299
337.00215
337.00296
336.99215
336.99256
336.98176
337.18505
337.17866
337.18694
337.17619
337.18416
337.17171
337.17775
337.16398
337.1689
337.15453
337.15877
337.1443
337.14817
337.13388
337.13754
337.12357
337.12712
337.11353
337.11703
337.10384
337.10728
337.0945
337.09789
337.0855
337.08882
337.07678
337.08001
337.06831
337.07142
337.06001
337.06297
337.05183
337.0546
337.04368
337.04625
337.03553
337.03784
337.02729
337.02933
337.01891
337.02066
337.01035
337.01177
337.00155
337.00263