/*--------------------------------*- C++ -*----------------------------------*\
| =========                 |                                                 |
| \\      /  F ield         | OpenFOAM: The Open Source CFD Toolbox           |
|  \\    /   O peration     | Version:  2312                                  |
|   \\  /    A nd           | Website:  www.openfoam.com                      |
|    \\/     M anipulation  |                                                 |
\*---------------------------------------------------------------------------*/
FoamFile
{
    version     2.0;
    format      ascii;
    arch        "LSB;label=32;scalar=64";
    class       surfaceScalarField;
    location    "5";
    object      phi_0;
}
// * * * * * * * * * * * * * * * * * * * * * * * * * * * * * * * * * * * * * //

dimensions      [0 3 -1 0 0 0 0];

oriented        oriented;

internalField   nonuniform List<scalar> 
7870
(
1.3114461e-10
2.8171054e-09
1.334291e-10
-2.284493e-12
1.1283725e-10
2.0591861e-11
1.1391163e-10
-1.0743776e-12
1.1436413e-10
-4.5250087e-13
1.1286635e-10
1.4977869e-12
1.138126e-10
-9.4625069e-13
1.1264406e-10
1.1685363e-12
1.136981e-10
-1.0540371e-12
1.1266801e-10
1.0300919e-12
1.1363231e-10
-9.6429846e-13
1.127162e-10
9.1610823e-13
1.1357602e-10
-8.5982486e-13
1.1276362e-10
8.1239977e-13
1.1352762e-10
-7.6399186e-13
1.1280679e-10
7.2083039e-13
1.1348584e-10
-6.79058e-13
1.128451e-10
6.4074419e-13
1.1344948e-10
-6.043852e-13
1.1287885e-10
5.706307e-13
1.1341768e-10
-5.3882244e-13
1.1290852e-10
5.0915584e-13
1.1338979e-10
-4.8127444e-13
1.1293456e-10
4.5523584e-13
1.1336536e-10
-4.3079929e-13
1.1295737e-10
4.0798416e-13
1.1334398e-10
-3.8660207e-13
1.1297731e-10
3.6666366e-13
1.1332532e-10
-3.4801059e-13
1.1299467e-10
3.3065238e-13
1.1330912e-10
-3.1445221e-13
1.130097e-10
2.9941983e-13
1.1329514e-10
-2.8543614e-13
1.1302263e-10
2.7251088e-13
1.1328317e-10
-2.6054071e-13
1.1303363e-10
2.4953486e-13
1.1327304e-10
-2.3940453e-13
1.1304288e-10
2.3015803e-13
1.132646e-10
-2.2172024e-13
1.130505e-10
2.1409802e-13
1.1325773e-10
-2.072299e-13
1.1305661e-10
2.0112047e-13
1.1325233e-10
-1.9571747e-13
1.1306128e-10
1.9104707e-13
1.1324828e-10
-1.8699659e-13
1.1306461e-10
1.8367391e-13
1.1324604e-10
-1.8143671e-13
1.1306922e-10
1.7681834e-13
1.1325414e-10
-1.8491488e-13
1.7010676e-13
3.5190395e-10
5.4134514e-09
3.8103606e-10
-3.1416601e-11
3.3013194e-10
7.1496e-11
3.3071741e-10
-1.6598539e-12
3.3097468e-10
-7.0976104e-13
3.2855649e-10
3.9159738e-12
3.2950543e-10
-1.8951879e-12
3.278023e-10
2.8716707e-12
3.2926845e-10
-2.5201849e-12
3.2779117e-10
2.5073675e-12
3.291713e-10
-2.3444227e-12
3.278505e-10
2.2369131e-12
3.2908754e-10
-2.0968714e-12
3.279152e-10
1.9847377e-12
3.2901624e-10
-1.8650324e-12
3.2797619e-10
1.7608807e-12
3.2895553e-10
-1.6583908e-12
3.2803104e-10
1.5652298e-12
3.2890299e-10
-1.4763362e-12
3.2807961e-10
1.3940115e-12
3.2885712e-10
-1.3163335e-12
3.2812239e-10
1.2438834e-12
3.2881693e-10
-1.1758109e-12
3.2815998e-10
1.1121815e-12
3.287817e-10
-1.0525164e-12
3.2819294e-10
9.9674721e-13
3.2875087e-10
-9.4453434e-13
3.2822175e-10
8.9578964e-13
3.2872397e-10
-8.5023641e-13
3.2824683e-10
8.0779658e-13
3.2870061e-10
-7.6823078e-13
3.2826855e-10
7.3147596e-13
3.2868044e-10
-6.9732141e-13
3.2828723e-10
6.6571749e-13
3.2866317e-10
-6.3647901e-13
3.2830314e-10
6.0956694e-13
3.2864855e-10
-5.8482043e-13
3.283165e-10
5.6220846e-13
3.2863637e-10
-5.4159397e-13
3.2832752e-10
5.2295113e-13
3.2862646e-10
-5.0616861e-13
3.2833636e-10
4.9122034e-13
3.2861866e-10
-4.7801266e-13
3.2834311e-10
4.6659095e-13
3.2861274e-10
-4.5662385e-13
3.2834779e-10
4.4862198e-13
3.2860939e-10
-4.4303209e-13
3.2835562e-10
4.3058407e-13
3.2862954e-10
-4.5883321e-13
4.1435537e-13
5.6115974e-10
7.8005417e-09
6.1445711e-10
-8.471398e-11
5.4113252e-10
1.4482061e-10
5.4212079e-10
-2.6481254e-12
5.4161875e-10
-2.0771826e-13
5.3897566e-10
6.5590682e-12
5.3932868e-10
-2.2482021e-12
5.3771719e-10
4.4831589e-12
5.3903084e-10
-3.833833e-12
5.376518e-10
3.8864062e-12
5.3894062e-10
-3.6332326e-12
5.3769475e-10
3.4827821e-12
5.388587e-10
-3.2608217e-12
5.3775097e-10
3.0924669e-12
5.3878952e-10
-2.9035823e-12
5.378069e-10
2.743501e-12
5.3873158e-10
-2.5830791e-12
5.3785814e-10
2.4386695e-12
5.3868185e-10
-2.3000421e-12
5.3790386e-10
2.172003e-12
5.3863854e-10
-2.0510107e-12
5.3794425e-10
1.9381677e-12
5.386006e-10
-1.8321617e-12
5.3797979e-10
1.7329923e-12
5.3856735e-10
-1.6400733e-12
5.3801097e-10
1.5531272e-12
5.3853824e-10
-1.4718049e-12
5.3803823e-10
1.3957993e-12
5.3851284e-10
-1.3248427e-12
5.3806197e-10
1.2586637e-12
5.3849077e-10
-1.197029e-12
5.3808253e-10
1.1397132e-12
5.3847171e-10
-1.0865046e-12
5.3810021e-10
1.0372196e-12
5.384554e-10
-9.9166636e-13
5.3811527e-10
9.4969592e-13
5.3844159e-10
-9.1113745e-13
5.3812793e-10
8.7586976e-13
5.3843008e-10
-8.437448e-13
5.3813837e-10
8.1466219e-13
5.384207e-10
-7.8850312e-13
5.3814675e-10
7.6517382e-13
5.3841331e-10
-7.4457597e-13
5.3815314e-10
7.2675784e-13
5.3840762e-10
-7.1110071e-13
5.3815744e-10
6.987993e-13
5.3840436e-10
-6.8994798e-13
5.3816667e-10
6.6827424e-13
5.3843495e-10
-7.2711244e-13
6.4375272e-13
7.5741299e-10
9.9913788e-09
8.3929316e-10
-1.6659415e-10
7.4636085e-10
2.3775294e-10
7.4776519e-10
-4.0524676e-12
7.4664553e-10
9.1194713e-13
7.4377428e-10
9.4303226e-12
7.4359742e-10
-2.0713442e-12
7.4209572e-10
5.9848622e-12
7.4326349e-10
-5.001604e-12
7.4198999e-10
5.1599089e-12
7.4318619e-10
-4.829427e-12
7.4201891e-10
4.6500571e-12
7.431072e-10
-4.349107e-12
7.4206707e-10
4.1325969e-12
7.4304049e-10
-3.8770087e-12
7.4211795e-10
3.6660457e-12
7.4298553e-10
-3.450659e-12
7.4216551e-10
3.2586882e-12
7.4293871e-10
-3.0732405e-12
7.4220825e-10
2.9024564e-12
7.4289804e-10
-2.7407926e-12
7.4224614e-10
2.5900637e-12
7.4286244e-10
-2.448459e-12
7.4227952e-10
2.3159111e-12
7.4283123e-10
-2.1917839e-12
7.4230882e-10
2.075541e-12
7.4280391e-10
-1.9668957e-12
7.4233444e-10
1.8652678e-12
7.4278006e-10
-1.7704634e-12
7.4235675e-10
1.6819708e-12
7.4275934e-10
-1.5996161e-12
7.4237608e-10
1.5229735e-12
7.4274145e-10
-1.4518733e-12
7.423927e-10
1.3859681e-12
7.4272613e-10
-1.3250932e-12
7.4240686e-10
1.2689665e-12
7.4271315e-10
-1.217434e-12
7.4241876e-10
1.1702662e-12
7.4270234e-10
-1.1273252e-12
7.4242858e-10
1.0884216e-12
7.4269352e-10
-1.0534467e-12
7.4243647e-10
1.0222243e-12
7.4268656e-10
-9.9466938e-13
7.4244249e-10
9.7082682e-13
7.4268112e-10
-9.4972598e-13
7.424464e-10
9.3351949e-13
7.4267781e-10
-9.2135849e-13
7.4245636e-10
8.8972729e-13
7.4271635e-10
-9.8710169e-13
8.5822487e-13
9.5769387e-10
1.1981935e-08
1.0512858e-09
-2.6018605e-10
9.4537901e-10
3.4365973e-10
9.4776163e-10
-6.4350929e-12
9.4602733e-10
2.6462533e-12
9.429351e-10
1.252256e-11
9.4230743e-10
-1.4436728e-12
9.4093772e-10
7.3545663e-12
9.4196634e-10
-6.0302122e-12
9.4080524e-10
6.3210056e-12
9.4190783e-10
-5.9320105e-12
9.408225e-10
5.7353829e-12
9.4183281e-10
-5.3594167e-12
9.4086308e-10
5.1023257e-12
9.4176895e-10
-4.7828766e-12
9.4090898e-10
4.5260154e-12
9.4171715e-10
-4.2588282e-12
9.409528e-10
4.0230327e-12
9.4167337e-10
-3.793811e-12
9.409925e-10
3.5833334e-12
9.4163545e-10
-3.3837487e-12
9.4102778e-10
3.1977307e-12
9.4160228e-10
-3.0229585e-12
9.4105891e-10
2.8592822e-12
9.4157321e-10
-2.7060804e-12
9.4108625e-10
2.5625033e-12
9.4154775e-10
-2.4284014e-12
9.4111016e-10
2.3028644e-12
9.4152553e-10
-2.1858397e-12
9.4113098e-10
2.0765254e-12
9.4150623e-10
-1.9748633e-12
9.4114901e-10
1.8801868e-12
9.4148955e-10
-1.7924135e-12
9.4116452e-10
1.7109999e-12
9.4147527e-10
-1.6358453e-12
9.4117773e-10
1.5665086e-12
9.4146318e-10
-1.5028821e-12
9.4118884e-10
1.4446077e-12
9.4145309e-10
-1.3915813e-12
9.4119801e-10
1.343508e-12
9.4144487e-10
-1.3003084e-12
9.4120539e-10
1.2617079e-12
9.4143837e-10
-1.2276551e-12
9.4121102e-10
1.1981783e-12
9.414332e-10
-1.1719107e-12
9.4121452e-10
1.1522007e-12
9.414298e-10
-1.1366342e-12
9.4122478e-10
1.094743e-12
9.4147423e-10
-1.2365464e-12
1.0562933e-12
1.1263845e-09
1.38038e-08
1.2548252e-09
-3.8862668e-10
1.1388318e-09
4.5965309e-10
1.1421246e-09
-9.7278562e-12
1.1397483e-09
5.0225928e-12
1.1364577e-09
1.5813089e-11
1.1354587e-09
-4.4464281e-13
1.1342449e-09
8.5683854e-12
1.1351408e-09
-6.9260927e-12
1.1340975e-09
7.3642391e-12
1.1351062e-09
-6.9406541e-12
1.1341053e-09
6.7362595e-12
1.135036e-09
-6.2900768e-12
1.1341388e-09
5.9994894e-12
1.1349752e-09
-5.6193086e-12
1.1341798e-09
5.3214513e-12
1.1349267e-09
-5.0057774e-12
1.1342198e-09
4.7299255e-12
1.1348861e-09
-4.4600742e-12
1.1342564e-09
4.2130203e-12
1.134851e-09
-3.9783461e-12
1.134289e-09
3.7597108e-12
1.1348204e-09
-3.5542754e-12
1.1343178e-09
3.361795e-12
1.1347935e-09
-3.1817196e-12
1.1343431e-09
3.0128399e-12
1.13477e-09
-2.8552092e-12
1.1343653e-09
2.707539e-12
1.1347494e-09
-2.5699761e-12
1.1343846e-09
2.4413878e-12
1.1347316e-09
-2.3218795e-12
1.1344012e-09
2.2105106e-12
1.1347162e-09
-2.1073254e-12
1.1344156e-09
2.0115577e-12
1.134703e-09
-1.9232025e-12
1.1344278e-09
1.8416387e-12
1.1346918e-09
-1.7668307e-12
1.1344381e-09
1.6982749e-12
1.1346824e-09
-1.6359215e-12
1.1344466e-09
1.5793567e-12
1.1346748e-09
-1.5285474e-12
1.1344534e-09
1.4831072e-12
1.1346688e-09
-1.4430367e-12
1.1344587e-09
1.4083324e-12
1.134664e-09
-1.3772036e-12
1.1344618e-09
1.3543953e-12
1.1346604e-09
-1.3353137e-12
1.134472e-09
1.2831976e-12
1.134709e-09
-1.4735146e-12
1.2367312e-12
1.3198021e-09
1.5432248e-08
1.4461846e-09
-5.1500923e-10
1.3261823e-09
5.7965536e-10
1.3307885e-09
-1.4333985e-11
1.3277491e-09
8.0620013e-12
1.3243355e-09
1.9226653e-11
1.3230461e-09
8.448087e-13
1.3220161e-09
9.5983163e-12
1.3227869e-09
-7.6968548e-12
1.3218662e-09
8.2849091e-12
1.3227815e-09
-7.8559691e-12
1.3218669e-09
7.6508889e-12
1.322717e-09
-7.1401161e-12
1.3218939e-09
6.8225419e-12
1.3226596e-09
-6.38502e-12
1.3219301e-09
6.0509492e-12
1.3226146e-09
-5.6902219e-12
1.3219664e-09
5.3780862e-12
1.3225771e-09
-5.070822e-12
1.3219998e-09
4.7903519e-12
1.3225449e-09
-4.5234773e-12
1.3220297e-09
4.2749507e-12
1.3225168e-09
-4.0414087e-12
1.3220561e-09
3.8225031e-12
1.3224922e-09
-3.6178033e-12
1.3220793e-09
3.425704e-12
1.3224707e-09
-3.2465159e-12
1.3220997e-09
3.0785345e-12
1.3224518e-09
-2.922155e-12
1.3221173e-09
2.7758808e-12
1.3224355e-09
-2.6400222e-12
1.3221327e-09
2.513338e-12
1.3224214e-09
-2.3960325e-12
1.3221458e-09
2.2870957e-12
1.3224093e-09
-2.1866455e-12
1.322157e-09
2.0938643e-12
1.322399e-09
-2.0088101e-12
1.3221665e-09
1.930821e-12
1.3223905e-09
-1.859919e-12
1.3221743e-09
1.7955609e-12
1.3223835e-09
-1.7377739e-12
1.3221806e-09
1.6860498e-12
1.322378e-09
-1.6404571e-12
1.3221854e-09
1.6009444e-12
1.3223734e-09
-1.5652849e-12
1.3221881e-09
1.5397802e-12
1.3223698e-09
-1.5170844e-12
1.322198e-09
1.4550395e-12
1.3224209e-09
-1.6963797e-12
1.3988573e-12
1.4625324e-09
1.6917966e-08
1.627687e-09
-6.8016379e-10
1.507931e-09
6.994114e-10
1.5135486e-09
-1.9951585e-11
1.510086e-09
1.1524547e-11
1.5065972e-09
2.2715523e-11
1.5050819e-09
2.3600436e-12
1.5042569e-09
1.0423323e-11
1.5049077e-09
-8.3476059e-12
1.504112e-09
9.0806343e-12
1.5049347e-09
-8.6786609e-12
1.5041072e-09
8.4783278e-12
1.5048761e-09
-7.9090281e-12
1.5041282e-09
7.5705042e-12
1.5048224e-09
-7.0792098e-12
1.5041597e-09
6.7135889e-12
1.5047808e-09
-6.3113264e-12
1.5041922e-09
5.9666687e-12
1.5047467e-09
-5.625257e-12
1.5042225e-09
5.3145556e-12
1.5047174e-09
-5.0184084e-12
1.5042496e-09
4.7427523e-12
1.5046919e-09
-4.4836948e-12
1.5042736e-09
4.2407808e-12
1.5046695e-09
-4.0137373e-12
1.5042947e-09
3.8005368e-12
1.50465e-09
-3.6017914e-12
1.5043132e-09
3.4153525e-12
1.5046329e-09
-3.2419033e-12
1.5043292e-09
3.0795592e-12
1.5046181e-09
-2.9288687e-12
1.5043432e-09
2.7882702e-12
1.5046053e-09
-2.6581555e-12
1.5043551e-09
2.5372555e-12
1.5045943e-09
-2.4258331e-12
1.5043653e-09
2.3228619e-12
1.504585e-09
-2.2285119e-12
1.5043739e-09
2.141953e-12
1.5045773e-09
-2.0632937e-12
1.504381e-09
1.9918539e-12
1.5045709e-09
-1.9277328e-12
1.5043867e-09
1.8702924e-12
1.5045659e-09
-1.8196838e-12
1.5043911e-09
1.7757902e-12
1.5045617e-09
-1.7359515e-12
1.5043934e-09
1.7081434e-12
1.504558e-09
-1.6817603e-12
1.5044028e-09
1.6102822e-12
1.5046102e-09
-1.9037828e-12
1.5424086e-12
1.6430804e-09
1.8223136e-08
1.7985522e-09
-8.3563555e-10
1.6833021e-09
8.1466149e-10
1.6892679e-09
-2.5917371e-11
1.686541e-09
1.4251431e-11
1.6832129e-09
2.6043668e-11
1.6815623e-09
4.0105963e-12
1.680967e-09
1.1018651e-11
1.6815039e-09
-8.8845229e-12
1.6808346e-09
9.7499041e-12
1.6815659e-09
-9.409884e-12
1.680826e-09
9.218172e-12
1.6815137e-09
-8.5967584e-12
1.6808414e-09
8.2428475e-12
1.6814637e-09
-7.7015049e-12
1.6808684e-09
7.3088624e-12
1.6814257e-09
-6.8686501e-12
1.6808972e-09
6.4952047e-12
1.6813949e-09
-6.1229427e-12
1.6809242e-09
5.7852039e-12
1.6813686e-09
-5.4627334e-12
1.6809486e-09
5.1627301e-12
1.6813457e-09
-4.880767e-12
1.6809702e-09
4.6162837e-12
1.6813256e-09
-4.3691943e-12
1.6809891e-09
4.1370322e-12
1.6813081e-09
-3.9207449e-12
1.6810057e-09
3.717721e-12
1.6812928e-09
-3.5289626e-12
1.6810201e-09
3.3521809e-12
1.6812795e-09
-3.1881887e-12
1.6810326e-09
3.035091e-12
1.681268e-09
-2.8934887e-12
1.6810434e-09
2.7618435e-12
1.6812581e-09
-2.6405806e-12
1.6810525e-09
2.5284573e-12
1.6812498e-09
-2.4257698e-12
1.6810602e-09
2.3315138e-12
1.6812428e-09
-2.2458957e-12
1.6810666e-09
2.1680938e-12
1.6812372e-09
-2.0982883e-12
1.6810717e-09
2.0357069e-12
1.6812327e-09
-1.9805949e-12
1.6810757e-09
1.9327536e-12
1.6812288e-09
-1.8891042e-12
1.6810776e-09
1.8593725e-12
1.6812251e-09
-1.8292661e-12
1.6810864e-09
1.7489993e-12
1.6812772e-09
-2.0946039e-12
1.6674155e-12
1.7693133e-09
1.9402072e-08
1.9602632e-09
-1.0265855e-09
1.8533885e-09
9.2153617e-10
1.8574961e-09
-3.0024899e-11
1.856977e-09
1.4770538e-11
1.8541716e-09
2.8849039e-11
1.8524863e-09
5.6958625e-12
1.8521472e-09
1.1357784e-11
1.8525765e-09
-9.3138484e-12
1.8520343e-09
1.0292098e-11
1.8526755e-09
-1.0051051e-11
1.8520232e-09
9.8705164e-12
1.85263e-09
-9.2036153e-12
1.8520334e-09
8.8394529e-12
1.8525838e-09
-8.2519041e-12
1.852056e-09
7.8366347e-12
1.8525495e-09
-7.3621037e-12
1.8520811e-09
6.9635672e-12
1.8525219e-09
-6.5637668e-12
1.852105e-09
6.2021799e-12
1.8524986e-09
-5.8563416e-12
1.8521265e-09
5.5347795e-12
1.8524783e-09
-5.2325251e-12
1.8521456e-09
4.9489204e-12
1.8524605e-09
-4.6840867e-12
1.8521625e-09
4.435111e-12
1.852445e-09
-4.2033002e-12
1.8521772e-09
3.9855712e-12
1.8524315e-09
-3.7832668e-12
1.85219e-09
3.5936861e-12
1.8524197e-09
-3.4179247e-12
1.852201e-09
3.2537482e-12
1.8524095e-09
-3.1019821e-12
1.8522106e-09
2.9608137e-12
1.8524008e-09
-2.8308442e-12
1.8522187e-09
2.7106105e-12
1.8523935e-09
-2.6005458e-12
1.8522255e-09
2.4994686e-12
1.8523873e-09
-2.407692e-12
1.8522311e-09
2.3242508e-12
1.8523823e-09
-2.249413e-12
1.8522357e-09
2.1822695e-12
1.8523783e-09
-2.1231692e-12
1.8522392e-09
2.0718161e-12
1.8523748e-09
-2.0247379e-12
1.8522408e-09
1.993446e-12
1.8523711e-09
-1.959625e-12
1.8522488e-09
1.8713219e-12
1.8524221e-09
-2.2679399e-12
1.7741328e-12
1.9356822e-09
2.041464e-08
2.1133635e-09
-1.2042668e-09
2.0171253e-09
1.0177744e-09
2.0198489e-09
-3.274846e-11
2.0215767e-09
1.304279e-11
2.019529e-09
3.089666e-11
2.0178738e-09
7.3510912e-12
2.0178039e-09
1.1427706e-11
2.0181282e-09
-9.6381813e-12
2.0177118e-09
1.0708548e-11
2.0182641e-09
-1.06034e-11
2.0176986e-09
1.0436026e-11
2.0182252e-09
-9.7301758e-12
2.017704e-09
9.3605924e-12
2.0181829e-09
-8.7307346e-12
2.0177224e-09
8.2971151e-12
2.0181522e-09
-7.7919177e-12
2.0177438e-09
7.3719416e-12
2.018128e-09
-6.9479126e-12
2.0177645e-09
6.5656495e-12
2.0181076e-09
-6.1993908e-12
2.0177833e-09
5.8590511e-12
2.0180899e-09
-5.5391105e-12
2.0178e-09
5.2388284e-12
2.0180744e-09
-4.9585431e-12
2.0178146e-09
4.6948987e-12
2.0180609e-09
-4.4495752e-12
2.0178275e-09
4.2190179e-12
2.0180491e-09
-4.0049238e-12
2.0178386e-09
3.8041795e-12
2.0180389e-09
-3.6181754e-12
2.0178483e-09
3.4443374e-12
2.01803e-09
-3.2837259e-12
2.0178566e-09
3.1342541e-12
2.0180225e-09
-2.9967074e-12
2.0178637e-09
2.8694027e-12
2.018016e-09
-2.7529173e-12
2.0178696e-09
2.6458932e-12
2.0180107e-09
-2.548756e-12
2.0178745e-09
2.4603972e-12
2.0180063e-09
-2.3811773e-12
2.0178785e-09
2.3100507e-12
2.0180028e-09
-2.2474766e-12
2.0178816e-09
2.1930482e-12
2.0179998e-09
-2.142933e-12
2.0178828e-09
2.1104252e-12
2.0179961e-09
-2.072947e-12
2.01789e-09
1.9774351e-12
2.0180452e-09
-2.4230864e-12
1.8629943e-12
2.0581485e-09
2.1304742e-08
2.2562631e-09
-1.4023813e-09
2.1747984e-09
1.0992391e-09
2.1775996e-09
-3.5549685e-11
2.1804694e-09
1.0173067e-11
2.1793279e-09
3.2038083e-11
2.177736e-09
8.9430775e-12
2.1779395e-09
1.1224196e-11
2.1781595e-09
-9.8581951e-12
2.1778667e-09
1.1001332e-11
2.1783318e-09
-1.1068485e-11
2.1778522e-09
1.0915614e-11
2.1782994e-09
-1.0177377e-11
2.1778532e-09
9.8068387e-12
2.1782611e-09
-9.1386474e-12
2.1778674e-09
8.6908165e-12
2.1782341e-09
-8.1586178e-12
2.1778852e-09
7.7207953e-12
2.1782131e-09
-7.2758323e-12
2.1779027e-09
6.8760354e-12
2.1781956e-09
-6.4922819e-12
2.1779188e-09
6.1359262e-12
2.1781805e-09
-5.8008828e-12
2.177933e-09
5.4863514e-12
2.1781674e-09
-5.1928875e-12
2.1779455e-09
4.9167053e-12
2.1781558e-09
-4.659862e-12
2.1779565e-09
4.4183408e-12
2.1781458e-09
-4.1941974e-12
2.177966e-09
3.9839137e-12
2.1781371e-09
-3.7891797e-12
2.1779743e-09
3.6070876e-12
2.1781295e-09
-3.4389373e-12
2.1779814e-09
3.2823729e-12
2.1781231e-09
-3.1383682e-12
2.1779874e-09
3.0050245e-12
2.1781176e-09
-2.8830667e-12
2.1779925e-09
2.7709637e-12
2.178113e-09
-2.6692568e-12
2.1779967e-09
2.5766973e-12
2.1781093e-09
-2.4937402e-12
2.1780001e-09
2.4192065e-12
2.1781063e-09
-2.3536696e-12
2.1780028e-09
2.2966002e-12
2.1781037e-09
-2.2438464e-12
2.1780037e-09
2.2104468e-12
2.1781001e-09
-2.1694195e-12
2.17801e-09
2.0675752e-12
2.1781464e-09
-2.5595202e-12
1.9345745e-12
2.2161035e-09
2.2036888e-08
2.3916408e-09
-1.5779186e-09
2.3266235e-09
1.1642563e-09
2.330928e-09
-3.985417e-11
2.3337258e-09
7.3752579e-12
2.3335985e-09
3.216535e-11
2.3320809e-09
1.0460683e-11
2.3325555e-09
1.0749676e-11
2.3326705e-09
-9.9732503e-12
2.3324987e-09
1.1173178e-11
2.3328783e-09
-1.1448147e-11
2.3324836e-09
1.1310386e-11
2.3328527e-09
-1.0546518e-11
2.3324805e-09
1.0179018e-11
2.3328185e-09
-9.4766033e-12
2.3324908e-09
9.0185209e-12
2.3327952e-09
-8.4630032e-12
2.3325051e-09
8.0108496e-12
2.3327775e-09
-7.5482232e-12
2.3325196e-09
7.1339905e-12
2.3327629e-09
-6.735635e-12
2.3325328e-09
6.3659926e-12
2.3327504e-09
-6.0183976e-12
2.3325447e-09
5.6920179e-12
2.3327394e-09
-5.3876188e-12
2.3325551e-09
5.1010058e-12
2.3327299e-09
-4.8346091e-12
2.3325642e-09
4.583967e-12
2.3327215e-09
-4.3514915e-12
2.3325722e-09
4.1332738e-12
2.3327143e-09
-3.9313022e-12
2.332579e-09
3.7423468e-12
2.332708e-09
-3.5679467e-12
2.3325849e-09
3.4054862e-12
2.3327027e-09
-3.2561278e-12
2.33259e-09
3.1177646e-12
2.3326982e-09
-2.99127e-12
2.3325942e-09
2.8749458e-12
2.3326944e-09
-2.7694496e-12
2.3325977e-09
2.673398e-12
2.3326913e-09
-2.5873405e-12
2.3326005e-09
2.5099699e-12
2.3326888e-09
-2.4419749e-12
2.3326027e-09
2.3826953e-12
2.3326866e-09
-2.3277045e-12
2.3326033e-09
2.2937155e-12
2.3326832e-09
-2.2492976e-12
2.3326087e-09
2.1420252e-12
2.3327261e-09
-2.6768839e-12
1.9895563e-12
2.3346418e-09
2.2650496e-08
2.5188148e-09
-1.7620916e-09
2.4730342e-09
1.2100369e-09
2.4790708e-09
-4.5890702e-11
2.4814638e-09
4.9822432e-12
2.4823533e-09
3.1275786e-11
2.480916e-09
1.1898051e-11
2.4816557e-09
1.000995e-11
2.4816637e-09
-9.9812112e-12
2.4816086e-09
1.1228235e-11
2.4819044e-09
-1.1743902e-11
2.4815928e-09
1.162195e-11
2.4818853e-09
-1.0839057e-11
2.4815861e-09
1.047827e-11
2.4818553e-09
-9.7458068e-12
2.4815925e-09
9.2812733e-12
2.4818357e-09
-8.706112e-12
2.4816034e-09
8.2430587e-12
2.4818212e-09
-7.7660007e-12
2.4816148e-09
7.3403758e-12
2.4818095e-09
-6.9302664e-12
2.4816254e-09
6.5500237e-12
2.4817994e-09
-6.1923853e-12
2.4816349e-09
5.8565218e-12
2.4817907e-09
-5.5433917e-12
2.4816433e-09
5.2484229e-12
2.4817831e-09
-4.9744046e-12
2.4816506e-09
4.716456e-12
2.4817764e-09
-4.4773351e-12
2.4816569e-09
4.2527635e-12
2.4817707e-09
-4.0450201e-12
2.4816624e-09
3.8505701e-12
2.4817657e-09
-3.6711861e-12
2.4816672e-09
3.5040068e-12
2.4817614e-09
-3.3503793e-12
2.4816712e-09
3.2079998e-12
2.4817578e-09
-3.0778874e-12
2.4816745e-09
2.9581859e-12
2.4817548e-09
-2.8496673e-12
2.4816773e-09
2.750821e-12
2.4817523e-09
-2.6622889e-12
2.4816796e-09
2.5826428e-12
2.4817503e-09
-2.5126862e-12
2.4816814e-09
2.4516216e-12
2.4817485e-09
-2.3947962e-12
2.4816817e-09
2.3604978e-12
2.4817453e-09
-2.3128969e-12
2.4816862e-09
2.2011116e-12
2.4817843e-09
-2.774971e-12
2.0287019e-12
2.4820751e-09
2.3116671e-08
2.6422005e-09
-1.922217e-09
2.6139532e-09
1.2382842e-09
2.6212478e-09
-5.3185257e-11
2.6237798e-09
2.4502732e-12
2.6255869e-09
2.9468651e-11
2.6242412e-09
1.3243717e-11
2.625242e-09
9.0092094e-12
2.6251405e-09
-9.8797873e-12
2.6251973e-09
1.1171496e-11
2.6254104e-09
-1.1957013e-11
2.62518e-09
1.185237e-11
2.6253975e-09
-1.1056588e-11
2.6251697e-09
1.0706033e-11
2.6253716e-09
-9.9476792e-12
2.6251725e-09
9.4803582e-12
2.6253556e-09
-8.8891978e-12
2.6251801e-09
8.4185851e-12
2.6253444e-09
-7.9302766e-12
2.6251885e-09
7.4962374e-12
2.6253354e-09
-7.0771672e-12
2.6251965e-09
6.6889578e-12
2.6253278e-09
-6.3237323e-12
2.6252036e-09
5.9807036e-12
2.6253212e-09
-5.6610002e-12
2.62521e-09
5.3597099e-12
2.6253155e-09
-5.0799605e-12
2.6252155e-09
4.8164842e-12
2.6253105e-09
-4.5723684e-12
2.6252203e-09
4.3429916e-12
2.6253062e-09
-4.1309106e-12
2.6252244e-09
3.9323073e-12
2.6253024e-09
-3.7491782e-12
2.625228e-09
3.5784336e-12
2.6252992e-09
-3.4215982e-12
2.625231e-09
3.2761853e-12
2.6252965e-09
-3.1433542e-12
2.6252336e-09
3.0211023e-12
2.6252942e-09
-2.9103118e-12
2.6252357e-09
2.8093539e-12
2.6252924e-09
-2.7189601e-12
2.6252374e-09
2.6375894e-12
2.6252909e-09
-2.5661571e-12
2.6252388e-09
2.5037256e-12
2.6252895e-09
-2.4454655e-12
2.6252389e-09
2.4111154e-12
2.6252865e-09
-2.3605854e-12
2.6252425e-09
2.2452007e-12
2.6253212e-09
-2.853712e-12
2.0528296e-12
2.5972971e-09
2.3467624e-08
2.7599595e-09
-2.0848794e-09
2.7498375e-09
1.2484061e-09
2.7570359e-09
-6.0383628e-11
2.7607487e-09
-1.2625444e-12
2.7632962e-09
2.6921203e-11
2.7620627e-09
1.4477239e-11
2.7633168e-09
7.7551015e-12
2.7631031e-09
-9.6660639e-12
2.7632657e-09
1.1008903e-11
2.7633971e-09
-1.2088418e-11
2.7632453e-09
1.2004165e-11
2.7633895e-09
-1.1200798e-11
2.7632315e-09
1.0864039e-11
2.7633676e-09
-1.0083818e-11
2.7632307e-09
9.6172887e-12
2.7633552e-09
-9.0136964e-12
2.763235e-09
8.5387829e-12
2.763347e-09
-8.0423327e-12
2.7632405e-09
7.6027877e-12
2.7633408e-09
-7.1774827e-12
2.7632459e-09
6.7838796e-12
2.7633356e-09
-6.4134626e-12
2.7632508e-09
6.065534e-12
2.7633311e-09
-5.741361e-12
2.7632551e-09
5.4357365e-12
2.7633272e-09
-5.1520987e-12
2.7632589e-09
4.8848319e-12
2.7633239e-09
-4.6373299e-12
2.7632622e-09
4.4046601e-12
2.7633209e-09
-4.1896396e-12
2.763265e-09
3.9881924e-12
2.7633184e-09
-3.8025257e-12
2.7632675e-09
3.6293419e-12
2.7633162e-09
-3.470333e-12
2.7632696e-09
3.322846e-12
2.7633144e-09
-3.1881728e-12
2.7632713e-09
3.0641774e-12
2.7633128e-09
-2.9518465e-12
2.7632727e-09
2.8494442e-12
2.7633116e-09
-2.7577857e-12
2.7632739e-09
2.6752288e-12
2.7633106e-09
-2.6027946e-12
2.7632749e-09
2.5394058e-12
2.7633095e-09
-2.4801067e-12
2.7632747e-09
2.4459402e-12
2.7633069e-09
-2.3927775e-12
2.7632774e-09
2.2746942e-12
2.7633368e-09
-2.9131623e-12
2.0627932e-12
2.7372069e-09
2.3678667e-08
2.8760627e-09
-2.2237352e-09
2.8807821e-09
1.2436867e-09
2.8868465e-09
-6.6448079e-11
2.8923638e-09
-6.7797871e-12
2.8954788e-09
2.3806152e-11
2.8943861e-09
1.5569972e-11
2.8958758e-09
6.2654277e-12
2.8955491e-09
-9.3394014e-12
2.8958122e-09
1.0745841e-11
2.8958635e-09
-1.2139754e-11
2.895788e-09
1.2079669e-11
2.895861e-09
-1.1273812e-11
2.895771e-09
1.0954083e-11
2.8958433e-09
-1.0156088e-11
2.8957668e-09
9.6937206e-12
2.8958344e-09
-9.0812395e-12
2.895768e-09
8.6051577e-12
2.8958293e-09
-8.1036115e-12
2.8957707e-09
7.6613804e-12
2.8958257e-09
-7.2324963e-12
2.8957736e-09
6.8360014e-12
2.8958228e-09
-6.4627221e-12
2.8957763e-09
6.1120979e-12
2.8958204e-09
-5.7854989e-12
2.8957787e-09
5.4774742e-12
2.8958183e-09
-5.191738e-12
2.8957808e-09
4.922371e-12
2.8958165e-09
-4.6730453e-12
2.8957826e-09
4.4385538e-12
2.8958149e-09
-4.2219514e-12
2.8957842e-09
4.0189341e-12
2.8958135e-09
-3.8319024e-12
2.8957855e-09
3.6573745e-12
2.8958124e-09
-3.4971968e-12
2.8957867e-09
3.3485685e-12
2.8958114e-09
-3.2129045e-12
2.8957876e-09
3.0879503e-12
2.8958106e-09
-2.9747895e-12
2.8957884e-09
2.8715913e-12
2.8958099e-09
-2.7792487e-12
2.8957891e-09
2.6960294e-12
2.8958093e-09
-2.6230534e-12
2.8957896e-09
2.559107e-12
2.8958087e-09
-2.4991577e-12
2.8957892e-09
2.4653885e-12
2.8958064e-09
-2.4099278e-12
2.8957911e-09
2.2900264e-12
2.8958314e-09
-2.9534897e-12
2.0594655e-12
2.8524241e-09
2.3774493e-08
2.9864486e-09
-2.3577596e-09
3.0068413e-09
1.2232941e-09
3.0116711e-09
-7.1277917e-11
3.0187667e-09
-1.3875422e-11
3.0221827e-09
2.0390212e-11
3.021245e-09
1.650762e-11
3.0229217e-09
4.5887259e-12
3.0224808e-09
-8.8984219e-12
3.0228374e-09
1.0389199e-11
3.02281e-09
-1.2112364e-11
3.0228082e-09
1.2081509e-11
3.0228123e-09
-1.1277922e-11
3.0227882e-09
1.0978143e-11
3.0227987e-09
-1.016653e-11
3.0227809e-09
9.7114692e-12
3.0227933e-09
-9.0936122e-12
3.0227791e-09
8.6193575e-12
3.0227912e-09
-8.1156906e-12
3.0227791e-09
7.6734961e-12
3.0227902e-09
-7.2436115e-12
3.0227795e-09
6.8466481e-12
3.0227896e-09
-6.472763e-12
3.0227801e-09
6.1215803e-12
3.0227891e-09
-5.7945339e-12
3.0227806e-09
5.485984e-12
3.0227888e-09
-5.1998819e-12
3.0227811e-09
4.9300536e-12
3.0227884e-09
-4.6804165e-12
3.0227815e-09
4.4455294e-12
3.0227882e-09
-4.2286593e-12
3.0227818e-09
4.0253063e-12
3.0227879e-09
-3.8380446e-12
3.0227821e-09
3.6632339e-12
3.0227878e-09
-3.5028595e-12
3.0227823e-09
3.353994e-12
3.0227876e-09
-3.2181629e-12
3.0227825e-09
3.0930102e-12
3.0227874e-09
-2.9797071e-12
3.0227827e-09
2.8763416e-12
3.0227873e-09
-2.7838763e-12
3.0227828e-09
2.7005028e-12
3.0227872e-09
-2.6274303e-12
3.022783e-09
2.5633152e-12
3.022787e-09
-2.5030957e-12
3.0227824e-09
2.4699164e-12
3.022785e-09
-2.4125262e-12
3.0227834e-09
2.2916609e-12
3.0228049e-09
-2.9749646e-12
2.0437243e-12
2.9866307e-09
2.3736112e-08
3.0945337e-09
-2.4656627e-09
3.1276744e-09
1.1901534e-09
3.1322205e-09
-7.5824018e-11
3.14004e-09
-2.1694937e-11
3.1434486e-09
1.6981597e-11
3.1426742e-09
1.7282037e-11
3.1444562e-09
2.8067613e-12
3.1439007e-09
-8.3429686e-12
3.1443426e-09
9.9473528e-12
3.1442372e-09
-1.2006974e-11
3.1443059e-09
1.20128e-11
3.1442434e-09
-1.121544e-11
3.1442832e-09
1.0938417e-11
3.1442339e-09
-1.0117305e-11
3.1442729e-09
9.6725061e-12
3.144232e-09
-9.0527262e-12
3.1442682e-09
8.583158e-12
3.1442328e-09
-8.0802639e-12
3.1442655e-09
7.6407261e-12
3.1442343e-09
-7.2123357e-12
3.1442637e-09
6.8172426e-12
3.1442358e-09
-6.4449304e-12
3.1442622e-09
6.0952534e-12
3.1442373e-09
-5.7696687e-12
3.1442609e-09
5.4624052e-12
3.1442386e-09
-5.1776085e-12
3.1442598e-09
4.9089019e-12
3.1442398e-09
-4.660412e-12
3.1442588e-09
4.4265069e-12
3.1442408e-09
-4.2106364e-12
3.1442579e-09
4.0081403e-12
3.1442416e-09
-3.821743e-12
3.1442572e-09
3.6476744e-12
3.1442424e-09
-3.4880409e-12
3.1442565e-09
3.3398111e-12
3.144243e-09
-3.2046073e-12
3.144256e-09
3.0799902e-12
3.1442435e-09
-2.9672079e-12
3.1442556e-09
2.864282e-12
3.1442439e-09
-2.7722358e-12
3.1442552e-09
2.6891987e-12
3.1442443e-09
-2.6164591e-12
3.144255e-09
2.5525522e-12
3.1442444e-09
-2.4924323e-12
3.1442543e-09
2.4600152e-12
3.1442428e-09
-2.4010923e-12
3.1442544e-09
2.2800868e-12
3.1442574e-09
-2.977949e-12
2.0164404e-12
3.1018243e-09
2.3582538e-08
3.1965395e-09
-2.5603779e-09
3.2432762e-09
1.1434167e-09
3.248187e-09
-8.0734858e-11
3.2560157e-09
-2.9523646e-11
3.2592435e-09
1.3753861e-11
3.2586703e-09
1.7855175e-11
3.2604665e-09
1.0105879e-12
3.2598057e-09
-7.6821254e-12
3.2603266e-09
9.4264609e-12
3.2601446e-09
-1.182504e-11
3.2602809e-09
1.1876529e-11
3.2601544e-09
-1.1088936e-11
3.2602556e-09
1.0837192e-11
3.2601491e-09
-1.0010729e-11
3.2602426e-09
9.5789123e-12
3.2601505e-09
-8.9606156e-12
3.2602353e-09
8.4984388e-12
3.2601541e-09
-7.9991298e-12
3.2602301e-09
7.5647554e-12
3.260158e-09
-7.1402672e-12
3.260226e-09
6.749292e-12
3.2601617e-09
-6.3806498e-12
3.2602225e-09
6.034465e-12
3.260165e-09
-5.7121778e-12
3.2602195e-09
5.4079446e-12
3.2601679e-09
-5.1260598e-12
3.2602168e-09
4.859999e-12
3.2601705e-09
-4.6140584e-12
3.2602145e-09
4.3824613e-12
3.2601727e-09
-4.1688087e-12
3.2602125e-09
3.9683169e-12
3.2601746e-09
-3.783836e-12
3.2602108e-09
3.6114958e-12
3.2601762e-09
-3.4535045e-12
3.2602093e-09
3.3067502e-12
3.2601776e-09
-3.1729371e-12
3.260208e-09
3.0495619e-12
3.2601788e-09
-2.9379377e-12
3.260207e-09
2.8360351e-12
3.2601797e-09
-2.7449287e-12
3.2602062e-09
2.6627006e-12
3.2601805e-09
-2.5907063e-12
3.2602056e-09
2.5273716e-12
3.2601809e-09
-2.4677092e-12
3.2602047e-09
2.4362074e-12
3.2601798e-09
-2.3761722e-12
3.2602041e-09
2.2558161e-12
3.260189e-09
-2.9628874e-12
1.9784691e-12
3.2292601e-09
2.3301528e-08
3.2971136e-09
-2.6282314e-09
3.35391e-09
1.0866203e-09
3.359196e-09
-8.6020825e-11
3.3665626e-09
-3.6890227e-11
3.3695561e-09
1.0760299e-11
3.3692195e-09
1.8191857e-11
3.3709427e-09
-7.1260526e-13
3.3701928e-09
-6.9322299e-12
3.3707889e-09
8.8303467e-12
3.3705323e-09
-1.156847e-11
3.3707332e-09
1.1675674e-11
3.3705453e-09
-1.0901112e-11
3.3707056e-09
1.0676884e-11
3.3705441e-09
-9.8492185e-12
3.3706902e-09
9.432885e-12
3.370549e-09
-8.819406e-12
3.3706802e-09
8.3671759e-12
3.3705553e-09
-7.8741711e-12
3.3706727e-09
7.4473527e-12
3.3705615e-09
-7.0290813e-12
3.3706664e-09
6.6443765e-12
3.3705672e-09
-6.2814157e-12
3.370661e-09
5.940628e-12
3.3705722e-09
-5.6233973e-12
3.3706563e-09
5.3238674e-12
3.3705767e-09
-5.0464334e-12
3.3706522e-09
4.7844803e-12
3.3705806e-09
-4.5424321e-12
3.3706486e-09
4.3144149e-12
3.3705839e-09
-4.1041469e-12
3.3706455e-09
3.90676e-12
3.3705869e-09
-3.7252032e-12
3.3706428e-09
3.5555372e-12
3.3705894e-09
-3.400051e-12
3.3706405e-09
3.2555774e-12
3.3705915e-09
-3.1238863e-12
3.3706386e-09
3.00243e-12
3.3705933e-09
-2.8925742e-12