/*--------------------------------*- C++ -*----------------------------------*\
| =========                 |                                                 |
| \\      /  F ield         | OpenFOAM: The Open Source CFD Toolbox           |
|  \\    /   O peration     | Version:  2312                                  |
|   \\  /    A nd           | Website:  www.openfoam.com                      |
|    \\/     M anipulation  |                                                 |
\*---------------------------------------------------------------------------*/
FoamFile
{
    version     2.0;
    format      ascii;
    arch        "LSB;label=32;scalar=64";
    class       volSymmTensorField;
    location    "5";
    object      sigma_0;
}
// * * * * * * * * * * * * * * * * * * * * * * * * * * * * * * * * * * * * * //

dimensions      [0 2 -2 0 0 0 0];

internalField   nonuniform List<symmTensor> 
4000
(
(-2.2541981 -1.0071538 0 -0.4060421 0 0)
(-5.6699146 -0.44160831 0 -0.0029485634 0 0)
(-2.9226755 -0.31320781 0 -0.00086180525 0 0)
(-3.1219869 -0.32251728 0 1.0390644e-05 0 0)
(-2.9350394 -0.31260982 0 2.1707051e-05 0 0)
(-3.0391597 -0.3185623 0 -5.4840408e-05 0 0)
(-2.9197509 -0.31176671 0 3.5193915e-05 0 0)
(-3.0031985 -0.31661028 0 -4.3267749e-05 0 0)
(-2.9227677 -0.31193571 0 3.8559978e-05 0 0)
(-2.9939763 -0.31609755 0 -3.7702264e-05 0 0)
(-2.9273016 -0.31219921 0 3.5215315e-05 0 0)
(-2.9890789 -0.31581671 0 -3.3470587e-05 0 0)
(-2.9309914 -0.31241638 0 3.1405923e-05 0 0)
(-2.9853278 -0.31559885 0 -2.9700339e-05 0 0)
(-2.9341989 -0.31260536 0 2.7931727e-05 0 0)
(-2.9821613 -0.31541438 0 -2.6378425e-05 0 0)
(-2.9370605 -0.3127735 0 2.4850565e-05 0 0)
(-2.9794014 -0.31525362 0 -2.3466897e-05 0 0)
(-2.9396118 -0.31292301 0 2.2134214e-05 0 0)
(-2.9769663 -0.31511194 0 -2.0910905e-05 0 0)
(-2.9418847 -0.3130559 0 1.9742809e-05 0 0)
(-2.9748051 -0.31498633 0 -1.86646e-05 0 0)
(-2.9439115 -0.31317417 0 1.7639367e-05 0 0)
(-2.97288 -0.31487457 0 -1.6691086e-05 0 0)
(-2.9457221 -0.31327964 0 1.5791888e-05 0 0)
(-2.9711604 -0.31477486 0 -1.4959899e-05 0 0)
(-2.9473429 -0.31337388 0 1.4172918e-05 0 0)
(-2.9696202 -0.31468566 0 -1.344527e-05 0 0)
(-2.9487976 -0.3134583 0 1.27588e-05 0 0)
(-2.9682367 -0.31460567 0 -1.2125081e-05 0 0)
(-2.9501069 -0.31353413 0 1.1529061e-05 0 0)
(-2.9669898 -0.31453372 0 -1.0980213e-05 0 0)
(-2.9512897 -0.31360244 0 1.0465959e-05 0 0)
(-2.9658616 -0.31446877 0 -9.9941318e-06 0 0)
(-2.9523629 -0.31366424 0 9.554163e-06 0 0)
(-2.9648355 -0.31440989 0 -9.1526015e-06 0 0)
(-2.9533418 -0.31372041 0 8.7805317e-06 0 0)
(-2.963897 -0.31435622 0 -8.4434954e-06 0 0)
(-2.9542407 -0.31377175 0 8.1339559e-06 0 0)
(-2.9630323 -0.31430701 0 -7.8566674e-06 0 0)
(-2.9550724 -0.31381902 0 7.6052805e-06 0 0)
(-2.962229 -0.31426153 0 -7.3839402e-06 0 0)
(-2.9558488 -0.31386287 0 7.1872235e-06 0 0)
(-2.9614752 -0.31421912 0 -7.0196149e-06 0 0)
(-2.9565801 -0.3139039 0 6.8744584e-06 0 0)
(-2.9607576 -0.31417905 0 -6.7588368e-06 0 0)
(-2.9572779 -0.31394265 0 6.6808641e-06 0 0)
(-2.9601009 -0.31414234 0 -6.5470619e-06 0 0)
(-2.9581271 -0.31398815 0 6.7801794e-06 0 0)
(-2.9600883 -0.31414135 0 -6.5746167e-06 0 0)
(-1.9667859 -0.92111315 0 -0.38336344 0 0)
(-4.8744693 -0.42155803 0 -0.0081155682 0 0)
(-2.9860681 -0.32134619 0 -0.0025791107 0 0)
(-2.8834349 -0.30966774 0 -2.2377026e-05 0 0)
(-2.7205884 -0.30102069 0 -6.0101796e-06 0 0)
(-2.8104532 -0.30651685 0 -7.490108e-05 0 0)
(-2.7107605 -0.30035702 0 1.9116246e-05 0 0)
(-2.7795793 -0.30468505 0 -4.9210952e-05 0 0)
(-2.7114681 -0.30036642 0 3.9335494e-05 0 0)
(-2.7715893 -0.30420814 0 -4.0954487e-05 0 0)
(-2.7150794 -0.30059401 0 3.787069e-05 0 0)
(-2.7674834 -0.30395383 0 -3.6487357e-05 0 0)
(-2.7181621 -0.30079231 0 3.4069173e-05 0 0)
(-2.764313 -0.30375318 0 -3.2395583e-05 0 0)
(-2.7208631 -0.30096658 0 3.0383347e-05 0 0)
(-2.7616223 -0.30358199 0 -2.8755798e-05 0 0)
(-2.7232826 -0.30112233 0 2.7060883e-05 0 0)
(-2.759274 -0.3034325 0 -2.5575241e-05 0 0)
(-2.725445 -0.30126118 0 2.4114202e-05 0 0)
(-2.7572006 -0.30330059 0 -2.2788521e-05 0 0)
(-2.7273741 -0.3013848 0 2.1513678e-05 0 0)
(-2.7553593 -0.30318354 0 -2.0341057e-05 0 0)
(-2.729096 -0.30149493 0 1.9223899e-05 0 0)
(-2.7537183 -0.30307932 0 -1.8191179e-05 0 0)
(-2.7306351 -0.30159321 0 1.7211904e-05 0 0)
(-2.752252 -0.30298629 0 -1.630541e-05 0 0)
(-2.7320136 -0.30168106 0 1.544856e-05 0 0)
(-2.7509383 -0.30290305 0 -1.4655696e-05 0 0)
(-2.7332512 -0.30175978 0 1.3908431e-05 0 0)
(-2.749758 -0.30282839 0 -1.3218004e-05 0 0)
(-2.7343656 -0.3018305 0 1.2569359e-05 0 0)
(-2.748694 -0.30276121 0 -1.1971564e-05 0 0)
(-2.7353728 -0.30189423 0 1.1412102e-05 0 0)
(-2.7477308 -0.30270056 0 -1.0898422e-05 0 0)
(-2.7362871 -0.3019519 0 1.0420037e-05 0 0)
(-2.7468545 -0.30264557 0 -9.9831626e-06 0 0)
(-2.7371218 -0.30200433 0 9.5789665e-06 0 0)
(-2.7460524 -0.30259543 0 -9.2127267e-06 0 0)
(-2.7378889 -0.30205227 0 8.8769931e-06 0 0)
(-2.7453129 -0.30254943 0 -8.5763315e-06 0 0)
(-2.7385993 -0.30209643 0 8.3045376e-06 0 0)
(-2.7446252 -0.30250691 0 -8.0655991e-06 0 0)
(-2.7392635 -0.30213743 0 7.8542974e-06 0 0)
(-2.7439793 -0.30246724 0 -7.6761043e-06 0 0)
(-2.7398902 -0.30217582 0 7.5206863e-06 0 0)
(-2.7433631 -0.30242973 0 -7.4058254e-06 0 0)
(-2.7404857 -0.30221183 0 7.3390848e-06 0 0)
(-2.7427801 -0.30239393 0 -7.1241481e-06 0 0)
(-2.7411628 -0.30224941 0 7.8194445e-06 0 0)
(-2.7426484 -0.30238563 0 -7.0714125e-06 0 0)
(-1.8370879 -0.8659796 0 -0.3543866 0 0)
(-4.2779245 -0.3946741 0 -0.0096980874 0 0)
(-2.9006212 -0.32075952 0 -0.0038901709 0 0)
(-2.7531792 -0.30255165 0 -0.0001220243 0 0)
(-2.5819416 -0.29324234 0 -2.8330299e-05 0 0)
(-2.6619563 -0.29841776 0 -8.5909533e-05 0 0)
(-2.5741242 -0.29267141 0 2.8639063e-06 0 0)
(-2.6350344 -0.29671398 0 -4.9873595e-05 0 0)
(-2.5742525 -0.2926197 0 3.5713581e-05 0 0)
(-2.6277734 -0.29625597 0 -3.9351855e-05 0 0)
(-2.5773685 -0.29282806 0 3.6063134e-05 0 0)
(-2.6241184 -0.29601771 0 -3.5110781e-05 0 0)
(-2.5801028 -0.29301524 0 3.2638372e-05 0 0)
(-2.6213009 -0.29582842 0 -3.1178398e-05 0 0)
(-2.5825071 -0.29318027 0 2.9163814e-05 0 0)
(-2.6189035 -0.29566619 0 -2.7657081e-05 0 0)
(-2.5846641 -0.29332805 0 2.599683e-05 0 0)
(-2.6168091 -0.29552434 0 -2.4590164e-05 0 0)
(-2.5865942 -0.29345996 0 2.3174424e-05 0 0)
(-2.614959 -0.29539906 0 -2.1908301e-05 0 0)
(-2.5883177 -0.29357753 0 2.0678327e-05 0 0)
(-2.6133155 -0.29528781 0 -1.9554554e-05 0 0)
(-2.5898569 -0.29368235 0 1.8478469e-05 0 0)
(-2.6118504 -0.29518871 0 -1.748739e-05 0 0)
(-2.5912332 -0.29377592 0 1.6544711e-05 0 0)
(-2.610541 -0.29510022 0 -1.5674258e-05 0 0)
(-2.592466 -0.2938596 0 1.4849665e-05 0 0)
(-2.6093677 -0.29502102 0 -1.4088135e-05 0 0)
(-2.5935731 -0.2939346 0 1.3369127e-05 0 0)
(-2.6083135 -0.29494996 0 -1.270593e-05 0 0)
(-2.59457 -0.29400198 0 1.2081911e-05 0 0)
(-2.607363 -0.29488601 0 -1.1507705e-05 0 0)
(-2.5954712 -0.29406273 0 1.0969582e-05 0 0)
(-2.6065025 -0.29482825 0 -1.0476243e-05 0 0)
(-2.5962894 -0.29411771 0 1.001623e-05 0 0)
(-2.6057195 -0.29477586 0 -9.5967955e-06 0 0)
(-2.5970365 -0.29416772 0 9.2083106e-06 0 0)
(-2.6050025 -0.29472808 0 -8.8569426e-06 0 0)
(-2.5977231 -0.29421347 0 8.5345738e-06 0 0)
(-2.6043413 -0.29468421 0 -8.2465652e-06 0 0)
(-2.5983592 -0.29425562 0 7.9861771e-06 0 0)
(-2.6037262 -0.29464363 0 -7.7580924e-06 0 0)
(-2.5989541 -0.29429479 0 7.5567548e-06 0 0)
(-2.6031481 -0.29460575 0 -7.3888112e-06 0 0)
(-2.5995159 -0.29433151 0 7.2412456e-06 0 0)
(-2.6025961 -0.29456992 0 -7.1412557e-06 0 0)
(-2.6000493 -0.29436589 0 7.0849667e-06 0 0)
(-2.6020683 -0.29453519 0 -6.852454e-06 0 0)
(-2.6006422 -0.2943998 0 7.8035466e-06 0 0)
(-2.6018915 -0.29452533 0 -7.2429068e-06 0 0)
(-1.7770673 -0.83017094 0 -0.33157776 0 0)
(-3.862741 -0.37770183 0 -0.011522513 0 0)
(-2.7971062 -0.31979356 0 -0.0053580884 0 0)
(-2.6297376 -0.29566715 0 -0.0002257579 0 0)
(-2.449628 -0.28561785 0 -6.4672297e-05 0 0)
(-2.5185816 -0.29033411 0 -9.5328063e-05 0 0)
(-2.4404475 -0.28497917 0 -1.8032505e-05 0 0)
(-2.4949431 -0.28874826 0 -4.6760417e-05 0 0)
(-2.4401562 -0.28487265 0 2.8370487e-05 0 0)
(-2.4883051 -0.28830805 0 -3.4282717e-05 0 0)
(-2.4428552 -0.28506158 0 3.1048135e-05 0 0)
(-2.4850101 -0.28808501 0 -3.0697087e-05 0 0)
(-2.4452997 -0.28523777 0 2.835772e-05 0 0)
(-2.482476 -0.28790657 0 -2.7275287e-05 0 0)
(-2.4474606 -0.28539377 0 2.5413648e-05 0 0)
(-2.4803137 -0.28775286 0 -2.4171936e-05 0 0)
(-2.4494018 -0.2855337 0 2.2683432e-05 0 0)
(-2.4784227 -0.28761827 0 -2.1481002e-05 0 0)
(-2.4511405 -0.28565879 0 2.0231718e-05 0 0)
(-2.4767516 -0.28749932 0 -1.9134748e-05 0 0)
(-2.4526941 -0.28577036 0 1.805635e-05 0 0)
(-2.4752668 -0.28739364 0 -1.707773e-05 0 0)
(-2.4540821 -0.28586989 0 1.6136488e-05 0 0)
(-2.4739432 -0.28729947 0 -1.5271737e-05 0 0)
(-2.4553234 -0.28595878 0 1.4447888e-05 0 0)
(-2.4727602 -0.28721535 0 -1.368783e-05 0 0)
(-2.4564355 -0.28603829 0 1.2967419e-05 0 0)
(-2.4717004 -0.28714004 0 -1.2302302e-05 0 0)
(-2.4574341 -0.28610957 0 1.1674236e-05 0 0)
(-2.4707483 -0.28707246 0 -1.1094973e-05 0 0)
(-2.4583333 -0.28617363 0 1.0549943e-05 0 0)
(-2.4698899 -0.28701164 0 -1.0048432e-05 0 0)
(-2.4591461 -0.2862314 0 9.5784828e-06 0 0)
(-2.4691129 -0.28695668 0 -9.1476573e-06 0 0)
(-2.4598841 -0.28628371 0 8.7459988e-06 0 0)
(-2.468406 -0.28690681 0 -8.3798088e-06 0 0)
(-2.4605578 -0.2863313 0 8.040725e-06 0 0)
(-2.4677589 -0.28686129 0 -7.7341272e-06 0 0)
(-2.461177 -0.28637487 0 7.4529619e-06 0 0)
(-2.4671622 -0.28681949 0 -7.2019403e-06 0 0)
(-2.4617506 -0.28641505 0 6.9752449e-06 0 0)
(-2.4666072 -0.28678079 0 -6.7769611e-06 0 0)
(-2.4622869 -0.28645241 0 6.6024094e-06 0 0)
(-2.4660858 -0.28674464 0 -6.4581724e-06 0 0)
(-2.4627935 -0.28648748 0 6.329371e-06 0 0)
(-2.4655879 -0.28671042 0 -6.2514321e-06 0 0)
(-2.4632739 -0.2865203 0 6.209432e-06 0 0)
(-2.4651071 -0.2866767 0 -5.9472039e-06 0 0)
(-2.4637934 -0.28655078 0 7.173328e-06 0 0)
(-2.4648888 -0.2866649 0 -6.6753553e-06 0 0)
(-1.697054 -0.77634377 0 -0.29737911 0 0)
(-3.4448874 -0.35802837 0 -0.012399985 0 0)
(-2.6574902 -0.31611779 0 -0.0066001773 0 0)
(-2.5061311 -0.28876368 0 -0.00032874263 0 0)
(-2.3235855 -0.2781152 0 -0.00010739529 0 0)
(-2.3801223 -0.28227498 0 -0.00010608587 0 0)
(-2.310011 -0.27726089 0 -3.6641116e-05 0 0)
(-2.3590249 -0.28079113 0 -4.3607889e-05 0 0)
(-2.3093458 -0.27711507 0 2.1512662e-05 0 0)
(-2.3529121 -0.28036801 0 -2.935483e-05 0 0)
(-2.3116896 -0.27728712 0 2.6274272e-05 0 0)
(-2.3499171 -0.28015867 0 -2.6416011e-05 0 0)
(-2.3138858 -0.2774535 0 2.4234868e-05 0 0)
(-2.3476247 -0.27999016 0 -2.3493124e-05 0 0)
(-2.3158406 -0.27760141 0 2.1787404e-05 0 0)
(-2.3456643 -0.2798443 0 -2.0795442e-05 0 0)
(-2.3175988 -0.27773425 0 1.9475497e-05 0 0)
(-2.3439479 -0.27971639 0 -1.8468296e-05 0 0)
(-2.3191747 -0.27785312 0 1.7381049e-05 0 0)
(-2.3424306 -0.27960327 0 -1.6446719e-05 0 0)
(-2.3205835 -0.27795922 0 1.5515565e-05 0 0)
(-2.3410822 -0.27950273 0 -1.4676937e-05 0 0)
(-2.3218425 -0.27805392 0 1.38666e-05 0 0)
(-2.3398803 -0.27941311 0 -1.31239e-05 0 0)
(-2.3229685 -0.2781385 0 1.2415372e-05 0 0)
(-2.3388063 -0.27933305 0 -1.1762077e-05 0 0)
(-2.3239773 -0.27821419 0 1.1142736e-05 0 0)
(-2.3378442 -0.27926137 0 -1.0570907e-05 0 0)
(-2.324883 -0.27828204 0 1.0031025e-05 0 0)
(-2.33698 -0.27919703 0 -9.5329847e-06 0 0)
(-2.3256986 -0.27834303 0 9.0645018e-06 0 0)
(-2.3362012 -0.27913911 0 -8.633321e-06 0 0)
(-2.3264356 -0.27839805 0 8.2293844e-06 0 0)
(-2.3354963 -0.27908677 0 -7.8589983e-06 0 0)
(-2.3271047 -0.27844787 0 7.513776e-06 0 0)
(-2.3348552 -0.27903926 0 -7.1989932e-06 0 0)
(-2.3277154 -0.27849322 0 6.9075913e-06 0 0)
(-2.3342685 -0.27899588 0 -6.6441001e-06 0 0)
(-2.3282765 -0.27853476 0 6.4025562e-06 0 0)
(-2.3337277 -0.27895602 0 -6.186948e-06 0 0)
(-2.3287961 -0.27857308 0 5.9923983e-06 0 0)
(-2.3332249 -0.27891909 0 -5.8222887e-06 0 0)
(-2.3292818 -0.27860873 0 5.6728478e-06 0 0)
(-2.3327527 -0.27888459 0 -5.5502142e-06 0 0)
(-2.3297405 -0.27864224 0 5.4381896e-06 0 0)
(-2.3323022 -0.27885191 0 -5.3789743e-06 0 0)
(-2.3301749 -0.27867361 0 5.3442375e-06 0 0)
(-2.3318642 -0.2788193 0 -5.0581485e-06 0 0)
(-2.3306334 -0.27870133 0 6.4816143e-06 0 0)
(-2.3316199 -0.27880598 0 -6.049556e-06 0 0)
(-1.6645759 -0.74891542 0 -0.27957557 0 0)
(-3.0603662 -0.34036249 0 -0.0134196 0 0)
(-2.5025992 -0.31105947 0 -0.0077053981 0 0)
(-2.3793412 -0.28160173 0 -0.00042092637 0 0)
(-2.2015694 -0.27063747 0 -0.00015477167 0 0)
(-2.2461449 -0.27422849 0 -0.00011774511 0 0)
(-2.1828917 -0.26951641 0 -5.1992606e-05 0 0)
(-2.2270929 -0.2728363 0 -4.0860772e-05 0 0)
(-2.1819473 -0.26934906 0 1.5897041e-05 0 0)
(-2.2214608 -0.27243278 0 -2.5203097e-05 0 0)
(-2.1839944 -0.26950739 0 2.2376111e-05 0 0)
(-2.2187342 -0.27223666 0 -2.2857107e-05 0 0)
(-2.1859736 -0.26966503 0 2.0831693e-05 0 0)
(-2.2166565 -0.27207754 0 -2.0359938e-05 0 0)
(-2.1877472 -0.26980551 0 1.8783871e-05 0 0)
(-2.2148757 -0.27193905 0 -1.7997985e-05 0 0)
(-2.1893438 -0.26993175 0 1.6816696e-05 0 0)
(-2.2133145 -0.27181741 0 -1.5970947e-05 0 0)
(-2.1907753 -0.27004479 0 1.5017807e-05 0 0)
(-2.2119339 -0.27170977 0 -1.4217738e-05 0 0)
(-2.1920555 -0.27014574 0 1.3408896e-05 0 0)
(-2.2107069 -0.27161407 0 -1.2685783e-05 0 0)
(-2.1931997 -0.27023587 0 1.1984361e-05 0 0)
(-2.2096133 -0.27152876 0 -1.1342402e-05 0 0)
(-2.1942232 -0.27031639 0 1.0729879e-05 0 0)
(-2.2086362 -0.27145254 0 -1.0164743e-05 0 0)
(-2.19514 -0.27038844 0 9.6295502e-06 0 0)
(-2.2077611 -0.27138428 0 -9.134776e-06 0 0)
(-2.1959631 -0.27045305 0 8.668302e-06 0 0)
(-2.2069752 -0.27132302 0 -8.237359e-06 0 0)
(-2.1967043 -0.27051113 0 7.8325777e-06 0 0)
(-2.206267 -0.27126786 0 -7.4594928e-06 0 0)
(-2.1973739 -0.27056352 0 7.1104675e-06 0 0)
(-2.2056263 -0.271218 0 -6.7899918e-06 0 0)
(-2.1979817 -0.27061099 0 6.4916851e-06 0 0)
(-2.2050436 -0.27117273 0 -6.2193242e-06 0 0)
(-2.1985364 -0.2706542 0 5.967519e-06 0 0)
(-2.2045106 -0.27113138 0 -5.739548e-06 0 0)
(-2.1990459 -0.27069379 0 5.5308427e-06 0 0)
(-2.2040195 -0.27109338 0 -5.3443253e-06 0 0)
(-2.1995175 -0.27073033 0 5.1763063e-06 0 0)
(-2.203563 -0.27105816 0 -5.0291722e-06 0 0)
(-2.1999583 -0.27076435 0 4.900261e-06 0 0)
(-2.2031346 -0.27102523 0 -4.7948634e-06 0 0)
(-2.2003743 -0.27079635 0 4.6961147e-06 0 0)
(-2.2027262 -0.27099404 0 -4.6514568e-06 0 0)
(-2.2007679 -0.27082632 0 4.6193972e-06 0 0)
(-2.202327 -0.2709626 0 -4.3130451e-06 0 0)
(-2.2011736 -0.2708517 0 5.8741547e-06 0 0)
(-2.2020669 -0.27094795 0 -5.4843034e-06 0 0)
(-1.6128124 -0.70113292 0 -0.24899497 0 0)
(-2.6938318 -0.32268084 0 -0.014084573 0 0)
(-2.3366231 -0.3040939 0 -0.0084577646 0 0)
(-2.2457099 -0.2741949 0 -0.0005836064 0 0)
(-2.0837615 -0.26337706 0 -0.00024110304 0 0)
(-2.1173802 -0.26628063 0 -0.00013844007 0 0)
(-2.0596539 -0.26178958 0 -6.7789505e-05 0 0)
(-2.0993493 -0.26489789 0 -3.8966537e-05 0 0)
(-2.0581523 -0.26158367 0 1.1002608e-05 0 0)
(-2.0939606 -0.26450368 0 -2.1671285e-05 0 0)
(-2.0598471 -0.26172536 0 1.9096995e-05 0 0)
(-2.0914284 -0.26431802 0 -1.9826804e-05 0 0)
(-2.0616113 -0.26187401 0 1.7949231e-05 0 0)
(-2.0895334 -0.26416742 0 -1.7697022e-05 0 0)
(-2.0632186 -0.26200735 0 1.6231634e-05 0 0)
(-2.0879126 -0.26403591 0 -1.562042e-05 0 0)
(-2.0646694 -0.26212729 0 1.4555883e-05 0 0)
(-2.0864912 -0.26392026 0 -1.3847658e-05 0 0)
(-2.0659709 -0.26223476 0 1.3007964e-05 0 0)
(-2.0852338 -0.26381787 0 -1.2322142e-05 0 0)
(-2.0671352 -0.26233077 0 1.1617122e-05 0 0)
(-2.0841164 -0.26372683 0 -1.0992249e-05 0 0)
(-2.0681759 -0.2624165 0 1.0383427e-05 0 0)
(-2.0831206 -0.26364565 0 -9.8271409e-06 0 0)
(-2.0691068 -0.26249311 0 9.2962947e-06 0 0)
(-2.082231 -0.26357313 0 -8.8061373e-06 0 0)
(-2.0699407 -0.26256166 0 8.3425509e-06 0 0)
(-2.0814344 -0.26350818 0 -7.9133124e-06 0 0)
(-2.0706894 -0.26262313 0 7.5093074e-06 0 0)
(-2.0807192 -0.26344988 0 -7.1354291e-06 0 0)
(-2.0713634 -0.2626784 0 6.7848528e-06 0 0)
(-2.0800748 -0.26339737 0 -6.4611716e-06 0 0)
(-2.0719723 -0.26272827 0 6.1588637e-06 0 0)
(-2.0794919 -0.26334991 0 -5.8808222e-06 0 0)
(-2.0725249 -0.26277346 0 5.6224191e-06 0 0)
(-2.078962 -0.2633068 0 -5.3861118e-06 0 0)
(-2.0730291 -0.26281461 0 5.1679678e-06 0 0)
(-2.0784773 -0.26326743 0 -4.9701623e-06 0 0)
(-2.0734922 -0.26285232 0 4.7893435e-06 0 0)
(-2.0780308 -0.26323122 0 -4.6274933e-06 0 0)
(-2.0739207 -0.26288714 0 4.4819505e-06 0 0)
(-2.077616 -0.26319764 0 -4.3542245e-06 0 0)
(-2.0743211 -0.26291958 0 4.2426215e-06 0 0)
(-2.0772268 -0.26316624 0 -4.151578e-06 0 0)
(-2.0746989 -0.26295011 0 4.0639123e-06 0 0)
(-2.0768562 -0.26313651 0 -4.0311811e-06 0 0)
(-2.075056 -0.26297873 0 3.9994442e-06 0 0)
(-2.0764924 -0.26310626 0 -3.6784599e-06 0 0)
(-2.0754156 -0.2630021 0 5.3263712e-06 0 0)
(-2.0762243 -0.2630905 0 -4.9703757e-06 0 0)
(-1.5903127 -0.67221649 0 -0.23027252 0 0)
(-2.3535077 -0.30764348 0 -0.015368027 0 0)
(-2.1821904 -0.29731432 0 -0.0089746455 0 0)
(-2.0986712 -0.26559573 0 -0.0007601193 0 0)
(-1.9565916 -0.25541928 0 -0.00031310557 0 0)
(-1.989638 -0.25820355 0 -0.00015752861 0 0)
(-1.9383858 -0.25399016 0 -8.0924103e-05 0 0)
(-1.9749484 -0.25694215 0 -3.7096306e-05 0 0)
(-1.9376274 -0.25380537 0 6.8151798e-06 0 0)
(-1.9702299 -0.25657448 0 -1.8466332e-05 0 0)
(-1.939206 -0.25393904 0 1.6257491e-05 0 0)
(-1.9679488 -0.25640133 0 -1.7119911e-05 0 0)
(-1.9408086 -0.25408038 0 1.5411937e-05 0 0)
(-1.9662308 -0.2562593 0 -1.5332044e-05 0 0)
(-1.9422712 -0.25420715 0 1.3972212e-05 0 0)
(-1.964757 -0.25613456 0 -1.3511983e-05 0 0)
(-1.9435914 -0.25432112 0 1.2551687e-05 0 0)
(-1.9634626 -0.25602468 0 -1.1964944e-05 0 0)
(-1.9447756 -0.25442324 0 1.1225663e-05 0 0)
(-1.9623172 -0.25592735 0 -1.0641192e-05 0 0)
(-1.9458349 -0.25451449 0 1.0028073e-05 0 0)
(-1.9612993 -0.2558408 0 -9.4904222e-06 0 0)
(-1.9467818 -0.25459598 0 8.9636202e-06 0 0)
(-1.9603923 -0.25576363 0 -8.4834111e-06 0 0)
(-1.9476288 -0.2546688 0 8.0249379e-06 0 0)
(-1.9595821 -0.25569467 0 -7.6013595e-06 0 0)
(-1.9483876 -0.25473397 0 7.2012329e-06 0 0)
(-1.9588568 -0.25563292 0 -6.8301823e-06 0 0)
(-1.9490687 -0.25479242 0 6.4815415e-06 0 0)
(-1.9582056 -0.25557748 0 -6.1583221e-06 0 0)
(-1.9496819 -0.25484497 0 5.8557847e-06 0 0)
(-1.957619 -0.25552755 0 -5.5759537e-06 0 0)
(-1.9502358 -0.2548924 0 5.3150456e-06 0 0)
(-1.9570885 -0.25548241 0 -5.0746605e-06 0 0)
(-1.9507385 -0.25493538 0 4.8516129e-06 0 0)
(-1.9566063 -0.2554414 0 -4.6472908e-06 0 0)
(-1.951197 -0.25497453 0 4.4589609e-06 0 0)
(-1.9561654 -0.25540392 0 -4.2879037e-06 0 0)
(-1.9516181 -0.25501043 0 4.1317663e-06 0 0)
(-1.9557593 -0.25536945 0 -3.9917675e-06 0 0)
(-1.9520077 -0.25504358 0 3.8660847e-06 0 0)
(-1.9553822 -0.25533748 0 -3.7555137e-06 0 0)
(-1.9523715 -0.25507447 0 3.6591578e-06 0 0)
(-1.9550285 -0.25530756 0 -3.580664e-06 0 0)
(-1.9527148 -0.25510358 0 3.5028154e-06 0 0)
(-1.954692 -0.25527923 0 -3.4802281e-06 0 0)
(-1.9530391 -0.2551309 0 3.4478498e-06 0 0)
(-1.9543604 -0.25525021 0 -3.1175568e-06 0 0)
(-1.9533581 -0.25515253 0 4.810712e-06 0 0)
(-1.95409 -0.25523354 0 -4.4886832e-06 0 0)
(-1.5686631 -0.64376746 0 -0.2129094 0 0)
(-2.0469471 -0.29224409 0 -0.016426228 0 0)
(-2.0254486 -0.28664175 0 -0.0085189637 0 0)
(-1.9645487 -0.25991584 0 -0.0015799807 0 0)
(-1.8400988 -0.24827755 0 -0.00050585341 0 0)
(-1.867832 -0.25028139 0 -0.00019274361 0 0)
(-1.8215406 -0.24623747 0 -9.6885955e-05 0 0)
(-1.8547753 -0.24900623 0 -3.5949646e-05 0 0)
(-1.8208017 -0.24603019 0 2.943463e-06 0 0)
(-1.8504145 -0.24865128 0 -1.5588112e-05 0 0)
(-1.8221626 -0.24615123 0 1.3734035e-05 0 0)
(-1.8483088 -0.2484877 0 -1.4675347e-05 0 0)
(-1.8235955 -0.24628471 0 1.31401e-05 0 0)
(-1.8467395 -0.24835335 0 -1.3200043e-05 0 0)
(-1.8249221 -0.24640506 0 1.194081e-05 0 0)
(-1.8453968 -0.24823502 0 -1.1613239e-05 0 0)
(-1.8261228 -0.24651327 0 1.074761e-05 0 0)
(-1.8442176 -0.24813067 0 -1.0269777e-05 0 0)
(-1.8272003 -0.24661024 0 9.6208492e-06 0 0)
(-1.8431741 -0.24803822 0 -9.1276643e-06 0 0)
(-1.8281642 -0.24669691 0 8.5971837e-06 0 0)
(-1.8422468 -0.247956 0 -8.138169e-06 0 0)
(-1.8290258 -0.24677431 0 7.6851422e-06 0 0)
(-1.8414206 -0.24788269 0 -7.2735328e-06 0 0)
(-1.8297965 -0.24684348 0 6.8801691e-06 0 0)
(-1.8406828 -0.24781718 0 -6.5166221e-06 0 0)
(-1.8304869 -0.24690538 0 6.1735893e-06 0 0)
(-1.8400223 -0.24775851 0 -5.8549962e-06 0 0)
(-1.8311066 -0.2469609 0 5.556165e-06 0 0)
(-1.8394295 -0.24770584 0 -5.2786074e-06 0 0)
(-1.8316644 -0.24701084 0 5.0192872e-06 0 0)
(-1.8388955 -0.24765839 0 -4.7789731e-06 0 0)
(-1.8321684 -0.2470559 0 4.555306e-06 0 0)
(-1.8384127 -0.24761549 0 -4.3488487e-06 0 0)
(-1.8326256 -0.24709675 0 4.1575996e-06 0 0)
(-1.8379739 -0.2475765 0 -3.9820871e-06 0 0)
(-1.8330426 -0.24713398 0 3.8205633e-06 0 0)
(-1.8375727 -0.24754087 0 -3.6735872e-06 0 0)
(-1.8334255 -0.24716811 0 3.5396264e-06 0 0)
(-1.8372033 -0.24750808 0 -3.4192829e-06 0 0)
(-1.8337798 -0.24719965 0 3.3114175e-06 0 0)
(-1.8368604 -0.24747766 0 -3.216249e-06 0 0)
(-1.8341105 -0.24722905 0 3.1335347e-06 0 0)
(-1.8365389 -0.24744917 0 -3.0661932e-06 0 0)
(-1.8344226 -0.24725678 0 2.9972331e-06 0 0)
(-1.8362333 -0.24742221 0 -2.9832871e-06 0 0)
(-1.8347172 -0.24728283 0 2.9498984e-06 0 0)
(-1.8359312 -0.24739443 0 -2.6150132e-06 0 0)
(-1.8350004 -0.24730295 0 4.3181311e-06 0 0)
(-1.8356628 -0.24737703 0 -4.0350285e-06 0 0)
(-1.5601847 -0.60286212 0 -0.18523003 0 0)
(-1.8102079 -0.28018332 0 -0.017190657 0 0)
(-1.8737236 -0.27412494 0 -0.0076978267 0 0)
(-1.8275691 -0.25228093 0 -0.001987385 0 0)
(-1.7221724 -0.24050851 0 -0.0006078809 0 0)
(-1.7489621 -0.24225569 0 -0.00021209293 0 0)
(-1.7076633 -0.23843235 0 -0.00010620104 0 0)
(-1.7382185 -0.2410589 0 -3.3420707e-05 0 0)
(-1.7074142 -0.23824514 0 -1.1719092e-08 0 0)
(-1.7343707 -0.24072868 0 -1.28075e-05 0 0)
(-1.7086749 -0.23835972 0 1.1547282e-05 0 0)
(-1.7324663 -0.24057601 0 -1.2436631e-05 0 0)
(-1.7099743 -0.23848662 0 1.1107696e-05 0 0)
(-1.7310408 -0.24044931 0 -1.1267009e-05 0 0)
(-1.7111813 -0.23860101 0 1.0109776e-05 0 0)
(-1.7298194 -0.2403372 0 -9.8963636e-06 0 0)
(-1.7122741 -0.23870376 0 9.118439e-06 0 0)
(-1.7287459 -0.2402382 0 -8.7379594e-06 0 0)
(-1.7132544 -0.23879579 0 8.170982e-06 0 0)
(-1.7277956 -0.24015045 0 -7.7601637e-06 0 0)
(-1.7141313 -0.23887804 0 7.3043493e-06 0 0)
(-1.7269512 -0.24007241 0 -6.9164405e-06 0 0)
(-1.7149151 -0.2389515 0 6.5300311e-06 0 0)
(-1.7261989 -0.24000282 0 -6.1804779e-06 0 0)
(-1.7156161 -0.23901715 0 5.8458996e-06 0 0)
(-1.7255272 -0.23994063 0 -5.5366564e-06 0 0)
(-1.7162441 -0.2390759 0 5.2451685e-06 0 0)
(-1.724926 -0.23988494 0 -4.9740208e-06 0 0)
(-1.7168077 -0.2391286 0 4.7201558e-06 0 0)
(-1.7243864 -0.23983494 0 -4.4838894e-06 0 0)
(-1.7173151 -0.239176 0 4.2635814e-06 0 0)
(-1.7239005 -0.23978989 0 -4.058995e-06 0 0)
(-1.7177734 -0.23921879 0 3.8689426e-06 0 0)
(-1.7234612 -0.23974914 0 -3.6931533e-06 0 0)
(-1.7181892 -0.23925759 0 3.5306022e-06 0 0)
(-1.7230619 -0.23971211 0 -3.3811243e-06 0 0)
(-1.7185685 -0.23929294 0 3.243786e-06 0 0)
(-1.722697 -0.23967826 0 -3.118562e-06 0 0)
(-1.7189166 -0.23932538 0 3.0045983e-06 0 0)
(-1.7223611 -0.2396471 0 -2.9019954e-06 0 0)
(-1.7192386 -0.23935536 0 2.8101748e-06 0 0)
(-1.7220493 -0.23961817 0 -2.728888e-06 0 0)
(-1.7195392 -0.23938332 0 2.6584281e-06 0 0)
(-1.7217571 -0.23959108 0 -2.6010409e-06 0 0)
(-1.7198227 -0.2394097 0 2.5401986e-06 0 0)
(-1.7214796 -0.23956544 0 -2.5335342e-06 0 0)
(-1.7200905 -0.23943452 0 2.4991438e-06 0 0)
(-1.7212046 -0.23953889 0 -2.1637918e-06 0 0)
(-1.7203419 -0.23945332 0 3.846722e-06 0 0)
(-1.7209415 -0.23952094 0 -3.6096099e-06 0 0)
(-1.559601 -0.57986307 0 -0.17025925 0 0)
(-1.6331562 -0.26365476 0 -0.015470447 0 0)
(-1.7221191 -0.26652344 0 -0.0091820978 0 0)
(-1.6980355 -0.24354148 0 -0.002019594 0 0)
(-1.6101513 -0.23262001 0 -0.0006410613 0 0)
(-1.6347789 -0.23420949 0 -0.00021201318 0 0)
(-1.5976615 -0.23061333 0 -0.00010774338 0 0)
(-1.6256081 -0.23311167 0 -2.8712021e-05 0 0)
(-1.597645 -0.23045568 0 -1.8878136e-06 0 0)
(-1.6221538 -0.23280854 0 -1.0024646e-05 0 0)
(-1.5987892 -0.23056559 0 9.6793109e-06 0 0)
(-1.6204228 -0.23266656 0 -1.0370893e-05 0 0)
(-1.5999634 -0.23068642 0 9.2871803e-06 0 0)
(-1.6191266 -0.2325472 0 -9.5076194e-06 0 0)
(-1.6010606 -0.23079515 0 8.4550155e-06 0 0)
(-1.6180159 -0.23244107 0 -8.3390338e-06 0 0)
(-1.6020546 -0.23089265 0 7.6430723e-06 0 0)
(-1.6170392 -0.23234722 0 -7.3496959e-06 0 0)
(-1.6029461 -0.23097994 0 6.857376e-06 0 0)
(-1.6161744 -0.232264 0 -6.5210865e-06 0 0)
(-1.6037432 -0.23105793 0 6.132941e-06 0 0)
(-1.6154059 -0.23218998 0 -5.809531e-06 0 0)
(-1.6044557 -0.23112759 0 5.4834378e-06 0 0)
(-1.6147214 -0.23212398 0 -5.1901955e-06 0 0)
(-1.605093 -0.23118984 0 4.9088313e-06 0 0)
(-1.6141103 -0.23206501 0 -4.6488595e-06 0 0)
(-1.6056639 -0.23124556 0 4.4040279e-06 0 0)
(-1.6135634 -0.23201218 0 -4.1759204e-06 0 0)
(-1.6061762 -0.23129554 0 3.9627548e-06 0 0)
(-1.6130726 -0.23196475 0 -3.7639385e-06 0 0)
(-1.6066374 -0.2313405 0 3.5789397e-06 0 0)
(-1.6126307 -0.23192201 0 -3.4067511e-06 0 0)
(-1.607054 -0.23138109 0 3.2471212e-06 0 0)
(-1.6122312 -0.23188335 0 -3.0991362e-06 0 0)
(-1.6074319 -0.2314179 0 2.9625553e-06 0 0)
(-1.6118682 -0.23184821 0 -2.8366752e-06 0 0)
(-1.6077766 -0.23145146 0 2.7212191e-06 0 0)
(-1.6115365 -0.23181608 0 -2.6157044e-06 0 0)
(-1.6080929 -0.23148225 0 2.5198256e-06 0 0)
(-1.6112312 -0.23178649 0 -2.4332877e-06 0 0)
(-1.6083855 -0.23151072 0 2.355962e-06 0 0)
(-1.6109478 -0.23175901 0 -2.2872337e-06 0 0)
(-1.6086585 -0.23153728 0 2.2278224e-06 0 0)
(-1.6106824 -0.23173326 0 -2.1793654e-06 0 0)
(-1.608916 -0.23156236 0 2.1259984e-06 0 0)
(-1.6104306 -0.2317089 0 -2.1254003e-06 0 0)
(-1.6091592 -0.231586 0 2.0903046e-06 0 0)
(-1.6101804 -0.23168359 0 -1.7581515e-06 0 0)
(-1.6093824 -0.23160363 0 3.3952087e-06 0 0)
(-1.6099249 -0.23166523 0 -3.2122429e-06 0 0)
(-1.5748016 -0.54514759 0 -0.14613755 0 0)
(-1.486696 -0.25333469 0 -0.015357199 0 0)
(-1.5787239 -0.25592543 0 -0.0091247667 0 0)
(-1.580874 -0.233966 0 -0.0015148344 0 0)
(-1.5069229 -0.2247092 0 -0.00056948559 0 0)
(-1.526317 -0.22615441 0 -0.00018177587 0 0)
(-1.4921161 -0.22278893 0 -9.8866928e-05 0 0)
(-1.517194 -0.22516814 0 -2.068473e-05 0 0)
(-1.4916357 -0.22266409 0 -2.3407781e-06 0 0)
(-1.5138078 -0.2248916 0 -7.0576348e-06 0 0)
(-1.4925412 -0.22276935 0 8.1578841e-06 0 0)
(-1.5121777 -0.22475936 0 -8.4281842e-06 0 0)
(-1.4935766 -0.22288423 0 7.6630483e-06 0 0)
(-1.5109894 -0.22464692 0 -7.894467e-06 0 0)
(-1.4945689 -0.22298752 0 6.9567596e-06 0 0)
(-1.5099785 -0.22454655 0 -6.9199054e-06 0 0)
(-1.4954718 -0.22307999 0 6.3028054e-06 0 0)
(-1.5090906 -0.22445766 0 -6.0866776e-06 0 0)
(-1.4962817 -0.22316272 0 5.6631152e-06 0 0)
(-1.5083043 -0.22437882 0 -5.3942918e-06 0 0)
(-1.4970058 -0.22323662 0 5.0678012e-06 0 0)
(-1.5076058 -0.22430869 0 -4.8030708e-06 0 0)
(-1.4976529 -0.22330261 0 4.5317942e-06 0 0)
(-1.5069835 -0.22424615 0 -4.2898352e-06 0 0)
(-1.4982317 -0.22336159 0 4.0568024e-06 0 0)
(-1.506428 -0.22419026 0 -3.8417056e-06 0 0)
(-1.4987501 -0.22341438 0 3.6392418e-06 0 0)
(-1.505931 -0.22414021 0 -3.4503277e-06 0 0)
(-1.4992154 -0.22346174 0 3.2741189e-06 0 0)
(-1.505485 -0.22409525 0 -3.1093986e-06 0 0)
(-1.4996343 -0.22350434 0 2.9564616e-06 0 0)
(-1.5050835 -0.22405475 0 -2.8137638e-06 0 0)
(-1.5000126 -0.22354282 0 2.6817581e-06 0 0)
(-1.5047205 -0.2240181 0 -2.5590778e-06 0 0)
(-1.5003557 -0.22357771 0 2.4460771e-06 0 0)
(-1.5043908 -0.22398478 0 -2.3416693e-06 0 0)
(-1.5006687 -0.22360953 0 2.2460788e-06 0 0)
(-1.5040895 -0.2239543 0 -2.1584933e-06 0 0)
(-1.5009559 -0.22363874 0 2.0790276e-06 0 0)
(-1.5038122 -0.22392623 0 -2.0070974e-06 0 0)
(-1.5012215 -0.22366575 0 1.9429157e-06 0 0)
(-1.5035549 -0.22390015 0 -1.8856016e-06 0 0)
(-1.5014693 -0.22369096 0 1.8361928e-06 0 0)
(-1.503314 -0.22387571 0 -1.7957961e-06 0 0)
(-1.501703 -0.22371478 0 1.7493669e-06 0 0)
(-1.5030857 -0.22385258 0 -1.7537537e-06 0 0)
(-1.5019238 -0.22373727 0 1.7184491e-06 0 0)
(-1.5028584 -0.2238285 0 -1.392758e-06 0 0)
(-1.5021216 -0.22375386 0 2.9622117e-06 0 0)
(-1.5026123 -0.22380987 0 -2.8420974e-06 0 0)
(-1.5797342 -0.52675894 0 -0.13484907 0 0)
(-1.3658132 -0.24114174 0 -0.01446437 0 0)
(-1.4506176 -0.24543624 0 -0.0089947705 0 0)
(-1.4725678 -0.22504072 0 -0.0011621887 0 0)
(-1.4067026 -0.21681254 0 -0.00050089371 0 0)
(-1.4221049 -0.21813934 0 -0.00014773267 0 0)
(-1.3902801 -0.21496569 0 -8.7256733e-05 0 0)
(-1.4127003 -0.21723304 0 -1.1818205e-05 0 0)
(-1.3892955 -0.2148722 0 -2.155855e-06 0 0)
(-1.4092933 -0.21697887 0 -4.1213979e-06 0 0)
(-1.3899345 -0.21497179 0 6.8813079e-06 0 0)
(-1.407724 -0.21685472 0 -6.6105842e-06 0 0)
(-1.3908248 -0.2150804 0 6.2064469e-06 0 0)
(-1.4066239 -0.21674854 0 -6.4107166e-06 0 0)
(-1.391715 -0.21517829 0 5.595996e-06 0 0)
(-1.4057017 -0.21665362 0 -5.6221456e-06 0 0)
(-1.3925324 -0.21526588 0 5.0814634e-06 0 0)
(-1.4048946 -0.2165695 0 -4.9337645e-06 0 0)
(-1.3932669 -0.21534419 0 4.5738695e-06 0 0)
(-1.4041805 -0.21649487 0 -4.3662742e-06 0 0)
(-1.3939238 -0.21541414 0 4.0961505e-06 0 0)
(-1.4035462 -0.21642848 0 -3.8849911e-06 0 0)
(-1.3945108 -0.2154766 0 3.663675e-06 0 0)
(-1.4029812 -0.21636928 0 -3.4685893e-06 0 0)
(-1.3950359 -0.21553243 0 3.2795756e-06 0 0)
(-1.4024769 -0.21631637 0 -3.1054956e-06 0 0)
(-1.3955061 -0.2155824 0 2.9416142e-06 0 0)
(-1.4020257 -0.21626899 0 -2.7885165e-06 0 0)
(-1.3959282 -0.21562723 0 2.6459626e-06 0 0)
(-1.4016209 -0.21622642 0 -2.5123936e-06 0 0)
(-1.3963081 -0.21566757 0 2.388655e-06 0 0)
(-1.4012565 -0.21618807 0 -2.2728955e-06 0 0)
(-1.3966512 -0.215704 0 2.1660476e-06 0 0)
(-1.4009271 -0.21615336 0 -2.0664778e-06 0 0)
(-1.3969625 -0.21573705 0 1.9749517e-06 0 0)
(-1.400628 -0.21612179 0 -1.8901505e-06 0 0)
(-1.3972463 -0.21576719 0 1.8126502e-06 0 0)
(-1.4003546 -0.21609292 0 -1.7414324e-06 0 0)
(-1.3975068 -0.21579486 0 1.6769095e-06 0 0)
(-1.4001031 -0.21606631 0 -1.618311e-06 0 0)
(-1.3977476 -0.21582047 0 1.5660879e-06 0 0)
(-1.3998698 -0.21604159 0 -1.5191901e-06 0 0)
(-1.3979722 -0.21584437 0 1.4788686e-06 0 0)
(-1.3996514 -0.2160184 0 -1.4457864e-06 0 0)
(-1.3981841 -0.21586697 0 1.4058343e-06 0 0)