/*--------------------------------*- C++ -*----------------------------------*\
| =========                 |                                                 |
| \\      /  F ield         | OpenFOAM: The Open Source CFD Toolbox           |
|  \\    /   O peration     | Version:  2312                                  |
|   \\  /    A nd           | Website:  www.openfoam.com                      |
|    \\/     M anipulation  |                                                 |
\*---------------------------------------------------------------------------*/
FoamFile
{
    version     2.0;
    format      ascii;
    arch        "LSB;label=32;scalar=64";
    class       volSymmTensorField;
    location    "5";
    object      sigma;
}
// * * * * * * * * * * * * * * * * * * * * * * * * * * * * * * * * * * * * * //

dimensions      [0 2 -2 0 0 0 0];

internalField   nonuniform List<symmTensor> 
4000
(
(-2.2572269 -1.0091847 0 -0.40720362 0 0)
(-5.6660144 -0.44132945 0 -0.00294296 0 0)
(-2.9223975 -0.3131887 0 -0.00085942946 0 0)
(-3.1218327 -0.32250171 0 1.0518939e-05 0 0)
(-2.9350291 -0.31261231 0 2.1772392e-05 0 0)
(-3.0391738 -0.3185603 0 -5.4882092e-05 0 0)
(-2.9197167 -0.31176623 0 3.5259388e-05 0 0)
(-3.0032461 -0.31661196 0 -4.333203e-05 0 0)
(-2.9227209 -0.31193362 0 3.8623415e-05 0 0)
(-2.9940242 -0.31610004 0 -3.7762575e-05 0 0)
(-2.9272581 -0.31219674 0 3.5268303e-05 0 0)
(-2.9891179 -0.31581907 0 -3.3516021e-05 0 0)
(-2.9309586 -0.31241428 0 3.1443211e-05 0 0)
(-2.9853549 -0.31560066 0 -2.9730035e-05 0 0)
(-2.9341777 -0.31260386 0 2.7954513e-05 0 0)
(-2.9821777 -0.31541558 0 -2.6395269e-05 0 0)
(-2.9370485 -0.31277258 0 2.4862456e-05 0 0)
(-2.9794098 -0.31525431 0 -2.3474792e-05 0 0)
(-2.9396063 -0.31292253 0 2.2138999e-05 0 0)
(-2.9769695 -0.31511225 0 -2.0913327e-05 0 0)
(-2.9418832 -0.31305571 0 1.9743516e-05 0 0)
(-2.9748054 -0.31498642 0 -1.8664093e-05 0 0)
(-2.9439121 -0.31317415 0 1.7638058e-05 0 0)
(-2.9728789 -0.31487455 0 -1.6689269e-05 0 0)
(-2.9457236 -0.3132797 0 1.5789794e-05 0 0)
(-2.9711587 -0.31477478 0 -1.4957677e-05 0 0)
(-2.9473446 -0.31337397 0 1.417068e-05 0 0)
(-2.9696185 -0.31468557 0 -1.3443079e-05 0 0)
(-2.9487992 -0.3134584 0 1.2756699e-05 0 0)
(-2.9682352 -0.31460558 0 -1.2123084e-05 0 0)
(-2.9501083 -0.31353421 0 1.1527179e-05 0 0)
(-2.9669886 -0.31453364 0 -1.0978439e-05 0 0)
(-2.9512908 -0.31360252 0 1.0464288e-05 0 0)
(-2.9658605 -0.3144687 0 -9.99255e-06 0 0)
(-2.9523638 -0.3136643 0 9.5526628e-06 0 0)
(-2.9648347 -0.31440983 0 -9.1511681e-06 0 0)
(-2.9533426 -0.31372046 0 8.7791582e-06 0 0)
(-2.9638963 -0.31435618 0 -8.4421694e-06 0 0)
(-2.9542413 -0.31377179 0 8.1326721e-06 0 0)
(-2.9630318 -0.31430697 0 -7.8554161e-06 0 0)
(-2.9550728 -0.31381905 0 7.6040582e-06 0 0)
(-2.9622286 -0.3142615 0 -7.3827396e-06 0 0)
(-2.9558492 -0.3138629 0 7.1860426e-06 0 0)
(-2.9614749 -0.3142191 0 -7.0184478e-06 0 0)
(-2.9565803 -0.31390392 0 6.8733041e-06 0 0)
(-2.9607574 -0.31417903 0 -6.7576907e-06 0 0)
(-2.9572781 -0.31394267 0 6.6797217e-06 0 0)
(-2.9601007 -0.31414232 0 -6.5459364e-06 0 0)
(-2.9581271 -0.31398815 0 6.779012e-06 0 0)
(-2.9600881 -0.31414133 0 -6.5734618e-06 0 0)
(-1.9550443 -0.91570985 0 -0.38073235 0 0)
(-4.8724855 -0.42148294 0 -0.0081046208 0 0)
(-2.985753 -0.32133173 0 -0.0025790562 0 0)
(-2.8832787 -0.30965222 0 -2.227533e-05 0 0)
(-2.7205719 -0.30102027 0 -5.79588e-06 0 0)
(-2.810484 -0.30651701 0 -7.4953747e-05 0 0)
(-2.7107215 -0.30035512 0 1.9211893e-05 0 0)
(-2.7796266 -0.3046876 0 -4.9289403e-05 0 0)
(-2.7114261 -0.30036391 0 3.9407665e-05 0 0)
(-2.7716297 -0.30421073 0 -4.1022488e-05 0 0)
(-2.7150448 -0.30059167 0 3.792752e-05 0 0)
(-2.7675131 -0.30395591 0 -3.6534959e-05 0 0)
(-2.7181382 -0.30079057 0 3.410703e-05 0 0)
(-2.764332 -0.30375461 0 -3.2424884e-05 0 0)
(-2.7208489 -0.30096545 0 3.0405128e-05 0 0)
(-2.7616328 -0.30358284 0 -2.8771299e-05 0 0)
(-2.7232755 -0.30112172 0 2.707132e-05 0 0)
(-2.7592787 -0.30343293 0 -2.558169e-05 0 0)
(-2.7254423 -0.30126091 0 2.4117649e-05 0 0)
(-2.7572018 -0.30330075 0 -2.278975e-05 0 0)
(-2.7273741 -0.30138473 0 2.151336e-05 0 0)
(-2.7553586 -0.30318354 0 -2.0339687e-05 0 0)
(-2.7290972 -0.30149498 0 1.922188e-05 0 0)
(-2.7537169 -0.30307925 0 -1.8188785e-05 0 0)
(-2.7306367 -0.30159329 0 1.7209345e-05 0 0)
(-2.7522504 -0.3029862 0 -1.6302814e-05 0 0)
(-2.7320151 -0.30168116 0 1.5446021e-05 0 0)
(-2.7509369 -0.30290296 0 -1.4653258e-05 0 0)
(-2.7332526 -0.30175987 0 1.3906124e-05 0 0)
(-2.7497568 -0.3028283 0 -1.3215831e-05 0 0)
(-2.7343667 -0.30183058 0 1.2567323e-05 0 0)
(-2.7486929 -0.30276114 0 -1.1969648e-05 0 0)
(-2.7353737 -0.3018943 0 1.14103e-05 0 0)
(-2.7477299 -0.30270051 0 -1.0896715e-05 0 0)
(-2.7362879 -0.30195195 0 1.0418416e-05 0 0)
(-2.7468538 -0.30264552 0 -9.9816096e-06 0 0)
(-2.7371225 -0.30200437 0 9.577475e-06 0 0)
(-2.7460518 -0.30259539 0 -9.2112821e-06 0 0)
(-2.7378894 -0.30205231 0 8.8755912e-06 0 0)
(-2.7453124 -0.3025494 0 -8.574961e-06 0 0)
(-2.7385997 -0.30209645 0 8.303196e-06 0 0)
(-2.7446249 -0.30250688 0 -8.064278e-06 0 0)
(-2.7392638 -0.30213745 0 7.8529954e-06 0 0)
(-2.743979 -0.30246722 0 -7.6748146e-06 0 0)
(-2.7398904 -0.30217584 0 7.5194091e-06 0 0)
(-2.7433629 -0.30242972 0 -7.4045538e-06 0 0)
(-2.7404859 -0.30221184 0 7.3378121e-06 0 0)
(-2.74278 -0.30239392 0 -7.1229088e-06 0 0)
(-2.7411629 -0.30224942 0 7.8180828e-06 0 0)
(-2.7426482 -0.30238561 0 -7.0701282e-06 0 0)
(-1.8556826 -0.874452 0 -0.35851485 0 0)
(-4.2761724 -0.39466131 0 -0.0097470444 0 0)
(-2.8996924 -0.32067559 0 -0.0038823254 0 0)
(-2.7530296 -0.30253455 0 -0.00012123327 0 0)
(-2.5819081 -0.29323918 0 -2.7934231e-05 0 0)
(-2.6619972 -0.29841919 0 -8.5950758e-05 0 0)
(-2.5740824 -0.29266868 0 2.977254e-06 0 0)
(-2.6350814 -0.296717 0 -4.9954485e-05 0 0)
(-2.5742131 -0.29261698 0 3.5784905e-05 0 0)
(-2.6278097 -0.29625858 0 -3.9418846e-05 0 0)
(-2.5773387 -0.29282582 0 3.6116918e-05 0 0)
(-2.6241431 -0.29601961 0 -3.5155138e-05 0 0)
(-2.5800837 -0.29301371 0 3.2672745e-05 0 0)
(-2.6213155 -0.29582962 0 -3.1204403e-05 0 0)
(-2.5824965 -0.29317938 0 2.9182614e-05 0 0)
(-2.6189108 -0.29566684 0 -2.7670012e-05 0 0)
(-2.5846594 -0.29332761 0 2.6005136e-05 0 0)
(-2.6168118 -0.29552462 0 -2.4594907e-05 0 0)
(-2.586593 -0.29345981 0 2.3176552e-05 0 0)
(-2.6149591 -0.29539912 0 -2.1908548e-05 0 0)
(-2.5883184 -0.29357754 0 2.0677308e-05 0 0)
(-2.6133144 -0.29528776 0 -1.955271e-05 0 0)
(-2.5898583 -0.29368242 0 1.8476152e-05 0 0)
(-2.6118489 -0.29518862 0 -1.7484831e-05 0 0)
(-2.5912347 -0.29377602 0 1.6542083e-05 0 0)
(-2.6105394 -0.29510012 0 -1.5671661e-05 0 0)
(-2.5924675 -0.2938597 0 1.4847169e-05 0 0)
(-2.6093664 -0.29502093 0 -1.4085767e-05 0 0)
(-2.5935743 -0.29393468 0 1.3366906e-05 0 0)
(-2.6083124 -0.29494988 0 -1.2703849e-05 0 0)
(-2.5945711 -0.29400206 0 1.2079967e-05 0 0)
(-2.6073621 -0.29488594 0 -1.150588e-05 0 0)
(-2.5954721 -0.29406279 0 1.0967865e-05 0 0)
(-2.6065017 -0.2948282 0 -1.0474616e-05 0 0)
(-2.5962901 -0.29411776 0 1.0014683e-05 0 0)
(-2.6057188 -0.29477582 0 -9.5953101e-06 0 0)
(-2.597037 -0.29416776 0 9.2068813e-06 0 0)
(-2.605002 -0.29472804 0 -8.8555554e-06 0 0)
(-2.5977236 -0.2942135 0 8.533225e-06 0 0)
(-2.6043409 -0.29468418 0 -8.2452441e-06 0 0)
(-2.5983596 -0.29425565 0 7.9848816e-06 0 0)
(-2.6037259 -0.2946436 0 -7.7568146e-06 0 0)
(-2.5989544 -0.29429481 0 7.5554937e-06 0 0)
(-2.6031479 -0.29460574 0 -7.3875598e-06 0 0)
(-2.5995161 -0.29433152 0 7.2400053e-06 0 0)
(-2.602596 -0.29456991 0 -7.1400177e-06 0 0)
(-2.6000495 -0.29436591 0 7.083725e-06 0 0)
(-2.6020682 -0.29453518 0 -6.8512505e-06 0 0)
(-2.6006422 -0.29439981 0 7.8021758e-06 0 0)
(-2.6018914 -0.29452532 0 -7.2415644e-06 0 0)
(-1.7570139 -0.81784956 0 -0.32393925 0 0)
(-3.8606271 -0.37722563 0 -0.011363107 0 0)
(-2.7971511 -0.31977276 0 -0.0053503132 0 0)
(-2.629601 -0.29565179 0 -0.00022514146 0 0)
(-2.4495955 -0.28561334 0 -6.4104563e-05 0 0)
(-2.5186257 -0.2903362 0 -9.5363016e-05 0 0)
(-2.4404079 -0.28497608 0 -1.7910352e-05 0 0)
(-2.4949865 -0.28875135 0 -4.6835166e-05 0 0)
(-2.4401216 -0.28487003 0 2.8431863e-05 0 0)
(-2.488336 -0.28831046 0 -3.434033e-05 0 0)
(-2.4428306 -0.2850596 0 3.1091408e-05 0 0)
(-2.4850298 -0.28808663 0 -3.0731837e-05 0 0)
(-2.445285 -0.28523652 0 2.8383414e-05 0 0)
(-2.4824869 -0.28790751 0 -2.7293893e-05 0 0)
(-2.4474531 -0.2853931 0 2.5426349e-05 0 0)
(-2.4803186 -0.28775332 0 -2.418002e-05 0 0)
(-2.449399 -0.28553342 0 2.268802e-05 0 0)
(-2.478424 -0.28761843 0 -2.1483003e-05 0 0)
(-2.4511403 -0.28565873 0 2.023191e-05 0 0)
(-2.4767511 -0.28749931 0 -1.9133709e-05 0 0)
(-2.4526952 -0.28577041 0 1.8054543e-05 0 0)
(-2.4752655 -0.28739356 0 -1.7075477e-05 0 0)
(-2.4540836 -0.28586999 0 1.6134031e-05 0 0)
(-2.4739417 -0.28729936 0 -1.5269228e-05 0 0)
(-2.4553249 -0.28595888 0 1.4445431e-05 0 0)
(-2.4727588 -0.28721525 0 -1.3685481e-05 0 0)
(-2.4564368 -0.28603839 0 1.296521e-05 0 0)
(-2.4716992 -0.28713995 0 -1.2300239e-05 0 0)
(-2.4574352 -0.28610965 0 1.1672319e-05 0 0)
(-2.4707473 -0.28707239 0 -1.1093188e-05 0 0)
(-2.4583343 -0.2861737 0 1.0548279e-05 0 0)
(-2.4698891 -0.28701157 0 -1.004687e-05 0 0)
(-2.4591469 -0.28623146 0 9.5770111e-06 0 0)
(-2.4691122 -0.28695663 0 -9.1462582e-06 0 0)
(-2.4598847 -0.28628375 0 8.7446637e-06 0 0)
(-2.4684055 -0.28690676 0 -8.3785229e-06 0 0)
(-2.4605583 -0.28633134 0 8.039483e-06 0 0)
(-2.4677585 -0.28686126 0 -7.7329177e-06 0 0)
(-2.4611774 -0.2863749 0 7.4517818e-06 0 0)
(-2.4671618 -0.28681946 0 -7.2007813e-06 0 0)
(-2.4617509 -0.28641507 0 6.9741051e-06 0 0)
(-2.4666069 -0.28678076 0 -6.7758345e-06 0 0)
(-2.4622872 -0.28645243 0 6.601295e-06 0 0)
(-2.4660855 -0.28674462 0 -6.4570646e-06 0 0)
(-2.4627937 -0.28648749 0 6.3282715e-06 0 0)
(-2.4655878 -0.2867104 0 -6.2503318e-06 0 0)
(-2.4632741 -0.28652032 0 6.2083252e-06 0 0)
(-2.465107 -0.28667669 0 -5.9461441e-06 0 0)
(-2.4637935 -0.28655079 0 7.1720508e-06 0 0)
(-2.4648887 -0.28666489 0 -6.6740777e-06 0 0)
(-1.716275 -0.78880108 0 -0.30516871 0 0)
(-3.4456496 -0.35852879 0 -0.012595427 0 0)
(-2.6565036 -0.31602306 0 -0.0065947252 0 0)
(-2.5059627 -0.28874138 0 -0.00032718646 0 0)
(-2.323554 -0.27810877 0 -0.00010656768 0 0)
(-2.3801663 -0.28227738 0 -0.00010609399 0 0)
(-2.3099751 -0.2772577 0 -3.6514482e-05 0 0)
(-2.359063 -0.28079407 0 -4.3670814e-05 0 0)
(-2.3093166 -0.27711268 0 2.1562107e-05 0 0)
(-2.3529374 -0.28037011 0 -2.9401277e-05 0 0)
(-2.3116701 -0.27728546 0 2.6306506e-05 0 0)
(-2.3499322 -0.28015998 0 -2.6441149e-05 0 0)
(-2.3138749 -0.27745253 0 2.4252317e-05 0 0)
(-2.3476324 -0.27999086 0 -2.3504991e-05 0 0)
(-2.3158356 -0.27760094 0 2.1794768e-05 0 0)
(-2.3456673 -0.2798446 0 -2.0799457e-05 0 0)
(-2.3175974 -0.27773409 0 1.9477093e-05 0 0)
(-2.3439482 -0.27971645 0 -1.8468203e-05 0 0)
(-2.3191752 -0.27785313 0 1.7379853e-05 0 0)
(-2.3424296 -0.27960321 0 -1.6444844e-05 0 0)
(-2.3205848 -0.27795931 0 1.5513326e-05 0 0)
(-2.3410808 -0.27950263 0 -1.4674548e-05 0 0)
(-2.3218439 -0.27805402 0 1.3864203e-05 0 0)
(-2.3398789 -0.27941301 0 -1.3121584e-05 0 0)
(-2.3229699 -0.27813861 0 1.2413183e-05 0 0)
(-2.338805 -0.27933295 0 -1.1760038e-05 0 0)
(-2.3239785 -0.27821428 0 1.114085e-05 0 0)
(-2.3378431 -0.27926129 0 -1.0569166e-05 0 0)
(-2.324884 -0.27828212 0 1.0029416e-05 0 0)
(-2.3369791 -0.27919696 0 -9.5314912e-06 0 0)
(-2.3256994 -0.2783431 0 9.0631087e-06 0 0)
(-2.3362004 -0.27913905 0 -8.6320112e-06 0 0)
(-2.3264363 -0.2783981 0 8.2281457e-06 0 0)
(-2.3354957 -0.27908672 0 -7.8578165e-06 0 0)
(-2.3271053 -0.27844792 0 7.5126426e-06 0 0)
(-2.3348547 -0.27903922 0 -7.1978974e-06 0 0)
(-2.3277159 -0.27849326 0 6.9065278e-06 0 0)
(-2.3342681 -0.27899585 0 -6.643061e-06 0 0)
(-2.3282769 -0.27853479 0 6.4015384e-06 0 0)
(-2.3337273 -0.27895599 0 -6.1859457e-06 0 0)
(-2.3287964 -0.2785731 0 5.9914097e-06 0 0)
(-2.3332246 -0.27891907 0 -5.8213095e-06 0 0)
(-2.3292821 -0.27860875 0 5.6718771e-06 0 0)
(-2.3327525 -0.27888457 0 -5.5492475e-06 0 0)
(-2.3297407 -0.27864226 0 5.4372292e-06 0 0)
(-2.332302 -0.2788519 0 -5.3780106e-06 0 0)
(-2.330175 -0.27867362 0 5.3432663e-06 0 0)
(-2.3318641 -0.2788193 0 -5.0572318e-06 0 0)
(-2.3306335 -0.27870134 0 6.4804426e-06 0 0)
(-2.3316198 -0.27880597 0 -6.0483582e-06 0 0)
(-1.6472878 -0.73718702 0 -0.27257743 0 0)
(-3.0579714 -0.33961099 0 -0.013194233 0 0)
(-2.502546 -0.31101113 0 -0.0076920668 0 0)
(-2.3791766 -0.28158468 0 -0.00042014156 0 0)
(-2.2015387 -0.27062995 0 -0.00015379271 0 0)
(-2.2461871 -0.27423089 0 -0.00011773611 0 0)
(-2.1828623 -0.26951335 0 -5.18667e-05 0 0)
(-2.2271258 -0.27283898 0 -4.0909732e-05 0 0)
(-2.1819241 -0.26934701 0 1.5933556e-05 0 0)
(-2.2214808 -0.27243454 0 -2.5238807e-05 0 0)
(-2.1839797 -0.26950608 0 2.2398232e-05 0 0)
(-2.2187452 -0.27223765 0 -2.2874008e-05 0 0)
(-2.185966 -0.26966433 0 2.0842368e-05 0 0)
(-2.2166615 -0.27207801 0 -2.0366544e-05 0 0)
(-2.1877442 -0.26980522 0 1.8787248e-05 0 0)
(-2.2148772 -0.27193921 0 -1.7999118e-05 0 0)
(-2.1893434 -0.2699317 0 1.6816294e-05 0 0)
(-2.2133141 -0.2718174 0 -1.5969562e-05 0 0)
(-2.1907762 -0.27004485 0 1.5015845e-05 0 0)
(-2.2119327 -0.27170968 0 -1.4215493e-05 0 0)
(-2.1920569 -0.27014585 0 1.3406557e-05 0 0)
(-2.2107055 -0.27161396 0 -1.2683481e-05 0 0)
(-2.1932011 -0.27023598 0 1.1982165e-05 0 0)
(-2.2096119 -0.27152865 0 -1.1340355e-05 0 0)
(-2.1942244 -0.27031649 0 1.0727989e-05 0 0)
(-2.208635 -0.27145244 0 -1.0163012e-05 0 0)
(-2.1951411 -0.27038853 0 9.6279631e-06 0 0)
(-2.2077601 -0.27138421 0 -9.1333198e-06 0 0)
(-2.1959641 -0.27045312 0 8.6669577e-06 0 0)
(-2.2069743 -0.27132295 0 -8.2361106e-06 0 0)
(-2.196705 -0.27051119 0 7.8314089e-06 0 0)
(-2.2062663 -0.2712678 0 -7.4583899e-06 0 0)
(-2.1973746 -0.27056357 0 7.1094184e-06 0 0)
(-2.2056257 -0.27121795 0 -6.7889863e-06 0 0)
(-2.1979823 -0.27061103 0 6.4907153e-06 0 0)
(-2.2050432 -0.27117269 0 -6.2183826e-06 0 0)
(-2.1985368 -0.27065424 0 5.9666007e-06 0 0)
(-2.2045103 -0.27113135 0 -5.7386478e-06 0 0)
(-2.1990462 -0.27069382 0 5.5299576e-06 0 0)
(-2.2040192 -0.27109335 0 -5.3434517e-06 0 0)
(-2.1995178 -0.27073036 0 5.175442e-06 0 0)
(-2.2035628 -0.27105814 0 -5.0283148e-06 0 0)
(-2.1999585 -0.27076437 0 4.899409e-06 0 0)
(-2.2031344 -0.27102521 0 -4.7940138e-06 0 0)
(-2.2003745 -0.27079637 0 4.6952698e-06 0 0)
(-2.2027261 -0.27099403 0 -4.650607e-06 0 0)
(-2.200768 -0.27082634 0 4.6185398e-06 0 0)
(-2.2023269 -0.27096259 0 -4.3122485e-06 0 0)
(-2.2011737 -0.27085171 0 5.8730754e-06 0 0)
(-2.2020669 -0.27094794 0 -5.4831797e-06 0 0)
(-1.6168757 -0.70822968 0 -0.25407863 0 0)
(-2.6956085 -0.32345564 0 -0.01432208 0 0)
(-2.3358858 -0.30405357 0 -0.0084636717 0 0)
(-2.2454811 -0.27417492 0 -0.0005830192 0 0)
(-2.0837443 -0.26337074 0 -0.00024027126 0 0)
(-2.1174185 -0.26628334 0 -0.00013847908 0 0)
(-2.0596301 -0.26178697 0 -6.7686966e-05 0 0)
(-2.0993754 -0.26490019 0 -3.9003872e-05 0 0)
(-2.0581341 -0.261582 0 1.1027092e-05 0 0)
(-2.0939754 -0.26450506 0 -2.1696994e-05 0 0)
(-2.0598364 -0.26172437 0 1.9110574e-05 0 0)
(-2.0914359 -0.26431873 0 -1.9836859e-05 0 0)
(-2.0616064 -0.26187354 0 1.7954576e-05 0 0)
(-2.0895364 -0.26416771 0 -1.7699634e-05 0 0)
(-2.0632171 -0.2620072 0 1.6232132e-05 0 0)
(-2.0879131 -0.26403596 0 -1.5619582e-05 0 0)
(-2.0646697 -0.26212731 0 1.4554209e-05 0 0)
(-2.0864903 -0.26392019 0 -1.3845538e-05 0 0)
(-2.065972 -0.26223485 0 1.3005648e-05 0 0)
(-2.0852325 -0.26381776 0 -1.2319815e-05 0 0)
(-2.0671365 -0.26233088 0 1.1614875e-05 0 0)
(-2.0841151 -0.26372671 0 -1.0990152e-05 0 0)
(-2.0681772 -0.26241661 0 1.0381494e-05 0 0)
(-2.0831194 -0.26364555 0 -9.8253846e-06 0 0)
(-2.069108 -0.2624932 0 9.2946981e-06 0 0)
(-2.08223 -0.26357304 0 -8.8046911e-06 0 0)
(-2.0699417 -0.26256174 0 8.3412309e-06 0 0)
(-2.0814335 -0.26350811 0 -7.9121037e-06 0 0)
(-2.0706902 -0.2626232 0 7.5081887e-06 0 0)
(-2.0807184 -0.26344981 0 -7.1343868e-06 0 0)
(-2.0713641 -0.26267846 0 6.783871e-06 0 0)
(-2.0800742 -0.26339732 0 -6.4602402e-06 0 0)
(-2.0719729 -0.26272832 0 6.1579717e-06 0 0)
(-2.0794914 -0.26334987 0 -5.8799628e-06 0 0)
(-2.0725254 -0.2627735 0 5.621585e-06 0 0)
(-2.0789615 -0.26330677 0 -5.3852988e-06 0 0)
(-2.0730295 -0.26281464 0 5.1671709e-06 0 0)
(-2.0784769 -0.2632674 0 -4.9693788e-06 0 0)
(-2.0734925 -0.26285235 0 4.7885701e-06 0 0)
(-2.0780305 -0.26323119 0 -4.6267282e-06 0 0)
(-2.073921 -0.26288717 0 4.4811915e-06 0 0)
(-2.0776158 -0.26319762 0 -4.3534704e-06 0 0)
(-2.0743213 -0.26291959 0 4.2418706e-06 0 0)
(-2.0772266 -0.26316623 0 -4.1508282e-06 0 0)
(-2.0746991 -0.26295012 0 4.0631661e-06 0 0)
(-2.0768561 -0.26313649 0 -4.0304285e-06 0 0)
(-2.0750561 -0.26297874 0 3.9986844e-06 0 0)
(-2.0764923 -0.26310625 0 -3.6777659e-06 0 0)
(-2.0754156 -0.26300211 0 5.3253757e-06 0 0)
(-2.0762242 -0.26309049 0 -4.9693218e-06 0 0)
(-1.5826507 -0.67499123 0 -0.23384791 0 0)
(-2.3509824 -0.30696195 0 -0.015338575 0 0)
(-2.1817033 -0.297228 0 -0.0089636391 0 0)
(-2.0984454 -0.26557387 0 -0.00075734051 0 0)
(-1.9564645 -0.25540382 0 -0.00031144482 0 0)
(-1.9896452 -0.25820374 0 -0.00015738383 0 0)
(-1.9383592 -0.25398718 0 -8.0776559e-05 0 0)
(-1.9749671 -0.25694384 0 -3.7112604e-05 0 0)
(-1.9376142 -0.25380406 0 6.8299321e-06 0 0)
(-1.9702406 -0.2565755 0 -1.8483539e-05 0 0)
(-1.939199 -0.25393836 0 1.6263836e-05 0 0)
(-1.9679536 -0.2564018 0 -1.7124612e-05 0 0)
(-1.9408057 -0.25408011 0 1.5413173e-05 0 0)
(-1.9662323 -0.25625944 0 -1.5331774e-05 0 0)
(-1.9422708 -0.25420711 0 1.3970715e-05 0 0)
(-1.9647567 -0.25613453 0 -1.3509891e-05 0 0)
(-1.9435921 -0.25432119 0 1.2549283e-05 0 0)
(-1.9634616 -0.25602458 0 -1.196249e-05 0 0)
(-1.9447768 -0.25442335 0 1.1223274e-05 0 0)
(-1.9623159 -0.25592724 0 -1.063897e-05 0 0)
(-1.9458361 -0.2545146 0 1.0026034e-05 0 0)
(-1.9612981 -0.25584069 0 -9.4885919e-06 0 0)
(-1.946783 -0.25459609 0 8.961975e-06 0 0)
(-1.9603912 -0.25576353 0 -8.4819455e-06 0 0)
(-1.9476299 -0.25466889 0 8.0236193e-06 0 0)
(-1.9595812 -0.25569459 0 -7.6001732e-06 0 0)
(-1.9483885 -0.25473405 0 7.2001505e-06 0 0)
(-1.958856 -0.25563285 0 -6.8291897e-06 0 0)
(-1.9490694 -0.25479248 0 6.4806176e-06 0 0)
(-1.9582049 -0.25557742 0 -6.1574566e-06 0 0)
(-1.9496825 -0.25484503 0 5.854963e-06 0 0)
(-1.9576185 -0.2555275 0 -5.5751692e-06 0 0)
(-1.9502363 -0.25489244 0 5.3142886e-06 0 0)
(-1.9570881 -0.25548237 0 -5.0739271e-06 0 0)
(-1.9507389 -0.25493542 0 4.8508966e-06 0 0)
(-1.9566059 -0.25544136 0 -4.6465895e-06 0 0)
(-1.9511974 -0.25497457 0 4.4582702e-06 0 0)
(-1.9561651 -0.2554039 0 -4.2872224e-06 0 0)
(-1.9516184 -0.25501045 0 4.1310915e-06 0 0)
(-1.9557591 -0.25536943 0 -3.9910984e-06 0 0)
(-1.9520079 -0.2550436 0 3.8654191e-06 0 0)
(-1.955382 -0.25533746 0 -3.7548512e-06 0 0)
(-1.9523717 -0.25507449 0 3.6584967e-06 0 0)
(-1.9550283 -0.25530754 0 -3.5800031e-06 0 0)
(-1.952715 -0.2551036 0 3.5021572e-06 0 0)
(-1.9546919 -0.25527922 0 -3.4795625e-06 0 0)
(-1.9530392 -0.25513091 0 3.4471777e-06 0 0)
(-1.9543603 -0.2552502 0 -3.1169538e-06 0 0)
(-1.9533582 -0.25515254 0 4.8097962e-06 0 0)
(-1.95409 -0.25523354 0 -4.4876978e-06 0 0)
(-1.5613987 -0.63509683 0 -0.20715689 0 0)
(-2.0483611 -0.29291537 0 -0.016518629 0 0)
(-2.0247559 -0.28659221 0 -0.0085171825 0 0)
(-1.9644571 -0.25994993 0 -0.0015920511 0 0)
(-1.840152 -0.24827916 0 -0.00050616581 0 0)
(-1.8678762 -0.25028484 0 -0.0001928713 0 0)
(-1.8215363 -0.2462363 0 -9.6828492e-05 0 0)
(-1.8547924 -0.24900779 0 -3.5963466e-05 0 0)
(-1.8207934 -0.24602934 0 2.9476518e-06 0 0)
(-1.8504214 -0.24865199 0 -1.559815e-05 0 0)
(-1.8221581 -0.2461508 0 1.3734907e-05 0 0)
(-1.8483115 -0.24848796 0 -1.4675897e-05 0 0)
(-1.8235941 -0.24628458 0 1.3138448e-05 0 0)
(-1.8467399 -0.24835338 0 -1.319781e-05 0 0)
(-1.8249224 -0.24640509 0 1.1938084e-05 0 0)
(-1.8453961 -0.24823494 0 -1.1610461e-05 0 0)
(-1.8261238 -0.24651337 0 1.07449e-05 0 0)
(-1.8442165 -0.24813056 0 -1.0267281e-05 0 0)
(-1.8272015 -0.24661036 0 9.6185843e-06 0 0)
(-1.8431729 -0.24803811 0 -9.1256681e-06 0 0)
(-1.8281653 -0.24669702 0 8.5954194e-06 0 0)
(-1.8422457 -0.2479559 0 -8.1366335e-06 0 0)
(-1.8290268 -0.24677441 0 7.6837879e-06 0 0)
(-1.8414197 -0.2478826 0 -7.272344e-06 0 0)
(-1.8297974 -0.24684356 0 6.8791055e-06 0 0)
(-1.840682 -0.2478171 0 -6.515668e-06 0 0)
(-1.8304876 -0.24690545 0 6.1727155e-06 0 0)
(-1.8400216 -0.24775845 0 -5.8541914e-06 0 0)
(-1.8311072 -0.24696096 0 5.5554095e-06 0 0)
(-1.8394289 -0.24770578 0 -5.2778944e-06 0 0)
(-1.831665 -0.24701089 0 5.0186038e-06 0 0)
(-1.838895 -0.24765835 0 -4.7783158e-06 0 0)
(-1.8321688 -0.24705595 0 4.5546665e-06 0 0)
(-1.8384123 -0.24761545 0 -4.3482255e-06 0 0)
(-1.832626 -0.24709679 0 4.156987e-06 0 0)
(-1.8379735 -0.24757647 0 -3.9814848e-06 0 0)
(-1.833043 -0.24713401 0 3.8199671e-06 0 0)
(-1.8375724 -0.24754084 0 -3.6729974e-06 0 0)
(-1.8334258 -0.24716814 0 3.53904e-06 0 0)
(-1.8372031 -0.24750806 0 -3.4187002e-06 0 0)
(-1.83378 -0.24719967 0 3.3108362e-06 0 0)
(-1.8368602 -0.24747764 0 -3.2156696e-06 0 0)
(-1.8341107 -0.24722907 0 3.1329552e-06 0 0)
(-1.8365387 -0.24744916 0 -3.0656131e-06 0 0)
(-1.8344227 -0.24725679 0 2.9966551e-06 0 0)
(-1.8362332 -0.2474222 0 -2.9827007e-06 0 0)
(-1.8347173 -0.24728284 0 2.9493064e-06 0 0)
(-1.8359311 -0.24739442 0 -2.6144925e-06 0 0)
(-1.8350005 -0.24730295 0 4.3172928e-06 0 0)
(-1.8356628 -0.24737703 0 -4.0341109e-06 0 0)
(-1.5571979 -0.60851729 0 -0.18965851 0 0)
(-1.8081947 -0.27959218 0 -0.017136459 0 0)
(-1.8734577 -0.27399675 0 -0.0076473647 0 0)
(-1.8275334 -0.25227362 0 -0.001983772 0 0)
(-1.722037 -0.24048586 0 -0.00060460154 0 0)
(-1.7489516 -0.24225334 0 -0.0002115421 0 0)
(-1.707643 -0.23842973 0 -0.00010596832 0 0)
(-1.7382255 -0.24105958 0 -3.3399195e-05 0 0)
(-1.707408 -0.23824449 0 -1.0973859e-08 0 0)
(-1.7343748 -0.24072909 0 -1.2811889e-05 0 0)
(-1.7086726 -0.23835951 0 1.154395e-05 0 0)
(-1.7324676 -0.24057612 0 -1.2434406e-05 0 0)
(-1.7099739 -0.23848661 0 1.1104106e-05 0 0)
(-1.7310406 -0.24044927 0 -1.1263645e-05 0 0)
(-1.711182 -0.2386011 0 1.0106408e-05 0 0)
(-1.7298185 -0.2403371 0 -9.8933467e-06 0 0)
(-1.7122751 -0.23870387 0 9.1157255e-06 0 0)
(-1.7287448 -0.24023808 0 -8.735627e-06 0 0)
(-1.7132555 -0.23879591 0 8.1689638e-06 0 0)
(-1.7277945 -0.24015034 0 -7.7584599e-06 0 0)
(-1.7141323 -0.23887815 0 7.3028868e-06 0 0)
(-1.7269502 -0.24007231 0 -6.9151998e-06 0 0)
(-1.714916 -0.23895159 0 6.5289521e-06 0 0)
(-1.7261981 -0.24000273 0 -6.1795409e-06 0 0)
(-1.7156169 -0.23901722 0 5.8450623e-06 0 0)
(-1.7255265 -0.23994056 0 -5.5359045e-06 0 0)
(-1.7162447 -0.23907597 0 5.2444748e-06 0 0)
(-1.7249254 -0.23988488 0 -4.9733769e-06 0 0)
(-1.7168083 -0.23912866 0 4.7195446e-06 0 0)
(-1.7243859 -0.23983489 0 -4.4833072e-06 0 0)
(-1.7173156 -0.23917605 0 4.2630174e-06 0 0)
(-1.7239 -0.23978984 0 -4.0584482e-06 0 0)
(-1.7177738 -0.23921883 0 3.8684059e-06 0 0)
(-1.7234608 -0.23974911 0 -3.6926271e-06 0 0)
(-1.7181896 -0.23925762 0 3.5300815e-06 0 0)
(-1.7230616 -0.23971208 0 -3.3806101e-06 0 0)
(-1.7185688 -0.23929297 0 3.2432745e-06 0 0)
(-1.7226968 -0.23967823 0 -3.1180545e-06 0 0)
(-1.7189169 -0.2393254 0 3.0040919e-06 0 0)
(-1.7223609 -0.23964707 0 -2.901491e-06 0 0)
(-1.7192388 -0.23935538 0 2.8096702e-06 0 0)
(-1.7220491 -0.23961815 0 -2.7283841e-06 0 0)
(-1.7195394 -0.23938333 0 2.6579231e-06 0 0)
(-1.7217569 -0.23959106 0 -2.6005346e-06 0 0)
(-1.7198229 -0.23940971 0 2.5396938e-06 0 0)
(-1.7214795 -0.23956543 0 -2.5330205e-06 0 0)
(-1.7200906 -0.23943453 0 2.4986254e-06 0 0)
(-1.7212045 -0.23953889 0 -2.1633458e-06 0 0)
(-1.7203419 -0.23945333 0 3.8459592e-06 0 0)
(-1.7209414 -0.23952094 0 -3.6087591e-06 0 0)
(-1.571447 -0.57357678 0 -0.16436466 0 0)
(-1.6355754 -0.26401926 0 -0.015385231 0 0)
(-1.7220726 -0.26655853 0 -0.0091673892 0 0)
(-1.6979248 -0.24351912 0 -0.0020092715 0 0)
(-1.6102054 -0.23262202 0 -0.00064082141 0 0)
(-1.6348051 -0.23421105 0 -0.00021185669 0 0)
(-1.597662 -0.23061262 0 -0.00010763261 0 0)
(-1.6256153 -0.23311229 0 -2.8694135e-05 0 0)
(-1.5976421 -0.23045537 0 -1.8931486e-06 0 0)
(-1.6221558 -0.23280874 0 -1.0024433e-05 0 0)
(-1.5987881 -0.23056552 0 9.673563e-06 0 0)
(-1.6204229 -0.23266656 0 -1.0366754e-05 0 0)
(-1.5999636 -0.23068648 0 9.2825704e-06 0 0)
(-1.619126 -0.23254711 0 -9.5037091e-06 0 0)
(-1.6010614 -0.23079526 0 8.451468e-06 0 0)
(-1.6180149 -0.23244095 0 -8.3360749e-06 0 0)
(-1.6020556 -0.23089277 0 7.6405555e-06 0 0)
(-1.6170382 -0.2323471 0 -7.3476398e-06 0 0)
(-1.602947 -0.23098005 0 6.8556648e-06 0 0)
(-1.6161734 -0.2322639 0 -6.5196938e-06 0 0)
(-1.6037441 -0.23105803 0 6.1317754e-06 0 0)
(-1.6154051 -0.23218989 0 -5.8085644e-06 0 0)
(-1.6044565 -0.23112767 0 5.4826062e-06 0 0)
(-1.6147207 -0.23212391 0 -5.1894788e-06 0 0)
(-1.6050937 -0.23118991 0 4.9081892e-06 0 0)
(-1.6141097 -0.23206494 0 -4.6482802e-06 0 0)
(-1.6056645 -0.23124562 0 4.4034874e-06 0 0)
(-1.6135628 -0.23201213 0 -4.1754134e-06 0 0)
(-1.6061768 -0.23129559 0 3.9622671e-06 0 0)
(-1.6130721 -0.2319647 0 -3.7634687e-06 0 0)
(-1.6066379 -0.23134054 0 3.5784792e-06 0 0)
(-1.6126303 -0.23192197 0 -3.4063007e-06 0 0)
(-1.6070544 -0.23138113 0 3.2466751e-06 0 0)
(-1.6122308 -0.23188332 0 -3.098696e-06 0 0)
(-1.6074322 -0.23141793 0 2.9621167e-06 0 0)
(-1.6118679 -0.23184818 0 -2.8362402e-06 0 0)
(-1.6077769 -0.23145149 0 2.7207842e-06 0 0)
(-1.6115362 -0.23181605 0 -2.6152715e-06 0 0)
(-1.6080931 -0.23148227 0 2.5193919e-06 0 0)
(-1.6112309 -0.23178646 0 -2.4328547e-06 0 0)
(-1.6083857 -0.23151074 0 2.3555275e-06 0 0)
(-1.6109476 -0.23175899 0 -2.2867991e-06 0 0)
(-1.6086587 -0.2315373 0 2.2273859e-06 0 0)
(-1.6106822 -0.23173325 0 -2.178927e-06 0 0)
(-1.6089162 -0.23156237 0 2.1255611e-06 0 0)
(-1.6104305 -0.23170889 0 -2.1249536e-06 0 0)
(-1.6091593 -0.23158601 0 2.0898543e-06 0 0)
(-1.6101803 -0.23168358 0 -1.7577735e-06 0 0)
(-1.6093824 -0.23160364 0 3.3945199e-06 0 0)
(-1.6099249 -0.23166523 0 -3.2114578e-06 0 0)
(-1.5768842 -0.55451825 0 -0.15207264 0 0)
(-1.486355 -0.25313946 0 -0.015427058 0 0)
(-1.5785354 -0.25583578 0 -0.00909698 0 0)
(-1.5808601 -0.23395271 0 -0.0015077598 0 0)
(-1.5068736 -0.22469542 0 -0.00056659634 0 0)
(-1.5263271 -0.22615335 0 -0.00018116861 0 0)
(-1.4921155 -0.22278794 0 -9.8661656e-05 0 0)
(-1.5171981 -0.22516838 0 -2.0647092e-05 0 0)
(-1.4916349 -0.22266398 0 -2.3475857e-06 0 0)
(-1.5138087 -0.22489166 0 -7.0546334e-06 0 0)
(-1.4925412 -0.22276939 0 8.1504695e-06 0 0)
(-1.5121774 -0.22475928 0 -8.4231524e-06 0 0)
(-1.4935772 -0.22288434 0 7.6579706e-06 0 0)
(-1.5109887 -0.2246468 0 -7.8904827e-06 0 0)
(-1.4945697 -0.22298764 0 6.9533152e-06 0 0)
(-1.5099776 -0.22454643 0 -6.9171969e-06 0 0)
(-1.4954727 -0.22308011 0 6.3005886e-06 0 0)
(-1.5090897 -0.22445756 0 -6.0849488e-06 0 0)
(-1.4962825 -0.22316282 0 5.6617228e-06 0 0)
(-1.5083035 -0.22437873 0 -5.3931993e-06 0 0)
(-1.4970066 -0.2232367 0 5.066908e-06 0 0)
(-1.507605 -0.22430861 0 -4.8023469e-06 0 0)
(-1.4976536 -0.22330268 0 4.531177e-06 0 0)
(-1.5069828 -0.22424608 0 -4.2893063e-06 0 0)
(-1.4982323 -0.22336165 0 4.0563257e-06 0 0)
(-1.5064274 -0.2241902 0 -3.8412718e-06 0 0)
(-1.4987507 -0.22341443 0 3.6388311e-06 0 0)
(-1.5059305 -0.22414016 0 -3.4499369e-06 0 0)
(-1.4992159 -0.22346179 0 3.2737371e-06 0 0)
(-1.5054845 -0.22409521 0 -3.1090259e-06 0 0)
(-1.4996347 -0.22350439 0 2.9560916e-06 0 0)
(-1.5050831 -0.22405471 0 -2.8133982e-06 0 0)
(-1.5000129 -0.22354286 0 2.6813925e-06 0 0)
(-1.5047201 -0.22401806 0 -2.5587145e-06 0 0)
(-1.5003561 -0.22357774 0 2.4457126e-06 0 0)
(-1.5043905 -0.22398475 0 -2.3413058e-06 0 0)
(-1.500669 -0.22360956 0 2.2457136e-06 0 0)
(-1.5040892 -0.22395428 0 -2.1581283e-06 0 0)
(-1.5009561 -0.22363876 0 2.0786605e-06 0 0)
(-1.503812 -0.22392621 0 -2.0067298e-06 0 0)
(-1.5012217 -0.22366577 0 1.9425458e-06 0 0)
(-1.5035547 -0.22390013 0 -1.8852308e-06 0 0)
(-1.5014694 -0.22369098 0 1.8358194e-06 0 0)
(-1.5033138 -0.22387569 0 -1.7954205e-06 0 0)
(-1.5017031 -0.22371479 0 1.748992e-06 0 0)
(-1.5030856 -0.22385257 0 -1.7533692e-06 0 0)
(-1.5019238 -0.22373728 0 1.7180621e-06 0 0)
(-1.5028583 -0.22382849 0 -1.3924423e-06 0 0)
(-1.5021217 -0.22375387 0 2.9615956e-06 0 0)
(-1.5026123 -0.22380986 0 -2.8413768e-06 0 0)
(-1.5853523 -0.52006005 0 -0.13009957 0 0)
(-1.3682913 -0.2415482 0 -0.01445021 0 0)
(-1.4507627 -0.24546534 0 -0.0089898759 0 0)
(-1.4726109 -0.22502703 0 -0.0011547439 0 0)
(-1.4066943 -0.21680553 0 -0.00049851984 0 0)
(-1.422113 -0.21813887 0 -0.0001471099 0 0)
(-1.3902807 -0.21496524 0 -8.7044758e-05 0 0)
(-1.412701 -0.21723304 0 -1.1768906e-05 0 0)
(-1.3892949 -0.21487218 0 -2.1597599e-06 0 0)
(-1.4092928 -0.21697879 0 -4.1148033e-06 0 0)
(-1.3899348 -0.21497188 0 6.8738586e-06 0 0)
(-1.4077233 -0.2168546 0 -6.6050086e-06 0 0)
(-1.3908255 -0.21508052 0 6.2014225e-06 0 0)
(-1.4066232 -0.21674842 0 -6.4069124e-06 0 0)
(-1.3917157 -0.21517841 0 5.5928378e-06 0 0)
(-1.4057009 -0.21665351 0 -5.6197763e-06 0 0)
(-1.3925332 -0.21526598 0 5.0795874e-06 0 0)
(-1.4048938 -0.21656941 0 -4.9323649e-06 0 0)
(-1.3932676 -0.21534429 0 4.5727785e-06 0 0)
(-1.4041798 -0.21649479 0 -4.3654511e-06 0 0)
(-1.3939245 -0.21541422 0 4.0954952e-06 0 0)
(-1.4035455 -0.21642841 0 -3.8844741e-06 0 0)
(-1.3945115 -0.21547667 0 3.6632387e-06 0 0)
(-1.4029806 -0.21636921 0 -3.4682176e-06 0 0)
(-1.3950364 -0.21553249 0 3.2792374e-06 0 0)
(-1.4024764 -0.21631632 0 -3.1051841e-06 0 0)
(-1.3955066 -0.21558245 0 2.9413134e-06 0 0)
(-1.4020253 -0.21626894 0 -2.788225e-06 0 0)
(-1.3959286 -0.21562727 0 2.6456722e-06 0 0)
(-1.4016205 -0.21622638 0 -2.5121056e-06 0 0)
(-1.3963085 -0.21566761 0 2.3883647e-06 0 0)
(-1.4012562 -0.21618803 0 -2.2726053e-06 0 0)
(-1.3966516 -0.21570403 0 2.1657542e-06 0 0)
(-1.4009268 -0.21615332 0 -2.0661837e-06 0 0)
(-1.3969628 -0.21573708 0 1.9746544e-06 0 0)
(-1.4006277 -0.21612176 0 -1.8898523e-06 0 0)
(-1.3972466 -0.21576722 0 1.8123488e-06 0 0)
(-1.4003544 -0.21609289 0 -1.7411298e-06 0 0)
(-1.397507 -0.21579489 0 1.6766038e-06 0 0)
(-1.4001029 -0.21606629 0 -1.6180039e-06 0 0)
(-1.3977478 -0.21582049 0 1.5657778e-06 0 0)
(-1.3998696 -0.21604157 0 -1.5188785e-06 0 0)
(-1.3979724 -0.21584439 0 1.4785539e-06 0 0)
(-1.3996512 -0.21601839 0 -1.4454692e-06 0 0)