/*--------------------------------*- C++ -*----------------------------------*\
| =========                 |                                                 |
| \\      /  F ield         | OpenFOAM: The Open Source CFD Toolbox           |
|  \\    /   O peration     | Version:  2312                                  |
|   \\  /    A nd           | Website:  www.openfoam.com                      |
|    \\/     M anipulation  |                                                 |
\*---------------------------------------------------------------------------*/
FoamFile
{
    version     2.0;
    format      ascii;
    arch        "LSB;label=32;scalar=64";
    class       volScalarField;
    location    "5";
    object      T;
}
// * * * * * * * * * * * * * * * * * * * * * * * * * * * * * * * * * * * * * //

dimensions      [0 0 0 1 0 0 0];

internalField   nonuniform List<scalar> 
4000
(
329.77591
328.57764
328.38968
328.31097
328.25496
328.20243
328.16175
328.1186
328.08416
328.04548
328.01393
327.97793
327.94803
327.91381
327.88497
327.85202
327.82389
327.79189
327.76428
327.73301
327.70578
327.67508
327.64815
327.6179
327.59121
327.56133
327.53485
327.50527
327.47895
327.44962
327.42346
327.39433
327.3683
327.33933
327.31343
327.28459
327.25882
327.23008
327.20443
327.17576
327.15024
327.12161
327.09622
327.0676
327.04237
327.01371
326.9887
326.95989
326.93527
326.90569
331.85085
329.79084
329.28592
329.10198
328.98625
328.88098
328.8111
328.73394
328.68275
328.61898
328.57648
328.5207
328.48316
328.43274
328.39836
328.35175
328.31953
328.27575
328.24508
328.20346
328.17396
328.13405
328.10544
328.0669
328.03901
328.00158
327.97429
327.93776
327.91099
327.8752
327.84888
327.81369
327.78778
327.75308
327.72756
327.69324
327.6681
327.63407
327.6093
327.57549
327.5511
327.51741
327.49344
327.45977
327.43627
327.40248
327.37961
327.34539
327.3237
327.28726
333.17175
330.9665
330.17546
329.88903
329.71466
329.55741
329.45849
329.34771
329.27978
329.19119
329.1377
329.06235
329.01711
328.95063
328.91067
328.85051
328.81415
328.75868
328.72491
328.67304
328.64121
328.59217
328.56184
328.51507
328.48595
328.44102
328.4129
328.36946
328.34221
328.29999
328.2735
328.23228
328.20647
328.16606
328.14091
328.10114
328.07661
328.03733
328.01342
327.97449
327.95121
327.91249
327.8899
327.85121
327.82942
327.79052
327.76978
327.73017
327.71137
327.66836
334.06782
332.06939
331.04733
330.6662
330.43604
330.22869
330.10136
329.95789
329.87338
329.76055
329.69607
329.60157
329.5486
329.46638
329.42078
329.34732
329.30676
329.23981
329.20287
329.14093
329.1067
329.04868
329.01657
328.9617
328.93129
328.87896
328.84996
328.79971
328.77193
328.72337
328.69666
328.64948
328.62375
328.57769
328.55286
328.5077
328.48375
328.43927
328.41619
328.37219
328.35
328.30629
328.28506
328.2414
328.22128
328.17733
328.15867
328.11374
328.09773
328.04857
334.70378
333.06932
331.88728
331.42532
331.14467
330.89063
330.73626
330.56169
330.46105
330.32494
330.24966
330.13667
330.07602
329.97857
329.92731
329.84095
329.79614
329.71803
329.67787
329.6061
329.56943
329.50265
329.4687
329.40592
329.37416
329.3146
329.28467
329.22775
329.19938
329.14461
329.11763
329.06462
329.0389
328.9873
328.96276
328.91229
328.88888
328.83928
328.81698
328.768
328.74685
328.69823
328.67832
328.62976
328.61126
328.56234
328.54569
328.49557
328.48218
328.42736
335.16897
333.9441
332.68003
332.15669
331.83363
331.53804
331.35897
331.15565
331.03976
330.8818
330.79609
330.6656
330.59742
330.48546
330.42861
330.3299
330.28085
330.19203
330.14863
330.06741
330.02825
329.95302
329.91718
329.84674
329.81359
329.74703
329.71611
329.65271
329.62372
329.56291
329.53561
329.47691
329.45115
329.39416
329.36985
329.31421
329.29128
329.23668
329.21512
329.16127
329.14111
329.08768
329.06902
329.01568
328.99873
328.94497
328.93023
328.87508
328.8641
328.80416
335.51744
334.68287
333.4113
332.84992
332.49524
332.16502
331.96466
331.7358
331.60604
331.42814
331.33268
331.18596
331.11062
330.98508
330.92282
330.81249
330.75929
330.66032
330.61371
330.52351
330.48187
330.39857
330.36084
330.28307
330.2485
330.17522
330.14329
330.07366
330.044
329.97736
329.94971
329.88551
329.85968
329.79746
329.77334
329.71269
329.6902
329.63075
329.60988
329.55129
329.53206
329.47398
329.4565
329.39852
329.38304
329.32459
329.31164
329.25169
329.24284
329.17833
335.78269
335.28364
334.06971
333.49502
333.12164
332.76534
332.54818
332.29781
332.15612
331.96067
331.85645
331.69513
331.61318
331.47524
331.40789
331.28683
331.22967
331.12127
331.07156
330.97295
330.9289
330.83801
330.79841
330.71372
330.67774
330.59807
330.56512
330.48956
330.45922
330.38702
330.35899
330.28954
330.2636
330.19637
330.17239
330.10693
330.08483
330.02073
330.00048
329.93734
329.91897
329.85641
329.84004
329.7776
329.76349
329.70056
329.68926
329.62477
329.61775
329.54919
335.9881
335.75419
334.64782
334.08339
333.70544
333.33279
333.10428
332.83717
332.68604
332.47591
332.36428
332.19031
332.10253
331.9536
331.88164
331.75092
331.69011
331.57312
331.52051
331.41417
331.36783
331.26991
331.22853
331.13739
331.10005
331.01442
330.98047
330.89934
330.86832
330.79088
330.76245
330.68803
330.66197
330.58999
330.56613
330.49609
330.47434
330.4058
330.38612
330.31865
330.30108
330.23425
330.21891
330.15222
330.13937
330.07221
330.06238
329.99369
329.98818
329.91606
336.14968
336.10814
335.1427
334.60875
334.24035
333.8617
333.62795
333.34949
333.19189
332.97037
332.85301
332.66861
332.57603
332.41773
332.34182
332.20267
332.13864
332.01403
331.95882
331.84554
331.79711
331.69283
331.64979
331.55277
331.51415
331.42303
331.38814
331.30186
331.27019
331.18788
331.15907
331.08001
331.05381
330.97738
330.95362
330.87928
330.85785
330.78513
330.76599
330.69443
330.6776
330.60674
330.59234
330.52167
330.50995
330.43884
330.4303
330.35778
330.35346
330.27822
336.27917
336.36366
335.55571
335.0677
334.72169
334.34727
334.11474
333.83065
333.66996
333.44066
333.31954
333.12719
333.03106
332.8652
332.78617
332.63998
332.57329
332.44216
332.38473
332.2654
332.21516
332.10525
332.06077
331.95847
331.91873
331.82266
331.78692
331.69595
331.66371
331.57693
331.54779
331.46445
331.43815
331.3576
331.33394
331.25562
331.23449
331.15788
331.13923
331.06386
331.04771
330.97311
330.95956
330.8852
330.87449
330.79975
330.79231
330.71634
330.71294
330.63498
336.38515
336.54048
335.89192
335.45991
335.14671
334.78601
334.56104
334.27715
334.11695
333.88368
333.761
333.56338
333.46511
333.29366
333.21248
333.06076
332.9921
332.85564
332.7965
332.67209
332.6204
332.50567
332.46
332.35313
332.31245
332.21202
332.17559
332.08045
332.04773
331.95695
331.92755
331.84035
331.81397
331.72969
331.70614
331.62418
331.60334
331.52319
331.505
331.42615
331.41061
331.33259
331.3198
331.24208
331.23224
331.15424
331.1477
331.0687
331.06595
330.98563
336.47374
336.65805
336.15923
335.78788
335.51479
335.17587
334.96433
334.68623
334.53014
334.29675
334.17484
333.97471
333.8759
333.70093
333.6187
333.46306
333.39322
333.25271
333.19243
333.064
333.01129
332.89262
332.84609
332.73538
332.69402
332.58987
332.55293
332.45418
332.42113
332.32685
332.29728
332.20667
332.18029
332.09268
332.06928
331.98408
331.96353
331.88019
331.86244
331.78046
331.76549
331.68439
331.67229
331.59156
331.58247
331.50158
331.49577
331.41414
331.41183
331.32949
336.54951
336.73396
336.36725
336.05643
335.82741
335.51647
335.3233
335.05607
334.90754
334.67777
334.55899
334.35913
334.26142
334.08506
334.00296
333.84507
333.77492
333.63172
333.57095
333.43959
333.38638
333.26468
333.21769
333.10393
333.06218
332.95499
332.91778
332.81602
332.78281
332.68556
332.65595
332.56243
332.53613
332.44564
332.42245
332.33441
332.31419
332.22805
332.21073
332.126
332.11156
332.02776
332.01626
331.93291
331.92445
331.84107
331.83582
331.75197
331.74995
331.66588
336.61556
336.78268
336.52627
336.27203
336.08792
335.80898
335.63796
335.38588
335.248
335.02529
334.91192
334.71501
334.62006
334.44441
334.36369
334.20522
334.1357
333.99117
333.93063
333.7975
333.74431
333.62057
333.57353
333.45755
333.41576
333.30625
333.26902
333.1649
333.13173
333.03209
333.00259
332.90666
332.88055
332.78767
332.76475
332.67432
332.65446
332.56595
332.54906
332.46199
332.44804
332.36195
332.35098
332.26541
332.25748
332.17201
332.16719
332.08153
332.07966
331.99417
336.67415
336.81536
336.64629
336.44216
336.30112
336.056
335.90954
335.67592
335.55125
335.33862
335.23271
335.04124
334.95066
334.77774
334.69963
334.54224
334.4743
334.32981
334.27025
334.13648
334.08393
333.9591
333.91249
333.79515
333.75367
333.64259
333.60564
333.49981
333.46691
333.36547
333.33626
333.23847
333.21269
333.1179
333.09535
333.00299
332.98354
332.8931
332.87666
332.78768
332.77421
332.68624
332.67574
332.58837
332.58088
332.49375
332.48923
332.40215
332.40035
332.31372
336.72675
336.83972
336.73646
336.57457
336.47277
336.26127
336.14039
335.92746
335.81788
335.6178
335.52113
335.3373
335.25255
335.08423
335.0099
334.85517
334.78975
334.64663
334.5888
334.45554
334.40422
334.2793
334.2336
334.11574
334.07498
333.96308
333.92673
333.81986
333.78748
333.68484
333.65613
333.55702
333.53172
333.43554
333.41346
333.31967
333.30069
333.20879
333.19282
333.10237
333.08937
332.99995
332.98989
332.90115
332.89401
332.80564
332.80134
332.71322
332.71144
332.62396
336.77443
336.86072
336.80461
336.67678
336.60906
336.42935
336.33376
336.14266
336.04932
335.86363
335.77756
335.60321
335.52555
335.36349
335.29404
335.1434
335.08141
334.94091
334.88556
334.75389
334.70441
334.58034
334.53606
334.41852
334.37889
334.26692
334.23149
334.12426
334.09268
333.98946
333.96144
333.86159
333.83692
333.73988
333.7184
333.62366
333.60523
333.51233
333.49688
333.40541
333.39288
333.30247
333.29281
333.20312
333.19629
333.10709
333.10295
333.01417
333.01238
332.92434
336.81788
336.88107
336.85709
336.75557
336.71615
336.56521
336.49354
336.32435
336.24767
336.07754
336.00302
335.83958
335.77003
335.61563
335.55197
335.40672
335.34897
335.21225
335.16006
335.03101
334.98395
334.86166
334.81928
334.70287
334.66477
334.55347
334.5193
334.41237
334.38185
334.27866
334.25156
334.15154
334.12768
334.0303
334.00953
333.91435
333.89656
333.80314
333.78826
333.69623
333.68419
333.59321
333.58396
333.49375
333.48719
333.39757
333.39354
333.30446
333.30266
333.21436
336.85762
336.90196
336.89878
336.81679
336.79983
336.67394
336.62395
336.47589
336.41561
336.26156
336.19907
336.04752
335.9868
335.84117
335.78406
335.64529
335.59248
335.46055
335.41215
335.28665
335.24255
335.12288
335.08286
334.96837
334.93218
334.82225
334.78967
334.6837
334.65451
334.55195
334.52599
334.42635
334.40346
334.30628
334.28636
334.19122
334.17417
334.08071
334.06645
333.97432
333.9628
333.8717
333.86284
333.77254
333.76624
333.67658
333.67266
333.58363
333.58182
333.49357
336.89403
336.9236
336.93321
336.86519
336.86526
336.76041
336.72932
336.60091
336.55617
336.41812
336.3677
336.2286
336.17711
336.04105
335.99104
335.85961
335.8123
335.68603
335.64196
335.52083
335.48017
335.36388
335.32665
335.21479
335.18088
335.07298
335.04229
334.9379
334.9103
334.80895
334.78434
334.68562
334.66389
334.56741
334.54847
334.45387
334.43765
334.34461
334.33104
334.23925
334.22828
334.13749
334.12905
334.03906
334.03302
333.94371
333.9399
333.85126
333.84946
333.76157
336.92744
336.94572
336.96281
336.90445
336.91681
336.82908
336.81385
336.70314
336.67262
336.54996
336.51125
336.38472
336.34259
336.21656
336.17398
336.05054
336.00914
335.88922
335.84989
335.73382
335.69701
335.58479
335.5507
335.44211
335.41081
335.30556
335.27705
335.1748
335.14904
335.04944
335.02638
334.9291
334.90869
334.8134
334.79558
334.70198
334.6867
334.59452
334.58172
334.4907
334.48033
334.39027
334.38226
334.29298
334.28721
334.19863
334.19494
334.10702
334.10525
334.01803
336.9581
336.96786
336.98913
336.93728
336.95803
336.88382
336.88141
336.78618
336.76823
336.65998
336.63226
336.51805
336.4851
336.3693
336.33425
336.2192
336.18396
336.0709
336.03661
335.92618
335.89352
335.78593
335.75529
335.65053
335.62212
335.52005
335.49397
335.39439
335.37068
335.27334
335.25202
335.15666
335.13772
335.04409
335.0275
334.93536
334.9211
334.83022
334.81826
334.72843
334.71871
334.62976
334.62222
334.53403
334.52856
334.44105
334.43751
334.35063
334.34891
334.26267
336.98627
336.98955
337.0131
336.96561
336.99171
336.9279
336.93543
336.85339
336.84621
336.75106
336.73337
336.63093
336.60674
336.50107
336.47345
336.36697
336.33796
336.23211
336.20304
336.09864
336.07036
335.96785
335.94089
335.84044
335.81513
335.71673
335.69328
335.59683
335.57536
335.48073
335.46131
335.36831
335.35098
335.25944
335.2442
335.15392
335.14078
335.0516
335.04054
334.95229
334.94327
334.85582
334.84878
334.76203
334.75689
334.67078
334.66742
334.5819
334.58025
334.49529
337.01216
337.01043
337.03524
336.9907
337.01989
336.96394
336.97886
336.90778
336.90951
336.82602
336.8172
336.72575
336.70969
336.61382
336.59335
336.4954
336.47256
336.37405
336.35025
336.25217
336.22838
336.1313
336.10817
336.01239
335.99035
335.896
335.87534
335.78243
335.76334
335.67182
335.65443
335.5642
335.54859
335.45952
335.44573
335.3577
335.34576
335.25865
335.24856
335.16224
335.15398
335.06836
335.06188
334.9769
334.97212
334.88772
334.88458
334.8007
334.79914
334.71576
337.03599
337.03028
337.05581
337.01339
337.04408
336.99398
337.01411
336.95197
336.96081
336.88747
336.88628
336.80485
336.79614
336.70955
336.69579
336.60616
336.58927
336.49812
336.47952
336.38788
336.3686
336.27716
336.25793
336.16711
336.14843
336.05844
336.04068
335.95164
335.93505
335.84697
335.83172
335.74459
335.73079
335.64454
335.63229
335.54685
335.53617
335.45146
335.4424
335.35834
335.35088
335.26742
335.26153
335.17861
335.17424
335.09183
335.08894
335.00698
335.00554
334.924
337.05792
337.04896
337.07494
337.03417
337.06529
337.01952
337.04312
336.98813
337.00244
336.93775
336.94294
336.87048
336.86826
336.79028
336.78266
336.701
336.68972
336.60578
336.59219
336.50702
336.49216
336.40649
336.39114
336.30545
336.29017
336.20477
336.18996
336.10505
336.09101
336.00666
335.99361
335.90987
335.89796
335.81482
335.80416
335.7216
335.71225
335.63024
335.62225
335.54075
335.53412
335.4531
335.44783
335.36726
335.36333
335.28317
335.28055
335.20078
335.19947
335.12003
337.07812
337.06643
337.09267
337.05333
337.0842
337.04167
337.06736
337.01803
337.03637
336.97895
336.98929
336.92473
336.92806
336.85795
336.85583
336.78165
336.77555
336.69856
336.68971
336.61089
336.6003
336.5204
336.50885
336.42839
336.41646
336.33581
336.32395
336.24335
336.23188
336.15148
336.14066
336.06055
336.05055
335.97078
335.96174
335.88232
335.87433
335.79527
335.78838
335.70968
335.70394
335.62559
335.62099
335.54299
335.53953
335.46187
335.45954
335.38218
335.38101
335.30392
337.09673
337.08271
337.10906
337.07102
337.10123
337.0612
337.08795
337.04308
337.06422
337.01283
337.02719
336.96946
336.97743
336.91439
336.91707
336.84982
336.8484
336.77799
336.77354
336.70087
336.69431
336.62009
336.61219
336.53696
336.5283
336.45246
336.4435
336.36733
336.35842
336.28211
336.27351
336.19721
336.18913
336.11291
336.10551
336.02943
336.02282
335.94692
335.94117
335.86548
335.86063
335.78518
335.78126
335.70605
335.70308
335.62811
335.62611
335.55136
335.55035
335.47581
337.11387
337.09782
337.12412
337.08734
337.11667
337.07862
337.1057
337.06435
337.08728
337.04084
337.05821
337.00634
337.01807
336.96129
336.96806
336.90713
336.90984
336.84559
336.84512
336.77832
336.77551
336.70681
336.70235
336.63228
336.62674
336.55571
336.54954
336.47786
336.47143
336.39931
336.3929
336.32052
336.31435
336.24182
336.23605
336.16347
336.15823
336.08566
336.08104
336.00853
336.0046
335.9322
335.92899
335.85673
335.85428
335.78218
335.78051
335.70855
335.7077
335.63589
337.12963
337.1118
337.13789
337.10234
337.13066
337.09428
337.12118
337.08263
337.10658
337.06418
337.0837
337.03679
337.05145
337.00016
337.01032
336.9551
336.96136
336.9028
336.90587
336.8446
336.84518
336.78178
336.7805
336.71546
336.71285
336.64657
336.64306
336.57584
336.5718
336.5039
336.4996
336.43121
336.42689
336.35815
336.35398
336.285
336.28111
336.21199
336.2085
336.13931
336.13628
336.06708
336.06458
335.99542
335.99348
335.92439
335.92306
335.85404
335.85336
335.78444
337.1441
337.1247
337.15039
337.11604
337.14331
337.10839
337.13479
337.09851
337.12288
337.08379
337.10472
337.06199
337.07887
337.03234
337.04522
336.99508
337.00434
336.95098
336.95713
336.90101
336.90462
336.84624
336.84784
336.78764
336.78772
336.72606
336.72504
336.66223
336.66043
336.59674
336.59445
336.53007
336.52752
336.46261
336.45998
336.39467
336.3921
336.32651
336.32411
336.25833
336.25619
336.19029
336.18849
336.12253
336.12111
336.05513
336.05415
335.98818
335.98768
335.92175
337.15733
337.13653
337.16166
337.12847
337.15468
337.12109
337.14679
337.11241
337.13676
337.10041
337.12216
337.08295
337.1014
337.05898
337.07398
337.02834
337.04004
336.99138
337.00013
336.94877
336.95501
336.90134
336.90552
336.84991
336.85244
336.79524
336.79649
336.73798
336.73827
336.67871
336.6783
336.61789
336.61702
336.55593
336.55477
336.49315
336.49184
336.42982
336.42848
336.36615
336.36489
336.30234
336.30122
336.23853
336.23762
336.17484
336.1742
336.11137
336.11103
336.04821
337.16933
337.14729
337.17171
337.13965
337.1648
337.13247
337.15735
337.12462
337.14865
337.11458
337.1367
337.10046
337.11994
337.08105
337.09762
337.05593
337.06958
337.02512
337.03604
336.98902
336.9975
336.94821
336.95462
336.90335
336.90805
336.8551
336.8584
336.80404
336.80622
336.75069
336.75202
336.69551
336.69619
336.63889
336.6391
336.58116
336.58103
336.52258
336.52225
336.46339
336.46295
336.40379
336.40333
336.34395
336.34353
336.28399
336.28367
336.22404
336.22386
336.16419
337.18009
337.15695
337.18055
337.14958
337.17371
337.1426
337.16661
337.13535
337.15886
337.12674
337.14888
337.11515
337.13523
337.09938
337.11704
337.07881
337.09393
337.05323
337.06587
337.02279
337.03313
336.98787
336.99619
336.94897
336.95554
336.90662
336.91172
336.86133
336.86521
336.81356
336.81646
336.76375
336.76585
336.71226
336.71372
336.6594
336.66038
336.60545
336.60606
336.55066
336.551
336.49522
336.49538
336.43931
336.43935
336.38308
336.38307
336.32665
336.32663
336.27015
337.18954
337.16548
337.18817
337.15829
337.18143
337.15152
337.17466
337.14476
337.16762
337.13721
337.15911
337.12754
337.14785
337.11463
337.13298
337.09776
337.11395
337.07658
337.09054
337.05101
337.06285
337.02127
337.03117
336.9877
336.99587
336.95072
336.95738
336.91074
336.91611
336.86818
336.87246
336.82341
336.82678
336.77679
336.7794
336.7286
336.73059
336.67913
336.6806
336.6286
336.62966
336.57723
336.57796
336.52519
336.52566
336.47264
336.47291
336.41971
336.41984
336.36653
337.19755
337.1728
337.19459
337.16579
337.188
337.15928
337.18156
337.15295
337.1751
337.14622
337.16769
337.13801
337.15829
337.12734
337.14605
337.11347
337.13035
337.09593
337.11086
337.07451
337.0875
337.04927
337.06043
337.02042
337.0299
336.98826
336.99623
336.95312
336.95976
336.91535
336.92083
336.87529
336.87977
336.83324
336.83686
336.78949
336.79237
336.74428
336.74653
336.69786
336.69957
336.65042
336.65168
336.60214
336.60302
336.5532
336.55374
336.50372
336.50398
336.45383
337.20397
337.17888
337.1998
337.17212
337.19347
337.16593
337.18739
337.16003
337.18142
337.15395
337.17489
337.14687
337.16692
337.13794
337.15674
337.12648
337.14375
337.11193
337.12751
337.09401
337.10784
337.07263
337.08476
337.0479
337.05843
337.02003
337.02907
336.98925
336.99695
336.95585
336.96235
336.92012
336.92556
336.88233
336.88683
336.84274
336.8464
336.80158
336.80451
336.75907
336.76136
336.7154
336.71713
336.67077
336.672
336.62531
336.6261
336.57919
336.57957
336.53253
337.20866
337.18368
337.20385
337.17733
337.19788
337.17154
337.19222
337.16607
337.18671
337.16055
337.18087
337.15436
337.17401
337.1468
337.16547
337.13724
337.15465
337.12513
337.14108
337.11011
337.1245
337.09202
337.10484
337.07086
337.08216
337.04674
337.05662
337.01985
337.02839
336.9904
336.99773
336.95862
336.96485
336.92476
336.92999
336.88904
336.89337
336.85167
336.85519
336.81285
336.81565
336.77278
336.77492
336.73162
336.73316
336.68954
336.69053
336.64667
336.64715
336.60314
337.21162
337.18725
337.20679
337.18147
337.2013
337.17617
337.1961
337.17114
337.19105
337.16613
337.1858
337.16067
337.17982
337.15419
337.17256
337.14613
337.16346
337.13598
337.15206
337.12335
337.13805
337.10801
337.12128
337.0899
337.10175
337.06905
337.07954
337.04558
337.05477
337.01965
337.02763
336.99145
336.99831
336.96117
336.967
336.92901
336.9339
336.89517
336.89918
336.85981
336.86303
336.82313
336.82561
336.78528
336.78709
336.74641
336.74758
336.70666
336.70723
336.66615
337.21298
337.18968
337.20872
337.18465
337.20383
337.17989
337.19913
337.17534
337.19453
337.1708
337.18979
337.16594
337.18453
337.16031
337.17827
337.15344
337.17053
337.14486
337.16087
337.13416
337.14896
337.1211
337.13461
337.10556
337.11776
337.08752
337.09842
337.06704
337.07669
337.04422
337.05268
337.01921
337.02656
336.99217
336.99847
336.96327
336.96859
336.93267
336.93708
336.90053
336.90409
336.86701
336.86979
336.83228
336.83431
336.79645
336.79778
336.75968
336.76033
336.72207
337.21306
337.19114
337.20977
337.18696
337.20555
337.1828
337.20138
337.17874
337.19723
337.17465
337.19296
337.1703
337.18827
337.16535
337.18279
337.15941
337.17612
337.15206
337.16784
337.14291
337.15762
337.13171
337.14526
337.11831
337.13065
337.10265
337.11378
337.08473
337.09467
337.06463
337.07342
337.04245
337.05014
337.01832
337.02496
336.99236
336.99801
336.96472
336.96944
336.93555
336.93938
336.90498
336.90797
336.87315
336.87535
336.84019
336.84164
336.80623
336.80695
336.77138
337.21224
337.19182
337.2101
337.18853
337.20657
337.18498
337.20293
337.18141
337.19923
337.17776
337.19538
337.17386
337.19117
337.16945
337.1863
337.16422
337.18045
337.15782
337.17323
337.14989
337.16435
337.14019
337.1536
337.12854
337.14085
337.11487
337.12605
337.09913
337.10919
337.08138
337.09034
337.06168
337.06957
337.04012
337.04698
337.0168
337.02267
336.99185
336.99678
336.96538
336.9694
336.93752
336.94068
336.90839
336.91073
336.87812
336.87965
336.8468
336.84756
336.81455
337.2109
337.19195
337.20984
337.18949
337.207
337.18653
337.20387
337.18344
337.2006
337.1802
337.19714
337.17668
337.19332
337.1727
337.18892
337.16802
337.18367
337.16233
337.17727
337.15534
337.16943
337.14681
337.15996
337.13657
337.14871
337.12453
337.13563
337.11063
337.12068
337.09488
337.10388
337.07733
337.0853
337.05802
337.06499
337.03706
337.04305
337.01451
337.01957
336.9905
336.99465
336.96512
336.96839
336.93848
336.9409
336.91069
336.91229
336.88185
336.88264
336.85205
337.20935
337.19169
337.20916
337.18994
337.20693
337.18754
337.20429
337.1849
337.20143
337.18204
337.1983
337.17885
337.1948
337.1752
337.19074
337.17091
337.18593
337.16574
337.18011
337.15944
337.17305
337.1518
337.16456
337.14267
337.15452
337.13195
337.14284
337.11956
337.12947
337.1055
337.11442
337.08978
337.09772
337.07245
337.07942
337.05354
337.05957
337.03315
337.03825
337.01135
337.01555
336.98822
336.99154
336.96386
336.96633
336.93836
336.93999
336.91181
336.91262
336.8843
337.20774
337.19119
337.20816
337.19
337.20646
337.1881
337.20427
337.18587
337.20177
337.18334
337.19893
337.18042
337.19566
337.177
337.19184
337.17297
337.18731
337.16814
337.18188
337.16232
337.17537
337.15534
337.16762
337.14706
337.1585
337.13737
337.14794
337.12621
337.13587
337.11355
337.12229
337.09939
337.1072
337.08374
337.09064
337.06664
337.07263
337.04815
337.05323
337.02832
337.03252
337.00722
337.01055
336.98493
336.98741
336.96154
336.96318
336.93711
336.93792
336.91172
337.20615
337.19055
337.20696
337.18975
337.20567
337.18828
337.20387
337.18641
337.20168
337.18415
337.19907
337.18143
337.19596
337.17816
337.19226
337.17426
337.18787
337.16962
337.18267
337.1641
337.17652
337.15756
337.16928
337.14989
337.16086
337.141
337.15116
337.13082
337.14014
337.1193
337.12777
337.10643
337.11404
337.09222
337.09896
337.07669
337.08255
337.05986
337.06486
337.04178
337.04592
337.0225
337.0258
337.00209
337.00455
336.98061
336.98224
336.95812
336.95893
336.93469
337.20459
337.18982
337.20561
337.18928
337.20465
337.18815
337.20316
337.18657
337.20122
337.18452
337.19876
337.18191
337.19571
337.17868
337.19202
337.17481
337.18766
337.17022
337.18254
337.16484
337.17657
337.15856
337.16966
337.15131
337.16172
337.143
337.15268
337.13356
337.14248
337.12296
337.13109
337.11117
337.11849
337.09817
337.10468
337.08397
337.08966
337.06859
337.07345
337.05205
337.05609
337.03439
337.03762
337.01567
337.01808
336.99592
336.99752
336.97522
336.97601
336.95359
337.20304
337.18904
337.20417
337.18864
337.20344
337.18777
337.20219
337.18641
337.20043
337.18448
337.19802
337.18188
337.19493
337.17859
337.19115
337.17462
337.18669
337.16996
337.18152
337.16458
337.17558
337.15841
337.16883
337.1514
337.1612
337.14349
337.15263
337.13461
337.14306
337.12472
337.13245
337.11379
337.12079
337.1018
337.10804
337.08874
337.09421
337.07461
337.0793
337.05942
337.06333
337.0432
337.04632
337.02599
337.02832
337.00781
337.00937
336.98872
336.9895
336.96875
337.20149
337.18821
337.20267
337.18787
337.20209
337.18718
337.20101
337.18595
337.19931
337.18403
337.19686
337.18134
337.19362
337.17787
337.18963
337.1737
337.18495
337.16885
337.1796
337.16333
337.17358
337.15714
337.16685
337.15023
337.15939
337.14256
337.15112
337.13408
337.14201
337.12473
337.13202
337.1145
337.12111
337.10334
337.10925
337.09123
337.09643
337.07817
337.08264
337.06416
337.06789
337.04921
337.0522
337.03334
337.03558
337.01658
337.01807
336.99895
336.9997
336.98049
337.19992
337.18735
337.20112
337.18698
337.20063
337.18642
337.19963
337.18521
337.19789
337.18319
337.19526
337.18027
337.19174
337.1765
337.18743
337.172
337.18243
337.16686
337.1768
337.1611
337.17057
337.15477
337.16376
337.14784
337.15633
337.14028
337.14824
337.13206
337.13945
337.12311
337.12992
337.11342
337.11961
337.10293
337.10849
337.09163
337.09653
337.07949
337.08371
337.0665
337.07003
337.05266
337.0555
337.03799
337.04012
337.02249
337.02391
337.00619
337.0069
336.9891
337.19832
337.18644
337.19953
337.18601
337.19908
337.18548
337.19806
337.18419
337.19615
337.18191
337.1932
337.17863
337.18927
337.17444
337.18451
337.1695
337.17908
337.16395
337.17307
337.15787
337.16655
337.1513
337.15955
337.14425
337.15205
337.13671
337.14404
337.12862
337.13546
337.11996
337.12627
337.11068
337.11644
337.10074
337.10592
337.0901
337.09468
337.07874
337.0827
337.06663
337.06995
337.05377
337.05644
337.04016
337.04217
337.02579
337.02713
337.01069
337.01136
336.99485
337.19667
337.18549
337.1979
337.18496
337.19744
337.18439
337.19629
337.18286
337.19405
337.18017
337.19062
337.17636
337.18613
337.17162
337.18081
337.16614
337.17485
337.1601
337.16838
337.15361
337.16149
337.14673
337.15422
337.13948
337.14659
337.13186
337.13856
337.12383
337.13009
337.11535
337.12115
337.10638
337.11169
337.09687
337.10167
337.08679
337.09104
337.07609
337.07977
337.06475
337.06784
337.05274
337.05523
337.04007
337.04194
337.02671
337.02797
337.01268
337.01331
336.99798
337.19497
337.18448
337.19622
337.18382
337.19571
337.18311
337.19428
337.18117
337.19154
337.17789
337.18745
337.1734
337.18226
337.16796
337.17626
337.16184
337.16968
337.15523
337.16268
337.14826
337.15536
337.14101
337.14777
337.13351
337.13994
337.12576
337.13183
337.11771
337.12341
337.10935
337.11464
337.10061
337.10547
337.09145
337.09585
337.08182
337.08573
337.07168
337.07508
337.061
337.06386
337.04975
337.05206
337.0379
337.03965
337.02546
337.02662
337.0124
337.01298
336.99873
337.19319
337.18341
337.19451
337.18259
337.19386
337.18161
337.19199
337.17906
337.18852
337.17498
337.18359
337.16964
337.17756
337.16339
337.17077
337.15654
337.1635
337.14929
337.15591
337.1418
337.14812
337.13414
337.14018
337.12635
337.1321
337.11842
337.12387
337.11031
337.11545
337.102
337.10679
337.09343
337.09784
337.08454
337.08855
337.0753
337.07887
337.06564
337.06876
337.05554
337.05816
337.04494
337.04707
337.03384
337.03545
337.02221
337.02328
337.01003
337.01057
336.99729
337.19132
337.18229
337.19274
337.18126
337.19187
337.17982
337.18932
337.17643
337.1849
337.17133
337.17894
337.16498
337.17192
337.1578
337.16425
337.15014
337.15623
337.14222
337.14802
337.13417
337.13973
337.12608
337.13141
337.11798
337.12308
337.10984
337.1147
337.10165
337.10624
337.09335
337.09765
337.08491
337.08888
337.07625
337.07987
337.06733
337.07057
337.05809
337.06092
337.04848
337.05088
337.03848
337.04042
337.02804
337.02951
337.01713
337.01812
337.00575
337.00624
336.99386
337.18935
337.18112
337.19092
337.17979
337.18965
337.17766
337.18616
337.17314
337.18053
337.16681
337.17335
337.15929
337.16522
337.15109
337.15661
337.14257
337.14779
337.13394
337.13894
337.12533
337.13015
337.1168
337.12146
337.10838
337.11286
337.10004
337.10432
337.09174
337.09582
337.08345
337.08728
337.0751
337.07865
337.06663
337.06988
337.05799
337.06091
337.04912
337.05167
337.03996
337.04213
337.03048
337.03224
337.02063
337.02197
337.01039
337.01129
336.99972
337.00017
336.98861
337.18727
337.1799
337.18901
337.17812
337.18713
337.175
337.18237
337.16905
337.17526
337.16126
337.16668
337.15244
337.15735
337.14315
337.14774
337.13374
337.13812
337.12439
337.12863
337.11523
337.11935
337.10628
337.11029
337.09755
337.10144
337.08901
337.09276
337.08062
337.0842
337.07232
337.07571
337.06405
337.06721
337.05576
337.05866
337.04736
337.04998
337.03882
337.04112
337.03007
337.03202
337.02106
337.02265
337.01175
337.01296
337.00211
337.00293
336.99211
336.99252
336.98171
337.18505
337.17867
337.18699
337.17619
337.18416
337.17168
337.17774
337.16395
337.1689
337.1545
337.15878
337.14429
337.14818
337.13387
337.13755
337.12356
337.12713
337.11353
337.11704
337.10383
337.10729
337.09449
337.0979
337.08549
337.08883
337.07678
337.08002
337.0683
337.07143
337.06001
337.06298
337.05182
337.05461
337.04369
337.04626
337.03553
337.03785
337.02729
337.02934
337.01891
337.02066