/*--------------------------------*- C++ -*----------------------------------*\
| =========                 |                                                 |
| \\      /  F ield         | OpenFOAM: The Open Source CFD Toolbox           |
|  \\    /   O peration     | Version:  2312                                  |
|   \\  /    A nd           | Website:  www.openfoam.com                      |
|    \\/     M anipulation  |                                                 |
\*---------------------------------------------------------------------------*/
FoamFile
{
    version     2.0;
    format      ascii;
    arch        "LSB;label=32;scalar=64";
    class       volScalarField;
    location    "2";
    object      T;
}
// * * * * * * * * * * * * * * * * * * * * * * * * * * * * * * * * * * * * * //

dimensions      [0 0 0 1 0 0 0];

internalField   nonuniform List<scalar> 
4000
(
310.87538
312.19134
312.44493
312.51346
312.59118
312.64441
312.69372
312.73736
312.77858
312.81731
312.85478
312.89102
312.92611
312.96084
312.99435
313.02803
313.06044
313.09334
313.12494
313.15725
313.18824
313.22009
313.25061
313.28207
313.31222
313.34337
313.37321
313.40409
313.43367
313.4643
313.49366
313.52406
313.55319
313.58337
313.61229
313.64226
313.67095
313.70072
313.72918
313.75876
313.78697
313.81639
313.84434
313.87364
313.90129
313.93055
313.95784
313.98719
314.0139
314.0441
308.63749
310.76684
311.4602
311.61008
311.78619
311.88937
311.9807
312.05511
312.12225
312.18194
312.23781
312.29001
312.33876
312.38646
312.43049
312.475
312.51575
312.55792
312.59624
312.63665
312.67313
312.71215
312.74722
312.7851
312.81905
312.85598
312.88902
312.92513
312.9574
312.99278
313.02435
313.05904
313.08997
313.12399
313.15427
313.18766
313.21727
313.25006
313.27897
313.31121
313.33937
313.37115
313.39851
313.42993
313.4564
313.48769
313.51308
313.54465
313.56831
313.6023
307.25529
309.39628
310.48359
310.71285
310.98478
311.13725
311.27001
311.375
311.46776
311.54833
311.62244
311.69054
311.75285
311.81347
311.86795
311.92326
311.97229
312.02372
312.06873
312.1172
312.15917
312.20532
312.24493
312.28919
312.32695
312.36963
312.40588
312.4472
312.48217
312.52226
312.55609
312.59504
312.62779
312.66566
312.69733
312.73417
312.76473
312.80058
312.82997
312.86491
312.89307
312.92724
312.95406
312.98767
313.01301
313.0464
313.06993
313.10378
313.12444
313.16197
306.3414
308.12834
309.5293
309.83036
310.1924
310.39215
310.56485
310.69974
310.81744
310.91857
311.01052
311.09431
311.16993
311.24332
311.3081
311.37409
311.43131
311.49188
311.54352
311.59997
311.64738
311.70058
311.74472
311.79529
311.83685
311.8852
311.92467
311.97113
312.00882
312.05357
312.08969
312.13287
312.16748
312.20918
312.2423
312.28257
312.31415
312.35307
312.38303
312.42071
312.44894
312.48557
312.51194
312.5478
312.57208
312.60765
312.6294
312.66561
312.68342
312.72414
305.7078
307.00167
308.61569
308.97419
309.41653
309.65967
309.86958
310.033
310.1744
310.29542
310.4045
310.50355
310.59203
310.67789
310.75267
310.82912
310.89433
310.96386
311.022
311.08625
311.13903
311.19913
311.24776
311.30448
311.34983
311.40373
311.44642
311.49789
311.53833
311.58764
311.62608
311.67341
311.70994
311.7554
311.79004
311.83372
311.8664
311.9084
311.93901
311.97948
312.00788
312.04703
312.07304
312.11125
312.13457
312.17242
312.19251
312.23113
312.24632
312.28983
305.25515
306.04403
307.7621
308.1579
308.66619
308.94664
309.18958
309.37925
309.54246
309.68224
309.80735
309.92093
310.02157
310.11942
310.20372
310.29026
310.36315
310.44133
310.50577
310.57757
310.63557
310.70234
310.75536
310.81803
310.86712
310.92637
310.97226
311.02859
311.07177
311.1255
311.16627
311.21764
311.25612
311.30528
311.34148
311.38855
311.42239
311.46747
311.49882
311.5421
311.57077
311.61252
311.63828
311.67891
311.70141
311.74162
311.7602
311.80129
311.81414
311.86007
304.92437
305.26624
306.98559
307.39558
307.95111
308.26066
308.53098
308.74359
308.926
309.08285
309.22248
309.34953
309.46135
309.57044
309.66362
309.75969
309.83981
309.92621
309.99662
310.0756
310.13862
310.21173
310.26901
310.33735
310.39008
310.45443
310.50346
310.56441
310.61031
310.66827
310.71137
310.76663
310.80707
310.85982
310.89762
310.94799
310.98307
311.0312
311.06337
311.10948
311.13852
311.18291
311.20854
311.25168
311.27348
311.31614
311.33338
311.37697
311.38783
311.43586
304.67818
304.66569
306.29899
306.70023
307.28094
307.60964
307.90029
308.13152
308.32978
308.50145
308.6536
308.7927
308.91442
309.03374
309.13495
309.2398
309.32655
309.42057
309.49654
309.58221
309.64995
309.72899
309.79031
309.86394
309.92017
309.9893
310.04137
310.10667
310.15521
310.21716
310.26255
310.32149
310.3639
310.42007
310.4595
310.51307
310.54941
310.60054
310.63361
310.68253
310.71204
310.75909
310.78471
310.83041
310.85166
310.89683
310.91294
310.95901
310.96827
311.01813
304.49141
304.22724
305.70907
306.08203
306.66418
307.00111
307.304
307.54862
307.75873
307.94236
308.10462
308.25396
308.384
308.51229
308.62045
308.73311
308.82574
308.92662
309.00763
309.09936
309.17144
309.25587
309.32096
309.39943
309.45895
309.53246
309.58742
309.65672
309.70779
309.77344
309.82104
309.88342
309.92775
309.98714
310.02819
310.0848
310.12244
310.17647
310.21047
310.26217
310.29222
310.34194
310.36765
310.41594
310.43679
310.4845
310.4997
310.5482
310.55624
310.60775
304.34642
303.9276
305.21688
305.54697
306.10756
306.44168
306.74811
307.00024
307.21762
307.40988
307.57946
307.73686
307.87338
308.00908
308.12292
308.24223
308.33985
308.44666
308.53205
308.62908
308.70502
308.79421
308.86272
308.94548
309.00804
309.08545
309.1431
309.21598
309.26944
309.33842
309.38813
309.45365
309.4998
309.56218
309.60479
309.66427
309.70318
309.75999
309.79494
309.84933
309.87997
309.93233
309.95822
310.00911
310.02969
310.07994
310.09444
310.14531
310.15249
310.20555
304.23085
303.73905
304.8179
305.09628
305.61548
305.93653
306.23773
306.49115
306.71089
306.90807
307.08183
307.24486
307.38577
307.52709
307.64515
307.76975
307.87131
307.98298
308.07198
308.17344
308.25268
308.34588
308.41739
308.5038
308.56906
308.64982
308.70991
308.78591
308.84155
308.91345
308.9651
309.03342
309.08128
309.14636
309.19043
309.25256
309.29268
309.35209
309.38797
309.44495
309.47619
309.53113
309.55726
309.61071
309.63115
309.6839
309.69791
309.75108
309.75771
309.81227
304.13581
303.63285
304.50326
304.72675
305.18977
305.48893
305.77671
306.02522
306.24231
306.44048
306.61514
306.7811
306.92415
307.06911
307.1898
307.31816
307.4225
307.53782
307.62957
307.73446
307.81634
307.91272
307.98672
308.07608
308.14365
308.22716
308.28937
308.36795
308.42552
308.49989
308.55327
308.62399
308.67338
308.74084
308.78624
308.85074
308.89198
308.95379
308.99053
309.04995
309.08178
309.13919
309.1656
309.22153
309.24193
309.29712
309.31082
309.36619
309.37253
309.42859
304.05531
303.58251
304.2612
304.43169
304.8296
305.10007
305.36729
305.60516
305.81479
306.01001
306.18223
306.34834
306.49119
306.63768
306.7593
306.88978
306.99563
307.11327
307.20683
307.31405
307.39785
307.4965
307.57242
307.66395
307.73339
307.81897
307.88293
307.96353
308.02271
308.09906
308.15391
308.2266
308.27731
308.34678
308.39333
308.4599
308.50211
308.56607
308.60359
308.66525
308.69762
308.75735
308.78405
308.84235
308.86278
308.92029
308.93384
308.99131
308.99755
309.05514
303.98517
303.56573
304.07883
304.20197
304.53164
304.76897
305.01008
305.23235
305.43016
305.6187
305.78527
305.94876
306.08908
306.23493
306.35576
306.48662
306.59269
306.71125
306.80561
306.914
306.99894
307.09888
307.1761
307.26897
307.33976
307.42671
307.492
307.57399
307.63444
307.71224
307.76825
307.84246
307.89421
307.9653
308.01278
308.08109
308.12409
308.18992
308.22807
308.29174
308.32457
308.38643
308.41339
308.4739
308.4944
308.55411
308.56762
308.62707
308.63334
308.69248
303.92277
303.56574
303.94341
304.02715
304.29046
304.49264
304.70394
304.90678
305.08912
305.26765
305.42565
305.58386
305.71946
305.86252
305.98086
306.11038
306.21534
306.33337
306.42751
306.53587
306.62112
306.72133
306.7992
306.89254
306.96414
307.05172
307.11787
307.20063
307.26193
307.34063
307.39745
307.4727
307.5252
307.59748
307.64562
307.71531
307.75887
307.82627
307.86487
307.93029
307.96345
308.02722
308.05437
308.1169
308.13749
308.19921
308.21276
308.27406
308.28043
308.34114
303.86632
303.57108
303.84341
303.89654
304.09916
304.26647
304.44624
304.62704
304.79118
304.95695
305.1039
305.25445
305.38331
305.52157
305.63582
305.76229
305.86487
305.98096
306.07384
306.18096
306.2657
306.36515
306.44297
306.5359
306.60773
306.69517
306.76171
306.84456
306.9063
306.98532
307.04257
307.11836
307.17127
307.24431
307.29282
307.36349
307.40737
307.47599
307.51484
307.58171
307.61504
307.68047
307.70772
307.77204
307.79267
307.85622
307.86983
307.93284
307.93934
308.00159
303.81482
303.57509
303.769
303.80002
303.95007
304.08471
304.23306
304.39054
304.53476
304.6857
304.81967
304.96054
305.08095
305.21259
305.32132
305.44316
305.54217
305.65494
305.74557
305.85028
305.93367
306.03136
306.10843
306.20009
306.27154
306.3581
306.42449
306.5068
306.56851
306.64728
306.70456
306.78038
306.83334
306.90669
306.95525
307.0265
307.07041
307.1399
307.17876
307.24677
307.28008
307.34687
307.37409
307.43994
307.46056
307.52571
307.53936
307.60391
307.61053
307.67426
303.76752
303.57456
303.71237
303.72868
303.83542
303.94094
304.05957
304.19369
304.3173
304.45211
304.57179
304.70141
304.81204
304.9355
305.03749
305.15327
305.24764
305.35584
305.44331
305.54449
305.62576
305.72071
305.79635
305.88588
305.95638
306.04132
306.10704
306.18815
306.24937
306.32732
306.38422
306.45957
306.5122
306.5854
306.63366
306.7051
306.74874
306.81872
306.85733
306.92612
306.95922
307.02706
307.0541
307.1212
307.1417
307.2082
307.22184
307.28774
307.29444
307.35953
303.72407
303.56888
303.66764
303.6752
303.74789
303.82863
303.9204
304.03221
304.13548
304.25362
304.35836
304.47563
304.57555
304.68961
304.7839
304.89243
304.98127
305.08376
305.16726
305.26391
305.34232
305.43364
305.50721
305.59383
305.66279
305.74542
305.80994
305.88925
305.9495
306.02609
306.08217
306.15656
306.20847
306.28109
306.32871
306.39991
306.44297
306.51306
306.55116
306.62039
306.65303
306.72159
306.74828
306.81631
306.83659
306.90415
306.91771
306.98474
306.99145
307.05774
303.68407
303.55856
303.63068
303.63385
303.68097
303.74156
303.81008
303.90143
303.98547
304.08711
304.17687
304.28121
304.36993
304.4737
304.55964
304.65996
304.74256
304.83842
304.91727
305.0085
305.08342
305.17029
305.2412
305.32419
305.39106
305.47074
305.53357
305.61051
305.66933
305.74405
305.79889
305.87185
305.92266
305.99426
306.04089
306.11145
306.15362
306.22344
306.26074
306.33004
306.36201
306.43094
306.45709
306.52573
306.54564
306.61397
306.62734
306.69525
306.70191
306.76918
303.64729
303.54485
303.59873
303.60046
303.62923
303.6741
303.7233
303.7966
303.86314
303.94905
304.02435
304.11567
304.19311
304.28609
304.36332
304.45474
304.53063
304.6191
304.69277
304.77786
304.84875
304.9305
304.99822
305.07696
305.14124
305.2174
305.27807
305.35211
305.40908
305.48145
305.53465
305.60575
305.65509
305.72526
305.77055
305.8401
305.88106
305.95024
305.98647
306.05548
306.08654
306.15549
306.1809
306.24981
306.2692
306.33799
306.35105
306.41956
306.4261
306.49409
303.61342
303.52896
303.57011
303.57214
303.58832
303.62144
303.65522
303.71316
303.76435
303.83574
303.89759
303.97621
304.04268
304.12471
304.19317
304.27528
304.34419
304.42476
304.49288
304.57127
304.63771
304.71379
304.77789
304.85184
304.91311
304.98526
305.04335
305.11405
305.16876
305.23837
305.28955
305.35838
305.4059
305.47426
305.5179
305.58606
305.62552
305.69371
305.72861
305.79697
305.82688
305.89549
305.91999
305.98882
306.00753
306.07645
306.08909
306.15788
306.16423
306.23265
303.58223
303.51199
303.54387
303.54704
303.55497
303.57966
303.60163
303.64691
303.68512
303.74353
303.79325
303.85984
303.91599
303.98723
304.04713
304.11979
304.18168
304.25405
304.31642
304.38771
304.44942
304.51941
304.57956
304.64832
304.70621
304.77395
304.82909
304.89608
304.94817
305.01465
305.06348
305.1297
305.17508
305.24129
305.28298
305.34941
305.3871
305.45395
305.48727
305.55464
305.58319
305.65113
305.67452
305.74292
305.76081
305.82951
305.84162
305.91037
305.91646
305.98497
303.55346
303.49469
303.5195
303.52405
303.52685
303.5457
303.55901
303.59416
303.62179
303.66889
303.70805
303.76356
303.81026
303.87116
303.92294
303.98626
304.04128
304.10535
304.16193
304.22593
304.28275
304.34639
304.40233
304.46561
304.51984
304.58288
304.63478
304.69774
304.74692
304.80997
304.85615
304.91947
304.96243
305.02619
305.06567
305.13007
305.16575
305.23093
305.26246
305.32852
305.35552
305.42243
305.44454
305.51218
305.5291
305.59725
305.60872
305.67709
305.68286
305.75112
303.52689
303.4776
303.49675
303.50258
303.50235
303.51729
303.52454
303.5518
303.57111
303.60863
303.63888
303.68442
303.72275
303.77394
303.81824
303.87254
303.92101
303.97689
304.02779
304.08447
304.13634
304.19351
304.24513
304.30275
304.35313
304.41126
304.4597
304.51842
304.56444
304.62384
304.66713
304.72729
304.7676
304.82866
304.8657
304.92779
304.96125
305.0245
305.05404
305.11848
305.14376
305.20933
305.23003
305.29656
305.3124
305.37965
305.39038
305.45802
305.46343
305.53107
303.5023
303.461
303.47553
303.48233
303.48045
303.49282
303.49605
303.5173
303.53035
303.55992
303.58289
303.61966
303.65077
303.69307
303.73066
303.77644
303.81882
303.86678
303.91224
303.96171
304.00872
304.05944
304.10668
304.1586
304.20502
304.25815
304.30296
304.35731
304.4
304.45558
304.49579
304.55262
304.59008
304.64823
304.68266
304.74222
304.7733
304.83435
304.86175
304.92429
304.94772
305.01164
305.03081
305.09592
305.11058
305.17659
305.18652
305.25307
305.25808
305.32474
303.47952
303.44507
303.45576
303.46319
303.46052
303.47119
303.47194
303.4887
303.49722
303.52032
303.53757
303.56677
303.59186
303.62617
303.65788
303.69576
303.73263
303.77308
303.81345
303.85596
303.89829
303.94269
303.98563
304.0319
304.07432
304.12244
304.16355
304.21347
304.25272
304.30438
304.3414
304.39475
304.42925
304.48433
304.51601
304.57285
304.60142
304.66006
304.68521
304.7456
304.76707
304.82908
304.84662
304.91002
304.92342
304.98787
304.99694
305.06207
305.06664
305.13198
303.45837
303.42985
303.43739
303.44513
303.44219
303.45169
303.45108
303.46448
303.46992
303.48783
303.50076
303.52355
303.54376
303.57101
303.59772
303.62843
303.6604
303.69387
303.72957
303.76549
303.8034
303.84174
303.8805
303.92127
303.95976
304.00294
304.04035
304.08585
304.12161
304.16932
304.20307
304.25289
304.28434
304.33624
304.36509
304.41907
304.44505
304.50109
304.52392
304.58196
304.6014
304.66125
304.67711
304.7385
304.7506
304.8132
304.82138
304.88476
304.88887
304.95255
303.43871
303.41537
303.42037
303.42815
303.42525
303.43388
303.43267
303.44357
303.44706
303.46086
303.47066
303.4881
303.5045
303.52562
303.5482
303.57248
303.60023
303.6273
303.65881
303.6886
303.72241
303.75501
303.78981
303.82531
303.85999
303.89838
303.93214
303.97331
304.00561
304.04939
304.07987
304.12613
304.1545
304.20315
304.22915
304.28016
304.30352
304.35682
304.3773
304.43279
304.45018
304.50765
304.5218
304.58096
304.59172
304.6522
304.65946
304.72081
304.72446
304.78617
303.42043
303.40162
303.40462
303.41227
303.40959
303.4175
303.41619
303.42519
303.42759
303.43815
303.44582
303.45884
303.47238
303.48825
303.50752
303.52613
303.55031
303.57163
303.59945
303.62361
303.65371
303.68096
303.71206
303.74258
303.77363
303.80745
303.83768
303.87466
303.90357
303.94351
303.97076
304.01348
304.03882
304.0842
304.10736
304.15533
304.17607
304.22654
304.24466
304.29747
304.31281
304.36772
304.38016
304.43687
304.44631
304.50441
304.51077
304.56982
304.57301
304.63247
303.40343
303.38859
303.3901
303.39747
303.39514
303.40239
303.40132
303.40882
303.41076
303.41875
303.42509
303.43449
303.44598
303.45741
303.4741
303.4878
303.50904
303.52524
303.54988
303.56896
303.59574
303.61809
303.64579
303.67169
303.69933
303.72884
303.75571
303.78869
303.81434
303.85055
303.87468
303.91393
303.93629
303.97842
303.9988
304.04371
304.06189
304.10945
304.12526
304.17528
304.18861
304.24082
304.25159
304.30566
304.3138
304.36933
304.3748
304.43132
304.43405
304.49103
303.38761
303.37628
303.37673
303.38376
303.38185
303.38847
303.38784
303.3941
303.39601
303.40195
303.40757
303.41402
303.42413
303.43185
303.44661
303.45608
303.47496
303.48669
303.50866
303.5232
303.54707
303.56498
303.58962
303.61127
303.63577
303.66126
303.68499
303.71418
303.73674
303.76939
303.79053
303.82641
303.84593
303.88486
303.90256
303.94441
303.96012
304.00472
304.01831
304.06546
304.07685
304.12625
304.1354
304.1867
304.19358
304.24637
304.25098
304.30478
304.30709
304.36137
303.37291
303.36469
303.36448
303.37114
303.36972
303.37572
303.37561
303.38082
303.38298
303.38725
303.39261
303.39665
303.40591
303.41054
303.42392
303.42981
303.44685
303.4547
303.47445
303.48501
303.50636
303.52031
303.54223
303.56002
303.58167
303.60346
303.62428
303.64995
303.66962
303.6989
303.71723
303.74987
303.76669
303.80251
303.81767
303.85649
303.86985
303.9115
303.92297
303.96721
303.97675
304.02327
304.03088
304.0793
304.08499
304.13491
304.1387
304.18965
304.19154
304.24297
303.3593
303.35386
303.35332
303.3596
303.3587
303.36409
303.36456
303.36884
303.3714
303.3743
303.37969
303.38177
303.39059
303.39266
303.4051
303.40798
303.42362
303.42816
303.44611
303.4532
303.47243
303.48288
303.50241
303.51675
303.53584
303.55427
303.57245
303.59485
303.61186
303.63798
303.6537
303.68326
303.69757
303.73037
303.74315
303.77902
303.79018
303.8289
303.83839
303.8797
303.88751
303.9311
303.93727
303.98275
303.98733
304.03429
304.03732
304.0853
304.0868
304.13527
303.34676
303.34385
303.34325
303.34915
303.34879
303.35358
303.35463
303.35805
303.3611
303.36283
303.36845
303.36892
303.37758
303.37755
303.3894
303.38977
303.40438
303.40611
303.42265
303.42675
303.44421
303.45159
303.46907
303.48034
303.49719
303.51257
303.52839
303.54779
303.56241
303.58558
303.59891
303.62557
303.63756
303.66748
303.67807
303.71106
303.72019
303.75603
303.76369
303.8021
303.80832
303.84896
303.85381
303.89632
303.89987
303.94382
303.94615
303.99109
303.99224
304.03768
303.33534
303.33471
303.33428
303.3398
303.33998
303.34417
303.34578
303.3484
303.35196
303.35268
303.35864
303.35776
303.36647
303.36471
303.37622
303.3745
303.38839
303.38777
303.4032
303.40476
303.42077
303.42549
303.44124
303.4498
303.4647
303.47736
303.49109
303.50778
303.52024
303.54069
303.55188
303.57581
303.58571
303.6129
303.62149
303.65172
303.65899
303.69203
303.69802
303.73357
303.73834
303.77607
303.77972
303.81924
303.82187
303.8628
303.8645
303.90637
303.90721
303.94957
303.32517
303.32657
303.32644
303.33156
303.33225
303.33584
303.33796
303.33983
303.34389
303.34371
303.35005
303.34805
303.35691
303.35373
303.3651
303.36166
303.37505
303.37246
303.38705
303.38646
303.4013
303.40375
303.41805
303.42425
303.43748
303.44772
303.45964
303.47387
303.48444
303.5024
303.51168
303.53307
303.54111
303.5657
303.57252
303.6001
303.60572
303.63604
303.64054
303.6733
303.67678
303.71163
303.71421
303.75079
303.7526
303.79051
303.79165
303.83047
303.83102
303.87032
303.31648
303.31954
303.31975
303.32445
303.32557
303.32857
303.33114
303.33229
303.3368
303.33583
303.34254
303.33959
303.34867
303.34431
303.35565
303.3508
303.36387
303.35965
303.37361
303.37122
303.38513
303.38564
303.39875
303.40289
303.41472
303.42283
303.4332
303.44522
303.45416
303.46983
303.47746
303.4965
303.5029
303.52506
303.53031
303.55537
303.55954
303.58725
303.59044
303.62049
303.62283
303.65488
303.65653
303.69022
303.69131
303.72626
303.72691
303.76272
303.76303
303.79929
303.30952
303.3137
303.31421
303.31843
303.3199
303.32232
303.32526
303.32575
303.33062
303.32894
303.336
303.33223
303.34154
303.33621
303.34759
303.34158
303.35445
303.3489
303.36239
303.35849
303.37168
303.37054
303.38269
303.38506
303.39574
303.40196
303.41104
303.42107
303.42863
303.44222
303.44843
303.46529
303.47029
303.49017
303.49408
303.51675
303.51967
303.54488
303.54694
303.57438
303.57575
303.60509
303.60593
303.63681
303.63729
303.66935
303.66958
303.70246
303.70255
303.73585
303.30445
303.30912
303.30981
303.31347
303.3152
303.31703
303.32026
303.32013
303.3253
303.32299
303.33032
303.32587
303.33538
303.32926
303.34069
303.33375
303.34648
303.33984
303.35298
303.34785
303.36048
303.35794
303.36933
303.37017
303.37991
303.38447
303.39249
303.40074
303.40717
303.41886
303.42389
303.43874
303.44256
303.46032
303.46308
303.48351
303.48537
303.5082
303.50932
303.53427
303.53481
303.56154
303.56171
303.58988
303.58984
303.61911
303.619
303.64902
303.64894
303.67937
303.30123
303.30573
303.30646
303.3095
303.31139
303.31265
303.31607
303.31537
303.32076
303.31788
303.32543
303.3204
303.33006
303.32329
303.33477
303.32708
303.33971
303.33219
303.34508
303.33891
303.35112
303.3474
303.3582
303.35772
303.36673
303.36983
303.377
303.38366
303.38915
303.39913
303.40319
303.41619
303.41904
303.43482
303.43665
303.45497
303.45596
303.47655
303.47688
303.49946
303.49934
303.52357
303.52319
303.54877
303.54831
303.5749
303.57451
303.6018
303.60158
303.62924
303.29955
303.30339
303.30403
303.30641
303.30837
303.30908
303.31263
303.3114
303.31693
303.31356
303.32123
303.31572
303.32548
303.31819
303.32969
303.3214
303.33395
303.32572
303.33841
303.3314
303.34327
303.33857
303.34892
303.3473
303.35574
303.35756
303.36406
303.3693
303.37406
303.38248
303.38576
303.39707
303.39915
303.41309
303.41418
303.43052
303.43081
303.44929
303.449
303.46933
303.46868
303.49056
303.48974
303.51285
303.51207
303.53611
303.5355
303.56019
303.55985
303.58488
303.29892
303.30187
303.30235
303.30408
303.30604
303.30623
303.30983
303.30814
303.31372
303.30995
303.31767
303.31177
303.32155
303.31386
303.32533
303.31657
303.32904
303.32024
303.33275
303.32506
303.33668
303.33115
303.34115
303.33855
303.34657
303.34725
303.35326
303.35721
303.36142
303.36842
303.37112
303.38087
303.38235
303.39459
303.3951
303.4096
303.40936
303.42586
303.4251
303.44332
303.44226
303.46191
303.46077
303.48155
303.48052
303.50216
303.50138
303.5236
303.52319
303.54573
303.29884
303.30093
303.30126
303.30238
303.30429
303.304
303.30759
303.30551
303.31108
303.30696
303.31466
303.30846
303.3182
303.3102
303.32159
303.31248
303.32483
303.31559
303.32795
303.3197
303.33112
303.32488
303.33464
303.33118
303.33889
303.33857
303.34422
303.34703
303.35083
303.35654
303.35881
303.36713
303.36818
303.37885
303.37894
303.39172
303.3911
303.40574
303.40465
303.42089
303.41955
303.4371
303.43574
303.45433
303.45313
303.4725
303.47161
303.49152
303.49105
303.51125
303.29897
303.30037
303.30059
303.30117
303.303
303.3023
303.30583
303.30341
303.30891
303.30453
303.31213
303.30571
303.31533
303.30713
303.31838
303.30903
303.32122
303.31166
303.32385
303.31515
303.3264
303.31958
303.32915
303.32494
303.33246
303.33123
303.33665
303.33841
303.34196
303.34648
303.34847
303.35547
303.35623
303.36544
303.36526
303.37644
303.37557
303.38848
303.38717
303.40156
303.40005
303.41564
303.41414
303.43068
303.42938
303.44664
303.44569
303.46343
303.46293
303.48094
303.29909
303.30002
303.30018
303.30033
303.30207
303.30102
303.30446
303.30178
303.30715
303.30257
303.31002
303.30346
303.3129
303.30457
303.31562
303.30612
303.31811
303.30832
303.32033
303.31129
303.32238
303.31507
303.3245
303.31965
303.32703
303.325
303.33029
303.33109
303.33449
303.33793
303.33976
303.34554
303.34614
303.354
303.35367
303.36336
303.36236
303.37367
303.37225
303.38491
303.38332
303.39709
303.39553
303.41016
303.40883
303.42411
303.42314
303.43887
303.43835
303.45433
303.29915
303.29979
303.29994
303.29975
303.30141
303.30008
303.30339
303.30052
303.30572
303.30103
303.30826
303.30163
303.31082
303.30246
303.31325
303.30369
303.31542
303.3055
303.31729
303.308
303.31893
303.31121
303.32054
303.31511
303.32243
303.31967
303.32491
303.32484
303.32819
303.33062
303.33241
303.33705
303.33761
303.34421
303.34383
303.35215
303.35112
303.36093
303.3595
303.37056
303.36897
303.38104
303.37949
303.39236
303.39104
303.4045
303.40354
303.4174
303.4169
303.43099
303.29914
303.2996
303.29979
303.29935
303.30092
303.2994
303.30257
303.29957
303.30456
303.29982
303.30678
303.30017
303.30905
303.30072
303.31119
303.30165
303.31308
303.3031
303.31465
303.30518
303.31594
303.30789
303.31713
303.3112
303.31849
303.31508
303.32033
303.31946
303.32284
303.32435
303.32617
303.32976
303.33036
303.3358
303.33547
303.34251
303.34154
303.34996
303.34859
303.35817
303.35665
303.36716
303.36568
303.37691
303.37565
303.38742
303.38651
303.39865
303.39817
303.41052
303.29908
303.29944
303.29967
303.29906
303.30056
303.29892
303.30192
303.29887
303.30361
303.29889
303.30554
303.299
303.30753
303.2993
303.3094
303.29994
303.31102
303.30106
303.31233
303.30275
303.31332
303.30501
303.31416
303.3078
303.31509
303.31108
303.31639
303.31479
303.31826
303.3189
303.32083
303.32346
303.32417
303.32852
303.32832
303.33418
303.33333
303.34047
303.33924
303.34745
303.34605
303.35511
303.35375
303.36348
303.36231
303.37254
303.37169
303.38225
303.38181
303.39256
303.29899
303.29929
303.29956
303.29885
303.30028
303.29857
303.30139
303.29835
303.30283
303.29818
303.30448
303.29808
303.30619
303.29814
303.30781
303.2985
303.30919
303.29931
303.31025
303.30063
303.31099
303.30248
303.31153
303.30481
303.3121
303.30757
303.31296
303.31069
303.3143
303.31414
303.31623
303.31795
303.31884
303.32219
303.32217
303.32693
303.32627
303.33222
303.33118
303.33812
303.33689
303.34463
303.34342
303.35177
303.35073
303.35953
303.35877
303.36789
303.36749
303.37678
303.29887
303.29915
303.29944
303.29869
303.30004
303.29831
303.30096
303.29796
303.30216
303.29763
303.30355
303.29734
303.30501
303.29718
303.30637
303.29728
303.30752
303.29778
303.30836
303.29876
303.30887
303.30023
303.30917
303.30214
303.30944
303.30444
303.30993
303.30704
303.31081
303.30992
303.31222
303.3131
303.31421
303.31662
303.31684
303.32057
303.32016
303.32501
303.32419
303.32996
303.32895
303.33547
303.33444
303.34152
303.34063
303.34814
303.34748
303.35527
303.35493
303.36288
303.29873
303.299
303.29931
303.29854
303.29981
303.29812
303.30058
303.29768
303.30157
303.2972
303.30272
303.29674
303.30393
303.29636
303.30505
303.29622
303.30597
303.29643
303.3066
303.29709
303.30692
303.2982
303.307
303.29972
303.30702
303.3016
303.3072
303.30375
303.30771
303.30614
303.30866
303.30876
303.31013
303.31168
303.31216
303.31495
303.31481
303.31864
303.31809
303.32279
303.32202
303.32741
303.3266
303.33251
303.33179
303.3381
303.33757
303.34415
303.34387
303.3506
303.29858
303.29886
303.29915
303.2984
303.2996
303.29797
303.30022
303.29745
303.30102
303.29685
303.30195
303.29622
303.3029
303.29565
303.30379
303.29527
303.30449
303.29521
303.30492
303.29555
303.30506
303.29632
303.30496
303.29749
303.30477
303.29899
303.30469
303.30074
303.30488
303.30269
303.30545
303.30484
303.30648
303.30723
303.30801
303.30993
303.31007
303.31298
303.31271
303.31642
303.31592
303.32027
303.31969
303.32454
303.32401
303.32922
303.32882
303.33429
303.33408
303.33969
303.2984
303.29872
303.29897
303.29827
303.29937
303.29783
303.29988
303.29725
303.3005
303.29654
303.30119
303.29575
303.3019
303.29498
303.30255
303.29438
303.30304
303.29405
303.30328
303.29411
303.30325
303.29456
303.30299
303.29539
303.30263
303.29654
303.30233
303.29793
303.30226
303.2995
303.30251
303.30124
303.30316
303.30318
303.30426
303.30538
303.30583
303.30788
303.30791
303.31071
303.31048
303.31389
303.31355
303.31743
303.31709
303.32131
303.32104
303.3255
303.32535
303.32994
303.29821
303.29858
303.29878
303.29813
303.29914
303.29769
303.29953
303.29705
303.29996
303.29623
303.30042
303.29528
303.30089
303.29433
303.3013
303.2935
303.30157
303.29293
303.30164
303.2927
303.30145
303.29286
303.30105
303.29338
303.30054
303.29421
303.30006
303.29527
303.29977
303.29651
303.29976
303.29789
303.30009
303.29944
303.30082
303.30121
303.30197
303.30324
303.30357
303.30554
303.3056
303.30814
303.30805
303.31103
303.31089
303.3142
303.31407
303.3176
303.31752
303.32118
303.298
303.29843
303.29857
303.29799
303.29889
303.29754
303.29916
303.29683
303.29939
303.29588
303.29961
303.29478
303.29983
303.29364
303.29999
303.2926
303.30006
303.29179
303.29995
303.2913
303.29962
303.29118
303.29909
303.29141
303.29845
303.29195
303.29783
303.29271
303.29736
303.29365
303.29712
303.29471
303.29719
303.29593
303.29762
303.29733
303.29841
303.29895
303.29959
303.30081
303.30114
303.3029
303.30305
303.30522
303.30527
303.30775
303.30775
303.31044
303.31044
303.31324
303.29777
303.29829
303.29834
303.29784
303.29861
303.29736
303.29875
303.29656
303.29876
303.29546
303.29872
303.29419
303.29868
303.29287
303.29861
303.29163
303.29846
303.2906
303.29818
303.28987
303.29772
303.28949
303.29708
303.28945
303.29634
303.28972
303.2956
303.29021
303.29497
303.29088
303.29456
303.29167
303.29441
303.2926
303.29457
303.29369
303.29506
303.29495
303.29589
303.29641
303.29703
303.29806
303.29845
303.29988
303.30012
303.30184
303.30198
303.30389
303.30396
303.30598
303.29752
303.29815
303.2981
303.29768
303.29831
303.29714
303.29827
303.2962
303.29803
303.29494
303.29773
303.29349
303.29742
303.29199
303.29711
303.29056
303.29676
303.28932
303.29631
303.28837
303.29572
303.28775
303.29499
303.28747
303.29416
303.28748
303.29332
303.28774
303.29258
303.28816
303.29202
303.28872
303.29169
303.28939
303.29164
303.29021
303.29187
303.29117
303.29239
303.29229
303.29317
303.29355
303.29417
303.29492
303.29535
303.29637
303.29664
303.29785
303.29798
303.29928
303.29725
303.29802
303.29784
303.2975
303.29796
303.29684
303.2977
303.29573
303.29719
303.29428
303.2966
303.29264
303.29602
303.29096
303.29546
303.28935
303.29491
303.28793
303.29431
303.28677
303.2936
303.28593
303.29278
303.28543
303.29188
303.28522
303.29098
303.28526
303.29014
303.28547
303.28946
303.28581
303.28899
303.28627
303.28876
303.28685
303.28878
303.28756
303.28903
303.28837
303.2895
303.28929
303.29013