/*--------------------------------*- C++ -*----------------------------------*\
| =========                 |                                                 |
| \\      /  F ield         | OpenFOAM: The Open Source CFD Toolbox           |
|  \\    /   O peration     | Version:  2312                                  |
|   \\  /    A nd           | Website:  www.openfoam.com                      |
|    \\/     M anipulation  |                                                 |
\*---------------------------------------------------------------------------*/
FoamFile
{
    version     2.0;
    format      ascii;
    arch        "LSB;label=32;scalar=64";
    class       volVectorField;
    location    "2";
    object      U_0;
}
// * * * * * * * * * * * * * * * * * * * * * * * * * * * * * * * * * * * * * //

dimensions      [0 1 -1 0 0 0 0];

internalField   nonuniform List<vector> 
4000
(
(0.0025589123 0.00054546403 0)
(0.006372093 -1.7165188e-05 0)
(0.0031472196 -5.4074856e-07 0)
(0.0038666385 -6.791904e-07 0)
(0.003598949 7.3863922e-08 0)
(0.0035888894 -1.9100714e-07 0)
(0.003579024 8.3281565e-08 0)
(0.0035431867 -1.3425793e-07 0)
(0.0035562614 9.4216166e-08 0)
(0.0035386671 -9.5348326e-08 0)
(0.00354894 7.879706e-08 0)
(0.0035380364 -7.3516473e-08 0)
(0.003548221 6.691246e-08 0)
(0.0035379899 -6.1221493e-08 0)
(0.0035474999 5.5216983e-08 0)
(0.0035387849 -4.9457985e-08 0)
(0.0035466569 4.4063491e-08 0)
(0.0035395748 -3.8999959e-08 0)
(0.0035459078 3.4269715e-08 0)
(0.0035402556 -2.9841243e-08 0)
(0.003545275 2.5699894e-08 0)
(0.0035408325 -2.181812e-08 0)
(0.0035447439 1.8214848e-08 0)
(0.0035413146 -1.4846671e-08 0)
(0.0035443022 1.1697102e-08 0)
(0.0035417151 -8.7336982e-09 0)
(0.0035439381 5.9906707e-09 0)
(0.0035420473 -3.3743415e-09 0)
(0.0035436365 8.3657052e-10 0)
(0.0035423136 1.2420091e-09 0)
(0.0035434109 -2.8882038e-09 0)
(0.0035425068 4.6493296e-09 0)
(0.0035432342 -6.5375978e-09 0)
(0.003542672 8.2046515e-09 0)
(0.003543096 -9.6426768e-09 0)
(0.0035427853 1.0961569e-08 0)
(0.0035430031 -1.2170572e-08 0)
(0.0035428607 1.3263436e-08 0)
(0.0035429448 -1.4254434e-08 0)
(0.0035429041 1.5140566e-08 0)
(0.0035429156 -1.5934285e-08 0)
(0.003542921 1.6634302e-08 0)
(0.0035429103 -1.7248593e-08 0)
(0.0035429157 1.7774689e-08 0)
(0.0035429218 -1.8236784e-08 0)
(0.0035428922 1.858645e-08 0)
(0.0035429566 -1.8901481e-08 0)
(0.0035429084 1.9293948e-08 0)
(0.0035431546 -1.8845203e-08 0)
(0.003543194 2.1202746e-08 0)
(0.0066672518 0.0014835317 0)
(0.016754593 3.0219591e-06 0)
(0.0099215458 3.3708731e-05 0)
(0.011058539 -5.24214e-06 0)
(0.010457587 3.9771751e-06 0)
(0.010398187 -1.8414204e-07 0)
(0.010385981 1.0133458e-06 0)
(0.010284943 -9.3939657e-08 0)
(0.010320778 4.2411486e-07 0)
(0.010273663 -2.4129334e-07 0)
(0.010301054 3.1788267e-07 0)
(0.010271026 -2.710156e-07 0)
(0.010299422 2.5375254e-07 0)
(0.010271138 -2.1864015e-07 0)
(0.010297193 1.9443519e-07 0)
(0.010273554 -1.7224404e-07 0)
(0.010294736 1.5268614e-07 0)
(0.010275849 -1.3431655e-07 0)
(0.010292583 1.1749379e-07 0)
(0.010277807 -1.0157566e-07 0)
(0.010290773 8.6825906e-08 0)
(0.010279454 -7.2985216e-08 0)
(0.010289266 6.0117533e-08 0)
(0.010280822 -4.8034741e-08 0)
(0.010288021 3.6807241e-08 0)
(0.010281946 -2.6373092e-08 0)
(0.010287009 1.6648962e-08 0)
(0.010282853 -7.5774875e-09 0)
(0.010286206 -6.6885164e-10 0)
(0.010283558 8.2230472e-09 0)
(0.010285593 -1.5318514e-08 0)
(0.010284088 2.2002876e-08 0)
(0.01028513 -2.8234979e-08 0)
(0.010284493 3.3795779e-08 0)
(0.010284798 -3.8851447e-08 0)
(0.010284756 4.349738e-08 0)
(0.010284595 -4.7735624e-08 0)
(0.010284906 5.1565344e-08 0)
(0.010284494 -5.5023901e-08 0)
(0.010284962 5.8117334e-08 0)
(0.010284479 -6.0873178e-08 0)
(0.01028494 6.3295943e-08 0)
(0.010284534 -6.5403249e-08 0)
(0.010284854 6.7254295e-08 0)
(0.01028464 -6.8721795e-08 0)
(0.010284711 6.9940926e-08 0)
(0.010284794 -7.1555158e-08 0)
(0.010284627 6.9823277e-08 0)
(0.010285329 -7.6464623e-08 0)
(0.010285329 7.3026571e-08 0)
(0.012848017 0.0028450233 0)
(0.025843882 -2.2130592e-05 0)
(0.016437281 7.4209151e-05 0)
(0.018061591 -9.2900898e-06 0)
(0.017120978 9.5355715e-06 0)
(0.017020591 -3.5137805e-08 0)
(0.017012523 2.2557718e-06 0)
(0.016850456 7.4571915e-08 0)
(0.016910547 8.2357224e-07 0)
(0.016835492 -3.7988662e-07 0)
(0.016879734 6.0713306e-07 0)
(0.016831067 -5.0360917e-07 0)
(0.016877586 4.7332025e-07 0)
(0.016831553 -3.9974946e-07 0)
(0.016873792 3.5351666e-07 0)
(0.016835701 -3.1228339e-07 0)
(0.016869667 2.7634621e-07 0)
(0.016839554 -2.4265357e-07 0)
(0.016866071 2.1194135e-07 0)
(0.016842826 -1.8279711e-07 0)
(0.016863055 1.5588595e-07 0)
(0.016845566 -1.3056302e-07 0)
(0.016860555 1.0700755e-07 0)
(0.016847836 -8.4926695e-08 0)
(0.016858494 6.4571612e-08 0)
(0.016849689 -4.560092e-08 0)
(0.016856842 2.7863821e-08 0)
(0.016851151 -1.145869e-08 0)
(0.016855555 -3.6298618e-09 0)
(0.016852288 1.770804e-08 0)
(0.016854559 -3.0882951e-08 0)
(0.016853147 4.3131688e-08 0)
(0.016853826 -5.431845e-08 0)
(0.016853762 6.4320624e-08 0)
(0.016853333 -7.3515787e-08 0)
(0.016854143 8.1967778e-08 0)
(0.016853051 -8.9673307e-08 0)
(0.016854334 9.6630706e-08 0)
(0.016852943 -1.02908e-07 0)
(0.016854366 1.0851743e-07 0)
(0.016852981 -1.1351164e-07 0)
(0.016854265 1.1789839e-07 0)
(0.016853139 -1.2170932e-07 0)
(0.016854056 1.2506821e-07 0)
(0.016853382 -1.2763124e-07 0)
(0.016853749 1.2993352e-07 0)
(0.016853698 -1.3286823e-07 0)
(0.016853498 1.2835751e-07 0)
(0.016854574 -1.451195e-07 0)
(0.016854517 1.367367e-07 0)
(0.015471761 0.0031841191 0)
(0.034134798 -8.5455538e-05 0)
(0.022733128 0.0001288143 0)
(0.024883916 -1.4430276e-05 0)
(0.023589909 1.7559992e-05 0)
(0.02345624 2.8315465e-07 0)
(0.023458429 3.8501876e-06 0)
(0.023240028 4.5524224e-07 0)
(0.023325855 1.2461951e-06 0)
(0.023224037 -4.5617562e-07 0)
(0.023285204 9.1325041e-07 0)
(0.023218084 -7.3882457e-07 0)
(0.023282777 6.9436934e-07 0)
(0.023219211 -5.7462447e-07 0)
(0.023277324 5.0475829e-07 0)
(0.023225222 -4.4465614e-07 0)
(0.023271457 3.9269659e-07 0)
(0.023230699 -3.4409407e-07 0)
(0.023266364 3.000273e-07 0)
(0.023235333 -2.5807318e-07 0)
(0.0232621 2.1941483e-07 0)
(0.023239203 -1.829338e-07 0)
(0.02325857 1.4915008e-07 0)
(0.023242406 -1.1767662e-07 0)
(0.023255678 8.8523697e-08 0)
(0.023244981 -6.1087018e-08 0)
(0.023253401 3.5626691e-08 0)
(0.023246994 -1.2123343e-08 0)
(0.023251615 -9.8572987e-09 0)
(0.023248575 3.0140986e-08 0)
(0.023250245 -4.8749889e-08 0)
(0.023249741 6.6113294e-08 0)
(0.023249265 -8.2111387e-08 0)
(0.023250543 9.6468039e-08 0)
(0.023248636 -1.0962753e-07 0)
(0.023251017 1.2170983e-07 0)
(0.023248304 -1.3271205e-07 0)
(0.023251218 1.4264613e-07 0)
(0.023248223 -1.5160269e-07 0)
(0.023251189 1.5960958e-07 0)
(0.023248351 -1.6672714e-07 0)
(0.023250971 1.7296825e-07 0)
(0.023248651 -1.7838877e-07 0)
(0.023250598 1.8319977e-07 0)
(0.023249076 -1.8672471e-07 0)
(0.023250084 1.901459e-07 0)
(0.023249596 -1.9435311e-07 0)
(0.023249606 1.8614289e-07 0)
(0.023250815 -2.1705358e-07 0)
(0.023250816 2.0204208e-07 0)
(0.02085479 0.0043533979 0)
(0.042049397 -9.792862e-05 0)
(0.028763185 0.00019123033 0)
(0.031529902 -2.1962427e-05 0)
(0.02986411 2.8132755e-05 0)
(0.029706302 7.3446485e-07 0)
(0.029722295 5.7153759e-06 0)
(0.029454576 1.0095073e-06 0)
(0.029566651 1.6651164e-06 0)
(0.02943935 -4.6988497e-07 0)
(0.029517445 1.2246376e-06 0)
(0.029432182 -9.6950356e-07 0)
(0.029514886 9.0771135e-07 0)
(0.029434208 -7.3613477e-07 0)
(0.029507691 6.4146295e-07 0)
(0.029442198 -5.6366939e-07 0)
(0.029500022 4.9666903e-07 0)
(0.029449358 -4.3423501e-07 0)
(0.029493384 3.7787646e-07 0)
(0.029455398 -3.2399834e-07 0)
(0.029487836 2.7447383e-07 0)
(0.029460432 -2.2790757e-07 0)
(0.029483246 1.8499389e-07 0)
(0.02946458 -1.4456636e-07 0)
(0.029479538 1.0689192e-07 0)
(0.029467857 -7.1930349e-08 0)
(0.029476633 3.961145e-08 0)
(0.029470444 -9.3458891e-09 0)
(0.029474335 -1.8798474e-08 0)
(0.029472457 4.4575403e-08 0)
(0.029472612 -6.831871e-08 0)
(0.029473909 9.0424979e-08 0)
(0.02947141 -1.1075352e-07 0)
(0.029474873 1.2905359e-07 0)
(0.02947067 -1.45828e-07 0)
(0.02947541 1.6120749e-07 0)
(0.02947032 -1.7520275e-07 0)
(0.029475587 1.8783292e-07 0)
(0.029470301 -1.9920943e-07 0)
(0.029475461 2.0937456e-07 0)
(0.029470558 -2.1840425e-07 0)
(0.029475085 2.263198e-07 0)
(0.029471042 -2.3319159e-07 0)
(0.029474506 2.3931333e-07 0)
(0.029471691 -2.4362399e-07 0)
(0.029473742 2.4818433e-07 0)
(0.02947246 -2.534791e-07 0)
(0.029472984 2.4105919e-07 0)
(0.029474034 -2.8904962e-07 0)
(0.029474257 2.6581582e-07 0)
(0.025061053 0.0050363552 0)
(0.049036664 -0.0001815061 0)
(0.034608801 0.00026348109 0)
(0.037996663 -3.1042742e-05 0)
(0.035938854 4.1091448e-05 0)
(0.035770959 1.1600533e-06 0)
(0.03580231 7.7418958e-06 0)
(0.035495601 1.6848108e-06 0)
(0.035632746 2.075263e-06 0)
(0.035481677 -4.3159508e-07 0)
(0.035576356 1.5411322e-06 0)
(0.035473588 -1.197914e-06 0)
(0.035573729 1.1130889e-06 0)
(0.035476732 -8.850526e-07 0)
(0.03556473 7.6421858e-07 0)
(0.035486783 -6.7012098e-07 0)
(0.035555223 5.8898503e-07 0)
(0.03549566 -5.1370767e-07 0)
(0.035547013 4.4597937e-07 0)
(0.035503132 -3.8102415e-07 0)
(0.035540158 3.2192054e-07 0)
(0.035509345 -2.6630006e-07 0)
(0.035534517 2.1419322e-07 0)
(0.035514395 -1.6521063e-07 0)
(0.035530031 1.2054361e-07 0)
(0.035518384 -7.9004238e-08 0)
(0.035526468 4.0024965e-08 0)
(0.035521552 -3.4439928e-09 0)
(0.035523681 -3.026309e-08 0)
(0.035523963 6.1087175e-08 0)
(0.035521635 -8.9517389e-08 0)
(0.035525671 1.1593383e-07 0)
(0.035520243 -1.4016805e-07 0)
(0.035526765 1.6203183e-07 0)
(0.035519425 -1.8208009e-07 0)
(0.03552733 2.0043321e-07 0)
(0.035519095 -2.1712062e-07 0)
(0.035527445 2.3217383e-07 0)
(0.035519177 -2.4572712e-07 0)
(0.035527181 2.5783797e-07 0)
(0.035519605 -2.6858018e-07 0)
(0.035526605 2.7797731e-07 0)
(0.035520316 -2.8614041e-07 0)
(0.035525776 2.9345107e-07 0)
(0.035521236 -2.9837757e-07 0)
(0.035524716 3.0406704e-07 0)
(0.035522299 -3.1024134e-07 0)
(0.035523629 2.9322082e-07 0)
(0.035524248 -3.6056067e-07 0)
(0.035524838 3.2727333e-07 0)
(0.029297835 0.0055469057 0)
(0.055623693 -0.00021573775 0)
(0.040292067 0.00033061418 0)
(0.04422664 -3.8141995e-05 0)
(0.041823493 5.7598404e-05 0)
(0.041654963 1.7195181e-06 0)
(0.041699771 9.9256932e-06 0)
(0.041363912 2.4332232e-06 0)
(0.04152391 2.4760876e-06 0)
(0.041351223 -3.5276695e-07 0)
(0.041461824 1.8624022e-06 0)
(0.041342527 -1.4258647e-06 0)
(0.041459127 1.310945e-06 0)
(0.041346961 -1.0225218e-06 0)
(0.041448286 8.7385514e-07 0)
(0.041359119 -7.649824e-07 0)
(0.04143693 6.7045071e-07 0)
(0.041369725 -5.8317423e-07 0)
(0.041427138 5.0499573e-07 0)
(0.041378636 -4.303367e-07 0)
(0.041418983 3.6257432e-07 0)
(0.041385995 -2.9727668e-07 0)
(0.041412357 2.3685712e-07 0)
(0.041391901 -1.8147344e-07 0)
(0.041407078 1.3041016e-07 0)
(0.041396628 -8.2070502e-08 0)
(0.041402865 3.6721839e-08 0)
(0.041400344 5.3816452e-09 0)
(0.04139963 -4.4118036e-08 0)
(0.041403115 7.9546819e-08 0)
(0.041397298 -1.1221011e-07 0)
(0.041405041 1.4250354e-07 0)
(0.041395754 -1.7025813e-07 0)
(0.041406226 1.9534504e-07 0)
(0.041394899 -2.1835061e-07 0)
(0.041406777 2.3938311e-07 0)
(0.04139463 -2.584954e-07 0)
(0.041406787 2.7572369e-07 0)
(0.041394859 -2.9121993e-07 0)
(0.04140634 3.0505714e-07 0)
(0.041395502 -3.1731903e-07 0)
(0.041405518 3.2803969e-07 0)
(0.041396486 -3.3735232e-07 0)
(0.041404392 3.457062e-07 0)
(0.041397723 -3.5109404e-07 0)
(0.041402992 3.5792817e-07 0)
(0.041399127 -3.647441e-07 0)
(0.041401526 3.4289369e-07 0)
(0.041401477 -4.3122925e-07 0)
(0.041402551 3.8598806e-07 0)
(0.03373908 0.0062502098 0)
(0.061083677 -0.0002992054 0)
(0.045938742 0.00039165321 0)
(0.05001937 -4.7903415e-05 0)
(0.047486599 7.4700178e-05 0)
(0.047351679 1.8549243e-06 0)
(0.047414073 1.2121688e-05 0)
(0.04705889 3.1834683e-06 0)
(0.047239973 2.8683168e-06 0)
(0.047048071 -2.4377076e-07 0)
(0.047173749 2.1864001e-06 0)
(0.047039194 -1.6536029e-06 0)
(0.047170932 1.5002649e-06 0)
(0.047045042 -1.1484566e-06 0)
(0.047158233 9.7038434e-07 0)
(0.047059323 -8.4839007e-07 0)
(0.047145036 7.4108868e-07 0)
(0.047071655 -6.4287204e-07 0)
(0.04713367 5.5579157e-07 0)
(0.047081978 -4.7210988e-07 0)
(0.047124282 3.9485965e-07 0)
(0.047090398 -3.2147608e-07 0)
(0.047116711 2.554371e-07 0)
(0.047097182 -1.9361885e-07 0)
(0.047110616 1.3553571e-07 0)
(0.047102623 -8.0886529e-08 0)
(0.047105803 3.0153819e-08 0)
(0.047106837 1.688845e-08 0)
(0.047102167 -6.0119127e-08 0)
(0.047109924 9.9676635e-08 0)
(0.047099591 -1.3613631e-07 0)
(0.047112023 1.6988989e-07 0)
(0.047097942 -2.00806e-07 0)
(0.047113255 2.2878656e-07 0)
(0.047097095 -2.54427e-07 0)
(0.047113745 2.7783746e-07 0)
(0.047096934 -2.9909352e-07 0)
(0.047113602 3.1824244e-07 0)
(0.047097356 -3.3545862e-07 0)
(0.047112927 3.508303e-07 0)
(0.047098262 -3.6442789e-07 0)
(0.047111811 3.762886e-07 0)
(0.047099566 -3.866027e-07 0)
(0.047110343 3.9588473e-07 0)
(0.047101167 -4.0159027e-07 0)
(0.047108556 4.0954686e-07 0)
(0.047102959 -4.1676307e-07 0)
(0.047106662 3.9001035e-07 0)
(0.04710574 -5.0042242e-07 0)
(0.047107389 4.4140922e-07 0)
(0.038492374 0.0067830081 0)
(0.065873042 -0.00037484341 0)
(0.051726753 0.00047280485 0)
(0.055262349 -5.691843e-05 0)
(0.052927867 9.1449216e-05 0)
(0.052863268 1.6543755e-06 0)
(0.052947486 1.4325856e-05 0)
(0.052580599 3.9144451e-06 0)
(0.052780966 3.248365e-06 0)
(0.05257231 -1.1341489e-07 0)
(0.05271207 2.5102168e-06 0)
(0.052563768 -1.8802528e-06 0)
(0.052709032 1.6808112e-06 0)
(0.052571093 -1.2628839e-06 0)
(0.052694478 1.0536594e-06 0)
(0.052587487 -9.2025415e-07 0)
(0.052679456 8.0111867e-07 0)
(0.052601523 -6.9362922e-07 0)
(0.052666569 5.9809165e-07 0)
(0.052613155 -5.0464691e-07 0)
(0.052656043 4.202114e-07 0)
(0.052622618 -3.4162398e-07 0)
(0.052647495 2.6911425e-07 0)
(0.052630293 -2.0003639e-07 0)
(0.052640626 1.3600673e-07 0)
(0.052636384 -7.6148411e-08 0)
(0.05263527 2.0658488e-08 0)
(0.05264104 3.0735059e-08 0)
(0.052631285 -7.7938568e-08 0)
(0.052644394 1.2117901e-07 0)
(0.052628516 -1.6100217e-07 0)
(0.052646616 1.9780588e-07 0)
(0.052626809 -2.315023e-07 0)
(0.052647846 2.6202701e-07 0)
(0.05262602 -2.8998015e-07 0)
(0.052648226 3.1547557e-07 0)
(0.052626016 -3.3861066e-07 0)
(0.052647883 3.5943449e-07 0)
(0.052626679 -3.7813665e-07 0)
(0.052646929 3.9482091e-07 0)
(0.052627896 -4.0956173e-07 0)
(0.052645473 4.2241166e-07 0)
(0.052629567 -4.3359046e-07 0)
(0.052643614 4.4364635e-07 0)
(0.05263158 -4.4953745e-07 0)
(0.052641395 4.5862122e-07 0)
(0.052633807 -4.6598789e-07 0)
(0.052639028 4.3436552e-07 0)
(0.052637049 -5.6742648e-07 0)
(0.052639348 4.9297976e-07 0)
(0.042731438 0.0072201894 0)
(0.069823427 -0.00048493405 0)
(0.057401186 0.00054690275 0)
(0.060065578 -6.4353943e-05 0)
(0.058171734 0.00010516199 0)
(0.058186901 8.1679675e-07 0)
(0.05830062 1.6424939e-05 0)
(0.057928338 4.5695048e-06 0)
(0.05814692 3.6066274e-06 0)
(0.057923947 2.8880896e-08 0)
(0.058076721 2.8300918e-06 0)
(0.057916403 -2.1052103e-06 0)
(0.05807333 1.8517976e-06 0)
(0.057925209 -1.3657983e-06 0)
(0.058056947 1.1235769e-06 0)
(0.057943685 -9.8103421e-07 0)
(0.058040135 8.5149323e-07 0)
(0.057959343 -7.3479254e-07 0)
(0.058025858 6.305395e-07 0)
(0.057972187 -5.3025603e-07 0)
(0.058014186 4.4121004e-07 0)
(0.057982733 -3.5576697e-07 0)
(0.058004671 2.7621746e-07 0)
(0.057991239 -2.0164452e-07 0)
(0.057997101 1.3272038e-07 0)
(0.057997914 -6.8281172e-08 0)
(0.057991264 8.5826917e-09 0)
(0.058002953 4.66052e-08 0)
(0.057986986 -9.7272907e-08 0)
(0.05800652 1.4372515e-07 0)
(0.057984077 -1.8646865e-07 0)
(0.058008812 2.2591362e-07 0)
(0.057982366 -2.6203229e-07 0)
(0.058009987 2.9476205e-07 0)
(0.057981686 -3.2470069e-07 0)
(0.058010207 3.5197781e-07 0)
(0.05798189 -3.767085e-07 0)
(0.058009612 3.9895179e-07 0)
(0.057982844 -4.1891962e-07 0)
(0.058008332 4.3673e-07 0)
(0.057984419 -4.524328e-07 0)
(0.058006488 4.6608798e-07 0)
(0.057986504 -4.7798561e-07 0)
(0.058004194 4.8870209e-07 0)
(0.057988975 -4.9465754e-07 0)
(0.058001499 5.0482141e-07 0)
(0.057991683 -5.1209979e-07 0)
(0.057998612 4.7573898e-07 0)
(0.057995418 -6.31565e-07 0)
(0.057998426 5.4029284e-07 0)
(0.047559486 0.0076311705 0)
(0.073536248 -0.00054574661 0)
(0.062687272 0.00058974059 0)
(0.064562163 -7.2276413e-05 0)
(0.063238513 0.00011488628 0)
(0.063316447 -7.2018701e-07 0)
(0.063474345 1.8315739e-05 0)
(0.063102339 5.1345168e-06 0)
(0.063338049 3.936717e-06 0)
(0.063103023 1.7646103e-07 0)
(0.063267662 3.140842e-06 0)
(0.063097242 -2.3272931e-06 0)
(0.063263769 2.0137902e-06 0)
(0.063107469 -1.4570525e-06 0)
(0.063245587 1.1809638e-06 0)
(0.06312796 -1.0316534e-06 0)
(0.063227081 8.9136796e-07 0)
(0.063145076 -7.6575301e-07 0)
(0.063211508 6.5616996e-07 0)
(0.063159174 -5.5088127e-07 0)
(0.063198646 4.5513268e-07 0)
(0.063170757 -3.6281625e-07 0)
(0.063188245 2.7843514e-07 0)
(0.063180015 -1.9922689e-07 0)
(0.063180046 1.2604618e-07 0)
(0.063187208 -5.759204e-08 0)
(0.063173792 -5.7046336e-09 0)
(0.063192569 6.4113846e-08 0)
(0.063169281 -1.1775113e-07 0)
(0.063196291 1.6697456e-07 0)
(0.063166289 -2.1220463e-07 0)
(0.063198595 2.53889e-07 0)
(0.063164628 -2.9205168e-07 0)
(0.063199663 3.2663614e-07 0)
(0.06316411 -3.5824445e-07 0)
(0.063199671 3.8701859e-07 0)
(0.063164573 -4.130893e-07 0)
(0.063198775 4.3651479e-07 0)
(0.063165866 -4.5752023e-07 0)
(0.06319712 4.762377e-07 0)
(0.063167847 -4.9271552e-07 0)
(0.063194842 5.0703645e-07 0)
(0.063170392 -5.1952395e-07 0)
(0.063192066 5.3074364e-07 0)
(0.063173365 -5.3665534e-07 0)
(0.063188853 5.4788659e-07 0)
(0.063176598 -5.5484169e-07 0)
(0.063185406 5.13933e-07 0)
(0.063180858 -6.9223263e-07 0)
(0.063184619 5.8300138e-07 0)
(0.052110318 0.00808916 0)
(0.076573165 -0.00066282956 0)
(0.067737711 0.00064818669 0)
(0.068908769 -7.352346e-05 0)
(0.068159665 0.00012162792 0)
(0.068250912 -2.8947637e-06 0)
(0.068469896 1.9839064e-05 0)
(0.068102679 5.5716815e-06 0)
(0.068354489 4.2322125e-06 0)
(0.068109603 3.2154396e-07 0)
(0.068284827 3.4370777e-06 0)
(0.068106408 -2.5443184e-06 0)
(0.068280308 2.1657382e-06 0)
(0.068117929 -1.5379256e-06 0)
(0.068260379 1.2267066e-06 0)
(0.068140276 -1.0709587e-06 0)
(0.068240343 9.2075349e-07 0)
(0.068158773 -7.8997404e-07 0)
(0.068223403 6.7591077e-07 0)
(0.068174163 -5.6340189e-07 0)
(0.068209428 4.616378e-07 0)
(0.06818668 -3.648149e-07 0)
(0.068198228 2.7637729e-07 0)
(0.06819661 -1.9318391e-07 0)
(0.068189473 1.1636543e-07 0)
(0.068204252 -4.4514174e-08 0)
(0.068182871 -2.179161e-08 0)
(0.068209869 8.2905918e-08 0)
(0.068178187 -1.3902956e-07 0)
(0.068213687 1.9055437e-07 0)
(0.068175172 -2.3783569e-07 0)
(0.068215947 2.813701e-07 0)
(0.068173616 -3.2123221e-07 0)
(0.068216852 3.5734305e-07 0)
(0.068173314 -3.9030653e-07 0)
(0.068216595 4.2028604e-07 0)
(0.068174087 -4.4742366e-07 0)
(0.068215349 4.7178634e-07 0)
(0.068175767 -4.9362211e-07 0)
(0.068213273 5.1307493e-07 0)
(0.0681782 -5.3015791e-07 0)
(0.068210516 5.4496842e-07 0)
(0.068181248 -5.5790815e-07 0)
(0.068207217 5.6952689e-07 0)
(0.068184764 -5.7529972e-07 0)
(0.068203446 5.8752482e-07 0)
(0.068188564 -5.9394526e-07 0)
(0.0681994 5.4875051e-07 0)
(0.068193377 -7.4886382e-07 0)
(0.068197926 6.2089006e-07 0)
(0.057060669 0.0082313751 0)
(0.07942648 -0.00075557482 0)
(0.072573861 0.0006896299 0)
(0.073103214 -7.6789062e-05 0)
(0.072928006 0.00012463848 0)
(0.072995206 -5.5596097e-06 0)
(0.073289277 2.0872484e-05 0)
(0.072929793 5.8672617e-06 0)
(0.073196191 4.489603e-06 0)
(0.072943954 4.5598482e-07 0)
(0.073128111 3.7189053e-06 0)
(0.072944003 -2.7591118e-06 0)
(0.073122938 2.3094634e-06 0)
(0.072956626 -1.6101149e-06 0)
(0.073101388 1.2603897e-06 0)
(0.072980587 -1.0994653e-06 0)
(0.073079846 9.4340411e-07 0)
(0.073000556 -8.0710083e-07 0)
(0.073061515 6.8663768e-07 0)
(0.073017125 -5.6825454e-07 0)
(0.073046554 4.629244e-07 0)
(0.073030481 -3.6233693e-07 0)
(0.073034642 2.7041339e-07 0)
(0.073041003 -1.8386565e-07 0)
(0.073025406 1.040623e-07 0)
(0.073049023 -2.9454489e-08 0)
(0.073018523 -3.9282119e-08 0)
(0.073054829 1.0256145e-07 0)
(0.073013731 -1.6069984e-07 0)
(0.073058681 2.1410062e-07 0)
(0.073010752 -2.6302058e-07 0)
(0.07306084 3.0802425e-07 0)
(0.073009357 -3.4922054e-07 0)
(0.073061528 3.8652132e-07 0)
(0.073009324 -4.2054263e-07 0)
(0.073060956 4.5146107e-07 0)
(0.073010455 -4.794285e-07 0)
(0.073059312 5.0450841e-07 0)
(0.073012569 -5.2696057e-07 0)
(0.07305677 5.4694014e-07 0)
(0.073015496 -5.6445386e-07 0)
(0.073053491 5.7963148e-07 0)
(0.073019088 -5.9290695e-07 0)
(0.073049629 6.0477166e-07 0)
(0.073023187 -6.1032395e-07 0)
(0.073045264 6.235123e-07 0)
(0.073027592 -6.2920101e-07 0)
(0.073040583 5.8001766e-07 0)
(0.073032988 -8.0095496e-07 0)
(0.073038346 6.5375805e-07 0)
(0.062262693 0.0087460377 0)
(0.081920508 -0.00084697412 0)
(0.077287013 0.0007301272 0)
(0.077157352 -7.8223674e-05 0)
(0.077537079 0.0001241712 0)
(0.077564131 -8.3974359e-06 0)
(0.077935444 2.1376725e-05 0)
(0.077584271 6.0274858e-06 0)
(0.077863101 4.6931967e-06 0)
(0.077606526 5.7824402e-07 0)
(0.077797388 3.9834575e-06 0)
(0.077610125 -2.981503e-06 0)
(0.077791675 2.4543514e-06 0)
(0.077623516 -1.6681164e-06 0)
(0.07776863 1.2837092e-06 0)
(0.077648968 -1.1205297e-06 0)
(0.077745471 9.5784684e-07 0)
(0.077670424 -8.1438204e-07 0)
(0.077725895 6.8958744e-07 0)
(0.077688028 -5.6766892e-07 0)
(0.077710053 4.5951254e-07 0)
(0.077702131 -3.5565088e-07 0)
(0.077697515 2.6095795e-07 0)
(0.077713166 -1.7178324e-07 0)
(0.077687873 8.9653369e-08 0)
(0.077721489 -1.2873551e-08 0)
(0.077680779 -5.7743623e-08 0)
(0.07772742 1.2270868e-07 0)
(0.077675943 -1.8240249e-07 0)
(0.077731244 2.3722772e-07 0)
(0.077673059 -2.8737628e-07 0)
(0.077733243 3.3348564e-07 0)
(0.077671882 -3.7569261e-07 0)
(0.077733662 4.1387687e-07 0)
(0.077672167 -4.4866287e-07 0)
(0.077732725 4.8024777e-07 0)
(0.077673704 -5.0878949e-07 0)
(0.077730637 5.343587e-07 0)
(0.077676295 -5.5723885e-07 0)
(0.077727588 5.7759351e-07 0)
(0.077679758 -5.9538465e-07 0)
(0.077723749 6.1076613e-07 0)
(0.077683932 -6.2425147e-07 0)
(0.077719287 6.3627241e-07 0)
(0.077688649 -6.4153631e-07 0)
(0.077714293 6.5558922e-07 0)
(0.077693694 -6.603811e-07 0)
(0.077708948 6.0755994e-07 0)
(0.077699697 -8.4803924e-07 0)
(0.077705877 6.8153047e-07 0)
(0.067611715 0.0087779566 0)
(0.084351509 -0.00094841544 0)
(0.081863241 0.00074931043 0)
(0.081059689 -8.0888709e-05 0)
(0.081979835 0.00012049922 0)
(0.081969188 -1.1391307e-05 0)
(0.082410565 2.1377665e-05 0)
(0.082066557 6.0724813e-06 0)
(0.082355736 4.8413349e-06 0)
(0.082097378 6.8880987e-07 0)
(0.082292724 4.2133821e-06 0)
(0.082104759 -3.1872108e-06 0)
(0.082286426 2.5902718e-06 0)
(0.082118526 -1.7153225e-06 0)
(0.082261948 1.300154e-06 0)
(0.082145523 -1.1323704e-06 0)
(0.082237254 9.6165622e-07 0)
(0.082168307 -8.1392009e-07 0)
(0.082216593 6.8686514e-07 0)
(0.08218683 -5.6212707e-07 0)
(0.082199965 4.5167579e-07 0)
(0.082201591 -3.4531059e-07 0)
(0.082186884 2.4855994e-07 0)
(0.082213058 -1.5737962e-07 0)
(0.082176913 7.3546174e-08 0)
(0.082221614 4.8138852e-09 0)
(0.082169678 -7.6779889e-08 0)
(0.082227601 1.4292072e-07 0)
(0.08216486 -2.0372482e-07 0)
(0.082231337 2.5957846e-07 0)
(0.082162131 -3.1057505e-07 0)
(0.082233122 3.5743428e-07 0)
(0.082161223 -4.0030826e-07 0)
(0.08223322 4.3906325e-07 0)
(0.082161877 -4.7434187e-07 0)
(0.082231871 5.0635128e-07 0)
(0.082163864 -5.3525451e-07 0)
(0.082229298 5.6111587e-07 0)
(0.082166973 -5.8422937e-07 0)
(0.082225702 6.0476574e-07 0)
(0.082171009 -6.2267685e-07 0)
(0.082221267 6.3816003e-07 0)
(0.082175798 -6.5175396e-07 0)
(0.082216172 6.6378772e-07 0)
(0.082181165 -6.6870771e-07 0)
(0.08221052 6.8357796e-07 0)
(0.082186881 -6.873294e-07 0)
(0.082204484 6.3124001e-07 0)
(0.082193514 -8.8971894e-07 0)
(0.08220052 7.041214e-07 0)
(0.072567825 0.0090368192 0)
(0.086562904 -0.0010245078 0)
(0.086345166 0.00077204541 0)
(0.084837749 -8.0748362e-05 0)
(0.086255888 0.00011357281 0)
(0.086215446 -1.459552e-05 0)
(0.086715385 2.0926713e-05 0)
(0.086376824 6.0153835e-06 0)
(0.086674857 4.9378264e-06 0)
(0.086416161 7.831238e-07 0)
(0.086614536 4.408961e-06 0)
(0.086427472 -3.3711999e-06 0)
(0.08660712 2.7196945e-06 0)
(0.086441698 -1.7600915e-06 0)
(0.086581307 1.3067208e-06 0)
(0.086470222 -1.133576e-06 0)
(0.086555287 9.5746289e-07 0)
(0.086494147 -8.0748601e-07 0)
(0.086533659 6.7893421e-07 0)
(0.086513485 -5.5192808e-07 0)
(0.086516335 4.3997823e-07 0)
(0.086528818 -3.3179814e-07 0)
(0.086502794 2.3369441e-07 0)
(0.086540638 -1.4119801e-07 0)
(0.08649257 5.6251879e-08 0)
(0.086549352 2.3156732e-08 0)
(0.086485263 -9.5957735e-08 0)
(0.086555332 1.6283494e-07 0)
(0.086480525 -2.2431983e-07 0)
(0.08655892 2.8078022e-07 0)
(0.086478006 -3.3224805e-07 0)
(0.086560437 3.7952371e-07 0)
(0.086477419 -4.2277044e-07 0)
(0.086560166 4.6181934e-07 0)
(0.086478486 -4.973246e-07 0)
(0.086558363 5.2951091e-07 0)
(0.086480964 -5.5854295e-07 0)
(0.086555265 5.8449027e-07 0)
(0.086484629 -6.0767164e-07 0)
(0.086551087 6.2826177e-07 0)
(0.08648927 -6.4615963e-07 0)
(0.086546024 6.6159763e-07 0)
(0.086494706 -6.7518838e-07 0)
(0.086540268 6.8716338e-07 0)
(0.086500751 -6.9169791e-07 0)
(0.086533932 7.0726444e-07 0)
(0.086507165 -7.0986781e-07 0)
(0.086527183 6.5092016e-07 0)
(0.086514445 -9.2563446e-07 0)
(0.086522273 7.2157044e-07 0)
(0.078498211 0.0092340742 0)
(0.088831312 -0.0011052987 0)
(0.090641041 0.00077452076 0)
(0.088530712 -8.1458073e-05 0)
(0.090372079 0.00010386238 0)
(0.090303031 -1.8008564e-05 0)
(0.090850097 2.0103013e-05 0)
(0.090515214 5.8761934e-06 0)
(0.090820937 4.9845739e-06 0)
(0.090562554 8.558552e-07 0)
(0.090763036 4.598146e-06 0)
(0.090577942 -3.567899e-06 0)
(0.090753823 2.8528756e-06 0)
(0.090593077 -1.7968804e-06 0)
(0.09072684 1.3021138e-06 0)
(0.090622965 -1.1270437e-06 0)
(0.090699644 9.4707866e-07 0)
(0.090647881 -7.9548696e-07 0)
(0.090677149 6.6619483e-07 0)
(0.090667939 -5.3762618e-07 0)
(0.090659219 4.2496482e-07 0)
(0.090683757 -3.1570635e-07 0)
(0.090645298 2.1689473e-07 0)
(0.090695852 -1.236281e-07 0)
(0.090634896 3.815979e-08 0)
(0.090704654 4.1745841e-08 0)
(0.090627583 -1.1490186e-07 0)
(0.090710564 1.820413e-07 0)
(0.090622985 -2.4379648e-07 0)
(0.090713948 3.0050596e-07 0)
(0.090620728 -3.5210092e-07 0)
(0.090715148 3.9946722e-07 0)
(0.090620509 -4.4277248e-07 0)
(0.090714463 4.8183259e-07 0)
(0.090622032 -5.1732224e-07 0)
(0.090712166 5.4947243e-07 0)
(0.090625039 -5.7844879e-07 0)
(0.090708508 6.0431157e-07 0)
(0.090629292 -6.27389e-07 0)
(0.090703717 6.4785805e-07 0)
(0.090634569 -6.6560515e-07 0)
(0.090697999 6.8091784e-07 0)
(0.090640676 -6.9442101e-07 0)
(0.090691556 7.0620748e-07 0)
(0.090647422 -7.1032522e-07 0)
(0.090684516 7.265268e-07 0)
(0.090654556 -7.2790028e-07 0)
(0.090677035 6.665115e-07 0)
(0.090662498 -9.5549907e-07 0)
(0.090671138 7.3388149e-07 0)
(0.082670426 0.0091500412 0)
(0.090851634 -0.0012006818 0)
(0.094728392 0.00077579914 0)
(0.092203844 -7.878136e-05 0)
(0.094341363 9.2350801e-05 0)
(0.094232764 -2.1411986e-05 0)
(0.094815201 1.9023776e-05 0)
(0.094481836 5.6797209e-06 0)
(0.094794209 4.9842707e-06 0)
(0.094536375 9.1459751e-07 0)
(0.094738137 4.7708153e-06 0)
(0.094556308 -3.7618842e-06 0)
(0.09472659 2.9768209e-06 0)
(0.094572607 -1.8236434e-06 0)
(0.094698648 1.2902852e-06 0)
(0.09460366 -1.1138118e-06 0)
(0.094670391 9.3104278e-07 0)
(0.094629446 -7.7832974e-07 0)
(0.094647123 6.4919843e-07 0)
(0.09465013 -5.1980369e-07 0)
(0.094628674 4.07201e-07 0)
(0.09466635 -2.9745882e-07 0)
(0.094614454 1.9859762e-07 0)
(0.094678643 -1.0522544e-07 0)
(0.094603945 1.9765295e-08 0)
(0.094687466 6.0163752e-08 0)
(0.09459669 -1.332025e-07 0)
(0.094693247 2.0020887e-07 0)
(0.094592287 -2.618424e-07 0)
(0.094696374 3.1841655e-07 0)
(0.094590344 -3.6979886e-07 0)
(0.094697209 4.1695745e-07 0)
(0.094590536 -4.6006224e-07 0)
(0.094696069 4.9889065e-07 0)
(0.094592553 -5.3412971e-07 0)
(0.094693243 5.6602477e-07 0)
(0.094596122 -5.9473895e-07 0)
(0.094688995 6.2033569e-07 0)
(0.094600991 -6.4316895e-07 0)
(0.094683564 6.6341474e-07 0)
(0.094606927 -6.809e-07 0)
(0.094677169 6.9595883e-07 0)
(0.094613727 -7.0927803e-07 0)
(0.09467002 7.2082479e-07 0)
(0.094621192 -7.2450816e-07 0)
(0.094662258 7.4120526e-07 0)
(0.094629066 -7.4130333e-07 0)
(0.094654034 6.7792119e-07 0)
(0.094637679 -9.7906371e-07 0)
(0.094647114 7.4118432e-07 0)
(0.088855571 0.0094008336 0)
(0.09319809 -0.0012300566 0)
(0.098543965 0.00076132675 0)
(0.095850556 -7.7000005e-05 0)
(0.09815859 7.9618978e-05 0)
(0.09800219 -2.4737377e-05 0)
(0.098610248 1.7750869e-05 0)
(0.09827656 5.4416402e-06 0)
(0.098594743 4.9403631e-06 0)
(0.098337451 9.6709789e-07 0)
(0.098540023 4.898381e-06 0)
(0.098362517 -3.9256567e-06 0)
(0.098525458 3.0913393e-06 0)
(0.098380211 -1.8454216e-06 0)
(0.098496816 1.2722683e-06 0)
(0.098412221 -1.0943285e-06 0)
(0.098467598 9.0990582e-07 0)
(0.09843877 -7.5659273e-07 0)
(0.098443651 6.2858991e-07 0)
(0.098459991 -4.9901944e-07 0)
(0.098424768 3.8717286e-07 0)
(0.098476532 -2.776316e-07 0)
(0.098410326 1.7932163e-07 0)
(0.09848895 -8.631542e-08 0)
(0.098399779 1.4145767e-09 0)
(0.09849773 7.8030957e-08 0)
(0.09839264 -1.5052602e-07 0)
(0.098503325 2.1696538e-07 0)
(0.098388486 -2.7810894e-07 0)
(0.098506147 3.3423335e-07 0)
(0.098386901 -3.8509753e-07 0)
(0.098506575 4.3175747e-07 0)
(0.098387543 -4.7438195e-07 0)
(0.098504945 5.1272935e-07 0)
(0.098390088 -5.4750818e-07 0)
(0.098501558 5.7896653e-07 0)
(0.098394246 -6.0726448e-07 0)
(0.098496694 6.3245339e-07 0)
(0.098399755 -6.5489538e-07 0)
(0.098490602 6.7476342e-07 0)
(0.098406371 -6.918708e-07 0)
(0.09848351 7.0661802e-07 0)
(0.098413881 -7.1968639e-07 0)
(0.098475641 7.3087972e-07 0)
(0.098422078 -7.3411845e-07 0)
(0.098467146 7.5123928e-07 0)
(0.098430703 -7.5004406e-07 0)
(0.09845817 6.8511544e-07 0)
(0.098439994 -9.9615351e-07 0)
(0.098450204 7.4354997e-07 0)
(0.092991664 0.0092180654 0)
(0.095168573 -0.0013340527 0)
(0.10214008 0.00074114937 0)
(0.099446849 -7.4840948e-05 0)
(0.10182098 6.6488992e-05 0)
(0.10160979 -2.7852494e-05 0)
(0.1022349 1.6362922e-05 0)
(0.10189928 5.1799561e-06 0)
(0.10222257 4.8605098e-06 0)
(0.10196565 1.0125968e-06 0)
(0.102169 4.9880344e-06 0)
(0.10199636 -4.0642606e-06 0)