/*--------------------------------*- C++ -*----------------------------------*\
| =========                 |                                                 |
| \\      /  F ield         | OpenFOAM: The Open Source CFD Toolbox           |
|  \\    /   O peration     | Version:  2312                                  |
|   \\  /    A nd           | Website:  www.openfoam.com                      |
|    \\/     M anipulation  |                                                 |
\*---------------------------------------------------------------------------*/
FoamFile
{
    version     2.0;
    format      ascii;
    arch        "LSB;label=32;scalar=64";
    class       volScalarField;
    location    "10";
    object      p;
}
// * * * * * * * * * * * * * * * * * * * * * * * * * * * * * * * * * * * * * //

dimensions      [0 2 -2 0 0 0 0];

internalField   nonuniform List<scalar> 
4000
(
26.554555
25.480641
25.189574
24.33964
24.088204
23.291832
23.01625
22.25272
21.949278
21.213066
20.884226
20.172035
19.820694
19.129682
18.758472
18.086132
17.697398
17.04151
16.637341
15.995937
15.578186
14.949515
14.519833
13.90234
13.462193
12.854492
12.405189
11.806044
11.348755
10.757059
10.29283
9.7075907
9.2373644
8.657687
8.1823139
7.6073884
7.1276407
6.5567295
6.0733128
5.5057397
5.0193035
4.454443
3.9655908
3.4028592
2.9121572
2.3510035
1.8589897
1.2988862
0.80607598
0.24650591
26.549406
25.479047
25.189713
24.339652
24.088194
23.291844
23.016239
22.25273
21.949269
21.213074
20.884217
20.172043
19.820687
19.129689
18.758465
18.086138
17.697393
17.041516
16.637336
15.995941
15.578182
14.949519
14.519829
13.902343
13.462189
12.854495
12.405186
11.806047
11.348752
10.757061
10.292827
9.7075931
9.2373621
8.6576892
8.1823118
7.6073904
7.1276388
6.5567314
6.073311
5.5057414
5.0193018
4.4544446
3.9655892
3.4028607
2.9121558
2.351005
1.8589882
1.2988877
0.8060745
0.24650821
26.540883
25.478007
25.189983
24.33964
24.088203
23.291842
23.016241
22.252729
21.94927
21.213073
20.884218
20.172042
19.820688
19.129688
18.758466
18.086137
17.697393
17.041515
16.637337
15.995941
15.578182
14.949519
14.519829
13.902343
13.46219
12.854495
12.405186
11.806047
11.348752
10.757061
10.292828
9.7075928
9.2373623
8.6576889
8.182312
7.6073901
7.127639
6.5567311
6.0733112
5.5057412
5.019302
4.4544444
3.9655894
3.4028605
2.9121559
2.3510048
1.8589884
1.2988875
0.80607454
0.24650894
26.52992
25.476843
25.190266
24.339627
24.088216
23.291836
23.016246
22.252723
21.949274
21.213069
20.884223
20.172038
19.820692
19.129685
18.758469
18.086134
17.697396
17.041512
16.637339
15.995938
15.578185
14.949517
14.519831
13.902341
13.462192
12.854493
12.405188
11.806045
11.348753
10.75706
10.292829
9.7075916
9.2373636
8.6576878
8.1823131
7.6073891
7.12764
6.5567302
6.0733122
5.5057402
5.0193029
4.4544436
3.9655902
3.4028597
2.9121567
2.351004
1.8589891
1.2988867
0.80607519
0.24650898
26.520145
25.475837
25.19052
24.339619
24.08823
23.291831
23.016251
22.252718
21.949279
21.213065
20.884226
20.172034
19.820695
19.129681
18.758472
18.086131
17.697399
17.04151
16.637342
15.995936
15.578187
14.949515
14.519833
13.902339
13.462193
12.854492
12.40519
11.806044
11.348755
10.757058
10.29283
9.7075904
9.2373647
8.6576867
8.1823141
7.6073881
7.1276409
6.5567293
6.073313
5.5057394
5.0193037
4.4544428
3.965591
3.402859
2.9121574
2.3510033
1.8589898
1.298886
0.80607584
0.24650895
26.510806
25.474607
25.190695
24.339622
24.088246
23.291827
23.016255
22.252714
21.949282
21.213061
20.884229
20.172031
19.820698
19.129679
18.758475
18.086129
17.697401
17.041508
16.637344
15.995934
15.578188
14.949513
14.519835
13.902338
13.462195
12.85449
12.405191
11.806043
11.348756
10.757057
10.292831
9.7075895
9.2373655
8.6576859
8.1823149
7.6073874
7.1276417
6.5567286
6.0733137
5.5057388
5.0193043
4.4544422
3.9655916
3.4028584
2.912158
2.3510028
1.8589904
1.2988854
0.80607638
0.24650895
26.500655
25.473556
25.190792
24.339649
24.088267
23.291825
23.016258
22.252711
21.949285
21.213059
20.884232
20.172029
19.8207
19.129677
18.758477
18.086127
17.697403
17.041506
16.637345
15.995933
15.57819
14.949512
14.519836
13.902337
13.462196
12.854489
12.405192
11.806042
11.348757
10.757057
10.292832
9.7075887
9.2373662
8.6576852
8.1823156
7.6073867
7.1276423
6.556728
6.0733143
5.5057382
5.0193048
4.4544417
3.9655921
3.4028579
2.9121585
2.3510023
1.8589908
1.2988849
0.80607685
0.24650895
26.492471
25.472448
25.190749
24.33971
24.088291
23.291824
23.016261
22.252708
21.949287
21.213056
20.884234
20.172027
19.820702
19.129675
18.758478
18.086125
17.697404
17.041505
16.637347
15.995931
15.578191
14.949511
14.519837
13.902336
13.462197
12.854488
12.405193
11.806041
11.348758
10.757056
10.292833
9.7075881
9.2373669
8.6576846
8.1823162
7.6073862
7.1276428
6.5567275
6.0733148
5.5057378
5.0193053
4.4544412
3.9655925
3.4028575
2.9121589
2.3510019
1.8589913
1.2988844
0.8060773
0.24650894
26.482565
25.471435
25.190632
24.339766
24.08831
23.291822
23.016263
22.252706
21.949289
21.213054
20.884236
20.172025
19.820704
19.129673
18.75848
18.086124
17.697405
17.041504
16.637348
15.99593
15.578192
14.94951
14.519838
13.902335
13.462197
12.854488
12.405193
11.80604
11.348758
10.757055
10.292833
9.7075875
9.2373674
8.6576841
8.1823167
7.6073857
7.1276433
6.556727
6.0733152
5.5057373
5.0193057
4.4544408
3.9655929
3.4028571
2.9121593
2.3510015
1.8589916
1.298884
0.80607771
0.24650891
26.475469
25.470457
25.190544
24.33974
24.088304
23.291815
23.016264
22.252703
21.949291
21.213052
20.884238
20.172023
19.820705
19.129672
18.758481
18.086122
17.697407
17.041502
16.637349
15.995929
15.578193
14.949509
14.519839
13.902334
13.462198
12.854487
12.405194
11.806039
11.348759
10.757055
10.292834
9.7075869
9.237368
8.6576836
8.1823172
7.6073852
7.1276437
6.5567266
6.0733156
5.5057369
5.0193061
4.4544405
3.9655933
3.4028568
2.9121596
2.3510012
1.858992
1.2988837
0.8060781
0.24650887
26.466655
25.469166
25.190592
24.339667
24.088282
23.291805
23.016264
22.2527
21.949292
21.21305
20.884239
20.172022
19.820707
19.129671
18.758483
18.086121
17.697408
17.041501
16.63735
15.995928
15.578194
14.949508
14.51984
13.902333
13.462199
12.854486
12.405195
11.806039
11.348759
10.757054
10.292834
9.7075864
9.2373684
8.6576831
8.1823176
7.6073848
7.1276441
6.5567262
6.073316
5.5057366
5.0193064
4.4544401
3.9655936
3.4028565
2.91216
2.3510008
1.8589923
1.2988833
0.80607847
0.24650883
26.460553
25.467916
25.19064
24.339622
24.08826
23.291796
23.016264
22.252698
21.949294
21.213049
20.884241
20.172021
19.820708
19.129669
18.758484
18.08612
17.697409
17.0415
16.637351
15.995928
15.578195
14.949507
14.51984
13.902332
13.4622
12.854486
12.405195
11.806038
11.34876
10.757054
10.292835
9.707586
9.2373688
8.6576827
8.182318
7.6073845
7.1276444
6.5567259
6.0733163
5.5057363
5.0193067
4.4544398
3.9655939
3.4028562
2.9121602
2.3510006
1.8589925
1.298883
0.80607881
0.24650877
26.453032
25.46649
25.190505
24.339569
24.088235
23.291786
23.016263
22.252696
21.949295
21.213047
20.884242
20.172019
19.820709
19.129668
18.758485
18.086119
17.69741
17.041499
16.637352
15.995927
15.578195
14.949506
14.519841
13.902332
13.4622
12.854485
12.405196
11.806038
11.34876
10.757053
10.292835
9.7075856
9.2373692
8.6576824
8.1823183
7.6073841
7.1276448
6.5567256
6.0733166
5.505736
5.019307
4.4544396
3.9655941
3.4028559
2.9121605
2.3510003
1.8589928
1.2988828
0.80607914
0.24650871
26.447421
25.465512
25.190206
24.339483
24.088203
23.291775
23.016262
22.252693
21.949296
21.213046
20.884243
20.172018
19.82071
19.129667
18.758486
18.086118
17.697411
17.041499
16.637352
15.995926
15.578196
14.949506
14.519842
13.902331
13.462201
12.854485
12.405196
11.806037
11.348761
10.757053
10.292836
9.7075852
9.2373696
8.657682
8.1823186
7.6073838
7.127645
6.5567253
6.0733168
5.5057357
5.0193073
4.4544393
3.9655944
3.4028557
2.9121607
2.3510001
1.858993
1.2988825
0.80607945
0.24650865
26.442603
25.464186
25.18983
24.339393
24.088169
23.291764
23.01626
22.252691
21.949297
21.213045
20.884244
20.172017
19.820711
19.129666
18.758487
18.086118
17.697411
17.041498
16.637353
15.995925
15.578197
14.949505
14.519842
13.902331
13.462201
12.854484
12.405197
11.806037
11.348761
10.757052
10.292836
9.7075849
9.2373699
8.6576817
8.1823189
7.6073836
7.1276453
6.5567251
6.0733171
5.5057355
5.0193075
4.4544391
3.9655946
3.4028555
2.9121609
2.3509999
1.8589932
1.2988823
0.80607975
0.24650858
26.436433
25.462968
25.18941
24.339305
24.088136
23.291752
23.016258
22.252689
21.949298
21.213044
20.884245
20.172016
19.820712
19.129665
18.758487
18.086117
17.697412
17.041497
16.637354
15.995925
15.578197
14.949505
14.519843
13.90233
13.462202
12.854484
12.405197
11.806037
11.348762
10.757052
10.292836
9.7075846
9.2373702
8.6576815
8.1823192
7.6073833
7.1276456
6.5567248
6.0733173
5.5057353
5.0193077
4.4544389
3.9655948
3.4028553
2.9121611
2.3509997
1.8589934
1.2988821
0.80608003
0.24650851
26.431938
25.461529
25.188968
24.339213
24.088102
23.291738
23.016255
22.252686
21.949298
21.213042
20.884246
20.172015
19.820713
19.129665
18.758488
18.086116
17.697413
17.041497
16.637354
15.995924
15.578198
14.949504
14.519843
13.90233
13.462202
12.854483
12.405197
11.806036
11.348762
10.757052
10.292837
9.7075843
9.2373704
8.6576812
8.1823194
7.6073831
7.1276458
6.5567246
6.0733175
5.5057351
5.0193079
4.4544387
3.965595
3.4028551
2.9121613
2.3509995
1.8589936
1.2988819
0.80608029
0.24650844
26.426472
25.460263
25.188557
24.339096
24.08806
23.291721
23.01625
22.252683
21.949298
21.213041
20.884247
20.172014
19.820714
19.129664
18.758489
18.086115
17.697413
17.041496
16.637355
15.995924
15.578198
14.949504
14.519843
13.902329
13.462202
12.854483
12.405198
11.806036
11.348762
10.757052
10.292837
9.7075841
9.2373707
8.657681
8.1823196
7.6073829
7.127646
6.5567244
6.0733177
5.5057349
5.0193081
4.4544385
3.9655951
3.4028549
2.9121615
2.3509993
1.8589937
1.2988817
0.80608054
0.24650836
26.422868
25.458921
25.188201
24.338959
24.088007
23.291699
23.016243
22.252679
21.949298
21.21304
20.884247
20.172014
19.820714
19.129663
18.758489
18.086115
17.697414
17.041496
16.637355
15.995923
15.578199
14.949503
14.519844
13.902329
13.462203
12.854483
12.405198
11.806036
11.348762
10.757051
10.292837
9.7075838
9.2373709
8.6576808
8.1823198
7.6073827
7.1276462
6.5567242
6.0733179
5.5057347
5.0193083
4.4544384
3.9655953
3.4028548
2.9121616
2.3509992
1.8589939
1.2988816
0.80608078
0.24650829
26.418533
25.457749
25.187857
24.33884
24.087955
23.291678
23.016236
22.252675
21.949298
21.213039
20.884248
20.172013
19.820715
19.129663
18.75849
18.086114
17.697414
17.041495
16.637356
15.995923
15.578199
14.949503
14.519844
13.902329
13.462203
12.854482
12.405198
11.806035
11.348763
10.757051
10.292837
9.7075836
9.2373711
8.6576805
8.18232
7.6073825
7.1276464
6.5567241
6.0733181
5.5057346
5.0193084
4.4544382
3.9655955
3.4028546
2.9121618
2.350999
1.858994
1.2988814
0.80608101
0.24650821
26.41561
25.456587
25.187493
24.338747
24.087914
23.291662
23.016231
22.252671
21.949297
21.213037
20.884248
20.172012
19.820715
19.129662
18.75849
18.086114
17.697415
17.041495
16.637356
15.995923
15.578199
14.949503
14.519844
13.902328
13.462203
12.854482
12.405199
11.806035
11.348763
10.757051
10.292838
9.7075834
9.2373713
8.6576804
8.1823202
7.6073823
7.1276465
6.5567239
6.0733182
5.5057344
5.0193085
4.4544381
3.9655956
3.4028545
2.9121619
2.3509989
1.8589941
1.2988813
0.80608122
0.24650814
26.412109
25.455584
25.187127
24.33866
24.087885
23.291655
23.016228
22.252669
21.949297
21.213036
20.884249
20.172011
19.820716
19.129662
18.758491
18.086113
17.697415
17.041494
16.637356
15.995922
15.5782
14.949502
14.519845
13.902328
13.462204
12.854482
12.405199
11.806035
11.348763
10.757051
10.292838
9.7075832
9.2373715
8.6576802
8.1823204
7.6073821
7.1276467
6.5567238
6.0733184
5.5057343
5.0193087
4.4544379
3.9655957
3.4028544
2.912162
2.3509988
1.8589943
1.2988812
0.80608142
0.24650807
26.409719
25.454626
25.186784
24.338567
24.087863
23.291655
23.016228
22.252668
21.949298
21.213036
20.884249
20.172011
19.820716
19.129661
18.758491
18.086113
17.697416
17.041494
16.637357
15.995922
15.5782
14.949502
14.519845
13.902328
13.462204
12.854481
12.405199
11.806035
11.348763
10.75705
10.292838
9.707583
9.2373717
8.65768
8.1823205
7.607382
7.1276468
6.5567236
6.0733185
5.5057341
5.0193088
4.4544378
3.9655958
3.4028542
2.9121621
2.3509987
1.8589944
1.2988811
0.80608161
0.246508
26.406898
25.45379
25.186469
24.338477
24.087841
23.291658
23.016228
22.252668
21.949298
21.213035
20.88425
20.17201
19.820717
19.129661
18.758492
18.086113
17.697416
17.041494
16.637357
15.995922
15.5782
14.949502
14.519845
13.902328
13.462204
12.854481
12.405199
11.806035
11.348764
10.75705
10.292838
9.7075829
9.2373718
8.6576799
8.1823207
7.6073819
7.1276469
6.5567235
6.0733186
5.505734
5.0193089
4.4544377
3.9655959
3.4028541
2.9121622
2.3509986
1.8589945
1.298881
0.80608178
0.24650794
26.404939
25.453021
25.186186
24.338398
24.087817
23.291665
23.016229
22.252667
21.949298
21.213034
20.88425
20.17201
19.820717
19.12966
18.758492
18.086112
17.697416
17.041493
16.637357
15.995921
15.578201
14.949502
14.519846
13.902327
13.462204
12.854481
12.405199
11.806034
11.348764
10.75705
10.292838
9.7075827
9.2373719
8.6576798
8.1823208
7.6073817
7.1276471
6.5567234
6.0733187
5.5057339
5.019309
4.4544376
3.965596
3.402854
2.9121623
2.3509985
1.8589946
1.2988809
0.80608195
0.24650787
26.402678
25.452343
25.185926
24.338329
24.087792
23.291672
23.01623
22.252667
21.949299
21.213034
20.88425
20.172009
19.820718
19.12966
18.758492
18.086112
17.697417
17.041493
16.637358
15.995921
15.578201
14.949501
14.519846
13.902327
13.462204
12.854481
12.4052
11.806034
11.348764
10.75705
10.292838
9.7075826
9.2373721
8.6576796
8.1823209
7.6073816
7.1276472
6.5567233
6.0733188
5.5057338
5.0193091
4.4544375
3.9655961
3.402854
2.9121624
2.3509984
1.8589946
1.2988808
0.8060821
0.24650781
26.401022
25.451736
25.185698
24.338271
24.087767
23.291679
23.016233
22.252667
21.9493
21.213033
20.884251
20.172009
19.820718
19.129659
18.758493
18.086111
17.697417
17.041493
16.637358
15.995921
15.578201
14.949501
14.519846
13.902327
13.462205
12.854481
12.4052
11.806034
11.348764
10.75705
10.292839
9.7075825
9.2373722
8.6576795
8.182321
7.6073815
7.1276473
6.5567232
6.0733189
5.5057337
5.0193092
4.4544374
3.9655962
3.4028539
2.9121625
2.3509983
1.8589947
1.2988807
0.80608224
0.24650775
26.399241
25.451207
25.185492
24.338223
24.087746
23.291684
23.016235
22.252668
21.9493
21.213033
20.884251
20.172008
19.820718
19.129659
18.758493
18.086111
17.697417
17.041492
16.637358
15.99592
15.578201
14.949501
14.519846
13.902327
13.462205
12.854481
12.4052
11.806034
11.348764
10.75705
10.292839
9.7075824
9.2373723
8.6576794
8.1823211
7.6073814
7.1276474
6.5567231
6.073319
5.5057337
5.0193093
4.4544374
3.9655963
3.4028538
2.9121626
2.3509982
1.8589948
1.2988807
0.80608237
0.2465077
26.397839
25.45074
25.185321
24.338184
24.087728
23.291686
23.016238
22.25267
21.949301
21.213033
20.884252
20.172008
19.820718
19.129659
18.758493
18.086111
17.697417
17.041492
16.637358
15.99592
15.578201
14.949501
14.519846
13.902327
13.462205
12.85448
12.4052
11.806034
11.348764
10.757049
10.292839
9.7075823
9.2373724
8.6576793
8.1823212
7.6073813
7.1276474
6.556723
6.0733191
5.5057336
5.0193094
4.4544373
3.9655963
3.4028537
2.9121626
2.3509982
1.8589948
1.2988806
0.80608248
0.24650765
26.396477
25.450354
25.185171
24.338153
24.087715
23.291687
23.01624
22.252672
21.949302
21.213033
20.884252
20.172008
19.820719
19.129658
18.758494
18.086111
17.697418
17.041492
16.637359
15.99592
15.578202
14.949501
14.519847
13.902327
13.462205
12.85448
12.4052
11.806034
11.348764
10.757049
10.292839
9.7075822
9.2373725
8.6576792
8.1823213
7.6073813
7.1276475
6.5567229
6.0733191
5.5057335
5.0193094
4.4544372
3.9655964
3.4028537
2.9121627
2.3509981
1.8589949
1.2988806
0.80608259
0.2465076
26.395319
25.45
25.185055
24.33813
24.087706
23.291688
23.016241
22.252675
21.949304
21.213033
20.884252
20.172007
19.820719
19.129658
18.758494
18.08611
17.697418
17.041492
16.637359
15.99592
15.578202
14.9495
14.519847
13.902326
13.462205
12.85448
12.4052
11.806034
11.348765
10.757049
10.292839
9.7075821
9.2373726
8.6576791
8.1823214
7.6073812
7.1276476
6.5567229
6.0733192
5.5057335
5.0193095
4.4544372
3.9655965
3.4028536
2.9121628
2.3509981
1.8589949
1.2988805
0.80608268
0.24650756
26.394274
25.449741
25.184959
24.338114
24.087701
23.29169
23.016241
22.252678
21.949305
21.213033
20.884252
20.172007
19.820719
19.129658
18.758494
18.08611
17.697418
17.041492
16.637359
15.99592
15.578202
14.9495
14.519847
13.902326
13.462205
12.85448
12.4052
11.806033
11.348765
10.757049
10.292839
9.707582
9.2373727
8.6576791
8.1823214
7.6073811
7.1276476
6.5567228
6.0733193
5.5057334
5.0193095
4.4544371
3.9655965
3.4028536
2.9121628
2.350998
1.858995
1.2988805
0.80608276
0.24650753
26.393398
25.449483
25.184893
24.338105
24.087698
23.291692
23.016241
22.252681
21.949306
21.213033
20.884253
20.172007
19.820719
19.129658
18.758494
18.08611
17.697418
17.041491
16.637359
15.99592
15.578202
14.9495
14.519847
13.902326
13.462205
12.85448
12.405201
11.806033
11.348765
10.757049
10.292839
9.7075819
9.2373727
8.657679
8.1823215
7.6073811
7.1276477
6.5567228
6.0733193
5.5057334
5.0193096
4.4544371
3.9655966
3.4028535
2.9121628
2.350998
1.858995
1.2988805
0.80608282
0.2465075
26.392607
25.449326
25.184841
24.338101
24.087697
23.291694
23.01624
22.252684
21.949307
21.213033
20.884253
20.172007
19.820719
19.129658
18.758494
18.08611
17.697418
17.041491
16.637359
15.99592
15.578202
14.9495
14.519847
13.902326
13.462206
12.85448
12.405201
11.806033
11.348765
10.757049
10.292839
9.7075819
9.2373728
8.657679
8.1823215
7.607381
7.1276477
6.5567227
6.0733194
5.5057333
5.0193096
4.454437
3.9655966
3.4028535
2.9121629
2.3509979
1.8589951
1.2988804
0.80608286
0.24650747
26.392022
25.449141
25.184813
24.338102
24.087698
23.291697
23.016239
22.252687
21.949308
21.213033
20.884253
20.172006
19.820719
19.129657
18.758494
18.08611
17.697418
17.041491
16.637359
15.995919
15.578202
14.9495
14.519847
13.902326
13.462206
12.85448
12.405201
11.806033
11.348765
10.757049
10.292839
9.7075818
9.2373728
8.6576789
8.1823216
7.607381
7.1276478
6.5567227
6.0733194
5.5057333
5.0193096
4.454437
3.9655966
3.4028535
2.9121629
2.3509979
1.8589951
1.2988804
0.80608289
0.24650746
26.391466
25.449054
25.18479
24.338105
24.0877
23.291699
23.016238
22.252689
21.949309
21.213033
20.884253
20.172006
19.82072
19.129657
18.758494
18.08611
17.697418
17.041491
16.637359
15.995919
15.578202
14.9495
14.519847
13.902326
13.462206
12.85448
12.405201
11.806033
11.348765
10.757049
10.292839
9.7075818
9.2373729
8.6576789
8.1823216
7.6073809
7.1276478
6.5567227
6.0733194
5.5057332
5.0193097
4.454437
3.9655966
3.4028534
2.9121629
2.3509979
1.8589951
1.2988804
0.80608289
0.24650745
26.39115
25.448911
25.184782
24.338108
24.087702
23.291702
23.016237
22.252691
21.94931
21.213033
20.884253
20.172006
19.82072
19.129657
18.758494
18.08611
17.697419
17.041491
16.637359
15.995919
15.578202
14.9495
14.519847
13.902326
13.462206
12.85448
12.405201
11.806033
11.348765
10.757049
10.292839
9.7075818
9.2373729
8.6576789
8.1823217
7.6073809
7.1276478
6.5567226
6.0733194
5.5057332
5.0193097
4.454437
3.9655967
3.4028534
2.9121629
2.3509979
1.8589951
1.2988804
0.80608287
0.24650746
26.390829
25.448861
25.184771
24.338111
24.087703
23.291704
23.016236
22.252691
21.949311
21.213033
20.884254
20.172006
19.82072
19.129657
18.758494
18.086109
17.697419
17.041491
16.637359
15.995919
15.578202
14.9495
14.519847
13.902326
13.462206
12.85448
12.405201
11.806033
11.348765
10.757049
10.292839
9.7075817
9.2373729
8.6576788
8.1823217
7.6073809
7.1276478
6.5567226
6.0733194
5.5057332
5.0193097
4.454437
3.9655967
3.4028534
2.9121629
2.3509979
1.8589951
1.2988804
0.80608283
0.24650747
26.390768
25.448744
25.184768
24.338112
24.087705
23.291705
23.016236
22.252691
21.949313
21.213034
20.884254
20.172006
19.82072
19.129657
18.758494
18.086109
17.697419
17.041491
16.637359
15.995919
15.578202
14.9495
14.519847
13.902326
13.462206
12.85448
12.405201
11.806033
11.348765
10.757049
10.292839
9.7075817
9.2373729
8.6576788
8.1823217
7.6073809
7.1276479
6.5567226
6.0733194
5.5057332
5.0193097
4.454437
3.9655967
3.4028534
2.9121629
2.3509979
1.8589951
1.2988805
0.80608279
0.24650749
26.390641
25.448745
25.18476
24.338112
24.087705
23.291705
23.016236
22.25269
21.949314
21.213034
20.884254
20.172006
19.82072
19.129657
18.758494
18.086109
17.697419
17.041491
16.637359
15.995919
15.578202
14.9495
14.519847
13.902326
13.462206
12.85448
12.405201
11.806033
11.348765
10.757049
10.292839
9.7075817
9.2373729
8.6576788
8.1823217
7.6073809
7.1276478
6.5567226
6.0733194
5.5057332
5.0193097
4.454437
3.9655966
3.4028534
2.9121629
2.3509979
1.858995
1.2988805
0.80608275
0.2465075
26.390717
25.448702
25.184764
24.338112
24.087705
23.291705
23.016236
22.25269
21.949314
21.213034
20.884254
20.172006
19.82072
19.129657
18.758494
18.086109
17.697419
17.041491
16.637359
15.995919
15.578202
14.9495
14.519847
13.902326
13.462206
12.85448
12.405201
11.806033
11.348765
10.757049
10.292839
9.7075817
9.2373729
8.6576788
8.1823217
7.6073809
7.1276478
6.5567226
6.0733194
5.5057332
5.0193097
4.454437
3.9655966
3.4028534
2.9121629
2.3509979
1.858995
1.2988805
0.80608275
0.2465075
26.390678
25.448797
25.184768
24.338112
24.087705
23.291705
23.016236
22.252691
21.949313
21.213034
20.884254
20.172006
19.82072
19.129657
18.758494
18.086109
17.697419
17.041491
16.637359
15.995919
15.578202
14.9495
14.519847
13.902326
13.462206
12.85448
12.405201
11.806033
11.348765
10.757049
10.292839
9.7075817
9.2373729
8.6576788
8.1823217
7.6073809
7.1276479
6.5567226
6.0733194
5.5057332
5.0193097
4.454437
3.9655967
3.4028534
2.9121629
2.3509979
1.8589951
1.2988805
0.80608279
0.24650749
26.390886
25.44883
25.18478
24.338112
24.087704
23.291704
23.016236
22.252691
21.949311
21.213033
20.884254
20.172006
19.82072
19.129657
18.758494
18.086109
17.697419
17.041491
16.637359
15.995919
15.578202
14.9495
14.519847
13.902326
13.462206
12.85448
12.405201
11.806033
11.348765
10.757049
10.292839
9.7075817
9.2373729
8.6576788
8.1823217
7.6073809
7.1276478
6.5567226
6.0733194
5.5057332
5.0193097
4.454437
3.9655967
3.4028534
2.9121629
2.3509979
1.8589951
1.2988804
0.80608283
0.24650747
26.391049
25.448975
25.184786
24.338109
24.087702
23.291702
23.016237
22.252691
21.94931
21.213033
20.884253
20.172006
19.82072
19.129657
18.758494
18.08611
17.697419
17.041491
16.637359
15.995919
15.578202
14.9495
14.519847
13.902326
13.462206
12.85448
12.405201
11.806033
11.348765
10.757049
10.292839
9.7075818
9.2373729
8.6576789
8.1823217
7.6073809
7.1276478
6.5567226
6.0733194
5.5057332
5.0193097
4.454437
3.9655967
3.4028534
2.9121629
2.3509979
1.8589951
1.2988804
0.80608287
0.24650746
26.391497
25.449037
25.184803
24.338106
24.0877
23.2917
23.016238
22.252689
21.949309
21.213033
20.884253
20.172006
19.82072
19.129657
18.758494
18.08611
17.697418
17.041491
16.637359
15.995919
15.578202
14.9495
14.519847
13.902326
13.462206
12.85448
12.405201
11.806033
11.348765
10.757049
10.292839
9.7075818
9.2373729
8.6576789
8.1823216
7.6073809
7.1276478
6.5567227
6.0733194
5.5057332
5.0193097
4.454437
3.9655966
3.4028534
2.9121629
2.3509979
1.8589951
1.2988804
0.80608289
0.24650745
26.391917
25.449216
25.18482
24.338103
24.087699
23.291697
23.016239
22.252687
21.949308
21.213033
20.884253
20.172006
19.820719
19.129657
18.758494
18.08611
17.697418
17.041491
16.637359
15.995919
15.578202
14.9495
14.519847
13.902326
13.462206
12.85448
12.405201
11.806033
11.348765
10.757049
10.292839
9.7075818
9.2373728
8.6576789
8.1823216
7.607381
7.1276478
6.5567227
6.0733194
5.5057333
5.0193096
4.454437
3.9655966
3.4028535
2.9121629
2.3509979
1.8589951
1.2988804
0.80608289
0.24650746
26.392606
25.449325
25.184858
24.338103
24.087698
23.291694
23.01624
22.252684
21.949307
21.213033
20.884253
20.172007
19.820719
19.129658
18.758494
18.08611
17.697418
17.041491
16.637359
15.99592
15.578202
14.9495
14.519847
13.902326
13.462206
12.85448
12.405201
11.806033
11.348765
10.757049
10.292839
9.7075819
9.2373728
8.657679
8.1823215
7.607381
7.1276477
6.5567227
6.0733194
5.5057333
5.0193096
4.454437
3.9655966
3.4028535
2.9121629
2.3509979
1.8589951
1.2988804
0.80608286
0.24650747
26.393296
25.449568
25.184904
24.338107
24.087699
23.291692
23.016241
22.252681
21.949306
21.213033
20.884253
20.172007
19.820719
19.129658
18.758494
18.08611
17.697418
17.041491
16.637359
15.99592
15.578202
14.9495
14.519847
13.902326
13.462205
12.85448
12.405201
11.806033
11.348765
10.757049
10.292839
9.7075819
9.2373727
8.657679
8.1823215
7.6073811
7.1276477
6.5567228
6.0733193
5.5057334
5.0193096
4.4544371
3.9655966
3.4028535
2.9121628
2.350998
1.858995
1.2988805
0.80608282
0.2465075
26.394236
25.449758
25.184979
24.338117
24.087702
23.29169
23.016241
22.252678
21.949305
21.213033
20.884252
20.172007
19.820719
19.129658
18.758494
18.08611
17.697418
17.041492
16.637359
15.99592
15.578202
14.9495
14.519847
13.902326
13.462205
12.85448
12.4052
11.806033
11.348765
10.757049
10.292839
9.707582
9.2373727
8.6576791
8.1823214
7.6073811
7.1276476
6.5567228
6.0733193
5.5057334
5.0193095
4.4544371
3.9655965
3.4028536
2.9121628
2.350998
1.858995
1.2988805
0.80608276
0.24650753
26.3952
25.450088
25.185069
24.338132
24.087707
23.291689
23.016241
22.252675
21.949304
21.213033
20.884252
20.172007
19.820719
19.129658
18.758494
18.08611
17.697418
17.041492
16.637359
15.99592
15.578202
14.9495
14.519847
13.902326
13.462205
12.85448
12.4052
11.806034
11.348765
10.757049
10.292839
9.7075821
9.2373726
8.6576791
8.1823214
7.6073812
7.1276476
6.5567229
6.0733192
5.5057335
5.0193095
4.4544372
3.9655965
3.4028536
2.9121628
2.3509981
1.8589949
1.2988805
0.80608268
0.24650756
26.396435
25.450389
25.185193
24.338156
24.087717
23.291688
23.01624
22.252672
21.949303
21.213033
20.884252
20.172008
19.820719
19.129658
18.758494
18.086111
17.697418
17.041492
16.637359
15.99592
15.578202
14.949501
14.519847
13.902327
13.462205
12.85448
12.4052
11.806034
11.348764
10.757049
10.292839
9.7075822
9.2373725
8.6576792
8.1823213
7.6073813
7.1276475
6.5567229
6.0733191
5.5057335
5.0193094
4.4544372
3.9655964
3.4028537
2.9121627
2.3509981
1.8589949
1.2988806
0.80608259
0.2465076
26.397645
25.450823
25.185336
24.338187
24.08773
23.291687
23.016238
22.25267
21.949301
21.213033
20.884252
20.172008
19.820718
19.129659
18.758493
18.086111
17.697417
17.041492
16.637358
15.99592
15.578201
14.949501
14.519846
13.902327
13.462205
12.85448
12.4052
11.806034
11.348764
10.757049
10.292839
9.7075823
9.2373724
8.6576793
8.1823212
7.6073813
7.1276474
6.556723
6.0733191
5.5057336
5.0193094
4.4544373
3.9655963
3.4028537
2.9121626
2.3509982
1.8589948
1.2988806
0.80608248
0.24650765
26.399262
25.451258
25.185518
24.338227
24.087748
23.291684
23.016235
22.252668
21.9493
21.213033
20.884251
20.172008
19.820718
19.129659
18.758493
18.086111
17.697417
17.041492
16.637358
15.99592
15.578201
14.949501
14.519846
13.902327
13.462205
12.854481
12.4052
11.806034
11.348764
10.75705
10.292839
9.7075824
9.2373723
8.6576794
8.1823211
7.6073814
7.1276474
6.5567231
6.073319
5.5057337
5.0193093
4.4544374
3.9655963
3.4028538
2.9121626
2.3509982
1.8589948
1.2988807
0.80608237
0.2465077
26.400714
25.451822
25.185718
24.338275
24.087769
23.29168
23.016233
22.252667
21.9493
21.213033
20.884251
20.172009
19.820718
19.129659
18.758493
18.086111
17.697417
17.041493
16.637358
15.995921
15.578201
14.949501
14.519846
13.902327
13.462205
12.854481
12.4052
11.806034
11.348764
10.75705
10.292839
9.7075825
9.2373722
8.6576795
8.182321
7.6073815
7.1276473
6.5567232
6.0733189
5.5057337
5.0193092
4.4544374
3.9655962
3.4028539
2.9121625
2.3509983
1.8589947
1.2988807
0.80608224
0.24650775
26.402786
25.452408
25.185957
24.338334
24.087794
23.291673
23.016231
22.252667
21.949299
21.213034
20.88425
20.172009
19.820718
19.12966
18.758492
18.086112
17.697417
17.041493
16.637358
15.995921
15.578201
14.949501
14.519846
13.902327
13.462204
12.854481
12.4052
11.806034
11.348764
10.75705
10.292838
9.7075826
9.2373721
8.6576796
8.1823209
7.6073816
7.1276472
6.5567233
6.0733188
5.5057338
5.0193091
4.4544375
3.9655961
3.402854
2.9121624
2.3509984
1.8589946
1.2988808
0.8060821
0.24650781
26.404527
25.453129
25.186212
24.338402
24.087819
23.291665
23.016229
22.252667
21.949298
21.213034
20.88425
20.17201
19.820717
19.12966
18.758492
18.086112
17.697416
17.041493
16.637357
15.995921
15.578201
14.949502
14.519846
13.902327
13.462204
12.854481
12.405199
11.806034
11.348764
10.75705
10.292838
9.7075827
9.2373719
8.6576798
8.1823208
7.6073817
7.1276471
6.5567234
6.0733187
5.5057339
5.019309
4.4544376
3.965596
3.402854
2.9121623
2.3509985
1.8589946
1.2988809
0.80608195
0.24650787
26.407124
25.45387
25.186503
24.338483
24.087843
23.291659
23.016229
22.252668
21.949298
21.213035
20.88425
20.17201
19.820717
19.129661
18.758492
18.086113
17.697416
17.041494
16.637357
15.995922
15.5782
14.949502
14.519845
13.902328
13.462204
12.854481
12.405199
11.806035
11.348764
10.75705
10.292838
9.7075829
9.2373718
8.6576799
8.1823207
7.6073819
7.1276469
6.5567235
6.0733186
5.505734
5.0193089
4.4544377
3.9655959
3.4028541
2.9121622
2.3509986
1.8589945
1.298881
0.80608178
0.24650794
26.409218
25.454774
25.186818
24.338572
24.087865
23.291655
23.016228
22.252668
21.949298
21.213036
20.884249
20.172011
19.820716
19.129661
18.758491
18.086113
17.697416
17.041494
16.637357
15.995922
15.5782
14.949502
14.519845
13.902328
13.462204
12.854481
12.405199
11.806035
11.348763
10.75705
10.292838
9.707583
9.2373717
8.65768
8.1823205
7.607382
7.1276468
6.5567236
6.0733185
5.5057341
5.0193088
4.4544378
3.9655958
3.4028542
2.9121621
2.3509987
1.8589944
1.2988811
0.80608161
0.246508
26.412437
25.455699
25.18717
24.338665
24.087887
23.291656
23.016229
22.252669
21.949297
21.213036
20.884249
20.172011
19.820716
19.129662
18.758491
18.086113
17.697415
17.041494
16.637356
15.995922
15.5782
14.949502
14.519845
13.902328
13.462204
12.854482
12.405199
11.806035
11.348763
10.757051
10.292838
9.7075832
9.2373715
8.6576802
8.1823204
7.6073821
7.1276467