/*--------------------------------*- C++ -*----------------------------------*\
| =========                 |                                                 |
| \\      /  F ield         | OpenFOAM: The Open Source CFD Toolbox           |
|  \\    /   O peration     | Version:  2312                                  |
|   \\  /    A nd           | Website:  www.openfoam.com                      |
|    \\/     M anipulation  |                                                 |
\*---------------------------------------------------------------------------*/
FoamFile
{
    version     2.0;
    format      ascii;
    arch        "LSB;label=32;scalar=64";
    class       surfaceScalarField;
    location    "10";
    object      phi_0;
}
// * * * * * * * * * * * * * * * * * * * * * * * * * * * * * * * * * * * * * //

dimensions      [0 3 -1 0 0 0 0];

oriented        oriented;

internalField   nonuniform List<scalar> 
7870
(
1.020746e-10
2.3556754e-09
1.0156392e-10
5.106767e-13
9.4557948e-11
7.0059718e-12
9.39607e-11
5.9724486e-13
9.5088965e-11
-1.1282641e-12
9.3655379e-11
1.4335853e-12
9.499099e-11
-1.3356102e-12
9.3710393e-11
1.2805967e-12
9.4919354e-11
-1.20896e-12
9.3778149e-11
1.1412052e-12
9.4851805e-11
-1.0736558e-12
9.3840232e-11
1.0115732e-12
9.4792068e-11
-9.5183595e-13
9.3895654e-11
8.9641358e-13
9.4739584e-11
-8.4393011e-13
9.3944685e-11
7.948992e-13
9.469342e-11
-7.4873491e-13
9.3987914e-11
7.0550593e-13
9.4652805e-11
-6.6489173e-13
9.4025955e-11
6.2684968e-13
9.4617102e-11
-5.9114661e-13
9.4059378e-11
5.5772366e-13
9.4585761e-11
-5.2638273e-13
9.4088688e-11
4.9707246e-13
9.4558304e-11
-4.696155e-13
9.4114332e-11
4.4397184e-13
9.4534313e-11
-4.1998105e-13
9.41367e-11
3.9761329e-13
9.4513424e-11
-3.7672396e-13
9.4156133e-11
3.5729129e-13
9.4495318e-11
-3.3918594e-13
9.4172926e-11
3.2239227e-13
9.4479722e-11
-3.0679573e-13
9.4187337e-11
2.9238514e-13
9.4466397e-11
-2.7906024e-13
9.4199584e-11
2.6681306e-13
9.4455141e-11
-2.5555703e-13
9.4209855e-11
2.4528639e-13
9.4445782e-11
-2.3592775e-13
9.4218306e-11
2.2747674e-13
9.4438178e-11
-2.1987281e-13
9.4225066e-11
2.13112e-13
9.4432212e-11
-2.0714565e-13
9.4230235e-11
2.0197739e-13
9.4427774e-11
-1.97539e-13
9.423388e-11
1.9389332e-13
9.4425037e-11
-1.9115692e-13
9.4237711e-11
1.8732635e-13
9.4430779e-11
-1.9306844e-13
1.7959747e-13
2.7964028e-10
4.5337851e-09
2.9250717e-10
-1.2356219e-11
2.7443635e-10
2.50768e-11
2.7367993e-10
1.353662e-12
2.7494251e-10
-2.3908418e-12
2.7288304e-10
3.4930469e-12
2.74773e-10
-3.2255628e-12
2.7294161e-10
3.1119807e-12
2.7467906e-10
-2.9464078e-12
2.7303661e-10
2.7836569e-12
2.7458169e-10
-2.6187323e-12
2.7312492e-10
2.4683457e-12
2.7449523e-10
-2.3221495e-12
2.7320445e-10
2.1871927e-12
2.7441956e-10
-2.0590397e-12
2.7327504e-10
1.9394228e-12
2.7435312e-10
-1.8268162e-12
2.7333733e-10
1.7212909e-12
2.7429469e-10
-1.6222543e-12
2.7339217e-10
1.5293755e-12
2.7424334e-10
-1.4423202e-12
2.7344035e-10
1.3607167e-12
2.7419826e-10
-1.2842965e-12
2.734826e-10
1.2127351e-12
2.7415877e-10
-1.1457826e-12
2.7351956e-10
1.0831745e-12
2.7412425e-10
-1.0246714e-12
2.735518e-10
9.7006223e-13
2.740942e-10
-9.1911991e-13
2.7357982e-10
8.7167692e-13
2.7406815e-10
-8.2752178e-13
2.7360402e-10
7.8652164e-13
2.7404571e-10
-7.4848307e-13
2.7362479e-10
7.1330055e-13
2.7402653e-10
-6.8080052e-13
2.7364245e-10
6.5089887e-13
2.7401033e-10
-6.2344304e-13
2.7365725e-10
5.9836567e-13
2.7399686e-10
-5.7553587e-13
2.7366944e-10
5.5489916e-13
2.7398591e-10
-5.3634731e-13
2.7367919e-10
5.1983417e-13
2.7397732e-10
-5.0527416e-13
2.7368665e-10
4.9264899e-13
2.739709e-10
-4.8178671e-13
2.7369184e-10
4.729479e-13
2.7396684e-10
-4.6615704e-13
2.7369803e-10
4.5613781e-13
2.7398151e-10
-4.7654557e-13
4.3648849e-13
4.4839045e-10
6.5431447e-09
4.7640952e-10
-4.0375296e-11
4.4931643e-10
5.2169892e-11
4.4911412e-10
1.555971e-12
4.4976548e-10
-3.0421988e-12
4.4786189e-10
5.3966318e-12
4.4960052e-10
-4.9641899e-12
4.4789504e-10
4.8174656e-12
4.4952787e-10
-4.5792419e-12
4.479814e-10
4.3301302e-12
4.4943616e-10
-4.0734919e-12
4.4806316e-10
3.8413503e-12
4.4935412e-10
-3.6131106e-12
4.4813775e-10
3.4035613e-12
4.4928268e-10
-3.2039753e-12
4.4820424e-10
3.0178638e-12
4.4922011e-10
-2.8426838e-12
4.4826301e-10
2.6783924e-12
4.4916513e-10
-2.5243751e-12
4.4831475e-10
2.3797483e-12
4.4911681e-10
-2.2443722e-12
4.4836022e-10
2.1172998e-12
4.4907439e-10
-1.9984587e-12
4.4840009e-10
1.887026e-12
4.4903721e-10
-1.782903e-12
4.4843498e-10
1.6854144e-12
4.4900473e-10
-1.5944267e-12
4.484654e-10
1.5093951e-12
4.4897644e-10
-1.430162e-12
4.4849183e-10
1.3562899e-12
4.4895191e-10
-1.2876093e-12
4.4851467e-10
1.2237693e-12
4.4893078e-10
-1.1645992e-12
4.4853427e-10
1.1098169e-12
4.4891272e-10
-1.0592588e-12
4.4855093e-10
1.0126977e-12
4.4889747e-10
-9.69983e-13
4.485649e-10
9.309312e-13
4.4888477e-10
-8.9540943e-13
4.485764e-10
8.6326862e-13
4.4887445e-10
-8.3439798e-13
4.4858562e-10
8.0867215e-13
4.4886635e-10
-7.8600619e-13
4.4859267e-10
7.6633239e-13
4.4886025e-10
-7.4936706e-13
4.485975e-10
7.3569236e-13
4.4885631e-10
-7.2496199e-13
4.4860442e-10
7.0802194e-13
4.4887886e-10
-7.5098251e-13
6.7666121e-13
6.1563067e-10
8.385264e-09
6.5437485e-10
-7.9119482e-11
6.1956047e-10
8.6984275e-11
6.1983441e-10
1.2820277e-12
6.1994982e-10
-3.157606e-12
6.1822554e-10
7.1209073e-12
6.1981959e-10
-6.558244e-12
6.1824626e-10
6.3908017e-12
6.1977236e-10
-6.1053386e-12
6.1832534e-10
5.7771488e-12
6.1968676e-10
-5.4349099e-12
6.1840055e-10
5.127561e-12
6.1960933e-10
-4.8218982e-12
6.1847004e-10
4.5428504e-12
6.1954228e-10
-4.2762148e-12
6.1853228e-10
4.0278661e-12
6.1948369e-10
-3.7940967e-12
6.1858736e-10
3.5747241e-12
6.1943225e-10
-3.369264e-12
6.1863588e-10
3.1761164e-12
6.1938704e-10
-2.995534e-12
6.1867852e-10
2.825827e-12
6.1934735e-10
-2.6672961e-12
6.187159e-10
2.5184794e-12
6.1931257e-10
-2.3795745e-12
6.187486e-10
2.2493838e-12
6.1928217e-10
-2.1279948e-12
6.1877712e-10
2.0144426e-12
6.1925569e-10
-1.9087294e-12
6.188019e-10
1.8100813e-12
6.1923273e-10
-1.7184421e-12
6.1882331e-10
1.6331911e-12
6.1921295e-10
-1.5542366e-12
6.1884168e-10
1.4810803e-12
6.1919604e-10
-1.4136127e-12
6.188573e-10
1.3514327e-12
6.1918175e-10
-1.2944268e-12
6.1887041e-10
1.2422713e-12
6.1916986e-10
-1.1948589e-12
6.188812e-10
1.1519272e-12
6.1916018e-10
-1.1133848e-12
6.1888984e-10
1.0790108e-12
6.1915258e-10
-1.0487402e-12
6.1889647e-10
1.022442e-12
6.1914681e-10
-9.9970664e-13
6.1890094e-10
9.815592e-13
6.1914291e-10
-9.6693367e-13
6.1890818e-10
9.4275187e-13
6.1917145e-10
-1.0142445e-12
9.004392e-13
7.7111829e-10
1.0071896e-08
8.2514523e-10
-1.3314644e-10
7.8515741e-10
1.269721e-10
7.8584017e-10
5.9926184e-13
7.8549306e-10
-2.8104874e-12
7.8397433e-10
8.639637e-12
7.8543009e-10
-8.0140058e-12
7.8399484e-10
7.8260581e-12
7.8541223e-10
-7.5227291e-12
7.8406799e-10
7.12139e-12
7.8533323e-10
-6.7001548e-12
7.841367e-10
6.3240977e-12
7.8526066e-10
-5.9458621e-12
7.8420098e-10
5.602525e-12
7.8519816e-10
-5.2733891e-12
7.8425883e-10
4.9671933e-12
7.8514369e-10
-4.6789517e-12
7.843101e-10
4.408307e-12
7.8509589e-10
-4.1550557e-12
7.8435528e-10
3.9167257e-12
7.850539e-10
-3.6941507e-12
7.8439499e-10
3.4847412e-12
7.8501703e-10
-3.2893394e-12
7.844298e-10
3.1057119e-12
7.8498471e-10
-2.9344913e-12
7.8446025e-10
2.7738519e-12
7.8495646e-10
-2.6242135e-12
7.844868e-10
2.484108e-12
7.8493186e-10
-2.3537861e-12
7.8450986e-10
2.2320723e-12
7.8491052e-10
-2.1190941e-12
7.845298e-10
2.0139109e-12
7.8489213e-10
-1.9165656e-12
7.845469e-10
1.8263042e-12
7.8487641e-10
-1.743116e-12
7.8456144e-10
1.666395e-12
7.8486312e-10
-1.5961003e-12
7.8457364e-10
1.5317438e-12
7.8485206e-10
-1.4732722e-12
7.8458369e-10
1.4202899e-12
7.8484306e-10
-1.3727477e-12
7.8459176e-10
1.3303129e-12
7.8483598e-10
-1.2929597e-12
7.8459794e-10
1.2604783e-12
7.8483056e-10
-1.2323269e-12
7.8460204e-10
1.2100755e-12
7.8482669e-10
-1.1915827e-12
7.8460934e-10
1.1601025e-12
7.8485964e-10
-1.2645443e-12
1.106778e-12
9.2802421e-10
1.1601622e-08
9.901053e-10
-1.9522753e-10
9.4608281e-10
1.7099459e-10
9.471052e-10
-4.2313362e-13
9.4639581e-10
-2.1010881e-12
9.4510975e-10
9.9256913e-12
9.4643325e-10
-9.3375053e-12
9.4514059e-10
9.1187223e-12
9.4644797e-10
-8.8301138e-12
9.4520906e-10
8.3603018e-12
9.4637599e-10
-7.8670843e-12
9.4527135e-10
7.4287367e-12
9.4630845e-10
-6.9829621e-12
9.4533034e-10
6.5806335e-12
9.4625062e-10
-6.1936696e-12
9.4538369e-10
5.8341253e-12
9.4620036e-10
-5.4956245e-12
9.4543105e-10
5.1776192e-12
9.4615631e-10
-4.8803094e-12
9.454728e-10
4.6002268e-12
9.461176e-10
-4.3389444e-12
9.4550949e-10
4.0928449e-12
9.4608361e-10
-3.8634543e-12
9.4554166e-10
3.6476597e-12
9.4605382e-10
-3.4466459e-12
9.4556979e-10
3.2578728e-12
9.4602777e-10
-3.0821869e-12
9.4559433e-10
2.917549e-12
9.4600507e-10
-2.7645337e-12
9.4561564e-10
2.6215113e-12
9.4598539e-10
-2.4888531e-12
9.4563405e-10
2.3652569e-12
9.4596843e-10
-2.2509487e-12
9.4564985e-10
2.1448864e-12
9.4595393e-10
-2.0471963e-12
9.4566328e-10
1.9570429e-12
9.4594167e-10
-1.874488e-12
9.4567455e-10
1.7988594e-12
9.4593146e-10
-1.7301821e-12
9.4568384e-10
1.667912e-12
9.4592316e-10
-1.6120615e-12
9.456913e-10
1.5621722e-12
9.4591661e-10
-1.5182751e-12
9.4569702e-10
1.4800667e-12
9.4591157e-10
-1.4468723e-12
9.4570075e-10
1.4208903e-12
9.4590773e-10
-1.3985612e-12
9.457079e-10
1.3599336e-12
9.4594373e-10
-1.500371e-12
1.2947868e-12
1.0720542e-09
1.2987317e-08
1.1476324e-09
-2.7080575e-10
1.1023933e-09
2.1623368e-10
1.1035984e-09
-1.6281727e-12
1.10265e-09
-1.1527376e-12
1.1016323e-09
1.0943369e-11
1.1028304e-09
-1.0535513e-11
1.1016833e-09
1.0265759e-11
1.1028801e-09
-1.0026851e-11
1.1017482e-09
9.4921717e-12
1.1028154e-09
-8.9342939e-12
1.1018042e-09
8.439956e-12
1.102753e-09
-7.9318208e-12
1.1018578e-09
7.4758473e-12
1.1027e-09
-7.0358139e-12
1.1019066e-09
6.6274936e-12
1.102654e-09
-6.2430098e-12
1.10195e-09
5.8816273e-12
1.1026137e-09
-5.5440444e-12
1.1019882e-09
5.2257036e-12
1.1025783e-09
-4.9290452e-12
1.1020219e-09
4.6493249e-12
1.1025473e-09
-4.3888689e-12
1.1020513e-09
4.1436003e-12
1.10252e-09
-3.9153525e-12
1.1020771e-09
3.7008038e-12
1.1024962e-09
-3.501305e-12
1.1020996e-09
3.3141932e-12
1.1024755e-09
-3.1404293e-12
1.1021191e-09
2.977888e-12
1.1024575e-09
-2.8272343e-12
1.102136e-09
2.6867729e-12
1.102442e-09
-2.5569523e-12
1.1021504e-09
2.4364179e-12
1.1024287e-09
-2.3254649e-12
1.1021627e-09
2.2230085e-12
1.1024175e-09
-2.1292394e-12
1.1021731e-09
2.0432859e-12
1.1024081e-09
-1.9652718e-12
1.1021816e-09
1.8944925e-12
1.1024005e-09
-1.831038e-12
1.1021884e-09
1.7743144e-12
1.1023946e-09
-1.7244236e-12
1.1021937e-09
1.6809556e-12
1.1023899e-09
-1.6431068e-12
1.102197e-09
1.6137682e-12
1.1023861e-09
-1.5876495e-12
1.1022039e-09
1.5421843e-12
1.102424e-09
-1.720474e-12
1.464011e-12
1.2175092e-09
1.4227558e-08
1.3000003e-09
-3.5329689e-10
1.2540755e-09
2.6215858e-10
1.2552744e-09
-2.8271166e-12
1.2542502e-09
-1.2853086e-13
1.2535445e-09
1.1649088e-11
1.2546233e-09
-1.1614363e-11
1.2536232e-09
1.1265871e-11
1.254709e-09
-1.1112647e-11
1.2536851e-09
1.0516108e-11
1.2546518e-09
-9.900992e-12
1.2537349e-09
9.3568605e-12
1.2545947e-09
-8.7916408e-12
1.2537831e-09
8.2873859e-12
1.2545464e-09
-7.7990956e-12
1.2538273e-09
7.346615e-12
1.2545048e-09
-6.9204596e-12
1.2538667e-09
6.5197275e-12
1.2544683e-09
-6.1456851e-12
1.2539014e-09
5.7926208e-12
1.2544363e-09
-5.4639422e-12
1.2539319e-09
5.153706e-12
1.2544082e-09
-4.8651299e-12
1.2539586e-09
4.5931114e-12
1.2543835e-09
-4.340209e-12
1.253982e-09
4.1022696e-12
1.2543619e-09
-3.8812106e-12
1.2540024e-09
3.6737069e-12
1.2543432e-09
-3.481155e-12
1.2540201e-09
3.3009047e-12
1.2543269e-09
-3.1339548e-12
1.2540354e-09
2.9781932e-12
1.2543128e-09
-2.8343237e-12
1.2540486e-09
2.7006611e-12
1.2543008e-09
-2.5776954e-12
1.2540597e-09
2.4640788e-12
1.2542906e-09
-2.3601514e-12
1.2540691e-09
2.2648316e-12
1.2542822e-09
-2.1783585e-12
1.2540768e-09
2.0998583e-12
1.2542753e-09
-2.0295122e-12
1.254083e-09
1.9665832e-12
1.2542698e-09
-1.9112561e-12
1.2540878e-09
1.8630035e-12
1.2542656e-09
-1.8209008e-12
1.2540908e-09
1.7885769e-12
1.2542619e-09
-1.75874e-12
1.2540972e-09
1.7068649e-12
1.2543006e-09
-1.9238307e-12
1.6143305e-12
1.3545511e-09
1.5330757e-08
1.4448316e-09
-4.4357739e-10
1.4011604e-09
3.0582977e-10
1.4021232e-09
-3.7898821e-12
1.4011873e-09
8.0735191e-13
1.4008476e-09
1.1988768e-11
1.4018141e-09
-1.2580902e-11
1.4009607e-09
1.2119259e-11
1.4019355e-09
-1.2087356e-11
1.4010196e-09
1.143201e-11
1.4018854e-09
-1.0766876e-11
1.4010632e-09
1.0179123e-11
1.4018337e-09
-9.5621216e-12
1.4011061e-09
9.0149521e-12
1.4017902e-09
-8.4832377e-12
1.4011456e-09
7.9912311e-12
1.4017529e-09
-7.5277247e-12
1.4011809e-09
7.0916924e-12
1.4017202e-09
-6.6850098e-12
1.4012121e-09
6.3007769e-12
1.4016916e-09
-5.9434393e-12
1.4012395e-09
5.6058095e-12
1.4016664e-09
-5.2920637e-12
1.4012635e-09
4.9960347e-12
1.4016443e-09
-4.7210619e-12
1.4012845e-09
4.4621299e-12
1.401625e-09
-4.2217683e-12
1.4013028e-09
3.9959654e-12
1.4016082e-09
-3.7865913e-12
1.4013187e-09
3.5904515e-12
1.4015936e-09
-3.4089087e-12
1.4013324e-09
3.2394205e-12
1.401581e-09
-3.0829697e-12
1.4013442e-09
2.9375298e-12
1.4015703e-09
-2.8038054e-12
1.4013542e-09
2.6801775e-12
1.4015612e-09
-2.5671515e-12
1.4013626e-09
2.4634293e-12
1.4015536e-09
-2.3693783e-12
1.4013695e-09
2.2839505e-12
1.4015474e-09
-2.2074286e-12
1.4013751e-09
2.1389279e-12
1.4015426e-09
-2.0787255e-12
1.4013794e-09
2.0261677e-12
1.4015387e-09
-1.9802207e-12
1.401382e-09
1.9452773e-12
1.4015351e-09
-1.9118231e-12
1.4013879e-09
1.8540514e-12
1.4015737e-09
-2.1096223e-12
1.7458568e-12
1.4880759e-09
1.6300431e-08
1.5848648e-09
-5.4036626e-10
1.5436291e-09
3.4706552e-10
1.5442251e-09
-4.3859539e-12
1.5434836e-09
1.5488722e-12
1.5435429e-09
1.192947e-11
1.544403e-09
-1.3441026e-11
1.5436955e-09
1.2826754e-11
1.5445596e-09
-1.2951431e-11
1.5437514e-09
1.2240274e-11
1.5445166e-09
-1.153216e-11
1.5437889e-09
1.0906894e-11
1.5444702e-09
-1.0243419e-11
1.5438264e-09
9.6586771e-12
1.5444316e-09
-9.088367e-12
1.5438613e-09
8.561464e-12
1.5443985e-09
-8.0649143e-12
1.5438926e-09
7.5976315e-12
1.5443697e-09
-7.1621149e-12
1.5439202e-09
6.7502695e-12
1.5443444e-09
-6.3676222e-12
1.5439445e-09
6.0057225e-12
1.5443222e-09
-5.6697478e-12
1.5439657e-09
5.3524481e-12
1.5443027e-09
-5.0579811e-12
1.5439843e-09
4.7804548e-12
1.5442856e-09
-4.5230417e-12
1.5440005e-09
4.2810327e-12
1.5442707e-09
-4.0567964e-12
1.5440146e-09
3.8465864e-12
1.5442579e-09
-3.6521501e-12
1.5440268e-09
3.4705083e-12
1.5442467e-09
-3.3029404e-12
1.5440372e-09
3.1470739e-12
1.5442372e-09
-3.0038423e-12
1.5440461e-09
2.8713517e-12
1.5442292e-09
-2.7502848e-12
1.5440535e-09
2.6391241e-12
1.5442225e-09
-2.538375e-12
1.5440596e-09
2.4468135e-12
1.544217e-09
-2.3648306e-12
1.5440646e-09
2.2913931e-12
1.5442127e-09
-2.2268769e-12
1.5440684e-09
2.1704951e-12
1.5442093e-09
-2.1211193e-12
1.5440706e-09
2.0839147e-12
1.5442058e-09
-2.0469771e-12
1.544076e-09
1.9838815e-12
1.5442436e-09
-2.2772146e-12
1.8588779e-12
1.6197266e-09
1.7138454e-08
1.7173558e-09
-6.3799544e-10
1.681308e-09
3.8311331e-10
1.6817564e-09
-4.834327e-12
1.6812127e-09
2.0925615e-12
1.6816418e-09
1.1500383e-11
1.6823935e-09
-1.4192752e-11
1.6818281e-09
1.3392209e-11
1.6825819e-09
-1.3705292e-11
1.6818803e-09
1.2941897e-11
1.6825456e-09
-1.2197484e-11
1.6819117e-09
1.1540771e-11
1.6825044e-09
-1.0836095e-11
1.681944e-09
1.0219082e-11
1.6824706e-09
-9.6149748e-12
1.6819743e-09
9.0577793e-12
1.6824419e-09
-8.5324611e-12
1.6820015e-09
8.0379593e-12
1.6824168e-09
-7.5773838e-12
1.6820256e-09
7.1414668e-12
1.6823948e-09
-6.7368322e-12
1.6820468e-09
6.3537724e-12
1.6823755e-09
-5.9984862e-12
1.6820653e-09
5.6626435e-12
1.6823586e-09
-5.3512388e-12
1.6820815e-09
5.0575053e-12
1.6823437e-09
-4.7852748e-12
1.6820956e-09
4.5291426e-12
1.6823308e-09
-4.29199e-12
1.6821079e-09
4.0695202e-12
1.6823196e-09
-3.8638774e-12
1.6821185e-09
3.6716473e-12
1.68231e-09
-3.4944161e-12
1.6821276e-09
3.3294671e-12
1.6823017e-09
-3.1779709e-12
1.6821353e-09
3.0377607e-12
1.6822947e-09
-2.9097032e-12
1.6821418e-09
2.7920636e-12
1.6822889e-09
-2.6854904e-12
1.6821471e-09
2.5885853e-12
1.6822841e-09
-2.5018524e-12
1.6821514e-09
2.4241107e-12
1.6822804e-09
-2.3558392e-12
1.6821547e-09
2.2961143e-12
1.6822774e-09
-2.2437285e-12
1.6821567e-09
2.2046117e-12
1.682274e-09
-2.164359e-12
1.6821614e-09
2.0965507e-12
1.6823103e-09
-2.426142e-12
1.9538245e-12
1.7413816e-09
1.7854823e-08
1.8453492e-09
-7.4196311e-10
1.81426e-09
4.1420251e-10
1.8147226e-09
-5.2969006e-12
1.8144036e-09
2.4115668e-12
1.8151466e-09
1.0757392e-11
1.8157864e-09
-1.48326e-11
1.8153583e-09
1.3820319e-11
1.8160027e-09
-1.434961e-11
1.8154062e-09
1.3538361e-11
1.8159726e-09
-1.2763876e-11
1.8154316e-09
1.2081749e-11
1.8159366e-09
-1.134108e-11
1.8154586e-09
1.0697037e-11
1.8159075e-09
-1.0063882e-11
1.8154844e-09
9.4809527e-12
1.815883e-09
-8.9310901e-12
1.8155076e-09
8.4133649e-12
1.8158617e-09
-7.9314595e-12
1.8155282e-09
7.4749811e-12
1.815843e-09
-7.0516408e-12
1.8155462e-09
6.6505037e-12
1.8158265e-09
-6.2787882e-12
1.8155621e-09
5.9271061e-12
1.8158121e-09
-5.6012896e-12
1.8155759e-09
5.2937146e-12
1.8157995e-09
-5.0088746e-12
1.815588e-09
4.7406833e-12
1.8157885e-09
-4.4925374e-12
1.8155984e-09
4.2596016e-12
1.815779e-09
-4.0444197e-12
1.8156075e-09
3.8431522e-12
1.8157707e-09
-3.6576948e-12
1.8156152e-09
3.4849947e-12
1.8157637e-09
-3.3264625e-12
1.8156218e-09
3.1796651e-12
1.8157578e-09
-3.0456557e-12
1.8156273e-09
2.9224875e-12
1.8157528e-09
-2.810955e-12
1.8156319e-09
2.7094892e-12
1.8157488e-09
-2.6187097e-12
1.8156356e-09
2.5372913e-12
1.8157456e-09
-2.4658182e-12
1.8156384e-09
2.4032278e-12
1.815743e-09
-2.3482517e-12
1.81564e-09
2.307561e-12
1.8157399e-09
-2.2641956e-12
1.8156441e-09
2.1923083e-12
1.815774e-09
-2.556092e-12
2.0312419e-12
1.8692081e-09
1.8443365e-08
1.966735e-09
-8.3948995e-10
1.9424871e-09
4.384504e-10
1.9430813e-09
-5.8911369e-12
1.9430433e-09
2.4495839e-12
1.9440571e-09
9.7435514e-12
1.9445823e-09
-1.535777e-11
1.9442868e-09
1.4115825e-11
1.9448223e-09
-1.4885123e-11
1.944329e-09
1.4031676e-11
1.9447978e-09
-1.3232651e-11
1.9443483e-09
1.253122e-11
1.9447669e-09
-1.175962e-11
1.9443702e-09
1.1093736e-11
1.9447425e-09
-1.0436201e-11
1.9443914e-09
9.8320404e-12
1.9447221e-09
-9.2617884e-12
1.9444107e-09
8.7247851e-12
1.9447044e-09
-8.225218e-12
1.9444278e-09
7.7516441e-12
1.9446889e-09
-7.312827e-12
1.9444428e-09
6.8966562e-12
1.9446753e-09
-6.5113475e-12
1.944456e-09
6.1464947e-12
1.9446634e-09
-5.8087525e-12
1.9444675e-09
5.4896709e-12
1.944653e-09
-5.1943946e-12
1.9444775e-09
4.916181e-12
1.9446439e-09
-4.6589351e-12
1.9444862e-09
4.4173032e-12
1.944636e-09
-4.194224e-12
1.9444937e-09
3.9854491e-12
1.9446292e-09
-3.7931807e-12
1.9445001e-09
3.6140428e-12
1.9446234e-09
-3.4496847e-12
1.9445056e-09
3.2974169e-12
1.9446184e-09
-3.1584787e-12
1.9445102e-09
3.0307195e-12
1.9446143e-09
-2.9150792e-12
1.944514e-09
2.8098255e-12
1.944611e-09
-2.7156926e-12
1.944517e-09
2.6312172e-12
1.9446083e-09
-2.5570882e-12
1.9445194e-09
2.4921054e-12
1.9446061e-09
-2.4349568e-12
1.9445207e-09
2.3930188e-12
1.9446033e-09
-2.3467763e-12
1.9445241e-09
2.2714529e-12
1.9446349e-09
-2.6668919e-12
2.0917641e-12
1.97994e-09
1.8921175e-08
2.083862e-09
-9.4341198e-10
2.0660225e-09
4.5629e-10
2.0668772e-09
-6.7458366e-12
2.0671417e-09
2.18503e-12
2.0683786e-09
8.5066804e-12
2.0687817e-09
-1.5760939e-11
2.0686134e-09
1.4284139e-11
2.0690411e-09
-1.5312753e-11
2.0686486e-09
1.4424184e-11
2.0690214e-09
-1.3605464e-11
2.0686617e-09
1.2890881e-11
2.0689954e-09
-1.209326e-11
2.0686784e-09
1.1410655e-11
2.0689755e-09
-1.073331e-11
2.0686952e-09
1.0112347e-11
2.0689592e-09
-9.5257784e-12
2.0687106e-09
8.973378e-12
2.0689452e-09
-8.4597447e-12
2.0687243e-09
7.9724844e-12
2.0689328e-09
-7.5213554e-12
2.0687364e-09
7.0931444e-12
2.068922e-09
-6.6970232e-12
2.0687469e-09
6.3216241e-12
2.0689125e-09
-5.9743937e-12
2.0687561e-09
5.6461014e-12
2.0689042e-09
-5.3425201e-12
2.0687641e-09
5.0562865e-12
2.068897e-09
-4.7917975e-12
2.0687711e-09
4.5432091e-12
2.0688907e-09
-4.3138431e-12
2.0687771e-09
4.0990643e-12
2.0688853e-09
-3.9013731e-12
2.0687822e-09
3.7170883e-12
2.0688806e-09
-3.548091e-12
2.0687866e-09
3.3914505e-12
2.0688767e-09
-3.2485872e-12
2.0687903e-09
3.1171584e-12
2.0688734e-09
-2.9982459e-12
2.0687933e-09
2.8899637e-12
2.0688708e-09
-2.7931577e-12
2.0687958e-09
2.7062348e-12
2.0688687e-09
-2.6299862e-12
2.0687977e-09
2.5630772e-12
2.0688669e-09
-2.5041702e-12
2.0687986e-09
2.4612988e-12
2.0688643e-09
-2.4124459e-12
2.0688014e-09
2.3343286e-12
2.068893e-09
-2.7584959e-12
2.1360926e-12
2.1032229e-09
1.9275702e-08
2.1953863e-09
-1.0355754e-09
2.1849562e-09
4.667201e-10
2.1861246e-09
-7.9142088e-12
2.1866808e-09
1.6287562e-12
2.1881092e-09
7.0782695e-12
2.1883838e-09
-1.6035527e-11
2.1883377e-09
1.4330259e-11
2.1886589e-09
-1.5633926e-11
2.1883646e-09
1.4718442e-11
2.1886435e-09
-1.3884304e-11
2.1883717e-09
1.31627e-11
2.1886222e-09
-1.2343815e-11
2.1883833e-09
1.1649518e-11
2.1886069e-09
-1.0956824e-11
2.1883958e-09
1.0323403e-11
2.1885945e-09
-9.7244932e-12
2.1884074e-09
9.1604997e-12
2.188584e-09
-8.6363118e-12
2.1884177e-09
8.1387065e-12
2.1885747e-09
-7.6783573e-12
2.1884268e-09
7.2410394e-12
2.1885666e-09
-6.8368223e-12
2.1884348e-09
6.4534483e-12
2.1885595e-09
-6.0991116e-12
2.1884418e-09
5.7638575e-12
2.1885533e-09
-5.4540538e-12
2.1884478e-09
5.1617617e-12
2.1885479e-09
-4.8918442e-12
2.1884531e-09
4.6380031e-12
2.1885432e-09
-4.4039243e-12
2.1884576e-09
4.1846141e-12
2.1885391e-09
-3.9828569e-12
2.1884615e-09
3.7946888e-12
2.1885356e-09
-3.6222127e-12
2.1884648e-09
3.462274e-12
2.1885327e-09
-3.3164666e-12
2.1884676e-09
3.1822702e-12
2.1885302e-09
-3.0609026e-12
2.1884699e-09
2.9503354e-12
2.1885282e-09
-2.8515219e-12
2.1884717e-09
2.7627486e-12
2.1885266e-09
-2.684905e-12
2.1884732e-09
2.6165278e-12
2.1885253e-09
-2.5562706e-12
2.1884738e-09
2.5127667e-12
2.188523e-09
-2.4615981e-12
2.188476e-09
2.3813204e-12
2.1885484e-09
-2.8309725e-12
2.1649777e-12
2.2062398e-09
1.9527212e-08
2.3028526e-09
-1.1321882e-09
2.2993816e-09
4.701911e-10
2.3008591e-09
-9.3917487e-12
2.3016552e-09
8.3268601e-13
2.303252e-09
5.481425e-12
2.3033893e-09
-1.6172754e-11
2.3034598e-09
1.4259741e-11
2.303676e-09
-1.585017e-11
2.3034771e-09
1.4917339e-11
2.3036642e-09
-1.4071397e-11
2.303478e-09
1.3348911e-11
2.3036475e-09
-1.2513333e-11
2.3034848e-09
1.1812277e-11
2.3036365e-09
-1.1108569e-11
2.303493e-09
1.0466934e-11
2.3036281e-09
-9.8595528e-12
2.3035009e-09
9.2876829e-12
2.3036209e-09
-8.7563581e-12
2.303508e-09
8.2516712e-12
2.3036147e-09
-7.7851116e-12
2.3035142e-09
7.3415515e-12
2.3036093e-09
-6.9318835e-12
2.3035197e-09
6.5430452e-12
2.3036045e-09
-6.1839217e-12
2.3035244e-09
5.8439014e-12
2.3036003e-09
-5.5299037e-12
2.3035286e-09
5.2334674e-12
2.3035966e-09
-4.959889e-12
2.3035322e-09
4.702458e-12
2.3035934e-09
-4.4651992e-12
2.3035353e-09
4.2427945e-12
2.3035907e-09
-4.038293e-12
2.3035379e-09
3.8474748e-12
2.3035883e-09
-3.6726499e-12
2.3035402e-09
3.5104614e-12
2.3035864e-09
-3.3626658e-12
2.303542e-09
3.2265818e-12
2.3035847e-09
-3.1035549e-12
2.3035436e-09
2.9914283e-12
2.3035833e-09
-2.8912555e-12
2.3035449e-09
2.8012149e-12
2.3035823e-09
-2.7222879e-12
2.3035459e-09
2.6528903e-12
2.3035813e-09
-2.5916839e-12
2.3035462e-09
2.5478345e-12
2.3035793e-09
-2.4946703e-12
2.3035478e-09
2.4128509e-12
2.3036013e-09
-2.8844942e-12
2.1792023e-12
2.3228956e-09
1.9662066e-08
2.4056005e-09
-1.2148931e-09
2.409373e-09
4.6641858e-10
2.4111358e-09
-1.115454e-11
2.412051e-09
-8.2485847e-14
2.4138065e-09
3.7259089e-12
2.4137977e-09
-1.6163986e-11
2.4139793e-09
1.407818e-11
2.4140925e-09
-1.5963348e-11
2.4139859e-09
1.5023936e-11
2.4140837e-09
-1.4169244e-11
2.4139807e-09
1.3451948e-11
2.4140714e-09
-1.2604079e-11
2.4139826e-09
1.190108e-11
2.4140646e-09
-1.1190559e-11
2.4139867e-09
1.0544844e-11
2.4140599e-09
-9.9327442e-12
2.413991e-09
9.3566159e-12
2.4140561e-09
-8.8214701e-12
2.4139949e-09
8.3128785e-12
2.4140528e-09
-7.843029e-12
2.4139983e-09
7.3960145e-12
2.4140499e-09
-6.9834627e-12
2.4140014e-09
6.591603e-12
2.4140474e-09
-6.229944e-12
2.414004e-09
5.8872935e-12
2.4140452e-09
-5.5710707e-12
2.4140063e-09
5.2723523e-12
2.4140432e-09
-4.9968288e-12
2.4140082e-09
4.7374251e-12
2.4140415e-09
-4.4984748e-12
2.4140099e-09
4.2743728e-12
2.4140401e-09
-4.0684101e-12
2.4140114e-09
3.8761407e-12
2.4140388e-09
-3.7000643e-12
2.4140126e-09
3.5366454e-12
2.4140378e-09
-3.3877894e-12
2.4140137e-09
3.2506733e-12
2.4140369e-09
-3.1267601e-12
2.4140145e-09
3.0137793e-12
2.4140361e-09
-2.912877e-12
2.4140152e-09
2.8221362e-12
2.4140355e-09
-2.7426229e-12
2.4140158e-09
2.6726418e-12
2.414035e-09
-2.6108776e-12
2.4140159e-09
2.5669561e-12
2.4140333e-09
-2.5121379e-12
2.4140168e-09
2.4293762e-12
2.4140516e-09
-2.9193271e-12
2.1795693e-12
2.4231555e-09
1.9696661e-08
2.5046247e-09
-1.2963623e-09
2.5149212e-09
4.5612211e-10
2.5170032e-09
-1.3236583e-11
2.5178729e-09
-9.5212713e-13
2.5197767e-09
1.8220755e-12
2.5196102e-09
-1.5997486e-11
2.5198963e-09
1.3792052e-11
2.5199083e-09
-1.5975367e-11
2.5198908e-09
1.5041519e-11
2.5199021e-09
-1.4180552e-11
2.5198796e-09
1.3474443e-11
2.519894e-09
-1.2618508e-11
2.5198768e-09
1.1918248e-11
2.5198913e-09
-1.1204973e-11
2.5198769e-09
1.0559192e-11
2.5198902e-09
-9.9460009e-12
2.5198777e-09
9.3691259e-12
2.5198895e-09
-8.8333652e-12
2.5198785e-09
8.323951e-12
2.5198891e-09
-7.8536361e-12
2.5198792e-09
7.4058716e-12
2.5198887e-09
-6.992919e-12
2.5198799e-09
6.6004071e-12
2.5198883e-09
-6.2383905e-12
2.5198804e-09
5.895181e-12
2.519888e-09
-5.5786381e-12
2.5198809e-09
5.279443e-12
2.5198877e-09
-5.0036346e-12
2.5198813e-09
4.7438258e-12
2.5198875e-09
-4.5046243e-12
2.5198817e-09
4.2801792e-12
2.5198872e-09
-4.073997e-12
2.519882e-09
3.8814384e-12
2.5198871e-09
-3.7051722e-12
2.5198822e-09
3.5415106e-12
2.5198869e-09
-3.392492e-12
2.5198824e-09
3.255173e-12
2.5198868e-09
-3.1311212e-12
2.5198826e-09
3.0179698e-12
2.5198866e-09
-2.9169475e-12
2.5198827e-09
2.8260563e-12
2.5198865e-09
-2.7464379e-12
2.5198829e-09
2.6762977e-12
2.5198864e-09
-2.6143569e-12
2.5198827e-09
2.5706223e-12
2.5198851e-09
-2.5145098e-12
2.5198831e-09
2.4313826e-12
2.5198995e-09
-2.9358216e-12
2.1668897e-12
2.5343596e-09
1.9620051e-08
2.5995081e-09
-1.3615108e-09
2.6160553e-09
4.3957494e-10
2.6184114e-09
-1.559272e-11
2.6191238e-09
-1.6645416e-12
2.6211596e-09
-2.1374326e-13
2.6208261e-09
-1.5663953e-11
2.6212099e-09
1.3408214e-11
2.6211232e-09
-1.5888608e-11
2.6211914e-09
1.4973336e-11
2.6211192e-09
-1.4108361e-11
2.6211745e-09
1.3419116e-11
2.6211153e-09
-1.2559279e-11
2.6211673e-09
1.1866236e-11
2.6211164e-09
-1.1154147e-11
2.6211635e-09
1.0512168e-11
2.6211189e-09
-9.9013885e-12
2.6211608e-09
9.3271596e-12
2.6211213e-09
-8.793876e-12
2.6211587e-09
8.2866188e-12
2.6211236e-09
-7.8185619e-12
2.6211568e-09
7.3726615e-12
2.6211256e-09
-6.9617025e-12
2.6211552e-09
6.5708284e-12
2.6211273e-09
-6.2105545e-12
2.6211537e-09
5.8687875e-12
2.6211288e-09
-5.5537617e-12
2.6211525e-09
5.2558344e-12
2.6211302e-09
-4.9813424e-12
2.6211513e-09
4.722643e-12
2.6211313e-09
-4.4845791e-12
2.6211504e-09
4.2610993e-12
2.6211323e-09
-4.0558951e-12
2.6211495e-09
3.8641696e-12
2.6211331e-09
-3.6887377e-12
2.6211488e-09
3.5257873e-12
2.6211338e-09
-3.3774724e-12
2.6211482e-09
3.2407509e-12
2.6211344e-09
-3.1172819e-12
2.6211477e-09
3.00462e-12
2.6211349e-09
-2.9040658e-12
2.6211474e-09
2.8135553e-12
2.6211352e-09
-2.7342961e-12
2.6211471e-09
2.6644079e-12
2.6211354e-09
-2.6026598e-12
2.6211467e-09
2.5593572e-12
2.6211345e-09
-2.5023244e-12
2.6211465e-09
2.4193833e-12
2.6211451e-09
-2.9344035e-12
2.1419738e-12
2.6313152e-09
1.9446486e-08
2.6910114e-09
-1.421207e-09
2.7127514e-09
4.1783502e-10
2.7152326e-09
-1.8073935e-11
2.7158071e-09
-2.2390542e-12
2.7179491e-09
-2.3557782e-12
2.7174445e-09
-1.5159348e-11
2.7179192e-09
1.2933483e-11
2.7177366e-09
-1.5705927e-11
2.7178873e-09
1.4822601e-11
2.7177349e-09
-1.3955996e-11
2.7178653e-09
1.3288772e-11
2.7177352e-09
-1.2429232e-11
2.7178538e-09
1.1747614e-11
2.7177403e-09
-1.1040554e-11
2.7178463e-09
1.0406076e-11
2.717746e-09
-9.8010889e-12
2.7178404e-09
9.2327689e-12
2.7177515e-09
-8.7049366e-12
2.7178354e-09
8.202706e-12
2.7177564e-09
-7.739525e-12
2.717831e-09
7.2980071e-12
2.7177607e-09
-6.891343e-12
2.7178272e-09
6.5043126e-12
2.7177644e-09
-6.1478002e-12
2.7178238e-09
5.8094036e-12
2.7177677e-09
-5.4976608e-12
2.7178209e-09
5.2026813e-12
2.7177706e-09
-4.9310448e-12
2.7178183e-09
4.6749132e-12
2.717773e-09
-4.4393224e-12
2.7178161e-09
4.2180673e-12
2.7177752e-09
-4.0149925e-12
2.7178142e-09
3.8251804e-12
2.717777e-09
-3.6515674e-12
2.7178125e-09
3.4902465e-12
2.7177785e-09
-3.3434678e-12
2.7178112e-09
3.2081144e-12
2.7177798e-09
-3.0859217e-12
2.71781e-09
2.9743846e-12
2.7177808e-09
-2.8748638e-12
2.7178091e-09
2.7852455e-12
2.7177816e-09
-2.7067922e-12
2.7178085e-09
2.6375524e-12
2.7177822e-09
-2.5763535e-12
2.7178078e-09
2.5337141e-12
2.7177817e-09
-2.4761453e-12
2.7178071e-09
2.3939151e-12
2.7177883e-09
-2.9155667e-12
2.1056231e-12
2.7358852e-09
1.9168351e-08
2.7787341e-09
-1.4640559e-09
2.8050259e-09
3.9154319e-10
2.8074407e-09
-2.0488711e-11
2.807939e-09
-2.7374022e-12
2.8101398e-09
-4.5565002e-12
2.809466e-09
-1.448555e-11
2.8100246e-09
1.2374831e-11
2.8097487e-09
-1.5430069e-11
2.8099786e-09
1.4592756e-11
2.8097495e-09
-1.3726875e-11
2.8099519e-09
1.3086373e-11
2.809754e-09
-1.2231325e-11
2.8099365e-09
1.1565074e-11
2.8097627e-09
-1.0866779e-11
2.8099255e-09
1.0243326e-11
2.8097718e-09
-9.6473824e-12
2.8099164e-09
9.0880975e-12
2.8097801e-09
-8.5685687e-12
2.8099087e-09
8.0741187e-12
2.8097875e-09
-7.6183219e-12
2.8099019e-09
7.1836042e-12
2.809794e-09
-6.7834395e-12
2.8098959e-09
6.4023705e-12
2.8097997e-09
-6.0515535e-12
2.8098907e-09
5.7183778e-12
2.8098046e-09
-5.4116099e-12
2.8098861e-09
5.1211905e-12
2.809809e-09
-4.8538843e-12
2.8098822e-09
4.60172e-12
2.8098127e-09
-4.3698817e-12
2.8098787e-09
4.1520598e-12
2.8098159e-09
-3.9522175e-12
2.8098758e-09
3.7653554e-12
2.8098187e-09
-3.5945046e-12
2.8098733e-09
3.4356939e-12
2.809821e-09
-3.2912492e-12
2.8098712e-09
3.1580031e-12
2.809823e-09