/*--------------------------------*- C++ -*----------------------------------*\
| =========                 |                                                 |
| \\      /  F ield         | OpenFOAM: The Open Source CFD Toolbox           |
|  \\    /   O peration     | Version:  2312                                  |
|   \\  /    A nd           | Website:  www.openfoam.com                      |
|    \\/     M anipulation  |                                                 |
\*---------------------------------------------------------------------------*/
FoamFile
{
    version     2.0;
    format      ascii;
    arch        "LSB;label=32;scalar=64";
    class       volSymmTensorField;
    location    "10";
    object      sigma_0;
}
// * * * * * * * * * * * * * * * * * * * * * * * * * * * * * * * * * * * * * //

dimensions      [0 2 -2 0 0 0 0];

internalField   nonuniform List<symmTensor> 
4000
(
(-1.4184292 -0.61985398 0 -0.23052894 0 0)
(-2.8604894 -0.30962782 0 -0.00084067013 0 0)
(-1.9743967 -0.25693939 0 -0.00027475638 0 0)
(-2.1390856 -0.26715218 0 -3.2716507e-05 0 0)
(-2.0106725 -0.25868708 0 4.4552619e-05 0 0)
(-2.1015958 -0.26489449 0 -5.3970543e-05 0 0)
(-2.0163486 -0.25904786 0 4.9653663e-05 0 0)
(-2.0938327 -0.26438183 0 -4.7609309e-05 0 0)
(-2.0215376 -0.25940321 0 4.4843753e-05 0 0)
(-2.0891433 -0.26406394 0 -4.2339391e-05 0 0)
(-2.0256284 -0.25968641 0 3.9801528e-05 0 0)
(-2.0852042 -0.26379506 0 -3.7519384e-05 0 0)
(-2.0292008 -0.25993393 0 3.5282455e-05 0 0)
(-2.0817624 -0.26355968 0 -3.3245998e-05 0 0)
(-2.032376 -0.26015372 0 3.1283263e-05 0 0)
(-2.0787257 -0.26335185 0 -2.9480311e-05 0 0)
(-2.0351974 -0.26034881 0 2.7755574e-05 0 0)
(-2.0760378 -0.26316782 0 -2.6164649e-05 0 0)
(-2.0377035 -0.26052192 0 2.4648514e-05 0 0)
(-2.0736546 -0.26300463 0 -2.3247412e-05 0 0)
(-2.0399306 -0.26067558 0 2.1915545e-05 0 0)
(-2.0715386 -0.26285974 0 -2.0683736e-05 0 0)
(-2.0419116 -0.26081212 0 1.9515298e-05 0 0)
(-2.0696571 -0.26273094 0 -1.8434439e-05 0 0)
(-2.0436763 -0.2609336 0 1.7411335e-05 0 0)
(-2.067981 -0.26261626 0 -1.6465234e-05 0 0)
(-2.0452512 -0.26104186 0 1.5571698e-05 0 0)
(-2.0664846 -0.26251395 0 -1.474615e-05 0 0)
(-2.04666 -0.26113855 0 1.3968448e-05 0 0)
(-2.0651452 -0.26242247 0 -1.3251042e-05 0 0)
(-2.047924 -0.26122514 0 1.2577245e-05 0 0)
(-2.0639421 -0.26234042 0 -1.1957185e-05 0 0)
(-2.0490621 -0.26130294 0 1.1376975e-05 0 0)
(-2.062857 -0.26226656 0 -1.0844928e-05 0 0)
(-2.0500916 -0.26137313 0 1.0349434e-05 0 0)
(-2.0618734 -0.26219977 0 -9.8973973e-06 0 0)
(-2.0510279 -0.26143677 0 9.4790701e-06 0 0)
(-2.0609763 -0.26213903 0 -9.1002624e-06 0 0)
(-2.0518853 -0.26149482 0 8.752766e-06 0 0)
(-2.060152 -0.26208343 0 -8.4415553e-06 0 0)
(-2.0526766 -0.26154818 0 8.1597134e-06 0 0)
(-2.0593881 -0.26203211 0 -7.9115898e-06 0 0)
(-2.0534139 -0.26159764 0 7.6913655e-06 0 0)
(-2.0586729 -0.26198432 0 -7.5032293e-06 0 0)
(-2.0541079 -0.26164392 0 7.3414346e-06 0 0)
(-2.0579943 -0.26193924 0 -7.2120029e-06 0 0)
(-2.0547683 -0.26168764 0 7.1157106e-06 0 0)
(-2.0573559 -0.26189695 0 -6.9996068e-06 0 0)
(-2.0555012 -0.26173494 0 7.1692705e-06 0 0)
(-2.0571567 -0.26188363 0 -6.9765279e-06 0 0)
(-1.2591918 -0.56996965 0 -0.21648039 0 0)
(-2.5231048 -0.2942121 0 -0.0029175702 0 0)
(-1.8938285 -0.25290479 0 -0.00084625366 0 0)
(-1.975263 -0.25673825 0 -3.4338289e-05 0 0)
(-1.8685605 -0.2492789 0 3.0175628e-05 0 0)
(-1.9443363 -0.25488753 0 -5.9993028e-05 0 0)
(-1.8712667 -0.24945349 0 5.2896191e-05 0 0)
(-1.9376598 -0.25442007 0 -5.1923367e-05 0 0)
(-1.8756183 -0.24977595 0 4.9146206e-05 0 0)
(-1.9336823 -0.25412937 0 -4.6522592e-05 0 0)
(-1.8791252 -0.25003997 0 4.3710925e-05 0 0)
(-1.9303005 -0.25387883 0 -4.1259974e-05 0 0)
(-1.8821881 -0.250271 0 3.8773845e-05 0 0)
(-1.9273376 -0.25365875 0 -3.6553373e-05 0 0)
(-1.8849116 -0.25047625 0 3.4387254e-05 0 0)
(-1.9247234 -0.2534644 0 -3.2409796e-05 0 0)
(-1.8873325 -0.25065849 0 3.0512499e-05 0 0)
(-1.9224096 -0.25329231 0 -2.8764139e-05 0 0)
(-1.8894834 -0.2508202 0 2.7098186e-05 0 0)
(-1.9203582 -0.25313971 0 -2.5557515e-05 0 0)
(-1.8913951 -0.25096377 0 2.4094558e-05 0 0)
(-1.9185368 -0.25300422 0 -2.2739867e-05 0 0)
(-1.893096 -0.25109135 0 2.1456573e-05 0 0)
(-1.916917 -0.25288376 0 -2.0267922e-05 0 0)
(-1.8946114 -0.25120486 0 1.9144314e-05 0 0)
(-1.915474 -0.2527765 0 -1.8103957e-05 0 0)
(-1.8959643 -0.25130604 0 1.7122711e-05 0 0)
(-1.9141855 -0.25268081 0 -1.6215041e-05 0 0)
(-1.8971748 -0.25139642 0 1.5361089e-05 0 0)
(-1.9130318 -0.25259522 0 -1.4572464e-05 0 0)
(-1.8982612 -0.25147737 0 1.3832731e-05 0 0)
(-1.9119954 -0.25251846 0 -1.3151295e-05 0 0)
(-1.8992399 -0.25155012 0 1.2514481e-05 0 0)
(-1.9110602 -0.25244933 0 -1.1929996e-05 0 0)
(-1.9001257 -0.25161576 0 1.1386409e-05 0 0)
(-1.9102122 -0.25238681 0 -1.0890121e-05 0 0)
(-1.9009318 -0.2516753 0 1.0431538e-05 0 0)
(-1.9094384 -0.25232994 0 -1.0016075e-05 0 0)
(-1.9016705 -0.25172964 0 9.6356589e-06 0 0)
(-1.9087269 -0.25227786 0 -9.294977e-06 0 0)
(-1.9023529 -0.2517796 0 8.9872659e-06 0 0)
(-1.908067 -0.25222978 0 -8.716691e-06 0 0)
(-1.9029894 -0.25182594 0 8.4776762e-06 0 0)
(-1.9074484 -0.25218497 0 -8.2747092e-06 0 0)
(-1.9035895 -0.25186934 0 8.1008254e-06 0 0)
(-1.9068608 -0.2521427 0 -7.9679665e-06 0 0)
(-1.9041604 -0.25191024 0 7.874606e-06 0 0)
(-1.9062984 -0.25210222 0 -7.710415e-06 0 0)
(-1.9047655 -0.2519512 0 8.2442539e-06 0 0)
(-1.9060407 -0.25208352 0 -7.5760848e-06 0 0)
(-1.1825928 -0.54056235 0 -0.20351669 0 0)
(-2.2883059 -0.27928262 0 -0.003418221 0 0)
(-1.8117746 -0.24842128 0 -0.0012700278 0 0)
(-1.8732408 -0.2501054 0 -5.8628043e-05 0 0)
(-1.7758286 -0.24294096 0 1.4140086e-05 0 0)
(-1.8429133 -0.24820743 0 -5.9513749e-05 0 0)
(-1.7770904 -0.24303025 0 5.020146e-05 0 0)
(-1.8366707 -0.2477571 0 -5.0097367e-05 0 0)
(-1.7809246 -0.24333358 0 4.7656997e-05 0 0)
(-1.8331043 -0.24748313 0 -4.5155045e-05 0 0)
(-1.7840782 -0.24358564 0 4.2406025e-05 0 0)
(-1.8300696 -0.24724491 0 -4.0074404e-05 0 0)
(-1.7868312 -0.24380601 0 3.7630336e-05 0 0)
(-1.8274067 -0.24703519 0 -3.5495555e-05 0 0)
(-1.789279 -0.24400177 0 3.3379404e-05 0 0)
(-1.825057 -0.24684995 0 -3.1468103e-05 0 0)
(-1.7914551 -0.24417559 0 2.962037e-05 0 0)
(-1.8229776 -0.24668593 0 -2.7927027e-05 0 0)
(-1.7933888 -0.24432985 0 2.6306574e-05 0 0)
(-1.8211341 -0.24654049 0 -2.4813198e-05 0 0)
(-1.7951077 -0.24446681 0 2.3390902e-05 0 0)
(-1.8194973 -0.24641134 0 -2.2077336e-05 0 0)
(-1.7966373 -0.24458853 0 2.0830011e-05 0 0)
(-1.8180417 -0.24629651 0 -1.9677226e-05 0 0)
(-1.7980003 -0.24469685 0 1.8585279e-05 0 0)
(-1.816745 -0.24619425 0 -1.7576194e-05 0 0)
(-1.7992172 -0.2447934 0 1.6622709e-05 0 0)
(-1.8155871 -0.24610301 0 -1.5742256e-05 0 0)
(-1.8003061 -0.24487966 0 1.4912555e-05 0 0)
(-1.8145502 -0.24602139 0 -1.4147555e-05 0 0)
(-1.8012836 -0.24495694 0 1.3428915e-05 0 0)
(-1.8136187 -0.24594816 0 -1.2767911e-05 0 0)
(-1.8021643 -0.2450264 0 1.2149351e-05 0 0)
(-1.8127781 -0.24588221 0 -1.158246e-05 0 0)
(-1.8029614 -0.24508909 0 1.1054581e-05 0 0)
(-1.8120156 -0.24582254 0 -1.0573374e-05 0 0)
(-1.8036871 -0.24514598 0 1.0128235e-05 0 0)
(-1.8113196 -0.24576823 0 -9.725652e-06 0 0)
(-1.8043521 -0.24519791 0 9.3567081e-06 0 0)
(-1.8106796 -0.24571848 0 -9.0270421e-06 0 0)
(-1.8049667 -0.24524568 0 8.7291877e-06 0 0)
(-1.8100856 -0.24567252 0 -8.4681901e-06 0 0)
(-1.8055402 -0.24529001 0 8.2379574e-06 0 0)
(-1.8095286 -0.24562966 0 -8.0440135e-06 0 0)
(-1.8060811 -0.24533156 0 7.8781293e-06 0 0)
(-1.8089991 -0.24558921 0 -7.7577017e-06 0 0)
(-1.8065959 -0.24537073 0 7.6739923e-06 0 0)
(-1.8084894 -0.24555018 0 -7.5059709e-06 0 0)
(-1.8071338 -0.24540857 0 8.2498112e-06 0 0)
(-1.8082161 -0.24553057 0 -7.7638574e-06 0 0)
(-1.1299606 -0.51201353 0 -0.18733959 0 0)
(-2.1015634 -0.26791596 0 -0.0040382144 0 0)
(-1.7276597 -0.24381167 0 -0.0017332 0 0)
(-1.7745186 -0.24350811 0 -8.5923591e-05 0 0)
(-1.6850917 -0.23661902 0 -1.0943085e-05 0 0)
(-1.7448466 -0.24153717 0 -5.3968126e-05 0 0)
(-1.6849971 -0.23660912 0 4.2663913e-05 0 0)
(-1.7388572 -0.24109795 0 -4.363151e-05 0 0)
(-1.6883363 -0.23689137 0 4.1911635e-05 0 0)
(-1.7356119 -0.24083974 0 -3.9735551e-05 0 0)
(-1.6911859 -0.23713141 0 3.7307391e-05 0 0)
(-1.7328626 -0.24061352 0 -3.5309146e-05 0 0)
(-1.6936778 -0.23734113 0 3.3122885e-05 0 0)
(-1.7304469 -0.24041387 0 -3.1265779e-05 0 0)
(-1.6958929 -0.2375274 0 2.9389349e-05 0 0)
(-1.728315 -0.2402375 0 -2.7713477e-05 0 0)
(-1.6978625 -0.23769281 0 2.608239e-05 0 0)
(-1.7264286 -0.24008133 0 -2.459331e-05 0 0)
(-1.6996128 -0.23783962 0 2.3165173e-05 0 0)
(-1.7247563 -0.23994283 0 -2.1850638e-05 0 0)
(-1.7011689 -0.23796998 0 2.0597814e-05 0 0)
(-1.7232718 -0.23981984 0 -1.9441167e-05 0 0)
(-1.7025537 -0.23808585 0 1.8342657e-05 0 0)
(-1.7219518 -0.23971048 0 -1.7327465e-05 0 0)
(-1.7037878 -0.23818897 0 1.6365853e-05 0 0)
(-1.7207758 -0.23961308 0 -1.5477171e-05 0 0)
(-1.7048896 -0.2382809 0 1.4637519e-05 0 0)
(-1.7197259 -0.23952616 0 -1.3862116e-05 0 0)
(-1.7058756 -0.23836305 0 1.3131489e-05 0 0)
(-1.7187859 -0.2394484 0 -1.2457778e-05 0 0)
(-1.7067607 -0.23843666 0 1.1824979e-05 0 0)
(-1.7179414 -0.23937861 0 -1.1242888e-05 0 0)
(-1.7075582 -0.23850284 0 1.069826e-05 0 0)
(-1.7171794 -0.23931573 0 -1.019911e-05 0 0)
(-1.70828 -0.2385626 0 9.7344015e-06 0 0)
(-1.7164884 -0.23925882 0 -9.310805e-06 0 0)
(-1.7089371 -0.23861684 0 8.9190678e-06 0 0)
(-1.7158577 -0.23920702 0 -8.5648687e-06 0 0)
(-1.7095393 -0.23866639 0 8.2404195e-06 0 0)
(-1.7152777 -0.23915952 0 -7.9507026e-06 0 0)
(-1.7100958 -0.23871199 0 7.6892048e-06 0 0)
(-1.7147395 -0.23911562 0 -7.4604285e-06 0 0)
(-1.7106151 -0.23875434 0 7.2591483e-06 0 0)
(-1.714235 -0.23907465 0 -7.090581e-06 0 0)
(-1.7111049 -0.23879407 0 6.9462661e-06 0 0)
(-1.7137552 -0.23903597 0 -6.8477055e-06 0 0)
(-1.711571 -0.23883155 0 6.7792601e-06 0 0)
(-1.7132912 -0.23899832 0 -6.6013763e-06 0 0)
(-1.7120499 -0.23886646 0 7.5670367e-06 0 0)
(-1.7130029 -0.23897749 0 -7.1575628e-06 0 0)
(-1.0873338 -0.48691912 0 -0.17303075 0 0)
(-1.9177301 -0.25643158 0 -0.0045379071 0 0)
(-1.6364254 -0.23845296 0 -0.0021240116 0 0)
(-1.6778907 -0.23692548 0 -0.00012716215 0 0)
(-1.5960491 -0.23027499 0 -3.7641113e-05 0 0)
(-1.6497656 -0.23487983 0 -4.8872839e-05 0 0)
(-1.5950942 -0.23017928 0 3.5341357e-05 0 0)
(-1.6439851 -0.23444742 0 -3.7185146e-05 0 0)
(-1.5979816 -0.23044126 0 3.6248025e-05 0 0)
(-1.6409998 -0.23420303 0 -3.4326355e-05 0 0)
(-1.6005617 -0.23067013 0 3.2240318e-05 0 0)
(-1.6384967 -0.23398795 0 -3.0558944e-05 0 0)
(-1.6028275 -0.23087004 0 2.8635531e-05 0 0)
(-1.6362964 -0.23379773 0 -2.7051141e-05 0 0)
(-1.6048415 -0.23104754 0 2.5415795e-05 0 0)
(-1.6343542 -0.23362962 0 -2.3972713e-05 0 0)
(-1.6066324 -0.23120516 0 2.2558666e-05 0 0)
(-1.6326359 -0.23348077 0 -2.1271999e-05 0 0)
(-1.6082241 -0.23134508 0 2.0036216e-05 0 0)
(-1.6311129 -0.23334876 0 -1.8899102e-05 0 0)
(-1.6096393 -0.23146932 0 1.7815621e-05 0 0)
(-1.6297609 -0.23323153 0 -1.6814762e-05 0 0)
(-1.6108987 -0.23157976 0 1.586485e-05 0 0)
(-1.628559 -0.23312728 0 -1.498633e-05 0 0)
(-1.6120211 -0.23167806 0 1.4154786e-05 0 0)
(-1.6274884 -0.23303442 0 -1.3385749e-05 0 0)
(-1.6130232 -0.23176571 0 1.2659633e-05 0 0)
(-1.6265327 -0.23295155 0 -1.1988642e-05 0 0)
(-1.61392 -0.23184404 0 1.1356778e-05 0 0)
(-1.6256771 -0.23287739 0 -1.0773806e-05 0 0)
(-1.614725 -0.23191424 0 1.0226524e-05 0 0)
(-1.6249086 -0.23281083 0 -9.7228566e-06 0 0)
(-1.6154502 -0.23197736 0 9.2518254e-06 0 0)
(-1.6242153 -0.23275085 0 -8.8199572e-06 0 0)
(-1.6161065 -0.23203438 0 8.4180632e-06 0 0)
(-1.6235867 -0.23269654 0 -8.0516159e-06 0 0)
(-1.6167039 -0.23208615 0 7.7128837e-06 0 0)
(-1.6230131 -0.23264709 0 -7.4065628e-06 0 0)
(-1.6172513 -0.23213345 0 7.1261298e-06 0 0)
(-1.6224858 -0.23260173 0 -6.8757438e-06 0 0)
(-1.6177571 -0.23217701 0 6.6499608e-06 0 0)
(-1.6219967 -0.23255979 0 -6.4525521e-06 0 0)
(-1.6182288 -0.23221748 0 6.2792537e-06 0 0)
(-1.6215382 -0.23252063 0 -6.1346523e-06 0 0)
(-1.6186738 -0.23225548 0 6.0103221e-06 0 0)
(-1.6211025 -0.23248363 0 -5.9307873e-06 0 0)
(-1.619097 -0.23229135 0 5.8724911e-06 0 0)
(-1.6206797 -0.2324474 0 -5.6862951e-06 0 0)
(-1.6195254 -0.23232381 0 6.8100536e-06 0 0)
(-1.6203855 -0.23242574 0 -6.4818771e-06 0 0)
(-1.0482794 -0.46307814 0 -0.15965265 0 0)
(-1.7454675 -0.24508786 0 -0.0048375798 0 0)
(-1.5436119 -0.23258905 0 -0.0024164218 0 0)
(-1.5828182 -0.23031974 0 -0.00018499849 0 0)
(-1.5087834 -0.22391312 0 -6.6453503e-05 0 0)
(-1.557448 -0.22822981 0 -4.5652394e-05 0 0)
(-1.507486 -0.22374416 0 2.9070037e-05 0 0)
(-1.5519356 -0.22780311 0 -3.1711611e-05 0 0)
(-1.5099756 -0.2239864 0 3.1533686e-05 0 0)
(-1.5491739 -0.2275711 0 -2.9754846e-05 0 0)
(-1.5123088 -0.22420452 0 2.7983624e-05 0 0)
(-1.5468891 -0.22736653 0 -2.6557602e-05 0 0)
(-1.5143715 -0.22439513 0 2.485876e-05 0 0)
(-1.5448819 -0.22718525 0 -2.3502365e-05 0 0)
(-1.5162055 -0.2245643 0 2.2070979e-05 0 0)
(-1.54311 -0.227025 0 -2.0822917e-05 0 0)
(-1.5178363 -0.22471453 0 1.9592514e-05 0 0)
(-1.5415424 -0.22688309 0 -1.8475344e-05 0 0)
(-1.5192858 -0.22484789 0 1.7402331e-05 0 0)
(-1.5401531 -0.22675724 0 -1.6413796e-05 0 0)
(-1.5205748 -0.22496633 0 1.5473577e-05 0 0)
(-1.5389201 -0.22664547 0 -1.4603221e-05 0 0)
(-1.5217219 -0.2250716 0 1.3778977e-05 0 0)
(-1.537824 -0.22654607 0 -1.3014987e-05 0 0)
(-1.5227442 -0.22516532 0 1.2293399e-05 0 0)
(-1.5368478 -0.22645753 0 -1.1624653e-05 0 0)
(-1.523657 -0.22524889 0 1.0994485e-05 0 0)
(-1.5359765 -0.2263785 0 -1.0411036e-05 0 0)
(-1.5244739 -0.22532358 0 9.8626053e-06 0 0)
(-1.5351966 -0.22630778 0 -9.3557211e-06 0 0)
(-1.525207 -0.22539053 0 8.8806583e-06 0 0)
(-1.5344962 -0.22624429 0 -8.4427491e-06 0 0)
(-1.5258675 -0.22545074 0 8.0338436e-06 0 0)
(-1.5338645 -0.22618707 0 -7.6583767e-06 0 0)
(-1.5264652 -0.22550513 0 7.3094754e-06 0 0)
(-1.5332918 -0.22613525 0 -6.9909061e-06 0 0)
(-1.5270091 -0.22555453 0 6.6968473e-06 0 0)
(-1.5327693 -0.22608805 0 -6.430584e-06 0 0)
(-1.5275074 -0.22559969 0 6.187182e-06 0 0)
(-1.5322892 -0.22604475 0 -5.9696096e-06 0 0)
(-1.5279677 -0.22564128 0 5.7737588e-06 0 0)
(-1.5318439 -0.22600469 0 -5.6023505e-06 0 0)
(-1.528397 -0.22567995 0 5.4522907e-06 0 0)
(-1.5314267 -0.22596726 0 -5.327196e-06 0 0)
(-1.5288017 -0.22571627 0 5.2190186e-06 0 0)
(-1.5310305 -0.2259319 0 -5.1543137e-06 0 0)
(-1.5291865 -0.22575059 0 5.1019555e-06 0 0)
(-1.5306451 -0.22589709 0 -4.9075133e-06 0 0)
(-1.5295704 -0.2257809 0 6.1406538e-06 0 0)
(-1.5303506 -0.22587475 0 -5.871569e-06 0 0)
(-1.0108491 -0.43671022 0 -0.1441339 0 0)
(-1.5855663 -0.23439155 0 -0.0050766023 0 0)
(-1.4508739 -0.22626531 0 -0.0025942469 0 0)
(-1.4890853 -0.22369186 0 -0.00026736678 0 0)
(-1.4232082 -0.21753463 0 -0.00010053941 0 0)
(-1.4677578 -0.22158489 0 -4.4963502e-05 0 0)
(-1.4221895 -0.21730582 0 2.3268763e-05 0 0)
(-1.4626477 -0.22116337 0 -2.7053677e-05 0 0)
(-1.4243601 -0.2175285 0 2.7514829e-05 0 0)
(-1.4600907 -0.22094242 0 -2.5813794e-05 0 0)
(-1.426467 -0.21773601 0 2.4335734e-05 0 0)
(-1.4580019 -0.22074786 0 -2.3117886e-05 0 0)
(-1.4283447 -0.21791764 0 2.1615101e-05 0 0)
(-1.4561697 -0.22057519 0 -2.0453685e-05 0 0)
(-1.4300154 -0.21807879 0 1.9197545e-05 0 0)
(-1.4545524 -0.22042251 0 -1.8117107e-05 0 0)
(-1.4315012 -0.21822189 0 1.7044378e-05 0 0)
(-1.4531217 -0.2202873 0 -1.6072853e-05 0 0)
(-1.4328219 -0.21834893 0 1.5139653e-05 0 0)
(-1.451854 -0.22016738 0 -1.427875e-05 0 0)
(-1.4339964 -0.21846176 0 1.3461611e-05 0 0)
(-1.4507289 -0.22006088 0 -1.2703349e-05 0 0)
(-1.4350417 -0.21856206 0 1.1987074e-05 0 0)
(-1.4497289 -0.21996617 0 -1.1321456e-05 0 0)
(-1.4359734 -0.21865135 0 1.0694341e-05 0 0)
(-1.4488384 -0.21988179 0 -1.0111736e-05 0 0)
(-1.4368052 -0.21873099 0 9.5640028e-06 0 0)
(-1.4480436 -0.21980648 0 -9.0557433e-06 0 0)
(-1.4375496 -0.21880217 0 8.5789939e-06 0 0)
(-1.4473324 -0.21973907 0 -8.1374574e-06 0 0)
(-1.4382177 -0.21886597 0 7.7244356e-06 0 0)
(-1.4466937 -0.21967855 0 -7.3429967e-06 0 0)
(-1.4388195 -0.21892337 0 6.9874531e-06 0 0)
(-1.4461177 -0.21962399 0 -6.6604115e-06 0 0)
(-1.4393641 -0.21897523 0 6.3570147e-06 0 0)
(-1.4455957 -0.21957458 0 -6.0795364e-06 0 0)
(-1.4398596 -0.21902234 0 5.8238177e-06 0 0)
(-1.4451196 -0.21952956 0 -5.5919067e-06 0 0)
(-1.4403135 -0.21906542 0 5.3802506e-06 0 0)
(-1.4446821 -0.21948824 0 -5.190772e-06 0 0)
(-1.4407327 -0.21910511 0 5.020519e-06 0 0)
(-1.4442765 -0.21945 0 -4.8712865e-06 0 0)
(-1.4411235 -0.21914202 0 4.7409864e-06 0 0)
(-1.4438966 -0.21941427 0 -4.6323349e-06 0 0)
(-1.441492 -0.21917672 0 4.5376967e-06 0 0)
(-1.4435361 -0.21938049 0 -4.4850992e-06 0 0)
(-1.4418421 -0.21920952 0 4.4363568e-06 0 0)
(-1.4431847 -0.2193471 0 -4.2357256e-06 0 0)
(-1.4421865 -0.21923793 0 5.5372356e-06 0 0)
(-1.4428942 -0.21932427 0 -5.3178901e-06 0 0)
(-0.98594508 -0.41771969 0 -0.13322067 0 0)
(-1.4371479 -0.22394014 0 -0.0052188768 0 0)
(-1.3605547 -0.21957987 0 -0.0026450314 0 0)
(-1.3969337 -0.21703281 0 -0.00036646276 0 0)
(-1.339325 -0.21111947 0 -0.00013489654 0 0)
(-1.3805683 -0.21493374 0 -4.4997803e-05 0 0)
(-1.3391732 -0.21086087 0 1.7966134e-05 0 0)
(-1.376068 -0.21452654 0 -2.2918277e-05 0 0)
(-1.3411468 -0.21106763 0 2.3937912e-05 0 0)
(-1.3737248 -0.21431656 0 -2.2282801e-05 0 0)
(-1.3430554 -0.21126495 0 2.1079684e-05 0 0)
(-1.3718158 -0.2141316 0 -2.0039883e-05 0 0)
(-1.344765 -0.21143787 0 1.8714995e-05 0 0)
(-1.3701432 -0.21396726 0 -1.7727225e-05 0 0)
(-1.3462872 -0.21159127 0 1.6627695e-05 0 0)
(-1.3686669 -0.2138219 0 -1.5697461e-05 0 0)
(-1.347641 -0.21172748 0 1.4765414e-05 0 0)
(-1.3673611 -0.21369317 0 -1.3924422e-05 0 0)
(-1.3488445 -0.21184841 0 1.3116007e-05 0 0)
(-1.3662041 -0.21357899 0 -1.2369455e-05 0 0)
(-1.3499148 -0.21195581 0 1.1662201e-05 0 0)
(-1.3651774 -0.21347759 0 -1.1004346e-05 0 0)
(-1.3508675 -0.2120513 0 1.0384486e-05 0 0)
(-1.364265 -0.21338741 0 -9.8069696e-06 0 0)
(-1.3517167 -0.21213631 0 9.2642299e-06 0 0)
(-1.3634525 -0.21330706 0 -8.7587608e-06 0 0)
(-1.3524748 -0.21221213 0 8.2846615e-06 0 0)
(-1.3627275 -0.21323534 0 -7.8437207e-06 0 0)
(-1.3531533 -0.21227992 0 7.4310043e-06 0 0)
(-1.3620788 -0.21317114 0 -7.0479667e-06 0 0)
(-1.3537622 -0.21234068 0 6.6903679e-06 0 0)
(-1.3614963 -0.21311349 0 -6.3594725e-06 0 0)
(-1.3543107 -0.21239535 0 6.0515966e-06 0 0)
(-1.3609711 -0.21306152 0 -5.7678883e-06 0 0)
(-1.354807 -0.21244476 0 5.5051332e-06 0 0)
(-1.3604952 -0.21301444 0 -5.2644129e-06 0 0)
(-1.3552585 -0.21248965 0 5.0429236e-06 0 0)
(-1.3600612 -0.21297153 0 -4.8417243e-06 0 0)
(-1.3556721 -0.21253071 0 4.6583867e-06 0 0)
(-1.3596625 -0.21293213 0 -4.4939949e-06 0 0)
(-1.3560539 -0.21256856 0 4.3465335e-06 0 0)
(-1.3592929 -0.21289567 0 -4.2170509e-06 0 0)
(-1.3564098 -0.21260376 0 4.1042681e-06 0 0)
(-1.3589469 -0.21286158 0 -4.0101344e-06 0 0)
(-1.3567453 -0.21263688 0 3.9274202e-06 0 0)
(-1.3586187 -0.21282934 0 -3.8851549e-06 0 0)
(-1.357064 -0.21266822 0 3.8389215e-06 0 0)
(-1.3582984 -0.21279736 0 -3.6344047e-06 0 0)
(-1.3573733 -0.21269492 0 4.9708308e-06 0 0)
(-1.3580151 -0.21277421 0 -4.7990088e-06 0 0)
(-0.96041797 -0.39260227 0 -0.11782313 0 0)
(-1.3015998 -0.21416546 0 -0.0053049683 0 0)
(-1.272514 -0.21234962 0 -0.0025378652 0 0)
(-1.3065384 -0.21040512 0 -0.00049490411 0 0)
(-1.2575532 -0.20471264 0 -0.00017129135 0 0)
(-1.2959309 -0.20828252 0 -4.5602421e-05 0 0)
(-1.2584766 -0.20440975 0 1.3248189e-05 0 0)
(-1.2921704 -0.20789166 0 -1.9100357e-05 0 0)
(-1.2603475 -0.20460328 0 2.0741175e-05 0 0)
(-1.290055 -0.20769321 0 -1.9059608e-05 0 0)
(-1.2620881 -0.20479122 0 1.8135012e-05 0 0)
(-1.2883152 -0.2075177 0 -1.7242564e-05 0 0)
(-1.2636461 -0.20495583 0 1.608444e-05 0 0)
(-1.2867892 -0.20736144 0 -1.5252316e-05 0 0)
(-1.2650332 -0.20510175 0 1.4295392e-05 0 0)
(-1.285442 -0.20722316 0 -1.3501505e-05 0 0)
(-1.2662666 -0.2052313 0 1.269694e-05 0 0)
(-1.2842503 -0.20710069 0 -1.1974634e-05 0 0)
(-1.2673632 -0.20534632 0 1.1279254e-05 0 0)
(-1.2831946 -0.20699207 0 -1.0636676e-05 0 0)
(-1.2683385 -0.20544849 0 1.0028976e-05 0 0)
(-1.2822579 -0.20689559 0 -9.4624018e-06 0 0)
(-1.2692067 -0.20553933 0 8.9299089e-06 0 0)
(-1.2814255 -0.20680978 0 -8.4324716e-06 0 0)
(-1.2699805 -0.2056202 0 7.9662014e-06 0 0)
(-1.2806844 -0.20673334 0 -7.5308336e-06 0 0)
(-1.2706714 -0.20569234 0 7.1234761e-06 0 0)
(-1.2800231 -0.20666508 0 -6.7437059e-06 0 0)
(-1.2712897 -0.20575684 0 6.3890333e-06 0 0)
(-1.2794315 -0.20660399 0 -6.0591436e-06 0 0)
(-1.2718446 -0.20581466 0 5.7517853e-06 0 0)
(-1.2789003 -0.20654912 0 -5.4668021e-06 0 0)
(-1.2723445 -0.2058667 0 5.2021343e-06 0 0)
(-1.2784215 -0.20649965 0 -4.95778e-06 0 0)
(-1.2727967 -0.20591373 0 4.7318585e-06 0 0)
(-1.2779876 -0.20645482 0 -4.5245096e-06 0 0)
(-1.2732081 -0.20595647 0 4.3340311e-06 0 0)
(-1.277592 -0.20641395 0 -4.1606982e-06 0 0)
(-1.2735848 -0.20599558 0 4.0029965e-06 0 0)
(-1.2772287 -0.20637643 0 -3.8613424e-06 0 0)
(-1.2739327 -0.20603163 0 3.7344785e-06 0 0)
(-1.276892 -0.20634168 0 -3.6228546e-06 0 0)
(-1.2742568 -0.20606518 0 3.5258408e-06 0 0)
(-1.2765769 -0.20630918 0 -3.4447326e-06 0 0)
(-1.2745623 -0.20609676 0 3.3727151e-06 0 0)
(-1.2762781 -0.20627845 0 -3.3393544e-06 0 0)
(-1.2748524 -0.20612668 0 3.2950401e-06 0 0)
(-1.2759863 -0.20624786 0 -3.0887747e-06 0 0)
(-1.2751302 -0.20615184 0 4.4316439e-06 0 0)
(-1.2757123 -0.20622454 0 -4.3092205e-06 0 0)
(-0.94484159 -0.37729058 0 -0.1090803 0 0)
(-1.1796656 -0.20471279 0 -0.0053424378 0 0)
(-1.1848184 -0.2051431 0 -0.0025027353 0 0)
(-1.2215225 -0.20362312 0 -0.00052086941 0 0)
(-1.1787077 -0.19824915 0 -0.00018351115 0 0)
(-1.2142439 -0.20163343 0 -4.2764899e-05 0 0)
(-1.1802744 -0.19795668 0 9.4211917e-06 0 0)
(-1.2110039 -0.20126154 0 -1.5629958e-05 0 0)
(-1.1820041 -0.19813676 0 1.7820484e-05 0 0)
(-1.2090772 -0.2010729 0 -1.6135046e-05 0 0)
(-1.1835834 -0.19831508 0 1.5455279e-05 0 0)
(-1.2074888 -0.20090621 0 -1.4696571e-05 0 0)
(-1.1850013 -0.19847157 0 1.3690923e-05 0 0)
(-1.2060966 -0.20075772 0 -1.2999944e-05 0 0)
(-1.1862644 -0.19861026 0 1.2172854e-05 0 0)
(-1.2048677 -0.20062627 0 -1.1503172e-05 0 0)
(-1.1873877 -0.19873339 0 1.0814417e-05 0 0)
(-1.2037807 -0.20050985 0 -1.0200318e-05 0 0)
(-1.1883865 -0.19884271 0 9.6076157e-06 0 0)
(-1.2028178 -0.20040658 0 -9.0598208e-06 0 0)
(-1.1892748 -0.19893981 0 8.5425731e-06 0 0)
(-1.2019635 -0.20031486 0 -8.0591953e-06 0 0)
(-1.1900656 -0.19902616 0 7.6060955e-06 0 0)
(-1.2012044 -0.20023328 0 -7.1816343e-06 0 0)
(-1.1907705 -0.19910304 0 6.7848641e-06 0 0)
(-1.2005287 -0.2001606 0 -6.4133698e-06 0 0)
(-1.1913999 -0.19917162 0 6.0666778e-06 0 0)
(-1.1999258 -0.2000957 0 -5.7426357e-06 0 0)
(-1.1919632 -0.19923294 0 5.4407261e-06 0 0)
(-1.1993865 -0.2000376 0 -5.1592483e-06 0 0)
(-1.1924686 -0.19928792 0 4.8975607e-06 0 0)
(-1.1989023 -0.19998542 0 -4.6543913e-06 0 0)
(-1.1929239 -0.19933741 0 4.4290001e-06 0 0)
(-1.1984659 -0.19993836 0 -4.220479e-06 0 0)
(-1.1933358 -0.19938215 0 4.0280347e-06 0 0)
(-1.1980706 -0.19989572 0 -3.8510622e-06 0 0)
(-1.1937105 -0.19942281 0 3.6887597e-06 0 0)
(-1.1977101 -0.19985683 0 -3.5407791e-06 0 0)
(-1.1940536 -0.19946002 0 3.4063538e-06 0 0)
(-1.1973792 -0.19982112 0 -3.2853656e-06 0 0)
(-1.1943703 -0.19949434 0 3.1771753e-06 0 0)
(-1.1970726 -0.19978803 0 -3.0817494e-06 0 0)
(-1.1946654 -0.19952629 0 2.9989815e-06 0 0)
(-1.1967857 -0.19975708 0 -2.9296051e-06 0 0)
(-1.1949435 -0.19955638 0 2.8672419e-06 0 0)
(-1.1965138 -0.1997278 0 -2.8415373e-06 0 0)
(-1.1952075 -0.19958491 0 2.7988657e-06 0 0)
(-1.196248 -0.1996986 0 -2.5927706e-06 0 0)
(-1.195457 -0.19960868 0 3.9177115e-06 0 0)
(-1.1959851 -0.19967523 0 -3.8482622e-06 0 0)
(-0.92454772 -0.35343634 0 -0.09495724 0 0)
(-1.0744792 -0.19575613 0 -0.0051744546 0 0)
(-1.0984396 -0.19801568 0 -0.002515503 0 0)
(-1.1420028 -0.19664972 0 -0.00042425098 0 0)
(-1.1026176 -0.19166598 0 -0.00015645186 0 0)
(-1.1353836 -0.19495615 0 -2.983902e-05 0 0)
(-1.1045104 -0.19148827 0 8.7591762e-06 0 0)
(-1.1325174 -0.19463084 0 -1.1722737e-05 0 0)
(-1.1061121 -0.19166618 0 1.5371694e-05 0 0)
(-1.1307703 -0.19445479 0 -1.3409162e-05 0 0)
(-1.1075495 -0.19183633 0 1.3031991e-05 0 0)
(-1.1293238 -0.19429696 0 -1.2368582e-05 0 0)
(-1.1088403 -0.19198511 0 1.1510924e-05 0 0)
(-1.1280553 -0.19415601 0 -1.0945425e-05 0 0)
(-1.10999 -0.19211685 0 1.0237759e-05 0 0)
(-1.1269352 -0.19403117 0 -9.6810726e-06 0 0)
(-1.1110124 -0.19223378 0 9.0978657e-06 0 0)
(-1.1259445 -0.19392058 0 -8.5825647e-06 0 0)
(-1.1119215 -0.1923376 0 8.0833191e-06 0 0)
(-1.1250669 -0.19382249 0 -7.6221046e-06 0 0)
(-1.11273 -0.19242982 0 7.1871837e-06 0 0)
(-1.1242884 -0.19373536 0 -6.7797963e-06 0 0)
(-1.1134499 -0.19251183 0 6.3989692e-06 0 0)
(-1.1235967 -0.19365787 0 -6.0411525e-06 0 0)
(-1.1140915 -0.19258485 0 5.7076585e-06 0 0)
(-1.122981 -0.19358882 0 -5.3944866e-06 0 0)
(-1.1146645 -0.19265 0 5.1030345e-06 0 0)
(-1.1224318 -0.19352716 0 -4.8298689e-06 0 0)
(-1.1151772 -0.19270825 0 4.5760078e-06 0 0)
(-1.1219405 -0.19347196 0 -4.33872e-06 0 0)
(-1.1156373 -0.19276049 0 4.1186244e-06 0 0)
(-1.1214995 -0.19342237 0 -3.9136156e-06 0 0)
(-1.1160518 -0.19280751 0 3.7239928e-06 0 0)
(-1.1211021 -0.19337765 0 -3.5481676e-06 0 0)
(-1.1164267 -0.19285003 0 3.3862075e-06 0 0)
(-1.120742 -0.19333712 0 -3.236944e-06 0 0)
(-1.1167677 -0.19288868 0 3.1002917e-06 0 0)
(-1.1204139 -0.19330015 0 -2.975427e-06 0 0)
(-1.11708 -0.19292406 0 2.8621796e-06 0 0)
(-1.1201126 -0.19326618 0 -2.760019e-06 0 0)
(-1.1173682 -0.1929567 0 2.6687977e-06 0 0)
(-1.1198335 -0.19323471 0 -2.5881049e-06 0 0)
(-1.1176366 -0.1929871 0 2.5182441e-06 0 0)
(-1.1195725 -0.19320525 0 -2.4594772e-06 0 0)
(-1.1178895 -0.19301574 0 2.4058774e-06 0 0)
(-1.1193253 -0.19317738 0 -2.3867464e-06 0 0)
(-1.1181297 -0.19304293 0 2.3456861e-06 0 0)
(-1.1190835 -0.19314954 0 -2.141537e-06 0 0)
(-1.1183537 -0.19306542 0 3.4278054e-06 0 0)
(-1.1188327 -0.19312625 0 -3.4158056e-06 0 0)
(-0.91183706 -0.34013418 0 -0.087713383 0 0)
(-0.9891472 -0.18705219 0 -0.0045547482 0 0)
(-1.0134205 -0.19027545 0 -0.0026573156 0 0)
(-1.0622453 -0.18990958 0 -0.00048757593 0 0)
(-1.0285756 -0.18520136 0 -0.00016368503 0 0)
(-1.0590063 -0.18831658 0 -2.692312e-05 0 0)
(-1.0311534 -0.18502864 0 5.9484729e-06 0 0)
(-1.0566934 -0.18800683 0 -8.7319878e-06 0 0)
(-1.0326879 -0.1851942 0 1.2984742e-05 0 0)
(-1.0551278 -0.18783969 0 -1.0958455e-05 0 0)
(-1.0339989 -0.1853554 0 1.080666e-05 0 0)
(-1.0538125 -0.18769002 0 -1.0242541e-05 0 0)
(-1.0351727 -0.18549659 0 9.5171068e-06 0 0)
(-1.0526575 -0.18755628 0 -9.0671315e-06 0 0)
(-1.0362181 -0.1856216 0 8.4682786e-06 0 0)
(-1.0516376 -0.1874378 0 -8.0152057e-06 0 0)
(-1.0371477 -0.18573255 0 7.5282208e-06 0 0)
(-1.0507355 -0.18733285 0 -7.1035073e-06 0 0)
(-1.0379742 -0.18583105 0 6.6894845e-06 0 0)
(-1.0499364 -0.18723975 0 -6.3076325e-06 0 0)
(-1.0387095 -0.18591856 0 5.947811e-06 0 0)
(-1.0492277 -0.18715706 0 -5.6100588e-06 0 0)
(-1.0393641 -0.18599638 0 5.2951776e-06 0 0)
(-1.048598 -0.1870835 0 -4.9984171e-06 0 0)
(-1.0399476 -0.18606568 0 4.7226726e-06 0 0)
(-1.0480376 -0.18701796 0 -4.4629209e-06 0 0)
(-1.0404686 -0.18612751 0 4.2218921e-06 0 0)
(-1.0475378 -0.18695943 0 -3.9953176e-06 0 0)
(-1.0409349 -0.18618279 0 3.7853211e-06 0 0)
(-1.0470906 -0.18690703 0 -3.5884935e-06 0 0)
(-1.0413534 -0.18623238 0 3.4063712e-06 0 0)
(-1.0466894 -0.18685995 0 -3.2362957e-06 0 0)
(-1.0417303 -0.18627702 0 3.0793301e-06 0 0)
(-1.0463278 -0.18681749 0 -2.9334297e-06 0 0)
(-1.0420712 -0.18631739 0 2.7993005e-06 0 0)
(-1.0460002 -0.18677899 0 -2.6753913e-06 0 0)
(-1.0423813 -0.1863541 0 2.5621522e-06 0 0)
(-1.0457018 -0.18674388 0 -2.4584309e-06 0 0)
(-1.0426652 -0.18638771 0 2.3645061e-06 0 0)
(-1.0454278 -0.18671161 0 -2.2795555e-06 0 0)
(-1.0429272 -0.18641873 0 2.2038008e-06 0 0)
(-1.045174 -0.1866817 0 -2.1365589e-06 0 0)
(-1.0431712 -0.18644762 0 2.0784338e-06 0 0)
(-1.0449367 -0.18665369 0 -2.02931e-06 0 0)
(-1.043401 -0.18647485 0 1.9837133e-06 0 0)
(-1.0447122 -0.18662719 0 -1.9702231e-06 0 0)
(-1.0436193 -0.18650074 0 1.9309205e-06 0 0)
(-1.0444924 -0.18660069 0 -1.7303686e-06 0 0)
(-1.0438202 -0.18652206 0 2.9604623e-06 0 0)
(-1.0442545 -0.18657757 0 -3.0109125e-06 0 0)
(-0.89202091 -0.31778256 0 -0.075413757 0 0)
(-0.90949939 -0.17895913 0 -0.0041764459 0 0)
(-0.93794041 -0.18279293 0 -0.0024551948 0 0)
(-0.98647178 -0.18291524 0 -0.00042569505 0 0)
(-0.95728628 -0.17863735 0 -0.00013822688 0 0)
(-0.98528406 -0.18164259 0 -1.5614998e-05 0 0)
(-0.96020157 -0.1785511 0 5.8505578e-06 0 0)
(-0.98349274 -0.18138004 0 -5.2829047e-06 0 0)
(-0.96171856 -0.17871737 0 1.1008305e-05 0 0)
(-0.98212732 -0.18122611 0 -8.6498977e-06 0 0)
(-0.96293272 -0.17887178 0 8.787029e-06 0 0)
(-0.98094317 -0.18108503 0 -8.2867653e-06 0 0)
(-0.96400403 -0.17900597 0 7.6915742e-06 0 0)
(-0.97989544 -0.18095839 0 -7.3444031e-06 0 0)
(-0.96495461 -0.17912455 0 6.8462802e-06 0 0)
(-0.97896848 -0.18084609 0 -6.4879971e-06 0 0)
(-0.96579907 -0.17922973 0 6.089136e-06 0 0)
(-0.97814823 -0.18074658 0 -5.7476502e-06 0 0)
(-0.96654978 -0.17932312 0 5.4115544e-06 0 0)
(-0.97742167 -0.18065831 0 -5.1026555e-06 0 0)
(-0.96721756 -0.17940608 0 4.8115031e-06 0 0)
(-0.97677725 -0.18057989 0 -4.5377536e-06 0 0)
(-0.96781211 -0.17947985 0 4.2831848e-06 0 0)
(-0.97620481 -0.18051014 0 -4.0425286e-06 0 0)
(-0.96834211 -0.17954556 0 3.8196119e-06 0 0)
(-0.97569536 -0.18044799 0 -3.6089364e-06 0 0)
(-0.96881537 -0.17960418 0 3.4140425e-06 0 0)
(-0.97524098 -0.18039249 0 -3.2302608e-06 0 0)
(-0.96923891 -0.1796566 0 3.0604044e-06 0 0)
(-0.97483459 -0.18034279 0 -2.9007307e-06 0 0)
(-0.969619 -0.17970363 0 2.7533612e-06 0 0)
(-0.97446992 -0.18029814 0 -2.615358e-06 0 0)
(-0.96996131 -0.17974597 0 2.4882816e-06 0 0)
(-0.97414131 -0.18025786 0 -2.3698494e-06 0 0)
(-0.97027096 -0.17978427 0 2.2611918e-06 0 0)
(-0.97384372 -0.18022133 0 -2.1605501e-06 0 0)
(-0.97055258 -0.1798191 0 2.0687364e-06 0 0)
(-0.97357256 -0.18018801 0 -1.9844124e-06 0 0)
(-0.97081039 -0.17985099 0 1.9081632e-06 0 0)
(-0.97332368 -0.18015738 0 -1.8389931e-06 0 0)
(-0.97104827 -0.17988043 0 1.7773751e-06 0 0)
(-0.97309326 -0.18012898 0 -1.7224562e-06 0 0)