/*--------------------------------*- C++ -*----------------------------------*\
| =========                 |                                                 |
| \\      /  F ield         | OpenFOAM: The Open Source CFD Toolbox           |
|  \\    /   O peration     | Version:  2312                                  |
|   \\  /    A nd           | Website:  www.openfoam.com                      |
|    \\/     M anipulation  |                                                 |
\*---------------------------------------------------------------------------*/
FoamFile
{
    version     2.0;
    format      ascii;
    arch        "LSB;label=32;scalar=64";
    class       volSymmTensorField;
    location    "10";
    object      sigma;
}
// * * * * * * * * * * * * * * * * * * * * * * * * * * * * * * * * * * * * * //

dimensions      [0 2 -2 0 0 0 0];

internalField   nonuniform List<symmTensor> 
4000
(
(-1.4169176 -0.6192464 0 -0.23030437 0 0)
(-2.8605084 -0.30960874 0 -0.00083005905 0 0)
(-1.9744163 -0.25694047 0 -0.00027444395 0 0)
(-2.139082 -0.26715196 0 -3.2745369e-05 0 0)
(-2.0106796 -0.25868776 0 4.4538444e-05 0 0)
(-2.1015911 -0.26489407 0 -5.3965461e-05 0 0)
(-2.016352 -0.2590482 0 4.9649612e-05 0 0)
(-2.0938303 -0.26438159 0 -4.7606731e-05 0 0)
(-2.0215391 -0.25940338 0 4.4842043e-05 0 0)
(-2.0891423 -0.26406383 0 -4.2338363e-05 0 0)
(-2.025629 -0.25968648 0 3.9800952e-05 0 0)
(-2.0852038 -0.26379501 0 -3.7519094e-05 0 0)
(-2.029201 -0.25993395 0 3.5282343e-05 0 0)
(-2.0817623 -0.26355966 0 -3.3245973e-05 0 0)
(-2.032376 -0.26015372 0 3.1283279e-05 0 0)
(-2.0787257 -0.26335185 0 -2.9480327e-05 0 0)
(-2.0351974 -0.26034881 0 2.7755576e-05 0 0)
(-2.0760378 -0.26316782 0 -2.6164624e-05 0 0)
(-2.0377036 -0.26052192 0 2.4648464e-05 0 0)
(-2.0736546 -0.26300463 0 -2.3247335e-05 0 0)
(-2.0399306 -0.26067558 0 2.1915448e-05 0 0)
(-2.0715386 -0.26285974 0 -2.0683624e-05 0 0)
(-2.0419117 -0.26081212 0 1.9515176e-05 0 0)
(-2.069657 -0.26273093 0 -1.8434313e-05 0 0)
(-2.0436764 -0.2609336 0 1.7411211e-05 0 0)
(-2.0679809 -0.26261625 0 -1.6465115e-05 0 0)
(-2.0452513 -0.26104187 0 1.5571587e-05 0 0)
(-2.0664846 -0.26251395 0 -1.4746049e-05 0 0)
(-2.0466601 -0.26113856 0 1.3968359e-05 0 0)
(-2.0651451 -0.26242247 0 -1.3250965e-05 0 0)
(-2.047924 -0.26122515 0 1.257718e-05 0 0)
(-2.063942 -0.26234042 0 -1.1957132e-05 0 0)
(-2.0490622 -0.26130294 0 1.1376932e-05 0 0)
(-2.0628569 -0.26226656 0 -1.0844895e-05 0 0)
(-2.0500916 -0.26137313 0 1.0349411e-05 0 0)
(-2.0618734 -0.26219977 0 -9.8973812e-06 0 0)
(-2.051028 -0.26143677 0 9.4790603e-06 0 0)
(-2.0609763 -0.26213903 0 -9.1002576e-06 0 0)
(-2.0518853 -0.26149482 0 8.7527654e-06 0 0)
(-2.060152 -0.26208343 0 -8.4415578e-06 0 0)
(-2.0526766 -0.26154818 0 8.1597182e-06 0 0)
(-2.0593881 -0.26203211 0 -7.9115962e-06 0 0)
(-2.0534139 -0.26159764 0 7.691373e-06 0 0)
(-2.0586729 -0.26198432 0 -7.5032374e-06 0 0)
(-2.0541079 -0.26164392 0 7.3414431e-06 0 0)
(-2.0579943 -0.26193924 0 -7.2120116e-06 0 0)
(-2.0547683 -0.26168764 0 7.1157193e-06 0 0)
(-2.0573559 -0.26189695 0 -6.9996154e-06 0 0)
(-2.0555012 -0.26173494 0 7.1692793e-06 0 0)
(-2.0571567 -0.26188363 0 -6.9765361e-06 0 0)
(-1.2617709 -0.5710753 0 -0.21695731 0 0)
(-2.523272 -0.29427162 0 -0.0029409624 0 0)
(-1.8938289 -0.2529071 0 -0.00084722145 0 0)
(-1.9752594 -0.25673782 0 -3.4258053e-05 0 0)
(-1.8685658 -0.24927946 0 3.0172331e-05 0 0)
(-1.9443333 -0.25488725 0 -5.9989967e-05 0 0)
(-1.8712688 -0.24945371 0 5.2892533e-05 0 0)
(-1.9376583 -0.25441992 0 -5.1921357e-05 0 0)
(-1.8756191 -0.24977605 0 4.9144892e-05 0 0)
(-1.9336817 -0.25412931 0 -4.6521875e-05 0 0)
(-1.8791255 -0.25004 0 4.3710589e-05 0 0)
(-1.9303003 -0.25387881 0 -4.1259844e-05 0 0)
(-1.8821881 -0.25027101 0 3.8773851e-05 0 0)
(-1.9273376 -0.25365875 0 -3.6553415e-05 0 0)
(-1.8849116 -0.25047625 0 3.438731e-05 0 0)
(-1.9247234 -0.2534644 0 -3.2409825e-05 0 0)
(-1.8873325 -0.25065849 0 3.05125e-05 0 0)
(-1.9224096 -0.25329231 0 -2.8764101e-05 0 0)
(-1.8894834 -0.2508202 0 2.7098116e-05 0 0)
(-1.9203582 -0.25313971 0 -2.5557414e-05 0 0)
(-1.8913951 -0.25096377 0 2.4094437e-05 0 0)
(-1.9185367 -0.25300421 0 -2.273973e-05 0 0)
(-1.893096 -0.25109135 0 2.1456429e-05 0 0)
(-1.9169169 -0.25288375 0 -2.0267776e-05 0 0)
(-1.8946115 -0.25120487 0 1.9144173e-05 0 0)
(-1.9154739 -0.25277649 0 -1.8103824e-05 0 0)
(-1.8959643 -0.25130605 0 1.7122589e-05 0 0)
(-1.9141854 -0.2526808 0 -1.6214931e-05 0 0)
(-1.8971749 -0.25139643 0 1.5360994e-05 0 0)
(-1.9130318 -0.25259522 0 -1.4572383e-05 0 0)
(-1.8982613 -0.25147737 0 1.3832664e-05 0 0)
(-1.9119953 -0.25251845 0 -1.3151241e-05 0 0)
(-1.89924 -0.25155012 0 1.2514439e-05 0 0)
(-1.9110602 -0.25244933 0 -1.1929965e-05 0 0)
(-1.9001257 -0.25161576 0 1.1386387e-05 0 0)
(-1.9102122 -0.25238681 0 -1.0890107e-05 0 0)
(-1.9009318 -0.2516753 0 1.0431531e-05 0 0)
(-1.9094384 -0.25232994 0 -1.0016072e-05 0 0)
(-1.9016705 -0.25172964 0 9.6356605e-06 0 0)
(-1.9087269 -0.25227786 0 -9.2949816e-06 0 0)
(-1.9023529 -0.2517796 0 8.9872726e-06 0 0)
(-1.908067 -0.25222978 0 -8.7166991e-06 0 0)
(-1.9029894 -0.25182594 0 8.4776852e-06 0 0)
(-1.9074484 -0.25218497 0 -8.2747185e-06 0 0)
(-1.9035895 -0.25186934 0 8.1008349e-06 0 0)
(-1.9068608 -0.2521427 0 -7.967976e-06 0 0)
(-1.9041604 -0.25191024 0 7.8746154e-06 0 0)
(-1.9062984 -0.25210222 0 -7.7104243e-06 0 0)
(-1.9047655 -0.2519512 0 8.2442636e-06 0 0)
(-1.9060407 -0.25208352 0 -7.5760929e-06 0 0)
(-1.1812686 -0.53969216 0 -0.20295983 0 0)
(-2.2882297 -0.27922526 0 -0.0033908878 0 0)
(-1.8118006 -0.24842057 0 -0.001268686 0 0)
(-1.8732397 -0.25010544 0 -5.8689411e-05 0 0)
(-1.7758326 -0.24294146 0 1.4111839e-05 0 0)
(-1.8429111 -0.24820723 0 -5.9514087e-05 0 0)
(-1.7770917 -0.24303041 0 5.0198401e-05 0 0)
(-1.8366698 -0.247757 0 -5.0096073e-05 0 0)
(-1.7809251 -0.24333363 0 4.7656089e-05 0 0)
(-1.833104 -0.2474831 0 -4.515462e-05 0 0)
(-1.7840783 -0.24358566 0 4.2405896e-05 0 0)
(-1.8300695 -0.2472449 0 -4.0074399e-05 0 0)
(-1.7868312 -0.24380601 0 3.7630426e-05 0 0)
(-1.8274067 -0.24703519 0 -3.5495639e-05 0 0)
(-1.789279 -0.24400177 0 3.3379484e-05 0 0)
(-1.825057 -0.24684995 0 -3.1468138e-05 0 0)
(-1.7914551 -0.24417559 0 2.962037e-05 0 0)
(-1.8229776 -0.24668593 0 -2.7926982e-05 0 0)
(-1.7933889 -0.24432985 0 2.6306496e-05 0 0)
(-1.821134 -0.24654048 0 -2.4813089e-05 0 0)
(-1.7951078 -0.24446682 0 2.3390773e-05 0 0)
(-1.8194972 -0.24641133 0 -2.2077193e-05 0 0)
(-1.7966374 -0.24458853 0 2.0829864e-05 0 0)
(-1.8180416 -0.24629651 0 -1.9677079e-05 0 0)
(-1.7980004 -0.24469685 0 1.8585138e-05 0 0)
(-1.8167449 -0.24619425 0 -1.7576062e-05 0 0)
(-1.7992172 -0.24479341 0 1.662259e-05 0 0)
(-1.815587 -0.24610301 0 -1.5742151e-05 0 0)
(-1.8003062 -0.24487967 0 1.4912465e-05 0 0)
(-1.8145502 -0.24602139 0 -1.4147479e-05 0 0)
(-1.8012836 -0.24495694 0 1.3428853e-05 0 0)
(-1.8136186 -0.24594816 0 -1.2767861e-05 0 0)
(-1.8021643 -0.2450264 0 1.2149313e-05 0 0)
(-1.812778 -0.24588221 0 -1.1582433e-05 0 0)
(-1.8029614 -0.2450891 0 1.1054563e-05 0 0)
(-1.8120156 -0.24582254 0 -1.0573363e-05 0 0)
(-1.8036871 -0.24514598 0 1.012823e-05 0 0)
(-1.8113196 -0.24576823 0 -9.7256514e-06 0 0)
(-1.8043521 -0.24519791 0 9.3567112e-06 0 0)
(-1.8106796 -0.24571848 0 -9.0270477e-06 0 0)
(-1.8049667 -0.24524568 0 8.7291951e-06 0 0)
(-1.8100856 -0.24567252 0 -8.4681986e-06 0 0)
(-1.8055402 -0.24529001 0 8.2379666e-06 0 0)
(-1.8095286 -0.24562966 0 -8.0440229e-06 0 0)
(-1.8060811 -0.24533156 0 7.8781387e-06 0 0)
(-1.8089991 -0.24558921 0 -7.7577108e-06 0 0)
(-1.8065959 -0.24537073 0 7.6740013e-06 0 0)
(-1.8084894 -0.24555018 0 -7.5059797e-06 0 0)
(-1.8071338 -0.24540857 0 8.2498206e-06 0 0)
(-1.8082161 -0.24553057 0 -7.7638653e-06 0 0)
(-1.1323282 -0.51321623 0 -0.18795833 0 0)
(-2.1018271 -0.26802113 0 -0.0040753164 0 0)
(-1.7276566 -0.2438193 0 -0.0017360849 0 0)
(-1.7745147 -0.24350791 0 -8.5942076e-05 0 0)
(-1.6850949 -0.23661943 0 -1.0948347e-05 0 0)
(-1.7448451 -0.24153704 0 -5.3971159e-05 0 0)
(-1.6849979 -0.23660923 0 4.266188e-05 0 0)
(-1.7388567 -0.24109789 0 -4.3631131e-05 0 0)
(-1.6883365 -0.2368914 0 4.1911294e-05 0 0)
(-1.7356118 -0.24083972 0 -3.9735492e-05 0 0)
(-1.6911859 -0.23713142 0 3.7307494e-05 0 0)
(-1.7328626 -0.24061352 0 -3.5309261e-05 0 0)
(-1.6936777 -0.23734113 0 3.312304e-05 0 0)
(-1.730447 -0.24041388 0 -3.1265879e-05 0 0)
(-1.6958929 -0.2375274 0 2.9389426e-05 0 0)
(-1.728315 -0.2402375 0 -2.7713494e-05 0 0)
(-1.6978625 -0.23769281 0 2.608237e-05 0 0)
(-1.7264285 -0.24008132 0 -2.4593245e-05 0 0)
(-1.6996129 -0.23783963 0 2.3165079e-05 0 0)
(-1.7247563 -0.23994282 0 -2.1850519e-05 0 0)
(-1.701169 -0.23796999 0 2.0597681e-05 0 0)
(-1.7232717 -0.23981984 0 -1.9441025e-05 0 0)
(-1.7025538 -0.23808585 0 1.8342516e-05 0 0)
(-1.7219517 -0.23971048 0 -1.7327327e-05 0 0)
(-1.7037878 -0.23818897 0 1.6365724e-05 0 0)
(-1.7207758 -0.23961308 0 -1.5477053e-05 0 0)
(-1.7048896 -0.23828091 0 1.4637414e-05 0 0)
(-1.7197259 -0.23952616 0 -1.3862025e-05 0 0)
(-1.7058757 -0.23836306 0 1.3131413e-05 0 0)
(-1.7187859 -0.23944839 0 -1.2457715e-05 0 0)
(-1.7067607 -0.23843666 0 1.1824929e-05 0 0)
(-1.7179414 -0.2393786 0 -1.124285e-05 0 0)
(-1.7075582 -0.23850284 0 1.0698232e-05 0 0)
(-1.7171794 -0.23931573 0 -1.0199091e-05 0 0)
(-1.70828 -0.2385626 0 9.7343897e-06 0 0)
(-1.7164884 -0.23925882 0 -9.3107991e-06 0 0)
(-1.7089371 -0.23861684 0 8.9190668e-06 0 0)
(-1.7158577 -0.23920702 0 -8.5648711e-06 0 0)
(-1.7095393 -0.23866639 0 8.2404247e-06 0 0)
(-1.7152777 -0.23915952 0 -7.9507094e-06 0 0)
(-1.7100958 -0.23871199 0 7.6892127e-06 0 0)
(-1.7147395 -0.23911562 0 -7.460437e-06 0 0)
(-1.7106151 -0.23875434 0 7.259157e-06 0 0)
(-1.714235 -0.23907465 0 -7.0905896e-06 0 0)
(-1.7111049 -0.23879407 0 6.9462744e-06 0 0)
(-1.7137553 -0.23903597 0 -6.8477134e-06 0 0)
(-1.711571 -0.23883155 0 6.7792677e-06 0 0)
(-1.7132912 -0.23899832 0 -6.6013836e-06 0 0)
(-1.7120498 -0.23886646 0 7.5670447e-06 0 0)
(-1.7130029 -0.23897749 0 -7.1575693e-06 0 0)
(-1.0874113 -0.4872264 0 -0.17330398 0 0)
(-1.9175727 -0.25635454 0 -0.0045147463 0 0)
(-1.6364142 -0.23844648 0 -0.0021217355 0 0)
(-1.6778908 -0.23692562 0 -0.00012717553 0 0)
(-1.5960523 -0.23027546 0 -3.7674995e-05 0 0)
(-1.6497646 -0.23487976 0 -4.8881749e-05 0 0)
(-1.5950947 -0.23017934 0 3.5339919e-05 0 0)
(-1.6439848 -0.23444739 0 -3.7185501e-05 0 0)
(-1.5979817 -0.23044127 0 3.6248061e-05 0 0)
(-1.6409997 -0.23420302 0 -3.4326511e-05 0 0)
(-1.6005616 -0.23067013 0 3.2240553e-05 0 0)
(-1.6384967 -0.23398796 0 -3.0559103e-05 0 0)
(-1.6028274 -0.23087003 0 2.8635702e-05 0 0)
(-1.6362964 -0.23379773 0 -2.7051224e-05 0 0)
(-1.6048415 -0.23104754 0 2.541585e-05 0 0)
(-1.6343542 -0.23362962 0 -2.3972702e-05 0 0)
(-1.6066324 -0.23120516 0 2.2558621e-05 0 0)
(-1.6326358 -0.23348077 0 -2.1271915e-05 0 0)
(-1.6082241 -0.23134508 0 2.0036109e-05 0 0)
(-1.6311128 -0.23334875 0 -1.8898977e-05 0 0)
(-1.6096393 -0.23146933 0 1.7815488e-05 0 0)
(-1.6297609 -0.23323152 0 -1.6814626e-05 0 0)
(-1.6108988 -0.23157977 0 1.5864718e-05 0 0)
(-1.6285589 -0.23312727 0 -1.4986205e-05 0 0)
(-1.6120212 -0.23167807 0 1.4154672e-05 0 0)
(-1.6274884 -0.23303442 0 -1.3385647e-05 0 0)
(-1.6130233 -0.23176572 0 1.2659545e-05 0 0)
(-1.6265326 -0.23295154 0 -1.1988567e-05 0 0)
(-1.6139201 -0.23184404 0 1.1356716e-05 0 0)
(-1.6256771 -0.23287739 0 -1.0773757e-05 0 0)
(-1.614725 -0.23191424 0 1.0226486e-05 0 0)
(-1.6249086 -0.23281083 0 -9.722829e-06 0 0)
(-1.6154502 -0.23197737 0 9.2518066e-06 0 0)
(-1.6242153 -0.23275085 0 -8.8199454e-06 0 0)
(-1.6161065 -0.23203438 0 8.4180574e-06 0 0)
(-1.6235867 -0.23269654 0 -8.0516146e-06 0 0)
(-1.6167039 -0.23208615 0 7.712886e-06 0 0)
(-1.6230131 -0.23264709 0 -7.4065675e-06 0 0)
(-1.6172513 -0.23213345 0 7.1261363e-06 0 0)
(-1.6224858 -0.23260173 0 -6.8757513e-06 0 0)
(-1.6177571 -0.23217701 0 6.6499689e-06 0 0)
(-1.6219967 -0.23255979 0 -6.4525602e-06 0 0)
(-1.6182288 -0.23221748 0 6.2792616e-06 0 0)
(-1.6215382 -0.23252063 0 -6.1346598e-06 0 0)
(-1.6186738 -0.23225548 0 6.0103292e-06 0 0)
(-1.6211025 -0.23248363 0 -5.9307938e-06 0 0)
(-1.619097 -0.23229135 0 5.8724972e-06 0 0)
(-1.6206797 -0.2324474 0 -5.6863009e-06 0 0)
(-1.6195254 -0.23232381 0 6.81006e-06 0 0)
(-1.6203855 -0.23242574 0 -6.4818821e-06 0 0)
(-1.0464133 -0.46125717 0 -0.15832879 0 0)
(-1.7457577 -0.24520123 0 -0.0048613387 0 0)
(-1.5436605 -0.23260472 0 -0.0024208723 0 0)
(-1.5828159 -0.23031994 0 -0.0001850923 0 0)
(-1.5087858 -0.22391346 0 -6.644986e-05 0 0)
(-1.5574473 -0.22822978 0 -4.5660681e-05 0 0)
(-1.5074863 -0.2237442 0 2.9069192e-05 0 0)
(-1.5519355 -0.2278031 0 -3.1712371e-05 0 0)
(-1.5099756 -0.2239864 0 3.1533884e-05 0 0)
(-1.5491739 -0.2275711 0 -2.9755098e-05 0 0)
(-1.5123088 -0.22420451 0 2.7983889e-05 0 0)
(-1.5468891 -0.22736654 0 -2.6557749e-05 0 0)
(-1.5143715 -0.22439512 0 2.4858906e-05 0 0)
(-1.5448819 -0.22718525 0 -2.350241e-05 0 0)
(-1.5162055 -0.2245643 0 2.2071e-05 0 0)
(-1.5431099 -0.227025 0 -2.0822873e-05 0 0)
(-1.5178363 -0.22471453 0 1.9592445e-05 0 0)
(-1.5415423 -0.22688309 0 -1.8475241e-05 0 0)
(-1.5192859 -0.2248479 0 1.7402215e-05 0 0)
(-1.5401531 -0.22675723 0 -1.6413667e-05 0 0)
(-1.5205748 -0.22496633 0 1.5473447e-05 0 0)
(-1.5389201 -0.22664546 0 -1.4603094e-05 0 0)
(-1.5217219 -0.22507161 0 1.3778856e-05 0 0)
(-1.537824 -0.22654607 0 -1.3014876e-05 0 0)
(-1.5227443 -0.22516532 0 1.22933e-05 0 0)
(-1.5368478 -0.22645753 0 -1.1624567e-05 0 0)
(-1.5236571 -0.22524889 0 1.0994412e-05 0 0)
(-1.5359765 -0.2263785 0 -1.0410976e-05 0 0)
(-1.5244739 -0.22532358 0 9.8625579e-06 0 0)
(-1.5351966 -0.22630778 0 -9.3556846e-06 0 0)
(-1.5252071 -0.22539053 0 8.8806316e-06 0 0)
(-1.5344962 -0.22624429 0 -8.4427307e-06 0 0)
(-1.5258675 -0.22545074 0 8.0338323e-06 0 0)
(-1.5338645 -0.22618707 0 -7.658371e-06 0 0)
(-1.5264652 -0.22550513 0 7.3094743e-06 0 0)
(-1.5332918 -0.22613525 0 -6.9909083e-06 0 0)
(-1.5270091 -0.22555453 0 6.6968521e-06 0 0)
(-1.5327693 -0.22608805 0 -6.4305903e-06 0 0)
(-1.5275074 -0.22559969 0 6.1871893e-06 0 0)
(-1.5322892 -0.22604475 0 -5.9696173e-06 0 0)
(-1.5279677 -0.22564128 0 5.7737666e-06 0 0)
(-1.5318439 -0.22600469 0 -5.6023579e-06 0 0)
(-1.528397 -0.22567994 0 5.4522977e-06 0 0)
(-1.5314267 -0.22596727 0 -5.3272024e-06 0 0)
(-1.5288017 -0.22571627 0 5.2190245e-06 0 0)
(-1.5310305 -0.2259319 0 -5.154319e-06 0 0)
(-1.5291865 -0.22575059 0 5.1019603e-06 0 0)
(-1.5306451 -0.22589709 0 -4.9075178e-06 0 0)
(-1.5295704 -0.2257809 0 6.1406588e-06 0 0)
(-1.5303506 -0.22587475 0 -5.8715727e-06 0 0)
(-1.0148853 -0.4399766 0 -0.14623138 0 0)
(-1.5856556 -0.23433971 0 -0.0050688279 0 0)
(-1.4508819 -0.22625725 0 -0.002590831 0 0)
(-1.4890989 -0.22369221 0 -0.00026706013 0 0)
(-1.4232147 -0.21753524 0 -0.00010053321 0 0)
(-1.4677579 -0.22158493 0 -4.4973319e-05 0 0)
(-1.4221897 -0.21730584 0 2.3268768e-05 0 0)
(-1.4626475 -0.22116336 0 -2.7054438e-05 0 0)
(-1.4243601 -0.21752849 0 2.7515197e-05 0 0)
(-1.4600907 -0.22094242 0 -2.5814013e-05 0 0)
(-1.4264669 -0.21773601 0 2.4336001e-05 0 0)
(-1.4580019 -0.22074786 0 -2.3117984e-05 0 0)
(-1.4283447 -0.21791763 0 2.1615209e-05 0 0)
(-1.4561697 -0.22057519 0 -2.0453684e-05 0 0)
(-1.4300155 -0.21807879 0 1.9197529e-05 0 0)
(-1.4545524 -0.2204225 0 -1.8117032e-05 0 0)
(-1.4315012 -0.21822189 0 1.7044288e-05 0 0)
(-1.4531217 -0.22028729 0 -1.6072737e-05 0 0)
(-1.432822 -0.21834893 0 1.5139531e-05 0 0)
(-1.4518539 -0.22016738 0 -1.4278622e-05 0 0)
(-1.4339964 -0.21846176 0 1.3461487e-05 0 0)
(-1.4507288 -0.22006088 0 -1.2703231e-05 0 0)
(-1.4350418 -0.21856207 0 1.1986966e-05 0 0)
(-1.4497288 -0.21996617 0 -1.132136e-05 0 0)
(-1.4359734 -0.21865136 0 1.0694257e-05 0 0)
(-1.4488384 -0.21988179 0 -1.0111666e-05 0 0)
(-1.4368052 -0.21873099 0 9.5639451e-06 0 0)
(-1.4480436 -0.21980647 0 -9.0556974e-06 0 0)
(-1.4375496 -0.21880217 0 8.5789587e-06 0 0)
(-1.4473324 -0.21973907 0 -8.1374318e-06 0 0)
(-1.4382177 -0.21886597 0 7.7244181e-06 0 0)
(-1.4466937 -0.21967855 0 -7.342986e-06 0 0)
(-1.4388195 -0.21892337 0 6.9874481e-06 0 0)
(-1.4461177 -0.21962399 0 -6.6604107e-06 0 0)
(-1.4393641 -0.21897523 0 6.3570172e-06 0 0)
(-1.4455957 -0.21957458 0 -6.0795412e-06 0 0)
(-1.4398596 -0.21902234 0 5.8238241e-06 0 0)
(-1.4451196 -0.21952956 0 -5.5919139e-06 0 0)
(-1.4403135 -0.21906542 0 5.3802582e-06 0 0)
(-1.4446821 -0.21948824 0 -5.1907796e-06 0 0)
(-1.4407327 -0.21910511 0 5.0205263e-06 0 0)
(-1.4442765 -0.21945 0 -4.8712932e-06 0 0)
(-1.4411235 -0.21914202 0 4.7409925e-06 0 0)
(-1.4438967 -0.21941427 0 -4.6323403e-06 0 0)
(-1.441492 -0.21917671 0 4.5377015e-06 0 0)
(-1.4435361 -0.21938049 0 -4.4851034e-06 0 0)
(-1.4418421 -0.21920952 0 4.4363605e-06 0 0)
(-1.4431847 -0.2193471 0 -4.2357288e-06 0 0)
(-1.4421865 -0.21923793 0 5.5372393e-06 0 0)
(-1.4428942 -0.21932427 0 -5.3178928e-06 0 0)
(-0.98400682 -0.41395184 0 -0.13040769 0 0)
(-1.4373379 -0.22399213 0 -0.0051993381 0 0)
(-1.3606405 -0.21959622 0 -0.0026482424 0 0)
(-1.3969502 -0.21703338 0 -0.00036615539 0 0)
(-1.3393318 -0.21111994 0 -0.00013485158 0 0)
(-1.3805695 -0.21493384 0 -4.5010483e-05 0 0)
(-1.3391738 -0.21086091 0 1.7964903e-05 0 0)
(-1.3760682 -0.21452655 0 -2.2919537e-05 0 0)
(-1.3411469 -0.21106763 0 2.3938162e-05 0 0)
(-1.3737248 -0.21431656 0 -2.228303e-05 0 0)
(-1.3430554 -0.21126494 0 2.10799e-05 0 0)
(-1.3718158 -0.2141316 0 -2.003993e-05 0 0)
(-1.344765 -0.21143787 0 1.8715057e-05 0 0)
(-1.3701432 -0.21396726 0 -1.772718e-05 0 0)
(-1.3462872 -0.21159127 0 1.6627646e-05 0 0)
(-1.3686669 -0.2138219 0 -1.5697361e-05 0 0)
(-1.347641 -0.21172748 0 1.4765308e-05 0 0)
(-1.367361 -0.21369316 0 -1.3924298e-05 0 0)
(-1.3488446 -0.21184841 0 1.3115884e-05 0 0)
(-1.366204 -0.21357899 0 -1.2369332e-05 0 0)
(-1.3499149 -0.21195582 0 1.1662086e-05 0 0)
(-1.3651774 -0.21347759 0 -1.1004241e-05 0 0)
(-1.3508676 -0.2120513 0 1.0384392e-05 0 0)
(-1.3642649 -0.2133874 0 -9.8068886e-06 0 0)
(-1.3517167 -0.21213632 0 9.2641618e-06 0 0)
(-1.3634525 -0.21330706 0 -8.7587053e-06 0 0)
(-1.3524749 -0.21221214 0 8.2846176e-06 0 0)
(-1.3627275 -0.21323534 0 -7.8436874e-06 0 0)
(-1.3531533 -0.21227992 0 7.4309802e-06 0 0)
(-1.3620788 -0.21317114 0 -7.0479506e-06 0 0)
(-1.3537622 -0.21234068 0 6.6903584e-06 0 0)
(-1.3614963 -0.21311349 0 -6.3594684e-06 0 0)
(-1.3543107 -0.21239535 0 6.0515966e-06 0 0)
(-1.3609711 -0.21306152 0 -5.7678914e-06 0 0)
(-1.354807 -0.21244476 0 5.5051385e-06 0 0)
(-1.3604952 -0.21301444 0 -5.2644196e-06 0 0)
(-1.3552585 -0.21248965 0 5.0429311e-06 0 0)
(-1.3600612 -0.21297153 0 -4.841732e-06 0 0)
(-1.3556721 -0.21253071 0 4.6583943e-06 0 0)
(-1.3596625 -0.21293214 0 -4.4940021e-06 0 0)
(-1.3560539 -0.21256855 0 4.3465401e-06 0 0)
(-1.3592929 -0.21289567 0 -4.2170568e-06 0 0)
(-1.3564098 -0.21260376 0 4.1042733e-06 0 0)
(-1.3589469 -0.21286158 0 -4.0101388e-06 0 0)
(-1.3567453 -0.21263688 0 3.9274238e-06 0 0)
(-1.3586187 -0.21282934 0 -3.885158e-06 0 0)
(-1.357064 -0.21266822 0 3.8389241e-06 0 0)
(-1.3582984 -0.21279736 0 -3.6344069e-06 0 0)
(-1.3573733 -0.21269492 0 4.9708334e-06 0 0)
(-1.3580151 -0.21277421 0 -4.7990107e-06 0 0)
(-0.96511542 -0.39724987 0 -0.12076617 0 0)
(-1.3017552 -0.21420441 0 -0.0053501393 0 0)
(-1.272539 -0.21234637 0 -0.0025363084 0 0)
(-1.3065513 -0.21040517 0 -0.0004948308 0 0)
(-1.25756 -0.20471298 0 -0.00017126619 0 0)
(-1.2959321 -0.20828262 0 -4.5612871e-05 0 0)
(-1.2584769 -0.20440976 0 1.3248662e-05 0 0)
(-1.2921703 -0.20789166 0 -1.910096e-05 0 0)
(-1.2603474 -0.20460327 0 2.0741665e-05 0 0)
(-1.290055 -0.20769321 0 -1.9059668e-05 0 0)
(-1.2620881 -0.20479122 0 1.8135217e-05 0 0)
(-1.2883151 -0.2075177 0 -1.7242538e-05 0 0)
(-1.2636462 -0.20495583 0 1.6084463e-05 0 0)
(-1.2867892 -0.20736144 0 -1.5252229e-05 0 0)
(-1.2650332 -0.20510175 0 1.4295315e-05 0 0)
(-1.285442 -0.20722316 0 -1.3501385e-05 0 0)
(-1.2662667 -0.20523131 0 1.2696823e-05 0 0)
(-1.2842503 -0.20710069 0 -1.1974507e-05 0 0)
(-1.2673633 -0.20534633 0 1.1279134e-05 0 0)
(-1.2831945 -0.20699206 0 -1.0636561e-05 0 0)
(-1.2683386 -0.2054485 0 1.0028873e-05 0 0)
(-1.2822578 -0.20689559 0 -9.4623102e-06 0 0)
(-1.2692067 -0.20553933 0 8.9298303e-06 0 0)
(-1.2814254 -0.20680978 0 -8.4324061e-06 0 0)
(-1.2699805 -0.20562021 0 7.9661483e-06 0 0)
(-1.2806844 -0.20673333 0 -7.5307922e-06 0 0)
(-1.2706714 -0.20569234 0 7.123445e-06 0 0)
(-1.2800231 -0.20666508 0 -6.743684e-06 0 0)
(-1.2712897 -0.20575684 0 6.389019e-06 0 0)
(-1.2794315 -0.20660398 0 -6.0591358e-06 0 0)
(-1.2718447 -0.20581466 0 5.7517825e-06 0 0)
(-1.2789003 -0.20654912 0 -5.4668033e-06 0 0)
(-1.2723445 -0.2058667 0 5.2021383e-06 0 0)
(-1.2784215 -0.20649965 0 -4.957786e-06 0 0)
(-1.2727967 -0.20591373 0 4.7318657e-06 0 0)
(-1.2779876 -0.20645482 0 -4.5245174e-06 0 0)
(-1.2732081 -0.20595647 0 4.3340391e-06 0 0)
(-1.277592 -0.20641395 0 -4.160706e-06 0 0)
(-1.2735848 -0.20599558 0 4.0030037e-06 0 0)
(-1.2772287 -0.20637643 0 -3.861349e-06 0 0)
(-1.2739326 -0.20603163 0 3.7344843e-06 0 0)
(-1.276892 -0.20634168 0 -3.6228596e-06 0 0)
(-1.2742568 -0.20606518 0 3.525845e-06 0 0)
(-1.2765769 -0.20630918 0 -3.444736e-06 0 0)
(-1.2745623 -0.20609676 0 3.3727178e-06 0 0)
(-1.2762781 -0.20627845 0 -3.3393565e-06 0 0)
(-1.2748524 -0.20612668 0 3.2950417e-06 0 0)
(-1.2759863 -0.20624786 0 -3.0887759e-06 0 0)
(-1.2751302 -0.20615184 0 4.4316454e-06 0 0)
(-1.2757123 -0.20622454 0 -4.3092216e-06 0 0)
(-0.9426795 -0.37274608 0 -0.10598289 0 0)
(-1.1796658 -0.20471223 0 -0.0052973323 0 0)
(-1.184929 -0.20516113 0 -0.002504105 0 0)
(-1.2214954 -0.20362752 0 -0.00052353587 0 0)
(-1.1787106 -0.19825033 0 -0.00018386099 0 0)
(-1.214245 -0.20163375 0 -4.2845198e-05 0 0)
(-1.1802751 -0.19795676 0 9.4079427e-06 0 0)
(-1.2110041 -0.20126156 0 -1.5633192e-05 0 0)
(-1.1820041 -0.19813676 0 1.7820308e-05 0 0)
(-1.2090772 -0.2010729 0 -1.6135185e-05 0 0)
(-1.1835834 -0.19831508 0 1.5455393e-05 0 0)
(-1.2074887 -0.20090621 0 -1.4696497e-05 0 0)
(-1.1850013 -0.19847157 0 1.3690904e-05 0 0)
(-1.2060966 -0.20075771 0 -1.2999824e-05 0 0)
(-1.1862644 -0.19861026 0 1.2172757e-05 0 0)
(-1.2048676 -0.20062627 0 -1.150304e-05 0 0)
(-1.1873878 -0.19873339 0 1.0814298e-05 0 0)
(-1.2037806 -0.20050984 0 -1.0200194e-05 0 0)
(-1.1883865 -0.19884271 0 9.607504e-06 0 0)
(-1.2028177 -0.20040658 0 -9.0597178e-06 0 0)
(-1.1892749 -0.19893982 0 8.5424838e-06 0 0)
(-1.2019635 -0.20031486 0 -8.059119e-06 0 0)
(-1.1900657 -0.19902616 0 7.6060326e-06 0 0)
(-1.2012044 -0.20023328 0 -7.181584e-06 0 0)
(-1.1907705 -0.19910304 0 6.7848253e-06 0 0)
(-1.2005287 -0.20016059 0 -6.4133415e-06 0 0)
(-1.1913999 -0.19917162 0 6.0666583e-06 0 0)
(-1.1999258 -0.2000957 0 -5.7426239e-06 0 0)
(-1.1919632 -0.19923294 0 5.4407203e-06 0 0)
(-1.1993865 -0.2000376 0 -5.1592474e-06 0 0)
(-1.1924686 -0.19928792 0 4.8975634e-06 0 0)
(-1.1989023 -0.19998542 0 -4.6543967e-06 0 0)
(-1.1929239 -0.19933741 0 4.4290071e-06 0 0)
(-1.1984659 -0.19993836 0 -4.220487e-06 0 0)
(-1.1933358 -0.19938215 0 4.0280432e-06 0 0)
(-1.1980706 -0.19989572 0 -3.8510706e-06 0 0)
(-1.1937105 -0.19942281 0 3.6887677e-06 0 0)
(-1.1977101 -0.19985683 0 -3.5407865e-06 0 0)
(-1.1940536 -0.19946002 0 3.4063604e-06 0 0)
(-1.1973792 -0.19982112 0 -3.2853713e-06 0 0)
(-1.1943703 -0.19949434 0 3.1771801e-06 0 0)
(-1.1970726 -0.19978803 0 -3.0817534e-06 0 0)
(-1.1946654 -0.19952629 0 2.9989847e-06 0 0)
(-1.1967857 -0.19975708 0 -2.9296076e-06 0 0)
(-1.1949435 -0.19955638 0 2.8672436e-06 0 0)
(-1.1965138 -0.1997278 0 -2.8415385e-06 0 0)
(-1.1952075 -0.19958491 0 2.7988665e-06 0 0)
(-1.196248 -0.1996986 0 -2.5927711e-06 0 0)
(-1.195457 -0.19960868 0 3.9177121e-06 0 0)
(-1.1959851 -0.19967523 0 -3.8482627e-06 0 0)
(-0.92871454 -0.35844095 0 -0.098031338 0 0)
(-1.0745904 -0.1958715 0 -0.0052679763 0 0)
(-1.0984158 -0.19801422 0 -0.0025184702 0 0)
(-1.1420328 -0.1966489 0 -0.0004227155 0 0)
(-1.1026197 -0.19166659 0 -0.00015658269 0 0)
(-1.1353829 -0.19495629 0 -2.9904695e-05 0 0)
(-1.1045102 -0.19148829 0 8.7480814e-06 0 0)
(-1.1325174 -0.19463085 0 -1.1725237e-05 0 0)
(-1.1061121 -0.19166617 0 1.5371715e-05 0 0)
(-1.1307702 -0.19445478 0 -1.3409106e-05 0 0)
(-1.1075495 -0.19183633 0 1.3032103e-05 0 0)
(-1.1293238 -0.19429696 0 -1.2368441e-05 0 0)
(-1.1088403 -0.19198511 0 1.151088e-05 0 0)
(-1.1280553 -0.19415601 0 -1.0945279e-05 0 0)
(-1.1099901 -0.19211685 0 1.0237651e-05 0 0)
(-1.1269352 -0.19403117 0 -9.6809353e-06 0 0)
(-1.1110125 -0.19223379 0 9.0977484e-06 0 0)
(-1.1259444 -0.19392058 0 -8.5824482e-06 0 0)
(-1.1119215 -0.1923376 0 8.0832189e-06 0 0)
(-1.1250669 -0.19382249 0 -7.6220158e-06 0 0)
(-1.1127301 -0.19242983 0 7.1871099e-06 0 0)
(-1.1242884 -0.19373536 0 -6.7797359e-06 0 0)
(-1.1134499 -0.19251183 0 6.3989217e-06 0 0)
(-1.1235967 -0.19365786 0 -6.041117e-06 0 0)
(-1.1140915 -0.19258485 0 5.7076332e-06 0 0)
(-1.122981 -0.19358881 0 -5.3944703e-06 0 0)
(-1.1146645 -0.19265 0 5.1030253e-06 0 0)
(-1.1224318 -0.19352716 0 -4.8298657e-06 0 0)
(-1.1151772 -0.19270825 0 4.576009e-06 0 0)
(-1.1219405 -0.19347196 0 -4.3387247e-06 0 0)
(-1.1156373 -0.19276049 0 4.1186313e-06 0 0)
(-1.1214995 -0.19342237 0 -3.913624e-06 0 0)
(-1.1160518 -0.19280751 0 3.7240019e-06 0 0)
(-1.1211021 -0.19337765 0 -3.5481769e-06 0 0)
(-1.1164267 -0.19285003 0 3.3862165e-06 0 0)
(-1.120742 -0.19333712 0 -3.2369525e-06 0 0)
(-1.1167677 -0.19288868 0 3.1002994e-06 0 0)
(-1.1204139 -0.19330015 0 -2.9754337e-06 0 0)
(-1.11708 -0.19292406 0 2.8621855e-06 0 0)
(-1.1201126 -0.19326618 0 -2.7600239e-06 0 0)
(-1.1173682 -0.1929567 0 2.6688016e-06 0 0)
(-1.1198335 -0.19323471 0 -2.5881079e-06 0 0)
(-1.1176366 -0.1929871 0 2.5182464e-06 0 0)
(-1.1195725 -0.19320525 0 -2.4594788e-06 0 0)
(-1.1178895 -0.19301574 0 2.4058783e-06 0 0)
(-1.1193253 -0.19317738 0 -2.3867469e-06 0 0)
(-1.1181297 -0.19304293 0 2.3456862e-06 0 0)
(-1.1190835 -0.19314954 0 -2.1415367e-06 0 0)
(-1.1183537 -0.19306542 0 3.4278053e-06 0 0)
(-1.1188327 -0.19312625 0 -3.4158056e-06 0 0)
(-0.90825686 -0.33526713 0 -0.08484283 0 0)
(-0.98918095 -0.18698825 0 -0.0044559002 0 0)
(-1.0132234 -0.19024411 0 -0.002678217 0 0)
(-1.0621912 -0.18991109 0 -0.00049121179 0 0)
(-1.0285697 -0.18520254 0 -0.00016432351 0 0)
(-1.0590037 -0.18831683 0 -2.706119e-05 0 0)
(-1.0311526 -0.18502866 0 5.9223768e-06 0 0)
(-1.0566931 -0.18800683 0 -8.7376488e-06 0 0)
(-1.0326878 -0.1851942 0 1.2983852e-05 0 0)
(-1.0551277 -0.18783969 0 -1.095856e-05 0 0)
(-1.0339989 -0.1853554 0 1.0806667e-05 0 0)
(-1.0538125 -0.18769001 0 -1.0242375e-05 0 0)
(-1.0351727 -0.1854966 0 9.517038e-06 0 0)
(-1.0526575 -0.18755627 0 -9.0669707e-06 0 0)
(-1.0362181 -0.1856216 0 8.4681663e-06 0 0)
(-1.0516376 -0.1874378 0 -8.0150701e-06 0 0)
(-1.0371477 -0.18573255 0 7.5281116e-06 0 0)
(-1.0507354 -0.18733284 0 -7.1034025e-06 0 0)
(-1.0379742 -0.18583106 0 6.6893987e-06 0 0)
(-1.0499364 -0.18723974 0 -6.3075595e-06 0 0)
(-1.0387095 -0.18591857 0 5.9477534e-06 0 0)
(-1.0492277 -0.18715705 0 -5.6100143e-06 0 0)
(-1.0393641 -0.18599638 0 5.2951451e-06 0 0)
(-1.048598 -0.1870835 0 -4.9983952e-06 0 0)
(-1.0399476 -0.18606568 0 4.7226593e-06 0 0)
(-1.0480376 -0.18701796 0 -4.462915e-06 0 0)
(-1.0404686 -0.18612751 0 4.2218917e-06 0 0)
(-1.0475378 -0.18695943 0 -3.9953216e-06 0 0)
(-1.0409349 -0.18618279 0 3.785328e-06 0 0)
(-1.0470906 -0.18690703 0 -3.5885025e-06 0 0)
(-1.0413534 -0.18623238 0 3.4063812e-06 0 0)
(-1.0466894 -0.18685995 0 -3.2363062e-06 0 0)
(-1.0417303 -0.18627702 0 3.0793404e-06 0 0)
(-1.0463278 -0.18681749 0 -2.9334395e-06 0 0)
(-1.0420712 -0.18631739 0 2.7993095e-06 0 0)
(-1.0460002 -0.18677899 0 -2.6753994e-06 0 0)
(-1.0423813 -0.1863541 0 2.5621592e-06 0 0)
(-1.0457018 -0.18674388 0 -2.4584369e-06 0 0)
(-1.0426652 -0.18638771 0 2.364511e-06 0 0)
(-1.0454278 -0.18671161 0 -2.2795594e-06 0 0)
(-1.0429272 -0.18641873 0 2.2038038e-06 0 0)
(-1.045174 -0.1866817 0 -2.1365611e-06 0 0)
(-1.0431712 -0.18644762 0 2.0784352e-06 0 0)
(-1.0449367 -0.18665369 0 -2.0293108e-06 0 0)
(-1.043401 -0.18647485 0 1.9837136e-06 0 0)
(-1.0447122 -0.18662719 0 -1.9702229e-06 0 0)
(-1.0436193 -0.18650074 0 1.93092e-06 0 0)
(-1.0444924 -0.18660069 0 -1.7303678e-06 0 0)
(-1.0438202 -0.18652206 0 2.9604616e-06 0 0)
(-1.0442545 -0.18657757 0 -3.0109123e-06 0 0)
(-0.89500921 -0.32155765 0 -0.077547848 0 0)
(-0.90973379 -0.1791302 0 -0.0042675941 0 0)
(-0.9378221 -0.18278391 0 -0.0024681583 0 0)
(-0.98653547 -0.18291623 0 -0.00042372095 0 0)
(-0.95729099 -0.17863777 0 -0.00013827488 0 0)
(-0.98528441 -0.1816427 0 -1.5662541e-05 0 0)
(-0.96020158 -0.17855112 0 5.8387005e-06 0 0)
(-0.98349269 -0.18138005 0 -5.2858719e-06 0 0)
(-0.96171859 -0.17871738 0 1.1007934e-05 0 0)
(-0.98212725 -0.1812261 0 -8.6497702e-06 0 0)
(-0.96293276 -0.17887178 0 8.7870627e-06 0 0)
(-0.98094311 -0.18108502 0 -8.2865523e-06 0 0)
(-0.96400409 -0.17900598 0 7.6914993e-06 0 0)
(-0.97989538 -0.18095839 0 -7.3442346e-06 0 0)
(-0.96495466 -0.17912455 0 6.8461711e-06 0 0)
(-0.97896843 -0.18084609 0 -6.4878695e-06 0 0)
(-0.96579911 -0.17922974 0 6.0890389e-06 0 0)
(-0.97814819 -0.18074658 0 -5.7475603e-06 0 0)
(-0.96654982 -0.17932312 0 5.4114848e-06 0 0)
(-0.97742164 -0.1806583 0 -5.1025991e-06 0 0)
(-0.96721759 -0.17940608 0 4.8114616e-06 0 0)
(-0.97677723 -0.18057989 0 -4.5377243e-06 0 0)
(-0.96781212 -0.17947986 0 4.2831662e-06 0 0)
(-0.97620479 -0.18051014 0 -4.0425191e-06 0 0)
(-0.96834212 -0.17954556 0 3.8196093e-06 0 0)
(-0.97569536 -0.18044799 0 -3.6089394e-06 0 0)
(-0.96881538 -0.17960418 0 3.4140494e-06 0 0)
(-0.97524097 -0.18039249 0 -3.2302705e-06 0 0)
(-0.96923891 -0.1796566 0 3.0604156e-06 0 0)
(-0.97483459 -0.18034279 0 -2.9007428e-06 0 0)
(-0.969619 -0.17970363 0 2.7533732e-06 0 0)
(-0.97446992 -0.18029814 0 -2.6153697e-06 0 0)
(-0.96996131 -0.17974597 0 2.4882925e-06 0 0)
(-0.97414131 -0.18025786 0 -2.3698593e-06 0 0)
(-0.97027096 -0.17978427 0 2.2612004e-06 0 0)
(-0.97384372 -0.18022133 0 -2.1605575e-06 0 0)
(-0.97055258 -0.1798191 0 2.0687426e-06 0 0)
(-0.97357256 -0.18018801 0 -1.9844174e-06 0 0)
(-0.97081039 -0.17985099 0 1.9081671e-06 0 0)
(-0.97332368 -0.18015738 0 -1.838996e-06 0 0)
(-0.97104827 -0.17988043 0 1.7773772e-06 0 0)
(-0.97309326 -0.18012898 0 -1.7224575e-06 0 0)
(-0.97126979 -0.17990787 0 1.6750362e-06 0 0)