/*--------------------------------*- C++ -*----------------------------------*\
| =========                 |                                                 |
| \\      /  F ield         | OpenFOAM: The Open Source CFD Toolbox           |
|  \\    /   O peration     | Version:  2312                                  |
|   \\  /    A nd           | Website:  www.openfoam.com                      |
|    \\/     M anipulation  |                                                 |
\*---------------------------------------------------------------------------*/
FoamFile
{
    version     2.0;
    format      ascii;
    arch        "LSB;label=32;scalar=64";
    class       volScalarField;
    location    "10";
    object      T;
}
// * * * * * * * * * * * * * * * * * * * * * * * * * * * * * * * * * * * * * //

dimensions      [0 0 0 1 0 0 0];

internalField   nonuniform List<scalar> 
4000
(
329.07577
327.96522
327.81303
327.73452
327.67986
327.62641
327.58577
327.54086
327.50528
327.46462
327.43156
327.39347
327.36186
327.32548
327.29479
327.25964
327.22956
327.19532
327.16569
327.13215
327.10284
327.06986
327.0408
327.00827
326.97941
326.94724
326.91854
326.88667
326.85811
326.82648
326.79805
326.76662
326.73831
326.70703
326.67884
326.64769
326.6196
326.58854
326.56057
326.52958
326.50172
326.47077
326.44303
326.41209
326.38451
326.35352
326.32614
326.29501
326.26801
326.23609
331.05206
329.04174
328.6467
328.4684
328.36152
328.25832
328.19341
328.11579
328.06606
328.00118
327.95901
327.90182
327.864
327.81195
327.77689
327.72851
327.69531
327.64966
327.61777
327.57423
327.54332
327.50145
327.47129
327.43075
327.40119
327.36174
327.33268
327.29412
327.26549
327.22764
327.1994
327.16214
327.13425
327.09747
327.06991
327.03351
327.00628
326.97017
326.94327
326.90737
326.88081
326.84502
326.81885
326.78308
326.75736
326.72145
326.69634
326.65999
326.63604
326.59742
332.35182
330.09103
329.47495
329.19927
329.04083
328.88854
328.79941
328.68946
328.62553
328.53668
328.48532
328.40922
328.36512
328.29755
328.25805
328.19655
328.16016
328.1032
328.06901
328.01555
327.98299
327.9323
327.90099
327.85251
327.82222
327.77554
327.74608
327.70087
327.67213
327.62811
327.60002
327.55698
327.52948
327.48724
327.4603
327.41867
327.39228
327.35114
327.3253
327.2845
327.25923
327.21862
327.194
327.15341
327.12954
327.08874
327.06587
327.02434
327.0034
326.95833
333.25681
331.08689
330.28931
329.92258
329.71454
329.51474
329.40174
329.26024
329.18216
329.06986
329.00926
328.91463
328.86418
328.78136
328.73734
328.66297
328.6233
328.55522
328.51864
328.45543
328.42114
328.36176
328.32924
328.27294
328.24185
328.18804
328.15813
328.10636
328.07747
328.02736
327.99937
327.95062
327.92347
327.87581
327.84945
327.80266
327.77707
327.73095
327.70614
327.66048
327.63648
327.5911
327.56799
327.52264
327.50057
327.45492
327.43426
327.3876
327.36958
327.31847
333.91345
332.00557
331.07868
330.63204
330.37822
330.13366
329.99764
329.82595
329.73396
329.59906
329.52926
329.4167
329.35985
329.26226
329.21364
329.12675
329.08371
329.00482
328.96576
328.89303
328.85693
328.78908
328.75527
328.69132
328.65936
328.59858
328.56815
328.50995
328.48084
328.42475
328.39682
328.34246
328.3156
328.26263
328.2368
328.18493
328.1601
328.10908
328.08524
328.03481
328.01203
327.96194
327.94029
327.89025
327.86994
327.81952
327.801
327.74932
327.73407
327.67738
334.40444
332.82953
331.83082
331.32004
331.02644
330.74127
330.58379
330.38388
330.27852
330.12223
330.04343
329.91379
329.85058
329.73885
329.68561
329.5867
329.54024
329.45093
329.40932
329.32742
329.28944
329.21338
329.17821
329.10685
329.07395
329.00639
328.97538
328.91093
328.88154
328.81963
328.79169
328.73186
328.70524
328.64709
328.62173
328.5649
328.54076
328.48494
328.46204
328.40693
328.38531
328.33061
328.31037
328.25573
328.23712
328.18203
328.16556
328.10901
328.09633
328.03457
334.77956
333.54799
332.53381
331.97826
331.65313
331.33294
331.15634
330.93088
330.81307
330.63703
330.54961
330.40401
330.33461
330.20956
330.15175
330.04146
329.99158
329.89236
329.84818
329.75751
329.7176
329.63369
329.5971
329.51863
329.48472
329.41066
329.37899
329.30852
329.27879
329.21126
329.18325
329.11813
329.09169
329.02851
329.00357
328.94191
328.91842
328.85795
328.83591
328.77626
328.75573
328.69655
328.67765
328.61854
328.60154
328.54193
328.52739
328.46617
328.45581
328.38951
335.07102
334.15739
333.17747
332.59847
332.25194
331.90366
331.71115
331.46349
331.33459
331.14081
331.04544
330.88526
330.81
330.67265
330.61043
330.48954
330.4363
330.3278
330.28105
330.18214
330.14028
330.04895
330.01091
329.92569
329.89074
329.81047
329.77811
329.70189
329.67177
329.59886
329.57073
329.50052
329.47422
329.40619
329.38162
329.31532
329.29242
329.22744
329.20621
329.14217
329.12267
329.05917
329.04153
328.97812
328.96263
328.89867
328.88593
328.82028
328.81195
328.74162
335.30059
334.66023
333.75429
333.17318
332.81666
332.44837
332.24394
331.97807
331.83989
331.6308
331.5284
331.3553
331.27467
331.12622
331.05988
330.92932
330.87288
330.75583
330.7066
330.60004
330.55627
330.45802
330.41854
330.32699
330.29099
330.20488
330.17181
330.09015
330.0596
329.98159
329.9533
329.87826
329.85205
329.77941
329.75515
329.68442
329.66205
329.59277
329.57229
329.50405
329.4855
329.41786
329.4014
329.33386
329.31978
329.25169
329.24059
329.17081
329.16419
329.09031
335.48368
335.06414
334.26007
333.69638
333.34171
332.96219
332.75049
332.47097
332.32574
332.10414
331.99591
331.81177
331.72648
331.56833
331.49827
331.35911
331.29973
331.17497
331.12342
331.00989
330.96431
330.85971
330.81884
330.72144
330.68442
330.59289
330.5591
330.47237
330.4414
330.3586
330.33013
330.25055
330.22439
330.1474
330.12341
330.04849
330.02659
329.95325
329.93345
329.86122
329.84356
329.77199
329.75662
329.68519
329.67239
329.60042
329.59078
329.51719
329.51199
329.43499
335.63163
335.38027
334.69398
334.16401
333.82254
333.4408
333.22694
332.93869
332.78901
332.55798
332.44539
332.25235
332.16328
331.99697
331.92376
331.77718
331.71522
331.5837
331.53007
331.41034
331.36311
331.2528
331.21064
331.10794
331.06996
330.97346
330.93901
330.84761
330.81622
330.72899
330.70035
330.61654
330.59042
330.50938
330.48563
330.40678
330.38533
330.30817
330.28899
330.21303
330.19618
330.12093
330.10655
330.03148
330.01984
329.94427
329.9359
329.85885
329.85477
329.77506
335.7528
335.62181
335.05833
334.57422
334.25593
333.88069
333.6699
333.37809
333.2268
332.98967
332.8744
332.67475
332.58295
332.41019
332.33452
332.18182
332.11775
331.9805
331.92511
331.80003
331.75136
331.63604
331.59276
331.48535
331.44651
331.34557
331.31051
331.21489
331.18313
331.09188
331.06308
330.9754
330.94932
330.86455
330.84103
330.75856
330.73752
330.65682
330.63823
330.5588
330.5427
330.46404
330.45055
330.37212
330.36151
330.28266
330.27537
330.19523
330.192
330.10993
335.85357
335.80261
335.35804
334.92738
334.64025
334.27937
334.07675
333.78648
333.6366
333.39677
333.28067
333.07684
332.98351
332.8061
332.72877
332.57136
332.50574
332.36387
332.30712
332.1776
332.12779
332.00821
331.96402
331.85254
331.813
331.70817
331.67262
331.57326
331.5412
331.44636
331.41744
331.32629
331.30027
331.21212
331.18883
331.10308
331.08242
330.9985
330.98044
330.89786
330.88243
330.80067
330.78798
330.7065
330.69678
330.61498
330.60859
330.52574
330.52313
330.43902
335.93868
335.93595
335.59989
335.2259
334.97546
334.63556
334.44573
334.16185
334.01636
333.77724
333.66226
333.45672
333.36317
333.18297
333.1049
332.94422
332.87771
332.73239
332.67476
332.54175
332.49116
332.36813
332.32328
332.20841
332.16838
332.06024
332.02435
331.92177
331.88952
331.79154
331.76258
331.66837
331.64246
331.55132
331.52827
331.43958
331.4193
331.33251
331.31495
331.22953
331.21472
331.13017
331.1182
331.03401
331.02505
330.94065
330.93498
330.8498
330.84762
330.76177
336.01172
336.03377
335.79176
335.47387
335.26307
334.94917
334.77601
334.5029
334.36462
334.12948
334.01757
333.81278
333.72038
333.53927
333.46145
333.299
333.2323
333.08475
333.02677
332.89127
332.84029
332.71465
332.66946
332.55193
332.51163
332.40082
332.36475
332.25951
332.2272
332.12657
332.09767
332.00084
331.97509
331.88137
331.8586
331.76736
331.74746
331.65814
331.64107
331.55317
331.53892
331.45194
331.44059
331.35403
331.34573
331.25909
331.25399
331.16685
331.16493
331.07761
336.07536
336.10612
335.94189
335.67655
335.50593
335.22133
335.06777
334.80912
334.68057
334.45241
334.34545
334.14376
334.05389
333.87374
333.79718
333.63444
333.56833
333.41977
333.36202
333.22505
333.17414
333.04675
333.00156
332.88211
332.84181
332.72897
332.69294
332.58561
332.5534
332.45064
332.4219
332.32293
332.29742
332.20154
332.1791
332.0857
332.0662
331.97475
331.95815
331.86813
331.85441
331.76535
331.75456
331.666
331.65823
331.56974
331.56506
331.47633
331.47456
331.38602
336.13154
336.161
336.05829
335.83993
335.7079
335.45418
335.32212
335.0808
334.96407
334.74553
334.64524
334.44881
334.36281
334.18538
334.1111
333.94955
333.88481
333.73644
333.67954
333.54213
333.49176
333.3635
333.31868
333.19807
333.15807
333.04387
333.00811
332.89927
332.86734
332.76298
332.73455
332.63391
332.60874
332.51116
332.48909
332.39397
332.3749
332.28171
332.26557
332.17382
332.16059
332.06984
332.05954
331.96935
331.96203
331.87204
331.86768
331.77771
331.77601
331.68651
336.18171
336.20441
336.14827
335.97018
335.87355
335.65074
335.54098
335.31898
335.21564
335.00889
334.91674
334.72752
334.6466
334.47355
334.40254
334.24354
334.18097
334.03396
333.97853
333.84168
333.79236
333.66408
333.62005
333.49903
333.45965
333.34475
333.30952
333.19977
333.16831
333.0629
333.03492
332.93311
332.9084
332.80956
332.78796
332.69154
332.67294
332.57841
332.56275
332.46967
332.45691
332.36484
332.35499
332.26356
332.2566
332.1655
332.16136
332.07049
332.06881
331.97859
336.2269
336.24059
336.21816
336.07332
336.00781
335.8146
335.72694
335.52537
335.4364
335.24311
335.16028
334.97991
334.90515
334.73794
334.6711
334.51595
334.45629
334.31175
334.25842
334.12308
334.07531
333.94787
333.90503
333.78434
333.74591
333.63097
333.59654
333.48648
333.45572
333.34978
333.32243
333.21995
333.19582
333.0962
333.07514
332.97785
332.95978
332.86434
332.84917
332.75515
332.74286
332.64987
332.64042
332.54813
332.54148
332.44963
332.44564
332.3542
332.35251
332.26182
336.26787
336.27232
336.27316
336.15484
336.1156
335.94971
335.8831
335.70219
335.62803
335.44929
335.37663
335.2064
335.13869
334.97858
334.91673
334.76656
334.71051
334.56947
334.51881
334.38589
334.34017
334.21436
334.17312
334.05348
334.01635
333.90202
333.86866
333.75888
333.72903
333.62311
333.59656
333.4939
333.47049
333.37054
333.35014
333.25242
333.23493
333.13899
333.12436
333.02981
333.01798
332.92446
332.91539
332.82261
332.81622
332.72399
332.72011
332.62841
332.6267
332.5358
336.30519
336.3013
336.3174
336.21955
336.20164
336.06012
336.01283
335.85209
335.7926
335.629
335.56699
335.40785
335.34785
335.19586
335.13966
334.99546
334.94363
334.80699
334.75955
334.62989
334.58667
334.46325
334.42401
334.30611
334.27059
334.1575
334.12548
334.01655
333.98783
333.88246
333.85689
333.75455
333.73199
333.63218
333.61253
333.51481
333.49798
333.40197
333.3879
333.29322
333.28186
333.1882
333.1795
333.08661
333.08046
332.98818
332.9844
332.89274
332.89101
332.80017
336.33928
336.32844
336.35395
336.27147
336.2702
336.14978
336.1196
335.97793
335.93252
335.78411
335.7329
335.58542
335.53356
335.39045
335.34042
335.20301
335.1559
335.02447
334.98072
334.85505
334.81475
334.69442
334.65753
334.542
334.50841
334.39714
334.36673
334.25919
334.23183
334.12752
334.10311
334.00156
333.97999
333.88077
333.86197
333.7647
333.7486
333.65291
333.63946
333.54504
333.53418
333.44075
333.43242
333.33977
333.33385
333.24187
333.23817
333.14685
333.14512
333.05459
336.37048
336.35416
336.38505
336.31384
336.32501
336.22236
336.20684
336.0827
336.05037
335.91679
335.87617
335.74059
335.69706
335.56334
335.51983
335.38981
335.34784
335.22225
335.18258
335.06155
335.02454
334.9079
334.87369
334.76112
334.72975
334.62085
334.59229
334.48665
334.46086
334.35809
334.335
334.23469
334.21426
334.11606
334.09822
334.0018
333.98651
333.89154
333.87876
333.78498
333.77465
333.68182
333.67387
333.58182
333.57613
333.48477
333.48116
333.39047
333.38874
333.29879
336.39906
336.37861
336.41223
336.34914
336.36917
336.28112
336.27775
336.16932
336.14879
336.0293
335.99881
335.87503
335.83979
335.71573
335.67891
335.55672
335.52015
335.4009
335.36562
335.24976
335.21634
335.10391
335.07268
334.96356
334.93467
334.82863
334.80215
334.69889
334.67485
334.57406
334.55246
334.45384
334.43466
334.3379
334.32113
334.22594
334.21154
334.11768
334.10562
334.01285
334.00307
333.9112
333.90364
333.81252
333.80708
333.71663
333.71314
333.62335
333.62165
333.53254
336.42525
336.40178
336.43648
336.37922
336.40522
336.32892
336.33526
336.24059
336.2304
336.12399
336.10292
335.99059
335.96339
335.849
335.81888
335.70476
335.67374
335.5612
335.53051
335.42022
335.39062
335.28286
335.25481
335.1496
335.12339
335.02065
334.99644
334.89598
334.87386
334.77547
334.75551
334.65896
334.64116
334.54622
334.53061
334.43704
334.4236
334.3312
334.31992
334.22849
334.21932
334.12873
334.1216
334.03172
334.02654
333.93731
333.93395
333.84533
333.84368
333.75566
336.44926
336.42361
336.45844
336.40542
336.43512
336.36812
336.38194
336.29907
336.29767
336.20317
336.19063
336.08916
336.06958
335.96468
335.94113
335.83514
335.80968
335.70406
335.67807
335.57365
335.54802
335.44526
335.42057
335.31964
335.29628
335.1972
335.17542
335.07813
335.05808
334.96246
334.94425
334.85013
334.83383
334.74105
334.72669
334.63508
334.62268
334.53207
334.52161
334.43187
334.42334
334.33433
334.32766
334.23931
334.23443
334.14668
334.14348
334.05629
334.0547
333.96804
336.47124
336.44406
336.47849
336.42863
336.46036
336.40062
336.41997
336.34703
336.35291
336.26902
336.26402
336.17267
336.16015
336.06438
336.0471
335.94915
335.92916
335.83053
335.80925
335.71089
335.68931
335.59178
335.57056
335.47418
335.45379
335.35869
335.33945
335.24566
335.22779
335.13525
335.11891
335.02754
335.01282
334.92253
334.90949
334.82015
334.80884
334.72033
334.71076
334.62298
334.61513
334.52799
334.52182
334.43527
334.43072
334.3447
334.34169
334.25617
334.25467
334.16959
336.49137
336.46309
336.49685
336.44947
336.48203
336.42792
336.45115
336.38646
336.39816
336.32357
336.32508
336.24298
336.23684
336.14971
336.13833
336.04818
336.03346
335.94177
335.92512
335.83289
335.81534
335.72322
335.70551
335.61388
335.59653
335.50564
335.48903
335.39898
335.38338
335.2942
335.27979
335.19146
335.17838
335.09085
335.07921
334.9924
334.98224
334.8961
334.88746
334.80191
334.79478
334.70977
334.70413
334.61962
334.61543
334.53138
334.52859
334.44496
334.44356
334.3603
336.50977
336.48069
336.51366
336.46832
336.50091
336.45118
336.47694
336.41901
336.43523
336.36867
336.37564
336.30187
336.30138
336.22229
336.21632
336.13363
336.12389
336.03898
336.0268
335.94067
335.92709
335.84042
335.8262
335.73947
335.72518
335.63867
335.62472
335.53862
335.52532
335.43971
335.42729
335.34223
335.33085
335.24632
335.23611
335.15209
335.14312
335.05959
335.0519
334.96882
334.96245
334.87979
334.87472
334.79247
334.78867
334.7068
334.70425
334.62272
334.62144
334.54021
336.52656
336.49689
336.52898
336.48544
336.51752
336.47123
336.49849
336.44606
336.46562
336.40592
336.41735
336.35098
336.35539
336.28367
336.28257
336.20691
336.20178
336.1234
336.11547
336.03532
336.02556
335.94434
335.93354
335.85175
335.84048
335.75846
335.74717
335.66516
335.65418
335.57231
335.5619
335.48028
335.47063
335.38929
335.38054
335.29951
335.29176
335.21104
335.20435
335.12394
335.11834
335.03825
335.03376
334.95396
334.95058
334.87108
334.8688
334.78956
334.78841
334.70939
336.54183
336.51172
336.54287
336.50096
336.53224
336.48871
336.51667
336.4687
336.49063
336.43671
336.45169
336.39181
336.40035
336.33531
336.33851
336.2694
336.26846
336.19629
336.1923
336.11794
336.11182
336.03596
336.02844
335.95158
335.94325
335.86577
335.85709
335.77925
335.77057
335.69257
335.68416
335.60612
335.5982
335.52021
335.51293
335.43505
335.42853
335.35079
335.34511
335.26754
335.26275
335.18537
335.18149
335.10432
335.10137
335.02441
335.02241
334.94563
334.94462
334.868
336.55565
336.52519
336.55536
336.515
336.54529
336.50405
336.53214
336.4878
336.51129
336.46223
336.47992
336.42568
336.43763
336.37858
336.38549
336.32238
336.32519
336.25885
336.25847
336.18966
336.18692
336.11627
336.11186
336.03986
336.03435
335.96139
335.95524
335.88161
335.87517
335.8011
335.79466
335.7203
335.71409
335.63956
335.63375
335.55913
335.55385
335.47922
335.47455
335.39996
335.39598
335.32147
335.31821
335.2438
335.24131
335.16702
335.16532
335.09114
335.09027
335.01619
336.56809
336.53735
336.5665
336.5276
336.55685
336.51755
336.54539
336.50402
336.52844
336.48344
336.50312
336.45375
336.46842
336.41469
336.42473
336.36709
336.37317
336.31225
336.31512
336.25155
336.25192
336.18627
336.18477
336.1175
336.11466
336.04615
336.04241
335.97298
335.9687
335.89858
335.89405
335.82341
335.81887
335.74787
335.74349
335.67224
335.66817
335.59676
335.59309
335.52159
335.51842
335.44688
335.44425
335.37272
335.37068
335.29919
335.29779
335.22633
335.22562
335.15421
336.57915
336.54821
336.57631
336.53883
336.56702
336.52944
336.55677
336.51789
336.54273
336.50114
336.5222
336.477
336.49379
336.44473
336.45736
336.40464
336.41354
336.3576
336.36334
336.30468
336.30785
336.24696
336.24811
336.18541
336.18504
336.12089
336.11942
336.05412
336.05189
335.98569
335.98299
335.91609
335.91316
335.84572
335.84274
335.7749
335.77201
335.70387
335.7012
335.63285
335.63048
335.56199
335.55999
335.49142
335.48985
335.42124
335.42014
335.35151
335.35094
335.28231
336.58884
336.55776
336.58481
336.54872
336.57587
336.53987
336.56653
336.52978
336.55468
336.51596
336.5379
336.49627
336.51464
336.46967
336.48437
336.43606
336.44731
336.39592
336.40413
336.35004
336.35569
336.29928
336.30283
336.24448
336.24639
336.18643
336.18706
336.1258
336.12548
336.06315
336.06218
335.99899
335.99758
335.93371
335.93205
335.86764
335.86589
335.80106
335.79934
335.7342
335.73261
335.66723
335.66584
335.6003
335.59917
335.53352
335.53272
335.46698
335.46657
335.40078
336.5971
336.56602
336.59205
336.55731
336.58349
336.54897
336.57489
336.53999
336.56468
336.5284
336.55083
336.51225
336.53174
336.49034
336.50663
336.46225
336.47541
336.42815
336.43845
336.38855
336.39635
336.34413
336.34981
336.29559
336.29953
336.2436
336.24614
336.18878
336.19023
336.13168
336.1323
336.07276
336.07278
336.01244
336.01204
335.95104
335.95038
335.88885
335.88805
335.82612
335.82528
335.76303
335.76224
335.69975
335.69907
335.63641
335.63591
335.57312
335.57285
335.50997
336.60387
336.57298
336.59804
336.56466
336.58993
336.55683
336.58197
336.54874
336.57304
336.53888
336.56146
336.52552
336.54573
336.50743
336.52491
336.48399
336.49867
336.45512
336.46714
336.42109
336.43071
336.38238
336.3899
336.33955
336.34529
336.29318
336.29744
336.24382
336.24687
336.19197
336.19406
336.13807
336.13941
336.08253
336.0833
336.02567
336.02602
335.96779
335.96785
335.90912
335.90899
335.84988
335.84965
335.79023
335.78998
335.73032
335.73011
335.67028
335.67015
335.61021
336.60909
336.57866
336.60285
336.57083
336.59526
336.56355
336.58791
336.55621
336.58
336.54769
336.5702
336.53654
336.55714
336.52155
336.53984
336.50199
336.51782
336.47758
336.49098
336.44841
336.45954
336.41478
336.42387
336.37713
336.38443
336.33592
336.34168
336.29163
336.2961
336.24471
336.24812
336.19558
336.19812
336.1446
336.14645
336.09212
336.09341
336.0384
336.03927
335.98371
335.98425
335.92824
335.92854
335.87218
335.87232
335.81568
335.81573
335.75888
335.75889
335.70189
336.61276
336.5831
336.60654
336.57589
336.59955
336.56919
336.59281
336.56254
336.58575
336.55509
336.57734
336.54567
336.56641
336.53318
336.55198
336.51682
336.53347
336.49619
336.51064
336.47122
336.48355
336.44207
336.45245
336.40905
336.41766
336.37253
336.37958
336.3329
336.33862
336.29056
336.29514
336.24591
336.24952
336.19926
336.20207
336.15095
336.1531
336.10125
336.10285
336.0504
336.05155
335.99861
335.99941
335.94606
335.94658
335.89292
335.89322
335.83932
335.83945
335.78538
336.61495
336.58638
336.6092
336.57993
336.60289
336.57386
336.59676
336.56784
336.59044
336.56127
336.58314
336.55323
336.57389
336.54273
336.56178
336.52898
336.54616
336.51151
336.52672
336.49013
336.50339
336.46489
336.47629
336.43597
336.44565
336.40365
336.4118
336.36827
336.37505
336.33017
336.33575
336.28967
336.29422
336.2471
336.25076
336.20275
336.20565
336.15687
336.15913
336.10971
336.11142
336.06147
336.06272
336.01234
336.0132
335.96247
335.96301
335.91202
335.91227
335.8611
336.61585
336.58864
336.61094
336.58305
336.60536
336.57763
336.59985
336.57222
336.59418
336.5664
336.58779
336.55945
336.57987
336.55053
336.5696
336.53889
336.55635
336.52403
336.53974
336.50568
336.5196
336.48379
336.49597
336.45847
336.469
336.4299
336.43893
336.39835
336.40601
336.3641
336.37054
336.32745
336.33281
336.28867
336.29308
336.24804
336.25161
336.20579
336.20863
336.16215
336.16436
336.11732
336.11898
336.07149
336.07266
336.0248
336.02554
335.97741
335.97777
335.92944
336.61572
336.59001
336.61188
336.58535
336.60707
336.58061
336.60217
336.57578
336.5971
336.57061
336.59145
336.56453
336.58457
336.55684
336.57576
336.54688
336.56441
336.53414
336.55012
336.51832
336.53267
336.49929
336.51202
336.47708
336.48825
336.45181
336.46152
336.42369
336.43205
336.39293
336.40007
336.35979
336.36582
336.32452
336.32955
336.28735
336.29149
336.24851
336.25186
336.20821
336.21085
336.16663
336.16864
336.12396
336.1254
336.08034
336.08127
336.03592
336.03637
335.99082
336.61485
336.5907
336.61215
336.58694
336.6081
336.58287
336.60381
336.57861
336.59929
336.57399
336.59425
336.5686
336.58818
336.56188
336.5805
336.55324
336.57065
336.5422
336.55823
336.52845
336.54301
336.51181
336.52488
336.49226
336.50388
336.46987
336.48009
336.44478
336.45368
336.41715
336.42483
336.3872
336.39377
336.35515
336.36069
336.32119
336.32581
336.28553
336.28931
336.24837
336.25138
336.20987
336.21219
336.17021
336.17189
336.12953
336.13062
336.08797
336.0885
336.04565
336.61355
336.59085
336.61189
336.58795
336.60856
336.58451
336.60484
336.58077
336.60082
336.57664
336.59628
336.57181
336.59083
336.56581
336.584
336.55818
336.57531
336.54847
336.56438
336.53638
336.55097
336.52173
336.53495
336.50443
336.5163
336.48452
336.49506
336.46207
336.47135
336.43723
336.44532
336.41015
336.41713
336.38102
336.38697
336.35001
336.35501
336.31731
336.32143
336.28308
336.28639
336.24748
336.25005
336.21067
336.21254
336.17279
336.17401
336.13397
336.13457
336.09433
336.61202
336.59063
336.61122
336.58846
336.60853
336.58562
336.60535
336.58236
336.60176
336.57864
336.59762
336.57422
336.59264
336.56876
336.58642
336.56187
336.57859
336.55317
336.56882
336.5424
336.55685
336.52934
336.54256
336.51392
336.52588
336.49612
336.50683
336.47597
336.48549
336.45358
336.46194
336.42907
336.43634
336.40258
336.40883
336.37427
336.37956
336.34428
336.34867
336.31277
336.31633
336.27989
336.28266
336.24577
336.2478
336.21054
336.21187
336.17433
336.17499
336.13724
336.6104
336.59016
336.61024
336.58859
336.60811
336.58626
336.6054
336.58343
336.60219
336.58004
336.59835
336.57592
336.59367
336.57082
336.58787
336.56444
336.58065
336.55648
336.57173
336.5467
336.56089
336.53493
336.54799
336.52104
336.53295
336.505
336.51576
336.48683
336.49645
336.46658
336.47509
336.44434
336.4518
336.42022
336.42667
336.39435
336.39985
336.36685
336.37145
336.33786
336.3416
336.30751
336.31043
336.2759
336.27806
336.24318
336.24459
336.20944
336.21014
336.17479
336.60878
336.58952
336.60904
336.5884
336.60736
336.58651
336.60506
336.58404
336.60214
336.5809
336.5985
336.57696
336.594
336.57206
336.58843
336.56598
336.58159
336.55852
336.57326
336.54947
336.56326
336.53868
336.55146
336.52603
336.53775
336.51146
336.52212
336.49496
336.50456
336.47655
336.48511
336.45631
336.46385
336.43431
336.44087
336.41064
336.41626
336.38541
336.39014
336.35873
336.3626
336.33071
336.33375
336.30146
336.30371
336.27108
336.27256
336.23968
336.24041
336.20734
336.60716
336.58877
336.60768
336.58797
336.60636
336.58644
336.60438
336.58423
336.60166
336.58124
336.59811
336.57736
336.59364
336.5725
336.58814
336.56656
336.58149
336.55939
336.57354
336.55083
336.56413
336.54077
336.55316
336.52908
336.54052
336.51571
336.52617
336.50061
336.51009
336.4838
336.4923
336.4653
336.47283
336.44517
336.45176
336.42347
336.42915
336.4003
336.40509
336.37573
336.37967
336.34987
336.35298
336.3228
336.3251
336.29461
336.29613
336.2654
336.26615
336.23525
336.60556
336.58794
336.60621
336.58735
336.60515
336.58608
336.60339
336.58404
336.60077
336.58108
336.59719
336.57713
336.59261
336.57218
336.58703
336.56621
336.5804
336.55914
336.57263
336.55089
336.56361
336.54133
336.55325
336.53038
336.54144
336.51796
336.52814
336.50403
336.5133
336.48857
336.49692
336.47158
336.47902
336.45309
336.45964
336.43316
336.43883
336.41184
336.41664
336.3892
336.39316
336.36531
336.36845
336.34026
336.34259
336.31411
336.31565
336.28695
336.28772
336.25885
336.60394
336.58704
336.60465
336.58657
336.60377
336.58548
336.60214
336.58349
336.59948
336.58042
336.59572
336.57627
336.59091
336.57109
336.58511
336.56494
336.57834
336.55783
336.57059
336.54969
336.56178
336.54046
336.55184
336.53005
336.54066
336.51838
336.5282
336.5054
336.51439
336.49107
336.49922
336.47539
336.48268
336.45835
336.46479
336.43998
336.44558
336.42032
336.42509
336.39943
336.40337
336.37735
336.38049
336.35416
336.35649
336.3299
336.33145
336.30466
336.30543
336.27849
336.6023
336.58609
336.60303
336.58567
336.60225
336.58464
336.60061
336.58257
336.59778
336.57925
336.5937
336.57475
336.58851
336.5692
336.58235
336.56275
336.57533
336.55546
336.56746
336.5473
336.55871
336.53824
336.54901
336.5282
336.5383
336.51711
336.5265
336.5049
336.51354
336.49152
336.49939
336.47694
336.48403
336.46116
336.46745
336.44418
336.44967
336.42602
336.4307
336.4067
336.41059
336.38628
336.38938
336.36479
336.3671
336.34229
336.34382
336.31882
336.31959
336.29445
336.60063
336.58509
336.60136
336.58465
336.60059
336.58358
336.59882
336.58126
336.59564
336.57753
336.59108
336.57253
336.58537
336.56649
336.57874
336.55962
336.57134
336.55202
336.56323
336.54373
336.55442
336.53471
336.54485
336.52491
336.53446
336.51424
336.52316
336.50265
336.5109
336.49006
336.49761
336.47644
336.48327
336.46176
336.46784
336.446
336.45133
336.42917
336.43373
336.41128
336.41508
336.39236
336.39539
336.37243
336.37471
336.35155
336.35306
336.32974
336.33049
336.30705
336.5989
336.58402
336.59963
336.58353
336.5988
336.58228
336.59672
336.57953
336.593
336.5752
336.5878
336.56955
336.58144
336.5629
336.57422
336.55551
336.56634
336.54752
336.55791
336.539
336.54894
336.52992
336.5394
336.52024
336.52921
336.50989
336.5183
336.49878
336.5066
336.48685
336.49404
336.47404
336.48057
336.46031
336.46615
336.44563
336.45077
336.42999
336.43441
336.41339
336.41707
336.39583
336.39878
336.37734
336.37956
336.35794
336.35942
336.33766
336.3384
336.31654
336.59711
336.58289
336.59785
336.58229
336.59685
336.58071
336.59427
336.57732
336.58981
336.5722
336.58379
336.56575
336.57664
336.55837
336.56874
336.55037
336.56031
336.54192
336.55149
336.53309
336.54229
336.52389
336.53269
336.51425
336.52262
336.50411
336.512
336.49338
336.50075
336.482
336.4888
336.46988
336.47609
336.45698
336.46256
336.44326
336.44818
336.42868
336.43293
336.41324
336.41679
336.39692
336.39978
336.37974
336.38189
336.36172
336.36315
336.34286
336.34357
336.32319
336.59524
336.5817
336.59601
336.58091
336.5947
336.57879
336.59139
336.57453
336.58597
336.56843
336.57895
336.56103
336.57091
336.55283
336.56224
336.54416
336.55321
336.53519
336.54394
336.52602
336.53446
336.51663
336.52475
336.50697
336.51473
336.49697
336.50433
336.48655
336.49346
336.47562
336.48203
336.4641
336.46997
336.45193
336.45722
336.43905
336.44374
336.42542
336.42948
336.41103
336.41443
336.39584
336.39858
336.37986
336.38193
336.3631
336.36447
336.34555
336.34624
336.32723
336.59328
336.58045
336.59409
336.57936
336.59229
336.57646
336.58798
336.57107
336.58136
336.56378
336.57319
336.55531
336.56414
336.54621
336.55466
336.53682
336.54498
336.52731
336.53524
336.51776
336.52546
336.50815
336.5156
336.49844
336.5056
336.48854
336.49536
336.47836
336.4848
336.46782
336.47381
336.45681
336.46233
336.44528
336.45027
336.43315
336.43759
336.42038
336.42424
336.40693
336.41018
336.39278
336.39539
336.3779
336.37987
336.36229
336.36361
336.34596
336.34662
336.3289
336.59122
336.57913
336.59207
336.57759
336.58953
336.5736
336.58391
336.56679
336.57586
336.55813
336.5664
336.54848
336.55627
336.53843
336.54592
336.52829
336.53559
336.51823
336.52537
336.5083
336.51528
336.49847
336.50527
336.48868
336.49525
336.47885
336.48515
336.46888
336.47484
336.45866
336.46425
336.44812
336.45328
336.43715
336.44184
336.4257
336.42989
336.41371
336.41735
336.40112
336.40419
336.3879
336.39038
336.37403
336.37591
336.35949
336.36075
336.34428
336.34491
336.3284
336.58904
336.57775
336.5899
336.5755
336.5863
336.57006
336.57903
336.56155
336.56932
336.55135
336.55844
336.54045
336.54719
336.52942
336.53597
336.51854
336.52499
336.50794
336.51432
336.49764
336.50393
336.48759
336.49376
336.47773
336.48373
336.46796
336.47374
336.45816
336.46367
336.44825
336.45343
336.43811
336.44292
336.42766
336.43205
336.41682
336.42075
336.40553
336.40896
336.39373
336.39663
336.38137
336.38372
336.36843
336.37021
336.35488
336.35608
336.34071
336.34131
336.32592
336.58673
336.57631
336.58752
336.573
336.58243
336.56566
336.57316
336.55519
336.5616
336.54332
336.54922
336.53111
336.53682
336.5191
336.52475
336.50751
336.51316
336.49641
336.50206
336.48577
336.4914
336.47554
336.48111
336.46562
336.47107
336.4559
336.46119
336.44628
336.45135
336.43664
336.44143
336.42688
336.43134
336.4169
336.42099
336.40663
336.4103
336.39598
336.39919
336.3849
336.38763
336.37334