/*--------------------------------*- C++ -*----------------------------------*\
| =========                 |                                                 |
| \\      /  F ield         | OpenFOAM: The Open Source CFD Toolbox           |
|  \\    /   O peration     | Version:  2312                                  |
|   \\  /    A nd           | Website:  www.openfoam.com                      |
|    \\/     M anipulation  |                                                 |
\*---------------------------------------------------------------------------*/
FoamFile
{
    version     2.0;
    format      ascii;
    arch        "LSB;label=32;scalar=64";
    class       volVectorField;
    location    "10";
    object      U_0;
}
// * * * * * * * * * * * * * * * * * * * * * * * * * * * * * * * * * * * * * //

dimensions      [0 1 -1 0 0 0 0];

internalField   nonuniform List<vector> 
4000
(
(0.0023322987 0.0004242095 0)
(0.0030396488 -6.8492947e-06 0)
(0.0024291742 -3.4851739e-07 0)
(0.0025689294 2.2572018e-07 0)
(0.0024867559 -2.6034515e-07 0)
(0.0025432297 2.3493156e-07 0)
(0.0024909343 -2.2179011e-07 0)
(0.0025384014 2.0826481e-07 0)
(0.002494191 -1.9549758e-07 0)
(0.0025355196 1.8390264e-07 0)
(0.0024967151 -1.7308043e-07 0)
(0.0025331232 1.6285611e-07 0)
(0.0024989156 -1.5332377e-07 0)
(0.0025310306 1.4433377e-07 0)
(0.0025008701 -1.3591242e-07 0)
(0.0025291821 1.2799846e-07 0)
(0.0025026062 -1.2057141e-07 0)
(0.0025275439 1.1360508e-07 0)
(0.0025041477 -1.0706468e-07 0)
(0.0025260898 1.0093733e-07 0)
(0.0025055172 -9.518584e-08 0)
(0.0025247974 8.9803254e-08 0)
(0.0025067354 -8.475377e-08 0)
(0.0025236469 8.0033598e-08 0)
(0.0025078207 -7.5609508e-08 0)
(0.0025226209 7.1479675e-08 0)
(0.0025087897 -6.7613787e-08 0)
(0.0025217037 6.4011301e-08 0)
(0.002509657 -6.064489e-08 0)
(0.0025208815 5.7514842e-08 0)
(0.0025104358 -5.4596777e-08 0)
(0.0025201416 5.189149e-08 0)
(0.0025111381 -4.9377461e-08 0)
(0.002519473 4.7055751e-08 0)
(0.0025117744 -4.4907595e-08 0)
(0.0025188654 4.2934146e-08 0)
(0.0025123544 -4.1119284e-08 0)
(0.0025183097 3.9464127e-08 0)
(0.0025128869 -3.7955102e-08 0)
(0.0025177975 3.6593208e-08 0)
(0.00251338 -3.5367346e-08 0)
(0.0025173209 3.4278405e-08 0)
(0.0025138412 -3.3317648e-08 0)
(0.0025168729 3.2485963e-08 0)
(0.0025142771 -3.1778584e-08 0)
(0.0025164458 3.1189013e-08 0)
(0.0025146945 -3.0741455e-08 0)
(0.002516046 3.0401239e-08 0)
(0.0025151751 -2.9940775e-08 0)
(0.0025159517 3.2030928e-08 0)
(0.0062522368 0.0011616248 0)
(0.0085540604 1.9614397e-06 0)
(0.007124486 4.8728657e-06 0)
(0.0074445397 3.0589325e-07 0)
(0.0072183954 -6.0540678e-07 0)
(0.0073830743 8.1549247e-07 0)
(0.0072294958 -7.5501928e-07 0)
(0.0073697961 7.2659853e-07 0)
(0.00723914 -6.8647904e-07 0)
(0.0073614343 6.4833129e-07 0)
(0.0072466121 -6.099057e-07 0)
(0.0073543637 5.7475904e-07 0)
(0.0072531326 -5.4076444e-07 0)
(0.0073481721 5.0931087e-07 0)
(0.0072589257 -4.7947643e-07 0)
(0.0073427004 4.5162559e-07 0)
(0.0072640714 -4.2539651e-07 0)
(0.0073378505 4.0083389e-07 0)
(0.0072686408 -3.7776237e-07 0)
(0.007333545 3.5614474e-07 0)
(0.0072727013 -3.3586432e-07 0)
(0.0073297173 3.1687085e-07 0)
(0.0072763138 -2.9906864e-07 0)
(0.0073263091 2.824121e-07 0)
(0.0072795332 -2.6681621e-07 0)
(0.0073232684 2.5224328e-07 0)
(0.0072824085 -2.3861631e-07 0)
(0.0073205491 2.2590504e-07 0)
(0.0072849833 -2.1403982e-07 0)
(0.0073181099 2.0299658e-07 0)
(0.007287297 -1.9271279e-07 0)
(0.0073159137 1.8316938e-07 0)
(0.0072893845 -1.7431074e-07 0)
(0.0073139272 1.6612178e-07 0)
(0.0072912776 -1.5855365e-07 0)
(0.0073121204 1.5159439e-07 0)
(0.007293005 -1.4520171e-07 0)
(0.0073104658 1.3936611e-07 0)
(0.007294593 -1.3405166e-07 0)
(0.0073089383 1.2925081e-07 0)
(0.0072960657 -1.2493391e-07 0)
(0.0073075148 1.2109475e-07 0)
(0.0072974454 -1.1770963e-07 0)
(0.0073061736 1.1477832e-07 0)
(0.0072987527 -1.1226206e-07 0)
(0.007304892 1.1020815e-07 0)
(0.0073000051 -1.0866761e-07 0)
(0.0073036686 1.064329e-07 0)
(0.0073013734 -1.1043599e-07 0)
(0.0073032028 1.0220338e-07 0)
(0.010021406 0.0018349011 0)
(0.013785792 -1.0202009e-05 0)
(0.011700577 1.2315695e-05 0)
(0.012195269 5.1126904e-07 0)
(0.011824175 -9.3008583e-07 0)
(0.012101184 1.4763802e-06 0)
(0.011843592 -1.3592176e-06 0)
(0.012079834 1.3156287e-06 0)
(0.011859952 -1.2473327e-06 0)
(0.012065891 1.1790251e-06 0)
(0.011872544 -1.1091109e-06 0)
(0.012054003 1.0456566e-06 0)
(0.011883533 -9.8362203e-07 0)
(0.012043579 9.2652199e-07 0)
(0.011893295 -8.7220401e-07 0)
(0.012034364 8.2154674e-07 0)
(0.011901966 -7.7384249e-07 0)
(0.012026195 7.2913942e-07 0)
(0.011909666 -6.8719099e-07 0)
(0.012018943 6.4784167e-07 0)
(0.011916508 -6.1096973e-07 0)
(0.012012495 5.7639649e-07 0)
(0.011922596 -5.4402904e-07 0)
(0.012006753 5.1371029e-07 0)
(0.011928023 -4.853526e-07 0)
(0.012001629 4.5882715e-07 0)
(0.01193287 -4.3404785e-07 0)
(0.011997047 4.1091136e-07 0)
(0.011937211 -3.8933412e-07 0)
(0.011992935 3.6923376e-07 0)
(0.011941113 -3.50531e-07 0)
(0.011989232 3.3316025e-07 0)
(0.011944634 -3.1704797e-07 0)
(0.011985881 3.021419e-07 0)
(0.011947829 -2.8837532e-07 0)
(0.011982832 2.7570647e-07 0)
(0.011950745 -2.6407622e-07 0)
(0.011980039 2.534511e-07 0)
(0.011953427 -2.4378006e-07 0)
(0.011977459 2.3503609e-07 0)
(0.011955916 -2.2717684e-07 0)
(0.011975053 2.2017954e-07 0)
(0.01195825 -2.1401084e-07 0)
(0.011972784 2.0866126e-07 0)
(0.011960464 -2.0405334e-07 0)
(0.011970613 2.0032096e-07 0)
(0.011962586 -1.9743541e-07 0)
(0.011968526 1.9300787e-07 0)
(0.011964857 -2.0309089e-07 0)
(0.011967578 1.846237e-07 0)
(0.013905046 0.0025302401 0)
(0.018822582 -1.4608282e-05 0)
(0.016154924 2.2792725e-05 0)
(0.016820493 4.8272405e-07 0)
(0.016304055 -1.0754841e-06 0)
(0.016697797 2.0970709e-06 0)
(0.016333043 -1.9285239e-06 0)
(0.016668731 1.8755722e-06 0)
(0.016356456 -1.7862684e-06 0)
(0.016649091 1.689703e-06 0)
(0.016374356 -1.5895495e-06 0)
(0.016632221 1.4992701e-06 0)
(0.016389978 -1.4100653e-06 0)
(0.01661741 1.3283586e-06 0)
(0.016403854 -1.2504369e-06 0)
(0.016604315 1.1778035e-06 0)
(0.016416178 -1.1094432e-06 0)
(0.016592706 1.0453078e-06 0)
(0.016427121 -9.852143e-07 0)
(0.016582399 9.2875165e-07 0)
(0.016436846 -8.7593247e-07 0)
(0.016573235 8.263229e-07 0)
(0.016445499 -7.7995427e-07 0)
(0.016565074 7.3645101e-07 0)
(0.016453212 -6.9582385e-07 0)
(0.016557791 6.5776494e-07 0)
(0.016460102 -6.2226189e-07 0)
(0.016551277 5.8906653e-07 0)
(0.016466273 -5.5814913e-07 0)
(0.016545432 5.2931048e-07 0)
(0.01647182 -5.0250997e-07 0)
(0.016540167 4.775877e-07 0)
(0.016476827 -4.5449761e-07 0)
(0.016535404 4.3311113e-07 0)
(0.016481369 -4.1338097e-07 0)
(0.016531068 3.952035e-07 0)
(0.016485517 -3.7853338e-07 0)
(0.016527096 3.6328684e-07 0)
(0.016489332 -3.4942284e-07 0)
(0.016523425 3.3687332e-07 0)
(0.016492873 -3.2560383e-07 0)
(0.016520001 3.1555707e-07 0)
(0.016496194 -3.0670734e-07 0)
(0.016516772 2.9902177e-07 0)
(0.016499346 -2.9238627e-07 0)
(0.016513681 2.8705827e-07 0)
(0.016502369 -2.8283229e-07 0)
(0.016510695 2.7598377e-07 0)
(0.016505555 -2.9463824e-07 0)
(0.016509151 2.6366823e-07 0)
(0.017423356 0.0030503483 0)
(0.023597957 -4.033912e-05 0)
(0.02048694 3.5233535e-05 0)
(0.021320197 3.4922481e-07 0)
(0.02065801 -1.0347364e-06 0)
(0.021172811 2.6443073e-06 0)
(0.020697968 -2.4416733e-06 0)
(0.021136364 2.3821006e-06 0)
(0.020728749 -2.2814731e-06 0)
(0.021110923 2.1593437e-06 0)
(0.020752135 -2.0314843e-06 0)
(0.021088919 1.9169877e-06 0)
(0.020772542 -1.8025505e-06 0)
(0.021069582 1.6983313e-06 0)
(0.020790668 -1.5986147e-06 0)
(0.02105248 1.505776e-06 0)
(0.020806763 -1.4183939e-06 0)
(0.021037319 1.3363642e-06 0)
(0.020821056 -1.259575e-06 0)
(0.021023858 1.1873466e-06 0)
(0.020833756 -1.1198565e-06 0)
(0.02101189 1.0563936e-06 0)
(0.020845057 -9.9714389e-07 0)
(0.021001231 9.4149375e-07 0)
(0.02085513 -8.8957764e-07 0)
(0.02099172 8.408935e-07 0)
(0.020864128 -7.9552267e-07 0)
(0.020983212 7.5306102e-07 0)
(0.020872188 -7.1354809e-07 0)
(0.020975579 6.7665999e-07 0)
(0.020879432 -6.4240657e-07 0)
(0.020968704 6.1052823e-07 0)
(0.02088597 -5.810153e-07 0)
(0.020962482 5.5365942e-07 0)
(0.020891903 -5.2843937e-07 0)
(0.020956821 5.0518751e-07 0)
(0.020897319 -4.838772e-07 0)
(0.020951633 4.6437319e-07 0)
(0.020902301 -4.4664806e-07 0)
(0.02094684 4.3059208e-07 0)
(0.020906925 -4.1618139e-07 0)
(0.020942369 4.0332361e-07 0)
(0.020911263 -3.9200318e-07 0)
(0.020938151 3.821633e-07 0)
(0.020915379 -3.7364656e-07 0)
(0.020934114 3.6687629e-07 0)
(0.020919328 -3.6134739e-07 0)
(0.020930204 3.5205367e-07 0)
(0.020923442 -3.8104735e-07 0)
(0.020927968 3.3610093e-07 0)
(0.021205245 0.0036654906 0)
(0.028185302 -4.6468563e-05 0)
(0.024697123 4.966318e-05 0)
(0.025692609 -9.8717099e-09 0)
(0.024886413 -8.5183067e-07 0)
(0.025525885 3.1150724e-06 0)
(0.024938786 -2.9038798e-06 0)
(0.025482379 2.8369818e-06 0)
(0.024977175 -2.7355644e-06 0)
(0.025451068 2.5899395e-06 0)
(0.025006181 -2.4368936e-06 0)
(0.025423819 2.3005817e-06 0)
(0.025031493 -2.1627802e-06 0)
(0.025399846 2.0380178e-06 0)
(0.025053971 -1.918239e-06 0)
(0.025378641 1.806868e-06 0)
(0.025073929 -1.7020255e-06 0)
(0.025359842 1.6035563e-06 0)
(0.025091651 -1.5114549e-06 0)
(0.025343151 1.4247362e-06 0)
(0.025107399 -1.343793e-06 0)
(0.02532831 1.2675968e-06 0)
(0.025121412 -1.1965345e-06 0)
(0.025315094 1.1297203e-06 0)
(0.025133901 -1.0674505e-06 0)
(0.025303301 1.0090016e-06 0)
(0.025145057 -9.545793e-07 0)
(0.025292752 9.0360244e-07 0)
(0.02515505 -8.5620417e-07 0)
(0.025283288 8.1191952e-07 0)
(0.025164031 -7.7082818e-07 0)
(0.025274764 7.3255825e-07 0)
(0.025172137 -6.9715183e-07 0)
(0.025267052 6.6431101e-07 0)
(0.025179491 -6.3405289e-07 0)
(0.025260034 6.061383e-07 0)
(0.025186204 -5.8056904e-07 0)
(0.025253603 5.571525e-07 0)
(0.02519238 -5.3588262e-07 0)
(0.025247663 5.1660343e-07 0)
(0.025198111 -4.9930773e-07 0)
(0.025242121 4.8386417e-07 0)
(0.025203485 -4.702727e-07 0)
(0.025236895 4.5844847e-07 0)
(0.025208586 -4.4818886e-07 0)
(0.025231894 4.401153e-07 0)
(0.02521348 -4.3330523e-07 0)
(0.02522704 4.2159479e-07 0)
(0.025218529 -4.6219312e-07 0)
(0.025224032 4.0189128e-07 0)
(0.024579463 0.0040807527 0)
(0.032493466 -8.5497514e-05 0)
(0.028790131 6.4339938e-05 0)
(0.029936082 -3.1993694e-07 0)
(0.028989247 -5.48759e-07 0)
(0.029756607 3.5038233e-06 0)
(0.029055938 -3.3223962e-06 0)
(0.029706405 3.2432746e-06 0)
(0.029102097 -3.1523346e-06 0)
(0.02966919 2.9846196e-06 0)
(0.029136814 -2.8088126e-06 0)
(0.02963662 2.6528292e-06 0)
(0.02916711 -2.4933948e-06 0)
(0.029607939 2.3498866e-06 0)
(0.029194011 -2.2116427e-06 0)
(0.029582565 2.083272e-06 0)
(0.029217895 -1.9624062e-06 0)
(0.029560069 1.8488318e-06 0)
(0.029239101 -1.7426905e-06 0)
(0.029540095 1.6426522e-06 0)
(0.029257945 -1.5493753e-06 0)
(0.029522336 1.4614742e-06 0)
(0.029274712 -1.3795814e-06 0)
(0.029506521 1.3025055e-06 0)
(0.029289656 -1.2307416e-06 0)
(0.02949241 1.1633181e-06 0)
(0.029303005 -1.1005949e-06 0)
(0.029479789 1.0417926e-06 0)
(0.029314961 -9.8716199e-07 0)
(0.029468465 9.3608049e-07 0)
(0.029325706 -8.8871681e-07 0)
(0.029458267 8.4457384e-07 0)
(0.029335403 -8.037608e-07 0)
(0.02944904 7.6588018e-07 0)
(0.029344201 -7.3099966e-07 0)
(0.029440644 6.9880067e-07 0)
(0.029352231 -6.6932325e-07 0)
(0.029432953 6.4231127e-07 0)
(0.029359617 -6.1778785e-07 0)
(0.029425848 5.9554582e-07 0)
(0.029366471 -5.7560093e-07 0)
(0.029419222 5.5777859e-07 0)
(0.029372898 -5.4209979e-07 0)
(0.029412972 5.2844668e-07 0)
(0.029378996 -5.1657221e-07 0)
(0.029406994 5.0732021e-07 0)
(0.029384847 -4.9924006e-07 0)
(0.029401186 4.85191e-07 0)
(0.029390834 -5.3819615e-07 0)
(0.029397339 4.6138563e-07 0)
(0.028189759 0.0045582512 0)
(0.036641783 -9.4064832e-05 0)
(0.032767681 7.979245e-05 0)
(0.034048199 -5.7722704e-07 0)
(0.032966509 -1.6885921e-07 0)
(0.033864686 3.803424e-06 0)
(0.033049841 -3.6996279e-06 0)
(0.033808125 3.6012223e-06 0)
(0.033103838 -3.5325563e-06 0)
(0.033764991 3.3437852e-06 0)
(0.033144314 -3.1476814e-06 0)
(0.033727058 2.9740767e-06 0)
(0.033179642 -2.7947418e-06 0)
(0.033693627 2.6342523e-06 0)
(0.033211007 -2.4791261e-06 0)
(0.033664046 2.3352708e-06 0)
(0.033238852 -2.1998011e-06 0)
(0.033637818 2.0724428e-06 0)
(0.033263575 -1.9535175e-06 0)
(0.033614531 1.8413189e-06 0)
(0.033285544 -1.7368135e-06 0)
(0.033593827 1.6382259e-06 0)
(0.03330509 -1.5464725e-06 0)
(0.03357539 1.4600286e-06 0)
(0.033322511 -1.3796197e-06 0)
(0.033558939 1.3040041e-06 0)
(0.033338072 -1.2337214e-06 0)
(0.033544226 1.1677768e-06 0)
(0.033352009 -1.1065591e-06 0)
(0.033531025 1.0492747e-06 0)
(0.033364534 -9.9619764e-07 0)
(0.033519138 9.4669529e-07 0)
(0.033375838 -9.0095701e-07 0)
(0.033508384 8.5847762e-07 0)
(0.033386091 -8.1938586e-07 0)
(0.033498599 7.8327742e-07 0)
(0.03339545 -7.5023904e-07 0)
(0.033489635 7.1994605e-07 0)
(0.033404056 -6.9245755e-07 0)
(0.033481357 6.6751116e-07 0)
(0.033412042 -6.4515101e-07 0)
(0.033473637 6.2515583e-07 0)
(0.033419529 -6.0757243e-07 0)
(0.033466357 5.9224554e-07 0)
(0.033426633 -5.788861e-07 0)
(0.033459394 5.6857799e-07 0)
(0.033433448 -5.5924469e-07 0)
(0.033452626 5.4297997e-07 0)
(0.033440372 -6.0882196e-07 0)
(0.033447886 5.1462257e-07 0)
(0.031639422 0.0049462587 0)
(0.040501742 -0.00014154478 0)
(0.036631761 9.4233346e-05 0)
(0.03802862 -9.5552706e-07 0)
(0.036818007 1.6659981e-07 0)
(0.037849831 3.9812388e-06 0)
(0.036920864 -4.0392695e-06 0)
(0.037787278 3.910441e-06 0)
(0.036982689 -3.8758166e-06 0)
(0.037738217 3.6671228e-06 0)
(0.037028929 -3.4530959e-06 0)
(0.037694905 3.2639465e-06 0)
(0.037069306 -3.0664599e-06 0)
(0.037656708 2.8907739e-06 0)
(0.037105151 -2.7203667e-06 0)
(0.037622904 2.5625632e-06 0)
(0.037136971 -2.4139236e-06 0)
(0.037592932 2.2741227e-06 0)
(0.037165222 -2.1436814e-06 0)
(0.037566321 2.0204998e-06 0)
(0.037190326 -1.9058818e-06 0)
(0.037542661 1.7976418e-06 0)
(0.037212661 -1.6970072e-06 0)
(0.037521592 1.6021025e-06 0)
(0.037232568 -1.5139064e-06 0)
(0.037502794 1.4308931e-06 0)
(0.037250349 -1.3538002e-06 0)
(0.037485981 1.2814066e-06 0)
(0.037266273 -1.2142539e-06 0)
(0.037470898 1.1513694e-06 0)
(0.037280584 -1.0931443e-06 0)
(0.037457316 1.0388038e-06 0)
(0.037293498 -9.8862723e-07 0)
(0.037445029 9.4199663e-07 0)
(0.037305212 -8.9910967e-07 0)
(0.03743385 8.5947238e-07 0)
(0.037315903 -8.2322453e-07 0)
(0.037423611 7.8996984e-07 0)
(0.037325734 -7.5980847e-07 0)
(0.037414155 7.3242046e-07 0)
(0.037334855 -7.078823e-07 0)
(0.037405338 6.8592401e-07 0)
(0.037343405 -6.6662189e-07 0)
(0.037397025 6.4977971e-07 0)
(0.037351516 -6.3506993e-07 0)
(0.037389077 6.2382817e-07 0)
(0.037359297 -6.1326957e-07 0)
(0.037381349 5.9494794e-07 0)
(0.037367155 -6.7373963e-07 0)
(0.037375671 5.6158163e-07 0)
(0.035040248 0.0052529806 0)
(0.044223158 -0.00015364252 0)
(0.040378408 0.0001093698 0)
(0.04188025 -1.7285699e-06 0)
(0.040545149 3.3404483e-07 0)
(0.041711826 4.0015799e-06 0)
(0.040669287 -4.3496609e-06 0)
(0.041643595 4.1689496e-06 0)
(0.040738895 -4.1825901e-06 0)
(0.041588632 3.9543449e-06 0)
(0.040790877 -3.7249462e-06 0)
(0.041539953 3.5222507e-06 0)
(0.040836296 -3.3083974e-06 0)
(0.041496998 3.1192968e-06 0)
(0.040876614 -2.935222e-06 0)
(0.041458979 2.7650154e-06 0)
(0.040912402 -2.6046455e-06 0)
(0.041425269 2.4537532e-06 0)
(0.040944176 -2.3130681e-06 0)
(0.041395338 2.1800901e-06 0)
(0.040972409 -2.0564789e-06 0)
(0.041368727 1.9396287e-06 0)
(0.040997529 -1.8310957e-06 0)
(0.041345031 1.7286444e-06 0)
(0.041019917 -1.6335221e-06 0)
(0.041323888 1.5439112e-06 0)
(0.041039913 -1.4607603e-06 0)
(0.04130498 1.3826161e-06 0)
(0.041057822 -1.3101836e-06 0)
(0.041288017 1.242306e-06 0)
(0.041073915 -1.1795006e-06 0)
(0.041272743 1.120847e-06 0)
(0.041088437 -1.0667212e-06 0)
(0.041258926 1.0163902e-06 0)
(0.041101609 -9.7012608e-07 0)
(0.041246357 9.2734333e-07 0)
(0.04111363 -8.8823924e-07 0)
(0.041234844 8.5234458e-07 0)
(0.041124682 -8.1980417e-07 0)
(0.041224213 7.9023936e-07 0)
(0.041134936 -7.6376195e-07 0)
(0.041214302 7.4005227e-07 0)
(0.041144546 -7.1921873e-07 0)
(0.041204958 7.0102165e-07 0)
(0.041153662 -6.8509933e-07 0)
(0.041196028 6.7304484e-07 0)
(0.041162407 -6.6130003e-07 0)
(0.041187343 6.4110462e-07 0)
(0.041171191 -7.32684e-07 0)
(0.041180694 6.023118e-07 0)
(0.038610418 0.0056357679 0)
(0.04767491 -0.0002056274 0)
(0.043992678 0.00012244524 0)
(0.045608771 -1.5630258e-06 0)
(0.04415164 6.1531399e-07 0)
(0.045450884 3.9316831e-06 0)
(0.044295503 -4.6153241e-06 0)
(0.04537687 4.3815236e-06 0)
(0.044372688 -4.4520112e-06 0)
(0.045316027 4.2059225e-06 0)
(0.04443036 -3.9632895e-06 0)
(0.045262016 3.7491188e-06 0)
(0.044480787 -3.5206539e-06 0)
(0.045214333 3.3199187e-06 0)
(0.04452555 -3.1237818e-06 0)
(0.045172125 2.942714e-06 0)
(0.044565282 -2.772046e-06 0)
(0.045134699 2.6114116e-06 0)
(0.044600556 -2.4617479e-06 0)
(0.04510147 2.3201581e-06 0)
(0.044631899 -2.1886673e-06 0)
(0.045071926 2.0642474e-06 0)
(0.044659785 -1.9487938e-06 0)
(0.045045619 1.8397087e-06 0)
(0.044684639 -1.7385168e-06 0)
(0.045022147 1.6431072e-06 0)
(0.044706837 -1.5546469e-06 0)
(0.045001156 1.4714492e-06 0)
(0.044726718 -1.3943887e-06 0)
(0.044982325 1.3221241e-06 0)
(0.044744582 -1.2553034e-06 0)
(0.04496537 1.1928606e-06 0)
(0.044760702 -1.1352727e-06 0)
(0.044950033 1.0816912e-06 0)
(0.044775322 -1.0324661e-06 0)
(0.044936082 9.8692049e-07 0)
(0.044788664 -9.4531204e-07 0)
(0.044923304 9.0709849e-07 0)
(0.044800931 -8.7247179e-07 0)
(0.044911506 8.4099463e-07 0)
(0.044812309 -8.1281596e-07 0)
(0.044900507 7.8756651e-07 0)
(0.044822973 -7.6538852e-07 0)
(0.04489014 7.4599714e-07 0)
(0.044833087 -7.2900162e-07 0)
(0.044880234 7.1625248e-07 0)
(0.044842789 -7.0337184e-07 0)
(0.0448706 6.8150156e-07 0)
(0.044852488 -7.8546888e-07 0)
(0.044862956 6.3693264e-07 0)
(0.041759926 0.005769116 0)
(0.05101437 -0.00022289329 0)
(0.047479324 0.00013399538 0)
(0.049212795 -1.4812092e-06 0)
(0.047639156 8.0606447e-07 0)
(0.049066882 3.7430695e-06 0)
(0.047799762 -4.8453305e-06 0)
(0.0489869 4.5470533e-06 0)
(0.047884274 -4.6849224e-06 0)
(0.048920213 4.4221084e-06 0)
(0.047947555 -4.1684723e-06 0)
(0.048860925 3.9448135e-06 0)
(0.048002938 -3.7034983e-06 0)
(0.048808563 3.4928816e-06 0)
(0.0480521 -3.2862782e-06 0)
(0.048762211 3.0958768e-06 0)
(0.048095733 -2.9163291e-06 0)
(0.048721108 2.7472915e-06 0)
(0.04813447 -2.5899013e-06 0)
(0.048684614 2.4408763e-06 0)
(0.04816889 -2.3026076e-06 0)
(0.048652169 2.1716512e-06 0)
(0.048199515 -2.0502446e-06 0)
(0.048623277 1.9354319e-06 0)
(0.048226808 -1.8290182e-06 0)
(0.048597501 1.7286031e-06 0)
(0.048251185 -1.6355743e-06 0)
(0.048574448 1.5480152e-06 0)
(0.048273017 -1.4669721e-06 0)
(0.04855377 1.3909218e-06 0)
(0.048292634 -1.3206456e-06 0)
(0.048535151 1.2549335e-06 0)
(0.048310334 -1.1943658e-06 0)
(0.04851831 1.1379801e-06 0)
(0.048326387 -1.0862065e-06 0)
(0.048502991 1.0382776e-06 0)
(0.048341037 -9.9451333e-07 0)
(0.048488961 9.5429955e-07 0)
(0.048354505 -9.1787665e-07 0)
(0.048476008 8.8474962e-07 0)
(0.048366996 -8.5510567e-07 0)
(0.048463934 8.285267e-07 0)
(0.048378702 -8.0518983e-07 0)
(0.048452554 7.8476408e-07 0)
(0.048389804 -7.6683529e-07 0)
(0.048441682 7.5350614e-07 0)
(0.048400452 -7.3955147e-07 0)
(0.048431113 7.1621493e-07 0)
(0.048411054 -8.3196733e-07 0)
(0.048422457 6.6561057e-07 0)
(0.04546504 0.0061512992 0)
(0.054127142 -0.00026916687 0)
(0.050840305 0.00014207311 0)
(0.05269054 -1.9244408e-06 0)
(0.051007206 8.1625938e-07 0)
(0.052559616 3.4331316e-06 0)
(0.051182257 -5.0425365e-06 0)
(0.052473517 4.6667355e-06 0)
(0.051273843 -4.8815462e-06 0)
(0.052401026 4.6035526e-06 0)
(0.051342627 -4.3408567e-06 0)
(0.05233653 4.1097578e-06 0)
(0.051402891 -3.8572918e-06 0)
(0.052279557 3.6385403e-06 0)
(0.051456388 -3.4230377e-06 0)
(0.052229118 3.2248156e-06 0)
(0.051503867 -3.0377852e-06 0)
(0.052184392 2.8616694e-06 0)
(0.051546017 -2.6977864e-06 0)
(0.052144681 2.5424898e-06 0)
(0.05158347 -2.3985291e-06 0)
(0.052109374 2.2620583e-06 0)
(0.051616793 -2.1356524e-06 0)
(0.052077936 2.0160082e-06 0)
(0.05164649 -1.9052089e-06 0)
(0.052049888 1.8005722e-06 0)
(0.051673015 -1.7037059e-06 0)
(0.052024804 1.6124692e-06 0)
(0.051696769 -1.5280802e-06 0)
(0.052002304 1.4488386e-06 0)
(0.051718113 -1.3756589e-06 0)
(0.051982045 1.3071914e-06 0)
(0.051737372 -1.2441197e-06 0)
(0.051963721 1.185371e-06 0)
(0.051754838 -1.1314556e-06 0)
(0.051947054 1.0815186e-06 0)
(0.051770775 -1.0359425e-06 0)
(0.051931791 9.9404342e-07 0)
(0.051785427 -9.561106e-07 0)
(0.051917699 9.2159322e-07 0)
(0.051799016 -8.9071695e-07 0)
(0.051904565 8.630165e-07 0)
(0.051811749 -8.3870415e-07 0)
(0.051892187 8.1740263e-07 0)
(0.051823823 -7.986803e-07 0)
(0.051880365 7.8488201e-07 0)
(0.051835405 -7.6992643e-07 0)
(0.051868875 7.4533728e-07 0)
(0.051846893 -8.7210043e-07 0)
(0.051859197 6.8854472e-07 0)
(0.048359854 0.0061342862 0)
(0.057138595 -0.00029266694 0)
(0.054075422 0.00014964077 0)
(0.056043942 -2.1367155e-06 0)
(0.05425624 7.8898658e-07 0)
(0.055929163 3.058493e-06 0)
(0.054443187 -5.1965868e-06 0)
(0.055836556 4.7439578e-06 0)
(0.054541558 -5.0418483e-06 0)
(0.05575831 4.7510157e-06 0)
(0.054615719 -4.4809514e-06 0)
(0.055688695 4.2444574e-06 0)
(0.054680774 -3.9825081e-06 0)
(0.055627193 3.757338e-06 0)
(0.054738527 -3.534479e-06 0)
(0.055572743 3.329925e-06 0)
(0.054789781 -3.1367847e-06 0)
(0.055524458 2.9548958e-06 0)
(0.054835283 -2.7857316e-06 0)
(0.055481587 2.6253101e-06 0)
(0.054875714 -2.4767239e-06 0)
(0.055443472 2.3357455e-06 0)
(0.054911686 -2.2052772e-06 0)
(0.055409532 2.0816844e-06 0)
(0.054943745 -1.9673206e-06 0)
(0.055379253 1.8592348e-06 0)
(0.054972378 -1.7592488e-06 0)
(0.055352174 1.6650084e-06 0)
(0.05499802 -1.577899e-06 0)
(0.055327885 1.4960515e-06 0)
(0.05502106 -1.4205107e-06 0)
(0.055306016 1.3497938e-06 0)
(0.055041849 -1.2846857e-06 0)
(0.055286237 1.2240083e-06 0)
(0.055060702 -1.1683509e-06 0)
(0.055268246 1.1167753e-06 0)
(0.055077905 -1.0697253e-06 0)
(0.055251771 1.026451e-06 0)
(0.055093719 -9.872897e-07 0)
(0.055236561 9.516375e-07 0)
(0.055108385 -9.1975803e-07 0)
(0.055222385 8.9114115e-07 0)
(0.055122128 -8.6603381e-07 0)
(0.055209027 8.4401318e-07 0)
(0.055135157 -8.2463614e-07 0)
(0.055196272 8.1047551e-07 0)
(0.055147655 -7.9460289e-07 0)
(0.05518388 7.6897601e-07 0)
(0.055160011 -9.0583273e-07 0)
(0.055173178 7.0595935e-07 0)
(0.052100206 0.0064790415 0)
(0.059973816 -0.00033348644 0)
(0.057187959 0.00015445977 0)
(0.059274528 -2.4071537e-06 0)
(0.057385504 6.5876581e-07 0)
(0.059175318 2.6125917e-06 0)
(0.057582668 -5.3101883e-06 0)
(0.059075852 4.7792917e-06 0)
(0.057687557 -5.1664872e-06 0)
(0.058991928 4.8652676e-06 0)
(0.057766959 -4.589365e-06 0)
(0.0589173 4.3495317e-06 0)
(0.057836701 -4.0797044e-06 0)
(0.058851366 3.8498123e-06 0)
(0.057898617 -3.6211012e-06 0)
(0.058792989 3.4116794e-06 0)
(0.057953566 -3.213771e-06 0)
(0.058741223 3.027391e-06 0)
(0.058002347 -2.8541309e-06 0)
(0.05869526 2.6897104e-06 0)
(0.058045691 -2.5375422e-06 0)
(0.058654396 2.3930449e-06 0)
(0.058084255 -2.2594309e-06 0)
(0.058618009 2.1327562e-06 0)
(0.058118624 -2.0156317e-06 0)
(0.058585547 1.9048548e-06 0)
(0.05814932 -1.802452e-06 0)
(0.058556516 1.7058689e-06 0)
(0.058176809 -1.6166514e-06 0)
(0.058530477 1.5327723e-06 0)
(0.058201509 -1.4554015e-06 0)
(0.058507032 1.3829317e-06 0)
(0.058223795 -1.3162449e-06 0)
(0.058485828 1.254065e-06 0)
(0.058244005 -1.197057e-06 0)
(0.058466541 1.144205e-06 0)
(0.058262446 -1.0960122e-06 0)
(0.05844888 1.0516668e-06 0)
(0.058279398 -1.0115527e-06 0)
(0.058432577 9.7501638e-07 0)
(0.058295119 -9.4235818e-07 0)
(0.058417382 9.1302613e-07 0)
(0.058309848 -8.8730075e-07 0)
(0.058403065 8.6471516e-07 0)
(0.058323812 -8.4482063e-07 0)
(0.058389397 8.3040016e-07 0)
(0.058337207 -8.1370429e-07 0)
(0.058376124 7.8725285e-07 0)
(0.05835041 -9.3316882e-07 0)
(0.058364402 7.1809773e-07 0)
(0.054855983 0.006384926 0)
(0.06271256 -0.00035893715 0)
(0.060180675 0.00015661868 0)
(0.06238448 -2.8224425e-06 0)
(0.060394715 4.3557611e-07 0)
(0.062298072 2.1111487e-06 0)
(0.060600863 -5.3782438e-06 0)
(0.06219128 4.7751367e-06 0)
(0.060711974 -5.2557849e-06 0)
(0.062101758 4.9472495e-06 0)
(0.060796463 -4.666804e-06 0)
(0.062022236 4.4256776e-06 0)
(0.060870771 -4.14953e-06 0)
(0.061951979 3.9165762e-06 0)
(0.060936747 -3.6834803e-06 0)
(0.061889775 3.4706229e-06 0)
(0.060995298 -3.2692548e-06 0)
(0.061834612 3.0796381e-06 0)
(0.061047276 -2.9034376e-06 0)
(0.061785634 2.7361198e-06 0)
(0.061093461 -2.581387e-06 0)
(0.06174209 2.4343377e-06 0)
(0.061134553 -2.2984723e-06 0)
(0.061703317 2.1695632e-06 0)
(0.061171174 -2.0504621e-06 0)
(0.061668726 1.9377353e-06 0)
(0.061203882 -1.8336013e-06 0)
(0.061637792 1.735322e-06 0)
(0.061233173 -1.6445938e-06 0)
(0.061610045 1.5592446e-06 0)
(0.061259491 -1.480562e-06 0)
(0.061585064 1.4068244e-06 0)
(0.061283237 -1.3390057e-06 0)
(0.06156247 1.2757397e-06 0)
(0.061304771 -1.2177631e-06 0)
(0.06154192 1.1639888e-06 0)
(0.061324419 -1.1149762e-06 0)
(0.061523103 1.0698569e-06 0)
(0.061342481 -1.0290589e-06 0)
(0.061505732 9.918835e-07 0)
(0.06135923 -9.5866568e-07 0)
(0.061489544 9.288153e-07 0)
(0.061374922 -9.0264472e-07 0)
(0.061474291 8.7964525e-07 0)
(0.061389797 -8.5936821e-07 0)
(0.061459733 8.447859e-07 0)
(0.061404067 -8.2736954e-07 0)
(0.061445602 8.0030266e-07 0)
(0.061418095 -9.5414974e-07 0)
(0.061432869 7.2521661e-07 0)
(0.05847177 0.0066174553 0)
(0.065318908 -0.00039464528 0)
(0.063054021 0.00015659021 0)
(0.065377333 -3.3499221e-06 0)
(0.063283272 1.5036744e-07 0)
(0.06529729 1.5541128e-06 0)
(0.063497884 -5.3996112e-06 0)
(0.06518271 4.7328276e-06 0)
(0.063614918 -5.3104633e-06 0)
(0.065087691 4.997912e-06 0)
(0.063704331 -4.7140666e-06 0)
(0.065003408 4.4736745e-06 0)
(0.063783075 -4.1927053e-06 0)
(0.06492895 3.9583151e-06 0)
(0.063852996 -3.7222577e-06 0)
(0.064863024 3.5073623e-06 0)
(0.063915047 -3.3038055e-06 0)
(0.064804562 3.1121753e-06 0)
(0.063970133 -2.9341573e-06 0)
(0.064752653 2.7650162e-06 0)
(0.064019079 -2.6087079e-06 0)
(0.064706504 2.4600493e-06 0)
(0.064062627 -2.3228016e-06 0)
(0.064665411 2.1924842e-06 0)
(0.064101438 -2.0721687e-06 0)
(0.064628751 1.9582144e-06 0)
(0.0641361 -1.8530158e-06 0)
(0.064595967 1.7536701e-06 0)
(0.064167142 -1.662012e-06 0)
(0.064566561 1.5757398e-06 0)
(0.064195033 -1.4962493e-06 0)
(0.064540086 1.4217165e-06 0)
(0.064220198 -1.3532003e-06 0)
(0.064516142 1.2892537e-06 0)
(0.064243019 -1.23068e-06 0)
(0.064494364 1.1763282e-06 0)
(0.064263841 -1.12681e-06 0)
(0.064474422 1.0812062e-06 0)
(0.064282981 -1.039986e-06 0)
(0.064456014 1.0024101e-06 0)
(0.06430073 -9.6884579e-07 0)
(0.06443886 9.386689e-07 0)
(0.064317358 -9.1222131e-07 0)
(0.064422697 8.8895554e-07 0)
(0.064333119 -8.6842817e-07 0)
(0.064407274 8.5377743e-07 0)
(0.06434824 -8.3575114e-07 0)
(0.064392311 8.0827216e-07 0)
(0.064363068 -9.6884937e-07 0)
(0.064378581 7.2758131e-07 0)
(0.06128903 0.0065018266 0)
(0.067849104 -0.00041680827 0)
(0.065805057 0.00015424976 0)
(0.068255503 -4.1122935e-06 0)
(0.066051353 -1.9417891e-07 0)
(0.068173039 9.2970517e-07 0)
(0.066273878 -5.3757032e-06 0)
(0.068050046 4.6527361e-06 0)
(0.06639649 -5.3316974e-06 0)
(0.067949631 5.018139e-06 0)
(0.066490651 -4.7320844e-06 0)
(0.067860732 4.4943469e-06 0)
(0.066573692 -4.2100266e-06 0)
(0.067782203 3.9757729e-06 0)
(0.066647434 -3.738135e-06 0)
(0.067712672 3.5225592e-06 0)
(0.066712876 -3.3180446e-06 0)
(0.067651013 3.1255899e-06 0)
(0.066770971 -2.9468419e-06 0)
(0.067596265 2.7769214e-06 0)
(0.066822592 -2.6199954e-06 0)
(0.067547593 2.4706435e-06 0)
(0.066868519 -2.3328556e-06 0)
(0.067504253 2.2019324e-06 0)
(0.06690945 -2.0811411e-06 0)
(0.067465589 1.9666609e-06 0)
(0.066946007 -1.8610437e-06 0)
(0.067431012 1.7612432e-06 0)
(0.066978744 -1.6692183e-06 0)
(0.067399999 1.5825541e-06 0)
(0.067008159 -1.5027439e-06 0)
(0.067372077 1.4278749e-06 0)
(0.067034699 -1.3590822e-06 0)
(0.067346824 1.2948488e-06 0)
(0.067058766 -1.2360378e-06 0)
(0.067323856 1.1814433e-06 0)
(0.067080725 -1.1317239e-06 0)
(0.067302825 1.0859166e-06 0)
(0.067100911 -1.0445278e-06 0)
(0.067283412 1.0067829e-06 0)
(0.067119628 -9.7307883e-07 0)
(0.067265321 9.4276168e-07 0)
(0.067137163 -9.1620023e-07 0)
(0.067248278 8.9281179e-07 0)
(0.067153783 -8.7216298e-07 0)
(0.067232017 8.5753254e-07 0)
(0.067169728 -8.3901352e-07 0)
(0.067216248 8.1131867e-07 0)
(0.067185331 -9.7737119e-07 0)
(0.067201539 7.2546167e-07 0)
(0.064793323 0.0066190592 0)
(0.070276059 -0.00044641619 0)
(0.068438431 0.00015001929 0)
(0.071015915 -4.879847e-06 0)
(0.068699371 -4.8679991e-07 0)
(0.070925069 2.6380122e-07 0)
(0.068928937 -5.2967671e-06 0)
(0.070793167 4.5392681e-06 0)
(0.069056761 -5.3195491e-06 0)
(0.070687483 5.0092313e-06 0)
(0.069155497 -4.721754e-06 0)
(0.07059413 4.4886072e-06 0)
(0.069242689 -4.2023431e-06 0)
(0.070511672 3.9697478e-06 0)
(0.069320121 -3.7318665e-06 0)
(0.070438661 3.5169228e-06 0)
(0.069388837 -3.3126404e-06 0)
(0.070373915 3.120512e-06 0)
(0.069449838 -2.9420844e-06 0)
(0.070316427 2.7723951e-06 0)
(0.069504041 -2.6157766e-06 0)
(0.070265317 2.4666182e-06 0)
(0.069552265 -2.3291035e-06 0)
(0.070219808 2.1983514e-06 0)
(0.069595244 -2.0777976e-06 0)
(0.070179209 1.9634708e-06 0)
(0.069633629 -1.8580588e-06 0)
(0.070142901 1.7583955e-06 0)
(0.069668004 -1.6665476e-06 0)
(0.070110336 1.5800054e-06 0)
(0.069698891 -1.5003474e-06 0)
(0.070081017 1.425586e-06 0)
(0.069726758 -1.3569235e-06 0)
(0.0700545 1.2927842e-06 0)
(0.069752028 -1.234084e-06 0)
(0.070030383 1.1795704e-06 0)
(0.069775086 -1.1299439e-06 0)
(0.0700083 1.0842049e-06 0)
(0.069796281 -1.0428924e-06 0)
(0.069987916 1.0052027e-06 0)
(0.069815934 -9.7155848e-07 0)
(0.069968921 9.4128132e-07 0)
(0.069834345 -9.1476369e-07 0)
(0.069951027 8.913919e-07 0)
(0.069851794 -8.707468e-07 0)
(0.069933956 8.5622071e-07 0)
(0.069868535 -8.3733155e-07 0)
(0.069917411 8.0960902e-07 0)
(0.069884885 -9.7984526e-07 0)
(0.069901747 7.1912861e-07 0)
(0.067606125 0.0064710847 0)
(0.072634397 -0.00046231131 0)
(0.070960253 0.00014318771 0)
(0.073651186 -5.5610096e-06 0)
(0.071227889 -6.7752812e-07 0)
(0.073552991 -4.2981523e-07 0)
(0.07146312 -5.155718e-06 0)
(0.073411966 4.3959448e-06 0)