/*--------------------------------*- C++ -*----------------------------------*\
| =========                 |                                                 |
| \\      /  F ield         | OpenFOAM: The Open Source CFD Toolbox           |
|  \\    /   O peration     | Version:  2312                                  |
|   \\  /    A nd           | Website:  www.openfoam.com                      |
|    \\/     M anipulation  |                                                 |
\*---------------------------------------------------------------------------*/
FoamFile
{
    version     2.0;
    format      ascii;
    arch        "LSB;label=32;scalar=64";
    class       surfaceScalarField;
    location    "4";
    object      phi_0;
}
// * * * * * * * * * * * * * * * * * * * * * * * * * * * * * * * * * * * * * //

dimensions      [0 3 -1 0 0 0 0];

oriented        oriented;

internalField   nonuniform List<scalar> 
7870
(
1.8824506e-10
3.2733799e-09
1.8012875e-10
8.116298e-12
1.3090507e-10
4.9223681e-11
1.4047585e-10
-9.5707941e-12
1.342872e-10
6.1886515e-12
1.3496236e-10
-6.7516412e-13
1.3316367e-10
1.7986969e-12
1.3351857e-10
-3.5489856e-13
1.3264862e-10
8.6995247e-13
1.3323298e-10
-5.843585e-13
1.3256859e-10
6.64399e-13
1.331663e-10
-5.9770781e-13
1.3258173e-10
5.8456841e-13
1.3313048e-10
-5.4874806e-13
1.3260851e-10
5.2196526e-13
1.3309966e-10
-4.9114683e-13
1.3263512e-10
4.6453715e-13
1.330724e-10
-4.3728253e-13
1.326596e-10
4.1280296e-13
1.3304846e-10
-3.8885949e-13
1.3268166e-10
3.6679666e-13
1.330273e-10
-3.4564045e-13
1.3270138e-10
3.259158e-13
1.3300855e-10
-3.0717252e-13
1.3271892e-10
2.896324e-13
1.3299197e-10
-2.7305232e-13
1.3273443e-10
2.5754164e-13
1.3297737e-10
-2.4293926e-13
1.3274806e-10
2.2930972e-13
1.3296459e-10
-2.1652758e-13
1.3275995e-10
2.0463685e-13
1.3295348e-10
-1.935306e-13
1.3277024e-10
1.8324171e-13
1.3294392e-10
-1.7367654e-13
1.3277906e-10
1.6486052e-13
1.3293577e-10
-1.5671162e-13
1.3278652e-10
1.4925009e-13
1.3292892e-10
-1.4240504e-13
1.3279273e-10
1.3619263e-13
1.3292328e-10
-1.305528e-13
1.3279778e-10
1.2549909e-13
1.3291876e-10
-1.2098169e-13
1.3280176e-10
1.1700564e-13
1.3291532e-10
-1.1356057e-13
1.3280474e-10
1.1057535e-13
1.3291284e-10
-1.0809871e-13
1.3280625e-10
1.0658817e-13
1.3290911e-10
-1.0285784e-13
1.3280004e-10
1.0907642e-13
-9.8452173e-14
4.7408707e-10
6.2609179e-09
5.0231562e-10
-2.0112287e-11
3.9259268e-10
1.5894663e-10
4.0416982e-10
-2.1147961e-11
3.9033164e-10
2.0026836e-11
3.9075663e-10
-1.1001575e-12
3.8714791e-10
5.4074178e-12
3.8697273e-10
-1.7971179e-13
3.8558176e-10
2.2609336e-12
3.8624686e-10
-1.2494503e-12
3.852941e-10
1.6171626e-12
3.8612124e-10
-1.424848e-12
3.8528444e-10
1.4213675e-12
3.8607038e-10
-1.3346874e-12
3.853172e-10
1.2751445e-12
3.8602565e-10
-1.1995938e-12
3.8535363e-10
1.1365494e-12
3.8598553e-10
-1.0691803e-12
3.8538833e-10
1.0100023e-12
3.8595051e-10
-9.5104628e-13
3.8542006e-10
8.9724617e-13
3.8591972e-10
-8.4529999e-13
3.854486e-10
7.9703456e-13
3.8589251e-10
-7.5107757e-13
3.8547403e-10
7.081049e-13
3.8586846e-10
-6.6748406e-13
3.8549653e-10
6.2947498e-13
3.8584731e-10
-5.9371994e-13
3.8551629e-10
5.6032653e-13
3.8582881e-10
-5.2904302e-13
3.8553353e-10
4.9991845e-13
3.8581274e-10
-4.7274613e-13
3.8554843e-10
4.4755157e-13
3.8579891e-10
-4.2415523e-13
3.855612e-10
4.0257087e-13
3.8578713e-10
-3.8264088e-13
3.8557201e-10
3.6437362e-13
3.8577723e-10
-3.4763216e-13
3.85581e-10
3.3242166e-13
3.8576908e-10
-3.1862564e-13
3.8558833e-10
3.0624976e-13
3.8576254e-10
-2.9519438e-13
3.8559409e-10
2.8545162e-13
3.8575756e-10
-2.7703062e-13
3.8559849e-10
2.69648e-13
3.857541e-10
-2.6370691e-13
3.8560076e-10
2.599219e-13
3.8574772e-10
-2.4981549e-13
3.8558543e-10
2.7136602e-13
-2.3915643e-13
6.9046543e-10
9.0320774e-09
7.9591441e-10
-1.2556131e-10
6.4702865e-10
3.0783241e-10
6.6045328e-10
-3.4572627e-11
6.3945463e-10
4.1025495e-11
6.3947919e-10
-1.1247191e-12
6.3466538e-10
1.0221238e-11
6.3363332e-10
8.5235162e-13
6.3218224e-10
3.7120234e-12
6.3257471e-10
-1.6419157e-12
6.3169559e-10
2.4962915e-12
6.3243025e-10
-2.1595059e-12
6.3165148e-10
2.2001399e-12
6.3238621e-10
-2.0694149e-12
6.3167502e-10
1.9863303e-12
6.3234402e-10
-1.8685928e-12
6.3170689e-10
1.7736725e-12
6.3230508e-10
-1.6673713e-12
6.3173889e-10
1.5761951e-12
6.3227136e-10
-1.4835184e-12
6.3176876e-10
1.3998359e-12
6.3224189e-10
-1.3184275e-12
6.3179584e-10
1.2430831e-12
6.3221594e-10
-1.1711777e-12
6.3182003e-10
1.1040174e-12
6.3219306e-10
-1.0405228e-12
6.3184142e-10
9.811131e-13
6.3217297e-10
-9.2526391e-13
6.3186021e-10
8.7308277e-13
6.3215541e-10
-8.2424534e-13
6.3187658e-10
7.787512e-13
6.3214018e-10
-7.363489e-13
6.3189073e-10
6.970052e-13
6.3212708e-10
-6.6050482e-13
6.3190285e-10
6.2680462e-13
6.3211592e-10
-5.9571527e-13
6.319131e-10
5.671952e-13
6.3210654e-10
-5.4107862e-13
6.3192164e-10
5.173282e-13
6.3209881e-10
-4.9580197e-13
6.3192859e-10
4.7647302e-13
6.3209261e-10
-4.5921369e-13
6.3193408e-10
4.4398567e-13
6.320879e-10
-4.3085437e-13
6.3193835e-10
4.1920216e-13
6.3208474e-10
-4.1009947e-13
6.3194054e-10
4.041201e-13
6.3207715e-10
-3.8643021e-13
6.3191735e-10
4.3116691e-13
-3.7015207e-13
9.8991573e-10
1.1503787e-08
1.0740352e-09
-2.0968078e-10
8.9269007e-10
4.891775e-10
9.0965949e-10
-5.1542072e-11
8.8142816e-10
6.925683e-11
8.8135204e-10
-1.0486033e-12
8.7548496e-10
1.6088331e-11
8.7370631e-10
2.6310062e-12
8.7226288e-10
5.1554578e-12
8.7239783e-10
-1.7768545e-12
8.716061e-10
3.2880205e-12
8.7225182e-10
-2.8052204e-12
8.7153501e-10
2.9169562e-12
8.7221793e-10
-2.752339e-12
8.7155105e-10
2.6532112e-12
8.7217884e-10
-2.4963875e-12
8.7157873e-10
2.3737856e-12
8.7214122e-10
-2.2298712e-12
8.7160806e-10
2.1093597e-12
8.7210889e-10
-1.9843513e-12
8.7163602e-10
1.8727051e-12
8.7208084e-10
-1.7632523e-12
8.7166153e-10
1.6623912e-12
8.7205624e-10
-1.5658905e-12
8.7168436e-10
1.4758969e-12
8.7203461e-10
-1.3907779e-12
8.7170456e-10
1.3111698e-12
8.7201565e-10
-1.2363585e-12
8.7172227e-10
1.1664592e-12
8.7199911e-10
-1.1010786e-12
8.717377e-10
1.0401595e-12
8.7198477e-10
-9.8341631e-13
8.7175102e-10
9.3074761e-13
8.7197243e-10
-8.8191411e-13
8.7176243e-10
8.368069e-13
8.7196193e-10
-7.9521588e-13
8.7177208e-10
7.5704258e-13
8.7195311e-10
-7.2210159e-13
8.7178013e-10
6.9030775e-13
8.7194583e-10
-6.6150128e-13
8.7178668e-10
6.356193e-13
8.7193998e-10
-6.1250899e-13
8.7179186e-10
5.9210299e-13
8.7193554e-10
-5.7453564e-13
8.7179597e-10
5.5876729e-13
8.719327e-10
-5.4682267e-13
8.7179822e-10
5.386002e-13
8.7192448e-10
-5.1269452e-13
8.7176908e-10
5.8656843e-13
-4.9128903e-13
1.1675287e-09
1.3797883e-08
1.3292907e-09
-3.7144286e-10
1.1312647e-09
6.8720355e-10
1.1520059e-09
-7.2283298e-11
1.1162604e-09
1.0500229e-10
1.1163817e-09
-1.169858e-12
1.1095818e-09
2.2888219e-11
1.1071926e-09
5.0201953e-12
1.1058243e-09
6.5237638e-12
1.1057182e-09
-1.6707439e-12
1.1050259e-09
3.9803282e-12
1.1055862e-09
-3.3654582e-12
1.1049348e-09
3.5682983e-12
1.1055654e-09
-3.382863e-12
1.104945e-09
3.2735453e-12
1.1055299e-09
-3.0812595e-12
1.1049689e-09
2.9347939e-12
1.1054938e-09
-2.754755e-12
1.1049956e-09
2.6075231e-12
1.1054629e-09
-2.4517059e-12
1.1050216e-09
2.3140677e-12
1.1054364e-09
-2.1781109e-12
1.1050454e-09
2.0533828e-12
1.1054133e-09
-1.9337518e-12
1.1050668e-09
1.8223725e-12
1.105393e-09
-1.7169787e-12
1.1050857e-09
1.6184614e-12
1.1053753e-09
-1.5259069e-12
1.1051023e-09
1.4394346e-12
1.1053598e-09
-1.3585947e-12
1.1051167e-09
1.283259e-12
1.1053464e-09
-1.2131252e-12
1.1051292e-09
1.1480089e-12
1.1053349e-09
-1.087664e-12
1.1051398e-09
1.031903e-12
1.1053251e-09
-9.8051036e-13
1.1051488e-09
9.3332055e-13
1.1053169e-09
-8.901414e-13
1.1051564e-09
8.5083183e-13
1.1053101e-09
-8.1522503e-13
1.1051625e-09
7.8321619e-13
1.1053046e-09
-7.5463276e-13
1.1051673e-09
7.2937922e-13
1.1053005e-09
-7.0766607e-13
1.1051713e-09
6.8796394e-13
1.105298e-09
-6.7350725e-13
1.1051736e-09
6.6294483e-13
1.1052895e-09
-6.2856239e-13
1.1051401e-09
7.3595949e-13
-6.015662e-13
1.4094186e-09
1.5850089e-08
1.5775607e-09
-5.3958496e-10
1.3620468e-09
9.0271738e-10
1.3870968e-09
-9.7333302e-11
1.3439375e-09
1.4816164e-10
1.3445538e-09
-1.786182e-12
1.3369425e-09
3.0499482e-11
1.3341042e-09
7.8585241e-12
1.3328689e-09
7.7590631e-12
1.3325398e-09
-1.3416186e-12
1.331956e-09
4.5641668e-12
1.3324343e-09
-3.8437606e-12
1.331851e-09
4.1515354e-12
1.3324288e-09
-3.9606384e-12
1.3318568e-09
3.8455084e-12
1.3323974e-09
-3.6218023e-12
1.3318772e-09
3.4549417e-12
1.3323629e-09
-3.240423e-12
1.3319014e-09
3.0690486e-12
1.3323337e-09
-2.8840718e-12
1.3319253e-09
2.7224706e-12
1.3323089e-09
-2.561661e-12
1.3319475e-09
2.4147995e-12
1.3322873e-09
-2.2736013e-12
1.3319673e-09
2.1423686e-12
1.3322685e-09
-2.0181334e-12
1.3319849e-09
1.9020714e-12
1.332252e-09
-1.7930623e-12
1.3320002e-09
1.6912261e-12
1.3322377e-09
-1.5960685e-12
1.3320136e-09
1.5073774e-12
1.3322253e-09
-1.4248499e-12
1.3320251e-09
1.348207e-12
1.3322147e-09
-1.277211e-12
1.332035e-09
1.2115855e-12
1.3322056e-09
-1.1511234e-12
1.3320433e-09
1.095584e-12
1.332198e-09
-1.0447798e-12
1.3320503e-09
9.9850777e-13
1.3321917e-09
-9.566035e-13
1.332056e-09
9.189156e-13
1.3321866e-09
-8.8525673e-13
1.3320605e-09
8.5550563e-13
1.3321827e-09
-8.2994979e-13
1.3320642e-09
8.0652417e-13
1.3321806e-09
-7.8988941e-13
1.3320666e-09
7.7687317e-13
1.3321721e-09
-7.3404372e-13
1.3320301e-09
8.779777e-13
-7.0021947e-13
1.5952592e-09
1.7716455e-08
1.8003767e-09
-7.4470244e-10
1.5856551e-09
1.1174389e-09
1.613899e-09
-1.2557722e-10
1.5646077e-09
1.9745294e-10
1.5659415e-09
-3.1199929e-12
1.5575933e-09
3.8847711e-11
1.5544622e-09
1.0989605e-11
1.5533997e-09
8.8215657e-12
1.552867e-09
-8.0884022e-13
1.5523975e-09
5.0336684e-12
1.5527972e-09
-4.2434414e-12
1.5522838e-09
4.6649202e-12
1.5528086e-09
-4.4854883e-12
1.5522864e-09
4.3677233e-12
1.5527815e-09
-4.1169314e-12
1.5523036e-09
3.9328494e-12
1.5527488e-09
-3.6856375e-12
1.5523252e-09
3.4926722e-12
1.5527214e-09
-3.2803051e-12
1.5523471e-09
3.0968225e-12
1.5526983e-09
-2.9129116e-12
1.5523674e-09
2.7457221e-12
1.5526784e-09
-2.5846025e-12
1.5523857e-09
2.4351176e-12
1.5526611e-09
-2.2935417e-12
1.5524018e-09
2.1613589e-12
1.552646e-09
-2.0372375e-12
1.5524159e-09
1.9212945e-12
1.5526328e-09
-1.8130028e-12
1.5524281e-09
1.7120564e-12
1.5526215e-09
-1.618166e-12
1.5524387e-09
1.5309488e-12
1.5526117e-09
-1.4501893e-12
1.5524478e-09
1.3755144e-12
1.5526034e-09
-1.3067375e-12
1.5524554e-09
1.243537e-12
1.5525964e-09
-1.1857401e-12
1.5524618e-09
1.1330772e-12
1.5525906e-09
-1.0853947e-12
1.552467e-09
1.0424912e-12
1.552586e-09
-1.0041688e-12
1.5524712e-09
9.7028468e-13
1.5525824e-09
-9.4119847e-13
1.5524747e-09
9.1428402e-13
1.5525806e-09
-8.9580195e-13
1.5524772e-09
8.8022258e-13
1.5525724e-09
-8.2920081e-13
1.5524389e-09
1.0114927e-12
-7.8689921e-13
1.7886789e-09
1.9389401e-08
2.0151765e-09
-9.7120009e-10
1.7998173e-09
1.3327981e-09
1.8278817e-09
-1.5364164e-10
1.7776971e-09
2.4763759e-10
1.7803909e-09
-5.8138839e-12
1.7715132e-09
4.7725509e-11
1.7682773e-09
1.4225496e-11
1.7674159e-09
9.6829774e-12
1.7667025e-09
-9.5494335e-14
1.7663513e-09
5.3849182e-12
1.7666755e-09
-4.5676948e-12
1.7662332e-09
5.1072832e-12
1.7667051e-09
-4.957375e-12
1.7662336e-09
4.8391734e-12
1.7666825e-09
-4.5658464e-12
1.7662479e-09
4.367475e-12
1.7666517e-09
-4.0894935e-12
1.7662669e-09
3.8774714e-12
1.7666262e-09
-3.6395975e-12
1.7662867e-09
3.436362e-12
1.766605e-09
-3.2311892e-12
1.7663052e-09
3.0455363e-12
1.7665868e-09
-2.8662081e-12
1.7663218e-09
2.7001259e-12
1.766571e-09
-2.5427608e-12
1.7663364e-09
2.3959241e-12
1.7665572e-09
-2.2580707e-12
1.7663492e-09
2.1293122e-12
1.7665453e-09
-2.009099e-12
1.7663603e-09
1.8970235e-12
1.766535e-09
-1.7928232e-12
1.7663699e-09
1.6960048e-12
1.7665261e-09
-1.606387e-12
1.7663782e-09
1.5234946e-12
1.7665186e-09
-1.4471722e-12
1.7663851e-09
1.3770134e-12
1.7665123e-09
-1.3128684e-12
1.7663909e-09
1.2543983e-12
1.766507e-09
-1.2014676e-12
1.7663957e-09
1.1538226e-12
1.7665028e-09
-1.1112587e-12
1.7663994e-09
1.0736161e-12
1.7664996e-09
-1.0413179e-12
1.7664027e-09
1.01117e-12
1.766498e-09
-9.9116225e-13
1.7664053e-09
9.7292929e-13
1.7664903e-09
-9.1414164e-13
1.7663662e-09
1.1355761e-12
-8.6157057e-13
1.9471315e-09
2.0903895e-08
2.2072782e-09
-1.2313469e-09
2.0064012e-09
1.5336751e-09
2.0274001e-09
-1.7464057e-10
1.9831915e-09
2.9184615e-10
1.9878937e-09
-1.0515991e-11
1.9787409e-09
5.6878226e-11
1.9755626e-09
1.7403813e-11
1.9749184e-09
1.0327224e-11
1.97405e-09
7.7295211e-13
1.9738189e-09
5.6159598e-12
1.9740703e-09
-4.8190816e-12
1.9736995e-09
5.4780716e-12
1.9741184e-09
-5.3762852e-12
1.9736984e-09
5.2592127e-12
1.9741005e-09
-4.9679907e-12
1.9737099e-09
4.7581071e-12
1.9740718e-09
-4.4513921e-12
1.9737264e-09
4.2228449e-12
1.9740483e-09
-3.961449e-12
1.973744e-09
3.7406288e-12
1.9740289e-09
-3.516106e-12
1.9737606e-09
3.3138994e-12
1.9740125e-09
-3.1181261e-12
1.9737755e-09
2.9371391e-12
1.9739983e-09
-2.7655712e-12
1.9737886e-09
2.6055764e-12
1.9739859e-09
-2.4553955e-12
1.9738001e-09
2.3151334e-12
1.9739752e-09
-2.184228e-12
1.9738101e-09
2.0621651e-12
1.973966e-09
-1.94872e-12
1.9738187e-09
1.8432855e-12
1.9739581e-09
-1.7457242e-12
1.9738261e-09
1.6554559e-12
1.9739513e-09
-1.5723651e-12
1.9738323e-09
1.4959587e-12
1.9739456e-09
-1.426117e-12
1.9738376e-09
1.3624307e-12
1.9739409e-09
-1.3047881e-12
1.9738418e-09
1.2528821e-12
1.9739371e-09
-1.2065047e-12
1.9738452e-09
1.1654846e-12
1.9739342e-09
-1.1302963e-12
1.9738482e-09
1.0971877e-12
1.973933e-09
-1.0759621e-12
1.9738509e-09
1.0550144e-12
1.9739257e-09
-9.8901515e-13
1.9738118e-09
1.249478e-12
-9.2441919e-13
2.1150035e-09
2.2250516e-08
2.3918037e-09
-1.5081471e-09
2.2017953e-09
1.7236836e-09
2.2154518e-09
-1.8829715e-10
2.1815345e-09
3.2576342e-10
2.1882274e-09
-1.7208862e-11
2.1792625e-09
6.5843184e-11
2.1763173e-09
2.0348989e-11
2.175907e-09
1.0737489e-11
2.1749113e-09
1.7686919e-12
2.1748016e-09
5.7256732e-12
2.1749821e-09
-4.9995766e-12
2.174683e-09
5.7771746e-12
2.175049e-09
-5.7422875e-12
2.1746807e-09
5.6275242e-12
2.1750357e-09
-5.3230622e-12
2.1746895e-09
5.1043501e-12
2.1750091e-09
-4.7710317e-12
2.1747035e-09
4.5284945e-12
2.1749877e-09
-4.2456467e-12
2.1747189e-09
4.0094393e-12
2.1749703e-09
-3.7675343e-12
2.1747335e-09
3.5507132e-12
2.1749556e-09
-3.3402922e-12
2.1747467e-09
3.1461155e-12
2.1749431e-09
-2.9619509e-12
2.1747583e-09
2.7903088e-12
2.1749321e-09
-2.6292157e-12
2.1747685e-09
2.4787716e-12
2.1749227e-09
-2.3384095e-12
2.1747773e-09
2.2075068e-12
2.1749145e-09
-2.0858859e-12
2.174785e-09
1.9728242e-12
2.1749075e-09
-1.8682365e-12
2.1747915e-09
1.771437e-12
2.1749015e-09
-1.682357e-12
2.174797e-09
1.6004167e-12
2.1748964e-09
-1.5255318e-12
2.1748017e-09
1.4572231e-12
2.1748923e-09
-1.3954072e-12
2.1748054e-09
1.3397234e-12
2.1748889e-09
-1.2899635e-12
2.1748084e-09
1.2459501e-12
2.1748863e-09
-1.2081951e-12
2.1748111e-09
1.1724125e-12
2.1748854e-09
-1.15026e-12
2.1748138e-09
1.1265724e-12
2.1748788e-09
-1.0540075e-12
2.1747757e-09
1.3526087e-12
-9.7579598e-13
2.2631517e-09
2.344899e-08
2.5548689e-09
-1.7998644e-09
2.3856032e-09
1.8929493e-09
2.395385e-09
-1.9807899e-10
2.3730141e-09
3.4813436e-10
2.381194e-09
-2.5388796e-11
2.3731018e-09
7.3935385e-11
2.3705599e-09
2.289092e-11
2.3703836e-09
1.0913846e-11
2.3692896e-09
2.8626801e-12
2.369301e-09
5.7142249e-12
2.3694116e-09
-5.1101797e-12
2.3691838e-09
6.0050161e-12
2.369497e-09
-6.0555185e-12
2.3691804e-09
5.9441354e-12
2.3694884e-09
-5.6310095e-12
2.3691866e-09
5.4061233e-12
2.3694639e-09
-5.0483924e-12
2.369198e-09
4.7944108e-12
2.3694446e-09
-4.4922431e-12
2.3692112e-09
4.2428638e-12
2.3694292e-09
-3.9855804e-12
2.3692238e-09
3.7560987e-12
2.3694164e-09
-3.532844e-12
2.3692353e-09
3.3272007e-12
2.3694054e-09
-3.1320511e-12
2.3692454e-09
2.9502749e-12
2.3693959e-09
-2.7796848e-12
2.3692543e-09
2.6203793e-12
2.3693877e-09
-2.4717931e-12
2.369262e-09
2.3331958e-12
2.3693806e-09
-2.204464e-12
2.3692686e-09
2.0847615e-12
2.3693745e-09
-1.9740612e-12
2.3692743e-09
1.8715727e-12
2.3693693e-09
-1.7772799e-12
2.3692792e-09
1.6905176e-12
2.3693649e-09
-1.6112411e-12
2.3692832e-09
1.5389027e-12
2.3693612e-09
-1.4734511e-12
2.3692865e-09
1.4144725e-12
2.3693583e-09
-1.3617612e-12
2.3692891e-09
1.315139e-12
2.369356e-09
-1.2751404e-12
2.3692915e-09
1.2369809e-12
2.3693554e-09
-1.2141733e-12
2.3692942e-09
1.1877609e-12
2.3693495e-09
-1.1093393e-12
2.3692576e-09
1.4445232e-12
-1.0161786e-12
2.4186665e-09
2.4491948e-08
2.7113068e-09
-2.0925048e-09
2.5613381e-09
2.0429181e-09
2.5697409e-09
-2.0648184e-10
2.5579688e-09
3.5990644e-10
2.5668315e-09
-3.4251529e-11
2.5603021e-09
8.0464842e-11
2.558305e-09
2.4887984e-11
2.5583497e-09
1.0869174e-11
2.5571866e-09
4.0257469e-12
2.5573188e-09
5.5820597e-12
2.5573595e-09
-5.150846e-12
2.557202e-09
6.1624936e-12
2.5574627e-09
-6.3162438e-12
2.5571975e-09
6.20938e-12
2.5574585e-09
-5.8920504e-12
2.557201e-09
5.663635e-12
2.5574363e-09
-5.2837264e-12
2.5572099e-09
5.0208467e-12
2.5574192e-09
-4.7015329e-12
2.5572209e-09
4.4411999e-12
2.5574058e-09
-4.1705592e-12
2.5572316e-09
3.9303695e-12
2.5573948e-09
-3.6960962e-12
2.5572413e-09
3.4807041e-12
2.5573854e-09
-3.2761741e-12
2.5572499e-09
3.0857685e-12
2.5573773e-09
-2.9070858e-12
2.5572575e-09
2.7402301e-12
2.5573703e-09
-2.5846412e-12
2.557264e-09
2.4394852e-12
2.5573643e-09
-2.3046973e-12
2.5572697e-09
2.179332e-12
2.5573591e-09
-2.0634239e-12
2.5572746e-09
1.9560818e-12
2.5573546e-09
-1.8573456e-12
2.5572787e-09
1.7664676e-12
2.5573509e-09
-1.6834455e-12
2.5572821e-09
1.6076659e-12
2.5573478e-09
-1.5391121e-12
2.5572849e-09
1.4773184e-12
2.5573452e-09
-1.4220846e-12
2.5572872e-09
1.3732363e-12
2.5573433e-09
-1.331315e-12
2.5572892e-09
1.2910835e-12
2.5573429e-09
-1.2678716e-12
2.5572919e-09
1.2387915e-12
2.5573378e-09
-1.1552614e-12
2.5572574e-09
1.5249075e-12
-1.0461397e-12
2.5626298e-09
2.5390943e-08
2.8517062e-09
-2.3815811e-09
2.7308386e-09
2.1637857e-09
2.7384817e-09
-2.1412498e-10
2.7364059e-09
3.6198222e-10
2.7455282e-09
-4.3373743e-11
2.7409683e-09
8.5024679e-11
2.7395766e-09
2.6279702e-11
2.7398081e-09
1.0637682e-11
2.7386043e-09
5.2295924e-12
2.7388568e-09
5.329539e-12
2.7388262e-09
-5.1202814e-12
2.7387377e-09
6.2510703e-12
2.7389463e-09
-6.5248468e-12
2.7387318e-09
6.4238901e-12
2.7389464e-09
-6.1066682e-12
2.7387326e-09
5.8773591e-12
2.7389265e-09
-5.4775372e-12
2.738739e-09
5.2082908e-12
2.7389115e-09
-4.8740267e-12
2.7387478e-09
4.6049445e-12
2.7389002e-09
-4.3229667e-12
2.7387565e-09
4.0740063e-12
2.7388909e-09
-3.8305165e-12
2.7387646e-09
3.6070754e-12
2.7388831e-09
-3.3947514e-12
2.7387717e-09
3.1972031e-12
2.7388764e-09
-3.0118137e-12
2.738778e-09
2.8387015e-12
2.7388706e-09
-2.6773137e-12
2.7387834e-09
2.5267193e-12
2.7388656e-09
-2.3869149e-12
2.7387881e-09
2.2568515e-12
2.7388613e-09
-2.1366277e-12
2.7387921e-09
2.0252561e-12
2.7388576e-09
-1.9228352e-12
2.7387956e-09
1.8285387e-12
2.7388545e-09
-1.7424086e-12
2.7387984e-09
1.6637691e-12
2.7388519e-09
-1.5926399e-12
2.7388008e-09
1.5285056e-12
2.7388498e-09
-1.4711734e-12
2.7388026e-09
1.4204773e-12
2.7388482e-09
-1.3769512e-12
2.7388044e-09
1.3349571e-12
2.7388481e-09
-1.3115701e-12
2.7388069e-09
1.279922e-12
2.7388437e-09
-1.192052e-12
2.7387751e-09
1.5935652e-12
-1.0663191e-12
2.7108731e-09
2.6141695e-08
2.9909361e-09
-2.6616442e-09
2.8946876e-09
2.2600342e-09
2.9014964e-09
-2.2093389e-10
2.9085594e-09
3.5491925e-10
2.9177529e-09
-5.2567269e-11
2.915183e-09
8.7594642e-11
2.9143881e-09
2.7074609e-11
2.9147606e-09
1.0265185e-11
2.9135429e-09
6.4472938e-12
2.9139166e-09
4.9558749e-12
2.9138125e-09
-5.0162072e-12
2.9137908e-09
6.2727507e-12
2.9139478e-09
-6.6818201e-12
2.9137831e-09
6.5885781e-12
2.913952e-09
-6.2755962e-12
2.9137814e-09
6.048006e-12
2.9139344e-09
-5.6305567e-12
2.9137853e-09
5.3574365e-12
2.9139216e-09
-5.0104239e-12
2.9137918e-09
4.7347659e-12
2.9139123e-09
-4.4434558e-12
2.9137987e-09
4.1876324e-12
2.9139049e-09
-3.9367027e-12
2.9138051e-09
3.7068845e-12
2.9138986e-09
-3.4883258e-12
2.9138107e-09
3.2850951e-12
2.9138933e-09
-3.0943584e-12
2.9138157e-09
2.9162603e-12
2.9138887e-09
-2.7502542e-12
2.9138201e-09
2.5953214e-12
2.9138847e-09
-2.4515199e-12
2.9138238e-09
2.3177057e-12
2.9138812e-09
-2.1940415e-12
2.913827e-09
2.0794503e-12
2.9138783e-09
-1.9740896e-12
2.9138298e-09
1.87706e-12
2.9138758e-09
-1.7884482e-12
2.9138321e-09
1.7075206e-12
2.9138737e-09
-1.634334e-12
2.9138339e-09
1.5683258e-12
2.9138721e-09
-1.5093132e-12
2.9138354e-09
1.4571417e-12
2.9138708e-09
-1.4123237e-12
2.9138369e-09
1.3688787e-12
2.9138708e-09
-1.3455237e-12
2.9138393e-09
1.3114478e-12
2.9138672e-09
-1.2200121e-12
2.9138104e-09
1.6504054e-12
-1.0774005e-12
2.8532152e-09
2.6750105e-08
3.1199503e-09
-2.9283792e-09
3.0540278e-09
2.3259567e-09
3.0584606e-09
-2.2536675e-10
3.074462e-09
3.3891788e-10
3.083758e-09
-6.1863251e-11
3.0829948e-09
8.8357836e-11
3.0827587e-09
2.7310678e-11
3.0832086e-09
9.8153551e-12
3.0820036e-09
7.6522144e-12
3.0824991e-09
4.4603809e-12
3.0823189e-09
-4.8359127e-12
3.0823615e-09
6.2300833e-12
3.0824674e-09
-6.787733e-12
3.0823514e-09
6.7046195e-12
3.0824756e-09
-6.3997938e-12
3.0823471e-09
6.1764918e-12
3.0824603e-09
-5.7437172e-12
3.0823485e-09
5.4691511e-12
3.0824497e-09
-5.1115861e-12
3.082353e-09
4.8314762e-12
3.0824423e-09
-4.5328106e-12
3.082358e-09
4.2719907e-12
3.0824366e-09
-4.0153627e-12
3.0823627e-09
3.7808024e-12
3.0824319e-09
-3.5575329e-12
3.082367e-09
3.3500475e-12
3.0824279e-09
-3.1552915e-12
3.0823707e-09
2.9734489e-12
3.0824244e-09
-2.8039776e-12
3.082374e-09
2.6457816e-12
3.0824214e-09
-2.4989791e-12
3.0823768e-09
2.3623407e-12
3.0824189e-09
-2.2360916e-12
3.0823792e-09
2.1190731e-12
3.0824166e-09
-2.011501e-12
3.0823813e-09
1.9124093e-12
3.0824148e-09
-1.8219289e-12
3.082383e-09
1.7392732e-12
3.0824132e-09
-1.6645363e-12
3.0823844e-09
1.5971118e-12
3.082412e-09
-1.5368282e-12
3.0823856e-09
1.4835461e-12
3.082411e-09
-1.4377437e-12
3.0823867e-09
1.3931588e-12
3.0824112e-09
-1.3700209e-12
3.0823889e-09
1.3336967e-12
3.0824084e-09
-1.2394629e-12
3.0823634e-09
1.6954315e-12
-1.080092e-12
2.9983731e-09
2.7213357e-08
3.2489271e-09
-3.1789333e-09
3.2083454e-09
2.3665384e-09
3.20968e-09
-2.2670132e-10
3.2342797e-09
3.1431819e-10
3.2436963e-09
-7.1279857e-11
3.2444335e-09
8.7620606e-11
3.2446933e-09
2.7050846e-11
3.2451531e-09
9.3556517e-12
3.2439907e-09
8.8145624e-12
3.244604e-09
3.8471215e-12
3.2443457e-09
-4.5776132e-12
3.2444497e-09
6.1260219e-12
3.2445053e-09
-6.8432605e-12
3.2444365e-09
6.7734075e-12
3.2445171e-09
-6.4804231e-12
3.2444297e-09
6.2639057e-12
3.2445041e-09
-5.8181229e-12
3.2444288e-09
5.5444467e-12
3.2444957e-09
-5.1785108e-12
3.2444312e-09
4.8960073e-12
3.2444903e-09
-4.591926e-12
3.2444344e-09
4.3279232e-12
3.2444863e-09
-4.0672957e-12
3.2444375e-09
3.829584e-12
3.2444831e-09
-3.6030872e-12
3.2444404e-09
3.3927361e-12
3.2444803e-09
-3.1952524e-12
3.2444429e-09
3.0108741e-12
3.244478e-09
-2.8390592e-12
3.2444451e-09
2.6786471e-12
3.244476e-09
-2.5298131e-12
3.2444471e-09
2.3912532e-12
3.2444742e-09
-2.2632524e-12
3.2444487e-09
2.144579e-12
3.2444727e-09
-2.0355055e-12
3.2444501e-09
1.9350061e-12
3.2444714e-09
-1.8432545e-12
3.2444513e-09
1.7594172e-12
3.2444704e-09
-1.6836246e-12
3.2444523e-09
1.6152302e-12
3.2444695e-09
-1.5540758e-12
3.244453e-09
1.5000388e-12
3.2444688e-09
-1.4535526e-12
3.2444539e-09
1.4081363e-12
3.2444692e-09
-1.385379e-12
3.2444559e-09
1.3470215e-12
3.2444672e-09
-1.2507415e-12
3.2444339e-09
1.728731e-12
-1.0751097e-12
3.1341617e-09
2.754082e-08
3.3677627e-09
-3.4125343e-09
3.3583123e-09
2.3759888e-09
3.3562854e-09
-2.2467447e-10
3.3881712e-09
2.8243237e-10
3.3975559e-09
-8.0664537e-11
3.3994997e-09
8.5676837e-11
3.4001808e-09
2.6369796e-11
3.4005964e-09
8.9400323e-12
3.3995158e-09
9.8952066e-12
3.4002289e-09
3.1339827e-12
3.3998935e-09
-4.2422174e-12
3.4000555e-09
5.9639766e-12
3.4000614e-09
-6.8491381e-12
3.4000383e-09
6.7965482e-12
3.4000767e-09
-6.5188053e-12
3.4000291e-09
6.3114869e-12
3.400066e-09
-5.8550169e-12
3.400026e-09
5.5844558e-12
3.4000598e-09
-5.2123062e-12
3.4000264e-09
4.9293886e-12
3.4000562e-09
-4.6217867e-12
3.4000278e-09
4.3563538e-12
3.4000539e-09
-4.0933773e-12
3.4000294e-09
3.8540539e-12
3.4000521e-09
-3.625768e-12
3.4000309e-09
3.4138974e-12
3.4000506e-09
-3.2149377e-12
3.4000323e-09
3.0291959e-12
3.4000494e-09
-2.8561247e-12
3.4000335e-09
2.6945127e-12
3.4000483e-09
-2.5445875e-12
3.4000345e-09
2.4049827e-12
3.4000473e-09
-2.2760388e-12
3.4000354e-09
2.1564608e-12
3.4000465e-09
-2.0465753e-12
3.4000362e-09
1.9453042e-12
3.4000458e-09
-1.8528618e-12
3.4000369e-09
1.7683743e-12
3.4000452e-09
-1.6920066e-12
3.4000374e-09
1.6230765e-12
3.4000448e-09
-1.5614402e-12
3.4000378e-09
1.506994e-12
3.4000444e-09
-1.4601172e-12
3.4000383e-09
1.414173e-12
3.4000449e-09
-1.3919389e-12
3.4000401e-09
1.3517951e-12
3.4000436e-09
-1.2541986e-12
3.4000218e-09
1.7504655e-12
-1.0631644e-12
3.2815338e-09
2.7720912e-08
3.4886071e-09
-3.6196077e-09
3.5038699e-09
2.360726e-09
3.4997328e-09
-2.2053738e-10
3.5363154e-09
2.4584978e-10
3.5453294e-09
-8.9678543e-11
3.5482004e-09
8.2805853e-11
3.5492008e-09
2.5369355e-11
3.5495454e-09
8.5954999e-12
3.5485923e-09
1.0848268e-11
3.5493696e-09
2.3567208e-12
3.5489626e-09
-3.8351761e-12
3.549179e-09
5.7474955e-12
3.5491361e-09
-6.8061555e-12
3.5491568e-09
6.7758381e-12
3.5491543e-09
-6.5163781e-12
3.5491452e-09
6.3206055e-12
3.5491459e-09
-5.8557483e-12
3.54914e-09
5.5904116e-12
3.5491418e-09
-5.2141672e-12
3.5491385e-09
4.9327303e-12
3.5491402e-09
-4.6234498e-12
3.5491382e-09
4.3582729e-12
3.5491394e-09
-4.0945438e-12
3.5491384e-09
3.8550943e-12
3.549139e-09
-3.6264082e-12
3.5491386e-09
3.4143182e-12
3.5491387e-09
-3.2150913e-12
3.5491388e-09
3.029119e-12
3.5491385e-09
-2.855842e-12
3.549139e-09
2.6940129e-12
3.5491384e-09
-2.5439055e-12
3.5491392e-09
2.4041042e-12
3.5491382e-09
-2.2749992e-12
3.5491394e-09
2.1552432e-12
3.549138e-09
-2.0452128e-12
3.5491396e-09
1.943786e-12
3.5491379e-09
-1.8512147e-12
3.5491397e-09
1.7665916e-12
3.5491378e-09
-1.6901141e-12
3.5491398e-09
1.6210688e-12
3.5491377e-09
-1.5593278e-12
3.5491399e-09
1.5048067e-12
3.5491376e-09
-1.457824e-12
3.5491401e-09
1.4116492e-12
3.5491382e-09
-1.3900612e-12
3.5491416e-09
1.3484058e-12
3.5491376e-09
-1.250195e-12
3.5491272e-09
1.7608622e-12
-1.0449507e-12
3.4182579e-09
2.7764279e-08
3.5982339e-09
-3.7995837e-09
3.6442449e-09
2.314715e-09
3.6400514e-09
-2.1634388e-10
3.6786513e-09
2.0724983e-10
3.6869655e-09
-9.7992714e-11
3.6905175e-09
7.9253814e-11
3.6917367e-09
2.4150194e-11
3.6920092e-09
8.3229767e-12
3.6912233e-09
1.1634163e-11
3.6920198e-09
1.5603001e-12
3.6915518e-09
-3.3672121e-12
3.69182e-09
5.4792872e-12
3.6917291e-09
-6.7152808e-12
3.6917918e-09
6.7131396e-12
3.6917502e-09
-6.4747051e-12
3.691778e-09
6.2927162e-12
3.6917441e-09
-5.8217584e-12
3.6917708e-09
5.563622e-12
3.691742e-09
-5.1853596e-12
3.6917676e-09
4.9072046e-12
3.6917421e-09
-4.5980307e-12
3.6917657e-09
4.3347241e-12
3.6917429e-09
-4.0717822e-12
3.6917644e-09
3.8336332e-12
3.6917439e-09
-3.6058842e-12
3.6917633e-09
3.394826e-12
3.6917447e-09
-3.1964957e-12
3.6917625e-09
3.0113842e-12
3.6917456e-09
-2.8389133e-12
3.6917618e-09
2.6778145e-12
3.6917462e-09
-2.5284009e-12
3.6917611e-09
2.3892214e-12
3.6917468e-09
-2.2607096e-12
3.6917606e-09
2.1414765e-12
3.6917473e-09
-2.0319445e-12
3.6917602e-09
1.9309565e-12
3.6917477e-09
-1.8387984e-12
3.6917598e-09
1.7545365e-12
3.6917481e-09
-1.6783982e-12
3.6917595e-09
1.609644e-12
3.6917483e-09
-1.5481621e-12
3.6917593e-09
1.4938884e-12
3.6917485e-09
-1.4470755e-12
3.6917592e-09
1.4009593e-12
3.6917493e-09
-1.3801212e-12
3.6917604e-09
1.3372527e-12
3.6917493e-09
-1.2390991e-12
3.69175e-09
1.7602053e-12
-1.0211382e-12
3.554643e-09
2.7671261e-08
3.7078773e-09
-3.9528182e-09
3.7792876e-09
2.2433048e-09
3.7765062e-09
-2.1356246e-10
3.8149887e-09
1.687673e-10
3.8224014e-09
-1.0540535e-10
3.8264351e-09
7.5220091e-11
3.8277872e-09
2.2798117e-11
3.8279981e-09
8.1120442e-12
3.8274023e-09
1.2229931e-11
3.8281742e-09
7.8847197e-13
3.8276597e-09
-2.8527575e-12
3.8279782e-09
5.1607762e-12
3.8278406e-09
-6.5776184e-12
3.8279434e-09
6.610342e-12
3.8278641e-09
-6.3954528e-12
3.8279275e-09
6.2293319e-12
3.8278603e-09
-5.7545645e-12
3.8279185e-09
5.5054508e-12
3.8278603e-09
-5.1272053e-12
3.8279135e-09
4.8540327e-12
3.8278621e-09
-4.5466911e-12
3.8279101e-09
4.2867931e-12
3.8278644e-09
-4.0261185e-12
3.8279074e-09
3.7906359e-12
3.8278666e-09
-3.5651078e-12
3.8279052e-09
3.3562811e-12
3.8278686e-09
-3.1599643e-12
3.8279033e-09
2.9767618e-12
3.8278704e-09
-2.8060684e-12
3.8279016e-09
2.6466104e-12
3.827872e-09
-2.4987322e-12
3.8279002e-09
2.360961e-12
3.8278733e-09
-2.233767e-12
3.827899e-09
2.1157311e-12
3.8278744e-09
-2.0073161e-12
3.827898e-09
1.9073387e-12
3.8278753e-09
-1.8161151e-12
3.8278972e-09
1.7326922e-12
3.8278761e-09
-1.6573247e-12
3.8278965e-09
1.5892521e-12
3.8278767e-09
-1.5283797e-12
3.8278959e-09
1.4746628e-12
3.8278771e-09
-1.4282857e-12
3.8278956e-09
1.3825078e-12
3.827878e-09
-1.3625062e-12
3.8278965e-09
1.3187417e-12
3.8278787e-09
-1.2212836e-12
3.8278901e-09
1.7488289e-12
-9.9236488e-13
3.6999718e-09
2.7432914e-08
3.8098743e-09
-4.0627207e-09
3.9087572e-09
2.1444219e-09
3.9079949e-09
-2.1280019e-10
3.9451752e-09
1.3158699e-10
3.9515823e-09
-1.1181249e-10
3.9559284e-09
7.0874075e-11
3.9573507e-09
2.1375757e-11
3.9575168e-09
7.9459748e-12
3.9571205e-09
1.2626286e-11
3.9578298e-09
7.9171913e-14
3.9572851e-09
-2.3080762e-12
3.9576535e-09
4.7923626e-12
3.9574703e-09
-6.3944497e-12
3.9576113e-09
6.4693428e-12
3.9574962e-09
-6.2803644e-12
3.9575936e-09
6.1320064e-12
3.9574947e-09
-5.6557427e-12
3.9575829e-09
5.4173022e-12
3.9574967e-09
-5.0410704e-12
3.9575763e-09
4.7744718e-12
3.9575002e-09
-4.4706287e-12
3.9575714e-09
4.2155981e-12
3.9575039e-09
-3.9586109e-12
3.9575675e-09
3.7270965e-12
3.9575074e-09
-3.5050181e-12
3.9575641e-09
3.29957e-12
3.9575104e-09
-3.1063354e-12
3.9575612e-09
2.926045e-12
3.9575132e-09
-2.7580587e-12
3.9575587e-09
2.6011136e-12
3.9575155e-09
-2.4555765e-12
3.9575565e-09
2.3199676e-12
3.9575175e-09
-2.1947855e-12
3.9575546e-09
2.078593e-12
3.9575192e-09
-1.9718874e-12
3.9575531e-09
1.8734689e-12
3.9575207e-09
-1.783679e-12