/*--------------------------------*- C++ -*----------------------------------*\
| =========                 |                                                 |
| \\      /  F ield         | OpenFOAM: The Open Source CFD Toolbox           |
|  \\    /   O peration     | Version:  2312                                  |
|   \\  /    A nd           | Website:  www.openfoam.com                      |
|    \\/     M anipulation  |                                                 |
\*---------------------------------------------------------------------------*/
FoamFile
{
    version     2.0;
    format      ascii;
    arch        "LSB;label=32;scalar=64";
    class       surfaceScalarField;
    location    "5";
    object      phi;
}
// * * * * * * * * * * * * * * * * * * * * * * * * * * * * * * * * * * * * * //

dimensions      [0 3 -1 0 0 0 0];

oriented        oriented;

internalField   nonuniform List<scalar> 
7870
(
1.0207528e-10
2.3556747e-09
1.0156043e-10
5.1484581e-13
9.455827e-11
7.002161e-12
9.3958861e-11
5.9940813e-13
9.5089603e-11
-1.1307431e-12
9.3654461e-11
1.4351424e-12
9.4991867e-11
-1.3374064e-12
9.3709593e-11
1.282274e-12
9.4920114e-11
-1.2105213e-12
9.3777472e-11
1.1426418e-12
9.485242e-11
-1.0749487e-12
9.3839684e-11
1.0127359e-12
9.4792555e-11
-9.5287159e-13
9.3895218e-11
8.9733732e-13
9.4739973e-11
-8.4475555e-13
9.3944331e-11
7.956417e-13
9.4693742e-11
-7.494102e-13
9.3987614e-11
7.0612768e-13
9.4653087e-11
-6.6547364e-13
9.4025685e-11
6.2740261e-13
9.4617366e-11
-5.9168087e-13
9.4059118e-11
5.5824709e-13
9.4586021e-11
-5.2690231e-13
9.4088427e-11
4.9759337e-13
9.4558569e-11
-4.7014201e-13
9.4114062e-11
4.4450702e-13
9.4534589e-11
-4.2052721e-13
9.4136417e-11
3.9817198e-13
9.4513714e-11
-3.7729618e-13
9.4155836e-11
3.5787757e-13
9.4495622e-11
-3.3978645e-13
9.4172616e-11
3.2300688e-13
9.448004e-11
-3.0742411e-13
9.4187013e-11
2.930268e-13
9.4466727e-11
-2.7971458e-13
9.4199248e-11
2.6747934e-13
9.4455483e-11
-2.5623453e-13
9.4209508e-11
2.4597428e-13
9.4446134e-11
-2.3662522e-13
9.4217951e-11
2.2818292e-13
9.4438538e-11
-2.2058687e-13
9.4224704e-11
2.1383307e-13
9.4432577e-11
-2.0787289e-13
9.4229867e-11
2.0271e-13
9.4428143e-11
-1.9827598e-13
9.4233509e-11
1.9463405e-13
9.4425411e-11
-1.9190175e-13
9.4237346e-11
1.8806512e-13
9.4431184e-11
-1.9383832e-13
1.803315e-13
2.7956418e-10
4.5338605e-09
2.9239839e-10
-1.2319367e-11
2.7443315e-10
2.4967404e-11
2.7367637e-10
1.3561852e-12
2.7494262e-10
-2.3969959e-12
2.7288159e-10
3.4961697e-12
2.7477424e-10
-3.2300548e-12
2.7294047e-10
3.1160473e-12
2.7468015e-10
-2.9502014e-12
2.7303566e-10
2.7871274e-12
2.7458255e-10
-2.6218368e-12
2.7312416e-10
2.4711251e-12
2.744959e-10
-2.3246147e-12
2.7320385e-10
2.1893859e-12
2.7442009e-10
-2.0609968e-12
2.7327455e-10
1.9411835e-12
2.7435356e-10
-1.8284199e-12
2.7333692e-10
1.7227715e-12
2.7429509e-10
-1.6236451e-12
2.7339179e-10
1.5307026e-12
2.7424371e-10
-1.4436081e-12
2.7343998e-10
1.3619839e-12
2.7419863e-10
-1.2855592e-12
2.7348222e-10
1.2140053e-12
2.7415915e-10
-1.1470701e-12
2.7351917e-10
1.0844861e-12
2.7412466e-10
-1.0260123e-12
2.7355139e-10
9.7143563e-13
2.7409462e-10
-9.2052795e-13
2.7357938e-10
8.7312053e-13
2.740686e-10
-8.2900117e-13
2.7360357e-10
7.8803625e-13
2.7404617e-10
-7.50032e-13
2.7362432e-10
7.1488237e-13
2.7402702e-10
-6.8241372e-13
2.7364196e-10
6.5254155e-13
2.7401083e-10
-6.2511338e-13
2.7365675e-10
6.0006155e-13
2.7399738e-10
-5.7725531e-13
2.7366892e-10
5.5663997e-13
2.7398644e-10
-5.3810748e-13
2.7367866e-10
5.216115e-13
2.7397786e-10
-5.0706663e-13
2.7368611e-10
4.944546e-13
2.7397144e-10
-4.8360285e-13
2.736913e-10
4.7477362e-13
2.7396739e-10
-4.6799247e-13
2.736975e-10
4.5795405e-13
2.7398213e-10
-4.7846713e-13
4.3830332e-13
4.4833278e-10
6.5432778e-09
4.7650158e-10
-4.0488169e-11
4.4931975e-10
5.2149231e-11
4.4910786e-10
1.5680767e-12
4.49765e-10
-3.0541402e-12
4.4786039e-10
5.4007842e-12
4.4960164e-10
-4.9713088e-12
4.4789397e-10
4.823718e-12
4.4952887e-10
-4.5850989e-12
4.4798055e-10
4.3354463e-12
4.4943692e-10
-4.0782153e-12
4.4806249e-10
3.8455583e-12
4.493547e-10
-3.6168266e-12
4.4813723e-10
3.4068596e-12
4.4928315e-10
-3.2069162e-12
4.4820382e-10
3.0205117e-12
4.492205e-10
-2.8451018e-12
4.4826264e-10
2.680633e-12
4.4916548e-10
-2.5264898e-12
4.4831441e-10
2.3817766e-12
4.4911715e-10
-2.2463511e-12
4.4835988e-10
2.1192565e-12
4.4907474e-10
-2.0004171e-12
4.4839974e-10
1.8890034e-12
4.4903758e-10
-1.7849133e-12
4.484346e-10
1.6874672e-12
4.4900512e-10
-1.5965291e-12
4.48465e-10
1.5115516e-12
4.4897685e-10
-1.4323751e-12
4.4849141e-10
1.3585605e-12
4.4895234e-10
-1.2899373e-12
4.4851423e-10
1.2261535e-12
4.4893123e-10
-1.1670379e-12
4.4853381e-10
1.1123077e-12
4.4891319e-10
-1.0617991e-12
4.4855045e-10
1.0152844e-12
4.4889795e-10
-9.726132e-13
4.4856441e-10
9.3360148e-13
4.4888527e-10
-8.9811669e-13
4.485759e-10
8.6600934e-13
4.4887496e-10
-8.3716903e-13
4.485851e-10
8.1146999e-13
4.4886686e-10
-7.8882771e-13
4.4859215e-10
7.6917443e-13
4.4886077e-10
-7.5222521e-13
4.4859697e-10
7.3856607e-13
4.4885683e-10
-7.2785047e-13
4.4860391e-10
7.1087224e-13
4.488795e-10
-7.5404776e-13
6.7953017e-13
6.1594285e-10
8.3850849e-09
6.5413963e-10
-7.8684958e-11
6.1954849e-10
8.6740372e-11
6.1982772e-10
1.2888424e-12
6.199479e-10
-3.1743175e-12
6.1822392e-10
7.12476e-12
6.1982057e-10
-6.5679615e-12
6.1824528e-10
6.3990056e-12
6.1977324e-10
-6.113052e-12
6.1832459e-10
5.7840905e-12
6.1968742e-10
-5.4410396e-12
6.1839998e-10
5.1329973e-12
6.1960983e-10
-4.8266816e-12
6.184696e-10
4.5470899e-12
6.1954268e-10
-4.2799954e-12
6.1853191e-10
4.0312764e-12
6.1948403e-10
-3.7972218e-12
6.1858703e-10
3.5776332e-12
6.1943257e-10
-3.3720247e-12
6.1863556e-10
3.1787794e-12
6.1938736e-10
-2.9981464e-12
6.1867819e-10
2.8284232e-12
6.1934768e-10
-2.669906e-12
6.1871556e-10
2.521124e-12
6.1931292e-10
-2.3822709e-12
6.1874824e-10
2.2521433e-12
6.1928254e-10
-2.1308258e-12
6.1877674e-10
2.0173498e-12
6.1925608e-10
-1.9117156e-12
6.188015e-10
1.8131469e-12
6.1923314e-10
-1.7215865e-12
6.1882289e-10
1.6364121e-12
6.1921338e-10
-1.5575318e-12
6.1884124e-10
1.484446e-12
6.1919649e-10
-1.4170454e-12
6.1885684e-10
1.354928e-12
6.1918221e-10
-1.2979808e-12
6.1886993e-10
1.2458792e-12
6.1917033e-10
-1.1985166e-12
6.1888071e-10
1.1556298e-12
6.1916067e-10
-1.117128e-12
6.1888935e-10
1.0827899e-12
6.1915308e-10
-1.0525511e-12
6.1889597e-10
1.0262803e-12
6.1914731e-10
-1.0035661e-12
6.1890044e-10
9.8544025e-13
6.1914342e-10
-9.7083349e-13
6.189077e-10
9.465907e-13
6.1917209e-10
-1.0184356e-12
9.0433236e-13
7.7054941e-10
1.0072285e-08
8.2532611e-10
-1.3346166e-10
7.8516619e-10
1.2690028e-10
7.8583048e-10
6.2455513e-13
7.8549079e-10
-2.8346313e-12
7.8397271e-10
8.6428408e-12
7.8543087e-10
-8.0261265e-12
7.8399397e-10
7.835913e-12
7.8541298e-10
-7.5320654e-12
7.8406735e-10
7.1297146e-12
7.8533378e-10
-6.7074683e-12
7.8413622e-10
6.3305584e-12
7.8526107e-10
-5.9515324e-12
7.8420061e-10
5.6075481e-12
7.8519849e-10
-5.2778741e-12
7.8425852e-10
4.9712504e-12
7.8514398e-10
-4.682686e-12
7.8430981e-10
4.4118016e-12
7.8509618e-10
-4.158392e-12
7.8435499e-10
3.9199629e-12
7.8505419e-10
-3.6973445e-12
7.8439469e-10
3.4879308e-12
7.8501734e-10
-3.2925593e-12
7.8442948e-10
3.1089856e-12
7.8498504e-10
-2.937838e-12
7.844599e-10
2.7772838e-12
7.8495682e-10
-2.6277395e-12
7.8448643e-10
2.4877327e-12
7.8493223e-10
-2.3575119e-12
7.8450948e-10
2.235899e-12
7.8491091e-10
-2.1230205e-12
7.8452939e-10
2.0179337e-12
7.8489254e-10
-1.9206815e-12
7.8454648e-10
1.8305082e-12
7.8487684e-10
-1.7474036e-12
7.84561e-10
1.6707606e-12
7.8486356e-10
-1.600539e-12
7.8457319e-10
1.5362494e-12
7.8485251e-10
-1.4778395e-12
7.8458323e-10
1.4249128e-12
7.8484352e-10
-1.3774212e-12
7.8459128e-10
1.3350307e-12
7.8483645e-10
-1.2977168e-12
7.8459746e-10
1.2652693e-12
7.8483104e-10
-1.2371434e-12
7.8460156e-10
1.2149197e-12
7.8482717e-10
-1.1964484e-12
7.8460888e-10
1.1648819e-12
7.8486028e-10
-1.2698342e-12
1.1116567e-12
9.3050048e-10
1.1599535e-08
9.8983809e-10
-1.9279926e-10
9.460645e-10
1.7067386e-10
9.4709634e-10
-4.0729002e-13
9.4639184e-10
-2.130128e-12
9.4510809e-10
9.9265953e-12
9.4643386e-10
-9.3519006e-12
9.4513984e-10
9.1299279e-12
9.4644859e-10
-8.8408122e-12
9.4520855e-10
8.3697577e-12
9.4637644e-10
-7.8753598e-12
9.4527097e-10
7.4360242e-12
9.4630879e-10
-6.9893486e-12
9.4533004e-10
6.5862943e-12
9.462509e-10
-6.1987353e-12
9.4538342e-10
5.8387251e-12
9.4620062e-10
-5.4998806e-12
9.4543079e-10
5.1816255e-12
9.4615656e-10
-4.8841585e-12
9.4547254e-10
4.6039842e-12
9.4611787e-10
-4.3426721e-12
9.4550921e-10
4.0965854e-12
9.460839e-10
-3.8672452e-12
9.4554136e-10
3.6515258e-12
9.4605413e-10
-3.4506077e-12
9.4556947e-10
3.2619424e-12
9.460281e-10
-3.0863735e-12
9.4559398e-10
2.9218565e-12
9.4600543e-10
-2.7689642e-12
9.4561527e-10
2.6260634e-12
9.4598577e-10
-2.4935249e-12
9.4563366e-10
2.3700439e-12
9.4596883e-10
-2.2558467e-12
9.4564945e-10
2.1498892e-12
9.4595434e-10
-2.0522985e-12
9.4566286e-10
1.9622374e-12
9.4594209e-10
-1.879769e-12
9.4567412e-10
1.8042195e-12
9.459319e-10
-1.7356152e-12
9.456834e-10
1.6734108e-12
9.459236e-10
-1.6176198e-12
9.4569085e-10
1.5677827e-12
9.4591706e-10
-1.5239319e-12
9.4569657e-10
1.4857633e-12
9.4591202e-10
-1.4525982e-12
9.4570029e-10
1.42665e-12
9.4590819e-10
-1.4043435e-12
9.4570747e-10
1.3656031e-12
9.4594436e-10
-1.5067242e-12
1.300604e-12
1.0697212e-09
1.2987564e-08
1.1478704e-09
-2.7094853e-10
1.1024154e-09
2.1612887e-10
1.1035879e-09
-1.5797422e-12
1.1026461e-09
-1.1883704e-12
1.1016308e-09
1.0941933e-11
1.1028307e-09
-1.0551848e-11
1.1016827e-09
1.0277958e-11
1.1028805e-09
-1.0038657e-11
1.1017478e-09
9.5025092e-12
1.1028157e-09
-8.94332e-12
1.1018039e-09
8.4478858e-12
1.1027533e-09
-7.9387679e-12
1.1018576e-09
7.4820144e-12
1.1027002e-09
-7.0413509e-12
1.1019064e-09
6.6325446e-12
1.1026542e-09
-6.2477111e-12
1.1019497e-09
5.8860806e-12
1.1026139e-09
-5.548351e-12
1.101988e-09
5.2299328e-12
1.1025786e-09
-4.9332635e-12
1.1020216e-09
4.6535766e-12
1.1025475e-09
-4.3931935e-12
1.102051e-09
4.1480228e-12
1.1025203e-09
-3.9198941e-12
1.1020768e-09
3.705476e-12
1.1024965e-09
-3.5061167e-12
1.1020992e-09
3.3191474e-12
1.1024758e-09
-3.1455275e-12
1.1021187e-09
2.9831275e-12
1.1024578e-09
-2.8326126e-12
1.1021356e-09
2.692284e-12
1.1024423e-09
-2.5625913e-12
1.10215e-09
2.4421772e-12
1.1024291e-09
-2.3313383e-12
1.1021623e-09
2.2289876e-12
1.1024179e-09
-2.1353175e-12
1.1021727e-09
2.0494543e-12
1.1024086e-09
-1.9715237e-12
1.1021812e-09
1.9008192e-12
1.102401e-09
-1.8374327e-12
1.102188e-09
1.7807684e-12
1.102395e-09
-1.7309304e-12
1.1021932e-09
1.6875076e-12
1.1023903e-09
-1.6496912e-12
1.1021966e-09
1.6203925e-12
1.1023865e-09
-1.5942962e-12
1.1022034e-09
1.5486909e-12
1.1024246e-09
-1.7278472e-12
1.470713e-12
1.2227006e-09
1.4222613e-08
1.2998028e-09
-3.4805069e-10
1.2540593e-09
2.6187234e-10
1.2552644e-09
-2.7847902e-12
1.2542443e-09
-1.6830029e-13
1.2535429e-09
1.1643283e-11
1.2546235e-09
-1.1632404e-11
1.2536227e-09
1.1278766e-11
1.2547093e-09
-1.1125307e-11
1.2536848e-09
1.052709e-11
1.254652e-09
-9.9105772e-12
1.2537346e-09
9.3652656e-12
1.2545949e-09
-8.7990111e-12
1.253783e-09
8.293945e-12
1.2545466e-09
-7.8050092e-12
1.2538271e-09
7.3520385e-12
1.2545049e-09
-6.92554e-12
1.2538665e-09
6.5245716e-12
1.2544685e-09
-6.1504001e-12
1.2539012e-09
5.7972782e-12
1.2544365e-09
-5.4686114e-12
1.2539316e-09
5.1584314e-12
1.2544084e-09
-4.869952e-12
1.2539584e-09
4.5980549e-12
1.2543838e-09
-4.3452947e-12
1.2539817e-09
4.1075083e-12
1.2543622e-09
-3.8866106e-12
1.2540021e-09
3.6792699e-12
1.2543435e-09
-3.4868819e-12
1.2540198e-09
3.3067916e-12
1.2543272e-09
-3.1399981e-12
1.2540351e-09
2.9843859e-12
1.2543132e-09
-2.8406599e-12
1.2540482e-09
2.7071319e-12
1.2543012e-09
-2.5842938e-12
1.2540594e-09
2.4707952e-12
1.254291e-09
-2.3669784e-12
1.2540687e-09
2.2717592e-12
1.2542826e-09
-2.1853791e-12
1.2540764e-09
2.1069622e-12
1.2542757e-09
-2.0366918e-12
1.2540826e-09
1.9738286e-12
1.2542702e-09
-1.9185601e-12
1.2540874e-09
1.8703574e-12
1.254266e-09
-1.8282899e-12
1.2540904e-09
1.7960116e-12
1.2542623e-09
-1.7661955e-12
1.2540968e-09
1.7141532e-12
1.2543011e-09
-1.9321736e-12
1.6218582e-12
1.3485614e-09
1.5331802e-08
1.4448247e-09
-4.4431398e-10
1.40117e-09
3.0552701e-10
1.4021088e-09
-3.723533e-12
1.4011817e-09
7.5879979e-13
1.4008464e-09
1.1978568e-11
1.4018141e-09
-1.2600169e-11
1.4009604e-09
1.2132552e-11
1.4019357e-09
-1.2100631e-11
1.4010193e-09
1.1443427e-11
1.4018856e-09
-1.0776848e-11
1.401063e-09
1.0187859e-11
1.4018338e-09
-9.5697968e-12
1.4011059e-09
9.0218057e-12
1.4017904e-09
-8.4894475e-12
1.4011455e-09
7.9969604e-12
1.401753e-09
-7.5331277e-12
1.4011807e-09
7.0968784e-12
1.4017204e-09
-6.69009e-12
1.4012119e-09
6.3058228e-12
1.4016918e-09
-5.9485218e-12
1.4012392e-09
5.6109724e-12
1.4016666e-09
-5.2973477e-12
1.4012632e-09
5.0014632e-12
1.4016446e-09
-4.7266552e-12
1.4012842e-09
4.4678976e-12
1.4016253e-09
-4.2277181e-12
1.4013025e-09
4.0020976e-12
1.4016085e-09
-3.7929058e-12
1.4013184e-09
3.5969432e-12
1.4015939e-09
-3.4155733e-12
1.4013321e-09
3.2462495e-12
1.4015814e-09
-3.0899565e-12
1.4013438e-09
2.9446643e-12
1.4015706e-09
-2.81108e-12
1.4013538e-09
2.6875812e-12
1.4015615e-09
-2.5746762e-12
1.4013622e-09
2.4710639e-12
1.401554e-09
-2.3771146e-12
1.4013691e-09
2.2917777e-12
1.4015478e-09
-2.2153383e-12
1.4013747e-09
2.1469093e-12
1.4015429e-09
-2.0867708e-12
1.401379e-09
2.0342672e-12
1.4015391e-09
-1.9883575e-12
1.4013816e-09
1.9534654e-12
1.4015355e-09
-1.9200288e-12
1.4013876e-09
1.8620637e-12
1.4015743e-09
-2.118878e-12
1.7541466e-12
1.492358e-09
1.6297194e-08
1.5844896e-09
-5.3644565e-10
1.5435698e-09
3.4644685e-10
1.5442073e-09
-4.3610704e-12
1.5434755e-09
1.4905832e-12
1.5435417e-09
1.1912404e-11
1.5444029e-09
-1.3461367e-11
1.5436952e-09
1.2840214e-11
1.5445597e-09
-1.2965111e-11
1.5437512e-09
1.2251935e-11
1.5445167e-09
-1.1542377e-11
1.5437888e-09
1.0915836e-11
1.5444703e-09
-1.0251301e-11
1.5438263e-09
9.6657439e-12
1.5444317e-09
-9.0948061e-12
1.5438612e-09
8.5674428e-12
1.5443987e-09
-8.0705914e-12
1.5438924e-09
7.6031166e-12
1.5443699e-09
-7.167521e-12
1.54392e-09
6.755667e-12
1.5443446e-09
-6.3730824e-12
1.5439443e-09
6.0112875e-12
1.5443224e-09
-5.6754578e-12
1.5439655e-09
5.358325e-12
1.5443029e-09
-5.0640446e-12
1.5439841e-09
4.7867127e-12
1.5442859e-09
-4.529501e-12
1.5440003e-09
4.2876921e-12
1.544271e-09
-4.0636553e-12
1.5440143e-09
3.8536381e-12
1.5442581e-09
-3.6593897e-12
1.5440265e-09
3.4779259e-12
1.544247e-09
-3.3105288e-12
1.5440369e-09
3.1548219e-12
1.5442375e-09
-3.0117413e-12
1.5440457e-09
2.8793899e-12
1.5442295e-09
-2.7584533e-12
1.5440532e-09
2.647411e-12
1.5442228e-09
-2.5467714e-12
1.5440593e-09
2.4553074e-12
1.5442174e-09
-2.3734134e-12
1.5440642e-09
2.3000527e-12
1.5442131e-09
-2.2356049e-12
1.544068e-09
2.1792811e-12
1.5442096e-09
-2.1299443e-12
1.5440703e-09
2.0927964e-12
1.5442061e-09
-2.0558721e-12
1.5440756e-09
1.9925578e-12
1.5442441e-09
-2.2873204e-12
1.8678628e-12
1.6109048e-09
1.7144039e-08
1.7170324e-09
-6.4257326e-10
1.681264e-09
3.8221529e-10
1.6817388e-09
-4.8359225e-12
1.6812077e-09
2.0216946e-12
1.681641e-09
1.1479113e-11
1.6823933e-09
-1.4213642e-11
1.6818279e-09
1.3405631e-11
1.682582e-09
-1.3719186e-11
1.6818802e-09
1.2953659e-11
1.6825457e-09
-1.2207817e-11
1.6819117e-09
1.1549821e-11
1.6825045e-09
-1.0844101e-11
1.6819439e-09
1.0226296e-11
1.6824707e-09
-9.6215876e-12
1.6819742e-09
9.0639604e-12
1.682442e-09
-8.5383704e-12
1.6820014e-09
8.0437054e-12
1.6824169e-09
-7.5830797e-12
1.6820254e-09
7.147181e-12
1.682395e-09
-6.7426351e-12
1.6820466e-09
6.3597042e-12
1.6823757e-09
-6.004586e-12
1.6820651e-09
5.6689314e-12
1.6823588e-09
-5.3577335e-12
1.6820813e-09
5.064213e-12
1.682344e-09
-4.7922015e-12
1.6820954e-09
4.5362857e-12
1.6823311e-09
-4.2993479e-12
1.6821076e-09
4.077085e-12
1.6823199e-09
-3.8716433e-12
1.6821182e-09
3.6796035e-12
1.6823102e-09
-3.5025546e-12
1.6821273e-09
3.3377756e-12
1.682302e-09
-3.1864403e-12
1.682135e-09
3.0463782e-12
1.682295e-09
-2.9184593e-12
1.6821415e-09
2.8009453e-12
1.6822892e-09
-2.6944885e-12
1.6821468e-09
2.5976869e-12
1.6822844e-09
-2.5110482e-12
1.6821511e-09
2.4333878e-12
1.6822807e-09
-2.365189e-12
1.6821544e-09
2.305525e-12
1.6822777e-09
-2.2531796e-12
1.6821563e-09
2.2141245e-12
1.6822743e-09
-2.1738796e-12
1.6821611e-09
2.105829e-12
1.6823108e-09
-2.4370296e-12
1.9634345e-12
1.7459112e-09
1.7855878e-08
1.8451195e-09
-7.4178156e-10
1.8141757e-09
4.1315906e-10
1.8147091e-09
-5.369262e-12
1.8143982e-09
2.3325669e-12
1.8151457e-09
1.0731585e-11
1.8157861e-09
-1.4854e-11
1.8153582e-09
1.3833504e-11
1.8160026e-09
-1.4363588e-11
1.8154062e-09
1.3550089e-11
1.8159726e-09
-1.2774232e-11
1.8154316e-09
1.2090826e-11
1.8159366e-09
-1.1349147e-11
1.8154586e-09
1.0704344e-11
1.8159076e-09
-1.0070622e-11
1.8154843e-09
9.4872958e-12
1.8158831e-09
-8.9371948e-12
1.8155075e-09
8.4193372e-12
1.8158618e-09
-7.9374113e-12
1.815528e-09
7.4809779e-12
1.8158431e-09
-7.0577518e-12
1.8155461e-09
6.6567666e-12
1.8158267e-09
-6.2852407e-12
1.8155619e-09
5.9337663e-12
1.8158123e-09
-5.608175e-12
1.8155757e-09
5.3008298e-12
1.8157997e-09
-5.0162246e-12
1.8155877e-09
4.7482641e-12
1.8157887e-09
-4.5003467e-12
1.8155982e-09
4.2676301e-12
1.8157792e-09
-4.0526612e-12
1.8156072e-09
3.8515946e-12
1.815771e-09
-3.6663297e-12
1.815615e-09
3.4938085e-12
1.815764e-09
-3.335446e-12
1.8156215e-09
3.1888041e-12
1.815758e-09
-3.0549407e-12
1.8156271e-09
2.9319044e-12
1.8157531e-09
-2.8204942e-12
1.8156316e-09
2.719137e-12
1.815749e-09
-2.6284565e-12
1.8156353e-09
2.5471231e-12
1.8157458e-09
-2.4757261e-12
1.8156382e-09
2.4131994e-12
1.8157432e-09
-2.3582644e-12
1.8156397e-09
2.3176401e-12
1.8157401e-09
-2.2742762e-12
1.8156438e-09
2.2021247e-12
1.8157745e-09
-2.5676887e-12
2.0414048e-12
1.8597612e-09
1.8453867e-08
1.9664106e-09
-8.4843103e-10
1.9424374e-09
4.3713224e-10
1.9430754e-09
-6.0072284e-12
1.9430418e-09
2.3661571e-12
1.9440566e-09
9.7167704e-12
1.9445818e-09
-1.537916e-11
1.9442867e-09
1.4128555e-11
1.9448222e-09
-1.4899082e-11
1.944329e-09
1.4043272e-11
1.9447978e-09
-1.3242945e-11
1.9443483e-09
1.2540262e-11
1.9447669e-09
-1.1767693e-11
1.9443701e-09
1.1101093e-11
1.9447425e-09
-1.044303e-11
1.9443913e-09
9.8385106e-12
1.9447222e-09
-9.2680551e-12
1.9444106e-09
8.7309512e-12
1.9447045e-09
-8.2313929e-12
1.9444276e-09
7.7578901e-12
1.9446891e-09
-7.3192111e-12
1.9444426e-09
6.9032136e-12
1.9446755e-09
-6.5181145e-12
1.9444558e-09
6.1534871e-12
1.9446636e-09
-5.8159866e-12
1.9444673e-09
5.4971497e-12
1.9446532e-09
-5.2021222e-12
1.9444773e-09
4.9241519e-12
1.9446441e-09
-4.6671464e-12
1.944486e-09
4.4257444e-12
1.9446362e-09
-4.2028883e-12
1.9444935e-09
3.9943232e-12
1.9446294e-09
-3.802256e-12
1.9444999e-09
3.6233047e-12
1.9446236e-09
-3.4591235e-12
1.9445054e-09
3.3070177e-12
1.9446187e-09
-3.1682316e-12
1.94451e-09
3.0406097e-12
1.9446146e-09
-2.9250967e-12
1.9445137e-09
2.8199559e-12
1.9446112e-09
-2.7259259e-12
1.9445168e-09
2.6415388e-12
1.9446086e-09
-2.5674888e-12
1.9445192e-09
2.5025717e-12
1.9446064e-09
-2.4454648e-12
1.9445204e-09
2.4035974e-12
1.9446035e-09
-2.3573494e-12
1.9445239e-09
2.2817419e-12
1.9446353e-09
-2.679121e-12
2.1024062e-12
1.9855883e-09
1.8926028e-08
2.083994e-09
-9.4683678e-10
2.0659894e-09
4.5513682e-10
2.0668761e-09
-6.8939288e-12
2.0671389e-09
2.1033662e-12
2.0683781e-09
8.4776341e-12
2.0687812e-09
-1.5782327e-11
2.0686135e-09
1.4296307e-11
2.069041e-09
-1.5326565e-11
2.0686486e-09
1.4435591e-11
2.0690213e-09
-1.3615627e-11
2.0686617e-09
1.2899843e-11
2.0689953e-09
-1.2101295e-11
2.0686784e-09
1.1418027e-11
2.0689756e-09
-1.0740195e-11
2.0686952e-09
1.0118914e-11
2.0689593e-09
-9.5321763e-12
2.0687105e-09
8.9797067e-12
2.0689453e-09
-8.4661103e-12
2.0687242e-09
7.9789458e-12
2.068933e-09
-7.5279773e-12
2.0687362e-09
7.099959e-12
2.0689222e-09
-6.7040653e-12
2.0687468e-09
6.3289073e-12
2.0689127e-09
-5.9819331e-12
2.0687559e-09
5.6538983e-12
2.0689044e-09
-5.3505776e-12
2.068764e-09
5.0645981e-12
2.0688972e-09
-4.8003595e-12
2.0687709e-09
4.5520098e-12
2.0688909e-09
-4.3228754e-12
2.0687769e-09
4.108314e-12
2.0688855e-09
-3.910831e-12
2.068782e-09
3.7267391e-12
2.0688808e-09
-3.5579248e-12
2.0687864e-09
3.4014515e-12
2.0688769e-09
-3.2587453e-12
2.0687901e-09
3.1274581e-12
2.0688737e-09
-3.0086771e-12
2.0687931e-09
2.9005112e-12
2.068871e-09
-2.8038115e-12
2.0687955e-09
2.7169793e-12
2.0688689e-09
-2.6408122e-12
2.0687975e-09
2.5739704e-12
2.0688671e-09
-2.5151053e-12
2.0687984e-09
2.4723084e-12
2.0688645e-09
-2.4234422e-12
2.0688012e-09
2.3450231e-12
2.0688934e-09
-2.771277e-12
2.1471391e-12
2.0948873e-09
1.9288891e-08
2.1951359e-09
-1.0470854e-09
2.184946e-09
4.6532672e-10
2.1861272e-09
-8.0751412e-12
2.186681e-09
1.5495342e-12
2.1881092e-09
7.0494203e-12
2.1883833e-09
-1.6056353e-11
2.1883378e-09
1.4341758e-11
2.1886588e-09
-1.5647523e-11
2.1883648e-09
1.4729607e-11
2.1886434e-09
-1.3894287e-11
2.1883717e-09
1.3171546e-11
2.1886222e-09
-1.2351779e-11
2.1883833e-09
1.1656874e-11
2.1886069e-09
-1.0963736e-11
2.1883958e-09
1.0330037e-11
2.1885946e-09
-9.7309927e-12
2.1884073e-09
9.1669605e-12
2.188584e-09
-8.6428358e-12
2.1884176e-09
8.145349e-12
2.1885748e-09
-7.6851805e-12
2.1884267e-09
7.2480728e-12
2.1885668e-09
-6.8440988e-12
2.1884347e-09
6.4609793e-12
2.1885597e-09
-6.1069112e-12
2.1884416e-09
5.7719253e-12
2.1885535e-09
-5.4623923e-12
2.1884477e-09
5.1703628e-12
2.188548e-09
-4.9007039e-12
2.1884529e-09
4.6471087e-12
2.1885433e-09
-4.4132681e-12
2.1884575e-09
4.1941812e-12
2.1885393e-09
-3.9926379e-12
2.1884613e-09
3.8046677e-12
2.1885358e-09
-3.6323792e-12
2.1884646e-09
3.4726119e-12
2.1885329e-09
-3.3269656e-12
2.1884674e-09
3.1929142e-12
2.1885304e-09
-3.0716814e-12
2.1884697e-09
2.9612332e-12
2.1885284e-09
-2.8625283e-12
2.1884715e-09
2.7738478e-12
2.1885268e-09
-2.6960875e-12
2.188473e-09
2.6277785e-12
2.1885255e-09
-2.5675632e-12
2.1884736e-09
2.524137e-12
2.1885231e-09
-2.4729472e-12
2.1884758e-09
2.3923523e-12
2.1885488e-09
-2.8442223e-12
2.176353e-12
2.2128186e-09
1.9533823e-08
2.3033257e-09
-1.1375926e-09
2.2994e-09
4.6925248e-10
2.3008676e-09
-9.5427987e-12
2.3016546e-09
7.6259663e-13
2.3032522e-09
5.4517404e-12
2.3033888e-09
-1.6192911e-11
2.30346e-09
1.4270574e-11
2.3036759e-09
-1.5863463e-11
2.3034773e-09
1.4928235e-11
2.3036642e-09
-1.4081159e-11
2.3034781e-09
1.3357612e-11
2.3036475e-09
-1.2521196e-11
2.3034848e-09
1.1819593e-11
2.3036365e-09
-1.111548e-11
2.303493e-09
1.0473608e-11
2.3036281e-09
-9.8661249e-12
2.3035008e-09
9.2942451e-12
2.303621e-09
-8.7630077e-12
2.3035079e-09
8.2584601e-12
2.3036148e-09
-7.792099e-12
2.3035141e-09
7.3487641e-12
2.3036094e-09
-6.9393525e-12
2.3035196e-09
6.55078e-12
2.3036046e-09
-6.1919352e-12
2.3035243e-09
5.8521916e-12
2.3036004e-09
-5.5384725e-12
2.3035285e-09
5.2423054e-12
2.3035967e-09
-4.9689919e-12
2.303532e-09
4.7118121e-12
2.3035936e-09
-4.4747968e-12
2.3035351e-09
4.2526196e-12
2.3035908e-09
-4.0483363e-12
2.3035378e-09
3.8577195e-12
2.3035885e-09
-3.6830858e-12
2.30354e-09
3.5210717e-12
2.3035865e-09
-3.37344e-12
2.3035419e-09
3.2375033e-12
2.3035848e-09
-3.1146137e-12
2.3035435e-09
3.0026079e-12
2.3035835e-09
-2.9025457e-12
2.3035447e-09
2.8125991e-12
2.3035824e-09
-2.7337569e-12
2.3035457e-09
2.6644281e-12
2.3035814e-09
-2.6032631e-12
2.3035461e-09
2.5594944e-12
2.3035794e-09
-2.5063006e-12
2.3035476e-09
2.4241511e-12
2.3036015e-09
-2.8981272e-12
2.1908311e-12
2.3184716e-09
1.9673101e-08
2.4055506e-09
-1.2246715e-09
2.4093926e-09
4.6541049e-10
2.4111492e-09
-1.1299376e-11
2.4120537e-09
-1.4190599e-13
2.4138077e-09
3.6977394e-12
2.4137974e-09
-1.6182647e-11
2.4139796e-09
1.4088409e-11
2.4140924e-09
-1.5976262e-11
2.4139861e-09
1.5034546e-11
2.4140837e-09
-1.4178752e-11
2.4139808e-09
1.3460483e-11
2.4140714e-09
-1.2611818e-11
2.4139827e-09
1.1908332e-11
2.4140646e-09
-1.1197444e-11
2.4139867e-09
1.0551532e-11
2.4140599e-09
-9.9393601e-12
2.4139909e-09
9.3632488e-12
2.4140561e-09
-8.828212e-12
2.4139948e-09
8.319778e-12
2.4140529e-09
-7.8501423e-12
2.4139983e-09
7.4033658e-12
2.41405e-09
-6.9910813e-12
2.4140013e-09
6.5994962e-12
2.4140475e-09
-6.2381238e-12
2.4140039e-09
5.8957565e-12
2.4140452e-09
-5.579818e-12
2.4140062e-09
5.2813736e-12
2.4140433e-09
-5.0061194e-12
2.4140082e-09
4.7469704e-12
2.4140416e-09
-4.5082671e-12
2.4140098e-09
4.2843955e-12
2.4140402e-09
-4.0786537e-12
2.4140113e-09
3.8865879e-12
2.4140389e-09
-3.710705e-12
2.4140125e-09
3.5474623e-12
2.4140379e-09
-3.3987721e-12
2.4140136e-09
3.2618049e-12
2.414037e-09
-3.1380304e-12
2.4140144e-09
3.0251717e-12
2.4140362e-09
-2.9243811e-12
2.4140151e-09
2.8337351e-12
2.4140357e-09
-2.7543073e-12
2.4140157e-09
2.6843952e-12
2.4140351e-09
-2.6226719e-12
2.4140158e-09
2.5788332e-12
2.4140334e-09
-2.5239773e-12
2.4140167e-09
2.440875e-12
2.4140518e-09
-2.9332559e-12
2.1913762e-12
2.4294447e-09
1.9701406e-08
2.5052693e-09
-1.3004961e-09
2.5149778e-09
4.557019e-10
2.5170263e-09
-1.3347823e-11
2.5178758e-09
-9.9141423e-13
2.5197784e-09
1.7951125e-12
2.5196101e-09
-1.60143e-11
2.5198967e-09
1.3801779e-11
2.5199083e-09
-1.598781e-11
2.519891e-09
1.5051839e-11
2.519902e-09
-1.4189779e-11
2.5198797e-09
1.3482791e-11
2.519894e-09
-1.26261e-11
2.5198769e-09
1.1925414e-11
2.5198912e-09
-1.1211808e-11
2.5198769e-09
1.0565868e-11
2.5198902e-09
-9.9526316e-12
2.5198776e-09
9.3757979e-12
2.5198896e-09
-8.8401653e-12
2.5198784e-09
8.3309245e-12
2.5198891e-09
-7.8608363e-12
2.5198792e-09
7.4133199e-12
2.5198887e-09
-7.0006431e-12
2.5198798e-09
6.6084125e-12
2.5198884e-09
-6.2466881e-12
2.5198804e-09
5.903766e-12
2.5198881e-09
-5.5875112e-12
2.5198808e-09
5.2885929e-12
2.5198878e-09
-5.0130564e-12
2.5198813e-09
4.7535042e-12
2.5198875e-09
-4.5145513e-12
2.5198816e-09
4.290338e-12
2.5198873e-09
-4.0843781e-12
2.5198819e-09
3.892024e-12
2.5198871e-09
-3.7159524e-12
2.5198821e-09
3.5524677e-12
2.519887e-09
-3.4036159e-12
2.5198823e-09
3.2664463e-12
2.5198868e-09
-3.142534e-12
2.5198825e-09
3.0295051e-12
2.5198867e-09
-2.9285951e-12
2.5198826e-09
2.8377988e-12
2.5198866e-09
-2.7582662e-12
2.5198828e-09
2.6881947e-12
2.5198864e-09
-2.6262941e-12
2.5198826e-09
2.5826441e-12
2.5198851e-09
-2.5264859e-12
2.519883e-09
2.44301e-12
2.5198997e-09
-2.9499577e-12
2.1788002e-12
2.5316655e-09
1.9627491e-08
2.5994398e-09
-1.3682704e-09
2.6160878e-09
4.3905389e-10
2.6184349e-09
-1.5694979e-11
2.6191294e-09
-1.685889e-12
2.6211622e-09
-2.3765224e-13
2.6208261e-09
-1.567827e-11
2.6212104e-09
1.341751e-11
2.6211231e-09
-1.5900517e-11
2.6211916e-09
1.4983369e-11
2.6211191e-09
-1.4117282e-11
2.6211746e-09
1.3427262e-11
2.6211152e-09
-1.2566703e-11
2.6211673e-09
1.1873295e-11
2.6211164e-09
-1.1160906e-11
2.6211635e-09
1.0518805e-11
2.6211189e-09
-9.9080045e-12
2.6211608e-09
9.3338389e-12
2.6211213e-09
-8.8006996e-12
2.6211586e-09
8.293629e-12
2.6211236e-09
-7.825809e-12
2.6211568e-09
7.3801645e-12
2.6211256e-09
-6.9694873e-12
2.6211551e-09
6.5788989e-12
2.6211274e-09
-6.2189205e-12
2.6211537e-09
5.8774432e-12
2.6211289e-09
-5.5627071e-12
2.6211524e-09
5.2650575e-12
2.6211302e-09
-4.9908381e-12
2.6211513e-09
4.7323955e-12
2.6211313e-09
-4.4945806e-12
2.6211503e-09
4.2713323e-12
2.6211323e-09
-4.0663504e-12
2.6211495e-09
3.8748291e-12
2.6211331e-09
-3.6995918e-12
2.6211488e-09
3.536818e-12
2.6211339e-09
-3.3886697e-12
2.6211482e-09
3.2520974e-12
2.6211344e-09
-3.1287679e-12
2.6211477e-09
3.0162281e-12
2.6211349e-09
-2.915786e-12
2.6211473e-09
2.8253701e-12
2.6211353e-09
-2.7461966e-12
2.6211471e-09
2.6763765e-12
2.6211355e-09
-2.6146675e-12
2.6211466e-09
2.5714507e-12
2.6211345e-09
-2.5143646e-12
2.6211465e-09
2.4310692e-12
2.6211452e-09
-2.9486579e-12
2.1539143e-12
2.6357312e-09
1.9449509e-08
2.6915562e-09
-1.4240954e-09
2.7128187e-09
4.1779137e-10
2.7152587e-09
-1.8134947e-11
2.7158123e-09
-2.2395444e-12
2.7179518e-09
-2.3771625e-12
2.7174447e-09
-1.5171138e-11
2.7179198e-09
1.2942386e-11
2.7177365e-09
-1.5717233e-11
2.7178875e-09
1.4832357e-11
2.7177348e-09
-1.3964586e-11
2.7178654e-09
1.3296704e-11
2.7177352e-09
-1.2436468e-11
2.7178539e-09
1.1754545e-11
2.7177402e-09
-1.1047214e-11
2.7178464e-09
1.0412648e-11
2.717746e-09
-9.8076603e-12
2.7178404e-09
9.2394229e-12
2.7177515e-09
-8.7117483e-12
2.7178354e-09
8.2097151e-12
2.7177564e-09
-7.7467785e-12
2.717831e-09
7.3055219e-12
2.7177607e-09
-6.8991432e-12
2.7178272e-09
6.5124004e-12
2.7177644e-09
-6.1561847e-12
2.7178238e-09
5.8180779e-12
2.7177677e-09
-5.5066245e-12
2.7178209e-09
5.2119218e-12
2.7177706e-09
-4.9405569e-12
2.7178183e-09
4.6846807e-12
2.717773e-09
-4.4493375e-12
2.7178161e-09
4.2283124e-12
2.7177752e-09
-4.0254585e-12
2.7178142e-09
3.8358493e-12
2.717777e-09
-3.6624295e-12
2.7178125e-09
3.5012838e-12
2.7177785e-09
-3.3546708e-12
2.7178112e-09
3.2194655e-12
2.7177798e-09
-3.0974113e-12
2.71781e-09
2.9859955e-12
2.7177808e-09
-2.886586e-12
2.7178091e-09
2.7970614e-12
2.7177816e-09
-2.7186932e-12
2.7178085e-09
2.6495205e-12
2.7177822e-09
-2.5883596e-12
2.7178078e-09
2.5458066e-12
2.7177816e-09
-2.4881773e-12
2.7178071e-09
2.40559e-12
2.7177883e-09
-2.9298499e-12
2.1175215e-12
2.7341016e-09
1.9173158e-08
2.7785767e-09
-1.4685704e-09
2.805051e-09
3.9131707e-10
2.8074625e-09
-2.0546512e-11
2.8079456e-09
-2.722602e-12
2.810143e-09
-4.5745507e-12
2.8094663e-09
-1.4494414e-11
2.8100253e-09
1.2383366e-11
2.8097488e-09
-1.5440714e-11
2.8099789e-09
1.4602246e-11
2.8097494e-09
-1.3735108e-11
2.809952e-09
1.3094077e-11
2.8097539e-09
-1.2238351e-11
2.8099366e-09
1.1571855e-11
2.8097627e-09
-1.0873314e-11
2.8099255e-09
1.0249805e-11
2.8097717e-09
-9.6538787e-12
2.8099165e-09
9.0946933e-12
2.8097801e-09
-8.5753328e-12
2.8099087e-09
8.0810883e-12
2.8097874e-09
-7.6255409e-12
2.8099019e-09
7.1910873e-12
2.8097939e-09
-6.7912093e-12
2.8098959e-09
6.4104277e-12
2.8097996e-09
-6.0599064e-12
2.8098907e-09
5.7270186e-12
2.8098046e-09
-5.4205379e-12
2.8098861e-09
5.1303925e-12
2.8098089e-09
-4.8633552e-12
2.8098822e-09
4.6114433e-12
2.8098127e-09
-4.3798498e-12
2.8098787e-09
4.162255e-12
2.8098159e-09
-3.962631e-12
2.8098758e-09
3.7759691e-12
2.8098187e-09
-3.6053092e-12
2.8098733e-09
3.4466715e-12
2.809821e-09
-3.3023905e-12
2.8098712e-09
3.1692905e-12