/*--------------------------------*- C++ -*----------------------------------*\
| =========                 |                                                 |
| \\      /  F ield         | OpenFOAM: The Open Source CFD Toolbox           |
|  \\    /   O peration     | Version:  2312                                  |
|   \\  /    A nd           | Website:  www.openfoam.com                      |
|    \\/     M anipulation  |                                                 |
\*---------------------------------------------------------------------------*/
FoamFile
{
    version     2.0;
    format      ascii;
    arch        "LSB;label=32;scalar=64";
    class       surfaceScalarField;
    location    "5";
    object      phi_0;
}
// * * * * * * * * * * * * * * * * * * * * * * * * * * * * * * * * * * * * * //

dimensions      [0 3 -1 0 0 0 0];

oriented        oriented;

internalField   nonuniform List<scalar> 
7870
(
1.017083e-10
2.3560417e-09
1.0152792e-10
1.8038909e-13
9.4556833e-11
6.9710863e-12
9.395867e-11
5.9816356e-13
9.5089802e-11
-1.1311307e-12
9.365428e-11
1.4355223e-12
9.4992005e-11
-1.3377251e-12
9.370949e-11
1.2825155e-12
9.4920171e-11
-1.2106814e-12
9.3777437e-11
1.1427344e-12
9.4852427e-11
-1.0749893e-12
9.383969e-11
1.0127374e-12
9.4792538e-11
-9.5284862e-13
9.3895239e-11
8.9729912e-13
9.473995e-11
-8.4471069e-13
9.3944355e-11
7.9559528e-13
9.4693721e-11
-7.4936606e-13
9.3987633e-11
7.0608807e-13
9.4653072e-11
-6.654397e-13
9.4025697e-11
6.2737492e-13
9.4617357e-11
-5.9165924e-13
9.4059125e-11
5.5823126e-13
9.4586017e-11
-5.2689157e-13
9.408843e-11
4.9758714e-13
9.4558569e-11
-4.7013951e-13
9.4114062e-11
4.4450764e-13
9.4534592e-11
-4.2053031e-13
9.4136415e-11
3.9817706e-13
9.4513718e-11
-3.7730277e-13
9.4155832e-11
3.578853e-13
9.4495627e-11
-3.3979504e-13
9.4172611e-11
3.2301608e-13
9.4480045e-11
-3.0743376e-13
9.4187008e-11
2.9303674e-13
9.4466733e-11
-2.7972473e-13
9.4199243e-11
2.6748962e-13
9.4455488e-11
-2.562449e-13
9.4209504e-11
2.4598469e-13
9.4446139e-11
-2.3663567e-13
9.4217946e-11
2.2819337e-13
9.4438543e-11
-2.2059734e-13
9.42247e-11
2.1384353e-13
9.4432583e-11
-2.0788336e-13
9.4229863e-11
2.0272047e-13
9.4428149e-11
-1.9828645e-13
9.4233504e-11
1.9464452e-13
9.4425417e-11
-1.9191224e-13
9.4237341e-11
1.880755e-13
9.443119e-11
-1.9384911e-13
1.8034176e-13
2.7852891e-10
4.5352628e-09
2.9247195e-10
-1.3762645e-11
2.7444614e-10
2.49969e-11
2.7367554e-10
1.3687594e-12
2.7494303e-10
-2.3986095e-12
2.7288136e-10
3.4971837e-12
2.7477441e-10
-3.2307693e-12
2.7294035e-10
3.1165772e-12
2.746802e-10
-2.9505318e-12
2.7303564e-10
2.7872997e-12
2.7458254e-10
-2.6218902e-12
2.7312418e-10
2.4710945e-12
2.7449587e-10
-2.3245336e-12
2.7320389e-10
2.189276e-12
2.7442005e-10
-2.0608769e-12
2.7327459e-10
1.9410645e-12
2.7435353e-10
-1.8283099e-12
2.7333694e-10
1.7226749e-12
2.7429507e-10
-1.6235638e-12
2.733918e-10
1.5306375e-12
2.742437e-10
-1.4435584e-12
2.7343999e-10
1.3619484e-12
2.7419863e-10
-1.285536e-12
2.7348222e-10
1.2139929e-12
2.7415915e-10
-1.1470665e-12
2.7351917e-10
1.0844898e-12
2.7412466e-10
-1.0260216e-12
2.7355139e-10
9.714495e-13
2.7409463e-10
-9.2054524e-13
2.7357938e-10
8.731404e-13
2.740686e-10
-8.2902292e-13
2.7360356e-10
7.8805934e-13
2.7404618e-10
-7.5005604e-13
2.7362431e-10
7.1490705e-13
2.7402703e-10
-6.8243883e-13
2.7364195e-10
6.5256693e-13
2.7401084e-10
-6.2513893e-13
2.7365674e-10
6.0008719e-13
2.7399739e-10
-5.7728102e-13
2.7366891e-10
5.5666571e-13
2.7398645e-10
-5.3813323e-13
2.7367866e-10
5.2163725e-13
2.7397786e-10
-5.0709239e-13
2.736861e-10
4.9448036e-13
2.7397145e-10
-4.836286e-13
2.7369129e-10
4.7479938e-13
2.739674e-10
-4.6801828e-13
2.7369749e-10
4.5797952e-13
2.7398214e-10
-4.7849401e-13
4.3832865e-13
4.5000125e-10
6.5430115e-09
4.7635402e-10
-4.011541e-11
4.4929608e-10
5.2054846e-11
4.4910763e-10
1.5572102e-12
4.4976491e-10
-3.0558869e-12
4.478602e-10
5.4018851e-12
4.4960176e-10
-4.9723212e-12
4.4789391e-10
4.8244276e-12
4.4952887e-10
-4.5854966e-12
4.4798055e-10
4.3356189e-12
4.4943689e-10
-4.0782229e-12
4.4806253e-10
3.8454558e-12
4.4935466e-10
-3.6166622e-12
4.4813727e-10
3.4066641e-12
4.4928311e-10
-3.2067152e-12
4.4820385e-10
3.0203198e-12
4.4922047e-10
-2.8449291e-12
4.4826266e-10
2.6804847e-12
4.4916546e-10
-2.5263678e-12
4.4831442e-10
2.3816809e-12
4.4911714e-10
-2.2462796e-12
4.4835988e-10
2.1192071e-12
4.4907473e-10
-2.0003866e-12
4.4839974e-10
1.888989e-12
4.4903758e-10
-1.784912e-12
4.484346e-10
1.6874766e-12
4.4900512e-10
-1.5965468e-12
4.4846499e-10
1.5115757e-12
4.4897685e-10
-1.432404e-12
4.484914e-10
1.358593e-12
4.4895235e-10
-1.2899724e-12
4.4851422e-10
1.2261905e-12
4.4893124e-10
-1.1670762e-12
4.485338e-10
1.1123467e-12
4.489132e-10
-1.0618388e-12
4.4855044e-10
1.0153244e-12
4.4889796e-10
-9.7265339e-13
4.485644e-10
9.3364179e-13
4.4888528e-10
-8.9815706e-13
4.4857589e-10
8.6604976e-13
4.4887497e-10
-8.3720945e-13
4.485851e-10
8.1151044e-13
4.4886687e-10
-7.8886816e-13
4.4859214e-10
7.6921489e-13
4.4886078e-10
-7.5226566e-13
4.4859697e-10
7.3860655e-13
4.4885684e-10
-7.27891e-13
4.4860391e-10
7.1091215e-13
4.488795e-10
-7.5409057e-13
6.7957014e-13
6.1248588e-10
8.3882757e-09
6.5424699e-10
-8.1876511e-11
6.1957651e-10
8.6725325e-11
6.1982664e-10
1.3070871e-12
6.199482e-10
-3.1774444e-12
6.1822381e-10
7.1262687e-12
6.198206e-10
-6.5691052e-12
6.1824527e-10
6.3997546e-12
6.1977321e-10
-6.1134289e-12
6.1832463e-10
5.7841989e-12
6.1968736e-10
-5.4409594e-12
6.1840002e-10
5.1327972e-12
6.1960978e-10
-4.8264207e-12
6.1846964e-10
4.546804e-12
6.1954264e-10
-4.2797144e-12
6.1853194e-10
4.0310163e-12
6.1948401e-10
-3.7969934e-12
6.1858705e-10
3.5774411e-12
6.1943255e-10
-3.3718698e-12
6.1863557e-10
3.1786605e-12
6.1938735e-10
-2.99806e-12
6.186782e-10
2.8283658e-12
6.1934768e-10
-2.669873e-12
6.1871556e-10
2.5211116e-12
6.1931292e-10
-2.3822749e-12
6.1874824e-10
2.2521606e-12
6.1928255e-10
-2.1308533e-12
6.1877674e-10
2.0173852e-12
6.1925609e-10
-1.9117567e-12
6.1880149e-10
1.8131923e-12
6.1923315e-10
-1.7216349e-12
6.1882288e-10
1.6364627e-12
6.1921339e-10
-1.5575839e-12
6.1884123e-10
1.484499e-12
6.1919649e-10
-1.417099e-12
6.1885684e-10
1.354982e-12
6.1918222e-10
-1.2980349e-12
6.1886993e-10
1.2459335e-12
6.1917034e-10
-1.1985709e-12
6.1888071e-10
1.1556842e-12
6.1916068e-10
-1.1171825e-12
6.1888935e-10
1.0828444e-12
6.1915308e-10
-1.0526055e-12
6.1889596e-10
1.0263349e-12
6.1914732e-10
-1.0036206e-12
6.1890043e-10
9.8549483e-13
6.1914343e-10
-9.7088812e-13
6.1890769e-10
9.4664437e-13
6.191721e-10
-1.018494e-12
9.043865e-13
7.7596794e-10
1.0070058e-08
8.2520507e-10
-1.3111364e-10
7.8512352e-10
1.2680689e-10
7.8582952e-10
6.0108433e-13
7.854901e-10
-2.8380209e-12
7.8397262e-10
8.6437439e-12
7.8543085e-10
-8.0273326e-12
7.83994e-10
7.8366096e-12
7.8541292e-10
-7.5323508e-12
7.8406741e-10
7.1297139e-12
7.8533372e-10
-6.7072751e-12
7.8413627e-10
6.3302487e-12
7.8526102e-10
-5.9511718e-12
7.8420065e-10
5.6071748e-12
7.8519846e-10
-5.2775198e-12
7.8425854e-10
4.9709309e-12
7.8514396e-10
-4.6824114e-12
7.8430983e-10
4.4115752e-12
7.8509617e-10
-4.1582129e-12
7.84355e-10
3.9198286e-12
7.8505419e-10
-3.6972497e-12
7.8439469e-10
3.4878707e-12
7.8501734e-10
-3.292528e-12
7.8442947e-10
3.1089784e-12
7.8498505e-10
-2.9378497e-12
7.844599e-10
2.7773107e-12
7.8495682e-10
-2.6277779e-12
7.8448643e-10
2.4877798e-12
7.8493224e-10
-2.3575655e-12
7.8450947e-10
2.2359572e-12
7.8491092e-10
-2.123082e-12
7.8452938e-10
2.0179974e-12
7.8489255e-10
-1.9207467e-12
7.8454647e-10
1.8305745e-12
7.8487684e-10
-1.7474705e-12
7.84561e-10
1.6708279e-12
7.8486357e-10
-1.6006064e-12
7.8457319e-10
1.536317e-12
7.8485252e-10
-1.4779072e-12
7.8458323e-10
1.4249806e-12
7.8484353e-10
-1.3774889e-12
7.8459128e-10
1.3350985e-12
7.8483646e-10
-1.2977846e-12
7.8459745e-10
1.2653372e-12
7.8483105e-10
-1.2372113e-12
7.8460155e-10
1.2149877e-12
7.8482718e-10
-1.1965164e-12
7.8460888e-10
1.1649486e-12
7.8486029e-10
-1.2699078e-12
1.1117244e-12
9.2285662e-10
1.1604951e-08
9.898205e-10
-1.9807752e-10
9.4610024e-10
1.7052716e-10
9.4709534e-10
-3.9402008e-13
9.4639195e-10
-2.1346225e-12
9.4510805e-10
9.9276391e-12
9.4643375e-10
-9.3530257e-12
9.4513989e-10
9.1304656e-12
9.4644851e-10
-8.8409693e-12
9.452086e-10
8.369622e-12
9.4637637e-10
-7.8750433e-12
9.4527102e-10
7.4356035e-12
9.4630874e-10
-6.9888936e-12
9.4533007e-10
6.5858422e-12
9.4625087e-10
-6.1983185e-12
9.4538345e-10
5.8383574e-12
9.462006e-10
-5.4995705e-12
9.454308e-10
5.1813747e-12
9.4615656e-10
-4.883964e-12
9.4547254e-10
4.6038419e-12
9.4611787e-10
-4.3425749e-12
9.4550921e-10
4.0965274e-12
9.460839e-10
-3.8672193e-12
9.4554135e-10
3.6515264e-12
9.4605413e-10
-3.4506289e-12
9.4556946e-10
3.26198e-12
9.4602811e-10
-3.0864233e-12
9.4559397e-10
2.9219156e-12
9.4600544e-10
-2.76903e-12
9.4561526e-10
2.6261341e-12
9.4598578e-10
-2.4935989e-12
9.4563366e-10
2.3701203e-12
9.4596883e-10
-2.2559245e-12
9.4564944e-10
2.149968e-12
9.4595435e-10
-2.052378e-12
9.4566286e-10
1.9623172e-12
9.459421e-10
-1.879849e-12
9.4567412e-10
1.8042997e-12
9.4593191e-10
-1.7356955e-12
9.456834e-10
1.6734911e-12
9.4592361e-10
-1.6177002e-12
9.4569084e-10
1.5678631e-12
9.4591707e-10
-1.5240124e-12
9.4569656e-10
1.4858439e-12
9.4591203e-10
-1.4526788e-12
9.4570029e-10
1.4267308e-12
9.459082e-10
-1.4044243e-12
9.4570746e-10
1.3656821e-12
9.4594437e-10
-1.5068125e-12
1.3006847e-12
1.0794704e-09
1.2983231e-08
1.1479566e-09
-2.6656377e-10
1.1023652e-09
2.1611863e-10
1.1035861e-09
-1.6149244e-12
1.1026448e-09
-1.1933241e-12
1.1016307e-09
1.0941705e-11
1.1028306e-09
-1.0552915e-11
1.1016828e-09
1.0278308e-11
1.1028804e-09
-1.0038662e-11
1.1017478e-09
9.5022286e-12
1.1028157e-09
-8.9428822e-12
1.1018039e-09
8.4473614e-12
1.1027533e-09
-7.9382297e-12
1.1018576e-09
7.4814966e-12
1.1027002e-09
-7.0408847e-12
1.1019064e-09
6.6321412e-12
1.1026542e-09
-6.247377e-12
1.1019498e-09
5.8858151e-12
1.1026139e-09
-5.5481492e-12
1.101988e-09
5.2297888e-12
1.1025786e-09
-4.933169e-12
1.1020216e-09
4.6535244e-12
1.1025475e-09
-4.3931756e-12
1.102051e-09
4.148033e-12
1.1025203e-09
-3.9199259e-12
1.1020768e-09
3.7055248e-12
1.1024965e-09
-3.5061782e-12
1.1020992e-09
3.3192184e-12
1.1024758e-09
-3.1456052e-12
1.1021187e-09
2.9832102e-12
1.1024578e-09
-2.8326985e-12
1.1021356e-09
2.6923722e-12
1.1024423e-09
-2.5626809e-12
1.10215e-09
2.4422678e-12
1.1024291e-09
-2.3314295e-12
1.1021623e-09
2.2290792e-12
1.1024179e-09
-2.1354092e-12
1.1021726e-09
2.0495463e-12
1.1024086e-09
-1.9716158e-12
1.1021811e-09
1.9009114e-12
1.102401e-09
-1.837525e-12
1.102188e-09
1.7808608e-12
1.102395e-09
-1.7310227e-12
1.1021932e-09
1.6876001e-12
1.1023903e-09
-1.6497837e-12
1.1021966e-09
1.6204851e-12
1.1023865e-09
-1.5943889e-12
1.1022034e-09
1.5487814e-12
1.1024246e-09
-1.7279496e-12
1.4708058e-12
1.2114269e-09
1.4229554e-08
1.299507e-09
-3.5464388e-10
1.2540913e-09
2.615343e-10
1.2552642e-09
-2.7877451e-12
1.2542444e-09
-1.7354976e-13
1.2535429e-09
1.1643181e-11
1.2546233e-09
-1.1633307e-11
1.2536227e-09
1.1278862e-11
1.2547093e-09
-1.1125167e-11
1.2536848e-09
1.0526666e-11
1.254652e-09
-9.9100295e-12
1.2537347e-09
9.3646511e-12
1.2545949e-09
-8.7984053e-12
1.253783e-09
8.2933764e-12
1.2545466e-09
-7.8045078e-12
1.2538271e-09
7.351612e-12
1.2545049e-09
-6.9251926e-12
1.2538665e-09
6.5243002e-12
1.2544685e-09
-6.1501981e-12
1.2539012e-09
5.7971382e-12
1.2544365e-09
-5.4685236e-12
1.2539316e-09
5.158388e-12
1.2544084e-09
-4.8699441e-12
1.2539584e-09
4.5980758e-12
1.2543838e-09
-4.3453377e-12
1.2539817e-09
4.1075685e-12
1.2543622e-09
-3.8866835e-12
1.2540021e-09
3.6793522e-12
1.2543435e-09
-3.4869709e-12
1.2540198e-09
3.3068854e-12
1.2543272e-09
-3.1400951e-12
1.2540351e-09
2.9844851e-12
1.2543132e-09
-2.8407605e-12
1.2540482e-09
2.7072335e-12
1.2543012e-09
-2.5843959e-12
1.2540593e-09
2.4708977e-12
1.254291e-09
-2.3670811e-12
1.2540687e-09
2.2718621e-12
1.2542826e-09
-2.1854821e-12
1.2540764e-09
2.1070653e-12
1.2542757e-09
-2.036795e-12
1.2540826e-09
1.973932e-12
1.2542703e-09
-1.9186635e-12
1.2540874e-09
1.870461e-12
1.254266e-09
-1.8283935e-12
1.2540904e-09
1.7961155e-12
1.2542623e-09
-1.7662993e-12
1.2540968e-09
1.7142545e-12
1.2543011e-09
-1.9322893e-12
1.6219623e-12
1.3601894e-09
1.5327115e-08
1.4452289e-09
-4.3968347e-10
1.4011374e-09
3.0562582e-10
1.4021083e-09
-3.7586099e-12
1.4011799e-09
7.5482836e-13
1.4008463e-09
1.1976835e-11
1.401814e-09
-1.2601003e-11
1.4009604e-09
1.213242e-11
1.4019356e-09
-1.2100352e-11
1.4010194e-09
1.1442872e-11
1.4018856e-09
-1.0776209e-11
1.401063e-09
1.0187172e-11
1.4018338e-09
-9.5691408e-12
1.401106e-09
9.0212023e-12
1.4017904e-09
-8.488925e-12
1.4011455e-09
7.9965225e-12
1.401753e-09
-7.5327766e-12
1.4011807e-09
7.0966088e-12
1.4017204e-09
-6.6898935e-12
1.4012119e-09
6.3056909e-12
1.4016918e-09
-5.9484438e-12
1.4012392e-09
5.6109398e-12
1.4016667e-09
-5.297351e-12
1.4012632e-09
5.0014954e-12
1.4016446e-09
-4.7267095e-12
1.4012842e-09
4.467969e-12
1.4016253e-09
-4.2278018e-12
1.4013025e-09
4.0021906e-12
1.4016085e-09
-3.7930053e-12
1.4013184e-09
3.5970473e-12
1.4015939e-09
-3.4156805e-12
1.4013321e-09
3.2463588e-12
1.4015814e-09
-3.0900672e-12
1.4013438e-09
2.9447759e-12
1.4015706e-09
-2.8111921e-12
1.4013538e-09
2.6876937e-12
1.4015615e-09
-2.5747889e-12
1.4013622e-09
2.4711769e-12
1.401554e-09
-2.3772277e-12
1.4013691e-09
2.291891e-12
1.4015478e-09
-2.2154518e-12
1.4013747e-09
2.1470229e-12
1.4015429e-09
-2.0868846e-12
1.401379e-09
2.0343811e-12
1.4015391e-09
-1.9884714e-12
1.4013816e-09
1.9535796e-12
1.4015355e-09
-1.920143e-12
1.4013875e-09
1.8621749e-12
1.4015743e-09
-2.1190062e-12
1.7542612e-12
1.4813523e-09
1.6303512e-08
1.5839508e-09
-5.4228202e-10
1.5436017e-09
3.4597497e-10
1.5442078e-09
-4.3647451e-12
1.543476e-09
1.4866921e-12
1.5435416e-09
1.191118e-11
1.5444026e-09
-1.3462033e-11
1.5436953e-09
1.2839803e-11
1.5445596e-09
-1.296473e-11
1.5437512e-09
1.2251266e-11
1.5445167e-09
-1.1541667e-11
1.5437888e-09
1.0915096e-11
1.5444703e-09
-1.0250612e-11
1.5438263e-09
9.6651208e-12
1.5444317e-09
-9.0942753e-12
1.5438612e-09
8.5670038e-12
1.5443987e-09
-8.0702447e-12
1.5438924e-09
7.6028549e-12
1.5443699e-09
-7.1673345e-12
1.54392e-09
6.7555464e-12
1.5443446e-09
-6.3730161e-12
1.5439443e-09
6.0112667e-12
1.5443224e-09
-5.6754727e-12
1.5439655e-09
5.3583686e-12
1.5443029e-09
-5.0641098e-12
1.5439841e-09
4.7867946e-12
1.5442859e-09
-4.5295949e-12
1.5440003e-09
4.287795e-12
1.544271e-09
-4.0637644e-12
1.5440143e-09
3.8537517e-12
1.5442581e-09
-3.6595061e-12
1.5440265e-09
3.4780445e-12
1.544247e-09
-3.3106486e-12
1.5440369e-09
3.1549426e-12
1.5442375e-09
-3.0118626e-12
1.5440457e-09
2.8795116e-12
1.5442295e-09
-2.7585752e-12
1.5440532e-09
2.6475332e-12
1.5442228e-09
-2.5468937e-12
1.5440593e-09
2.45543e-12
1.5442174e-09
-2.3735361e-12
1.5440642e-09
2.3001756e-12
1.5442131e-09
-2.2357281e-12
1.544068e-09
2.1794044e-12
1.5442096e-09
-2.1300677e-12
1.5440703e-09
2.0929201e-12
1.5442061e-09
-2.0559956e-12
1.5440756e-09
1.9926782e-12
1.5442441e-09
-2.2874602e-12
1.8679869e-12
1.6207636e-09
1.7140499e-08
1.7176169e-09
-6.3913528e-10
1.6812572e-09
3.8233468e-10
1.6817396e-09
-4.8471082e-12
1.6812056e-09
2.0206786e-12
1.6816408e-09
1.1476012e-11
1.6823931e-09
-1.4214359e-11
1.6818279e-09
1.3405003e-11
1.6825819e-09
-1.3718722e-11
1.6818802e-09
1.2952897e-11
1.6825456e-09
-1.2207061e-11
1.6819117e-09
1.1549046e-11
1.6825045e-09
-1.0843398e-11
1.6819439e-09
1.0225666e-11
1.6824707e-09
-9.6210596e-12
1.6819742e-09
9.0635287e-12
1.682442e-09
-8.5380346e-12
1.6820014e-09
8.0434561e-12
1.6824169e-09
-7.5829065e-12
1.6820254e-09
7.1470736e-12
1.682395e-09
-6.7425817e-12
1.6820466e-09
6.3596956e-12
1.6823757e-09
-6.0046125e-12
1.6820651e-09
5.6689859e-12
1.6823588e-09
-5.3578089e-12
1.6820813e-09
5.0643045e-12
1.682344e-09
-4.7923046e-12
1.6820954e-09
4.5363974e-12
1.6823311e-09
-4.2994656e-12
1.6821076e-09
4.0772069e-12
1.6823199e-09
-3.8717681e-12
1.6821182e-09
3.6797303e-12
1.6823102e-09
-3.5026826e-12
1.6821273e-09
3.3379044e-12
1.682302e-09
-3.1865697e-12
1.682135e-09
3.046508e-12
1.682295e-09
-2.9185895e-12
1.6821415e-09
2.8010758e-12
1.6822892e-09
-2.6946193e-12
1.6821468e-09
2.5978179e-12
1.6822844e-09
-2.5111794e-12
1.6821511e-09
2.4335193e-12
1.6822807e-09
-2.3653206e-12
1.6821544e-09
2.3056569e-12
1.6822777e-09
-2.2533115e-12
1.6821563e-09
2.2142568e-12
1.6822744e-09
-2.1740117e-12
1.6821611e-09
2.1059576e-12
1.6823108e-09
-2.4371801e-12
1.9635672e-12
1.7369623e-09
1.7861286e-08
1.8444157e-09
-7.4658869e-10
1.8141885e-09
4.125619e-10
1.8147074e-09
-5.3659984e-12
1.8143985e-09
2.3295333e-12
1.8151455e-09
1.0729051e-11
1.8157858e-09
-1.4854651e-11
1.8153582e-09
1.3832626e-11
1.8160025e-09
-1.4363089e-11
1.8154062e-09
1.3549255e-11
1.8159726e-09
-1.277345e-11
1.8154316e-09
1.2090034e-11
1.8159366e-09
-1.1348443e-11
1.8154586e-09
1.070372e-11
1.8159076e-09
-1.0070106e-11
1.8154843e-09
9.4868781e-12
1.8158831e-09
-8.9368746e-12
1.8155075e-09
8.4191035e-12
1.8158618e-09
-7.9372532e-12
1.815528e-09
7.4808848e-12
1.8158431e-09
-7.0577116e-12
1.815546e-09
6.6567701e-12
1.8158267e-09
-6.2852783e-12
1.8155619e-09
5.9338309e-12
1.8158123e-09
-5.6082598e-12
1.8155757e-09
5.30093e-12
1.8157997e-09
-5.016336e-12
1.8155877e-09
4.7483837e-12
1.8157887e-09
-4.500472e-12
1.8155982e-09
4.2677595e-12
1.8157792e-09
-4.0527933e-12
1.8156072e-09
3.8517286e-12
1.815771e-09
-3.6664649e-12
1.815615e-09
3.4939446e-12
1.815764e-09
-3.3355826e-12
1.8156215e-09
3.1889413e-12
1.815758e-09
-3.0550782e-12
1.8156271e-09
2.9320423e-12
1.8157531e-09
-2.8206323e-12
1.8156316e-09
2.7192755e-12
1.815749e-09
-2.6285952e-12
1.8156353e-09
2.5472622e-12
1.8157458e-09
-2.4758654e-12
1.8156382e-09
2.4133389e-12
1.8157432e-09
-2.358404e-12
1.8156397e-09
2.3177801e-12
1.8157401e-09
-2.274416e-12
1.8156438e-09
2.2022606e-12
1.8157745e-09
-2.567849e-12
2.041545e-12
1.8675128e-09
1.8451523e-08
1.967122e-09
-8.461979e-10
1.9423971e-09
4.3728681e-10
1.9430711e-09
-6.0400017e-12
1.9430396e-09
2.3610371e-12
1.9440561e-09
9.7125472e-12
1.9445815e-09
-1.5380074e-11
1.9442867e-09
1.4127478e-11
1.9448222e-09
-1.4898567e-11
1.944329e-09
1.4042391e-11
1.9447977e-09
-1.3242158e-11
1.9443483e-09
1.2539469e-11
1.9447669e-09
-1.1767e-11
1.9443701e-09
1.1100484e-11
1.9447425e-09
-1.0442532e-11
1.9443913e-09
9.8381116e-12
1.9447222e-09
-9.2677536e-12
1.9444105e-09
8.730735e-12
1.9447045e-09
-8.231251e-12
1.9444276e-09
7.7578114e-12
1.9446891e-09
-7.3191839e-12
1.9444426e-09
6.9032286e-12
1.9446755e-09
-6.5181623e-12
1.9444558e-09
6.1535609e-12
1.9446636e-09
-5.8160798e-12
1.9444673e-09
5.4972577e-12
1.9446532e-09
-5.2022408e-12
1.9444773e-09
4.9242783e-12
1.9446441e-09
-4.6672783e-12
1.944486e-09
4.4258801e-12
1.9446362e-09
-4.2030267e-12
1.9444935e-09
3.9944635e-12
1.9446294e-09
-3.8023974e-12
1.9444999e-09
3.6234471e-12
1.9446236e-09
-3.4592664e-12
1.9445054e-09
3.3071612e-12
1.9446187e-09
-3.1683755e-12
1.94451e-09
3.040754e-12
1.9446146e-09
-2.9252414e-12
1.9445137e-09
2.820101e-12
1.9446112e-09
-2.7260713e-12
1.9445168e-09
2.6416845e-12
1.9446086e-09
-2.5676348e-12
1.9445192e-09
2.502718e-12
1.9446064e-09
-2.4456111e-12
1.9445204e-09
2.4037443e-12
1.9446035e-09
-2.3574958e-12
1.9445239e-09
2.2818842e-12
1.9446353e-09
-2.6792899e-12
2.1025529e-12
1.9787797e-09
1.8930494e-08
2.0832144e-09
-9.5063261e-10
2.0659776e-09
4.5452361e-10
2.066873e-09
-6.9354622e-12
2.0671391e-09
2.0949252e-12
2.0683778e-09
8.473939e-12
2.068781e-09
-1.5783322e-11
2.0686134e-09
1.4295053e-11
2.0690409e-09
-1.5326062e-11
2.0686486e-09
1.4434686e-11
2.0690213e-09
-1.361485e-11
2.0686617e-09
1.2899061e-11
2.0689954e-09
-1.2100624e-11
2.0686784e-09
1.1417439e-11
2.0689756e-09
-1.0739721e-11
2.0686952e-09
1.0118537e-11
2.0689593e-09
-9.5318954e-12
2.0687105e-09
8.9795087e-12
2.0689453e-09
-8.4659847e-12
2.0687242e-09
7.9788812e-12
2.068933e-09
-7.5279623e-12
2.0687362e-09
7.0999846e-12
2.0689222e-09
-6.7041223e-12
2.0687467e-09
6.3289891e-12
2.0689127e-09
-5.9820335e-12
2.0687559e-09
5.6540128e-12
2.0689044e-09
-5.3507024e-12
2.068764e-09
5.0647302e-12
2.0688972e-09
-4.8004969e-12
2.0687709e-09
4.552151e-12
2.0688909e-09
-4.3230191e-12
2.0687769e-09
4.1084595e-12
2.0688855e-09
-3.9109777e-12
2.068782e-09
3.7268867e-12
2.0688808e-09
-3.5580731e-12
2.0687864e-09
3.4016004e-12
2.0688769e-09
-3.2588946e-12
2.0687901e-09
3.1276079e-12
2.0688737e-09
-3.0088274e-12
2.0687931e-09
2.9006619e-12
2.068871e-09
-2.8039625e-12
2.0687955e-09
2.7171307e-12
2.0688689e-09
-2.6409639e-12
2.0687975e-09
2.5741224e-12
2.0688671e-09
-2.5152574e-12
2.0687984e-09
2.4724611e-12
2.0688645e-09
-2.4235944e-12
2.0688012e-09
2.3451709e-12
2.0688934e-09
-2.7714533e-12
2.1472913e-12
2.1007004e-09
1.9287543e-08
2.1959118e-09
-1.0458439e-09
2.1849359e-09
4.6549952e-10
2.1861245e-09
-8.124146e-12
2.1866788e-09
1.5407158e-12
2.1881087e-09
7.0439825e-12
2.1883831e-09
-1.6057698e-11
2.1883378e-09
1.4340389e-11
2.1886587e-09
-1.564704e-11
2.1883647e-09
1.4728695e-11
2.1886434e-09
-1.3893534e-11
2.1883717e-09
1.3170785e-11
2.1886222e-09
-1.2351136e-11
2.1883833e-09
1.1656313e-11
2.1886069e-09
-1.0963288e-11
2.1883957e-09
1.0329683e-11
2.1885946e-09
-9.7307331e-12
2.1884073e-09
9.1667807e-12
2.1885841e-09
-8.642726e-12
2.1884176e-09
8.1452977e-12
2.1885749e-09
-7.6851769e-12
2.1884267e-09
7.2481079e-12
2.1885668e-09
-6.8441639e-12
2.1884347e-09
6.4610681e-12
2.1885597e-09
-6.1070178e-12
2.1884416e-09
5.7720453e-12
2.1885535e-09
-5.462522e-12
2.1884477e-09
5.1704997e-12
2.188548e-09
-4.9008458e-12
2.1884529e-09
4.6472542e-12
2.1885433e-09
-4.4134161e-12
2.1884575e-09
4.194331e-12
2.1885393e-09
-3.992789e-12
2.1884613e-09
3.8048197e-12
2.1885358e-09
-3.6325319e-12
2.1884646e-09
3.4727653e-12
2.1885329e-09
-3.3271195e-12
2.1884674e-09
3.1930686e-12
2.1885304e-09
-3.0718362e-12
2.1884697e-09
2.9613885e-12
2.1885284e-09
-2.862684e-12
2.1884715e-09
2.7740039e-12
2.1885268e-09
-2.6962441e-12
2.188473e-09
2.6279353e-12
2.1885255e-09
-2.5677201e-12
2.1884736e-09
2.5242946e-12
2.1885231e-09
-2.4731041e-12
2.1884758e-09
2.3925047e-12
2.1885488e-09
-2.844405e-12
2.1765098e-12
2.2078905e-09
1.9537403e-08
2.3025146e-09
-1.140468e-09
2.2993868e-09
4.686273e-10
2.3008655e-09
-9.6028021e-12
2.3016547e-09
7.5145327e-13
2.303252e-09
5.4467725e-12
2.3033886e-09
-1.6194373e-11
2.3034599e-09
1.4269102e-11
2.3036759e-09
-1.5863024e-11
2.3034773e-09
1.492733e-11
2.3036642e-09
-1.4080439e-11
2.3034781e-09
1.3356879e-11
2.3036475e-09
-1.2520587e-11
2.3034848e-09
1.1819061e-11
2.3036366e-09
-1.1115061e-11
2.303493e-09
1.0473278e-11
2.3036281e-09
-9.8658866e-12
2.3035008e-09
9.2940829e-12
2.303621e-09
-8.7629128e-12
2.3035079e-09
8.258421e-12
2.3036148e-09
-7.7921055e-12
2.3035141e-09
7.3488075e-12
2.3036094e-09
-6.9394247e-12
2.3035196e-09
6.5508746e-12
2.3036046e-09
-6.1920468e-12
2.3035243e-09
5.852316e-12
2.3036004e-09
-5.5386062e-12
2.3035284e-09
5.242446e-12
2.3035967e-09
-4.9691374e-12
2.303532e-09
4.711961e-12
2.3035936e-09
-4.4749481e-12
2.3035351e-09
4.2527728e-12
2.3035908e-09
-4.0484907e-12
2.3035378e-09
3.8578748e-12
2.3035885e-09
-3.6832419e-12
2.30354e-09
3.5212285e-12
2.3035865e-09
-3.3735973e-12
2.3035419e-09
3.2376613e-12
2.3035848e-09
-3.1147722e-12
2.3035435e-09
3.0027669e-12
2.3035835e-09
-2.9027052e-12
2.3035447e-09
2.8127591e-12
2.3035824e-09
-2.7339172e-12
2.3035457e-09
2.6645888e-12
2.3035814e-09
-2.6034239e-12
2.3035461e-09
2.5596558e-12
2.3035794e-09
-2.5064614e-12
2.3035476e-09
2.4243071e-12
2.3036016e-09
-2.8983151e-12
2.1909913e-12
2.3225062e-09
1.9672647e-08
2.4063484e-09
-1.2243103e-09
2.4094037e-09
4.65572e-10
2.4111482e-09
-1.1347223e-11
2.4120517e-09
-1.5208945e-13
2.4138072e-09
3.6912477e-12
2.4137973e-09
-1.6184429e-11
2.4139795e-09
1.4086889e-11
2.4140924e-09
-1.597587e-11
2.413986e-09
1.5033658e-11
2.4140837e-09
-1.4178073e-11
2.4139808e-09
1.3459781e-11
2.4140714e-09
-1.2611245e-11
2.4139827e-09
1.190783e-11
2.4140646e-09
-1.1197053e-11
2.4139867e-09
1.0551226e-11
2.41406e-09
-9.9391422e-12
2.4139909e-09
9.3631032e-12
2.4140562e-09
-8.8281309e-12
2.4139948e-09
8.3197499e-12
2.4140529e-09
-7.8501578e-12
2.4139983e-09
7.4034163e-12
2.41405e-09
-6.9911592e-12
2.4140013e-09
6.5995956e-12
2.4140475e-09
-6.2382393e-12
2.4140039e-09
5.8958842e-12
2.4140453e-09
-5.5799547e-12
2.4140062e-09
5.2815169e-12
2.4140433e-09
-5.0062674e-12
2.4140081e-09
4.7471218e-12
2.4140416e-09
-4.5084208e-12
2.4140098e-09
4.2845509e-12
2.4140402e-09
-4.0788105e-12
2.4140113e-09
3.8867457e-12
2.4140389e-09
-3.7108636e-12
2.4140125e-09
3.5476216e-12
2.4140379e-09
-3.398932e-12
2.4140136e-09
3.2619655e-12
2.414037e-09
-3.1381916e-12
2.4140144e-09
3.0253334e-12
2.4140362e-09
-2.9245434e-12
2.4140151e-09
2.8338978e-12
2.4140357e-09
-2.7544705e-12
2.4140157e-09
2.6845587e-12
2.4140351e-09
-2.6228356e-12
2.4140158e-09
2.5789976e-12
2.4140334e-09
-2.5241409e-12
2.4140167e-09
2.4410337e-12
2.4140518e-09
-2.9334479e-12
2.1915388e-12
2.426244e-09
1.9704153e-08
2.5044664e-09
-1.3025326e-09
2.5149563e-09
4.550821e-10
2.5170243e-09
-1.341526e-11
2.5178763e-09
-1.0040947e-12
2.5197782e-09
1.7893661e-12
2.5196099e-09
-1.6016164e-11
2.5198966e-09
1.380021e-11
2.5199082e-09
-1.5987487e-11
2.5198909e-09
1.5050974e-11
2.519902e-09
-1.4189145e-11
2.5198797e-09
1.3482124e-11
2.519894e-09
-1.2625564e-11
2.5198769e-09
1.1924942e-11
2.5198913e-09
-1.1211445e-11
2.5198769e-09
1.0565584e-11
2.5198902e-09
-9.9524331e-12
2.5198776e-09
9.3756677e-12
2.5198896e-09
-8.8400967e-12
2.5198784e-09
8.3309061e-12
2.5198891e-09
-7.8608594e-12
2.5198792e-09
7.4133764e-12
2.5198887e-09
-7.0007257e-12
2.5198798e-09
6.6085155e-12
2.5198884e-09
-6.2468065e-12
2.5198804e-09
5.9038961e-12
2.5198881e-09
-5.5876498e-12
2.5198808e-09
5.2887379e-12
2.5198878e-09
-5.0132059e-12
2.5198813e-09
4.753657e-12
2.5198875e-09
-4.5147064e-12
2.5198816e-09
4.2904949e-12
2.5198873e-09
-4.0845363e-12
2.5198819e-09
3.8921833e-12
2.5198871e-09
-3.7161125e-12
2.5198821e-09
3.5526285e-12
2.519887e-09
-3.4037775e-12
2.5198823e-09
3.2666085e-12
2.5198868e-09
-3.1426969e-12
2.5198825e-09
3.0296685e-12
2.5198867e-09
-2.9287591e-12
2.5198826e-09
2.8379633e-12
2.5198866e-09
-2.7584312e-12
2.5198828e-09
2.6883601e-12
2.5198864e-09
-2.6264596e-12
2.5198826e-09
2.5828104e-12
2.5198851e-09
-2.5266513e-12
2.519883e-09
2.4431704e-12
2.5198997e-09
-2.9501525e-12
2.1789642e-12
2.5340153e-09
1.9627887e-08
2.60022e-09
-1.3687373e-09
2.6161094e-09
4.3919279e-10
2.6184347e-09
-1.5740626e-11
2.6191278e-09
-1.697211e-12
2.6211618e-09
-2.445747e-13
2.620826e-09
-1.568043e-11
2.6212103e-09
1.3415935e-11
2.6211231e-09
-1.5900254e-11
2.6211915e-09
1.4982532e-11
2.6211191e-09
-1.4116695e-11
2.6211746e-09
1.342663e-11
2.6211152e-09
-1.2566203e-11
2.6211673e-09
1.1872853e-11
2.6211164e-09
-1.116057e-11
2.6211635e-09
1.0518543e-11
2.6211189e-09
-9.9078241e-12
2.6211608e-09
9.3337228e-12
2.6211214e-09
-8.8006423e-12
2.6211586e-09
8.2936192e-12
2.6211236e-09
-7.8258387e-12
2.6211568e-09
7.3802259e-12
2.6211256e-09
-6.9695736e-12
2.6211551e-09
6.5790045e-12
2.6211274e-09
-6.2190408e-12
2.6211537e-09
5.8775746e-12
2.6211289e-09
-5.5628467e-12
2.6211524e-09
5.2652032e-12
2.6211302e-09
-4.9909882e-12
2.6211513e-09
4.7325488e-12
2.6211313e-09
-4.4947362e-12
2.6211503e-09
4.2714896e-12
2.6211323e-09
-4.0665091e-12
2.6211495e-09
3.8749889e-12
2.6211331e-09
-3.6997524e-12
2.6211488e-09
3.5369794e-12
2.6211339e-09
-3.3888319e-12
2.6211482e-09
3.2522603e-12
2.6211344e-09
-3.1289314e-12
2.6211477e-09
3.0163923e-12
2.6211349e-09
-2.9159508e-12
2.6211473e-09
2.8255355e-12
2.6211353e-09
-2.7463625e-12
2.6211471e-09
2.6765427e-12
2.6211355e-09
-2.6148339e-12
2.6211466e-09
2.5716179e-12
2.6211345e-09
-2.5145308e-12
2.6211465e-09
2.4312303e-12
2.6211452e-09
-2.9488542e-12
2.1540788e-12
2.6341723e-09
1.9451465e-08
2.6908058e-09
-1.4253708e-09
2.7127899e-09
4.1720868e-10
2.7152562e-09
-1.8206925e-11
2.7158129e-09
-2.2539202e-12
2.7179517e-09
-2.3833173e-12
2.7174446e-09
-1.5173352e-11
2.7179197e-09
1.2940802e-11
2.7177365e-09
-1.5717039e-11
2.7178875e-09
1.483155e-11
2.7177348e-09
-1.3964045e-11
2.7178654e-09
1.3296107e-11
2.7177352e-09
-1.2436005e-11
2.7178539e-09
1.1754131e-11
2.7177402e-09
-1.1046904e-11
2.7178464e-09
1.0412406e-11
2.717746e-09
-9.8074966e-12
2.7178404e-09
9.2393195e-12
2.7177515e-09
-8.711701e-12
2.7178354e-09
8.2097126e-12
2.7177564e-09
-7.7468137e-12
2.717831e-09
7.305587e-12
2.7177607e-09
-6.899232e-12
2.7178272e-09
6.5125076e-12
2.7177644e-09
-6.156306e-12
2.7178238e-09
5.8182097e-12
2.7177677e-09
-5.5067642e-12
2.7178209e-09
5.2120673e-12
2.7177706e-09
-4.9407067e-12
2.7178183e-09
4.6848336e-12
2.717773e-09
-4.4494926e-12
2.7178161e-09
4.2284692e-12
2.7177752e-09
-4.0256168e-12
2.7178142e-09
3.8360086e-12
2.717777e-09
-3.6625898e-12
2.7178125e-09
3.5014449e-12
2.7177785e-09
-3.3548327e-12
2.7178112e-09
3.2196281e-12
2.7177798e-09
-3.0975747e-12
2.71781e-09
2.9861595e-12
2.7177808e-09
-2.8867506e-12
2.7178091e-09
2.7972266e-12
2.7177816e-09
-2.7188589e-12
2.7178085e-09
2.6496867e-12
2.7177822e-09
-2.5885258e-12
2.7178078e-09
2.5459737e-12
2.7177816e-09
-2.4883434e-12
2.7178071e-09
2.4057509e-12
2.7177883e-09
-2.9300466e-12
2.1176854e-12
2.7348827e-09
1.9174332e-08
2.7792956e-09
-1.4697837e-09
2.8050807e-09
3.9142357e-10
2.8074635e-09
-2.0589727e-11
2.8079444e-09
-2.7348404e-12
2.8101427e-09
-4.581583e-12
2.8094662e-09
-1.4496889e-11
2.8100252e-09
1.2381793e-11
2.8097487e-09
-1.5440574e-11
2.8099788e-09
1.4601473e-11
2.8097494e-09
-1.3734613e-11
2.809952e-09
1.3093514e-11
2.8097539e-09
-1.2237923e-11
2.8099366e-09
1.1571468e-11
2.8097627e-09
-1.0873028e-11
2.8099255e-09
1.0249581e-11
2.8097717e-09
-9.6537304e-12
2.8099165e-09
9.0946014e-12
2.8097801e-09
-8.5752944e-12
2.8099087e-09
8.0810921e-12
2.8097874e-09
-7.6255805e-12
2.8099019e-09
7.1911552e-12
2.8097939e-09
-6.7912998e-12
2.8098959e-09
6.4105356e-12
2.8097996e-09
-6.0600277e-12
2.8098907e-09
5.7271499e-12
2.8098046e-09
-5.4206768e-12
2.8098861e-09
5.130537e-12
2.8098089e-09
-4.8635038e-12
2.8098822e-09
4.6115949e-12
2.8098127e-09
-4.3800036e-12
2.8098787e-09
4.1624105e-12
2.8098159e-09
-3.9627879e-12
2.8098758e-09
3.7761271e-12
2.8098187e-09
-3.6054681e-12
2.8098733e-09
3.4468313e-12
2.809821e-09
-3.3025511e-12
2.8098712e-09
3.1694519e-12
2.8098229e-09