/*--------------------------------*- C++ -*----------------------------------*\
| =========                 |                                                 |
| \\      /  F ield         | OpenFOAM: The Open Source CFD Toolbox           |
|  \\    /   O peration     | Version:  2312                                  |
|   \\  /    A nd           | Website:  www.openfoam.com                      |
|    \\/     M anipulation  |                                                 |
\*---------------------------------------------------------------------------*/
FoamFile
{
    version     2.0;
    format      ascii;
    arch        "LSB;label=32;scalar=64";
    class       volScalarField;
    location    "5";
    object      T;
}
// * * * * * * * * * * * * * * * * * * * * * * * * * * * * * * * * * * * * * //

dimensions      [0 0 0 1 0 0 0];

internalField   nonuniform List<scalar> 
4000
(
309.8657
311.05342
311.21382
311.29508
311.35092
311.40529
311.44607
311.49128
311.52662
311.56726
311.59989
311.63778
311.66884
311.7049
311.73496
311.76971
311.7991
311.83287
311.86179
311.8948
311.92337
311.95578
311.98408
312.01601
312.04409
312.07563
312.10353
312.13476
312.1625
312.19347
312.22107
312.25183
312.2793
312.30988
312.33724
312.36768
312.39492
312.42526
312.45238
312.48264
312.50964
312.53985
312.56672
312.59691
312.62363
312.65386
312.68037
312.71073
312.73686
312.76798
307.74725
309.89987
310.32104
310.50939
310.62162
310.72939
310.79656
310.87688
310.92772
310.99438
311.03708
311.0955
311.13349
311.1864
311.2214
311.27039
311.30338
311.34943
311.38099
311.42478
311.45528
311.49729
311.52697
311.56754
311.59657
311.63597
311.66446
311.70291
311.73093
311.7686
311.79621
311.83324
311.86046
311.89697
311.92384
311.95994
311.98645
312.02222
312.04839
312.08393
312.10973
312.14512
312.17053
312.20588
312.23082
312.26627
312.29061
312.32647
312.34965
312.38769
306.35396
308.7754
309.43401
309.72687
309.89479
310.05525
310.14875
310.26379
310.33017
310.42259
310.47544
310.55418
310.59917
310.66878
310.7088
310.7719
310.80855
310.86678
310.90104
310.95553
310.98801
311.03953
311.07065
311.11979
311.14981
311.19702
311.22613
311.27176
311.30008
311.34442
311.37205
311.41532
311.44232
311.48473
311.51112
311.55285
311.57866
311.61984
311.64507
311.68586
311.71048
311.75104
311.77499
311.81548
311.83867
311.87933
311.9015
311.94282
311.9631
312.0078
305.38395
307.70827
308.5618
308.95237
309.17387
309.38535
309.50479
309.65371
309.73558
309.8532
309.91624
310.0149
310.06699
310.15299
310.1981
310.27507
310.31547
310.38568
310.42273
310.48773
310.52228
310.58316
310.61579
310.67337
310.70445
310.75935
310.78915
310.84186
310.87055
310.92146
310.94917
310.99861
311.02542
311.07366
311.09963
311.14692
311.17206
311.2186
311.24292
311.28893
311.31239
311.35806
311.38061
311.42618
311.44765
311.49346
311.51352
311.56025
311.5777
311.62869
304.67995
306.72362
307.71628
308.19264
308.46362
308.72315
308.86761
309.04896
309.14606
309.28796
309.36116
309.4791
309.53831
309.64021
309.69051
309.78095
309.82519
309.90706
309.94698
310.02224
310.05894
310.12898
310.16319
310.22903
310.26124
310.32368
310.35422
310.41387
310.44299
310.50035
310.5282
310.5837
310.61038
310.66435
310.68994
310.7427
310.76723
310.81905
310.84251
310.89364
310.91601
310.96672
310.9879
311.03848
311.05829
311.10917
311.12718
311.1792
311.19399
311.25079
304.15373
305.84068
306.91059
307.45582
307.76981
308.07297
308.24077
308.45244
308.56417
308.72906
308.81219
308.94851
309.01479
309.13192
309.18741
309.2908
309.33893
309.43204
309.47491
309.56007
309.599
309.67789
309.71376
309.78761
309.82102
309.89077
309.92214
309.98854
310.01815
310.0818
310.10984
310.17125
310.19786
310.25744
310.2827
310.34082
310.36478
310.42176
310.44442
310.50058
310.52189
310.57754
310.59741
310.65291
310.67112
310.72696
310.74301
310.80018
310.81249
310.87461
303.75149
305.07056
306.15749
306.75081
307.09896
307.43975
307.62836
307.8675
307.99287
308.17902
308.27163
308.42513
308.4983
308.62978
308.6904
308.80606
308.85808
308.96188
309.00772
309.10234
309.14355
309.23091
309.26851
309.35004
309.38472
309.46151
309.49376
309.56667
309.59683
309.66656
309.69486
309.76198
309.78859
309.85359
309.8786
309.94191
309.96537
310.02737
310.04929
310.11033
310.13067
310.19112
310.20975
310.27003
310.28672
310.34738
310.36158
310.4237
310.43378
310.50071
303.43914
304.41752
305.46791
306.08646
306.45788
306.82886
307.03483
307.29786
307.43538
307.64062
307.74201
307.91123
307.99092
308.13566
308.20123
308.32832
308.38416
308.49798
308.54677
308.6503
308.69379
308.78918
308.82852
308.91735
308.95333
309.03683
309.07001
309.14914
309.17991
309.25546
309.28407
309.35668
309.38333
309.45356
309.47836
309.54668
309.5697
309.63653
309.65778
309.72354
309.74296
309.80805
309.82553
309.89042
309.90569
309.97098
309.98347
310.05029
310.05842
310.12966
303.19303
303.87846
304.84989
305.47079
305.85322
306.24575
306.46478
306.74741
306.89513
307.11686
307.22603
307.40919
307.49485
307.65156
307.72177
307.85931
307.91878
308.04183
308.09348
308.20529
308.25101
308.35389
308.39496
308.49064
308.52794
308.61775
308.65188
308.7369
308.76829
308.84936
308.87833
308.95616
308.9829
309.05811
309.08275
309.15586
309.17849
309.24996
309.27059
309.34087
309.35945
309.42899
309.4454
309.51469
309.52865
309.59835
309.60929
309.68052
309.687
309.76206
302.99684
303.44547
304.30797
304.91025
305.29097
305.69563
305.9227
306.22006
306.37558
306.61082
306.72646
306.92152
307.01239
307.17959
307.25398
307.40082
307.46364
307.59504
307.64937
307.76871
307.81656
307.92632
307.96906
308.07107
308.10964
308.20533
308.2404
308.33091
308.36295
308.4492
308.47852
308.56128
308.58813
308.66805
308.69257
308.77021
308.7925
308.86836
308.88843
308.963
308.98082
309.05458
309.07
309.14347
309.15624
309.23009
309.23966
309.31495
309.32008
309.39854
302.83831
303.10642
303.84301
304.40921
304.77603
305.18315
305.41278
305.71957
305.88009
306.12551
306.24604
306.45073
306.54586
306.72188
306.79985
306.95472
307.02049
307.15921
307.21595
307.34201
307.39182
307.50776
307.55206
307.65982
307.6996
307.80066
307.83663
307.9322
307.96485
308.05589
308.08559
308.17291
308.1999
308.2842
308.30864
308.39051
308.4125
308.49248
308.51205
308.59065
308.60777
308.68549
308.70003
308.7774
308.78911
308.86682
308.87519
308.9542
308.95827
309.03972
302.70849
302.84735
303.45257
303.96967
304.31185
304.71208
304.93862
305.24933
305.41176
305.66382
305.78742
305.99927
306.09752
306.28054
306.36133
306.52284
306.59106
306.73599
306.7948
306.92666
306.97817
307.09956
307.14523
307.2581
307.29897
307.40486
307.44164
307.54179
307.575
307.67041
307.70044
307.79196
307.81907
307.90741
307.93176
308.01755
308.03927
308.12307
308.14219
308.22453
308.24101
308.3224
308.33614
308.41714
308.4279
308.50915
308.51651
308.59886
308.60212
308.6862
302.60054
302.6534
303.13139
303.59123
303.9002
304.2851
304.50307
304.8122
304.97332
305.22835
305.35301
305.56943
305.66949
305.85759
305.94032
306.10696
306.17702
306.32697
306.3874
306.5241
306.57701
306.70302
306.74984
306.86713
306.90891
307.01903
307.0565
307.1607
307.1944
307.29372
307.32403
307.41932
307.44652
307.53852
307.56279
307.65214
307.67361
307.76089
307.77959
307.86534
307.88126
307.966
307.97904
308.06332
308.07328
308.15771
308.16424
308.24955
308.25223
308.33861
302.50938
302.51038
302.87222
303.27134
303.54113
303.9036
304.10803
304.41038
304.56696
304.8213
304.94493
305.16326
305.26372
305.45488
305.53857
305.70879
305.77997
305.93369
305.99523
306.13574
306.18964
306.31942
306.3671
306.48808
306.53055
306.64427
306.68226
306.78997
306.82403
306.92675
306.95726
307.05588
307.08312
307.17837
307.20253
307.29507
307.31628
307.40669
307.42499
307.51381
307.52921
307.61697
307.62938
307.71661
307.72588
307.81314
307.819
307.90687
307.90917
307.99754
302.43115
302.40548
302.66661
303.00562
303.23302
303.56768
303.75438
304.04526
304.19425
304.4444
304.56489
304.7825
304.88187
305.07408
305.15766
305.32985
305.40137
305.55756
305.61963
305.76286
305.81733
305.94997
305.99817
306.12206
306.16497
306.28162
306.31995
306.43056
306.46483
306.57044
306.60105
306.70251
306.72972
306.82778
306.85179
306.9471
306.96805
307.06119
307.07912
307.17064
307.18557
307.27597
307.28784
307.37764
307.38633
307.47603
307.48139
307.57143
307.57349
307.66357
302.363
302.32792
302.50575
302.78842
302.97286
303.27615
303.44194
303.71739
303.85608
304.09882
304.21413
304.42849
304.52529
304.71655
304.79892
304.97148
305.04251
305.19986
305.26182
305.40669
305.46123
305.5958
305.64414
305.77015
305.8132
305.93207
305.9705
306.08341
306.11772
306.22566
306.25623
306.36003
306.38712
306.48753
306.51134
306.60899
306.62964
306.72512
306.74268
306.8365
306.85099
306.94366
306.95505
307.04704
307.05525
307.14701
307.15199
307.24382
307.24575
307.33726
302.30284
302.26912
302.38105
302.61336
302.75649
303.02671
303.16956
303.42648
303.55262
303.7851
303.89339
304.10217
304.19495
304.38335
304.4634
304.63477
304.70446
304.86166
304.92284
305.06825
305.12235
305.25791
305.30598
305.43329
305.47616
305.59654
305.63482
305.74938
305.78353
305.89323
305.9236
306.02924
306.05609
306.15838
306.1819
306.28145
306.30176
306.39914
306.41632
306.51204
306.52612
306.62065
306.63161
306.72539
306.73322
306.82663
306.83134
306.9246
306.92647
307.01915
302.24912
302.22263
302.28466
302.47379
302.57903
302.81615
302.93517
303.17143
303.28331
303.50321
303.60287
303.80398
303.89143
304.0752
304.15187
304.32054
304.38804
304.54384
304.60357
304.74844
304.80154
304.93716
304.98453
305.11232
305.15466
305.27583
305.31367
305.42926
305.46302
305.5739
305.60391
305.71084
305.73733
305.84099
305.86414
305.96513
305.98505
306.0839
306.10068
306.19787
306.21154
306.30752
306.31811
306.41328
306.42078
306.51546
306.51998
306.6143
306.61617
306.70973
302.20074
302.18391
302.20982
302.3633
302.43522
302.64062
302.73601
302.95042
303.04696
303.25249
303.34225
303.53393
303.61487
303.79243
303.86473
304.02934
304.09384
304.24703
304.30464
304.44793
304.49949
304.63427
304.68048
304.80796
304.84939
304.97065
305.00776
305.12372
305.15686
305.26833
305.29779
305.40548
305.43147
305.53601
305.55868
305.66063
305.6801
305.77997
305.79632
305.89455
305.90782
306.00483
306.01507
306.11122
306.11846
306.21401
306.2184
306.31343
306.31532
306.4095
302.15687
302.14996
302.15093
302.27599
302.31975
302.49589
302.56876
302.76105
302.84179
303.03176
303.1107
303.29155
303.36503
303.53503
303.60208
303.7614
303.82213
303.97162
304.02646
304.16721
304.21669
304.34975
304.39436
304.52076
304.56092
304.68156
304.71764
304.83334
304.86562
304.9771
305.00581
305.11372
305.13905
305.24397
305.26605
305.36849
305.38743
305.48787
305.50374
305.60259
305.61544
305.71307
305.72297
305.81969
305.8267
305.92274
305.92704
306.02244
306.02437
306.11886
302.11691
302.11896
302.10358
302.20669
302.2276
302.37762
302.42982
302.60052
302.66559
302.83937
302.90696
303.07596
303.14125
303.30258
303.36367
303.51662
303.57292
303.71773
303.76923
303.90652
303.95342
304.08396
304.12654
304.25111
304.28965
304.409
304.44374
304.55856
304.58973
304.70065
304.72842
304.83602
304.86054
304.96533
304.98671
305.08918
305.1075
305.20806
305.2234
305.32242
305.33484
305.43267
305.44223
305.53913
305.54593
305.64209
305.64631
305.74174
305.7437
305.83823
302.08041
302.08994
302.06447
302.1511
302.15418
302.28159
302.31548
302.46575
302.51577
302.67329
302.72938
302.8859
302.94254
303.09438
303.14893
303.29465
303.34596
303.48523
303.53287
303.66591
303.70977
303.83704
303.8772
303.99925
304.03582
304.15324
304.18636
304.29971
304.32952
304.43934
304.46596
304.57274
304.59628
304.70048
304.72102
304.82305
304.84067
304.9409
304.95566
305.05444
305.06639
305.16401
305.17322
305.26991
305.2765
305.37241
305.37656
305.4717
305.47367
305.56795
302.047
302.06244
302.0312
302.10575
302.0955
302.20387
302.22206
302.35355
302.3896
302.53124
302.57601
302.71981
302.76758
302.90937
302.95702
303.09482
303.14072
303.27375
303.3171
303.44519
303.48562
303.60896
303.64632
303.76524
303.79952
303.91443
303.94565
304.05698
304.0852
304.1934
304.21868
304.32414
304.34655
304.44967
304.46926
304.5704
304.58722
304.68671
304.70081
304.79894
304.81038
304.90739
304.91624
305.01234
305.01871
305.11401
305.11807
305.21261
305.21457
305.30831
302.01641
302.03629
302.00213
302.06798
302.04823
302.14095
302.14613
302.26079
302.28422
302.41077
302.44473
302.57589
302.61483
302.74629
302.78682
302.91626
302.95644
303.08268
303.12141
303.24398
303.28064
303.39947
303.43375
303.54896
303.58068
303.69253
303.72161
303.83042
303.85684
303.96292
303.98668
304.09036
304.11149
304.21309
304.23161
304.33144
304.34736
304.44569
304.45907
304.55615
304.56703
304.66306
304.67151
304.76666
304.77278
304.86715
304.8711
304.96473
304.96666
305.05956
301.98837
302.01153
301.9762
302.03579
302.00965
302.08977
302.08455
302.18447
302.19684
302.30937
302.33328
302.45218
302.48254
302.60365
302.63705
302.75785
302.79215
302.91121
302.94509
303.06169
303.09434
303.20819
303.23911
303.35016
303.37907
303.4874
303.51412
303.61994
303.64437
303.74788
303.76996
303.87143
303.89114
303.99081
304.00813
304.10624
304.12119
304.21797
304.23056
304.32621
304.33648
304.43117
304.43918
304.53304
304.53889
304.632
304.63582
304.72824
304.73012
304.82188
301.96267
301.98819
301.95272
302.00778
301.97766
302.04782
302.03459
302.12185
302.12481
302.22459
302.23938
302.34664
302.36887
302.47981
302.50623
302.61832
302.64671
302.75836
302.78727
302.89758
302.92604
303.03454
303.06193
303.1684
303.19432
303.29873
303.32291
303.42533
303.4476
303.54816
303.56841
303.66727
303.68544
303.78279
303.79882
303.89484
303.90872
304.00359
304.01532
304.10919
304.1188
304.21181
304.21935
304.31159
304.31713
304.40868
304.41233
304.50325
304.50507
304.59541
301.93913
301.96633
301.93128
301.98295
301.95067
302.01304
301.99389
302.07049
302.06567
302.15407
302.16081
302.25722
302.27193
302.37307
302.39281
302.49627
302.51886
302.62302
302.64693
302.75075
302.77493
302.87781
302.90154
303.00313
303.02592
303.12607
303.14758
303.24625
303.26624
303.36349
303.38179
303.4777
303.49422
303.5889
303.60355
303.69714
303.70988
303.8025
303.81332
303.90508
303.91398
304.00499
304.01201
304.10234
304.10754
304.19725
304.20069
304.28985
304.29157
304.38023
301.91759
301.94599
301.91165
301.96067
301.92749
301.98382
301.96051
302.02827
302.01723
302.09564
302.09543
302.18191
302.18982
302.28169
302.29516
302.39024
302.40723
302.50394
302.52294
302.62018
302.64009
302.73717
302.7572
302.85367
302.87326
302.96887
302.98762
303.08226
303.09988
303.19351
303.20978
303.30242
303.31721
303.40892
303.42211
303.51296
303.5245
303.61457
303.62441
303.71378
303.72192
303.81065
303.81711
303.90525
303.91006
303.99767
304.00088
304.08801
304.08962
304.17634
301.8979
301.92717
301.89369
301.94051
301.90731
301.95893
301.93291
301.99341
301.97755
302.04733
302.04129
302.11883
302.12071
302.20395
302.21165
302.29872
302.31042
302.39984
302.41409
302.50478
302.52049
302.61169
302.62803
302.71924
302.7356
302.82649
302.84243
302.93281
302.94799
303.03777
303.05194
303.14107
303.15406
303.24253
303.25421
303.34205
303.35233
303.43959
303.44841
303.53511
303.54246
303.62865
303.63451
303.72021
303.72461
303.80987
303.81282
303.89769
303.89917
303.98371
301.87994
301.90985
301.87731
301.92221
301.88954
301.93746
301.90985
301.96443
301.94499
302.00741
301.99661
302.06619
302.06286
302.13817
302.14069
302.2202
302.22699
302.30939
302.31914
302.40339
302.41503
302.50037
302.51309
302.59897
302.61213
302.69818
302.7113
302.79727
302.80999
302.89572
302.90776
302.99316
303.00432
303.08934
303.09946
303.18408
303.19306
303.27727
303.28503
303.36885
303.37535
303.45878
303.46401
303.54706
303.55101
303.6337
303.63636
303.71876
303.7201
303.80223
301.8636
301.89401
301.86247
301.9056
301.87381
301.91875
301.89039
301.94017
301.9182
301.97439
301.95982
302.02241
302.01468
302.0828
302.08074
302.15322
302.15555
302.23126
302.23681
302.31482
302.3226
302.40216
302.41138
302.49195
302.50198
302.58313
302.59347
302.67492
302.6852
302.76675
302.77666
302.85817
302.86749
302.94887
302.95742
303.03862
303.04628
303.12725
303.13394
303.21466
303.22031
303.30077
303.30535
303.38554
303.38902
303.46896
303.47132
303.55104
303.55223
303.63176
301.84881
301.8796
301.84911
301.89059
301.85984
301.90231
301.87382
301.91968
301.89606
301.94701
301.92955
301.98607
301.97471
302.03638
302.03037
302.09637
302.09471
302.16414
302.16584
302.23787
302.24205
302.31599
302.32189
302.3972
302.40422
302.48048
302.48812
302.56501
302.57289
302.65018
302.65798
302.73549
302.74298
302.82059
302.82758
302.90521
302.91155
302.98913
302.99472
303.07219
303.07696
303.15431
303.1582
303.23539
303.23837
303.31539
303.31742
303.3943
303.39533
303.47208
301.83551
301.8666
301.83721
301.87709
301.84747
301.88783
301.85962
301.90225
301.87766
301.92422
301.90464
301.95591
301.94165
301.99759
301.98824
302.04834
302.0432
302.10677
302.10501
302.17137
302.17224
302.24076
302.24357
302.31375
302.31792
302.38934
302.3944
302.46673
302.47229
302.54528
302.55103
302.62448
302.63017
302.70393
302.70936
302.78332
302.78834
302.86241
302.86691
302.94102
302.9449
303.01899
303.0222
303.09623
303.09872
303.17267
303.17438
303.24827
303.24914
303.32296
301.82368
301.85499
301.82672
301.86505
301.83658
301.87506
301.84741
301.88733
301.8623
301.90517
301.88413
301.93089
301.91437
301.96525
301.95317
302.00793
301.99979
302.05797
302.05316
302.11419
302.11206
302.17542
302.17538
302.2406
302.24212
302.3088
302.31142
302.37925
302.3826
302.4513
302.45507
302.52444
302.52839
302.59825
302.60217
302.67239
302.67612
302.7466
302.75002
302.82066
302.82367
302.8944
302.89693
302.9677
302.96968
303.04046
303.04183
303.11261
303.11331
303.18408
301.81334
301.84476
301.81762
301.85444
301.82707
301.86382
301.8369
301.8745
301.84942
301.88918
301.86721
301.91009
301.89191
301.93835
301.92406
301.97405
301.9634
302.01664
302.00918
302.06525
302.06047
302.11895
302.11633
302.1768
302.17587
302.23797
302.23832
302.30173
302.303
302.36746
302.36937
302.43466
302.43694
302.5029
302.50536
302.57181
302.57429
302.64113
302.6435
302.71061
302.71276
302.78007
302.78192
302.84936
302.85083
302.91836
302.91939
302.98698
302.98751
303.05513
301.80452
301.83591
301.80987
301.84518
301.81887
301.85399
301.82787
301.86344
301.8386
301.87569
301.85323
301.89278
301.87342
301.91598
301.89999
301.94571
301.93301
301.98176
301.97206
302.02355
302.01645
302.07035
302.06544
302.12139
302.11825
302.17594
302.17421
302.23333
302.23268
302.29299
302.29314
302.35442
302.35513
302.41719
302.41827
302.48096
302.48224
302.54542
302.54678
302.61034
302.61165
302.6755
302.67668
302.74074
302.74172
302.80593
302.80663
302.87096
302.87133
302.93573
301.7973
301.82844
301.80342
301.83723
301.8119
301.84545
301.82018
301.85391
301.8295
301.86428
301.84166
301.87833
301.85821
301.89738
301.88013
301.92206
301.90773
301.95242
301.94086
301.98815
301.97907
302.0287
302.02179
302.07348
302.06838
302.12185
302.11824
302.17323
302.17082
302.2271
302.22563
302.28297
302.28222
302.34046
302.34023
302.39919
302.39934
302.45888
302.45927
302.51928
302.51979
302.58017
302.58071
302.64137
302.64186
302.70273
302.70311
302.76414
302.76435
302.82549
301.79171
301.82231
301.79822
301.83051
301.80609
301.8381
301.81368
301.84572
301.82187
301.8546
301.83208
301.86625
301.84571
301.88191
301.86378
301.90235
301.88678
301.92782
301.91476
301.9582
301.94747
301.99315
301.98452
302.03221
302.02539
302.07488
302.0696
302.12064
302.11665
302.16903
302.16609
302.21961
302.21751
302.272
302.27057
302.32586
302.32495
302.38089
302.38037
302.43686
302.43661
302.49353
302.49347
302.55072
302.55076
302.60828
302.60836
302.66607
302.66613
302.72398
301.78777
301.81747
301.79417
301.82494
301.80135
301.83185
301.80825
301.8387
301.81549
301.84638
301.82415
301.85611
301.83544
301.86903
301.85035
301.88593
301.86946
301.90722
301.89299
301.93293
301.92087
301.96291
301.95283
301.99681
301.98851
302.03424
302.0275
302.07479
302.06939
302.11804
302.11378
302.16361
302.1603
302.21114
302.20861
302.26031
302.25843
302.31085
302.30949
302.3625
302.36155
302.41504
302.41441
302.46829
302.46791
302.52209
302.52188
302.57629
302.57621
302.63078
301.78536
301.81382
301.79119
301.82042
301.79759
301.82661
301.80379
301.83273
301.8102
301.83941
301.81761
301.8476
301.82701
301.85829
301.83933
301.87226
301.85518
301.89
301.87491
301.91167
301.89856
301.93725
301.926
301.96652
301.957
301.9992
301.99122
302.03495
302.02834
302.07343
302.068
302.11429
302.1099
302.15722
302.15371
302.20193
302.19916
302.24814
302.24601
302.29562
302.29402
302.34415
302.343
302.39355
302.39277
302.44366
302.44318
302.49433
302.4941
302.54543
301.78427
301.81122
301.78915
301.81682
301.7947
301.82225
301.80019
301.82768
301.80585
301.83351
301.81223
301.84045
301.82011
301.84932
301.8303
301.86087
301.84344
301.87561
301.85992
301.89381
301.87991
301.91554
301.90337
301.9407
301.93016
301.96909
301.96006
302.00045
301.9928
302.03452
302.02809
302.071
302.06565
302.10961
302.10522
302.15008
302.14653
302.19216
302.18934
302.23564
302.23346
302.28031
302.27868
302.32598
302.32483
302.37249
302.37176
302.41969
302.41935
302.46747
301.7842
301.80948
301.7879
301.81404
301.79258
301.8187
301.79736
301.82345
301.80233
301.82853
301.80782
301.83442
301.81446
301.84182
301.82291
301.85137
301.8338
301.8636
301.84754
301.87883
301.86436
301.89721
301.88434
301.91872
301.9074
301.94327
301.9334
301.97066
301.96215
302.00069
301.99341
302.03311
302.02695
302.06768
302.06253
302.10417
302.09993
302.14235
302.13892
302.18202
302.17931
302.22297
302.22092
302.26505
302.26357
302.30807
302.30713
302.35192
302.35146
302.39645
301.78481
301.80841
301.78729
301.81194
301.79111
301.81584
301.7952
301.81994
301.79952
301.82433
301.80425
301.82935
301.80985
301.83553
301.81689
301.84343
301.8259
301.85356
301.83733
301.86626
301.85144
301.88174
301.86838
301.90006
301.88814
301.92119
301.91066
301.945
301.93579
301.97135
301.96337
302.00004
301.99319
302.03087
302.02507
302.06363
302.0588
302.09814
302.09418
302.13419
302.13103
302.17162
302.16918
302.21025
302.20848
302.24992
302.24878
302.29052
302.28996
302.3319
301.7858
301.80782
301.78717
301.8104
301.79019
301.81357
301.79362
301.81705
301.79732
301.82082
301.80139
301.82509
301.80612
301.83025
301.81198
301.83678
301.81944
301.84515
301.82892
301.85571
301.84073
301.8687
301.85503
301.88423
301.87189
301.90233
301.89131
301.92294
301.91319
301.94596
301.93742
301.97124
301.96384
301.99862
301.99229
302.02793
302.02259
302.059
302.05459
302.09165
302.0881
302.12573
302.12298
302.16108
302.15907
302.19756
302.19624
302.23503
302.23438
302.27337
301.78692
301.80754
301.78742
301.80929
301.78971
301.8118
301.79251
301.81469
301.79565
301.81788
301.79912
301.8215
301.80311
301.8258
301.80799
301.8312
301.81416
301.8381
301.82201
301.84685
301.83185
301.8577
301.84388
301.87081
301.85821
301.88625
301.87489
301.90401
301.89386
301.92403
301.91506
301.94621
301.93838
301.97043
301.96367
301.99655
301.99081
302.02443
302.01964
302.0539
302.05002
302.08483
302.0818
302.11708
302.11485
302.15051
302.14905
302.18499
302.18427
302.22042
301.78802
301.80744
301.78791
301.80852
301.78957
301.81042
301.79181
301.81277
301.79442
301.81545
301.79734
301.81847
301.8007
301.82205
301.80475
301.8265
301.80984
301.83217
301.81632
301.83938
301.82449
301.84841
301.83457
301.85942
301.84671
301.87253
301.86097
301.88777
301.87736
301.90511
301.89584
301.9245
301.91634
301.94584
301.93875
301.96903
301.96297
301.99395
301.98887
302.02046
302.01632
302.04845
302.04519
302.07777
302.07537
302.10832
302.10674
302.13997
302.13919
302.17262
301.78903
301.80742
301.78855
301.80799
301.78968
301.80938
301.79143
301.81123
301.79355
301.81342
301.79598
301.81593
301.79877
301.81888
301.80212
301.82251
301.8063
301.82715
301.81163
301.83307
301.81839
301.84054
301.82681
301.84975
301.83704
301.86083
301.84919
301.87384
301.86329
301.8888
301.87934
301.90567
301.89729
301.92441
301.91709
301.94493
301.93863
301.96713
301.96182
301.9909
301.98655
302.01614
302.01271
302.04273
302.04019
302.07056
302.06889
302.09953
302.09871
302.12955
301.78993
301.80743
301.78927
301.80762
301.78999
301.80857
301.79129
301.80999
301.79298
301.81174
301.79496
301.81377
301.79725
301.81617
301.79999
301.81912
301.80341
301.82287
301.80776
301.8277
301.81333
301.83385
301.82032
301.84151
301.82891
301.85083
301.83921
301.86189
301.85129
301.87473
301.86518
301.88937
301.88086
301.90575
301.89828
301.92384
301.91738
301.94355
301.93809
301.9648
301.9603
301.9875
301.98394
302.01154
302.0089
302.03684
302.03509
302.06329
302.06242
302.09081
301.79073
301.80744
301.79001
301.80736
301.79041
301.80796
301.79134
301.80899
301.79264
301.81034
301.79421
301.81194
301.79605
301.81384
301.79826
301.81619
301.80102
301.81921
301.80455
301.82311
301.8091
301.82813
301.81488
301.83446
301.82205
301.84225
301.83075
301.85161
301.84107
301.8626
301.85304
301.87523
301.86668
301.88951
301.88197
301.90541
301.89886
301.92285
301.91729
301.94179
301.93719
301.96214
301.95849
301.98382
301.98111
302.00675
302.00495
302.03084
302.02995
302.05602
301.79144
301.80741
301.79075
301.80716
301.79091
301.80747
301.79153
301.80817
301.79248
301.80915
301.79367
301.81035
301.7951
301.81182
301.79684
301.81365
301.79903
301.81602
301.80186
301.81914
301.80555
301.8232
301.81029
301.8284
301.81625
301.83487
301.82357
301.84275
301.83234
301.8521
301.84262
301.86297
301.85445
301.87537
301.86782
301.88929
301.88271
301.90469
301.89908
301.92152
301.91687
301.93971
301.93602
301.95922
301.95646
301.97995
301.97811
302.00184
302.00092
302.02482
301.79207
301.80734
301.79145
301.80699
301.79145
301.80708
301.7918
301.80749
301.79244
301.80813
301.79328
301.80897
301.79434
301.81003
301.79565
301.81141
301.79735
301.81323
301.79959
301.81567
301.80254
301.81892
301.8064
301.82314
301.81132
301.82849
301.81744
301.83508
301.82487
301.84301
301.83367
301.85232
301.84389
301.86305
301.85555
301.87519
301.86864
301.88874
301.88314
301.90365
301.899
301.91989
301.91617
301.93738
301.93461
301.95609
301.95424
301.97594
301.97502
301.99687
301.79262
301.80723
301.79211
301.80682
301.79198
301.80673
301.79212
301.80688
301.79247
301.80722
301.793
301.80773
301.79371
301.80843
301.79465
301.80939
301.79591
301.81074
301.79763
301.8126
301.79996
301.81516
301.80306
301.81855
301.80709
301.82293
301.81218
301.82841
301.81844
301.83509
301.82595
301.84303
301.83476
301.85228
301.8449
301.86285
301.85638
301.87474
301.86918
301.88792
301.88329
301.90236
301.89866
301.91803
301.91526
301.93487
301.93302
301.95283
301.95191
301.97186
301.79312
301.80709
301.79272
301.80664
301.79251
301.80641
301.79246
301.80633
301.79255
301.80639
301.79278
301.80658
301.79317
301.80695
301.79376
301.80755
301.79464
301.80847
301.7959
301.80984
301.7977
301.8118
301.80016
301.81449
301.80343
301.81804
301.80764
301.82256
301.81289
301.82816
301.81926
301.83491
301.82683
301.84286
301.83562
301.85202
301.84567
301.86242
301.85696
301.87404
301.86948
301.88687
301.88321
301.90086
301.89812
301.91599
301.91416
301.93221
301.9313
301.94949
301.79356
301.8069
301.79327
301.80643
301.79299
301.80609
301.79277
301.8058
301.79262
301.80559
301.79257
301.80549
301.79266
301.80555
301.79294
301.80582
301.79347
301.80637
301.79435
301.80732
301.79569
301.80877
301.7976
301.81085
301.80023
301.81369
301.80367
301.8174
301.80805
301.82207
301.81344
301.82777
301.81992
301.83457
301.82753
301.8425
301.83629
301.85157
301.84623
301.8618
301.85732
301.87316
301.86957
301.88564
301.88294
301.89921
301.89741
301.91383
301.91294
301.92949
301.79394
301.80667
301.79376
301.8062
301.79342
301.80574
301.79304
301.80525
301.79266
301.80478
301.79235
301.80442
301.79216
301.80419
301.79215
301.80416
301.79238
301.80439
301.79291
301.80497
301.79385
301.80598
301.7953
301.80756
301.79737
301.80979
301.80017
301.81279
301.8038
301.81666
301.80834
301.82146
301.81387
301.82725
301.82043
301.83409
301.82807
301.84199
301.83679
301.85096
301.84661
301.86101
301.85751
301.87212
301.86948
301.88427
301.88251
301.89744
301.89656
301.91161
301.79427
301.80641
301.7942
301.80593
301.79379
301.80534
301.79325
301.80465
301.79264
301.80395
301.79207
301.80332
301.79162
301.80283
301.79135
301.80253
301.7913
301.80248
301.79154
301.80273
301.79214
301.80338
301.79319
301.80452
301.79479
301.80624
301.79704
301.80864
301.80002
301.81182
301.80383
301.81584
301.80853
301.82076
301.81418
301.82664
301.82082
301.8335
301.82847
301.84136
301.83713
301.85023
301.84683
301.8601
301.85754
301.87096
301.86925
301.88281
301.88195
301.89561
301.79455
301.80612
301.79458
301.80561
301.79409
301.80489
301.79336
301.80399
301.79252
301.80304
301.79171
301.80218
301.79102
301.80145
301.79051
301.80091
301.79022
301.8006
301.79019
301.80058
301.7905
301.80091
301.79121
301.80168
301.79241
301.80297
301.79419
301.80486
301.79663
301.80744
301.7998
301.81079
301.80379
301.81495
301.80864
301.81999
301.8144
301.82594
301.82109
301.83281
301.82874
301.84063
301.83735
301.84939
301.84692
301.8591
301.85744
301.86973
301.8689
301.8813
301.79478
301.8058
301.7949
301.80523
301.79429
301.80435
301.79336
301.80323
301.79229
301.80205
301.79125
301.80095
301.79033
301.80001
301.7896
301.79925
301.78909
301.79872
301.78884
301.79847
301.7889
301.79853
301.78932
301.79899
301.79018
301.79991
301.79156
301.80137
301.79353
301.80345
301.79617
301.80622
301.79954
301.80973
301.80369
301.81404
301.80868
301.81918
301.81453
301.82518
301.82127
301.83206
301.82891
301.83983
301.83745
301.84849
301.84689
301.85803
301.85723
301.86846
301.79496
301.80544
301.79515
301.80479
301.79439
301.80371
301.79323
301.80235
301.79192
301.80094
301.79065
301.79963
301.78953
301.79848
301.7886
301.79754
301.7879
301.79682
301.78745
301.79636
301.7873
301.79621
301.78748
301.7964
301.78806
301.79702
301.7891
301.79812
301.79067
301.79977
301.79285
301.80204
301.79568
301.80499
301.79924
301.80866
301.80355
301.8131
301.80866
301.81833
301.81459