/*--------------------------------*- C++ -*----------------------------------*\
| =========                 |                                                 |
| \\      /  F ield         | OpenFOAM: The Open Source CFD Toolbox           |
|  \\    /   O peration     | Version:  2312                                  |
|   \\  /    A nd           | Website:  www.openfoam.com                      |
|    \\/     M anipulation  |                                                 |
\*---------------------------------------------------------------------------*/
FoamFile
{
    version     2.0;
    format      ascii;
    arch        "LSB;label=32;scalar=64";
    class       volVectorField;
    location    "5";
    object      U_0;
}
// * * * * * * * * * * * * * * * * * * * * * * * * * * * * * * * * * * * * * //

dimensions      [0 1 -1 0 0 0 0];

internalField   nonuniform List<vector> 
4000
(
(0.0023141908 0.00042295556 0)
(0.0030380425 -6.4750843e-06 0)
(0.0024290104 -3.6680964e-07 0)
(0.0025689522 2.2341069e-07 0)
(0.0024866931 -2.6087216e-07 0)
(0.0025432729 2.3532141e-07 0)
(0.0024908921 -2.2213694e-07 0)
(0.0025384429 2.0858981e-07 0)
(0.0024941517 -1.9579189e-07 0)
(0.0025355568 1.8416525e-07 0)
(0.0024966808 -1.7331222e-07 0)
(0.0025331545 1.6305906e-07 0)
(0.0024988873 -1.5350102e-07 0)
(0.002531056 1.4448862e-07 0)
(0.0025008473 -1.3604848e-07 0)
(0.0025292025 1.2811902e-07 0)
(0.0025025878 -1.2067972e-07 0)
(0.0025275604 1.1370386e-07 0)
(0.0025041327 -1.0715649e-07 0)
(0.0025261034 1.0102421e-07 0)
(0.0025055047 -9.5269611e-08 0)
(0.002524809 8.9885305e-08 0)
(0.0025067247 -8.4835272e-08 0)
(0.002523657 8.0115423e-08 0)
(0.0025078113 -7.5692343e-08 0)
(0.0025226299 7.1564007e-08 0)
(0.0025087812 -6.7699973e-08 0)
(0.0025217119 6.4099567e-08 0)
(0.0025096492 -6.0735383e-08 0)
(0.0025208889 5.7607623e-08 0)
(0.0025104288 -5.4691868e-08 0)
(0.0025201484 5.1988851e-08 0)
(0.0025111317 -4.9477042e-08 0)
(0.0025194791 4.7157456e-08 0)
(0.0025117687 -4.5011335e-08 0)
(0.0025188708 4.3039795e-08 0)
(0.0025123494 -4.1226735e-08 0)
(0.0025183144 3.9573238e-08 0)
(0.0025128826 -3.8065757e-08 0)
(0.0025178015 3.6705264e-08 0)
(0.0025133764 -3.5480681e-08 0)
(0.0025173242 3.4392877e-08 0)
(0.0025138383 -3.3433138e-08 0)
(0.0025168754 3.2602333e-08 0)
(0.002514275 -3.189573e-08 0)
(0.0025164475 3.1306769e-08 0)
(0.0025146932 -3.085981e-08 0)
(0.002516047 3.0520152e-08 0)
(0.002515175 -3.0058558e-08 0)
(0.0025159531 3.215818e-08 0)
(0.0061948388 0.0011490161 0)
(0.0085520356 -2.2526324e-07 0)
(0.0071248103 4.8775189e-06 0)
(0.0074446071 3.1785771e-07 0)
(0.0072181967 -6.0637749e-07 0)
(0.0073832044 8.1657257e-07 0)
(0.0072293655 -7.5622912e-07 0)
(0.0073699194 7.276813e-07 0)
(0.0072390248 -6.8744861e-07 0)
(0.0073615416 6.491912e-07 0)
(0.007246514 -6.106532e-07 0)
(0.0073544527 5.7541079e-07 0)
(0.0072530521 -5.4133057e-07 0)
(0.0073482446 5.0980573e-07 0)
(0.0072588603 -4.799127e-07 0)
(0.0073427593 4.5201497e-07 0)
(0.007264018 -4.2575009e-07 0)
(0.0073378991 4.0116067e-07 0)
(0.0072685963 -3.7807067e-07 0)
(0.007333586 3.5644097e-07 0)
(0.0072726632 -3.361541e-07 0)
(0.0073297529 3.171584e-07 0)
(0.0072762803 -2.9935742e-07 0)
(0.0073263407 2.8270463e-07 0)
(0.0072795032 -2.6711438e-07 0)
(0.007323297 2.5254844e-07 0)
(0.0072823812 -2.3892934e-07 0)
(0.0073205752 2.2622651e-07 0)
(0.0072849584 -2.1436997e-07 0)
(0.0073181337 2.033355e-07 0)
(0.0072872742 -1.9306036e-07 0)
(0.0073159354 1.8352539e-07 0)
(0.0072893638 -1.746749e-07 0)
(0.0073139468 1.664937e-07 0)
(0.0072912592 -1.5893294e-07 0)
(0.0073121377 1.5198059e-07 0)
(0.0072929889 -1.4559435e-07 0)
(0.0073104808 1.3976472e-07 0)
(0.0072945792 -1.3445575e-07 0)
(0.007308951 1.2965989e-07 0)
(0.0072960543 -1.253475e-07 0)
(0.007307525 1.2151235e-07 0)
(0.0072974365 -1.1813077e-07 0)
(0.0073061813 1.1520255e-07 0)
(0.0072987463 -1.126888e-07 0)
(0.0073048971 1.1063711e-07 0)
(0.0073000014 -1.0909901e-07 0)
(0.0073036712 1.0686039e-07 0)
(0.007301373 -1.1088465e-07 0)
(0.0073032059 1.0263015e-07 0)
(0.010108496 0.0018712854 0)
(0.013784366 -6.5648232e-06 0)
(0.011699259 1.2264608e-05 0)
(0.012195377 4.9742005e-07 0)
(0.011823824 -9.3485576e-07 0)
(0.012101409 1.4779748e-06 0)
(0.011843367 -1.3614103e-06 0)
(0.012080042 1.3175607e-06 0)
(0.011859759 -1.2490631e-06 0)
(0.01206607 1.1805498e-06 0)
(0.011872382 -1.1104289e-06 0)
(0.01205415 1.0468022e-06 0)
(0.011883401 -9.8461424e-07 0)
(0.012043698 9.2738879e-07 0)
(0.011893188 -8.7296858e-07 0)
(0.012034461 8.2223073e-07 0)
(0.011901877 -7.7446591e-07 0)
(0.012026276 7.2971836e-07 0)
(0.011909591 -6.8774023e-07 0)
(0.012019012 6.4837238e-07 0)
(0.011916443 -6.1149169e-07 0)
(0.012012556 5.7691689e-07 0)
(0.011922539 -5.4455376e-07 0)
(0.012006808 5.1424354e-07 0)
(0.01192797 -4.8589752e-07 0)
(0.012001679 4.593859e-07 0)
(0.011932822 -4.3462183e-07 0)
(0.011997092 4.1150138e-07 0)
(0.011937167 -3.8994052e-07 0)
(0.011992977 3.6985654e-07 0)
(0.011941073 -3.5116989e-07 0)
(0.01198927 3.3381477e-07 0)
(0.011944598 -3.1771754e-07 0)
(0.011985916 3.0282576e-07 0)
(0.011947796 -2.8907272e-07 0)
(0.011982863 2.7641654e-07 0)
(0.011950717 -2.6479812e-07 0)
(0.011980066 2.541839e-07 0)
(0.011953403 -2.445229e-07 0)
(0.011977481 2.3578803e-07 0)
(0.011955896 -2.27937e-07 0)
(0.011975071 2.20947e-07 0)
(0.011958235 -2.1478472e-07 0)
(0.011972797 2.0944074e-07 0)
(0.011960453 -2.0483724e-07 0)
(0.011970622 2.0110902e-07 0)
(0.01196258 -1.9822762e-07 0)
(0.01196853 1.9379071e-07 0)
(0.011964856 -2.0392545e-07 0)
(0.011967582 1.8540874e-07 0)
(0.013744454 0.0024665836 0)
(0.018815376 -2.0946451e-05 0)
(0.016155455 2.2732551e-05 0)
(0.016820685 5.109055e-07 0)
(0.016303551 -1.0788549e-06 0)
(0.016698119 2.0990258e-06 0)
(0.016332719 -1.9317136e-06 0)
(0.016669026 1.8782506e-06 0)
(0.016356184 -1.7886793e-06 0)
(0.01664934 1.6918133e-06 0)
(0.016374131 -1.5913644e-06 0)
(0.016632425 1.5008432e-06 0)
(0.016389794 -1.411425e-06 0)
(0.016617576 1.3295466e-06 0)
(0.016403704 -1.2514868e-06 0)
(0.016604452 1.1787461e-06 0)
(0.016416053 -1.1103069e-06 0)
(0.016592821 1.0461148e-06 0)
(0.016427015 -9.8598506e-07 0)
(0.016582499 9.2950124e-07 0)
(0.016436753 -8.7667416e-07 0)
(0.016573324 8.2706617e-07 0)
(0.016445415 -7.807069e-07 0)
(0.016565154 7.3721842e-07 0)
(0.016453136 -6.9661008e-07 0)
(0.016557865 6.5857262e-07 0)
(0.016460031 -6.2309273e-07 0)
(0.016551345 5.8992139e-07 0)
(0.016466208 -5.5902832e-07 0)
(0.016545494 5.3021378e-07 0)
(0.016471761 -5.0343692e-07 0)
(0.016540224 4.7853746e-07 0)
(0.016476773 -4.5546929e-07 0)
(0.016535455 4.3410356e-07 0)
(0.016481321 -4.1439305e-07 0)
(0.016531113 3.962339e-07 0)
(0.016485475 -3.795809e-07 0)
(0.016527135 3.6435009e-07 0)
(0.016489296 -3.5050059e-07 0)
(0.016523458 3.3796417e-07 0)
(0.016492843 -3.2670656e-07 0)
(0.016520028 3.1667027e-07 0)
(0.016496171 -3.0782979e-07 0)
(0.016516791 3.0015223e-07 0)
(0.016499329 -2.9352296e-07 0)
(0.016513694 2.8820114e-07 0)
(0.016502359 -2.8398084e-07 0)
(0.016510701 2.771157e-07 0)
(0.016505554 -2.95864e-07 0)
(0.016509156 2.6481139e-07 0)
(0.017676267 0.0031460517 0)
(0.023603484 -3.2011664e-05 0)
(0.020484801 3.5206153e-05 0)
(0.021320407 3.2514302e-07 0)
(0.020657335 -1.0454375e-06 0)
(0.021173233 2.6458791e-06 0)
(0.020697545 -2.4457041e-06 0)
(0.021136745 2.3853909e-06 0)
(0.020728399 -2.2844519e-06 0)
(0.021111241 2.1619316e-06 0)
(0.020751846 -2.0337008e-06 0)
(0.02108918 1.9189044e-06 0)
(0.020772307 -1.804205e-06 0)
(0.021069795 1.6997784e-06 0)
(0.020790474 -1.5998974e-06 0)
(0.021052657 1.5069331e-06 0)
(0.020806601 -1.4194609e-06 0)
(0.02103747 1.3373681e-06 0)
(0.020820916 -1.2605409e-06 0)
(0.02102399 1.1882924e-06 0)
(0.020833632 -1.1207981e-06 0)
(0.021012008 1.057342e-06 0)
(0.020844945 -9.9810825e-07 0)
(0.021001339 9.4248013e-07 0)
(0.020855027 -8.9059064e-07 0)
(0.020991819 8.4193592e-07 0)
(0.020864033 -7.9659631e-07 0)
(0.020983304 7.5416662e-07 0)
(0.0208721 -7.1468582e-07 0)
(0.020975663 6.7782933e-07 0)
(0.020879351 -6.4360678e-07 0)
(0.02096878 6.117581e-07 0)
(0.020885897 -5.8227362e-07 0)
(0.020962552 5.549446e-07 0)
(0.020891837 -5.2974996e-07 0)
(0.020956882 5.0652174e-07 0)
(0.020897262 -4.8523352e-07 0)
(0.020951686 4.6574977e-07 0)
(0.020902252 -4.4804331e-07 0)
(0.020946884 4.3200418e-07 0)
(0.020906885 -4.1760875e-07 0)
(0.020942405 4.0476439e-07 0)
(0.020911231 -3.9345586e-07 0)
(0.020938178 3.8362626e-07 0)
(0.020915356 -3.7511732e-07 0)
(0.020934132 3.6835528e-07 0)
(0.020919315 -3.6283321e-07 0)
(0.020930212 3.5351468e-07 0)
(0.02092344 -3.8265252e-07 0)
(0.020927974 3.3758708e-07 0)
(0.020945047 0.0035422515 0)
(0.02816985 -5.8274715e-05 0)
(0.024697519 4.9412736e-05 0)
(0.025693007 2.1513515e-08 0)
(0.024885591 -8.5935343e-07 0)
(0.025526405 3.1162164e-06 0)
(0.024938265 -2.9087585e-06 0)
(0.025482844 2.8407251e-06 0)
(0.024976749 -2.7390036e-06 0)
(0.025451455 2.5929037e-06 0)
(0.025005831 -2.4394264e-06 0)
(0.025424135 2.3027678e-06 0)
(0.025031207 -2.1646673e-06 0)
(0.025400105 2.0396721e-06 0)
(0.025053734 -1.9197115e-06 0)
(0.025378858 1.8082038e-06 0)
(0.025073729 -1.7032661e-06 0)
(0.025360029 1.6047322e-06 0)
(0.025091476 -1.5125947e-06 0)
(0.025343316 1.4258599e-06 0)
(0.025107243 -1.3449182e-06 0)
(0.025328459 1.2687356e-06 0)
(0.025121269 -1.1976967e-06 0)
(0.025315231 1.1309124e-06 0)
(0.025133769 -1.0686772e-06 0)
(0.025303428 1.0102658e-06 0)
(0.025144935 -9.5588269e-07 0)
(0.02529287 9.0494552e-07 0)
(0.025154937 -8.5758689e-07 0)
(0.025283396 8.1334102e-07 0)
(0.025163927 -7.7228743e-07 0)
(0.025274863 7.3405364e-07 0)
(0.025172043 -6.9868182e-07 0)
(0.025267141 6.6587359e-07 0)
(0.025179407 -6.3564628e-07 0)
(0.025260113 6.077603e-07 0)
(0.02518613 -5.8221776e-07 0)
(0.025253672 5.588257e-07 0)
(0.025192316 -5.3757838e-07 0)
(0.02524772 5.183195e-07 0)
(0.025198058 -5.0104221e-07 0)
(0.025242168 4.8561481e-07 0)
(0.025203444 -4.7203767e-07 0)
(0.02523693 4.6022579e-07 0)
(0.025208557 -4.4997534e-07 0)
(0.025231917 4.4191209e-07 0)
(0.025213462 -4.3510951e-07 0)
(0.025227052 4.2336542e-07 0)
(0.025218525 -4.6416441e-07 0)
(0.025224039 4.0370325e-07 0)
(0.024955471 0.0042156173 0)
(0.032512933 -7.0652251e-05 0)
(0.028788069 6.4473412e-05 0)
(0.029936521 -3.4491827e-07 0)
(0.028988253 -5.6541618e-07 0)
(0.029757224 3.5036689e-06 0)
(0.029055323 -3.3279116e-06 0)
(0.02970695 3.2473542e-06 0)
(0.029101597 -3.1561351e-06 0)
(0.029669642 2.9878704e-06 0)
(0.029136405 -2.8115866e-06 0)
(0.02963699 2.655222e-06 0)
(0.029166774 -2.4954627e-06 0)
(0.029608245 2.3517055e-06 0)
(0.02919373 -2.2132701e-06 0)
(0.029582824 2.084758e-06 0)
(0.029217654 -1.9637968e-06 0)
(0.029560293 1.85016e-06 0)
(0.029238889 -1.7439875e-06 0)
(0.029540295 1.6439389e-06 0)
(0.029257754 -1.5506708e-06 0)
(0.029522519 1.4627908e-06 0)
(0.029274537 -1.3809297e-06 0)
(0.02950669 1.3038917e-06 0)
(0.029289494 -1.2321706e-06 0)
(0.029492567 1.1647925e-06 0)
(0.029302854 -1.1021163e-06 0)
(0.029479934 1.0433611e-06 0)
(0.029314821 -9.8877737e-07 0)
(0.029468599 9.3774144e-07 0)
(0.029325577 -8.9042203e-07 0)
(0.029458389 8.4632128e-07 0)
(0.029335287 -8.0554864e-07 0)
(0.029449151 7.6770597e-07 0)
(0.029344096 -7.3286132e-07 0)
(0.029440743 7.0069556e-07 0)
(0.029352139 -6.712492e-07 0)
(0.029433038 6.4426559e-07 0)
(0.029359538 -6.1976835e-07 0)
(0.02942592 5.9754984e-07 0)
(0.029366406 -5.7762628e-07 0)
(0.02941928 5.5982262e-07 0)
(0.029372846 -5.4416038e-07 0)
(0.029413016 5.3052151e-07 0)
(0.029378959 -5.1865738e-07 0)
(0.029407024 5.0941771e-07 0)
(0.029384825 -5.0134522e-07 0)
(0.029401201 4.8725334e-07 0)
(0.029390828 -5.4051978e-07 0)
(0.029397347 4.6350591e-07 0)
(0.027891341 0.0044278545 0)
(0.03661562 -0.00011069133 0)
(0.032767726 7.9336609e-05 0)
(0.034048872 -5.3201697e-07 0)
(0.032965392 -1.7718305e-07 0)
(0.033865397 3.8026746e-06 0)
(0.033049136 -3.7057522e-06 0)
(0.033808747 3.6054858e-06 0)
(0.033103268 -3.5366389e-06 0)
(0.033765507 3.3472364e-06 0)
(0.033143847 -3.150634e-06 0)
(0.033727482 2.9766207e-06 0)
(0.033179256 -2.7969468e-06 0)
(0.03369398 2.6361997e-06 0)
(0.033210682 -2.4808793e-06 0)
(0.033664347 2.3368832e-06 0)
(0.033238571 -2.201322e-06 0)
(0.033638083 2.0739066e-06 0)
(0.033263325 -1.9549571e-06 0)
(0.033614769 1.8427557e-06 0)
(0.033285316 -1.7382673e-06 0)
(0.033594046 1.639709e-06 0)
(0.03330488 -1.5479956e-06 0)
(0.033575592 1.4615977e-06 0)
(0.033322316 -1.3812397e-06 0)
(0.033559128 1.3056772e-06 0)
(0.03333789 -1.235449e-06 0)
(0.033544401 1.1695586e-06 0)
(0.033351841 -1.1083945e-06 0)
(0.033531187 1.051162e-06 0)
(0.033364379 -9.9813538e-07 0)
(0.033519286 9.4868094e-07 0)
(0.033375697 -9.0298846e-07 0)
(0.033508518 8.6055199e-07 0)
(0.033385964 -8.2150079e-07 0)
(0.033498718 7.8542987e-07 0)
(0.033395338 -7.5242655e-07 0)
(0.033489739 7.2216554e-07 0)
(0.033403961 -6.9470655e-07 0)
(0.033481444 6.6978663e-07 0)
(0.033411963 -6.474505e-07 0)
(0.033473707 6.2747628e-07 0)
(0.033419467 -6.0991151e-07 0)
(0.03346641 5.9460055e-07 0)
(0.033426588 -5.8125244e-07 0)
(0.033459431 5.7095866e-07 0)
(0.03343342 -5.6163268e-07 0)
(0.033452645 5.4531591e-07 0)
(0.033440364 -6.1148223e-07 0)
(0.033447895 5.1703217e-07 0)
(0.031916773 0.005059165 0)
(0.040525004 -0.00012130758 0)
(0.036629817 9.4612205e-05 0)
(0.038029225 -9.5420074e-07 0)
(0.036816714 1.4731711e-07 0)
(0.037850636 3.9782618e-06 0)
(0.036920077 -4.0457161e-06 0)
(0.037787973 3.9148499e-06 0)
(0.036982051 -3.880077e-06 0)
(0.037738793 3.6707117e-06 0)
(0.037028405 -3.4561678e-06 0)
(0.037695382 3.2665965e-06 0)
(0.03706887 -3.0687646e-06 0)
(0.037657108 2.8928202e-06 0)
(0.037104781 -2.7222216e-06 0)
(0.037623249 2.5642821e-06 0)
(0.037136647 -2.415558e-06 0)
(0.037593238 2.2757074e-06 0)
(0.037164932 -2.1452505e-06 0)
(0.037566598 2.0220746e-06 0)
(0.03719006 -1.9074823e-06 0)
(0.037542917 1.79928e-06 0)
(0.037212415 -1.6986937e-06 0)
(0.03752183 1.603843e-06 0)
(0.037232338 -1.5157056e-06 0)
(0.037503016 1.4327526e-06 0)
(0.037250134 -1.3557213e-06 0)
(0.037486188 1.2833885e-06 0)
(0.037266074 -1.2162959e-06 0)
(0.037471089 1.1534692e-06 0)
(0.037280401 -1.0953002e-06 0)
(0.037457491 1.0410128e-06 0)
(0.037293331 -9.9088703e-07 0)
(0.037445187 9.4430392e-07 0)
(0.037305062 -9.0146184e-07 0)
(0.037433991 8.6186598e-07 0)
(0.037315771 -8.2565685e-07 0)
(0.037423734 7.9243743e-07 0)
(0.037325621 -7.6230863e-07 0)
(0.037414259 7.3494975e-07 0)
(0.037334761 -7.1043807e-07 0)
(0.037405422 6.8850281e-07 0)
(0.037343331 -6.6922117e-07 0)
(0.037397089 6.5239645e-07 0)
(0.037351462 -6.3769881e-07 0)
(0.037389121 6.2647331e-07 0)
(0.037359264 -6.159212e-07 0)
(0.037381371 5.9753847e-07 0)
(0.037367144 -6.7671847e-07 0)
(0.037375681 5.6425984e-07 0)
(0.034727537 0.0051745855 0)
(0.044176861 -0.0001743454 0)
(0.040376255 0.00010865182 0)
(0.041880821 -1.7136522e-06 0)
(0.040543758 3.1807767e-07 0)
(0.041712713 3.9968252e-06 0)
(0.040668421 -4.3565599e-06 0)
(0.041644358 4.1733247e-06 0)
(0.040738193 -4.1869939e-06 0)
(0.041589267 3.9579959e-06 0)
(0.040790297 -3.7280972e-06 0)
(0.041540482 3.524966e-06 0)
(0.04083581 -3.3107725e-06 0)
(0.041497446 3.1214173e-06 0)
(0.040876197 -2.9371587e-06 0)
(0.041459369 2.7668241e-06 0)
(0.040912034 -2.606379e-06 0)
(0.041425617 2.4554461e-06 0)
(0.040943843 -2.3147548e-06 0)
(0.041395656 2.1817914e-06 0)
(0.040972102 -2.0582148e-06 0)
(0.041369022 1.9414106e-06 0)
(0.040997243 -1.8329341e-06 0)
(0.041345306 1.7305444e-06 0)
(0.04101965 -1.6354881e-06 0)
(0.041324146 1.5459445e-06 0)
(0.041039664 -1.4628616e-06 0)
(0.04130522 1.3847844e-06 0)
(0.041057591 -1.3124177e-06 0)
(0.041288239 1.2446035e-06 0)
(0.041073702 -1.1818593e-06 0)
(0.041272947 1.1232636e-06 0)
(0.041088243 -1.0691932e-06 0)
(0.041259111 1.0189138e-06 0)
(0.041101435 -9.7269842e-07 0)
(0.041246521 9.2996063e-07 0)
(0.041113476 -8.908986e-07 0)
(0.041234987 8.5504215e-07 0)
(0.041124551 -8.2253707e-07 0)
(0.041224334 7.9300381e-07 0)
(0.041134826 -7.6655507e-07 0)
(0.0412144 7.4287027e-07 0)
(0.04114446 -7.2205888e-07 0)
(0.041205033 7.0388058e-07 0)
(0.041153599 -6.8797105e-07 0)
(0.041196079 6.7593468e-07 0)
(0.041162368 -6.6419509e-07 0)
(0.041187369 6.4392984e-07 0)
(0.041171177 -7.3596115e-07 0)
(0.041180705 6.0523649e-07 0)
(0.038648078 0.0056720239 0)
(0.047692455 -0.00018507413 0)
(0.043989196 0.00012264118 0)
(0.045609424 -1.5861655e-06 0)
(0.044150194 5.8549772e-07 0)
(0.045451854 3.9235062e-06 0)
(0.044294567 -4.6224887e-06 0)
(0.0453777 4.3858689e-06 0)
(0.044371924 -4.4564613e-06 0)
(0.04531672 4.2096049e-06 0)
(0.044429725 -3.9664746e-06 0)
(0.045262598 3.7518719e-06 0)
(0.04448025 -3.5230744e-06 0)
(0.04521483 3.3220941e-06 0)
(0.044525085 -3.125784e-06 0)
(0.045172562 2.9445986e-06 0)
(0.044564868 -2.7738661e-06 0)
(0.045135093 2.613201e-06 0)
(0.044600179 -2.463541e-06 0)
(0.045101831 2.3219748e-06 0)
(0.04463155 -2.1905274e-06 0)
(0.045072263 2.0661616e-06 0)
(0.04465946 -1.9507721e-06 0)
(0.045045934 1.8417558e-06 0)
(0.044684334 -1.7406366e-06 0)
(0.045022442 1.6453006e-06 0)
(0.044706552 -1.5569144e-06 0)
(0.045001431 1.4737893e-06 0)
(0.044726453 -1.3967999e-06 0)
(0.04498258 1.3246035e-06 0)
(0.044744338 -1.2578488e-06 0)
(0.044965604 1.1954682e-06 0)
(0.044760479 -1.1379397e-06 0)
(0.044950244 1.0844135e-06 0)
(0.044775122 -1.0352407e-06 0)
(0.04493627 9.8974318e-07 0)
(0.044788488 -9.4817975e-07 0)
(0.044923468 9.1000704e-07 0)
(0.044800779 -8.7541813e-07 0)
(0.044911644 8.4397463e-07 0)
(0.044812183 -8.1582659e-07 0)
(0.04490062 7.9060362e-07 0)
(0.044822874 -7.6844927e-07 0)
(0.044890226 7.4907781e-07 0)
(0.044833014 -7.3209558e-07 0)
(0.044880293 7.1936632e-07 0)
(0.044842744 -7.0648923e-07 0)
(0.044870631 6.8454084e-07 0)
(0.044852472 -7.8902215e-07 0)
(0.044862968 6.4008059e-07 0)
(0.041568847 0.0057726788 0)
(0.050969443 -0.00024418086 0)
(0.0474747 0.00013277974 0)
(0.049213491 -1.4864078e-06 0)
(0.04763775 7.8516765e-07 0)
(0.049067922 3.7348188e-06 0)
(0.047798753 -4.8525456e-06 0)
(0.048987792 4.5512646e-06 0)
(0.047883449 -4.6894163e-06 0)
(0.048920964 4.4257621e-06 0)
(0.047946865 -4.1716714e-06 0)
(0.048861559 3.9475772e-06 0)
(0.04800235 -3.7059465e-06 0)
(0.048809111 3.495096e-06 0)
(0.048051585 -3.2883326e-06 0)
(0.048762696 3.0978252e-06 0)
(0.048095272 -2.9182247e-06 0)
(0.048721549 2.7491667e-06 0)
(0.048134048 -2.5917901e-06 0)
(0.048685021 2.4427975e-06 0)
(0.048168498 -2.3045805e-06 0)
(0.048652548 2.1736859e-06 0)
(0.048199147 -2.0523505e-06 0)
(0.048623633 1.9376131e-06 0)
(0.048226463 -1.8312785e-06 0)
(0.048597835 1.7309425e-06 0)
(0.048250863 -1.6379934e-06 0)
(0.04857476 1.5505117e-06 0)
(0.048272716 -1.4695446e-06 0)
(0.048554058 1.3935668e-06 0)
(0.048292357 -1.3233607e-06 0)
(0.048535416 1.2577146e-06 0)
(0.048310082 -1.1972099e-06 0)
(0.048518549 1.1408828e-06 0)
(0.048326161 -1.0891645e-06 0)
(0.048503204 1.0412865e-06 0)
(0.048340837 -9.9756988e-07 0)
(0.048489147 9.5739922e-07 0)
(0.048354333 -9.2101627e-07 0)
(0.048476165 8.8792475e-07 0)
(0.048366854 -8.5831314e-07 0)
(0.048464062 8.3176204e-07 0)
(0.04837859 -8.0845009e-07 0)
(0.048452651 7.8804523e-07 0)
(0.048389721 -7.7013007e-07 0)
(0.04844175 7.5682245e-07 0)
(0.0484004 -7.4286933e-07 0)
(0.048431149 7.1944697e-07 0)
(0.048411035 -8.3577288e-07 0)
(0.048422469 6.689577e-07 0)
(0.045347879 0.0061185864 0)
(0.0541538 -0.00025194928 0)
(0.050834423 0.00014252048 0)
(0.052691503 -1.9417156e-06 0)
(0.051005802 7.8784534e-07 0)
(0.052560728 3.4237101e-06 0)
(0.051181181 -5.049808e-06 0)
(0.05247447 4.6707502e-06 0)
(0.05127296 -4.8860398e-06 0)
(0.052401833 4.60716e-06 0)
(0.051341882 -4.3440404e-06 0)
(0.052337218 4.1125173e-06 0)
(0.051402251 -3.8597516e-06 0)
(0.052280156 3.6407815e-06 0)
(0.051455823 -3.4251328e-06 0)
(0.052229654 3.2268175e-06 0)
(0.051503357 -3.039746e-06 0)
(0.052184881 2.86362e-06 0)
(0.051545547 -2.6997602e-06 0)
(0.052145134 2.5445044e-06 0)
(0.051583032 -2.4006034e-06 0)
(0.052109799 2.2642012e-06 0)
(0.051616381 -2.1378732e-06 0)
(0.052078335 2.0183102e-06 0)
(0.051646104 -1.9075955e-06 0)
(0.052050262 1.8030431e-06 0)
(0.051672653 -1.7062611e-06 0)
(0.052025153 1.6151063e-06 0)
(0.051696432 -1.5307975e-06 0)
(0.052002627 1.4516322e-06 0)
(0.051717803 -1.3785262e-06 0)
(0.051982342 1.3101279e-06 0)
(0.051737089 -1.2471224e-06 0)
(0.05196399 1.188435e-06 0)
(0.051754584 -1.1345776e-06 0)
(0.051947293 1.0846939e-06 0)
(0.051770552 -1.0391676e-06 0)
(0.051931999 9.9731363e-07 0)
(0.051785235 -9.5942261e-07 0)
(0.051917876 9.2494231e-07 0)
(0.051798856 -8.9409984e-07 0)
(0.051904708 8.6642845e-07 0)
(0.051811623 -8.4214211e-07 0)
(0.051892297 8.2086225e-07 0)
(0.05182373 -8.0215379e-07 0)
(0.051880441 7.8837855e-07 0)
(0.051835347 -7.7342222e-07 0)
(0.051868916 7.4874017e-07 0)
(0.051846871 -8.7613292e-07 0)
(0.05185921 6.9206633e-07 0)
(0.048328285 0.0061981663 0)
(0.05710806 -0.0003127741 0)
(0.054071609 0.00014844926 0)
(0.056045242 -2.2052555e-06 0)
(0.054254823 7.6000288e-07 0)
(0.055930346 3.0473039e-06 0)
(0.054442049 -5.2042186e-06 0)
(0.055837572 4.7477035e-06 0)
(0.054540617 -5.0463141e-06 0)
(0.055759175 4.7545555e-06 0)
(0.054614919 -4.4841038e-06 0)
(0.055689438 4.2471981e-06 0)
(0.054680081 -3.984968e-06 0)
(0.055627845 3.7595956e-06 0)
(0.05473791 -3.5366051e-06 0)
(0.055573329 3.3319707e-06 0)
(0.054789221 -3.1388008e-06 0)
(0.055524996 2.9569117e-06 0)
(0.054834765 -2.7877798e-06 0)
(0.055482088 2.627407e-06 0)
(0.054875229 -2.4788876e-06 0)
(0.055443942 2.3379842e-06 0)
(0.05491123 -2.2075996e-06 0)
(0.055409975 2.0840932e-06 0)
(0.054943316 -1.9698189e-06 0)
(0.055379669 1.8618218e-06 0)
(0.054971976 -1.7619244e-06 0)
(0.055352562 1.6677696e-06 0)
(0.054997646 -1.5807438e-06 0)
(0.055328245 1.4989759e-06 0)
(0.055020715 -1.4235118e-06 0)
(0.055306346 1.352867e-06 0)
(0.055041535 -1.2878276e-06 0)
(0.055286535 1.2272139e-06 0)
(0.05506042 -1.1716167e-06 0)
(0.055268511 1.1200963e-06 0)
(0.055077656 -1.0730981e-06 0)
(0.055252002 1.0298705e-06 0)
(0.055093505 -9.9075253e-07 0)
(0.055236757 9.5513872e-07 0)
(0.055108207 -9.2329428e-07 0)
(0.055222545 8.9470741e-07 0)
(0.055121986 -8.6962698e-07 0)
(0.05520915 8.4762862e-07 0)
(0.055135053 -8.2826558e-07 0)
(0.055196357 8.1412936e-07 0)
(0.055147589 -7.9825348e-07 0)
(0.055183926 7.7252735e-07 0)
(0.055159985 -9.1006555e-07 0)
(0.055173192 7.0963029e-07 0)
(0.051934583 0.0064087445 0)
(0.060004783 -0.00031988786 0)
(0.057185178 0.00015451748 0)
(0.059276097 -2.4738006e-06 0)
(0.057384038 6.2531694e-07 0)
(0.059176577 2.601079e-06 0)
(0.05758147 -5.3176912e-06 0)
(0.059076928 4.7827624e-06 0)
(0.057686559 -5.1709115e-06 0)
(0.058992849 4.8687242e-06 0)
(0.057766104 -4.5924716e-06 0)
(0.058918097 4.3522443e-06 0)
(0.057835952 -4.0821541e-06 0)
(0.058852071 3.8520776e-06 0)
(0.057897947 -3.6232491e-06 0)
(0.058793628 3.4137599e-06 0)
(0.057952953 -3.2158329e-06 0)
(0.058741812 3.0294622e-06 0)
(0.058001778 -2.8562427e-06 0)
(0.058695809 2.6918781e-06 0)
(0.058045158 -2.5397831e-06 0)
(0.058654913 2.3953664e-06 0)
(0.058083753 -2.2618413e-06 0)
(0.058618496 2.1352574e-06 0)
(0.058118151 -2.0182266e-06 0)
(0.058586005 1.907542e-06 0)
(0.058148877 -1.8052313e-06 0)
(0.058556944 1.708737e-06 0)
(0.058176397 -1.6196061e-06 0)
(0.058530873 1.5358092e-06 0)
(0.058201129 -1.4585177e-06 0)
(0.058507396 1.386122e-06 0)
(0.058223449 -1.3195062e-06 0)
(0.058486157 1.2573918e-06 0)
(0.058243694 -1.2004459e-06 0)
(0.058466834 1.1476507e-06 0)
(0.058262172 -1.0995111e-06 0)
(0.058449136 1.0552138e-06 0)
(0.058279162 -1.0151442e-06 0)
(0.058432793 9.7864732e-07 0)
(0.058294923 -9.4602512e-07 0)
(0.058417558 9.1672384e-07 0)
(0.058309692 -8.910261e-07 0)
(0.0584032 8.6846322e-07 0)
(0.058323698 -8.485827e-07 0)
(0.058389491 8.3418785e-07 0)
(0.058337134 -8.1748606e-07 0)
(0.058376175 7.9092977e-07 0)
(0.058350381 -9.375743e-07 0)
(0.058364416 7.2189257e-07 0)
(0.05496012 0.0064615986 0)
(0.062696399 -0.00037820925 0)
(0.06017893 0.000155557 0)
(0.062386381 -2.9029321e-06 0)
(0.060393255 4.0968108e-07 0)
(0.06229941 2.0997003e-06 0)
(0.060599609 -5.3856336e-06 0)
(0.062192417 4.7783777e-06 0)
(0.060710919 -5.2601162e-06 0)
(0.062102738 4.9506255e-06 0)
(0.060795551 -4.6698512e-06 0)
(0.06202309 4.4283547e-06 0)
(0.060869968 -4.1519611e-06 0)
(0.06195274 3.9188412e-06 0)
(0.060936023 -3.6856416e-06 0)
(0.061890467 3.4727292e-06 0)
(0.060994633 -3.2713529e-06 0)
(0.061835253 3.0817542e-06 0)
(0.061046657 -2.905602e-06 0)
(0.061786234 2.7383463e-06 0)
(0.061092879 -2.5836925e-06 0)
(0.061742655 2.4367286e-06 0)
(0.061134004 -2.3009565e-06 0)
(0.06170385 2.1721419e-06 0)
(0.061170657 -2.053138e-06 0)
(0.061669227 1.9405066e-06 0)
(0.061203397 -1.8364674e-06 0)
(0.06163826 1.7382793e-06 0)
(0.061232721 -1.6476401e-06 0)
(0.061610479 1.5623751e-06 0)
(0.061259075 -1.4837738e-06 0)
(0.061585462 1.410112e-06 0)
(0.061282858 -1.3423659e-06 0)
(0.06156283 1.2791669e-06 0)
(0.06130443 -1.2212537e-06 0)
(0.061542241 1.1675374e-06 0)
(0.061324119 -1.1185792e-06 0)
(0.061523382 1.0735089e-06 0)
(0.061342223 -1.0327565e-06 0)
(0.061505969 9.9562128e-07 0)
(0.061359015 -9.6244021e-07 0)
(0.061489737 9.3262115e-07 0)
(0.061374751 -9.0647875e-07 0)
(0.061474439 8.8350227e-07 0)
(0.061389672 -8.6323916e-07 0)
(0.061459836 8.4868353e-07 0)
(0.061403987 -8.3125848e-07 0)
(0.061445659 8.0408195e-07 0)
(0.061418062 -9.5869931e-07 0)
(0.061432884 7.2910982e-07 0)
(0.058410116 0.006552671 0)
(0.065359687 -0.00038183705 0)
(0.06305328 0.00015677462 0)
(0.065379587 -3.4022782e-06 0)
(0.063281779 1.2210671e-07 0)
(0.065298724 1.5422504e-06 0)
(0.063496578 -5.4066606e-06 0)
(0.06518391 4.7358168e-06 0)
(0.063613805 -5.314706e-06 0)
(0.065088729 5.0011949e-06 0)
(0.063703362 -4.7170479e-06 0)
(0.065004319 4.4763091e-06 0)
(0.063782216 -4.1951104e-06 0)
(0.064929766 3.9605725e-06 0)
(0.063852217 -3.7244241e-06 0)
(0.064863771 3.5094857e-06 0)
(0.063914329 -3.30593e-06 0)
(0.064805255 3.1143259e-06 0)
(0.063969461 -2.9363628e-06 0)
(0.064753304 2.7672895e-06 0)
(0.064018447 -2.611065e-06 0)
(0.064707118 2.4624958e-06 0)
(0.06406203 -2.325345e-06 0)
(0.064665991 2.1951251e-06 0)
(0.064100875 -2.0749095e-06 0)
(0.064629296 1.9610529e-06 0)
(0.064135573 -1.8559513e-06 0)
(0.064596476 1.7566986e-06 0)
(0.064166651 -1.6651313e-06 0)
(0.064567033 1.5789447e-06 0)
(0.064194581 -1.4995368e-06 0)
(0.064540519 1.4250811e-06 0)
(0.064219786 -1.3566386e-06 0)
(0.064516534 1.29276e-06 0)
(0.064242648 -1.2342507e-06 0)
(0.064494713 1.1799577e-06 0)
(0.064263515 -1.1304947e-06 0)
(0.064474726 1.0849406e-06 0)
(0.0642827 -1.0437666e-06 0)
(0.064456272 1.0062314e-06 0)
(0.064300496 -9.7270441e-07 0)
(0.064439069 9.4255919e-07 0)
(0.064317172 -9.1614016e-07 0)
(0.064422859 8.9289751e-07 0)
(0.064332983 -8.7238391e-07 0)
(0.064407387 8.5776071e-07 0)
(0.064348153 -8.3972296e-07 0)
(0.064392373 8.1213035e-07 0)
(0.064363032 -9.7351377e-07 0)
(0.064378597 7.3154738e-07 0)
(0.061461046 0.0065719451 0)
(0.067841708 -0.00043461788 0)
(0.065804142 0.0001533775 0)
(0.068258171 -4.1968025e-06 0)
(0.066049913 -2.1284624e-07 0)
(0.068174566 9.185663e-07 0)
(0.066272519 -5.3822715e-06 0)
(0.068051308 4.6555523e-06 0)
(0.066395319 -5.335805e-06 0)
(0.067950727 5.0213358e-06 0)
(0.066489624 -4.7349902e-06 0)
(0.0678617 4.4969337e-06 0)
(0.066572776 -4.2123985e-06 0)
(0.067783075 3.9780153e-06 0)
(0.066646599 -3.7402981e-06 0)
(0.067713474 3.5246906e-06 0)
(0.066712103 -3.3201855e-06 0)
(0.06765176 3.1277642e-06 0)
(0.066770247 -2.949077e-06 0)
(0.067596968 2.779229e-06 0)
(0.066821909 -2.6223908e-06 0)
(0.067548256 2.4731315e-06 0)
(0.066867874 -2.3354433e-06 0)
(0.06750488 2.2046199e-06 0)
(0.066908842 -2.0839305e-06 0)
(0.067466178 1.9695496e-06 0)
(0.066945436 -1.8640308e-06 0)
(0.067431563 1.7643244e-06 0)
(0.066978213 -1.6723914e-06 0)
(0.067400509 1.5858137e-06 0)
(0.06700767 -1.5060871e-06 0)
(0.067372545 1.4312957e-06 0)
(0.067034253 -1.3625775e-06 0)
(0.067347248 1.2984125e-06 0)
(0.067058366 -1.2396667e-06 0)
(0.067324233 1.1851313e-06 0)
(0.067080373 -1.1354676e-06 0)
(0.067303154 1.0897104e-06 0)
(0.067100607 -1.0483682e-06 0)
(0.06728369 1.0106643e-06 0)
(0.067119376 -9.769978e-07 0)
(0.067265548 9.4671248e-07 0)
(0.067136962 -9.2017979e-07 0)
(0.067248452 8.9681446e-07 0)
(0.067153635 -8.7617919e-07 0)
(0.067232138 8.6157698e-07 0)
(0.067169634 -8.4304375e-07 0)
(0.067216315 8.1523213e-07 0)
(0.067185291 -9.8212066e-07 0)
(0.067201556 7.2947527e-07 0)
(0.064736624 0.0065559737 0)
(0.070314265 -0.00043396143 0)
(0.06843835 0.00015033647 0)
(0.071018759 -4.9086138e-06 0)
(0.068697875 -5.0204569e-07 0)
(0.070926683 2.5329401e-07 0)
(0.068927527 -5.3025352e-06 0)
(0.070794492 4.541933e-06 0)
(0.069055533 -5.3235115e-06 0)
(0.070688639 5.0123396e-06 0)
(0.069154412 -4.7245775e-06 0)
(0.070595156 4.4911406e-06 0)
(0.069241716 -4.2046751e-06 0)
(0.070512601 3.9719679e-06 0)
(0.069319231 -3.7340179e-06 0)
(0.070439518 3.5190531e-06 0)
(0.06938801 -3.3147876e-06 0)
(0.070374716 3.122699e-06 0)
(0.069449061 -2.9443371e-06 0)
(0.070317181 2.7747242e-06 0)
(0.069503307 -2.6181968e-06 0)
(0.07026603 2.4691334e-06 0)
(0.069551572 -2.3317203e-06 0)
(0.070220482 2.2010695e-06 0)
(0.06959459 -2.0806189e-06 0)
(0.070179842 1.9663922e-06 0)
(0.069633016 -1.8610796e-06 0)
(0.070143494 1.7615108e-06 0)
(0.069667433 -1.6697553e-06 0)
(0.070110885 1.5832999e-06 0)
(0.069698364 -1.5037257e-06 0)
(0.07008152 1.4290423e-06 0)
(0.069726278 -1.3604544e-06 0)
(0.070054955 1.2963837e-06 0)
(0.069751598 -1.2377487e-06 0)
(0.070030788 1.1832945e-06 0)
(0.069774707 -1.1337238e-06 0)
(0.070008653 1.0880349e-06 0)
(0.069795954 -1.0467691e-06 0)
(0.069988215 1.0091205e-06 0)
(0.069815662 -9.755139e-07 0)
(0.069969165 9.4526855e-07 0)
(0.069834129 -9.1877971e-07 0)
(0.069951214 8.9543089e-07 0)
(0.069851635 -8.7479905e-07 0)
(0.069934086 8.6030167e-07 0)
(0.069868434 -8.4139566e-07 0)
(0.069917483 8.1355408e-07 0)
(0.069884842 -9.8464973e-07 0)
(0.069901764 7.2316468e-07 0)
(0.067768338 0.0065365775 0)
(0.072624462 -0.00047835205 0)
(0.070959352 0.00014248672 0)
(0.073654027 -5.630151e-06 0)
(0.071226413 -6.8319695e-07 0)
(0.073554682 -4.3934883e-07 0)
(0.071461655 -5.1608362e-06 0)
(0.073413353 4.3984537e-06 0)
(0.071594507 -5.2781472e-06 0)