/*--------------------------------*- C++ -*----------------------------------*\
| =========                 |                                                 |
| \\      /  F ield         | OpenFOAM: The Open Source CFD Toolbox           |
|  \\    /   O peration     | Version:  2312                                  |
|   \\  /    A nd           | Website:  www.openfoam.com                      |
|    \\/     M anipulation  |                                                 |
\*---------------------------------------------------------------------------*/
FoamFile
{
    version     2.0;
    format      ascii;
    arch        "LSB;label=32;scalar=64";
    class       volScalarField;
    location    "8";
    object      p;
}
// * * * * * * * * * * * * * * * * * * * * * * * * * * * * * * * * * * * * * //

dimensions      [0 2 -2 0 0 0 0];

internalField   nonuniform List<scalar> 
4000
(
32.453856
30.964684
30.338261
29.322998
28.886059
27.995468
27.578101
26.731833
26.298106
25.478048
25.023724
24.224977
23.751219
22.971179
22.479974
21.716482
21.209756
20.460906
19.940431
19.204516
18.6719
17.947386
17.404078
16.689589
16.136892
15.431192
14.870274
14.172257
13.604167
12.912841
12.338517
11.652992
11.073279
10.392752
9.8084123
9.1321579
8.5438839
7.8712416
7.2796647
6.6100287
6.0157309
5.348541
4.752063
4.0867957
3.4886456
2.8248066
2.2254667
1.5625817
0.96251429
0.30012132
32.444614
30.962876
30.338739
29.322988
28.886048
27.995481
27.578095
26.731842
26.298099
25.478056
25.023717
24.224984
23.751213
22.971184
22.479968
21.716487
21.209751
20.460911
19.940427
19.20452
18.671896
17.94739
17.404075
16.689592
16.136889
15.431195
14.870272
14.17226
13.604164
12.912843
12.338515
11.652994
11.073277
10.392754
9.8084105
9.1321597
8.5438822
7.8712431
7.2796632
6.6100302
6.0157295
5.3485423
4.7520617
4.0867971
3.4886443
2.8248079
2.2254654
1.562583
0.962513
0.30012352
32.422603
30.96148
30.339574
29.322927
28.886053
27.995488
27.578104
26.731841
26.298101
25.478054
25.023718
24.224983
23.751214
22.971183
22.479969
21.716486
21.209752
20.46091
19.940428
19.20452
18.671897
17.947389
17.404075
16.689591
16.136889
15.431194
14.870272
14.172259
13.604165
12.912843
12.338515
11.652993
11.073277
10.392753
9.8084108
9.1321593
8.5438825
7.8712428
7.2796635
6.6100299
6.0157298
5.3485421
4.752062
4.0867968
3.4886446
2.8248076
2.2254656
1.5625828
0.9625131
0.30012425
32.405323
30.960142
30.340452
29.322834
28.88606
27.995494
27.578115
26.731837
26.298106
25.47805
25.023722
24.224979
23.751218
22.97118
22.479972
21.716483
21.209755
20.460907
19.94043
19.204517
18.671899
17.947387
17.404077
16.689589
16.136891
15.431192
14.870274
14.172258
13.604166
12.912841
12.338517
11.652992
11.073278
10.392752
9.8084119
9.1321583
8.5438835
7.8712419
7.2796644
6.610029
6.0157306
5.3485412
4.7520628
4.086796
3.4886454
2.8248068
2.2254664
1.562582
0.96251375
0.30012435
32.382722
30.957922
30.341258
29.322717
28.886064
27.9955
27.578124
26.731833
26.29811
25.478046
25.023726
24.224975
23.751221
22.971177
22.479975
21.71648
21.209757
20.460905
19.940432
19.204515
18.671901
17.947385
17.404079
16.689588
16.136892
15.431191
14.870275
14.172257
13.604168
12.91284
12.338518
11.652991
11.073279
10.392751
9.8084129
9.1321574
8.5438844
7.871241
7.2796652
6.6100282
6.0157314
5.3485405
4.7520635
4.0867953
3.4886461
2.8248062
2.2254671
1.5625812
0.96251437
0.30012438
32.368523
30.95662
30.341995
29.32256
28.886071
27.995507
27.578131
26.731829
26.298113
25.478043
25.023729
24.224973
23.751224
22.971175
22.479977
21.716478
21.209759
20.460903
19.940434
19.204513
18.671902
17.947384
17.40408
16.689586
16.136894
15.43119
14.870276
14.172255
13.604169
12.912839
12.338519
11.65299
11.07328
10.39275
9.8084136
9.1321567
8.5438851
7.8712404
7.2796658
6.6100276
6.015732
5.3485399
4.7520641
4.0867947
3.4886466
2.8248056
2.2254676
1.5625807
0.96251489
0.30012444
32.353009
30.954633
30.342527
29.322417
28.886093
27.995516
27.578137
26.731826
26.298115
25.47804
25.023731
24.224971
23.751226
22.971173
22.479979
21.716476
21.209761
20.460901
19.940436
19.204512
18.671904
17.947382
17.404081
16.689585
16.136895
15.431189
14.870277
14.172255
13.604169
12.912839
12.338519
11.652989
11.073281
10.39275
9.8084142
9.1321561
8.5438856
7.8712398
7.2796664
6.6100271
6.0157325
5.3485394
4.7520645
4.0867943
3.488647
2.8248052
2.225468
1.5625802
0.96251535
0.30012449
32.336229
30.953658
30.342513
29.322478
28.88616
27.995532
27.578143
26.731823
26.298117
25.478038
25.023733
24.224969
23.751227
22.971171
22.479981
21.716475
21.209762
20.4609
19.940437
19.204511
18.671905
17.947381
17.404082
16.689584
16.136896
15.431188
14.870278
14.172254
13.60417
12.912838
12.33852
11.652989
11.073281
10.392749
9.8084147
9.1321556
8.5438861
7.8712394
7.2796668
6.6100267
6.0157329
5.348539
4.7520649
4.0867939
3.4886474
2.8248048
2.2254684
1.5625797
0.96251578
0.30012453
32.319144
30.951795
30.341718
29.322848
28.886263
27.995552
27.57815
26.73182
26.298119
25.478035
25.023734
24.224967
23.751229
22.97117
22.479982
21.716474
21.209763
20.460899
19.940438
19.20451
18.671906
17.947381
17.404083
16.689584
16.136896
15.431187
14.870279
14.172253
13.604171
12.912837
12.33852
11.652988
11.073282
10.392749
9.8084152
9.1321551
8.5438866
7.871239
7.2796672
6.6100263
6.0157333
5.3485387
4.7520653
4.0867935
3.4886478
2.8248044
2.2254687
1.5625794
0.96251618
0.30012455
32.300216
30.950274
30.341278
29.323149
28.886316
27.995559
27.578152
26.731817
26.29812
25.478033
25.023735
24.224966
23.75123
22.971169
22.479983
21.716472
21.209765
20.460898
19.940439
19.204509
18.671907
17.94738
17.404084
16.689583
16.136897
15.431186
14.870279
14.172253
13.604171
12.912837
12.338521
11.652988
11.073282
10.392748
9.8084156
9.1321547
8.5438869
7.8712386
7.2796676
6.6100259
6.0157336
5.3485383
4.7520656
4.0867932
3.4886481
2.8248041
2.225469
1.562579
0.96251655
0.30012455
32.289216
30.947627
30.341678
29.322936
28.886265
27.995542
27.578145
26.73181
26.29812
25.478031
25.023737
24.224964
23.751231
22.971167
22.479984
21.716471
21.209765
20.460897
19.94044
19.204508
18.671907
17.947379
17.404085
16.689582
16.136898
15.431186
14.87028
14.172252
13.604172
12.912836
12.338521
11.652987
11.073283
10.392748
9.808416
9.1321544
8.5438873
7.8712382
7.2796679
6.6100256
6.0157339
5.348538
4.7520659
4.0867929
3.4886484
2.8248039
2.2254693
1.5625787
0.96251691
0.30012455
32.27506
30.945375
30.342047
29.322304
28.886144
27.9955
27.57813
26.731801
26.298119
25.478029
25.023737
24.224963
23.751232
22.971166
22.479985
21.716471
21.209766
20.460896
19.940441
19.204507
18.671908
17.947378
17.404085
16.689582
16.136898
15.431185
14.87028
14.172252
13.604172
12.912836
12.338522
11.652987
11.073283
10.392747
9.8084163
9.132154
8.5438876
7.8712379
7.2796682
6.6100253
6.0157342
5.3485378
4.7520662
4.0867927
3.4886486
2.8248036
2.2254695
1.5625784
0.96251725
0.30012453
32.26446
30.942801
30.341652
29.321728
28.886033
27.995454
27.578112
26.731792
26.298117
25.478026
25.023738
24.224962
23.751233
22.971165
22.479986
21.71647
21.209767
20.460895
19.940441
19.204507
18.671909
17.947378
17.404086
16.689581
16.136899
15.431185
14.870281
14.172251
13.604173
12.912835
12.338522
11.652987
11.073283
10.392747
9.8084166
9.1321538
8.5438879
7.8712377
7.2796685
6.6100251
6.0157345
5.3485375
4.7520664
4.0867925
3.4886489
2.8248034
2.2254698
1.5625782
0.96251756
0.30012451
32.251658
30.940269
30.340653
29.321484
28.885983
27.995422
27.578099
26.731783
26.298115
25.478024
25.023738
24.22496
23.751234
22.971164
22.479987
21.716469
21.209768
20.460895
19.940442
19.204506
18.671909
17.947377
17.404086
16.689581
16.136899
15.431184
14.870281
14.172251
13.604173
12.912835
12.338523
11.652986
11.073284
10.392747
9.8084169
9.1321535
8.5438881
7.8712374
7.2796687
6.6100248
6.0157347
5.3485373
4.7520666
4.0867922
3.4886491
2.8248032
2.22547
1.5625779
0.96251787
0.30012448
32.242924
30.937409
30.339069
29.321494
28.885963
27.9954
27.578087
26.731776
26.298114
25.478022
25.023739
24.224959
23.751235
22.971164
22.479988
21.716468
21.209769
20.460894
19.940442
19.204506
18.67191
17.947377
17.404087
16.68958
16.1369
15.431184
14.870281
14.17225
13.604173
12.912835
12.338523
11.652986
11.073284
10.392747
9.8084172
9.1321532
8.5438884
7.8712372
7.2796689
6.6100246
6.0157349
5.3485371
4.7520668
4.0867921
3.4886493
2.824803
2.2254701
1.5625777
0.96251816
0.30012445
32.232677
30.934588
30.337378
29.321486
28.8859
27.995367
27.578071
26.731766
26.298111
25.478019
25.023739
24.224958
23.751235
22.971163
22.479988
21.716468
21.209769
20.460894
19.940443
19.204505
18.67191
17.947376
17.404087
16.68958
16.1369
15.431184
14.870282
14.17225
13.604174
12.912835
12.338523
11.652986
11.073284
10.392746
9.8084174
9.132153
8.5438886
7.871237
7.2796691
6.6100244
6.0157351
5.3485369
4.752067
4.0867919
3.4886494
2.8248028
2.2254703
1.5625775
0.96251843
0.30012441
32.225406
30.931588
30.335951
29.321216
28.885735
27.99531
27.578044
26.731753
26.298107
25.478016
25.023739
24.224957
23.751236
22.971162
22.479989
21.716467
21.20977
20.460893
19.940443
19.204505
18.671911
17.947376
17.404088
16.689579
16.1369
15.431183
14.870282
14.17225
13.604174
12.912834
12.338523
11.652985
11.073284
10.392746
9.8084176
9.1321528
8.5438888
7.8712368
7.2796693
6.6100243
6.0157352
5.3485368
4.7520671
4.0867917
3.4886496
2.8248027
2.2254704
1.5625774
0.96251869
0.30012437
32.216965
30.928583
30.335062
29.320679
28.885483
27.995236
27.57801
26.731738
26.298101
25.478013
25.023738
24.224956
23.751236
22.971161
22.479989
21.716466
21.20977
20.460893
19.940444
19.204504
18.671911
17.947375
17.404088
16.689579
16.136901
15.431183
14.870282
14.17225
13.604174
12.912834
12.338524
11.652985
11.073285
10.392746
9.8084178
9.1321526
8.543889
7.8712366
7.2796695
6.6100241
6.0157354
5.3485366
4.7520673
4.0867916
3.4886497
2.8248025
2.2254706
1.5625772
0.96251894
0.30012432
32.21094
30.925715
30.334345
29.320097
28.885237
27.995168
27.577979
26.731725
26.298096
25.478009
25.023737
24.224954
23.751236
22.971161
22.47999
21.716466
21.209771
20.460892
19.940444
19.204504
18.671911
17.947375
17.404088
16.689579
16.136901
15.431183
14.870283
14.172249
13.604174
12.912834
12.338524
11.652985
11.073285
10.392746
9.808418
9.1321525
8.5438891
7.8712365
7.2796696
6.610024
6.0157355
5.3485365
4.7520674
4.0867914
3.4886499
2.8248024
2.2254707
1.5625771
0.96251917
0.30012428
32.204219
30.923016
30.333565
29.319643
28.885055
27.995118
27.577955
26.731718
26.298093
25.478007
25.023737
24.224953
23.751237
22.97116
22.47999
21.716465
21.209771
20.460892
19.940445
19.204503
18.671912
17.947375
17.404089
16.689578
16.136901
15.431183
14.870283
14.172249
13.604175
12.912834
12.338524
11.652985
11.073285
10.392746
9.8084182
9.1321523
8.5438893
7.8712363
7.2796698
6.6100238
6.0157357
5.3485363
4.7520676
4.0867913
3.48865
2.8248022
2.2254708
1.562577
0.9625194
0.30012423
32.19932
30.920683
30.332622
29.319293
28.884925
27.995081
27.577938
26.731715
26.298091
25.478005
25.023737
24.224953
23.751237
22.971159
22.479991
21.716465
21.209771
20.460891
19.940445
19.204503
18.671912
17.947374
17.404089
16.689578
16.136901
15.431182
14.870283
14.172249
13.604175
12.912833
12.338524
11.652985
11.073285
10.392745
9.8084183
9.1321522
8.5438894
7.8712362
7.2796699
6.6100237
6.0157358
5.3485362
4.7520677
4.0867912
3.4886501
2.8248021
2.2254709
1.5625769
0.96251961
0.30012418
32.194067
30.918433
30.331693
29.318987
28.884821
27.995052
27.577923
26.731716
26.298091
25.478004
25.023737
24.224952
23.751237
22.971159
22.479991
21.716464
21.209772
20.460891
19.940445
19.204503
18.671912
17.947374
17.404089
16.689578
16.136902
15.431182
14.870283
14.172249
13.604175
12.912833
12.338524
11.652985
11.073285
10.392745
9.8084185
9.132152
8.5438896
7.8712361
7.27967
6.6100236
6.0157359
5.3485361
4.7520678
4.0867911
3.4886502
2.824802
2.225471
1.5625768
0.96251981
0.30012414
32.190097
30.916566
30.330786
29.318698
28.884727
27.995027
27.577908
26.731718
26.298091
25.478003
25.023737
24.224951
23.751238
22.971158
22.479991
21.716464
21.209772
20.460891
19.940446
19.204503
18.671913
17.947374
17.404089
16.689578
16.136902
15.431182
14.870284
14.172249
13.604175
12.912833
12.338525
11.652984
11.073286
10.392745
9.8084186
9.1321519
8.5438897
7.871236
7.2796701
6.6100235
6.015736
5.348536
4.7520679
4.086791
3.4886503
2.8248019
2.2254711
1.5625767
0.96252
0.30012409
32.186055
30.914671
30.329985
29.318435
28.884642
27.995005
27.577892
26.731721
26.298091
25.478003
25.023738
24.224951
23.751238
22.971158
22.479991
21.716464
21.209772
20.46089
19.940446
19.204502
18.671913
17.947374
17.40409
16.689577
16.136902
15.431182
14.870284
14.172248
13.604175
12.912833
12.338525
11.652984
11.073286
10.392745
9.8084187
9.1321518
8.5438898
7.8712358
7.2796702
6.6100234
6.0157361
5.3485359
4.752068
4.0867909
3.4886504
2.8248018
2.2254712
1.5625766
0.96252017
0.30012405
32.182835
30.913203
30.329244
29.318198
28.884568
27.994985
27.577876
26.731724
26.298092
25.478003
25.023738
24.22495
23.751238
22.971157
22.479992
21.716463
21.209773
20.46089
19.940446
19.204502
18.671913
17.947373
17.40409
16.689577
16.136902
15.431181
14.870284
14.172248
13.604176
12.912833
12.338525
11.652984
11.073286
10.392745
9.8084188
9.1321517
8.5438899
7.8712357
7.2796703
6.6100233
6.0157362
5.3485358
4.7520681
4.0867908
3.4886505
2.8248018
2.2254713
1.5625765
0.96252034
0.300124
32.179774
30.911641
30.328602
29.317994
28.884504
27.994969
27.577862
26.731726
26.298093
25.478003
25.023739
24.22495
23.751238
22.971157
22.479992
21.716463
21.209773
20.46089
19.940446
19.204502
18.671913
17.947373
17.40409
16.689577
16.136902
15.431181
14.870284
14.172248
13.604176
12.912833
12.338525
11.652984
11.073286
10.392745
9.8084189
9.1321516
8.54389
7.8712357
7.2796704
6.6100232
6.0157363
5.3485357
4.7520681
4.0867907
3.4886505
2.8248017
2.2254713
1.5625765
0.9625205
0.30012396
32.177139
30.910543
30.328025
29.317817
28.884451
27.994956
27.577849
26.731728
26.298094
25.478004
25.023739
24.22495
23.751239
22.971157
22.479992
21.716463
21.209773
20.460889
19.940447
19.204502
18.671914
17.947373
17.40409
16.689577
16.136903
15.431181
14.870284
14.172248
13.604176
12.912832
12.338525
11.652984
11.073286
10.392745
9.808419
9.1321515
8.5438901
7.8712356
7.2796705
6.6100231
6.0157364
5.3485357
4.7520682
4.0867907
3.4886506
2.8248016
2.2254714
1.5625764
0.96252064
0.30012392
32.17487
30.909286
30.327533
29.31767
28.884409
27.994946
27.577838
26.731729
26.298094
25.478006
25.02374
24.22495
23.751239
22.971156
22.479992
21.716462
21.209773
20.460889
19.940447
19.204501
18.671914
17.947373
17.40409
16.689577
16.136903
15.431181
14.870284
14.172248
13.604176
12.912832
12.338525
11.652984
11.073286
10.392745
9.8084191
9.1321514
8.5438901
7.8712355
7.2796706
6.610023
6.0157364
5.3485356
4.7520683
4.0867906
3.4886507
2.8248015
2.2254715
1.5625764
0.96252077
0.30012388
32.172663
30.908503
30.327108
29.317548
28.884376
27.994939
27.57783
26.731731
26.298094
25.478008
25.023741
24.224949
23.751239
22.971156
22.479993
21.716462
21.209773
20.460889
19.940447
19.204501
18.671914
17.947373
17.404091
16.689577
16.136903
15.431181
14.870284
14.172248
13.604176
12.912832
12.338525
11.652984
11.073286
10.392744
9.8084192
9.1321513
8.5438902
7.8712354
7.2796706
6.610023
6.0157365
5.3485355
4.7520683
4.0867905
3.4886507
2.8248015
2.2254715
1.5625763
0.96252089
0.30012385
32.17108
30.907507
30.326749
29.317451
28.884351
27.994934
27.577824
26.731732
26.298093
25.47801
25.023742
24.224949
23.751239
22.971156
22.479993
21.716462
21.209774
20.460889
19.940447
19.204501
18.671914
17.947373
17.404091
16.689576
16.136903
15.431181
14.870285
14.172248
13.604176
12.912832
12.338525
11.652984
11.073286
10.392744
9.8084193
9.1321513
8.5438903
7.8712354
7.2796707
6.6100229
6.0157366
5.3485355
4.7520684
4.0867905
3.4886508
2.8248014
2.2254716
1.5625763
0.962521
0.30012382
32.169119
30.906946
30.326452
29.317374
28.884334
27.994931
27.577819
26.731734
26.298091
25.478012
25.023742
24.224949
23.75124
22.971155
22.479993
21.716462
21.209774
20.460889
19.940447
19.204501
18.671914
17.947372
17.404091
16.689576
16.136903
15.431181
14.870285
14.172247
13.604176
12.912832
12.338525
11.652984
11.073286
10.392744
9.8084193
9.1321512
8.5438903
7.8712353
7.2796707
6.6100229
6.0157366
5.3485354
4.7520684
4.0867904
3.4886508
2.8248014
2.2254716
1.5625763
0.9625211
0.30012379
32.168071
30.906189
30.326212
29.317319
28.884325
27.994931
27.577816
26.731736
26.29809
25.478014
25.023743
24.224949
23.75124
22.971155
22.479993
21.716461
21.209774
20.460888
19.940447
19.204501
18.671914
17.947372
17.404091
16.689576
16.136903
15.431181
14.870285
14.172247
13.604176
12.912832
12.338525
11.652983
11.073286
10.392744
9.8084194
9.1321511
8.5438904
7.8712353
7.2796708
6.6100228
6.0157367
5.3485354
4.7520685
4.0867904
3.4886509
2.8248013
2.2254716
1.5625762
0.96252118
0.30012376
32.166395
30.905813
30.326031
29.317283
28.884323
27.994933
27.577814
26.731738
26.298088
25.478016
25.023744
24.22495
23.75124
22.971155
22.479993
21.716461
21.209774
20.460888
19.940447
19.204501
18.671914
17.947372
17.404091
16.689576
16.136903
15.431181
14.870285
14.172247
13.604176
12.912832
12.338526
11.652983
11.073286
10.392744
9.8084194
9.1321511
8.5438904
7.8712352
7.2796708
6.6100228
6.0157367
5.3485353
4.7520685
4.0867904
3.4886509
2.8248013
2.2254717
1.5625762
0.96252125
0.30012374
32.165694
30.905273
30.325901
29.317266
28.884326
27.994937
27.577814
26.731741
26.298086
25.478018
25.023745
24.22495
23.75124
22.971155
22.479993
21.716461
21.209774
20.460888
19.940448
19.2045
18.671914
17.947372
17.404091
16.689576
16.136903
15.43118
14.870285
14.172247
13.604176
12.912832
12.338526
11.652983
11.073287
10.392744
9.8084195
9.1321511
8.5438905
7.8712352
7.2796709
6.6100227
6.0157367
5.3485353
4.7520686
4.0867903
3.4886509
2.8248013
2.2254717
1.5625762
0.9625213
0.30012372
32.164417
30.905072
30.32582
29.317263
28.884335
27.994943
27.577814
26.731743
26.298084
25.478019
25.023746
24.22495
23.751241
22.971155
22.479993
21.716461
21.209774
20.460888
19.940448
19.2045
18.671915
17.947372
17.404091
16.689576
16.136903
15.43118
14.870285
14.172247
13.604176
12.912832
12.338526
11.652983
11.073287
10.392744
9.8084195
9.132151
8.5438905
7.8712351
7.2796709
6.6100227
6.0157368
5.3485353
4.7520686
4.0867903
3.488651
2.8248013
2.2254717
1.5625762
0.96252134
0.30012372
32.164036
30.904696
30.325773
29.317273
28.884347
27.99495
27.577816
26.731746
26.298083
25.47802
25.023747
24.22495
23.751241
22.971155
22.479993
21.716461
21.209774
20.460888
19.940448
19.2045
18.671915
17.947372
17.404091
16.689576
16.136903
15.43118
14.870285
14.172247
13.604177
12.912832
12.338526
11.652983
11.073287
10.392744
9.8084195
9.132151
8.5438905
7.8712351
7.2796709
6.6100227
6.0157368
5.3485353
4.7520686
4.0867903
3.488651
2.8248012
2.2254717
1.5625762
0.96252135
0.30012371
32.163149
30.904621
30.325758
29.317289
28.884361
27.994957
27.577818
26.731748
26.298083
25.478021
25.023748
24.224951
23.751241
22.971155
22.479993
21.716461
21.209774
20.460888
19.940448
19.2045
18.671915
17.947372
17.404091
16.689576
16.136904
15.43118
14.870285
14.172247
13.604177
12.912832
12.338526
11.652983
11.073287
10.392744
9.8084196
9.132151
8.5438906
7.8712351
7.2796709
6.6100227
6.0157368
5.3485353
4.7520686
4.0867903
3.488651
2.8248012
2.2254717
1.5625762
0.96252133
0.30012372
32.163096
30.904348
30.325753
29.317307
28.884374
27.994963
27.57782
26.73175
26.298082
25.478021
25.023749
24.224951
23.751241
22.971154
22.479993
21.716461
21.209774
20.460888
19.940448
19.2045
18.671915
17.947372
17.404091
16.689576
16.136904
15.43118
14.870285
14.172247
13.604177
12.912832
12.338526
11.652983
11.073287
10.392744
9.8084196
9.132151
8.5438906
7.8712351
7.279671
6.6100227
6.0157368
5.3485352
4.7520686
4.0867903
3.488651
2.8248012
2.2254717
1.5625762
0.96252129
0.30012374
32.162556
30.90436
30.325761
29.317323
28.884384
27.994968
27.577822
26.731751
26.298082
25.478021
25.023749
24.224951
23.751241
22.971154
22.479993
21.71646
21.209774
20.460888
19.940448
19.2045
18.671915
17.947372
17.404091
16.689576
16.136904
15.43118
14.870285
14.172247
13.604177
12.912832
12.338526
11.652983
11.073287
10.392744
9.8084196
9.132151
8.5438906
7.8712351
7.2796709
6.6100227
6.0157368
5.3485353
4.7520686
4.0867903
3.488651
2.8248013
2.2254717
1.5625762
0.96252124
0.30012376
32.162779
30.904191
30.325761
29.317332
28.88439
27.99497
27.577823
26.731752
26.298082
25.478021
25.023749
24.224952
23.751241
22.971154
22.479993
21.71646
21.209774
20.460888
19.940448
19.2045
18.671915
17.947372
17.404091
16.689576
16.136904
15.43118
14.870285
14.172247
13.604177
12.912832
12.338526
11.652983
11.073287
10.392744
9.8084196
9.132151
8.5438906
7.8712351
7.2796709
6.6100227
6.0157368
5.3485353
4.7520686
4.0867903
3.488651
2.8248013
2.2254717
1.5625762
0.9625212
0.30012378
32.162488
30.904287
30.325763
29.317332
28.88439
27.99497
27.577823
26.731752
26.298082
25.478021
25.023749
24.224952
23.751241
22.971154
22.479993
21.71646
21.209774
20.460888
19.940448
19.2045
18.671915
17.947372
17.404091
16.689576
16.136904
15.43118
14.870285
14.172247
13.604177
12.912832
12.338526
11.652983
11.073287
10.392744
9.8084196
9.132151
8.5438906
7.8712351
7.2796709
6.6100227
6.0157368
5.3485353
4.7520686
4.0867903
3.488651
2.8248013
2.2254717
1.5625762
0.9625212
0.30012378
32.162934
30.904185
30.325752
29.317323
28.884384
27.994968
27.577822
26.731751
26.298082
25.478021
25.023749
24.224951
23.751241
22.971154
22.479993
21.71646
21.209774
20.460888
19.940448
19.2045
18.671915
17.947372
17.404091
16.689576
16.136904
15.43118
14.870285
14.172247
13.604177
12.912832
12.338526
11.652983
11.073287
10.392744
9.8084196
9.132151
8.5438906
7.8712351
7.2796709
6.6100227
6.0157368
5.3485353
4.7520686
4.0867903
3.488651
2.8248013
2.2254717
1.5625762
0.96252124
0.30012376
32.162878
30.904374
30.325747
29.317307
28.884374
27.994963
27.57782
26.73175
26.298082
25.478021
25.023749
24.224951
23.751241
22.971154
22.479993
21.716461
21.209774
20.460888
19.940448
19.2045
18.671915
17.947372
17.404091
16.689576
16.136904
15.43118
14.870285
14.172247
13.604177
12.912832
12.338526
11.652983
11.073287
10.392744
9.8084196
9.132151
8.5438906
7.8712351
7.279671
6.6100227
6.0157368
5.3485352
4.7520686
4.0867903
3.488651
2.8248012
2.2254717
1.5625762
0.96252129
0.30012374
32.163607
30.904381
30.325741
29.31729
28.884361
27.994957
27.577818
26.731748
26.298082
25.478021
25.023748
24.224951
23.751241
22.971155
22.479993
21.716461
21.209774
20.460888
19.940448
19.2045
18.671915
17.947372
17.404091
16.689576
16.136904
15.43118
14.870285
14.172247
13.604177
12.912832
12.338526
11.652983
11.073287
10.392744
9.8084196
9.132151
8.5438906
7.8712351
7.2796709
6.6100227
6.0157368
5.3485353
4.7520686
4.0867903
3.488651
2.8248012
2.2254717
1.5625762
0.96252133
0.30012372
32.163874
30.904664
30.32576
29.317274
28.884348
27.99495
27.577816
26.731746
26.298083
25.47802
25.023747
24.22495
23.751241
22.971155
22.479993
21.716461
21.209774
20.460888
19.940448
19.2045
18.671915
17.947372
17.404091
16.689576
16.136903
15.43118
14.870285
14.172247
13.604177
12.912832
12.338526
11.652983
11.073287
10.392744
9.8084195
9.132151
8.5438905
7.8712351
7.2796709
6.6100227
6.0157368
5.3485353
4.7520686
4.0867903
3.488651
2.8248012
2.2254717
1.5625762
0.96252135
0.30012371
32.164973
30.904769
30.325798
29.317266
28.884336
27.994944
27.577814
26.731744
26.298084
25.478019
25.023746
24.22495
23.751241
22.971155
22.479993
21.716461
21.209774
20.460888
19.940448
19.2045
18.671915
17.947372
17.404091
16.689576
16.136903
15.43118
14.870285
14.172247
13.604176
12.912832
12.338526
11.652983
11.073287
10.392744
9.8084195
9.132151
8.5438905
7.8712351
7.2796709
6.6100227
6.0157368
5.3485353
4.7520686
4.0867903
3.488651
2.8248013
2.2254717
1.5625762
0.96252134
0.30012372
32.16557
30.905181
30.325883
29.317268
28.884328
27.994938
27.577814
26.731741
26.298086
25.478018
25.023745
24.22495
23.75124
22.971155
22.479993
21.716461
21.209774
20.460888
19.940448
19.2045
18.671914
17.947372
17.404091
16.689576
16.136903
15.43118
14.870285
14.172247
13.604176
12.912832
12.338526
11.652983
11.073287
10.392744
9.8084195
9.1321511
8.5438905
7.8712352
7.2796709
6.6100227
6.0157367
5.3485353
4.7520686
4.0867903
3.4886509
2.8248013
2.2254717
1.5625762
0.9625213
0.30012372
32.167064
30.905442
30.326004
29.317287
28.884324
27.994934
27.577814
26.731738
26.298087
25.478016
25.023744
24.224949
23.75124
22.971155
22.479993
21.716461
21.209774
20.460888
19.940447
19.204501
18.671914
17.947372
17.404091
16.689576
16.136903
15.431181
14.870285
14.172247
13.604176
12.912832
12.338526
11.652983
11.073286
10.392744
9.8084194
9.1321511
8.5438904
7.8712352
7.2796708
6.6100228
6.0157367
5.3485353
4.7520685
4.0867904
3.4886509
2.8248013
2.2254717
1.5625762
0.96252125
0.30012374
32.167989
30.906046
30.326189
29.317323
28.884327
27.994933
27.577816
26.731736
26.29809
25.478014
25.023743
24.224949
23.75124
22.971155
22.479993
21.716461
21.209774
20.460888
19.940447
19.204501
18.671914
17.947372
17.404091
16.689576
16.136903
15.431181
14.870285
14.172247
13.604176
12.912832
12.338525
11.652983
11.073286
10.392744
9.8084194
9.1321511
8.5438904
7.8712353
7.2796708
6.6100228
6.0157367
5.3485354
4.7520685
4.0867904
3.4886509
2.8248013
2.2254716
1.5625762
0.96252118
0.30012376
32.169815
30.906484
30.32642
29.31738
28.884337
27.994933
27.57782
26.731734
26.298091
25.478012
25.023742
24.224949
23.75124
22.971155
22.479993
21.716462
21.209774
20.460889
19.940447
19.204501
18.671914
17.947372
17.404091
16.689576
16.136903
15.431181
14.870285
14.172247
13.604176
12.912832
12.338525
11.652984
11.073286
10.392744
9.8084193
9.1321512
8.5438903
7.8712353
7.2796707
6.6100229
6.0157366
5.3485354
4.7520684
4.0867904
3.4886508
2.8248014
2.2254716
1.5625763
0.9625211
0.30012379
32.171186
30.907325
30.326721
29.317457
28.884354
27.994936
27.577824
26.731732
26.298093
25.47801
25.023741
24.224949
23.751239
22.971156
22.479993
21.716462
21.209774
20.460889
19.940447
19.204501
18.671914
17.947373
17.404091
16.689576
16.136903
15.431181
14.870285
14.172248
13.604176
12.912832
12.338525
11.652984
11.073286
10.392744
9.8084193
9.1321513
8.5438903
7.8712354
7.2796707
6.6100229
6.0157366
5.3485355
4.7520684
4.0867905
3.4886508
2.8248014
2.2254716
1.5625763
0.962521
0.30012382
32.17324
30.90795
30.327072
29.317557
28.884379
27.994941
27.577831
26.731731
26.298094
25.478008
25.023741
24.224949
23.751239
22.971156
22.479993
21.716462
21.209773
20.460889
19.940447
19.204501
18.671914
17.947373
17.404091
16.689577
16.136903
15.431181
14.870284
14.172248
13.604176
12.912832
12.338525
11.652984
11.073286
10.392744
9.8084192
9.1321513
8.5438902
7.8712354
7.2796706
6.610023
6.0157365
5.3485355
4.7520683
4.0867905
3.4886507
2.8248015
2.2254715
1.5625763
0.96252089
0.30012385
32.175267
30.909046
30.327497
29.317678
28.884412
27.994948
27.577839
26.73173
26.298094
25.478006
25.02374
24.224949
23.751239
22.971156
22.479992
21.716462
21.209773
20.460889
19.940447
19.204501
18.671914
17.947373
17.40409
16.689577
16.136903
15.431181
14.870284
14.172248
13.604176
12.912832
12.338525
11.652984
11.073286
10.392745
9.8084191
9.1321514
8.5438901
7.8712355
7.2796706
6.610023
6.0157364
5.3485356
4.7520683
4.0867906
3.4886507
2.8248015
2.2254715
1.5625764
0.96252077
0.30012388
32.177644
30.909937
30.32799
29.317828
28.884455
27.994958
27.57785
26.731728
26.298094
25.478004
25.023739
24.22495
23.751239
22.971157
22.479992
21.716463
21.209773
20.460889
19.940447
19.204502
18.671914
17.947373
17.40409
16.689577
16.136903
15.431181
14.870284
14.172248
13.604176
12.912832
12.338525
11.652984
11.073286
10.392745
9.808419
9.1321515
8.5438901
7.8712356
7.2796705
6.6100231
6.0157364
5.3485357
4.7520682
4.0867907
3.4886506
2.8248016
2.2254714
1.5625764
0.96252064
0.30012392
32.18041
30.911324
30.328559
29.318004
28.884508
27.994971
27.577863
26.731727
26.298093
25.478003
25.023739
24.22495
23.751238
22.971157
22.479992
21.716463
21.209773
20.46089
19.940446
19.204502
18.671913
17.947373
17.40409
16.689577
16.136902
15.431181
14.870284
14.172248
13.604176
12.912833
12.338525
11.652984
11.073286
10.392745
9.8084189
9.1321516
8.54389
7.8712357
7.2796704
6.6100232
6.0157363
5.3485357
4.7520681
4.0867907
3.4886505
2.8248017
2.2254713
1.5625765
0.9625205
0.30012396
32.183301
30.912561
30.329213
29.318212
28.884572
27.994988
27.577877
26.731724
26.298092
25.478003
25.023738
24.22495
23.751238
22.971157
22.479992
21.716463
21.209773
20.46089
19.940446
19.204502
18.671913
17.947373
17.40409
16.689577
16.136902
15.431181
14.870284
14.172248
13.604176
12.912833
12.338525
11.652984
11.073286
10.392745
9.8084188
9.1321517
8.5438899
7.8712357
7.2796703
6.6100233
6.0157362
5.3485358
4.7520681
4.0867908
3.4886505
2.8248018
2.2254713
1.5625765
0.96252034
0.300124
32.186964
30.914278
30.329937
29.318447
28.884647
27.995007
27.577893
26.731721
26.298091
25.478003
25.023738
24.224951
23.751238
22.971158
22.479991
21.716464
21.209772
20.46089
19.940446
19.204502
18.671913
17.947374
17.40409
16.689577
16.136902
15.431182
14.870284
14.172248
13.604175
12.912833
12.338525
11.652984
11.073286
10.392745
9.8084187
9.1321518
8.5438898
7.8712358
7.2796702
6.6100234
6.0157361
5.3485359
4.752068
4.0867909
3.4886504
2.8248018
2.2254712
1.5625766
0.96252017
0.30012405
32.190513
30.9159
30.330761
29.318714
28.884732
27.99503
27.577909
26.731718
26.298091
25.478003
25.023737
24.224951
23.751238
22.971158
22.479991
21.716464
21.209772
20.460891
19.940446
19.204503
18.671913
17.947374
17.404089
16.689578
16.136902
15.431182
14.870284
14.172249
13.604175
12.912833
12.338525
11.652984
11.073286
10.392745
9.8084186
9.1321519
8.5438897
7.871236
7.2796701
6.6100235
6.015736
5.348536
4.7520679
4.086791
3.4886503
2.8248019
2.2254711
1.5625767
0.96252
0.30012409
32.195284
30.917964
30.331641
29.319001
28.884825
27.995055
27.577924
26.731716
26.298091
25.478004
25.023737
24.224952
23.751237
22.971159
22.479991
21.716464
21.209772
20.460891
19.940445
19.204503
18.671912
17.947374
17.404089
16.689578
16.136902
15.431182
14.870283
14.172249
13.604175