/*--------------------------------*- C++ -*----------------------------------*\
| =========                 |                                                 |
| \\      /  F ield         | OpenFOAM: The Open Source CFD Toolbox           |
|  \\    /   O peration     | Version:  2312                                  |
|   \\  /    A nd           | Website:  www.openfoam.com                      |
|    \\/     M anipulation  |                                                 |
\*---------------------------------------------------------------------------*/
FoamFile
{
    version     2.0;
    format      ascii;
    arch        "LSB;label=32;scalar=64";
    class       volScalarField;
    location    "8";
    object      T;
}
// * * * * * * * * * * * * * * * * * * * * * * * * * * * * * * * * * * * * * //

dimensions      [0 0 0 1 0 0 0];

internalField   nonuniform List<scalar> 
4000
(
310.51918
311.79572
311.99456
312.07673
312.13476
312.18902
312.2307
312.27493
312.30995
312.34939
312.38131
312.4179
312.44806
312.48274
312.51177
312.54509
312.57335
312.60567
312.63338
312.66491
312.69221
312.72314
312.75011
312.78055
312.80727
312.83731
312.86381
312.89354
312.91985
312.94931
312.97547
313.00471
313.03072
313.05979
313.08566
313.11459
313.14032
313.16915
313.19475
313.2235
313.24896
313.27766
313.30299
313.33167
313.35683
313.38555
313.4105
313.43936
313.4639
313.49353
308.30578
310.50183
311.03913
311.23363
311.35558
311.46622
311.53927
311.61986
311.67294
311.73919
311.78299
311.8407
311.87919
311.93119
311.9663
312.01423
312.04703
312.09193
312.12308
312.16565
312.19555
312.23631
312.26524
312.30453
312.33269
312.3708
312.39831
312.43546
312.46241
312.49877
312.52524
312.56095
312.58697
312.62216
312.64777
312.68255
312.70775
312.74221
312.76702
312.80124
312.82564
312.85972
312.8837
312.91774
312.94121
312.97537
312.99819
313.03277
313.0544
313.09117
306.8966
309.24793
310.09085
310.39472
310.57944
310.74565
310.84989
310.9664
311.03755
311.13033
311.18605
311.26467
311.31156
311.3807
311.42195
311.48435
311.52175
311.57913
311.61376
311.66729
311.69984
311.75034
311.78128
311.82935
311.85899
311.90511
311.93366
311.97818
312.00581
312.04902
312.07583
312.11797
312.14403
312.18531
312.21067
312.25126
312.27596
312.31601
312.34005
312.37972
312.40308
312.44252
312.46516
312.50453
312.52634
312.56591
312.58664
312.62689
312.64565
312.68928
305.94062
308.07176
309.16139
309.5663
309.81074
310.03049
310.16526
310.31672
310.40577
310.52445
310.59207
310.69116
310.74647
310.83243
310.87988
310.95648
310.99855
311.06819
311.10637
311.17066
311.20594
311.26603
311.29903
311.35576
311.38693
311.44094
311.47059
311.52238
311.55072
311.6007
311.62789
311.67639
311.70253
311.74982
311.77499
311.82133
311.84555
311.89115
311.91445
311.95951
311.98186
312.0266
312.04794
312.0926
312.11278
312.1577
312.17637
312.22224
312.23823
312.28829
305.26208
307.00542
308.26596
308.75707
309.05556
309.32522
309.48905
309.67377
309.78022
309.92378
310.00312
310.12195
310.18565
310.28788
310.34155
310.43193
310.4787
310.56026
310.60206
310.67684
310.71488
310.78433
310.81946
310.88464
310.91741
310.97914
311.00994
311.06885
311.09797
311.15458
311.1822
311.23693
311.2632
311.31641
311.34141
311.3934
311.4172
311.46825
311.49086
311.54123
311.56261
311.61258
311.63266
311.68252
311.70113
311.75131
311.76801
311.81936
311.83274
311.88875
304.76582
306.07263
307.42084
307.97738
308.32127
308.63536
308.82575
309.04121
309.16413
309.33105
309.42169
309.55924
309.63114
309.74888
309.80868
309.91226
309.96372
310.05674
310.10216
310.18704
310.2279
310.30638
310.34368
310.41704
310.45144
310.52066
310.55266
310.61849
310.64842
310.71149
310.73959
310.8004
310.82685
310.88582
310.91072
310.96823
310.99164
311.04803
311.06998
311.12555
311.14602
311.2011
311.21999
311.27494
311.29203
311.34735
311.36217
311.41884
311.42984
311.49124
304.39412
305.28478
306.6412
307.23829
307.61607
307.96719
308.18049
308.42327
308.56119
308.74944
308.85067
309.00556
309.08528
309.21753
309.28327
309.39927
309.45533
309.55918
309.60819
309.70268
309.74634
309.83344
309.87291
309.95411
309.99017
310.06658
310.09981
310.17229
310.20308
310.27237
310.301
310.36767
310.39434
310.45889
310.48372
310.54658
310.56967
310.63123
310.65259
310.71321
310.73282
310.79286
310.81062
310.87051
310.88618
310.94648
310.95953
311.02129
311.03017
311.09642
304.11124
304.64405
305.9392
306.55046
306.94835
307.32737
307.55879
307.82459
307.97542
308.18245
308.2932
308.4637
308.55064
308.69615
308.76748
308.89496
308.9554
309.06934
309.1218
309.22529
309.27168
309.3669
309.40851
309.49711
309.53483
309.61805
309.65251
309.73134
309.763
309.83823
309.8674
309.93969
309.96661
310.03651
310.06132
310.12933
310.15213
310.21866
310.23948
310.30496
310.32378
310.3886
310.40531
310.46994
310.48429
310.54935
310.56079
310.62735
310.63443
310.705
303.89222
304.1421
305.32272
305.92306
306.32599
306.72251
306.96623
307.24995
307.41104
307.63378
307.75261
307.93665
308.02997
308.18724
308.26364
308.40145
308.46593
308.58907
308.64478
308.75653
308.80551
308.90825
308.95191
309.0474
309.08672
309.17632
309.21199
309.29677
309.32929
309.41013
309.43985
309.51746
309.54464
309.61963
309.64444
309.71734
309.73989
309.81117
309.8315
309.90161
309.9197
309.98908
310.00482
310.07397
310.08711
310.15668
310.16668
310.23771
310.2433
310.3177
303.71994
303.76456
304.79496
305.3628
305.75572
306.15869
306.40817
306.70406
306.87223
307.10716
307.23228
307.42749
307.52608
307.69338
307.77414
307.92096
307.98903
308.12032
308.17895
308.29813
308.34949
308.45904
308.50461
308.6064
308.64721
308.74269
308.7795
308.8698
308.90314
308.98919
309.01945
309.10203
309.12947
309.20923
309.23406
309.31155
309.33388
309.40963
309.42952
309.50399
309.52142
309.5951
309.60996
309.68336
309.69541
309.76919
309.77793
309.85306
309.85747
309.93524
303.58188
303.49205
304.35448
304.87334
305.24253
305.641
305.88936
306.1913
306.36294
306.60622
306.7355
306.93923
307.04177
307.21716
307.3014
307.45577
307.52681
307.66509
307.72621
307.85188
307.9053
308.02089
308.06813
308.17557
308.21771
308.3185
308.35633
308.45166
308.48573
308.57657
308.6073
308.69446
308.72215
308.80631
308.83115
308.91291
308.93505
309.01495
309.03443
309.11297
309.12979
309.20747
309.22154
309.29888
309.30997
309.38762
309.3953
309.47412
309.47764
309.55838
303.46891
303.30349
303.99592
304.45504
304.78936
305.17323
305.41367
305.71544
305.8867
306.13426
306.26536
306.47476
306.57971
306.7611
306.84777
307.00806
307.08134
307.22533
307.28842
307.41953
307.47462
307.59539
307.64401
307.75637
307.79963
307.9051
307.94379
308.0436
308.07829
308.17343
308.20456
308.29585
308.32373
308.4119
308.43673
308.52239
308.54432
308.62803
308.64713
308.7294
308.74567
308.82702
308.84037
308.92132
308.93157
309.01273
309.01953
309.10163
309.1045
309.18784
303.37447
303.17808
303.71081
304.10524
304.3969
304.75752
304.98379
305.27941
305.44643
305.69415
305.82457
306.03668
306.14236
306.32753
306.41545
306.57996
306.65462
306.80295
306.86738
307.00281
307.05911
307.18411
307.23377
307.35025
307.39435
307.50383
307.54317
307.64685
307.68201
307.78091
307.81233
307.90729
307.93527
308.02701
308.05179
308.14094
308.16266
308.24979
308.26852
308.35416
308.36992
308.45456
308.46729
308.55147
308.56101
308.64528
308.65138
308.73632
308.73877
308.82435
303.29371
303.0971
303.48894
303.81882
304.06356
304.39433
304.60112
304.88518
305.04425
305.28814
305.41535
305.62721
305.73184
305.91854
306.00643
306.17337
306.24847
306.39972
306.46477
306.60335
306.66031
306.78857
306.83884
306.9586
307.00323
307.11597
307.15571
307.26263
307.29807
307.40016
307.43173
307.52983
307.55783
307.65266
307.67732
307.76952
307.79099
307.88112
307.89949
307.98808
308.00338
308.09092
308.1031
308.1901
308.19904
308.286
308.29157
308.37893
308.38111
308.46862
303.22332
303.04511
303.31934
303.58887
303.78579
304.08241
304.26568
304.53359
304.6814
304.91779
305.03934
305.24809
305.3499
305.53586
305.6224
305.78999
305.86453
306.01721
306.08213
306.22264
306.27967
306.41014
306.46056
306.58273
306.62751
306.74275
306.78261
306.89209
306.92758
307.03226
307.0638
307.16449
307.19238
307.2898
307.31426
307.40904
307.43022
307.52291
307.5409
307.63202
307.64686
307.73689
307.74857
307.83798
307.84643
307.93565
307.94082
308.03017
308.03221
308.12133
303.16088
303.01025
303.19134
303.40743
303.55847
303.81899
303.97615
304.22437
304.35819
304.58384
304.69753
304.90051
304.99776
305.18085
305.26472
305.43118
305.50413
305.6568
305.72077
305.86199
305.91844
306.0501
306.10016
306.22381
306.26834
306.3853
306.42496
306.53629
306.57159
306.67822
306.70953
306.81225
306.83987
306.93936
306.96351
307.06037
307.08119
307.17597
307.19357
307.28676
307.30117
307.39323
307.40447
307.49584
307.50388
307.59493
307.59981
307.69074
307.69272
307.78314
303.10483
302.98426
303.0952
303.26624
303.37547
303.60008
303.73003
303.95618
304.07399
304.28626
304.39019
304.58505
304.67618
304.85439
304.93431
305.09797
305.16831
305.31956
305.38176
305.52247
305.57769
305.70949
305.75866
305.8829
305.92676
306.04462
306.08373
306.1962
306.23102
306.33896
306.36983
306.47398
306.50118
306.60218
306.6259
306.72433
306.74472
306.8411
306.85825
306.95305
306.96703
307.06067
307.0715
307.16437
307.17208
307.26451
307.26919
307.36129
307.36326
307.45468
303.05402
302.96185
303.02255
303.15727
303.23017
303.42084
303.52388
303.72674
303.82729
304.02421
304.1169
304.30167
304.38532
304.55689
304.6317
304.79101
304.85779
305.00626
305.0659
305.20494
305.25828
305.38919
305.43693
305.56086
305.6036
305.72157
305.75977
305.87266
305.90671
306.0153
306.04551
306.15048
306.17707
306.27902
306.30219
306.40166
306.42153
306.519
306.53567
306.63158
306.64511
306.73986
306.75031
306.84424
306.85166
306.94503
306.94957
307.04245
307.04443
307.13652
303.00773
302.94013
302.96661
303.07327
303.11602
303.27596
303.35354
303.53302
303.61584
303.79617
303.87661
304.04974
304.12483
304.28826
304.35696
304.51055
304.57288
304.71734
304.77368
304.90995
304.96078
305.08983
305.13562
305.25836
305.29954
305.41683
305.45377
305.56636
305.59935
305.70794
305.73724
305.84242
305.86823
305.97056
305.99303
306.093
306.11225
306.21031
306.22643
306.32298
306.33604
306.43143
306.4415
306.53602
306.54319
306.63706
306.64149
306.73476
306.73676
306.8292
302.9654
302.91783
302.9222
303.00802
303.02684
303.16002
303.21451
303.37143
303.43682
303.59998
303.66764
303.8281
303.89384
304.04793
304.10972
304.25643
304.31355
304.45292
304.50528
304.63779
304.68552
304.8118
304.85514
304.97587
305.01507
305.13093
305.16624
305.27784
305.30948
305.41742
305.44557
305.55038
305.5752
305.67736
305.69898
305.79893
305.81745
305.9156
305.9311
306.02779
306.04034
306.1359
306.14558
306.24025
306.24716
306.34112
306.34545
306.43873
306.44075
306.5332
302.92661
302.89473
302.88551
302.95645
302.95714
303.06782
303.10218
303.23812
303.28697
303.43306
303.48789
303.63508
303.69101
303.83493
303.8892
304.0281
304.07941
304.21276
304.26057
304.38843
304.43255
304.55524
304.59567
304.71363
304.75046
304.86417
304.89751
305.00747
305.03747
305.14414
305.17091
305.27476
305.29841
305.39985
305.42048
305.51989
305.53756
305.63529
305.6501
305.74646
305.75846
305.85372
305.86299
305.95737
305.96403
306.05767
306.06189
306.15481
306.15681
306.24894
302.89103
302.87111
302.85398
302.91463
302.90224
302.99462
303.01208
303.12911
303.16284
303.29249
303.33488
303.46865
303.51465
303.64786
303.69428
303.82467
303.86973
303.99633
304.03913
304.1616
304.20167
304.32005
304.35717
304.47166
304.50576
304.61667
304.64775
304.75544
304.78353
304.88837
304.91353
305.01587
305.03816
305.13836
305.15784
305.2562
305.27293
305.36976
305.38379
305.47935
305.49074
305.58527
305.5941
305.68776
305.69414
305.78705
305.79115
305.88335
305.88533
305.97679
302.85838
302.84749
302.82595
302.87966
302.85835
302.93626
302.94007
303.04057
303.06091
303.17519
303.20588
303.32649
303.36274
303.48506
303.52348
303.64495
303.68349
303.80278
303.84024
303.95673
303.99241
304.10586
304.13935
304.24977
304.28084
304.38837
304.4169
304.52176
304.54772
304.65017
304.67352
304.77384
304.79461
304.89305
304.91125
305.00809
305.02376
305.11923
305.1324
305.22672
305.23744
305.3308
305.33915
305.43169
305.43777
305.52957
305.53351
305.62464
305.62657
305.71703
302.82839
302.82433
302.80041
302.84949
302.82252
302.88928
302.8825
302.96891
302.97779
303.07807
303.09809
303.20614
303.23308
303.34459
303.37513
303.48746
303.5194
303.63102
303.66296
303.773
303.80406
303.9121
303.9417
304.04755
304.07535
304.17899
304.20476
304.30629
304.3299
304.42948
304.45085
304.54866
304.56775
304.66398
304.68078
304.77564
304.79015
304.88383
304.89606
304.98872
304.99872
305.09051
305.09833
305.18936
305.19509
305.28544
305.28919
305.3789
305.38075
305.46987
302.80083
302.80204
302.77683
302.82276
302.79253
302.85088
302.83623
302.91091
302.91032
302.99815
303.00871
303.10504
303.12333
303.22438
303.24733
303.35057
303.37597
303.47975
303.50611
303.60942
303.63573
303.73798
303.76355
303.86441
303.88876
303.98808
304.01092
304.10869
304.12979
304.22606
304.2453
304.34018
304.35746
304.45107
304.46635
304.55883
304.57208
304.66357
304.67479
304.7654
304.77461
304.86446
304.8717
304.96087
304.96621
305.05475
305.05828
305.14626
305.14801
305.23548
302.77547
302.78085
302.75491
302.7986
302.7668
302.81889
302.79868
302.86381
302.85564
302.93263
302.93507
303.02069
303.03115
303.1223
303.13813
303.23249
303.25157
303.34751
303.36836
303.4648
303.48633
303.58256
303.604
303.69958
303.72038
303.81505
303.83483
303.92848
303.94696
304.03956
304.05655
304.14812
304.1635
304.25411
304.26778
304.3575
304.36942
304.45835
304.46849
304.5567
304.56507
304.65263
304.65925
304.74622
304.75114
304.83756
304.84083
304.92677
304.9284
305.0139
302.75214
302.76091
302.73453
302.77647
302.74425
302.79169
302.76779
302.82525
302.81127
302.87901
302.87467
302.95069
302.95426
303.03621
303.0455
303.13136
303.1445
303.23275
303.24827
303.33782
303.35465
303.44473
303.46206
303.55215
303.56937
303.65914
303.67579
303.76504
303.78082
303.86945
303.88412
303.97207
303.98546
304.07275
304.08475
304.17139
304.18192
304.26796
304.27697
304.36246
304.36994
304.4549
304.46086
304.54533
304.54978
304.6338
304.63678
304.72039
304.72188
304.80513
302.73065
302.74226
302.71563
302.75606
302.72415
302.7681
302.74198
302.79337
302.77511
302.83507
302.82525
302.89283
302.89048
302.96403
302.96748
303.04534
303.05298
303.13382
303.14431
303.22707
303.23938
303.3233
303.3366
303.42111
303.43476
303.51947
303.533
303.61764
303.6307
303.71511
303.72742
303.81149
303.82286
303.90655
303.91684
304.00012
304.00922
304.0921
304.09994
304.18242
304.18897
304.27106
304.27632
304.35803
304.36198
304.44333
304.44599
304.52702
304.52835
304.6091
302.71085
302.72489
302.69817
302.7372
302.70604
302.7473
302.72006
302.76666
302.74543
302.79894
302.78485
302.84511
302.83782
302.9038
302.90215
302.97261
302.97529
303.04908
303.05492
303.13111
303.13914
303.21698
303.2264
303.30532
303.31551
303.39507
303.40554
303.48543
303.49579
303.57581
303.58577
303.66577
303.6751
303.75498
303.76353
303.84323
303.85087
303.93035
303.937
304.01624
304.02184
304.10082
304.10535
304.18406
304.18749
304.26594
304.26826
304.34647
304.34764
304.42563
302.69263
302.70876
302.68211
302.71981
302.68963
302.72875
302.70116
302.74398
302.72084
302.76906
302.75176
302.80575
302.79447
302.85374
302.84775
302.91144
302.90974
302.97695
302.97855
303.04846
303.05252
303.12445
303.13023
303.20362
303.21051
303.28491
303.29241
303.36749
303.37522
303.45074
303.45839
303.53417
303.54149
303.6174
303.62421
303.70016
303.70633
303.78223
303.78767
303.86348
303.86811
303.9438
303.94757
304.02309
304.02598
304.10133
304.10329
304.17849
304.17948
304.25452
302.67587
302.69384
302.66744
302.70382
302.67475
302.71207
302.68468
302.72448
302.70027
302.74414
302.72458
302.77324
302.75884
302.81222
302.80263
302.86022
302.85474
302.91586
302.91371
302.9777
302.97815
303.0444
303.04681
303.1148
303.11858
303.18789
303.19257
303.26285
303.26805
303.33903
303.34443
303.41592
303.42127
303.4931
303.49822
303.57027
303.57501
303.64719
303.65142
303.72365
303.72731
303.79953
303.80255
303.87472
303.87705
303.94914
303.95074
304.02275
304.02355
304.09546
302.66049
302.68007
302.6541
302.6892
302.6613
302.69704
302.67019
302.70752
302.68288
302.72319
302.70213
302.7463
302.72955
302.77782
302.76534
302.81747
302.80882
302.86437
302.85896
302.91742
302.91467
302.97553
302.97487
303.03767
303.03858
303.10291
303.10496
303.17049
303.1733
303.23975
303.24301
303.31018
303.31364
303.38134
303.38481
303.4529
303.45622
303.52458
303.52764
303.59618
303.59888
303.66752
303.66979
303.73848
303.74026
303.80896
303.81018
303.87886
303.87949
303.94812
302.64644
302.66744
302.64209
302.67593
302.6492
302.68349
302.65741
302.69267
302.66805
302.70541
302.68349
302.72387
302.70546
302.7493
302.73458
302.78189
302.77064
302.82114
302.81297
302.86632
302.86077
302.91657
302.91318
302.97102
302.96934
303.02887
303.0285
303.08939
303.08997
303.15196
303.15321
303.21607
303.21775
303.2813
303.28321
303.34729
303.34926
303.41375
303.41567
303.48045
303.48222
303.5472
303.54874
303.61386
303.61509
303.68029
303.68115
303.74641
303.74685
303.8121
302.63369
302.65595
302.63137
302.66399
302.63842
302.67133
302.64613
302.67959
302.65533
302.69022
302.66793
302.70511
302.6856
302.72563
302.70925
302.7523
302.739
302.78497
302.77452
302.82319
302.81526
302.86634
302.86057
302.91373
302.90975
302.96467
302.96212
303.01852
303.01707
303.0747
303.0741
303.13272
303.13273
303.19216
303.1926
303.25268
303.25338
303.31397
303.31481
303.3758
303.37668
303.43796
303.43878
303.50028
303.50098
303.56263
303.56314
303.62489
303.62516
303.68694
302.62227
302.64562
302.62193
302.65336
302.62891
302.66049
302.63623
302.66807
302.64438
302.67714
302.65485
302.68931
302.66919
302.70593
302.68839
302.72771
302.71285
302.75477
302.74249
302.78691
302.77701
302.82373
302.81593
302.86471
302.85871
302.90928
302.90479
302.95688
302.95362
303.00701
303.00474
303.05922
303.05771
303.11309
303.11217
303.16829
303.1678
303.22453
303.22435
303.28155
303.28159
303.33916
303.33931
303.39717
303.39736
303.45542
303.45559
303.5138
303.5139
303.57217
302.61223
302.63651
302.61378
302.64401
302.62065
302.65091
302.6276
302.65794
302.63496
302.66585
302.64383
302.67594
302.65558
302.68948
302.67122
302.70726
302.69128
302.72959
302.71591
302.75648
302.74499
302.78771
302.77823
302.82293
302.81523
302.86169
302.85552
302.90352
302.89866
302.94799
302.94421
302.99469
302.99181
303.04324
303.04109
303.09333
303.09175
303.14466
303.14355
303.197
303.19625
303.25014
303.24966
303.30388
303.3036
303.35808
303.35793
303.41259
303.41253
303.46728
302.60373
302.62865
302.6069
302.63592
302.61359
302.64254
302.62016
302.64907
302.62686
302.65608
302.63453
302.66458
302.64427
302.67569
302.65706
302.69023
302.67352
302.70862
302.69392
302.73102
302.7183
302.75737
302.74654
302.78746
302.77835
302.82096
302.81338
302.85751
302.85127
302.89674
302.89165
302.93828
302.93418
302.9818
302.97854
303.02701
303.02445
303.07364
303.07167
303.12144
303.11997
303.17023
303.16917
303.2198
303.21908
303.27
303.26956
303.32069
303.32048
303.37173
302.59691
302.6221
302.60127
302.62906
302.60767
302.63531
302.61382
302.64135
302.61996
302.64762
302.62667
302.65489
302.63485
302.66409
302.64538
302.67602
302.6589
302.69115
302.67576
302.70975
302.69613
302.73188
302.71999
302.75745
302.7472
302.78625
302.7775
302.818
302.8106
302.8524
302.8462
302.88916
302.884
302.92797
302.92374
302.96857
302.96514
303.0107
303.00798
303.05417
303.05205
303.09875
303.09717
303.14427
303.14315
303.19058
303.18987
303.23752
303.23718
303.28497
302.59188
302.61687
302.59685
302.62335
302.60284
302.62915
302.60852
302.63469
302.61412
302.64033
302.62006
302.64661
302.62701
302.65431
302.63574
302.66414
302.64687
302.67659
302.66079
302.69198
302.67775
302.71049
302.69784
302.73212
302.721
302.75675
302.74707
302.78418
302.77583
302.81419
302.80706
302.84654
302.8405
302.88097
302.87591
302.91725
302.91307
302.95515
302.95176
302.99447
302.99179
303.03503
303.03299
303.07666
303.07519
303.11919
303.11824
303.16249
303.16203
303.20642
302.58865
302.61291
302.59356
302.61872
302.599
302.62398
302.60417
302.62901
302.60925
302.63406
302.61451
302.63954
302.62048
302.64604
302.62779
302.65417
302.63698
302.66443
302.64848
302.67716
302.66257
302.69258
302.67942
302.71079
302.69904
302.73174
302.72136
302.75533
302.74624
302.78137
302.77349
302.80969
302.80292
302.84008
302.83433
302.87234
302.86753
302.90627
302.90231
302.94169
302.93852
302.97843
302.97598
303.01632
303.01455
303.05523
303.05408
303.09501
303.09445
303.13554
302.58704
302.6101
302.59129
302.61506
302.59607
302.61971
302.60067
302.6242
302.60523
302.62871
302.60991
302.6335
302.61507
302.63902
302.62123
302.6458
302.62885
302.65426
302.63836
302.66477
302.65005
302.67759
302.66413
302.69285
302.68069
302.7106
302.69972
302.73077
302.72113
302.75326
302.7448
302.77793
302.77059
302.80463
302.79832
302.83317
302.82784
302.8634
302.85898
302.89516
302.89158
302.9283
302.92551
302.96266
302.96062
302.9981
302.99677
303.03451
303.03386
303.07176
302.58669
302.60825
302.58989
302.61226
302.59393
302.61626
302.59795
302.62019
302.60199
302.62418
302.60613
302.62836
302.61061
302.63308
302.61582
302.63874
302.62218
302.64574
302.63004
302.65441
302.63973
302.66503
302.65147
302.67779
302.6654
302.69275
302.68155
302.70992
302.6999
302.72924
302.72037
302.75063
302.74285
302.77396
302.76723
302.79911
302.79336
302.82592
302.82112
302.85427
302.85036
302.88403
302.88097
302.91505
302.9128
302.94723
302.94575
302.98042
302.97969
303.01453
302.58718
302.60715
302.5892
302.61018
302.59247
302.6135
302.5959
302.61688
302.59943
302.62036
302.60306
302.624
302.60695
302.62804
302.61139
302.63279
302.6167
302.63859
302.62322
302.64573
302.63124
302.65451
302.64101
302.66513
302.65268
302.67769
302.66633
302.69223
302.68199
302.70876
302.69961
302.72721
302.71913
302.74751
302.74046
302.76955
302.7635
302.79323
302.78814
302.81843
302.81427
302.84504
302.84176
302.87295
302.87052
302.90203
302.90044
302.93219
302.9314
302.96331
302.58809
302.60655
302.58904
302.60867
302.59158
302.61134
302.59443
302.61418
302.59745
302.61717
302.60061
302.62031
302.60397
302.62376
302.60776
302.62775
302.61222
302.63256
302.61762
302.63844
302.62426
302.64568
302.63236
302.65448
302.64211
302.66498
302.65361
302.67725
302.66691
302.69131
302.68202
302.70716
302.69889
302.72473
302.71748
302.74397
302.73771
302.76479
302.75949
302.78709
302.78274
302.8108
302.80736
302.83579
302.83324
302.86199
302.8603
302.88928
302.88845
302.91758
302.58913
302.60627
302.58925
302.60762
302.59113
302.60968
302.59344
302.612
302.59598
302.61453
302.59869
302.61721
302.60158
302.62014
302.6048
302.62348
302.60854
302.62746
302.61303
302.6323
302.61851
302.63825
302.62522
302.64551
302.63334
302.65425
302.64299
302.66454
302.65424
302.67646
302.66713
302.69
302.68166
302.70515
302.69779
302.72186
302.71548
302.74008
302.73466
302.75975
302.75527
302.78077
302.77722
302.80308
302.80044
302.82659
302.82484
302.85121
302.85034
302.87685
302.59012
302.60617
302.58972
302.6069
302.59103
302.60841
302.59284
302.61026
302.59494
302.61235
302.59722
302.6146
302.59969
302.61707
302.60241
302.61986
302.60554
302.62313
302.60926
302.6271
302.61378
302.63196
302.61931
302.63793
302.62605
302.64516
302.63411
302.65376
302.64359
302.6638
302.65455
302.67532
302.667
302.68832
302.68095
302.70277
302.69635
302.71866
302.71318
302.73592
302.73138
302.7545
302.75089
302.77433
302.77164
302.79535
302.79357
302.81748
302.81659
302.84065
302.591
302.60613
302.59032
302.60641
302.59117
302.60746
302.59255
302.60888
302.59424
302.61056
302.59613
302.61242
302.5982
302.61446
302.60048
302.61676
302.60308
302.61944
302.60615
302.62267
302.60986
302.62663
302.61441
302.6315
302.61997
302.63745
302.62668
302.6446
302.63463
302.65301
302.64391
302.66276
302.65454
302.67386
302.66654
302.6863
302.67991
302.70009
302.69462
302.71518
302.71063
302.73154
302.72791
302.74911
302.7464
302.76784
302.76604
302.78766
302.78677
302.80852
302.59175
302.60611
302.59098
302.60607
302.59149
302.60674
302.59249
302.60779
302.59381
302.6091
302.59535
302.61059
302.59705
302.61224
302.59893
302.61411
302.60107
302.61627
302.60358
302.61887
302.60661
302.62206
302.61032
302.62601
302.61489
302.63088
302.62044
302.63677
302.62709
302.64379
302.6349
302.65199
302.64394
302.66142
302.65423
302.67209
302.66578
302.684
302.67858
302.69714
302.69263
302.71148
302.70788
302.727
302.72429
302.74363
302.74183
302.76134
302.76044
302.78006
302.5924
302.60606
302.59166
302.60583
302.59191
302.6062
302.5926
302.60692
302.5936
302.6079
302.59481
302.60905
302.59617
302.61034
302.59769
302.61181
302.59941
302.61353
302.60144
302.61558
302.60388
302.61812
302.60689
302.62129
302.61062
302.62523
302.61518
302.63006
302.6207
302.63586
302.62725
302.64273
302.6349
302.6507
302.64368
302.6598
302.65363
302.67005
302.66473
302.68145
302.67701
302.69398
302.69042
302.70762
302.70496
302.72235
302.72057
302.73811
302.73723
302.75488
302.59296
302.60598
302.59231
302.60563
302.59239
302.60577
302.59283
302.60622
302.59355
302.6069
302.59445
302.60774
302.5955
302.6087
302.59668
302.60981
302.59803
302.61112
302.59963
302.6127
302.60157
302.61468
302.60398
302.61719
302.60699
302.62034
302.61072
302.62426
302.61527
302.62903
302.62073
302.63473
302.62717
302.64143
302.63463
302.64916
302.64316
302.65794
302.65276
302.66778
302.66345
302.67869
302.67522
302.69065
302.68804
302.70365
302.7019
302.71764
302.71677
302.7326
302.59344
302.60587
302.59292
302.60545
302.59288
302.60542
302.59313
302.60564
302.5936
302.60606
302.59423
302.6066
302.59498
302.60725
302.59584
302.60803
302.59686
302.60897
302.59808
302.61014
302.59958
302.61164
302.60147
302.61358
302.60387
302.61606
302.60688
302.6192
302.61061
302.62309
302.61513
302.62779
302.62052
302.63339
302.62684
302.63991
302.63412
302.64739
302.64239
302.65586
302.65167
302.66532
302.66195
302.67578
302.67324
302.68721
302.68551
302.69959
302.69875
302.71292
302.59386
302.60571
302.59348
302.60527
302.59337
302.60511
302.59346
302.60514
302.59372
302.60531
302.59409
302.60558
302.59456
302.60594
302.59513
302.60642
302.59583
302.60703
302.59671
302.60783
302.59782
302.60891
302.59927
302.61036
302.60114
302.61227
302.60354
302.61475
302.60656
302.61787
302.61028
302.62172
302.61477
302.62636
302.62009
302.63184
302.62628
302.63819
302.63337
302.64544
302.6414
302.65362
302.65036
302.66272
302.66027
302.67274
302.67111
302.68368
302.68286
302.69551
302.59421
302.60552
302.59399
302.60508
302.59383
302.60482
302.5938
302.60469
302.59385
302.60463
302.59399
302.60465
302.59419
302.60473
302.59449
302.60492
302.5949
302.60523
302.59546
302.6057
302.59623
302.60641
302.59729
302.60744
302.59872
302.60887
302.6006
302.61078
302.60301
302.61325
302.60604
302.61637
302.60975
302.62018
302.6142
302.62475
302.61944
302.63011
302.62551
302.63629
302.63242
302.64333
302.64021
302.65123
302.64888
302.66
302.65843
302.66963
302.66884
302.68011
302.59452
302.60529
302.59443
302.60486
302.59425
302.60453
302.59411
302.60424
302.59398
302.60398
302.59388
302.60374
302.59383
302.60357
302.59387
302.60349
302.59401
302.60352
302.59429
302.6037
302.59476
302.60409
302.59547
302.60475
302.59651
302.60576
302.59794
302.60719
302.59984
302.60911
302.60228
302.6116
302.60532
302.6147
302.60902
302.61848
302.61344
302.62298
302.6186
302.62823
302.62454
302.63427
302.63129
302.6411
302.63886
302.64875
302.64725
302.6572
302.65645
302.66647
302.59477
302.60504
302.59482
302.60461
302.59463
302.60422
302.59437
302.60378
302.59406
302.60331
302.59374
302.60284
302.59345
302.60242
302.59323
302.60208
302.59312
302.60185
302.59314
302.60177
302.59333
302.60188
302.59375
302.60222
302.59446
302.60287
302.5955
302.60389
302.59696
302.60534
302.59889
302.60729
302.60136
302.60979
302.60442
302.61289
302.60811
302.61664
302.61249
302.62108
302.61758
302.62624
302.62341
302.63213
302.63
302.63878
302.63735
302.64619
302.64548
302.65437
302.59497
302.60475
302.59516
302.60434
302.59494
302.60387
302.59456
302.60327
302.59407
302.60259
302.59352
302.60189
302.593
302.60124
302.59254
302.60066
302.59219
302.6002
302.59197
302.59988
302.59192
302.59973
302.59208
302.5998
302.59249
302.60015
302.59321
302.60082
302.59429
302.60187
302.5958
302.60336
302.59777
302.60534
302.60028
302.60786
302.60335
302.61097
302.60705
302.6147
302.61139
302.61908
302.61641
302.62415
302.62214
302.62992
302.62857
302.6364
302.63573
302.6436
302.59512
302.60444
302.59545
302.60403
302.59518
302.60347
302.59466
302.6027
302.59397
302.6018
302.5932
302.60087
302.59244
302.59999
302.59176
302.59919
302.59119
302.59851
302.59076
302.59798
302.59049
302.59761
302.59042
302.59745
302.59058
302.59753
302.59102
302.5979
302.59178
302.59862
302.59292
302.59972
302.59447
302.60126
302.5965
302.60328
302.59905
302.60583
302.60215
302.60895
302.60584
302.61267
302.61016
302.61702
302.61512
302.62201
302.62074
302.62766
302.62703
302.63399
302.59522
302.60411
302.59568
302.60368
302.59534
302.60299
302.59465
302.60202
302.59374
302.6009
302.59274
302.59975
302.59176
302.59865
302.59086
302.59765
302.59009
302.59677
302.58946
302.59604
302.589
302.59548
302.58873
302.59512
302.58867
302.59498
302.58887
302.5951
302.58936
302.59553
302.59019
302.59631
302.59139
302.59747
302.59302
302.59907
302.5951
302.60115
302.59769
302.60374
302.60082
302.60688
302.60452
302.61059
302.60881
302.6149
302.61371
302.61983
302.61923
302.62538
302.59528
302.60377
302.59585
302.60328
302.5954
302.60243
302.5945
302.60123
302.59335
302.59987
302.59212
302.59849
302.59092
302.59718
302.58982
302.596
302.58887
302.59495
302.58806
302.59405
302.58743
302.59332
302.58698
302.59279
302.58675
302.59246
302.58674
302.59237
302.587
302.59256
302.58757
302.59306
302.58847
302.59392
302.58975
302.59516
302.59145
302.59683
302.5936
302.59897
302.59624
302.60161
302.5994