/*--------------------------------*- C++ -*----------------------------------*\
| =========                 |                                                 |
| \\      /  F ield         | OpenFOAM: The Open Source CFD Toolbox           |
|  \\    /   O peration     | Version:  2312                                  |
|   \\  /    A nd           | Website:  www.openfoam.com                      |
|    \\/     M anipulation  |                                                 |
\*---------------------------------------------------------------------------*/
FoamFile
{
    version     2.0;
    format      ascii;
    arch        "LSB;label=32;scalar=64";
    class       volVectorField;
    location    "8";
    object      U_0;
}
// * * * * * * * * * * * * * * * * * * * * * * * * * * * * * * * * * * * * * //

dimensions      [0 1 -1 0 0 0 0];

internalField   nonuniform List<vector> 
4000
(
(0.002551262 0.00050254663 0)
(0.0043046569 -1.0758748e-05 0)
(0.0028682917 -4.8930451e-07 0)
(0.0031118028 5.9526384e-08 0)
(0.0030046269 -2.0239817e-07 0)
(0.0030579856 1.8848042e-07 0)
(0.0029969762 -2.1455991e-07 0)
(0.0030398159 1.836254e-07 0)
(0.0029992213 -1.7615771e-07 0)
(0.0030351977 1.646442e-07 0)
(0.0030015208 -1.5521242e-07 0)
(0.0030327556 1.4597694e-07 0)
(0.0030033565 -1.37715e-07 0)
(0.0030308898 1.2968533e-07 0)
(0.0030049676 -1.2232435e-07 0)
(0.0030293009 1.1528372e-07 0)
(0.0030064204 -1.0872336e-07 0)
(0.0030279019 1.0252305e-07 0)
(0.0030077259 -9.6710136e-08 0)
(0.0030266588 9.1248911e-08 0)
(0.003008894 -8.6120762e-08 0)
(0.0030255512 8.1318207e-08 0)
(0.0030099376 -7.6809295e-08 0)
(0.003024563 7.2595606e-08 0)
(0.0030108697 -6.8643066e-08 0)
(0.0030236803 6.4955989e-08 0)
(0.0030117034 -6.1501935e-08 0)
(0.0030228901 5.8285901e-08 0)
(0.0030124507 -5.5278305e-08 0)
(0.0030221808 5.2484145e-08 0)
(0.0030131226 -4.9877038e-08 0)
(0.0030215418 4.7461748e-08 0)
(0.0030137293 -4.5215095e-08 0)
(0.0030209634 4.3141502e-08 0)
(0.0030142799 -4.1220875e-08 0)
(0.003020437 3.9457229e-08 0)
(0.0030147829 -3.7833399e-08 0)
(0.0030199545 3.6352939e-08 0)
(0.0030152456 -3.5001455e-08 0)
(0.0030195087 3.3782018e-08 0)
(0.0030156752 -3.2682847e-08 0)
(0.003019093 3.1706675e-08 0)
(0.0030160778 -3.0844032e-08 0)
(0.0030187011 3.0097177e-08 0)
(0.0030164587 -2.9463189e-08 0)
(0.0030183263 2.8927592e-08 0)
(0.0030168258 -2.8535012e-08 0)
(0.0030179881 2.8238038e-08 0)
(0.0030172953 -2.7702743e-08 0)
(0.0030180167 3.0092275e-08 0)
(0.0066903888 0.0013525791 0)
(0.011841458 -9.5549149e-07 0)
(0.0085732591 1.4404723e-05 0)
(0.0089801383 -5.3322359e-07 0)
(0.0087201324 -1.9113393e-07 0)
(0.0088766864 8.6633904e-07 0)
(0.0086990435 -4.8639575e-07 0)
(0.0088247724 6.5845719e-07 0)
(0.0087049032 -5.875561e-07 0)
(0.0088119377 5.8064764e-07 0)
(0.0087118171 -5.4420188e-07 0)
(0.0088048745 5.1905e-07 0)
(0.0087173099 -4.8755411e-07 0)
(0.0087993486 4.6154021e-07 0)
(0.0087221323 -4.3418953e-07 0)
(0.0087946119 4.0994888e-07 0)
(0.0087264794 -3.8618058e-07 0)
(0.0087904379 3.6438413e-07 0)
(0.0087303815 -3.4358221e-07 0)
(0.0087867303 3.2424902e-07 0)
(0.0087338706 -3.0599344e-07 0)
(0.0087834281 2.8895325e-07 0)
(0.0087369863 -2.7293711e-07 0)
(0.0087804824 2.5797616e-07 0)
(0.0087397693 -2.4394916e-07 0)
(0.0087778504 2.3085549e-07 0)
(0.0087422589 -2.1860201e-07 0)
(0.0087754935 2.0718027e-07 0)
(0.0087444915 -1.9651186e-07 0)
(0.0087733765 1.865878e-07 0)
(0.0087465006 -1.7734005e-07 0)
(0.0087714676 1.6876115e-07 0)
(0.0087483163 -1.607918e-07 0)
(0.0087697378 1.5342631e-07 0)
(0.0087499663 -1.4661336e-07 0)
(0.0087681611 1.403488e-07 0)
(0.0087514753 -1.3458868e-07 0)
(0.0087667137 1.2933008e-07 0)
(0.0087528661 -1.2453596e-07 0)
(0.0087653741 1.2020416e-07 0)
(0.0087541592 -1.1630462e-07 0)
(0.0087641223 1.1283516e-07 0)
(0.008755374 -1.0977037e-07 0)
(0.0087629396 1.0712304e-07 0)
(0.0087565268 -1.0482539e-07 0)
(0.0087618045 1.0296091e-07 0)
(0.0087576342 -1.0170571e-07 0)
(0.0087607406 9.8994175e-08 0)
(0.008758942 -1.0446095e-07 0)
(0.0087606009 9.5463534e-08 0)
(0.011221671 0.0022761486 0)
(0.018779696 -1.5393328e-05 0)
(0.014117371 3.4721474e-05 0)
(0.014690776 -7.3872493e-07 0)
(0.0142846 -1.5135043e-07 0)
(0.0145467 1.6976831e-06 0)
(0.01425082 -7.0675051e-07 0)
(0.014463605 1.2062853e-06 0)
(0.014261347 -1.0492037e-06 0)
(0.014442921 1.0553435e-06 0)
(0.014273304 -9.8857515e-07 0)
(0.014431154 9.4690392e-07 0)
(0.014282671 -8.8828246e-07 0)
(0.014421819 8.4231637e-07 0)
(0.014290879 -7.9167587e-07 0)
(0.014413786 7.479187e-07 0)
(0.01429827 -7.0428324e-07 0)
(0.014406704 6.6465191e-07 0)
(0.014304898 -6.2662414e-07 0)
(0.014400413 5.9138642e-07 0)
(0.014310821 -5.5807244e-07 0)
(0.014394812 5.269904e-07 0)
(0.014316109 -4.9778344e-07 0)
(0.014389816 4.7048835e-07 0)
(0.014320831 -4.4491513e-07 0)
(0.014385352 4.2102552e-07 0)
(0.014325056 -3.9868676e-07 0)
(0.014381354 3.7784692e-07 0)
(0.014328845 -3.5839676e-07 0)
(0.014377762 3.402885e-07 0)
(0.014332255 -3.2342654e-07 0)
(0.014374522 3.0777131e-07 0)
(0.014335339 -2.932381e-07 0)
(0.014371585 2.7979536e-07 0)
(0.014338142 -2.6736859e-07 0)
(0.014368906 2.5593297e-07 0)
(0.014340708 -2.4542388e-07 0)
(0.014366446 2.3582186e-07 0)
(0.014343073 -2.2707196e-07 0)
(0.014364167 2.1915846e-07 0)
(0.014345275 -2.1203704e-07 0)
(0.014362036 2.0569273e-07 0)
(0.014347344 -2.0008857e-07 0)
(0.014360021 1.9524311e-07 0)
(0.014349311 -1.9100348e-07 0)
(0.014358084 1.8762967e-07 0)
(0.0143512 -1.8524997e-07 0)
(0.014356244 1.7972107e-07 0)
(0.014353357 -1.9337034e-07 0)
(0.014355803 1.7296568e-07 0)
(0.014825465 0.0028440044 0)
(0.025373122 -4.6461835e-05 0)
(0.019516308 6.3411356e-05 0)
(0.02024532 -9.3677269e-07 0)
(0.019698854 1.2300132e-07 0)
(0.020067365 2.6304089e-06 0)
(0.019652264 -7.4701143e-07 0)
(0.019956544 1.7346798e-06 0)
(0.019668429 -1.4732977e-06 0)
(0.019928335 1.5080724e-06 0)
(0.019685845 -1.4133423e-06 0)
(0.019911764 1.359559e-06 0)
(0.019699312 -1.2738055e-06 0)
(0.019898454 1.210001e-06 0)
(0.01971109 -1.1361907e-06 0)
(0.019886964 1.0740376e-06 0)
(0.019721684 -1.0109855e-06 0)
(0.019876827 9.542632e-07 0)
(0.019731177 -8.9955556e-07 0)
(0.019867824 8.489954e-07 0)
(0.019739655 -8.0115679e-07 0)
(0.019859809 7.5652451e-07 0)
(0.019747221 -7.1461335e-07 0)
(0.019852661 6.7541056e-07 0)
(0.019753977 -6.3872257e-07 0)
(0.019846275 6.0440896e-07 0)
(0.019760021 -5.7236224e-07 0)
(0.019840556 5.42428e-07 0)
(0.019765442 -5.1452331e-07 0)
(0.019835417 4.8851118e-07 0)
(0.019770321 -4.6431686e-07 0)
(0.019830781 4.4182653e-07 0)
(0.019774734 -4.2097055e-07 0)
(0.019826578 4.0165656e-07 0)
(0.019778747 -3.8382047e-07 0)
(0.019822744 3.6738788e-07 0)
(0.019782419 -3.5230131e-07 0)
(0.019819221 3.3850083e-07 0)
(0.019785806 -3.2593658e-07 0)
(0.019815958 3.1455947e-07 0)
(0.019788958 -3.0433006e-07 0)
(0.019812906 2.9520335e-07 0)
(0.019791923 -2.8714751e-07 0)
(0.019810019 2.8017651e-07 0)
(0.019794742 -2.740354e-07 0)
(0.019807243 2.6924899e-07 0)
(0.019797448 -2.6573975e-07 0)
(0.019804583 2.5698051e-07 0)
(0.019800464 -2.8206639e-07 0)
(0.019803701 2.4750404e-07 0)
(0.019804332 0.0038788419 0)
(0.031520129 -6.0456948e-05 0)
(0.024726307 9.6655294e-05 0)
(0.025648706 -1.6312782e-06 0)
(0.024962306 5.9501812e-07 0)
(0.025437789 3.6236941e-06 0)
(0.024903277 -6.1759401e-07 0)
(0.025303453 2.2157631e-06 0)
(0.024926285 -1.8438336e-06 0)
(0.02526804 1.9183741e-06 0)
(0.024949556 -1.8011772e-06 0)
(0.025246578 1.7397344e-06 0)
(0.024967332 -1.6281524e-06 0)
(0.025229144 1.5493316e-06 0)
(0.024982852 -1.4534212e-06 0)
(0.025214048 1.3747792e-06 0)
(0.024996797 -1.2935463e-06 0)
(0.025200722 1.2212144e-06 0)
(0.025009282 -1.1510451e-06 0)
(0.025188889 1.0864056e-06 0)
(0.025020427 -1.0251605e-06 0)
(0.025178356 9.6805303e-07 0)
(0.025030369 -9.1443504e-07 0)
(0.025168965 8.642625e-07 0)
(0.025039246 -8.1733791e-07 0)
(0.025160576 7.7341909e-07 0)
(0.025047185 -7.3243195e-07 0)
(0.025153062 6.9411622e-07 0)
(0.025054307 -6.5842418e-07 0)
(0.025146311 6.2512644e-07 0)
(0.025060718 -5.9417664e-07 0)
(0.025140221 5.6538459e-07 0)
(0.025066516 -5.387016e-07 0)
(0.025134698 5.1397331e-07 0)
(0.025071787 -4.9115053e-07 0)
(0.025129661 4.7010877e-07 0)
(0.025076612 -4.5080102e-07 0)
(0.025125033 4.3312689e-07 0)
(0.025081062 -4.1704391e-07 0)
(0.025120747 4.0246994e-07 0)
(0.025085203 -3.8937221e-07 0)
(0.025116737 3.7767527e-07 0)
(0.025089097 -3.6735513e-07 0)
(0.025112945 3.5842207e-07 0)
(0.0250928 -3.5049824e-07 0)
(0.0251093 3.4446278e-07 0)
(0.025096355 -3.3982544e-07 0)
(0.025105786 3.2771455e-07 0)
(0.025100239 -3.6653929e-07 0)
(0.025104345 3.159004e-07 0)
(0.02261725 0.0040669543 0)
(0.037253246 -0.00012120869 0)
(0.02979282 0.000135256 0)
(0.03090437 -2.5404125e-06 0)
(0.030074202 1.3045373e-06 0)
(0.030657767 4.7029968e-06 0)
(0.030004186 -3.4438083e-07 0)
(0.030504009 2.6469094e-06 0)
(0.030035331 -2.1657046e-06 0)
(0.030461687 2.2872123e-06 0)
(0.030064785 -2.1545057e-06 0)
(0.030435281 2.0889912e-06 0)
(0.030087034 -1.9530558e-06 0)
(0.030413609 1.8617538e-06 0)
(0.030106432 -1.744823e-06 0)
(0.030394792 1.6514632e-06 0)
(0.030123843 -1.5532541e-06 0)
(0.030378174 1.4667051e-06 0)
(0.030139419 -1.3822459e-06 0)
(0.030363419 1.3046999e-06 0)
(0.030153317 -1.2311172e-06 0)
(0.030350288 1.1625492e-06 0)
(0.030165712 -1.0981745e-06 0)
(0.030338581 1.037917e-06 0)
(0.030176776 -9.8159062e-07 0)
(0.030328125 9.2883846e-07 0)
(0.030186672 -8.7963967e-07 0)
(0.03031876 8.3361424e-07 0)
(0.030195548 -7.9076801e-07 0)
(0.030310346 7.5076719e-07 0)
(0.030203539 -7.1360935e-07 0)
(0.030302754 6.7901822e-07 0)
(0.030210765 -6.4697877e-07 0)
(0.030295871 6.1726699e-07 0)
(0.030217335 -5.8985879e-07 0)
(0.030289594 5.6457364e-07 0)
(0.030223347 -5.4138311e-07 0)
(0.030283827 5.2014169e-07 0)
(0.030228892 -5.0082076e-07 0)
(0.030278486 4.8330139e-07 0)
(0.030234051 -4.675627e-07 0)
(0.030273491 4.5349501e-07 0)
(0.030238902 -4.4108786e-07 0)
(0.030268768 4.3034402e-07 0)
(0.030243515 -4.2075047e-07 0)
(0.03026423 4.1361366e-07 0)
(0.030247941 -4.0782606e-07 0)
(0.030259839 3.9233417e-07 0)
(0.0302527 -4.4655611e-07 0)
(0.030257738 3.7802796e-07 0)
(0.027797124 0.0051467217 0)
(0.042626364 -0.00012815197 0)
(0.0346756 0.0001765708 0)
(0.036008621 -4.5105149e-06 0)
(0.035031761 2.147792e-06 0)
(0.035726605 5.8110264e-06 0)
(0.03495512 3.0083229e-08 0)
(0.03555776 3.0208604e-06 0)
(0.034995955 -2.4457736e-06 0)
(0.035508892 2.615882e-06 0)
(0.035031884 -2.4766828e-06 0)
(0.035477541 2.4095288e-06 0)
(0.03505873 -2.2509454e-06 0)
(0.035451557 2.14933e-06 0)
(0.035082104 -2.0124437e-06 0)
(0.035428938 1.9059635e-06 0)
(0.035103063 -1.7919142e-06 0)
(0.035408956 1.6924241e-06 0)
(0.035121801 -1.5947659e-06 0)
(0.035391214 1.5053926e-06 0)
(0.035138513 -1.4204618e-06 0)
(0.035375427 1.3413677e-06 0)
(0.035153413 -1.2671135e-06 0)
(0.035361355 1.1975854e-06 0)
(0.035166713 -1.1326269e-06 0)
(0.035348785 1.0717515e-06 0)
(0.035178609 -1.0150125e-06 0)
(0.035337529 9.6189536e-07 0)
(0.035189278 -9.1247818e-07 0)
(0.035327414 8.6631022e-07 0)
(0.035198883 -8.234487e-07 0)
(0.03531829 7.8352112e-07 0)
(0.035207568 -7.465589e-07 0)
(0.035310017 7.1226034e-07 0)
(0.035215464 -6.8063679e-07 0)
(0.035302472 6.5144528e-07 0)
(0.03522269 -6.2468428e-07 0)
(0.035295542 6.0015804e-07 0)
(0.035229353 -5.7785847e-07 0)
(0.035289124 5.576257e-07 0)
(0.035235551 -5.3945616e-07 0)
(0.035283124 5.232018e-07 0)
(0.035241378 -5.0887166e-07 0)
(0.035277451 4.9645545e-07 0)
(0.035246917 -4.8529886e-07 0)
(0.035272004 4.7719422e-07 0)
(0.035252232 -4.7021985e-07 0)
(0.03526672 4.5140547e-07 0)
(0.035257868 -5.2208748e-07 0)
(0.035263874 4.3412228e-07 0)
(0.030387401 0.005167574 0)
(0.047465683 -0.00022124786 0)
(0.039423396 0.00021430943 0)
(0.040951817 -4.9317176e-06 0)
(0.039837284 3.5930633e-06 0)
(0.040645327 7.0366705e-06 0)
(0.039756984 5.0631048e-07 0)
(0.040464577 3.335906e-06 0)
(0.03980862 -2.6845753e-06 0)
(0.040409366 2.904354e-06 0)
(0.039851179 -2.7681383e-06 0)
(0.040373073 2.7014557e-06 0)
(0.039882694 -2.5220075e-06 0)
(0.040342732 2.4121244e-06 0)
(0.039910109 -2.2563965e-06 0)
(0.040316262 2.1383547e-06 0)
(0.03993467 -2.009622e-06 0)
(0.040292868 1.8984539e-06 0)
(0.039956614 -1.7886918e-06 0)
(0.040272099 1.6885647e-06 0)
(0.039976178 -1.5932734e-06 0)
(0.040253621 1.5045835e-06 0)
(0.039993619 -1.4213229e-06 0)
(0.04023715 1.3433353e-06 0)
(0.040009185 -1.2705098e-06 0)
(0.040222439 1.2022183e-06 0)
(0.040023107 -1.1386065e-06 0)
(0.040209264 1.0790131e-06 0)
(0.040035594 -1.0236048e-06 0)
(0.040197426 9.7180372e-07 0)
(0.040046835 -9.2374025e-07 0)
(0.040186747 8.7893742e-07 0)
(0.040057 -8.3748424e-07 0)
(0.040177065 7.9899468e-07 0)
(0.040066241 -7.6352458e-07 0)
(0.040168235 7.3076325e-07 0)
(0.040074697 -7.0074337e-07 0)
(0.040160126 6.7321472e-07 0)
(0.040082492 -6.4819558e-07 0)
(0.040152617 6.2548178e-07 0)
(0.040089744 -6.0509175e-07 0)
(0.040145598 5.8683572e-07 0)
(0.040096559 -5.7074765e-07 0)
(0.040138964 5.5679819e-07 0)
(0.040103037 -5.4419081e-07 0)
(0.040132597 5.3524834e-07 0)
(0.04010925 -5.2705683e-07 0)
(0.040126411 5.0505327e-07 0)
(0.040115762 -5.9277185e-07 0)
(0.040122748 4.8415058e-07 0)
(0.035501329 0.0060626389 0)
(0.052026066 -0.00022355583 0)
(0.044044934 0.00025176646 0)
(0.045681899 -5.9416135e-06 0)
(0.044481164 4.9028946e-06 0)
(0.045411841 8.2097727e-06 0)
(0.044409785 1.0338217e-06 0)
(0.045224065 3.576314e-06 0)
(0.044473625 -2.8857378e-06 0)
(0.045162819 3.1507522e-06 0)
(0.044522938 -3.0290571e-06 0)
(0.045121624 2.9641143e-06 0)
(0.044559165 -2.7659033e-06 0)
(0.045086912 2.649632e-06 0)
(0.044590655 -2.476287e-06 0)
(0.045056567 2.3482224e-06 0)
(0.044618846 -2.2060139e-06 0)
(0.04502974 2.0844425e-06 0)
(0.044644018 -1.9636992e-06 0)
(0.045005924 1.8539089e-06 0)
(0.044666455 -1.7492626e-06 0)
(0.044984735 1.6519238e-06 0)
(0.044686453 -1.5605435e-06 0)
(0.04496585 1.4749222e-06 0)
(0.0447043 -1.3950063e-06 0)
(0.044948982 1.320019e-06 0)
(0.044720263 -1.2502117e-06 0)
(0.044933876 1.184769e-06 0)
(0.044734581 -1.1239584e-06 0)
(0.044920302 1.0670683e-06 0)
(0.04474747 -1.0143128e-06 0)
(0.044908056 9.6510495e-07 0)
(0.044759125 -9.195999e-07 0)
(0.044896954 8.7732315e-07 0)
(0.044769721 -8.3838185e-07 0)
(0.04488683 8.023943e-07 0)
(0.044779415 -7.6943294e-07 0)
(0.044877534 7.3919048e-07 0)
(0.044788352 -7.1171603e-07 0)
(0.044868927 6.86759e-07 0)
(0.044796663 -6.643634e-07 0)
(0.044860883 6.4429563e-07 0)
(0.044804473 -6.2661893e-07 0)
(0.044853282 6.1127927e-07 0)
(0.044811895 -5.9734098e-07 0)
(0.04484599 5.8768874e-07 0)
(0.044819012 -5.7826252e-07 0)
(0.044838898 5.532621e-07 0)
(0.044826396 -6.5817647e-07 0)
(0.04483436 5.2805821e-07 0)
(0.038447403 0.0060928075 0)
(0.056019968 -0.00033901557 0)
(0.048622194 0.0002929778 0)
(0.050181274 -8.7407229e-06 0)
(0.048956682 5.369114e-06 0)
(0.050025785 9.2484522e-06 0)
(0.048913903 1.579306e-06 0)
(0.04983604 3.7349511e-06 0)
(0.048991298 -3.050288e-06 0)
(0.049769021 3.354736e-06 0)
(0.049047411 -3.2594515e-06 0)
(0.049722975 3.1972914e-06 0)
(0.049088354 -2.9824678e-06 0)
(0.0496839 2.8616097e-06 0)
(0.04912393 -2.6719288e-06 0)
(0.04964968 2.5353636e-06 0)
(0.049155755 -2.3809183e-06 0)
(0.049619418 2.2502207e-06 0)
(0.049184159 -2.1196337e-06 0)
(0.049592553 2.001278e-06 0)
(0.049209469 -1.8882902e-06 0)
(0.049568652 1.7832571e-06 0)
(0.049232026 -1.6846493e-06 0)
(0.04954735 1.5922269e-06 0)
(0.049252158 -1.5060015e-06 0)
(0.049528323 1.4250448e-06 0)
(0.049270163 -1.3497233e-06 0)
(0.049511283 1.2790639e-06 0)
(0.049286314 -1.2134436e-06 0)
(0.049495971 1.1520139e-06 0)
(0.049300854 -1.0950797e-06 0)
(0.049482157 1.0419418e-06 0)
(0.049314001 -9.9282737e-07 0)
(0.049469633 9.4717141e-07 0)
(0.049325953 -9.051374e-07 0)
(0.049458213 8.6627097e-07 0)
(0.049336888 -8.3068841e-07 0)
(0.049447728 7.9802407e-07 0)
(0.049346967 -7.6836113e-07 0)
(0.049438021 7.4140165e-07 0)
(0.049356339 -7.1721773e-07 0)
(0.049428951 6.9553093e-07 0)
(0.049365144 -6.7643713e-07 0)
(0.049420382 6.5985244e-07 0)
(0.049373511 -6.4470879e-07 0)
(0.049412166 6.3447054e-07 0)
(0.049381534 -6.2380648e-07 0)
(0.049404169 5.9604336e-07 0)
(0.049389782 -7.1795041e-07 0)
(0.049398709 5.6588235e-07 0)
(0.043551254 0.0068095209 0)
(0.059865359 -0.00034093674 0)
(0.053014625 0.00033177404 0)
(0.054521961 -1.1198878e-05 0)
(0.053271875 5.0157404e-06 0)
(0.054488645 1.0012813e-05 0)
(0.053270279 2.1128608e-06 0)
(0.054300444 3.8004674e-06 0)
(0.053361957 -3.1808712e-06 0)
(0.05422777 3.5157116e-06 0)
(0.053424822 -3.4598417e-06 0)
(0.054176929 3.4009873e-06 0)
(0.053470453 -3.1718345e-06 0)
(0.05413352 3.0480649e-06 0)
(0.053510098 -2.8433819e-06 0)
(0.054095445 2.6998038e-06 0)
(0.053545542 -2.5343783e-06 0)
(0.054061766 2.3958203e-06 0)
(0.053577163 -2.2565297e-06 0)
(0.054031866 2.1307016e-06 0)
(0.053605334 -2.0103837e-06 0)
(0.054005266 1.8986081e-06 0)
(0.053630439 -1.7936615e-06 0)
(0.053981557 1.695269e-06 0)
(0.053652845 -1.6035119e-06 0)
(0.05396038 1.517311e-06 0)
(0.053672885 -1.4371541e-06 0)
(0.053941413 1.3619099e-06 0)
(0.053690861 -1.2920706e-06 0)
(0.053924369 1.2266503e-06 0)
(0.053707045 -1.1660495e-06 0)
(0.053908993 1.1094563e-06 0)
(0.05372168 -1.0571742e-06 0)
(0.053895053 1.0085471e-06 0)
(0.053734983 -9.6379833e-07 0)
(0.053882342 9.2240056e-07 0)
(0.053747153 -8.8451677e-07 0)
(0.053870672 8.4972274e-07 0)
(0.05375837 -8.1813804e-07 0)
(0.05385987 7.8941728e-07 0)
(0.053768799 -7.6366239e-07 0)
(0.053849778 7.405499e-07 0)
(0.053778595 -7.2021088e-07 0)
(0.053840245 7.025269e-07 0)
(0.053787902 -6.8630718e-07 0)
(0.053831109 6.7560083e-07 0)
(0.053796826 -6.6371133e-07 0)
(0.053822215 6.3344868e-07 0)
(0.053805929 -7.7183116e-07 0)
(0.053815796 5.9774296e-07 0)
(0.046670313 0.0068311275 0)
(0.06324259 -0.00046099991 0)
(0.057170584 0.00035568696 0)
(0.058773896 -1.2032029e-05 0)
(0.057432539 4.136378e-06 0)
(0.058802301 1.0519455e-05 0)
(0.05747964 2.6329737e-06 0)
(0.058617174 3.7761045e-06 0)
(0.057585835 -3.2761992e-06 0)
(0.058538862 3.6347302e-06 0)
(0.057655357 -3.6304917e-06 0)
(0.058483304 3.5755091e-06 0)
(0.057705627 -3.3342565e-06 0)
(0.058435615 3.209172e-06 0)
(0.057749307 -2.9908456e-06 0)
(0.058393725 2.8417056e-06 0)
(0.057788338 -2.6665623e-06 0)
(0.058356662 2.5213916e-06 0)
(0.057823146 -2.3745317e-06 0)
(0.058323755 2.2423131e-06 0)
(0.057854151 -2.1156676e-06 0)
(0.058294481 1.9980931e-06 0)
(0.057881781 -1.8876877e-06 0)
(0.058268387 1.7841496e-06 0)
(0.05790644 -1.6876309e-06 0)
(0.058245078 1.5969057e-06 0)
(0.057928497 -1.5125859e-06 0)
(0.058224201 1.4333845e-06 0)
(0.057948284 -1.3599119e-06 0)
(0.058205441 1.2910463e-06 0)
(0.057966097 -1.227287e-06 0)
(0.058188516 1.1677105e-06 0)
(0.057982206 -1.1126989e-06 0)
(0.058173171 1.0615064e-06 0)
(0.057996849 -1.014418e-06 0)
(0.05815918 9.7083457e-07 0)
(0.058010244 -9.3096733e-07 0)
(0.058146336 8.943343e-07 0)
(0.058022589 -8.6109288e-07 0)
(0.058134449 8.3085087e-07 0)
(0.058034066 -8.0374111e-07 0)
(0.058123343 7.7939569e-07 0)
(0.058044845 -7.5798257e-07 0)
(0.058112854 7.3934469e-07 0)
(0.058055084 -7.2218083e-07 0)
(0.058102808 7.1111772e-07 0)
(0.058064901 -6.9803162e-07 0)
(0.058093026 6.6555212e-07 0)
(0.058074845 -8.1962329e-07 0)
(0.058085622 6.2381515e-07 0)
(0.051518263 0.0073220534 0)
(0.066584003 -0.00046220527 0)
(0.061099536 0.00038348155 0)
(0.062940549 -1.2186685e-05 0)
(0.061442198 3.3655871e-06 0)
(0.062967693 1.0762008e-05 0)
(0.061542604 3.1546837e-06 0)
(0.062786133 3.6688687e-06 0)
(0.061663149 -3.3341761e-06 0)
(0.062702119 3.7130694e-06 0)
(0.061739177 -3.77185e-06 0)
(0.062641939 3.7212177e-06 0)
(0.061794024 -3.4701446e-06 0)
(0.062590043 3.3451942e-06 0)
(0.061841688 -3.1146347e-06 0)
(0.062544396 2.9613236e-06 0)
(0.061884258 -2.777732e-06 0)
(0.062503996 2.6271682e-06 0)
(0.061922209 -2.473864e-06 0)
(0.062468126 2.3363197e-06 0)
(0.061956009 -2.2043363e-06 0)
(0.062436212 2.0818939e-06 0)
(0.061986131 -1.9668977e-06 0)
(0.062407765 1.8590282e-06 0)
(0.062013014 -1.7585076e-06 0)
(0.062382353 1.6639697e-06 0)
(0.062037061 -1.5761506e-06 0)
(0.062359591 1.4936126e-06 0)
(0.062058634 -1.4170848e-06 0)
(0.062339136 1.3453136e-06 0)
(0.062078057 -1.2788975e-06 0)
(0.062320681 1.2168047e-06 0)
(0.06209562 -1.1594967e-06 0)
(0.06230395 1.1061404e-06 0)
(0.062111586 -1.0570834e-06 0)
(0.062288696 1.0116564e-06 0)
(0.06212619 -9.7011997e-07 0)
(0.062274692 9.3193583e-07 0)
(0.062139649 -8.9729983e-07 0)
(0.062261733 8.657744e-07 0)
(0.06215216 -8.3752361e-07 0)
(0.062249627 8.121365e-07 0)
(0.062163909 -7.8981875e-07 0)
(0.062238195 7.7037147e-07 0)
(0.062175068 -7.5239697e-07 0)
(0.062227251 7.4108152e-07 0)
(0.062185768 -7.2684446e-07 0)
(0.062216595 6.9244274e-07 0)
(0.062196538 -8.611873e-07 0)
(0.062208187 6.4431321e-07 0)
(0.054942499 0.0073791763 0)
(0.069515873 -0.00058485255 0)
(0.064869642 0.00039857658 0)
(0.066976422 -1.3153784e-05 0)
(0.065305101 2.736462e-06 0)
(0.066984935 1.0707062e-05 0)
(0.065459496 3.6657573e-06 0)
(0.066807241 3.4785821e-06 0)
(0.065594134 -3.3537804e-06 0)
(0.066717415 3.7523096e-06 0)
(0.065676447 -3.8842284e-06 0)
(0.066652699 3.838727e-06 0)
(0.065735778 -3.5799393e-06 0)
(0.066596682 3.45653e-06 0)
(0.065787358 -3.2151401e-06 0)
(0.066547348 3.059008e-06 0)
(0.065833405 -2.8682268e-06 0)
(0.066503673 2.7134621e-06 0)
(0.065874443 -2.5548214e-06 0)
(0.066464891 2.4129966e-06 0)
(0.06591099 -2.2766473e-06 0)
(0.066430385 2.1502525e-06 0)
(0.065943559 -2.0315177e-06 0)
(0.066399625 1.9201182e-06 0)
(0.065972628 -1.8163419e-06 0)
(0.066372145 1.7186919e-06 0)
(0.065998632 -1.6280257e-06 0)
(0.06634753 1.5427626e-06 0)
(0.066021961 -1.4637481e-06 0)
(0.066325409 1.389603e-06 0)
(0.066042966 -1.3210238e-06 0)
(0.06630545 1.2568751e-06 0)
(0.06606196 -1.197697e-06 0)
(0.066287357 1.1425727e-06 0)
(0.066079226 -1.0919122e-06 0)
(0.06627086 1.0449792e-06 0)
(0.066095019 -1.0020828e-06 0)
(0.066255716 9.626314e-07 0)
(0.066109573 -9.2685897e-07 0)
(0.066241702 8.9428471e-07 0)
(0.066123101 -8.6510359e-07 0)
(0.066228613 8.3886365e-07 0)
(0.066135803 -8.1580836e-07 0)
(0.066216255 7.956946e-07 0)
(0.066147866 -7.770436e-07 0)
(0.066204427 7.65573e-07 0)
(0.066159434 -7.5024711e-07 0)
(0.066192915 7.1422367e-07 0)
(0.066171012 -8.9643489e-07 0)
(0.066183493 6.5948103e-07 0)
(0.059677787 0.0076798274 0)
(0.072497499 -0.00058005682 0)
(0.068528207 0.00041339067 0)
(0.070830602 -1.5232692e-05 0)
(0.069027422 2.0339218e-06 0)
(0.070853389 1.0243036e-05 0)
(0.069230455 4.1304431e-06 0)
(0.070680415 3.1929827e-06 0)
(0.069378996 -3.3390428e-06 0)
(0.070584651 3.7523066e-06 0)
(0.069467313 -3.9687364e-06 0)
(0.07051547 3.9284793e-06 0)
(0.069531007 -3.6642819e-06 0)
(0.070455423 3.5436242e-06 0)
(0.06958642 -3.2928571e-06 0)
(0.070402486 3.1351799e-06 0)
(0.069635869 -2.9384651e-06 0)
(0.070355607 2.7806528e-06 0)
(0.069679929 -2.6177659e-06 0)
(0.070313975 2.4726799e-06 0)
(0.069719165 -2.3329174e-06 0)
(0.070276932 2.2034659e-06 0)
(0.06975413 -2.0818266e-06 0)
(0.070243908 1.9676825e-06 0)
(0.069785339 -1.8613809e-06 0)
(0.070214404 1.7613062e-06 0)
(0.069813258 -1.6684316e-06 0)
(0.070187974 1.5810433e-06 0)
(0.069838307 -1.500099e-06 0)
(0.070164221 1.4241022e-06 0)
(0.069860861 -1.3538436e-06 0)
(0.070142789 1.288091e-06 0)
(0.069881256 -1.2274604e-06 0)
(0.07012336 1.1709571e-06 0)
(0.069899796 -1.1190508e-06 0)
(0.070105647 1.070943e-06 0)
(0.069916753 -1.0269901e-06 0)
(0.070089386 9.8655024e-07 0)
(0.069932379 -9.4989454e-07 0)
(0.07007434 9.1650185e-07 0)
(0.069946903 -8.865971e-07 0)
(0.070060288 8.5969002e-07 0)
(0.069960539 -8.3606113e-07 0)
(0.070047022 8.1542174e-07 0)
(0.069973488 -7.9622803e-07 0)
(0.07003433 7.8469218e-07 0)
(0.069985906 -7.6835526e-07 0)
(0.070021981 7.3101159e-07 0)
(0.069998273 -9.2532496e-07 0)
(0.070011542 6.6958422e-07 0)
(0.063361772 0.00773841 0)
(0.075117227 -0.00069562388 0)
(0.072118061 0.00041655933 0)
(0.074482738 -1.8032471e-05 0)
(0.072613184 9.4145059e-07 0)
(0.074572752 9.4752668e-06 0)
(0.072855866 4.5474996e-06 0)
(0.074405578 2.8140852e-06 0)
(0.073017909 -3.2893667e-06 0)
(0.074303738 3.7148388e-06 0)
(0.073111905 -4.0258429e-06 0)
(0.074230152 3.9913036e-06 0)
(0.07317982 -3.7237596e-06 0)
(0.074166174 3.6070648e-06 0)
(0.073238966 -3.3483219e-06 0)
(0.074109724 3.1903464e-06 0)
(0.073291732 -2.9889209e-06 0)
(0.074059723 2.829186e-06 0)
(0.073338738 -2.6631144e-06 0)
(0.074015313 2.5157622e-06 0)
(0.073380595 -2.3735141e-06 0)
(0.073975794 2.2418809e-06 0)
(0.073417897 -2.1181499e-06 0)
(0.073940561 2.0020286e-06 0)
(0.073451193 -1.8939138e-06 0)
(0.073909082 1.7920863e-06 0)
(0.073480982 -1.6976263e-06 0)
(0.073880881 1.6086996e-06 0)
(0.073507709 -1.5263692e-06 0)
(0.073855536 1.4490312e-06 0)
(0.073531775 -1.3775655e-06 0)
(0.073832667 1.3106512e-06 0)
(0.073553537 -1.2489761e-06 0)
(0.073811936 1.1914739e-06 0)
(0.073573319 -1.1386715e-06 0)
(0.073793034 1.089713e-06 0)
(0.073591413 -1.0449997e-06 0)
(0.073775685 1.003844e-06 0)
(0.073608086 -9.6655238e-07 0)
(0.073759631 9.3256663e-07 0)
(0.073623581 -9.0214019e-07 0)
(0.073744639 8.7474779e-07 0)
(0.073638128 -8.5070551e-07 0)
(0.073730487 8.2967874e-07 0)
(0.073651941 -8.1007496e-07 0)
(0.073716952 7.9855639e-07 0)
(0.07366519 -7.8130086e-07 0)
(0.073703788 7.4293561e-07 0)
(0.073678324 -9.4785938e-07 0)
(0.073692335 6.7490286e-07 0)
(0.067929188 0.0078709457 0)
(0.077851987 -0.00068587529 0)
(0.075628556 0.00042193806 0)
(0.077952872 -2.1052173e-05 0)
(0.076063499 -8.744504e-07 0)
(0.078142165 8.4413698e-06 0)
(0.076336328 4.9080039e-06 0)
(0.077982444 2.3473641e-06 0)
(0.076510905 -3.2039401e-06 0)
(0.077874521 3.6417461e-06 0)
(0.07661029 -4.0562075e-06 0)
(0.077796631 4.0279306e-06 0)
(0.076682295 -3.7591443e-06 0)
(0.077728845 3.647435e-06 0)
(0.076745071 -3.382176e-06 0)
(0.077668988 3.2250511e-06 0)
(0.076801061 -3.0201384e-06 0)
(0.077615954 2.8595531e-06 0)
(0.076850931 -2.6913386e-06 0)
(0.077568844 2.5426814e-06 0)
(0.076895336 -2.3988517e-06 0)
(0.07752692 2.2658864e-06 0)
(0.07693491 -2.1408543e-06 0)
(0.07748954 2.0235026e-06 0)
(0.076970236 -1.9142672e-06 0)
(0.07745614 1.8113413e-06 0)
(0.077001842 -1.7159019e-06 0)
(0.077426218 1.6260085e-06 0)
(0.0770302 -1.5428208e-06 0)
(0.077399324 1.4646391e-06 0)
(0.077055735 -1.3924259e-06 0)
(0.077375058 1.3247805e-06 0)
(0.077078827 -1.2624579e-06 0)
(0.07735306 1.2043274e-06 0)
(0.077099818 -1.1509691e-06 0)
(0.077333004 1.1014755e-06 0)
(0.077119017 -1.0562902e-06 0)
(0.077314595 1.0146843e-06 0)
(0.077136707 -9.7699738e-07 0)
(0.077297562 9.426382e-07 0)
(0.077153147 -9.1188666e-07 0)
(0.077281655 8.8418626e-07 0)
(0.077168581 -8.598865e-07 0)
(0.077266641 8.3860753e-07 0)
(0.077183234 -8.1872439e-07 0)
(0.077252287 8.0729838e-07 0)
(0.07719729 -7.8922994e-07 0)
(0.077238333 7.5013598e-07 0)
(0.077211168 -9.6407887e-07 0)
(0.077225876 6.7572546e-07 0)
(0.071795112 0.0079160963 0)
(0.080285764 -0.00079072734 0)
(0.079009361 0.00041511117 0)
(0.081289554 -2.3081725e-05 0)
(0.079384734 -3.2090794e-06 0)
(0.081562698 7.3322722e-06 0)
(0.079673752 5.2405797e-06 0)
(0.081411024 1.8170158e-06 0)
(0.07985818 -3.0768892e-06 0)
(0.081296943 3.5373259e-06 0)
(0.079962565 -4.0594849e-06 0)
(0.08121483 4.039627e-06 0)
(0.080038509 -3.7710477e-06 0)
(0.081143363 3.6654793e-06 0)
(0.080104805 -3.3950647e-06 0)
(0.081080211 3.239915e-06 0)
(0.08016392 -3.0326972e-06 0)
(0.081024242 2.872299e-06 0)
(0.080216563 -2.7029504e-06 0)
(0.080974518 2.5539193e-06 0)
(0.080263436 -2.4093834e-06 0)
(0.080930263 2.2759099e-06 0)
(0.080305211 -2.1503423e-06 0)
(0.080890804 2.0324852e-06 0)
(0.080342503 -1.9228002e-06 0)
(0.080855543 1.8194111e-06 0)
(0.080375869 -1.7235797e-06 0)
(0.080823952 1.6332746e-06 0)
(0.080405809 -1.5497423e-06 0)
(0.080795559 1.4712001e-06 0)
(0.080432768 -1.3986849e-06 0)
(0.080769939 1.3307269e-06 0)
(0.080457148 -1.2681416e-06 0)
(0.080746713 1.2097426e-06 0)
(0.080479309 -1.1561581e-06 0)
(0.080725538 1.1064361e-06 0)
(0.080499579 -1.0610583e-06 0)
(0.080706102 1.0192601e-06 0)
(0.080518255 -9.8141127e-07 0)
(0.08068812 9.4689185e-07 0)
(0.080535612 -9.1600587e-07 0)
(0.080671327 8.8816974e-07 0)
(0.080551904 -8.637637e-07 0)
(0.080655479 8.4236424e-07 0)
(0.080567371 -8.2232984e-07 0)
(0.080640331 8.1106463e-07 0)
(0.080582211 -7.9230072e-07 0)
(0.080625613 7.5276289e-07 0)
(0.080596808 -9.7405924e-07 0)
(0.080612165 6.723438e-07 0)
(0.076150777 0.0079029755 0)
(0.082888452 -0.00077384838 0)
(0.082217468 0.00040876648 0)
(0.084522622 -2.3960865e-05 0)
(0.082581619 -5.5633044e-06 0)
(0.084834252 6.219101e-06 0)
(0.082869992 5.5526256e-06 0)
(0.084691192 1.2471208e-06 0)
(0.083059897 -2.9069977e-06 0)
(0.084570974 3.4045975e-06 0)
(0.083168826 -4.0359536e-06 0)
(0.084484684 4.0274477e-06 0)
(0.083248535 -3.7602643e-06 0)
(0.084409665 3.6619257e-06 0)
(0.08331823 -3.3877151e-06 0)
(0.084343337 3.2355849e-06 0)
(0.083380361 -3.0272298e-06 0)
(0.084284536 2.8680031e-06 0)
(0.083435682 -2.6985039e-06 0)
(0.08423229 2.5499924e-06 0)
(0.083484938 -2.4055983e-06 0)
(0.084185786 2.2724118e-06 0)
(0.083528837 -2.1470488e-06 0)
(0.084144317 2.0293868e-06 0)
(0.083568028 -1.9199004e-06 0)
(0.08410726 1.8166628e-06 0)
(0.083603094 -1.7210069e-06 0)
(0.084074059 1.6308273e-06 0)
(0.08363456 -1.5474458e-06 0)
(0.084044217 1.4690106e-06 0)
(0.083662894 -1.3966239e-06 0)
(0.08401729 1.3287582e-06 0)
(0.083688518 -1.2662822e-06 0)
(0.083992879 1.2079627e-06 0)
(0.08371181 -1.1544709e-06 0)
(0.083970623 1.1048169e-06 0)
(0.083733114 -1.0595168e-06 0)
(0.083950195 1.0177757e-06 0)
(0.083752742 -9.7999048e-07 0)
(0.083931296 9.4551707e-07 0)
(0.083770983 -9.146809e-07 0)
(0.083913648 8.8687581e-07 0)
(0.083788104 -8.6250951e-07 0)
(0.083896993 8.4111747e-07 0)
(0.083804358 -8.2105671e-07 0)
(0.083881078 8.1001372e-07 0)
(0.083819955 -7.9068191e-07 0)
(0.083865624 7.5097541e-07 0)
(0.083835246 -9.779079e-07 0)
(0.083851206 6.6504884e-07 0)
(0.080130793 0.0079184886 0)
(0.085222612 -0.00086277744 0)
(0.085255859 0.00039103733 0)
(0.087644165 -2.5294828e-05 0)
(0.085646233 -8.2051244e-06 0)
(0.087954729 5.1285525e-06 0)
(0.085925405 5.7900884e-06 0)
(0.08782233 6.5409262e-07 0)
(0.086115975 -2.7007002e-06 0)