/*--------------------------------*- C++ -*----------------------------------*\
| =========                 |                                                 |
| \\      /  F ield         | OpenFOAM: The Open Source CFD Toolbox           |
|  \\    /   O peration     | Version:  2312                                  |
|   \\  /    A nd           | Website:  www.openfoam.com                      |
|    \\/     M anipulation  |                                                 |
\*---------------------------------------------------------------------------*/
FoamFile
{
    version     2.0;
    format      ascii;
    arch        "LSB;label=32;scalar=64";
    class       surfaceScalarField;
    location    "10";
    object      phi;
}
// * * * * * * * * * * * * * * * * * * * * * * * * * * * * * * * * * * * * * //

dimensions      [0 3 -1 0 0 0 0];

oriented        oriented;

internalField   nonuniform List<scalar> 
7870
(
1.3282433e-10
2.8154257e-09
1.3368788e-10
-8.6356008e-13
1.1284894e-10
2.083894e-11
1.1393695e-10
-1.0880199e-12
1.1435294e-10
-4.159918e-13
1.128782e-10
1.4747405e-12
1.1380243e-10
-9.2423612e-13
1.1265186e-10
1.1505738e-12
1.1369134e-10
-1.0394806e-12
1.1267303e-10
1.0183138e-12
1.1362841e-10
-9.5538638e-13
1.1271899e-10
9.0942369e-13
1.1357405e-10
-8.5505663e-13
1.1276495e-10
8.0909928e-13
1.1352676e-10
-7.6181633e-13
1.128073e-10
7.1946373e-13
1.1348554e-10
-6.7824282e-13
1.1284527e-10
6.4027117e-13
1.1344936e-10
-6.0408955e-13
1.1287897e-10
5.7038779e-13
1.1341751e-10
-5.3854066e-13
1.1290874e-10
5.0877149e-13
1.1338949e-10
-4.8074602e-13
1.1293495e-10
4.5453915e-13
1.1336487e-10
-4.299235e-13
1.1295795e-10
4.0692793e-13
1.1334332e-10
-3.8537108e-13
1.1297805e-10
3.6526801e-13
1.1332451e-10
-3.4646322e-13
1.1299554e-10
3.2896775e-13
1.1330819e-10
-3.1264509e-13
1.1301068e-10
2.9750501e-13
1.1329411e-10
-2.8342745e-13
1.1302369e-10
2.7042146e-13
1.1328207e-10
-2.5838223e-13
1.1303475e-10
2.4731813e-13
1.1327189e-10
-2.3713875e-13
1.1304404e-10
2.2785159e-13
1.1326342e-10
-2.1938009e-13
1.1305169e-10
2.1173044e-13
1.1325653e-10
-2.0483992e-13
1.1305782e-10
1.9871265e-13
1.1325111e-10
-1.932955e-13
1.130625e-10
1.8861372e-13
1.1324706e-10
-1.8455559e-13
1.1306583e-10
1.8122692e-13
1.1324481e-10
-1.7897656e-13
1.1307041e-10
1.7439853e-13
1.1325277e-10
-1.8236174e-13
1.6769406e-13
3.5335753e-10
5.4103181e-09
3.8102292e-10
-2.8528961e-11
3.301334e-10
7.1728452e-11
3.307767e-10
-1.7313334e-12
3.3096334e-10
-6.026357e-13
3.2857274e-10
3.8653332e-12
3.2949135e-10
-1.8428414e-12
3.2781208e-10
2.829843e-12
3.2925946e-10
-2.4868624e-12
3.2779736e-10
2.4804151e-12
3.2916648e-10
-2.3245041e-12
3.2785376e-10
2.2221486e-12
3.2908531e-10
-2.0866108e-12
3.2791659e-10
1.9778216e-12
3.2901542e-10
-1.8606493e-12
3.2797662e-10
1.75827e-12
3.2895532e-10
-1.6569484e-12
3.2803112e-10
1.5644696e-12
3.2890292e-10
-1.475882e-12
3.2807972e-10
1.3935823e-12
3.2885691e-10
-1.3157285e-12
3.2812272e-10
1.2429646e-12
3.2881647e-10
-1.1744944e-12
3.2816059e-10
1.1104202e-12
3.2878096e-10
-1.0502956e-12
3.2819381e-10
9.9407071e-13
3.2874987e-10
-9.4142335e-13
3.2822286e-10
8.9227265e-13
3.2872275e-10
-8.4634912e-13
3.2824814e-10
8.0357594e-13
3.2869921e-10
-7.6371492e-13
3.2827001e-10
7.2670143e-13
3.2867891e-10
-6.9232271e-13
3.282888e-10
6.6052657e-13
3.2866155e-10
-6.311244e-13
3.2830479e-10
6.0407459e-13
3.2864686e-10
-5.7921253e-13
3.2831821e-10
5.5650502e-13
3.2863464e-10
-5.3581151e-13
3.2832927e-10
5.1710454e-13
3.286247e-10
-5.0026975e-13
3.2833813e-10
4.8528004e-13
3.2861687e-10
-4.7203952e-13
3.283449e-10
4.6059118e-13
3.2861095e-10
-4.5060785e-13
3.2834958e-10
4.4258986e-13
3.2860758e-10
-4.369688e-13
3.2835733e-10
4.2464419e-13
3.2862741e-10
-4.5243648e-13
4.0838121e-13
5.58498e-10
7.8000701e-09
6.1593669e-10
-8.5967675e-11
5.4138431e-10
1.4628083e-10
5.4220467e-10
-2.5517081e-12
5.4161606e-10
-1.4027116e-14
5.3898955e-10
6.4918368e-12
5.3931674e-10
-2.1700336e-12
5.3772427e-10
4.4223147e-12
5.3902363e-10
-3.7862201e-12
5.3765613e-10
3.8479103e-12
5.3893722e-10
-3.6055854e-12
5.3769677e-10
3.4625922e-12
5.3885743e-10
-3.2472702e-12
5.3775159e-10
3.0836666e-12
5.3878927e-10
-2.8983262e-12
5.378069e-10
2.7406365e-12
5.3873167e-10
-2.5817174e-12
5.3785804e-10
2.4381025e-12
5.3868189e-10
-2.299734e-12
5.3790391e-10
2.1715591e-12
5.3863834e-10
-2.0501593e-12
5.3794458e-10
1.9367254e-12
5.3860011e-10
-1.8300275e-12
5.3798042e-10
1.7301129e-12
5.3856657e-10
-1.6364453e-12
5.3801187e-10
1.5487687e-12
5.3853721e-10
-1.4667604e-12
5.3803936e-10
1.3901193e-12
5.385116e-10
-1.318589e-12
5.3806328e-10
1.2518965e-12
5.3848938e-10
-1.1898104e-12
5.3808398e-10
1.1321006e-12
5.3847021e-10
-1.0785527e-12
5.3810176e-10
1.0289776e-12
5.3845381e-10
-9.8317863e-13
5.3811689e-10
9.410019e-13
5.3843994e-10
-9.0227107e-13
5.3812959e-10
8.668612e-13
5.384284e-10
-8.3461905e-13
5.3814006e-10
8.0544157e-13
5.3841899e-10
-7.7920531e-13
5.3814846e-10
7.5581513e-13
5.3841159e-10
-7.3516914e-13
5.3815487e-10
7.173115e-13
5.3840589e-10
-7.0163333e-13
5.3815918e-10
6.8930477e-13
5.3840262e-10
-6.8040539e-13
5.3816829e-10
6.5897004e-13
5.3843272e-10
-7.16869e-13
6.3429592e-13
7.7029007e-10
9.9780301e-09
8.4001801e-10
-1.5569564e-10
7.4648094e-10
2.3981789e-10
7.4788582e-10
-3.9565935e-12
7.4665047e-10
1.2213154e-12
7.4378516e-10
9.3571394e-12
7.435881e-10
-1.9729636e-12
7.4210015e-10
5.9102573e-12
7.4325813e-10
-4.9441945e-12
7.4199257e-10
5.1134648e-12
7.431841e-10
-4.7971059e-12
7.4201985e-10
4.6268343e-12
7.4310675e-10
-4.3341653e-12
7.4206707e-10
4.1233454e-12
7.4304068e-10
-3.871932e-12
7.4211765e-10
3.6636632e-12
7.429858e-10
-3.4498648e-12
7.4216529e-10
3.2586087e-12
7.4293879e-10
-3.0732317e-12
7.422083e-10
2.9020497e-12
7.4289782e-10
-2.7396799e-12
7.422465e-10
2.5880414e-12
7.4286191e-10
-2.4454296e-12
7.4228019e-10
2.3118297e-12
7.4283041e-10
-2.1866691e-12
7.4230975e-10
2.0694319e-12
7.4280285e-10
-1.9598647e-12
7.4233558e-10
1.8573898e-12
7.4277882e-10
-1.7618274e-12
7.4235806e-10
1.6726601e-12
7.4275796e-10
-1.5897161e-12
7.423775e-10
1.5125614e-12
7.4273997e-10
-1.4410224e-12
7.4239421e-10
1.3747432e-12
7.4272458e-10
-1.3135529e-12
7.4240842e-10
1.2571621e-12
7.4271156e-10
-1.2054096e-12
7.4242036e-10
1.1580608e-12
7.4270071e-10
-1.1149711e-12
7.4243021e-10
1.0759474e-12
7.4269188e-10
-1.0408749e-12
7.4243812e-10
1.0095758e-12
7.4268491e-10
-9.8196048e-13
7.4244415e-10
9.5806775e-13
7.4267946e-10
-9.3694443e-13
7.4244807e-10
9.2069853e-13
7.4267614e-10
-9.0847651e-13
7.4245789e-10
8.7721953e-13
7.4271407e-10
-9.7304751e-13
8.4537992e-13
9.4521857e-10
1.1981061e-08
1.0533838e-09
-2.6386085e-10
9.4590079e-10
3.4730086e-10
9.4791503e-10
-5.9708514e-12
9.460413e-10
3.0950506e-12
9.4294348e-10
1.245495e-11
9.42301e-10
-1.3304851e-12
9.4093974e-10
7.2715259e-12
9.4196278e-10
-5.9672345e-12
9.4080628e-10
6.2699584e-12
9.4190687e-10
-5.897691e-12
9.4082255e-10
5.7111554e-12
9.4183301e-10
-5.3446209e-12
9.4086263e-10
5.0937256e-12
9.4176943e-10
-4.778738e-12
9.409085e-10
4.5246001e-12
9.4171751e-10
-4.2588811e-12
9.4095255e-10
4.0235685e-12
9.4167345e-10
-3.7941246e-12
9.4099258e-10
3.5829176e-12
9.4163519e-10
-3.3822887e-12
9.410282e-10
3.195023e-12
9.416017e-10
-3.0189256e-12
9.4105963e-10
2.8538977e-12
9.4157236e-10
-2.6993928e-12
9.4108721e-10
2.5545766e-12
9.4154669e-10
-2.4193385e-12
9.4111131e-10
2.2927654e-12
9.415243e-10
-2.1748202e-12
9.4113227e-10
2.064691e-12
9.4150488e-10
-1.962321e-12
9.4115041e-10
1.8670319e-12
9.4148812e-10
-1.7787359e-12
9.4116598e-10
1.6968784e-12
9.4147378e-10
-1.6213504e-12
9.4117924e-10
1.5517021e-12
9.4146165e-10
-1.4878168e-12
9.4119038e-10
1.4293299e-12
9.4145154e-10
-1.3761292e-12
9.4119957e-10
1.3279154e-12
9.414433e-10
-1.2846018e-12
9.4120696e-10
1.2459123e-12
9.4143679e-10
-1.2117892e-12
9.412126e-10
1.1822536e-12
9.4143162e-10
-1.155965e-12
9.4121612e-10
1.136202e-12
9.4142821e-10
-1.1205667e-12
9.4122623e-10
1.0791989e-12
9.4147194e-10
-1.2187534e-12
1.0401895e-12
1.1491764e-09
1.3780135e-08
1.2563638e-09
-3.7104834e-10
1.1390469e-09
4.646178e-10
1.1423082e-09
-9.2321997e-12
1.1397655e-09
5.6377556e-12
1.1364636e-09
1.5756874e-11
1.1354555e-09
-3.223485e-13
1.1342449e-09
8.482106e-12
1.1351389e-09
-6.8612532e-12
1.1340973e-09
7.3115441e-12
1.1351061e-09
-6.9065248e-12
1.1341047e-09
6.7126342e-12
1.1350366e-09
-6.2765705e-12
1.134138e-09
5.992308e-12
1.1349759e-09
-5.6165835e-12
1.1341792e-09
5.3212581e-12
1.1349271e-09
-5.0067744e-12
1.1342196e-09
4.7310643e-12
1.1348861e-09
-4.4606295e-12
1.1342566e-09
4.2124758e-12
1.1348507e-09
-3.9764036e-12
1.1342895e-09
3.7561825e-12
1.1348197e-09
-3.5491155e-12
1.1343186e-09
3.3550025e-12
1.1347926e-09
-3.1733774e-12
1.1343441e-09
3.003039e-12
1.1347689e-09
-2.8440833e-12
1.1343664e-09
2.6952127e-12
1.1347482e-09
-2.5565906e-12
1.1343858e-09
2.4270686e-12
1.1347303e-09
-2.3067536e-12
1.1344026e-09
2.194689e-12
1.1347148e-09
-2.0909124e-12
1.134417e-09
1.9946439e-12
1.1347015e-09
-1.9058688e-12
1.1344293e-09
1.8239554e-12
1.1346903e-09
-1.7488576e-12
1.1344396e-09
1.6800643e-12
1.134681e-09
-1.6175163e-12
1.1344481e-09
1.5607952e-12
1.1346733e-09
-1.5098588e-12
1.1344549e-09
1.46432e-12
1.1346673e-09
-1.4241716e-12
1.1344602e-09
1.3894015e-12
1.1346625e-09
-1.3582556e-12
1.1344633e-09
1.3353793e-12
1.1346589e-09
-1.3162272e-12
1.1344734e-09
1.2647912e-12
1.1347067e-09
-1.4520879e-12
1.2175299e-12
1.2975418e-09
1.5430843e-08
1.4473372e-09
-5.2084377e-10
1.3267446e-09
5.8521044e-10
1.3309977e-09
-1.3485294e-11
1.3277645e-09
8.870943e-12
1.3243396e-09
1.9181756e-11
1.3230455e-09
9.7174627e-13
1.3220143e-09
9.5132688e-12
1.3227864e-09
-7.6333566e-12
1.321865e-09
8.2329668e-12
1.3227822e-09
-7.8237114e-12
1.3218658e-09
7.6290249e-12
1.3227179e-09
-7.1286614e-12
1.321893e-09
6.8172307e-12
1.3226603e-09
-6.3839303e-12
1.3219296e-09
6.0520353e-12
1.3226149e-09
-5.6921106e-12
1.3219662e-09
5.3797072e-12
1.3225771e-09
-5.0714629e-12
1.322e-09
4.7895101e-12
1.3225445e-09
-4.5208887e-12
1.3220303e-09
4.2704541e-12
1.3225161e-09
-4.0349974e-12
1.3220569e-09
3.8142055e-12
1.3224913e-09
-3.6077382e-12
1.3220803e-09
3.4139897e-12
1.3224696e-09
-3.2333157e-12
1.3221008e-09
3.0639959e-12
1.3224506e-09
-2.9064422e-12
1.3221186e-09
2.7591374e-12
1.3224342e-09
-2.6223922e-12
1.322134e-09
2.4949458e-12
1.32242e-09
-2.3769945e-12
1.3221472e-09
2.2675125e-12
1.3224079e-09
-2.166606e-12
1.3221584e-09
2.0734458e-12
1.3223976e-09
-1.9880778e-12
1.3221679e-09
1.9098321e-12
1.3223891e-09
-1.8387198e-12
1.3221757e-09
1.7741931e-12
1.3223821e-09
-1.716269e-12
1.322182e-09
1.664439e-12
1.3223766e-09
-1.6187626e-12
1.3221868e-09
1.5791785e-12
1.322372e-09
-1.5435077e-12
1.3221895e-09
1.5179185e-12
1.3223684e-09
-1.4951566e-12
1.3221993e-09
1.4339511e-12
1.3224186e-09
-1.6714543e-12
1.3767446e-12
1.4866853e-09
1.6892408e-08
1.6292903e-09
-6.6344877e-10
1.5080812e-09
7.0641954e-10
1.5137894e-09
-1.9193482e-11
1.5100933e-09
1.2567025e-11
1.5066013e-09
2.2673682e-11
1.5050848e-09
2.4883012e-12
1.5042542e-09
1.0343863e-11
1.5049086e-09
-8.2877486e-12
1.5041102e-09
9.0313991e-12
1.5049358e-09
-8.6493806e-12
1.5041059e-09
8.4589863e-12
1.5048772e-09
-7.9000278e-12
1.5041272e-09
7.567246e-12
1.5048231e-09
-7.079765e-12
1.5041592e-09
6.7158557e-12
1.5047811e-09
-6.3139429e-12
1.5041922e-09
5.9685761e-12
1.5047465e-09
-5.6257807e-12
1.5042228e-09
5.3132232e-12
1.5047169e-09
-5.0150013e-12
1.5042502e-09
4.7371429e-12
1.5046911e-09
-4.4759191e-12
1.5042745e-09
4.2308979e-12
1.5046686e-09
-4.0019016e-12
1.5042957e-09
3.7868922e-12
1.5046489e-09
-3.5865289e-12
1.5043143e-09
3.3986399e-12
1.5046318e-09
-3.223925e-12
1.5043304e-09
3.0604742e-12
1.5046169e-09
-2.908835e-12
1.5043444e-09
2.7674235e-12
1.504604e-09
-2.6366218e-12
1.5043564e-09
2.5151432e-12
1.504593e-09
-2.4032372e-12
1.5043666e-09
2.2998653e-12
1.5045837e-09
-2.2051836e-12
1.5043752e-09
2.118354e-12
1.5045759e-09
-2.0394725e-12
1.5043823e-09
1.967855e-12
1.5045696e-09
-1.9035889e-12
1.504388e-09
1.8460374e-12
1.5045646e-09
-1.7953403e-12
1.5043924e-09
1.7513711e-12
1.5045604e-09
-1.7115283e-12
1.5043947e-09
1.6836179e-12
1.5045567e-09
-1.6571793e-12
1.504404e-09
1.5866986e-12
1.504608e-09
-1.8755211e-12
1.5175895e-12
1.6207022e-09
1.8219956e-08
1.7986781e-09
-8.4142467e-10
1.6837755e-09
8.2132213e-10
1.6896104e-09
-2.5028327e-11
1.6865562e-09
1.562121e-11
1.6832199e-09
2.6009937e-11
1.6815677e-09
4.1405097e-12
1.6809632e-09
1.0948391e-11
1.6815056e-09
-8.8301775e-12
1.6808324e-09
9.7046384e-12
1.6815673e-09
-9.3842769e-12
1.6808245e-09
9.201707e-12
1.6815148e-09
-8.5903359e-12
1.6808405e-09
8.2415975e-12
1.6814643e-09
-7.7035555e-12
1.680868e-09
7.3120979e-12
1.6814259e-09
-6.8717567e-12
1.6808973e-09
6.4971586e-12
1.6813946e-09
-6.1231247e-12
1.6809247e-09
5.7831827e-12
1.681368e-09
-5.4583424e-12
1.6809493e-09
5.1558786e-12
1.6813449e-09
-4.8715342e-12
1.680971e-09
4.604759e-12
1.6813247e-09
-4.3555654e-12
1.6809901e-09
4.1214665e-12
1.681307e-09
-3.9034574e-12
1.6810068e-09
3.6988973e-12
1.6812917e-09
-3.5088039e-12
1.6810213e-09
3.3308589e-12
1.6812783e-09
-3.1658724e-12
1.6810338e-09
3.0119252e-12
1.6812668e-09
-2.8696064e-12
1.6810446e-09
2.7373589e-12
1.6812569e-09
-2.6155932e-12
1.6810537e-09
2.503054e-12
1.6812486e-09
-2.400022e-12
1.6810615e-09
2.3054852e-12
1.6812416e-09
-2.2196364e-12
1.6810678e-09
2.1416501e-12
1.6812359e-09
-2.0716937e-12
1.681073e-09
2.0089974e-12
1.6812314e-09
-1.9537933e-12
1.6810769e-09
1.905873e-12
1.6812276e-09
-1.8622277e-12
1.6810789e-09
1.8323749e-12
1.6812239e-09
-1.8022292e-12
1.6810875e-09
1.7231134e-12
1.6812752e-09
-2.063193e-12
1.64011e-12
1.7964219e-09
1.9371784e-08
1.9628406e-09
-1.0078434e-09
1.8536408e-09
9.3052194e-10
1.8579106e-09
-2.9298113e-11
1.8570105e-09
1.6521261e-11
1.8541851e-09
2.8835381e-11
1.8524961e-09
5.8294302e-12
1.8521436e-09
1.130096e-11
1.8525792e-09
-9.2657701e-12
1.852032e-09
1.0251784e-11
1.852677e-09
-1.00293e-11
1.8520217e-09
9.8570184e-12
1.852631e-09
-9.1996432e-12
1.8520326e-09
8.8400114e-12
1.8525843e-09
-8.2551848e-12
1.8520558e-09
7.8405577e-12
1.8525495e-09
-7.3654225e-12
1.8520813e-09
6.9653116e-12
1.8525216e-09
-6.5633829e-12
1.8521055e-09
6.1992838e-12
1.852498e-09
-5.850821e-12
1.8521272e-09
5.5265812e-12
1.8524775e-09
-5.2217698e-12
1.8521465e-09
4.9357257e-12
1.8524596e-09
-4.6686701e-12
1.8521634e-09
4.4176606e-12
1.852444e-09
-4.1840514e-12
1.8521782e-09
3.9647242e-12
1.8524304e-09
-3.7610359e-12
1.852191e-09
3.570253e-12
1.8524186e-09
-3.3934667e-12
1.8522021e-09
3.2284166e-12
1.8524084e-09
-3.0759146e-12
1.8522117e-09
2.934129e-12
1.8523997e-09
-2.8036442e-12
1.8522198e-09
2.6829849e-12
1.8523923e-09
-2.5725671e-12
1.8522266e-09
2.4712025e-12
1.8523862e-09
-2.3791891e-12
1.8522323e-09
2.2955588e-12
1.8523811e-09
-2.2205657e-12
1.8522368e-09
2.1533045e-12
1.8523771e-09
-2.0941093e-12
1.8522403e-09
2.0426747e-12
1.8523737e-09
-1.9956094e-12
1.8522419e-09
1.9641766e-12
1.85237e-09
-1.9303377e-12
1.8522498e-09
1.8433323e-12
1.8524202e-09
-2.2335891e-12
1.7445724e-12
1.9227265e-09
2.0397307e-08
2.1138862e-09
-1.1990031e-09
2.0178031e-09
1.026605e-09
2.0202014e-09
-3.1696473e-11
2.0216365e-09
1.508615e-11
2.0195506e-09
3.0921339e-11
2.0178874e-09
7.4926184e-12
2.0178005e-09
1.1387842e-11
2.0181314e-09
-9.5967065e-12
2.0177095e-09
1.0673668e-11
2.0182657e-09
-1.0585402e-11
2.0176973e-09
1.0425329e-11
2.0182261e-09
-9.7283725e-12
2.0177034e-09
9.3626457e-12
2.0181832e-09
-8.7349159e-12
2.0177223e-09
8.3014087e-12
2.0181521e-09
-7.7951599e-12
2.0177441e-09
7.3732258e-12
2.0181275e-09
-6.9467554e-12
2.0177651e-09
6.5617167e-12
2.0181069e-09
-6.1926234e-12
2.017784e-09
5.8494321e-12
2.0180891e-09
-5.5267984e-12
2.0178008e-09
5.2239663e-12
2.0180735e-09
-4.941374e-12
2.0178156e-09
4.675628e-12
2.01806e-09
-4.4284545e-12
2.0178284e-09
4.196259e-12
2.0180481e-09
-3.9807506e-12
2.0178396e-09
3.7787812e-12
2.0180379e-09
-3.5917345e-12
2.0178493e-09
3.4170099e-12
2.018029e-09
-3.2556519e-12
2.0178576e-09
3.105555e-12
2.0180214e-09
-2.9674861e-12
2.0178647e-09
2.8397506e-12
2.018015e-09
-2.7229071e-12
2.0178706e-09
2.6155916e-12
2.0180097e-09
-2.5182134e-12
2.0178755e-09
2.4296625e-12
2.0180053e-09
-2.3502838e-12
2.0178795e-09
2.2790378e-12
2.0180018e-09
-2.2163663e-12
2.0178826e-09
2.1618544e-12
2.0179988e-09
-2.1117611e-12
2.0178838e-09
2.0790922e-12
2.0179951e-09
-2.0416222e-12
2.0178909e-09
1.9475457e-12
2.0180434e-09
-2.3860246e-12
1.8314188e-12
2.081454e-09
2.1264103e-08
2.2593584e-09
-1.3769075e-09
2.1752977e-09
1.1106656e-09
2.1778338e-09
-3.423254e-11
2.1805501e-09
1.2369822e-11
2.1793524e-09
3.2119092e-11
2.1777517e-09
9.09324e-12
2.1779364e-09
1.1203221e-11
2.178163e-09
-9.8233635e-12
2.1778647e-09
1.0972006e-11
2.1783332e-09
-1.1053891e-11
2.1778511e-09
1.0907392e-11
2.1783001e-09
-1.0177357e-11
2.1778527e-09
9.8100134e-12
2.1782612e-09
-9.1433718e-12
2.1778674e-09
8.6951595e-12
2.1782338e-09
-8.1615064e-12
2.1778856e-09
7.7213912e-12
2.1782126e-09
-7.2737234e-12
2.1779034e-09
6.8709367e-12
2.1781949e-09
-6.4841846e-12
2.1779195e-09
6.1248465e-12
2.1781797e-09
-5.7870127e-12
2.1779338e-09
5.4698557e-12
2.1781665e-09
-5.1740302e-12
2.1779464e-09
4.8957056e-12
2.1781549e-09
-4.6369835e-12
2.1779574e-09
4.3938038e-12
2.1781449e-09
-4.168232e-12
2.177967e-09
3.9567141e-12
2.1781361e-09
-3.7609309e-12
2.1779752e-09
3.5779484e-12
2.1781286e-09
-3.4090482e-12
2.1779823e-09
3.251857e-12
2.1781221e-09
-3.1073277e-12
2.1779883e-09
2.9735517e-12
2.1781167e-09
-2.8512333e-12
2.1779934e-09
2.7388373e-12
2.1781121e-09
-2.6368867e-12
2.1779976e-09
2.5441331e-12
2.1781084e-09
-2.4610146e-12
2.178001e-09
2.3863603e-12
2.1781054e-09
-2.3207239e-12
2.1780037e-09
2.2635697e-12
2.1781028e-09
-2.2108467e-12
2.1780046e-09
2.1772655e-12
2.1780992e-09
-2.1362762e-12
2.1780108e-09
2.0359945e-12
2.1781448e-09
-2.519994e-12
1.9012299e-12
2.2023698e-09
2.2009983e-08
2.3914584e-09
-1.5659961e-09
2.3272859e-09
1.1748381e-09
2.3310953e-09
-3.8041935e-11
2.3338298e-09
9.6353312e-12
2.333628e-09
3.232089e-11
2.3320991e-09
1.0622104e-11
2.3325533e-09
1.0749001e-11
2.3326745e-09
-9.9445414e-12
2.3324971e-09
1.1149409e-11
2.3328796e-09
-1.1436389e-11
2.3324828e-09
1.1304244e-11
2.3328532e-09
-1.0547831e-11
2.3324803e-09
1.0182925e-11
2.3328185e-09
-9.4815143e-12
2.332491e-09
9.0226111e-12
2.3327948e-09
-8.465289e-12
2.3325056e-09
8.0105634e-12
2.3327769e-09
-7.5450212e-12
2.3325202e-09
7.1276346e-12
2.3327622e-09
-6.7261618e-12
2.3325336e-09
6.3534479e-12
2.3327496e-09
-6.0030015e-12
2.3325455e-09
5.6739532e-12
2.3327386e-09
-5.3671655e-12
2.3325559e-09
5.0783937e-12
2.3327291e-09
-4.8101095e-12
2.3325651e-09
4.5578059e-12
2.3327207e-09
-4.323902e-12
2.332573e-09
4.1044528e-12
2.3327135e-09
-3.9014347e-12
2.3325798e-09
3.7115929e-12
2.3327072e-09
-3.5364455e-12
2.3325857e-09
3.3733611e-12
2.3327019e-09
-3.2234794e-12
2.3325908e-09
3.0846853e-12
2.3326974e-09
-2.9578298e-12
2.332595e-09
2.8412124e-12
2.3326936e-09
-2.7354711e-12
2.3325985e-09
2.6392244e-12
2.3326905e-09
-2.5530034e-12
2.3326013e-09
2.4755113e-12
2.332688e-09
-2.407415e-12
2.3326035e-09
2.3480497e-12
2.3326858e-09
-2.2930985e-12
2.3326041e-09
2.2589072e-12
2.3326824e-09
-2.2145604e-12
2.3326094e-09
2.1089661e-12
2.3327246e-09
-2.6351548e-12
1.9546922e-12
2.3502474e-09
2.2607986e-08
2.5214329e-09
-1.7371816e-09
2.4735094e-09
1.2227616e-09
2.4791845e-09
-4.3717043e-11
2.4815686e-09
7.2511904e-12
2.4823813e-09
3.1508186e-11
2.4809343e-09
1.2069131e-11
2.4816543e-09
1.0029031e-11
2.4816679e-09
-9.9581234e-12
2.4816075e-09
1.1209798e-11
2.4819054e-09
-1.1734346e-11
2.4815922e-09
1.1617442e-11
2.4818857e-09
-1.0841247e-11
2.4815861e-09
1.0482532e-11
2.4818551e-09
-9.7505746e-12
2.4815929e-09
9.2848425e-12
2.4818352e-09
-8.7075857e-12
2.481604e-09
8.2417378e-12
2.4818206e-09
-7.7616057e-12
2.4816155e-09
7.3327115e-12
2.4818088e-09
-6.9194091e-12
2.4816262e-09
6.5360448e-12
2.4817987e-09
-6.1755273e-12
2.4816357e-09
5.8369816e-12
2.48179e-09
-5.5214607e-12
2.481644e-09
5.2243378e-12
2.4817823e-09
-4.9484408e-12
2.4816513e-09
4.6888425e-12
2.4817757e-09
-4.448305e-12
2.4816577e-09
4.2225143e-12
2.48177e-09
-4.013735e-12
2.4816631e-09
3.8184087e-12
2.481765e-09
-3.638285e-12
2.4816678e-09
3.4704885e-12
2.4817607e-09
-3.3163419e-12
2.4816719e-09
3.1735351e-12
2.4817571e-09
-3.043063e-12
2.4816752e-09
2.9230694e-12
2.4817541e-09
-2.8143051e-12
2.481678e-09
2.7152632e-12
2.4817516e-09
-2.6265661e-12
2.4816803e-09
2.5467981e-12
2.4817496e-09
-2.4767383e-12
2.4816821e-09
2.4155876e-12
2.4817478e-09
-2.3588099e-12
2.4816824e-09
2.3242892e-12
2.4817447e-09
-2.2767947e-12
2.4816868e-09
2.1667903e-12
2.481783e-09
-2.7313136e-12
1.9925698e-12
2.4697971e-09
2.3086439e-08
2.6412516e-09
-1.9086361e-09
2.6144384e-09
1.2495748e-09
2.6213197e-09
-5.0598379e-11
2.6238772e-09
4.693768e-12
2.6256137e-09
2.9771694e-11
2.6242595e-09
1.3423322e-11
2.6252416e-09
9.0468488e-12
2.6251451e-09
-9.8615642e-12
2.6251967e-09
1.1158174e-11
2.6254113e-09
-1.1948956e-11
2.6251797e-09
1.1849073e-11
2.6253977e-09
-1.1059209e-11
2.6251699e-09
1.0710309e-11
2.6253713e-09
-9.9520126e-12
2.625173e-09
9.4831839e-12
2.6253551e-09
-8.889695e-12
2.6251807e-09
8.4161221e-12
2.6253437e-09
-7.9246314e-12
2.6251892e-09
7.4872535e-12
2.6253347e-09
-7.0649543e-12
2.6251972e-09
6.6736085e-12
2.6253271e-09
-6.3055061e-12
2.6252043e-09
5.9598077e-12
2.6253206e-09
-5.6377327e-12
2.6252106e-09
5.3343113e-12
2.6253149e-09
-5.0527068e-12
2.6252161e-09
4.7876049e-12
2.6253099e-09
-4.542094e-12
2.6252209e-09
4.3115187e-12
2.6253056e-09
-4.0984185e-12
2.625225e-09
3.898954e-12
2.6253019e-09
-3.7150965e-12
2.6252286e-09
3.5437445e-12
2.6252987e-09
-3.3863963e-12
2.6252316e-09
3.2405614e-12
2.6252959e-09
-3.1073733e-12
2.6252342e-09
2.9848312e-12
2.6252937e-09
-2.8737951e-12
2.6252363e-09
2.7726418e-12
2.6252918e-09
-2.6820815e-12
2.625238e-09
2.6005888e-12
2.6252903e-09
-2.5290518e-12
2.6252394e-09
2.466534e-12
2.6252889e-09
-2.4083293e-12
2.6252394e-09
2.3737376e-12
2.625286e-09
-2.3233506e-12
2.625243e-09
2.2098361e-12
2.6253201e-09
-2.8084116e-12
2.0156811e-12
2.6092166e-09
2.3425472e-08
2.7622273e-09
-2.0616468e-09
2.7501778e-09
1.2616243e-09
2.7570747e-09
-5.7495266e-11
2.7608339e-09
9.3455079e-13
2.7633192e-09
2.7286431e-11
2.7620802e-09
1.4662272e-11
2.7633176e-09
7.8095096e-12
2.7631079e-09
-9.6519066e-12
2.7632656e-09
1.1000478e-11
2.7633978e-09
-1.2081185e-11
2.7632452e-09
1.2001677e-11
2.7633895e-09
-1.1203451e-11
2.7632317e-09
1.0868033e-11
2.7633672e-09
-1.0087477e-11
2.7632312e-09
9.619198e-12
2.7633546e-09
-9.0131019e-12
2.7632356e-09
8.5351159e-12
2.7633464e-09
-8.0354225e-12
2.7632411e-09
7.5925112e-12
2.7633402e-09
-7.1639769e-12
2.7632465e-09
6.7672541e-12
2.763335e-09
-6.3939884e-12
2.7632514e-09
6.0434252e-12
2.7633306e-09
-5.7169178e-12
2.7632557e-09
5.4092008e-12
2.7633267e-09
-5.1237437e-12
2.7632594e-09
4.8548857e-12
2.7633234e-09
-4.6060181e-12
2.7632627e-09
4.3721768e-12
2.7633204e-09
-4.1561585e-12
2.7632655e-09
3.9538693e-12
2.7633179e-09
-3.7674883e-12
2.7632679e-09
3.5937091e-12
2.7633157e-09
-3.4341955e-12
2.76327e-09
3.2862931e-12
2.7633139e-09
-3.1512664e-12
2.7632718e-09
3.0269835e-12
2.7633124e-09
-2.9144077e-12
2.7632732e-09
2.8118104e-12
2.7633111e-09
-2.7199848e-12
2.7632744e-09
2.6373058e-12
2.7633101e-09
-2.5647654e-12
2.7632753e-09
2.5012906e-12
2.7633091e-09
-2.4420536e-12
2.7632752e-09
2.4076275e-12
2.7633065e-09
-2.3546452e-12
2.7632778e-09
2.2385072e-12
2.7633359e-09
-2.8665127e-12
2.0248786e-12
2.7282043e-09
2.3645518e-08
2.8745162e-09
-2.2079587e-09
2.8810233e-09
1.2551171e-09
2.8868644e-09
-6.3336354e-11
2.8924386e-09
-4.6396279e-12
2.8955006e-09
2.422446e-11
2.8944035e-09
1.5759382e-11
2.8958775e-09
6.3354288e-12
2.895554e-09
-9.328418e-12
2.8958124e-09
1.0742077e-11
2.8958641e-09
-1.2132801e-11
2.8957882e-09
1.2077589e-11
2.8958609e-09
-1.1276179e-11
2.8957714e-09
1.0957545e-11
2.8958428e-09
-1.0158892e-11
2.8957674e-09
9.6945899e-12
2.8958338e-09
-9.079487e-12
2.8957686e-09
8.6002685e-12
2.8958287e-09
-8.095461e-12
2.8957713e-09
7.6498735e-12
2.8958251e-09
-7.2177914e-12
2.8957742e-09
6.8182207e-12
2.8958223e-09
-6.4421432e-12
2.8957768e-09
6.0889385e-12
2.8958199e-09
-5.7600576e-12
2.8957791e-09
5.4499916e-12
2.8958179e-09
-5.1624818e-12
2.8957812e-09
4.891566e-12
2.8958161e-09
-4.6409105e-12
2.895783e-09
4.4052794e-12
2.8958145e-09
-4.1877048e-12
2.8957845e-09
3.9838674e-12
2.8958132e-09
-3.7961379e-12
2.8957859e-09
3.6210284e-12
2.895812e-09
-3.4603553e-12
2.895787e-09
3.3113194e-12
2.895811e-09
-3.175306e-12
2.895788e-09
3.0500678e-12
2.8958102e-09
-2.9366632e-12
2.8957888e-09
2.8332709e-12
2.8958095e-09
-2.7407605e-12
2.8957894e-09
2.6574194e-12
2.895809e-09
-2.5843361e-12
2.89579e-09
2.5203043e-12
2.8958083e-09
-2.4604231e-12
2.8957896e-09
2.4263776e-12
2.8958061e-09
-2.3711344e-12
2.8957913e-09
2.2532393e-12
2.8958306e-09
-2.9057918e-12
2.0210324e-12
2.8604846e-09
2.3733283e-08
2.9882944e-09
-2.3357684e-09
3.0070209e-09
1.2363906e-09
3.011661e-09
-6.7976474e-11
3.0188322e-09
-1.1810822e-11
3.0222039e-09
2.085278e-11
3.0212638e-09
1.6699468e-11
3.0229249e-09
4.6743511e-12
3.022486e-09
-8.8895658e-12
3.022838e-09
1.0390066e-11
3.0228104e-09
-1.2105167e-11
3.0228085e-09
1.2079519e-11
3.022812e-09
-1.1279738e-11
3.0227887e-09
1.0980882e-11
3.0227981e-09
-1.0168352e-11
3.0227815e-09
9.711227e-12
3.0227927e-09
-9.090681e-12
3.0227797e-09
8.613269e-12
3.0227906e-09
-8.1063608e-12
3.0227796e-09
7.6608523e-12
3.0227897e-09
-7.2278281e-12
3.02278e-09
6.8278559e-12
3.0227891e-09
-6.4512418e-12
3.0227805e-09
6.0975482e-12
3.0227887e-09
-5.768285e-12
3.022781e-09
5.4577551e-12
3.0227884e-09
-5.1699331e-12
3.0227814e-09
4.8986047e-12
3.0227882e-09
-4.6476785e-12
3.0227817e-09
4.4116875e-12
3.0227879e-09
-4.1938735e-12
3.0227821e-09
3.9897249e-12
3.0227877e-09
-3.8017834e-12
3.0227823e-09
3.6264063e-12
3.0227875e-09
-3.4655469e-12
3.0227826e-09
3.3162823e-12
3.0227874e-09
-3.1801068e-12
3.0227828e-09
3.054674e-12
3.0227872e-09
-2.9411287e-12
3.0227829e-09
2.8375705e-12
3.0227871e-09
-2.7449373e-12
3.0227831e-09
2.6614424e-12
3.022787e-09
-2.5882617e-12
3.0227832e-09
2.524062e-12
3.0227867e-09
-2.4639159e-12
3.0227827e-09
2.4304454e-12
3.0227848e-09
-2.3733087e-12
3.0227836e-09
2.254496e-12
3.0228043e-09
-2.9265234e-12
2.0050163e-12
2.9800113e-09
2.3701522e-08
3.092471e-09
-2.4482282e-09
3.1276889e-09
1.2011727e-09
3.1321762e-09
-7.2463765e-11
3.1400948e-09
-1.9729455e-11
3.1434707e-09
1.7476885e-11
3.1426955e-09
1.7474712e-11
3.1444605e-09
2.9092644e-12
3.1439063e-09
-8.3353227e-12
3.1443435e-09
9.9528865e-12
3.1442374e-09
-1.1999122e-11
3.1443063e-09
1.2010639e-11
3.1442431e-09
-1.1216502e-11
3.1442837e-09
1.0940306e-11
3.1442334e-09
-1.0118069e-11
3.1442735e-09
9.671129e-12
3.1442314e-09
-9.048637e-12
3.1442688e-09
8.57593e-12
3.1442323e-09
-8.0698471e-12
3.144266e-09
7.6270655e-12
3.1442338e-09
-7.1956166e-12
3.1442641e-09
6.7976011e-12
3.1442355e-09
-6.4226443e-12
3.1442625e-09
6.0705388e-12
3.144237e-09
-5.7428121e-12
3.1442611e-09
5.433638e-12
3.1442384e-09
-5.1471812e-12
3.14426e-09
4.8770281e-12
3.1442396e-09
-4.6272935e-12
3.1442589e-09
4.3923232e-12
3.1442406e-09
-4.1755394e-12
3.1442581e-09
3.9722736e-12
3.1442415e-09
-3.7852161e-12
3.1442573e-09
3.6105973e-12
3.1442422e-09
-3.4504903e-12
3.1442567e-09
3.3018704e-12
3.1442429e-09
-3.1663279e-12
3.1442561e-09
3.0414352e-12
3.1442434e-09
-2.928413e-12
3.1442557e-09
2.8252959e-12
3.1442438e-09
-2.7330822e-12
3.1442553e-09
2.6499245e-12
3.1442442e-09
-2.5770761e-12
3.1442551e-09
2.5130858e-12
3.1442443e-09
-2.4530435e-12
3.1442544e-09
2.4203225e-12
3.1442428e-09
-2.3616874e-12
3.1442545e-09
2.2427659e-12
3.144257e-09
-2.9290724e-12
1.9776965e-12
3.1056982e-09
2.3544074e-08
3.1979655e-09
-2.5404955e-09
3.2433218e-09
1.1558164e-09
3.2481389e-09
-7.7280879e-11
3.2560635e-09
-2.7654011e-11
3.2592648e-09
1.4275516e-11
3.2586932e-09
1.8046293e-11
3.2604712e-09
1.1313153e-12
3.2598112e-09
-7.6753612e-12
3.2603275e-09
9.4365741e-12
3.2601447e-09
-1.1816292e-11
3.2602814e-09
1.1873965e-11
3.260154e-09
-1.1089114e-11
3.2602562e-09
1.0838152e-11
3.2601485e-09
-1.001041e-11
3.2602432e-09
9.5764196e-12
3.26015e-09
-8.9554263e-12
3.2602358e-09
8.4901627e-12
3.2601537e-09
-7.9877447e-12
3.2602305e-09
7.5502204e-12
3.2601577e-09
-7.1227734e-12
3.2602263e-09
6.7289777e-12
3.2601614e-09
-6.3577874e-12
3.2602227e-09
6.0092666e-12
3.2601648e-09
-5.6849197e-12
3.2602196e-09
5.3788515e-12
3.2601678e-09
-5.0953709e-12
3.2602169e-09
4.8279211e-12
3.2601704e-09
-4.580783e-12
3.2602145e-09
4.3481615e-12
3.2601726e-09
-4.1336277e-12
3.2602125e-09
3.9323936e-12
3.2601746e-09
-3.7472734e-12
3.2602108e-09
3.5744e-12
3.2601762e-09
-3.4159473e-12
3.2602093e-09
3.2688128e-12
3.2601776e-09
-3.1346675e-12
3.260208e-09
3.0110217e-12
3.2601788e-09
-2.8991603e-12
3.260207e-09
2.7970687e-12
3.2601797e-09
-2.7057956e-12
3.2602062e-09
2.623448e-12
3.2601805e-09
-2.5513446e-12
3.2602056e-09
2.4879282e-12
3.2601809e-09
-2.4283468e-12
3.2602047e-09
2.3965305e-12
3.2601799e-09
-2.336815e-12
3.2602041e-09
2.2185598e-12
3.2601889e-09
-2.913884e-12
1.939922e-12
3.225076e-09
2.3267248e-08
3.2947303e-09
-2.6101498e-09
3.35375e-09
1.0967966e-09
3.3591265e-09
-8.2657402e-11
3.3665995e-09
-3.5126967e-11
3.3695765e-09
1.1298542e-11
3.3692434e-09
1.8379342e-11
3.3709474e-09
-5.7270297e-13
3.3701983e-09
-6.9261776e-12
3.3707899e-09
8.8449537e-12
3.3705323e-09
-1.1558682e-11
3.3707337e-09
1.1672538e-11
3.3705449e-09
-1.090033e-11
3.3707062e-09
1.067689e-11
3.3705436e-09
-9.8478319e-12
3.3706907e-09
9.4293344e-12
3.3705485e-09
-8.8132059e-12
3.3706807e-09
8.3579697e-12
3.3705549e-09
-7.8619581e-12
3.370673e-09
7.4321025e-12
3.3705612e-09
-7.0109871e-12
3.3706666e-09
6.6235759e-12
3.370567e-09
-6.2581731e-12
3.3706611e-09
5.9151493e-12
3.3705721e-09
-5.5959473e-12
3.3706563e-09
5.2946623e-12
3.3705767e-09
-5.0157007e-12
3.3706522e-09
4.7524186e-12
3.3705806e-09
-4.5092221e-12
3.3706485e-09
4.2802229e-12
3.370584e-09
-4.0691075e-12
3.3706454e-09
3.8710067e-12
3.370587e-09
-3.6888323e-12
3.3706427e-09
3.518651e-12
3.3705895e-09
-3.3627165e-12
3.3706404e-09
3.2178732e-12
3.3705916e-09
-3.085857e-12
3.3706385e-09
2.9641357e-12
3.3705934e-09
-2.8540462e-12