/*--------------------------------*- C++ -*----------------------------------*\
| =========                 |                                                 |
| \\      /  F ield         | OpenFOAM: The Open Source CFD Toolbox           |
|  \\    /   O peration     | Version:  2312                                  |
|   \\  /    A nd           | Website:  www.openfoam.com                      |
|    \\/     M anipulation  |                                                 |
\*---------------------------------------------------------------------------*/
FoamFile
{
    version     2.0;
    format      ascii;
    arch        "LSB;label=32;scalar=64";
    class       volScalarField;
    location    "10";
    object      T;
}
// * * * * * * * * * * * * * * * * * * * * * * * * * * * * * * * * * * * * * //

dimensions      [0 0 0 1 0 0 0];

internalField   nonuniform List<scalar> 
4000
(
310.51918
311.79564
311.99459
312.07674
312.13476
312.18901
312.23069
312.27492
312.30995
312.34939
312.38131
312.4179
312.44806
312.48274
312.51177
312.54509
312.57335
312.60566
312.63338
312.66491
312.69221
312.72314
312.75011
312.78055
312.80727
312.83731
312.86381
312.89354
312.91986
312.94931
312.97547
313.00471
313.03072
313.05979
313.08566
313.11459
313.14032
313.16915
313.19475
313.2235
313.24896
313.27766
313.30299
313.33167
313.35683
313.38555
313.4105
313.43936
313.4639
313.49353
308.30577
310.50161
311.0392
311.23366
311.35558
311.46618
311.53925
311.61984
311.67294
311.7392
311.783
311.84071
311.8792
311.93119
311.9663
312.01423
312.04703
312.09193
312.12307
312.16565
312.19555
312.2363
312.26524
312.30453
312.33269
312.3708
312.39831
312.43546
312.46242
312.49877
312.52524
312.56095
312.58697
312.62216
312.64777
312.68255
312.70775
312.74221
312.76702
312.80124
312.82564
312.85972
312.8837
312.91774
312.94121
312.97537
312.99819
313.03277
313.0544
313.09117
306.89659
309.24755
310.09096
310.39478
310.57944
310.74557
310.84985
310.96637
311.03755
311.13034
311.18606
311.26468
311.31157
311.3807
311.42195
311.48435
311.52175
311.57913
311.61376
311.66728
311.69984
311.75034
311.78128
311.82935
311.85899
311.9051
311.93366
311.97818
312.00581
312.04902
312.07583
312.11797
312.14403
312.18531
312.21067
312.25126
312.27596
312.31601
312.34005
312.37972
312.40308
312.44252
312.46516
312.50453
312.52634
312.56591
312.58664
312.62689
312.64565
312.68928
305.94062
308.07127
309.16155
309.5664
309.81075
310.03039
310.1652
310.31667
310.40576
310.52446
310.59209
310.69117
310.74649
310.83243
310.87988
310.95648
310.99854
311.06818
311.10637
311.17066
311.20593
311.26602
311.29903
311.35576
311.38693
311.44094
311.47059
311.52238
311.55073
311.6007
311.62789
311.67639
311.70253
311.74982
311.77499
311.82132
311.84555
311.89115
311.91445
311.95951
311.98186
312.0266
312.04794
312.0926
312.11278
312.1577
312.17637
312.22224
312.23822
312.28829
305.26208
307.00481
308.26615
308.75721
309.05559
309.3251
309.48897
309.6737
309.78021
309.92378
310.00314
310.12197
310.18567
310.28789
310.34155
310.43193
310.4787
310.56026
310.60205
310.67683
310.71488
310.78433
310.81946
310.88464
310.91741
310.97914
311.00994
311.06885
311.09797
311.15457
311.1822
311.23693
311.2632
311.3164
311.34141
311.3934
311.4172
311.46825
311.49086
311.54123
311.56261
311.61258
311.63266
311.68252
311.70113
311.75131
311.76801
311.81936
311.83274
311.88874
304.76581
306.07198
307.42108
307.97757
308.32133
308.63522
308.82565
309.04112
309.16411
309.33105
309.42172
309.55926
309.63116
309.74889
309.80869
309.91226
309.96372
310.05673
310.10215
310.18704
310.2279
310.30638
310.34367
310.41704
310.45145
310.52066
310.55266
310.61849
310.64843
310.71149
310.7396
310.8004
310.82685
310.88581
310.91072
310.96822
310.99164
311.04802
311.06998
311.12555
311.14602
311.2011
311.21999
311.27493
311.29203
311.34735
311.36217
311.41884
311.42984
311.49124
304.3941
305.28412
306.6415
307.23855
307.61618
307.96704
308.18037
308.42317
308.56115
308.74943
308.85069
309.00558
309.0853
309.21754
309.28328
309.39927
309.45532
309.55918
309.60818
309.70267
309.74633
309.83344
309.87291
309.9541
309.99018
310.06657
310.09981
310.17229
310.20308
310.27237
310.301
310.36767
310.39434
310.45888
310.48372
310.54658
310.56967
310.63122
310.65259
310.7132
310.73282
310.79286
310.81062
310.8705
310.88618
310.94647
310.95953
311.02129
311.03017
311.09642
304.11121
304.64344
305.93957
306.55078
306.94851
307.32722
307.55865
307.82446
307.97537
308.18243
308.29322
308.46372
308.55067
308.69617
308.7675
308.89496
308.95539
309.06933
309.12179
309.22528
309.27167
309.3669
309.40851
309.49711
309.53483
309.61805
309.65251
309.73134
309.763
309.83823
309.8674
309.93969
309.96661
310.03651
310.06132
310.12932
310.15213
310.21866
310.23948
310.30495
310.32378
310.3886
310.40531
310.46994
310.48429
310.54935
310.56079
310.62735
310.63443
310.705
303.89216
304.14155
305.32314
305.92343
306.32621
306.72237
306.96609
307.2498
307.41098
307.63375
307.75262
307.93668
308.03001
308.18726
308.26366
308.40145
308.46593
308.58906
308.64477
308.75652
308.8055
308.90824
308.95191
309.0474
309.08672
309.17632
309.21199
309.29677
309.32929
309.41013
309.43985
309.51746
309.54464
309.61963
309.64445
309.71734
309.73989
309.81116
309.8315
309.9016
309.9197
309.98908
310.00482
310.07397
310.08711
310.15668
310.16668
310.23771
310.2433
310.3177
303.71986
303.76409
304.79542
305.36323
305.75598
306.15856
306.40802
306.7039
306.87214
307.10712
307.23228
307.42751
307.52612
307.69341
307.77416
307.92098
307.98904
308.12032
308.17894
308.29812
308.34948
308.45903
308.5046
308.6064
308.64721
308.74269
308.7795
308.8698
308.90314
308.98919
309.01945
309.10202
309.12947
309.20922
309.23406
309.31155
309.33388
309.40963
309.42952
309.50399
309.52142
309.5951
309.60996
309.68336
309.69541
309.76918
309.77793
309.85306
309.85747
309.93524
303.58178
303.49163
304.35496
304.87382
305.24284
305.6409
305.8892
306.19113
306.36284
306.60616
306.7355
306.93925
307.04181
307.21719
307.30143
307.45578
307.52681
307.66508
307.72621
307.85187
307.90529
308.02088
308.06812
308.17556
308.21771
308.3185
308.35633
308.45166
308.48574
308.57657
308.60731
308.69446
308.72215
308.8063
308.83115
308.91291
308.93505
309.01494
309.03443
309.11297
309.12979
309.20747
309.22154
309.29888
309.30997
309.38762
309.3953
309.47412
309.47764
309.55838
303.46878
303.30311
303.99642
304.45557
304.78972
305.17315
305.4135
305.71525
305.88658
306.13419
306.26535
306.47477
306.57974
306.76113
306.8478
307.00809
307.08135
307.22533
307.28842
307.41952
307.47461
307.59537
307.64401
307.75636
307.79963
307.9051
307.94379
308.04359
308.07829
308.17342
308.20456
308.29585
308.32373
308.41189
308.43673
308.52239
308.54432
308.62803
308.64713
308.7294
308.74567
308.82701
308.84037
308.92132
308.93157
309.01273
309.01953
309.10162
309.1045
309.18784
303.37432
303.17772
303.71131
304.10582
304.39728
304.75748
304.98363
305.27922
305.4463
305.69407
305.82454
306.03668
306.14239
306.32756
306.41549
306.57998
306.65464
306.80296
306.86738
307.0028
307.0591
307.1841
307.23376
307.35024
307.39435
307.50382
307.54317
307.64685
307.68202
307.78091
307.81233
307.90729
307.93528
308.02701
308.05179
308.14094
308.16266
308.24979
308.26852
308.35415
308.36992
308.45456
308.46729
308.55146
308.56101
308.64527
308.65138
308.73632
308.73876
308.82435
303.29353
303.09675
303.48943
303.81943
304.06397
304.39432
304.60097
304.88498
305.0441
305.28805
305.41531
305.62721
305.73187
305.91857
306.00647
306.1734
306.2485
306.39973
306.46477
306.60334
306.6603
306.78855
306.83883
306.95859
307.00322
307.11596
307.15571
307.26263
307.29808
307.40016
307.43173
307.52983
307.55783
307.65266
307.67732
307.76952
307.79099
307.88112
307.89949
307.98808
308.00337
308.09092
308.10309
308.19009
308.19904
308.286
308.29157
308.37892
308.38111
308.46862
303.22312
303.04476
303.31979
303.58949
303.78621
304.08243
304.26554
304.53339
304.68125
304.91769
305.0393
305.24808
305.34991
305.53589
305.62244
305.79002
305.86456
306.01723
306.08214
306.22264
306.27966
306.41013
306.46055
306.58271
306.6275
306.74274
306.78261
306.89208
306.92759
307.03226
307.0638
307.16449
307.19238
307.2898
307.31426
307.40904
307.43022
307.5229
307.5409
307.63201
307.64686
307.73689
307.74857
307.83797
307.84643
307.93565
307.94082
308.03017
308.03221
308.12133
303.16066
303.0099
303.19175
303.40805
303.5589
303.81904
303.97602
304.22418
304.35804
304.58374
304.69748
304.90049
304.99777
305.18088
305.26475
305.43122
305.50416
305.65682
305.72078
305.86198
305.91843
306.05008
306.10014
306.2238
306.26834
306.38529
306.42495
306.53629
306.57159
306.67821
306.70953
306.81225
306.83988
306.93936
306.96351
307.06037
307.08119
307.17597
307.19356
307.28675
307.30117
307.39323
307.40447
307.49583
307.50388
307.59492
307.59981
307.69074
307.69272
307.78314
303.10458
302.9839
303.09555
303.26683
303.3759
303.60016
303.72992
303.95599
304.07383
304.28615
304.39013
304.58502
304.67618
304.85441
304.93435
305.09801
305.16835
305.31959
305.38178
305.52247
305.57769
305.70947
305.75865
305.88289
305.92675
306.04461
306.08372
306.19619
306.23102
306.33896
306.36984
306.47398
306.50118
306.60218
306.6259
306.72433
306.74472
306.84109
306.85825
306.95304
306.96702
307.06066
307.0715
307.16437
307.17208
307.26451
307.26919
307.36129
307.36326
307.45468
303.05377
302.96148
303.02284
303.15783
303.23061
303.42095
303.52378
303.72656
303.82713
304.0241
304.11684
304.30163
304.38531
304.5569
304.63173
304.79105
304.85783
305.00629
305.06592
305.20495
305.25828
305.38918
305.43692
305.56085
305.60359
305.72155
305.75976
305.87265
305.90671
306.0153
306.04551
306.15047
306.17708
306.27902
306.30219
306.40166
306.42153
306.519
306.53567
306.63158
306.64511
306.73986
306.75031
306.84424
306.85166
306.94502
306.94956
307.04244
307.04443
307.13652
303.00746
302.93975
302.96684
303.0738
303.11645
303.27609
303.35346
303.53285
303.61569
303.79606
303.87654
304.0497
304.12481
304.28826
304.35698
304.51059
304.57292
304.71738
304.77371
304.90996
304.96078
305.08982
305.13561
305.25835
305.29953
305.41682
305.45376
305.56635
305.59935
305.70793
305.73724
305.84242
305.86823
305.97056
305.99303
306.09301
306.11226
306.21031
306.22643
306.32298
306.33604
306.43143
306.44149
306.53602
306.54318
306.63706
306.64149
306.73476
306.73676
306.8292
302.96511
302.91745
302.92237
303.00851
303.02726
303.16016
303.21445
303.37128
303.43667
303.59988
303.66758
303.82805
303.89381
304.04793
304.10973
304.25646
304.31359
304.45296
304.50531
304.63781
304.68553
304.81179
304.85513
304.97585
305.01506
305.13091
305.16623
305.27783
305.30947
305.41741
305.44557
305.55038
305.5752
305.67736
305.69898
305.79893
305.81745
305.9156
305.9311
306.02779
306.04034
306.13589
306.14557
306.24025
306.24716
306.34112
306.34545
306.43873
306.44074
306.5332
302.92631
302.89435
302.88564
302.95689
302.95755
303.06798
303.10214
303.23798
303.28684
303.43296
303.48783
303.63503
303.69098
303.83491
303.88921
304.02812
304.07945
304.21281
304.26061
304.38846
304.43257
304.55524
304.59567
304.71361
304.75044
304.86415
304.8975
305.00746
305.03746
305.14414
305.17091
305.27476
305.29842
305.39985
305.42048
305.51989
305.53757
305.6353
305.6501
305.74646
305.75846
305.85372
305.86299
305.95737
305.96403
306.05766
306.06188
306.15481
306.15681
306.24894
302.89073
302.87074
302.85406
302.91503
302.90264
302.99479
303.01206
303.12899
303.16271
303.2924
303.33481
303.4686
303.51462
303.64784
303.69428
303.82469
303.86977
303.99637
304.03917
304.16163
304.20169
304.32005
304.35717
304.47164
304.50575
304.61665
304.64774
304.75542
304.78352
304.88836
304.91353
305.01587
305.03817
305.13836
305.15784
305.2562
305.27293
305.36976
305.38379
305.47935
305.49074
305.58526
305.59409
305.68775
305.69414
305.78705
305.79114
305.88334
305.88532
305.97679
302.85807
302.84711
302.82599
302.88002
302.85873
302.93645
302.94007
303.04046
303.06079
303.1751
303.20582
303.32645
303.36271
303.48503
303.52348
303.64496
303.68352
303.80282
303.84029
303.95676
303.99243
304.10586
304.13935
304.24975
304.28082
304.38835
304.41689
304.52175
304.54771
304.65016
304.67352
304.77384
304.79461
304.89305
304.91126
305.00809
305.02376
305.11923
305.1324
305.22672
305.23744
305.3308
305.33915
305.43169
305.43776
305.52957
305.53351
305.62464
305.62657
305.71702
302.82808
302.82397
302.80042
302.84982
302.82288
302.88948
302.88251
302.96881
302.97769
303.07799
303.09804
303.20609
303.23304
303.34455
303.37511
303.48746
303.51942
303.63106
303.663
303.77304
303.80409
303.91211
303.94171
304.04754
304.07533
304.17897
304.20474
304.30627
304.32989
304.42947
304.45084
304.54865
304.56775
304.66399
304.68079
304.77565
304.79016
304.88383
304.89606
304.98872
304.99872
305.09051
305.09833
305.18935
305.19509
305.28543
305.28918
305.3789
305.38075
305.46987
302.80052
302.80168
302.77681
302.82305
302.79288
302.85108
302.83626
302.91084
302.91023
302.99808
303.00867
303.105
303.12329
303.22434
303.24731
303.35056
303.37599
303.47979
303.50615
303.60947
303.63577
303.738
303.76355
303.8644
303.88875
303.98807
304.0109
304.10867
304.12978
304.22605
304.2453
304.34018
304.35747
304.45108
304.46636
304.55884
304.57209
304.66357
304.67479
304.7654
304.77461
304.86445
304.8717
304.96086
304.96621
305.05475
305.05828
305.14626
305.14801
305.23548
302.77517
302.78051
302.75488
302.79886
302.76713
302.8191
302.79872
302.86374
302.85556
302.93257
302.93503
303.02065
303.03112
303.12226
303.1381
303.23247
303.25159
303.34755
303.36841
303.46485
303.48637
303.58258
303.60401
303.69957
303.72037
303.81503
303.83481
303.92846
303.94694
304.03954
304.05654
304.14812
304.1635
304.25411
304.26779
304.35751
304.36943
304.45835
304.4685
304.5567
304.56507
304.65263
304.65925
304.74621
304.75113
304.83756
304.84082
304.92677
304.92839
305.0139
302.75184
302.76059
302.73448
302.77669
302.74456
302.79189
302.76785
302.8252
302.8112
302.87895
302.87464
302.95066
302.95423
303.03617
303.04547
303.13134
303.1445
303.23277
303.24832
303.33786
303.3547
303.44476
303.46208
303.55215
303.56936
303.65912
303.67578
303.76502
303.78081
303.86943
303.88411
303.97206
303.98546
304.07275
304.08475
304.1714
304.18193
304.26797
304.27698
304.36246
304.36994
304.4549
304.46085
304.54532
304.54978
304.6338
304.63677
304.72039
304.72188
304.80513
302.73036
302.74196
302.71557
302.75626
302.72444
302.7683
302.74205
302.79333
302.77505
302.83502
302.82523
302.89281
302.89046
302.96399
302.96744
303.04532
303.05298
303.13383
303.14435
303.22712
303.23943
303.32333
303.33662
303.42111
303.43476
303.51945
303.53299
303.61762
303.63069
303.71509
303.72741
303.81149
303.82286
303.90655
303.91684
304.00013
304.00923
304.09211
304.09995
304.18242
304.18898
304.27106
304.27632
304.35802
304.36198
304.44333
304.44598
304.52702
304.52835
304.60909
302.71058
302.72461
302.6981
302.73738
302.70631
302.7475
302.72013
302.76663
302.74538
302.7989
302.78483
302.84509
302.8378
302.90376
302.90212
302.97258
302.97528
303.0491
303.05496
303.13115
303.13918
303.21701
303.22643
303.30532
303.31551
303.39506
303.40552
303.48541
303.49578
303.57579
303.58576
303.66576
303.6751
303.75498
303.76353
303.84324
303.85088
303.93036
303.93701
304.01624
304.02184
304.10082
304.10535
304.18406
304.18749
304.26594
304.26825
304.34647
304.34763
304.42563
302.69238
302.70851
302.68205
302.71996
302.68988
302.72894
302.70124
302.74397
302.7208
302.76901
302.75175
302.80574
302.79445
302.8537
302.84771
302.91141
302.90972
302.97695
302.97859
303.04851
303.05257
303.12449
303.13026
303.20363
303.21051
303.2849
303.29239
303.36748
303.3752
303.45073
303.45837
303.53416
303.54148
303.6174
303.62422
303.70016
303.70634
303.78224
303.78768
303.86349
303.86812
303.9438
303.94757
304.02309
304.02597
304.10133
304.10328
304.17848
304.17947
304.25451
302.67564
302.69361
302.66737
302.70395
302.67498
302.71225
302.68476
302.72447
302.70023
302.7441
302.72457
302.77323
302.75883
302.81219
302.80259
302.86018
302.85472
302.91586
302.91374
302.97774
302.9782
303.04444
303.04684
303.11482
303.11859
303.18788
303.19256
303.26283
303.26803
303.33902
303.34442
303.41591
303.42127
303.4931
303.49822
303.57028
303.57502
303.64719
303.65143
303.72366
303.72732
303.79954
303.80256
303.87472
303.87705
303.94914
303.95073
304.02274
304.02355
304.09546
302.66029
302.67987
302.65405
302.68932
302.6615
302.69721
302.67027
302.70752
302.68284
302.72315
302.70212
302.7463
302.72955
302.77779
302.7653
302.81743
302.80879
302.86436
302.85898
302.91746
302.91472
302.97557
302.9749
303.03768
303.03859
303.10291
303.10495
303.17047
303.17328
303.23974
303.243
303.31017
303.31364
303.38133
303.38481
303.4529
303.45623
303.52459
303.52765
303.59619
303.59889
303.66753
303.6698
303.73848
303.74025
303.80895
303.81017
303.87886
303.87948
303.94812
302.64627
302.66727
302.64204
302.67603
302.64938
302.68364
302.65749
302.69267
302.66802
302.70538
302.68349
302.72387
302.70546
302.74928
302.73455
302.78184
302.77061
302.82113
302.81299
302.86635
302.86082
302.91661
302.91322
302.97105
302.96935
303.02887
303.02849
303.08937
303.08996
303.15194
303.1532
303.21606
303.21774
303.28129
303.28321
303.34729
303.34927
303.41375
303.41568
303.48046
303.48223
303.54721
303.54874
303.61386
303.61508
303.68029
303.68115
303.7464
303.74684
303.81209
302.63354
302.6558
302.63132
302.66408
302.63858
302.67147
302.64621
302.6796
302.65531
302.69019
302.66792
302.70511
302.68561
302.72562
302.70922
302.75226
302.73897
302.78496
302.77453
302.82322
302.8153
302.86638
302.86061
302.91376
302.90976
302.96467
302.96211
303.0185
303.01706
303.07468
303.07408
303.1327
303.13272
303.19216
303.1926
303.25268
303.25339
303.31398
303.31483
303.37581
303.37669
303.43797
303.43879
303.50028
303.50098
303.56263
303.56314
303.62488
303.62515
303.68694
302.62215
302.64551
302.6219
302.65343
302.62905
302.66062
302.6363
302.66808
302.64436
302.67712
302.65485
302.68931
302.66919
302.70592
302.68837
302.72767
302.71282
302.75475
302.7425
302.78694
302.77705
302.82377
302.81597
302.86473
302.85873
302.90928
302.90478
302.95687
302.95361
303.007
303.00472
303.0592
303.0577
303.11308
303.11217
303.16829
303.16781
303.22454
303.22437
303.28156
303.2816
303.33917
303.33931
303.39717
303.39736
303.45542
303.45559
303.51379
303.51389
303.57217
302.61214
302.63641
302.61375
302.64408
302.62077
302.65102
302.62767
302.65795
302.63494
302.66583
302.64383
302.67595
302.65559
302.68947
302.67119
302.70722
302.69125
302.72957
302.71591
302.75651
302.74503
302.78775
302.77827
302.82296
302.81524
302.86169
302.85552
302.90351
302.89864
302.94798
302.9442
302.99468
302.99179
303.04324
303.04108
303.09333
303.09176
303.14467
303.14356
303.19702
303.19626
303.25015
303.24966
303.30388
303.3036
303.35808
303.35793
303.41258
303.41252
303.46728
302.60367
302.62858
302.60688
302.63598
302.61369
302.64263
302.62022
302.64908
302.62685
302.65606
302.63452
302.66458
302.64428
302.67569
302.65704
302.69019
302.67348
302.7086
302.69392
302.73104
302.71834
302.75741
302.74657
302.78749
302.77836
302.82097
302.81338
302.8575
302.85126
302.89672
302.89163
302.93826
302.93417
302.98179
302.97854
303.02701
303.02446
303.07365
303.07168
303.12146
303.11999
303.17023
303.16917
303.2198
303.21908
303.27
303.26955
303.32068
303.32047
303.37173
302.59687
302.62205
302.60126
302.6291
302.60776
302.63539
302.61387
302.64136
302.61995
302.64761
302.62667
302.65489
302.63486
302.66409
302.64536
302.67599
302.65886
302.69113
302.67575
302.70976
302.69616
302.73191
302.72003
302.75747
302.74722
302.78625
302.7775
302.81799
302.81058
302.85239
302.84618
302.88914
302.88399
302.92796
302.92373
302.96857
302.96515
303.01071
303.00799
303.05418
303.05206
303.09876
303.09717
303.14427
303.14315
303.19057
303.18986
303.23751
303.23717
303.28496
302.59186
302.61684
302.59684
302.62339
302.60291
302.62921
302.60856
302.6347
302.61411
302.64031
302.62005
302.64662
302.62702
302.65431
302.63573
302.66411
302.64684
302.67656
302.66079
302.692
302.67778
302.71053
302.69788
302.73215
302.72102
302.75675
302.74707
302.78417
302.77582
302.81418
302.80704
302.84652
302.84049
302.88096
302.87591
302.91725
302.91307
302.95516
302.95177
302.99448
302.9918
303.03504
303.03299
303.07666
303.07519
303.11919
303.11824
303.16248
303.16202
303.20642
302.58864
302.61289
302.59356
302.61875
302.59906
302.62403
302.6042
302.62902
302.60924
302.63405
302.61451
302.63954
302.62049
302.64604
302.62778
302.65415
302.63695
302.66441
302.64847
302.67717
302.6626
302.69261
302.67945
302.71082
302.69906
302.73175
302.72136
302.75532
302.74623
302.78136
302.77348
302.80968
302.80291
302.84007
302.83433
302.87234
302.86753
302.90628
302.90232
302.9417
302.93853
302.97844
302.97599
303.01633
303.01455
303.05523
303.05407
303.09501
303.09444
303.13553
302.58704
302.61009
302.59129
302.61509
302.59611
302.61976
302.6007
302.62421
302.60523
302.6287
302.60991
302.63351
302.61508
302.63903
302.62122
302.64578
302.62883
302.65424
302.63835
302.66478
302.65007
302.67762
302.66416
302.69288
302.68071
302.71061
302.69972
302.73077
302.72112
302.75325
302.74479
302.77792
302.77057
302.80462
302.79831
302.83317
302.82784
302.86341
302.85899
302.89517
302.8916
302.9283
302.92552
302.96266
302.96062
302.9981
302.99677
303.03451
303.03385
303.07175
302.58669
302.60825
302.58989
302.61228
302.59397
302.61629
302.59798
302.6202
302.60198
302.62417
302.60612
302.62837
302.61062
302.63308
302.61582
302.63872
302.62216
302.64572
302.63004
302.65442
302.63975
302.66506
302.6515
302.67781
302.66542
302.69276
302.68155
302.70991
302.69989
302.72923
302.72035
302.75062
302.74284
302.77395
302.76722
302.7991
302.79337
302.82593
302.82113
302.85428
302.85037
302.88404
302.88097
302.91506
302.9128
302.94722
302.94574
302.98041
302.97968
303.01452
302.58718
302.60714
302.5892
302.61019
302.5925
302.61353
302.59592
302.61689
302.59942
302.62035
302.60306
302.624
302.60696
302.62804
302.61138
302.63277
302.61668
302.63857
302.62321
302.64574
302.63126
302.65454
302.64103
302.66515
302.6527
302.67769
302.66634
302.69223
302.68198
302.70875
302.6996
302.7272
302.71912
302.7475
302.74046
302.76955
302.76351
302.79324
302.78815
302.81844
302.81428
302.84505
302.84177
302.87295
302.87052
302.90203
302.90043
302.93218
302.93139
302.9633
302.58809
302.60655
302.58904
302.60868
302.5916
302.61136
302.59444
302.61418
302.59745
302.61716
302.60061
302.62032
302.60398
302.62376
302.60775
302.62774
302.6122
302.63254
302.61762
302.63845
302.62428
302.6457
302.63239
302.6545
302.64213
302.66499
302.65362
302.67724
302.66691
302.6913
302.68201
302.70714
302.69888
302.72472
302.71748
302.74397
302.73772
302.76479
302.7595
302.7871
302.78275
302.81081
302.80736
302.8358
302.83324
302.86199
302.8603
302.88928
302.88844
302.91757
302.58913
302.60627
302.58926
302.60763
302.59115
302.60969
302.59345
302.612
302.59598
302.61452
302.59869
302.61721
302.60159
302.62014
302.6048
302.62347
302.60852
302.62744
302.61302
302.6323
302.61853
302.63827
302.62524
302.64553
302.63335
302.65425
302.64299
302.66454
302.65423
302.67645
302.66712
302.68999
302.68165
302.70514
302.69779
302.72186
302.71549
302.74009
302.73467
302.75976
302.75528
302.78078
302.77723
302.80309
302.80044
302.82659
302.82484
302.8512
302.85033
302.87685
302.59012
302.60617
302.58972
302.6069
302.59104
302.60842
302.59284
302.61026
302.59493
302.61234
302.59722
302.61461
302.59969
302.61707
302.60241
302.61984
302.60552
302.62312
302.60925
302.6271
302.61379
302.63198
302.61933
302.63795
302.62606
302.64517
302.63411
302.65376
302.64358
302.6638
302.65454
302.67531
302.66699
302.68831
302.68094
302.70277
302.69636
302.71866
302.71319
302.73593
302.73139
302.75451
302.7509
302.77434
302.77164
302.79535
302.79356
302.81748
302.81659
302.84064
302.591
302.60613
302.59032
302.60641
302.59118
302.60747
302.59255
302.60888
302.59423
302.61056
302.59613
302.61242
302.5982
302.61446
302.60048
302.61675
302.60307
302.61943
302.60614
302.62267
302.60987
302.62664
302.61443
302.63152
302.61998
302.63746
302.62668
302.6446
302.63463
302.65301
302.6439
302.66275
302.65453
302.67385
302.66654
302.6863
302.67991
302.70009
302.69462
302.71519
302.71064
302.73154
302.72792
302.74911
302.7464
302.76784
302.76603
302.78766
302.78676
302.80852
302.59175
302.60611
302.59098
302.60608
302.59149
302.60675
302.59249
302.60779
302.59381
302.6091
302.59535
302.61059
302.59705
302.61225
302.59893
302.6141
302.60106
302.61626
302.60357
302.61887
302.60662
302.62207
302.61034
302.62603
302.6149
302.63088
302.62045
302.63677
302.62708
302.64378
302.63489
302.65198
302.64393
302.66141
302.65422
302.67209
302.66578
302.684
302.67859
302.69715
302.69264
302.71149
302.70788
302.727
302.7243
302.74363
302.74183
302.76133
302.76043
302.78006
302.5924
302.60607
302.59166
302.60583
302.59191
302.6062
302.5926
302.60692
302.5936
302.6079
302.59481
302.60905
302.59617
302.61035
302.59768
302.61181
302.5994
302.61352
302.60143
302.61558
302.60389
302.61813
302.60691
302.6213
302.61063
302.62524
302.61519
302.63006
302.6207
302.63586
302.62724
302.64272
302.63489
302.65069
302.64368
302.6598
302.65363
302.67005
302.66474
302.68145
302.67702
302.69399
302.69043
302.70763
302.70496
302.72235
302.72057
302.73811
302.73722
302.75487
302.59295
302.60599
302.59231
302.60563
302.59239
302.60577
302.59283
302.60622
302.59355
302.6069
302.59445
302.60774
302.5955
302.6087
302.59668
302.6098
302.59802
302.61111
302.59963
302.6127
302.60158
302.61469
302.60399
302.6172
302.607
302.62035
302.61072
302.62426
302.61526
302.62902
302.62072
302.63473
302.62716
302.64143
302.63463
302.64916
302.64316
302.65794
302.65277
302.66779
302.66346
302.6787
302.67522
302.69066
302.68804
302.70365
302.7019
302.71764
302.71676
302.7326
302.59344
302.60587
302.59292
302.60546
302.59288
302.60542
302.59313
302.60564
302.5936
302.60605
302.59423
302.6066
302.59498
302.60725
302.59584
302.60802
302.59685
302.60897
302.59807
302.61015
302.59958
302.61165
302.60148
302.61359
302.60388
302.61607
302.60688
302.6192
302.6106
302.62308
302.61512
302.62779
302.62052
302.63338
302.62684
302.63991
302.63412
302.6474
302.6424
302.65587
302.65167
302.66533
302.66196
302.67578
302.67324
302.6872
302.68551
302.69959
302.69874
302.71291
302.59386
302.60571
302.59348
302.60527
302.59337
302.60511
302.59346
302.60514
302.59372
302.60531
302.59409
302.60558
302.59456
302.60595
302.59513
302.60641
302.59583
302.60702
302.59671
302.60783
302.59783
302.60892
302.59928
302.61037
302.60115
302.61228
302.60355
302.61475
302.60656
302.61787
302.61028
302.62172
302.61477
302.62636
302.62009
302.63184
302.62628
302.63819
302.63338
302.64545
302.64141
302.65362
302.65037
302.66272
302.66027
302.67274
302.6711
302.68367
302.68285
302.69551
302.59421
302.60552
302.59399
302.60508
302.59383
302.60482
302.5938
302.60469
302.59385
302.60463
302.59399
302.60465
302.59419
302.60473
302.59448
302.60491
302.59489
302.60522
302.59546
302.60571
302.59624
302.60642
302.5973
302.60745
302.59872
302.60887
302.6006
302.61078
302.60301
302.61325
302.60604
302.61636
302.60975
302.62018
302.6142
302.62475
302.61944
302.63011
302.62551
302.6363
302.63243
302.64334
302.64022
302.65124
302.64888
302.66
302.65842
302.66963
302.66884
302.68011
302.59452
302.6053
302.59443
302.60486
302.59425
302.60453
302.59411
302.60424
302.59398
302.60397
302.59388
302.60374
302.59383
302.60357
302.59386
302.60348
302.594
302.60351
302.59429
302.6037
302.59476
302.60409
302.59548
302.60476
302.59652
302.60576
302.59794
302.60719
302.59984
302.60911
302.60227
302.61159
302.60532
302.6147
302.60902
302.61848
302.61344
302.62298
302.6186
302.62824
302.62455
302.63427
302.6313
302.6411
302.63886
302.64875
302.64724
302.6572
302.65645
302.66647
302.59477
302.60504
302.59483
302.60461
302.59462
302.60422
302.59437
302.60378
302.59406
302.60331
302.59374
302.60284
302.59345
302.60242
302.59323
302.60208
302.59311
302.60185
302.59314
302.60177
302.59334
302.60188
302.59376
302.60223
302.59446
302.60288
302.5955
302.60389
302.59696
302.60534
302.59889
302.60729
302.60136
302.60979
302.60442
302.61289
302.60812
302.61665
302.6125
302.62108
302.61759
302.62624
302.62341
302.63213
302.63
302.63878
302.63735
302.64619
302.64547
302.65437
302.59497
302.60475
302.59516
302.60434
302.59493
302.60387
302.59456
302.60327
302.59407
302.60259
302.59352
302.60189
302.593
302.60124
302.59254
302.60066
302.59219
302.6002
302.59197
302.59988
302.59193
302.59973
302.59209
302.59981
302.5925
302.60015
302.59321
302.60082
302.59429
302.60187
302.59579
302.60335
302.59777
302.60534
302.60028
302.60786
302.60336
302.61097
302.60705
302.6147
302.6114
302.61909
302.61642
302.62415
302.62214
302.62992
302.62857
302.6364
302.63572
302.6436
302.59512
302.60445
302.59545
302.60403
302.59518
302.60347
302.59466
302.6027
302.59397
302.6018
302.5932
302.60087
302.59244
302.59999
302.59176
302.59919
302.59119
302.59851
302.59076
302.59798
302.59049
302.59761
302.59042
302.59745
302.59058
302.59753
302.59102
302.5979
302.59178
302.59861
302.59291
302.59972
302.59447
302.60126
302.5965
302.60328
302.59905
302.60584
302.60215
302.60896
302.60585
302.61267
302.61016
302.61702
302.61511
302.62201
302.62073
302.62766
302.62702
302.63399
302.59522
302.60412
302.59568
302.60368
302.59534
302.60299
302.59465
302.60202
302.59374
302.6009
302.59274
302.59975
302.59176
302.59865
302.59086
302.59764
302.59009
302.59677
302.58946
302.59605
302.589
302.59549
302.58873
302.59512
302.58868
302.59498
302.58887
302.5951
302.58936
302.59553
302.59018
302.5963
302.59139
302.59747
302.59302
302.59908
302.59511
302.60115
302.5977
302.60375
302.60083
302.60688
302.60452
302.61059
302.60881
302.6149
302.6137
302.61983
302.61923
302.62538
302.59528
302.60377
302.59585
302.60328
302.5954
302.60243
302.5945
302.60123
302.59335
302.59987
302.59212
302.59849
302.59092
302.59718
302.58982
302.59599
302.58886
302.59494
302.58806
302.59405
302.58743
302.59333
302.58699
302.59279
302.58675
302.59246
302.58674
302.59237
302.587
302.59256
302.58756
302.59306
302.58847
302.59392
302.58975
302.59516
302.59145
302.59684
302.5936
302.59897
302.59624
302.60161
302.5994