/*--------------------------------*- C++ -*----------------------------------*\
| =========                 |                                                 |
| \\      /  F ield         | OpenFOAM: The Open Source CFD Toolbox           |
|  \\    /   O peration     | Version:  2312                                  |
|   \\  /    A nd           | Website:  www.openfoam.com                      |
|    \\/     M anipulation  |                                                 |
\*---------------------------------------------------------------------------*/
FoamFile
{
    version     2.0;
    format      ascii;
    arch        "LSB;label=32;scalar=64";
    class       volScalarField;
    location    "1";
    object      T;
}
// * * * * * * * * * * * * * * * * * * * * * * * * * * * * * * * * * * * * * //

dimensions      [0 0 0 1 0 0 0];

internalField   nonuniform List<scalar> 
4000
(
330.19727
328.92783
328.69267
328.62494
328.56048
328.50937
328.46853
328.4278
328.39511
328.35855
328.32993
328.29631
328.27014
328.239
328.21473
328.18568
328.16286
328.13546
328.11361
328.08739
328.06608
328.04065
328.01955
327.99462
327.97354
327.94893
327.92776
327.9034
327.88212
327.85797
327.83658
327.81263
327.79117
327.7674
327.74587
327.72226
327.7007
327.6772
327.65562
327.63221
327.61062
327.58725
327.56567
327.54232
327.52075
327.4974
327.47587
327.45244
327.4311
327.40709
332.35444
330.28994
329.64075
329.48309
329.33622
329.2291
329.15269
329.0767
329.02473
328.96122
328.92141
328.86669
328.83417
328.78685
328.76
328.71894
328.69645
328.66032
328.64077
328.60821
328.59031
328.56012
328.54289
328.51422
328.49703
328.46937
328.45193
328.425
328.40722
328.38093
328.36285
328.33714
328.31882
328.29364
328.27516
328.25043
328.23186
328.20748
328.18885
328.16472
328.14606
328.12209
328.10344
328.07953
328.06092
328.03698
328.01851
327.99435
327.97642
327.95064
333.68597
331.59984
330.58108
330.33592
330.10866
329.94631
329.8347
329.72394
329.65267
329.56251
329.51139
329.43569
329.39656
329.33304
329.30324
329.25008
329.22751
329.18258
329.16497
329.12602
329.11125
329.07632
329.06274
329.03039
329.01694
328.98629
328.97245
328.94304
328.92865
328.90028
328.88539
328.85797
328.8427
328.81615
328.80062
328.77481
328.75913
328.73391
328.71814
328.69334
328.67753
328.65299
328.6372
328.61276
328.59705
328.57257
328.55708
328.53226
328.51765
328.4904
334.56845
332.81388
331.50007
331.17553
330.87262
330.65727
330.51156
330.36709
330.27677
330.16062
330.0981
330.0018
329.95569
329.87609
329.8428
329.77751
329.75426
329.70046
329.68422
329.63887
329.62675
329.58714
329.57684
329.54093
329.53094
329.49746
329.48699
329.45525
329.44404
329.41373
329.40184
329.37282
329.36041
329.33257
329.31982
329.293
329.28005
329.25405
329.241
329.21558
329.20251
329.17745
329.16441
329.13952
329.1266
329.10165
329.08903
329.06362
329.05216
329.02389
335.17945
333.89139
332.38008
331.99114
331.62089
331.35674
331.17911
331.0028
330.89407
330.75308
330.67926
330.56304
330.50964
330.41426
330.37687
330.29951
330.27485
330.21215
330.19657
330.14482
330.13475
330.09054
330.08305
330.04375
330.03684
330.00073
329.99333
329.95945
329.95116
329.91908
329.90994
329.87946
329.86967
329.84065
329.83045
329.80271
329.79229
329.76558
329.75507
329.72911
329.7186
329.69311
329.68267
329.6574
329.64712
329.62181
329.6119
329.58604
329.57749
329.54869
335.61729
334.80962
333.20274
332.77003
332.34476
332.03828
331.83224
331.62687
331.50094
331.33681
331.25206
331.11698
331.05611
330.94552
330.90346
330.81425
330.7874
330.71586
330.70014
330.64204
330.63331
330.58462
330.57935
330.53685
330.53257
330.49406
330.48936
330.4536
330.44791
330.41427
330.40758
330.37581
330.36835
330.3383
330.33037
330.30182
330.29367
330.26636
330.25815
330.23175
330.22359
330.19778
330.18973
330.16421
330.15636
330.13082
330.1234
330.09729
330.09131
330.06249
335.93748
335.55566
333.95134
333.49891
333.03475
332.69466
332.46509
332.23446
332.09319
331.90824
331.8133
331.66085
331.59257
331.46763
331.42045
331.3198
331.29001
331.20981
331.1931
331.12877
331.12058
331.06755
331.06387
331.01837
331.01621
330.97558
330.97316
330.93578
330.93233
330.8974
330.89282
330.85997
330.85452
330.82358
330.81762
330.78839
330.78222
330.75441
330.74824
330.7215
330.71544
330.68941
330.68352
330.65788
330.65223
330.62663
330.62144
330.59529
330.59152
330.56314
336.17632
336.13312
334.61369
334.16544
333.68144
333.31835
333.07145
332.82032
332.66626
332.46343
332.35943
332.19159
332.11621
331.97814
331.92558
331.81415
331.78077
331.69223
331.67372
331.60331
331.59488
331.53769
331.53488
331.48662
331.48602
331.44354
331.44296
331.40426
331.40267
331.3667
331.36389
331.33018
331.32641
331.29476
331.29043
331.26064
331.25614
331.22794
331.22351
331.19654
331.19231
331.16619
331.1622
331.13657
331.13287
331.10736
331.10413
331.07818
331.0762
331.04869
336.3579
336.55569
335.18285
334.75977
334.27647
333.90212
333.64508
333.37907
333.21542
332.99825
332.88673
332.70591
332.62407
332.47447
332.41648
332.29522
332.25775
332.16136
332.14031
332.06411
332.05463
331.99348
331.99085
331.94007
331.94044
331.89639
331.89719
331.85747
331.85735
331.82063
331.81923
331.7849
331.78245
331.75027
331.74724
331.71703
331.71387
331.68539
331.68238
331.65529
331.65259
331.6265
331.62412
331.59865
331.59661
331.57138
331.56979
331.54429
331.54372
331.51737
336.49901
336.84586
335.65812
335.27583
334.8133
334.43961
334.1802
333.90553
333.73606
333.50856
333.39144
333.20047
333.11314
332.95393
332.89077
332.76088
332.71904
332.61548
332.59128
332.50967
332.49842
332.43357
332.43041
332.37734
332.3781
332.33276
332.33446
332.29402
332.29499
332.2578
332.25748
332.22276
332.22131
332.18878
332.18671
332.15622
332.15405
332.1254
332.12349
332.09639
332.09489
332.06895
332.06788
332.04271
332.04203
332.01726
332.01698
331.99218
331.99263
331.9677
336.61181
337.03014
336.04369
335.71205
335.28773
334.92585
334.6719
334.39508
334.22388
333.99043
333.86997
333.67198
333.58043
333.41384
333.34605
333.20901
333.16275
333.05292
333.02513
332.93859
332.92495
332.8567
332.85236
332.79726
332.79783
332.75146
332.7536
332.71272
332.71441
332.67704
332.67747
332.6426
332.64185
332.60914
332.60772
332.57707
332.57557
332.54685
332.54571
332.51868
332.51808
332.49238
332.49232
332.46758
332.46795
332.4438
332.44453
332.42062
332.42176
332.39839
336.70451
337.13581
336.34828
336.07115
335.69806
335.35765
335.11645
334.84392
334.67523
334.44037
334.31902
334.11737
334.02311
333.85162
333.78
333.63753
333.58707
333.47204
333.44043
333.3496
333.33306
333.26178
333.25569
333.19881
333.19865
333.15151
333.15364
333.1126
333.11466
333.07736
333.07825
333.04348
333.04313
333.01044
333.00936
332.97868
332.97754
332.94884
332.94814
332.92126
332.92123
332.89588
332.8965
332.8723
332.87342
332.85004
332.85146
332.82863
332.83017
332.80843
336.78323
337.18831
336.5831
336.35936
336.04515
335.73376
335.51163
335.24935
335.08726
334.8555
334.7358
334.53392
334.43865
334.26489
334.19049
334.04449
333.99028
333.87132
333.83588
333.74152
333.72176
333.64787
333.63955
333.58117
333.5798
333.5321
333.53383
333.49287
333.49497
333.45801
333.45909
333.42465
333.42445
333.39196
333.39096
333.36038
333.35929
333.33069
333.33012
333.30346
333.30368
333.27873
333.27973
333.25618
333.25774
333.23525
333.23708
333.21545
333.21717
333.19707
336.85166
337.20861
336.7606
336.58526
336.33223
336.055
335.85683
335.60994
335.45817
335.23373
335.11816
334.91942
334.82494
334.65158
334.57562
334.42811
334.37085
334.24936
334.2103
334.11328
334.09015
334.01415
334.00325
333.94366
333.94068
333.89265
333.8936
333.85293
333.85479
333.8184
333.81945
333.78555
333.7853
333.75318
333.75203
333.72166
333.72037
333.69194
333.6912
333.66481
333.66498
333.6405
333.64158
333.61872
333.62046
333.59893
333.60092
333.58057
333.58228
333.56377
336.91265
337.21293
336.89285
336.75874
336.56457
336.32406
336.15305
335.92561
335.78722
335.57388
335.46471
335.27228
335.18035
335.01
334.93382
334.78687
334.72744
334.60493
334.56266
334.46397
334.4375
334.35998
334.34628
334.28579
334.28088
334.23273
334.23259
334.1924
334.19378
334.15815
334.15899
334.12583
334.12536
334.09379
334.09229
334.06226
334.06053
334.03234
334.03117
334.00507
334.00491
333.98091
333.98179
333.95968
333.96132
333.94081
333.94273
333.92369
333.92526
333.90826
336.96763
337.21194
336.99091
336.8899
336.74883
336.5452
336.40278
336.19758
336.07484
335.87572
335.7749
335.59159
335.50386
335.33898
335.26394
335.11959
335.05899
334.93701
334.89214
334.79283
334.76325
334.68484
334.66827
334.60724
334.60018
334.55209
334.55062
334.51107
334.51176
334.47708
334.47754
334.44532
334.44451
334.41365
334.41166
334.38208
334.37972
334.35182
334.34998
334.3242
334.32345
334.29994
334.30037
334.279
334.28031
334.26083
334.26248
334.24473
334.24606
334.23046
337.01781
337.21215
337.06405
336.9883
336.8924
336.72379
336.60969
336.42822
336.32252
336.13996
336.04901
335.87717
335.79509
335.63787
335.56528
335.42545
335.36475
335.24485
335.19811
335.0993
335.06697
334.98837
334.96902
334.90783
334.89849
334.85068
334.8477
334.80892
334.80875
334.77517
334.77515
334.74403
334.74278
334.71279
334.71022
334.68119
334.67805
334.6505
334.6478
334.62234
334.62076
334.59772
334.59746
334.57681
334.57759
334.5591
334.56034
334.54382
334.54484
334.53051
337.0637
337.21641
337.11973
337.06232
337.00279
336.86583
336.77836
336.62087
336.53266
336.36818
336.28812
336.12956
336.05432
335.90659
335.83764
335.70405
335.64433
335.52798
335.4802
335.383
335.34845
335.27039
335.24847
335.18752
335.17591
335.12859
335.12397
335.08609
335.08495
335.05257
335.05199
335.02212
335.0204
334.99141
334.98819
334.95983
334.95581
334.92866
334.92493
334.89979
334.89719
334.87459
334.87343
334.85345
334.85351
334.83595
334.83666
334.82126
334.82194
334.80872
337.10583
337.2255
337.16357
337.11886
337.08704
336.97747
336.91384
336.77955
336.70843
336.56273
336.49403
336.34999
336.28243
336.14562
336.08133
335.95545
335.89773
335.78626
335.73832
335.6438
335.60765
335.53088
335.50671
335.44646
335.43267
335.38604
335.37975
335.34287
335.34068
335.3096
335.30842
335.2799
335.27769
335.24985
335.24597
335.21838
335.21342
335.18671
335.18183
335.157
335.15322
335.131
335.12878
335.10939
335.10859
335.09186
335.09193
335.07754
335.07783
335.06559
337.14446
337.23876
337.19955
337.16331
337.15139
337.06462
337.02135
336.90862
336.85348
336.72647
336.66913
336.54025
336.48087
336.35598
336.29713
336.18012
336.12531
336.01988
335.97264
335.88182
335.84474
335.77
335.74402
335.68491
335.66913
335.62341
335.61547
335.5797
335.57642
335.54671
335.54491
335.51785
335.51516
335.48858
335.48406
335.45733
335.45141
335.4252
335.41909
335.39456
335.38947
335.36756
335.36414
335.34524
335.34345
335.32745
335.32679
335.31327
335.31317
335.30175
337.17992
337.25504
337.23033
337.19959
337.20107
337.13261
337.10594
337.01257
336.97175
336.8627
336.81625
336.70262
336.65156
336.53916
336.48628
336.37898
336.32782
336.22938
336.18364
336.0974
336.06009
335.98809
335.96078
335.90327
335.88577
335.84121
335.83172
335.79713
335.79278
335.76449
335.76206
335.73653
335.73341
335.70818
335.70307
335.67731
335.67044
335.64477
335.6374
335.61313
335.60666
335.58498
335.58026
335.56174
335.55887
335.54345
335.54202
335.52921
335.5287
335.51795
337.21243
337.2731
337.25759
337.23044
337.24022
337.18603
337.17222
337.09572
337.0672
336.97488
336.93847
336.8397
336.7968
336.69701
336.65038
336.55328
336.50635
336.41561
336.37207
336.29115
336.2543
336.18566
336.15757
336.1021
336.08322
336.04004
336.02915
335.99584
335.99045
335.96361
335.96059
335.93664
335.93313
335.90935
335.90371
335.879
335.87125
335.84615
335.83753
335.81351
335.8056
335.78408
335.77797
335.75971
335.75569
335.7407
335.73847
335.72621
335.72527
335.71505
337.24225
337.29189
337.28231
337.25763
337.27196
337.22862
337.22425
337.16204
337.14367
337.06647
337.039
336.95429
336.9191
336.8317
336.79134
336.70461
336.66228
336.57968
336.53894
336.4639
336.42814
336.36341
336.33509
336.28208
336.26218
336.22063
336.20853
336.17659
336.17024
336.14486
336.14129
336.11894
336.11511
336.09284
336.08677
336.06318
336.05463
336.03015
336.02032
335.99653
335.98717
335.96572
335.95818
335.94006
335.93484
335.92014
335.91706
335.90521
335.90384
335.894
337.26962
337.31066
337.30503
337.28225
337.29854
337.26331
337.26544
337.21504
337.20465
337.14079
337.12099
337.04925
337.02112
336.94553
336.91126
336.83478
336.79723
336.72298
336.68546
336.61671
336.58258
336.52221
336.49417
336.44398
336.42347
336.38377
336.3707
336.34021
336.33301
336.30911
336.30504
336.2843
336.28023
336.2595
336.25311
336.2307
336.22144
336.19763
336.18664
336.16307
336.15228
336.13084
336.12185
336.10374
336.0973
336.08274
336.07879
336.0672
336.06538
336.05579
337.29478
337.3289
337.32603
337.30491
337.32148
337.2923
337.29851
337.25768
337.25329
337.2009
337.18744
337.12738
337.10549
337.04092
337.01238
336.94576
336.913
336.84705
336.81304
336.75079
336.71874
336.66306
336.63578
336.58873
336.568
336.53035
336.51658
336.48761
336.4797
336.45726
336.45277
336.43362
336.42938
336.41022
336.40361
336.38244
336.37259
336.34948
336.33743
336.31407
336.30189
336.28038
336.26995
336.25174
336.24406
336.22951
336.22469
336.21321
336.21095
336.20147
337.31793
337.34635
337.34547
337.32595
337.34178
337.31715
337.32559
337.29239
337.29223
337.24952
337.2411
337.19131
337.17479
337.12026
337.09694
337.0396
337.01146
336.95359
336.92323
336.86751
336.83788
336.78708
336.76098
336.7173
336.69674
336.66133
336.64711
336.61975
336.61127
336.59029
336.58545
336.56787
336.56353
336.54594
336.53921
336.51931
336.50899
336.48662
336.47362
336.45046
336.43696
336.41532
336.40349
336.38507
336.37617
336.36148
336.3558
336.34429
336.34159
336.33211
337.33926
337.36285
337.36344
337.34554
337.36007
337.33894
337.34825
337.32107
337.32368
337.28898
337.28439
337.24347
337.2314
337.18584
337.16714
337.11835
337.09456
337.04435
337.01764
336.96833
336.94134
336.8955
336.87091
336.83078
336.81073
336.7777
336.76331
336.73761
336.72873
336.70919
336.70409
336.68802
336.68365
336.66761
336.66087
336.64226
336.6316
336.60999
336.59615
336.57319
336.55846
336.53665
336.52345
336.50474
336.49463
336.47971
336.47316
336.46152
336.45838
336.4488
337.35895
337.37838
337.38003
337.36374
337.37673
337.35837
337.36765
337.3452
337.3494
337.32123
337.31939
337.28599
337.2775
337.23978
337.22508
337.18399
337.16418
337.1211
337.09792
337.05478
337.03053
336.98961
336.96679
336.93028
336.91105
336.8805
336.86619
336.84221
336.83308
336.81496
336.80968
336.79508
336.79075
336.77622
336.76955
336.75223
336.74134
336.72051
336.70596
336.6832
336.66733
336.64531
336.63082
336.61175
336.60046
336.58522
336.57781
336.56595
336.56236
336.55259
337.37713
337.39294
337.39531
337.38061
337.39199
337.37591
337.38457
337.36583
337.37076
337.34783
337.34786
337.32071
337.31501
337.28403
337.27267
337.23841
337.22214
337.18556
337.16572
337.12836
337.10687
337.07073
337.04985
337.01697
336.99879
336.97079
336.9568
336.93457
336.92534
336.90862
336.90324
336.89004
336.88581
336.87274
336.86622
336.85016
336.83917
336.81911
336.80397
336.78141
336.76452
336.74227
336.72656
336.70706
336.69465
336.679
336.67077
336.6586
336.65458
336.64454
337.39394
337.40657
337.40936
337.39619
337.40598
337.39183
337.39956
337.38375
337.38878
337.37004
337.37121
337.34919
337.34555
337.32028
337.31166
337.28333
337.27014
337.23939
337.22261
337.19059
337.17178
337.14018
337.12133
337.09201
337.07507
337.04963
337.03615
337.01569
337.00652
336.99116
336.98577
336.97389
336.96981
336.95812
336.95182
336.93699
336.92598
336.9067
336.89108
336.86873
336.85091
336.82842
336.81157
336.79163
336.77815
336.76204
336.75301
336.74047
336.73603
336.72566
337.40948
337.41928
337.42226
337.41051
337.4188
337.40631
337.41296
337.3995
337.40421
337.38879
337.39055
337.37269
337.37052
337.35
337.34355
337.32031
337.30974
337.28411
337.27008
337.2429
337.22663
337.19926
337.18246
337.15656
337.14099
337.11809
337.10528
337.08658
337.0776
337.06356
337.05823
337.0476
337.04371
337.03332
337.02728
337.01362
337.00267
336.98415
336.96815
336.94601
336.92739
336.90464
336.88676
336.86634
336.85185
336.83526
336.82547
336.81251
336.80768
336.79694
337.42384
337.43111
337.43407
337.42361
337.4305
337.41947
337.42501
337.41345
337.41761
337.40481
337.40676
337.39223
337.39105
337.37443
337.36965
337.3507
337.3423
337.32112
337.3095
337.28663
337.2727
337.24923
337.23441
337.21176
337.19762
337.17718
337.16517
337.1482
337.13953
337.12676
337.12157
337.1121
337.10843
337.09925
337.0935
337.08094
337.0701
337.0523
337.03602
337.01408
336.99476
336.97177
336.95294
336.93205
336.91664
336.89954
336.88904
336.87564
336.87043
336.8593
337.43709
337.44208
337.44484
337.43552
337.44112
337.43137
337.43586
337.42585
337.42934
337.41863
337.42049
337.40862
337.40805
337.39459
337.39107
337.37567
337.36904
337.35165
337.3421
337.32302
337.3112
337.29125
337.27832
337.25868
337.24599
337.22791
337.21679
337.2015
337.19322
337.18167
337.17667
337.16828
337.16485
337.15677
337.15132
337.13977
337.12909
337.11197
337.09548
337.07373
337.0538
337.03059
337.01091
336.98956
336.9733
336.9557
336.94455
336.93071
336.92515
336.91361
337.44928
337.45218
337.4546
337.44626
337.4507
337.44207
337.44558
337.43688
337.43967
337.43062
337.43223
337.42247
337.42222
337.41131
337.40869
337.39623
337.391
337.3768
337.369
337.35318
337.34324
337.3264
337.31523
337.29835
337.28708
337.27121
337.26102
337.24734
337.23954
337.22915
337.22438
337.21698
337.2138
337.20671
337.20156
337.19092
337.18041
337.16391
337.14727
337.1257
337.10525
337.08183
337.06141
337.03963
337.02261
337.00453
336.99279
336.97852
336.97264
336.96072
337.46041
337.46138
337.46336
337.45586
337.45925
337.4516
337.45426
337.44666
337.44878
337.44107
337.44234
337.43425
337.43413
337.42525
337.42326
337.41317
337.40904
337.39749
337.39114
337.37811
337.36979
337.35568
337.34611
337.33171
337.32179
337.30797
337.29873
337.28658
337.27929
337.27
337.2655
337.259
337.25606
337.24984
337.24497
337.23514
337.22479
337.20883
337.19208
337.17067
337.14979
337.12617
337.10511
337.08294
337.06525
337.04674
337.03447
337.01981
337.01365
337.00136
337.47045
337.46963
337.47111
337.46432
337.4668
337.46001
337.46193
337.45527
337.45679
337.45018
337.45108
337.44432
337.4442
337.43693
337.43537
337.42718
337.42389
337.41451
337.40934
337.39865
337.39172
337.37997
337.37182
337.35962
337.35097
337.33901
337.33071
337.31997
337.31324
337.30496
337.30075
337.29507
337.29235
337.28689
337.28225
337.27311
337.2629
337.24741
337.23056
337.2093
337.18804
337.16427
337.14265
337.12014
337.10188
337.08299
337.07028
337.05526
337.04886
337.03625
337.47927
337.47687
337.47783
337.47166
337.47337
337.46734
337.46864
337.4628
337.4638
337.45809
337.45864
337.45294
337.45275
337.44675
337.44546
337.4388
337.43614
337.42852
337.4243
337.41555
337.40979
337.40004
337.39313
337.38285
337.37536
337.36508
337.35767
337.34824
337.34206
337.33472
337.33081
337.32585
337.32333
337.31852
337.31406
337.30547
337.29537
337.28025
337.26331
337.24216
337.2206
337.19668
337.17462
337.15183
337.1331
337.1139
337.10081
337.08551
337.0789
337.06603
337.48668
337.483
337.4835
337.47789
337.47898
337.47362
337.47443
337.4693
337.46987
337.46492
337.46517
337.46032
337.46002
337.45503
337.45391
337.44845
337.44626
337.44005
337.43658
337.42943
337.42463
337.41656
337.41072
337.4021
337.39564
337.38684
337.38027
337.37202
337.36639
337.3599
337.3563
337.35195
337.34961
337.34531
337.34097
337.3328
337.32275
337.30791
337.29088
337.2698
337.24798
337.22397
337.20154
337.17854
337.15944
337.14001
337.12663
337.11112
337.10435
337.0913
337.49246
337.48796
337.48811
337.48304
337.48365
337.47891
337.47935
337.47484
337.47508
337.47078
337.47076
337.46661
337.46621
337.46201
337.46099
337.45648
337.45463
337.44955
337.44667
337.44079
337.43678
337.43011
337.42517
337.41796
337.4124
337.4049
337.39909
337.39189
337.38679
337.38107
337.37775
337.37393
337.37172
337.3678
337.36351
337.35564
337.34556
337.3309
337.31375
337.29272
337.27069
337.2466
337.22391
337.20078
337.18141
337.16183
337.14825
337.13262
337.12574
337.11257
337.49649
337.49173
337.49169
337.48717
337.48745
337.48327
337.48344
337.47949
337.47949
337.47573
337.47552
337.47194
337.47144
337.46788
337.46692
337.46315
337.46155
337.45736
337.45493
337.45008
337.44671
337.44117
337.43698
337.43094
337.42617
337.41977
337.41465
337.40837
337.40376
337.39871
337.39565
337.39226
337.39013
337.38647
337.38215
337.37443
337.36426
337.34967
337.33238
337.31136
337.28916
337.26504
337.24217
337.21898
337.19946
337.17984
337.16613
337.15047
337.14353
337.13033
337.49885
337.49438
337.49431
337.49035
337.49043
337.48677
337.48677
337.48331
337.48315
337.47987
337.47952
337.47641
337.47584
337.47279
337.47187
337.46868
337.46726
337.46375
337.46167
337.45763
337.45476
337.45013
337.44657
337.44148
337.43737
337.4319
337.42739
337.42191
337.41774
337.41326
337.41043
337.40738
337.40526
337.40174
337.3973
337.38959
337.37924
337.36462
337.34717
337.32613
337.30379
337.27969
337.25672
337.23358
337.214
337.19443
337.1807
337.1651
337.15815
337.14502
337.49984
337.49605
337.49608
337.49268
337.49268
337.48949
337.4894
337.48638
337.48613
337.48326
337.48283
337.48011
337.4795
337.47685
337.47596
337.47321
337.47193
337.46895
337.46713
337.46372
337.46124
337.45733
337.45426
337.44995
337.44639
337.44169
337.4377
337.43288
337.42911
337.4251
337.42245
337.41963
337.41747
337.41395
337.4093
337.40147
337.39086
337.37613
337.35847
337.3374
337.31497
337.29092
337.26795
337.24494
337.22541
337.206
337.19233
337.17689
337.16998
337.15701
337.49988
337.49696
337.49714
337.49427
337.49428
337.49152
337.4914
337.48877
337.48848
337.48597
337.48551
337.48312
337.48249
337.48016
337.47929
337.47689
337.47571
337.47312
337.4715
337.46856
337.46638
337.46302
337.46035
337.45664
337.45353
337.44944
337.44588
337.44161
337.43817
337.43455
337.43203
337.42933
337.42705
337.42342
337.41846
337.41039
337.39944
337.38451
337.36662
337.34549
337.323
337.29907
337.27619
337.2534
337.23403
337.21489
337.20136
337.18619
337.17936
337.16664
337.49939
337.4973
337.49765
337.49526
337.49532
337.49296
337.49286
337.49056
337.49029
337.48808
337.48762
337.4855
337.48488
337.48279
337.48196
337.47981
337.4787
337.4764
337.47492
337.47232
337.47037
337.46741
337.46504
337.4618
337.45903
337.45542
337.45222
337.44838
337.44521
337.44187
337.43941
337.43674
337.43426
337.43039
337.42503
337.4166
337.40524
337.39003
337.37189
337.3507
337.32821
337.30444
337.28175
337.25928
337.24017
337.2214
337.20811
337.1933
337.1866
337.17422
337.49867
337.49726
337.49774
337.49575
337.49591
337.49387
337.49384
337.49183
337.4916
337.48964
337.48922
337.48731
337.48672
337.48481
337.48401
337.48203
337.48098
337.47887
337.47749
337.47512
337.47333
337.47066
337.46851
337.4656
337.4631
337.45984
337.45691
337.4534
337.45043
337.44727
337.44481
337.44206
337.4393
337.43507
337.42922
337.42033
337.40849
337.39293
337.37454
337.3533
337.33085
337.30733
337.28491
337.26286
337.24411
337.22582
337.21284
337.19849
337.19197
337.18002
337.49787
337.49697
337.49754
337.49587
337.49613
337.49436
337.49441
337.49264
337.49249
337.49072
337.49036
337.48861
337.48806
337.48627
337.4855
337.48362
337.4826
337.4806
337.47928
337.47705
337.47536
337.47287
337.47089
337.46819
337.46588
337.46286
337.46013
337.45683
337.454
337.45092
337.44839
337.44546
337.44232
337.43763
337.4312
337.42176
337.40938
337.39345
337.37481
337.35353
337.3312
337.30798
337.28594
337.2644
337.24612
337.2284
337.21582
337.20201
337.19571
337.18426
337.49704
337.49653
337.49712
337.49568
337.49606
337.4945
337.49464
337.49306
337.49299
337.49137
337.49109
337.48943
337.48892
337.4872
337.48645
337.48461
337.4836
337.48164
337.48034
337.47816
337.47654
337.47414
337.47225
337.46967
337.46748
337.4646
337.462
337.45882
337.45605
337.45296
337.45028
337.44705
337.44346
337.4382
337.43112
337.42104
337.4081
337.39176
337.37289
337.35163
337.32947
337.30664
337.28507
337.26415
337.24643
337.22938
337.21726
337.20407
337.19802
337.18715
337.49619
337.49598
337.49656
337.49527
337.49575
337.49435
337.49459
337.49314
337.49317
337.49164
337.49142
337.48982
337.48934
337.48763
337.48688
337.48502
337.484
337.482
337.4807
337.4785
337.47689
337.47451
337.47266
337.47011
337.46798
337.46515
337.4626
337.45945
337.45666
337.45346
337.45055
337.44693
337.4428
337.43688
337.42909
337.41832
337.40479
337.38805
337.36899
337.34778
337.32589
337.30354
337.28254
337.26232
337.24525
337.22895
337.21736
337.20486
337.1991
337.18886
337.4953
337.49535
337.49589
337.49469
337.49526
337.49395
337.4943
337.49293
337.49305
337.49156
337.49141
337.48978
337.48933
337.48755
337.48679
337.48485
337.48379
337.48169
337.48035
337.47807
337.47644
337.47399
337.47214
337.46955
337.46742
337.46455
337.462
337.45878
337.45591
337.4525
337.44927
337.44516
337.44041
337.43376
337.4252
337.41371
337.3996
337.38248
337.36328
337.34219
337.32065
337.29887
337.27853
337.25912
337.24278
337.22731
337.2163
337.20455
337.19911
337.18954
337.49436
337.49465
337.49513
337.49396
337.49462
337.49337
337.49381
337.49246
337.49266
337.49115
337.49104
337.48934
337.48888
337.48698
337.48617
337.48407
337.48295
337.48069
337.47928
337.47685
337.47517
337.4726
337.47069
337.46799
337.46581
337.46283
337.46021
337.45684
337.4538
337.45009
337.44646
337.44177
337.43634
337.42888
337.41954
337.40732
337.39265
337.37519
337.35593
337.33505
337.31396
337.29283
337.27326
337.25473
337.23919
337.22461
337.21423
337.20327
337.19818
337.18932
337.49335
337.49389
337.4943
337.49312
337.49387
337.49261
337.49314
337.49177
337.49202
337.49042
337.49032
337.48847
337.48797
337.48587
337.48499
337.48267
337.48145
337.47897
337.47746
337.47482
337.47305
337.4703
337.46831
337.46543
337.46315
337.45998
337.45723
337.45363
337.45036
337.44624
337.44214
337.43679
337.43062
337.42232
337.41219
337.39924
337.38407
337.36633
337.3471
337.32653
337.30598
337.28561
337.26689
337.24932
337.23465
337.221
337.2113
337.20116
337.19643
337.1883
337.49226
337.49306
337.49339
337.49217
337.493
337.49171
337.49231
337.49084
337.49113
337.48936
337.48922
337.48714
337.48656
337.48419
337.48319
337.48059
337.47924
337.47648
337.47483
337.47194
337.47005
337.46706
337.46495
337.46184
337.45941
337.45599
337.45305
337.44914
337.44556
337.44096
337.43631
337.43023
337.42328
337.41411
337.4032
337.38958
337.37398
337.35606
337.33696
337.31679
337.2969
337.27738
337.25959
337.24304
337.22929
337.21662
337.20762
337.19832
337.19396
337.18656
337.4911
337.49217
337.4924
337.49113
337.49204
337.49067
337.49131
337.48969
337.48994
337.48792
337.48771
337.48531
337.48459
337.48187
337.48071
337.47776
337.47624
337.47314
337.47134
337.46815
337.46611
337.46284
337.46057
337.45717
337.45456
337.45082
337.44764
337.44334
337.43938
337.43422
337.42897
337.42209
337.41435
337.40432
337.39268
337.37844
337.3625
337.34451
337.32566
337.30601
337.28688
337.26829
337.25151
337.23602
337.22325
337.21157
337.20329
337.19483
337.19084
337.18418
337.48984
337.49122
337.49133
337.49
337.49098
337.48948
337.49012
337.48826
337.48843
337.48607
337.4857
337.48289
337.48198
337.47884
337.47747
337.4741
337.47238
337.4689
337.46692
337.46337
337.46116
337.45757
337.45512
337.45138
337.44855
337.44443
337.44095
337.43619
337.43179
337.426
337.42009
337.4124
337.40386
337.39301
337.38069
337.36593
337.34978
337.33183
337.31335
337.29433
337.27606
337.25848
337.24277
337.22839
337.21661
337.20594
337.19839
337.19076
337.18715
337.18121
337.48848
337.4902
337.49018
337.48877
337.48981
337.48812
337.48871
337.48652
337.48652
337.4837
337.48311
337.4798
337.47864
337.47499
337.47336
337.46952
337.46757
337.46366
337.46147
337.45755
337.45514
337.45118
337.44852
337.4444
337.4413
337.43676
337.43293
337.42765
337.42275
337.41628
337.40969
337.40117
337.39186
337.38023
337.36735
337.35218
337.33594
337.31816
337.30019
337.28191
337.2646
337.24809
337.2335
337.22026
337.20949
337.19981
337.19299
337.18617
337.18293
337.17767
337.487
337.48912
337.48893
337.48745
337.4885
337.48657
337.487
337.48437
337.48411
337.48073
337.47983
337.47592
337.47443
337.47021
337.46828
337.46392
337.4617
337.45734
337.45492
337.45058
337.44797
337.44361
337.44072
337.43618
337.43278
337.42776
337.42353
337.41768
337.41224
337.40505
337.39777
337.38843
337.37841
337.36609
337.35274
337.3373
337.32112
337.30366
337.28633
337.26889
337.25261
337.23724
337.2238
337.2117
337.20194
337.19324
337.18713
337.1811
337.17822
337.17362
337.4854
337.48798
337.48759
337.48602
337.48703
337.48474
337.4849
337.48171
337.48106
337.477
337.4757
337.4711
337.46923
337.46437
337.4621
337.45718
337.45468
337.44983
337.44717
337.4424
337.43956
337.43479
337.43163
337.42664
337.42291
337.41737
337.41271
337.40624
337.40024
337.39232
337.38435
337.37425
337.36358
337.35068
337.33701
337.32144
337.30547
337.28847
337.27189
337.2554
337.24023
337.22602
337.21376
337.20279
337.19402
337.18627
337.18086
337.17556
337.17303
337.16904
337.48366
337.48682
337.48613
337.48447
337.48532
337.48255
337.48229
337.47839
337.47722
337.47235
337.47057
337.46519
337.46288
337.45733
337.4547
337.44919
337.44639
337.44104
337.43814
337.43293
337.42985
337.42464
337.4212
337.41573
337.41164
337.40556
337.40043
337.39333
337.38674
337.3781
337.36948
337.35868
337.34747
337.33412
337.32028
337.30474
337.28913
337.27273
337.25703
337.24156
337.22755
337.21453
337.20344
337.19358
337.18579
337.17894
337.17419
337.16959
337.16739
337.16396
337.48177
337.48565
337.48455
337.48275
337.48328
337.47986
337.47899
337.47422
337.4724
337.46661
337.46424
337.45802
337.45523
337.44896
337.44594
337.43983
337.43675
337.43089
337.42775
337.42209
337.41876
337.4131
337.40936
337.4034
337.39892
337.39228
337.38668
337.37893
337.37177
337.36243
337.35323
337.34182
337.3302
337.31655
337.30269
337.28736
337.27226
337.25659
337.24185
337.22747
337.21466
337.20283
337.1929
337.18412
337.17726
337.17127
337.16714