/*--------------------------------*- C++ -*----------------------------------*\
| =========                 |                                                 |
| \\      /  F ield         | OpenFOAM: The Open Source CFD Toolbox           |
|  \\    /   O peration     | Version:  2312                                  |
|   \\  /    A nd           | Website:  www.openfoam.com                      |
|    \\/     M anipulation  |                                                 |
\*---------------------------------------------------------------------------*/
FoamFile
{
    version     2.0;
    format      ascii;
    arch        "LSB;label=32;scalar=64";
    class       volVectorField;
    location    "1";
    object      U_0;
}
// * * * * * * * * * * * * * * * * * * * * * * * * * * * * * * * * * * * * * //

dimensions      [0 1 -1 0 0 0 0];

internalField   nonuniform List<vector> 
4000
(
(0.0035709508 0.00066198626 0)
(0.0063785672 -5.0187117e-06 0)
(0.0031229961 2.1670738e-07 0)
(0.0038471166 -4.9311156e-07 0)
(0.0035908715 4.7990485e-08 0)
(0.0036190254 -1.1031809e-07 0)
(0.0035457878 -4.0542563e-08 0)
(0.0035669284 -2.0631325e-09 0)
(0.0035395388 -3.3806156e-08 0)
(0.0035497092 2.5405976e-08 0)
(0.0035397003 -3.8771296e-08 0)
(0.0035480143 4.6831533e-08 0)
(0.0035383842 -5.6738604e-08 0)
(0.0035486714 6.4428378e-08 0)
(0.0035370712 -7.2213985e-08 0)
(0.003549522 7.8368388e-08 0)
(0.0035360792 -8.412161e-08 0)
(0.0035502342 8.8712313e-08 0)
(0.0035353931 -9.270578e-08 0)
(0.0035507388 9.5817214e-08 0)
(0.0035349687 -9.8309336e-08 0)
(0.0035510282 1.0009813e-07 0)
(0.0035347706 -1.0132438e-07 0)
(0.0035511168 1.0198571e-07 0)
(0.00353477 -1.0216927e-07 0)
(0.0035510258 1.0190429e-07 0)
(0.003534938 -1.0125588e-07 0)
(0.0035507795 1.0025882e-07 0)
(0.0035352513 -9.8967822e-08 0)
(0.003550402 9.7434648e-08 0)
(0.003535684 -9.569206e-08 0)
(0.0035499151 9.3786514e-08 0)
(0.0035362153 -9.1751745e-08 0)
(0.0035493403 8.9634843e-08 0)
(0.0035368258 -8.7461868e-08 0)
(0.0035486952 8.5275295e-08 0)
(0.0035374986 -8.3093856e-08 0)
(0.0035479959 8.0957557e-08 0)
(0.0035382191 -7.8877846e-08 0)
(0.0035472555 7.6891208e-08 0)
(0.0035389752 -7.501019e-08 0)
(0.0035464837 7.326641e-08 0)
(0.003539757 -7.1667512e-08 0)
(0.00354569 7.023021e-08 0)
(0.0035405563 -6.8980408e-08 0)
(0.0035448766 6.7881435e-08 0)
(0.003541376 -6.712377e-08 0)
(0.0035441368 6.6442637e-08 0)
(0.003542581 -6.5033455e-08 0)
(0.0035444965 7.1984417e-08 0)
(0.0082900894 0.0017421207 0)
(0.016647363 1.8134015e-05 0)
(0.0098136626 3.1776614e-05 0)
(0.010997411 -5.3838222e-06 0)
(0.010421584 2.8987233e-06 0)
(0.010498241 5.2069167e-07 0)
(0.010283526 7.3365445e-07 0)
(0.010357329 7.9647301e-08 0)
(0.010270362 1.6936588e-07 0)
(0.010308556 1.0541685e-07 0)
(0.010269898 -1.2870057e-07 0)
(0.010304688 2.059154e-07 0)
(0.010266189 -2.3156978e-07 0)
(0.010306551 2.7062451e-07 0)
(0.010262711 -2.9135385e-07 0)
(0.010308682 3.1670513e-07 0)
(0.01026023 -3.3307393e-07 0)
(0.010310336 3.4973767e-07 0)
(0.010258666 -3.612761e-07 0)
(0.010311366 3.7143039e-07 0)
(0.010257872 -3.7820251e-07 0)
(0.010311767 3.8319004e-07 0)
(0.010257733 -3.8570511e-07 0)
(0.010311593 3.8651264e-07 0)
(0.010258155 -3.8543989e-07 0)
(0.010310915 3.8294646e-07 0)
(0.010259048 -3.7900756e-07 0)
(0.010309808 3.7397682e-07 0)
(0.01026034 -3.6791369e-07 0)
(0.010308347 3.6104398e-07 0)
(0.01026195 -3.534704e-07 0)
(0.010306597 3.4542884e-07 0)
(0.010263819 -3.3698479e-07 0)
(0.010304619 3.2832502e-07 0)
(0.010265889 -3.195223e-07 0)
(0.010302466 3.1073903e-07 0)
(0.010268114 -3.0205156e-07 0)
(0.010300181 2.9358546e-07 0)
(0.010270451 -2.8542126e-07 0)
(0.0102978 2.7765321e-07 0)
(0.010272871 -2.7032492e-07 0)
(0.010295347 2.635376e-07 0)
(0.010275348 -2.5730697e-07 0)
(0.010292845 2.5178224e-07 0)
(0.010277864 -2.4681121e-07 0)
(0.010290294 2.4267431e-07 0)
(0.010280405 -2.4018539e-07 0)
(0.010287838 2.3224636e-07 0)
(0.010283707 -2.5002807e-07 0)
(0.01028814 2.2276731e-07 0)
(0.010509878 0.0021025169 0)
(0.025692668 -3.6912131e-05 0)
(0.01631129 7.5749721e-05 0)
(0.017963392 -8.9681896e-06 0)
(0.017058008 6.8455033e-06 0)
(0.017192651 1.538528e-06 0)
(0.016835773 1.8757948e-06 0)
(0.01697602 1.6578647e-07 0)
(0.016823448 5.0817069e-07 0)
(0.016897254 1.9925556e-07 0)
(0.016823285 -2.3050108e-07 0)
(0.016891944 3.9927781e-07 0)
(0.016817391 -4.4113198e-07 0)
(0.016895099 5.1910977e-07 0)
(0.016811913 -5.5265058e-07 0)
(0.016898397 6.0109707e-07 0)
(0.016808136 -6.2838478e-07 0)
(0.016900809 6.590515e-07 0)
(0.016805916 -6.7849366e-07 0)
(0.016902138 6.9648339e-07 0)
(0.016804995 -7.0758095e-07 0)
(0.016902406 7.158257e-07 0)
(0.016805169 -7.1925957e-07 0)
(0.016901712 7.1976126e-07 0)
(0.016806275 -7.1677743e-07 0)
(0.016900189 7.1127355e-07 0)
(0.016808152 -7.0309429e-07 0)
(0.016897965 6.9292665e-07 0)
(0.016810675 -6.8095959e-07 0)
(0.016895172 6.6755785e-07 0)
(0.016813709 -6.5290384e-07 0)
(0.01689192 6.3741077e-07 0)
(0.016817147 -6.2121509e-07 0)
(0.016888315 6.0465358e-07 0)
(0.016820897 -5.8791846e-07 0)
(0.016884442 5.7123978e-07 0)
(0.016824877 -5.5481992e-07 0)
(0.016880375 5.3881104e-07 0)
(0.016829023 -5.2340365e-07 0)
(0.016876169 5.0868718e-07 0)
(0.016833286 -4.9486034e-07 0)
(0.016871862 4.8210848e-07 0)
(0.016837624 -4.7038634e-07 0)
(0.016867491 4.5991553e-07 0)
(0.016842017 -4.5044246e-07 0)
(0.016863047 4.42843e-07 0)
(0.016846431 -4.3780386e-07 0)
(0.016858691 4.2151314e-07 0)
(0.016851872 -4.6505109e-07 0)
(0.01685851 4.020574e-07 0)
(0.018041445 0.0040279401 0)
(0.034160424 -2.4445297e-05 0)
(0.022498463 0.00012600138 0)
(0.024736332 -1.5184959e-05 0)
(0.023501374 1.2508945e-05 0)
(0.023699934 3.0624975e-06 0)
(0.023204561 3.4691252e-06 0)
(0.023423028 2.2871825e-07 0)
(0.023198751 1.0354266e-06 0)
(0.023316209 2.9203778e-07 0)
(0.023199482 -3.2820475e-07 0)
(0.023310195 6.1037262e-07 0)
(0.023191619 -6.6393599e-07 0)
(0.023314693 7.8532611e-07 0)
(0.023184342 -8.269002e-07 0)
(0.023319013 8.9947893e-07 0)
(0.023179498 -9.3460213e-07 0)
(0.023321967 9.7881869e-07 0)
(0.023176875 -1.0040461e-06 0)
(0.023323344 1.0288761e-06 0)
(0.023176097 -1.042721e-06 0)
(0.023323205 1.0531359e-06 0)
(0.023176867 -1.0562588e-06 0)
(0.023321711 1.0553984e-06 0)
(0.023178939 -1.0494157e-06 0)
(0.023319059 1.0399135e-06 0)
(0.023182081 -1.0265655e-06 0)
(0.023315442 1.010491e-06 0)
(0.023186106 -9.9188654e-07 0)
(0.023311053 9.7117081e-07 0)
(0.023190821 -9.4878512e-07 0)
(0.023306049 9.2525954e-07 0)
(0.023196071 -9.008542e-07 0)
(0.023300583 8.7593316e-07 0)
(0.023201724 -8.5085378e-07 0)
(0.023294775 8.2586493e-07 0)
(0.023207667 -8.0136126e-07 0)
(0.023288725 7.7746188e-07 0)
(0.02321381 -7.5458629e-07 0)
(0.023282515 7.3275193e-07 0)
(0.023220087 -7.1227954e-07 0)
(0.023276191 6.9331669e-07 0)
(0.023226444 -6.7591585e-07 0)
(0.023269799 6.6045507e-07 0)
(0.023232858 -6.4633619e-07 0)
(0.023263324 6.3524146e-07 0)
(0.02323928 -6.2740411e-07 0)
(0.023256913 6.0147351e-07 0)
(0.02324689 -6.805327e-07 0)
(0.023255796 5.7183075e-07 0)
(0.019323403 0.0037326249 0)
(0.041708973 -0.00013459387 0)
(0.028524204 0.00019137256 0)
(0.031346661 -2.1708562e-05 0)
(0.029750955 1.9955522e-05 0)
(0.030017412 5.0298725e-06 0)
(0.029392554 5.3874319e-06 0)
(0.029698085 2.371838e-07 0)
(0.029396167 1.7347931e-06 0)
(0.029565681 3.7631676e-07 0)
(0.029398282 -4.2176466e-07 0)
(0.029559618 8.3117263e-07 0)
(0.029388729 -8.9281835e-07 0)
(0.029565433 1.0595026e-06 0)
(0.029379909 -1.1040211e-06 0)
(0.029570578 1.2005348e-06 0)
(0.02937427 -1.2399149e-06 0)
(0.029573817 1.296517e-06 0)
(0.029371531 -1.3251803e-06 0)
(0.029574958 1.3554743e-06 0)
(0.029371197 -1.3703151e-06 0)
(0.029574115 1.3816016e-06 0)
(0.029372862 -1.3829827e-06 0)
(0.029571521 1.3796726e-06 0)
(0.029376202 -1.3697022e-06 0)
(0.029567448 1.3554139e-06 0)
(0.029380897 -1.3361286e-06 0)
(0.029562155 1.3134232e-06 0)
(0.029386701 -1.2876462e-06 0)
(0.029555904 1.259268e-06 0)
(0.029393354 -1.2288209e-06 0)
(0.0295489 1.1969884e-06 0)
(0.029400653 -1.1640957e-06 0)
(0.029541345 1.1306305e-06 0)
(0.029408426 -1.0971311e-06 0)
(0.029533395 1.0638178e-06 0)
(0.029416528 -1.0312913e-06 0)
(0.02952518 9.9957788e-07 0)
(0.029424842 -9.6927966e-07 0)
(0.029516798 9.4027537e-07 0)
(0.02943329 -9.1319102e-07 0)
(0.02950831 8.8822515e-07 0)
(0.029441803 -8.6528678e-07 0)
(0.029499767 8.4479337e-07 0)
(0.029450363 -8.2602567e-07 0)
(0.029491146 8.1180361e-07 0)
(0.029458903 -8.0089381e-07 0)
(0.029482564 7.6495386e-07 0)
(0.029468722 -8.862677e-07 0)
(0.029480132 7.2418469e-07 0)
(0.025709989 0.0053356692 0)
(0.049146111 -0.0001113019 0)
(0.034275963 0.00025824882 0)
(0.037775955 -3.2586765e-05 0)
(0.035804845 2.912993e-05 0)
(0.036144001 7.3148925e-06 0)
(0.035402573 7.5131468e-06 0)
(0.035800701 1.8386e-07 0)
(0.035415764 2.5863703e-06 0)
(0.035645853 4.4996625e-07 0)
(0.035419644 -5.1565488e-07 0)
(0.035640256 1.0603669e-06 0)
(0.035408749 -1.1282088e-06 0)
(0.035647265 1.3407388e-06 0)
(0.035398713 -1.3837432e-06 0)
(0.035652973 1.5036323e-06 0)
(0.035392606 -1.5440587e-06 0)
(0.03565619 1.61179e-06 0)
(0.035390084 -1.641527e-06 0)
(0.035656773 1.6758833e-06 0)
(0.035390522 -1.6900133e-06 0)
(0.035654902 1.7009508e-06 0)
(0.035393408 -1.699396e-06 0)
(0.035650893 1.6926185e-06 0)
(0.035398322 -1.6776703e-06 0)
(0.035645098 1.65774e-06 0)
(0.035404864 -1.6317856e-06 0)
(0.035637847 1.6019995e-06 0)
(0.035412716 -1.5685995e-06 0)
(0.035629474 1.532046e-06 0)
(0.035421555 -1.4931953e-06 0)
(0.035620234 1.4528497e-06 0)
(0.035431129 -1.4114024e-06 0)
(0.03561038 1.369342e-06 0)
(0.035441221 -1.3273629e-06 0)
(0.035600101 1.285676e-06 0)
(0.035451657 -1.2450912e-06 0)
(0.035589555 1.2055504e-06 0)
(0.035462297 -1.1679384e-06 0)
(0.035578861 1.1319931e-06 0)
(0.035473046 -1.0984715e-06 0)
(0.035568086 1.0674864e-06 0)
(0.035483832 -1.0390346e-06 0)
(0.035557286 1.0137665e-06 0)
(0.035494635 -9.9044449e-07 0)
(0.035546428 9.7313683e-07 0)
(0.035505382 -9.5885609e-07 0)
(0.03553559 9.1291363e-07 0)
(0.035517431 -1.0811756e-06 0)
(0.035531519 8.5890117e-07 0)
(0.028140587 0.0053741441 0)
(0.055527519 -0.0002541581 0)
(0.039933864 0.00033469297 0)
(0.044031955 -4.2534758e-05 0)
(0.041660898 4.0666277e-05 0)
(0.042082913 9.8789739e-06 0)
(0.041234726 9.7551256e-06 0)
(0.041730326 7.6934615e-08 0)
(0.04125743 3.5687964e-06 0)
(0.041556831 5.1132813e-07 0)
(0.041263594 -6.1366998e-07 0)
(0.041552068 1.2965898e-06 0)
(0.04125179 -1.3702548e-06 0)
(0.041560052 1.6282742e-06 0)
(0.041240925 -1.6657945e-06 0)
(0.041565995 1.8083165e-06 0)
(0.041234729 -1.8467249e-06 0)
(0.041568841 1.9243107e-06 0)
(0.04123279 -1.9531301e-06 0)
(0.041568512 1.9902158e-06 0)
(0.041234355 -2.0021134e-06 0)
(0.041565273 2.0114737e-06 0)
(0.041238796 -2.0056896e-06 0)
(0.041559523 1.9944553e-06 0)
(0.041245602 -1.9737067e-06 0)
(0.041551705 1.9474686e-06 0)
(0.041254279 -1.9142141e-06 0)
(0.041542221 1.8766628e-06 0)
(0.041264443 -1.8352183e-06 0)
(0.041531478 1.7902738e-06 0)
(0.041275702 -1.7428089e-06 0)
(0.041519784 1.69374e-06 0)
(0.041287753 -1.6435105e-06 0)
(0.041507438 1.5927112e-06 0)
(0.041300344 -1.5422599e-06 0)
(0.041494665 1.4922578e-06 0)
(0.041313265 -1.4437741e-06 0)
(0.041481649 1.3965602e-06 0)
(0.041326359 -1.3517259e-06 0)
(0.041468523 1.3087603e-06 0)
(0.04133952 -1.2688564e-06 0)
(0.041455361 1.232149e-06 0)
(0.041352665 -1.1983915e-06 0)
(0.041442222 1.1682507e-06 0)
(0.04136579 -1.1404047e-06 0)
(0.041429063 1.1204232e-06 0)
(0.041378802 -1.1024623e-06 0)
(0.041415912 1.0467927e-06 0)
(0.041393097 -1.2648533e-06 0)
(0.041409935 9.7625338e-07 0)
(0.033771513 0.0063962017 0)
(0.061724719 -0.00022928851 0)
(0.045366487 0.00040020512 0)
(0.049988204 -5.2779522e-05 0)
(0.047314912 5.440915e-05 0)
(0.047837198 1.2576509e-05 0)
(0.046886509 1.2023359e-05 0)
(0.047486617 -9.2504738e-08 0)
(0.046920948 4.6551256e-06 0)
(0.047298678 5.5665205e-07 0)
(0.046930208 -7.1787311e-07 0)
(0.047294949 1.5370958e-06 0)
(0.046918008 -1.6178047e-06 0)
(0.047303613 1.9198098e-06 0)
(0.046906758 -1.9484608e-06 0)
(0.047309422 2.1125179e-06 0)
(0.046900888 -2.1462329e-06 0)
(0.04731151 2.2323055e-06 0)
(0.046899927 -2.2580992e-06 0)
(0.047309897 2.2965518e-06 0)
(0.046902988 -2.3047181e-06 0)
(0.047304934 2.3114025e-06 0)
(0.046909331 -2.3004089e-06 0)
(0.047297118 2.2838334e-06 0)
(0.046918338 -2.2564487e-06 0)
(0.04728698 2.223152e-06 0)
(0.046929433 -2.18201e-06 0)
(0.047274998 2.1364359e-06 0)
(0.046942156 -2.0866425e-06 0)
(0.047261653 2.0328648e-06 0)
(0.046956052 -1.9765592e-06 0)
(0.047247303 1.9186888e-06 0)
(0.046970768 -1.8597625e-06 0)
(0.047232295 1.8003004e-06 0)
(0.046986012 -1.7414142e-06 0)
(0.047216885 1.6831261e-06 0)
(0.04700155 -1.6267653e-06 0)
(0.04720128 1.5719175e-06 0)
(0.047017203 -1.520054e-06 0)
(0.047185629 1.4704327e-06 0)
(0.047032858 -1.4244153e-06 0)
(0.047170008 1.3819748e-06 0)
(0.047048432 -1.3429578e-06 0)
(0.047154471 1.3083185e-06 0)
(0.047063925 -1.2761366e-06 0)
(0.047138966 1.2534477e-06 0)
(0.047079249 -1.2315626e-06 0)
(0.047123474 1.1667375e-06 0)
(0.04709578 -1.4359288e-06 0)
(0.04711537 1.0766216e-06 0)
(0.036837228 0.0066820452 0)
(0.066574268 -0.0004160952 0)
(0.050848643 0.00047328668 0)
(0.055479693 -6.0811978e-05 0)
(0.052745584 6.8894841e-05 0)
(0.053407139 1.5221036e-05 0)
(0.052355465 1.4268029e-05 0)
(0.053069755 -3.4306979e-07 0)
(0.052406334 5.8198731e-06 0)
(0.052871471 5.8015186e-07 0)
(0.052419662 -8.2877989e-07 0)
(0.052868757 1.7785536e-06 0)
(0.05240762 -1.8685169e-06 0)
(0.052877731 2.2124425e-06 0)
(0.052396459 -2.2290534e-06 0)
(0.052882987 2.4134254e-06 0)
(0.052391357 -2.4397429e-06 0)
(0.052883913 2.5329213e-06 0)
(0.052391783 -2.5539908e-06 0)
(0.052880627 2.5925389e-06 0)
(0.052396721 -2.5956658e-06 0)
(0.052873586 2.5985578e-06 0)
(0.052405303 -2.5812275e-06 0)
(0.052863378 2.5584912e-06 0)
(0.052416822 -2.52386e-06 0)
(0.052850634 2.4830462e-06 0)
(0.052430602 -2.4335922e-06 0)
(0.052835903 2.3794528e-06 0)
(0.052446118 -2.3210821e-06 0)
(0.052819742 2.2584943e-06 0)
(0.052462849 -2.1933405e-06 0)
(0.052802555 2.1266295e-06 0)
(0.052480391 -2.0589182e-06 0)
(0.052784736 1.9907991e-06 0)
(0.052498424 -1.9236537e-06 0)
(0.05276657 1.8573111e-06 0)
(0.052516683 -1.7934104e-06 0)
(0.052748286 1.7312537e-06 0)
(0.052534977 -1.672573e-06 0)
(0.052730036 1.616275e-06 0)
(0.05255319 -1.564289e-06 0)
(0.0527119 1.5165708e-06 0)
(0.052571231 -1.4726253e-06 0)
(0.052693932 1.4334091e-06 0)
(0.052589125 -1.397007e-06 0)
(0.052676061 1.3721209e-06 0)
(0.052606775 -1.3461383e-06 0)
(0.052658219 1.2728645e-06 0)
(0.052625532 -1.5932345e-06 0)
(0.052647814 1.1597276e-06 0)
(0.042242332 0.0072169547 0)
(0.071256093 -0.00040325873 0)
(0.056298601 0.00054930029 0)
(0.060385296 -7.6670774e-05 0)
(0.057936076 7.9799398e-05 0)
(0.058788982 1.713006e-05 0)
(0.057639516 1.6307122e-05 0)
(0.058479688 -7.2747288e-07 0)
(0.057713565 7.0322648e-06 0)
(0.058275173 5.7375129e-07 0)
(0.057732165 -9.4602139e-07 0)
(0.058273272 2.0170593e-06 0)
(0.057720874 -2.1200826e-06 0)
(0.05828214 2.5029249e-06 0)
(0.057710309 -2.5049467e-06 0)
(0.05828641 2.7081215e-06 0)
(0.057706435 -2.724824e-06 0)
(0.058285749 2.8236835e-06 0)
(0.05770867 -2.8381682e-06 0)
(0.058280401 2.875544e-06 0)
(0.057715858 -2.8723767e-06 0)
(0.058270926 2.8705702e-06 0)
(0.057727021 -2.8461897e-06 0)
(0.058258015 2.8166221e-06 0)
(0.057741341 -2.7741374e-06 0)
(0.058242391 2.7252535e-06 0)
(0.057758062 -2.6671257e-06 0)
(0.058224678 2.6044489e-06 0)
(0.057776581 -2.5374244e-06 0)
(0.058205507 2.4657534e-06 0)
(0.057796321 -2.3917263e-06 0)
(0.058185327 2.3163195e-06 0)
(0.057816834 -2.2401396e-06 0)
(0.058164572 2.1636531e-06 0)
(0.057837764 -2.0884602e-06 0)
(0.058143553 2.0142525e-06 0)
(0.057858828 -1.9429615e-06 0)
(0.058122515 1.8736594e-06 0)
(0.057879822 -1.8084984e-06 0)
(0.058101622 1.7460845e-06 0)
(0.057900628 -1.6885413e-06 0)
(0.058080946 1.6355955e-06 0)
(0.057921163 -1.5868327e-06 0)
(0.058060528 1.5435693e-06 0)
(0.057941463 -1.5032559e-06 0)
(0.058040289 1.4760938e-06 0)
(0.057961445 -1.4459252e-06 0)
(0.058020112 1.3650889e-06 0)
(0.05798239 -1.7355888e-06 0)
(0.058007269 1.2264946e-06 0)
(0.045965922 0.0076674233 0)
(0.074805813 -0.00058940204 0)
(0.06163033 0.00061423984 0)
(0.064930974 -8.8225107e-05 0)
(0.062930203 8.7486092e-05 0)
(0.063993394 1.8500909e-05 0)
(0.062740751 1.8154623e-05 0)
(0.063717236 -1.2859923e-06 0)
(0.062842984 8.2691837e-06 0)
(0.063509803 5.2972318e-07 0)
(0.062868029 -1.0675728e-06 0)
(0.063508251 2.2489888e-06 0)
(0.062858079 -2.3694916e-06 0)
(0.063516544 2.7881253e-06 0)
(0.062848625 -2.7731794e-06 0)
(0.063519365 2.9936857e-06 0)
(0.062846446 -2.9985023e-06 0)
(0.063516692 3.1017002e-06 0)
(0.062850906 -3.1082852e-06 0)
(0.063508892 3.1433943e-06 0)
(0.062860719 -3.1329231e-06 0)
(0.063496641 3.1255077e-06 0)
(0.06287478 -3.0932005e-06 0)
(0.063480725 3.0562345e-06 0)
(0.062892183 -3.005561e-06 0)
(0.06346197 2.9484196e-06 0)
(0.062912073 -2.8814568e-06 0)
(0.063441066 2.8098978e-06 0)
(0.062933788 -2.7342273e-06 0)
(0.063418713 2.6537747e-06 0)
(0.06295669 -2.5711016e-06 0)
(0.063395406 2.4871593e-06 0)
(0.062980287 -2.4025886e-06 0)
(0.063371613 2.3179137e-06 0)
(0.063004202 -2.2350322e-06 0)
(0.063347669 2.1533768e-06 0)
(0.063028129 -2.075218e-06 0)
(0.063323834 1.9992737e-06 0)
(0.063051859 -1.9279699e-06 0)
(0.063300266 1.8594825e-06 0)
(0.063075279 -1.7966187e-06 0)
(0.063277038 1.7390514e-06 0)
(0.063098304 -1.68592e-06 0)
(0.063254178 1.6385526e-06 0)
(0.063121003 -1.5945158e-06 0)
(0.063231591 1.5656698e-06 0)
(0.063143292 -1.5313146e-06 0)
(0.063209108 1.4438267e-06 0)
(0.063166392 -1.8624485e-06 0)
(0.063193732 1.2771294e-06 0)
(0.051649479 0.0079954568 0)
(0.078342881 -0.0005894115 0)
(0.066638609 0.0006701499 0)
(0.069296729 -9.5793826e-05 0)
(0.067760118 9.1672899e-05 0)
(0.069022774 1.9295567e-05 0)
(0.067663377 1.9790463e-05 0)
(0.068783199 -2.0274407e-06 0)
(0.067795026 9.5158519e-06 0)
(0.068575309 4.4154713e-07 0)
(0.067827612 -1.1896581e-06 0)
(0.068573391 2.4705509e-06 0)
(0.067819568 -2.6139342e-06 0)
(0.068580607 3.0646894e-06 0)
(0.067811748 -3.0310066e-06 0)
(0.068581521 3.2671903e-06 0)
(0.067811731 -3.2584366e-06 0)
(0.068576411 3.3646521e-06 0)
(0.067818829 -3.3618154e-06 0)
(0.068565783 3.3935997e-06 0)
(0.06783162 -3.3749003e-06 0)
(0.068550424 3.36125e-06 0)
(0.06784889 -3.3206328e-06 0)
(0.068531228 3.2758729e-06 0)
(0.067869625 -3.2166853e-06 0)
(0.068509108 3.1509777e-06 0)
(0.067892897 -3.0750787e-06 0)
(0.068484825 2.9949756e-06 0)
(0.067917971 -2.9108285e-06 0)
(0.068459147 2.8215069e-06 0)
(0.067944161 -2.7303746e-06 0)
(0.068432602 2.6382691e-06 0)
(0.067970938 -2.5458516e-06 0)
(0.068405696 2.4534851e-06 0)
(0.067997897 -2.3632946e-06 0)
(0.068378779 2.2745315e-06 0)
(0.068024726 -2.1897716e-06 0)
(0.068352117 2.1074586e-06 0)
(0.068051206 -2.0304771e-06 0)
(0.068325874 1.9566547e-06 0)
(0.068077233 -1.8890057e-06 0)
(0.068300107 1.8269147e-06 0)
(0.068102736 -1.7695762e-06 0)
(0.068274826 1.7187699e-06 0)
(0.0681278 -1.6714177e-06 0)
(0.068249923 1.640752e-06 0)
(0.068152369 -1.6022864e-06 0)
(0.068225185 1.5091558e-06 0)
(0.068177562 -1.9731265e-06 0)
(0.068207212 1.3131308e-06 0)
(0.055662144 0.0083867535 0)
(0.080990277 -0.00078905241 0)
(0.071469012 0.0007222923 0)
(0.073557268 -0.00010059655 0)
(0.072419315 9.1835027e-05 0)
(0.073876533 1.9617321e-05 0)
(0.072413269 2.1236535e-05 0)
(0.073678112 -2.9266352e-06 0)
(0.072570147 1.0765875e-05 0)
(0.073471601 3.0560043e-07 0)
(0.072611316 -1.3059785e-06 0)
(0.073468356 2.6788083e-06 0)
(0.072605713 -2.849838e-06 0)
(0.07347397 3.329486e-06 0)
(0.072600042 -3.275377e-06 0)
(0.073472511 3.5257398e-06 0)
(0.072602644 -3.5016467e-06 0)
(0.073464552 3.6097008e-06 0)
(0.072612773 -3.5965881e-06 0)
(0.073450734 3.6242227e-06 0)
(0.072628883 -3.5966452e-06 0)
(0.073431964 3.576122e-06 0)
(0.072649638 -3.5266235e-06 0)
(0.07340923 3.4738051e-06 0)
(0.072673941 -3.4060728e-06 0)
(0.073383543 3.3319112e-06 0)
(0.072700774 -3.2471999e-06 0)
(0.073355721 3.1584247e-06 0)
(0.072729347 -3.0660534e-06 0)
(0.073326598 2.9684472e-06 0)
(0.072758926 -2.8693155e-06 0)
(0.073296733 2.7694015e-06 0)
(0.072788946 -2.6693765e-06 0)
(0.073266659 2.5696628e-06 0)
(0.072818992 -2.4726924e-06 0)
(0.073236742 2.3774099e-06 0)
(0.072848733 -2.286739e-06 0)
(0.073207254 2.1987216e-06 0)
(0.072877958 -2.1165095e-06 0)
(0.073178346 2.0374436e-06 0)
(0.072906573 -1.965322e-06 0)
(0.073150066 1.8994409e-06 0)
(0.072934514 -1.8384446e-06 0)
(0.073122408 1.7841555e-06 0)
(0.072961903 -1.7337263e-06 0)
(0.07309524 1.7019e-06 0)
(0.072988694 -1.6594988e-06 0)
(0.073068308 1.5616976e-06 0)
(0.073015925 -2.067544e-06 0)
(0.073047708 1.3348934e-06 0)
(0.061475756 0.0085332805 0)
(0.08391677 -0.00078391881 0)
(0.076097377 0.00076533219 0)
(0.077685126 -0.0001069475 0)
(0.07690864 8.8256494e-05 0)
(0.078553359 1.9306044e-05 0)
(0.076993203 2.2388173e-05 0)
(0.07840166 -3.9740809e-06 0)
(0.07716855 1.1998676e-05 0)
(0.078198448 1.1132821e-07 0)
(0.077219564 -1.4111241e-06 0)
(0.078192769 2.869953e-06 0)
(0.077216899 -3.0742721e-06 0)
(0.078196251 3.5791626e-06 0)
(0.077213884 -3.5035939e-06 0)
(0.078191977 3.7665027e-06 0)
(0.077219546 -3.7259855e-06 0)
(0.078180773 3.8347602e-06 0)
(0.077233085 -3.8102493e-06 0)
(0.078163428 3.8329583e-06 0)
(0.077252822 -3.795959e-06 0)
(0.078140963 3.76827e-06 0)
(0.077277323 -3.7098672e-06 0)
(0.078114468 3.6489007e-06 0)
(0.077305388 -3.5726032e-06 0)
(0.078085034 3.4899442e-06 0)
(0.077335939 -3.3965901e-06 0)
(0.078053542 3.2997938e-06 0)
(0.07736812 -3.1996117e-06 0)
(0.078020882 3.0938199e-06 0)
(0.077401161 -2.9870813e-06 0)
(0.077987639 2.8799505e-06 0)
(0.077434471 -2.7730736e-06 0)
(0.077954371 2.6667015e-06 0)
(0.077467615 -2.5634837e-06 0)
(0.077921451 2.4621564e-06 0)
(0.077500264 -2.3659421e-06 0)
(0.077889149 2.2725863e-06 0)
(0.077532208 -2.1857174e-06 0)
(0.077857612 2.1023034e-06 0)
(0.077563368 -2.026348e-06 0)
(0.077826869 1.9568095e-06 0)
(0.077593701 -1.8923531e-06 0)
(0.077796885 1.835362e-06 0)
(0.07762335 -1.7823423e-06 0)
(0.077767515 1.7491596e-06 0)
(0.077652307 -1.7030503e-06 0)
(0.077738466 1.6015935e-06 0)
(0.077681496 -2.1453659e-06 0)
(0.077715232 1.3442453e-06 0)
(0.065911268 0.0089150041 0)
(0.08614374 -0.00096983792 0)
(0.080662941 0.00079903037 0)
(0.081692145 -0.00011019979 0)
(0.081223282 8.151701e-05 0)
(0.083053576 1.8429395e-05 0)
(0.081405804 2.3225531e-05 0)
(0.082953508 -5.1126896e-06 0)
(0.081590627 1.3204011e-05 0)
(0.082755586 -1.4934278e-07 0)
(0.081652818 -1.497546e-06 0)
(0.082746241 3.0412642e-06 0)
(0.081653545 -3.2835978e-06 0)
(0.082747058 3.810752e-06 0)
(0.081653662 -3.7127397e-06 0)
(0.08273953 3.9867949e-06 0)
(0.081662802 -3.9286425e-06 0)
(0.082724715 4.0372037e-06 0)
(0.081680093 -4.0009474e-06 0)
(0.082703533 4.0182333e-06 0)
(0.081703745 -3.9715522e-06 0)
(0.082677126 3.9363675e-06 0)
(0.081732209 -3.8688192e-06 0)
(0.082646669 3.7997646e-06 0)
(0.081764214 -3.715179e-06 0)
(0.082613346 3.6244404e-06 0)
(0.081798602 -3.5228519e-06 0)
(0.082578081 3.4181223e-06 0)
(0.081834477 -3.3106162e-06 0)
(0.082541819 3.1974938e-06 0)
(0.081871029 -3.0838239e-06 0)
(0.082505166 2.9700068e-06 0)
(0.081907641 -2.8566637e-06 0)
(0.082468698 2.7441254e-06 0)
(0.081943879 -2.6353371e-06 0)
(0.082432793 2.5287018e-06 0)
(0.081979406 -2.4277777e-06 0)
(0.082397717 2.3298867e-06 0)
(0.082014026 -2.2388974e-06 0)
(0.082363598 2.1512583e-06 0)
(0.082047679 -2.0718391e-06 0)
(0.082330448 1.9994791e-06 0)
(0.082080333 -1.9321936e-06 0)
(0.08229821 1.8724592e-06 0)
(0.082112176 -1.817116e-06 0)
(0.082266715 1.7832905e-06 0)
(0.082143216 -1.7338048e-06 0)
(0.082235631 1.6296369e-06 0)
(0.082174292 -2.206888e-06 0)
(0.082209786 1.3415982e-06 0)
(0.071858988 0.0089202679 0)
(0.088772468 -0.0009627564 0)
(0.085095197 0.00082321755 0)
(0.085566221 -0.00011481541 0)
(0.085368085 7.1261365e-05 0)
(0.087376822 1.6768261e-05 0)
(0.085652665 2.3690806e-05 0)
(0.08733278 -6.2868637e-06 0)
(0.08583706 1.4368296e-05 0)
(0.087142587 -4.8531849e-07 0)
(0.085911537 -1.5575269e-06 0)
(0.087128342 3.1897684e-06 0)
(0.085916061 -3.4748409e-06 0)
(0.087125982 4.0212007e-06 0)
(0.085919767 -3.9003617e-06 0)
(0.087114807 4.1840817e-06 0)
(0.085932771 -4.1078485e-06 0)
(0.087096041 4.2153436e-06 0)
(0.085954135 -4.1666548e-06 0)
(0.087070749 4.1780618e-06 0)
(0.085981944 -4.1215588e-06 0)
(0.087040179 4.0789406e-06 0)
(0.086014569 -4.0025868e-06 0)
(0.087005603 3.9256641e-06 0)
(0.086050643 -3.8330732e-06 0)
(0.086968271 3.7344747e-06 0)
(0.086088967 -3.6250798e-06 0)
(0.086929161 3.5133626e-06 0)
(0.086128586 -3.3991697e-06 0)
(0.08688926 3.2789861e-06 0)
(0.086168668 -3.1589615e-06 0)
(0.086849191 3.0392468e-06 0)
(0.086208581 -2.9203766e-06 0)
(0.086809541 2.8025258e-06 0)
(0.086247882 -2.6888276e-06 0)
(0.086770688 2.5774686e-06 0)
(0.086286245 -2.4722791e-06 0)
(0.086732886 2.3702868e-06 0)
(0.086323481 -2.2758344e-06 0)
(0.086696254 2.1849968e-06 0)
(0.086359552 -2.1028308e-06 0)
(0.086660776 2.0278009e-06 0)
(0.086394457 -1.9579036e-06 0)
(0.086626362 1.8962995e-06 0)
(0.086428404 -1.839176e-06 0)
(0.086592823 1.8044497e-06 0)
(0.086461452 -1.7519351e-06 0)
(0.086559802 1.6460033e-06 0)
(0.086494318 -2.2520568e-06 0)
(0.086531385 1.3289666e-06 0)
(0.076547597 0.0092112634 0)
(0.090749193 -0.0011419335 0)
(0.089411859 0.00083880097 0)
(0.089396718 -0.00011537986 0)
(0.089356324 5.8470471e-05 0)
(0.091527481 1.4489685e-05 0)
(0.089734984 2.3788626e-05 0)
(0.091538132 -7.4298891e-06 0)
(0.089909152 1.5476315e-05 0)
(0.091358846 -8.9984491e-07 0)
(0.089996159 -1.5828431e-06 0)
(0.091338624 3.3135047e-06 0)
(0.090004864 -3.6445123e-06 0)
(0.091332612 4.2078857e-06 0)
(0.090012584 -4.0639063e-06 0)
(0.091317421 4.3560442e-06 0)
(0.090029808 -4.2611401e-06 0)
(0.091294409 4.3668985e-06 0)
(0.090055517 -4.305972e-06 0)
(0.091264766 4.3113433e-06 0)
(0.090087702 -4.2451563e-06 0)
(0.091229856 4.1950849e-06 0)
(0.090124634 -4.1100152e-06 0)
(0.091191028 4.0256028e-06 0)
(0.090164892 -3.9255724e-06 0)
(0.09114961 3.8198195e-06 0)
(0.090207208 -3.7032905e-06 0)
(0.091106612 3.5848684e-06 0)
(0.090250599 -3.4646832e-06 0)
(0.091063062 3.3385355e-06 0)
(0.090294208 -3.2130171e-06 0)
(0.091019594 3.0880804e-06 0)
(0.090337388 -2.9641881e-06 0)
(0.090976799 2.8416371e-06 0)
(0.090379708 -2.723823e-06 0)
(0.090935054 2.6085949e-06 0)
(0.090420839 -2.5000864e-06 0)
(0.090894601 2.3949067e-06 0)
(0.090460617 -2.2975923e-06 0)
(0.090855528 2.2036888e-06 0)
(0.09049903 -2.1191811e-06 0)
(0.090817803 2.0423917e-06 0)
(0.090536089 -1.9705748e-06 0)
(0.090781305 1.9070498e-06 0)
(0.090572055 -1.8484189e-06 0)
(0.09074582 1.8135479e-06 0)
(0.09060701 -1.7584609e-06 0)
(0.090710956 1.6516307e-06 0)
(0.090641585 -2.2814647e-06 0)
(0.090680032 1.3066587e-06 0)
(0.08252164 0.0091609505 0)
(0.093260611 -0.0011089853 0)
(0.093446317 0.00084712851 0)
(0.09321943 -0.00011469249 0)
(0.093215566 4.4710084e-05 0)
(0.095511479 1.1830139e-05 0)
(0.093653689 2.3615952e-05 0)
(0.095568205 -8.4682192e-06 0)
(0.093808996 1.6510578e-05 0)
(0.095403724 -1.3881049e-06 0)
(0.093907194 -1.566323e-06 0)
(0.09537667 3.4106291e-06 0)
(0.093920386 -3.7897223e-06 0)
(0.095366552 4.3683281e-06 0)
(0.093932499 -4.2012898e-06 0)
(0.095347026 4.5006275e-06 0)
(0.093954252 -4.3872468e-06 0)
(0.095319506 4.4907078e-06 0)
(0.09398455 -4.4172985e-06 0)
(0.095285316 4.416501e-06 0)
(0.094021277 -4.3408894e-06 0)
(0.09524592 4.2837731e-06 0)
(0.094062642 -4.1906691e-06 0)
(0.095202752 4.0992743e-06 0)
(0.094107144 -3.9923676e-06 0)
(0.095157193 3.8799199e-06 0)
(0.094153488 -3.7569134e-06 0)
(0.095110294 3.6329904e-06 0)
(0.094200645 -3.5076401e-06 0)
(0.095063111 3.3759383e-06 0)
(0.094247752 -3.2456533e-06 0)
(0.095016284 3.1164459e-06 0)
(0.094294156 -2.9886176e-06 0)
(0.094970405 2.8623494e-06 0)
(0.094339424 -2.7411763e-06 0)
(0.094925839 2.6227419e-06 0)
(0.094383248 -2.5114072e-06 0)
(0.094882812 2.4035131e-06 0)
(0.094425483 -2.3040491e-06 0)
(0.094841395 2.2082083e-06 0)
(0.094466138 -2.1221273e-06 0)
(0.094801521 2.0437316e-06 0)
(0.094505264 -1.9702149e-06 0)
(0.094763035 1.9057105e-06 0)
(0.094543142 -1.8461513e-06 0)
(0.0947257 1.8108143e-06 0)
(0.094579915 -1.7535822e-06 0)
(0.094689103 1.6466918e-06 0)
(0.094616092 -2.2952683e-06 0)
(0.094655745 1.2767673e-06 0)
(0.087066722 0.0093112845 0)
(0.095077981 -0.0012890081 0)
(0.097191202 0.00083640697 0)
(0.097045878 -0.00011227406 0)
(0.096941102 3.062845e-05 0)
(0.099328727 8.9706785e-06 0)
(0.097407518 2.3205484e-05 0)
(0.099421395 -9.3624578e-06 0)
(0.097538394 1.7436609e-05 0)
(0.099276311 -1.9395323e-06 0)
(0.097645015 -1.5052225e-06 0)
(0.099242025 3.4787702e-06 0)
(0.097663035 -3.9078099e-06 0)
(0.099227404 4.5002347e-06 0)
(0.097679877 -4.3105461e-06 0)
(0.099203259 4.61599e-06 0)
(0.09770643 -4.4841761e-06 0)
(0.099171019 4.5849325e-06 0)
(0.097741505 -4.4997687e-06 0)
(0.099132123 4.4929743e-06 0)
(0.097782914 -4.4084518e-06 0)
(0.099088143 4.3445579e-06 0)
(0.097828783 -4.243816e-06 0)
(0.099040574 4.1461058e-06 0)
(0.097877575 -4.033139e-06 0)
(0.098990862 3.9149537e-06 0)
(0.097927942 -3.7863691e-06 0)
(0.098940076 3.6573869e-06 0)
(0.097978841 -3.5277347e-06 0)
(0.0988893 3.3917776e-06 0)
(0.098029395 -3.2577318e-06 0)
(0.098839174 3.1250349e-06 0)
(0.098078946 -2.9938618e-06 0)
(0.098790286 2.8645741e-06 0)
(0.098127083 -2.7409171e-06 0)
(0.098742988 2.6202134e-06 0)
(0.098173507 -2.5070777e-06 0)
(0.098697487 2.3974627e-06 0)
(0.098218099 -2.2964883e-06 0)
(0.098653819 2.1988292e-06 0)
(0.0982609 -2.111592e-06 0)
(0.098611896 2.0325461e-06 0)
(0.098301981 -1.9580628e-06 0)
(0.098571528 1.8925051e-06 0)
(0.098341674 -1.8322761e-06 0)
(0.098532451 1.7972601e-06 0)
(0.098380153 -1.7384269e-06 0)
(0.098494223 1.6322378e-06 0)
(0.098417846 -2.2942816e-06 0)
(0.098458524 1.2394126e-06 0)
(0.092764517 0.0091702344 0)
(0.097619594 -0.0012320625 0)
(0.10069583 0.00082308289 0)
(0.10080027 -0.00011115016 0)
(0.1005227 1.6812407e-05 0)
(0.10297518 5.9362006e-06 0)
(0.10099489 2.2578136e-05 0)
(0.10309699 -1.0092226e-05 0)
(0.10109852 1.8225157e-05 0)
(0.10297573 -2.5343393e-06 0)
(0.10120997 -1.3986206e-06 0)