/*--------------------------------*- C++ -*----------------------------------*\
| =========                 |                                                 |
| \\      /  F ield         | OpenFOAM: The Open Source CFD Toolbox           |
|  \\    /   O peration     | Version:  2312                                  |
|   \\  /    A nd           | Website:  www.openfoam.com                      |
|    \\/     M anipulation  |                                                 |
\*---------------------------------------------------------------------------*/
FoamFile
{
    version     2.0;
    format      ascii;
    arch        "LSB;label=32;scalar=64";
    class       volSymmTensorField;
    location    "8";
    object      sigma;
}
// * * * * * * * * * * * * * * * * * * * * * * * * * * * * * * * * * * * * * //

dimensions      [0 2 -2 0 0 0 0];

internalField   nonuniform List<symmTensor> 
4000
(
(-3.8050281 -1.7597471 0 -0.7596799 0 0)
(-13.140627 -0.71787771 0 -0.012345063 0 0)
(-4.2893105 -0.37915533 0 -0.0024256878 0 0)
(-4.7238818 -0.39526569 0 0.00026903362 0 0)
(-4.2627555 -0.37764598 0 -0.00020977541 0 0)
(-4.159053 -0.37220122 0 2.5719986e-05 0 0)
(-4.1916958 -0.37414164 0 -6.3250367e-05 0 0)
(-4.0643841 -0.36794375 0 1.2911824e-05 0 0)
(-4.1278857 -0.37112392 0 -3.2841165e-05 0 0)
(-4.0519903 -0.36737207 0 2.2046807e-05 0 0)
(-4.1088951 -0.37022807 0 -2.5181486e-05 0 0)
(-4.0546519 -0.36750496 0 2.2588075e-05 0 0)
(-4.1024847 -0.3699208 0 -2.2160098e-05 0 0)
(-4.0578958 -0.36766576 0 2.0819935e-05 0 0)
(-4.0991556 -0.36975687 0 -1.9862399e-05 0 0)
(-4.0603888 -0.36779125 0 1.8720081e-05 0 0)
(-4.0966919 -0.36963367 0 -1.775304e-05 0 0)
(-4.0625001 -0.36789802 0 1.6742916e-05 0 0)
(-4.0946064 -0.36952893 0 -1.5847638e-05 0 0)
(-4.0643942 -0.36799368 0 1.4961104e-05 0 0)
(-4.0927692 -0.3694366 0 -1.4153994e-05 0 0)
(-4.0661037 -0.36807987 0 1.3374083e-05 0 0)
(-4.0911306 -0.36935427 0 -1.2655207e-05 0 0)
(-4.0676433 -0.3681574 0 1.1968588e-05 0 0)
(-4.0896632 -0.36928057 0 -1.1332861e-05 0 0)
(-4.0690278 -0.36822704 0 1.0729532e-05 0 0)
(-4.0883465 -0.3692145 0 -1.0170514e-05 0 0)
(-4.0702728 -0.36828959 0 9.6423018e-06 0 0)
(-4.0871632 -0.36915519 0 -9.1534252e-06 0 0)
(-4.0713936 -0.3683458 0 8.6932266e-06 0 0)
(-4.0860976 -0.36910187 0 -8.2682552e-06 0 0)
(-4.0724046 -0.36839638 0 7.8697612e-06 0 0)
(-4.0851353 -0.36905383 0 -7.5029769e-06 0 0)
(-4.0733195 -0.36844203 0 7.1605881e-06 0 0)
(-4.0842629 -0.36901041 0 -6.8468745e-06 0 0)
(-4.0741511 -0.36848336 0 6.5556766e-06 0 0)
(-4.083468 -0.36897101 0 -6.2905534e-06 0 0)
(-4.0749111 -0.36852096 0 6.0463073e-06 0 0)
(-4.0827392 -0.36893506 0 -5.8259493e-06 0 0)
(-4.0756105 -0.36855538 0 5.6250831e-06 0 0)
(-4.082066 -0.36890205 0 -5.4463416e-06 0 0)
(-4.0762594 -0.3685871 0 5.2860415e-06 0 0)
(-4.0814386 -0.3688715 0 -5.1462185e-06 0 0)
(-4.076868 -0.36861662 0 5.0252242e-06 0 0)
(-4.0808497 -0.36884305 0 -4.9218475e-06 0 0)
(-4.0774479 -0.3686445 0 4.8368622e-06 0 0)
(-4.0802846 -0.36881614 0 -4.791381e-06 0 0)
(-4.0779521 -0.36866892 0 4.6680872e-06 0 0)
(-4.0795206 -0.36878142 0 -4.8925513e-06 0 0)
(-4.0777898 -0.36866152 0 4.7275536e-06 0 0)
(-3.3929402 -1.6578985 0 -0.74462271 0 0)
(-10.741885 -0.69933495 0 -0.027232365 0 0)
(-5.0646749 -0.43085452 0 -0.0071990942 0 0)
(-4.3766988 -0.37877136 0 0.0002628159 0 0)
(-3.9619139 -0.36551664 0 -0.00052815923 0 0)
(-3.8370559 -0.35755569 0 4.2451986e-06 0 0)
(-3.8796148 -0.36028559 0 -0.00011945944 0 0)
(-3.7714497 -0.35447333 0 -2.1043516e-05 0 0)
(-3.8223954 -0.35722663 0 -4.4549819e-05 0 0)
(-3.7582303 -0.35376279 0 1.524732e-05 0 0)
(-3.8049865 -0.35632931 0 -2.7677897e-05 0 0)
(-3.7595206 -0.35382596 0 2.2682107e-05 0 0)
(-3.7994841 -0.35604694 0 -2.3731728e-05 0 0)
(-3.7620622 -0.35396193 0 2.214558e-05 0 0)
(-3.7967298 -0.35590028 0 -2.1426001e-05 0 0)
(-3.7641234 -0.35407571 0 2.0130551e-05 0 0)
(-3.7946655 -0.35578717 0 -1.919334e-05 0 0)
(-3.7658918 -0.35417439 0 1.8051912e-05 0 0)
(-3.7929021 -0.35568966 0 -1.7124908e-05 0 0)
(-3.7674851 -0.35426331 0 1.6143909e-05 0 0)
(-3.7913469 -0.3556035 0 -1.5286134e-05 0 0)
(-3.7689246 -0.35434355 0 1.4434651e-05 0 0)
(-3.789961 -0.35552671 0 -1.3662954e-05 0 0)
(-3.770221 -0.35441571 0 1.291821e-05 0 0)
(-3.788721 -0.35545802 0 -1.2233254e-05 0 0)
(-3.7713865 -0.3544805 0 1.1580878e-05 0 0)
(-3.7876092 -0.35539649 0 -1.0977874e-05 0 0)
(-3.7724342 -0.35453865 0 1.0407636e-05 0 0)
(-3.7866105 -0.3553413 0 -9.8802121e-06 0 0)
(-3.7733771 -0.35459088 0 9.3838852e-06 0 0)
(-3.7857113 -0.35529171 0 -8.9255195e-06 0 0)
(-3.7742278 -0.35463787 0 8.4960604e-06 0 0)
(-3.7848993 -0.35524704 0 -8.1006344e-06 0 0)
(-3.7749979 -0.35468026 0 7.7319067e-06 0 0)
(-3.7841629 -0.35520668 0 -7.3939197e-06 0 0)
(-3.7756981 -0.35471866 0 7.0806013e-06 0 0)
(-3.7834917 -0.35517004 0 -6.7952543e-06 0 0)
(-3.7763387 -0.3547536 0 6.5328098e-06 0 0)
(-3.7828759 -0.35513661 0 -6.2960602e-06 0 0)
(-3.7769288 -0.35478559 0 6.0807266e-06 0 0)
(-3.7823064 -0.35510589 0 -5.8893799e-06 0 0)
(-3.777477 -0.35481509 0 5.7183618e-06 0 0)
(-3.7817749 -0.35507743 0 -5.5695362e-06 0 0)
(-3.7779919 -0.35484255 0 5.4433319e-06 0 0)
(-3.7812752 -0.35505091 0 -5.3322765e-06 0 0)
(-3.7784847 -0.35486856 0 5.2499541e-06 0 0)
(-3.7808014 -0.35502625 0 -5.2225401e-06 0 0)
(-3.7789388 -0.35489307 0 5.0053998e-06 0 0)
(-3.7802145 -0.35499903 0 -5.6562473e-06 0 0)
(-3.7789209 -0.3548924 0 5.0315025e-06 0 0)
(-3.102182 -1.5162799 0 -0.657686 0 0)
(-8.9085686 -0.63603816 0 -0.030044287 0 0)
(-5.0196546 -0.44394168 0 -0.01083753 0 0)
(-4.2568765 -0.37329904 0 1.6986236e-05 0 0)
(-3.7729849 -0.35743321 0 -0.00079001312 0 0)
(-3.6315912 -0.34783402 0 -1.3598959e-05 0 0)
(-3.6728754 -0.35077466 0 -0.00015322349 0 0)
(-3.5791169 -0.34536871 0 -5.0208304e-05 0 0)
(-3.6243854 -0.34791609 0 -5.0501713e-05 0 0)
(-3.5673064 -0.3446411 0 7.1586124e-06 0 0)
(-3.6084532 -0.34703614 0 -2.7037021e-05 0 0)
(-3.5680624 -0.3446707 0 2.0275481e-05 0 0)
(-3.6034469 -0.34676732 0 -2.2495181e-05 0 0)
(-3.5702324 -0.34479356 0 2.0857552e-05 0 0)
(-3.6010059 -0.34663062 0 -2.0393002e-05 0 0)
(-3.572054 -0.34490073 0 1.9103972e-05 0 0)
(-3.5991788 -0.34652407 0 -1.8293168e-05 0 0)
(-3.5736264 -0.34499438 0 1.7159697e-05 0 0)
(-3.5976123 -0.34643153 0 -1.6311834e-05 0 0)
(-3.5750442 -0.34507892 0 1.5355531e-05 0 0)
(-3.5962299 -0.34634966 0 -1.4552216e-05 0 0)
(-3.5763256 -0.34515523 0 1.3732341e-05 0 0)
(-3.5949986 -0.3462767 0 -1.300267e-05 0 0)
(-3.5774794 -0.34522387 0 1.2289874e-05 0 0)
(-3.5938975 -0.34621148 0 -1.1639784e-05 0 0)
(-3.5785164 -0.34528547 0 1.1017131e-05 0 0)
(-3.5929107 -0.34615307 0 -1.0444027e-05 0 0)
(-3.5794482 -0.34534073 0 9.9005058e-06 0 0)
(-3.5920247 -0.3461007 0 -9.3990072e-06 0 0)
(-3.5802866 -0.34539036 0 8.9262764e-06 0 0)
(-3.5912271 -0.34605365 0 -8.4904057e-06 0 0)
(-3.5810428 -0.345435 0 8.081551e-06 0 0)
(-3.5905069 -0.34601126 0 -7.705565e-06 0 0)
(-3.5817273 -0.34547529 0 7.3546599e-06 0 0)
(-3.5898537 -0.34597295 0 -7.0333667e-06 0 0)
(-3.5823499 -0.34551178 0 6.7353258e-06 0 0)
(-3.5892582 -0.34593817 0 -6.4642075e-06 0 0)
(-3.5829193 -0.345545 0 6.2147445e-06 0 0)
(-3.5887117 -0.34590641 0 -5.9900405e-06 0 0)
(-3.5834441 -0.34557543 0 5.7856535e-06 0 0)
(-3.5882061 -0.3458772 0 -5.6045168e-06 0 0)
(-3.5839317 -0.34560352 0 5.4427247e-06 0 0)
(-3.5877339 -0.34585013 0 -5.3025727e-06 0 0)
(-3.5843897 -0.34562967 0 5.1852747e-06 0 0)
(-3.5872895 -0.34582484 0 -5.0797512e-06 0 0)
(-3.5848286 -0.34565446 0 5.0106582e-06 0 0)
(-3.586869 -0.34580143 0 -4.9930878e-06 0 0)
(-3.5852405 -0.34567846 0 4.7490288e-06 0 0)
(-3.5863634 -0.34577756 0 -5.6287912e-06 0 0)
(-3.5852843 -0.34567933 0 5.1464682e-06 0 0)
(-2.9000137 -1.4235366 0 -0.60899046 0 0)
(-7.9148051 -0.61158942 0 -0.034600129 0 0)
(-4.9273237 -0.45511569 0 -0.014656445 0 0)
(-4.1473567 -0.36807622 0 -0.00020123641 0 0)
(-3.6050631 -0.35012509 0 -0.0011200181 0 0)
(-3.4368834 -0.3383027 0 -3.7895149e-05 0 0)
(-3.472965 -0.34127115 0 -0.00018780744 0 0)
(-3.3909056 -0.33624645 0 -8.3189241e-05 0 0)
(-3.4321091 -0.33860749 0 -5.4187069e-05 0 0)
(-3.3808965 -0.33551899 0 -3.6541447e-06 0 0)
(-3.4176183 -0.3377481 0 -2.4273187e-05 0 0)
(-3.3812814 -0.33551561 0 1.5816488e-05 0 0)
(-3.4130068 -0.33749084 0 -1.93323e-05 0 0)
(-3.3831332 -0.33562517 0 1.7780591e-05 0 0)
(-3.4108039 -0.33736314 0 -1.7655997e-05 0 0)
(-3.3847566 -0.33572582 0 1.6474898e-05 0 0)
(-3.4091618 -0.33726273 0 -1.5876281e-05 0 0)
(-3.3861703 -0.33581453 0 1.4833666e-05 0 0)
(-3.40775 -0.33717494 0 -1.4143534e-05 0 0)
(-3.387446 -0.3358947 0 1.3285771e-05 0 0)
(-3.4065034 -0.33709718 0 -1.2606359e-05 0 0)
(-3.3885987 -0.33596708 0 1.1884283e-05 0 0)
(-3.4053937 -0.33702792 0 -1.1257886e-05 0 0)
(-3.3896361 -0.33603216 0 1.063589e-05 0 0)
(-3.4044021 -0.33696604 0 -1.0074661e-05 0 0)
(-3.3905681 -0.33609054 0 9.5336648e-06 0 0)
(-3.4035141 -0.33691065 0 -9.0379174e-06 0 0)
(-3.3914052 -0.33614291 0 8.5666428e-06 0 0)
(-3.4027171 -0.33686099 0 -8.1325815e-06 0 0)
(-3.3921582 -0.33618993 0 7.723112e-06 0 0)
(-3.4020001 -0.33681639 0 -7.3458241e-06 0 0)
(-3.3928371 -0.33623223 0 6.991887e-06 0 0)
(-3.4013528 -0.3367762 0 -6.6664695e-06 0 0)
(-3.3934515 -0.33627041 0 6.362815e-06 0 0)
(-3.4007659 -0.33673987 0 -6.084792e-06 0 0)
(-3.3940102 -0.33630501 0 5.8269766e-06 0 0)
(-3.400231 -0.33670687 0 -5.5924558e-06 0 0)
(-3.3945212 -0.33633652 0 5.3767765e-06 0 0)
(-3.3997403 -0.33667671 0 -5.1825494e-06 0 0)
(-3.3949919 -0.33636542 0 5.0060107e-06 0 0)
(-3.3992864 -0.33664896 0 -4.8497512e-06 0 0)
(-3.3954294 -0.33639211 0 4.7103015e-06 0 0)
(-3.3988626 -0.33662321 0 -4.5897355e-06 0 0)
(-3.3958401 -0.33641698 0 4.4905798e-06 0 0)
(-3.3984636 -0.33659911 0 -4.3972909e-06 0 0)
(-3.3962337 -0.33644057 0 4.3460374e-06 0 0)
(-3.3980876 -0.33657688 0 -4.3403702e-06 0 0)
(-3.3966098 -0.3364641 0 4.054728e-06 0 0)
(-3.3976524 -0.33655614 0 -5.1841765e-06 0 0)
(-3.3967091 -0.33646687 0 4.7365237e-06 0 0)
(-2.8640413 -1.3846674 0 -0.57745118 0 0)
(-6.8904674 -0.57142572 0 -0.036292961 0 0)
(-4.7175701 -0.45831839 0 -0.017757458 0 0)
(-4.0214687 -0.36265883 0 -0.0004716989 0 0)
(-3.4498262 -0.34315139 0 -0.0014814006 0 0)
(-3.2528866 -0.32893772 0 -6.1610538e-05 0 0)
(-3.2791054 -0.33171668 0 -0.00021775843 0 0)
(-3.2068638 -0.32705841 0 -0.00011077675 0 0)
(-3.2450408 -0.32928476 0 -5.6557681e-05 0 0)
(-3.1990222 -0.32637821 0 -1.3305399e-05 0 0)
(-3.2321567 -0.32846467 0 -2.1614438e-05 0 0)
(-3.1992785 -0.32635297 0 1.1765233e-05 0 0)
(-3.227931 -0.32821939 0 -1.6339599e-05 0 0)
(-3.2008799 -0.32645154 0 1.4927592e-05 0 0)
(-3.2259267 -0.32809965 0 -1.5065899e-05 0 0)
(-3.2023364 -0.32654656 0 1.4004639e-05 0 0)
(-3.2244402 -0.3280048 0 -1.3590518e-05 0 0)
(-3.2036171 -0.32663091 0 1.2638567e-05 0 0)
(-3.2231604 -0.32792137 0 -1.2094094e-05 0 0)
(-3.2047733 -0.32670714 0 1.1330879e-05 0 0)
(-3.2220299 -0.32784742 0 -1.0767887e-05 0 0)
(-3.2058173 -0.32677593 0 1.0138808e-05 0 0)
(-3.2210241 -0.32778158 0 -9.6099049e-06 0 0)
(-3.2067564 -0.32683775 0 9.0739816e-06 0 0)
(-3.220126 -0.3277228 0 -8.596747e-06 0 0)
(-3.2075996 -0.3268932 0 8.1330172e-06 0 0)
(-3.2193223 -0.32767021 0 -7.7103987e-06 0 0)
(-3.2083566 -0.32694291 0 7.3073909e-06 0 0)
(-3.2186014 -0.32762307 0 -6.9370582e-06 0 0)
(-3.2090372 -0.32698754 0 6.5872932e-06 0 0)
(-3.2179531 -0.32758073 0 -6.2653333e-06 0 0)
(-3.2096508 -0.32702769 0 5.9631662e-06 0 0)
(-3.2173681 -0.32754259 0 -5.685468e-06 0 0)
(-3.2102058 -0.32706394 0 5.4262985e-06 0 0)
(-3.2168379 -0.3275081 0 -5.1890566e-06 0 0)
(-3.2107103 -0.32709679 0 4.969046e-06 0 0)
(-3.2163548 -0.32747675 0 -4.7689437e-06 0 0)
(-3.2111716 -0.32712673 0 4.5849234e-06 0 0)
(-3.2159117 -0.32744809 0 -4.4192417e-06 0 0)
(-3.2115964 -0.3271542 0 4.2686567e-06 0 0)
(-3.2155022 -0.32742171 0 -4.1354973e-06 0 0)
(-3.211991 -0.32717959 0 4.0166026e-06 0 0)
(-3.2151199 -0.3273972 0 -3.9139091e-06 0 0)
(-3.2123612 -0.32720326 0 3.83078e-06 0 0)
(-3.2147601 -0.32737423 0 -3.7480123e-06 0 0)
(-3.2127157 -0.32722571 0 3.7119895e-06 0 0)
(-3.214422 -0.32735308 0 -3.710867e-06 0 0)
(-3.2130587 -0.32724862 0 3.3925005e-06 0 0)
(-3.214044 -0.32733478 0 -4.7022106e-06 0 0)
(-3.2131958 -0.32725297 0 4.2898382e-06 0 0)
(-2.7515623 -1.2867524 0 -0.50936465 0 0)
(-5.9131557 -0.53814224 0 -0.037405222 0 0)
(-4.4466829 -0.4566998 0 -0.020088033 0 0)
(-3.8421114 -0.35609095 0 -0.00097796912 0 0)
(-3.2993024 -0.33676789 0 -0.0019482665 0 0)
(-3.081094 -0.31994531 0 -0.00010255231 0 0)
(-3.0935071 -0.32225097 0 -0.00025036698 0 0)
(-3.0278632 -0.31783992 0 -0.00013386584 0 0)
(-3.063362 -0.31995699 0 -5.822223e-05 0 0)
(-3.0219608 -0.31722661 0 -2.1435392e-05 0 0)
(-3.0519892 -0.31918494 0 -1.9468769e-05 0 0)
(-3.0221846 -0.31718619 0 8.4492299e-06 0 0)
(-3.0481302 -0.31895154 0 -1.387498e-05 0 0)
(-3.0235755 -0.31727505 0 1.2621421e-05 0 0)
(-3.0462973 -0.3188389 0 -1.2940301e-05 0 0)
(-3.0248828 -0.31736486 0 1.199163e-05 0 0)
(-3.0449462 -0.31874917 0 -1.1720052e-05 0 0)
(-3.0260451 -0.31744514 0 1.0843075e-05 0 0)
(-3.0437832 -0.31866986 0 -1.0417789e-05 0 0)
(-3.0270954 -0.31751767 0 9.7313358e-06 0 0)
(-3.0427557 -0.31859951 0 -9.2641783e-06 0 0)
(-3.0280431 -0.31758307 0 8.7110802e-06 0 0)
(-3.0418422 -0.31853692 0 -8.2621573e-06 0 0)
(-3.028895 -0.31764181 0 7.7968338e-06 0 0)
(-3.0410271 -0.31848106 0 -7.3883103e-06 0 0)
(-3.0296594 -0.31769446 0 6.9880319e-06 0 0)
(-3.040298 -0.31843112 0 -6.6251399e-06 0 0)
(-3.0303455 -0.31774166 0 6.2781894e-06 0 0)
(-3.0396444 -0.31838636 0 -5.9598575e-06 0 0)
(-3.0309621 -0.31778403 0 5.659093e-06 0 0)
(-3.0390569 -0.31834617 0 -5.3822512e-06 0 0)
(-3.0315178 -0.31782215 0 5.1225444e-06 0 0)
(-3.0385269 -0.31830996 0 -4.8837383e-06 0 0)
(-3.0320203 -0.31785656 0 4.6610262e-06 0 0)
(-3.0380467 -0.3182772 0 -4.4569989e-06 0 0)
(-3.032477 -0.31788776 0 4.2679406e-06 0 0)
(-3.0376093 -0.31824743 0 -4.0958392e-06 0 0)
(-3.0328944 -0.31791621 0 3.9376998e-06 0 0)
(-3.0372084 -0.31822019 0 -3.7951901e-06 0 0)
(-3.0332787 -0.31794232 0 3.6657605e-06 0 0)
(-3.0368378 -0.31819511 0 -3.5512666e-06 0 0)
(-3.0336355 -0.31796646 0 3.4490046e-06 0 0)
(-3.0364922 -0.3181718 0 -3.3606248e-06 0 0)
(-3.0339701 -0.31798898 0 3.2901693e-06 0 0)
(-3.0361669 -0.31814991 0 -3.2154394e-06 0 0)
(-3.0342901 -0.31801034 0 3.1915622e-06 0 0)
(-3.0358621 -0.31812977 0 -3.1907684e-06 0 0)
(-3.0346029 -0.31803255 0 2.8459625e-06 0 0)
(-3.0355328 -0.3181135 0 -4.2821636e-06 0 0)
(-3.0347659 -0.31803832 0 3.8861314e-06 0 0)
(-2.7238015 -1.2496828 0 -0.48582156 0 0)
(-4.9122528 -0.50586439 0 -0.040074695 0 0)
(-4.1580057 -0.45210253 0 -0.021360238 0 0)
(-3.5758465 -0.3466325 0 -0.0018778631 0 0)
(-3.1107864 -0.32873345 0 -0.0024095842 0 0)
(-2.9070718 -0.31071877 0 -0.00013910763 0 0)
(-2.9120454 -0.31271043 0 -0.00027971748 0 0)
(-2.853374 -0.30857952 0 -0.00015096538 0 0)
(-2.8866676 -0.31061103 0 -5.9034367e-05 0 0)
(-2.8496309 -0.30806106 0 -2.8176838e-05 0 0)
(-2.8769959 -0.30990495 0 -1.7644256e-05 0 0)
(-2.8500066 -0.30801552 0 5.6764083e-06 0 0)
(-2.8735465 -0.30968551 0 -1.1778604e-05 0 0)
(-2.8512475 -0.30809661 0 1.0704612e-05 0 0)
(-2.8718784 -0.30957974 0 -1.1139001e-05 0 0)
(-2.8524251 -0.30818165 0 1.0302655e-05 0 0)
(-2.8706495 -0.3094949 0 -1.0140648e-05 0 0)
(-2.8534812 -0.30825806 0 9.3298828e-06 0 0)
(-2.8695919 -0.30941957 0 -9.0041452e-06 0 0)
(-2.8544361 -0.30832701 0 8.3824937e-06 0 0)
(-2.8686577 -0.30935272 0 -7.9965923e-06 0 0)
(-2.8552969 -0.30838913 0 7.5074693e-06 0 0)
(-2.8678274 -0.30929326 0 -7.1263232e-06 0 0)
(-2.8560703 -0.30844489 0 6.7205392e-06 0 0)
(-2.8670871 -0.30924024 0 -6.3701165e-06 0 0)
(-2.8567639 -0.30849486 0 6.023383e-06 0 0)
(-2.8664253 -0.30919285 0 -5.7109186e-06 0 0)
(-2.8573861 -0.30853964 0 5.4112694e-06 0 0)
(-2.8658322 -0.30915039 0 -5.136801e-06 0 0)
(-2.8579453 -0.30857983 0 4.8773701e-06 0 0)
(-2.8652992 -0.30911226 0 -4.6385627e-06 0 0)
(-2.858449 -0.30861599 0 4.4146597e-06 0 0)
(-2.8648186 -0.30907791 0 -4.2086247e-06 0 0)
(-2.8589045 -0.30864864 0 4.0166432e-06 0 0)
(-2.8643833 -0.30904682 0 -3.8405911e-06 0 0)
(-2.8593184 -0.30867825 0 3.6776112e-06 0 0)
(-2.8639869 -0.30901856 0 -3.5290807e-06 0 0)
(-2.8596965 -0.30870525 0 3.3927315e-06 0 0)
(-2.8636236 -0.3089927 0 -3.2697082e-06 0 0)
(-2.8600446 -0.30873005 0 3.1580672e-06 0 0)
(-2.8632879 -0.30896887 0 -3.0592367e-06 0 0)
(-2.8603677 -0.30875299 0 2.9709108e-06 0 0)
(-2.8629749 -0.30894671 0 -2.8945175e-06 0 0)
(-2.8606705 -0.3087744 0 2.834502e-06 0 0)
(-2.8626804 -0.30892587 0 -2.7664873e-06 0 0)
(-2.8609596 -0.30879471 0 2.7527665e-06 0 0)
(-2.862405 -0.3089067 0 -2.7501651e-06 0 0)
(-2.8612449 -0.30881614 0 2.3867078e-06 0 0)
(-2.8621177 -0.30889212 0 -3.9033084e-06 0 0)
(-2.8614247 -0.30882317 0 3.5181724e-06 0 0)
(-2.7446861 -1.1791199 0 -0.42660309 0 0)
(-3.9740568 -0.48097615 0 -0.044780009 0 0)
(-3.8223506 -0.43923025 0 -0.021191726 0 0)
(-3.3410145 -0.34624528 0 -0.0046397202 0 0)
(-2.950038 -0.32275656 0 -0.003090168 0 0)
(-2.7446766 -0.30194183 0 -0.00022487894 0 0)
(-2.739986 -0.30336005 0 -0.00031949334 0 0)
(-2.6842202 -0.29930086 0 -0.00016532892 0 0)
(-2.7154449 -0.30126352 0 -5.8895016e-05 0 0)
(-2.6822517 -0.29888667 0 -3.3678403e-05 0 0)
(-2.7072286 -0.30062613 0 -1.5954581e-05 0 0)
(-2.6827932 -0.29884208 0 3.2865359e-06 0 0)
(-2.7041702 -0.30042128 0 -9.9190467e-06 0 0)
(-2.6839162 -0.29891666 0 9.0405365e-06 0 0)
(-2.7026551 -0.30032199 0 -9.5454895e-06 0 0)
(-2.6849788 -0.29899717 0 8.8231774e-06 0 0)
(-2.7015368 -0.30024182 0 -8.7471289e-06 0 0)
(-2.6859383 -0.29906983 0 7.9988951e-06 0 0)
(-2.7005748 -0.30017035 0 -7.7589972e-06 0 0)
(-2.6868067 -0.29913532 0 7.195243e-06 0 0)
(-2.6997253 -0.3001069 0 -6.8809277e-06 0 0)
(-2.6875888 -0.29919426 0 6.4482739e-06 0 0)
(-2.6989706 -0.3000505 0 -6.1270055e-06 0 0)
(-2.688291 -0.29924713 0 5.7736804e-06 0 0)
(-2.6982981 -0.30000023 0 -5.4745374e-06 0 0)
(-2.6889205 -0.2992945 0 5.1749575e-06 0 0)
(-2.6976971 -0.2999553 0 -4.9069504e-06 0 0)
(-2.6894851 -0.29933693 0 4.6489378e-06 0 0)
(-2.6971588 -0.29991506 0 -4.4131092e-06 0 0)
(-2.6899923 -0.29937502 0 4.1900465e-06 0 0)
(-2.6966751 -0.29987892 0 -3.9847264e-06 0 0)
(-2.6904492 -0.29940929 0 3.7923148e-06 0 0)
(-2.696239 -0.29984636 0 -3.6151221e-06 0 0)
(-2.6908623 -0.29944024 0 3.4501615e-06 0 0)
(-2.6958441 -0.29981689 0 -3.2987229e-06 0 0)
(-2.6912375 -0.29946832 0 3.1586656e-06 0 0)
(-2.6954846 -0.29979008 0 -3.0308661e-06 0 0)
(-2.6915804 -0.29949393 0 2.9136614e-06 0 0)
(-2.6951552 -0.29976555 0 -2.807767e-06 0 0)
(-2.6918959 -0.29951746 0 2.7117439e-06 0 0)
(-2.6948509 -0.29974293 0 -2.6266641e-06 0 0)
(-2.6921886 -0.29953925 0 2.5505514e-06 0 0)
(-2.6945673 -0.29972187 0 -2.4846847e-06 0 0)
(-2.6924629 -0.29955959 0 2.4336761e-06 0 0)
(-2.6943004 -0.29970206 0 -2.3717333e-06 0 0)
(-2.6927244 -0.29957886 0 2.3667165e-06 0 0)
(-2.6940512 -0.29968382 0 -2.3614423e-06 0 0)
(-2.6929845 -0.29959948 0 1.9863085e-06 0 0)
(-2.6938003 -0.29967066 0 -3.5456209e-06 0 0)
(-2.6931743 -0.29960758 0 3.173432e-06 0 0)
(-2.7643513 -1.1259668 0 -0.38946397 0 0)
(-3.2943872 -0.45761239 0 -0.047233818 0 0)
(-3.4779017 -0.4159465 0 -0.019224175 0 0)
(-3.0383657 -0.33701861 0 -0.0064394381 0 0)
(-2.7649781 -0.31382172 0 -0.0033611336 0 0)
(-2.577128 -0.29258823 0 -0.00029106757 0 0)
(-2.5699514 -0.29382127 0 -0.00034988719 0 0)
(-2.5202102 -0.29001686 0 -0.00017393467 0 0)
(-2.5492117 -0.29189911 0 -5.7829259e-05 0 0)
(-2.5197108 -0.28970003 0 -3.7892332e-05 0 0)
(-2.5425942 -0.29134574 0 -1.4288936e-05 0 0)
(-2.5205241 -0.28966473 0 1.2328208e-06 0 0)
(-2.539967 -0.29115811 0 -8.2342982e-06 0 0)
(-2.5215843 -0.28973489 0 7.5760808e-06 0 0)
(-2.5386107 -0.29106553 0 -8.11248e-06 0 0)
(-2.5225523 -0.28981134 0 7.5074906e-06 0 0)
(-2.5375968 -0.29098991 0 -7.4976572e-06 0 0)
(-2.5234257 -0.28988042 0 6.8103749e-06 0 0)
(-2.5367226 -0.29092222 0 -6.6448751e-06 0 0)
(-2.5242155 -0.28994257 0 6.1342047e-06 0 0)
(-2.5359505 -0.29086208 0 -5.8836527e-06 0 0)
(-2.5249262 -0.28999844 0 5.5017873e-06 0 0)
(-2.5352647 -0.29080864 0 -5.2341512e-06 0 0)
(-2.5255637 -0.29004852 0 4.927798e-06 0 0)
(-2.5346538 -0.29076102 0 -4.6745889e-06 0 0)
(-2.5261351 -0.29009337 0 4.417175e-06 0 0)
(-2.5341081 -0.29071847 0 -4.1889596e-06 0 0)
(-2.5266474 -0.29013355 0 3.9681537e-06 0 0)
(-2.5336194 -0.29068037 0 -3.7668864e-06 0 0)
(-2.5271075 -0.29016961 0 3.5763068e-06 0 0)
(-2.5331804 -0.29064615 0 -3.4009244e-06 0 0)
(-2.527522 -0.29020206 0 3.23663e-06 0 0)
(-2.5327847 -0.29061531 0 -3.0852123e-06 0 0)
(-2.5278967 -0.29023138 0 2.9443698e-06 0 0)
(-2.5324264 -0.29058739 0 -2.8149197e-06 0 0)
(-2.528237 -0.29025798 0 2.6953161e-06 0 0)
(-2.5321003 -0.29056199 0 -2.5860297e-06 0 0)
(-2.5285479 -0.29028225 0 2.4859002e-06 0 0)
(-2.5318015 -0.29053873 0 -2.3952936e-06 0 0)
(-2.528834 -0.29030456 0 2.3131916e-06 0 0)
(-2.5315256 -0.29051728 0 -2.2403693e-06 0 0)
(-2.5290993 -0.29032523 0 2.1751284e-06 0 0)
(-2.5312685 -0.2904973 0 -2.118649e-06 0 0)
(-2.5293478 -0.29034454 0 2.0755267e-06 0 0)
(-2.5310266 -0.29047847 0 -2.019227e-06 0 0)
(-2.5295844 -0.29036282 0 2.0216105e-06 0 0)
(-2.5308009 -0.29046112 0 -2.0133495e-06 0 0)
(-2.5298214 -0.29038258 0 1.6325993e-06 0 0)
(-2.5305816 -0.29044916 0 -3.2027279e-06 0 0)
(-2.5300162 -0.29039161 0 2.8498315e-06 0 0)
(-2.9018357 -1.0851055 0 -0.34663243 0 0)
(-2.8613373 -0.42638806 0 -0.045591547 0 0)
(-3.1766533 -0.41072631 0 -0.023224597 0 0)
(-2.7589729 -0.33008404 0 -0.0087755414 0 0)
(-2.5962139 -0.30530704 0 -0.0034974676 0 0)
(-2.4210085 -0.28380685 0 -0.00044001892 0 0)
(-2.4086166 -0.28444586 0 -0.00038698102 0 0)
(-2.361586 -0.28071377 0 -0.0001776729 0 0)
(-2.3884781 -0.28253333 0 -5.4797774e-05 0 0)
(-2.3622016 -0.28050354 0 -4.0465033e-05 0 0)
(-2.3831698 -0.28206523 0 -1.2413028e-05 0 0)
(-2.3632515 -0.28048408 0 -4.5329344e-07 0 0)
(-2.3809404 -0.28189617 0 -6.6732257e-06 0 0)
(-2.3642686 -0.28055143 0 6.2909297e-06 0 0)
(-2.3797367 -0.28181035 0 -6.8159974e-06 0 0)
(-2.3651557 -0.28062419 0 6.3336411e-06 0 0)
(-2.3788206 -0.28173919 0 -6.3725525e-06 0 0)
(-2.3659517 -0.28068985 0 5.7452466e-06 0 0)
(-2.3780275 -0.28167518 0 -5.6440012e-06 0 0)
(-2.3666702 -0.28074877 0 5.1824797e-06 0 0)
(-2.3773263 -0.28161825 0 -4.9887435e-06 0 0)
(-2.3673157 -0.28080166 0 4.6528433e-06 0 0)
(-2.3767036 -0.28156767 0 -4.4333495e-06 0 0)
(-2.3678943 -0.28084905 0 4.1692462e-06 0 0)
(-2.3761489 -0.28152261 0 -3.9573056e-06 0 0)
(-2.3684127 -0.28089148 0 3.737748e-06 0 0)
(-2.3756536 -0.28148236 0 -3.5452666e-06 0 0)
(-2.3688774 -0.28092949 0 3.3578367e-06 0 0)
(-2.3752101 -0.28144632 0 -3.1875904e-06 0 0)
(-2.3692948 -0.2809636 0 3.0261344e-06 0 0)
(-2.3748117 -0.28141394 0 -2.8776119e-06 0 0)
(-2.3696707 -0.28099431 0 2.738517e-06 0 0)
(-2.3744527 -0.28138475 0 -2.6102171e-06 0 0)
(-2.3700104 -0.28102205 0 2.4909834e-06 0 0)
(-2.3741277 -0.28135833 0 -2.3812488e-06 0 0)
(-2.370319 -0.28104723 0 2.2799653e-06 0 0)
(-2.3738319 -0.28133428 0 -2.1872729e-06 0 0)
(-2.3706009 -0.28107022 0 2.1024314e-06 0 0)
(-2.373561 -0.28131225 0 -2.025521e-06 0 0)
(-2.3708603 -0.28109135 0 1.9558769e-06 0 0)
(-2.3733108 -0.28129192 0 -1.8940231e-06 0 0)
(-2.3711008 -0.28111095 0 1.838503e-06 0 0)
(-2.3730778 -0.28127298 0 -1.7904274e-06 0 0)
(-2.3713259 -0.28112925 0 1.7542381e-06 0 0)
(-2.3728584 -0.2812551 0 -1.7032442e-06 0 0)
(-2.37154 -0.28114657 0 1.7117963e-06 0 0)
(-2.3726539 -0.28123861 0 -1.7006041e-06 0 0)
(-2.3717558 -0.28116547 0 1.3194709e-06 0 0)
(-2.3724623 -0.28122766 0 -2.8732129e-06 0 0)
(-2.3719517 -0.28117527 0 2.5478874e-06 0 0)
(-2.9285138 -1.0363465 0 -0.31407456 0 0)
(-2.532702 -0.40750031 0 -0.044944956 0 0)
(-2.8925809 -0.39060877 0 -0.022018698 0 0)
(-2.5133023 -0.31619838 0 -0.0088664983 0 0)
(-2.4266963 -0.29424685 0 -0.0031271298 0 0)
(-2.2706676 -0.27481546 0 -0.00055636857 0 0)
(-2.2542059 -0.27504576 0 -0.00040492332 0 0)
(-2.2089337 -0.27140685 0 -0.00017188648 0 0)
(-2.2333297 -0.27316365 0 -4.8370061e-05 0 0)
(-2.2098409 -0.27129892 0 -4.0862607e-05 0 0)
(-2.2289895 -0.27278465 0 -1.0004885e-05 0 0)
(-2.2110093 -0.27130037 0 -1.689853e-06 0 0)
(-2.2270899 -0.27263536 0 -5.1668375e-06 0 0)
(-2.2119819 -0.27136628 0 5.1801748e-06 0 0)
(-2.2260259 -0.27255641 0 -5.6312418e-06 0 0)
(-2.2127973 -0.27143572 0 5.2855274e-06 0 0)
(-2.2252011 -0.27248964 0 -5.3547844e-06 0 0)
(-2.2135234 -0.27149811 0 4.7879315e-06 0 0)
(-2.224483 -0.27242921 0 -4.741565e-06 0 0)
(-2.2141767 -0.27155392 0 4.3260049e-06 0 0)
(-2.2238471 -0.2723754 0 -4.1828902e-06 0 0)
(-2.2147627 -0.27160395 0 3.8887902e-06 0 0)
(-2.2232821 -0.27232758 0 -3.7126153e-06 0 0)
(-2.2152876 -0.27164875 0 3.4866422e-06 0 0)
(-2.2227789 -0.27228499 0 -3.3118961e-06 0 0)
(-2.2157576 -0.27168885 0 3.1264309e-06 0 0)
(-2.2223296 -0.27224695 0 -2.9661491e-06 0 0)
(-2.2161789 -0.27172478 0 2.8087524e-06 0 0)
(-2.2219273 -0.27221287 0 -2.6664466e-06 0 0)
(-2.2165572 -0.27175702 0 2.5311856e-06 0 0)
(-2.2215661 -0.27218227 0 -2.4068468e-06 0 0)
(-2.2168979 -0.27178604 0 2.2904105e-06 0 0)
(-2.2212406 -0.27215467 0 -2.1829186e-06 0 0)
(-2.2172059 -0.27181227 0 2.0831101e-06 0 0)
(-2.2209459 -0.27212968 0 -1.9911165e-06 0 0)
(-2.2174856 -0.27183609 0 1.9062978e-06 0 0)
(-2.2206777 -0.27210693 0 -1.8285336e-06 0 0)
(-2.2177411 -0.27185784 0 1.757428e-06 0 0)
(-2.2204321 -0.27208608 0 -1.6928348e-06 0 0)
(-2.2179761 -0.27187785 0 1.6343803e-06 0 0)
(-2.2202054 -0.27206683 0 -1.5823812e-06 0 0)
(-2.218194 -0.2718964 0 1.5355908e-06 0 0)
(-2.2199942 -0.27204889 0 -1.49507e-06 0 0)
(-2.2183979 -0.27191374 0 1.4650053e-06 0 0)
(-2.2197954 -0.27203194 0 -1.4190557e-06 0 0)
(-2.2185915 -0.27193015 0 1.4326296e-06 0 0)
(-2.2196101 -0.27201627 0 -1.4188484e-06 0 0)
(-2.2187877 -0.27194816 0 1.0418972e-06 0 0)
(-2.2194429 -0.27200618 0 -2.5560723e-06 0 0)
(-2.218982 -0.2719586 0 2.2675816e-06 0 0)
(-3.0442362 -0.98995869 0 -0.27439405 0 0)
(-2.2951922 -0.38929718 0 -0.044347579 0 0)
(-2.6771857 -0.37612407 0 -0.021884068 0 0)
(-2.3419891 -0.30672602 0 -0.0091298971 0 0)
(-2.2799901 -0.28451363 0 -0.0028671387 0 0)
(-2.1266093 -0.26574991 0 -0.00061580665 0 0)
(-2.1062769 -0.26562989 0 -0.000393984 0 0)
(-2.0621547 -0.26210022 0 -0.00015416335 0 0)
(-2.0837255 -0.26379133 0 -3.7928776e-05 0 0)
(-2.0626488 -0.262086 0 -3.8718662e-05 0 0)
(-2.080059 -0.26350339 0 -6.7882809e-06 0 0)
(-2.0638188 -0.26211333 0 -2.3881394e-06 0 0)
(-2.0784146 -0.26337538 0 -3.6384146e-06 0 0)
(-2.0647351 -0.26217934 0 4.2507696e-06 0 0)
(-2.0774732 -0.26330359 0 -4.5297994e-06 0 0)
(-2.0654839 -0.26224592 0 4.35236e-06 0 0)
(-2.0767324 -0.26324119 0 -4.4275334e-06 0 0)
(-2.0661463 -0.26230523 0 3.9253912e-06 0 0)
(-2.0760836 -0.26318427 0 -3.9239955e-06 0 0)
(-2.0667402 -0.26235806 0 3.5524377e-06 0 0)
(-2.0755079 -0.26313349 0 -3.4541396e-06 0 0)
(-2.0672718 -0.26240534 0 3.1984025e-06 0 0)
(-2.074996 -0.26308834 0 -3.061245e-06 0 0)
(-2.0677475 -0.26244765 0 2.8698614e-06 0 0)
(-2.0745399 -0.26304812 0 -2.7287437e-06 0 0)
(-2.0681733 -0.26248551 0 2.5741072e-06 0 0)
(-2.0741327 -0.2630122 0 -2.4429517e-06 0 0)
(-2.0685549 -0.26251943 0 2.3126849e-06 0 0)
(-2.0737683 -0.26298002 0 -2.1956481e-06 0 0)
(-2.0688976 -0.26254988 0 2.0840385e-06 0 0)
(-2.073441 -0.26295112 0 -1.9815653e-06 0 0)
(-2.0692061 -0.26257729 0 1.8855815e-06 0 0)
(-2.0731461 -0.26292505 0 -1.7968983e-06 0 0)
(-2.069485 -0.26260207 0 1.7146199e-06 0 0)
(-2.0728791 -0.26290144 0 -1.6386594e-06 0 0)
(-2.0697383 -0.26262457 0 1.5686966e-06 0 0)
(-2.0726362 -0.26287993 0 -1.5044208e-06 0 0)
(-2.0699697 -0.26264514 0 1.4457065e-06 0 0)
(-2.0724138 -0.26286022 0 -1.39224e-06 0 0)
(-2.0701824 -0.26266406 0 1.3438786e-06 0 0)
(-2.0722085 -0.26284201 0 -1.3007752e-06 0 0)
(-2.0703798 -0.26268161 0 1.2618625e-06 0 0)
(-2.0720173 -0.26282503 0 -1.2281662e-06 0 0)
(-2.0705643 -0.26269803 0 1.2035423e-06 0 0)
(-2.0718372 -0.26280897 0 -1.1624337e-06 0 0)
(-2.0707393 -0.26271355 0 1.1799695e-06 0 0)
(-2.0716693 -0.26279409 0 -1.1641441e-06 0 0)
(-2.0709175 -0.26273068 0 7.9535459e-07 0 0)
(-2.0715236 -0.26278473 0 -2.2503099e-06 0 0)
(-2.0711078 -0.26274163 0 2.0083553e-06 0 0)
(-3.0698612 -0.95127173 0 -0.25085143 0 0)
(-2.1536908 -0.36889483 0 -0.040466182 0 0)
(-2.4983258 -0.35725951 0 -0.019743781 0 0)
(-2.1882235 -0.29454285 0 -0.0085837052 0 0)
(-2.1360038 -0.27387818 0 -0.0024973135 0 0)
(-1.9893047 -0.25645593 0 -0.00058065854 0 0)
(-1.9659477 -0.25622945 0 -0.0003500609 0 0)
(-1.9218299 -0.25281952 0 -0.00012626132 0 0)
(-1.9399623 -0.2544318 0 -2.3886533e-05 0 0)
(-1.9208329 -0.25287328 0 -3.4045719e-05 0 0)
(-1.9364881 -0.2542257 0 -2.5767933e-06 0 0)
(-1.9217553 -0.25292546 0 -2.4826944e-06 0 0)
(-1.9349454 -0.25411745 0 -2.0221054e-06 0 0)
(-1.9225545 -0.2529913 0 3.5107982e-06 0 0)
(-1.9340834 -0.25405219 0 -3.4870844e-06 0 0)
(-1.9232265 -0.25305497 0 3.5260165e-06 0 0)
(-1.9334123 -0.25399391 0 -3.57653e-06 0 0)
(-1.9238268 -0.25311126 0 3.1471109e-06 0 0)
(-1.9328256 -0.25394036 0 -3.1799728e-06 0 0)
(-1.9243654 -0.25316122 0 2.8516415e-06 0 0)
(-1.9323049 -0.2538925 0 -2.7926056e-06 0 0)
(-1.9248469 -0.25320586 0 2.5724128e-06 0 0)
(-1.9318417 -0.25384992 0 -2.4704092e-06 0 0)
(-1.9252775 -0.25324577 0 2.3105406e-06 0 0)
(-1.931429 -0.25381198 0 -2.1999193e-06 0 0)
(-1.9256628 -0.25328149 0 2.0732504e-06 0 0)
(-1.9310604 -0.2537781 0 -1.9685382e-06 0 0)
(-1.926008 -0.25331348 0 1.8628552e-06 0 0)
(-1.9307306 -0.25374774 0 -1.7687578e-06 0 0)
(-1.926318 -0.2533422 0 1.6785714e-06 0 0)
(-1.9304344 -0.25372047 0 -1.5959426e-06 0 0)
(-1.9265971 -0.25336807 0 1.5184803e-06 0 0)
(-1.9301675 -0.25369587 0 -1.446863e-06 0 0)
(-1.9268494 -0.25339145 0 1.3804577e-06 0 0)
(-1.929926 -0.25367358 0 -1.3190415e-06 0 0)
(-1.9270785 -0.2534127 0 1.2625288e-06 0 0)
(-1.9297062 -0.25365327 0 -1.2104872e-06 0 0)
(-1.9272878 -0.25343212 0 1.1629904e-06 0 0)
(-1.9295049 -0.25363465 0 -1.1196149e-06 0 0)
(-1.9274803 -0.25345 0 1.0803906e-06 0 0)
(-1.9293192 -0.25361744 0 -1.04535e-06 0 0)
(-1.9276587 -0.25346659 0 1.0135757e-06 0 0)
(-1.9291462 -0.25360138 0 -9.8606833e-07 0 0)
(-1.9278256 -0.25348212 0 9.6630255e-07 0 0)