/*--------------------------------*- C++ -*----------------------------------*\
| =========                 |                                                 |
| \\      /  F ield         | OpenFOAM: The Open Source CFD Toolbox           |
|  \\    /   O peration     | Version:  2312                                  |
|   \\  /    A nd           | Website:  www.openfoam.com                      |
|    \\/     M anipulation  |                                                 |
\*---------------------------------------------------------------------------*/
FoamFile
{
    version     2.0;
    format      ascii;
    arch        "LSB;label=32;scalar=64";
    class       volScalarField;
    location    "8";
    object      T;
}
// * * * * * * * * * * * * * * * * * * * * * * * * * * * * * * * * * * * * * //

dimensions      [0 0 0 1 0 0 0];

internalField   nonuniform List<scalar> 
4000
(
332.13832
330.78685
330.51956
330.44413
330.35695
330.29778
330.24053
330.19005
330.14111
330.096
330.0508
330.00843
329.96553
329.92474
329.88345
329.84368
329.80358
329.7645
329.72532
329.68674
329.64829
329.61007
329.57221
329.53427
329.4969
329.45916
329.42221
329.38462
329.34803
329.31055
329.27429
329.23689
329.20091
329.16356
329.12785
329.09052
329.05507
329.01773
328.98252
328.94516
328.9102
328.87278
328.83807
328.80054
328.76613
328.72843
328.6944
328.65636
328.62299
328.58365
334.43074
332.25163
331.53132
331.3746
331.18414
331.07702
330.97584
330.89482
330.81849
330.75361
330.68847
330.63179
330.57356
330.52162
330.46822
330.41932
330.3695
330.32269
330.27562
330.2303
330.18541
330.14118
330.09806
330.05465
330.013
329.9702
329.92981
329.88747
329.84816
329.80615
329.76781
329.72604
329.68857
329.64694
329.61027
329.56871
329.53279
329.49123
329.45605
329.4144
329.37996
329.33812
329.30446
329.2623
329.22953
329.18684
329.1552
329.11151
329.08185
329.03445
335.84571
333.66044
332.5346
332.29855
332.00752
331.85304
331.7086
331.59721
331.49384
331.4092
331.32436
331.25337
331.17998
331.11687
331.0515
330.99344
330.934
330.87943
330.82455
330.77247
330.7212
330.67095
330.62262
330.57373
330.52785
330.47998
330.43619
330.38907
330.34709
330.30053
330.26015
330.21398
330.17504
330.12913
330.09152
330.04572
330.00937
329.96356
329.92843
329.88248
329.84857
329.80232
329.76971
329.72293
329.69179
329.64412
329.61487
329.56554
329.53957
329.48451
336.78231
334.96473
333.51479
333.20701
332.82148
332.62153
332.43544
332.29431
332.1647
332.06054
331.95651
331.8713
331.78312
331.70887
331.6318
331.56459
331.49576
331.43341
331.3709
331.31203
331.25455
331.19823
331.14483
331.09042
331.04043
330.98745
330.94035
330.88844
330.84386
330.79273
330.75037
330.6998
330.65945
330.60923
330.57073
330.52068
330.48393
330.43387
330.39883
330.34857
330.31523
330.26455
330.23302
330.18161
330.15213
330.09949
330.07263
330.0177
329.9953
329.93319
337.43081
336.12186
334.45285
334.08798
333.6183
333.37666
333.15182
332.98228
332.82784
332.7047
332.58235
332.48319
332.38084
332.29559
332.20729
332.131
332.05314
331.98304
331.9132
331.84755
331.78409
331.72171
331.66344
331.6035
331.54955
331.49146
331.44119
331.38447
331.33741
331.2817
331.23747
331.18248
331.14081
331.08627
331.04696
330.99265
330.95557
330.90126
330.86635
330.81178
330.77906
330.72395
330.69353
330.63751
330.60969
330.55212
330.52762
330.4672
330.44818
330.37973
337.89419
337.10562
335.32912
334.92747
334.38876
334.11139
333.85215
333.65646
333.4793
333.33817
333.19882
333.08623
332.97061
332.87467
332.77581
332.69063
332.60424
332.52652
332.44976
332.3774
332.30829
332.2399
332.17701
332.11159
332.05391
331.99072
331.93748
331.87597
331.82658
331.76631
331.72034
331.66094
331.61806
331.55922
331.51919
331.46064
331.4233
331.36475
331.33004
331.27119
331.23912
331.17963
331.15035
331.08976
331.06361
331.00118
330.97898
330.91324
330.89733
330.82327
338.23269
337.9037
336.12573
335.71095
335.12288
334.81783
334.53011
334.31156
334.11457
333.95698
333.80238
333.67722
333.54956
333.44343
333.33491
333.24117
333.14695
333.06183
332.97868
332.89978
332.82544
332.75115
332.68401
332.61318
332.55206
332.48385
332.42787
332.36162
332.31011
332.24532
332.19778
332.13402
332.09007
332.02698
331.98634
331.92359
331.88609
331.82335
331.78891
331.72583
331.69447
331.63066
331.60252
331.53745
331.51295
331.4458
331.4258
331.355
331.34184
331.26293
338.48451
338.51927
336.82977
336.42508
335.81083
335.48787
335.179
334.94193
334.72876
334.55681
334.38921
334.25268
334.11452
333.99898
333.88192
333.78014
333.67894
333.58678
333.49791
333.41272
333.3337
333.25371
333.18275
333.10667
333.04247
332.96935
332.91093
332.84005
332.78667
332.71744
332.66854
332.6005
332.55565
332.48838
332.44728
332.3804
332.34286
332.276
332.24192
332.17469
332.14409
332.07605
332.04909
331.97967
331.95678
331.88509
331.86717
331.79162
331.78081
331.69775
338.67548
338.96774
337.43404
337.05949
336.44394
336.11373
335.79219
335.54183
335.31683
335.13319
334.9553
334.80899
334.66219
334.53827
334.41403
334.30491
334.19777
334.09907
334.00528
333.91419
333.83112
333.74572
333.67146
333.59036
333.5235
333.44567
333.38517
333.30981
333.25485
333.18134
333.13131
333.05911
333.01357
332.94223
332.90083
332.82994
332.79248
332.72163
332.68799
332.61675
332.58695
332.51485
332.48906
332.41547
332.39413
332.31815
332.30213
332.22224
332.21337
332.1268
338.82376
339.2733
337.93775
337.60817
337.01534
336.68861
336.36351
336.10582
335.87387
335.68172
335.49665
335.3425
335.18921
335.05819
334.92835
334.81279
334.7009
334.59633
334.49856
334.40208
334.3157
334.22528
334.14832
334.06252
333.9935
333.91122
333.84903
333.76943
333.71322
333.63562
333.58474
333.50857
333.46255
333.38732
333.3458
333.27107
333.23381
333.15914
333.12603
333.05096
333.02202
332.94604
332.92143
332.8439
332.82403
332.74407
332.72974
332.64596
332.63863
332.54912
338.94189
339.46446
338.34563
338.07
337.52052
337.20719
336.88778
336.62904
336.39535
336.19828
336.00943
335.84968
335.6923
335.55572
335.42204
335.30114
335.18585
335.07622
334.97552
334.87426
334.78541
334.69048
334.61149
334.5214
334.45076
334.36438
334.30095
334.21741
334.16031
334.07889
334.02746
333.94757
333.9013
333.82242
333.78096
333.70261
333.6657
333.58743
333.55495
333.47627
333.44823
333.36863
333.34517
333.264
333.24551
333.16192
333.14908
333.06188
333.05574
332.96378
339.0391
339.57118
338.66699
338.4483
337.95757
337.66613
337.36114
337.10757
336.87742
336.67923
336.49019
336.32733
336.16842
336.02799
335.89238
335.7674
335.65017
335.53644
335.43395
335.32867
335.23827
335.13944
335.05915
334.96527
334.89361
334.80356
334.73938
334.65226
334.59468
334.50977
334.45812
334.3748
334.32856
334.2463
334.2051
334.1234
334.087
334.00539
333.97364
333.89164
333.86454
333.78161
333.75929
333.67481
333.6576
333.57078
333.55923
333.46912
333.46383
333.36988
339.12142
339.62066
338.91397
338.74996
338.3273
338.06429
337.7813
337.53869
337.31713
337.12165
336.93603
336.77266
336.61487
336.47246
336.33691
336.20925
336.09161
335.97487
335.87181
335.76337
335.67239
335.57034
335.48955
335.39247
335.32043
335.22721
335.16281
335.07255
335.01493
334.92691
334.87539
334.78899
334.74307
334.65776
334.61705
334.53233
334.49659
334.41197
334.38105
334.29605
334.26993
334.18402
334.16281
334.0754
334.05936
333.96976
333.95928
333.86676
333.86209
333.76653
339.19323
339.63596
339.09987
338.98435
338.63316
338.40279
338.14772
337.92103
337.71261
337.52349
337.34475
337.18346
337.02941
336.88696
336.7535
336.62463
336.50818
336.38958
336.28722
336.17655
336.08601
335.98153
335.90107
335.80144
335.72971
335.63387
335.56981
335.47691
335.41969
335.32902
335.278
335.18894
335.14362
335.05565
335.01566
334.92828
334.89337
334.80611
334.77612
334.68849
334.6634
334.57491
334.55477
334.46487
334.44988
334.35797
334.34837
334.25395
334.2497
334.1529
339.25711
339.6342
339.23778
339.16223
338.88073
338.6848
338.46159
338.25468
338.06319
337.88368
337.71495
337.55824
337.41042
337.26984
337.14043
337.01188
336.89818
336.77896
336.67855
336.56666
336.47759
336.37152
336.29223
336.19076
336.12003
336.0222
335.95906
335.86407
335.80773
335.7149
335.66476
335.57351
335.52909
335.4389
335.39986
335.31024
335.27632
335.18683
335.15788
335.06804
335.044
334.95336
334.93427
334.84232
334.82829
334.73456
334.72569
334.62985
334.62589
334.5282
339.31498
339.62718
339.33957
339.29463
339.0771
338.91517
338.72569
338.5411
338.36938
338.20217
338.04613
337.89623
337.75689
337.62001
337.4965
337.36975
337.26032
337.14169
337.04448
336.93241
336.84582
336.73904
336.66176
336.55922
336.49019
336.39104
336.32938
336.23289
336.17791
336.08346
336.03459
335.94164
335.89844
335.8065
335.76864
335.67725
335.64449
335.55321
335.5254
335.43381
335.41087
335.31853
335.30047
335.20696
335.1938
335.09873
335.09046
334.99367
334.98991
334.89167
339.36781
339.62161
339.41533
339.39198
339.23017
339.09993
338.94408
338.783
338.63287
338.47993
338.33867
338.19747
338.06853
337.937
337.82104
337.6975
337.59372
337.4769
337.38404
337.27282
337.18969
337.08308
337.00863
336.90581
336.83915
336.73938
336.67977
336.58242
336.52925
336.43377
336.38654
336.29244
336.25075
336.15757
336.12112
336.02844
335.99701
335.90443
335.87786
335.78499
335.76319
335.66965
335.65259
335.55801
335.54565
335.44975
335.44198
335.34469
335.34109
335.24265
339.41635
339.62076
339.47306
339.46348
339.34793
339.24571
339.12176
338.98411
338.85631
338.71886
338.59382
338.46276
338.34573
338.22095
338.11394
337.99489
337.89797
337.78409
337.69664
337.58726
337.50849
337.40295
337.33208
337.22976
337.16612
337.06644
337.00941
336.91185
336.86094
336.76503
336.71981
336.62511
336.58522
336.49134
336.45653
336.36308
336.33313
336.23976
336.21452
336.12088
336.10026
336.00601
335.98995
335.89479
335.88319
335.78694
335.77961
335.68226
335.67878
335.58049
339.46105
339.62533
339.51879
339.51672
339.4379
339.35929
339.26427
339.14884
339.04314
338.92163
338.81354
338.69361
338.58956
338.47263
338.37565
338.26217
338.17315
338.06321
337.98208
337.87547
337.80186
337.69823
337.63164
337.53059
337.47055
337.37166
337.31773
337.22061
337.17237
337.07664
337.03376
336.93904
336.90124
336.80719
336.77423
336.68054
336.65222
336.55857
336.53477
336.44086
336.42147
336.32701
336.31194
336.21671
336.20583
336.1097
336.10279
336.00579
336.00245
335.90466
339.50224
339.63468
339.55675
339.55761
339.50678
339.44709
339.37728
339.28203
339.19734
339.09149
339.00046
338.89213
338.80164
338.69334
338.60715
338.50011
338.41977
338.31463
338.24057
338.13756
338.06978
337.96884
337.90712
337.80807
337.75216
337.65475
337.60435
337.50831
337.46313
337.36817
337.32795
337.23379
337.19831
337.10466
337.07373
336.98033
336.9538
336.86038
336.83811
336.74443
336.72632
336.63216
336.61809
336.52328
336.5131
336.41755
336.41104
336.31479
336.3116
336.21467
339.54025
339.64762
339.58972
339.59047
339.56015
339.51491
339.46624
339.38856
339.32316
339.23211
339.15762
339.06091
338.9841
338.88486
338.80989
338.7099
338.63876
338.53913
338.47269
338.37399
338.31257
338.21501
338.15867
338.06228
338.01094
337.91564
337.86916
337.7748
337.73301
337.6394
337.60213
337.50907
337.47615
337.38343
337.35472
337.26213
337.2375
337.14483
337.12417
337.03124
337.01444
336.92107
336.90802
336.81408
336.80462
336.71008
336.70398
336.60887
336.60586
336.51015
339.57529
339.66284
339.61941
339.61828
339.60248
339.56769
339.53613
339.47317
339.42487
339.34729
339.28835
339.20287
339.13945
339.04937
338.98569
338.89313
338.83146
338.73785
338.67938
338.58556
338.53087
338.4373
338.38669
338.29356
338.24713
338.15453
338.11228
338.02017
337.98203
337.89034
337.85622
337.76481
337.73463
337.64336
337.61701
337.52574
337.50313
337.4117
337.39273
337.30102
337.28559
337.19346
337.18146
337.08885
337.08011
336.987
336.98133
336.88774
336.88492
336.79078
339.60767
339.6793
339.6468
339.64294
339.63712
339.60946
339.5913
339.54016
339.50658
339.44086
339.39609
339.3211
339.2704
339.18931
339.13668
339.05169
338.9995
338.91222
338.86187
338.77335
338.72562
338.6365
338.59187
338.50251
338.46123
338.37184
338.33404
338.2447
338.21043
338.12114
338.09038
338.00111
337.97381
337.88449
337.86062
337.77115
337.75063
337.66093
337.6437
337.55367
337.53964
337.44921
337.43828
337.34741
337.33942
337.24812
337.2429
337.15119
337.14858
337.05636
339.63761
339.69617
339.67237
339.66559
339.66649
339.64334
339.63534
339.59336
339.57205
339.51641
339.48421
339.41875
339.37982
339.30727
339.26518
339.18767
339.14475
339.06394
339.02166
338.93871
338.898
338.81369
338.77515
338.68996
338.65398
338.56823
338.53503
338.4489
338.41862
338.33221
338.30491
338.21824
338.19394
338.107
338.08569
337.99847
337.98012
337.89257
337.87713
337.78921
337.77662
337.68829
337.67845
337.58972
337.58249
337.49337
337.48863
337.39914
337.39676
337.30679
339.66535
339.71297
339.69637
339.68685
339.69222
339.67166
339.67115
339.63596
339.62461
339.57727
339.55593
339.49885
339.47055
339.40591
339.37364
339.30333
339.26925
339.19488
339.16044
339.0832
339.0494
338.97013
338.93767
338.85696
338.8263
338.74453
338.71599
338.63345
338.60724
338.52408
338.50032
338.41664
338.39539
338.31125
338.29256
338.20798
338.19184
338.10683
338.09322
338.00779
337.99666
337.91081
337.90207
337.81583
337.8094
337.72279
337.71855
337.63158
337.62945
337.54204
339.6911
339.72936
339.71888
339.70699
339.71537
339.69606
339.70093
339.67057
339.66707
339.62636
339.61414
339.56426
339.54531
339.48782
339.46449
339.40096
339.37512
339.307
339.28002
339.20848
339.18136
339.10726
339.08073
339.00469
338.97929
338.90177
338.87787
338.7992
338.77705
338.69747
338.67726
338.59691
338.57874
338.49774
338.48168
338.40009
338.38617
338.30406
338.29228
338.20969
338.20002
338.11698
338.10937
338.02594
338.02031
337.93651
337.93278
337.84863
337.84676
337.76219
339.71506
339.7452
339.73997
339.72614
339.73656
339.71767
339.72632
339.69924
339.70176
339.66618
339.66144
339.61758
339.60665
339.55548
339.54009
339.4828
339.46449
339.40232
339.3823
339.31633
339.29554
339.2266
339.20578
339.13451
339.1142
339.0411
339.02171
338.94715
338.929
338.85325
338.83653
338.75979
338.74466
338.66709
338.65364
338.57535
338.56364
338.48472
338.47477
338.3953
338.3871
338.30716
338.30068
338.22031
338.2155
338.13477
338.13158
338.0505
338.04889
337.96742
339.73739
339.76043
339.75966
339.7443
339.75618
339.73721
339.74845
339.72349
339.73051
339.69879
339.70001
339.66109
339.65688
339.61117
339.60268
339.55103
339.53944
339.48284
339.46916
339.40854
339.39363
339.32976
339.31431
339.24782
339.23236
339.16376
339.14872
339.0784
339.0641
338.99237
338.97905
338.90613
338.89397
338.82005
338.80916
338.7344
338.72486
338.64938
338.64122
338.56513
338.55838
338.48177
338.47641
338.39936
338.39536
338.31792
338.31527
338.23748
338.23614
338.15799
339.75824
339.77503
339.77802
339.76147
339.77442
339.75512
339.76812
339.74445
339.75474
339.72584
339.73171
339.69672
339.69801
339.65694
339.65432
339.60767
339.60196
339.55046
339.54246
339.48688
339.47733
339.41837
339.40787
339.3461
339.33517
339.27108
339.26014
339.19412
339.1835
339.11589
339.10582
339.03687
339.02756
338.95747
338.94904
338.878
338.87055
338.79871
338.7923
338.71978
338.71444
338.64135
338.63709
338.56354
338.56035
338.48639
338.48427
338.40996
338.40889
338.33422
339.77772
339.78901
339.7951
339.77763
339.79138
339.77168
339.78584
339.76291
339.7755
339.74862
339.75799
339.7261
339.73178
339.69459
339.69683
339.65455
339.65386
339.60698
339.60396
339.55308
339.54831
339.49401
339.48802
339.43081
339.42406
339.3644
339.35727
339.29556
339.28837
339.22493
339.21793
339.15302
339.14641
339.08026
339.07418
339.00698
339.00153
338.93346
338.92873
338.85992
338.85594
338.78653
338.78333
338.71342
338.71102
338.64068
338.63908
338.56839
338.56758
338.49655
339.79596
339.80236
339.81095
339.79276
339.8071
339.78701
339.80193
339.7794
339.79356
339.7681
339.78004
339.75056
339.75962
339.72565
339.73181
339.6933
339.69682
339.65407
339.65531
339.60875
339.60816
339.55824
339.55625
339.50342
339.50042
339.44509
339.44143
339.38396
339.37993
339.32064
339.31648
339.25564
339.25155
339.18938
339.1855
339.12222
339.11866
339.05444
339.0513
338.98629
338.98362
338.91797
338.9158
338.84962
338.84797
338.78137
338.78026
338.71329
338.71274
338.64545
339.81301
339.81509
339.82561
339.80687
339.82162
339.80119
339.81658
339.79427
339.80945
339.78499
339.79874
339.77112
339.78273
339.75138
339.76063
339.72536
339.73229
339.6932
339.69801
339.65537
339.65836
339.61251
339.61401
339.56532
339.56564
339.51446
339.5139
339.46056
339.45939
339.40419
339.40262
339.34581
339.34404
339.28585
339.28401
339.22465
339.22285
339.16252
339.16086
339.0997
339.09824
339.03642
339.0352
338.97283
338.9719
338.90907
338.90844
338.84526
338.84494
338.78146
339.82896
339.82717
339.83912
339.81994
339.83494
339.81425
339.8299
339.80774
339.82352
339.7998
339.81476
339.7886
339.80204
339.77285
339.78444
339.75192
339.76156
339.72567
339.7334
339.69429
339.70027
339.65817
339.66264
339.61783
339.62103
339.57379
339.57596
339.52659
339.52795
339.47672
339.47748
339.42462
339.42493
339.37068
339.37068
339.31524
339.31504
339.25858
339.25828
339.20098
339.20064
339.14264
339.14232
339.08376
339.08349
339.02448
339.02429
338.96491
338.96482
338.90517
339.84383
339.83857
339.85148
339.83194
339.84705
339.82621
339.84196
339.81994
339.83604
339.81289
339.8286
339.8036
339.8183
339.79088
339.80419
339.77401
339.78572
339.75263
339.76267
339.72671
339.73513
339.69645
339.70339
339.66217
339.66781
339.62428
339.62879
339.58321
339.58677
339.53936
339.54215
339.49314
339.49529
339.44488
339.44653
339.39492
339.39616
339.34353
339.34445
339.29096
339.29164
339.23745
339.23794
339.18317
339.18351
339.12828
339.1285
339.07292
339.07303
339.01718
339.85763
339.84921
339.86267
339.84287
339.85795
339.83705
339.85278
339.83096
339.84714
339.8245
339.84061
339.81657
339.83206
339.80613
339.82063
339.79245
339.80567
339.77503
339.78683
339.75368
339.76403
339.72844
339.73738
339.69947
339.70712
339.66706
339.67353
339.63151
339.63694
339.59317
339.59771
339.55238
339.55614
339.50945
339.51253
339.46465
339.46715
339.41825
339.42027
339.37051
339.3721
339.32164
339.32285
339.27181
339.2727
339.22121
339.2218
339.16996
339.17025
339.11817
339.8703
339.85898
339.87265
339.85267
339.86762
339.84677
339.86239
339.84083
339.85696
339.8348
339.85105
339.82785
339.84378
339.81912
339.83436
339.8079
339.82217
339.79367
339.80675
339.77611
339.78791
339.75511
339.76562
339.73073
339.73998
339.70313
339.7112
339.67251
339.6795
339.63916
339.64517
339.60334
339.60846
339.56532
339.56964
339.52534
339.52894
339.48365
339.4866
339.44047
339.44285
339.39602
339.39788
339.35048
339.35185
339.304
339.30491
339.25673
339.25718
339.20878
339.88165
339.86773
339.88136
339.8613
339.87605
339.85537
339.87081
339.84959
339.86555
339.84391
339.8601
339.83768
339.85376
339.83023
339.84587
339.82092
339.83584
339.80922
339.82317
339.79475
339.80759
339.77731
339.78898
339.75685
339.76733
339.73342
339.74274
339.70716
339.71538
339.67827
339.68546
339.64694
339.65318
339.61341
339.61875
339.57788
339.58239
339.54056
339.54431
339.50167
339.50472
339.46139
339.46379
339.41991
339.42169
339.37738
339.37857
339.33394
339.33453
339.28969
339.89137
339.8753
339.88873
339.86875
339.88324
339.86286
339.87806
339.85728
339.87299
339.8519
339.8679
339.84624
339.86226
339.83976
339.85553
339.83192
339.84717
339.82222
339.83669
339.81025
339.82377
339.79575
339.80822
339.77859
339.78996
339.75875
339.76901
339.73629
339.74546
339.71134
339.71945
339.68404
339.69115
339.65456
339.66072
339.62309
339.62835
339.58981
339.59421
339.55489
339.5585
339.51852
339.52138
339.48087
339.483
339.44208
339.44349
339.40227
339.40298
339.36157
339.89909
339.88152
339.89472
339.87498
339.88922
339.86925
339.88418
339.86393
339.87934
339.85885
339.87457
339.85366
339.86947
339.84793
339.86362
339.84123
339.85655
339.8331
339.8478
339.82313
339.83703
339.81103
339.824
339.79663
339.80859
339.77984
339.79074
339.76065
339.7705
339.73914
339.74794
339.7154
339.72318
339.68956
339.69635
339.66176
339.6676
339.63215
339.63707
339.6009
339.60495
339.56815
339.57137
339.53407
339.53647
339.49879
339.50038
339.46242
339.46322
339.42508
339.90453
339.88628
339.89932
339.88002
339.89402
339.87458
339.88922
339.86958
339.88465
339.86483
339.88019
339.86004
339.87554
339.85492
339.87037
339.84911
339.86429
339.8422
339.8569
339.83382
339.84784
339.82367
339.83687
339.81154
339.82382
339.7973
339.8086
339.7809
339.79118
339.76236
339.77162
339.74174
339.74998
339.71912
339.72636
339.69461
339.70086
339.66832
339.67362
339.6404
339.64478
339.61098
339.61446
339.5802
339.58281
339.54818
339.54992
339.51503
339.51591
339.48086
339.90766
339.88961
339.90261
339.88393
339.89771
339.87891
339.89324
339.87429
339.88899
339.86989
339.88484
339.86549
339.88058
339.86087
339.87595
339.85575
339.87065
339.84981
339.8643
339.84268
339.8566
339.83408
339.84729
339.8238
339.83617
339.81167
339.82313
339.79762
339.80811
339.78161
339.79113
339.76369
339.7722
339.74389
339.7514
339.72228
339.7288
339.69897
339.70452
339.67405
339.67865
339.64766
339.65133
339.61991
339.62266
339.5909
339.59274
339.56075
339.56167
339.52953
339.90879
339.89165
339.90471
339.88681
339.90038
339.88231
339.89633
339.87813
339.89243
339.87409
339.88861
339.87007
339.8847
339.86588
339.88051
339.86132
339.87581
339.85612
339.87027
339.84996
339.86362
339.84259
339.85562
339.83379
339.84606
339.82338
339.83481
339.81127
339.8218
339.79741
339.807
339.78179
339.79041
339.76443
339.77207
339.74537
339.75203
339.72468
339.73037
339.70246
339.70719
339.6788
339.68258
339.6538
339.65664
339.62756
339.62945
339.60016
339.60111
339.57169
339.90848
339.89265
339.90579
339.88877
339.90214
339.88487
339.89856
339.88116
339.89505
339.87752
339.89156
339.87385
339.88798
339.87004
339.88416
339.86594
339.87992
339.86131
339.875
339.8559
339.86916
339.84948
339.86217
339.84184
339.85385
339.83281
339.84405
339.82229
339.83268
339.8102
339.81971
339.79652
339.80511
339.78125
339.78888
339.7644
339.77108
339.74602
339.75174
339.72618
339.73094
339.70496
339.70877
339.68244
339.68531
339.6587
339.66062
339.63382
339.63479
339.60788
339.90734
339.89288
339.90606
339.88997
339.90312
339.8867
339.90004
339.88347
339.89693
339.88023
339.89378
339.87692
339.8905
339.87344
339.88699
339.8697
339.88311
339.8655
339.87864
339.86065
339.8734
339.85494
339.86718
339.84819
339.85981
339.84025
339.85116
339.831
339.84113
339.82036
339.82966
339.8083
339.81672
339.79478
339.8023
339.77982
339.78642
339.76344
339.76911
339.74569
339.75042
339.72663
339.73043
339.70633
339.70919
339.68485
339.68677
339.66226
339.66323
339.63863
339.90585
339.89263
339.90571
339.89055
339.90345
339.88791
339.90087
339.88514
339.89816
339.8823
339.89534
339.87931
339.89233
339.87613
339.88908
339.87267
339.88546
339.8688
339.88132
339.86434
339.87649
339.85915
339.87083
339.85306
339.86418
339.84594
339.85641
339.83768
339.84743
339.82821
339.83718
339.81746
339.82562
339.80541
339.81271
339.79205
339.79847
339.77739
339.78291
339.76145
339.76607
339.74428
339.748
339.72595
339.72875
339.70649
339.70837
339.68597
339.68691
339.66442
339.90426
339.89208
339.90493
339.89066
339.90326
339.88858
339.90115
339.88627
339.89882
339.88379
339.8963
339.88111
339.89354
339.87817
339.89048
339.87492
339.88704
339.87126
339.8831
339.86706
339.87855
339.86222
339.87326
339.85659
339.86712
339.85008
339.86001
339.84257
339.85184
339.83399
339.84255
339.82431
339.8321
339.81346
339.82045
339.80143
339.80759
339.78821
339.79353
339.77383
339.77829
339.75832
339.76191
339.74171
339.74442
339.72405
339.72586
339.70537
339.70628
339.68571
339.90268
339.89138
339.90385
339.89043
339.90266
339.88883
339.90097
339.88692
339.89898
339.88478
339.89674
339.88236
339.89417
339.8796
339.89124
339.87648
339.88789
339.87294
339.88406
339.86888
339.87965
339.86423
339.87458
339.85889
339.86877
339.85278
339.86211
339.84582
339.85454
339.83793
339.846
339.82906
339.83643
339.81918
339.8258
339.80824
339.81409
339.79624
339.8013
339.78319
339.78743
339.7691
339.77252
339.75399
339.75658
339.73791
339.73965
339.72087
339.72175
339.70291
339.90113
339.8906
339.90257
339.88993
339.90174
339.88874
339.90041
339.88718
339.89872
339.88532
339.8967
339.88309
339.89427
339.88045
339.89139
339.87739
339.88806
339.87385
339.88422
339.86982
339.87983
339.86523
339.87485
339.86004
339.86921
339.85417
339.86285
339.84757
339.85569
339.84017
339.84769
339.83193
339.83881
339.8228
339.829
339.81274
339.81823
339.80174
339.8065
339.7898
339.7938
339.77693
339.78015
339.76313
339.76557
339.74843
339.75007
339.73284
339.73367
339.71639
339.89958
339.88979
339.90116
339.88925
339.9006
339.88837
339.89955
339.8871
339.8981
339.88545
339.89623
339.88335
339.89385
339.88074
339.89095
339.87763
339.88753
339.87402
339.88359
339.8699
339.87912
339.86526
339.87411
339.86008
339.86851
339.85431
339.86229
339.84791
339.85539
339.84084
339.84778
339.83305
339.8394
339.82449
339.83023
339.81513
339.82022
339.80495
339.80936
339.79394
339.79765
339.78209
339.78509
339.76941
339.77168
339.75591
339.75744
339.7416
339.74237
339.72648
339.89802
339.88896
339.89967
339.88845
339.89928
339.8878
339.89845
339.88673
339.89717
339.88522
339.89536
339.88315
339.89294
339.88047
339.88991
339.87721
339.88631
339.87342
339.88217
339.86911
339.87752
339.86431
339.87236
339.85903
339.8667
339.85324
339.86049
339.84692
339.85372
339.84003
339.84635
339.83254
339.83834
339.8244
339.82965
339.81559
339.82025
339.80606
339.8101
339.7958
339.79922
339.78482
339.78758
339.77309
339.77518
339.76063
339.76204
339.74743
339.74814
339.7335
339.89644
339.88812
339.89811
339.88754
339.89783
339.88705
339.89716
339.88612
339.89595
339.88464
339.89409
339.88248
339.89152
339.87961
339.88826
339.8761
339.88437
339.87202
339.87993
339.86742
339.875
339.86237
339.86961
339.85689
339.86378
339.85098
339.85749
339.84462
339.85074
339.83781
339.8435
339.83049
339.83573
339.82265
339.82739
339.81424
339.81845
339.80522
339.80889
339.79559
339.79868
339.78532
339.78783
339.7744
339.77631
339.76283
339.76412
339.75061
339.75125
339.73771
339.89482
339.88727
339.8965
339.88657
339.89629
339.88617
339.89569
339.88528
339.89445
339.88371
339.89242
339.88133
339.88956
339.87814
339.88594
339.87426
339.88167
339.86978
339.87683
339.8648
339.87153
339.85941
339.86582
339.85364
339.85974
339.84752
339.85329
339.84105
339.84648
339.83421
339.83927
339.82698
339.83163
339.81932
339.82354
339.8112
339.81496
339.80258
339.80586
339.79344
339.79622
339.78377
339.78602
339.77353
339.77525
339.76273
339.76389
339.75135
339.75193
339.73937
339.89314
339.8864
339.89484
339.88553
339.89467
339.88516
339.89407
339.8842
339.89266
339.8824
339.89031
339.87964
339.88702
339.876
339.88291
339.87161
339.87813
339.86663
339.87281
339.86119
339.86706
339.85538
339.86097
339.84926
339.85457
339.84286
339.8479
339.8362
339.84094
339.82926
339.83369
339.82203
339.82612
339.81448
339.81819
339.80656
339.80987
339.79824
339.80114
339.78951
339.79196
339.78032
339.78231
339.77066
339.77218
339.76052
339.76154
339.74986
339.75038
339.73868
339.89141
339.88552
339.89313
339.88444
339.89298
339.88404
339.89228
339.88286
339.89055
339.88065
339.8877
339.87735
339.88382
339.8731
339.87908
339.86809
339.87369
339.86251
339.86779
339.85652
339.86153
339.85023
339.85499
339.8437
339.84823
339.83698
339.84128
339.83007
339.83413
339.82299
339.82679
339.8157
339.81922
339.80818
339.81139
339.8004
339.80327
339.79231
339.79482
339.78389
339.78602
339.7751
339.77684
339.76593
339.76726
339.75635
339.75725
339.74633
339.74678
339.73586
339.8896
339.88462
339.89137
339.8833
339.89122
339.88277
339.89028
339.88121
339.88804
339.8784
339.8845
339.87436
339.87985
339.86934
339.87436
339.86359
339.86825
339.85733
339.86171
339.85073
339.85487
339.8439
339.84785
339.83692
339.84069
339.82984
339.83343
339.82266
339.82606
339.81539
339.81858
339.80801
339.81097
339.80048
339.8032
339.79277
339.79521
339.78485
339.787
339.77669
339.77851
339.76824
339.76973
339.75948
339.76062
339.75038
339.75115
339.74092
339.74131
339.73106
339.8877
339.8837
339.88955
339.88211
339.88936
339.88133
339.88803
339.87917
339.88504
339.87552
339.88059
339.87056
339.87501
339.86462
339.86863
339.85801
339.86171
339.85099
339.85446
339.84372
339.84702
339.83633
339.83948
339.82888
339.83191
339.82141
339.82431
339.81394
339.81671
339.80647
339.80908
339.79896
339.80141
339.7914
339.79365
339.78374
339.78577
339.77595
339.77774
339.76799
339.76951
339.75982
339.76107
339.75142
339.75238
339.74275
339.74339
339.73377
339.7341
339.72447
339.8857
339.88277
339.88768
339.88087
339.88737
339.87964
339.88541
339.87662
339.88142
339.87187
339.87583
339.86579
339.86914
339.85879
339.86176
339.85124
339.85397
339.8434
339.84597
339.83543
339.83789
339.82745
339.82984
339.81952
339.82184
339.81167
339.81392
339.80391
339.80607
339.79622
339.79829
339.78859
339.79054
339.78098
339.78278
339.77335
339.77499
339.76566
339.76711
339.75787
339.75912
339.74995
339.75097
339.74186
339.74264
339.73356
339.73409
339.72502
339.72529
339.71621
339.88358
339.88185
339.88574
339.87955
339.88518
339.87761
339.8823
339.87339
339.877
339.86729
339.87005
339.85989
339.86211
339.85171
339.85363
339.84315
339.84491
339.83445
339.83614
339.82577
339.82743
339.81721
339.81886
339.80881
339.81045
339.80059
339.80222
339.79255
339.79415
339.78467
339.78622
339.77692
339.77839
339.76925
339.77064
339.76164
339.76291
339.75404
339.75518
339.74641
339.74739
339.73871
339.73952
339.73089
339.73152
339.72293
339.72336
339.71478
339.715
339.70642
339.88133
339.88097
339.88372
339.87811
339.88269
339.87509
339.87852
339.8693
339.87158
339.86158
339.86305
339.8527
339.85374
339.84324
339.84411
339.83362
339.83444
339.82406
339.8249
339.81468
339.81557
339.80556
339.80651
339.79672
339.79773
339.78816
339.78921
339.77986
339.78093
339.77181
339.77288
339.76395
339.765
339.75625
339.75725
339.74867
339.7496
339.74115
339.742
339.73367
339.7344
339.72617
339.72678
339.71861