/*--------------------------------*- C++ -*----------------------------------*\
| =========                 |                                                 |
| \\      /  F ield         | OpenFOAM: The Open Source CFD Toolbox           |
|  \\    /   O peration     | Version:  2312                                  |
|   \\  /    A nd           | Website:  www.openfoam.com                      |
|    \\/     M anipulation  |                                                 |
\*---------------------------------------------------------------------------*/
FoamFile
{
    version     2.0;
    format      ascii;
    arch        "LSB;label=32;scalar=64";
    class       volScalarField;
    location    "2";
    object      T;
}
// * * * * * * * * * * * * * * * * * * * * * * * * * * * * * * * * * * * * * //

dimensions      [0 0 0 1 0 0 0];

internalField   nonuniform List<scalar> 
4000
(
332.13876
330.78498
330.51919
330.44306
330.35743
330.29688
330.24034
330.18959
330.14131
330.09556
330.05112
330.0079
329.9659
329.92419
329.88381
329.84317
329.80391
329.76404
329.72562
329.68633
329.64855
329.60971
329.57244
329.53396
329.49708
329.45889
329.42235
329.38441
329.34815
329.31044
329.27443
329.23693
329.20115
329.16386
329.1283
329.09121
329.05588
329.01897
328.98388
328.94713
328.91229
328.87568
328.84111
328.80459
328.77031
328.7338
328.69991
328.66324
328.63
328.59224
334.43164
332.24593
331.53018
331.37143
331.18555
331.07435
330.97528
330.89344
330.8191
330.75227
330.68944
330.63022
330.57467
330.52
330.46928
330.41781
330.37047
330.32132
330.2765
330.22909
330.18618
330.14012
330.09872
330.05372
330.01353
329.96942
329.93021
329.88686
329.8485
329.80583
329.76821
329.72617
329.68926
329.64782
329.61158
329.57073
329.53518
329.49487
329.46003
329.42021
329.38612
329.34671
329.31341
329.27426
329.24187
329.20276
329.1715
329.13192
329.10261
329.05992
335.84779
333.65143
332.53269
332.29333
332.00983
331.84865
331.70765
331.59493
331.49483
331.40701
331.32595
331.2508
331.1818
331.1142
331.05323
330.99096
330.93559
330.87719
330.82599
330.77048
330.72248
330.66921
330.6237
330.57222
330.52871
330.4787
330.43683
330.38809
330.34761
330.3
330.26076
330.21419
330.17611
330.13053
330.09358
330.04896
330.01314
329.96943
329.93478
329.89187
329.85847
329.81622
329.78415
329.74234
329.71178
329.67001
329.64135
329.59881
329.57337
329.52609
336.78412
334.95156
333.51209
333.19988
332.82461
332.61551
332.43412
332.2912
332.16603
332.05754
331.95866
331.86779
331.78561
331.70523
331.63417
331.5612
331.49792
331.43035
331.37286
331.30933
331.25627
331.19587
331.14628
331.08838
331.04157
330.98574
330.9412
330.88713
330.84452
330.79202
330.75113
330.70007
330.66078
330.61109
330.57336
330.52499
330.48884
330.4417
330.40718
330.36115
330.32836
330.28324
330.25231
330.20777
330.17896
330.13448
330.10832
330.06279
330.04104
329.98967
337.43327
336.1067
334.44956
334.07917
333.62218
333.36914
333.15014
332.97843
332.82946
332.70097
332.58501
332.47884
332.38395
332.29107
332.21024
332.1268
332.05582
331.97925
331.91561
331.84421
331.7862
331.71881
331.6652
331.60101
331.55093
331.48938
331.44219
331.38289
331.33816
331.28085
331.23828
331.18281
331.14227
331.08852
331.04995
330.99786
330.96129
330.91074
330.87625
330.82708
330.79479
330.74676
330.71686
330.66955
330.64238
330.59513
330.57134
330.52279
330.50447
330.44957
337.89701
337.08842
335.32528
334.91729
334.39328
334.1025
333.85016
333.65198
333.48115
333.33381
333.20189
333.08115
332.97427
332.86939
332.77927
332.68572
332.60737
332.5221
332.45255
332.37352
332.31071
332.23654
332.17903
332.10874
332.05546
331.98837
331.93857
331.87419
331.82734
331.76536
331.72111
331.66133
331.6195
331.56178
331.52232
331.46656
331.42949
331.37555
331.34099
331.28868
331.25679
331.2058
331.17682
331.12669
331.10101
331.05094
331.02936
330.9778
330.96255
330.90467
338.23588
337.88566
336.12178
335.69979
335.12791
334.80777
334.52789
334.3066
334.11658
333.9521
333.80579
333.67154
333.55368
333.43753
333.33881
333.23569
333.15045
333.0569
332.98177
332.89546
332.8281
332.74745
332.6862
332.61007
332.55372
332.48131
332.42898
332.35974
332.31081
332.24435
332.19842
332.1345
332.09136
332.02979
331.98938
331.93004
331.8924
331.83513
331.8004
331.74496
331.71335
331.65941
331.6312
331.57821
331.55387
331.50096
331.48137
331.42688
331.41426
331.35391
338.48808
338.50114
336.82595
336.41337
335.81621
335.47687
335.17665
334.93665
334.73086
334.55153
334.39285
334.24654
334.11902
333.99261
333.88617
333.77422
333.68272
333.58147
333.50121
333.4081
333.33652
333.24977
333.18503
333.10341
333.04415
332.96675
332.912
332.83817
332.78723
332.71653
332.66896
332.60109
332.55665
332.4914
332.45002
332.38722
332.34896
332.28844
332.25345
332.19494
332.16349
332.10661
332.07904
332.02319
332.00002
331.94428
331.92642
331.8691
331.85866
331.79625
338.67941
338.95041
337.43088
337.04763
336.44947
336.10209
335.78979
335.53641
335.31896
335.12766
334.95909
334.80254
334.66698
334.53158
334.41854
334.29871
334.20174
334.09353
334.00871
333.9094
333.83401
333.74168
333.67375
333.58707
333.52514
333.44311
333.38611
333.30803
333.2552
333.18057
333.13142
333.05988
333.01416
332.94545
332.90309
332.83702
332.79808
332.73444
332.69913
332.63763
332.60624
332.54647
332.51939
332.46072
332.43853
332.38
332.36361
332.30361
332.29486
332.23073
338.82794
339.25736
337.93552
337.59647
337.02084
336.67666
336.36119
336.10042
335.87596
335.67608
335.5005
335.33589
335.19419
335.05136
334.93303
334.80649
334.70498
334.59072
334.50203
334.39724
334.31856
334.22127
334.15053
334.05933
333.995
333.90882
333.84978
333.76786
333.7133
333.63508
333.58448
333.50956
333.46264
333.39073
333.34742
333.27828
333.23868
333.17208
333.13641
333.07203
333.04063
332.97804
332.95134
332.88991
332.86851
332.80728
332.79209
332.72958
332.72206
332.65646
338.94633
339.45044
338.34455
338.05866
337.52585
337.19534
336.88563
336.62381
336.39736
336.19268
336.01326
335.84307
335.69738
335.5489
335.42679
335.29488
335.18993
335.07068
334.97893
334.86953
334.78815
334.68663
334.61353
334.51842
334.45204
334.36226
334.30143
334.21616
334.16006
334.07869
334.02676
333.94885
333.90082
333.82603
333.78184
333.7099
333.66965
333.6003
333.56425
333.49716
333.46569
333.40041
333.37398
333.30989
333.28912
333.2253
333.21103
333.1462
333.13953
333.0726
339.04369
339.55912
338.66707
338.43755
337.96266
337.65479
337.35922
337.10264
336.87933
336.67381
336.49394
336.32087
336.17349
336.02136
335.89711
335.76136
335.65418
335.53113
335.43722
335.3242
335.24081
335.13587
335.06094
334.96263
334.89461
334.80182
334.73953
334.65143
334.59404
334.50999
334.45694
334.37644
334.32746
334.25015
334.20517
334.13074
334.0899
334.01806
333.98165
333.91205
333.88047
333.81268
333.78643
333.71983
333.69953
333.63328
333.61968
333.55273
333.54658
333.4784
339.12617
339.61057
338.91518
338.74002
338.33215
338.05383
337.77968
337.53418
337.31892
337.11655
336.93964
336.76651
336.61984
336.46617
336.34153
336.20357
336.09546
335.96994
335.87486
335.75928
335.67465
335.56719
335.49102
335.39027
335.32107
335.22596
335.16257
335.07224
335.01385
334.92763
334.8737
334.79107
334.74132
334.66189
334.61627
334.53969
334.49837
334.42432
334.38761
334.31575
334.28407
334.21396
334.18784
334.11891
334.09895
334.03046
334.01731
333.94844
333.94255
333.87318
339.19803
339.62764
339.10209
338.97547
338.63777
338.39352
338.14645
337.91704
337.71428
337.51884
337.34817
337.17776
337.0342
336.88116
336.75792
336.61947
336.51179
336.38517
336.28996
336.17299
336.08792
335.9789
335.90214
335.79979
335.72992
335.6332
335.56913
335.47719
335.41814
335.33032
335.27577
335.19152
335.14122
335.0601
335.01403
334.93568
334.89401
334.81809
334.78116
334.70732
334.67558
334.60341
334.57738
334.50635
334.48664
334.41612
334.40325
334.33266
334.32684
334.25631
339.26197
339.62751
339.24087
339.15459
338.88512
338.67695
338.46071
338.25128
338.06474
337.8796
337.71814
337.55313
337.41493
337.26467
337.14457
337.00736
336.90147
336.77518
336.68093
336.56374
336.47908
336.36953
336.29285
336.18977
336.11977
336.0222
335.95789
335.86502
335.80568
335.71684
335.66199
335.57664
335.52605
335.44371
335.3974
335.31769
335.27584
335.19842
335.16139
335.0859
335.05416
334.9802
334.95429
334.88142
334.86187
334.78958
334.77685
334.70474
334.69889
334.62723
339.31981
339.62195
339.34336
339.2884
339.0813
338.90886
338.7252
338.53837
338.37083
338.19876
338.04906
337.89183
337.76106
337.61559
337.50028
337.366
337.26322
337.13868
337.04643
336.93023
336.84684
336.73778
336.66187
336.55895
336.48941
336.39176
336.32769
336.23458
336.17534
336.0861
336.03129
335.94537
335.89479
335.81172
335.76541
335.68478
335.64296
335.56441
335.52745
335.45064
335.41901
335.34359
335.31782
335.2434
335.224
335.15019
335.13753
335.06409
335.05817
334.98542
339.37259
339.61777
339.41962
339.38725
339.23419
339.09519
338.94398
338.78101
338.63422
338.47728
338.34132
338.19389
338.0723
337.93343
337.82439
337.69461
337.59618
337.47474
337.38551
337.27147
337.19019
337.08264
337.0082
336.90633
336.83781
336.74088
336.67754
336.58487
336.52616
336.43713
336.38271
336.29679
336.24653
336.16322
336.11718
336.03608
335.99451
335.91526
335.87854
335.8008
335.7694
335.69286
335.66731
335.59165
335.57241
335.49735
335.48474
335.41019
335.40417
335.33043
339.42108
339.61823
339.47767
339.46027
339.35175
339.24253
339.12201
338.9829
338.85757
338.71704
338.59615
338.46009
338.34904
338.21832
338.11681
337.99294
337.89994
337.78285
337.69759
337.58681
337.50844
337.40337
337.33108
337.23112
337.16421
337.06875
337.00663
336.91509
336.85733
336.76913
336.71548
336.63009
336.58049
336.49744
336.45197
336.37085
336.32979
336.25024
336.21397
336.13568
336.10468
336.02737
336.00214
335.92557
335.90655
335.83055
335.81799
335.74255
335.73646
335.66186
339.46562
339.624
339.52353
339.515
339.44152
339.35758
339.26482
339.14846
339.04429
338.92068
338.81554
338.6919
338.59236
338.471
338.37799
338.26121
338.17457
338.06295
337.98248
337.87598
337.80123
337.69956
337.63005
337.53282
337.46805
337.37481
337.31439
337.22463
337.16825
337.08146
337.02897
336.94466
336.89604
336.81374
336.76914
336.68845
336.64816
336.56874
336.53315
336.4547
336.42428
336.34657
336.32179
336.24466
336.22593
336.14929
336.13685
336.06076
336.05464
335.97934
339.50663
339.63452
339.56144
339.5573
339.51016
339.44675
339.37804
339.28248
339.19835
339.09144
339.00208
338.89143
338.8039
338.69274
338.60891
338.50017
338.4206
338.31539
338.24039
338.13905
338.06856
337.97111
337.90494
337.8112
337.74908
337.65874
337.60046
337.51311
337.45851
337.37371
337.32273
337.24001
337.19271
337.11164
337.06821
336.9884
336.94914
336.87027
336.83558
336.75738
336.72772
336.65
336.62582
336.54848
336.53015
336.45318
336.44093
336.36445
336.35837
336.2826
339.54434
339.64851
339.59423
339.59144
339.56325
339.5158
339.46711
339.38986
339.32399
339.23296
339.15884
339.06122
338.98579
338.88531
338.81104
338.711
338.63899
338.54091
338.4719
338.37646
338.31076
338.21823
338.15589
338.06629
338.00729
337.92045
337.86475
337.78036
337.72793
337.64562
337.59652
337.51587
337.47021
337.39082
337.34885
337.27035
337.23239
337.15447
337.12092
337.04335
337.01465
336.9373
336.91386
336.83668
336.81886
336.7419
336.72994
336.65336
336.64738
336.57139
339.57907
339.66474
339.6236
339.62039
339.60525
339.56967
339.53701
339.47528
339.42547
339.34903
339.28914
339.20419
339.14054
339.05087
338.9862
338.89525
338.83106
338.74063
338.67797
338.589
338.52846
338.44144
338.38333
338.29843
338.24294
338.16013
338.10736
338.02644
337.97653
337.89719
337.85027
337.77214
337.72843
337.65113
337.6109
337.5341
337.49769
337.42111
337.38893
337.31238
337.28482
337.20821
337.18568
337.10901
337.09185
337.01523
337.00365
336.92727
336.92146
336.84554
339.61106
339.68209
339.65056
339.64604
339.63951
339.61239
339.59206
339.54307
339.50688
339.44344
339.39641
339.3234
339.27087
339.19182
339.13654
339.0548
338.99846
338.91597
338.85985
338.77773
338.72263
338.64153
338.58796
338.50821
338.45652
338.37819
338.32867
338.25164
338.20455
338.12856
338.08414
338.00889
337.96742
337.89257
337.85435
337.77961
337.745
337.67012
337.6395
337.56434
337.53811
337.4626
337.44114
337.36534
337.34895
337.27301
337.26193
337.18606
337.18049
337.10494
339.64058
339.69977
339.6756
339.66952
339.66842
339.64709
339.63587
339.597
339.57199
339.51979
339.48403
339.42197
339.37965
339.31074
339.26439
339.19172
339.14306
339.06861
339.01903
338.94399
338.89443
338.81956
338.7707
338.69643
338.64878
338.57526
338.52924
338.45643
338.41241
338.34012
338.29844
338.22641
338.1874
338.11534
338.07935
338.007
337.97439
337.90154
337.8727
337.79924
337.77453
337.70045
337.68021
337.60561
337.59013
337.51519
337.50471
337.42968
337.4244
337.34957
339.66784
339.71724
339.69898
339.69146
339.69362
339.67609
339.67133
339.64027
339.62412
339.58139
339.5552
339.50292
339.46972
339.41026
339.37218
339.30826
339.26692
339.20039
339.1572
339.08929
339.04528
338.97678
338.93272
338.86413
338.82066
338.75218
338.70984
338.6415
338.60075
338.53242
338.49368
338.42513
338.38879
338.31979
338.28622
338.21654
338.18611
338.11559
338.08868
338.01724
337.99418
337.92186
337.90297
337.8299
337.81544
337.74184
337.73203
337.65818
337.65324
337.57946
339.69308
339.7342
339.72081
339.71215
339.71617
339.70106
339.70067
339.67546
339.66608
339.63113
339.61284
339.5691
339.54382
339.49298
339.46236
339.40667
339.37215
339.31328
339.2762
339.21531
339.17671
339.1146
339.07533
339.01249
338.97326
338.90996
338.87139
338.80769
338.77034
338.70615
338.6705
338.60564
338.57212
338.5064
338.4754
338.40863
338.38053
338.3126
338.28775
338.21861
338.19732
338.12705
338.10961
338.03838
338.02503
337.95308
337.94402
337.87167
337.86711
337.79472
339.71647
339.75049
339.74116
339.73169
339.7367
339.72311
339.72551
339.70462
339.70022
339.67152
339.65952
339.62309
339.6045
339.56136
339.53731
339.48921
339.4609
339.40928
339.37791
339.32381
339.29039
339.23455
339.19995
339.14284
339.10782
339.04974
339.01498
338.95599
338.92211
338.86218
338.8297
338.76868
338.73808
338.6758
338.64749
338.58381
338.55815
338.49301
338.47033
338.40372
338.38431
338.31635
338.30045
338.23133
338.21916
338.14916
338.14091
338.07037
338.06621
337.99553
339.73819
339.76604
339.76007
339.75013
339.7556
339.74298
339.74704
339.72928
339.72837
339.7046
339.69747
339.66715
339.65406
339.61766
339.59927
339.55804
339.53526
339.49037
339.46424
339.41657
339.38802
339.33822
339.3081
339.2566
339.22569
339.17276
339.14178
339.08751
339.0571
339.00146
338.97221
338.91509
338.88747
338.82874
338.80318
338.74274
338.71958
338.65741
338.63696
338.57309
338.5556
338.49018
338.47587
338.40912
338.39818
338.3304
338.32299
338.25455
338.25082
338.18216
339.75839
339.78085
339.77761
339.76747
339.77307
339.76112
339.76604
339.75054
339.75197
339.73203
339.72851
339.70324
339.69453
339.66393
339.65028
339.61517
339.59721
339.55846
339.53704
339.49536
339.4713
339.42723
339.40133
339.35523
339.32825
339.28035
339.25304
339.20341
339.17644
339.12507
339.09902
339.04582
339.02119
338.96607
338.94327
338.88617
338.86553
338.80646
338.78826
338.72729
338.71176
338.64906
338.63638
338.57221
338.56253
338.49721
338.49066
338.42459
338.42129
338.35492
339.77718
339.79492
339.79383
339.78369
339.78923
339.7778
339.78305
339.76921
339.77207
339.75509
339.75415
339.73298
339.72766
339.70198
339.69219
339.66244
339.64858
339.61536
339.59808
339.56191
339.5419
339.50319
339.48118
339.4402
339.41694
339.37386
339.35006
339.30494
339.28129
339.23411
339.2112
339.16189
339.14021
339.0887
339.06864
339.01493
338.9968
338.9409
338.92496
338.867
338.85342
338.79361
338.78255
338.72114
338.71272
338.65007
338.64439
338.58091
338.57805
338.51422
339.79468
339.80826
339.80881
339.79879
339.80414
339.79317
339.79842
339.78583
339.78947
339.77476
339.77556
339.75768
339.75489
339.73332
339.72662
339.70149
339.69104
339.66272
339.649
339.61782
339.60141
339.56763
339.54917
339.51297
339.49315
339.45463
339.43416
339.39335
339.37288
339.32975
339.30987
339.26436
339.24554
339.19762
339.18023
339.1299
339.11423
339.06157
339.04782
338.99297
338.98131
338.92448
338.91502
338.85653
338.84934
338.78954
338.7847
338.72401
338.72158
338.66049
339.81096
339.82086
339.8226
339.81278
339.81785
339.80732
339.81234
339.80074
339.8047
339.79175
339.79364
339.7784
339.77741
339.75924
339.75492
339.73373
339.72606
339.70201
339.69132
339.66458
339.65131
339.62201
339.60673
339.57494
339.55827
339.52401
339.50663
339.46988
339.45242
339.41315
339.39616
339.35433
339.33825
339.29383
339.27901
339.23204
339.21873
339.16931
339.15769
339.10598
339.09617
339.04242
339.03449
338.97902
338.97303
338.91621
338.91218
338.85444
338.85243
338.79425
339.82609
339.83273
339.83524
339.82567
339.83037
339.82028
339.82495
339.81417
339.81815
339.80659
339.80908
339.79594
339.79618
339.7808
339.77825
339.76039
339.75493
339.73457
339.72638
339.70355
339.69298
339.66769
339.65521
339.62743
339.6136
339.58327
339.56871
339.53577
339.52109
339.48549
339.47119
339.43288
339.41938
339.37836
339.36598
339.3223
339.31123
339.26502
339.25541
339.20686
339.19881
339.14818
339.14172
339.08934
339.08448
339.03073
339.02748
338.9728
338.97118
338.91604
339.84013
339.84383
339.84675
339.83743
339.84172
339.83207
339.83634
339.82627
339.83008
339.81963
339.82239
339.81093
339.81194
339.79884
339.79757
339.78249
339.77873
339.76153
339.75536
339.73595
339.72764
339.70591
339.69585
339.67167
339.66036
339.63361
339.62161
339.59219
339.58005
339.54787
339.53607
339.50109
339.49
339.45223
339.44211
339.40163
339.39266
339.3496
339.34189
339.29647
339.29006
339.24256
339.23746
339.18822
339.18441
339.1338
339.13127
339.07972
339.07846
339.02644
339.85306
339.8541
339.85714
339.84807
339.85191
339.84271
339.84654
339.83714
339.84065
339.83115
339.83392
339.82382
339.82527
339.81403
339.81364
339.80086
339.79838
339.78385
339.7793
339.76282
339.75639
339.73777
339.72978
339.70881
339.69969
339.67618
339.66644
339.64024
339.63038
339.60138
339.59185
339.56
339.55111
339.51643
339.5084
339.47099
339.46396
339.42397
339.418
339.37566
339.37076
339.32636
339.32252
339.2764
339.27357
339.2261
339.22424
339.17585
339.17493
339.12607
339.86486
339.86346
339.86637
339.85757
339.86095
339.85221
339.8556
339.84683
339.85
339.8413
339.84394
339.83497
339.83661
339.82689
339.82706
339.8162
339.81464
339.80235
339.79905
339.78508
339.78017
339.76425
339.75799
339.73985
339.73262
339.71199
339.70424
339.68095
339.67313
339.64704
339.63953
339.6106
339.60369
339.57193
339.56579
339.53131
339.52603
339.489
339.48461
339.44527
339.44174
339.40039
339.39769
339.35466
339.3527
339.30837
339.3071
339.26187
339.26125
339.21556
339.87536
339.87179
339.87441
339.8659
339.86883
339.86057
339.86355
339.85539
339.8582
339.85023
339.85265
339.84463
339.84629
339.83783
339.83832
339.82904
339.82813
339.81771
339.81535
339.80351
339.7998
339.7862
339.78137
339.76569
339.76005
339.74198
339.73594
339.71526
339.70922
339.68578
339.68007
339.65382
339.64867
339.61964
339.61517
339.58347
339.57975
339.54555
339.54257
339.50612
339.50382
339.46543
339.46374
339.42374
339.42256
339.38131
339.38057
339.33845
339.3381
339.29554
339.88432
339.87895
339.88122
339.87307
339.87559
339.86783
339.87043
339.86287
339.86533
339.85803
339.86019
339.85299
339.85456
339.84714
339.8478
339.83982
339.83933
339.83047
339.82881
339.81875
339.81598
339.80436
339.80068
339.78712
339.78281
339.76698
339.76239
339.74404
339.73951
339.71848
339.71431
339.69053
339.6869
339.6604
339.65741
339.62831
339.62596
339.59445
339.59269
339.55902
339.55779
339.52226
339.52145
339.48438
339.48388
339.44563
339.44535
339.40628
339.40616
339.36665
339.89144
339.88484
339.88678
339.87906
339.88124
339.87401
339.87627
339.86931
339.87145
339.86478
339.86667
339.86019
339.86162
339.85508
339.85578
339.84888
339.84865
339.84108
339.83991
339.83134
339.82928
339.81933
339.81656
339.80483
339.80159
339.78771
339.78432
339.76802
339.76478
339.74589
339.74304
339.7215
339.71918
339.69502
339.69328
339.66661
339.66543
339.63646
339.63576
339.60473
339.60441
339.57161
339.57155
339.5373
339.53738
339.50202
339.50213
339.466
339.46607
339.42953
339.89652
339.88939
339.8911
339.88391
339.88583
339.87916
339.88115
339.87477
339.87663
339.87056
339.87219
339.86636
339.86761
339.86183
339.86248
339.85649
339.8564
339.8499
339.84905
339.84172
339.84018
339.83163
339.82956
339.81938
339.817
339.80481
339.80239
339.78789
339.78571
339.76873
339.76697
339.74745
339.74623
339.7242
339.72352
339.6991
339.69891
339.6723
339.67249
339.64394
339.64438
339.61417
339.61474
339.58318
339.58374
339.55114
339.55158
339.51826
339.5185
339.4848
339.89956
339.89262
339.89427
339.8877
339.88944
339.88334
339.88511
339.87931
339.88093
339.87543
339.87682
339.87158
339.87265
339.86752
339.86809
339.86285
339.86282
339.8572
339.85656
339.85025
339.84908
339.84169
339.84014
339.83127
339.82955
339.81879
339.81715
339.80422
339.80288
339.7876
339.78672
339.76902
339.76869
339.7486
339.74878
339.72644
339.72704
339.70264
339.70354
339.67732
339.67838
339.65062
339.65169
339.62267
339.62361
339.59363
339.59433
339.56369
339.56406
339.53305
339.90086
339.89469
339.89639
339.89051
339.89215
339.88663
339.88823
339.88299
339.88442
339.87945
339.88065
339.87595
339.87683
339.87228
339.87274
339.86814
339.86809
339.86321
339.86267
339.8572
339.85627
339.84985
339.84867
339.84089
339.83966
339.83013
339.82907
339.8175
339.81681
339.80302
339.80284
339.78676
339.78712
339.7688
339.76965
339.74921
339.75044
339.72807
339.72953
339.70548
339.70702
339.68154
339.683
339.65636
339.6576
339.63008
339.63098
339.60286
339.60333
339.57487
339.90092
339.89581
339.89764
339.89246
339.89406
339.88913
339.8906
339.8859
339.88717
339.88272
339.88375
339.87953
339.88026
339.8762
339.87654
339.87247
339.87238
339.86809
339.86759
339.86281
339.86202
339.85638
339.85545
339.84857
339.84768
339.83919
339.83855
339.82815
339.82794
339.81545
339.81578
339.80115
339.80203
339.7853
339.78665
339.76794
339.76964
339.74914
339.75102
339.72896
339.73085
339.70749
339.70924
339.68482
339.68627
339.66106
339.6621
339.63633
339.63687
339.6108
339.90026
339.89624
339.89818
339.89371
339.89529
339.89092
339.8923
339.88812
339.88927
339.88528
339.88617
339.8824
339.88298
339.87936
339.87957
339.87596
339.87578
339.87198
339.87147
339.86724
339.8665
339.8615
339.86071
339.85457
339.8539
339.84627
339.84591
339.83651
339.83663
339.82528
339.82596
339.81261
339.81385
339.79854
339.80024
339.7831
339.78511
339.76633
339.76848
339.74827
339.7504
339.72899
339.73092
339.70856
339.71015
339.68706
339.68819
339.66461
339.6652
339.64134
339.89929
339.89622
339.89821
339.89437
339.89595
339.89212
339.89343
339.88972
339.89078
339.88723
339.888
339.88462
339.88508
339.88182
339.88192
339.87867
339.87839
339.87499
339.87441
339.87061
339.86987
339.86538
339.86463
339.8591
339.85853
339.85162
339.85142
339.84286
339.84317
339.83281
339.8337
339.82148
339.82293
339.8089
339.81081
339.79508
339.79729
339.78005
339.78237
339.76384
339.7661
339.74648
339.74851
339.72804
339.7297
339.70858
339.70976
339.68819
339.68879
339.66698
339.89822
339.8959
339.89786
339.89459
339.89615
339.89281
339.89407
339.8908
339.89177
339.88862
339.88929
339.88626
339.8866
339.88365
339.88362
339.88067
339.88028
339.87717
339.8765
339.87303
339.87223
339.86813
339.86736
339.8623
339.86175
339.85543
339.85528
339.84743
339.84782
339.8383
339.83929
339.82805
339.8296
339.81669
339.81869
339.80423
339.80651
339.79068
339.79306
339.77605
339.77835
339.76037
339.76243
339.74369
339.74536
339.72604
339.72722
339.70749
339.7081
339.68816
339.89714
339.89542
339.89726
339.89446
339.896
339.89308
339.8943
339.89141
339.89233
339.88951
339.8901
339.88736
339.88758
339.88489
339.88472
339.88199
339.88147
339.87858
339.87779
339.87456
339.87365
339.86984
339.86898
339.8643
339.86369
339.85783
339.85765
339.85039
339.85076
339.84196
339.84294
339.83256
339.8341
339.82219
339.82417
339.81085
339.81311
339.79854
339.80089
339.78526
339.78752
339.77103
339.77304
339.75587
339.75751
339.73981
339.74097
339.72293
339.72352
339.70528
339.89606
339.89483
339.89648
339.89408
339.89556
339.89302
339.89419
339.89164
339.89249
339.88997
339.89046
339.88796
339.88806
339.88555
339.88525
339.88267
339.88199
339.87924
339.8783
339.87523
339.87417
339.87056
339.86957
339.86515
339.86442
339.85894
339.85864
339.85187
339.85214
339.84395
339.84483
339.8352
339.83664
339.82561
339.82749
339.81518
339.81733
339.80389
339.80613
339.79175
339.79391
339.77875
339.78067
339.76492
339.76648
339.75027
339.75137
339.73485
339.73541
339.71872
339.89495
339.89417
339.89559
339.8935
339.89492
339.89269
339.89381
339.89154
339.89232
339.89003
339.89042
339.88809
339.88806
339.88567
339.8852
339.8827
339.88185
339.87917
339.87804
339.87505
339.87381
339.87031
339.86914
339.86492
339.86402
339.85881
339.85835
339.85197
339.85207
339.8444
339.8451
339.83612
339.83738
339.82712
339.82883
339.81741
339.81939
339.80697
339.80904
339.79577
339.79777
339.78382
339.78561
339.77113
339.77258
339.75771
339.75872
339.74358
339.74411
339.72882
339.8938
339.89346
339.89461
339.89278
339.8941
339.89215
339.89319
339.89115
339.89185
339.88973
339.88999
339.88777
339.88758
339.88523
339.88458
339.88208
339.88103
339.87834
339.877
339.87401
339.87256
339.86911
339.86773
339.86362
339.86249
339.8575
339.85681
339.85075
339.85062
339.84339
339.84386
339.83543
339.83646
339.82688
339.82835
339.81773
339.81948
339.80796
339.80981
339.79754
339.79934
339.78648
339.78809
339.77476
339.77607
339.7624
339.76332
339.74942
339.7499
339.73587
339.8926
339.89269
339.89355
339.89194
339.89316
339.89142
339.89239
339.89051
339.89109
339.88907
339.88918
339.88698
339.88659
339.88421
339.88334
339.88078
339.8795
339.87672
339.87515
339.87209
339.8704
339.86693
339.8653
339.86124
339.85987
339.85501
339.85407
339.84825
339.84785
339.84098
339.84118
339.83323
339.83398
339.82499
339.82618
339.81627
339.81774
339.80702
339.80862
339.79725
339.79881
339.78692
339.78833
339.77604
339.77718
339.7646
339.76541
339.75263
339.75304
339.74015
339.89134
339.89188
339.89243
339.891
339.89211
339.89054
339.8914
339.88963
339.89006
339.88806
339.88797
339.88571
339.88508
339.88258
339.88145
339.87874
339.8772
339.87427
339.87244
339.86925
339.86729
339.86374
339.86185
339.85777
339.85612
339.85134
339.85012
339.84448
339.84379
339.83722
339.83711
339.82957
339.83001
339.82154
339.82242
339.81313
339.8143
339.8043
339.80561
339.79504
339.79635
339.78533
339.78652
339.77515
339.77613
339.76452
339.7652
339.75343
339.75378
339.74191
339.88999
339.89101
339.89123
339.88998
339.89097
339.88952
339.89025
339.88851
339.88873
339.88667
339.8863
339.8839
339.88297
339.88028
339.87884
339.87592
339.87406
339.87093
339.8688
339.86543
339.86318
339.8595
339.85731
339.85317
339.85124
339.84648
339.84496
339.83946
339.83846
339.83212
339.83169
339.8245
339.82461
339.8166
339.81714
339.8084
339.80926
339.7999
339.80091
339.79105
339.79209
339.78185
339.78281
339.77228
339.77307
339.76234
339.7629
339.75203
339.75232
339.74137
339.88856
339.8901
339.88997
339.88887
339.88973
339.88836
339.8889
339.88711
339.88706
339.88483
339.88413
339.88149
339.8802
339.87722
339.87543
339.87221
339.87002
339.86662
339.86416
339.86056
339.858
339.85414
339.85166
339.84741
339.84518
339.84041
339.83858
339.83317
339.83185
339.82571
339.82494
339.81805
339.81782
339.81021
339.81042
339.80217
339.80269
339.7939
339.79461
339.7854
339.78616
339.77662
339.77735
339.76757
339.76818
339.75823
339.75866
339.74861
339.74883
339.73872
339.88704
339.88914
339.88863
339.8877
339.8884
339.88704
339.88733
339.88539
339.88497
339.88247
339.88134
339.87837
339.87665
339.87331
339.8711
339.86754
339.86497
339.86124
339.85844
339.85456
339.85169
339.84761
339.84482
339.84044
339.83791
339.8331
339.83095
339.8256
339.82396
339.81798
339.81688
339.81025
339.80968
339.80242
339.80229
339.79448
339.79468
339.7864
339.7868
339.77817
339.77866
339.76976
339.77025
339.76115
339.76158
339.75235
339.75265
339.74334
339.7435
339.73414
339.8854
339.88813
339.8872
339.88645
339.88694
339.88553
339.88547
339.88326
339.88237
339.87948
339.87783
339.87442
339.8722
339.86842
339.86576
339.86178
339.8588
339.85471
339.85155
339.84736
339.84416
339.83984
339.83675
339.83221
339.82938
339.8245
339.82206
339.81674
339.81478
339.80893
339.80751
339.80111
339.80021
339.79327
339.79281
339.78539
339.78527
339.77746
339.77757
339.76946
339.76968
339.76136
339.76162
339.75315
339.75339
339.74482
339.745
339.73636
339.73646
339.72779
339.88365
339.88709
339.88569
339.88512
339.88533
339.88375
339.88323
339.8806
339.87911
339.87571
339.87344
339.86951
339.86671
339.86243
339.85926
339.85483
339.85141
339.84693
339.84339
339.83888
339.83535
339.83078
339.82739
339.82268
339.81956
339.8146
339.81187
339.80656
339.80432
339.79858
339.79685
339.79065
339.78943
339.78278
339.78201
339.77495
339.77452
339.76715
339.76696
339.75934
339.75931
339.75152
339.75157
339.74366
339.74373
339.73576
339.73582
339.72781
339.72784
339.71981
339.88175
339.88604
339.88409
339.88369
339.88349
339.8816
339.88045
339.87725
339.87503
339.871
339.868
339.86346
339.86002
339.85518
339.85147
339.84656
339.84269
339.83779
339.83388
339.82903
339.82519
339.82035
339.81669
339.81179
339.80841
339.80336
339.80038
339.79507
339.79255
339.78691
339.7849
339.77889
339.77738
339.77099
339.76992
339.7632
339.76249
339.7555
339.75506
339.74788
339.74762
339.74031
339.74016
339.73278
339.7327
339.72528
339.72524
339.71779
339.71778
339.71033
339.8797
339.88501
339.88236
339.88212
339.88132
339.87895
339.87697
339.87302
339.86992
339.86513
339.86133
339.85609
339.85197
339.84654
339.84227
339.83684
339.83253
339.82721
339.82294
339.81775
339.81361
339.80851
339.80459
339.79952
339.79591
339.79077
339.78755
339.78225
339.77949
339.77394
339.77168
339.76583
339.76406
339.75792
339.75659
339.75018
339.74922
339.7426
339.74192
339.73515
339.73468
339.72783
339.7275
339.72061
339.72038