/*--------------------------------*- C++ -*----------------------------------*\
| =========                 |                                                 |
| \\      /  F ield         | OpenFOAM: The Open Source CFD Toolbox           |
|  \\    /   O peration     | Version:  2312                                  |
|   \\  /    A nd           | Website:  www.openfoam.com                      |
|    \\/     M anipulation  |                                                 |
\*---------------------------------------------------------------------------*/
FoamFile
{
    version     2.0;
    format      ascii;
    arch        "LSB;label=32;scalar=64";
    class       surfaceScalarField;
    location    "4";
    object      phi_0;
}
// * * * * * * * * * * * * * * * * * * * * * * * * * * * * * * * * * * * * * //

dimensions      [0 3 -1 0 0 0 0];

oriented        oriented;

internalField   nonuniform List<scalar> 
7870
(
1.0210453e-10
2.3556455e-09
1.0156149e-10
5.430383e-13
9.4557451e-11
7.0040402e-12
9.3961488e-11
5.9596033e-13
9.5088896e-11
-1.1274073e-12
9.3655336e-11
1.4335597e-12
9.4991215e-11
-1.3358788e-12
9.3710114e-11
1.2811008e-12
9.4919746e-11
-1.2096315e-12
9.3777692e-11
1.1420541e-12
9.4852332e-11
-1.0746398e-12
9.3839645e-11
1.0126869e-12
9.4792708e-11
-9.5306264e-13
9.3894963e-11
8.9774515e-13
9.4740321e-11
-8.4535765e-13
9.3943905e-11
7.9641618e-13
9.4694241e-11
-7.5033619e-13
9.3987054e-11
7.0718696e-13
9.4653703e-11
-6.6664936e-13
9.4025022e-11
6.2868071e-13
9.4618071e-11
-5.9304882e-13
9.4058377e-11
5.5969456e-13
9.4586797e-11
-5.2842048e-13
9.4087622e-11
4.9917486e-13
9.4559403e-11
-4.7178078e-13
9.4113205e-11
4.4619784e-13
9.4535471e-11
-4.2226595e-13
9.4135516e-11
3.9995486e-13
9.4514637e-11
-3.7912025e-13
9.4154897e-11
3.5973996e-13
9.4496581e-11
-3.4168491e-13
9.4171642e-11
3.2493908e-13
9.4481031e-11
-3.0938817e-13
9.418601e-11
2.9502067e-13
9.4467746e-11
-2.8173653e-13
9.4198219e-11
2.6952748e-13
9.4456526e-11
-2.5830717e-13
9.4208457e-11
2.4806959e-13
9.4447198e-11
-2.3874152e-13
9.421688e-11
2.3031836e-13
9.443962e-11
-2.2273975e-13
9.4223618e-11
2.1600152e-13
9.4433673e-11
-2.1005517e-13
9.4228769e-11
2.0490437e-13
9.4429249e-11
-2.0048013e-13
9.4232402e-11
1.9684674e-13
9.4426527e-11
-1.9412462e-13
9.4236258e-11
1.9026845e-13
9.4432392e-11
-1.9613334e-13
1.8251847e-13
2.7971025e-10
4.5336852e-09
2.9252604e-10
-1.2272757e-11
2.7443681e-10
2.5093279e-11
2.7368234e-10
1.3504173e-12
2.7494243e-10
-2.3874906e-12
2.7288306e-10
3.4929298e-12
2.7477337e-10
-3.226187e-12
2.7294121e-10
3.1132564e-12
2.7467967e-10
-2.9480914e-12
2.7303592e-10
2.7858035e-12
2.7458248e-10
-2.6211934e-12
2.7312404e-10
2.4711225e-12
2.7449618e-10
-2.3251942e-12
2.7320343e-10
2.1904903e-12
2.7442064e-10
-2.0625679e-12
2.7327389e-10
1.9431676e-12
2.7435432e-10
-1.8307656e-12
2.7333607e-10
1.7254347e-12
2.7429601e-10
-1.6265854e-12
2.733908e-10
1.5338865e-12
2.7424476e-10
-1.447006e-12
2.7343888e-10
1.3655714e-12
2.7419978e-10
-1.2893157e-12
2.7348104e-10
1.2179136e-12
2.7416037e-10
-1.1511162e-12
2.7351791e-10
1.0886577e-12
2.7412595e-10
-1.0303e-12
2.7355007e-10
9.7583046e-13
2.7409597e-10
-9.2502314e-13
2.73578e-10
8.7770928e-13
2.7407e-10
-8.3367823e-13
2.7360214e-10
7.9279603e-13
2.7404762e-10
-7.5487e-13
2.7362285e-10
7.1979366e-13
2.7402851e-10
-6.8739413e-13
2.7364045e-10
6.5758645e-13
2.7401236e-10
-6.302187e-13
2.7365521e-10
6.0522276e-13
2.7399893e-10
-5.8246832e-13
2.7366735e-10
5.619002e-13
2.7398802e-10
-5.4341075e-13
2.7367707e-10
5.269532e-13
2.7397946e-10
-5.1244247e-13
2.736845e-10
4.9986031e-13
2.7397305e-10
-4.8903216e-13
2.7368968e-10
4.8022527e-13
2.7396902e-10
-4.734682e-13
2.7369592e-10
4.6336912e-13
2.7398398e-10
-4.8419355e-13
4.4370834e-13
4.4875583e-10
6.5426794e-09
4.7641751e-10
-3.993445e-11
4.4931197e-10
5.2198825e-11
4.491181e-10
1.5442863e-12
4.4976541e-10
-3.0348008e-12
4.47862e-10
5.3963391e-12
4.4960095e-10
-4.9651324e-12
4.4789466e-10
4.8195501e-12
4.4952851e-10
-4.5819461e-12
4.4798071e-10
4.3336038e-12
4.4943695e-10
-4.0774266e-12
4.480623e-10
3.8457725e-12
4.4935504e-10
-3.6179367e-12
4.4813675e-10
3.4087755e-12
4.4928373e-10
-3.209543e-12
4.4820313e-10
3.0237661e-12
4.4922127e-10
-2.8489034e-12
4.4826179e-10
2.6849146e-12
4.4916639e-10
-2.5311899e-12
4.4831343e-10
2.3868445e-12
4.4911817e-10
-2.2517429e-12
4.4835881e-10
2.1249358e-12
4.4907584e-10
-2.0063537e-12
4.4839859e-10
1.8951714e-12
4.4903876e-10
-1.7912927e-12
4.4843338e-10
1.6940397e-12
4.4900636e-10
-1.603281e-12
4.4846372e-10
1.5184695e-12
4.4897815e-10
-1.4394491e-12
4.4849008e-10
1.3657803e-12
4.489537e-10
-1.2972953e-12
4.4851285e-10
1.2336409e-12
4.4893263e-10
-1.1746482e-12
4.4853239e-10
1.1200329e-12
4.4891463e-10
-1.0696332e-12
4.4854899e-10
1.0232198e-12
4.4889942e-10
-9.8064382e-13
4.4856292e-10
9.4172011e-13
4.4888677e-10
-9.0631699e-13
4.4857439e-10
8.7428401e-13
4.4887649e-10
-8.4551159e-13
4.4858357e-10
8.1987308e-13
4.4886841e-10
-7.9728465e-13
4.4859059e-10
7.7767848e-13
4.4886233e-10
-7.6076551e-13
4.4859541e-10
7.4714341e-13
4.488584e-10
-7.3646448e-13
4.4860241e-10
7.1936735e-13
4.4888139e-10
-7.6317953e-13
6.8807121e-13
6.1547738e-10
8.384952e-09
6.5441961e-10
-7.8876692e-11
6.1956196e-10
8.7056479e-11
6.1983991e-10
1.2663375e-12
6.1995e-10
-3.1448936e-12
6.1822572e-10
7.1206234e-12
6.1982008e-10
-6.5594952e-12
6.182459e-10
6.3937339e-12
6.1977302e-10
-6.1090644e-12
6.1832466e-10
5.7819644e-12
6.1968753e-10
-5.4402993e-12
6.1839971e-10
5.1335951e-12
6.1961023e-10
-4.8284548e-12
6.1846908e-10
4.5499187e-12
6.1954329e-10
-4.2837491e-12
6.1853121e-10
4.0358449e-12
6.194848e-10
-3.8024986e-12
6.1858619e-10
3.5835307e-12
6.1943346e-10
-3.3784637e-12
6.1863461e-10
3.1856944e-12
6.1938835e-10
-3.0054821e-12
6.1867715e-10
2.8361327e-12
6.1934875e-10
-2.6779519e-12
6.1871445e-10
2.5294732e-12
6.1931406e-10
-2.3908988e-12
6.1874707e-10
2.2610263e-12
6.1928374e-10
-2.1399471e-12
6.1877551e-10
2.0266922e-12
6.1925733e-10
-1.9212668e-12
6.1880022e-10
1.8228933e-12
6.1923444e-10
-1.7315184e-12
6.1882156e-10
1.6465181e-12
6.1921472e-10
-1.5678034e-12
6.1883988e-10
1.4948726e-12
6.1919787e-10
-1.4276189e-12
6.1885545e-10
1.3656383e-12
6.1918362e-10
-1.3088198e-12
6.1886851e-10
1.2568371e-12
6.1917177e-10
-1.209585e-12
6.1887926e-10
1.1667987e-12
6.1916214e-10
-1.1283889e-12
6.1888788e-10
1.0941325e-12
6.1915456e-10
-1.0639665e-12
6.1889448e-10
1.0377594e-12
6.1914881e-10
-1.0150928e-12
6.1889893e-10
9.9701953e-13
6.1914492e-10
-9.8245924e-13
6.1890626e-10
9.5802823e-13
6.19174e-10
-1.0309176e-12
9.1591813e-13
7.7202105e-10
1.0070681e-08
8.2517471e-10
-1.3203036e-10
7.8514999e-10
1.2708121e-10
7.8584676e-10
5.6956523e-13
7.8549339e-10
-2.7915276e-12
7.8397458e-10
8.6394341e-12
7.8543064e-10
-8.0155495e-12
7.839945e-10
7.8298706e-12
7.854129e-10
-7.5274609e-12
7.8406732e-10
7.1275455e-12
7.8533398e-10
-6.7069644e-12
7.8413588e-10
6.3316953e-12
7.8526151e-10
-5.9540855e-12
7.8420006e-10
5.6113734e-12
7.8519912e-10
-5.2828072e-12
7.842578e-10
4.9771582e-12
7.8514474e-10
-4.6894393e-12
7.8430898e-10
4.4192958e-12
7.8509705e-10
-4.1665332e-12
7.8435407e-10
3.9286737e-12
7.8505515e-10
-3.7065605e-12
7.8439368e-10
3.4975966e-12
7.8501836e-10
-3.3026324e-12
7.8442841e-10
3.1194268e-12
7.8498613e-10
-2.9486195e-12
7.8445878e-10
2.7883773e-12
7.8495796e-10
-2.6391264e-12
7.8448526e-10
2.4993918e-12
7.8493342e-10
-2.3694297e-12
7.8450826e-10
2.2480585e-12
7.8491215e-10
-2.1354109e-12
7.8452813e-10
2.0305403e-12
7.8489382e-10
-1.9334945e-12
7.8454518e-10
1.8435143e-12
7.8487815e-10
-1.7605932e-12
7.8455967e-10
1.6841209e-12
7.8486491e-10
-1.6140603e-12
7.8457183e-10
1.5499191e-12
7.8485389e-10
-1.4916476e-12
7.8458184e-10
1.4388463e-12
7.8484492e-10
-1.3914696e-12
7.8458988e-10
1.349181e-12
7.8483787e-10
-1.3119583e-12
7.8459604e-10
1.2795901e-12
7.8483247e-10
-1.2515221e-12
7.8460012e-10
1.229367e-12
7.8482861e-10
-1.2109484e-12
7.8460752e-10
1.1791172e-12
7.8486219e-10
-1.2855845e-12
1.1261704e-12
9.2739453e-10
1.1601036e-08
9.9013784e-10
-1.9477368e-10
9.4608485e-10
1.7113421e-10
9.4711339e-10
-4.5898109e-13
9.4639666e-10
-2.0747942e-12
9.451101e-10
9.9259955e-12
9.4643384e-10
-9.3392878e-12
9.4514029e-10
9.1234232e-12
9.4644864e-10
-8.835819e-12
9.4520841e-10
8.3677772e-12
9.4637671e-10
-7.8752647e-12
9.4527057e-10
7.437836e-12
9.4630927e-10
-6.9927775e-12
9.4532946e-10
6.5911782e-12
9.4625153e-10
-6.2048796e-12
9.4538272e-10
5.8459777e-12
9.4620137e-10
-5.5080935e-12
9.4542998e-10
5.1906803e-12
9.461574e-10
-4.8939501e-12
9.4547165e-10
4.6144254e-12
9.4611878e-10
-4.3536924e-12
9.4550826e-10
4.1081223e-12
9.4608488e-10
-3.8792528e-12
9.4554034e-10
3.6639598e-12
9.4605516e-10
-3.4634384e-12
9.455684e-10
3.2751376e-12
9.4602919e-10
-3.0999132e-12
9.4559286e-10
2.9357163e-12
9.4600656e-10
-2.7831295e-12
9.4561411e-10
2.6405143e-12
9.4598695e-10
-2.5082495e-12
9.4563246e-10
2.3850248e-12
9.4597004e-10
-2.2710729e-12
9.4564821e-10
2.1653446e-12
9.4595559e-10
-2.0679724e-12
9.456616e-10
1.9781141e-12
9.4594337e-10
-1.8958375e-12
9.4567283e-10
1.8204645e-12
9.4593321e-10
-1.7520251e-12
9.4568208e-10
1.6899697e-12
9.4592493e-10
-1.6343158e-12
9.4568951e-10
1.5845997e-12
9.4591841e-10
-1.5408575e-12
9.4569522e-10
1.5027829e-12
9.4591338e-10
-1.4696848e-12
9.4569892e-10
1.4438214e-12
9.4590955e-10
-1.42157e-12
9.4570618e-10
1.3824846e-12
9.4594623e-10
-1.5256362e-12
1.3179045e-12
1.0737104e-09
1.2985076e-08
1.1477073e-09
-2.6877059e-10
1.1023854e-09
2.1645615e-10
1.1036077e-09
-1.6812815e-12
1.1026512e-09
-1.1183332e-12
1.1016328e-09
1.094442e-11
1.102831e-09
-1.0537449e-11
1.1016831e-09
1.0271342e-11
1.1028807e-09
-1.0033479e-11
1.1017476e-09
9.5009317e-12
1.1028161e-09
-8.9437826e-12
1.1018034e-09
8.4504837e-12
1.1027538e-09
-7.9431438e-12
1.101857e-09
7.4879956e-12
1.1027008e-09
-7.0487162e-12
1.1019057e-09
6.6411274e-12
1.1026549e-09
-6.2573486e-12
1.101949e-09
5.8966437e-12
1.1026147e-09
-5.5597266e-12
1.1019871e-09
5.2420262e-12
1.1025794e-09
-4.9460002e-12
1.1020207e-09
4.6668886e-12
1.1025485e-09
-4.407033e-12
1.1020501e-09
4.1623413e-12
1.1025213e-09
-3.934661e-12
1.1020758e-09
3.7206555e-12
1.1024976e-09
-3.5216885e-12
1.1020982e-09
3.3350839e-12
1.1024769e-09
-3.1618134e-12
1.1021176e-09
2.99974e-12
1.1024589e-09
-2.8495393e-12
1.1021345e-09
2.7095047e-12
1.1024435e-09
-2.5800942e-12
1.1021489e-09
2.4599434e-12
1.1024303e-09
-2.3493561e-12
1.1021611e-09
2.2472386e-12
1.1024191e-09
-2.1537896e-12
1.1021714e-09
2.0681295e-12
1.1024098e-09
-1.990389e-12
1.1021799e-09
1.9198558e-12
1.1024022e-09
-1.8566272e-12
1.1021867e-09
1.8001019e-12
1.1023962e-09
-1.7503888e-12
1.102192e-09
1.7070737e-12
1.1023916e-09
-1.6693322e-12
1.1021953e-09
1.6401348e-12
1.1023878e-09
-1.6140919e-12
1.1022022e-09
1.56806e-12
1.1024264e-09
-1.7497913e-12
1.4906395e-12
1.2170721e-09
1.4225754e-08
1.300028e-09
-3.5172654e-10
1.2540807e-09
2.624035e-10
1.2552867e-09
-2.8872723e-12
1.2542523e-09
-8.3918219e-14
1.253545e-09
1.1651639e-11
1.2546239e-09
-1.161634e-11
1.253623e-09
1.1272288e-11
1.2547097e-09
-1.1120141e-11
1.2536845e-09
1.0526101e-11
1.2546524e-09
-9.9117168e-12
1.2537342e-09
9.368733e-12
1.2545954e-09
-8.8043787e-12
1.2537824e-09
8.301038e-12
1.2545472e-09
-7.8135835e-12
1.2538264e-09
7.3619175e-12
1.2545056e-09
-6.9365498e-12
1.2538657e-09
6.5365756e-12
1.2544693e-09
-6.1632801e-12
1.2539004e-09
5.8109337e-12
1.2544373e-09
-5.482966e-12
1.2539308e-09
5.173413e-12
1.2544093e-09
-4.8855119e-12
1.2539575e-09
4.6141412e-12
1.2543847e-09
-4.3618769e-12
1.2539808e-09
4.1245473e-12
1.2543632e-09
-3.9040861e-12
1.2540011e-09
3.6971513e-12
1.2543445e-09
-3.5051539e-12
1.2540188e-09
3.3254285e-12
1.2543282e-09
-3.1589873e-12
1.254034e-09
3.0037043e-12
1.2543142e-09
-2.8602952e-12
1.2540471e-09
2.7270625e-12
1.2543023e-09
-2.6045072e-12
1.2540582e-09
2.4912703e-12
1.2542921e-09
-2.3877021e-12
1.2540676e-09
2.2927109e-12
1.2542837e-09
-2.2065446e-12
1.2540753e-09
2.1283199e-12
1.2542769e-09
-2.0582269e-12
1.2540814e-09
1.9955196e-12
1.2542714e-09
-1.9403915e-12
1.2540862e-09
1.8923091e-12
1.2542672e-09
-1.8503232e-12
1.2540892e-09
1.8181627e-12
1.2542635e-09
-1.7883941e-12
1.2540957e-09
1.7358444e-12
1.2543029e-09
-1.9569993e-12
1.6442344e-12
1.3564891e-09
1.5327015e-08
1.4449384e-09
-4.4017579e-10
1.4011588e-09
3.0618313e-10
1.4021377e-09
-3.8661888e-12
1.40119e-09
8.6378319e-13
1.4008483e-09
1.1993264e-11
1.4018147e-09
-1.2582736e-11
1.4009606e-09
1.2126462e-11
1.4019361e-09
-1.2095646e-11
1.401019e-09
1.1443176e-11
1.401886e-09
-1.0778755e-11
1.4010625e-09
1.0192249e-11
1.4018343e-09
-9.5761748e-12
1.4011054e-09
9.0300013e-12
1.401791e-09
-8.4991984e-12
1.4011448e-09
8.0080837e-12
1.4017537e-09
-7.5454422e-12
1.40118e-09
7.1102424e-12
1.4017211e-09
-6.7043828e-12
1.4012111e-09
6.32094e-12
1.4016925e-09
-5.9643866e-12
1.4012385e-09
5.6275095e-12
1.4016674e-09
-5.3145087e-12
1.4012624e-09
5.0191932e-12
1.4016454e-09
-4.7449244e-12
1.4012833e-09
4.486664e-12
1.4016262e-09
-4.2469617e-12
1.4013016e-09
4.0217853e-12
1.4016094e-09
-3.8130224e-12
1.4013174e-09
3.6174601e-12
1.4015949e-09
-3.436478e-12
1.4013311e-09
3.2675161e-12
1.4015824e-09
-3.1115726e-12
1.4013428e-09
2.9666054e-12
1.4015716e-09
-2.8333329e-12
1.4013528e-09
2.7101224e-12
1.4015626e-09
-2.5974918e-12
1.4013612e-09
2.4941307e-12
1.401555e-09
-2.4004174e-12
1.4013681e-09
2.315292e-12
1.4015489e-09
-2.2390484e-12
1.4013736e-09
2.1707908e-12
1.401544e-09
-2.110807e-12
1.4013779e-09
2.058435e-12
1.4015402e-09
-2.0126126e-12
1.4013805e-09
1.9778544e-12
1.4015366e-09
-1.9444559e-12
1.4013865e-09
1.8859048e-12
1.4015759e-09
-2.1464159e-12
1.7787832e-12
1.487348e-09
1.6297417e-08
1.5848038e-09
-5.3763163e-10
1.5436322e-09
3.4735483e-10
1.5442399e-09
-4.4739106e-12
1.5434864e-09
1.6172793e-12
1.5435438e-09
1.1935893e-11
1.5444036e-09
-1.344259e-11
1.5436954e-09
1.2834653e-11
1.5445602e-09
-1.2960441e-11
1.5437508e-09
1.2252543e-11
1.5445172e-09
-1.1545105e-11
1.5437883e-09
1.0921175e-11
1.5444708e-09
-1.0258682e-11
1.5438258e-09
9.6750116e-12
1.5444323e-09
-9.1056824e-12
1.5438606e-09
8.5797425e-12
1.5443993e-09
-8.0841293e-12
1.5438918e-09
7.6177481e-12
1.5443705e-09
-7.1831249e-12
1.5439193e-09
6.7721364e-12
1.5443453e-09
-6.3903415e-12
1.5439435e-09
6.0292584e-12
1.5443231e-09
-5.6940935e-12
1.5439647e-09
5.3775679e-12
1.5443037e-09
-5.083866e-12
1.5439833e-09
4.807068e-12
1.5442867e-09
-4.550371e-12
1.5439994e-09
4.3090411e-12
1.5442719e-09
-4.0854684e-12
1.5440134e-09
3.8758842e-12
1.544259e-09
-3.6820563e-12
1.5440256e-09
3.5009847e-12
1.544248e-09
-3.333967e-12
1.5440359e-09
3.1786124e-12
1.5442385e-09
-3.0358709e-12
1.5440448e-09
2.9038321e-12
1.5442305e-09
-2.7831939e-12
1.5440522e-09
2.672424e-12
1.5442238e-09
-2.5720409e-12
1.5440583e-09
2.4808063e-12
1.5442184e-09
-2.3991248e-12
1.5440632e-09
2.3259497e-12
1.5442141e-09
-2.2616698e-12
1.544067e-09
2.2054877e-12
1.5442106e-09
-2.1562429e-12
1.5440693e-09
2.1192446e-12
1.5442071e-09
-2.0823453e-12
1.5440747e-09
2.0183702e-12
1.5442457e-09
-2.3173835e-12
1.89456e-12
1.6211988e-09
1.7133968e-08
1.7173945e-09
-6.3382741e-10
1.681303e-09
3.8344638e-10
1.6817672e-09
-4.9381523e-12
1.6812136e-09
2.1708557e-12
1.6816426e-09
1.1506938e-11
1.682394e-09
-1.4194019e-11
1.681828e-09
1.3400694e-11
1.6825825e-09
-1.3714941e-11
1.6818798e-09
1.2955194e-11
1.6825461e-09
-1.22114e-11
1.6819112e-09
1.1556104e-11
1.682505e-09
-1.0852457e-11
1.6819434e-09
1.0236585e-11
1.6824712e-09
-9.6335222e-12
1.6819736e-09
9.077355e-12
1.6824425e-09
-8.5530389e-12
1.6820008e-09
8.0595019e-12
1.6824175e-09
-7.5998846e-12
1.6820248e-09
7.1648856e-12
1.6823956e-09
-6.7611658e-12
1.6820459e-09
6.378981e-12
1.6823764e-09
-6.0245638e-12
1.6820644e-09
5.6895504e-12
1.6823595e-09
-5.3789665e-12
1.6820805e-09
5.0860128e-12
1.6823447e-09
-4.8145503e-12
1.6820946e-09
4.559145e-12
1.6823318e-09
-4.3227035e-12
1.6821068e-09
4.1009032e-12
1.6823207e-09
-3.8959122e-12
1.6821174e-09
3.704292e-12
1.6823111e-09
-3.52765e-12
1.6821264e-09
3.3632483e-12
1.6823028e-09
-3.2122768e-12
1.6821341e-09
3.0725496e-12
1.6822959e-09
-2.944951e-12
1.6821406e-09
2.8277289e-12
1.6822901e-09
-2.7215474e-12
1.6821459e-09
2.6249912e-12
1.6822853e-09
-2.5385805e-12
1.6821502e-09
2.4611184e-12
1.6822816e-09
-2.3930993e-12
1.6821535e-09
2.3335861e-12
1.6822786e-09
-2.2813364e-12
1.6821554e-09
2.2424458e-12
1.6822753e-09
-2.2022099e-12
1.6821602e-09
2.1334283e-12
1.6823122e-09
-2.4694156e-12
1.9919843e-12
1.7400275e-09
1.7851691e-08
1.8451503e-09
-7.3895022e-10
1.8142535e-09
4.1434314e-10
1.8147297e-09
-5.4142982e-12
1.814403e-09
2.4975381e-12
1.8151474e-09
1.0762477e-11
1.8157869e-09
-1.4833486e-11
1.8153583e-09
1.3829287e-11
1.8160032e-09
-1.4359807e-11
1.8154058e-09
1.3552609e-11
1.815973e-09
-1.2778663e-11
1.8154311e-09
1.2098028e-11
1.8159371e-09
-1.1358429e-11
1.8154581e-09
1.0715588e-11
1.8159081e-09
-1.0083534e-11
1.8154838e-09
9.5016926e-12
1.8158836e-09
-8.9528917e-12
1.8155069e-09
8.4361883e-12
1.8158623e-09
-7.9552997e-12
1.8155274e-09
7.4997943e-12
1.8158437e-09
-7.0774254e-12
1.8155455e-09
6.6772159e-12
1.8158273e-09
-6.3064228e-12
1.8155612e-09
5.9556195e-12
1.8158129e-09
-5.6306739e-12
1.815575e-09
5.3239249e-12
1.8158004e-09
-5.0398993e-12
1.8155871e-09
4.7724775e-12
1.8157894e-09
-4.5250855e-12
1.8155975e-09
4.2928582e-12
1.8157799e-09
-4.078367e-12
1.8156065e-09
3.8777447e-12
1.8157717e-09
-3.6929116e-12
1.8156142e-09
3.5207903e-12
1.8157647e-09
-3.3628138e-12
1.8156208e-09
3.2165269e-12
1.8157588e-09
-3.0830035e-12
1.8156263e-09
2.9602767e-12
1.8157539e-09
-2.8491587e-12
1.8156308e-09
2.7480613e-12
1.8157499e-09
-2.6576225e-12
1.8156345e-09
2.5764989e-12
1.8157467e-09
-2.5052922e-12
1.8156373e-09
2.442924e-12
1.8157441e-09
-2.3880875e-12
1.8156389e-09
2.3476419e-12
1.8157409e-09
-2.3042681e-12
1.815643e-09
2.2313208e-12
1.8157758e-09
-2.6021815e-12
2.0715926e-12
1.8695771e-09
1.8439863e-08
1.9666988e-09
-8.3607193e-10
1.9424729e-09
4.3856903e-10
1.9430836e-09
-6.0249973e-12
1.9430404e-09
2.5407258e-12
1.9440579e-09
9.7449851e-12
1.9445827e-09
-1.5358292e-11
1.9442868e-09
1.4125158e-11
1.9448228e-09
-1.489579e-11
1.9443286e-09
1.4046789e-11
1.9447982e-09
-1.3248205e-11
1.9443479e-09
1.2548333e-11
1.9447673e-09
-1.1777837e-11
1.9443697e-09
1.1113212e-11
1.944743e-09
-1.0456828e-11
1.9443908e-09
9.8538077e-12
1.9447226e-09
-9.2846705e-12
1.9444101e-09
8.7487399e-12
1.944705e-09
-8.2502419e-12
1.9444271e-09
7.7776897e-12
1.9446896e-09
-7.3398942e-12
1.9444421e-09
6.9246974e-12
1.944676e-09
-6.5403585e-12
1.9444552e-09
6.1764281e-12
1.9446642e-09
-5.8396011e-12
1.9444667e-09
5.521386e-12
1.9446538e-09
-5.2269652e-12
1.9444767e-09
4.9495587e-12
1.9446447e-09
-4.6931042e-12
1.9444853e-09
4.4522149e-12
1.9446368e-09
-4.2298607e-12
1.9444928e-09
4.0217619e-12
1.9446301e-09
-3.8301486e-12
1.9444992e-09
3.651617e-12
1.9446243e-09
-3.4878418e-12
1.9445047e-09
3.3361087e-12
1.9446194e-09
-3.1976802e-12
1.9445092e-09
3.0703832e-12
1.9446153e-09
-2.9551775e-12
1.944513e-09
2.850309e-12
1.9446119e-09
-2.7565329e-12
1.9445161e-09
2.6723654e-12
1.9446093e-09
-2.5985152e-12
1.9445184e-09
2.5337629e-12
1.9446071e-09
-2.4767564e-12
1.9445197e-09
2.4350809e-12
1.9446042e-09
-2.3888021e-12
1.9445232e-09
2.3123401e-12
1.9446365e-09
-2.7154923e-12
2.1340128e-12
1.9779725e-09
1.8919641e-08
2.0835741e-09
-9.4167352e-10
2.0660027e-09
4.5614042e-10
2.066877e-09
-6.8993177e-12
2.0671374e-09
2.2803355e-12
2.0683792e-09
8.5032087e-12
2.068782e-09
-1.576112e-11
2.0686135e-09
1.4293704e-11
2.0690415e-09
-1.5323824e-11
2.0686482e-09
1.4440071e-11
2.0690217e-09
-1.3621682e-11
2.0686613e-09
1.2908714e-11
2.0689957e-09
-1.2112225e-11
2.068678e-09
1.1430928e-11
2.068976e-09
-1.0754779e-11
2.0686948e-09
1.0135002e-11
2.0689597e-09
-9.5495946e-12
2.0687101e-09
8.9983109e-12
2.0689457e-09
-8.4857925e-12
2.0687238e-09
7.9995961e-12
2.0689334e-09
-7.5495325e-12
2.0687358e-09
7.1223354e-12
2.0689226e-09
-6.7272251e-12
2.0687463e-09
6.3527859e-12
2.0689132e-09
-6.0065092e-12
2.0687554e-09
5.6791181e-12
2.0689049e-09
-5.3764276e-12
2.0687634e-09
5.0910332e-12
2.0688977e-09
-4.8273679e-12
2.0687704e-09
4.5795514e-12
2.0688914e-09
-4.3509399e-12
2.0687763e-09
4.1368637e-12
2.068886e-09
-3.9398539e-12
2.0687815e-09
3.7561989e-12
2.0688814e-09
-3.5878079e-12
2.0687858e-09
3.4317227e-12
2.0688775e-09
-3.2893894e-12
2.0687895e-09
3.1584405e-12
2.0688743e-09
-3.0399798e-12
2.0687925e-09
2.932097e-12
2.0688716e-09
-2.8356616e-12
2.0687949e-09
2.7490576e-12
2.0688695e-09
-2.6730981e-12
2.0687968e-09
2.6064264e-12
2.0688677e-09
-2.5476628e-12
2.0687978e-09
2.5050696e-12
2.0688651e-09
-2.4561503e-12
2.0688006e-09
2.3768244e-12
2.0688944e-09
-2.8092882e-12
2.1799422e-12
2.1017104e-09
1.9275681e-08
2.1952537e-09
-1.0352168e-09
2.1849299e-09
4.6646427e-10
2.1861212e-09
-8.0906038e-12
2.186675e-09
1.7265028e-12
2.1881097e-09
7.0684854e-12
2.188384e-09
-1.6035426e-11
2.1883378e-09
1.4339945e-11
2.1886593e-09
-1.5645336e-11
2.1883644e-09
1.473501e-11
2.1886438e-09
-1.3901079e-11
2.1883713e-09
1.3181138e-11
2.1886225e-09
-1.2363406e-11
2.188383e-09
1.1670459e-11
2.1886072e-09
-1.0979e-11
2.1883954e-09
1.0346803e-11
2.1885949e-09
-9.749094e-12
2.188407e-09
9.1862544e-12
2.1885844e-09
-8.6632201e-12
2.1884173e-09
8.1667141e-12
2.1885752e-09
-7.7074673e-12
2.1884263e-09
7.2711969e-12
2.1885671e-09
-6.8680252e-12
2.1884343e-09
6.4856423e-12
2.1885601e-09
-6.1322916e-12
2.1884412e-09
5.7979675e-12
2.1885539e-09
-5.4890844e-12
2.1884473e-09
5.197658e-12
2.1885485e-09
-4.9285914e-12
2.1884525e-09
4.6755463e-12
2.1885438e-09
-4.4422465e-12
2.188457e-09
4.2236608e-12
2.1885397e-09
-4.0226071e-12
2.1884609e-09
3.8350883e-12
2.1885363e-09
-3.6632379e-12
2.1884641e-09
3.5038714e-12
2.1885334e-09
-3.3586111e-12
2.1884669e-09
3.2249091e-12
2.1885309e-09
-3.1040075e-12
2.1884692e-09
2.9938514e-12
2.1885289e-09
-2.8954197e-12
2.188471e-09
2.8069742e-12
2.1885273e-09
-2.7294282e-12
2.1884725e-09
2.661293e-12
2.188526e-09
-2.6011797e-12
2.1884731e-09
2.5579678e-12
2.1885236e-09
-2.5067013e-12
2.1884753e-09
2.4251544e-12
2.1885496e-09
-2.8836263e-12
2.2101287e-12
2.2047444e-09
1.9528686e-08
2.3026024e-09
-1.1330749e-09
2.2993475e-09
4.6971917e-10
2.3008533e-09
-9.596337e-12
2.3016485e-09
9.3124639e-13
2.3032524e-09
5.4646414e-12
2.3033894e-09
-1.617243e-11
2.3034599e-09
1.4269441e-11
2.3036764e-09
-1.5861863e-11
2.3034769e-09
1.4934491e-11
2.3036645e-09
-1.4088621e-11
2.3034778e-09
1.3367836e-11
2.3036478e-09
-1.2533427e-11
2.3034845e-09
1.1833757e-11
2.3036368e-09
-1.1131313e-11
2.3034927e-09
1.0490934e-11
2.3036284e-09
-9.8847861e-12
2.3035005e-09
9.3141003e-12
2.3036213e-09
-8.7839606e-12
2.3035076e-09
8.2804017e-12
2.3036151e-09
-7.8149746e-12
2.3035138e-09
7.3724887e-12
2.3036097e-09
-6.9638941e-12
2.3035192e-09
6.5760718e-12
2.3036049e-09
-6.2179601e-12
2.303524e-09
5.8788928e-12
2.3036007e-09
-5.5658394e-12
2.3035281e-09
5.2702899e-12
2.3035971e-09
-4.9975839e-12
2.3035317e-09
4.740968e-12
2.3035939e-09
-4.5045081e-12
2.3035347e-09
4.282845e-12
2.3035912e-09
-4.0790647e-12
2.3035374e-09
3.8889109e-12
2.3035889e-09
-3.7147273e-12
2.3035396e-09
3.5531244e-12
2.3035869e-09
-3.4058892e-12
2.3035415e-09
3.2703112e-12
2.3035852e-09
-3.1477616e-12
2.303543e-09
3.0360549e-12
2.3035839e-09
-2.9362728e-12
2.3035443e-09
2.8465668e-12
2.3035828e-09
-2.7679439e-12
2.3035453e-09
2.6987916e-12
2.3035819e-09
-2.6377283e-12
2.3035457e-09
2.5941829e-12
2.3035798e-09
-2.5408887e-12
2.3035472e-09
2.4577489e-12
2.3036023e-09
-2.9386699e-12
2.2253551e-12
2.3224691e-09
1.9663967e-08
2.4056446e-09
-1.2162503e-09
2.4093465e-09
4.6601723e-10
2.4111279e-09
-1.1377711e-11
2.4120433e-09
1.5847648e-14
2.4138067e-09
3.7012852e-12
2.4137978e-09
-1.616352e-11
2.4139794e-09
1.4087803e-11
2.4140928e-09
-1.5975272e-11
2.4139857e-09
1.5041571e-11
2.4140839e-09
-1.4186807e-11
2.4139805e-09
1.3471243e-11
2.4140716e-09
-1.2624552e-11
2.4139824e-09
1.1922967e-11
2.4140648e-09
-1.1213733e-11
2.4139865e-09
1.0569298e-11
2.4140602e-09
-9.958456e-12
2.4139907e-09
9.3835349e-12
2.4140564e-09
-8.8495984e-12
2.4139946e-09
8.3421563e-12
2.4140531e-09
-7.8734621e-12
2.413998e-09
7.427542e-12
2.4140502e-09
-7.0160847e-12
2.414001e-09
6.6252594e-12
2.4140477e-09
-6.2646318e-12
2.4140036e-09
5.9229511e-12
2.4140455e-09
-5.6076906e-12
2.4140059e-09
5.3098744e-12
2.4140436e-09
-5.0352396e-12
2.4140079e-09
4.7766648e-12
2.4140419e-09
-4.5385282e-12
2.4140096e-09
4.3151804e-12
2.4140404e-09
-4.109952e-12
2.414011e-09
3.9183581e-12
2.4140392e-09
-3.7429345e-12
2.4140122e-09
3.5801109e-12
2.4140382e-09
-3.4318253e-12
2.4140132e-09
3.2952235e-12
2.4140373e-09
-3.1717958e-12
2.4140141e-09
3.0592413e-12
2.4140366e-09
-2.9587361e-12
2.4140148e-09
2.8683345e-12
2.414036e-09
-2.7891299e-12
2.4140154e-09
2.7193956e-12
2.4140354e-09
-2.657773e-12
2.4140154e-09
2.6141652e-12
2.4140337e-09
-2.5591851e-12
2.4140164e-09
2.4750617e-12
2.4140524e-09
-2.9746779e-12
2.2264251e-12
2.4234013e-09
1.9698316e-08
2.5046128e-09
-1.2974619e-09
2.5148992e-09
4.5573086e-10
2.5169963e-09
-1.347483e-11
2.5178651e-09
-8.5294088e-13
2.5197768e-09
1.7895637e-12
2.5196101e-09
-1.5996852e-11
2.5198964e-09
1.3801525e-11
2.5199086e-09
-1.5987471e-11
2.5198907e-09
1.5059535e-11
2.5199022e-09
-1.4198347e-11
2.5198795e-09
1.3493988e-11
2.5198941e-09
-1.2639235e-11
2.5198767e-09
1.1940409e-11
2.5198914e-09
-1.1228436e-11
2.5198767e-09
1.0583952e-11
2.5198903e-09
-9.972036e-12
2.5198775e-09
9.3963837e-12
2.5198897e-09
-8.861849e-12
2.5198783e-09
8.3535987e-12
2.5198893e-09
-7.8844549e-12
2.519879e-09
7.4377979e-12
2.5198889e-09
-7.0259541e-12
2.5198797e-09
6.6344887e-12
2.5198885e-09
-6.2735167e-12
2.5198802e-09
5.9312878e-12
2.5198882e-09
-5.615719e-12
2.5198807e-09
5.3174361e-12
2.519888e-09
-5.042527e-12
2.5198811e-09
4.783556e-12
2.5198877e-09
-4.5451777e-12
2.5198814e-09
4.3214949e-12
2.5198875e-09
-4.1160555e-12
2.5198817e-09
3.9241794e-12
2.5198873e-09
-3.7485735e-12
2.5198819e-09
3.5855132e-12
2.5198872e-09
-3.4370717e-12
2.5198821e-09
3.300272e-12
2.519887e-09
-3.1767111e-12
2.5198823e-09
3.0639895e-12
2.5198869e-09
-2.9633684e-12
2.5198824e-09
2.8728189e-12
2.5198868e-09
-2.7935118e-12
2.5198826e-09
2.7236185e-12
2.5198866e-09
-2.6618169e-12
2.5198824e-09
2.6184037e-12
2.5198853e-09
-2.5620981e-12
2.5198828e-09
2.4775777e-12
2.5199001e-09
-2.991996e-12
2.2141528e-12
2.5347439e-09
1.9621322e-08
2.5996838e-09
-1.3624017e-09
2.6160456e-09
4.3936905e-10
2.6184064e-09
-1.583558e-11
2.6191158e-09
-1.5623439e-12
2.6211599e-09
-2.5454382e-13
2.620826e-09
-1.5663008e-11
2.62121e-09
1.3417514e-11
2.6211234e-09
-1.5900827e-11
2.6211913e-09
1.4991635e-11
2.6211192e-09
-1.4126277e-11
2.6211744e-09
1.3438793e-11
2.6211153e-09
-1.2580135e-11
2.6211672e-09
1.1888539e-11
2.6211165e-09
-1.1177758e-11
2.6211634e-09
1.0537087e-11
2.6211189e-09
-9.927591e-12
2.6211607e-09
9.3545928e-12
2.6211214e-09
-8.8225442e-12
2.6211586e-09
8.3164581e-12
2.6211237e-09
-7.8495808e-12
2.6211567e-09
7.4047943e-12
2.6211257e-09
-6.9949514e-12
2.621155e-09
6.6051295e-12
2.6211274e-09
-6.2459068e-12
2.6211536e-09
5.9051253e-12
2.621129e-09
-5.5910794e-12
2.6211523e-09
5.2940687e-12
2.6211303e-09
-5.020481e-12
2.6211512e-09
4.7626232e-12
2.6211314e-09
-4.5253874e-12
2.6211502e-09
4.3026731e-12
2.6211324e-09
-4.0982159e-12
2.6211494e-09
3.9071757e-12
2.6211332e-09
-3.7324076e-12
2.6211487e-09
3.5700609e-12
2.621134e-09
-3.4223261e-12
2.6211481e-09
3.286126e-12
2.6211345e-09
-3.1631501e-12
2.6211476e-09
3.0509191e-12
2.621135e-09
-2.9507674e-12
2.6211472e-09
2.8605993e-12
2.6211354e-09
-2.7816522e-12
2.621147e-09
2.7120092e-12
2.6211356e-09
-2.6503973e-12
2.6211465e-09
2.6074215e-12
2.6211346e-09
-2.5501658e-12
2.6211464e-09
2.4658101e-12
2.6211454e-09
-2.9910475e-12
2.1893523e-12
2.632002e-09
1.944707e-08
2.6910447e-09
-1.4214444e-09
2.7127418e-09
4.1767189e-10
2.7152296e-09
-1.8323299e-11
2.7157993e-09
-2.1320512e-12
2.7179496e-09
-2.4048468e-12
2.7174444e-09
-1.5157866e-11
2.7179194e-09
1.2942588e-11
2.7177367e-09
-1.5718205e-11
2.7178873e-09
1.4841082e-11
2.7177349e-09
-1.3973924e-11
2.7178653e-09
1.3308464e-11
2.7177352e-09
-1.2450092e-11
2.7178538e-09
1.1769926e-11
2.7177403e-09
-1.1064174e-11
2.7178463e-09
1.0431005e-11
2.717746e-09
-9.8273024e-12
2.7178404e-09
9.2602138e-12
2.7177515e-09
-8.733618e-12
2.7178354e-09
8.2325585e-12
2.7177564e-09
-7.7705582e-12
2.717831e-09
7.3301538e-12
2.7177607e-09
-6.9246063e-12
2.7178272e-09
6.5386272e-12
2.7177644e-09
-6.1831663e-12
2.7178238e-09
5.845754e-12
2.7177677e-09
-5.5349911e-12
2.7178209e-09
5.240927e-12
2.7177706e-09
-4.9701945e-12
2.7178183e-09
4.7149033e-12
2.717773e-09
-4.4801402e-12
2.7178161e-09
4.2596494e-12
2.7177752e-09
-4.0573212e-12
2.7178142e-09
3.8681931e-12
2.717777e-09
-3.6952434e-12
2.7178125e-09
3.5345249e-12
2.7177785e-09
-3.3883259e-12
2.7178112e-09
3.2534929e-12
2.7177798e-09
-3.1317927e-12
2.71781e-09
3.0206849e-12
2.7177808e-09
-2.9215657e-12
2.7178091e-09
2.8322883e-12
2.7177816e-09
-2.754146e-12
2.7178085e-09
2.6851484e-12
2.7177822e-09
-2.6240819e-12
2.7178078e-09
2.5817724e-12
2.7177816e-09
-2.5239531e-12
2.7178071e-09
2.4402971e-12
2.7177884e-09
-2.9723255e-12
2.1528307e-12
2.7360775e-09
1.9168742e-08
2.7788681e-09
-1.4642351e-09
2.8050245e-09
3.915155e-10
2.8074385e-09
-2.0737305e-11
2.8079306e-09
-2.6241813e-12
2.8101404e-09
-4.6146564e-12
2.8094659e-09
-1.4483272e-11
2.8100247e-09
1.2383724e-11
2.8097489e-09
-1.5442354e-11
2.8099786e-09
1.4611313e-11
2.8097494e-09
-1.3744708e-11
2.8099519e-09
1.310596e-11
2.8097539e-09
-1.2252066e-11
2.8099366e-09
1.1587262e-11
2.8097627e-09
-1.0890267e-11
2.8099255e-09
1.0268117e-11
2.8097717e-09
-9.6734513e-12
2.8099165e-09
9.1153911e-12
2.80978e-09
-8.5970926e-12
2.8099087e-09
8.1038066e-12
2.8097874e-09
-7.6491843e-12
2.809902e-09
7.2155729e-12
2.8097939e-09
-6.8165186e-12
2.809896e-09
6.4364937e-12
2.8097996e-09
-6.0867221e-12
2.8098908e-09
5.7545236e-12
2.8098045e-09
-5.4487297e-12
2.8098862e-09
5.159219e-12
2.8098088e-09
-4.8928111e-12
2.8098823e-09
4.6414809e-12
2.8098126e-09
-4.4104651e-12
2.8098788e-09
4.1934018e-12
2.8098158e-09
-3.9943011e-12
2.8098759e-09
3.8081178e-12
2.8098186e-09
-3.6379258e-12
2.8098734e-09
3.4797128e-12
2.8098209e-09
-3.335844e-12
2.8098713e-09