/*--------------------------------*- C++ -*----------------------------------*\
| =========                 |                                                 |
| \\      /  F ield         | OpenFOAM: The Open Source CFD Toolbox           |
|  \\    /   O peration     | Version:  2312                                  |
|   \\  /    A nd           | Website:  www.openfoam.com                      |
|    \\/     M anipulation  |                                                 |
\*---------------------------------------------------------------------------*/
FoamFile
{
    version     2.0;
    format      ascii;
    arch        "LSB;label=32;scalar=64";
    class       volSymmTensorField;
    location    "4";
    object      sigma_0;
}
// * * * * * * * * * * * * * * * * * * * * * * * * * * * * * * * * * * * * * //

dimensions      [0 2 -2 0 0 0 0];

internalField   nonuniform List<symmTensor> 
4000
(
(-1.4195405 -0.62002514 0 -0.23046088 0 0)
(-2.8605967 -0.30964003 0 -0.00084084562 0 0)
(-1.9741724 -0.25692508 0 -0.00027471413 0 0)
(-2.1392541 -0.26716252 0 -3.2676783e-05 0 0)
(-2.0105671 -0.25868065 0 4.4529507e-05 0 0)
(-2.1016878 -0.26490014 0 -5.3975468e-05 0 0)
(-2.0162624 -0.25904242 0 4.9672178e-05 0 0)
(-2.0939215 -0.26438739 0 -4.7635172e-05 0 0)
(-2.0214518 -0.25939771 0 4.4875253e-05 0 0)
(-2.0892316 -0.26406956 0 -4.2376518e-05 0 0)
(-2.0255419 -0.25968078 0 3.9842776e-05 0 0)
(-2.0852918 -0.26380071 0 -3.7564773e-05 0 0)
(-2.0291151 -0.2599283 0 3.5331401e-05 0 0)
(-2.0818484 -0.26356528 0 -3.3298457e-05 0 0)
(-2.0322921 -0.26014817 0 3.1338909e-05 0 0)
(-2.0788093 -0.26335733 0 -2.953913e-05 0 0)
(-2.035116 -0.2603434 0 2.7817339e-05 0 0)
(-2.0761186 -0.26317315 0 -2.6229379e-05 0 0)
(-2.037625 -0.26051667 0 2.4716026e-05 0 0)
(-2.0737322 -0.26300978 0 -2.3317739e-05 0 0)
(-2.0398552 -0.26067053 0 2.1988521e-05 0 0)
(-2.0716128 -0.26286469 0 -2.0759397e-05 0 0)
(-2.0418398 -0.26080728 0 1.9593481e-05 0 0)
(-2.0697275 -0.26273566 0 -1.8515173e-05 0 0)
(-2.0436083 -0.26092899 0 1.7494458e-05 0 0)
(-2.0680474 -0.26262075 0 -1.6550765e-05 0 0)
(-2.0451872 -0.2610375 0 1.5659472e-05 0 0)
(-2.0665469 -0.26251819 0 -1.4836173e-05 0 0)
(-2.0466002 -0.26113445 0 1.4060556e-05 0 0)
(-2.065203 -0.26242644 0 -1.3345229e-05 0 0)
(-2.0478686 -0.26122131 0 1.2673347e-05 0 0)
(-2.0639953 -0.26234411 0 -1.2055186e-05 0 0)
(-2.0490114 -0.2612994 0 1.147671e-05 0 0)
(-2.0629055 -0.26226996 0 -1.0946375e-05 0 0)
(-2.0500457 -0.26136989 0 1.0452429e-05 0 0)
(-2.0619169 -0.26220285 0 -1.0001911e-05 0 0)
(-2.050987 -0.26143384 0 9.5849402e-06 0 0)
(-2.0610147 -0.2621418 0 -9.2074555e-06 0 0)
(-2.0518496 -0.26149222 0 8.8611228e-06 0 0)
(-2.0601852 -0.26208586 0 -8.5510384e-06 0 0)
(-2.0526462 -0.26154591 0 8.270167e-06 0 0)
(-2.0594159 -0.26203421 0 -8.0229757e-06 0 0)
(-2.0533889 -0.26159571 0 7.8035324e-06 0 0)
(-2.0586951 -0.26198607 0 -7.6161476e-06 0 0)
(-2.0540884 -0.26164234 0 7.4549408e-06 0 0)
(-2.0580109 -0.26194064 0 -7.3261018e-06 0 0)
(-2.0547544 -0.26168642 0 7.2304217e-06 0 0)
(-2.0573672 -0.261898 0 -7.1138841e-06 0 0)
(-2.0554949 -0.26173419 0 7.2872981e-06 0 0)
(-2.0571698 -0.2618848 0 -7.0938651e-06 0 0)
(-1.2605781 -0.57033255 0 -0.21651985 0 0)
(-2.5232546 -0.29423714 0 -0.0029216455 0 0)
(-1.8936019 -0.25288979 0 -0.00084632205 0 0)
(-1.9754097 -0.25674753 0 -3.420369e-05 0 0)
(-1.8684681 -0.24927294 0 3.010573e-05 0 0)
(-1.9444233 -0.25489334 0 -5.999065e-05 0 0)
(-1.8711843 -0.24944778 0 5.291619e-05 0 0)
(-1.9377447 -0.25442589 0 -5.1952358e-05 0 0)
(-1.8755366 -0.2497702 0 4.9181573e-05 0 0)
(-1.9337662 -0.25413521 0 -4.6565327e-05 0 0)
(-1.8790434 -0.25003415 0 4.3757584e-05 0 0)
(-1.9303833 -0.25388465 0 -4.1311306e-05 0 0)
(-1.8821074 -0.25026523 0 3.8828906e-05 0 0)
(-1.9274186 -0.25366448 0 -3.6612315e-05 0 0)
(-1.8848329 -0.25047059 0 3.4449675e-05 0 0)
(-1.924802 -0.25346999 0 -3.2475742e-05 0 0)
(-1.8872563 -0.25065298 0 3.058172e-05 0 0)
(-1.9224854 -0.25329774 0 -2.8836678e-05 0 0)
(-1.8894099 -0.25081487 0 2.7173844e-05 0 0)
(-1.920431 -0.25314495 0 -2.5636338e-05 0 0)
(-1.8913247 -0.25095864 0 2.4176364e-05 0 0)
(-1.9186062 -0.25300924 0 -2.2824698e-05 0 0)
(-1.8930289 -0.25108644 0 2.154425e-05 0 0)
(-1.9169829 -0.25288856 0 -2.0358476e-05 0 0)
(-1.894548 -0.25120019 0 1.9237566e-05 0 0)
(-1.9155361 -0.25278106 0 -1.8199925e-05 0 0)
(-1.8959046 -0.25130162 0 1.7221211e-05 0 0)
(-1.9142436 -0.2526851 0 -1.6316079e-05 0 0)
(-1.8971191 -0.25139227 0 1.546448e-05 0 0)
(-1.9130858 -0.25259925 0 -1.4678202e-05 0 0)
(-1.8982097 -0.2514735 0 1.394063e-05 0 0)
(-1.912045 -0.25252219 0 -1.3261339e-05 0 0)
(-1.8991928 -0.25154654 0 1.2626485e-05 0 0)
(-1.9111053 -0.25245276 0 -1.2043934e-05 0 0)
(-1.9000832 -0.25161249 0 1.1502099e-05 0 0)
(-1.9102526 -0.25238993 0 -1.1007531e-05 0 0)
(-1.900894 -0.25167236 0 1.055049e-05 0 0)
(-1.9094739 -0.25233273 0 -1.0136531e-05 0 0)
(-1.9016376 -0.25172703 0 9.7574456e-06 0 0)
(-1.9087575 -0.25228031 0 -9.4180547e-06 0 0)
(-1.902325 -0.25177733 0 9.1114664e-06 0 0)
(-1.9080924 -0.25223188 0 -8.8419771e-06 0 0)
(-1.9029667 -0.25182402 0 8.6038894e-06 0 0)
(-1.9074687 -0.25218672 0 -8.401836e-06 0 0)
(-1.903572 -0.25186777 0 8.2286652e-06 0 0)
(-1.9068758 -0.25214408 0 -8.0966456e-06 0 0)
(-1.9041481 -0.25190904 0 8.0042299e-06 0 0)
(-1.9063082 -0.25210324 0 -7.8386607e-06 0 0)
(-1.9047598 -0.25195041 0 8.3826119e-06 0 0)
(-1.9060504 -0.25208454 0 -7.708303e-06 0 0)
(-1.1829882 -0.54062263 0 -0.20348445 0 0)
(-2.288462 -0.27931192 0 -0.0034225288 0 0)
(-1.8115658 -0.24840765 0 -0.001270253 0 0)
(-1.873372 -0.25011408 0 -5.8476373e-05 0 0)
(-1.7757439 -0.2429352 0 1.4038862e-05 0 0)
(-1.8429971 -0.2482134 0 -5.9510475e-05 0 0)
(-1.7770114 -0.24302439 0 5.022114e-05 0 0)
(-1.8367523 -0.24776307 0 -5.012574e-05 0 0)
(-1.7808464 -0.24332769 0 4.7691556e-05 0 0)
(-1.8331847 -0.24748909 0 -4.5197666e-05 0 0)
(-1.7840002 -0.24357972 0 4.2451863e-05 0 0)
(-1.8301485 -0.24725082 0 -4.0124918e-05 0 0)
(-1.7867546 -0.24380016 0 3.7684307e-05 0 0)
(-1.8274837 -0.24704098 0 -3.5553338e-05 0 0)
(-1.7892043 -0.24399605 0 3.344053e-05 0 0)
(-1.8251316 -0.2468556 0 -3.1532701e-05 0 0)
(-1.7913828 -0.24417003 0 2.9688156e-05 0 0)
(-1.8230495 -0.24669141 0 -2.7998095e-05 0 0)
(-1.7933192 -0.24432448 0 2.6380697e-05 0 0)
(-1.821203 -0.24654576 0 -2.4890462e-05 0 0)
(-1.795041 -0.24446164 0 2.3471097e-05 0 0)
(-1.819563 -0.2464164 0 -2.2160539e-05 0 0)
(-1.7965737 -0.24458359 0 2.0916014e-05 0 0)
(-1.8181041 -0.24630134 0 -1.9766093e-05 0 0)
(-1.7979401 -0.24469214 0 1.8676801e-05 0 0)
(-1.8168038 -0.24619883 0 -1.767042e-05 0 0)
(-1.7991606 -0.24478896 0 1.6719429e-05 0 0)
(-1.8156421 -0.24610732 0 -1.5841505e-05 0 0)
(-1.8002534 -0.24487549 0 1.5014122e-05 0 0)
(-1.8146013 -0.24602542 0 -1.4251461e-05 0 0)
(-1.8012348 -0.24495305 0 1.3534951e-05 0 0)
(-1.8136655 -0.2459519 0 -1.2876087e-05 0 0)
(-1.8021197 -0.24502281 0 1.2259462e-05 0 0)
(-1.8128206 -0.24588564 0 -1.1694505e-05 0 0)
(-1.8029212 -0.24508583 0 1.1168358e-05 0 0)
(-1.8120537 -0.24582565 0 -1.0688876e-05 0 0)
(-1.8036513 -0.24514304 0 1.0245267e-05 0 0)
(-1.8113531 -0.24577101 0 -9.8442011e-06 0 0)
(-1.8043211 -0.24519531 0 9.4765854e-06 0 0)
(-1.8107083 -0.24572091 0 -9.1482328e-06 0 0)
(-1.8049404 -0.24524343 0 8.8515129e-06 0 0)
(-1.8101095 -0.2456746 0 -8.5916391e-06 0 0)
(-1.8055188 -0.24528811 0 8.3623669e-06 0 0)
(-1.8095476 -0.24563138 0 -8.1694058e-06 0 0)
(-1.8060647 -0.24533003 0 8.0042835e-06 0 0)
(-1.809013 -0.24559056 0 -7.8848747e-06 0 0)
(-1.8065844 -0.24536955 0 7.80225e-06 0 0)
(-1.8084983 -0.24555116 0 -7.6326186e-06 0 0)
(-1.8071283 -0.24540778 0 8.3901873e-06 0 0)
(-1.808224 -0.24553151 0 -7.9025477e-06 0 0)
(-1.1312652 -0.51279631 0 -0.18779243 0 0)
(-2.101801 -0.26797003 0 -0.0040536425 0 0)
(-1.7274448 -0.24379812 0 -0.0017340865 0 0)
(-1.7746319 -0.24351608 0 -8.5770554e-05 0 0)
(-1.6850148 -0.23661347 0 -1.1072063e-05 0 0)
(-1.7449277 -0.24154329 0 -5.3963891e-05 0 0)
(-1.6849215 -0.23660313 0 4.2681495e-05 0 0)
(-1.7389358 -0.24110405 0 -4.3657128e-05 0 0)
(-1.6882614 -0.23688537 0 4.1942556e-05 0 0)
(-1.735689 -0.2408458 0 -3.9774812e-05 0 0)
(-1.6911114 -0.23712541 0 3.7348677e-05 0 0)
(-1.7329381 -0.24061949 0 -3.5354732e-05 0 0)
(-1.6936047 -0.23733523 0 3.3171318e-05 0 0)
(-1.7305205 -0.24041972 0 -3.1317624e-05 0 0)
(-1.6958217 -0.23752164 0 2.9444118e-05 0 0)
(-1.7283862 -0.24024319 0 -2.7771361e-05 0 0)
(-1.6977935 -0.23768722 0 2.614312e-05 0 0)
(-1.7264972 -0.24008683 0 -2.4657004e-05 0 0)
(-1.6995464 -0.23783422 0 2.3231617e-05 0 0)
(-1.7248222 -0.23994813 0 -2.191993e-05 0 0)
(-1.7011053 -0.23796479 0 2.0669754e-05 0 0)
(-1.7233346 -0.23982493 0 -1.951584e-05 0 0)
(-1.7024931 -0.23808088 0 1.8419864e-05 0 0)
(-1.7220113 -0.23971533 0 -1.7407274e-05 0 0)
(-1.7037304 -0.23818425 0 1.6448066e-05 0 0)
(-1.720832 -0.23961768 0 -1.5561841e-05 0 0)
(-1.7048356 -0.23827645 0 1.4724446e-05 0 0)
(-1.7197785 -0.23953048 0 -1.3951341e-05 0 0)
(-1.7058253 -0.23835887 0 1.3222812e-05 0 0)
(-1.7188347 -0.23945243 0 -1.2551226e-05 0 0)
(-1.7067142 -0.23843277 0 1.1920355e-05 0 0)
(-1.7179862 -0.23938234 0 -1.134021e-05 0 0)
(-1.7075157 -0.23849926 0 1.0797334e-05 0 0)
(-1.7172201 -0.23931916 0 -1.0299945e-05 0 0)
(-1.7082416 -0.23855934 0 9.8368078e-06 0 0)
(-1.7165248 -0.23926192 0 -9.4147858e-06 0 0)
(-1.708903 -0.23861392 0 9.0244402e-06 0 0)
(-1.7158896 -0.23920977 0 -8.6716324e-06 0 0)
(-1.7095097 -0.23866381 0 8.3483988e-06 0 0)
(-1.7153051 -0.23916193 0 -8.0598942e-06 0 0)
(-1.7100707 -0.23870976 0 7.7994452e-06 0 0)
(-1.7147624 -0.23911767 0 -7.5717203e-06 0 0)
(-1.7105946 -0.23875247 0 7.3713464e-06 0 0)
(-1.7142531 -0.23907634 0 -7.2037277e-06 0 0)
(-1.7110892 -0.23879257 0 7.0601347e-06 0 0)
(-1.7137686 -0.23903728 0 -6.9626624e-06 0 0)
(-1.71156 -0.23883041 0 6.8953308e-06 0 0)
(-1.7132997 -0.23899925 0 -6.7152889e-06 0 0)
(-1.7120444 -0.23886569 0 7.6986111e-06 0 0)
(-1.7130096 -0.23897835 0 -7.2901108e-06 0 0)
(-1.0870392 -0.48677273 0 -0.17291848 0 0)
(-1.9179395 -0.25646791 0 -0.0045466286 0 0)
(-1.636256 -0.23844142 0 -0.002124805 0 0)
(-1.6779935 -0.23693336 0 -0.00012704371 0 0)
(-1.5959784 -0.23026966 0 -3.7796489e-05 0 0)
(-1.6498444 -0.23488614 0 -4.8870329e-05 0 0)
(-1.5950219 -0.23017317 0 3.5356851e-05 0 0)
(-1.6440607 -0.23445362 0 -3.7207602e-05 0 0)
(-1.5979098 -0.23043517 0 3.6275184e-05 0 0)
(-1.6410737 -0.23420916 0 -3.4361904e-05 0 0)
(-1.6004904 -0.23066407 0 3.2276831e-05 0 0)
(-1.638569 -0.23399398 0 -3.0599382e-05 0 0)
(-1.6027576 -0.23086408 0 2.8678266e-05 0 0)
(-1.6363668 -0.23380362 0 -2.7096898e-05 0 0)
(-1.6047736 -0.23104173 0 2.5464083e-05 0 0)
(-1.6344224 -0.23363535 0 -2.402376e-05 0 0)
(-1.6065666 -0.23119953 0 2.2612225e-05 0 0)
(-1.6327015 -0.23348631 0 -2.1328194e-05 0 0)
(-1.6081607 -0.23133965 0 2.0094858e-05 0 0)
(-1.6311758 -0.23335409 0 -1.8960284e-05 0 0)
(-1.6095785 -0.23146411 0 1.7879167e-05 0 0)
(-1.629821 -0.23323664 0 -1.6880747e-05 0 0)
(-1.6108408 -0.23157478 0 1.5933097e-05 0 0)
(-1.628616 -0.23313215 0 -1.50569e-05 0 0)
(-1.6119662 -0.23167333 0 1.4227502e-05 0 0)
(-1.6275422 -0.23303903 0 -1.3460657e-05 0 0)
(-1.6129716 -0.23176124 0 1.2736555e-05 0 0)
(-1.626583 -0.23295588 0 -1.2067613e-05 0 0)
(-1.6138719 -0.23183985 0 1.143762e-05 0 0)
(-1.6257238 -0.23288143 0 -1.0856543e-05 0 0)
(-1.6146805 -0.23191034 0 1.0310981e-05 0 0)
(-1.6249515 -0.23281457 0 -9.8090492e-06 0 0)
(-1.6154095 -0.23197378 0 9.3395818e-06 0 0)
(-1.6242543 -0.23275427 0 -8.909285e-06 0 0)
(-1.6160698 -0.23203112 0 8.5087957e-06 0 0)
(-1.6236216 -0.23269964 0 -8.143756e-06 0 0)
(-1.6166712 -0.23208323 0 7.8062707e-06 0 0)
(-1.6230438 -0.23264984 0 -7.5011977e-06 0 0)
(-1.6172229 -0.23213088 0 7.2218589e-06 0 0)
(-1.6225122 -0.23260413 0 -6.9725652e-06 0 0)
(-1.617733 -0.23217479 0 6.7477334e-06 0 0)
(-1.6220186 -0.23256183 0 -6.5512808e-06 0 0)
(-1.6182092 -0.23221563 0 6.3788163e-06 0 0)
(-1.6215557 -0.2325223 0 -6.2350961e-06 0 0)
(-1.6186587 -0.232254 0 6.1114201e-06 0 0)
(-1.6211154 -0.23248492 0 -6.0329869e-06 0 0)
(-1.6190864 -0.23229024 0 5.9757296e-06 0 0)
(-1.6206879 -0.2324483 0 -5.7868843e-06 0 0)
(-1.6195199 -0.23232306 0 6.9312407e-06 0 0)
(-1.6203914 -0.23242652 0 -6.6064428e-06 0 0)
(-1.0493643 -0.46349232 0 -0.15977511 0 0)
(-1.7459237 -0.24517082 0 -0.0048524696 0 0)
(-1.543462 -0.23257973 0 -0.0024178815 0 0)
(-1.5829085 -0.23032694 0 -0.00018479447 0 0)
(-1.5087167 -0.22390777 0 -6.6584321e-05 0 0)
(-1.5575242 -0.22823627 0 -4.5649958e-05 0 0)
(-1.507417 -0.22373799 0 2.9082267e-05 0 0)
(-1.5520084 -0.22780939 0 -3.1731873e-05 0 0)
(-1.5099069 -0.22398024 0 3.1557199e-05 0 0)
(-1.5492449 -0.22757729 0 -2.9787225e-05 0 0)
(-1.5122407 -0.22419841 0 2.8015929e-05 0 0)
(-1.5469584 -0.22737261 0 -2.6593613e-05 0 0)
(-1.5143048 -0.22438913 0 2.4896613e-05 0 0)
(-1.5449493 -0.22719118 0 -2.354294e-05 0 0)
(-1.5161405 -0.22455847 0 2.211377e-05 0 0)
(-1.5431752 -0.22703075 0 -2.0868176e-05 0 0)
(-1.5177734 -0.22470887 0 1.9640015e-05 0 0)
(-1.5416052 -0.22688865 0 -1.8525203e-05 0 0)
(-1.5192252 -0.22484243 0 1.7454389e-05 0 0)
(-1.5402134 -0.22676259 0 -1.6468128e-05 0 0)
(-1.5205166 -0.22496109 0 1.5530036e-05 0 0)
(-1.5389776 -0.2266506 0 -1.4661864e-05 0 0)
(-1.5216665 -0.2250666 0 1.3839654e-05 0 0)
(-1.5378786 -0.22655096 0 -1.3077743e-05 0 0)
(-1.5226917 -0.22516057 0 1.2358084e-05 0 0)
(-1.5368993 -0.22646216 0 -1.1691298e-05 0 0)
(-1.5236076 -0.22524441 0 1.1062939e-05 0 0)
(-1.5360247 -0.22638285 0 -1.0481321e-05 0 0)
(-1.5244278 -0.22531938 0 9.9345698e-06 0 0)
(-1.5352414 -0.22631183 0 -9.4293781e-06 0 0)
(-1.5251644 -0.22538663 0 8.9558594e-06 0 0)
(-1.5345373 -0.22624803 0 -8.5195005e-06 0 0)
(-1.5258285 -0.22544716 0 8.1119989e-06 0 0)
(-1.5339018 -0.22619049 0 -7.7379366e-06 0 0)
(-1.5264299 -0.22550188 0 7.3902977e-06 0 0)
(-1.5333252 -0.22613834 0 -7.0729879e-06 0 0)
(-1.5269778 -0.22555162 0 6.7800522e-06 0 0)
(-1.5327988 -0.22609079 0 -6.5149084e-06 0 0)
(-1.5274801 -0.22559713 0 6.2724951e-06 0 0)
(-1.5323145 -0.22604713 0 -6.0559053e-06 0 0)
(-1.5279446 -0.22563908 0 5.8609187e-06 0 0)
(-1.531865 -0.22600671 0 -5.6903758e-06 0 0)
(-1.528378 -0.22567811 0 5.5410816e-06 0 0)
(-1.5314436 -0.22596891 0 -5.4167962e-06 0 0)
(-1.5287871 -0.22571481 0 5.3092028e-06 0 0)
(-1.531043 -0.22593317 0 -5.2455894e-06 0 0)
(-1.5291762 -0.2257495 0 5.1941546e-06 0 0)
(-1.5306531 -0.22589795 0 -4.9966309e-06 0 0)
(-1.5295648 -0.22578016 0 6.2525259e-06 0 0)
(-1.5303558 -0.22587547 0 -5.9885724e-06 0 0)
(-1.0122963 -0.43664937 0 -0.14379389 0 0)
(-1.5860351 -0.23440743 0 -0.005059401 0 0)
(-1.4508528 -0.22626034 0 -0.0025937334 0 0)
(-1.4891972 -0.22369976 0 -0.00026669624 0 0)
(-1.4231521 -0.21752955 0 -0.0001005845 0 0)
(-1.4678321 -0.22159148 0 -4.4947676e-05 0 0)
(-1.4221234 -0.21729958 0 2.3282223e-05 0 0)
(-1.4627173 -0.22116969 0 -2.7070394e-05 0 0)
(-1.4242943 -0.21752229 0 2.753561e-05 0 0)
(-1.4601587 -0.22094865 0 -2.5843164e-05 0 0)
(-1.4264019 -0.21772987 0 2.4364384e-05 0 0)
(-1.4580682 -0.22075396 0 -2.3149997e-05 0 0)
(-1.4282809 -0.21791162 0 2.164871e-05 0 0)
(-1.4562342 -0.22058114 0 -2.0489763e-05 0 0)
(-1.4299534 -0.21807293 0 1.923558e-05 0 0)
(-1.4546148 -0.22042828 0 -1.8157362e-05 0 0)
(-1.4314411 -0.21821622 0 1.7086647e-05 0 0)
(-1.4531819 -0.22029288 0 -1.6117243e-05 0 0)
(-1.432764 -0.21834346 0 1.5186026e-05 0 0)
(-1.4519117 -0.22017275 0 -1.4327166e-05 0 0)
(-1.4339408 -0.2184565 0 1.3511947e-05 0 0)
(-1.450784 -0.22006602 0 -1.2755647e-05 0 0)
(-1.4349887 -0.21855705 0 1.2041206e-05 0 0)
(-1.4497812 -0.21997106 0 -1.1377455e-05 0 0)
(-1.4359232 -0.21864659 0 1.0752077e-05 0 0)
(-1.4488877 -0.21988642 0 -1.0171229e-05 0 0)
(-1.4367579 -0.2187265 0 9.6251241e-06 0 0)
(-1.4480898 -0.21981083 0 -9.1185047e-06 0 0)
(-1.4375055 -0.21879796 0 8.6432654e-06 0 0)
(-1.4473752 -0.21974312 0 -8.2032437e-06 0 0)
(-1.4381769 -0.21886207 0 7.7916108e-06 0 0)
(-1.4467331 -0.21968229 0 -7.4115595e-06 0 0)
(-1.4387822 -0.21891979 0 7.0572791e-06 0 0)
(-1.4461535 -0.21962741 0 -6.731495e-06 0 0)
(-1.4393304 -0.21897198 0 6.429235e-06 0 0)
(-1.4456278 -0.21957766 0 -6.1528854e-06 0 0)
(-1.4398296 -0.21901944 0 5.8981798e-06 0 0)
(-1.4451478 -0.21953229 0 -5.6672741e-06 0 0)
(-1.4402874 -0.21906287 0 5.4565125e-06 0 0)
(-1.4447064 -0.21949061 0 -5.2679179e-06 0 0)
(-1.4407105 -0.21910292 0 5.0984501e-06 0 0)
(-1.4442968 -0.21945201 0 -4.9499998e-06 0 0)
(-1.4411054 -0.2191402 0 4.8204011e-06 0 0)
(-1.4439128 -0.2194159 0 -4.7124887e-06 0 0)
(-1.4414779 -0.21917528 0 4.6183672e-06 0 0)
(-1.4435481 -0.21938174 0 -4.5668407e-06 0 0)
(-1.4418321 -0.21920846 0 4.5188889e-06 0 0)
(-1.4431924 -0.21934794 0 -4.3148355e-06 0 0)
(-1.442181 -0.2192372 0 5.6405535e-06 0 0)
(-1.4428988 -0.21932493 0 -5.4276961e-06 0 0)
(-0.98864066 -0.41818995 0 -0.13313444 0 0)
(-1.4376321 -0.22401094 0 -0.0052249787 0 0)
(-1.3604844 -0.21956834 0 -0.0026444959 0 0)
(-1.3970364 -0.21703958 0 -0.00036569974 0 0)
(-1.3392757 -0.2111146 0 -0.00013498119 0 0)
(-1.3806426 -0.21494067 0 -4.5021909e-05 0 0)
(-1.3391117 -0.21085471 0 1.7963322e-05 0 0)
(-1.3761355 -0.21453295 0 -2.29367e-05 0 0)
(-1.3410843 -0.21106142 0 2.3954698e-05 0 0)
(-1.37379 -0.21432282 0 -2.2309824e-05 0 0)
(-1.3429933 -0.21125879 0 2.1104838e-05 0 0)
(-1.3718792 -0.21413772 0 -2.0068478e-05 0 0)
(-1.3447041 -0.21143184 0 1.8744735e-05 0 0)
(-1.3702049 -0.21397322 0 -1.7759234e-05 0 0)
(-1.346228 -0.2115854 0 1.6661424e-05 0 0)
(-1.3687266 -0.21382768 0 -1.5733195e-05 0 0)
(-1.3475836 -0.21172179 0 1.4802952e-05 0 0)
(-1.3674186 -0.21369876 0 -1.3963867e-05 0 0)
(-1.3487892 -0.21184292 0 1.3157237e-05 0 0)
(-1.3662593 -0.21358437 0 -1.241252e-05 0 0)
(-1.3498617 -0.21195055 0 1.1706995e-05 0 0)
(-1.3652301 -0.21348274 0 -1.1050899e-05 0 0)
(-1.3508169 -0.21204628 0 1.0432689e-05 0 0)
(-1.364315 -0.21339231 0 -9.8568427e-06 0 0)
(-1.3516687 -0.21213155 0 9.3156644e-06 0 0)
(-1.3634997 -0.21331169 0 -8.8117654e-06 0 0)
(-1.3524297 -0.21220765 0 8.3391272e-06 0 0)
(-1.3627717 -0.21323968 0 -7.8996515e-06 0 0)
(-1.3531111 -0.21227572 0 7.488289e-06 0 0)
(-1.3621198 -0.21317519 0 -7.1066036e-06 0 0)
(-1.3537232 -0.21233679 0 6.7502503e-06 0 0)
(-1.361534 -0.21311723 0 -6.4205936e-06 0 0)
(-1.354275 -0.21239178 0 6.1138505e-06 0 0)
(-1.3610054 -0.21306493 0 -5.831265e-06 0 0)
(-1.3547747 -0.21244152 0 5.5695302e-06 0 0)
(-1.3605258 -0.2130175 0 -5.3298185e-06 0 0)
(-1.3552298 -0.21248676 0 5.1092402e-06 0 0)
(-1.3600882 -0.21297424 0 -4.908941e-06 0 0)
(-1.355647 -0.21252818 0 4.7264094e-06 0 0)
(-1.3596857 -0.21293449 0 -4.56281e-06 0 0)
(-1.3560327 -0.21256638 0 4.4160587e-06 0 0)
(-1.3593123 -0.21289765 0 -4.2872802e-06 0 0)
(-1.3563925 -0.21260196 0 4.1751361e-06 0 0)
(-1.3589624 -0.21286318 0 -4.0816733e-06 0 0)
(-1.3567319 -0.21263546 0 3.9994106e-06 0 0)
(-1.3586302 -0.21283057 0 -3.9581877e-06 0 0)
(-1.3570545 -0.21266718 0 3.9126062e-06 0 0)
(-1.3583058 -0.21279818 0 -3.7044107e-06 0 0)
(-1.3573679 -0.21269421 0 5.0659003e-06 0 0)
(-1.3580191 -0.21277481 0 -4.9016782e-06 0 0)
(-0.9625375 -0.3929015 0 -0.11775648 0 0)
(-1.3019984 -0.21423004 0 -0.005313672 0 0)
(-1.2724955 -0.21235389 0 -0.0025412478 0 0)
(-1.3066493 -0.21041011 0 -0.00049336839 0 0)
(-1.2575007 -0.20470641 0 -0.00017120964 0 0)
(-1.2959991 -0.20828917 0 -4.55963e-05 0 0)
(-1.2584161 -0.20440345 0 1.3248444e-05 0 0)
(-1.292234 -0.20789804 0 -1.9115391e-05 0 0)
(-1.2602874 -0.20459703 0 2.0755626e-05 0 0)
(-1.2901171 -0.20769948 0 -1.9084004e-05 0 0)
(-1.2620288 -0.20478505 0 1.8157036e-05 0 0)
(-1.2883758 -0.20752382 0 -1.7267859e-05 0 0)
(-1.2635881 -0.2049498 0 1.6110617e-05 0 0)
(-1.2868481 -0.2073674 0 -1.5280569e-05 0 0)
(-1.2649767 -0.20509588 0 1.4325155e-05 0 0)
(-1.285499 -0.20722895 0 -1.3533075e-05 0 0)
(-1.2662118 -0.20522562 0 1.273012e-05 0 0)
(-1.2843053 -0.20710628 0 -1.2009524e-05 0 0)
(-1.2673104 -0.20534085 0 1.1315743e-05 0 0)
(-1.2832473 -0.20699744 0 -1.0674805e-05 0 0)
(-1.2682878 -0.20544323 0 1.0068654e-05 0 0)
(-1.2823082 -0.20690073 0 -9.5036494e-06 0 0)
(-1.2691583 -0.20553431 0 8.9726316e-06 0 0)
(-1.2814733 -0.20681468 0 -8.476682e-06 0 0)
(-1.2699347 -0.20561545 0 8.0118063e-06 0 0)
(-1.2807294 -0.20673796 0 -7.5778346e-06 0 0)
(-1.2706283 -0.20568786 0 7.1717808e-06 0 0)
(-1.2800653 -0.20666942 0 -6.7933124e-06 0 0)
(-1.2712495 -0.20575265 0 6.4398466e-06 0 0)
(-1.2794706 -0.20660802 0 -6.1111576e-06 0 0)
(-1.2718074 -0.20581078 0 5.8049096e-06 0 0)
(-1.2789363 -0.20655284 0 -5.5210263e-06 0 0)
(-1.2723104 -0.20586314 0 5.2573686e-06 0 0)
(-1.2784542 -0.20650304 0 -5.0140115e-06 0 0)
(-1.2727659 -0.20591051 0 4.7890004e-06 0 0)
(-1.2780169 -0.20645787 0 -4.582548e-06 0 0)
(-1.2731807 -0.2059536 0 4.3928837e-06 0 0)
(-1.2776178 -0.20641665 0 -4.2203522e-06 0 0)
(-1.2735609 -0.20599306 0 4.0633723e-06 0 0)
(-1.2772509 -0.20637877 0 -3.9224243e-06 0 0)
(-1.2739124 -0.20602948 0 3.7961981e-06 0 0)
(-1.2769105 -0.20634364 0 -3.6852037e-06 0 0)
(-1.2742402 -0.20606341 0 3.5887671e-06 0 0)
(-1.2765917 -0.20631077 0 -3.5082624e-06 0 0)
(-1.2745494 -0.20609537 0 3.436634e-06 0 0)
(-1.2762891 -0.20627965 0 -3.4042784e-06 0 0)
(-1.2748432 -0.20612567 0 3.3604771e-06 0 0)
(-1.2759933 -0.20624866 0 -3.1503504e-06 0 0)
(-1.2751249 -0.20615116 0 4.5186128e-06 0 0)
(-1.2757158 -0.20622509 0 -4.4047535e-06 0 0)
(-0.94638519 -0.37753361 0 -0.10906782 0 0)
(-1.1799076 -0.20480278 0 -0.0053713889 0 0)
(-1.1848405 -0.20514192 0 -0.0025043737 0 0)
(-1.2215578 -0.20363467 0 -0.0005232105 0 0)
(-1.1786474 -0.1982459 0 -0.00018452244 0 0)
(-1.2143052 -0.20164075 0 -4.3005908e-05 0 0)
(-1.1802165 -0.19795059 0 9.3646483e-06 0 0)
(-1.2110647 -0.20126797 0 -1.5654779e-05 0 0)
(-1.181947 -0.19813054 0 1.7829628e-05 0 0)
(-1.2091366 -0.20107917 0 -1.6157802e-05 0 0)
(-1.183527 -0.19830893 0 1.5474145e-05 0 0)
(-1.2075466 -0.20091233 0 -1.471887e-05 0 0)
(-1.184946 -0.19846555 0 1.3713776e-05 0 0)
(-1.2061528 -0.20076367 0 -1.3024728e-05 0 0)
(-1.1862106 -0.1986044 0 1.2198944e-05 0 0)
(-1.2049221 -0.20063205 0 -1.1530888e-05 0 0)
(-1.1873355 -0.19872772 0 1.0843561e-05 0 0)
(-1.2038331 -0.20051542 0 -1.0230987e-05 0 0)
(-1.1883361 -0.19883724 0 9.6397074e-06 0 0)
(-1.2028681 -0.20041194 0 -9.0933707e-06 0 0)
(-1.1892265 -0.19893457 0 8.5775001e-06 0 0)
(-1.2020115 -0.20031999 0 -8.0955137e-06 0 0)
(-1.1900195 -0.19902116 0 7.6437235e-06 0 0)
(-1.20125 -0.20023816 0 -7.2205781e-06 0 0)
(-1.1907268 -0.1990983 0 6.8250444e-06 0 0)
(-1.2005717 -0.2001652 0 -6.4547828e-06 0 0)
(-1.1913588 -0.19916716 0 6.1092455e-06 0 0)
(-1.1999661 -0.20010002 0 -5.7863519e-06 0 0)
(-1.1919248 -0.19922877 0 5.4855102e-06 0 0)
(-1.1994238 -0.20004162 0 -5.2050909e-06 0 0)
(-1.1924331 -0.19928406 0 4.9443863e-06 0 0)
(-1.1989367 -0.19998912 0 -4.7021866e-06 0 0)
(-1.1928914 -0.19933387 0 4.4776896e-06 0 0)
(-1.1984971 -0.19994174 0 -4.2700479e-06 0 0)
(-1.1933064 -0.19937895 0 4.0784102e-06 0 0)
(-1.1980985 -0.19989875 0 -3.9022289e-06 0 0)
(-1.1936844 -0.19941996 0 3.7406487e-06 0 0)
(-1.1977348 -0.19985951 0 -3.5933766e-06 0 0)
(-1.1940308 -0.19945753 0 3.4595927e-06 0 0)
(-1.1974004 -0.19982343 0 -3.3392287e-06 0 0)
(-1.194351 -0.19949222 0 3.2316066e-06 0 0)
(-1.1970903 -0.19978997 0 -3.1367389e-06 0 0)
(-1.1946496 -0.19952454 0 3.0544878e-06 0 0)
(-1.1967998 -0.19975864 0 -2.9856488e-06 0 0)
(-1.1949312 -0.19955501 0 2.9236151e-06 0 0)
(-1.1965243 -0.19972898 0 -2.8988701e-06 0 0)
(-1.1951988 -0.19958393 0 2.8565769e-06 0 0)
(-1.1962548 -0.19969936 0 -2.6465032e-06 0 0)
(-1.1954519 -0.19960802 0 3.9967025e-06 0 0)
(-1.1959882 -0.19967573 0 -3.9366877e-06 0 0)
(-0.92485176 -0.3534621 0 -0.094996922 0 0)
(-1.0744734 -0.19579551 0 -0.0051979408 0 0)
(-1.0984622 -0.19801046 0 -0.0025147818 0 0)
(-1.1420182 -0.19665743 0 -0.00042580052 0 0)
(-1.1025458 -0.19166073 0 -0.00015727437 0 0)
(-1.1354371 -0.19496304 0 -3.0049182e-05 0 0)
(-1.1044528 -0.19148205 0 8.7004737e-06 0 0)
(-1.1325743 -0.1946372 0 -1.1746639e-05 0 0)
(-1.1060573 -0.19165994 0 1.5378088e-05 0 0)
(-1.1308266 -0.19446102 0 -1.342986e-05 0 0)
(-1.1074957 -0.19183019 0 1.3048038e-05 0 0)
(-1.1293789 -0.19430305 0 -1.2388065e-05 0 0)
(-1.1087877 -0.19197911 0 1.1530695e-05 0 0)
(-1.1281088 -0.19416194 0 -1.0966989e-05 0 0)
(-1.1099388 -0.19211101 0 1.0260437e-05 0 0)
(-1.126987 -0.19403692 0 -9.7052084e-06 0 0)
(-1.1109628 -0.19222813 0 9.1232547e-06 0 0)
(-1.1259944 -0.19392614 0 -8.6093059e-06 0 0)
(-1.1118736 -0.19233215 0 8.1113145e-06 0 0)
(-1.1251148 -0.19382783 0 -7.6513855e-06 0 0)
(-1.1126841 -0.1924246 0 7.2176784e-06 0 0)
(-1.1243341 -0.19374047 0 -6.8115139e-06 0 0)
(-1.113406 -0.19250685 0 6.4318384e-06 0 0)
(-1.1236401 -0.19366272 0 -6.0751755e-06 0 0)
(-1.11405 -0.19258013 0 5.7427678e-06 0 0)
(-1.123022 -0.1935934 0 -5.4306746e-06 0 0)
(-1.1146253 -0.19264556 0 5.1402357e-06 0 0)
(-1.1224701 -0.19353146 0 -4.8680745e-06 0 0)
(-1.1151407 -0.1927041 0 4.6151497e-06 0 0)
(-1.1219761 -0.19347595 0 -4.3787868e-06 0 0)
(-1.1156035 -0.19275665 0 4.1595535e-06 0 0)
(-1.1215322 -0.19342605 0 -3.9553922e-06 0 0)
(-1.1160208 -0.192804 0 3.766554e-06 0 0)
(-1.1211318 -0.193381 0 -3.5914974e-06 0 0)
(-1.1163987 -0.19284685 0 3.4302453e-06 0 0)
(-1.1207686 -0.19334012 0 -3.2816739e-06 0 0)
(-1.1167429 -0.19288586 0 3.1456568e-06 0 0)
(-1.1204373 -0.1933028 0 -3.0214127e-06 0 0)
(-1.1170583 -0.19292159 0 2.9087302e-06 0 0)
(-1.1201328 -0.19326847 0 -2.8071161e-06 0 0)
(-1.1173497 -0.1929546 0 2.716396e-06 0 0)
(-1.1198504 -0.19323662 0 -2.6361931e-06 0 0)
(-1.1176215 -0.19298537 0 2.5667903e-06 0 0)
(-1.1195859 -0.19320679 0 -2.508496e-06 0 0)
(-1.1178778 -0.19301439 0 2.4551692e-06 0 0)
(-1.1193353 -0.19317854 0 -2.436945e-06 0 0)
(-1.1181214 -0.19304197 0 2.3961365e-06 0 0)
(-1.1190899 -0.19315029 0 -2.1879495e-06 0 0)
(-1.1183487 -0.19306478 0 3.4989327e-06 0 0)
(-1.1188354 -0.1931267 0 -3.4971832e-06 0 0)
(-0.91140322 -0.33999631 0 -0.087716148 0 0)
(-0.9892242 -0.18709229 0 -0.0045723723 0 0)
(-1.0133384 -0.19027228 0 -0.0026686597 0 0)
(-1.0622435 -0.18992152 0 -0.0004918789 0 0)
(-1.0284971 -0.18519633 0 -0.00016505525 0 0)
(-1.0590545 -0.18832336 0 -2.7222253e-05 0 0)
(-1.0310981 -0.18502239 0 5.8710279e-06 0 0)
(-1.0567473 -0.18801314 0 -8.7573086e-06 0 0)
(-1.0326359 -0.185188 0 1.2988206e-05 0 0)
(-1.0551814 -0.1878459 0 -1.0977347e-05 0 0)
(-1.0339479 -0.18534929 0 1.0820022e-05 0 0)
(-1.0538648 -0.18769607 0 -1.0259417e-05 0 0)
(-1.0351228 -0.18549063 0 9.5339988e-06 0 0)
(-1.0527084 -0.18756218 0 -9.0856951e-06 0 0)
(-1.0361695 -0.1856158 0 8.4877731e-06 0 0)
(-1.0516868 -0.18744352 0 -8.0359989e-06 0 0)
(-1.0371005 -0.18572693 0 7.5501004e-06 0 0)
(-1.050783 -0.18733837 0 -7.1265739e-06 0 0)
(-1.0379287 -0.18582564 0 6.7136439e-06 0 0)
(-1.049982 -0.18724506 0 -6.3329133e-06 0 0)
(-1.0386658 -0.18591337 0 5.9741488e-06 0 0)
(-1.0492712 -0.18716213 0 -5.6374594e-06 0 0)
(-1.0393224 -0.18599143 0 5.3235789e-06 0 0)
(-1.0486393 -0.18708832 0 -5.0278187e-06 0 0)
(-1.0399081 -0.18606099 0 4.7530171e-06 0 0)
(-1.0480766 -0.18702251 0 -4.4941985e-06 0 0)
(-1.0404315 -0.1861231 0 4.2540485e-06 0 0)
(-1.0475742 -0.1869637 0 -4.0283423e-06 0 0)
(-1.0409002 -0.18617868 0 3.8191569e-06 0 0)
(-1.0471244 -0.18691099 0 -3.6231285e-06 0 0)
(-1.0413213 -0.18622858 0 3.4417537e-06 0 0)
(-1.0467204 -0.1868636 0 -3.2724105e-06 0 0)
(-1.0417009 -0.18627354 0 3.1161253e-06 0 0)
(-1.046356 -0.18682081 0 -2.970889e-06 0 0)
(-1.0420447 -0.18631425 0 2.8373742e-06 0 0)
(-1.0460255 -0.18678197 0 -2.7140635e-06 0 0)
(-1.0423577 -0.18635131 0 2.6013765e-06 0 0)
(-1.045724 -0.1867465 0 -2.4981929e-06 0 0)
(-1.0426446 -0.18638527 0 2.4047594e-06 0 0)
(-1.0454469 -0.18671387 0 -2.3202815e-06 0 0)
(-1.0429097 -0.18641665 0 2.2449635e-06 0 0)
(-1.04519 -0.18668358 0 -2.1781465e-06 0 0)
(-1.0431569 -0.18644592 0 2.1204218e-06 0 0)
(-1.0449495 -0.1866552 0 -2.0717077e-06 0 0)
(-1.0433899 -0.18647353 0 2.0263308e-06 0 0)
(-1.0447217 -0.18662832 0 -2.0136876e-06 0 0)
(-1.0436114 -0.1864998 0 1.9745211e-06 0 0)
(-1.0444985 -0.18660141 0 -1.769924e-06 0 0)
(-1.0438155 -0.18652144 0 3.0238319e-06 0 0)
(-1.0442569 -0.18657797 0 -3.0853232e-06 0 0)
(-0.89010868 -0.31778913 0 -0.075750398 0 0)
(-0.90917735 -0.17892824 0 -0.0041952415 0 0)
(-0.9378576 -0.1827816 0 -0.0024597596 0 0)
(-0.98654602 -0.18292299 0 -0.00042584632 0 0)
(-0.95722831 -0.17863117 0 -0.00013878312 0 0)
(-0.98533677 -0.18164933 0 -1.5735659e-05 0 0)
(-0.96015098 -0.17854496 0 5.7952052e-06 0 0)
(-0.9835442 -0.18138633 0 -5.3040949e-06 0 0)
(-0.96166944 -0.17871122 0 1.1009898e-05 0 0)
(-0.98217807 -0.18123227 0 -8.666942e-06 0 0)
(-0.96288446 -0.17886572 0 8.7979087e-06 0 0)
(-0.98099278 -0.18109104 0 -8.3012056e-06 0 0)
(-0.9639568 -0.17900005 0 7.7057677e-06 0 0)
(-0.97994366 -0.18096425 0 -7.3601649e-06 0 0)
(-0.96490858 -0.17911879 0 6.8627875e-06 0 0)
(-0.97901517 -0.18085177 0 -6.5056571e-06 0 0)
(-0.96575442 -0.17922416 0 6.107718e-06 0 0)
(-0.97819325 -0.18075206 0 -5.7672632e-06 0 0)
(-0.9665067 -0.17931775 0 5.4321033e-06 0 0)
(-0.97746487 -0.18066357 0 -5.1241696e-06 0 0)
(-0.96717622 -0.17940093 0 4.833923e-06 0 0)
(-0.97681849 -0.18058493 0 -4.5610842e-06 0 0)
(-0.96777265 -0.17947495 0 4.307371e-06 0 0)
(-0.97624393 -0.18051493 0 -4.0675696e-06 0 0)
(-0.96830471 -0.17954091 0 3.8454583e-06 0 0)
(-0.97573225 -0.1804525 0 -3.6355783e-06 0 0)
(-0.96878017 -0.17959981 0 3.4414344e-06 0 0)
(-0.9752755 -0.18039671 0 -3.2583924e-06 0 0)
(-0.96920604 -0.17965253 0 3.0892277e-06 0 0)
(-0.97486662 -0.18034671 0 -2.9302344e-06 0 0)
(-0.9695886 -0.17969987 0 2.783503e-06 0 0)
(-0.97449935 -0.18030174 0 -2.6461234e-06 0 0)
(-0.96993349 -0.17974253 0 2.5196279e-06 0 0)
(-0.97416804 -0.18026113 0 -2.4017614e-06 0 0)
(-0.97024583 -0.17978116 0 2.2936286e-06 0 0)
(-0.97386766 -0.18022427 0 -2.193497e-06 0 0)
(-0.97053023 -0.17981634 0 2.1021557e-06 0 0)
(-0.97359364 -0.18019059 0 -2.0182907e-06 0 0)
(-0.9707909 -0.17984859 0 1.9424623e-06 0 0)
(-0.97334182 -0.1801596 0 -1.8736947e-06 0 0)
(-0.97103171 -0.17987839 0 1.8124512e-06 0 0)
(-0.9731084 -0.18013083 0 -1.7578948e-06 0 0)
(-0.97125624 -0.1799062 0 1.7108185e-06 0 0)