/*--------------------------------*- C++ -*----------------------------------*\
| =========                 |                                                 |
| \\      /  F ield         | OpenFOAM: The Open Source CFD Toolbox           |
|  \\    /   O peration     | Version:  2312                                  |
|   \\  /    A nd           | Website:  www.openfoam.com                      |
|    \\/     M anipulation  |                                                 |
\*---------------------------------------------------------------------------*/
FoamFile
{
    version     2.0;
    format      ascii;
    arch        "LSB;label=32;scalar=64";
    class       volSymmTensorField;
    location    "4";
    object      sigma;
}
// * * * * * * * * * * * * * * * * * * * * * * * * * * * * * * * * * * * * * //

dimensions      [0 2 -2 0 0 0 0];

internalField   nonuniform List<symmTensor> 
4000
(
(-1.4191958 -0.61971205 0 -0.23026701 0 0)
(-2.8606918 -0.30963121 0 -0.00083198124 0 0)
(-1.9741925 -0.25692584 0 -0.00027445338 0 0)
(-2.1392545 -0.26716282 0 -3.2703118e-05 0 0)
(-2.0105752 -0.25868122 0 4.451809e-05 0 0)
(-2.1016831 -0.26489987 0 -5.3971139e-05 0 0)
(-2.0162672 -0.25904278 0 4.9666615e-05 0 0)
(-2.0939173 -0.26438707 0 -4.763081e-05 0 0)
(-2.0214554 -0.25939799 0 4.4871551e-05 0 0)
(-2.0892284 -0.26406931 0 -4.2373578e-05 0 0)
(-2.0255445 -0.25968099 0 3.9840441e-05 0 0)
(-2.0852896 -0.26380053 0 -3.7562912e-05 0 0)
(-2.029117 -0.25992845 0 3.5329888e-05 0 0)
(-2.0818467 -0.26356515 0 -3.3297177e-05 0 0)
(-2.0322936 -0.26014828 0 3.1337781e-05 0 0)
(-2.078808 -0.26335724 0 -2.9538085e-05 0 0)
(-2.0351173 -0.26034349 0 2.7816332e-05 0 0)
(-2.0761174 -0.26317307 0 -2.6228374e-05 0 0)
(-2.0376261 -0.26051675 0 2.4715005e-05 0 0)
(-2.0737311 -0.2630097 0 -2.3316686e-05 0 0)
(-2.0398563 -0.26067061 0 2.1987432e-05 0 0)
(-2.0716117 -0.26286462 0 -2.0758268e-05 0 0)
(-2.0418408 -0.26080735 0 1.9592315e-05 0 0)
(-2.0697264 -0.2627356 0 -1.8513969e-05 0 0)
(-2.0436092 -0.26092906 0 1.7493222e-05 0 0)
(-2.0680464 -0.26262068 0 -1.6549498e-05 0 0)
(-2.0451881 -0.26103756 0 1.565818e-05 0 0)
(-2.066546 -0.26251813 0 -1.4834857e-05 0 0)
(-2.0466011 -0.26113451 0 1.405922e-05 0 0)
(-2.0652022 -0.26242638 0 -1.3343873e-05 0 0)
(-2.0478694 -0.26122137 0 1.2671974e-05 0 0)
(-2.0639946 -0.26234406 0 -1.2053797e-05 0 0)
(-2.0490121 -0.26129945 0 1.1475307e-05 0 0)
(-2.0629048 -0.26226991 0 -1.0944958e-05 0 0)
(-2.0500463 -0.26136993 0 1.0451e-05 0 0)
(-2.0619163 -0.26220281 0 -1.0000468e-05 0 0)
(-2.0509876 -0.26143388 0 9.5834856e-06 0 0)
(-2.0610142 -0.26214176 0 -9.2059887e-06 0 0)
(-2.05185 -0.26149226 0 8.859645e-06 0 0)
(-2.0601847 -0.26208583 0 -8.5495495e-06 0 0)
(-2.0526466 -0.26154594 0 8.2686683e-06 0 0)
(-2.0594155 -0.26203418 0 -8.021467e-06 0 0)
(-2.0533892 -0.26159574 0 7.8020151e-06 0 0)
(-2.0586948 -0.26198605 0 -7.6146217e-06 0 0)
(-2.0540886 -0.26164237 0 7.4534081e-06 0 0)
(-2.0580107 -0.26194062 0 -7.3245619e-06 0 0)
(-2.0547546 -0.26168643 0 7.2288741e-06 0 0)
(-2.0573671 -0.26189799 0 -7.1123428e-06 0 0)
(-2.055495 -0.2617342 0 7.2857064e-06 0 0)
(-2.0571696 -0.26188479 0 -7.0922827e-06 0 0)
(-1.2631193 -0.57129697 0 -0.21688373 0 0)
(-2.5235178 -0.29430997 0 -0.0029446812 0 0)
(-1.8936234 -0.25289423 0 -0.00084741539 0 0)
(-1.975408 -0.25674743 0 -3.4150266e-05 0 0)
(-1.8684764 -0.24927365 0 3.0100554e-05 0 0)
(-1.9444192 -0.25489305 0 -5.9989518e-05 0 0)
(-1.8711883 -0.24944812 0 5.2909824e-05 0 0)
(-1.9377413 -0.25442561 0 -5.1948151e-05 0 0)
(-1.8755394 -0.24977045 0 4.9177888e-05 0 0)
(-1.9337638 -0.254135 0 -4.6562495e-05 0 0)
(-1.8790454 -0.25003432 0 4.3755366e-05 0 0)
(-1.9303815 -0.2538845 0 -4.1309535e-05 0 0)
(-1.8821089 -0.25026535 0 3.8827461e-05 0 0)
(-1.9274172 -0.25366437 0 -3.661106e-05 0 0)
(-1.8848342 -0.25047069 0 3.4448542e-05 0 0)
(-1.9248008 -0.2534699 0 -3.2474656e-05 0 0)
(-1.8872574 -0.25065306 0 3.0580647e-05 0 0)
(-1.9224843 -0.25329766 0 -2.8835584e-05 0 0)
(-1.889411 -0.25081495 0 2.7172717e-05 0 0)
(-1.9204299 -0.25314487 0 -2.5635165e-05 0 0)
(-1.8913257 -0.25095871 0 2.4175145e-05 0 0)
(-1.9186052 -0.25300917 0 -2.2823431e-05 0 0)
(-1.8930299 -0.25108651 0 2.1542939e-05 0 0)
(-1.9169819 -0.25288849 0 -2.0357124e-05 0 0)
(-1.8945489 -0.25120026 0 1.9236178e-05 0 0)
(-1.9155352 -0.25278099 0 -1.8198504e-05 0 0)
(-1.8959054 -0.25130169 0 1.7219761e-05 0 0)
(-1.9142428 -0.25268504 0 -1.6314603e-05 0 0)
(-1.8971199 -0.25139233 0 1.5462982e-05 0 0)
(-1.913085 -0.25259919 0 -1.4676683e-05 0 0)
(-1.8982105 -0.25147355 0 1.3939093e-05 0 0)
(-1.9120443 -0.25252213 0 -1.3259784e-05 0 0)
(-1.8991935 -0.25154659 0 1.2624914e-05 0 0)
(-1.9111047 -0.25245272 0 -1.2042347e-05 0 0)
(-1.9000837 -0.25161254 0 1.1500497e-05 0 0)
(-1.9102521 -0.25238988 0 -1.1005914e-05 0 0)
(-1.9008945 -0.2516724 0 1.0548859e-05 0 0)
(-1.9094734 -0.25233269 0 -1.0134886e-05 0 0)
(-1.901638 -0.25172706 0 9.7557873e-06 0 0)
(-1.9087571 -0.25228027 0 -9.4163831e-06 0 0)
(-1.9023254 -0.25177736 0 9.1097829e-06 0 0)
(-1.9080921 -0.25223185 0 -8.8402814e-06 0 0)
(-1.902967 -0.25182404 0 8.6021832e-06 0 0)
(-1.9074685 -0.25218669 0 -8.4001189e-06 0 0)
(-1.9035722 -0.25186779 0 8.2269394e-06 0 0)
(-1.9068756 -0.25214407 0 -8.0949093e-06 0 0)
(-1.9041482 -0.25190905 0 8.0024813e-06 0 0)
(-1.906308 -0.25210322 0 -7.8369311e-06 0 0)
(-1.9047598 -0.25195042 0 8.3807458e-06 0 0)
(-1.9060503 -0.25208453 0 -7.7065201e-06 0 0)
(-1.1828731 -0.54029042 0 -0.20318997 0 0)
(-2.2884742 -0.27927897 0 -0.0034025727 0 0)
(-1.8115979 -0.24840852 0 -0.0012694283 0 0)
(-1.8733709 -0.25011425 0 -5.8546596e-05 0 0)
(-1.7757518 -0.24293598 0 1.4009901e-05 0 0)
(-1.8429933 -0.2482131 0 -5.9513999e-05 0 0)
(-1.7770149 -0.24302471 0 5.0214588e-05 0 0)
(-1.8367494 -0.24776282 0 -5.012232e-05 0 0)
(-1.7808487 -0.2433279 0 4.7688285e-05 0 0)
(-1.8331826 -0.24748892 0 -4.5195227e-05 0 0)
(-1.7840019 -0.24357987 0 4.2449971e-05 0 0)
(-1.830147 -0.24725069 0 -4.0123398e-05 0 0)
(-1.7867559 -0.24380027 0 3.768306e-05 0 0)
(-1.8274825 -0.24704089 0 -3.5552227e-05 0 0)
(-1.7892054 -0.24399614 0 3.3439507e-05 0 0)
(-1.8251305 -0.24685551 0 -3.1531691e-05 0 0)
(-1.7913838 -0.24417011 0 2.968714e-05 0 0)
(-1.8230485 -0.24669133 0 -2.7997042e-05 0 0)
(-1.7933201 -0.24432455 0 2.6379602e-05 0 0)
(-1.821202 -0.24654569 0 -2.4889315e-05 0 0)
(-1.795042 -0.24446172 0 2.3469901e-05 0 0)
(-1.8195621 -0.24641632 0 -2.2159294e-05 0 0)
(-1.7965747 -0.24458366 0 2.0914725e-05 0 0)
(-1.8181032 -0.24630127 0 -1.9764763e-05 0 0)
(-1.797941 -0.24469221 0 1.8675437e-05 0 0)
(-1.8168029 -0.24619876 0 -1.7669023e-05 0 0)
(-1.7991614 -0.24478902 0 1.6718005e-05 0 0)
(-1.8156413 -0.24610726 0 -1.5840056e-05 0 0)
(-1.8002541 -0.24487555 0 1.5012652e-05 0 0)
(-1.8146006 -0.24602537 0 -1.424997e-05 0 0)
(-1.8012355 -0.24495311 0 1.3533443e-05 0 0)
(-1.8136649 -0.24595185 0 -1.2874561e-05 0 0)
(-1.8021203 -0.24502286 0 1.225792e-05 0 0)
(-1.81282 -0.24588559 0 -1.1692947e-05 0 0)
(-1.8029218 -0.24508587 0 1.1166785e-05 0 0)
(-1.8120531 -0.2458256 0 -1.0687288e-05 0 0)
(-1.8036518 -0.24514308 0 1.0243664e-05 0 0)
(-1.8113526 -0.24577097 0 -9.8425836e-06 0 0)
(-1.8043215 -0.24519534 0 9.4749547e-06 0 0)
(-1.8107079 -0.24572088 0 -9.1465881e-06 0 0)
(-1.8049408 -0.24524346 0 8.8498558e-06 0 0)
(-1.8101092 -0.24567457 0 -8.5899691e-06 0 0)
(-1.8055191 -0.24528814 0 8.3606857e-06 0 0)
(-1.8095473 -0.24563136 0 -8.1677126e-06 0 0)
(-1.8060649 -0.24533005 0 8.0025809e-06 0 0)
(-1.8090128 -0.24559055 0 -7.8831589e-06 0 0)
(-1.8065846 -0.24536957 0 7.80052e-06 0 0)
(-1.8084981 -0.24555114 0 -7.6309107e-06 0 0)
(-1.8071284 -0.24540779 0 8.388294e-06 0 0)
(-1.8082239 -0.2455315 0 -7.9006777e-06 0 0)
(-1.1324161 -0.51315 0 -0.18786068 0 0)
(-2.1020617 -0.26807316 0 -0.0040857728 0 0)
(-1.7274804 -0.24380974 0 -0.0017371935 0 0)
(-1.7746293 -0.24351614 0 -8.5824621e-05 0 0)
(-1.6850221 -0.23661424 0 -1.1086011e-05 0 0)
(-1.7449245 -0.24154305 0 -5.3972216e-05 0 0)
(-1.6849245 -0.23660342 0 4.2675684e-05 0 0)
(-1.7389334 -0.24110383 0 -4.3655096e-05 0 0)
(-1.6882633 -0.23688555 0 4.1940218e-05 0 0)
(-1.7356873 -0.24084564 0 -3.9773138e-05 0 0)
(-1.6911128 -0.23712554 0 3.7347377e-05 0 0)
(-1.7329368 -0.24061938 0 -3.5353652e-05 0 0)
(-1.6936058 -0.23733532 0 3.3170412e-05 0 0)
(-1.7305194 -0.24041963 0 -3.1316764e-05 0 0)
(-1.6958228 -0.23752172 0 2.9443293e-05 0 0)
(-1.7283852 -0.24024311 0 -2.7770509e-05 0 0)
(-1.6977945 -0.23768729 0 2.6142239e-05 0 0)
(-1.7264962 -0.24008676 0 -2.465607e-05 0 0)
(-1.6995474 -0.2378343 0 2.3230637e-05 0 0)
(-1.7248212 -0.23994806 0 -2.1918896e-05 0 0)
(-1.7011062 -0.23796487 0 2.0668674e-05 0 0)
(-1.7233337 -0.23982485 0 -1.9514714e-05 0 0)
(-1.702494 -0.23808096 0 1.8418699e-05 0 0)
(-1.7220105 -0.23971526 0 -1.7406074e-05 0 0)
(-1.7037312 -0.23818432 0 1.6446836e-05 0 0)
(-1.7208312 -0.23961761 0 -1.5560584e-05 0 0)
(-1.7048364 -0.23827651 0 1.4723166e-05 0 0)
(-1.7197777 -0.23953042 0 -1.3950039e-05 0 0)
(-1.705826 -0.23835893 0 1.3221492e-05 0 0)
(-1.718834 -0.23945238 0 -1.2549889e-05 0 0)
(-1.7067149 -0.23843283 0 1.1919002e-05 0 0)
(-1.7179855 -0.23938229 0 -1.1338841e-05 0 0)
(-1.7075163 -0.23849931 0 1.0795951e-05 0 0)
(-1.7172195 -0.23931911 0 -1.0298547e-05 0 0)
(-1.7082422 -0.23855939 0 9.8353962e-06 0 0)
(-1.7165243 -0.23926188 0 -9.4133595e-06 0 0)
(-1.7089035 -0.23861396 0 9.0230008e-06 0 0)
(-1.7158892 -0.23920974 0 -8.6701787e-06 0 0)
(-1.7095101 -0.23866384 0 8.3469325e-06 0 0)
(-1.7153048 -0.2391619 0 -8.0584144e-06 0 0)
(-1.710071 -0.23870979 0 7.7979536e-06 0 0)
(-1.7147621 -0.23911765 0 -7.5702162e-06 0 0)
(-1.7105949 -0.2387525 0 7.3698312e-06 0 0)
(-1.7142529 -0.23907632 0 -7.2022005e-06 0 0)
(-1.7110894 -0.23879259 0 7.0585983e-06 0 0)
(-1.7137684 -0.23903727 0 -6.9611117e-06 0 0)
(-1.7115602 -0.23883043 0 6.8937652e-06 0 0)
(-1.7132995 -0.23899924 0 -6.7137527e-06 0 0)
(-1.7120444 -0.2388657 0 7.6968363e-06 0 0)
(-1.7130095 -0.23897834 0 -7.2883237e-06 0 0)
(-1.0891761 -0.4881751 0 -0.17379491 0 0)
(-1.9178909 -0.25643472 0 -0.0045385711 0 0)
(-1.6362505 -0.23843794 0 -0.0021235847 0 0)
(-1.6779939 -0.23693357 0 -0.00012708164 0 0)
(-1.5959855 -0.23027047 0 -3.7834373e-05 0 0)
(-1.6498418 -0.23488596 0 -4.8886039e-05 0 0)
(-1.5950243 -0.23017343 0 3.5351462e-05 0 0)
(-1.6440587 -0.23445344 0 -3.7206968e-05 0 0)
(-1.5979114 -0.23043532 0 3.6273644e-05 0 0)
(-1.6410723 -0.23420903 0 -3.4360855e-05 0 0)
(-1.6004917 -0.23066418 0 3.2276008e-05 0 0)
(-1.6385678 -0.23399388 0 -3.0598641e-05 0 0)
(-1.6027587 -0.23086418 0 2.8677621e-05 0 0)
(-1.6363658 -0.23380353 0 -2.7096228e-05 0 0)
(-1.6047745 -0.23104182 0 2.5463413e-05 0 0)
(-1.6344214 -0.23363527 0 -2.4023033e-05 0 0)
(-1.6065675 -0.23119961 0 2.2611459e-05 0 0)
(-1.6327006 -0.23348623 0 -2.1327369e-05 0 0)
(-1.6081616 -0.23133972 0 2.0093986e-05 0 0)
(-1.6311749 -0.23335402 0 -1.895936e-05 0 0)
(-1.6095794 -0.23146418 0 1.7878202e-05 0 0)
(-1.6298202 -0.23323656 0 -1.6879742e-05 0 0)
(-1.6108416 -0.23157485 0 1.5932061e-05 0 0)
(-1.6286152 -0.23313208 0 -1.5055834e-05 0 0)
(-1.611967 -0.23167339 0 1.4226412e-05 0 0)
(-1.6275414 -0.23303897 0 -1.3459543e-05 0 0)
(-1.6129724 -0.23176131 0 1.2735423e-05 0 0)
(-1.6265823 -0.23295582 0 -1.2066463e-05 0 0)
(-1.6138726 -0.23183991 0 1.1436455e-05 0 0)
(-1.6257231 -0.23288138 0 -1.0855363e-05 0 0)
(-1.6146811 -0.2319104 0 1.0309788e-05 0 0)
(-1.6249509 -0.23281452 0 -9.8078417e-06 0 0)
(-1.61541 -0.23197383 0 9.3383617e-06 0 0)
(-1.6242537 -0.23275422 0 -8.9080509e-06 0 0)
(-1.6160703 -0.23203117 0 8.5075492e-06 0 0)
(-1.6236211 -0.23269959 0 -8.1424958e-06 0 0)
(-1.6166717 -0.23208327 0 7.8049983e-06 0 0)
(-1.6230434 -0.2326498 0 -7.4999119e-06 0 0)
(-1.6172233 -0.23213091 0 7.2205613e-06 0 0)
(-1.6225118 -0.2326041 0 -6.971255e-06 0 0)
(-1.6177333 -0.23217482 0 6.746412e-06 0 0)
(-1.6220183 -0.2325618 0 -6.5499475e-06 0 0)
(-1.6182094 -0.23221565 0 6.3774726e-06 0 0)
(-1.6215554 -0.23252228 0 -6.2337409e-06 0 0)
(-1.6186589 -0.23225402 0 6.1100564e-06 0 0)
(-1.6211152 -0.23248491 0 -6.0316084e-06 0 0)
(-1.6190865 -0.23229025 0 5.9743371e-06 0 0)
(-1.6206878 -0.23244829 0 -5.7855278e-06 0 0)
(-1.6195199 -0.23232307 0 6.9296056e-06 0 0)
(-1.6203913 -0.23242651 0 -6.6047633e-06 0 0)
(-1.0465905 -0.46080769 0 -0.1578731 0 0)
(-1.7460997 -0.24524861 0 -0.0048598042 0 0)
(-1.5435538 -0.23259849 0 -0.0024218245 0 0)
(-1.5829112 -0.23032756 0 -0.00018487804 0 0)
(-1.5087227 -0.22390844 0 -6.659127e-05 0 0)
(-1.5575222 -0.22823614 0 -4.5666573e-05 0 0)
(-1.507419 -0.2237382 0 2.9077671e-05 0 0)
(-1.5520068 -0.22780924 0 -3.1732183e-05 0 0)
(-1.5099082 -0.22398037 0 3.1556213e-05 0 0)
(-1.5492436 -0.22757718 0 -2.9786608e-05 0 0)
(-1.5122418 -0.22419851 0 2.8015411e-05 0 0)
(-1.5469573 -0.22737251 0 -2.6593083e-05 0 0)
(-1.5143057 -0.22438922 0 2.4896129e-05 0 0)
(-1.5449483 -0.22719109 0 -2.3542386e-05 0 0)
(-1.5161414 -0.22455855 0 2.2113197e-05 0 0)
(-1.5431743 -0.22703067 0 -2.0867532e-05 0 0)
(-1.5177743 -0.22470895 0 1.9639329e-05 0 0)
(-1.5416043 -0.22688858 0 -1.8524459e-05 0 0)
(-1.5192261 -0.22484251 0 1.7453602e-05 0 0)
(-1.5402125 -0.22676251 0 -1.6467295e-05 0 0)
(-1.5205175 -0.22496116 0 1.5529168e-05 0 0)
(-1.5389768 -0.22665052 0 -1.4660963e-05 0 0)
(-1.5216673 -0.22506667 0 1.3838727e-05 0 0)
(-1.5378778 -0.22655089 0 -1.3076792e-05 0 0)
(-1.5226925 -0.22516064 0 1.2357114e-05 0 0)
(-1.5368986 -0.22646209 0 -1.1690309e-05 0 0)
(-1.5236083 -0.22524447 0 1.1061935e-05 0 0)
(-1.536024 -0.22638279 0 -1.0480302e-05 0 0)
(-1.5244284 -0.22531944 0 9.9335378e-06 0 0)
(-1.5352407 -0.22631177 0 -9.4283326e-06 0 0)
(-1.525165 -0.22538668 0 8.9548021e-06 0 0)
(-1.5345367 -0.22624798 0 -8.5184302e-06 0 0)
(-1.525829 -0.22544721 0 8.110917e-06 0 0)
(-1.5339013 -0.22619045 0 -7.7368418e-06 0 0)
(-1.5264304 -0.22550192 0 7.3891912e-06 0 0)
(-1.5333248 -0.2261383 0 -7.0718687e-06 0 0)
(-1.5269782 -0.22555166 0 6.7789214e-06 0 0)
(-1.5327984 -0.22609075 0 -6.5137651e-06 0 0)
(-1.5274805 -0.22559716 0 6.2713406e-06 0 0)
(-1.5323142 -0.2260471 0 -6.0547391e-06 0 0)
(-1.5279449 -0.22563911 0 5.8597419e-06 0 0)
(-1.5318647 -0.22600668 0 -5.6891879e-06 0 0)
(-1.5283783 -0.22567814 0 5.5398838e-06 0 0)
(-1.5314433 -0.22596889 0 -5.4155876e-06 0 0)
(-1.5287873 -0.22571483 0 5.3079864e-06 0 0)
(-1.5310428 -0.22593315 0 -5.2443581e-06 0 0)
(-1.5291763 -0.22574952 0 5.1929109e-06 0 0)
(-1.530653 -0.22589794 0 -4.9954289e-06 0 0)
(-1.5295649 -0.22578017 0 6.2510161e-06 0 0)
(-1.5303557 -0.22587546 0 -5.9869949e-06 0 0)
(-1.0169536 -0.44040776 0 -0.14621138 0 0)
(-1.5861406 -0.23439976 0 -0.0050729426 0 0)
(-1.4508651 -0.22625455 0 -0.0025915003 0 0)
(-1.4892129 -0.2237002 0 -0.00026649747 0 0)
(-1.4231621 -0.21753035 0 -0.00010058272 0 0)
(-1.4678317 -0.22159146 0 -4.4964652e-05 0 0)
(-1.4221252 -0.21729976 0 2.3278577e-05 0 0)
(-1.4627159 -0.22116957 0 -2.7071209e-05 0 0)
(-1.4242954 -0.2175224 0 2.7535082e-05 0 0)
(-1.4601576 -0.22094855 0 -2.5842777e-05 0 0)
(-1.4264028 -0.21772996 0 2.4364078e-05 0 0)
(-1.4580672 -0.22075387 0 -2.3149587e-05 0 0)
(-1.4282818 -0.2179117 0 2.1648327e-05 0 0)
(-1.4562333 -0.22058106 0 -2.0489279e-05 0 0)
(-1.4299542 -0.21807301 0 1.9235071e-05 0 0)
(-1.4546139 -0.2204282 0 -1.8156778e-05 0 0)
(-1.4314419 -0.2182163 0 1.7086023e-05 0 0)
(-1.453181 -0.2202928 0 -1.6116563e-05 0 0)
(-1.4327648 -0.21834353 0 1.518531e-05 0 0)
(-1.4519108 -0.22017267 0 -1.4326411e-05 0 0)
(-1.4339416 -0.21845658 0 1.3511164e-05 0 0)
(-1.4507832 -0.22006595 0 -1.2754837e-05 0 0)
(-1.4349895 -0.21855712 0 1.2040376e-05 0 0)
(-1.4497804 -0.21997099 0 -1.1376605e-05 0 0)
(-1.4359239 -0.21864666 0 1.0751212e-05 0 0)
(-1.448887 -0.21988636 0 -1.0170349e-05 0 0)
(-1.4367586 -0.21872656 0 9.6242312e-06 0 0)
(-1.4480891 -0.21981076 0 -9.1175991e-06 0 0)
(-1.4375061 -0.21879802 0 8.6423487e-06 0 0)
(-1.4473746 -0.21974306 0 -8.2023151e-06 0 0)
(-1.4381775 -0.21886213 0 7.7906714e-06 0 0)
(-1.4467325 -0.21968224 0 -7.4106082e-06 0 0)
(-1.4387827 -0.21891984 0 7.0563169e-06 0 0)
(-1.446153 -0.21962736 0 -6.7305208e-06 0 0)
(-1.4393308 -0.21897203 0 6.4282497e-06 0 0)
(-1.4456273 -0.21957762 0 -6.1518882e-06 0 0)
(-1.43983 -0.21901948 0 5.8971717e-06 0 0)
(-1.4451474 -0.21953225 0 -5.6662542e-06 0 0)
(-1.4402877 -0.2190629 0 5.4554821e-06 0 0)
(-1.444706 -0.21949058 0 -5.2668765e-06 0 0)
(-1.4407108 -0.21910295 0 5.0973987e-06 0 0)
(-1.4442965 -0.21945198 0 -4.9489382e-06 0 0)
(-1.4411056 -0.21914022 0 4.8193301e-06 0 0)
(-1.4439126 -0.21941588 0 -4.7114077e-06 0 0)
(-1.4414781 -0.2191753 0 4.6172791e-06 0 0)
(-1.4435479 -0.21938172 0 -4.5657379e-06 0 0)
(-1.4418323 -0.21920848 0 4.5177754e-06 0 0)
(-1.4431923 -0.21934793 0 -4.3137682e-06 0 0)
(-1.4421811 -0.21923721 0 5.6391585e-06 0 0)
(-1.4428987 -0.21932492 0 -5.4262156e-06 0 0)
(-0.98549305 -0.41397625 0 -0.13020651 0 0)
(-1.4376108 -0.22402182 0 -0.0051964814 0 0)
(-1.3605803 -0.21958517 0 -0.0026475573 0 0)
(-1.3970576 -0.21704036 0 -0.00036533628 0 0)
(-1.3392845 -0.21111519 0 -0.00013494841 0 0)
(-1.3806432 -0.21494071 0 -4.5043346e-05 0 0)
(-1.3391136 -0.21085489 0 1.7958016e-05 0 0)
(-1.3761345 -0.21453285 0 -2.2938407e-05 0 0)
(-1.3410853 -0.21106152 0 2.3954291e-05 0 0)
(-1.373789 -0.21432273 0 -2.230964e-05 0 0)
(-1.3429942 -0.21125888 0 2.1104644e-05 0 0)
(-1.3718783 -0.21413763 0 -2.0068146e-05 0 0)
(-1.344705 -0.21143193 0 1.8744414e-05 0 0)
(-1.370204 -0.21397314 0 -1.7758796e-05 0 0)
(-1.3462288 -0.21158548 0 1.6660963e-05 0 0)
(-1.3687257 -0.2138276 0 -1.5732657e-05 0 0)
(-1.3475844 -0.21172187 0 1.4802381e-05 0 0)
(-1.3674178 -0.21369868 0 -1.3963247e-05 0 0)
(-1.34879 -0.211843 0 1.3156587e-05 0 0)
(-1.3662585 -0.21358429 0 -1.2411838e-05 0 0)
(-1.3498625 -0.21195063 0 1.170629e-05 0 0)
(-1.3652293 -0.21348267 0 -1.1050174e-05 0 0)
(-1.3508176 -0.21204635 0 1.0431947e-05 0 0)
(-1.3643143 -0.21339224 0 -9.8560859e-06 0 0)
(-1.3516694 -0.21213162 0 9.3148954e-06 0 0)
(-1.363499 -0.21331163 0 -8.8109845e-06 0 0)
(-1.3524303 -0.21220771 0 8.3383361e-06 0 0)
(-1.3627711 -0.21323962 0 -7.8988496e-06 0 0)
(-1.3531117 -0.21227578 0 7.4874773e-06 0 0)
(-1.3621192 -0.21317513 0 -7.1057812e-06 0 0)
(-1.3537237 -0.21233684 0 6.7494179e-06 0 0)
(-1.3615335 -0.21311717 0 -6.4197502e-06 0 0)
(-1.3542755 -0.21239183 0 6.1129968e-06 0 0)
(-1.3610049 -0.21306488 0 -5.8304002e-06 0 0)
(-1.3547752 -0.21244157 0 5.5686548e-06 0 0)
(-1.3605254 -0.21301746 0 -5.328932e-06 0 0)
(-1.3552302 -0.2124868 0 5.1083433e-06 0 0)
(-1.3600878 -0.2129742 0 -4.9080331e-06 0 0)
(-1.3556474 -0.21252821 0 4.7254916e-06 0 0)
(-1.3596854 -0.21293446 0 -4.5618821e-06 0 0)
(-1.3560329 -0.21256641 0 4.4151214e-06 0 0)
(-1.3593121 -0.21289763 0 -4.2863333e-06 0 0)
(-1.3563927 -0.21260199 0 4.1741806e-06 0 0)
(-1.3589622 -0.21286316 0 -4.0807085e-06 0 0)
(-1.356732 -0.21263548 0 3.9984396e-06 0 0)
(-1.3586301 -0.21283055 0 -3.9572023e-06 0 0)
(-1.3570546 -0.2126672 0 3.9116118e-06 0 0)
(-1.3583057 -0.21279817 0 -3.7034659e-06 0 0)
(-1.3573679 -0.21269422 0 5.0646162e-06 0 0)
(-1.358019 -0.21277481 0 -4.900294e-06 0 0)
(-0.96657798 -0.39754678 0 -0.12080307 0 0)
(-1.3021226 -0.21429762 0 -0.0053763196 0 0)
(-1.2725254 -0.21235302 0 -0.0025406462 0 0)
(-1.3066559 -0.21041105 0 -0.00049398344 0 0)
(-1.2575076 -0.20470671 0 -0.00017124032 0 0)
(-1.296 -0.2082892 0 -4.5615307e-05 0 0)
(-1.2584177 -0.20440359 0 1.3244858e-05 0 0)
(-1.2922331 -0.20789794 0 -1.9116695e-05 0 0)
(-1.2602883 -0.20459712 0 2.075562e-05 0 0)
(-1.2901162 -0.20769939 0 -1.90838e-05 0 0)
(-1.2620297 -0.20478514 0 1.8156957e-05 0 0)
(-1.2883749 -0.20752373 0 -1.7267549e-05 0 0)
(-1.2635889 -0.20494988 0 1.6110342e-05 0 0)
(-1.2868473 -0.20736732 0 -1.5280161e-05 0 0)
(-1.2649775 -0.20509596 0 1.4324732e-05 0 0)
(-1.2854982 -0.20722886 0 -1.3532577e-05 0 0)
(-1.2662126 -0.2052257 0 1.2729597e-05 0 0)
(-1.2843045 -0.2071062 0 -1.2008959e-05 0 0)
(-1.2673112 -0.20534092 0 1.1315155e-05 0 0)
(-1.2832466 -0.20699736 0 -1.0674192e-05 0 0)
(-1.2682886 -0.20544331 0 1.0068025e-05 0 0)
(-1.2823075 -0.20690066 0 -9.5030039e-06 0 0)
(-1.269159 -0.20553438 0 8.9719744e-06 0 0)
(-1.2814726 -0.20681461 0 -8.4760132e-06 0 0)
(-1.2699353 -0.20561551 0 8.0111281e-06 0 0)
(-1.2807288 -0.20673789 0 -7.5771468e-06 0 0)
(-1.2706289 -0.20568793 0 7.1710844e-06 0 0)
(-1.2800647 -0.20666936 0 -6.7926067e-06 0 0)
(-1.27125 -0.20575271 0 6.4391321e-06 0 0)
(-1.2794701 -0.20660797 0 -6.1104333e-06 0 0)
(-1.2718079 -0.20581084 0 5.8041761e-06 0 0)
(-1.2789358 -0.20655279 0 -5.5202825e-06 0 0)
(-1.2723108 -0.20586319 0 5.2566151e-06 0 0)
(-1.2784537 -0.20650299 0 -5.0132475e-06 0 0)
(-1.2727663 -0.20591055 0 4.7882265e-06 0 0)
(-1.2780165 -0.20645783 0 -4.5817636e-06 0 0)
(-1.273181 -0.20595364 0 4.3920895e-06 0 0)
(-1.2776175 -0.20641661 0 -4.2195479e-06 0 0)
(-1.2735613 -0.20599309 0 4.0625587e-06 0 0)
(-1.2772506 -0.20637873 0 -3.9216013e-06 0 0)
(-1.2739126 -0.20602951 0 3.7953665e-06 0 0)
(-1.2769103 -0.20634362 0 -3.6843634e-06 0 0)
(-1.2742404 -0.20606343 0 3.5879187e-06 0 0)
(-1.2765915 -0.20631075 0 -3.5074056e-06 0 0)
(-1.2745496 -0.20609539 0 3.4357717e-06 0 0)
(-1.276289 -0.20627963 0 -3.4034022e-06 0 0)
(-1.2748434 -0.20612568 0 3.3595937e-06 0 0)
(-1.2759932 -0.20624864 0 -3.1495191e-06 0 0)
(-1.275125 -0.20615117 0 4.5174376e-06 0 0)
(-1.2757158 -0.20622508 0 -4.4034656e-06 0 0)
(-0.94250392 -0.37260978 0 -0.10596688 0 0)
(-1.1796078 -0.20472244 0 -0.0053078687 0 0)
(-1.1849258 -0.20515326 0 -0.0025038409 0 0)
(-1.2215376 -0.20363836 0 -0.00052557557 0 0)
(-1.17865 -0.19824686 0 -0.00018486743 0 0)
(-1.2143062 -0.20164107 0 -4.3101969e-05 0 0)
(-1.1802181 -0.19795079 0 9.3431353e-06 0 0)
(-1.2110641 -0.2012679 0 -1.5659774e-05 0 0)
(-1.1819479 -0.19813063 0 1.7828938e-05 0 0)
(-1.2091357 -0.20107908 0 -1.6157802e-05 0 0)
(-1.1835278 -0.19830901 0 1.5474066e-05 0 0)
(-1.2075458 -0.20091224 0 -1.4718586e-05 0 0)
(-1.1849468 -0.19846563 0 1.3713525e-05 0 0)
(-1.206152 -0.20076359 0 -1.3024344e-05 0 0)
(-1.1862113 -0.19860449 0 1.2198554e-05 0 0)
(-1.2049213 -0.20063196 0 -1.1530429e-05 0 0)
(-1.1873363 -0.1987278 0 1.0843086e-05 0 0)
(-1.2038324 -0.20051534 0 -1.0230476e-05 0 0)
(-1.1883369 -0.19883732 0 9.6391811e-06 0 0)
(-1.2028674 -0.20041187 0 -9.0928248e-06 0 0)
(-1.1892272 -0.19893465 0 8.5769431e-06 0 0)
(-1.2020108 -0.20031992 0 -8.094945e-06 0 0)
(-1.1900202 -0.19902123 0 7.6431464e-06 0 0)
(-1.2012494 -0.20023809 0 -7.2199925e-06 0 0)
(-1.1907274 -0.19909837 0 6.8244515e-06 0 0)
(-1.2005711 -0.20016514 0 -6.4541821e-06 0 0)
(-1.1913594 -0.19916722 0 6.1086374e-06 0 0)
(-1.1999655 -0.20009996 0 -5.7857357e-06 0 0)
(-1.1919253 -0.19922883 0 5.484886e-06 0 0)
(-1.1994233 -0.20004156 0 -5.2044578e-06 0 0)
(-1.1924336 -0.19928412 0 4.9437444e-06 0 0)
(-1.1989362 -0.19998907 0 -4.7015351e-06 0 0)
(-1.1928919 -0.19933392 0 4.477029e-06 0 0)
(-1.1984967 -0.19994169 0 -4.2693774e-06 0 0)
(-1.1933068 -0.19937899 0 4.0777304e-06 0 0)
(-1.1980981 -0.19989871 0 -3.9015393e-06 0 0)
(-1.1936847 -0.19942 0 3.73995e-06 0 0)
(-1.1977344 -0.19985947 0 -3.5926685e-06 0 0)
(-1.1940311 -0.19945756 0 3.4588761e-06 0 0)
(-1.1974001 -0.1998234 0 -3.3385035e-06 0 0)
(-1.1943512 -0.19949224 0 3.2308735e-06 0 0)
(-1.19709 -0.19978995 0 -3.1359978e-06 0 0)
(-1.1946498 -0.19952456 0 3.0537395e-06 0 0)
(-1.1967996 -0.19975862 0 -2.9848928e-06 0 0)
(-1.1949313 -0.19955503 0 2.9228543e-06 0 0)
(-1.1965242 -0.19972896 0 -2.898096e-06 0 0)
(-1.1951989 -0.19958394 0 2.8557976e-06 0 0)
(-1.1962547 -0.19969935 0 -2.6457775e-06 0 0)
(-1.1954519 -0.19960803 0 3.9956345e-06 0 0)
(-1.1959881 -0.19967572 0 -3.9354958e-06 0 0)
(-0.92819045 -0.35822045 0 -0.097973243 0 0)
(-1.0745721 -0.19592125 0 -0.005295229 0 0)
(-1.0984057 -0.19801007 0 -0.0025196685 0 0)
(-1.1420693 -0.19665559 0 -0.00042327019 0 0)
(-1.1025466 -0.19166077 0 -0.0001573049 0 0)
(-1.1354356 -0.19496304 0 -3.0107258e-05 0 0)
(-1.1044534 -0.19148215 0 8.685689e-06 0 0)
(-1.1325734 -0.19463713 0 -1.1750433e-05 0 0)
(-1.1060581 -0.19166003 0 1.5377698e-05 0 0)
(-1.1308257 -0.19446093 0 -1.3429762e-05 0 0)
(-1.1074965 -0.19183027 0 1.3048021e-05 0 0)
(-1.1293781 -0.19430297 0 -1.238777e-05 0 0)
(-1.1087885 -0.19197919 0 1.1530471e-05 0 0)
(-1.128108 -0.19416186 0 -1.0966623e-05 0 0)
(-1.1099396 -0.1921111 0 1.026008e-05 0 0)
(-1.1269863 -0.19403684 0 -9.7047881e-06 0 0)
(-1.1109635 -0.19222821 0 9.1228266e-06 0 0)
(-1.1259937 -0.19392606 0 -8.6088487e-06 0 0)
(-1.1118743 -0.19233223 0 8.1108484e-06 0 0)
(-1.1251141 -0.19382776 0 -7.6509054e-06 0 0)
(-1.1126847 -0.19242468 0 7.2171913e-06 0 0)
(-1.1243335 -0.1937404 0 -6.8110188e-06 0 0)
(-1.1134066 -0.19250692 0 6.4313377e-06 0 0)
(-1.1236395 -0.19366265 0 -6.0746686e-06 0 0)
(-1.1140505 -0.1925802 0 5.7422552e-06 0 0)
(-1.1230214 -0.19359334 0 -5.4301556e-06 0 0)
(-1.1146259 -0.19264562 0 5.1397102e-06 0 0)
(-1.1224696 -0.1935314 0 -4.8675417e-06 0 0)
(-1.1151412 -0.19270416 0 4.6146095e-06 0 0)
(-1.1219756 -0.1934759 0 -4.3782384e-06 0 0)
(-1.115604 -0.19275671 0 4.1589967e-06 0 0)
(-1.1215317 -0.193426 0 -3.9548265e-06 0 0)
(-1.1160213 -0.19280405 0 3.7659796e-06 0 0)
(-1.1211313 -0.19338095 0 -3.5909139e-06 0 0)
(-1.1163991 -0.1928469 0 3.4296531e-06 0 0)
(-1.1207683 -0.19334008 0 -3.2810727e-06 0 0)
(-1.1167432 -0.19288589 0 3.1450471e-06 0 0)
(-1.120437 -0.19330276 0 -3.0207945e-06 0 0)
(-1.1170586 -0.19292163 0 2.9081041e-06 0 0)
(-1.1201325 -0.19326844 0 -2.8064823e-06 0 0)
(-1.11735 -0.19295463 0 2.715755e-06 0 0)
(-1.1198501 -0.1932366 0 -2.635545e-06 0 0)
(-1.1176218 -0.1929854 0 2.5661357e-06 0 0)
(-1.1195857 -0.19320677 0 -2.5078346e-06 0 0)
(-1.117878 -0.19301441 0 2.4545038e-06 0 0)
(-1.1193352 -0.19317852 0 -2.436267e-06 0 0)
(-1.1181215 -0.19304198 0 2.395455e-06 0 0)
(-1.1190898 -0.19315028 0 -2.1873224e-06 0 0)
(-1.1183488 -0.19306479 0 3.4979706e-06 0 0)
(-1.1188354 -0.19312669 0 -3.4960864e-06 0 0)
(-0.90653204 -0.33557144 0 -0.085379189 0 0)
(-0.98892456 -0.18695216 0 -0.004476485 0 0)
(-1.0131223 -0.190232 0 -0.0026860564 0 0)
(-1.0622087 -0.18992179 0 -0.0004945548 0 0)
(-1.0284911 -0.18519751 0 -0.00016569983 0 0)
(-1.0590512 -0.18832363 0 -2.738237e-05 0 0)
(-1.0310976 -0.18502251 0 5.8340201e-06 0 0)
(-1.0567461 -0.18801306 0 -8.7658134e-06 0 0)
(-1.0326366 -0.18518808 0 1.2986698e-05 0 0)
(-1.0551805 -0.18784581 0 -1.0977515e-05 0 0)
(-1.0339486 -0.18534938 0 1.0819945e-05 0 0)
(-1.0538641 -0.18769599 0 -1.0259142e-05 0 0)
(-1.0351235 -0.18549071 0 9.5337902e-06 0 0)
(-1.0527077 -0.18756209 0 -9.085352e-06 0 0)
(-1.0361702 -0.18561588 0 8.4874502e-06 0 0)
(-1.0516861 -0.18744344 0 -8.0356185e-06 0 0)
(-1.0371012 -0.18572701 0 7.5497205e-06 0 0)
(-1.0507823 -0.18733829 0 -7.1261708e-06 0 0)
(-1.0379294 -0.18582572 0 6.7132375e-06 0 0)
(-1.0499813 -0.18724498 0 -6.3324973e-06 0 0)
(-1.0386664 -0.18591345 0 5.9737294e-06 0 0)
(-1.0492706 -0.18716206 0 -5.637035e-06 0 0)
(-1.039323 -0.1859915 0 5.3231509e-06 0 0)
(-1.0486387 -0.18708826 0 -5.0273862e-06 0 0)
(-1.0399087 -0.18606106 0 4.7525799e-06 0 0)
(-1.048076 -0.18702245 0 -4.4937562e-06 0 0)
(-1.040432 -0.18612316 0 4.2536002e-06 0 0)
(-1.0475737 -0.18696364 0 -4.0278874e-06 0 0)
(-1.0409007 -0.18617874 0 3.8186951e-06 0 0)
(-1.047124 -0.18691094 0 -3.622659e-06 0 0)
(-1.0413217 -0.18622863 0 3.4412763e-06 0 0)
(-1.04672 -0.18686355 0 -3.2719249e-06 0 0)
(-1.0417013 -0.18627359 0 3.1156315e-06 0 0)
(-1.0463556 -0.18682076 0 -2.9703868e-06 0 0)
(-1.042045 -0.18631429 0 2.8368639e-06 0 0)
(-1.0460252 -0.18678193 0 -2.713545e-06 0 0)
(-1.042358 -0.18635135 0 2.6008502e-06 0 0)
(-1.0457237 -0.18674646 0 -2.4976589e-06 0 0)
(-1.0426449 -0.18638531 0 2.4042184e-06 0 0)
(-1.0454466 -0.18671384 0 -2.3197337e-06 0 0)
(-1.0429099 -0.18641668 0 2.2444092e-06 0 0)
(-1.0451898 -0.18668356 0 -2.1775859e-06 0 0)
(-1.0431571 -0.18644594 0 2.1198554e-06 0 0)
(-1.0449493 -0.18665518 0 -2.0711355e-06 0 0)
(-1.0433901 -0.18647355 0 2.0257552e-06 0 0)
(-1.0447215 -0.18662831 0 -2.0131003e-06 0 0)
(-1.0436115 -0.18649981 0 1.9739318e-06 0 0)
(-1.0444984 -0.1866014 0 -1.7693893e-06 0 0)
(-1.0438155 -0.18652145 0 3.0229742e-06 0 0)
(-1.0442568 -0.18657797 0 -3.0843205e-06 0 0)
(-0.8905625 -0.3195118 0 -0.076768034 0 0)
(-0.90935579 -0.17903871 0 -0.0042398746 0 0)
(-0.93770852 -0.18277121 0 -0.0024681425 0 0)
(-0.98659835 -0.18292304 0 -0.00042397704 0 0)
(-0.95722866 -0.17863076 0 -0.00013874869 0 0)
(-0.98533636 -0.1816492 0 -1.5756417e-05 0 0)
(-0.96015162 -0.17854502 0 5.7865539e-06 0 0)
(-0.98354351 -0.18138625 0 -5.3072421e-06 0 0)
(-0.96167014 -0.17871131 0 1.1009359e-05 0 0)
(-0.98217731 -0.18123218 0 -8.6668823e-06 0 0)
(-0.96288516 -0.1788658 0 8.7978985e-06 0 0)
(-0.98099204 -0.18109095 0 -8.3009147e-06 0 0)
(-0.96395749 -0.17900014 0 7.7055872e-06 0 0)
(-0.97994296 -0.18096416 0 -7.3598444e-06 0 0)
(-0.96490925 -0.17911887 0 6.8625016e-06 0 0)
(-0.97901449 -0.18085169 0 -6.5053187e-06 0 0)
(-0.96575507 -0.17922424 0 6.1073874e-06 0 0)
(-0.9781926 -0.18075198 0 -5.7669147e-06 0 0)
(-0.96650732 -0.17931782 0 5.4317559e-06 0 0)
(-0.97746425 -0.1806635 0 -5.1238163e-06 0 0)
(-0.9671768 -0.179401 0 4.8335689e-06 0 0)
(-0.9768179 -0.18058486 0 -4.5607273e-06 0 0)
(-0.96777321 -0.17947502 0 4.307012e-06 0 0)
(-0.97624339 -0.18051486 0 -4.0672074e-06 0 0)
(-0.96830523 -0.17954098 0 3.8450924e-06 0 0)
(-0.97573174 -0.18045244 0 -3.6352078e-06 0 0)
(-0.96878066 -0.17959987 0 3.4410585e-06 0 0)
(-0.97527502 -0.18039666 0 -3.2580105e-06 0 0)
(-0.96920649 -0.17965259 0 3.0888392e-06 0 0)
(-0.97486619 -0.18034666 0 -2.9298388e-06 0 0)
(-0.96958901 -0.17969992 0 2.7831e-06 0 0)
(-0.97449895 -0.1803017 0 -2.6457128e-06 0 0)
(-0.96993387 -0.17974258 0 2.5192097e-06 0 0)
(-0.97416768 -0.18026109 0 -2.4013355e-06 0 0)
(-0.97024617 -0.1797812 0 2.2931953e-06 0 0)
(-0.97386734 -0.18022423 0 -2.1930563e-06 0 0)
(-0.97053053 -0.17981637 0 2.101708e-06 0 0)
(-0.97359335 -0.18019056 0 -2.0178362e-06 0 0)
(-0.97079117 -0.17984862 0 1.9420015e-06 0 0)
(-0.97334157 -0.18015957 0 -1.873228e-06 0 0)
(-0.97103194 -0.17987842 0 1.8119788e-06 0 0)
(-0.97310819 -0.18013081 0 -1.7574169e-06 0 0)
(-0.97125642 -0.17990622 0 1.7103356e-06 0 0)