/*--------------------------------*- C++ -*----------------------------------*\
| =========                 |                                                 |
| \\      /  F ield         | OpenFOAM: The Open Source CFD Toolbox           |
|  \\    /   O peration     | Version:  2312                                  |
|   \\  /    A nd           | Website:  www.openfoam.com                      |
|    \\/     M anipulation  |                                                 |
\*---------------------------------------------------------------------------*/
FoamFile
{
    version     2.0;
    format      ascii;
    arch        "LSB;label=32;scalar=64";
    class       volScalarField;
    location    "4";
    object      T;
}
// * * * * * * * * * * * * * * * * * * * * * * * * * * * * * * * * * * * * * //

dimensions      [0 0 0 1 0 0 0];

internalField   nonuniform List<scalar> 
4000
(
329.07578
327.96546
327.81302
327.73475
327.67984
327.62662
327.58573
327.54105
327.50524
327.4648
327.43151
327.39363
327.36181
327.32563
327.29474
327.25977
327.22952
327.19544
327.16565
327.13226
327.1028
327.06995
327.04077
327.00835
326.97938
326.9473
326.91852
326.88672
326.85809
326.82652
326.79804
326.76665
326.7383
326.70706
326.67883
326.6477
326.61959
326.58855
326.56056
326.52959
326.50171
326.47077
326.44303
326.41209
326.38451
326.35352
326.32614
326.29501
326.26801
326.23609
331.05206
329.04244
328.64666
328.46908
328.36144
328.25894
328.1933
328.11636
328.06594
328.00171
327.95887
327.9023
327.86387
327.81239
327.77676
327.7289
327.69518
327.65001
327.61765
327.57454
327.54321
327.50172
327.47119
327.43098
327.40111
327.36193
327.33261
327.29427
327.26543
327.22777
327.19935
327.16224
327.13422
327.09754
327.06989
327.03356
327.00627
326.9702
326.94326
326.90738
326.88081
326.84503
326.81885
326.78308
326.75735
326.72145
326.69633
326.65998
326.63604
326.59741
332.35181
330.09221
329.47487
329.20041
329.0407
328.88957
328.79924
328.6904
328.62533
328.53755
328.48509
328.41001
328.3649
328.29827
328.25783
328.1972
328.15995
328.10378
328.06881
328.01606
327.98281
327.93274
327.90083
327.85289
327.82208
327.77585
327.74597
327.70112
327.67204
327.62832
327.59995
327.55714
327.52943
327.48735
327.46026
327.41875
327.39226
327.35119
327.32528
327.28452
327.25922
327.21863
327.19399
327.15341
327.12953
327.08872
327.06586
327.02432
327.00339
326.95832
333.25676
331.0885
330.28919
329.92417
329.71436
329.51617
329.4015
329.26155
329.18188
329.07106
329.00895
328.91573
328.86387
328.78236
328.73704
328.66387
328.62301
328.55603
328.51837
328.45613
328.42089
328.36237
328.32903
328.27346
328.24166
328.18848
328.15797
328.10671
328.07734
328.02764
327.99927
327.95083
327.92339
327.87597
327.8494
327.80277
327.77704
327.73102
327.70612
327.66052
327.63647
327.59111
327.56798
327.52263
327.50056
327.4549
327.43424
327.38758
327.36957
327.31845
333.91338
332.00763
331.07853
330.63406
330.37798
330.13548
329.99734
329.82762
329.7336
329.60059
329.52887
329.4181
329.35946
329.26352
329.21326
329.12789
329.08335
329.00583
328.96542
328.89393
328.85663
328.78985
328.75501
328.69198
328.65913
328.59913
328.56796
328.51039
328.48069
328.42511
328.3967
328.34273
328.31552
328.26283
328.23674
328.18507
328.16006
328.10916
328.08522
328.03486
328.01201
327.96195
327.94028
327.89024
327.86993
327.81949
327.80098
327.74929
327.73405
327.67736
334.40428
332.83199
331.83062
331.32246
331.02615
330.74346
330.58342
330.38589
330.27809
330.12408
330.04297
329.91547
329.85011
329.74037
329.68516
329.58807
329.53981
329.45215
329.40893
329.32849
329.28908
329.21431
329.1779
329.10764
329.07368
329.00705
328.97515
328.91146
328.88136
328.82005
328.79156
328.73218
328.70515
328.64732
328.62166
328.56505
328.54072
328.48504
328.46201
328.40698
328.38529
328.33062
328.31036
328.25572
328.2371
328.182
328.16554
328.10898
328.09631
328.03454
334.77935
333.55086
332.53355
331.98108
331.65279
331.33549
331.1559
330.93322
330.81258
330.63916
330.54908
330.40596
330.33408
330.21133
330.15123
330.04305
329.99109
329.89377
329.84773
329.75874
329.71719
329.63476
329.59675
329.51953
329.48443
329.41141
329.37875
329.30913
329.2786
329.21174
329.18311
329.11849
329.09159
329.02877
329.00349
328.94209
328.91838
328.85805
328.83588
328.77631
328.75571
328.69656
328.67764
328.61853
328.60152
328.54189
328.52737
328.46613
328.45578
328.38947
335.0707
334.1606
333.17715
332.60165
332.25154
331.90655
331.71065
331.46613
331.33403
331.14323
331.04485
330.88746
330.8094
330.67463
330.60985
330.49132
330.43576
330.32938
330.28056
330.18352
330.13984
330.05014
330.01053
329.92669
329.89042
329.8113
329.77785
329.70256
329.67156
329.59938
329.57057
329.50092
329.47411
329.40648
329.38154
329.31551
329.29237
329.22756
329.20618
329.14223
329.12265
329.05918
329.04152
328.97809
328.9626
328.89863
328.8859
328.82023
328.81191
328.74157
335.30017
334.66377
333.75389
333.17669
332.8162
332.45157
332.24337
331.98099
331.83926
331.63347
331.52775
331.35772
331.27401
331.12841
331.05925
330.93127
330.8723
330.75756
330.70607
330.60155
330.5558
330.45932
330.41814
330.32808
330.29065
330.20578
330.17153
330.09087
330.05939
329.98216
329.95315
329.87869
329.85194
329.77972
329.75507
329.68462
329.662
329.59289
329.57226
329.5041
329.48548
329.41786
329.40138
329.33384
329.31975
329.25164
329.24055
329.17075
329.16415
329.09025
335.48314
335.06796
334.25958
333.70019
333.34117
332.96567
332.74986
332.47415
332.32505
332.10703
331.99519
331.8144
331.72577
331.57069
331.4976
331.36122
331.29911
331.17683
331.12286
331.01151
330.96382
330.8611
330.81842
330.72261
330.68407
330.59385
330.55882
330.47314
330.44118
330.35919
330.32997
330.25099
330.22427
330.14772
330.12334
330.04869
330.02655
329.95337
329.93342
329.86127
329.84354
329.77199
329.7566
329.68515
329.67236
329.60036
329.59073
329.51712
329.51193
329.43492
335.63095
335.38436
334.69338
334.16808
333.82192
333.44452
333.22623
332.9421
332.78825
332.56108
332.44462
332.25515
332.16252
331.99949
331.92304
331.77942
331.71457
331.58568
331.52948
331.41206
331.3626
331.25426
331.21021
331.10917
331.0696
330.97447
330.93872
330.84841
330.816
330.72961
330.70019
330.617
330.59031
330.5097
330.48556
330.40699
330.38529
330.30829
330.28897
330.21308
330.19616
330.12093
330.10652
330.03143
330.0198
329.9442
329.93585
329.85877
329.85471
329.77498
335.75197
335.62613
335.05761
334.5785
334.25521
333.88461
333.66912
333.38168
333.22599
332.99293
332.87357
332.6777
332.58214
332.41283
332.33376
332.18417
332.11706
331.98256
331.9245
331.80182
331.75084
331.63756
331.59232
331.48662
331.44615
331.34661
331.31023
331.21571
331.18292
331.09251
331.06292
330.97586
330.94922
330.86487
330.84096
330.75877
330.73748
330.65693
330.6382
330.55884
330.54267
330.46402
330.45052
330.37207
330.36146
330.28258
330.27531
330.19514
330.19193
330.10984
335.85257
335.80714
335.35719
334.93183
334.63942
334.28347
334.07589
333.79023
333.63571
333.40017
333.27978
333.07991
332.98266
332.80884
332.72798
332.57379
332.50502
332.366
332.30649
332.17944
332.12726
332.00977
331.96357
331.85383
331.81264
331.70922
331.67234
331.57409
331.541
331.44699
331.41729
331.32675
331.30017
331.21243
331.18877
331.10327
331.08238
330.9986
330.98041
330.89788
330.8824
330.80064
330.78794
330.70643
330.69673
330.61488
330.60852
330.52564
330.52304
330.43892
335.93751
335.94064
335.5989
335.23048
334.97452
334.63978
334.44477
334.16572
334.0154
333.78075
333.66131
333.45988
333.36228
333.18578
333.10408
332.94671
332.87697
332.73457
332.67412
332.54362
332.49061
332.36971
332.32283
332.20972
332.16802
332.0613
332.02407
331.9226
331.88932
331.79216
331.76244
331.66882
331.64236
331.55162
331.52821
331.43976
331.41926
331.33259
331.31492
331.22954
331.21469
331.13013
331.11815
331.03392
331.02499
330.94054
330.9349
330.84969
330.84751
330.76165
336.01037
336.03857
335.79061
335.47852
335.262
334.95347
334.77495
334.50684
334.36358
334.13305
334.01657
333.81599
333.71944
333.54213
333.46059
333.30152
333.23154
333.08694
333.02611
332.89315
332.83974
332.71623
332.66901
332.55323
332.51127
332.40186
332.36448
332.26032
332.227
332.12718
332.09753
332.00127
331.975
331.88165
331.85853
331.76752
331.74741
331.65821
331.64103
331.55316
331.53888
331.45188
331.44054
331.35394
331.34565
331.25897
331.25389
331.16672
331.16481
331.07747
336.07382
336.11098
335.94057
335.68124
335.50472
335.22567
335.06661
334.8131
334.67945
334.45602
334.34439
334.14699
334.0529
333.87661
333.79628
333.63696
333.56755
333.42195
333.36134
333.22692
333.17358
333.04832
333.00111
332.88339
332.84146
332.72999
332.69267
332.58639
332.5532
332.45122
332.42176
332.32333
332.29733
332.2018
332.17903
332.08584
332.06615
331.9748
331.9581
331.8681
331.85435
331.76527
331.75449
331.66589
331.65814
331.5696
331.56494
331.47618
331.47443
331.38587
336.12981
336.16587
336.05679
335.8446
335.70654
335.45852
335.32084
335.08478
334.96286
334.74914
334.64411
334.45203
334.36177
334.18823
334.11017
333.95204
333.884
333.73859
333.67885
333.54395
333.49119
333.36502
333.31823
333.19931
333.15771
333.04485
333.00784
332.90002
332.86714
332.76352
332.7344
332.63427
332.60864
332.51138
332.48902
332.39408
332.37484
332.28172
332.26551
332.17377
332.16052
332.06974
332.05946
331.96922
331.96192
331.87189
331.86755
331.77754
331.77586
331.68633
336.17979
336.20924
336.14657
335.9748
335.87203
335.65504
335.53957
335.32292
335.21433
335.01246
334.91554
334.7307
334.64551
334.47635
334.40157
334.24599
334.18013
334.03606
333.97783
333.84345
333.79178
333.66555
333.61959
333.50022
333.45929
333.34568
333.30924
333.20047
333.16811
333.06339
333.03477
332.93344
332.90829
332.80975
332.78788
332.69161
332.67286
332.5784
332.56267
332.46959
332.45682
332.36472
332.35489
332.26341
332.25648
332.16533
332.16121
332.0703
332.06864
331.9784
336.22478
336.24532
336.21625
336.07784
336.00612
335.81881
335.7254
335.52923
335.435
335.2466
335.159
334.98301
334.904
334.74066
334.67009
334.51832
334.45542
334.31377
334.25769
334.12478
334.07472
333.94926
333.90456
333.78546
333.74554
333.63184
333.59626
333.48712
333.4555
333.35023
333.32227
333.22023
333.19569
333.09634
333.07504
332.97789
332.95968
332.86429
332.84908
332.75505
332.74275
332.64973
332.6403
332.54795
332.54133
332.44944
332.44547
332.35399
332.35231
332.26161
336.26556
336.27693
336.27105
336.15922
336.11374
335.9538
335.88142
335.70593
335.62651
335.45267
335.37527
335.2094
335.13748
334.9812
334.91567
334.76883
334.7096
334.57139
334.51806
334.3875
334.33955
334.21567
334.17263
334.05452
334.01596
333.90281
333.86836
333.75945
333.7288
333.6235
333.59638
333.49413
333.47034
333.37064
333.35001
333.25242
333.23481
333.13892
333.12424
333.02967
333.01784
332.92429
332.91524
332.82241
332.81605
332.72377
332.71992
332.62818
332.62648
332.53557
336.30268
336.30574
336.31507
336.22376
336.1996
336.06405
336.01101
335.85568
335.79098
335.63223
335.56554
335.41071
335.34657
335.19835
335.13855
334.99761
334.94268
334.80881
334.75877
334.63139
334.58603
334.46446
334.4235
334.30705
334.27018
334.1582
334.12516
334.01704
333.98758
333.88278
333.85669
333.75472
333.73182
333.63223
333.61238
333.51477
333.49784
333.40185
333.38775
333.29305
333.2817
333.188
333.17932
333.08638
333.08026
332.98794
332.98418
332.89248
332.89077
332.79991
336.33659
336.33268
336.35141
336.27548
336.26798
336.15352
336.11763
335.98135
335.93078
335.78718
335.73136
335.58813
335.53221
335.3928
335.33926
335.20501
335.15492
335.02615
334.9799
334.85643
334.81408
334.69551
334.65699
334.54284
334.50798
334.39776
334.36639
334.25961
334.23156
334.12777
334.10288
334.00166
333.97979
333.88076
333.86179
333.7646
333.74842
333.65275
333.63928
333.54483
333.53399
333.44052
333.43221
333.33952
333.33362
333.2416
333.23792
333.14657
333.14485
333.0543
336.3676
336.35819
336.3823
336.31762
336.3226
336.22588
336.20472
336.08591
336.0485
335.91966
335.87453
335.74311
335.69563
335.56552
335.5186
335.39166
335.3468
335.22378
335.18172
335.06279
335.02384
334.90887
334.87312
334.76184
334.72929
334.62136
334.59191
334.48698
334.46055
334.35825
334.33474
334.23473
334.21403
334.116
334.09801
334.00165
333.9863
333.89134
333.87855
333.78474
333.77442
333.68155
333.67363
333.58153
333.57587
333.48447
333.48088
333.39016
333.38844
333.29848
336.396
336.3824
336.40927
336.35268
336.36659
336.28441
336.27548
336.1723
336.1468
336.03196
335.99707
335.87735
335.83829
335.71772
335.67762
335.55839
335.51906
335.40228
335.36472
335.25085
335.21559
335.10475
335.07207
334.96417
334.93417
334.82903
334.80173
334.69912
334.6745
334.57415
334.55216
334.4538
334.43439
334.33777
334.32087
334.22575
334.21129
334.11743
334.10537
334.01256
334.00281
333.91089
333.90337
333.8122
333.80679
333.71631
333.71283
333.62302
333.62133
333.5322
336.42203
336.40532
336.43334
336.3825
336.40246
336.33195
336.33285
336.24332
336.22828
336.12642
336.10108
335.99269
335.96181
335.85079
335.81753
335.70625
335.6726
335.5624
335.52956
335.42116
335.38983
335.28356
335.25416
335.15009
335.12285
335.02094
334.99598
334.89611
334.87347
334.77547
334.75516
334.65885
334.64085
334.54603
334.53031
334.43679
334.42331
334.33091
334.31962
334.22817
334.21902
334.12838
334.12129
334.03136
334.02622
333.93695
333.93361
333.84497
333.84332
333.7553
336.44586
336.42688
336.45512
336.40841
336.4322
336.37087
336.37938
336.30153
336.29544
336.20535
336.18869
336.09104
336.06792
335.96626
335.93971
335.83643
335.80848
335.70509
335.67706
335.57443
335.54718
335.44581
335.41987
335.31999
335.29569
335.19738
335.17491
335.07816
335.05764
334.96237
334.94386
334.84995
334.83347
334.7408
334.72635
334.63477
334.62234
334.53172
334.52128
334.4315
334.42299
334.33395
334.32731
334.23892
334.23407
334.14629
334.14311
334.0559
334.05432
333.96765
336.4677
336.44705
336.47501
336.43134
336.45729
336.40308
336.41727
336.34923
336.35056
336.27094
336.26199
336.1743
336.1584
336.06573
336.04561
335.95025
335.9279
335.83138
335.80819
335.71151
335.68841
335.59219
335.56981
335.47441
335.45315
335.35876
335.3389
335.24559
335.2273
335.13507
335.11846
335.02728
335.01241
334.92221
334.9091
334.81978
334.80845
334.71994
334.71037
334.62257
334.61474
334.52757
334.52143
334.43484
334.43032
334.34428
334.34128
334.25575
334.25425
334.16917
336.48768
336.4658
336.49322
336.45189
336.47882
336.4301
336.44833
336.38838
336.39571
336.32523
336.32296
336.24437
336.23502
336.15084
336.13677
336.04907
336.03214
335.94243
335.924
335.83334
335.81439
335.72347
335.7047
335.61397
335.59584
335.50559
335.48842
335.39881
335.38283
335.29393
335.27929
335.19112
335.17792
335.09046
335.07876
334.99198
334.98181
334.89566
334.88703
334.80145
334.79435
334.70931
334.7037
334.61916
334.61499
334.53092
334.52815
334.44451
334.44312
334.35985
336.50595
336.48313
336.5099
336.47046
336.49757
336.45307
336.47401
336.42066
336.43267
336.37007
336.37343
336.30302
336.29948
336.2232
336.21469
336.13432
336.1225
336.03946
336.02563
335.94095
335.92608
335.84054
335.82534
335.73943
335.72442
335.6385
335.62405
335.53835
335.52472
335.43936
335.42674
335.34181
335.33033
335.24586
335.23561
335.15161
335.14263
335.05909
335.05143
334.96832
334.96197
334.87929
334.87424
334.79197
334.78819
334.70631
334.70378
334.62224
334.62097
334.53973
336.52262
336.49905
336.52511
336.4873
336.51408
336.47285
336.49546
336.44743
336.46298
336.40706
336.41506
336.35189
336.35342
336.28436
336.28088
336.20741
336.20034
336.1237
336.11423
336.03544
336.0245
335.94431
335.93262
335.85158
335.83967
335.75818
335.74644
335.66478
335.65351
335.57188
335.56129
335.47979
335.47005
335.38878
335.37999
335.29898
335.29123
335.2105
335.20383
335.1234
335.11783
335.03771
335.03324
334.95343
334.95007
334.87056
334.86829
334.78905
334.7879
334.70889
336.53779
336.51361
336.53891
336.50255
336.52872
336.49006
336.51356
336.46981
336.48791
336.4376
336.44933
336.39249
336.39831
336.3358
336.33677
336.26969
336.26696
336.19641
336.19101
336.11791
336.11071
336.03579
336.02746
335.95129
335.94238
335.86538
335.8563
335.77879
335.76985
335.69205
335.68349
335.60556
335.59757
335.51963
335.51233
335.43446
335.42795
335.3502
335.34454
335.26696
335.26219
335.1848
335.18094
335.10376
335.10083
335.02386
335.02187
334.94509
334.94408
334.86747
336.55154
336.52684
336.55135
336.51634
336.54171
336.50514
336.52897
336.48866
336.50851
336.46288
336.4775
336.42614
336.43554
336.37886
336.38369
336.3225
336.32364
336.25881
336.25713
336.18948
336.18576
336.11597
336.11083
336.03945
336.03343
335.9609
335.9544
335.88106
335.8744
335.8005
335.79394
335.71967
335.7134
335.63892
335.63309
335.55849
335.55321
335.47859
335.47394
335.39934
335.39538
335.32086
335.31762
335.24321
335.24073
335.16644
335.16475
335.09057
335.08971
335.01564
336.56392
336.53876
336.56245
336.52871
336.55323
336.51841
336.54217
336.50466
336.52561
336.48387
336.50066
336.454
336.46629
336.41478
336.42289
336.36703
336.37158
336.31206
336.31374
336.25124
336.25071
336.18585
336.18369
336.11699
336.11368
336.04557
336.04152
335.97234
335.96787
335.8979
335.89327
335.82273
335.81814
335.74718
335.74279
335.67156
335.66749
335.59608
335.59244
335.52093
335.51778
335.44624
335.44363
335.3721
335.37007
335.29858
335.29719
335.22574
335.22503
335.15363
336.57495
336.5494
336.57225
336.53973
336.56338
336.53009
336.55353
336.51831
336.53987
336.50137
336.51971
336.47706
336.49163
336.44465
336.45548
336.40443
336.41191
336.35727
336.36192
336.30424
336.3066
336.24642
336.24699
336.1848
336.18402
336.12022
336.11848
336.05341
336.05101
335.98495
335.98217
335.91535
335.91237
335.84498
335.84199
335.77416
335.77129
335.70316
335.7005
335.63215
335.6298
335.56132
335.55933
335.49077
335.48921
335.4206
335.41952
335.35089
335.35033
335.28171
336.58463
336.55878
336.58077
336.54943
336.57224
336.54034
336.5633
336.53002
336.55181
336.516
336.53539
336.49616
336.51246
336.46943
336.48247
336.43571
336.44566
336.39547
336.40269
336.34949
336.3544
336.29864
336.30167
336.24379
336.24532
336.18568
336.18608
336.12502
336.12456
336.06236
336.06131
335.99819
335.99675
335.93292
335.93126
335.86687
335.86514
335.80031
335.79861
335.73347
335.7319
335.66653
335.66515
335.59962
335.59851
335.53286
335.53207
335.46635
335.46593
335.40016
336.59292
336.56688
336.58806
336.55787
336.5799
336.54927
336.57167
336.54006
336.56183
336.52829
336.54832
336.51199
336.52955
336.48996
336.50473
336.46177
336.47375
336.42758
336.43698
336.3879
336.39504
336.34341
336.34862
336.29482
336.29843
336.24278
336.24512
336.18794
336.18927
336.13083
336.1314
336.07192
336.07192
336.01161
336.01121
335.95023
335.94959
335.88807
335.88729
335.82537
335.82454
335.76231
335.76153
335.69905
335.69838
335.63573
335.63524
335.57246
335.57219
335.50933
336.59976
336.57373
336.59413
336.5651
336.5864
336.557
336.5788
336.54868
336.57022
336.53863
336.55898
336.52513
336.54355
336.50694
336.52301
336.48341
336.49701
336.45445
336.46567
336.42035
336.42938
336.38158
336.38869
336.33871
336.34417
336.29231
336.29639
336.24293
336.24588
336.19108
336.19312
336.13719
336.13852
336.08167
336.08245
336.02484
336.02521
335.96698
335.96706
335.90834
335.90823
335.84913
335.84891
335.78951
335.78927
335.72963
335.72942
335.66961
335.66948
335.60956
336.6051
336.57933
336.59905
336.57118
336.59182
336.56361
336.58481
336.55603
336.57724
336.54733
336.56775
336.53604
336.55499
336.52095
336.53796
336.50131
336.51616
336.47684
336.4895
336.44761
336.45821
336.41393
336.42265
336.37624
336.38329
336.335
336.34061
336.2907
336.29509
336.24378
336.24716
336.19467
336.1972
336.14372
336.14557
336.09126
336.09257
336.03758
336.03846
335.98291
335.98347
335.92747
335.92779
335.87144
335.8716
335.81497
335.81503
335.75819
335.7582
335.70122
336.60892
336.58372
336.60288
336.57617
336.59622
336.56918
336.5898
336.56228
336.58305
336.55465
336.57495
336.5451
336.5643
336.53251
336.55013
336.51607
336.53183
336.49539
336.50918
336.47037
336.48223
336.44118
336.45122
336.40812
336.41652
336.37158
336.3785
336.33194
336.33759
336.28962
336.29416
336.24498
336.24858
336.19836
336.20118
336.15008
336.15224
336.10041
336.10203
336.04959
336.05076
335.99783
335.99864
335.94531
335.94584
335.8922
335.89251
335.83862
335.83876
335.78471
336.61131
336.587
336.6057
336.58018
336.59969
336.57379
336.59386
336.56752
336.58783
336.56077
336.58082
336.5526
336.57185
336.542
336.55997
336.52819
336.54456
336.51066
336.52528
336.48924
336.50208
336.46396
336.47507
336.43501
336.44451
336.40268
336.41071
336.3673
336.37402
336.3292
336.33477
336.28873
336.29328
336.24619
336.24986
336.20186
336.20478
336.15602
336.1583
336.1089
336.11062
336.06069
336.06195
336.01159
336.01246
335.96175
335.96229
335.91132
335.91157
335.86042
336.61243
336.58927
336.60762
336.58328
336.60232
336.57755
336.59708
336.57187
336.59168
336.56587
336.58556
336.55879
336.5779
336.54977
336.56785
336.53807
336.5548
336.52316
336.53833
336.50477
336.51831
336.48285
336.49477
336.4575
336.46787
336.42892
336.43785
336.39737
336.40498
336.36314
336.36956
336.32651
336.33186
336.28776
336.29217
336.24715
336.25074
336.20494
336.2078
336.16133
336.16356
336.11654
336.1182
336.07073
336.07191
336.02407
336.02482
335.97671
335.97707
335.92876
336.61253
336.59069
336.60875
336.5856
336.60418
336.58052
336.59954
336.57543
336.59473
336.57006
336.58933
336.56385
336.58269
336.55607
336.57408
336.54605
336.56291
336.53327
336.54876
336.5174
336.53141
336.49834
336.51085
336.47611
336.48714
336.45083
336.46046
336.42271
336.43103
336.39197
336.39909
336.35885
336.36488
336.32361
336.32865
336.28647
336.29063
336.24767
336.25103
336.2074
336.21005
336.16585
336.16787
336.12321
336.12465
336.07962
336.08055
336.03522
336.03567
335.99014
336.6119
336.59142
336.60923
336.58722
336.60539
336.5828
336.60133
336.57826
336.59704
336.57345
336.59224
336.56793
336.58639
336.56112
336.5789
336.55242
336.56922
336.54133
336.55693
336.52754
336.5418
336.51087
336.52375
336.49131
336.50279
336.46891
336.47905
336.44381
336.45268
336.4162
336.42387
336.38628
336.39284
336.35425
336.3598
336.32032
336.32495
336.28469
336.28848
336.24756
336.25058
336.2091
336.21142
336.16946
336.17114
336.12881
336.1299
336.08727
336.0878
336.04497
336.61081
336.59163
336.60917
336.58827
336.60603
336.58448
336.60253
336.58046
336.59872
336.57613
336.5944
336.57116
336.58916
336.56507
336.5825
336.55738
336.57396
336.54762
336.56315
336.5355
336.54982
336.52081
336.53387
336.5035
336.51526
336.48358
336.49406
336.46113
336.47038
336.4363
336.44438
336.40925
336.41623
336.38014
336.3861
336.34916
336.35417
336.31649
336.32062
336.28228
336.28561
336.24672
336.24929
336.20994
336.21181
336.17208
336.1733
336.13328
336.13388
336.09365
336.60949
336.59148
336.6087
336.58884
336.60619
336.58563
336.60321
336.5821
336.59982
336.57817
336.59588
336.57362
336.59108
336.56806
336.58503
336.5611
336.57733
336.55236
336.56765
336.54155
336.55577
336.52847
336.54153
336.51303
336.52489
336.49521
336.50587
336.47507
336.48455
336.45269
336.46104
336.42819
336.43547
336.40173
336.40798
336.37344
336.37874
336.34348
336.34788
336.312
336.31556
336.27914
336.28192
336.24505
336.24708
336.20984
336.21117
336.17365
336.17431
336.13658
336.60806
336.59106
336.60791
336.58903
336.60595
336.58634
336.60343
336.58323
336.6004
336.57964
336.59675
336.57538
336.59224
336.57017
336.58659
336.56372
336.57948
336.55571
336.57065
336.5459
336.55987
336.53409
336.54702
336.52019
336.53201
336.50414
336.51484
336.48596
336.49556
336.46572
336.47423
336.4435
336.45096
336.4194
336.42586
336.39355
336.39906
336.36608
336.37068
336.33711
336.34086
336.30678
336.30971
336.2752
336.27736
336.2425
336.24391
336.20878
336.20948
336.17414
336.6066
336.59048
336.6069
336.58891
336.60539
336.58667
336.60326
336.58391
336.60052
336.58056
336.59705
336.57648
336.5927
336.57147
336.58726
336.56533
336.58052
336.55781
336.57227
336.54872
336.56233
336.5379
336.55056
336.52522
336.53688
336.51064
336.52126
336.49414
336.50372
336.47574
336.48429
336.45551
336.46305
336.43352
336.44009
336.40987
336.4155
336.38467
336.3894
336.35801
336.36188
336.33001
336.33305
336.30078
336.30302
336.27042
336.2719
336.23903
336.23976
336.20671
336.60513
336.58978
336.60571
336.58855
336.60456
336.58667
336.60276
336.58419
336.60021
336.58099
336.59681
336.57696
336.59247
336.572
336.58709
336.56598
336.58053
336.55875
336.57264
336.55015
336.56328
336.54005
336.55234
336.52834
336.53972
336.51495
336.52538
336.49985
336.50931
336.48303
336.49153
336.46454
336.47208
336.44442
336.45102
336.42274
336.42843
336.39959
336.40438
336.37504
336.37898
336.34919
336.3523
336.32214
336.32444
336.29397
336.29549
336.26477
336.26553
336.23463
336.60366
336.589
336.6044
336.588
336.60353
336.5864
336.60194
336.58409
336.59948
336.58092
336.59604
336.57682
336.59159
336.57176
336.58611
336.5657
336.57955
336.55858
336.57184
336.55027
336.56285
336.54068
336.55251
336.52971
336.54071
336.51727
336.52741
336.50332
336.51258
336.48786
336.49621
336.47087
336.47832
336.45239
336.45894
336.43247
336.43814
336.41117
336.41597
336.38854
336.3925
336.36467
336.3678
336.33963
336.34196
336.31349
336.31503
336.28635
336.28711
336.25826
336.60216
336.58815
336.603
336.58729
336.60231
336.58588
336.60085
336.58363
336.59835
336.58036
336.59473
336.57605
336.59002
336.57075
336.58431
336.56452
336.57761
336.55734
336.5699
336.54916
336.56112
336.53989
336.55118
336.52945
336.54001
336.51776
336.52754
336.50476
336.51373
336.49042
336.49856
336.47473
336.48202
336.4577
336.46414
336.43934
336.44494
336.41969
336.42446
336.39881
336.40275
336.37674
336.37987
336.35355
336.35589
336.32931
336.33086
336.30408
336.30484
336.27791
336.60064
336.58725
336.60152
336.58646
336.60094
336.58513
336.59949
336.58281
336.59681
336.57929
336.59285
336.57463
336.58776
336.56896
336.58168
336.56242
336.57471
336.55505
336.56687
336.54684
336.55813
336.53774
336.54844
336.52767
336.53773
336.51655
336.52591
336.50432
336.51295
336.49093
336.49879
336.47635
336.48343
336.46057
336.46685
336.44359
336.44907
336.42543
336.43011
336.40612
336.41
336.3857
336.3888
336.36422
336.36653
336.34172
336.34326
336.31827
336.31903
336.2939
336.59906
336.58628
336.59998
336.58552
336.59943
336.58416
336.59784
336.5816
336.59481
336.57767
336.59038
336.57251
336.58476
336.56635
336.57819
336.55938
336.57083
336.55171
336.56275
336.54336
336.55394
336.53429
336.54437
336.52445
336.53396
336.51376
336.52265
336.50214
336.51037
336.48953
336.49707
336.4759
336.48272
336.46121
336.46729
336.44545
336.45077
336.42862
336.43318
336.41073
336.41453
336.39181
336.39485
336.37189
336.37416
336.35101
336.35252
336.3292
336.32996
336.30652
336.59743
336.58526
336.59837
336.58446
336.59778
336.58295
336.59589
336.57997
336.59233
336.57545
336.58724
336.56963
336.58096
336.56285
336.57379
336.55536
336.56595
336.54729
336.55753
336.53871
336.54856
336.52958
336.539
336.51986
336.52879
336.50947
336.51787
336.49833
336.50614
336.48638
336.49356
336.47356
336.48008
336.45981
336.46565
336.44513
336.45026
336.42948
336.4339
336.41288
336.41656
336.39532
336.39827
336.37683
336.37904
336.35743
336.35891
336.33716
336.33789
336.31604
336.59573
336.58418
336.59671
336.58329
336.59596
336.58146
336.59358
336.57785
336.58927
336.57254
336.58336
336.56593
336.57628
336.55842
336.56843
336.55031
336.56003
336.54178
336.55121
336.53289
336.542
336.52363
336.53238
336.51394
336.52228
336.50376
336.51164
336.49301
336.50037
336.48159
336.48839
336.46946
336.47566
336.45654
336.46211
336.44281
336.44772
336.42822
336.43246
336.41277
336.41632
336.39645
336.3993
336.37927
336.38141
336.36124
336.36267
336.34238
336.34309
336.32271
336.59395
336.58303
336.59498
336.58198
336.59393
336.57963
336.59082
336.57516
336.58555
336.56887
336.57864
336.56131
336.57067
336.55297
336.56204
336.54419
336.55303
336.53514
336.54376
336.52589
336.53426
336.51644
336.52452
336.50674
336.51448
336.4967
336.50404
336.48624
336.49314
336.47528
336.48168
336.46373
336.46959
336.45154
336.45682
336.43864
336.44332
336.42501
336.42906
336.4106
336.414
336.39541
336.39814
336.37942
336.38148
336.36265
336.36403
336.3451
336.34579
336.32678
336.59207
336.58182
336.59316
336.5805
336.59163
336.57738
336.58753
336.57179
336.58106
336.56431
336.573
336.55568
336.56401
336.54644
336.55456
336.53693
336.5449
336.52734
336.53515
336.51771
336.52535
336.50804
336.51546
336.49828
336.50542
336.48833
336.49514
336.47811
336.48454
336.46753
336.47352
336.4565
336.46201
336.44494
336.44993
336.43279
336.43722
336.42001
336.42385
336.40654
336.40978
336.39238
336.39499
336.37749
336.37946
336.36187
336.36319
336.34553
336.34619
336.32847
336.59009
336.58054
336.59123
336.57879
336.58897
336.5746
336.58357
336.5676
336.57567
336.55875
336.56631
336.54894
336.55624
336.53874
336.54592
336.52849
336.5356
336.51834
336.52537
336.50833
336.51525
336.49843
336.5052
336.48859
336.49515
336.47871
336.48499
336.46869
336.47465
336.45844
336.46402
336.44785
336.45301
336.43686
336.44155
336.42539
336.42956
336.41337
336.41701
336.40076
336.40383
336.38753
336.39001
336.37365
336.37553
336.35911
336.36036
336.34389
336.34452
336.328
336.58799
336.57921
336.58916
336.57677
336.58584
336.57113
336.57879
336.56244
336.56923
336.55206
336.55845
336.54099
336.54725
336.52981
336.53606
336.51881
336.52508
336.50812
336.51439
336.49774
336.50397
336.48763
336.49377
336.4777
336.48369
336.46787
336.47365
336.45803
336.46354
336.44807
336.45325
336.4379
336.4427
336.42742
336.43179
336.41655
336.42047
336.40523
336.40866
336.39341
336.39631
336.38104
336.38338
336.36808
336.36986
336.35453
336.35572
336.34035
336.34094
336.32554
336.58575
336.57781
336.58687
336.57432
336.58206
336.56681
336.57301
336.55614
336.56159
336.54409
336.54931
336.53172
336.53696
336.51957
336.52492
336.50785
336.51332
336.49665
336.5022
336.48593
336.49151
336.47563
336.48118
336.46565
336.47109
336.45587
336.46116
336.4462
336.45126
336.43651
336.4413
336.42671
336.43117
336.4167
336.42078
336.40639
336.41006
336.39572
336.39893
336.38462
336.38734
336.37304