/*--------------------------------*- C++ -*----------------------------------*\
| =========                 |                                                 |
| \\      /  F ield         | OpenFOAM: The Open Source CFD Toolbox           |
|  \\    /   O peration     | Version:  2312                                  |
|   \\  /    A nd           | Website:  www.openfoam.com                      |
|    \\/     M anipulation  |                                                 |
\*---------------------------------------------------------------------------*/
FoamFile
{
    version     2.0;
    format      ascii;
    arch        "LSB;label=32;scalar=64";
    class       volVectorField;
    location    "4";
    object      U_0;
}
// * * * * * * * * * * * * * * * * * * * * * * * * * * * * * * * * * * * * * //

dimensions      [0 1 -1 0 0 0 0];

internalField   nonuniform List<vector> 
4000
(
(0.0023337577 0.00042384593 0)
(0.0030397332 -6.8349797e-06 0)
(0.0024290059 -3.504383e-07 0)
(0.0025690494 2.2557858e-07 0)
(0.0024866903 -2.6044417e-07 0)
(0.0025432822 2.3496273e-07 0)
(0.0024908895 -2.2183894e-07 0)
(0.0025384458 2.0833817e-07 0)
(0.0024941477 -1.9559706e-07 0)
(0.0025355638 1.8402594e-07 0)
(0.0024966704 -1.7322759e-07 0)
(0.0025331685 1.6302432e-07 0)
(0.00249887 -1.5351132e-07 0)
(0.0025310762 1.4453863e-07 0)
(0.0025008247 -1.3613323e-07 0)
(0.0025292271 1.2823385e-07 0)
(0.0025025617 -1.208205e-07 0)
(0.0025275877 1.1386696e-07 0)
(0.0025041047 -1.0733881e-07 0)
(0.002526132 1.0122309e-07 0)
(0.0025054761 -9.5482878e-08 0)
(0.0025248376 9.0111105e-08 0)
(0.0025066963 -8.5072152e-08 0)
(0.002523685 8.0362121e-08 0)
(0.0025077839 -7.5947918e-08 0)
(0.0025226566 7.1827601e-08 0)
(0.0025087552 -6.797097e-08 0)
(0.002521737 6.4377367e-08 0)
(0.0025096251 -6.1019564e-08 0)
(0.0025209121 5.7897736e-08 0)
(0.0025104066 -5.4987594e-08 0)
(0.0025201696 5.2289826e-08 0)
(0.0025111115 -4.9782998e-08 0)
(0.0025194982 4.7468072e-08 0)
(0.0025117507 -4.5326363e-08 0)
(0.0025188878 4.3358933e-08 0)
(0.0025123336 -4.1549739e-08 0)
(0.0025183291 3.9899815e-08 0)
(0.0025128691 -3.8395661e-08 0)
(0.0025178139 3.7038202e-08 0)
(0.0025133653 -3.5816405e-08 0)
(0.0025173342 3.4731098e-08 0)
(0.0025138295 -3.3773603e-08 0)
(0.002516883 3.2944758e-08 0)
(0.0025142686 -3.2239901e-08 0)
(0.0025164527 3.1652299e-08 0)
(0.0025146892 -3.1206761e-08 0)
(0.00251605 3.0868489e-08 0)
(0.0025151745 -3.0403432e-08 0)
(0.0025159573 3.2530594e-08 0)
(0.0062544821 0.0011607221 0)
(0.0085554721 1.863767e-06 0)
(0.0071241476 4.87538e-06 0)
(0.0074448693 3.0606306e-07 0)
(0.0072182134 -6.0473577e-07 0)
(0.0073832381 8.1546954e-07 0)
(0.0072293476 -7.5517078e-07 0)
(0.0073699454 7.268881e-07 0)
(0.0072389933 -6.8686479e-07 0)
(0.0073615836 6.4882096e-07 0)
(0.007246462 -6.1047059e-07 0)
(0.0073545146 5.7539767e-07 0)
(0.0072529817 -5.4146642e-07 0)
(0.0073483223 5.1007217e-07 0)
(0.0072587766 -4.8029184e-07 0)
(0.0073428476 4.5249169e-07 0)
(0.0072639262 -4.2631035e-07 0)
(0.0073379931 4.0179308e-07 0)
(0.007268501 -3.7876507e-07 0)
(0.0073336817 3.5718927e-07 0)
(0.0072725677 -3.3694938e-07 0)
(0.0073298474 3.1799513e-07 0)
(0.0072761872 -3.0023104e-07 0)
(0.007326432 2.8361142e-07 0)
(0.0072794141 -2.6805142e-07 0)
(0.0073233836 2.5351319e-07 0)
(0.0072822973 -2.3991984e-07 0)
(0.0073206561 2.2724096e-07 0)
(0.0072848805 -2.1540697e-07 0)
(0.0073182084 2.0439368e-07 0)
(0.0072872028 -1.941386e-07 0)
(0.0073160033 1.8462254e-07 0)
(0.0072892994 -1.7578996e-07 0)
(0.0073140077 1.6762564e-07 0)
(0.0072912018 -1.6008078e-07 0)
(0.0073121914 1.5314334e-07 0)
(0.0072929389 -1.4677106e-07 0)
(0.0073105271 1.4095438e-07 0)
(0.0072945367 -1.356574e-07 0)
(0.0073089897 1.3087252e-07 0)
(0.0072960194 -1.2657012e-07 0)
(0.0073075561 1.2274393e-07 0)
(0.0072974094 -1.193703e-07 0)
(0.0073062046 1.1644909e-07 0)
(0.007298727 -1.1394099e-07 0)
(0.0073049125 1.1189447e-07 0)
(0.0072999898 -1.103624e-07 0)
(0.007303679 1.0811162e-07 0)
(0.0073013716 -1.1219726e-07 0)
(0.0073032149 1.0387803e-07 0)
(0.010039493 0.0018382804 0)
(0.013787097 -9.8902041e-06 0)
(0.011699774 1.23206e-05 0)
(0.012195802 5.0726231e-07 0)
(0.011823873 -9.2854692e-07 0)
(0.012101468 1.4762951e-06 0)
(0.011843329 -1.3594713e-06 0)
(0.012080101 1.3161797e-06 0)
(0.011859688 -1.2480548e-06 0)
(0.012066159 1.1799495e-06 0)
(0.011872275 -1.1101655e-06 0)
(0.012054272 1.0468446e-06 0)
(0.011883264 -9.8492199e-07 0)
(0.012043845 9.2792846e-07 0)
(0.011893031 -8.7370744e-07 0)
(0.012034624 8.2314164e-07 0)
(0.01190171 -7.7552383e-07 0)
(0.012026447 7.3090312e-07 0)
(0.011909419 -6.890341e-07 0)
(0.012019184 6.4976114e-07 0)
(0.011916273 -6.1296349e-07 0)
(0.012012724 5.7846207e-07 0)
(0.011922373 -5.4616465e-07 0)
(0.012006969 5.1591366e-07 0)
(0.011927813 -4.8762196e-07 0)
(0.012001832 4.6116024e-07 0)
(0.011932674 -4.3644279e-07 0)
(0.011997235 4.133658e-07 0)
(0.01193703 -3.9184604e-07 0)
(0.011993108 3.7180067e-07 0)
(0.011940947 -3.5315073e-07 0)
(0.011989389 3.358302e-07 0)
(0.011944485 -3.1976583e-07 0)
(0.011986022 3.0490497e-07 0)
(0.011947696 -2.9118116e-07 0)
(0.011982957 2.7855232e-07 0)
(0.011950629 -2.6695955e-07 0)
(0.011980146 2.5636911e-07 0)
(0.011953329 -2.4673014e-07 0)
(0.011977549 2.3801537e-07 0)
(0.011955836 -2.3018267e-07 0)
(0.011975125 2.2320905e-07 0)
(0.011958188 -2.1706132e-07 0)
(0.011972837 2.1173009e-07 0)
(0.011960419 -2.0713654e-07 0)
(0.011970648 2.0341808e-07 0)
(0.01196256 -2.0054693e-07 0)
(0.011968542 1.9608128e-07 0)
(0.011964854 -2.0636639e-07 0)
(0.011967594 1.877034e-07 0)
(0.013893647 0.0025225192 0)
(0.018825726 -1.4860153e-05 0)
(0.016154237 2.2810302e-05 0)
(0.016821226 4.8079014e-07 0)
(0.016303634 -1.0719596e-06 0)
(0.016698214 2.0969832e-06 0)
(0.016332651 -1.9288938e-06 0)
(0.01666913 1.8764018e-06 0)
(0.016356061 -1.7873379e-06 0)
(0.016649491 1.6910809e-06 0)
(0.016373956 -1.5911023e-06 0)
(0.016632621 1.5010125e-06 0)
(0.016389579 -1.4119632e-06 0)
(0.016617806 1.3304071e-06 0)
(0.016403463 -1.2526226e-06 0)
(0.0166047 1.1801195e-06 0)
(0.016415799 -1.1118829e-06 0)
(0.016593078 1.0478657e-06 0)
(0.016426757 -9.8788668e-07 0)
(0.016582755 9.3153416e-07 0)
(0.016436499 -8.7882256e-07 0)
(0.016573573 8.2931689e-07 0)
(0.016445171 -7.830499e-07 0)
(0.016565393 7.3964481e-07 0)
(0.016452903 -6.9911355e-07 0)
(0.01655809 6.6114702e-07 0)
(0.016459813 -6.2573387e-07 0)
(0.016551555 5.9262478e-07 0)
(0.016466006 -5.617909e-07 0)
(0.016545687 5.3303196e-07 0)
(0.016471576 -5.063082e-07 0)
(0.0165404 4.8145871e-07 0)
(0.016476606 -4.584382e-07 0)
(0.016535612 4.3711722e-07 0)
(0.016481173 -4.1744917e-07 0)
(0.016531252 3.9932964e-07 0)
(0.016485345 -3.8271392e-07 0)
(0.016527254 3.6751757e-07 0)
(0.016489186 -3.5370011e-07 0)
(0.016523558 3.4119283e-07 0)
(0.016492754 -3.2996186e-07 0)
(0.016520107 3.1994928e-07 0)
(0.016496102 -3.1112992e-07 0)
(0.016516851 3.0347081e-07 0)
(0.01649928 -2.9685558e-07 0)
(0.016513732 2.9154852e-07 0)
(0.016502331 -2.8734224e-07 0)
(0.016510719 2.8042667e-07 0)
(0.01650555 -2.994481e-07 0)
(0.016509171 2.6815164e-07 0)
(0.01746836 0.0030647785 0)
(0.023600977 -3.9424845e-05 0)
(0.020485582 3.5271642e-05 0)
(0.021321127 3.3971057e-07 0)
(0.02065745 -1.0297203e-06 0)
(0.021173375 2.644203e-06 0)
(0.020697432 -2.4421329e-06 0)
(0.02113691 2.383225e-06 0)
(0.020728209 -2.282885e-06 0)
(0.021111468 2.1611737e-06 0)
(0.020751589 -2.0335216e-06 0)
(0.021089464 1.919265e-06 0)
(0.020772001 -1.8050204e-06 0)
(0.021070118 1.7009916e-06 0)
(0.020790138 -1.6014485e-06 0)
(0.021053002 1.5087756e-06 0)
(0.020806251 -1.4215518e-06 0)
(0.021037822 1.3396736e-06 0)
(0.020820563 -1.2630318e-06 0)
(0.021024339 1.1909452e-06 0)
(0.020833287 -1.1235943e-06 0)
(0.021012347 1.0602655e-06 0)
(0.020844613 -1.0011475e-06 0)
(0.021001663 9.4562438e-07 0)
(0.020854712 -8.9383259e-07 0)
(0.020992124 8.4526802e-07 0)
(0.020863738 -8.0001374e-07 0)
(0.020983588 7.5766375e-07 0)
(0.020871827 -7.182591e-07 0)
(0.020975925 6.8147414e-07 0)
(0.020879101 -6.4732017e-07 0)
(0.020969018 6.1553599e-07 0)
(0.020885672 -5.861132e-07 0)
(0.020962765 5.5884202e-07 0)
(0.020891637 -5.337024e-07 0)
(0.02095707 5.1052544e-07 0)
(0.020897087 -4.8928559e-07 0)
(0.020951848 4.6984645e-07 0)
(0.020902104 -4.5218158e-07 0)
(0.02094702 4.3618015e-07 0)
(0.020906763 -4.2181929e-07 0)
(0.020942513 4.0900561e-07 0)
(0.020911136 -3.9772449e-07 0)
(0.020938259 3.8791875e-07 0)
(0.020915289 -3.7942751e-07 0)
(0.020934185 3.7268553e-07 0)
(0.020919275 -3.6718023e-07 0)
(0.020930238 3.5778691e-07 0)
(0.020923432 -3.873448e-07 0)
(0.020927992 3.419281e-07 0)
(0.021168708 0.0036436999 0)
(0.028188182 -4.7350809e-05 0)
(0.024696047 4.968164e-05 0)
(0.02569376 -1.7477934e-08 0)
(0.024885717 -8.4400989e-07 0)
(0.025526612 3.1150697e-06 0)
(0.024938092 -2.904455e-06 0)
(0.025483086 2.8383972e-06 0)
(0.024976477 -2.7373087e-06 0)
(0.025451772 2.5922142e-06 0)
(0.025005478 -2.4393976e-06 0)
(0.025424519 2.3033711e-06 0)
(0.025030797 -2.1657943e-06 0)
(0.025400534 2.0412584e-06 0)
(0.025053292 -1.9216862e-06 0)
(0.025379309 1.8105138e-06 0)
(0.025073272 -1.7058618e-06 0)
(0.025360486 1.6075753e-06 0)
(0.02509102 -1.5156524e-06 0)
(0.025343767 1.4291056e-06 0)
(0.025106798 -1.3483313e-06 0)
(0.025328896 1.2722981e-06 0)
(0.025120842 -1.2013959e-06 0)
(0.025315647 1.134736e-06 0)
(0.025133365 -1.0726175e-06 0)
(0.025303819 1.0143139e-06 0)
(0.025144557 -9.6003346e-07 0)
(0.025293234 9.0919228e-07 0)
(0.025154587 -8.6192573e-07 0)
(0.025283732 8.1776636e-07 0)
(0.025163607 -7.7679599e-07 0)
(0.025275168 7.3864039e-07 0)
(0.025171753 -7.0334357e-07 0)
(0.025267415 6.7060556e-07 0)
(0.025179149 -6.4044521e-07 0)
(0.025260354 6.126215e-07 0)
(0.025185905 -5.8713785e-07 0)
(0.02525388 5.6380001e-07 0)
(0.025192125 -5.4260334e-07 0)
(0.025247895 5.2339028e-07 0)
(0.025197901 -5.0615509e-07 0)
(0.025242308 4.9076494e-07 0)
(0.025203322 -4.7722115e-07 0)
(0.025237035 4.6543821e-07 0)
(0.025208469 -4.552087e-07 0)
(0.025231987 4.4717093e-07 0)
(0.02521341 -4.4038663e-07 0)
(0.025227086 4.285416e-07 0)
(0.025218513 -4.6992562e-07 0)
(0.02522406 4.0899441e-07 0)
(0.02466185 0.0041044775 0)
(0.032499348 -8.3621375e-05 0)
(0.028788305 6.4428002e-05 0)
(0.029937451 -3.3934584e-07 0)
(0.028988393 -5.394863e-07 0)
(0.029757511 3.5039437e-06 0)
(0.029055073 -3.3230161e-06 0)
(0.029707284 3.244994e-06 0)
(0.029101228 -3.1543944e-06 0)
(0.029670064 2.9873296e-06 0)
(0.029135942 -2.8117633e-06 0)
(0.029637487 2.6561073e-06 0)
(0.02916625 -2.4969257e-06 0)
(0.029608789 2.3536772e-06 0)
(0.029193172 -2.2156704e-06 0)
(0.02958339 2.0875292e-06 0)
(0.029217084 -1.9668841e-06 0)
(0.029560864 1.8535218e-06 0)
(0.029238322 -1.7475885e-06 0)
(0.029540856 1.6477503e-06 0)
(0.029257202 -1.5546708e-06 0)
(0.029523059 1.4669598e-06 0)
(0.029274008 -1.3852544e-06 0)
(0.029507205 1.3083585e-06 0)
(0.029288993 -1.2367717e-06 0)
(0.029493051 1.1695178e-06 0)
(0.029302386 -1.1069605e-06 0)
(0.029480384 1.0483166e-06 0)
(0.029314388 -9.9383995e-07 0)
(0.029469014 9.4290463e-07 0)
(0.029325181 -8.9568231e-07 0)
(0.029458767 8.516727e-07 0)
(0.029334928 -8.1098768e-07 0)
(0.029449489 7.7322694e-07 0)
(0.029343777 -7.3846059e-07 0)
(0.029441042 7.0636754e-07 0)
(0.02935186 -6.7699007e-07 0)
(0.029433296 6.5006981e-07 0)
(0.029359301 -6.2563183e-07 0)
(0.029426137 6.0346679e-07 0)
(0.02936621 -5.8359247e-07 0)
(0.029419454 5.6583224e-07 0)
(0.029372694 -5.5020899e-07 0)
(0.029413148 5.3660379e-07 0)
(0.029378849 -5.2476341e-07 0)
(0.029407112 5.155547e-07 0)
(0.029384758 -5.0750061e-07 0)
(0.029401245 4.932808e-07 0)
(0.02939081 -5.4730939e-07 0)
(0.029397371 4.6969571e-07 0)
(0.028163416 0.0045323443 0)
(0.03664475 -9.534293e-05 0)
(0.032766253 7.9828583e-05 0)
(0.034049872 -5.981826e-07 0)
(0.03296551 -1.5661257e-07 0)
(0.033865781 3.8037465e-06 0)
(0.033048791 -3.7003528e-06 0)
(0.033809189 3.6032143e-06 0)
(0.033102787 -3.5349179e-06 0)
(0.033766047 3.346915e-06 0)
(0.033143263 -3.1510571e-06 0)
(0.033728103 2.9778174e-06 0)
(0.033178607 -2.7987601e-06 0)
(0.03369465 2.6385611e-06 0)
(0.033209998 -2.4837004e-06 0)
(0.033665038 2.3401033e-06 0)
(0.033237877 -2.2048828e-06 0)
(0.033638774 2.0777643e-06 0)
(0.033262639 -1.9590748e-06 0)
(0.033615446 1.847103e-06 0)
(0.033284651 -1.7428219e-06 0)
(0.033594697 1.6444501e-06 0)
(0.033304244 -1.5529097e-06 0)
(0.033576212 1.4666702e-06 0)
(0.033321714 -1.3864626e-06 0)
(0.03355971 1.3110396e-06 0)
(0.033337328 -1.2409456e-06 0)
(0.033544943 1.1751807e-06 0)
(0.03335132 -1.1141379e-06 0)
(0.033531686 1.0570193e-06 0)
(0.033363902 -1.0041029e-06 0)
(0.033519741 9.5475176e-07 0)
(0.033375265 -9.0915887e-07 0)
(0.033508926 8.6681536e-07 0)
(0.03338558 -8.278532e-07 0)
(0.033499078 7.9186479e-07 0)
(0.033395002 -7.5893985e-07 0)
(0.03349005 7.2875074e-07 0)
(0.033403674 -7.0135917e-07 0)
(0.033481706 6.7649991e-07 0)
(0.033411727 -6.5421976e-07 0)
(0.033473918 6.3429476e-07 0)
(0.033419281 -6.1677428e-07 0)
(0.03346657 6.0150137e-07 0)
(0.033426454 -5.8817943e-07 0)
(0.033459538 5.779221e-07 0)
(0.033433338 -5.6861327e-07 0)
(0.0334527 5.5214145e-07 0)
(0.03344034 -6.1925422e-07 0)
(0.033447922 5.2406494e-07 0)
(0.031734889 0.0049713591 0)
(0.040509578 -0.00013839595 0)
(0.036629678 9.4406766e-05 0)
(0.038030584 -9.7373795e-07 0)
(0.036816837 1.8433034e-07 0)
(0.037851132 3.9826522e-06 0)
(0.036919619 -4.0398538e-06 0)
(0.037788537 3.9127296e-06 0)
(0.036981444 -3.8784515e-06 0)
(0.037739465 3.6706553e-06 0)
(0.037027687 -3.4568703e-06 0)
(0.037696138 3.268121e-06 0)
(0.037068085 -3.0709337e-06 0)
(0.037657912 2.8955667e-06 0)
(0.037103963 -2.7254512e-06 0)
(0.037624072 2.5679326e-06 0)
(0.037135823 -2.4195689e-06 0)
(0.037594057 2.2800335e-06 0)
(0.03716412 -2.1498543e-06 0)
(0.037567398 2.0269245e-06 0)
(0.037189274 -1.9125562e-06 0)
(0.037543685 1.8045558e-06 0)
(0.037211664 -1.7041584e-06 0)
(0.03752256 1.609481e-06 0)
(0.037231629 -1.521509e-06 0)
(0.037503702 1.4387096e-06 0)
(0.037249471 -1.3618266e-06 0)
(0.037486826 1.2896326e-06 0)
(0.03726546 -1.2226747e-06 0)
(0.037471677 1.1599742e-06 0)
(0.037279838 -1.1019277e-06 0)
(0.037458026 1.047755e-06 0)
(0.037292822 -9.9774003e-07 0)
(0.037445668 9.5126017e-07 0)
(0.037304609 -9.085172e-07 0)
(0.037434416 8.6901303e-07 0)
(0.037315374 -8.3289119e-07 0)
(0.037424101 7.9975168e-07 0)
(0.037325282 -7.6969796e-07 0)
(0.037414568 7.4240644e-07 0)
(0.037334481 -7.1795703e-07 0)
(0.037405672 6.9607637e-07 0)
(0.037343111 -6.7684397e-07 0)
(0.037397279 6.6006128e-07 0)
(0.037351303 -6.4539188e-07 0)
(0.037389249 6.3420826e-07 0)
(0.037359165 -6.2367075e-07 0)
(0.037381437 6.0510642e-07 0)
(0.037367112 -6.8541994e-07 0)
(0.03737571 5.7207495e-07 0)
(0.035002481 0.0052262924 0)
(0.044222026 -0.0001552386 0)
(0.040376356 0.00010937197 0)
(0.041882434 -1.75427e-06 0)
(0.04054377 3.5605001e-07 0)
(0.041713339 4.0036835e-06 0)
(0.040667834 -4.3502016e-06 0)
(0.04164506 4.171482e-06 0)
(0.040737448 -4.1854781e-06 0)
(0.041590081 3.9582573e-06 0)
(0.040789437 -3.7290913e-06 0)
(0.041541382 3.526827e-06 0)
(0.040834881 -3.3132926e-06 0)
(0.041498393 3.1245371e-06 0)
(0.040875238 -2.9407782e-06 0)
(0.041460332 2.7708813e-06 0)
(0.040911073 -2.610812e-06 0)
(0.041426571 2.4602093e-06 0)
(0.0409429 -2.3198107e-06 0)
(0.041396585 2.1871077e-06 0)
(0.040971191 -2.0637697e-06 0)
(0.041369913 1.9471814e-06 0)
(0.040996374 -1.8389081e-06 0)
(0.041346152 1.7367052e-06 0)
(0.041018829 -1.6418282e-06 0)
(0.041324941 1.552451e-06 0)
(0.041038896 -1.4695298e-06 0)
(0.04130596 1.3916036e-06 0)
(0.041056879 -1.3193839e-06 0)
(0.041288921 1.2517073e-06 0)
(0.04107305 -1.189097e-06 0)
(0.041273568 1.1306265e-06 0)
(0.041087653 -1.0766773e-06 0)
(0.041259669 1.0265107e-06 0)
(0.041100908 -9.8040388e-07 0)
(0.041247014 9.3776628e-07 0)
(0.041113016 -8.987998e-07 0)
(0.041235414 8.6303068e-07 0)
(0.041124157 -8.3060778e-07 0)
(0.041224694 8.0114806e-07 0)
(0.041134501 -7.7476745e-07 0)
(0.041214691 7.5114218e-07 0)
(0.041144204 -7.3038459e-07 0)
(0.041205255 7.1225192e-07 0)
(0.041153413 -6.9637234e-07 0)
(0.04119623 6.8438316e-07 0)
(0.041162252 -6.726544e-07 0)
(0.041187448 6.5218201e-07 0)
(0.041171138 -7.4553287e-07 0)
(0.041180737 6.1376925e-07 0)
(0.03868416 0.0056589814 0)
(0.047679621 -0.00020149986 0)
(0.043990089 0.00012269037 0)
(0.045611059 -1.5925176e-06 0)
(0.044149948 6.3982099e-07 0)
(0.045452612 3.9340092e-06 0)
(0.044293833 -4.6157905e-06 0)
(0.045378549 4.3842629e-06 0)
(0.044371029 -4.4551292e-06 0)
(0.045317686 4.2101899e-06 0)
(0.044428711 -3.9677745e-06 0)
(0.04526365 3.7540636e-06 0)
(0.04447917 -3.5259343e-06 0)
(0.045215927 3.3255682e-06 0)
(0.044523978 -3.1297695e-06 0)
(0.04517367 2.9490341e-06 0)
(0.044563763 -2.7786896e-06 0)
(0.045136187 2.6183668e-06 0)
(0.044599098 -2.4690122e-06 0)
(0.045102894 2.3277188e-06 0)
(0.044630507 -2.1965229e-06 0)
(0.045073282 2.0723854e-06 0)
(0.044658466 -1.9572121e-06 0)
(0.0450469 1.8483947e-06 0)
(0.044683396 -1.7474676e-06 0)
(0.04502335 1.6523098e-06 0)
(0.044705675 -1.5640972e-06 0)
(0.045002276 1.4811344e-06 0)
(0.04472564 -1.4043033e-06 0)
(0.044983359 1.332255e-06 0)
(0.044743593 -1.2656447e-06 0)
(0.044966313 1.203399e-06 0)
(0.044759805 -1.1460014e-06 0)
(0.044950883 1.0925967e-06 0)
(0.04477452 -1.043541e-06 0)
(0.044936834 9.9815147e-07 0)
(0.044787961 -9.5669123e-07 0)
(0.044923957 9.1861266e-07 0)
(0.044800329 -8.8411246e-07 0)
(0.044912056 8.5274813e-07 0)
(0.04481181 -8.2467358e-07 0)
(0.044900954 7.9951463e-07 0)
(0.044822579 -7.7741825e-07 0)
(0.04489048 7.580956e-07 0)
(0.0448328 -7.4114471e-07 0)
(0.044880466 7.2846775e-07 0)
(0.04484261 -7.155966e-07 0)
(0.044870724 6.9341694e-07 0)
(0.044852424 -7.9939941e-07 0)
(0.044863002 6.4926314e-07 0)
(0.041695392 0.0057446022 0)
(0.051006607 -0.00022502969 0)
(0.047476546 0.00013392242 0)
(0.049215192 -1.5195206e-06 0)
(0.047637154 8.3352959e-07 0)
(0.049068838 3.7450362e-06 0)
(0.047797867 -4.845726e-06 0)
(0.048988802 4.5499689e-06 0)
(0.047882395 -4.6882359e-06 0)
(0.04892209 4.4267067e-06 0)
(0.047945691 -4.1732644e-06 0)
(0.048862771 3.9500914e-06 0)
(0.048001112 -3.7091266e-06 0)
(0.048810365 3.4989009e-06 0)
(0.048050324 -3.2926557e-06 0)
(0.048763956 3.1026074e-06 0)
(0.048094019 -2.9234042e-06 0)
(0.048722789 2.7546982e-06 0)
(0.048132824 -2.5976377e-06 0)
(0.048686223 2.4489283e-06 0)
(0.048167319 -2.3109745e-06 0)
(0.0486537 2.1803191e-06 0)
(0.048198024 -2.0592115e-06 0)
(0.048624725 1.944684e-06 0)
(0.048225404 -1.8385528e-06 0)
(0.04859886 1.7384057e-06 0)
(0.048249872 -1.6456411e-06 0)
(0.048575715 1.5583318e-06 0)
(0.048271798 -1.4775333e-06 0)
(0.048554938 1.4017131e-06 0)
(0.048291515 -1.331661e-06 0)
(0.048536217 1.2661585e-06 0)
(0.04830932 -1.2057934e-06 0)
(0.04851927 1.1495957e-06 0)
(0.048325481 -1.0980025e-06 0)
(0.048503842 1.0502394e-06 0)
(0.048340241 -1.0066329e-06 0)
(0.0484897 9.6656257e-07 0)
(0.048353823 -9.3027426e-07 0)
(0.048476632 8.9726699e-07 0)
(0.048366431 -8.6773372e-07 0)
(0.04846444 8.4125066e-07 0)
(0.048378256 -8.1800043e-07 0)
(0.04845294 7.9764713e-07 0)
(0.048389477 -7.7976439e-07 0)
(0.048441948 7.6651392e-07 0)
(0.048400247 -7.5256092e-07 0)
(0.048431255 7.2888482e-07 0)
(0.048410977 -8.4688606e-07 0)
(0.048422506 6.787198e-07 0)
(0.045483251 0.0061684701 0)
(0.05412855 -0.00026453285 0)
(0.050837025 0.00014228096 0)
(0.052693032 -1.975308e-06 0)
(0.051004854 8.4397105e-07 0)
(0.0525618 3.4341039e-06 0)
(0.051180129 -5.0427969e-06 0)
(0.052475647 4.6697905e-06 0)
(0.051271738 -4.8850317e-06 0)
(0.052403127 4.6084529e-06 0)
(0.051340541 -4.3459224e-06 0)
(0.052338595 4.1153324e-06 0)
(0.051400849 -3.8632292e-06 0)
(0.052281571 3.6448885e-06 0)
(0.051454403 -3.4297621e-06 0)
(0.05223107 3.2319117e-06 0)
(0.05150195 -3.0452447e-06 0)
(0.052186271 2.8694784e-06 0)
(0.051544177 -2.7059437e-06 0)
(0.052146479 2.55098e-06 0)
(0.051581713 -2.407352e-06 0)
(0.052111087 2.2711987e-06 0)
(0.051615126 -2.1451086e-06 0)
(0.052079555 2.0257652e-06 0)
(0.051644919 -1.915264e-06 0)
(0.052051409 1.8109099e-06 0)
(0.051671545 -1.7143223e-06 0)
(0.052026221 1.6233489e-06 0)
(0.051695406 -1.5392179e-06 0)
(0.052003611 1.4602185e-06 0)
(0.051716862 -1.3872752e-06 0)
(0.051983239 1.3190283e-06 0)
(0.051736237 -1.2561702e-06 0)
(0.051964797 1.1976193e-06 0)
(0.051753823 -1.143894e-06 0)
(0.051948008 1.0941315e-06 0)
(0.051769884 -1.0487216e-06 0)
(0.051932619 1.0069734e-06 0)
(0.051784663 -9.6918235e-07 0)
(0.051918398 9.3479077e-07 0)
(0.051798382 -9.0403094e-07 0)
(0.051905133 8.7643114e-07 0)
(0.051811248 -8.5220983e-07 0)
(0.051892621 8.3098389e-07 0)
(0.051823456 -8.1230862e-07 0)
(0.051880664 7.9859506e-07 0)
(0.051835174 -7.8363224e-07 0)
(0.051869036 7.5867594e-07 0)
(0.051846804 -8.8790819e-07 0)
(0.051859249 7.0233586e-07 0)
(0.048266275 0.006125553 0)
(0.057127092 -0.00029481027 0)
(0.054071667 0.00014950923 0)
(0.056046614 -2.175702e-06 0)
(0.054253581 8.2176205e-07 0)
(0.055931579 3.0584116e-06 0)
(0.054440819 -5.1966984e-06 0)
(0.055838921 4.7471178e-06 0)
(0.05453922 -5.0454761e-06 0)
(0.055760642 4.7561905e-06 0)
(0.054613405 -4.4862555e-06 0)
(0.055690986 4.2502914e-06 0)
(0.05467851 -3.9887151e-06 0)
(0.055629426 3.7639734e-06 0)
(0.054736327 -3.5415064e-06 0)
(0.055574905 3.3373406e-06 0)
(0.054787657 -3.1445801e-06 0)
(0.055526541 2.9630567e-06 0)
(0.054833243 -2.7942571e-06 0)
(0.055483581 2.6341837e-06 0)
(0.054873767 -2.4859459e-06 0)
(0.05544537 2.3452994e-06 0)
(0.054909838 -2.2151617e-06 0)
(0.055411328 2.0918832e-06 0)
(0.054942003 -1.9778314e-06 0)
(0.055380939 1.8700407e-06 0)
(0.054970748 -1.7703462e-06 0)
(0.055353745 1.6763806e-06 0)
(0.054996508 -1.5895408e-06 0)
(0.055329335 1.5079461e-06 0)
(0.055019672 -1.4326523e-06 0)
(0.05530734 1.3621657e-06 0)
(0.05504059 -1.2972807e-06 0)
(0.05528743 1.2368097e-06 0)
(0.055059576 -1.1813507e-06 0)
(0.055269304 1.1299571e-06 0)
(0.055076916 -1.0830807e-06 0)
(0.055252689 1.0399636e-06 0)
(0.055092871 -1.0009503e-06 0)
(0.055237337 9.6542911e-07 0)
(0.055107681 -9.3367108e-07 0)
(0.055223016 9.0515885e-07 0)
(0.05512157 -8.8014631e-07 0)
(0.05520951 8.5820379e-07 0)
(0.055134748 -8.3887443e-07 0)
(0.055196606 8.2480406e-07 0)
(0.055147396 -8.0891446e-07 0)
(0.055184062 7.8289563e-07 0)
(0.055159908 -9.2242531e-07 0)
(0.055173234 7.2033391e-07 0)
(0.052022203 0.006478527 0)
(0.059971069 -0.00033045566 0)
(0.057183708 0.00015450789 0)
(0.059277344 -2.4620316e-06 0)
(0.057382527 6.908439e-07 0)
(0.05917797 2.6105381e-06 0)
(0.057580056 -5.3101705e-06 0)
(0.059078456 4.7825134e-06 0)
(0.057684981 -5.1702389e-06 0)
(0.058994495 4.8706848e-06 0)
(0.057764413 -4.5948727e-06 0)
(0.05891982 4.3555866e-06 0)
(0.05783421 -4.0861407e-06 0)
(0.058853822 3.8566923e-06 0)
(0.057896197 -3.6283868e-06 0)
(0.058795368 3.4193673e-06 0)
(0.057951229 -3.2218531e-06 0)
(0.058743514 3.0358522e-06 0)
(0.058000103 -2.8629707e-06 0)
(0.058697453 2.6989114e-06 0)
(0.058043549 -2.547105e-06 0)
(0.058656484 2.4029518e-06 0)
(0.058082222 -2.2696811e-06 0)
(0.058619985 2.1433321e-06 0)
(0.058116707 -2.0265314e-06 0)
(0.058587402 1.9160601e-06 0)
(0.058147527 -1.8139597e-06 0)
(0.058558245 1.7176613e-06 0)
(0.058175146 -1.6287233e-06 0)
(0.058532072 1.545106e-06 0)
(0.058199982 -1.4679912e-06 0)
(0.058508489 1.3957596e-06 0)
(0.058222409 -1.329304e-06 0)
(0.058487141 1.2673376e-06 0)
(0.058242766 -1.2105353e-06 0)
(0.058467706 1.1578715e-06 0)
(0.058261357 -1.1098585e-06 0)
(0.058449892 1.0656758e-06 0)
(0.058278464 -1.0257149e-06 0)
(0.058433432 9.8931382e-07 0)
(0.058294343 -9.5678122e-07 0)
(0.058418078 9.2755713e-07 0)
(0.058309234 -9.0192971e-07 0)
(0.058403598 8.7942415e-07 0)
(0.058323361 -8.5957757e-07 0)
(0.058389766 8.4525229e-07 0)
(0.058336921 -8.2852913e-07 0)
(0.058376326 8.0166395e-07 0)
(0.058350295 -9.5043785e-07 0)
(0.05836446 7.3295611e-07 0)
(0.054784613 0.0063870399 0)
(0.062704103 -0.00036187478 0)
(0.060175856 0.00015635464 0)
(0.062387448 -2.8889794e-06 0)
(0.060391453 4.6861681e-07 0)
(0.062300964 2.1067629e-06 0)
(0.060598003 -5.3781806e-06 0)
(0.062194126 4.7783756e-06 0)
(0.060709156 -5.2596393e-06 0)
(0.062104566 4.952878e-06 0)
(0.06079368 -4.6724792e-06 0)
(0.06202499 4.4319146e-06 0)
(0.06086805 -4.1561546e-06 0)
(0.061954663 3.9236575e-06 0)
(0.060934103 -3.6909785e-06 0)
(0.061892373 3.4785352e-06 0)
(0.060992745 -3.2775733e-06 0)
(0.061837115 3.0883469e-06 0)
(0.061044825 -2.9125367e-06 0)
(0.061788031 2.7455907e-06 0)
(0.061091121 -2.591231e-06 0)
(0.061744372 2.4445359e-06 0)
(0.061132332 -2.3090242e-06 0)
(0.061705475 2.1804501e-06 0)
(0.06116908 -2.0616825e-06 0)
(0.061670753 1.9492701e-06 0)
(0.061201923 -1.8454474e-06 0)
(0.061639681 1.7474606e-06 0)
(0.061231355 -1.65702e-06 0)
(0.061611789 1.5719399e-06 0)
(0.061257822 -1.4935207e-06 0)
(0.061586657 1.4200278e-06 0)
(0.061281722 -1.3524469e-06 0)
(0.061563906 1.2894002e-06 0)
(0.061303416 -1.2316351e-06 0)
(0.061543194 1.1780541e-06 0)
(0.061323229 -1.1292264e-06 0)
(0.061524209 1.0842741e-06 0)
(0.06134146 -1.0436335e-06 0)
(0.061506667 1.0065968e-06 0)
(0.061358381 -9.7350796e-07 0)
(0.061490305 9.4376815e-07 0)
(0.061374249 -9.1769801e-07 0)
(0.061474875 8.9477992e-07 0)
(0.061389303 -8.7455076e-07 0)
(0.061460138 8.6006796e-07 0)
(0.061403753 -8.4261364e-07 0)
(0.061445824 8.1511435e-07 0)
(0.061417966 -9.7198332e-07 0)
(0.061432929 7.4045884e-07 0)
(0.058441962 0.0066148828 0)
(0.065325919 -0.0003923948 0)
(0.063049419 0.00015655443 0)
(0.065380486 -3.4214518e-06 0)
(0.063279714 1.8246816e-07 0)
(0.065300422 1.5472503e-06 0)
(0.063494774 -5.3994631e-06 0)
(0.065185802 4.7360565e-06 0)
(0.063611855 -5.314405e-06 0)
(0.065090741 5.0037177e-06 0)
(0.063701308 -4.7198735e-06 0)
(0.065006399 4.4800544e-06 0)
(0.06378012 -4.199477e-06 0)
(0.064931863 3.965554e-06 0)
(0.063850126 -3.7299223e-06 0)
(0.064865846 3.5154504e-06 0)
(0.063912276 -3.3123093e-06 0)
(0.064807279 3.1210783e-06 0)
(0.063967472 -2.9434599e-06 0)
(0.064755255 2.774699e-06 0)
(0.064016538 -2.6187726e-06 0)
(0.064708981 2.470476e-06 0)
(0.064060215 -2.3335902e-06 0)
(0.064667755 2.2036151e-06 0)
(0.064099164 -2.0836406e-06 0)
(0.064630953 1.9700073e-06 0)
(0.064133973 -1.865127e-06 0)
(0.064598019 1.7660799e-06 0)
(0.064165168 -1.6747158e-06 0)
(0.064568455 1.588718e-06 0)
(0.06419322 -1.5094967e-06 0)
(0.064541816 1.4352136e-06 0)
(0.064218553 -1.3669403e-06 0)
(0.064517701 1.3032174e-06 0)
(0.064241547 -1.2448597e-06 0)
(0.064495747 1.190705e-06 0)
(0.064262548 -1.1413756e-06 0)
(0.064475624 1.0959422e-06 0)
(0.064281871 -1.0548827e-06 0)
(0.064457031 1.017448e-06 0)
(0.064299807 -9.8401518e-07 0)
(0.064439687 9.5395074e-07 0)
(0.064316626 -9.2760546e-07 0)
(0.064423333 9.0442186e-07 0)
(0.064332581 -8.83942e-07 0)
(0.064407715 8.6939439e-07 0)
(0.064347897 -8.5131941e-07 0)
(0.064392554 8.2339259e-07 0)
(0.064362925 -9.8713295e-07 0)
(0.064378644 7.4310749e-07 0)
(0.061297978 0.0065080134 0)
(0.067853198 -0.00041967049 0)
(0.06580039 0.00015400232 0)
(0.068258962 -4.1910618e-06 0)
(0.066047543 -1.6089978e-07 0)
(0.06817642 9.202017e-07 0)
(0.066270517 -5.375535e-06 0)
(0.068053385 4.6559209e-06 0)
(0.06639318 -5.3357069e-06 0)
(0.067952925 5.0240893e-06 0)
(0.066487386 -4.7379866e-06 0)
(0.067863962 4.5008301e-06 0)
(0.066570502 -4.2169037e-06 0)
(0.067785348 3.9831254e-06 0)
(0.066644336 -3.7459195e-06 0)
(0.067715718 3.5307742e-06 0)
(0.066709884 -3.3266821e-06 0)
(0.067653946 3.134633e-06 0)
(0.066768098 -2.9562915e-06 0)
(0.067599075 2.7867571e-06 0)
(0.066819848 -2.6302195e-06 0)
(0.067550267 2.4812351e-06 0)
(0.066865915 -2.3438151e-06 0)
(0.067506784 2.2132392e-06 0)
(0.066906995 -2.0927944e-06 0)
(0.067467966 1.9786399e-06 0)
(0.066943709 -1.8733458e-06 0)
(0.067433227 1.7738482e-06 0)
(0.066976613 -1.6821217e-06 0)
(0.067402044 1.5957358e-06 0)
(0.067006202 -1.5161989e-06 0)
(0.067373945 1.441583e-06 0)
(0.067032922 -1.3730368e-06 0)
(0.067348508 1.3090301e-06 0)
(0.067057176 -1.2504384e-06 0)
(0.06732535 1.1960436e-06 0)
(0.067079329 -1.1465157e-06 0)
(0.067304124 1.1008809e-06 0)
(0.067099712 -1.059655e-06 0)
(0.06728451 1.0220531e-06 0)
(0.067118632 -9.8848227e-07 0)
(0.067266215 9.5827878e-07 0)
(0.067136372 -9.3182083e-07 0)
(0.067248965 9.0851481e-07 0)
(0.067153201 -8.8791285e-07 0)
(0.067232494 8.7338846e-07 0)
(0.067169357 -8.5481016e-07 0)
(0.067216512 8.2665532e-07 0)
(0.067185175 -9.9598818e-07 0)
(0.067201604 7.4117264e-07 0)
(0.064799948 0.0066128878 0)
(0.07028987 -0.00044443315 0)
(0.068434052 0.00015003015 0)
(0.071019746 -4.9580456e-06 0)
(0.06869529 -4.5368444e-07 0)
(0.070928706 2.5161054e-07 0)
(0.068925327 -5.2964891e-06 0)
(0.070796755 4.542409e-06 0)
(0.069053204 -5.3236042e-06 0)
(0.070691023 5.0152938e-06 0)
(0.06915199 -4.7277146e-06 0)
(0.0705976 4.4951543e-06 0)
(0.069239263 -4.209284e-06 0)
(0.07051505 3.9771695e-06 0)
(0.069316794 -3.739724e-06 0)
(0.070441933 3.5252152e-06 0)
(0.069385624 -3.3213597e-06 0)
(0.070377065 3.1296409e-06 0)
(0.069446753 -2.9516241e-06 0)
(0.070319444 2.7823245e-06 0)
(0.069501094 -2.6260984e-06 0)
(0.07026819 2.4773108e-06 0)
(0.069549468 -2.3401675e-06 0)
(0.070222526 2.2097657e-06 0)
(0.069592607 -2.0895618e-06 0)
(0.070181762 1.9755631e-06 0)
(0.069631162 -1.8704774e-06 0)
(0.07014528 1.7711192e-06 0)
(0.069665715 -1.6795724e-06 0)
(0.070112532 1.5933106e-06 0)
(0.069696788 -1.5139282e-06 0)
(0.070083023 1.4394218e-06 0)
(0.069724849 -1.371008e-06 0)
(0.070056309 1.307097e-06 0)
(0.069750321 -1.2486178e-06 0)
(0.070031988 1.1943054e-06 0)
(0.069773586 -1.144872e-06 0)
(0.070009695 1.0993067e-06 0)
(0.069794993 -1.0581584e-06 0)
(0.069989096 1.0206125e-06 0)
(0.069814863 -9.8710235e-07 0)
(0.069969882 9.5693937e-07 0)
(0.069833495 -9.3052581e-07 0)
(0.069951765 9.0723617e-07 0)
(0.069851168 -8.8663702e-07 0)
(0.069934469 8.7221914e-07 0)
(0.069868135 -8.5326051e-07 0)
(0.069917695 8.250692e-07 0)
(0.069884715 -9.9867792e-07 0)
(0.069901813 7.3492627e-07 0)
(0.067636133 0.0064786922 0)
(0.072640954 -0.00046469257 0)
(0.070955527 0.00014302665 0)
(0.073655373 -5.6447536e-06 0)
(0.07122356 -6.4253291e-07 0)
(0.073556889 -4.4482434e-07 0)
(0.071459261 -5.1553844e-06 0)
(0.073415801 4.3990019e-06 0)
(0.071591988 -5.2784434e-06 0)