/*--------------------------------*- C++ -*----------------------------------*\
| =========                 |                                                 |
| \\      /  F ield         | OpenFOAM: The Open Source CFD Toolbox           |
|  \\    /   O peration     | Version:  2312                                  |
|   \\  /    A nd           | Website:  www.openfoam.com                      |
|    \\/     M anipulation  |                                                 |
\*---------------------------------------------------------------------------*/
FoamFile
{
    version     2.0;
    format      ascii;
    arch        "LSB;label=32;scalar=64";
    class       volScalarField;
    location    "4";
    object      p;
}
// * * * * * * * * * * * * * * * * * * * * * * * * * * * * * * * * * * * * * //

dimensions      [0 2 -2 0 0 0 0];

internalField   nonuniform List<scalar> 
4000
(
26.554694
25.480388
25.189714
24.339551
24.088283
23.291781
23.016311
22.252669
21.949345
21.212998
20.88431
20.171945
19.820798
19.129572
18.758592
18.086003
17.697535
17.041366
16.637492
15.995779
15.57835
14.949345
14.520008
13.902158
13.46238
12.8543
12.405386
11.805842
11.348961
10.756847
10.293045
9.7073705
9.237588
8.6574592
8.1825447
7.6071537
7.1278779
6.5564889
6.0735555
5.505494
5.0195507
4.4541932
3.9658417
3.4026062
2.9124109
2.3507482
1.8592452
1.2986295
0.80633239
0.24624849
26.549704
25.478804
25.189852
24.339563
24.088274
23.291792
23.016301
22.252679
21.949336
21.213006
20.884302
20.171953
19.82079
19.129579
18.758586
18.086009
17.697529
17.041372
16.637487
15.995783
15.578345
14.949349
14.520004
13.902162
13.462376
12.854303
12.405383
11.805845
11.348958
10.75685
10.293043
9.707373
9.2375857
8.6574614
8.1825426
7.6071557
7.1278759
6.5564908
6.0735537
5.5054957
5.019549
4.4541948
3.9658401
3.4026077
2.9124094
2.3507496
1.8592437
1.2986309
0.80633088
0.24625083
26.541174
25.477759
25.190123
24.339551
24.088282
23.291791
23.016302
22.252678
21.949337
21.213005
20.884303
20.171952
19.820791
19.129578
18.758587
18.086009
17.69753
17.041371
16.637487
15.995783
15.578346
14.949349
14.520005
13.902161
13.462376
12.854302
12.405384
11.805844
11.348959
10.75685
10.293043
9.7073727
9.2375859
8.6574611
8.1825428
7.6071555
7.1278762
6.5564905
6.0735539
5.5054955
5.0195492
4.4541946
3.9658403
3.4026075
2.9124096
2.3507495
1.8592439
1.2986308
0.80633092
0.24625157
26.530536
25.476611
25.190406
24.339538
24.088296
23.291785
23.016308
22.252672
21.949342
21.213001
20.884307
20.171948
19.820795
19.129574
18.75859
18.086005
17.697533
17.041368
16.63749
15.99578
15.578348
14.949346
14.520007
13.902159
13.462378
12.854301
12.405385
11.805843
11.34896
10.756848
10.293045
9.7073714
9.2375872
8.65746
8.182544
7.6071544
7.1278772
6.5564896
6.0735548
5.5054946
5.0195501
4.4541938
3.9658411
3.4026067
2.9124104
2.3507487
1.8592446
1.29863
0.80633158
0.24625162
26.520405
25.475577
25.19066
24.33953
24.08831
23.291779
23.016313
22.252668
21.949346
21.212997
20.884311
20.171945
19.820798
19.129571
18.758593
18.086003
17.697535
17.041366
16.637492
15.995778
15.57835
14.949344
14.520009
13.902157
13.46238
12.854299
12.405387
11.805841
11.348962
10.756847
10.293046
9.7073702
9.2375883
8.6574589
8.182545
7.6071535
7.1278781
6.5564887
6.0735557
5.5054937
5.0195509
4.454193
3.9658419
3.4026059
2.9124111
2.350748
1.8592454
1.2986292
0.80633224
0.24625158
26.51121
25.474369
25.190835
24.339533
24.088326
23.291775
23.016316
22.252664
21.949349
21.212994
20.884314
20.171942
19.820801
19.129569
18.758595
18.086
17.697537
17.041364
16.637494
15.995776
15.578352
14.949343
14.52001
13.902156
13.462381
12.854298
12.405388
11.80584
11.348963
10.756846
10.293047
9.7073693
9.2375891
8.6574581
8.1825458
7.6071527
7.1278788
6.556488
6.0735564
5.5054931
5.0195516
4.4541924
3.9658425
3.4026054
2.9124117
2.3507474
1.8592459
1.2986286
0.80633279
0.24625159
26.500751
25.47327
25.190929
24.33956
24.088346
23.291773
23.016319
22.25266
21.949352
21.212991
20.884316
20.17194
19.820803
19.129567
18.758597
18.085999
17.697539
17.041362
16.637496
15.995775
15.578353
14.949342
14.520011
13.902155
13.462382
12.854297
12.405389
11.805839
11.348964
10.756845
10.293048
9.7073686
9.2375899
8.6574574
8.1825464
7.6071521
7.1278795
6.5564874
6.0735569
5.5054925
5.0195521
4.4541918
3.965843
3.4026049
2.9124122
2.3507469
1.8592464
1.2986281
0.80633327
0.24625159
26.492634
25.472204
25.190889
24.339621
24.088371
23.291772
23.016322
22.252657
21.949354
21.212988
20.884318
20.171937
19.820805
19.129565
18.758599
18.085997
17.697541
17.041361
16.637497
15.995774
15.578355
14.94934
14.520013
13.902154
13.462383
12.854296
12.40539
11.805838
11.348964
10.756844
10.293048
9.7073679
9.2375905
8.6574568
8.182547
7.6071515
7.12788
6.5564869
6.0735574
5.5054921
5.0195526
4.4541914
3.9658434
3.4026044
2.9124126
2.3507465
1.8592468
1.2986277
0.80633371
0.24625158
26.482755
25.471159
25.190771
24.339676
24.088389
23.29177
23.016325
22.252655
21.949357
21.212986
20.88432
20.171936
19.820807
19.129563
18.758601
18.085995
17.697542
17.04136
16.637498
15.995773
15.578356
14.949339
14.520014
13.902153
13.462384
12.854295
12.40539
11.805838
11.348965
10.756844
10.293049
9.7073673
9.2375911
8.6574562
8.1825475
7.607151
7.1278805
6.5564864
6.0735579
5.5054916
5.019553
4.454191
3.9658438
3.402604
2.912413
2.3507461
1.8592472
1.2986273
0.80633413
0.24625156
26.475734
25.47023
25.190685
24.339651
24.088384
23.291763
23.016326
22.252652
21.949358
21.212984
20.884322
20.171934
19.820808
19.129562
18.758602
18.085994
17.697543
17.041358
16.637499
15.995772
15.578357
14.949338
14.520014
13.902152
13.462385
12.854294
12.405391
11.805837
11.348966
10.756843
10.293049
9.7073668
9.2375916
8.6574557
8.182548
7.6071506
7.1278809
6.556486
6.0735583
5.5054912
5.0195534
4.4541906
3.9658442
3.4026037
2.9124134
2.3507458
1.8592475
1.2986269
0.80633453
0.24625152
26.466869
25.468891
25.190729
24.33958
24.088362
23.291753
23.016326
22.252649
21.94936
21.212983
20.884324
20.171932
19.82081
19.12956
18.758603
18.085993
17.697544
17.041357
16.6375
15.995771
15.578357
14.949338
14.520015
13.902151
13.462386
12.854294
12.405392
11.805836
11.348966
10.756842
10.29305
9.7073663
9.2375921
8.6574553
8.1825484
7.6071501
7.1278813
6.5564856
6.0735587
5.5054909
5.0195537
4.4541903
3.9658445
3.4026034
2.9124137
2.3507454
1.8592478
1.2986265
0.8063349
0.24625147
26.460725
25.467688
25.190785
24.339535
24.088341
23.291744
23.016325
22.252647
21.949361
21.212981
20.884325
20.171931
19.820811
19.129559
18.758604
18.085992
17.697545
17.041356
16.637501
15.99577
15.578358
14.949337
14.520016
13.902151
13.462386
12.854293
12.405392
11.805836
11.348967
10.756842
10.29305
9.7073658
9.2375925
8.6574549
8.1825488
7.6071498
7.1278817
6.5564853
6.073559
5.5054906
5.019554
4.45419
3.9658448
3.4026031
2.912414
2.3507452
1.8592481
1.2986262
0.80633525
0.24625142
26.454012
25.46626
25.190653
24.339482
24.088315
23.291735
23.016324
22.252645
21.949362
21.21298
20.884326
20.17193
19.820812
19.129558
18.758606
18.085991
17.697546
17.041356
16.637502
15.995769
15.578359
14.949336
14.520017
13.90215
13.462387
12.854293
12.405393
11.805835
11.348967
10.756842
10.293051
9.7073654
9.2375929
8.6574545
8.1825492
7.6071494
7.127882
6.5564849
6.0735593
5.5054903
5.0195543
4.4541897
3.9658451
3.4026028
2.9124142
2.3507449
1.8592484
1.298626
0.80633559
0.24625136
26.44765
25.465268
25.190353
24.339395
24.088282
23.291724
23.016323
22.252642
21.949364
21.212978
20.884327
20.171929
19.820813
19.129557
18.758606
18.08599
17.697547
17.041355
16.637503
15.995768
15.57836
14.949336
14.520017
13.90215
13.462387
12.854292
12.405393
11.805835
11.348968
10.756841
10.293051
9.7073651
9.2375932
8.6574542
8.1825495
7.6071491
7.1278823
6.5564847
6.0735595
5.50549
5.0195546
4.4541895
3.9658453
3.4026026
2.9124145
2.3507447
1.8592486
1.2986257
0.8063359
0.2462513
26.442946
25.463922
25.189972
24.339304
24.088249
23.291713
23.016322
22.25264
21.949364
21.212977
20.884328
20.171928
19.820814
19.129556
18.758607
18.085989
17.697548
17.041354
16.637504
15.995768
15.57836
14.949335
14.520018
13.902149
13.462388
12.854292
12.405394
11.805835
11.348968
10.756841
10.293052
9.7073647
9.2375935
8.6574539
8.1825498
7.6071489
7.1278825
6.5564844
6.0735598
5.5054898
5.0195548
4.4541892
3.9658456
3.4026024
2.9124147
2.3507445
1.8592488
1.2986255
0.8063362
0.24625123
26.436351
25.462656
25.189547
24.339217
24.088215
23.2917
23.016319
22.252638
21.949365
21.212976
20.884329
20.171927
19.820815
19.129555
18.758608
18.085988
17.697549
17.041353
16.637504
15.995767
15.578361
14.949334
14.520018
13.902149
13.462388
12.854291
12.405394
11.805834
11.348968
10.75684
10.293052
9.7073644
9.2375938
8.6574536
8.18255
7.6071486
7.1278828
6.5564842
6.07356
5.5054896
5.019555
4.454189
3.9658458
3.4026022
2.9124149
2.3507443
1.859249
1.2986253
0.80633648
0.24625116
26.431867
25.46124
25.189102
24.339123
24.088181
23.291687
23.016316
22.252635
21.949366
21.212975
20.88433
20.171926
19.820816
19.129555
18.758609
18.085988
17.697549
17.041353
16.637505
15.995767
15.578361
14.949334
14.520019
13.902148
13.462389
12.854291
12.405395
11.805834
11.348969
10.75684
10.293052
9.7073641
9.2375941
8.6574533
8.1825503
7.6071484
7.127883
6.556484
6.0735602
5.5054894
5.0195552
4.4541888
3.9658459
3.402602
2.9124151
2.3507441
1.8592492
1.2986251
0.80633675
0.24625108
26.426596
25.459996
25.188695
24.339006
24.088139
23.291669
23.016311
22.252632
21.949366
21.212973
20.884331
20.171925
19.820817
19.129554
18.758609
18.085987
17.69755
17.041352
16.637505
15.995766
15.578362
14.949334
14.520019
13.902148
13.462389
12.85429
12.405395
11.805834
11.348969
10.75684
10.293052
9.7073639
9.2375943
8.6574531
8.1825505
7.6071482
7.1278832
6.5564838
6.0735604
5.5054892
5.0195554
4.4541886
3.9658461
3.4026018
2.9124152
2.3507439
1.8592493
1.2986249
0.80633701
0.24625101
26.423038
25.458684
25.18834
24.33887
24.088086
23.291647
23.016305
22.252628
21.949365
21.212972
20.884332
20.171924
19.820817
19.129553
18.75861
18.085987
17.69755
17.041352
16.637506
15.995766
15.578362
14.949333
14.520019
13.902147
13.462389
12.85429
12.405395
11.805833
11.348969
10.75684
10.293053
9.7073636
9.2375946
8.6574529
8.1825507
7.607148
7.1278834
6.5564836
6.0735606
5.505489
5.0195556
4.4541885
3.9658463
3.4026016
2.9124154
2.3507438
1.8592495
1.2986248
0.80633725
0.24625094
26.41875
25.457518
25.187999
24.338752
24.088034
23.291626
23.016298
22.252624
21.949365
21.212971
20.884332
20.171923
19.820818
19.129552
18.758611
18.085986
17.697551
17.041351
16.637506
15.995765
15.578363
14.949333
14.52002
13.902147
13.46239
12.85429
12.405395
11.805833
11.348969
10.756839
10.293053
9.7073634
9.2375948
8.6574527
8.1825509
7.6071478
7.1278836
6.5564834
6.0735608
5.5054888
5.0195557
4.4541883
3.9658464
3.4026015
2.9124155
2.3507436
1.8592496
1.2986246
0.80633748
0.24625086
26.415829
25.456373
25.187637
24.338659
24.087993
23.291611
23.016292
22.252621
21.949365
21.21297
20.884333
20.171923
19.820819
19.129552
18.758611
18.085985
17.697551
17.041351
16.637507
15.995765
15.578363
14.949332
14.52002
13.902147
13.46239
12.85429
12.405396
11.805833
11.34897
10.756839
10.293053
9.7073632
9.237595
8.6574525
8.1825511
7.6071476
7.1278837
6.5564832
6.0735609
5.5054887
5.0195558
4.4541882
3.9658466
3.4026014
2.9124157
2.3507435
1.8592497
1.2986245
0.80633769
0.24625079
26.412345
25.455365
25.187273
24.338572
24.087964
23.291603
23.01629
22.252618
21.949365
21.212969
20.884333
20.171922
19.820819
19.129551
18.758612
18.085985
17.697552
17.04135
16.637507
15.995764
15.578363
14.949332
14.52002
13.902146
13.46239
12.854289
12.405396
11.805832
11.34897
10.756839
10.293053
9.707363
9.2375952
8.6574523
8.1825512
7.6071474
7.1278839
6.5564831
6.0735611
5.5054885
5.019556
4.4541881
3.9658467
3.4026012
2.9124158
2.3507434
1.8592498
1.2986244
0.80633789
0.24625072
26.40995
25.454417
25.18693
24.33848
24.087942
23.291603
23.016289
22.252617
21.949365
21.212968
20.884333
20.171921
19.82082
19.129551
18.758612
18.085985
17.697552
17.04135
16.637507
15.995764
15.578364
14.949332
14.520021
13.902146
13.462391
12.854289
12.405396
11.805832
11.34897
10.756839
10.293054
9.7073629
9.2375953
8.6574522
8.1825514
7.6071473
7.127884
6.556483
6.0735612
5.5054884
5.0195561
4.4541879
3.9658468
3.4026011
2.9124159
2.3507433
1.85925
1.2986243
0.80633808
0.24625065
26.407134
25.453574
25.186615
24.338391
24.08792
23.291607
23.01629
22.252617
21.949365
21.212967
20.884334
20.171921
19.82082
19.12955
18.758613
18.085984
17.697553
17.04135
16.637508
15.995764
15.578364
14.949332
14.520021
13.902146
13.462391
12.854289
12.405396
11.805832
11.34897
10.756838
10.293054
9.7073627
9.2375955
8.657452
8.1825515
7.6071472
7.1278842
6.5564828
6.0735613
5.5054883
5.0195562
4.4541878
3.9658469
3.402601
2.912416
2.3507431
1.8592501
1.2986242
0.80633826
0.24625058
26.405168
25.452816
25.186332
24.338311
24.087896
23.291613
23.01629
22.252616
21.949366
21.212967
20.884334
20.17192
19.82082
19.12955
18.758613
18.085984
17.697553
17.041349
16.637508
15.995763
15.578364
14.949331
14.520021
13.902146
13.462391
12.854289
12.405397
11.805832
11.348971
10.756838
10.293054
9.7073625
9.2375956
8.6574519
8.1825517
7.607147
7.1278843
6.5564827
6.0735614
5.5054882
5.0195563
4.4541877
3.965847
3.4026009
2.9124161
2.3507431
1.8592501
1.2986241
0.80633843
0.24625051
26.402916
25.452129
25.186073
24.338242
24.087871
23.29162
23.016292
22.252616
21.949366
21.212966
20.884335
20.17192
19.820821
19.12955
18.758613
18.085983
17.697553
17.041349
16.637508
15.995763
15.578364
14.949331
14.520021
13.902145
13.462391
12.854288
12.405397
11.805832
11.348971
10.756838
10.293054
9.7073624
9.2375957
8.6574518
8.1825518
7.6071469
7.1278844
6.5564826
6.0735615
5.5054881
5.0195564
4.4541876
3.9658471
3.4026008
2.9124162
2.350743
1.8592502
1.298624
0.80633858
0.24625045
26.401248
25.451534
25.185845
24.338185
24.087847
23.291627
23.016294
22.252616
21.949367
21.212966
20.884335
20.171919
19.820821
19.129549
18.758614
18.085983
17.697553
17.041349
16.637509
15.995763
15.578365
14.949331
14.520022
13.902145
13.462391
12.854288
12.405397
11.805832
11.348971
10.756838
10.293054
9.7073623
9.2375959
8.6574516
8.1825519
7.6071468
7.1278845
6.5564825
6.0735616
5.505488
5.0195565
4.4541876
3.9658472
3.4026008
2.9124163
2.3507429
1.8592503
1.2986239
0.80633872
0.24625039
26.399483
25.450996
25.185639
24.338137
24.087825
23.291632
23.016296
22.252617
21.949368
21.212965
20.884335
20.171919
19.820821
19.129549
18.758614
18.085983
17.697554
17.041348
16.637509
15.995763
15.578365
14.949331
14.520022
13.902145
13.462392
12.854288
12.405397
11.805831
11.348971
10.756838
10.293054
9.7073622
9.237596
8.6574515
8.182552
7.6071467
7.1278846
6.5564824
6.0735617
5.5054879
5.0195566
4.4541875
3.9658473
3.4026007
2.9124163
2.3507428
1.8592504
1.2986239
0.80633885
0.24625034
26.398059
25.45054
25.185467
24.338098
24.087808
23.291635
23.016299
22.252619
21.949369
21.212965
20.884336
20.171918
19.820822
19.129549
18.758614
18.085983
17.697554
17.041348
16.637509
15.995763
15.578365
14.94933
14.520022
13.902145
13.462392
12.854288
12.405397
11.805831
11.348971
10.756838
10.293054
9.7073621
9.2375961
8.6574514
8.1825521
7.6071466
7.1278847
6.5564823
6.0735618
5.5054879
5.0195567
4.4541874
3.9658473
3.4026006
2.9124164
2.3507427
1.8592504
1.2986238
0.80633897
0.24625029
26.396719
25.450145
25.185317
24.338067
24.087794
23.291636
23.016301
22.252621
21.94937
21.212965
20.884336
20.171918
19.820822
19.129548
18.758614
18.085982
17.697554
17.041348
16.637509
15.995762
15.578365
14.94933
14.520022
13.902145
13.462392
12.854288
12.405397
11.805831
11.348971
10.756838
10.293054
9.707362
9.2375962
8.6574514
8.1825522
7.6071465
7.1278848
6.5564823
6.0735619
5.5054878
5.0195567
4.4541873
3.9658474
3.4026005
2.9124165
2.3507427
1.8592505
1.2986238
0.80633908
0.24625024
26.395535
25.449802
25.185201
24.338044
24.087785
23.291637
23.016302
22.252624
21.949371
21.212965
20.884336
20.171918
19.820822
19.129548
18.758615
18.085982
17.697554
17.041348
16.637509
15.995762
15.578365
14.94933
14.520022
13.902145
13.462392
12.854288
12.405397
11.805831
11.348971
10.756838
10.293055
9.7073619
9.2375962
8.6574513
8.1825523
7.6071465
7.1278848
6.5564822
6.0735619
5.5054877
5.0195568
4.4541873
3.9658475
3.4026005
2.9124165
2.3507426
1.8592505
1.2986237
0.80633917
0.2462502
26.394514
25.449535
25.185105
24.338028
24.087779
23.291638
23.016302
22.252627
21.949372
21.212965
20.884337
20.171918
19.820822
19.129548
18.758615
18.085982
17.697555
17.041348
16.63751
15.995762
15.578366
14.94933
14.520022
13.902145
13.462392
12.854288
12.405398
11.805831
11.348971
10.756837
10.293055
9.7073618
9.2375963
8.6574512
8.1825523
7.6071464
7.1278849
6.5564821
6.073562
5.5054877
5.0195568
4.4541872
3.9658475
3.4026004
2.9124166
2.3507426
1.8592506
1.2986237
0.80633925
0.24625016
26.393611
25.449287
25.185039
24.338018
24.087777
23.29164
23.016302
22.25263
21.949373
21.212965
20.884337
20.171917
19.820822
19.129547
18.758615
18.085982
17.697555
17.041347
16.63751
15.995762
15.578366
14.94933
14.520023
13.902144
13.462392
12.854287
12.405398
11.805831
11.348971
10.756837
10.293055
9.7073617
9.2375964
8.6574511
8.1825524
7.6071464
7.1278849
6.5564821
6.073562
5.5054876
5.0195569
4.4541872
3.9658475
3.4026004
2.9124166
2.3507425
1.8592506
1.2986236
0.80633931
0.24625013
26.392846
25.449122
25.184987
24.338015
24.087776
23.291643
23.016301
22.252633
21.949374
21.212965
20.884337
20.171917
19.820823
19.129547
18.758615
18.085982
17.697555
17.041347
16.63751
15.995762
15.578366
14.94933
14.520023
13.902144
13.462392
12.854287
12.405398
11.805831
11.348972
10.756837
10.293055
9.7073617
9.2375964
8.6574511
8.1825524
7.6071463
7.127885
6.5564821
6.0735621
5.5054876
5.0195569
4.4541871
3.9658476
3.4026004
2.9124166
2.3507425
1.8592506
1.2986236
0.80633936
0.24625011
26.392231
25.448948
25.184959
24.338015
24.087777
23.291646
23.0163
22.252636
21.949375
21.212965
20.884337
20.171917
19.820823
19.129547
18.758615
18.085981
17.697555
17.041347
16.63751
15.995762
15.578366
14.94933
14.520023
13.902144
13.462392
12.854287
12.405398
11.805831
11.348972
10.756837
10.293055
9.7073616
9.2375965
8.657451
8.1825525
7.6071463
7.127885
6.556482
6.0735621
5.5054875
5.019557
4.4541871
3.9658476
3.4026003
2.9124167
2.3507425
1.8592507
1.2986236
0.80633938
0.24625009
26.391704
25.448852
25.184936
24.338018
24.087778
23.291648
23.016299
22.252638
21.949376
21.212965
20.884338
20.171917
19.820823
19.129547
18.758615
18.085981
17.697555
17.041347
16.63751
15.995762
15.578366
14.94933
14.520023
13.902144
13.462392
12.854287
12.405398
11.805831
11.348972
10.756837
10.293055
9.7073616
9.2375965
8.657451
8.1825525
7.6071462
7.1278851
6.556482
6.0735621
5.5054875
5.019557
4.4541871
3.9658476
3.4026003
2.9124167
2.3507425
1.8592507
1.2986236
0.80633939
0.24625009
26.391356
25.448721
25.184928
24.338022
24.08778
23.291651
23.016298
22.25264
21.949378
21.212965
20.884338
20.171917
19.820823
19.129547
18.758615
18.085981
17.697555
17.041347
16.63751
15.995762
15.578366
14.94933
14.520023
13.902144
13.462392
12.854287
12.405398
11.805831
11.348972
10.756837
10.293055
9.7073616
9.2375966
8.657451
8.1825525
7.6071462
7.1278851
6.556482
6.0735622
5.5054875
5.019557
4.4541871
3.9658477
3.4026003
2.9124167
2.3507425
1.8592507
1.2986236
0.80633937
0.24625009
26.391067
25.448662
25.184917
24.338024
24.087782
23.291652
23.016298
22.25264
21.949379
21.212966
20.884338
20.171916
19.820823
19.129547
18.758615
18.085981
17.697555
17.041347
16.63751
15.995761
15.578366
14.94933
14.520023
13.902144
13.462393
12.854287
12.405398
11.805831
11.348972
10.756837
10.293055
9.7073615
9.2375966
8.657451
8.1825525
7.6071462
7.1278851
6.556482
6.0735622
5.5054875
5.019557
4.4541871
3.9658477
3.4026003
2.9124167
2.3507425
1.8592507
1.2986236
0.80633932
0.24625011
26.390971
25.448556
25.184914
24.338026
24.087783
23.291653
23.016298
22.25264
21.94938
21.212966
20.884338
20.171916
19.820823
19.129547
18.758615
18.085981
17.697555
17.041347
16.63751
15.995761
15.578366
14.949329
14.520023
13.902144
13.462393
12.854287
12.405398
11.805831
11.348972
10.756837
10.293055
9.7073615
9.2375966
8.657451
8.1825526
7.6071462
7.1278851
6.556482
6.0735622
5.5054875
5.019557
4.4541871
3.9658476
3.4026003
2.9124167
2.3507425
1.8592507
1.2986236
0.80633927
0.24625012
26.390878
25.448548
25.184905
24.338025
24.087784
23.291654
23.016297
22.252639
21.949381
21.212966
20.884338
20.171916
19.820823
19.129547
18.758615
18.085981
17.697555
17.041347
16.63751
15.995761
15.578366
14.949329
14.520023
13.902144
13.462393
12.854287
12.405398
11.805831
11.348972
10.756837
10.293055
9.7073615
9.2375966
8.657451
8.1825525
7.6071462
7.1278851
6.556482
6.0735622
5.5054875
5.019557
4.4541871
3.9658476
3.4026003
2.9124167
2.3507425
1.8592506
1.2986237
0.80633924
0.24625014
26.390918
25.448516
25.18491
24.338025
24.087784
23.291654
23.016297
22.252639
21.949381
21.212966
20.884338
20.171916
19.820823
19.129547
18.758615
18.085981
17.697555
17.041347
16.63751
15.995761
15.578366
14.949329
14.520023
13.902144
13.462393
12.854287
12.405398
11.805831
11.348972
10.756837
10.293055
9.7073615
9.2375966
8.657451
8.1825525
7.6071462
7.1278851
6.556482
6.0735622
5.5054875
5.019557
4.4541871
3.9658476
3.4026003
2.9124167
2.3507425
1.8592506
1.2986237
0.80633924
0.24625014
26.390914
25.448601
25.184913
24.338026
24.087783
23.291653
23.016298
22.25264
21.94938
21.212966
20.884338
20.171916
19.820823
19.129547
18.758615
18.085981
17.697555
17.041347
16.63751
15.995761
15.578366
14.949329
14.520023
13.902144
13.462393
12.854287
12.405398
11.805831
11.348972
10.756837
10.293055
9.7073615
9.2375966
8.657451
8.1825526
7.6071462
7.1278851
6.556482
6.0735622
5.5054875
5.019557
4.4541871
3.9658476
3.4026003
2.9124167
2.3507425
1.8592507
1.2986236
0.80633927
0.24625012
26.391085
25.448646
25.184925
24.338025
24.087782
23.291652
23.016298
22.25264
21.949379
21.212966
20.884338
20.171916
19.820823
19.129547
18.758615
18.085981
17.697555
17.041347
16.63751
15.995761
15.578366
14.94933
14.520023
13.902144
13.462393
12.854287
12.405398
11.805831
11.348972
10.756837
10.293055
9.7073615
9.2375966
8.657451
8.1825525
7.6071462
7.1278851
6.556482
6.0735622
5.5054875
5.019557
4.4541871
3.9658477
3.4026003
2.9124167
2.3507425
1.8592507
1.2986236
0.80633932
0.24625011
26.391284
25.448781
25.184931
24.338023
24.08778
23.291651
23.016298
22.25264
21.949378
21.212965
20.884338
20.171917
19.820823
19.129547
18.758615
18.085981
17.697555
17.041347
16.63751
15.995762
15.578366
14.94933
14.520023
13.902144
13.462392
12.854287
12.405398
11.805831
11.348972
10.756837
10.293055
9.7073616
9.2375966
8.657451
8.1825525
7.6071462
7.1278851
6.556482
6.0735622
5.5054875
5.019557
4.4541871
3.9658477
3.4026003
2.9124167
2.3507425
1.8592507
1.2986236
0.80633937
0.24625009
26.391694
25.448855
25.184948
24.338019
24.087779
23.291648
23.016299
22.252638
21.949376
21.212965
20.884338
20.171917
19.820823
19.129547
18.758615
18.085981
17.697555
17.041347
16.63751
15.995762
15.578366
14.94933
14.520023
13.902144
13.462392
12.854287
12.405398
11.805831
11.348972
10.756837
10.293055
9.7073616
9.2375965
8.657451
8.1825525
7.6071462
7.1278851
6.556482
6.0735621
5.5054875
5.019557
4.4541871
3.9658476
3.4026003
2.9124167
2.3507425
1.8592507
1.2986236
0.80633939
0.24625009
26.392151
25.449024
25.184965
24.338017
24.087777
23.291646
23.0163
22.252636
21.949375
21.212965
20.884337
20.171917
19.820823
19.129547
18.758615
18.085981
17.697555
17.041347
16.63751
15.995762
15.578366
14.94933
14.520023
13.902144
13.462392
12.854287
12.405398
11.805831
11.348972
10.756837
10.293055
9.7073616
9.2375965
8.657451
8.1825525
7.6071463
7.127885
6.556482
6.0735621
5.5054875
5.019557
4.4541871
3.9658476
3.4026003
2.9124167
2.3507425
1.8592507
1.2986236
0.80633938
0.24625009
26.3928
25.449146
25.185003
24.338017
24.087776
23.291643
23.016301
22.252633
21.949374
21.212965
20.884337
20.171917
19.820823
19.129547
18.758615
18.085982
17.697555
17.041347
16.63751
15.995762
15.578366
14.94933
14.520023
13.902144
13.462392
12.854287
12.405398
11.805831
11.348972
10.756837
10.293055
9.7073617
9.2375964
8.6574511
8.1825524
7.6071463
7.127885
6.5564821
6.0735621
5.5054876
5.0195569
4.4541871
3.9658476
3.4026004
2.9124166
2.3507425
1.8592506
1.2986236
0.80633936
0.24625011
26.393529
25.449378
25.185049
24.33802
24.087777
23.291641
23.016302
22.25263
21.949373
21.212965
20.884337
20.171917
19.820822
19.129547
18.758615
18.085982
17.697555
17.041347
16.63751
15.995762
15.578366
14.94933
14.520023
13.902144
13.462392
12.854287
12.405398
11.805831
11.348971
10.756837
10.293055
9.7073617
9.2375964
8.6574511
8.1825524
7.6071464
7.1278849
6.5564821
6.073562
5.5054876
5.0195569
4.4541872
3.9658475
3.4026004
2.9124166
2.3507425
1.8592506
1.2986236
0.80633931
0.24625013
26.394429
25.449582
25.185125
24.33803
24.08778
23.291639
23.016303
22.252627
21.949372
21.212965
20.884337
20.171918
19.820822
19.129548
18.758615
18.085982
17.697555
17.041348
16.63751
15.995762
15.578366
14.94933
14.520022
13.902145
13.462392
12.854288
12.405398
11.805831
11.348971
10.756837
10.293055
9.7073618
9.2375963
8.6574512
8.1825523
7.6071464
7.1278849
6.5564821
6.073562
5.5054877
5.0195568
4.4541872
3.9658475
3.4026004
2.9124166
2.3507426
1.8592506
1.2986237
0.80633925
0.24625016
26.395436
25.449903
25.185215
24.338046
24.087786
23.291638
23.016302
22.252624
21.949371
21.212965
20.884336
20.171918
19.820822
19.129548
18.758615
18.085982
17.697554
17.041348
16.637509
15.995762
15.578365
14.94933
14.520022
13.902145
13.462392
12.854288
12.405397
11.805831
11.348971
10.756838
10.293055
9.7073619
9.2375962
8.6574513
8.1825523
7.6071465
7.1278848
6.5564822
6.0735619
5.5054877
5.0195568
4.4541873
3.9658475
3.4026005
2.9124165
2.3507426
1.8592505
1.2986237
0.80633917
0.2462502
26.396627
25.450218
25.18534
24.338069
24.087795
23.291637
23.016301
22.252621
21.94937
21.212965
20.884336
20.171918
19.820822
19.129548
18.758614
18.085982
17.697554
17.041348
16.637509
15.995762
15.578365
14.94933
14.520022
13.902145
13.462392
12.854288
12.405397
11.805831
11.348971
10.756838
10.293054
9.707362
9.2375962
8.6574514
8.1825522
7.6071465
7.1278848
6.5564823
6.0735619
5.5054878
5.0195567
4.4541873
3.9658474
3.4026005
2.9124165
2.3507427
1.8592505
1.2986238
0.80633908
0.24625024
26.397881
25.450642
25.185482
24.3381
24.087808
23.291635
23.016299
22.252619
21.949369
21.212965
20.884336
20.171918
19.820822
19.129549
18.758614
18.085983
17.697554
17.041348
16.637509
15.995763
15.578365
14.94933
14.520022
13.902145
13.462392
12.854288
12.405397
11.805831
11.348971
10.756838
10.293054
9.7073621
9.2375961
8.6574514
8.1825521
7.6071466
7.1278847
6.5564823
6.0735618
5.5054879
5.0195567
4.4541874
3.9658473
3.4026006
2.9124164
2.3507427
1.8592504
1.2986238
0.80633897
0.24625029
26.399454
25.451093
25.185664
24.33814
24.087826
23.291633
23.016297
22.252617
21.949368
21.212965
20.884335
20.171919
19.820821
19.129549
18.758614
18.085983
17.697554
17.041348
16.637509
15.995763
15.578365
14.949331
14.520022
13.902145
13.462392
12.854288
12.405397
11.805831
11.348971
10.756838
10.293054
9.7073622
9.237596
8.6574515
8.182552
7.6071467
7.1278846
6.5564824
6.0735617
5.5054879
5.0195566
4.4541875
3.9658473
3.4026007
2.9124163
2.3507428
1.8592504
1.2986239
0.80633885
0.24625034
26.400947
25.451643
25.185864
24.338188
24.087848
23.291628
23.016294
22.252616
21.949367
21.212966
20.884335
20.171919
19.820821
19.129549
18.758614
18.085983
17.697553
17.041349
16.637509
15.995763
15.578365
14.949331
14.520022
13.902145
13.462391
12.854288
12.405397
11.805832
11.348971
10.756838
10.293054
9.7073623
9.2375959
8.6574516
8.1825519
7.6071468
7.1278845
6.5564825
6.0735616
5.505488
5.0195565
4.4541876
3.9658472
3.4026008
2.9124163
2.3507429
1.8592503
1.2986239
0.80633872
0.24625039
26.402974
25.452244
25.186102
24.338246
24.087873
23.291621
23.016292
22.252616
21.949366
21.212966
20.884335
20.17192
19.820821
19.12955
18.758613
18.085983
17.697553
17.041349
16.637508
15.995763
15.578364
14.949331
14.520021
13.902145
13.462391
12.854288
12.405397
11.805832
11.348971
10.756838
10.293054
9.7073624
9.2375957
8.6574518
8.1825518
7.6071469
7.1278844
6.5564826
6.0735615
5.5054881
5.0195564
4.4541876
3.9658471
3.4026008
2.9124162
2.350743
1.8592502
1.298624
0.80633858
0.24625045
26.404735
25.452946
25.186357
24.338315
24.087898
23.291614
23.016291
22.252616
21.949366
21.212967
20.884334
20.17192
19.82082
19.12955
18.758613
18.085984
17.697553
17.041349
16.637508
15.995763
15.578364
14.949331
14.520021
13.902146
13.462391
12.854289
12.405397
11.805832
11.348971
10.756838
10.293054
9.7073625
9.2375956
8.6574519
8.1825517
7.607147
7.1278843
6.5564827
6.0735614
5.5054882
5.0195563
4.4541877
3.965847
3.4026009
2.9124161
2.3507431
1.8592501
1.2986241
0.80633843
0.24625051
26.407279
25.4537
25.186648
24.338395
24.087922
23.291607
23.01629
22.252617
21.949365
21.212967
20.884334
20.171921
19.82082
19.12955
18.758613
18.085984
17.697553
17.04135
16.637508
15.995764
15.578364
14.949332
14.520021
13.902146
13.462391
12.854289
12.405396
11.805832
11.34897
10.756838
10.293054
9.7073627
9.2375955
8.657452
8.1825515
7.6071472
7.1278842
6.5564828
6.0735613
5.5054883
5.0195562
4.4541878
3.9658469
3.402601
2.912416
2.3507431
1.8592501
1.2986242
0.80633826
0.24625058
26.409415
25.454582
25.186962
24.338485
24.087944
23.291604
23.01629
22.252617
21.949365
21.212968
20.884333
20.171921
19.82082
19.129551
18.758612
18.085985
17.697552
17.04135
16.637507
15.995764
15.578364
14.949332
14.520021
13.902146
13.462391
12.854289
12.405396
11.805832
11.34897
10.756839
10.293054
9.7073629
9.2375953
8.6574522
8.1825514
7.6071473
7.127884
6.556483
6.0735612
5.5054884
5.0195561
4.4541879
3.9658468
3.4026011
2.9124159
2.3507433
1.85925
1.2986243
0.80633808
0.24625065
26.412597
25.455508
25.187313
24.338578
24.087966
23.291604
23.01629
22.252619
21.949365
21.212969
20.884333
20.171922
19.820819
19.129551
18.758612
18.085985
17.697552
17.04135
16.637507
15.995764
15.578363
14.949332
14.52002
13.902146
13.46239
12.854289
12.405396
11.805832
11.34897
10.756839