/*--------------------------------*- C++ -*----------------------------------*\
| =========                 |                                                 |
| \\      /  F ield         | OpenFOAM: The Open Source CFD Toolbox           |
|  \\    /   O peration     | Version:  2312                                  |
|   \\  /    A nd           | Website:  www.openfoam.com                      |
|    \\/     M anipulation  |                                                 |
\*---------------------------------------------------------------------------*/
FoamFile
{
    version     2.0;
    format      ascii;
    arch        "LSB;label=32;scalar=64";
    class       surfaceScalarField;
    location    "4";
    object      phi;
}
// * * * * * * * * * * * * * * * * * * * * * * * * * * * * * * * * * * * * * //

dimensions      [0 3 -1 0 0 0 0];

oriented        oriented;

internalField   nonuniform List<scalar> 
7870
(
1.018622e-10
2.3558878e-09
1.015501e-10
3.1209879e-13
9.4555346e-11
6.9947542e-12
9.3961571e-11
5.937773e-13
9.5089051e-11
-1.1274811e-12
9.3655398e-11
1.4336532e-12
9.4991167e-11
-1.3357688e-12
9.3710184e-11
1.2809827e-12
9.4919685e-11
-1.2095014e-12
9.3777749e-11
1.1419361e-12
9.4852285e-11
-1.074536e-12
9.3839684e-11
1.0126008e-12
9.4792675e-11
-9.5299142e-13
9.3894988e-11
8.9768694e-13
9.4740298e-11
-8.4530943e-13
9.3943923e-11
7.9637523e-13
9.4694223e-11
-7.5030054e-13
9.3987069e-11
7.0715446e-13
9.4653688e-11
-6.66619e-13
9.4025037e-11
6.2865113e-13
9.4618056e-11
-5.9301961e-13
9.4058391e-11
5.5966503e-13
9.4586782e-11
-5.2839048e-13
9.4087638e-11
4.9914414e-13
9.4559387e-11
-4.7174931e-13
9.4113221e-11
4.4616559e-13
9.4535454e-11
-4.2223292e-13
9.4135533e-11
3.9992114e-13
9.4514619e-11
-3.7908585e-13
9.4154914e-11
3.5970497e-13
9.4496563e-11
-3.4164935e-13
9.417166e-11
3.2490304e-13
9.4481012e-11
-3.0935166e-13
9.4186028e-11
2.9498376e-13
9.4467728e-11
-2.8169922e-13
9.4198238e-11
2.6948983e-13
9.4456507e-11
-2.5826919e-13
9.4208476e-11
2.4803131e-13
9.4447179e-11
-2.3870295e-13
9.4216899e-11
2.3027953e-13
9.44396e-11
-2.2270068e-13
9.4223638e-11
2.1596224e-13
9.4433653e-11
-2.1001569e-13
9.4228789e-11
2.0486471e-13
9.4429229e-11
-2.0044033e-13
9.4232422e-11
1.9680681e-13
9.4426507e-11
-1.9408453e-13
9.4236278e-11
1.9022873e-13
9.443237e-11
-1.9609197e-13
1.8247905e-13
2.7888295e-10
4.5347548e-09
2.924273e-10
-1.3232243e-11
2.744412e-10
2.4980851e-11
2.736833e-10
1.3516817e-12
2.7494259e-10
-2.3867762e-12
2.7288321e-10
3.4930385e-12
2.7477329e-10
-3.2258573e-12
2.7294133e-10
3.1129509e-12
2.7467958e-10
-2.9477616e-12
2.73036e-10
2.7855175e-12
2.7458242e-10
-2.6209486e-12
2.7312409e-10
2.4709226e-12
2.7449613e-10
-2.3250309e-12
2.7320346e-10
2.1903573e-12
2.7442061e-10
-2.0624576e-12
2.7327391e-10
1.9430734e-12
2.7435429e-10
-1.8306826e-12
2.7333609e-10
1.7253583e-12
2.7429598e-10
-1.6265129e-12
2.7339082e-10
1.5338153e-12
2.7424474e-10
-1.446935e-12
2.734389e-10
1.3654992e-12
2.7419975e-10
-1.2892421e-12
2.7348106e-10
1.217838e-12
2.7416035e-10
-1.1510386e-12
2.7351794e-10
1.0885782e-12
2.7412592e-10
-1.0302185e-12
2.735501e-10
9.7574734e-13
2.7409595e-10
-9.2493835e-13
2.7357803e-10
8.7762308e-13
2.7406997e-10
-8.3359063e-13
2.7360217e-10
7.9270727e-13
2.740476e-10
-7.547801e-13
2.7362288e-10
7.1970278e-13
2.7402848e-10
-6.8730229e-13
2.7364048e-10
6.5749377e-13
2.7401233e-10
-6.3012519e-13
2.7365523e-10
6.0512852e-13
2.7399891e-10
-5.8237337e-13
2.7366738e-10
5.6180461e-13
2.7398799e-10
-5.4331455e-13
2.736771e-10
5.2685647e-13
2.7397943e-10
-5.1234523e-13
2.7368453e-10
4.9976264e-13
2.7397303e-10
-4.8893414e-13
2.7368971e-10
4.8012691e-13
2.7396899e-10
-4.7336944e-13
2.7369595e-10
4.6327149e-13
2.7398395e-10
-4.8409032e-13
4.4361092e-13
4.501584e-10
6.5423464e-09
4.7660995e-10
-3.9683786e-11
4.4930795e-10
5.2282838e-11
4.4911833e-10
1.5413122e-12
4.4976616e-10
-3.0346142e-12
4.4786226e-10
5.3969457e-12
4.4960088e-10
-4.9644771e-12
4.4789476e-10
4.8190627e-12
4.4952843e-10
-4.5814323e-12
4.4798078e-10
4.3331738e-12
4.4943689e-10
-4.0770664e-12
4.4806233e-10
3.8454826e-12
4.4935501e-10
-3.6177019e-12
4.4813678e-10
3.4085845e-12
4.492837e-10
-3.2093837e-12
4.4820315e-10
3.0236287e-12
4.4922125e-10
-2.8487804e-12
4.4826181e-10
2.6847997e-12
4.4916637e-10
-2.5310793e-12
4.4831345e-10
2.3867348e-12
4.4911815e-10
-2.2516324e-12
4.4835883e-10
2.124823e-12
4.4907582e-10
-2.0062381e-12
4.4839861e-10
1.8950526e-12
4.4903874e-10
-1.7911706e-12
4.484334e-10
1.6939145e-12
4.4900634e-10
-1.6031528e-12
4.4846375e-10
1.5183386e-12
4.4897812e-10
-1.4393157e-12
4.484901e-10
1.3656447e-12
4.4895367e-10
-1.2971575e-12
4.4851288e-10
1.2335014e-12
4.489326e-10
-1.1745068e-12
4.4853241e-10
1.1198901e-12
4.489146e-10
-1.0694888e-12
4.4854902e-10
1.0230742e-12
4.4889939e-10
-9.8049686e-13
4.4856295e-10
9.4157199e-13
4.4888674e-10
-9.0616774e-13
4.4857441e-10
8.7413374e-13
4.4887646e-10
-8.4536035e-13
4.485836e-10
8.1972098e-13
4.4886838e-10
-7.9713175e-13
4.4859062e-10
7.7752488e-13
4.488623e-10
-7.6061136e-13
4.4859544e-10
7.4698868e-13
4.4885838e-10
-7.3630914e-13
4.4860243e-10
7.1921421e-13
4.4888136e-10
-7.6301492e-13
6.8791726e-13
6.1360044e-10
8.386496e-09
6.541635e-10
-8.0246842e-11
6.1956899e-10
8.6877349e-11
6.1984241e-10
1.2678949e-12
6.1995039e-10
-3.1426002e-12
6.1822596e-10
7.1213789e-12
6.1982005e-10
-6.5585651e-12
6.1824599e-10
6.3931176e-12
6.1977296e-10
-6.1083981e-12
6.1832471e-10
5.7814243e-12
6.1968749e-10
-5.4398527e-12
6.1839973e-10
5.1332387e-12
6.196102e-10
-4.8281671e-12
6.184691e-10
4.5496836e-12
6.1954327e-10
-4.2835514e-12
6.1853123e-10
4.0356719e-12
6.1948479e-10
-3.8023413e-12
6.185862e-10
3.5833815e-12
6.1943344e-10
-3.3783181e-12
6.1863463e-10
3.1855485e-12
6.1938833e-10
-3.0053341e-12
6.1867717e-10
2.8359809e-12
6.1934873e-10
-2.6777959e-12
6.1871447e-10
2.5293127e-12
6.1931403e-10
-2.3907338e-12
6.1874709e-10
2.2608571e-12
6.1928371e-10
-2.1397739e-12
6.1877554e-10
2.0265154e-12
6.1925731e-10
-1.9210866e-12
6.1880024e-10
1.8227102e-12
6.1923442e-10
-1.7313326e-12
6.1882159e-10
1.6463299e-12
6.1921469e-10
-1.5676127e-12
6.188399e-10
1.4946799e-12
6.1919784e-10
-1.4274242e-12
6.1885547e-10
1.3654419e-12
6.191836e-10
-1.3086216e-12
6.1886853e-10
1.2566373e-12
6.1917175e-10
-1.2093837e-12
6.1887929e-10
1.166596e-12
6.1916211e-10
-1.1281848e-12
6.188879e-10
1.0939273e-12
6.1915453e-10
-1.0637602e-12
6.1889451e-10
1.0375521e-12
6.1914878e-10
-1.0148848e-12
6.1889896e-10
9.9681068e-13
6.191449e-10
-9.8224962e-13
6.1890629e-10
9.5782207e-13
6.1917397e-10
-1.0306926e-12
9.1570931e-13
7.743405e-10
1.0069905e-08
8.2558964e-10
-1.3149598e-10
7.8515163e-10
1.2731535e-10
7.8584732e-10
5.7220641e-13
7.8549477e-10
-2.7900463e-12
7.8397492e-10
8.6412293e-12
7.8543062e-10
-8.014272e-12
7.8399457e-10
7.8291694e-12
7.8541286e-10
-7.5266833e-12
7.8406735e-10
7.1269286e-12
7.8533396e-10
-6.7064579e-12
7.841359e-10
6.3312926e-12
7.8526149e-10
-5.9537602e-12
7.8420007e-10
5.6111053e-12
7.851991e-10
-5.2825791e-12
7.8425782e-10
4.9769553e-12
7.8514473e-10
-4.6892518e-12
7.8430899e-10
4.4191153e-12
7.8509703e-10
-4.1663548e-12
7.8435409e-10
3.9284934e-12
7.8505513e-10
-3.7063766e-12
7.843937e-10
3.4974074e-12
7.8501834e-10
-3.3024376e-12
7.8442843e-10
3.1192262e-12
7.8498611e-10
-2.9484132e-12
7.844588e-10
2.7881658e-12
7.8495794e-10
-2.63891e-12
7.8448528e-10
2.4991711e-12
7.849334e-10
-2.3692049e-12
7.8450828e-10
2.2478301e-12
7.8491213e-10
-2.1351791e-12
7.8452815e-10
2.0303056e-12
7.848938e-10
-1.9332569e-12
7.845452e-10
1.8432742e-12
7.8487813e-10
-1.7603507e-12
7.8455969e-10
1.6838761e-12
7.8486489e-10
-1.6138133e-12
7.8457185e-10
1.5496701e-12
7.8485387e-10
-1.4913966e-12
7.8458187e-10
1.4385936e-12
7.848449e-10
-1.3912152e-12
7.845899e-10
1.3489251e-12
7.8483784e-10
-1.311701e-12
7.8459606e-10
1.2793316e-12
7.8483244e-10
-1.2512627e-12
7.8460014e-10
1.2291064e-12
7.8482858e-10
-1.210687e-12
7.8460754e-10
1.1788606e-12
7.8486215e-10
-1.2853006e-12
1.1259088e-12
9.2593439e-10
1.1601721e-08
9.896764e-10
-1.9523798e-10
9.460831e-10
1.7090864e-10
9.4711684e-10
-4.6152291e-13
9.463973e-10
-2.0705087e-12
9.4511035e-10
9.9281748e-12
9.4643388e-10
-9.3377986e-12
9.4514034e-10
9.1227059e-12
9.4644862e-10
-8.8349627e-12
9.4520843e-10
8.3671124e-12
9.463767e-10
-7.8747202e-12
9.4527059e-10
7.4374027e-12
9.4630925e-10
-6.9924261e-12
9.4532947e-10
6.5908849e-12
9.4625152e-10
-6.2046266e-12
9.4538273e-10
5.8457487e-12
9.4620135e-10
-5.5078785e-12
9.4543e-10
5.1904705e-12
9.4615738e-10
-4.8937408e-12
9.4547167e-10
4.6142124e-12
9.4611876e-10
-4.353474e-12
9.4550827e-10
4.1078973e-12
9.4608486e-10
-3.8790208e-12
9.4554036e-10
3.6637209e-12
9.4605514e-10
-3.4631928e-12
9.4556842e-10
3.2748859e-12
9.4602917e-10
-3.0996558e-12
9.4559288e-10
2.9354539e-12
9.4600654e-10
-2.7828624e-12
9.4561413e-10
2.640243e-12
9.4598692e-10
-2.5079743e-12
9.4563248e-10
2.3847461e-12
9.4597002e-10
-2.2707909e-12
9.4564823e-10
2.1650596e-12
9.4595557e-10
-2.0676845e-12
9.4566162e-10
1.9778235e-12
9.4594335e-10
-1.8955443e-12
9.4567285e-10
1.8201689e-12
9.4593318e-10
-1.7517271e-12
9.4568211e-10
1.6896696e-12
9.459249e-10
-1.6340136e-12
9.4568953e-10
1.5842957e-12
9.4591838e-10
-1.5405518e-12
9.4569524e-10
1.5024757e-12
9.4591335e-10
-1.4693766e-12
9.4569895e-10
1.4435118e-12
9.4590952e-10
-1.4212595e-12
9.457062e-10
1.3821804e-12
9.459462e-10
-1.5252952e-12
1.3175927e-12
1.0744267e-09
1.2985044e-08
1.1482607e-09
-2.6907203e-10
1.1023968e-09
2.1677261e-10
1.1036092e-09
-1.6739707e-12
1.1026532e-09
-1.1144617e-12
1.1016332e-09
1.0948176e-11
1.102831e-09
-1.0535649e-11
1.1016831e-09
1.0270634e-11
1.1028807e-09
-1.0032578e-11
1.1017476e-09
9.5002411e-12
1.1028161e-09
-8.9432163e-12
1.1018034e-09
8.4500309e-12
1.1027538e-09
-7.9427741e-12
1.101857e-09
7.4876826e-12
1.1027008e-09
-7.0484421e-12
1.1019057e-09
6.6408749e-12
1.1026549e-09
-6.2571082e-12
1.101949e-09
5.8964062e-12
1.1026147e-09
-5.5594877e-12
1.1019872e-09
5.2417818e-12
1.1025794e-09
-4.9457489e-12
1.1020207e-09
4.6666293e-12
1.1025484e-09
-4.4067655e-12
1.1020501e-09
4.162066e-12
1.1025213e-09
-3.9343781e-12
1.1020758e-09
3.7203658e-12
1.1024975e-09
-3.5213924e-12
1.1020982e-09
3.3347822e-12
1.1024769e-09
-3.1615064e-12
1.1021177e-09
2.9994284e-12
1.1024589e-09
-2.8492233e-12
1.1021345e-09
2.7091848e-12
1.1024435e-09
-2.5797704e-12
1.1021489e-09
2.4596162e-12
1.1024302e-09
-2.3490254e-12
1.1021612e-09
2.2469049e-12
1.1024191e-09
-2.1534528e-12
1.1021715e-09
2.0677899e-12
1.1024098e-09
-1.9900466e-12
1.1021799e-09
1.9195109e-12
1.1024022e-09
-1.8562799e-12
1.1021867e-09
1.7997526e-12
1.1023962e-09
-1.7500375e-12
1.102192e-09
1.7067207e-12
1.1023916e-09
-1.668978e-12
1.1021953e-09
1.6397788e-12
1.1023878e-09
-1.613735e-12
1.1022023e-09
1.5677109e-12
1.1024264e-09
-1.7493956e-12
1.4902804e-12
1.2181598e-09
1.4224635e-08
1.2994642e-09
-3.503764e-10
1.25407e-09
2.6216681e-10
1.2552908e-09
-2.894731e-12
1.2542529e-09
-7.662948e-14
1.2535453e-09
1.1655842e-11
1.254624e-09
-1.1614405e-11
1.253623e-09
1.1271635e-11
1.2547096e-09
-1.1119215e-11
1.2536845e-09
1.05254e-11
1.2546524e-09
-9.9111405e-12
1.2537342e-09
9.3682682e-12
1.2545954e-09
-8.803996e-12
1.2537824e-09
8.3007084e-12
1.2545472e-09
-7.8132908e-12
1.2538264e-09
7.3616432e-12
1.2545056e-09
-6.9362854e-12
1.2538657e-09
6.5363117e-12
1.2544692e-09
-6.1630129e-12
1.2539004e-09
5.8106594e-12
1.2544373e-09
-5.4826834e-12
1.2539308e-09
5.1731212e-12
1.2544093e-09
-4.885211e-12
1.2539575e-09
4.6138315e-12
1.2543847e-09
-4.3615589e-12
1.2539808e-09
4.1242219e-12
1.2543632e-09
-3.9037538e-12
1.2540011e-09
3.6968129e-12
1.2543444e-09
-3.5048097e-12
1.2540188e-09
3.3250793e-12
1.2543282e-09
-3.1586331e-12
1.254034e-09
3.0033458e-12
1.2543142e-09
-2.8599324e-12
1.2540471e-09
2.7266958e-12
1.2543022e-09
-2.6041367e-12
1.2540582e-09
2.4908963e-12
1.2542921e-09
-2.3873246e-12
1.2540676e-09
2.2923302e-12
1.2542837e-09
-2.2061608e-12
1.2540753e-09
2.1279332e-12
1.2542768e-09
-2.0578375e-12
1.2540815e-09
1.9951278e-12
1.2542714e-09
-1.9399974e-12
1.2540862e-09
1.8919131e-12
1.2542672e-09
-1.8499258e-12
1.2540892e-09
1.8177633e-12
1.2542634e-09
-1.7879939e-12
1.2540957e-09
1.7354534e-12
1.2543029e-09
-1.9565517e-12
1.6438311e-12
1.3539436e-09
1.5328441e-08
1.4454865e-09
-4.4191923e-10
1.4011858e-09
3.0646753e-10
1.4021416e-09
-3.8505648e-12
1.4011922e-09
8.7271727e-13
1.4008487e-09
1.1999395e-11
1.4018148e-09
-1.258051e-11
1.4009606e-09
1.2125854e-11
1.4019361e-09
-1.2094717e-11
1.401019e-09
1.1442474e-11
1.401886e-09
-1.0778177e-11
1.4010625e-09
1.0191776e-11
1.4018343e-09
-9.5757824e-12
1.4011054e-09
9.0296572e-12
1.401791e-09
-8.4988884e-12
1.4011448e-09
8.0077888e-12
1.4017537e-09
-7.5451549e-12
1.40118e-09
7.1099533e-12
1.4017211e-09
-6.7040887e-12
1.4012111e-09
6.3206373e-12
1.4016925e-09
-5.9640745e-12
1.4012385e-09
5.6271872e-12
1.4016674e-09
-5.3141765e-12
1.4012624e-09
5.0188516e-12
1.4016454e-09
-4.744574e-12
1.4012833e-09
4.4863056e-12
1.4016262e-09
-4.2465959e-12
1.4013016e-09
4.0214129e-12
1.4016094e-09
-3.8126438e-12
1.4013174e-09
3.6170761e-12
1.4015949e-09
-3.4360886e-12
1.4013311e-09
3.267122e-12
1.4015823e-09
-3.1111737e-12
1.4013428e-09
2.9662023e-12
1.4015716e-09
-2.8329256e-12
1.4013528e-09
2.7097111e-12
1.4015626e-09
-2.5970766e-12
1.4013612e-09
2.4937119e-12
1.401555e-09
-2.3999951e-12
1.4013681e-09
2.3148665e-12
1.4015489e-09
-2.2386198e-12
1.4013736e-09
2.1703595e-12
1.401544e-09
-2.1103731e-12
1.4013779e-09
2.057999e-12
1.4015402e-09
-2.0121752e-12
1.4013805e-09
1.9774146e-12
1.4015365e-09
-1.9440155e-12
1.4013865e-09
1.885475e-12
1.4015759e-09
-2.1459192e-12
1.7783391e-12
1.4916096e-09
1.6294581e-08
1.5842417e-09
-5.3455134e-10
1.5436238e-09
3.4708547e-10
1.5442434e-09
-4.4701752e-12
1.5434863e-09
1.6298475e-12
1.5435439e-09
1.1941794e-11
1.5444037e-09
-1.3440317e-11
1.5436954e-09
1.2834112e-11
1.5445602e-09
-1.2959515e-11
1.5437508e-09
1.2251844e-11
1.5445172e-09
-1.1544529e-11
1.5437883e-09
1.0920697e-11
1.5444708e-09
-1.0258281e-11
1.5438258e-09
9.674654e-12
1.5444322e-09
-9.1053563e-12
1.5438606e-09
8.579428e-12
1.5443993e-09
-8.0838203e-12
1.5438918e-09
7.6174352e-12
1.5443705e-09
-7.1828055e-12
1.5439193e-09
6.7718072e-12
1.5443453e-09
-6.3900019e-12
1.5439435e-09
6.0289078e-12
1.5443231e-09
-5.6937323e-12
1.5439647e-09
5.3771969e-12
1.5443037e-09
-5.0834857e-12
1.5439833e-09
4.8066793e-12
1.5442867e-09
-4.5499745e-12
1.5439994e-09
4.3086377e-12
1.5442719e-09
-4.0850584e-12
1.5440135e-09
3.8754683e-12
1.544259e-09
-3.6816347e-12
1.5440256e-09
3.500558e-12
1.5442479e-09
-3.3335351e-12
1.544036e-09
3.1781759e-12
1.5442385e-09
-3.0354297e-12
1.5440448e-09
2.9033866e-12
1.5442305e-09
-2.782744e-12
1.5440522e-09
2.6719702e-12
1.5442238e-09
-2.5715832e-12
1.5440583e-09
2.4803451e-12
1.5442183e-09
-2.3986602e-12
1.5440632e-09
2.3254821e-12
1.5442141e-09
-2.2611994e-12
1.544067e-09
2.205015e-12
1.5442106e-09
-2.1557687e-12
1.5440693e-09
2.1187677e-12
1.5442071e-09
-2.081868e-12
1.5440747e-09
2.0179049e-12
1.5442456e-09
-2.3168413e-12
1.8940787e-12
1.6146656e-09
1.7137666e-08
1.7177755e-09
-6.376612e-10
1.6813385e-09
3.8352245e-10
1.6817715e-09
-4.9031935e-12
1.6812151e-09
2.1862764e-12
1.6816428e-09
1.151408e-11
1.682394e-09
-1.4191552e-11
1.681828e-09
1.3400175e-11
1.6825825e-09
-1.3714033e-11
1.6818798e-09
1.2954501e-11
1.6825461e-09
-1.2210829e-11
1.6819112e-09
1.1555622e-11
1.682505e-09
-1.085205e-11
1.6819434e-09
1.0236214e-11
1.6824712e-09
-9.6331807e-12
1.6819736e-09
9.0770218e-12
1.6824425e-09
-8.5527093e-12
1.6820008e-09
8.0591666e-12
1.6824175e-09
-7.5995416e-12
1.6820248e-09
7.1645317e-12
1.6823956e-09
-6.7608009e-12
1.6820459e-09
6.3786045e-12
1.6823764e-09
-6.0241763e-12
1.6820644e-09
5.6891527e-12
1.6823595e-09
-5.3785591e-12
1.6820806e-09
5.0855968e-12
1.6823447e-09
-4.8141261e-12
1.6820946e-09
4.5587136e-12
1.6823318e-09
-4.3222651e-12
1.6821068e-09
4.1004586e-12
1.6823207e-09
-3.8954615e-12
1.6821174e-09
3.7038358e-12
1.682311e-09
-3.5271883e-12
1.6821264e-09
3.3627815e-12
1.6823028e-09
-3.2118049e-12
1.6821341e-09
3.072073e-12
1.6822959e-09
-2.9444697e-12
1.6821406e-09
2.8272433e-12
1.6822901e-09
-2.7210576e-12
1.6821459e-09
2.6244975e-12
1.6822853e-09
-2.5380831e-12
1.6821502e-09
2.4606178e-12
1.6822816e-09
-2.3925957e-12
1.6821535e-09
2.33308e-12
1.6822786e-09
-2.2808286e-12
1.6821554e-09
2.2419351e-12
1.6822752e-09
-2.201699e-12
1.6821602e-09
2.1329306e-12
1.6823122e-09
-2.4688315e-12
1.9914696e-12
1.7477749e-09
1.7847641e-08
1.844728e-09
-7.3461432e-10
1.8142355e-09
4.1401496e-10
1.8147286e-09
-5.3963747e-12
1.8144012e-09
2.5137585e-12
1.8151473e-09
1.0767936e-11
1.8157869e-09
-1.4831178e-11
1.8153583e-09
1.3828799e-11
1.8160032e-09
-1.4358912e-11
1.8154058e-09
1.3551924e-11
1.815973e-09
-1.2778098e-11
1.8154311e-09
1.2097541e-11
1.8159371e-09
-1.1358015e-11
1.8154581e-09
1.0715205e-11
1.8159081e-09
-1.0083178e-11
1.8154838e-09
9.5013417e-12
1.8158836e-09
-8.9525429e-12
1.8155069e-09
8.4358323e-12
1.8158623e-09
-7.9549352e-12
1.8155274e-09
7.4994181e-12
1.8158437e-09
-7.0770376e-12
1.8155455e-09
6.6768161e-12
1.8158273e-09
-6.3060117e-12
1.8155613e-09
5.9551979e-12
1.8158129e-09
-5.6302424e-12
1.815575e-09
5.3234845e-12
1.8158004e-09
-5.0394504e-12
1.8155871e-09
4.7720212e-12
1.8157894e-09
-4.5246219e-12
1.8155975e-09
4.292388e-12
1.8157799e-09
-4.0778904e-12
1.8156065e-09
3.8772622e-12
1.8157717e-09
-3.6924232e-12
1.8156142e-09
3.5202964e-12
1.8157647e-09
-3.3623145e-12
1.8156208e-09
3.2160225e-12
1.8157588e-09
-3.0824941e-12
1.8156263e-09
2.9597626e-12
1.8157539e-09
-2.84864e-12
1.8156308e-09
2.7475385e-12
1.8157498e-09
-2.6570957e-12
1.8156345e-09
2.5759687e-12
1.8157466e-09
-2.5047588e-12
1.8156373e-09
2.4423878e-12
1.8157441e-09
-2.3875496e-12
1.8156389e-09
2.3471008e-12
1.8157409e-09
-2.3037273e-12
1.8156431e-09
2.2307944e-12
1.8157758e-09
-2.6015593e-12
2.0710484e-12
1.8595723e-09
1.8445819e-08
1.966816e-09
-8.4185803e-10
1.9424544e-09
4.3837663e-10
1.9430816e-09
-6.0236042e-12
1.9430405e-09
2.5548128e-12
1.9440579e-09
9.7505864e-12
1.9445827e-09
-1.5355946e-11
1.9442868e-09
1.4124649e-11
1.9448228e-09
-1.4894921e-11
1.9443286e-09
1.404611e-11
1.9447982e-09
-1.3247646e-11
1.9443479e-09
1.2547842e-11
1.9447673e-09
-1.1777417e-11
1.9443697e-09
1.1112817e-11
1.9447429e-09
-1.0456459e-11
1.9443908e-09
9.8534405e-12
1.9447226e-09
-9.2843043e-12
1.9444101e-09
8.748365e-12
1.944705e-09
-8.249858e-12
1.9444271e-09
7.7772936e-12
1.9446896e-09
-7.3394862e-12
1.9444421e-09
6.9242772e-12
1.944676e-09
-6.5399268e-12
1.9444552e-09
6.1759857e-12
1.9446641e-09
-5.8391486e-12
1.9444667e-09
5.5209245e-12
1.9446538e-09
-5.2264949e-12
1.9444767e-09
4.9490806e-12
1.9446447e-09
-4.6926185e-12
1.9444854e-09
4.4517224e-12
1.9446368e-09
-4.2293614e-12
1.9444928e-09
4.0212564e-12
1.94463e-09
-3.8296368e-12
1.9444992e-09
3.6510994e-12
1.9446242e-09
-3.4873183e-12
1.9445047e-09
3.3355799e-12
1.9446193e-09
-3.197146e-12
1.9445093e-09
3.069844e-12
1.9446153e-09
-2.9546334e-12
1.944513e-09
2.8497606e-12
1.9446119e-09
-2.7559802e-12
1.9445161e-09
2.6718091e-12
1.9446093e-09
-2.5979554e-12
1.9445185e-09
2.5332003e-12
1.9446071e-09
-2.476192e-12
1.9445197e-09
2.4345131e-12
1.9446042e-09
-2.3882349e-12
1.9445232e-09
2.3117883e-12
1.9446365e-09
-2.7148361e-12
2.133443e-12
1.9868938e-09
1.8916675e-08
2.0833793e-09
-9.3834346e-10
2.0659869e-09
4.5576904e-10
2.0668742e-09
-6.9108847e-12
2.0671347e-09
2.2942685e-12
2.0683788e-09
8.5065217e-12
2.068782e-09
-1.5759162e-11
2.0686135e-09
1.4293166e-11
2.0690415e-09
-1.5322981e-11
2.0686482e-09
1.4439397e-11
2.0690217e-09
-1.362113e-11
2.0686613e-09
1.2908218e-11
2.0689957e-09
-1.21118e-11
2.068678e-09
1.1430522e-11
2.068976e-09
-1.0754397e-11
2.0686948e-09
1.013462e-11
2.0689597e-09
-9.5492128e-12
2.0687101e-09
8.9979195e-12
2.0689457e-09
-8.4853916e-12
2.0687238e-09
7.9991827e-12
2.0689334e-09
-7.549107e-12
2.0687358e-09
7.1218977e-12
2.0689226e-09
-6.7267758e-12
2.0687463e-09
6.3523258e-12
2.0689132e-09
-6.0060388e-12
2.0687555e-09
5.6786384e-12
2.0689049e-09
-5.375939e-12
2.0687634e-09
5.0905367e-12
2.0688977e-09
-4.8268636e-12
2.0687704e-09
4.5790399e-12
2.0688914e-09
-4.3504212e-12
2.0687763e-09
4.1363384e-12
2.068886e-09
-3.9393221e-12
2.0687815e-09
3.7556609e-12
2.0688814e-09
-3.5872638e-12
2.0687858e-09
3.4311728e-12
2.0688775e-09
-3.2888338e-12
2.0687895e-09
3.1578796e-12
2.0688743e-09
-3.0394138e-12
2.0687925e-09
2.9315265e-12
2.0688716e-09
-2.8350866e-12
2.0687949e-09
2.7484787e-12
2.0688695e-09
-2.6725157e-12
2.0687968e-09
2.6058409e-12
2.0688677e-09
-2.5470756e-12
2.0687978e-09
2.5044787e-12
2.0688651e-09
-2.4555603e-12
2.0688006e-09
2.3762509e-12
2.0688944e-09
-2.8086023e-12
2.1793508e-12
2.0919442e-09
1.928248e-08
2.1952327e-09
-1.041632e-09
2.1849094e-09
4.6609235e-10
2.1861171e-09
-8.1185339e-12
2.1866745e-09
1.7368816e-12
2.1881095e-09
7.0714619e-12
2.1883839e-09
-1.6033563e-11
2.1883377e-09
1.4339358e-11
2.1886593e-09
-1.5644534e-11
2.1883644e-09
1.4734336e-11
2.1886438e-09
-1.3900534e-11
2.1883713e-09
1.3180638e-11
2.1886225e-09
-1.2362977e-11
2.188383e-09
1.1670044e-11
2.1886072e-09
-1.0978607e-11
2.1883954e-09
1.0346408e-11
2.1885949e-09
-9.7486987e-12
2.188407e-09
9.1858489e-12
2.1885844e-09
-8.6628049e-12
2.1884173e-09
8.1662863e-12
2.1885752e-09
-7.7070274e-12
2.1884264e-09
7.2707447e-12
2.1885671e-09
-6.8675614e-12
2.1884343e-09
6.4851677e-12
2.1885601e-09
-6.1318065e-12
2.1884412e-09
5.7974732e-12
2.1885539e-09
-5.4885809e-12
2.1884473e-09
5.1971463e-12
2.1885485e-09
-4.9280715e-12
2.1884525e-09
4.675019e-12
2.1885438e-09
-4.4417118e-12
2.188457e-09
4.2231192e-12
2.1885397e-09
-4.0220586e-12
2.1884609e-09
3.8345333e-12
2.1885363e-09
-3.6626764e-12
2.1884641e-09
3.503304e-12
2.1885334e-09
-3.3580376e-12
2.1884669e-09
3.2243302e-12
2.1885309e-09
-3.1034232e-12
2.1884692e-09
2.9932623e-12
2.1885289e-09
-2.8948259e-12
2.188471e-09
2.8063764e-12
2.1885273e-09
-2.7288267e-12
2.1884725e-09
2.6606885e-12
2.188526e-09
-2.6005733e-12
2.1884731e-09
2.5573576e-12
2.1885236e-09
-2.5060925e-12
2.1884753e-09
2.4245627e-12
2.1885496e-09
-2.8829152e-12
2.2095198e-12
2.2125862e-09
1.9527644e-08
2.3025846e-09
-1.1316304e-09
2.2993472e-09
4.693298e-10
2.30085e-09
-9.6213646e-12
2.3016459e-09
9.4100489e-13
2.3032518e-09
5.4655776e-12
2.3033893e-09
-1.6171065e-11
2.3034598e-09
1.4268792e-11
2.3036764e-09
-1.5861103e-11
2.3034769e-09
1.4933816e-11
2.3036645e-09
-1.4088084e-11
2.3034778e-09
1.3367332e-11
2.3036478e-09
-1.2532994e-11
2.3034845e-09
1.1833333e-11
2.3036368e-09
-1.1130912e-11
2.3034927e-09
1.0490528e-11
2.3036284e-09
-9.8843799e-12
2.3035005e-09
9.3136833e-12
2.3036213e-09
-8.783534e-12
2.3035076e-09
8.2799624e-12
2.3036151e-09
-7.8145232e-12
2.3035138e-09
7.3720251e-12
2.3036097e-09
-6.9634189e-12
2.3035192e-09
6.5755857e-12
2.3036049e-09
-6.2174636e-12
2.303524e-09
5.8783869e-12
2.3036007e-09
-5.5653242e-12
2.3035281e-09
5.2697663e-12
2.3035971e-09
-4.9970519e-12
2.3035317e-09
4.7404283e-12
2.3035939e-09
-4.5039607e-12
2.3035348e-09
4.2822905e-12
2.3035912e-09
-4.0785029e-12
2.3035374e-09
3.8883424e-12
2.3035889e-09
-3.714152e-12
2.3035396e-09
3.5525429e-12
2.3035869e-09
-3.4053015e-12
2.3035415e-09
3.2697177e-12
2.3035852e-09
-3.1471625e-12
2.3035431e-09
3.0354509e-12
2.3035839e-09
-2.935664e-12
2.3035443e-09
2.8459538e-12
2.3035828e-09
-2.7673271e-12
2.3035453e-09
2.6981717e-12
2.3035819e-09
-2.6371066e-12
2.3035457e-09
2.5935571e-12
2.3035798e-09
-2.5402647e-12
2.3035473e-09
2.4571428e-12
2.3036023e-09
-2.9379381e-12
2.2247327e-12
2.3155045e-09
1.966989e-08
2.4056651e-09
-1.221791e-09
2.4093321e-09
4.6566285e-10
2.4111229e-09
-1.1412217e-11
2.4120426e-09
2.1332332e-14
2.4138064e-09
3.7018242e-12
2.4137976e-09
-1.616232e-11
2.4139793e-09
1.4087094e-11
2.4140928e-09
-1.5974566e-11
2.4139857e-09
1.5040892e-11
2.4140839e-09
-1.4186281e-11
2.4139805e-09
1.3470735e-11
2.4140716e-09
-1.2624117e-11
2.4139824e-09
1.1922535e-11
2.4140648e-09
-1.1213324e-11
2.4139865e-09
1.0568884e-11
2.4140601e-09
-9.9580415e-12
2.4139907e-09
9.3831092e-12
2.4140563e-09
-8.8491632e-12
2.4139946e-09
8.3417085e-12
2.4140531e-09
-7.8730024e-12
2.413998e-09
7.4270702e-12
2.4140502e-09
-7.0156013e-12
2.414001e-09
6.6247653e-12
2.4140477e-09
-6.2641271e-12
2.4140037e-09
5.9224369e-12
2.4140455e-09
-5.6071669e-12
2.4140059e-09
5.3093422e-12
2.4140436e-09
-5.0346987e-12
2.4140079e-09
4.7761161e-12
2.4140419e-09
-4.5379714e-12
2.4140096e-09
4.3146163e-12
2.4140404e-09
-4.1093803e-12
2.414011e-09
3.9177796e-12
2.4140392e-09
-3.7423489e-12
2.4140122e-09
3.5795188e-12
2.4140382e-09
-3.4312268e-12
2.4140132e-09
3.2946191e-12
2.4140373e-09
-3.1711857e-12
2.4140141e-09
3.0586261e-12
2.4140365e-09
-2.958116e-12
2.4140148e-09
2.8677101e-12
2.414036e-09
-2.7885016e-12
2.4140154e-09
2.7187642e-12
2.4140354e-09
-2.6571398e-12
2.4140154e-09
2.6135278e-12
2.4140337e-09
-2.5585499e-12
2.4140164e-09
2.4744449e-12
2.4140524e-09
-2.9739302e-12
2.2257933e-12
2.4301051e-09
1.9697535e-08
2.5047133e-09
-1.2963991e-09
2.5149111e-09
4.5546501e-10
2.5169954e-09
-1.3496515e-11
2.5178632e-09
-8.4650652e-13
2.5197762e-09
1.788853e-12
2.51961e-09
-1.5996107e-11
2.5198963e-09
1.3800739e-11
2.5199086e-09
-1.598682e-11
2.5198906e-09
1.505885e-11
2.5199022e-09
-1.4197832e-11
2.5198794e-09
1.3493478e-11
2.5198941e-09
-1.26388e-11
2.5198767e-09
1.1939973e-11
2.5198914e-09
-1.1228023e-11
2.5198767e-09
1.0583532e-11
2.5198903e-09
-9.9716159e-12
2.5198775e-09
9.3959522e-12
2.5198897e-09
-8.8614083e-12
2.5198783e-09
8.3531455e-12
2.5198893e-09
-7.88399e-12
2.519879e-09
7.437321e-12
2.5198889e-09
-7.0254657e-12
2.5198797e-09
6.6339896e-12
2.5198885e-09
-6.273007e-12
2.5198802e-09
5.9307685e-12
2.5198882e-09
-5.6151901e-12
2.5198807e-09
5.3168985e-12
2.519888e-09
-5.0419806e-12
2.5198811e-09
4.7830015e-12
2.5198877e-09
-4.544615e-12
2.5198814e-09
4.3209246e-12
2.5198875e-09
-4.1154775e-12
2.5198817e-09
3.9235942e-12
2.5198873e-09
-3.7479812e-12
2.5198819e-09
3.5849142e-12
2.5198872e-09
-3.4364661e-12
2.5198821e-09
3.2996604e-12
2.519887e-09
-3.1760936e-12
2.5198823e-09
3.0633669e-12
2.5198869e-09
-2.9627407e-12
2.5198824e-09
2.8721869e-12
2.5198868e-09
-2.7928759e-12
2.5198826e-09
2.7229794e-12
2.5198866e-09
-2.6611761e-12
2.5198824e-09
2.6177585e-12
2.5198853e-09
-2.5614555e-12
2.5198828e-09
2.476954e-12
2.5199001e-09
-2.9912371e-12
2.2135155e-12
2.5295127e-09
1.9625772e-08
2.5996865e-09
-1.3665729e-09
2.6160317e-09
4.3911987e-10
2.6184028e-09
-1.5867616e-11
2.6191151e-09
-1.5588725e-12
2.6211596e-09
-2.5559349e-13
2.6208259e-09
-1.5662403e-11
2.62121e-09
1.3416671e-11
2.6211234e-09
-1.5900235e-11
2.6211913e-09
1.4990944e-11
2.6211192e-09
-1.4125775e-11
2.6211744e-09
1.3438282e-11
2.6211153e-09
-1.2579701e-11
2.6211672e-09
1.18881e-11
2.6211165e-09
-1.1177344e-11
2.6211634e-09
1.0536663e-11
2.6211189e-09
-9.9271681e-12
2.6211607e-09
9.3541584e-12
2.6211214e-09
-8.822101e-12
2.6211586e-09
8.3160026e-12
2.6211237e-09
-7.8491137e-12
2.6211567e-09
7.4043155e-12
2.6211257e-09
-6.9944612e-12
2.621155e-09
6.6046285e-12
2.6211274e-09
-6.2453952e-12
2.6211536e-09
5.9046041e-12
2.621129e-09
-5.5905485e-12
2.6211523e-09
5.2935289e-12
2.6211303e-09
-5.0199323e-12
2.6211512e-09
4.7620663e-12
2.6211314e-09
-4.524822e-12
2.6211502e-09
4.3021e-12
2.6211324e-09
-4.0976349e-12
2.6211494e-09
3.9065874e-12
2.6211332e-09
-3.731812e-12
2.6211487e-09
3.5694585e-12
2.6211339e-09
-3.421717e-12
2.6211481e-09
3.2855107e-12
2.6211345e-09
-3.162529e-12
2.6211476e-09
3.0502927e-12
2.621135e-09
-2.950136e-12
2.6211472e-09
2.8599635e-12
2.6211354e-09
-2.7810124e-12
2.621147e-09
2.7113663e-12
2.6211356e-09
-2.6497526e-12
2.6211465e-09
2.6067724e-12
2.6211346e-09
-2.5495198e-12
2.6211464e-09
2.4651833e-12
2.6211454e-09
-2.9902822e-12
2.1887136e-12
2.637017e-09
1.9446505e-08
2.6911372e-09
-1.4206931e-09
2.712757e-09
4.1749999e-10
2.7152286e-09
-1.8339139e-11
2.7157979e-09
-2.1282096e-12
2.7179491e-09
-2.4067571e-12
2.7174443e-09
-1.5157634e-11
2.7179193e-09
1.2941679e-11
2.7177367e-09
-1.5717669e-11
2.7178873e-09
1.4840386e-11
2.7177349e-09
-1.3973437e-11
2.7178653e-09
1.3307953e-11
2.7177352e-09
-1.2449663e-11
2.7178538e-09
1.1769487e-11
2.7177402e-09
-1.106376e-11
2.7178463e-09
1.0430581e-11
2.717746e-09
-9.8268797e-12
2.7178404e-09
9.2597795e-12
2.7177515e-09
-8.7331752e-12
2.7178354e-09
8.2321036e-12
2.7177564e-09
-7.770092e-12
2.717831e-09
7.329676e-12
2.7177607e-09
-6.9241172e-12
2.7178272e-09
6.5381275e-12
2.7177644e-09
-6.182656e-12
2.7178238e-09
5.8452341e-12
2.7177677e-09
-5.5344614e-12
2.7178209e-09
5.2403883e-12
2.7177706e-09
-4.9696467e-12
2.7178183e-09
4.7143472e-12
2.717773e-09
-4.4795755e-12
2.7178161e-09
4.2590769e-12
2.7177752e-09
-4.0567406e-12
2.7178142e-09
3.8676052e-12
2.717777e-09
-3.6946481e-12
2.7178125e-09
3.5339228e-12
2.7177785e-09
-3.387717e-12
2.7178112e-09
3.2528777e-12
2.7177798e-09
-3.1311716e-12
2.71781e-09
3.0200586e-12
2.7177808e-09
-2.9209343e-12
2.7178091e-09
2.8316525e-12
2.7177816e-09
-2.7535062e-12
2.7178085e-09
2.6845056e-12
2.7177822e-09
-2.6234374e-12
2.7178078e-09
2.5811234e-12
2.7177816e-09
-2.5233075e-12
2.7178071e-09
2.4396708e-12
2.7177884e-09
-2.9715586e-12
2.1521943e-12
2.7322018e-09
1.9172053e-08
2.7788568e-09
-1.4673481e-09
2.8050086e-09
3.9134816e-10
2.8074347e-09
-2.0765263e-11
2.80793e-09
-2.6234259e-12
2.8101402e-09
-4.6169968e-12
2.8094657e-09
-1.4483169e-11
2.8100246e-09
1.2382777e-11
2.8097488e-09
-1.5441876e-11
2.8099786e-09
1.4610613e-11
2.8097494e-09
-1.3744237e-11
2.8099519e-09
1.3105452e-11
2.8097539e-09
-1.2251643e-11
2.8099366e-09
1.1586825e-11
2.8097627e-09
-1.0889857e-11
2.8099255e-09
1.0267696e-11
2.8097717e-09
-9.6730317e-12
2.8099165e-09
9.1149598e-12
2.80978e-09
-8.5966532e-12
2.8099087e-09
8.1033553e-12
2.8097874e-09
-7.648722e-12
2.8099019e-09
7.2150992e-12
2.8097939e-09
-6.8160337e-12
2.809896e-09
6.4359982e-12
2.8097996e-09
-6.0862161e-12
2.8098908e-09
5.754008e-12
2.8098045e-09
-5.4482042e-12
2.8098862e-09
5.1586845e-12
2.8098088e-09
-4.8922675e-12
2.8098823e-09
4.6409288e-12
2.8098126e-09
-4.4099044e-12
2.8098788e-09
4.1928332e-12
2.8098158e-09
-3.9937244e-12
2.8098759e-09
3.8075337e-12
2.8098186e-09
-3.6373342e-12
2.8098734e-09
3.4791144e-12
2.8098209e-09
-3.3352387e-12
2.8098713e-09
3.2025026e-12