/*--------------------------------*- C++ -*----------------------------------*\
| =========                 |                                                 |
| \\      /  F ield         | OpenFOAM: The Open Source CFD Toolbox           |
|  \\    /   O peration     | Version:  2312                                  |
|   \\  /    A nd           | Website:  www.openfoam.com                      |
|    \\/     M anipulation  |                                                 |
\*---------------------------------------------------------------------------*/
FoamFile
{
    version     2.0;
    format      ascii;
    arch        "LSB;label=32;scalar=64";
    class       volScalarField;
    location    "4";
    object      T;
}
// * * * * * * * * * * * * * * * * * * * * * * * * * * * * * * * * * * * * * //

dimensions      [0 0 0 1 0 0 0];

internalField   nonuniform List<scalar> 
4000
(
309.86571
311.0531
311.21385
311.29479
311.35096
311.40502
311.44613
311.49104
311.52669
311.56705
311.59997
311.63759
311.66893
311.70473
311.73505
311.76956
311.79919
311.83274
311.86188
311.89469
311.92345
311.95569
311.98415
312.01593
312.04415
312.07557
312.10359
312.13471
312.16255
312.19343
312.22111
312.25179
312.27933
312.30986
312.33726
312.36766
312.39494
312.42524
312.45239
312.48263
312.50965
312.53984
312.56672
312.59691
312.62363
312.65385
312.68037
312.71073
312.73686
312.76798
307.74725
309.89891
310.32112
310.50852
310.62175
310.72861
310.79673
310.87617
310.92793
310.99374
311.03732
311.09493
311.13375
311.1859
311.22167
311.26995
311.30365
311.34905
311.38126
311.42446
311.45553
311.49701
311.5272
311.56731
311.59677
311.63579
311.66463
311.70276
311.73107
311.76848
311.79632
311.83314
311.86055
311.8969
311.9239
311.95988
311.98649
312.02219
312.04841
312.0839
312.10974
312.1451
312.17053
312.20587
312.23082
312.26627
312.29061
312.32646
312.34964
312.38768
306.35401
308.77385
309.43415
309.72543
309.89499
310.05395
310.14903
310.26261
310.33052
310.42153
310.47583
310.55323
310.5996
310.66795
310.70924
310.77117
310.80899
310.86616
310.90147
310.95499
310.98842
311.03908
311.07102
311.11941
311.15014
311.19671
311.22641
311.27151
311.30032
311.34422
311.37223
311.41517
311.44246
311.48461
311.51123
311.55276
311.57872
311.61978
311.64511
311.68582
311.7105
311.75101
311.775
311.81546
311.83867
311.87932
311.9015
311.94282
311.96309
312.00778
305.38398
307.70605
308.56199
308.95037
309.17416
309.38354
309.50518
309.65206
309.73606
309.85172
309.91678
310.01359
310.06757
310.15183
310.19871
310.27406
310.31608
310.38481
310.42332
310.48699
310.52283
310.58254
310.6163
310.67286
310.7049
310.75893
310.78953
310.84152
310.87086
310.92119
310.94942
310.9984
311.02561
311.07351
311.09977
311.1468
311.17215
311.21852
311.24298
311.28887
311.31242
311.35803
311.38062
311.42616
311.44765
311.49345
311.51351
311.56024
311.57769
311.62867
304.68016
306.72089
307.71653
308.19009
308.46398
308.72084
308.86809
309.04686
309.14666
309.28608
309.36183
309.47742
309.53904
309.63874
309.69126
309.77966
309.82595
309.90596
309.94772
310.02131
310.05964
310.12819
310.16382
310.22838
310.2618
310.32315
310.3547
310.41345
310.44338
310.50002
310.52851
310.58344
310.61062
310.66416
310.69011
310.74256
310.76734
310.81894
310.84258
310.89357
310.91604
310.96667
310.98791
311.03845
311.05829
311.10915
311.12717
311.17919
311.19397
311.25077
304.15397
305.83725
306.91091
307.45274
307.77025
308.07016
308.24135
308.4499
308.56488
308.72678
308.81298
308.94647
309.01565
309.13013
309.1883
309.28925
309.33983
309.43072
309.47578
309.55895
309.59982
309.67695
309.71451
309.78683
309.82168
309.89014
309.9227
309.98804
310.01861
310.0814
310.11021
310.17094
310.19814
310.25721
310.2829
310.34065
310.36491
310.42164
310.4445
310.5005
310.52193
310.57749
310.59742
310.65288
310.67111
310.72694
310.743
310.80017
310.81247
310.87459
303.75195
305.06664
306.15788
306.74722
307.09947
307.43648
307.62903
307.86454
307.99368
308.17635
308.27254
308.42277
308.49928
308.6277
308.69141
308.80426
308.8591
308.96034
309.00871
309.10105
309.14448
309.22983
309.26935
309.34915
309.38546
309.46079
309.4944
309.5661
309.59736
309.66611
309.69528
309.76164
309.7889
309.85334
309.87882
309.94173
309.96551
310.02724
310.04937
310.11024
310.1307
310.19106
310.20976
310.26999
310.28671
310.34736
310.36156
310.42368
310.43375
310.50068
303.43967
304.41297
305.46837
306.08239
306.45847
306.82515
307.03559
307.29449
307.43628
307.6376
307.74302
307.90854
307.992
308.1333
308.20235
308.32629
308.38528
308.49625
308.54786
308.64885
308.69481
308.78797
308.82945
308.91636
308.95415
309.03604
309.07071
309.14852
309.18048
309.25497
309.28452
309.35632
309.38367
309.45329
309.4786
309.54648
309.56985
309.6364
309.65786
309.72345
309.743
309.80799
309.82554
309.89038
309.90568
309.97095
309.98345
310.05027
310.05839
310.12962
303.19375
303.8735
304.85045
305.46628
305.8539
306.24162
306.46562
306.74365
306.89612
307.1135
307.22713
307.4062
307.49602
307.64895
307.72298
307.85706
307.91998
308.03992
308.09466
308.20369
308.25212
308.35257
308.39596
308.48957
308.52882
308.6169
308.65263
308.73622
308.76891
308.84885
308.87881
308.95577
308.98326
309.05782
309.08301
309.15565
309.17865
309.24982
309.27067
309.34077
309.35949
309.42893
309.4454
309.51465
309.52864
309.59832
309.60927
309.68049
309.68697
309.76203
302.99767
303.44012
304.30864
304.90534
305.29175
305.69112
305.92363
306.21596
306.37665
306.60714
306.72763
306.91826
307.01364
307.17674
307.25526
307.39838
307.46492
307.59297
307.6506
307.76698
307.81772
307.9249
307.97011
308.06992
308.11057
308.20442
308.24119
308.3302
308.36359
308.44865
308.47903
308.56088
308.58851
308.66775
308.69283
308.77
308.79266
308.86822
308.88852
308.96291
308.98085
309.05451
309.07
309.14343
309.15622
309.23006
309.23963
309.31493
309.32005
309.3985
302.83929
303.10084
303.84383
304.40395
304.77691
305.1783
305.41379
305.71515
305.88123
306.12155
306.24728
306.44722
306.54717
306.71882
306.80118
306.9521
307.02182
307.157
307.21724
307.34018
307.39302
307.50626
307.55315
307.65861
307.70056
307.79971
307.83744
307.93146
307.96551
308.05534
308.0861
308.1725
308.20028
308.2839
308.3089
308.3903
308.41266
308.49234
308.51214
308.59056
308.6078
308.68542
308.70002
308.77736
308.78908
308.86678
308.87515
308.95417
308.95823
309.03968
302.70963
302.84156
303.45356
303.96412
304.31285
304.70694
304.93972
305.24464
305.41298
305.65962
305.78872
305.99555
306.09887
306.2773
306.36271
306.52006
306.59242
306.73366
306.79612
306.92473
306.97941
307.09799
307.14635
307.25686
307.29995
307.40388
307.44247
307.54104
307.57568
307.66985
307.70097
307.79155
307.81945
307.90711
307.93203
308.01735
308.03943
308.12293
308.14227
308.22443
308.24103
308.32234
308.33613
308.41709
308.42787
308.50911
308.51647
308.59883
308.60208
308.68616
302.60187
302.64745
303.13257
303.58545
303.90133
304.27972
304.50427
304.80729
304.97461
305.22394
305.35437
305.56553
305.67089
305.85419
305.94173
306.10407
306.17841
306.32454
306.38875
306.52211
306.57826
306.7014
306.75097
306.86585
306.9099
307.01804
307.05733
307.15995
307.19508
307.29316
307.32455
307.41892
307.4469
307.53823
307.56305
307.65195
307.67376
307.76076
307.77966
307.86525
307.88127
307.96594
307.97902
308.06328
308.07324
308.15768
308.1642
308.24951
308.25219
308.33857
302.5109
302.50427
302.87359
303.26537
303.5424
303.89804
304.10933
304.40528
304.56832
304.81673
304.94634
305.15922
305.26515
305.45137
305.54001
305.7058
305.78138
305.93119
305.99658
306.13369
306.1909
306.31777
306.36823
306.48678
306.53154
306.64327
306.68309
306.78922
306.8247
306.9262
306.95778
307.05549
307.0835
307.1781
307.20279
307.29488
307.31643
307.40656
307.42506
307.51373
307.52922
307.61691
307.62936
307.71656
307.72583
307.8131
307.81895
307.90683
307.90912
307.99749
302.43288
302.39924
302.66821
302.99953
303.23446
303.56198
303.7558
304.04003
304.19569
304.43971
304.56635
304.77835
304.88334
305.07048
305.15912
305.32679
305.40279
305.55501
305.62098
305.76079
305.81859
305.94831
305.9993
306.12077
306.16595
306.28063
306.32077
306.42982
306.4655
306.56991
306.60155
306.70213
306.73009
306.82752
306.85204
306.94693
306.96819
307.06107
307.07918
307.17056
307.18557
307.27591
307.28781
307.37759
307.38628
307.47599
307.48134
307.57139
307.57344
307.66352
302.36495
302.3216
302.50757
302.78227
302.97448
303.27038
303.44349
303.71209
303.85761
304.09405
304.21565
304.42429
304.52679
304.7129
304.80039
304.96838
305.04393
305.19729
305.26316
305.4046
305.46247
305.59414
305.64525
305.76887
305.81417
305.9311
305.97131
306.0827
306.11837
306.22515
306.25672
306.35968
306.38748
306.4873
306.51157
306.60884
306.62977
306.72501
306.74273
306.83643
306.85099
306.9436
306.95501
307.04699
307.05519
307.14696
307.15192
307.24377
307.24569
307.33721
302.30503
302.26277
302.3831
302.6072
302.7583
303.02092
303.17125
303.42116
303.55424
303.78031
303.89497
304.09794
304.19649
304.37969
304.46488
304.63167
304.70587
304.8591
304.92417
305.06618
305.12357
305.25627
305.30707
305.43203
305.4771
305.5956
305.6356
305.7487
305.78416
305.89275
305.92408
306.02891
306.05644
306.15816
306.18212
306.28131
306.30189
306.39905
306.41637
306.51197
306.52611
306.62059
306.63156
306.72534
306.73315
306.82658
306.83127
306.92455
306.92641
307.01909
302.25156
302.2163
302.28697
302.46768
302.58104
302.8104
302.93702
303.16613
303.28504
303.49844
303.60452
303.79978
303.893
304.07157
304.15336
304.31748
304.38946
304.54131
304.60489
304.74641
304.80274
304.93557
304.98559
305.11111
305.15557
305.27493
305.31444
305.42861
305.46363
305.57345
305.60437
305.71054
305.73766
305.8408
305.86435
305.965
305.98517
306.08382
306.10071
306.19781
306.21153
306.30747
306.31805
306.41322
306.42071
306.51541
306.51991
306.61424
306.6161
306.70967
302.20343
302.17766
302.21239
302.3573
302.43744
302.63496
302.73801
302.9452
303.0488
303.2478
303.34397
303.5298
303.61649
303.78887
303.86625
304.02634
304.09525
304.24457
304.30594
304.44596
304.50067
304.63273
304.68152
304.8068
304.85029
304.9698
305.0085
305.12312
305.15745
305.26792
305.29823
305.40521
305.43178
305.53584
305.55888
305.66053
305.68021
305.7799
305.79634
305.89449
305.90779
306.00478
306.01501
306.11116
306.11838
306.21395
306.21832
306.31337
306.31525
306.40943
302.15981
302.14385
302.15376
302.27013
302.32221
302.49038
302.57095
302.75598
302.84377
303.02719
303.11251
303.28753
303.3667
303.53157
303.60363
303.75849
303.82355
303.96924
304.02776
304.16531
304.21785
304.34829
304.39538
304.51966
304.56179
304.68077
304.71835
304.83278
304.86618
304.97673
305.00623
305.11349
305.13935
305.24382
305.26624
305.36841
305.38753
305.48781
305.50376
305.60253
305.61541
305.71302
305.7229
305.81963
305.82662
305.92268
305.92696
306.02237
306.02428
306.11879
302.12012
302.11304
302.10669
302.20104
302.23029
302.37231
302.4322
302.59563
302.6677
302.83497
302.90887
303.0721
303.14298
303.29926
303.36525
303.51384
303.57436
303.71547
303.77052
303.90473
303.95457
304.08259
304.12754
304.25009
304.29049
304.40827
304.44443
304.55806
304.59027
304.70033
304.72882
304.83582
304.86082
304.96522
304.98689
305.08911
305.10759
305.20801
305.22341
305.32238
305.33481
305.43262
305.44216
305.53907
305.54584
305.64202
305.64622
305.74167
305.74361
305.83816
302.08387
302.08424
302.06785
302.1457
302.15711
302.27652
302.31805
302.46109
302.51803
302.6691
302.73139
302.88223
302.94434
303.09123
303.15055
303.29202
303.34742
303.48311
303.53417
303.66424
303.71091
303.83577
303.87818
303.99832
304.03664
304.15259
304.18703
304.29928
304.33005
304.43907
304.46636
304.57258
304.59655
304.70039
304.72119
304.823
304.84075
304.94087
304.95567
305.0544
305.06635
305.16396
305.17315
305.26985
305.27641
305.37233
305.37646
305.47162
305.47357
305.56787
302.05073
302.057
302.03486
302.10063
302.09867
302.19909
302.22483
302.34916
302.39202
302.5273
302.57814
302.71636
302.76947
302.90644
302.95869
303.09239
303.14221
303.27179
303.31841
303.44366
303.48676
303.6078
303.6473
303.7644
303.80033
303.91385
303.9463
304.05661
304.08571
304.19317
304.21906
304.32402
304.34681
304.44961
304.46942
304.57037
304.5873
304.68669
304.70082
304.7989
304.81033
304.90734
304.91616
305.01227
305.01861
305.11393
305.11797
305.21253
305.21447
305.30822
302.02038
302.03115
302.00606
302.06317
302.05164
302.13647
302.1491
302.2567
302.2868
302.40711
302.44699
302.5727
302.61681
302.74359
302.78857
302.91403
302.95797
303.0809
303.12274
303.2426
303.28179
303.39845
303.43471
303.54824
303.58148
303.69204
303.72226
303.83011
303.85734
303.96274
303.98705
304.09028
304.11174
304.21306
304.23176
304.33142
304.34743
304.44568
304.45907
304.55612
304.56698
304.66301
304.67142
304.76659
304.77268
304.86706
304.87099
304.96464
304.96656
305.05946
301.99258
302.00671
301.98038
302.03133
302.0133
302.08564
302.08774
302.18071
302.1996
302.30602
302.33568
302.44928
302.48463
302.6012
302.63887
302.75585
302.79373
302.90963
302.94645
303.06049
303.0955
303.20731
303.24009
303.34954
303.37987
303.487
303.51476
303.6197
303.64486
303.74776
303.77033
303.87139
303.89139
303.9908
304.00829
304.10625
304.12126
304.21797
304.23056
304.32618
304.33643
304.43112
304.43909
304.53297
304.53878
304.63191
304.6357
304.72814
304.73001
304.82178
301.96713
301.98371
301.95714
302.00367
301.98153
302.04405
302.03797
302.11845
302.12774
302.22158
302.24192
302.34405
302.37108
302.47765
302.50814
302.61657
302.64835
302.757
302.78867
302.89656
302.92723
303.0338
303.06292
303.1679
303.19512
303.29842
303.32355
303.42516
303.44809
303.54809
303.56877
303.66727
303.68569
303.78281
303.79897
303.89486
303.90879
304.00359
304.01532
304.10917
304.11875
304.21176
304.21926
304.31151
304.31702
304.40859
304.41221
304.50315
304.50495
304.59531
301.94381
301.9622
301.93594
301.97922
301.95475
302.00964
301.99747
302.06746
302.06878
302.15141
302.16349
302.25495
302.27425
302.37121
302.39481
302.49479
302.52057
302.62188
302.64838
302.74992
302.77616
302.87723
302.90255
303.00276
303.02674
303.12586
303.14822
303.24616
303.26673
303.36347
303.38216
303.47773
303.49446
303.58895
303.6037
303.69718
303.70995
303.80251
303.81332
303.90506
303.91393
304.00494
304.01192
304.10226
304.10742
304.19715
304.20056
304.28973
304.29144
304.38012
301.92249
301.94222
301.91651
301.95732
301.93178
301.98081
301.96428
302.02562
302.0205
302.09335
302.09826
302.17999
302.19226
302.28014
302.29726
302.38903
302.40902
302.50304
302.52445
302.61955
302.64135
302.73675
302.75823
302.85343
302.87409
302.96877
302.98828
303.08225
303.10038
303.19355
303.21015
303.30249
303.31746
303.40899
303.42227
303.51302
303.52457
303.61459
303.62441
303.71376
303.72187
303.8106
303.81701
303.90517
303.90994
303.99756
304.00075
304.08789
304.08949
304.17622
301.90299
301.92377
301.89874
301.93754
301.91178
301.9563
301.93685
301.99114
301.98098
302.04541
302.04427
302.11725
302.12328
302.2027
302.21385
302.29779
302.3123
302.39918
302.41567
302.50435
302.5218
302.61144
302.62909
302.71913
302.73645
302.82649
302.8431
302.93287
302.9485
303.03786
303.05231
303.14117
303.15431
303.24263
303.25437
303.34212
303.35241
303.43962
303.44841
303.5351
303.5424
303.62859
303.63441
303.72013
303.72449
303.80976
303.81268
303.89757
303.89904
303.98358
301.88521
301.90681
301.88253
301.91961
301.89417
301.93522
301.91395
301.96255
301.94858
302.00586
301.99972
302.06496
302.06555
302.13724
302.143
302.21954
302.22896
302.30897
302.32079
302.40316
302.41639
302.50029
302.51419
302.59899
302.61301
302.69827
302.71199
302.7974
302.81051
302.89587
302.90815
302.9933
303.00459
303.08946
303.09963
303.18416
303.19314
303.27731
303.28504
303.36884
303.3753
303.45873
303.46391
303.54697
303.55088
303.63359
303.63622
303.71863
303.71996
303.8021
301.86903
301.89131
301.86783
301.90336
301.87858
301.91687
301.89463
301.93865
301.92193
301.9732
301.96306
302.02152
302.01749
302.08218
302.08315
302.15283
302.1576
302.23107
302.23853
302.31478
302.32402
302.40224
302.41253
302.49209
302.50289
302.58332
302.59418
302.67513
302.68574
302.76695
302.77705
302.85835
302.86776
302.94901
302.95759
303.03872
303.04636
303.1273
303.13395
303.21466
303.22026
303.30072
303.30525
303.38545
303.38889
303.46884
303.47117
303.5509
303.55208
303.63162
301.85438
301.87724
301.85458
301.88868
301.86473
301.90079
301.87818
301.91852
301.8999
301.94616
301.93291
301.9855
301.97762
302.03605
302.03288
302.09625
302.09684
302.16418
302.16763
302.23802
302.24352
302.31622
302.32308
302.39747
302.40517
302.48076
302.48886
302.56529
302.57345
302.65043
302.65839
302.73571
302.74326
302.82076
302.82776
302.90532
302.91164
302.98918
302.99473
303.07219
303.07691
303.15425
303.1581
303.23529
303.23824
303.31527
303.31727
303.39416
303.39518
303.47194
301.84119
301.86455
301.84276
301.8755
301.85244
301.88664
301.86407
301.90142
301.8816
301.9237
301.9081
301.95565
301.94466
301.99755
301.99084
302.04848
302.04541
302.10703
302.10687
302.17171
302.17376
302.24114
302.2448
302.31413
302.3189
302.38971
302.39516
302.46707
302.47287
302.54558
302.55145
302.62472
302.63046
302.70412
302.70955
302.78345
302.78844
302.86247
302.86693
302.94102
302.94486
303.01894
303.0221
303.09614
303.09858
303.17255
303.17422
303.24812
303.24898
303.32281
301.82945
301.85323
301.83232
301.86376
301.84161
301.87416
301.85193
301.88681
301.86632
301.90495
301.88767
301.93091
301.91747
301.96548
301.95584
302.00831
302.00208
302.05844
302.05508
302.1147
302.11364
302.17594
302.17666
302.2411
302.24313
302.30925
302.31221
302.37965
302.38319
302.45164
302.45551
302.52471
302.52869
302.59846
302.60236
302.67253
302.67622
302.74667
302.75004
302.82066
302.82362
302.89435
302.89683
302.9676
302.96954
303.04033
303.04167
303.11247
303.11315
303.18393
301.81915
301.84326
301.82323
301.8534
301.83213
301.86319
301.84146
301.87425
301.8535
301.88922
301.87081
301.91038
301.89507
301.93882
301.9268
301.97464
301.96575
302.01729
302.01115
302.06592
302.06209
302.11959
302.11764
302.17739
302.17691
302.23849
302.23912
302.30218
302.30361
302.36784
302.36982
302.43496
302.43726
302.50312
302.50556
302.57196
302.5744
302.6412
302.64352
302.71062
302.71272
302.78002
302.78182
302.84926
302.85069
302.91823
302.91923
302.98683
302.98735
303.05498
301.81034
301.83462
301.81546
301.84437
301.82392
301.8536
301.83245
301.86343
301.8427
301.87598
301.85687
301.8933
301.87663
301.91667
301.90278
301.9465
301.9354
301.98258
301.97407
302.02436
302.01811
302.07111
302.06678
302.12207
302.11931
302.17653
302.17503
302.23383
302.2333
302.2934
302.2936
302.35474
302.35546
302.41743
302.41848
302.48112
302.48235
302.5455
302.5468
302.61035
302.61161
302.67545
302.67658
302.74064
302.74158
302.8058
302.80647
302.87081
302.87117
302.93557
301.80307
301.82731
301.80895
301.8366
301.81692
301.84525
301.82473
301.85411
301.83361
301.86477
301.84532
301.87905
301.86144
301.89825
301.88295
301.92301
301.91016
301.95339
301.9429
301.98908
301.98076
302.02956
302.02315
302.07423
302.06946
302.1225
302.11908
302.17378
302.17146
302.22754
302.2261
302.28332
302.28256
302.3407
302.34045
302.39935
302.39946
302.45896
302.4593
302.51929
302.51975
302.58011
302.58061
302.64126
302.64172
302.7026
302.70295
302.76399
302.76418
302.82533
301.7974
301.82131
301.80365
301.83002
301.81104
301.83806
301.81818
301.84608
301.82594
301.85526
301.83573
301.86713
301.84895
301.88293
301.86661
301.90344
301.88921
301.9289
301.91681
301.95922
301.94917
301.99408
301.98589
302.03303
302.02649
302.07557
302.07045
302.12122
302.11729
302.16949
302.16657
302.21997
302.21785
302.27226
302.27079
302.32602
302.32507
302.38098
302.38041
302.43687
302.43658
302.49348
302.49337
302.55062
302.55063
302.60814
302.6082
302.66592
302.66596
302.72382
301.79331
301.81654
301.79949
301.82455
301.8062
301.83193
301.81268
301.83919
301.81951
301.84718
301.82776
301.85712
301.83865
301.87017
301.85316
301.88713
301.87189
301.90839
301.89505
301.93404
301.92257
301.9639
301.95421
301.99767
301.98961
302.03497
302.02836
302.07539
302.07004
302.11852
302.11426
302.16398
302.16064
302.21141
302.20884
302.26049
302.25856
302.31093
302.30952
302.36251
302.36151
302.41499
302.41432
302.46819
302.46777
302.52195
302.52172
302.57614
302.57604
302.63062
301.79071
301.81292
301.79635
301.82008
301.80231
301.82676
301.80811
301.8333
301.81414
301.8403
301.82116
301.8487
301.83018
301.85951
301.84211
301.87353
301.85758
301.89123
301.87694
301.91283
301.90025
301.93829
301.92738
301.96742
301.95809
301.99996
301.99207
302.03557
302.02899
302.07392
302.06849
302.11467
302.11024
302.15749
302.15393
302.2021
302.19929
302.24822
302.24605
302.29563
302.29398
302.3441
302.3429
302.39345
302.39263
302.44352
302.44302
302.49417
302.49393
302.54527
301.7894
301.81031
301.79412
301.81651
301.79927
301.82245
301.80439
301.8283
301.80968
301.83445
301.81568
301.8416
301.82319
301.85059
301.83302
301.86218
301.8458
301.87689
301.86192
301.895
301.88157
301.9166
301.90472
301.94161
301.93124
301.96985
301.96091
302.00108
301.99345
302.03502
302.02857
302.07138
302.066
302.10988
302.10544
302.15025
302.14665
302.19225
302.18938
302.23565
302.23342
302.28025
302.27858
302.32587
302.32469
302.37235
302.3716
302.41954
302.41918
302.46731
301.78908
301.80853
301.79266
301.81372
301.79697
301.8189
301.80141
301.82408
301.80602
301.82948
301.81117
301.83559
301.81745
301.8431
301.82555
301.85269
301.83609
301.86488
301.84949
301.88002
301.86599
301.89827
301.88566
301.91964
301.90846
301.94404
301.93423
301.97129
301.96278
302.00119
301.99389
302.03349
302.02729
302.06795
302.06276
302.10434
302.10005
302.14244
302.13896
302.18203
302.17927
302.22292
302.22082
302.26494
302.26343
302.30794
302.30697
302.35176
302.35129
302.39629
301.78944
301.80739
301.79183
301.81157
301.79531
301.81601
301.79907
301.82055
301.80306
301.82526
301.80746
301.8305
301.81273
301.8368
301.81942
301.84473
301.82811
301.85482
301.83921
301.86744
301.85301
301.88279
301.86966
301.90097
301.88917
301.92195
301.91146
301.94562
301.93641
301.97184
301.96383
302.00041
301.99353
302.03113
302.02529
302.0638
302.05892
302.09822
302.09421
302.1342
302.131
302.17156
302.16909
302.21014
302.20835
302.24979
302.24862
302.29036
302.28979
302.33174
301.79018
301.80671
301.79149
301.80996
301.79419
301.81368
301.7973
301.8176
301.80069
301.82169
301.80444
301.82618
301.80885
301.83147
301.81439
301.83804
301.82154
301.84638
301.83072
301.85685
301.84223
301.86972
301.85626
301.88511
301.87288
301.90307
301.89209
301.92355
301.91379
301.94644
301.93787
301.9716
301.96417
301.99888
301.9925
302.0281
302.02271
302.05908
302.05462
302.09166
302.08806
302.12568
302.12288
302.16098
302.15894
302.19742
302.19609
302.23487
302.23422
302.27322
301.79106
301.80633
301.79151
301.80877
301.79349
301.81182
301.79599
301.81515
301.79882
301.81868
301.80199
301.82251
301.80568
301.82694
301.81026
301.83239
301.81613
301.83926
301.8237
301.84793
301.83326
301.85867
301.84504
301.87165
301.85915
301.88696
301.87563
301.90459
301.89444
301.92449
301.9155
301.94656
301.93869
301.97069
301.96388
301.99671
301.99093
302.0245
302.01968
302.05391
302.04998
302.08478
302.08171
302.11698
302.11472
302.15037
302.14889
302.18484
302.18411
302.22027
301.79195
301.80613
301.79178
301.80789
301.79313
301.81034
301.79507
301.81313
301.79739
301.81612
301.80002
301.81938
301.80309
301.82309
301.80686
301.82759
301.81168
301.83324
301.8179
301.84039
301.82582
301.84932
301.83567
301.86022
301.8476
301.8732
301.86167
301.88832
301.87791
301.90555
301.89626
301.92483
301.91664
301.94608
301.93895
301.96919
301.96308
301.99402
301.9889
302.02047
302.01628
302.04839
302.0451
302.07767
302.07524
302.10819
302.10659
302.13982
302.13903
302.17247
301.79276
301.806
301.7922
301.80723
301.79302
301.80916
301.79447
301.81145
301.79631
301.81396
301.79846
301.81669
301.80098
301.81978
301.80407
301.82348
301.808
301.82812
301.81309
301.83399
301.81962
301.84138
301.82782
301.85049
301.83787
301.86145
301.84985
301.87436
301.86381
301.88921
301.87973
301.90599
301.89758
301.92464
301.91728
301.94507
301.93874
301.9672
301.96185
301.9909
301.98651
302.01608
302.01262
302.04263
302.04006
302.07043
302.06874
302.09939
302.09855
302.12941
301.79348
301.8059
301.7927
301.80674
301.7931
301.80821
301.7941
301.81006
301.79551
301.81212
301.79722
301.81438
301.79926
301.81692
301.80176
301.81995
301.80494
301.82372
301.80909
301.82852
301.81445
301.8346
301.82125
301.84218
301.82967
301.8514
301.83982
301.86236
301.85178
301.87512
301.86555
301.88966
301.88113
301.90597
301.89846
301.92398
301.91748
301.94362
301.93811
301.9648
301.96027
301.98744
301.98385
302.01145
302.00878
302.03671
302.03494
302.06315
302.06227
302.09067
301.79411
301.80579
301.79324
301.80633
301.79331
301.80744
301.79393
301.80888
301.79494
301.81054
301.79625
301.81237
301.79785
301.81443
301.79984
301.81688
301.80239
301.81992
301.80574
301.82382
301.81011
301.82879
301.81572
301.83506
301.82275
301.84277
301.83132
301.85205
301.84152
301.86295
301.85339
301.87551
301.86694
301.88971
301.88214
301.90553
301.89895
301.92291
301.91731
301.94179
301.93716
301.96209
301.95841
301.98373
301.98099
302.00663
302.00481
302.0307
302.0298
302.05588
301.79466
301.80565
301.79378
301.80598
301.79359
301.80678
301.79389
301.80788
301.79455
301.80916
301.79549
301.8106
301.79669
301.81223
301.79822
301.81417
301.80024
301.8166
301.80291
301.81973
301.80645
301.82377
301.81105
301.82892
301.81688
301.83534
301.82408
301.84314
301.83275
301.85243
301.84295
301.86323
301.85469
301.87556
301.86798
301.88941
301.8828
301.90474
301.8991
301.92151
301.91683
301.93966
301.93593
301.95912
301.95634
301.97983
301.97798
302.00171
302.00079
302.02469
301.79513
301.80546
301.79429
301.80565
301.79391
301.8062
301.79393
301.80699
301.79428
301.80794
301.79487
301.80902
301.79571
301.81027
301.79685
301.81176
301.79839
301.81366
301.80049
301.81614
301.80332
301.81939
301.80706
301.82359
301.81188
301.82889
301.8179
301.83543
301.82524
301.8433
301.83396
301.85255
301.84411
301.86322
301.8557
301.8753
301.86872
301.88879
301.88316
301.90365
301.89896
301.91983
301.91609
301.93729
301.93449
301.95597
301.95411
301.97581
301.97488
301.99675
301.79554
301.80523
301.79476
301.80533
301.79424
301.80567
301.79403
301.80619
301.79409
301.80683
301.79437
301.80758
301.79488
301.80847
301.79565
301.80958
301.79679
301.81102
301.79839
301.81295
301.80062
301.81552
301.80364
301.81891
301.80758
301.82327
301.8126
301.82871
301.81878
301.83535
301.82622
301.84324
301.83496
301.85244
301.84503
301.86295
301.85645
301.87478
301.8692
301.88791
301.88325
301.90231
301.89859
301.91794
301.91515
301.93475
301.9329
301.95271
301.95178
301.97174
301.79589
301.80495
301.79519
301.80498
301.79456
301.80516
301.79415
301.80543
301.79394
301.80579
301.79393
301.80623
301.79413
301.8068
301.79458
301.80756
301.79535
301.80861
301.79654
301.81006
301.79826
301.81207
301.80065
301.81477
301.80386
301.81832
301.808
301.82282
301.81319
301.82839
301.81951
301.8351
301.82701
301.84299
301.83575
301.85211
301.84573
301.86246
301.85697
301.87403
301.86944
301.88681
301.88314
301.90078
301.89802
301.91589
301.91404
301.9321
301.93118
301.94938
301.79619
301.80463
301.79556
301.80461
301.79484
301.80464
301.79425
301.80469
301.7938
301.80478
301.79352
301.80494
301.79343
301.80521
301.79359
301.80567
301.79404
301.80637
301.79486
301.80742
301.79614
301.80894
301.79801
301.81106
301.80059
301.81392
301.80399
301.81761
301.80832
301.82226
301.81366
301.82793
301.82009
301.83469
301.82764
301.84257
301.83635
301.8516
301.84624
301.86178
301.85729
301.8731
301.8695
301.88555
301.88284
301.8991
301.89729
301.91373
301.91282
301.92939
301.79643
301.80428
301.79589
301.80421
301.79509
301.8041
301.79433
301.80394
301.79364
301.80377
301.7931
301.80366
301.79275
301.80367
301.79264
301.80385
301.7928
301.80425
301.7933
301.80495
301.79421
301.80606
301.79564
301.80769
301.79768
301.80996
301.80045
301.81297
301.80404
301.81682
301.80854
301.8216
301.81402
301.82736
301.82054
301.83416
301.82812
301.84201
301.8368
301.85094
301.84657
301.86096
301.85744
301.87204
301.86939
301.88417
301.8824
301.89734
301.89645
301.91151
301.79662
301.80388
301.79615
301.80377
301.79528
301.80352
301.79434
301.80314
301.79343
301.80273
301.79264
301.80238
301.79204
301.80214
301.79169
301.80207
301.7916
301.80221
301.79182
301.80261
301.79241
301.80338
301.79346
301.80459
301.79504
301.80636
301.79727
301.80878
301.80023
301.81195
301.80401
301.81596
301.80867
301.82085
301.81428
301.82669
301.82087
301.83351
301.82847
301.84134
301.8371
301.85017
301.84676
301.86002
301.85745
301.87087
301.86915
301.88271
301.88185
301.89552
301.79676
301.80346
301.79637
301.80328
301.7954
301.80288
301.79428
301.80229
301.79314
301.80164
301.79211
301.80106
301.79129
301.8006
301.79071
301.8003
301.7904
301.80021
301.79038
301.80036
301.7907
301.80083
301.79142
301.80169
301.79262
301.80304
301.79439
301.80496
301.79681
301.80755
301.79996
301.81089
301.80392
301.81503
301.80873
301.82004
301.81444
301.82595
301.82109
301.83279
301.8287
301.84058
301.83728
301.84932
301.84683
301.85901
301.85734
301.86964
301.86881
301.88121
301.79686
301.803
301.79652
301.80275
301.79543
301.80217
301.79411
301.80135
301.79274
301.80048
301.7915
301.79967
301.79046
301.79901
301.78968
301.79852
301.78917
301.79822
301.78894
301.79816
301.78903
301.79838
301.78947
301.79894
301.79035
301.79994
301.79173
301.80144
301.7937
301.80354
301.79631
301.8063
301.79965
301.8098
301.80377
301.81408
301.80872
301.81918
301.81453
301.82515
301.82123
301.83201
301.82884
301.83976
301.83737
301.8484
301.8468
301.85795
301.85715
301.86838
301.7969
301.80253
301.79661
301.80216
301.79537
301.80137
301.79383
301.80031
301.79223
301.79921
301.79077
301.79821
301.78954
301.79736
301.78858
301.7967
301.78789
301.79623
301.78748
301.79598
301.78737
301.79599
301.78759
301.79631
301.78819
301.79701
301.78925
301.79816
301.79082
301.79983
301.79298
301.80211
301.79579
301.80504
301.79931
301.80869
301.80359
301.8131
301.80866
301.8183
301.81456
301.82433