/*--------------------------------*- C++ -*----------------------------------*\
| =========                 |                                                 |
| \\      /  F ield         | OpenFOAM: The Open Source CFD Toolbox           |
|  \\    /   O peration     | Version:  2312                                  |
|   \\  /    A nd           | Website:  www.openfoam.com                      |
|    \\/     M anipulation  |                                                 |
\*---------------------------------------------------------------------------*/
FoamFile
{
    version     2.0;
    format      ascii;
    arch        "LSB;label=32;scalar=64";
    class       volVectorField;
    location    "4";
    object      U;
}
// * * * * * * * * * * * * * * * * * * * * * * * * * * * * * * * * * * * * * //

dimensions      [0 1 -1 0 0 0 0];

internalField   nonuniform List<vector> 
4000
(
(0.0023211115 0.00042358417 0)
(0.0030393345 -6.2719717e-06 0)
(0.0024288702 -3.6428425e-07 0)
(0.0025690621 2.2185801e-07 0)
(0.0024866873 -2.6066469e-07 0)
(0.0025432892 2.3497845e-07 0)
(0.0024908872 -2.218321e-07 0)
(0.0025384462 2.0831962e-07 0)
(0.0024941492 -1.9557687e-07 0)
(0.0025355617 1.8400596e-07 0)
(0.0024966728 -1.7320934e-07 0)
(0.0025331661 1.6300873e-07 0)
(0.0024988722 -1.5349826e-07 0)
(0.0025310743 1.4452793e-07 0)
(0.0025008263 -1.3612442e-07 0)
(0.0025292257 1.282265e-07 0)
(0.0025025628 -1.2081424e-07 0)
(0.0025275867 1.1386141e-07 0)
(0.0025041055 -1.0733375e-07 0)
(0.0025261312 1.0121828e-07 0)
(0.0025054767 -9.54782e-08 0)
(0.002524837 9.0106432e-08 0)
(0.0025066969 -8.5067442e-08 0)
(0.0025236844 8.0357317e-08 0)
(0.0025077844 -7.5943005e-08 0)
(0.0025226561 7.1822569e-08 0)
(0.0025087557 -6.7965816e-08 0)
(0.0025217365 6.43721e-08 0)
(0.0025096255 -6.1014184e-08 0)
(0.0025209117 5.789226e-08 0)
(0.002510407 -5.4982024e-08 0)
(0.0025201692 5.2284177e-08 0)
(0.0025111119 -4.9777271e-08 0)
(0.0025194978 4.7462281e-08 0)
(0.002511751 -4.5320508e-08 0)
(0.0025188874 4.3353024e-08 0)
(0.0025123339 -4.1543777e-08 0)
(0.0025183288 3.9893806e-08 0)
(0.0025128694 -3.8389607e-08 0)
(0.0025178136 3.7032109e-08 0)
(0.0025133655 -3.5810274e-08 0)
(0.002517334 3.4724934e-08 0)
(0.0025138297 -3.3767407e-08 0)
(0.0025168829 3.2938535e-08 0)
(0.0025142687 -3.2233653e-08 0)
(0.0025164526 3.1646032e-08 0)
(0.0025146892 -3.1200471e-08 0)
(0.00251605 3.0862177e-08 0)
(0.0025151745 -3.0397184e-08 0)
(0.0025159573 3.252385e-08 0)
(0.0062156167 0.0011479954 0)
(0.0085501383 -9.6308302e-07 0)
(0.0071242887 4.8430271e-06 0)
(0.0074449355 3.1750892e-07 0)
(0.0072182056 -6.0378086e-07 0)
(0.0073832482 8.1546702e-07 0)
(0.0072293475 -7.5509973e-07 0)
(0.0073699425 7.2682278e-07 0)
(0.0072389994 -6.8678909e-07 0)
(0.0073615766 6.4875391e-07 0)
(0.007246469 -6.1041245e-07 0)
(0.007354508 5.7534976e-07 0)
(0.0072529874 -5.4142704e-07 0)
(0.0073483173 5.1004005e-07 0)
(0.0072587809 -4.8026523e-07 0)
(0.0073428439 4.5246905e-07 0)
(0.0072639293 -4.2629053e-07 0)
(0.0073379903 4.0177492e-07 0)
(0.0072685035 -3.7874801e-07 0)
(0.0073336795 3.5717258e-07 0)
(0.0072725698 -3.3693282e-07 0)
(0.0073298455 3.1797834e-07 0)
(0.0072761891 -3.0021395e-07 0)
(0.0073264302 2.8359391e-07 0)
(0.0072794158 -2.6803346e-07 0)
(0.0073233819 2.5349479e-07 0)
(0.0072822989 -2.3990098e-07 0)
(0.0073206546 2.2722172e-07 0)
(0.007284882 -2.1538734e-07 0)
(0.007318207 2.0437372e-07 0)
(0.0072872042 -1.9411831e-07 0)
(0.007316002 1.8460198e-07 0)
(0.0072893006 -1.7576913e-07 0)
(0.0073140066 1.6760458e-07 0)
(0.0072912029 -1.600595e-07 0)
(0.0073121904 1.5312186e-07 0)
(0.0072929398 -1.4674939e-07 0)
(0.0073105262 1.4093254e-07 0)
(0.0072945375 -1.356354e-07 0)
(0.007308989 1.3085037e-07 0)
(0.0072960201 -1.2654782e-07 0)
(0.0073075555 1.2272151e-07 0)
(0.0072974099 -1.1934777e-07 0)
(0.0073062041 1.1642646e-07 0)
(0.0072987273 -1.1391827e-07 0)
(0.0073049122 1.1187167e-07 0)
(0.00729999 -1.1033951e-07 0)
(0.0073036788 1.0808895e-07 0)
(0.0073013716 -1.1217349e-07 0)
(0.0073032147 1.0385543e-07 0)
(0.01010355 0.0018685021 0)
(0.013797692 -4.8604479e-06 0)
(0.011699543 1.2362911e-05 0)
(0.012195798 4.8570878e-07 0)
(0.011823898 -9.3012175e-07 0)
(0.012101478 1.476445e-06 0)
(0.011843335 -1.3593177e-06 0)
(0.012080092 1.3160391e-06 0)
(0.0118597 -1.2479143e-06 0)
(0.012066147 1.1798293e-06 0)
(0.011872287 -1.1100638e-06 0)
(0.012054262 1.0467622e-06 0)
(0.011883273 -9.8485502e-07 0)
(0.012043837 9.2787401e-07 0)
(0.011893038 -8.7366221e-07 0)
(0.012034618 8.2310291e-07 0)
(0.011901715 -7.7548947e-07 0)
(0.012026442 7.308713e-07 0)
(0.011909423 -6.890037e-07 0)
(0.01201918 6.4973116e-07 0)
(0.011916276 -6.1293343e-07 0)
(0.012012721 5.7843148e-07 0)
(0.011922377 -5.4613336e-07 0)
(0.012006966 5.1588153e-07 0)
(0.011927816 -4.8758896e-07 0)
(0.012001829 4.611264e-07 0)
(0.011932677 -4.3640814e-07 0)
(0.011997232 4.1333042e-07 0)
(0.011937033 -3.9180995e-07 0)
(0.011993105 3.7176398e-07 0)
(0.01194095 -3.5311346e-07 0)
(0.011989387 3.3579244e-07 0)
(0.011944487 -3.1972759e-07 0)
(0.01198602 3.0486631e-07 0)
(0.011947698 -2.9114209e-07 0)
(0.011982955 2.785129e-07 0)
(0.011950631 -2.6691978e-07 0)
(0.011980145 2.5632902e-07 0)
(0.01195333 -2.4668974e-07 0)
(0.011977547 2.3797471e-07 0)
(0.011955837 -2.3014175e-07 0)
(0.011975124 2.231679e-07 0)
(0.011958188 -2.1701995e-07 0)
(0.011972836 2.1168853e-07 0)
(0.01196042 -2.0709484e-07 0)
(0.011970647 2.0337623e-07 0)
(0.011962561 -2.0050491e-07 0)
(0.011968542 1.9603979e-07 0)
(0.011964854 -2.0632218e-07 0)
(0.011967594 1.8766185e-07 0)
(0.013807242 0.0024808709 0)
(0.018811932 -2.2605253e-05 0)
(0.016154457 2.2694369e-05 0)
(0.016821352 5.088549e-07 0)
(0.016303649 -1.0690929e-06 0)
(0.016698214 2.0971596e-06 0)
(0.016332666 -1.928619e-06 0)
(0.016669114 1.8762246e-06 0)
(0.016356079 -1.7871378e-06 0)
(0.016649474 1.6909165e-06 0)
(0.016373972 -1.5909657e-06 0)
(0.016632607 1.500903e-06 0)
(0.016389591 -1.4118748e-06 0)
(0.016617795 1.3303351e-06 0)
(0.016403472 -1.2525624e-06 0)
(0.016604692 1.1800672e-06 0)
(0.016415806 -1.1118359e-06 0)
(0.016593072 1.0478215e-06 0)
(0.016426763 -9.8784384e-07 0)
(0.01658275 9.3149145e-07 0)
(0.016436504 -8.7877941e-07 0)
(0.016573568 8.2927274e-07 0)
(0.016445175 -7.8300459e-07 0)
(0.016565388 7.3959822e-07 0)
(0.016452907 -6.9906566e-07 0)
(0.016558086 6.6109791e-07 0)
(0.016459817 -6.2568357e-07 0)
(0.016551551 5.9257344e-07 0)
(0.01646601 -5.6173857e-07 0)
(0.016545684 5.3297878e-07 0)
(0.016471579 -5.0625419e-07 0)
(0.016540396 4.81404e-07 0)
(0.016476609 -4.583828e-07 0)
(0.016535609 4.3706123e-07 0)
(0.016481176 -4.1739258e-07 0)
(0.016531249 3.9927254e-07 0)
(0.016485348 -3.8265631e-07 0)
(0.016527252 3.6745951e-07 0)
(0.016489188 -3.5364161e-07 0)
(0.016523556 3.4113393e-07 0)
(0.016492755 -3.2990257e-07 0)
(0.016520106 3.1988965e-07 0)
(0.016496103 -3.1106998e-07 0)
(0.01651685 3.0341059e-07 0)
(0.016499281 -2.9679514e-07 0)
(0.016513732 2.9148786e-07 0)
(0.016502331 -2.8728134e-07 0)
(0.016510719 2.8036671e-07 0)
(0.01650555 -2.9938319e-07 0)
(0.016509171 2.6809114e-07 0)
(0.017569893 0.0031081176 0)
(0.02362307 -2.9559118e-05 0)
(0.020485681 3.5452426e-05 0)
(0.021321096 3.0686349e-07 0)
(0.02065752 -1.0322418e-06 0)
(0.021173372 2.6446432e-06 0)
(0.020697455 -2.4417778e-06 0)
(0.021136887 2.3829873e-06 0)
(0.020728233 -2.2826419e-06 0)
(0.021111446 2.1609781e-06 0)
(0.020751609 -2.0333605e-06 0)
(0.021089446 1.9191369e-06 0)
(0.020772016 -1.8049171e-06 0)
(0.021070104 1.7009069e-06 0)
(0.02079015 -1.6013768e-06 0)
(0.021052992 1.5087126e-06 0)
(0.02080626 -1.421494e-06 0)
(0.021037814 1.3396184e-06 0)
(0.020820571 -1.2629776e-06 0)
(0.021024332 1.1908907e-06 0)
(0.020833294 -1.1235388e-06 0)
(0.02101234 1.0602086e-06 0)
(0.020844619 -1.0010889e-06 0)
(0.021001656 9.4556403e-07 0)
(0.020854718 -8.9377054e-07 0)
(0.020992119 8.4520439e-07 0)
(0.020863743 -7.9994861e-07 0)
(0.020983583 7.575973e-07 0)
(0.020871832 -7.1819138e-07 0)
(0.02097592 6.8140535e-07 0)
(0.020879106 -6.4725034e-07 0)
(0.020969014 6.1546527e-07 0)
(0.020885676 -5.8604161e-07 0)
(0.020962761 5.5876967e-07 0)
(0.02089164 -5.336293e-07 0)
(0.020957066 5.1045168e-07 0)
(0.02089709 -4.8921116e-07 0)
(0.020951845 4.6977142e-07 0)
(0.020902106 -4.5210596e-07 0)
(0.020947017 4.3610401e-07 0)
(0.020906765 -4.2174265e-07 0)
(0.020942511 4.0892853e-07 0)
(0.020911138 -3.9764698e-07 0)
(0.020938257 3.8784088e-07 0)
(0.02091529 -3.7934936e-07 0)
(0.020934184 3.7260706e-07 0)
(0.020919276 -3.6710148e-07 0)
(0.020930237 3.5770954e-07 0)
(0.020923432 -3.8725981e-07 0)
(0.020927992 3.418495e-07 0)
(0.021114851 0.0036154194 0)
(0.028163971 -5.940986e-05 0)
(0.02469578 4.9435356e-05 0)
(0.025693908 1.9793224e-08 0)
(0.024885761 -8.3930475e-07 0)
(0.025526596 3.1157078e-06 0)
(0.024938124 -2.9039692e-06 0)
(0.025483057 2.838173e-06 0)
(0.024976506 -2.7370323e-06 0)
(0.025451746 2.5919982e-06 0)
(0.025005502 -2.4392208e-06 0)
(0.025424498 2.3032306e-06 0)
(0.025030815 -2.1656807e-06 0)
(0.025400518 2.0411643e-06 0)
(0.025053305 -1.9216056e-06 0)
(0.025379297 1.8104416e-06 0)
(0.025073283 -1.7057946e-06 0)
(0.025360476 1.6075101e-06 0)
(0.02509103 -1.5155876e-06 0)
(0.025343758 1.4290399e-06 0)
(0.025106806 -1.3482641e-06 0)
(0.025328887 1.2722289e-06 0)
(0.02512085 -1.2013246e-06 0)
(0.025315639 1.1346626e-06 0)
(0.025133372 -1.072542e-06 0)
(0.025303812 1.0142365e-06 0)
(0.025144564 -9.5995428e-07 0)
(0.025293228 9.0911154e-07 0)
(0.025154593 -8.6184351e-07 0)
(0.025283726 8.1768287e-07 0)
(0.025163613 -7.7671126e-07 0)
(0.025275163 7.385546e-07 0)
(0.025171758 -7.0325673e-07 0)
(0.02526741 6.705178e-07 0)
(0.025179154 -6.4035654e-07 0)
(0.02526035 6.1253202e-07 0)
(0.02518591 -5.8704756e-07 0)
(0.025253876 5.63709e-07 0)
(0.025192129 -5.425116e-07 0)
(0.025247891 5.232979e-07 0)
(0.025197904 -5.0606207e-07 0)
(0.025242306 4.9067137e-07 0)
(0.025203324 -4.7712707e-07 0)
(0.025237033 4.6534368e-07 0)
(0.025208471 -4.5511384e-07 0)
(0.025231985 4.4707564e-07 0)
(0.025213411 -4.4029104e-07 0)
(0.025227085 4.2844787e-07 0)
(0.025218513 -4.6982128e-07 0)
(0.02522406 4.0889858e-07 0)
(0.024671164 0.0041022427 0)
(0.032528269 -7.040856e-05 0)
(0.028788911 6.4751137e-05 0)
(0.029937428 -3.7805235e-07 0)
(0.028988506 -5.4248384e-07 0)
(0.029757495 3.5048843e-06 0)
(0.02905511 -3.3224973e-06 0)
(0.02970725 3.2447337e-06 0)
(0.029101261 -3.1541006e-06 0)
(0.029670034 2.9871025e-06 0)
(0.029135969 -2.8115769e-06 0)
(0.029637463 2.6559589e-06 0)
(0.02916627 -2.4968049e-06 0)
(0.029608771 2.3535758e-06 0)
(0.029193188 -2.2155824e-06 0)
(0.029583376 2.0874488e-06 0)
(0.029217097 -1.9668081e-06 0)
(0.029560851 1.8534472e-06 0)
(0.029238334 -1.7475137e-06 0)
(0.029540845 1.6476739e-06 0)
(0.029257213 -1.5545924e-06 0)
(0.029523049 1.4668789e-06 0)
(0.029274018 -1.3851709e-06 0)
(0.029507195 1.3082727e-06 0)
(0.029289003 -1.2366834e-06 0)
(0.029493042 1.1694274e-06 0)
(0.029302395 -1.1068681e-06 0)
(0.029480376 1.0482223e-06 0)
(0.029314396 -9.9374403e-07 0)
(0.029469006 9.4280726e-07 0)
(0.029325188 -8.9558353e-07 0)
(0.02945876 8.515727e-07 0)
(0.029334935 -8.1088648e-07 0)
(0.029449483 7.7312468e-07 0)
(0.029343783 -7.3835726e-07 0)
(0.029441036 7.0626325e-07 0)
(0.029351866 -6.7688483e-07 0)
(0.029433292 6.4996369e-07 0)
(0.029359305 -6.2552485e-07 0)
(0.029426133 6.0335905e-07 0)
(0.029366214 -5.8348399e-07 0)
(0.029419451 5.657231e-07 0)
(0.029372696 -5.5009923e-07 0)
(0.029413145 5.364935e-07 0)
(0.029378851 -5.2465274e-07 0)
(0.02940711 5.1544352e-07 0)
(0.029384759 -5.0738911e-07 0)
(0.029401244 4.9317163e-07 0)
(0.02939081 -5.4718639e-07 0)
(0.029397371 4.6958363e-07 0)
(0.028250389 0.0045735905 0)
(0.036615573 -0.00010890915 0)
(0.032765494 7.9497549e-05 0)
(0.034050038 -5.5646369e-07 0)
(0.032965569 -1.5020981e-07 0)
(0.033865751 3.8050659e-06 0)
(0.033048835 -3.6997048e-06 0)
(0.03380915 3.6030049e-06 0)
(0.033102824 -3.5346108e-06 0)
(0.033766014 3.3466817e-06 0)
(0.033143292 -3.150866e-06 0)
(0.033728077 2.977664e-06 0)
(0.033178629 -2.7986344e-06 0)
(0.033694629 2.6384538e-06 0)
(0.033210017 -2.4836058e-06 0)
(0.033665021 2.3400154e-06 0)
(0.033237893 -2.2047986e-06 0)
(0.033638759 2.0776806e-06 0)
(0.033262653 -1.9589904e-06 0)
(0.033615433 1.8470165e-06 0)
(0.033284663 -1.7427328e-06 0)
(0.033594685 1.644358e-06 0)
(0.033304256 -1.5528148e-06 0)
(0.0335762 1.4665725e-06 0)
(0.033321726 -1.3863623e-06 0)
(0.033559699 1.3109369e-06 0)
(0.033337338 -1.2408406e-06 0)
(0.033544933 1.1750738e-06 0)
(0.033351329 -1.1140291e-06 0)
(0.033531677 1.056909e-06 0)
(0.033363911 -1.003991e-06 0)
(0.033519732 9.5463845e-07 0)
(0.033375273 -9.090442e-07 0)
(0.033508918 8.6669946e-07 0)
(0.033385587 -8.277361e-07 0)
(0.033499072 7.9174659e-07 0)
(0.033395008 -7.5882055e-07 0)
(0.033490045 7.2863045e-07 0)
(0.033403679 -7.012379e-07 0)
(0.033481701 6.7637775e-07 0)
(0.033411731 -6.5409673e-07 0)
(0.033473914 6.3417097e-07 0)
(0.033419285 -6.1664979e-07 0)
(0.033466567 6.0137626e-07 0)
(0.033426456 -5.880539e-07 0)
(0.033459536 5.7779594e-07 0)
(0.03343334 -5.6848683e-07 0)
(0.033452699 5.5201785e-07 0)
(0.03344034 -6.1911344e-07 0)
(0.033447921 5.2393757e-07 0)
(0.031571251 0.0048879573 0)
(0.040537491 -0.00012511978 0)
(0.036631014 9.4775574e-05 0)
(0.038030661 -1.020073e-06 0)
(0.036816978 1.814608e-07 0)
(0.037851105 3.9843162e-06 0)
(0.036919665 -4.0391956e-06 0)
(0.037788494 3.9124958e-06 0)
(0.036981485 -3.8781424e-06 0)
(0.037739428 3.6704213e-06 0)
(0.03702772 -3.4566772e-06 0)
(0.037696109 3.2679645e-06 0)
(0.037068111 -3.0708043e-06 0)
(0.037657889 2.8954543e-06 0)
(0.037103984 -2.7253506e-06 0)
(0.037624053 2.5678377e-06 0)
(0.037135841 -2.4194769e-06 0)
(0.03759404 2.2799413e-06 0)
(0.037164136 -2.1497607e-06 0)
(0.037567382 2.0268282e-06 0)
(0.037189289 -1.9124569e-06 0)
(0.037543671 1.8044533e-06 0)
(0.037211678 -1.7040527e-06 0)
(0.037522546 1.6093722e-06 0)
(0.037231642 -1.5213974e-06 0)
(0.037503689 1.4385954e-06 0)
(0.037249484 -1.3617101e-06 0)
(0.037486814 1.2895139e-06 0)
(0.037265472 -1.222554e-06 0)
(0.037471666 1.1598518e-06 0)
(0.037279849 -1.1018035e-06 0)
(0.037458016 1.0476293e-06 0)
(0.037292832 -9.9761285e-07 0)
(0.037445659 9.5113163e-07 0)
(0.037304617 -9.0838731e-07 0)
(0.037434409 8.688819e-07 0)
(0.037315382 -8.3275882e-07 0)
(0.037424095 7.9961817e-07 0)
(0.037325288 -7.6956333e-07 0)
(0.037414562 7.4227081e-07 0)
(0.037334486 -7.1782045e-07 0)
(0.037405668 6.9593893e-07 0)
(0.037343115 -6.7670572e-07 0)
(0.037397275 6.5992234e-07 0)
(0.037351306 -6.4525248e-07 0)
(0.037389247 6.3406813e-07 0)
(0.037359167 -6.2353038e-07 0)
(0.037381436 6.0496935e-07 0)
(0.037367113 -6.8526229e-07 0)
(0.03737571 5.7193343e-07 0)
(0.03525879 0.0053529279 0)
(0.044192798 -0.0001670407 0)
(0.040375726 0.00010906905 0)
(0.0418826 -1.7061501e-06 0)
(0.0405438 3.6559074e-07 0)
(0.041713296 4.0059152e-06 0)
(0.040667885 -4.3493804e-06 0)
(0.041645013 4.1713201e-06 0)
(0.040737491 -4.1851664e-06 0)
(0.041590041 3.958023e-06 0)
(0.040789472 -3.7288987e-06 0)
(0.041541351 3.5266684e-06 0)
(0.040834909 -3.3131604e-06 0)
(0.041498368 3.12442e-06 0)
(0.040875261 -2.9406721e-06 0)
(0.04146031 2.7707796e-06 0)
(0.040911093 -2.6107126e-06 0)
(0.041426552 2.4601089e-06 0)
(0.040942918 -2.3197084e-06 0)
(0.041396567 2.1870022e-06 0)
(0.040971208 -2.0636609e-06 0)
(0.041369896 1.9470691e-06 0)
(0.04099639 -1.8387923e-06 0)
(0.041346136 1.7365862e-06 0)
(0.041018844 -1.6417061e-06 0)
(0.041324926 1.5523263e-06 0)
(0.041038911 -1.4694025e-06 0)
(0.041305946 1.391474e-06 0)
(0.041056893 -1.3192522e-06 0)
(0.041288908 1.2515737e-06 0)
(0.041073063 -1.1889616e-06 0)
(0.041273556 1.1304894e-06 0)
(0.041087664 -1.0765386e-06 0)
(0.041259658 1.0263705e-06 0)
(0.041100918 -9.8026218e-07 0)
(0.041247005 9.376232e-07 0)
(0.041113024 -8.9865536e-07 0)
(0.041235406 8.6288499e-07 0)
(0.041124164 -8.3046085e-07 0)
(0.041224687 8.0100001e-07 0)
(0.041134507 -7.7461832e-07 0)
(0.041214686 7.5099209e-07 0)
(0.041144208 -7.3023363e-07 0)
(0.041205251 7.1210019e-07 0)
(0.041153416 -6.9622012e-07 0)
(0.041196227 6.8423011e-07 0)
(0.041162254 -6.7250116e-07 0)
(0.041187447 6.5203256e-07 0)
(0.041171138 -7.4535945e-07 0)
(0.041180737 6.1361471e-07 0)
(0.038317144 0.005488839 0)
(0.047698227 -0.00019187093 0)
(0.043991825 0.00012288337 0)
(0.045611188 -1.6142536e-06 0)
(0.044150056 6.4050506e-07 0)
(0.045452574 3.9362303e-06 0)
(0.044293884 -4.6150353e-06 0)
(0.045378499 4.3840622e-06 0)
(0.044371076 -4.4548243e-06 0)
(0.045317644 4.2099583e-06 0)
(0.044428749 -3.9675831e-06 0)
(0.045263616 3.7539035e-06 0)
(0.044479201 -3.5257996e-06 0)
(0.045215899 3.3254469e-06 0)
(0.044524004 -3.1296581e-06 0)
(0.045173646 2.948926e-06 0)
(0.044563786 -2.7785831e-06 0)
(0.045136165 2.6182586e-06 0)
(0.044599119 -2.4689016e-06 0)
(0.045102874 2.3276047e-06 0)
(0.044630527 -2.1964053e-06 0)
(0.045073262 2.072264e-06 0)
(0.044658484 -1.9570871e-06 0)
(0.045046882 1.8482664e-06 0)
(0.044683413 -1.747336e-06 0)
(0.045023333 1.6521755e-06 0)
(0.044705691 -1.5639602e-06 0)
(0.04500226 1.480995e-06 0)
(0.044725655 -1.4041617e-06 0)
(0.044983344 1.3321113e-06 0)
(0.044743607 -1.2654991e-06 0)
(0.0449663 1.2032516e-06 0)
(0.044759817 -1.1458522e-06 0)
(0.044950871 1.0924458e-06 0)
(0.044774531 -1.0433886e-06 0)
(0.044936824 9.9799752e-07 0)
(0.04478797 -9.5653577e-07 0)
(0.044923948 9.184558e-07 0)
(0.044800337 -8.8395425e-07 0)
(0.044912049 8.5258871e-07 0)
(0.044811817 -8.2451299e-07 0)
(0.044900948 7.99353e-07 0)
(0.044822585 -7.7725564e-07 0)
(0.044890476 7.5793217e-07 0)
(0.044832804 -7.4098074e-07 0)
(0.044880463 7.2830286e-07 0)
(0.044842612 -7.1543162e-07 0)
(0.044870722 6.9325615e-07 0)
(0.044852425 -7.9921135e-07 0)
(0.044863002 6.4909685e-07 0)
(0.042129892 0.0059516145 0)
(0.050985142 -0.00023155466 0)
(0.047475576 0.00013372173 0)
(0.04921519 -1.4921548e-06 0)
(0.04763711 8.4190742e-07 0)
(0.049068778 3.7472455e-06 0)
(0.047797921 -4.8448557e-06 0)
(0.048988749 4.5498361e-06 0)
(0.047882444 -4.6879325e-06 0)
(0.048922045 4.4264768e-06 0)
(0.047945732 -4.1730751e-06 0)
(0.048862734 3.9499299e-06 0)
(0.048001146 -3.7089897e-06 0)
(0.048810334 3.4987753e-06 0)
(0.048050353 -3.2925393e-06 0)
(0.048763929 3.1024933e-06 0)
(0.048094044 -2.923291e-06 0)
(0.048722764 2.7545828e-06 0)
(0.048132848 -2.5975196e-06 0)
(0.0486862 2.4488065e-06 0)
(0.048167342 -2.3108488e-06 0)
(0.048653678 2.1801895e-06 0)
(0.048198045 -2.0590782e-06 0)
(0.048624704 1.9445472e-06 0)
(0.048225423 -1.8384127e-06 0)
(0.048598841 1.7382627e-06 0)
(0.04824989 -1.6454954e-06 0)
(0.048575697 1.5581836e-06 0)
(0.048271816 -1.4773827e-06 0)
(0.048554922 1.4015604e-06 0)
(0.048291531 -1.3315062e-06 0)
(0.048536203 1.2660018e-06 0)
(0.048309334 -1.2056348e-06 0)
(0.048519257 1.1494353e-06 0)
(0.048325493 -1.0978403e-06 0)
(0.04850383 1.0500757e-06 0)
(0.048340252 -1.0064675e-06 0)
(0.04848969 9.6639567e-07 0)
(0.048353832 -9.3010591e-07 0)
(0.048476623 8.970973e-07 0)
(0.048366439 -8.6756274e-07 0)
(0.048464433 8.4107857e-07 0)
(0.048378262 -8.178273e-07 0)
(0.048452935 7.9747312e-07 0)
(0.048389482 -7.7958983e-07 0)
(0.048441944 7.6633833e-07 0)
(0.04840025 -7.5238534e-07 0)
(0.048431253 7.2871387e-07 0)
(0.048410978 -8.4668466e-07 0)
(0.048422505 6.7854298e-07 0)
(0.044942346 0.0059425239 0)
(0.054135761 -0.00026126965 0)
(0.050836159 0.00014219799 0)
(0.05269288 -1.9891579e-06 0)
(0.051004908 8.4570544e-07 0)
(0.052561747 3.4356503e-06 0)
(0.051180184 -5.0421327e-06 0)
(0.052475591 4.6695832e-06 0)
(0.05127179 -4.8847414e-06 0)
(0.052403079 4.6082258e-06 0)
(0.051340585 -4.345735e-06 0)
(0.052338555 4.1151695e-06 0)
(0.051400886 -3.8630903e-06 0)
(0.052281537 3.6447589e-06 0)
(0.051454435 -3.4296411e-06 0)
(0.05223104 3.2317919e-06 0)
(0.051501979 -3.0451253e-06 0)
(0.052186244 2.8693564e-06 0)
(0.051544203 -2.7058187e-06 0)
(0.052146454 2.5508511e-06 0)
(0.051581738 -2.4072192e-06 0)
(0.052111062 2.2710618e-06 0)
(0.051615149 -2.1449679e-06 0)
(0.052079532 2.0256209e-06 0)
(0.051644942 -1.9151164e-06 0)
(0.052051387 1.8107593e-06 0)
(0.051671566 -1.7141689e-06 0)
(0.052026201 1.6231929e-06 0)
(0.051695425 -1.5390594e-06 0)
(0.052003593 1.4600578e-06 0)
(0.051716879 -1.3871122e-06 0)
(0.051983222 1.3188634e-06 0)
(0.051736253 -1.2560032e-06 0)
(0.051964782 1.1974505e-06 0)
(0.051753837 -1.1437232e-06 0)
(0.051947994 1.0939591e-06 0)
(0.051769897 -1.0485474e-06 0)
(0.051932607 1.0067976e-06 0)
(0.051784674 -9.6900492e-07 0)
(0.051918389 9.3461194e-07 0)
(0.051798391 -9.0385076e-07 0)
(0.051905125 8.7624976e-07 0)
(0.051811255 -8.5202733e-07 0)
(0.051892615 8.3080046e-07 0)
(0.051823461 -8.1212462e-07 0)
(0.05188066 7.9840995e-07 0)
(0.051835177 -7.8344725e-07 0)
(0.051869034 7.5849592e-07 0)
(0.051846805 -8.8769474e-07 0)
(0.051859249 7.0214988e-07 0)
(0.048751671 0.0063485915 0)
(0.057117503 -0.00029628925 0)
(0.054070878 0.00014964779 0)
(0.056046542 -2.161789e-06 0)
(0.054253508 8.2940157e-07 0)
(0.055931501 3.0602046e-06 0)
(0.054440876 -5.195875e-06 0)
(0.055838861 4.7469842e-06 0)
(0.054539275 -5.0451872e-06 0)
(0.055760591 4.7559649e-06 0)
(0.054613452 -4.4860704e-06 0)
(0.055690942 4.250127e-06 0)
(0.05467855 -3.9885742e-06 0)
(0.055629389 3.7638399e-06 0)
(0.054736361 -3.541381e-06 0)
(0.055574872 3.3372156e-06 0)
(0.054787688 -3.1444553e-06 0)
(0.05552651 2.9629288e-06 0)
(0.054833273 -2.7941261e-06 0)
(0.055483552 2.6340486e-06 0)
(0.054873794 -2.4858068e-06 0)
(0.055445343 2.3451562e-06 0)
(0.054909864 -2.2150146e-06 0)
(0.055411302 2.0917325e-06 0)
(0.054942028 -1.9776773e-06 0)
(0.055380916 1.8698835e-06 0)
(0.054970771 -1.7701861e-06 0)
(0.055353723 1.6762179e-06 0)
(0.054996529 -1.5893755e-06 0)
(0.055329315 1.5077785e-06 0)
(0.055019692 -1.4324824e-06 0)
(0.055307322 1.3619936e-06 0)
(0.055040607 -1.2971064e-06 0)
(0.055287413 1.2366334e-06 0)
(0.055059591 -1.1811725e-06 0)
(0.055269289 1.129777e-06 0)
(0.055076929 -1.0828987e-06 0)
(0.055252677 1.03978e-06 0)
(0.055092883 -1.000765e-06 0)
(0.055237327 9.6524231e-07 0)
(0.055107691 -9.3348282e-07 0)
(0.055223008 9.0496933e-07 0)
(0.055121578 -8.7995564e-07 0)
(0.055209504 8.5801214e-07 0)
(0.055134753 -8.386822e-07 0)
(0.055196601 8.2461064e-07 0)
(0.0551474 -8.0872129e-07 0)
(0.055184059 7.8270778e-07 0)
(0.05515991 -9.2220127e-07 0)
(0.055173233 7.2014003e-07 0)
(0.051501227 0.0062790763 0)
(0.05997097 -0.0003312902 0)
(0.057182829 0.00015402608 0)
(0.059277103 -2.4795204e-06 0)
(0.057382559 6.9307177e-07 0)
(0.059177903 2.6113912e-06 0)
(0.057580115 -5.309604e-06 0)
(0.059078392 4.7822906e-06 0)
(0.057685039 -5.1699674e-06 0)
(0.058994441 4.8704606e-06 0)
(0.057764463 -4.5946898e-06 0)
(0.058919774 4.3554208e-06 0)
(0.057834253 -4.0859981e-06 0)
(0.058853782 3.8565552e-06 0)
(0.057896235 -3.6282575e-06 0)
(0.058795332 3.4192377e-06 0)
(0.057951263 -3.2217234e-06 0)
(0.05874348 3.0357191e-06 0)
(0.058000135 -2.8628345e-06 0)
(0.058697422 2.6987709e-06 0)
(0.058043579 -2.5469605e-06 0)
(0.058656454 2.4028032e-06 0)
(0.058082251 -2.2695287e-06 0)
(0.058619957 2.143176e-06 0)
(0.058116734 -2.0263718e-06 0)
(0.058587376 1.9158975e-06 0)
(0.058147552 -1.8137941e-06 0)
(0.058558221 1.717493e-06 0)
(0.058175169 -1.6285523e-06 0)
(0.05853205 1.5449325e-06 0)
(0.058200003 -1.4678154e-06 0)
(0.058508469 1.3955815e-06 0)
(0.058222428 -1.3291237e-06 0)
(0.058487123 1.2671552e-06 0)
(0.058242783 -1.2103507e-06 0)
(0.05846769 1.157685e-06 0)
(0.058261372 -1.1096701e-06 0)
(0.058449878 1.0654855e-06 0)
(0.058278477 -1.0255228e-06 0)
(0.05843342 9.8912023e-07 0)
(0.058294354 -9.5658613e-07 0)
(0.058418068 9.2736072e-07 0)
(0.058309242 -9.0173207e-07 0)
(0.058403591 8.792255e-07 0)
(0.058323367 -8.5937832e-07 0)
(0.058389761 8.4505179e-07 0)
(0.058336925 -8.2832901e-07 0)
(0.058376323 8.0146943e-07 0)
(0.058350296 -9.5020462e-07 0)
(0.058364459 7.3275575e-07 0)
(0.055203931 0.0065572471 0)
(0.062703074 -0.00036206435 0)
(0.060175926 0.00015658983 0)
(0.062387339 -2.892827e-06 0)
(0.060391397 4.7323494e-07 0)
(0.062300872 2.1075998e-06 0)
(0.060598065 -5.3775729e-06 0)
(0.062194059 4.7782058e-06 0)
(0.060709217 -5.259375e-06 0)
(0.062104508 4.9526535e-06 0)
(0.060793733 -4.672299e-06 0)
(0.062024941 4.4317473e-06 0)
(0.060868096 -4.1560107e-06 0)
(0.061954619 3.9235173e-06 0)
(0.060934144 -3.6908459e-06 0)
(0.061892334 3.4784015e-06 0)
(0.060992783 -3.2774395e-06 0)
(0.061837079 3.0882095e-06 0)
(0.06104486 -2.9123962e-06 0)
(0.061787996 2.745446e-06 0)
(0.061091154 -2.5910822e-06 0)
(0.061744339 2.444383e-06 0)
(0.061132363 -2.3088675e-06 0)
(0.061705445 2.1802898e-06 0)
(0.06116911 -2.0615187e-06 0)
(0.061670725 1.9491031e-06 0)
(0.06120195 -1.8452773e-06 0)
(0.061639655 1.7472878e-06 0)
(0.06123138 -1.6568445e-06 0)
(0.061611765 1.5717618e-06 0)
(0.061257845 -1.49334e-06 0)
(0.061586635 1.4198448e-06 0)
(0.061281743 -1.3522616e-06 0)
(0.061563886 1.2892126e-06 0)
(0.061303434 -1.2314453e-06 0)
(0.061543176 1.1778623e-06 0)
(0.061323245 -1.1290325e-06 0)
(0.061524194 1.0840784e-06 0)
(0.061341473 -1.043436e-06 0)
(0.061506655 1.0063977e-06 0)
(0.061358393 -9.7330722e-07 0)
(0.061490294 9.4356604e-07 0)
(0.061374258 -9.1749464e-07 0)
(0.061474867 8.9457553e-07 0)
(0.06138931 -8.7434576e-07 0)
(0.061460132 8.5986164e-07 0)
(0.061403757 -8.4240785e-07 0)
(0.061445821 8.1491443e-07 0)
(0.061417968 -9.7174247e-07 0)
(0.061432928 7.4025328e-07 0)
(0.058068657 0.0064746911 0)
(0.065327629 -0.00039385236 0)
(0.063048913 0.00015602964 0)
(0.065380195 -3.4347679e-06 0)
(0.06327975 1.8373574e-07 0)
(0.065300344 1.5472455e-06 0)
(0.063494839 -5.3990882e-06 0)
(0.065185731 4.7358007e-06 0)
(0.063611919 -5.3141622e-06 0)
(0.06509068 5.0034926e-06 0)
(0.063701364 -4.7196962e-06 0)
(0.065006346 4.4798857e-06 0)
(0.06378017 -4.1993321e-06 0)
(0.064931817 3.9654112e-06 0)
(0.06385017 -3.7297871e-06 0)
(0.064865803 3.5153135e-06 0)
(0.063912317 -3.3121722e-06 0)
(0.064807239 3.1209376e-06 0)
(0.06396751 -2.943316e-06 0)
(0.064755218 2.7745509e-06 0)
(0.064016574 -2.6186205e-06 0)
(0.064708946 2.4703199e-06 0)
(0.064060249 -2.3334302e-06 0)
(0.064667722 2.2034514e-06 0)
(0.064099196 -2.0834735e-06 0)
(0.064630922 1.9698371e-06 0)
(0.064134002 -1.8649535e-06 0)
(0.06459799 1.7659037e-06 0)
(0.064165195 -1.6745367e-06 0)
(0.064568429 1.5885364e-06 0)
(0.064193245 -1.5093124e-06 0)
(0.064541792 1.4350269e-06 0)
(0.064218575 -1.3667512e-06 0)
(0.06451768 1.303026e-06 0)
(0.064241567 -1.2446659e-06 0)
(0.064495728 1.1905092e-06 0)
(0.064262565 -1.1411776e-06 0)
(0.064475608 1.0957422e-06 0)
(0.064281886 -1.0546808e-06 0)
(0.064457017 1.0172444e-06 0)
(0.06429982 -9.8381006e-07 0)
(0.064439676 9.5374422e-07 0)
(0.064316636 -9.2739763e-07 0)
(0.064423324 9.0421299e-07 0)
(0.064332588 -8.8373252e-07 0)
(0.064407709 8.6918354e-07 0)
(0.064347901 -8.5110923e-07 0)
(0.064392551 8.2318846e-07 0)
(0.064362927 -9.8688596e-07 0)
(0.064378643 7.4289815e-07 0)
(0.061650823 0.0066269216 0)
(0.067857916 -0.00041956423 0)
(0.065801038 0.00015433863 0)
(0.068258931 -4.1998495e-06 0)
(0.066047535 -1.5793856e-07 0)
(0.068176322 9.2041946e-07 0)
(0.066270584 -5.3751595e-06 0)
(0.068053311 4.6557024e-06 0)
(0.066393248 -5.3354778e-06 0)
(0.06795286 5.0238616e-06 0)
(0.066487446 -4.7378131e-06 0)
(0.067863905 4.5006603e-06 0)
(0.066570555 -4.2167585e-06 0)
(0.067785298 3.9829805e-06 0)
(0.066644383 -3.7457824e-06 0)
(0.067715673 3.5306348e-06 0)
(0.066709928 -3.3265428e-06 0)
(0.067653904 3.1344899e-06 0)
(0.066768139 -2.9561453e-06 0)
(0.067599035 2.7866067e-06 0)
(0.066819887 -2.6300651e-06 0)
(0.067550229 2.4810768e-06 0)
(0.066865952 -2.3436528e-06 0)
(0.067506748 2.2130734e-06 0)
(0.066907029 -2.0926251e-06 0)
(0.067467933 1.9784674e-06 0)
(0.066943741 -1.8731701e-06 0)
(0.067433197 1.7736696e-06 0)
(0.066976642 -1.6819402e-06 0)
(0.067402016 1.5955517e-06 0)
(0.067006229 -1.516012e-06 0)
(0.067373919 1.4413936e-06 0)
(0.067032947 -1.3728449e-06 0)
(0.067348485 1.3088358e-06 0)
(0.067057198 -1.2502417e-06 0)
(0.06732533 1.1958448e-06 0)
(0.067079348 -1.1463147e-06 0)
(0.067304106 1.100678e-06 0)
(0.067099728 -1.0594501e-06 0)
(0.067284495 1.0218465e-06 0)
(0.067118645 -9.8827398e-07 0)
(0.067266203 9.5806906e-07 0)
(0.067136383 -9.316098e-07 0)
(0.067248955 9.0830273e-07 0)
(0.067153209 -8.8770018e-07 0)
(0.067232487 8.7317436e-07 0)
(0.067169362 -8.5459689e-07 0)
(0.067216508 8.2644828e-07 0)
(0.067185177 -9.957367e-07 0)
(0.067201604 7.4096078e-07 0)
(0.064520032 0.0065161547 0)
(0.070290651 -0.00044569091 0)
(0.068433512 0.00014948646 0)
(0.07101952 -4.9665002e-06 0)
(0.068695335 -4.5285077e-07 0)
(0.070928622 2.5100697e-07 0)
(0.068925399 -5.2963245e-06 0)
(0.070796677 4.5421037e-06 0)
(0.069053275 -5.3234008e-06 0)
(0.070690954 5.0150642e-06 0)
(0.069152053 -4.727545e-06 0)
(0.07059754 4.4949839e-06 0)
(0.069239319 -4.209139e-06 0)
(0.070514997 3.9770234e-06 0)
(0.069316845 -3.7395859e-06 0)
(0.070441884 3.5250744e-06 0)
(0.069385671 -3.3212189e-06 0)
(0.07037702 3.1294963e-06 0)
(0.069446797 -2.9514765e-06 0)
(0.070319401 2.7821728e-06 0)
(0.069501136 -2.6259428e-06 0)
(0.070268149 2.4771513e-06 0)
(0.069549508 -2.3400041e-06 0)
(0.070222488 2.2095988e-06 0)
(0.069592644 -2.0893913e-06 0)
(0.070181726 1.9753895e-06 0)
(0.069631196 -1.8703005e-06 0)
(0.070145247 1.7709394e-06 0)
(0.069665747 -1.6793896e-06 0)
(0.070112502 1.593125e-06 0)
(0.069696817 -1.5137399e-06 0)
(0.070082996 1.439231e-06 0)
(0.069724876 -1.3708146e-06 0)
(0.070056284 1.3069011e-06 0)
(0.069750344 -1.2484195e-06 0)
(0.070031966 1.1941049e-06 0)
(0.069773606 -1.1446693e-06 0)
(0.070009676 1.0991019e-06 0)
(0.06979501 -1.0579517e-06 0)
(0.06998908 1.020404e-06 0)
(0.069814878 -9.8689219e-07 0)
(0.069969869 9.5672778e-07 0)
(0.069833506 -9.3031287e-07 0)
(0.069951755 9.0702217e-07 0)
(0.069851176 -8.8642244e-07 0)
(0.069934462 8.7200311e-07 0)
(0.069868141 -8.5304543e-07 0)
(0.069917691 8.2486045e-07 0)
(0.069884718 -9.9842347e-07 0)
(0.069901813 7.3471331e-07 0)
(0.067899512 0.0065579122 0)
(0.072645047 -0.00046477447 0)
(0.070956383 0.0001434265 0)
(0.073655308 -5.6510587e-06 0)
(0.071223581 -6.4037903e-07 0)
(0.073556788 -4.4503088e-07 0)
(0.071459337 -5.155222e-06 0)
(0.07341572 4.3987328e-06 0)
(0.071592063 -5.278254e-06 0)