/*--------------------------------*- C++ -*----------------------------------*\
| =========                 |                                                 |
| \\      /  F ield         | OpenFOAM: The Open Source CFD Toolbox           |
|  \\    /   O peration     | Version:  2312                                  |
|   \\  /    A nd           | Website:  www.openfoam.com                      |
|    \\/     M anipulation  |                                                 |
\*---------------------------------------------------------------------------*/
FoamFile
{
    version     2.0;
    format      ascii;
    arch        "LSB;label=32;scalar=64";
    class       volSymmTensorField;
    location    "10";
    object      sigma_0;
}
// * * * * * * * * * * * * * * * * * * * * * * * * * * * * * * * * * * * * * //

dimensions      [0 2 -2 0 0 0 0];

internalField   nonuniform List<symmTensor> 
4000
(
(-4.0554364 -1.8245347 0 -0.7656772 0 0)
(-13.097748 -0.71694078 0 -0.012465807 0 0)
(-4.2910134 -0.37926823 0 -0.0024085671 0 0)
(-4.7223384 -0.39520905 0 0.0002663467 0 0)
(-4.2628565 -0.37764148 0 -0.00020773847 0 0)
(-4.1602534 -0.37226533 0 2.45693e-05 0 0)
(-4.1911406 -0.3741054 0 -6.2597248e-05 0 0)
(-4.064986 -0.36798148 0 1.241625e-05 0 0)
(-4.1275442 -0.37110034 0 -3.2510492e-05 0 0)
(-4.0522497 -0.36739269 0 2.1815975e-05 0 0)
(-4.1087612 -0.37021502 0 -2.5080493e-05 0 0)
(-4.0547021 -0.3675133 0 2.2566362e-05 0 0)
(-4.1025123 -0.36991741 0 -2.2201491e-05 0 0)
(-4.0578251 -0.36766599 0 2.0900782e-05 0 0)
(-4.0992635 -0.36975941 0 -1.99697e-05 0 0)
(-4.0602661 -0.36778708 0 1.8839419e-05 0 0)
(-4.0968239 -0.369639 0 -1.787696e-05 0 0)
(-4.0623698 -0.36789218 0 1.6864127e-05 0 0)
(-4.0947319 -0.36953497 0 -1.5962649e-05 0 0)
(-4.0642784 -0.3679878 0 1.5067476e-05 0 0)
(-4.092875 -0.36944219 0 -1.4251288e-05 0 0)
(-4.0660093 -0.36807472 0 1.3462503e-05 0 0)
(-4.091215 -0.36935898 0 -1.2735908e-05 0 0)
(-4.0675686 -0.36815316 0 1.2042869e-05 0 0)
(-4.0897301 -0.36928441 0 -1.1402335e-05 0 0)
(-4.0689675 -0.36822359 0 1.0795652e-05 0 0)
(-4.0884018 -0.36921766 0 -1.0234706e-05 0 0)
(-4.0702214 -0.36828669 0 9.7057145e-06 0 0)
(-4.087212 -0.3691579 0 -9.2170441e-06 0 0)
(-4.0713466 -0.36834322 0 8.7577545e-06 0 0)
(-4.0861435 -0.36910434 0 -8.3342186e-06 0 0)
(-4.0723594 -0.36839398 0 7.9374539e-06 0 0)
(-4.08518 -0.36905618 0 -7.5725626e-06 0 0)
(-4.0732751 -0.36843971 0 7.2320621e-06 0 0)
(-4.0843068 -0.36901269 0 -6.920167e-06 0 0)
(-4.0741076 -0.36848111 0 6.6306072e-06 0 0)
(-4.0835106 -0.36897321 0 -6.366937e-06 0 0)
(-4.0748694 -0.3685188 0 6.123891e-06 0 0)
(-4.0827795 -0.36893716 0 -5.9045218e-06 0 0)
(-4.0755719 -0.36855335 0 5.7043925e-06 0 0)
(-4.0821025 -0.36890399 0 -5.5262076e-06 0 0)
(-4.0762251 -0.36858526 0 5.3662579e-06 0 0)
(-4.0814702 -0.36887322 0 -5.2266612e-06 0 0)
(-4.0768392 -0.36861502 0 5.1057694e-06 0 0)
(-4.0808754 -0.36884452 0 -5.0024085e-06 0 0)
(-4.0774256 -0.36864318 0 4.9173881e-06 0 0)
(-4.0803035 -0.36881731 0 -4.8722114e-06 0 0)
(-4.0779361 -0.36866789 0 4.7475587e-06 0 0)
(-4.0795282 -0.36878211 0 -4.9765358e-06 0 0)
(-4.0777687 -0.36866023 0 4.8089813e-06 0 0)
(-3.154667 -1.551488 0 -0.69282693 0 0)
(-10.716857 -0.69646365 0 -0.026194435 0 0)
(-5.0634498 -0.43089391 0 -0.0071691326 0 0)
(-4.3754426 -0.37877395 0 0.0002547003 0 0)
(-3.9622842 -0.36551378 0 -0.0005246317 0 0)
(-3.838307 -0.35763309 0 2.3106198e-06 0 0)
(-3.879342 -0.36026349 0 -0.00011909767 0 0)
(-3.7718771 -0.35450378 0 -2.1572914e-05 0 0)
(-3.8222229 -0.35721196 0 -4.4311088e-05 0 0)
(-3.7583566 -0.35377588 0 1.5025887e-05 0 0)
(-3.8049534 -0.3563231 0 -2.7634168e-05 0 0)
(-3.7594992 -0.35382867 0 2.2704809e-05 0 0)
(-3.7995584 -0.3560481 0 -2.3818261e-05 0 0)
(-3.7619665 -0.35395881 0 2.2261331e-05 0 0)
(-3.7968476 -0.35590526 0 -2.1564818e-05 0 0)
(-3.7640036 -0.35407001 0 2.0272869e-05 0 0)
(-3.7947872 -0.35579338 0 -1.9336608e-05 0 0)
(-3.7657774 -0.35416819 0 1.8187295e-05 0 0)
(-3.7930096 -0.35569568 0 -1.7250978e-05 0 0)
(-3.7673881 -0.35425769 0 1.6258468e-05 0 0)
(-3.7914348 -0.35560869 0 -1.5389835e-05 0 0)
(-3.7688467 -0.35433885 0 1.4528266e-05 0 0)
(-3.7900311 -0.35553096 0 -1.3748236e-05 0 0)
(-3.7701585 -0.35441189 0 1.2996928e-05 0 0)
(-3.788778 -0.3554615 0 -1.2307274e-05 0 0)
(-3.7713344 -0.35447733 0 1.1651942e-05 0 0)
(-3.7876582 -0.35539945 0 -1.1047449e-05 0 0)
(-3.7723879 -0.35453588 0 1.0476997e-05 0 0)
(-3.7866553 -0.35534395 0 -9.9502764e-06 0 0)
(-3.7733336 -0.35458833 0 9.4553694e-06 0 0)
(-3.7857544 -0.3552942 0 -8.9988491e-06 0 0)
(-3.7741855 -0.35463543 0 8.5714782e-06 0 0)
(-3.7849414 -0.35524945 0 -8.1782111e-06 0 0)
(-3.7749564 -0.35467789 0 7.8115603e-06 0 0)
(-3.7842041 -0.35520902 0 -7.4755126e-06 0 0)
(-3.7756579 -0.35471635 0 7.163875e-06 0 0)
(-3.7835312 -0.3551723 0 -6.8799845e-06 0 0)
(-3.7763007 -0.3547514 0 6.6186798e-06 0 0)
(-3.7829126 -0.35513873 0 -6.3828447e-06 0 0)
(-3.7768941 -0.35478355 0 6.1681305e-06 0 0)
(-3.7823393 -0.35510783 0 -5.9772302e-06 0 0)
(-3.7774467 -0.35481327 0 5.8064308e-06 0 0)
(-3.7818029 -0.35507914 0 -5.6577201e-06 0 0)
(-3.7779668 -0.35484098 0 5.5315332e-06 0 0)
(-3.7812976 -0.35505234 0 -5.4203727e-06 0 0)
(-3.7784656 -0.35486729 0 5.3380534e-06 0 0)
(-3.7808176 -0.35502738 0 -5.3112141e-06 0 0)
(-3.7789261 -0.35489212 0 5.0910878e-06 0 0)
(-3.7802219 -0.35499978 0 -5.7539978e-06 0 0)
(-3.7789064 -0.35489135 0 5.1182636e-06 0 0)
(-3.2192658 -1.5692218 0 -0.68712123 0 0)
(-8.904705 -0.64036202 0 -0.031137082 0 0)
(-5.0097964 -0.44349958 0 -0.010823501 0 0)
(-4.2533886 -0.37317585 0 1.520574e-05 0 0)
(-3.7732889 -0.35741159 0 -0.00078368209 0 0)
(-3.6328816 -0.34791841 0 -1.5861475e-05 0 0)
(-3.6727664 -0.35076258 0 -0.00015325711 0 0)
(-3.5794639 -0.34539544 0 -5.0764528e-05 0 0)
(-3.6242994 -0.34790676 0 -5.0378885e-05 0 0)
(-3.5673684 -0.34465 0 6.9532606e-06 0 0)
(-3.60847 -0.34703383 0 -2.7043733e-05 0 0)
(-3.5680052 -0.34467023 0 2.0327526e-05 0 0)
(-3.6035438 -0.34677103 0 -2.260718e-05 0 0)
(-3.570124 -0.34478854 0 2.0986861e-05 0 0)
(-3.6011281 -0.34663694 0 -2.0541565e-05 0 0)
(-3.5719359 -0.34489417 0 1.9248557e-05 0 0)
(-3.5992946 -0.34653074 0 -1.8436493e-05 0 0)
(-3.5735203 -0.34498801 0 1.7291811e-05 0 0)
(-3.59771 -0.34643751 0 -1.6433432e-05 0 0)
(-3.5749573 -0.34507346 0 1.5464569e-05 0 0)
(-3.5963079 -0.3463546 0 -1.4650205e-05 0 0)
(-3.5762567 -0.34515081 0 1.3820316e-05 0 0)
(-3.5950605 -0.34628068 0 -1.3082678e-05 0 0)
(-3.5774239 -0.34522029 0 1.2363822e-05 0 0)
(-3.5939485 -0.34621474 0 -1.1709547e-05 0 0)
(-3.5784691 -0.34528246 0 1.1084476e-05 0 0)
(-3.5929555 -0.34615589 0 -1.051031e-05 0 0)
(-3.5794053 -0.34533805 0 9.9669608e-06 0 0)
(-3.5920664 -0.34610328 0 -9.4664241e-06 0 0)
(-3.5802457 -0.34538784 0 8.995304e-06 0 0)
(-3.5912676 -0.34605612 0 -8.5613708e-06 0 0)
(-3.5810027 -0.34543256 0 8.1546275e-06 0 0)
(-3.5905466 -0.34601368 0 -7.7807683e-06 0 0)
(-3.581688 -0.3454729 0 7.4318503e-06 0 0)
(-3.5898924 -0.34597531 0 -7.1123906e-06 0 0)
(-3.5823119 -0.34550947 0 6.8158826e-06 0 0)
(-3.5892951 -0.34594043 0 -6.546085e-06 0 0)
(-3.5828837 -0.34554281 0 6.2975995e-06 0 0)
(-3.5887458 -0.34590852 0 -6.073676e-06 0 0)
(-3.5834117 -0.34557342 0 5.8697613e-06 0 0)
(-3.5882364 -0.34587911 0 -5.6889605e-06 0 0)
(-3.5839036 -0.34560173 0 5.5272733e-06 0 0)
(-3.5877596 -0.34585179 0 -5.3871621e-06 0 0)
(-3.5843667 -0.34562815 0 5.2698271e-06 0 0)
(-3.5873098 -0.34582622 0 -5.1641375e-06 0 0)
(-3.5848112 -0.34565323 0 5.0951366e-06 0 0)
(-3.5868836 -0.34580251 0 -5.0781936e-06 0 0)
(-3.5852291 -0.34567757 0 4.8306378e-06 0 0)
(-3.5863702 -0.3457783 0 -5.7264474e-06 0 0)
(-3.5852727 -0.34567839 0 5.2352699e-06 0 0)
(-2.961921 -1.4364239 0 -0.60621868 0 0)
(-7.8935148 -0.6081429 0 -0.034081787 0 0)
(-4.9215974 -0.45501889 0 -0.014638705 0 0)
(-4.1449545 -0.36810245 0 -0.0002181761 0 0)
(-3.6055972 -0.35013012 0 -0.0011147624 0 0)
(-3.4382314 -0.33839897 0 -4.1115846e-05 0 0)
(-3.4730091 -0.34127195 0 -0.00018859505 0 0)
(-3.3911814 -0.33626956 0 -8.3802853e-05 0 0)
(-3.4320958 -0.33860388 0 -5.4267441e-05 0 0)
(-3.3809087 -0.3355239 0 -3.8096159e-06 0 0)
(-3.4176709 -0.33774925 0 -2.4357742e-05 0 0)
(-3.3812021 -0.33551259 0 1.5909863e-05 0 0)
(-3.4131147 -0.33749639 0 -1.9471624e-05 0 0)
(-3.3830222 -0.33561898 0 1.7917469e-05 0 0)
(-3.4109228 -0.33737014 0 -1.780379e-05 0 0)
(-3.3846459 -0.33571901 0 1.6608209e-05 0 0)
(-3.4092681 -0.3372694 0 -1.6005122e-05 0 0)
(-3.3860749 -0.33580837 0 1.4947907e-05 0 0)
(-3.4078371 -0.33718061 0 -1.4246805e-05 0 0)
(-3.3873691 -0.33588961 0 1.3376606e-05 0 0)
(-3.4065725 -0.33710176 0 -1.2687325e-05 0 0)
(-3.3885375 -0.33596299 0 1.195667e-05 0 0)
(-3.4054491 -0.3370316 0 -1.1323979e-05 0 0)
(-3.3895859 -0.33602882 0 1.0697502e-05 0 0)
(-3.4044488 -0.33696912 0 -1.0133543e-05 0 0)
(-3.3905243 -0.33608767 0 9.5913234e-06 0 0)
(-3.4035561 -0.33691338 0 -9.0954714e-06 0 0)
(-3.3913646 -0.33614028 0 8.6250426e-06 0 0)
(-3.4027571 -0.33686355 0 -8.1923908e-06 0 0)
(-3.3921189 -0.33618742 0 7.7847511e-06 0 0)
(-3.4020391 -0.33681887 0 -7.4094552e-06 0 0)
(-3.3927985 -0.33622978 0 7.0575335e-06 0 0)
(-3.4013911 -0.33677864 0 -6.7340521e-06 0 0)
(-3.3934138 -0.33626801 0 6.4321156e-06 0 0)
(-3.4008031 -0.33674224 0 -6.1556203e-06 0 0)
(-3.393974 -0.33630269 0 5.8990078e-06 0 0)
(-3.4002662 -0.33670912 0 -5.66548e-06 0 0)
(-3.3944874 -0.33633435 0 5.4504605e-06 0 0)
(-3.3997726 -0.3366788 0 -5.256721e-06 0 0)
(-3.3949615 -0.33636343 0 5.0803889e-06 0 0)
(-3.3993149 -0.33665084 0 -4.9242341e-06 0 0)
(-3.395403 -0.33639036 0 4.7846904e-06 0 0)
(-3.3988866 -0.33662483 0 -4.6640007e-06 0 0)
(-3.3958186 -0.33641551 0 4.5646889e-06 0 0)
(-3.3984825 -0.33660044 0 -4.4710939e-06 0 0)
(-3.3962175 -0.3364394 0 4.4199526e-06 0 0)
(-3.3981012 -0.3365779 0 -4.4148777e-06 0 0)
(-3.3965993 -0.33646328 0 4.1248944e-06 0 0)
(-3.3976592 -0.33655686 0 -5.2747429e-06 0 0)
(-3.3966997 -0.33646605 0 4.8182826e-06 0 0)
(-2.8001112 -1.3398684 0 -0.54894541 0 0)
(-6.8757343 -0.57352359 0 -0.035931344 0 0)
(-4.7068066 -0.45809143 0 -0.017743134 0 0)
(-4.0134252 -0.36239749 0 -0.00047426493 0 0)
(-3.4487408 -0.34305379 0 -0.0014685273 0 0)
(-3.2539243 -0.32901761 0 -6.3983163e-05 0 0)
(-3.2792293 -0.33172499 0 -0.00021895974 0 0)
(-3.2070577 -0.32707656 0 -0.00011139363 0 0)
(-3.2450858 -0.32928631 0 -5.6821502e-05 0 0)
(-3.1989924 -0.32637945 0 -1.3425159e-05 0 0)
(-3.2322359 -0.32846877 0 -2.1758204e-05 0 0)
(-3.1991838 -0.32634791 0 1.1884784e-05 0 0)
(-3.2280436 -0.32822626 0 -1.6492453e-05 0 0)
(-3.2007704 -0.32644463 0 1.5061041e-05 0 0)
(-3.226039 -0.32810694 0 -1.520452e-05 0 0)
(-3.2022349 -0.32653979 0 1.4120615e-05 0 0)
(-3.224536 -0.32801124 0 -1.3700958e-05 0 0)
(-3.2035325 -0.32662511 0 1.273266e-05 0 0)
(-3.2232373 -0.32792664 0 -1.2178122e-05 0 0)
(-3.2047057 -0.32670245 0 1.1403557e-05 0 0)
(-3.2220909 -0.32785163 0 -1.0832545e-05 0 0)
(-3.205763 -0.32677217 0 1.0196736e-05 0 0)
(-3.2210739 -0.32778501 0 -9.6634176e-06 0 0)
(-3.2067107 -0.32683461 0 9.1246594e-06 0 0)
(-3.2201693 -0.32772573 0 -8.6461063e-06 0 0)
(-3.2075585 -0.32689042 0 8.1822472e-06 0 0)
(-3.2193622 -0.32767288 0 -7.7603368e-06 0 0)
(-3.2083177 -0.32694031 0 7.3587013e-06 0 0)
(-3.2186399 -0.32762563 0 -6.9900728e-06 0 0)
(-3.2089992 -0.32698501 0 6.6422246e-06 0 0)
(-3.217991 -0.32758324 0 -6.3221911e-06 0 0)
(-3.2096133 -0.32702521 0 6.0218517e-06 0 0)
(-3.2174052 -0.32754505 0 -5.7458226e-06 0 0)
(-3.2101693 -0.32706151 0 5.4880523e-06 0 0)
(-3.2168737 -0.32751047 0 -5.2519945e-06 0 0)
(-3.2106755 -0.32709447 0 5.0328401e-06 0 0)
(-3.2163885 -0.327479 0 -4.8333932e-06 0 0)
(-3.2111393 -0.32712457 0 4.6497204e-06 0 0)
(-3.2159424 -0.32745016 0 -4.4842392e-06 0 0)
(-3.2115675 -0.32715224 0 4.333611e-06 0 0)
(-3.2155291 -0.32742355 0 -4.2003362e-06 0 0)
(-3.2119661 -0.32717788 0 4.0811647e-06 0 0)
(-3.2151425 -0.32739878 0 -3.9781915e-06 0 0)
(-3.2123409 -0.32720183 0 3.894791e-06 0 0)
(-3.2147779 -0.32737551 0 -3.8115778e-06 0 0)
(-3.2127004 -0.32722459 0 3.7756704e-06 0 0)
(-3.2144348 -0.32735405 0 -3.7750027e-06 0 0)
(-3.2130488 -0.32724785 0 3.4516311e-06 0 0)
(-3.2140508 -0.32733548 0 -4.7848728e-06 0 0)
(-3.2131879 -0.32725225 0 4.3637961e-06 0 0)
(-2.8108126 -1.3117359 0 -0.52226274 0 0)
(-5.9068343 -0.53778295 0 -0.037584398 0 0)
(-4.4385293 -0.45649411 0 -0.020100607 0 0)
(-3.8409141 -0.35618285 0 -0.00099193836 0 0)
(-3.3006419 -0.33681264 0 -0.0019406629 0 0)
(-3.0826055 -0.32006148 0 -0.00010725817 0 0)
(-3.0939355 -0.32228406 0 -0.00025300458 0 0)
(-3.0280062 -0.31785591 0 -0.00013480081 0 0)
(-3.0634681 -0.3199641 0 -5.8693482e-05 0 0)
(-3.0219071 -0.31722518 0 -2.1556866e-05 0 0)
(-3.052089 -0.31919143 0 -1.9651388e-05 0 0)
(-3.0220841 -0.31717979 0 8.5761936e-06 0 0)
(-3.0482426 -0.3189592 0 -1.4027943e-05 0 0)
(-3.023472 -0.31726789 0 1.274147e-05 0 0)
(-3.0464008 -0.31884614 0 -1.3063799e-05 0 0)
(-3.0247918 -0.31735839 0 1.208694e-05 0 0)
(-3.0450312 -0.31875521 0 -1.1811223e-05 0 0)
(-3.025971 -0.3174398 0 1.0917692e-05 0 0)
(-3.0438505 -0.31867468 0 -1.0484443e-05 0 0)
(-3.0270361 -0.31751339 0 9.7883978e-06 0 0)
(-3.0428097 -0.31860337 0 -9.3154565e-06 0 0)
(-3.0279944 -0.31757958 0 8.7575851e-06 0 0)
(-3.0418875 -0.31854012 0 -8.3060917e-06 0 0)
(-3.0288528 -0.31763882 0 7.8394112e-06 0 0)
(-3.0410676 -0.3184839 0 -7.4307845e-06 0 0)
(-3.0296205 -0.31769174 0 7.0312282e-06 0 0)
(-3.0403363 -0.31843377 0 -6.6696489e-06 0 0)
(-3.0303079 -0.31773905 0 6.3243856e-06 0 0)
(-3.0396818 -0.31838895 0 -6.0078952e-06 0 0)
(-3.0309251 -0.31778147 0 5.7089941e-06 0 0)
(-3.0390937 -0.31834871 0 -5.4339205e-06 0 0)
(-3.0314814 -0.31781963 0 5.175784e-06 0 0)
(-3.0385628 -0.31831244 0 -4.9383425e-06 0 0)
(-3.0319851 -0.31785412 0 4.7166951e-06 0 0)
(-3.0380811 -0.31827959 0 -4.5135088e-06 0 0)
(-3.0324437 -0.31788544 0 4.3249777e-06 0 0)
(-3.0376415 -0.31824967 0 -4.1532156e-06 0 0)
(-3.0328638 -0.31791406 0 3.9951444e-06 0 0)
(-3.0372375 -0.31822224 0 -3.8525774e-06 0 0)
(-3.0332514 -0.31794038 0 3.7228907e-06 0 0)
(-3.0368633 -0.31819691 0 -3.6080897e-06 0 0)
(-3.0336121 -0.31796479 0 3.5053992e-06 0 0)
(-3.0365135 -0.31817333 0 -3.416606e-06 0 0)
(-3.0339511 -0.3179876 0 3.3457827e-06 0 0)
(-3.0361836 -0.31815114 0 -3.2704863e-06 0 0)
(-3.0342757 -0.31800927 0 3.2467262e-06 0 0)
(-3.0358741 -0.3181307 0 -3.2462198e-06 0 0)
(-3.0345936 -0.31803182 0 2.8958837e-06 0 0)
(-3.0355395 -0.31811417 0 -4.3578116e-06 0 0)
(-3.0347592 -0.31803769 0 3.9528963e-06 0 0)
(-2.7573724 -1.2555102 0 -0.48025562 0 0)
(-4.9172097 -0.50843033 0 -0.040265515 0 0)
(-4.1523995 -0.45242504 0 -0.021482843 0 0)
(-3.5679551 -0.34627124 0 -0.0018412524 0 0)
(-3.1075911 -0.32852328 0 -0.002383507 0 0)
(-2.9072059 -0.31076218 0 -0.00013983974 0 0)
(-2.9120975 -0.31272821 0 -0.00028184416 0 0)
(-2.8534376 -0.30859147 0 -0.00015183694 0 0)
(-2.8867748 -0.31062087 0 -5.9681574e-05 0 0)
(-2.8495482 -0.3080572 0 -2.8316316e-05 0 0)
(-2.8770988 -0.30991282 0 -1.7847674e-05 0 0)
(-2.8499033 -0.30800829 0 5.7987129e-06 0 0)
(-2.8736517 -0.3096934 0 -1.1922264e-05 0 0)
(-2.8511521 -0.30808955 0 1.0806113e-05 0 0)
(-2.8719706 -0.30958663 0 -1.1244547e-05 0 0)
(-2.8523451 -0.30817564 0 1.0376781e-05 0 0)
(-2.8707236 -0.30950044 0 -1.0213417e-05 0 0)
(-2.8534168 -0.30825321 0 9.386882e-06 0 0)
(-2.8696507 -0.30942395 0 -9.055837e-06 0 0)
(-2.854384 -0.30832311 0 8.4266031e-06 0 0)
(-2.8687058 -0.30935627 0 -8.037182e-06 0 0)
(-2.855253 -0.30838588 0 7.5451279e-06 0 0)
(-2.8678691 -0.30929631 0 -7.1630469e-06 0 0)
(-2.8560309 -0.30844201 0 6.7571454e-06 0 0)
(-2.8671254 -0.30924302 0 -6.407578e-06 0 0)
(-2.8567266 -0.30849216 0 6.0621879e-06 0 0)
(-2.8664622 -0.30919551 0 -5.7514288e-06 0 0)
(-2.8573497 -0.30853701 0 5.4536146e-06 0 0)
(-2.8658685 -0.30915301 0 -5.1809875e-06 0 0)
(-2.8579093 -0.30857723 0 4.9232712e-06 0 0)
(-2.865335 -0.30911484 0 -4.6860068e-06 0 0)
(-2.8584138 -0.30861344 0 4.4633801e-06 0 0)
(-2.8648533 -0.30908041 0 -4.2583904e-06 0 0)
(-2.8588707 -0.30864618 0 4.0671426e-06 0 0)
(-2.8644163 -0.30904921 0 -3.8916055e-06 0 0)
(-2.8592865 -0.30867593 0 3.7288495e-06 0 0)
(-2.8640175 -0.30902078 0 -3.5803748e-06 0 0)
(-2.8596675 -0.30870313 0 3.4438487e-06 0 0)
(-2.8636511 -0.30899471 0 -3.320547e-06 0 0)
(-2.8600189 -0.30872816 0 3.2084693e-06 0 0)
(-2.8633119 -0.30897063 0 -3.1091731e-06 0 0)
(-2.8603457 -0.30875137 0 3.0202962e-06 0 0)
(-2.8629949 -0.30894819 0 -2.9433829e-06 0 0)
(-2.8606527 -0.30877307 0 2.8829227e-06 0 0)
(-2.8626961 -0.30892705 0 -2.8142463e-06 0 0)
(-2.8609462 -0.30879368 0 2.8006485e-06 0 0)
(-2.8624163 -0.30890758 0 -2.7981653e-06 0 0)
(-2.8612362 -0.30881546 0 2.4288052e-06 0 0)
(-2.8621242 -0.30889277 0 -3.9725154e-06 0 0)
(-2.8614191 -0.30882261 0 3.5783003e-06 0 0)
(-2.8073956 -1.1673618 0 -0.41198867 0 0)
(-3.9901044 -0.48061131 0 -0.043777544 0 0)
(-3.8265117 -0.43939279 0 -0.021112544 0 0)
(-3.3438895 -0.3461623 0 -0.0045540111 0 0)
(-2.9525484 -0.32281299 0 -0.0030691938 0 0)
(-2.7466931 -0.30208214 0 -0.00023034213 0 0)
(-2.7409742 -0.30343511 0 -0.00032459987 0 0)
(-2.6842892 -0.2993118 0 -0.0001669008 0 0)
(-2.7156283 -0.30127871 0 -5.968016e-05 0 0)
(-2.682177 -0.29888196 0 -3.38507e-05 0 0)
(-2.7073412 -0.30063511 0 -1.6159376e-05 0 0)
(-2.6826996 -0.29883479 0 3.3943717e-06 0 0)
(-2.7042683 -0.30042906 0 -1.0047947e-05 0 0)
(-2.6838326 -0.29891005 0 9.1198259e-06 0 0)
(-2.7027365 -0.30032839 0 -9.6325951e-06 0 0)
(-2.68491 -0.29899174 0 8.876456e-06 0 0)
(-2.7016011 -0.30024682 0 -8.8033205e-06 0 0)
(-2.6858827 -0.29906547 0 8.040326e-06 0 0)
(-2.7006263 -0.30017432 0 -7.7982304e-06 0 0)
(-2.6867606 -0.29913176 0 7.2287904e-06 0 0)
(-2.6997686 -0.3001102 0 -6.9131575e-06 0 0)
(-2.6875486 -0.29919119 0 6.4791513e-06 0 0)
(-2.6990094 -0.30005343 0 -6.1583439e-06 0 0)
(-2.6882537 -0.29924432 0 5.8058565e-06 0 0)
(-2.6983348 -0.30000298 0 -5.5082815e-06 0 0)
(-2.6888846 -0.29929179 0 5.2104351e-06 0 0)
(-2.6977329 -0.29995799 0 -4.9443413e-06 0 0)
(-2.6894497 -0.29933427 0 4.6881579e-06 0 0)
(-2.6971941 -0.29991771 0 -4.4540597e-06 0 0)
(-2.6899574 -0.29937239 0 4.2324819e-06 0 0)
(-2.6967097 -0.29988153 0 -4.0284308e-06 0 0)
(-2.6904152 -0.29940673 0 3.8369758e-06 0 0)
(-2.6962724 -0.29984887 0 -3.6605038e-06 0 0)
(-2.6908298 -0.29943779 0 3.4959549e-06 0 0)
(-2.6958756 -0.29981927 0 -3.3447258e-06 0 0)
(-2.6912073 -0.29946602 0 3.2046167e-06 0 0)
(-2.6955136 -0.29979228 0 -3.0766215e-06 0 0)
(-2.6915529 -0.29949185 0 2.9590292e-06 0 0)
(-2.6951811 -0.29976752 0 -2.8526693e-06 0 0)
(-2.6918717 -0.29951562 0 2.7560631e-06 0 0)
(-2.6948733 -0.29974464 0 -2.6703903e-06 0 0)
(-2.6921681 -0.29953768 0 2.5936325e-06 0 0)
(-2.6945859 -0.2997233 0 -2.5271649e-06 0 0)
(-2.6924463 -0.29955831 0 2.4756544e-06 0 0)
(-2.6943149 -0.29970319 0 -2.4129801e-06 0 0)
(-2.6927119 -0.29957788 0 2.4080968e-06 0 0)
(-2.6940617 -0.29968465 0 -2.4027832e-06 0 0)
(-2.6929764 -0.29959884 0 2.0215044e-06 0 0)
(-2.6938065 -0.29967128 0 -3.6086414e-06 0 0)
(-2.6931696 -0.2996071 0 3.2272984e-06 0 0)
(-2.8220716 -1.1180553 0 -0.37810084 0 0)
(-3.3040341 -0.45951465 0 -0.047566742 0 0)
(-3.4864365 -0.41588725 0 -0.019015168 0 0)
(-3.0420086 -0.33686685 0 -0.0063122785 0 0)
(-2.7635863 -0.31368189 0 -0.0033269806 0 0)
(-2.5763539 -0.29258648 0 -0.0002883631 0 0)
(-2.5696289 -0.293835 0 -0.00035272839 0 0)
(-2.5202267 -0.29002939 0 -0.00017550508 0 0)
(-2.5493198 -0.29191366 0 -5.8942187e-05 0 0)
(-2.5196144 -0.2896945 0 -3.8169047e-05 0 0)
(-2.5426884 -0.29135463 0 -1.4504727e-05 0 0)
(-2.5204331 -0.28965757 0 1.3152246e-06 0 0)
(-2.5400498 -0.29116533 0 -8.3453993e-06 0 0)
(-2.5215097 -0.28972883 0 7.632271e-06 0 0)
(-2.5386793 -0.29107126 0 -8.1813615e-06 0 0)
(-2.5224927 -0.28980649 0 7.5417732e-06 0 0)
(-2.5376518 -0.29099438 0 -7.539323e-06 0 0)
(-2.5233772 -0.28987651 0 6.8387991e-06 0 0)
(-2.536768 -0.29092583 0 -6.6740635e-06 0 0)
(-2.5241741 -0.28993927 0 6.1595447e-06 0 0)
(-2.5359901 -0.29086519 0 -5.9095771e-06 0 0)
(-2.5248888 -0.28999549 0 5.527681e-06 0 0)
(-2.5353014 -0.2908115 0 -5.2615855e-06 0 0)
(-2.5255281 -0.29004573 0 4.956758e-06 0 0)
(-2.5346892 -0.29076377 0 -4.7055716e-06 0 0)
(-2.5261002 -0.29009063 0 4.4500785e-06 0 0)
(-2.5341429 -0.29072119 0 -4.2238095e-06 0 0)
(-2.526613 -0.29013084 0 4.0047033e-06 0 0)
(-2.5336537 -0.29068306 0 -3.804959e-06 0 0)
(-2.5270738 -0.29016695 0 3.6155779e-06 0 0)
(-2.5332139 -0.29064878 0 -3.4411544e-06 0 0)
(-2.5274893 -0.29019949 0 3.2774871e-06 0 0)
(-2.5328167 -0.29061782 0 -3.1264692e-06 0 0)
(-2.5278657 -0.29022893 0 2.9857351e-06 0 0)
(-2.5324564 -0.29058975 0 -2.8562145e-06 0 0)
(-2.5282084 -0.29025571 0 2.7363151e-06 0 0)
(-2.5321276 -0.29056415 0 -2.6266162e-06 0 0)
(-2.5285221 -0.29028021 0 2.5259233e-06 0 0)
(-2.5318258 -0.29054065 0 -2.4346994e-06 0 0)
(-2.5288114 -0.29030277 0 2.3519004e-06 0 0)
(-2.5315465 -0.29051893 0 -2.2783887e-06 0 0)
(-2.5290803 -0.29032372 0 2.2124356e-06 0 0)
(-2.5312858 -0.29049867 0 -2.1552996e-06 0 0)
(-2.5293324 -0.29034331 0 2.1116371e-06 0 0)
(-2.53104 -0.29047955 0 -2.0545608e-06 0 0)
(-2.5295729 -0.29036188 0 2.0570912e-06 0 0)
(-2.5308106 -0.29046191 0 -2.0486512e-06 0 0)
(-2.5298139 -0.29038199 0 1.6616242e-06 0 0)
(-2.5305875 -0.29044974 0 -3.2597257e-06 0 0)
(-2.5300122 -0.29039119 0 2.8978009e-06 0 0)
(-2.8492309 -1.1055229 0 -0.36456938 0 0)
(-2.8648318 -0.43030399 0 -0.047068061 0 0)
(-3.1812106 -0.41121167 0 -0.023315196 0 0)
(-2.7619056 -0.32993076 0 -0.0086948573 0 0)
(-2.5982505 -0.30529185 0 -0.0034679138 0 0)
(-2.4230557 -0.28394251 0 -0.00044663529 0 0)
(-2.4098885 -0.28455031 0 -0.00039509166 0 0)
(-2.3616615 -0.28072565 0 -0.00018042079 0 0)
(-2.3886936 -0.2825533 0 -5.5866524e-05 0 0)
(-2.362138 -0.28049866 0 -4.0757022e-05 0 0)
(-2.3832709 -0.28207432 0 -1.25936e-05 0 0)
(-2.3631791 -0.28047769 0 -3.9286347e-07 0 0)
(-2.3810158 -0.28190285 0 -6.764731e-06 0 0)
(-2.3642078 -0.28054613 0 6.32418e-06 0 0)
(-2.3797967 -0.2818155 0 -6.8690885e-06 0 0)
(-2.3651059 -0.28061994 0 6.3508926e-06 0 0)
(-2.3788688 -0.28174322 0 -6.4027164e-06 0 0)
(-2.3659095 -0.28068631 0 5.7630607e-06 0 0)
(-2.3780683 -0.28167852 0 -5.6657596e-06 0 0)
(-2.3666325 -0.28074567 0 5.2016756e-06 0 0)
(-2.3773632 -0.28162124 0 -5.0102606e-06 0 0)
(-2.3672804 -0.28079878 0 4.6752257e-06 0 0)
(-2.3767386 -0.28157051 0 -4.4580955e-06 0 0)
(-2.36786 -0.28084625 0 4.1959035e-06 0 0)
(-2.3761832 -0.2815254 0 -3.9862245e-06 0 0)
(-2.3683788 -0.28088871 0 3.7685833e-06 0 0)
(-2.3756875 -0.28148512 0 -3.577943e-06 0 0)
(-2.368844 -0.28092675 0 3.3919815e-06 0 0)
(-2.3752433 -0.28144903 0 -3.2229834e-06 0 0)
(-2.3692622 -0.28096092 0 3.0624028e-06 0 0)
(-2.3748439 -0.28141657 0 -2.9145138e-06 0 0)
(-2.3696394 -0.28099173 0 2.7757216e-06 0 0)
(-2.3744833 -0.28138726 0 -2.6475169e-06 0 0)
(-2.3699811 -0.28101963 0 2.5281157e-06 0 0)
(-2.3741561 -0.28136065 0 -2.4180631e-06 0 0)
(-2.3702921 -0.281045 0 2.3162762e-06 0 0)
(-2.3738576 -0.28133639 0 -2.2229917e-06 0 0)
(-2.3705768 -0.28106823 0 2.1374478e-06 0 0)
(-2.3735836 -0.28131411 0 -2.059804e-06 0 0)
(-2.3708393 -0.28108962 0 1.9893812e-06 0 0)
(-2.3733302 -0.28129351 0 -1.9267717e-06 0 0)
(-2.3710832 -0.28110949 0 1.8704986e-06 0 0)
(-2.3730937 -0.28127429 0 -1.8217339e-06 0 0)
(-2.3713117 -0.28112808 0 1.7849844e-06 0 0)
(-2.3728708 -0.28125613 0 -1.7331913e-06 0 0)
(-2.3715294 -0.28114569 0 1.7419052e-06 0 0)
(-2.3726629 -0.28123935 0 -1.7304164e-06 0 0)
(-2.3717489 -0.28116492 0 1.3429691e-06 0 0)
(-2.3724679 -0.28122821 0 -2.9243481e-06 0 0)
(-2.3719484 -0.28117491 0 2.5903533e-06 0 0)
(-2.9071425 -1.0123534 0 -0.30187544 0 0)
(-2.5281953 -0.40649924 0 -0.044460909 0 0)
(-2.8951605 -0.39128255 0 -0.022162165 0 0)
(-2.5161504 -0.31672505 0 -0.0089143936 0 0)
(-2.4275622 -0.29445261 0 -0.0031432408 0 0)
(-2.2695877 -0.2748405 0 -0.00056591812 0 0)
(-2.2536683 -0.27506771 0 -0.00041106886 0 0)
(-2.2088672 -0.27141926 0 -0.00017476998 0 0)
(-2.2334005 -0.27317926 0 -4.9943472e-05 0 0)
(-2.209746 -0.27129367 0 -4.1333421e-05 0 0)
(-2.229056 -0.27279247 0 -1.0205854e-05 0 0)
(-2.2109366 -0.27129441 0 -1.6645549e-06 0 0)
(-2.2271464 -0.2726411 0 -5.2417199e-06 0 0)
(-2.2119263 -0.27136155 0 5.19295e-06 0 0)
(-2.2260741 -0.27256089 0 -5.670761e-06 0 0)
(-2.2127528 -0.27143192 0 5.2890969e-06 0 0)
(-2.2252423 -0.27249325 0 -5.3760013e-06 0 0)
(-2.2134852 -0.27149485 0 4.7979329e-06 0 0)
(-2.2245199 -0.27243235 0 -4.7580237e-06 0 0)
(-2.2141416 -0.27155094 0 4.3410298e-06 0 0)
(-2.2238818 -0.27237832 0 -4.2014677e-06 0 0)
(-2.214729 -0.27160109 0 3.9088753e-06 0 0)
(-2.2233159 -0.27233043 0 -3.7355368e-06 0 0)
(-2.2152543 -0.27164593 0 3.5116454e-06 0 0)
(-2.2228122 -0.27228781 0 -3.3391814e-06 0 0)
(-2.2157247 -0.27168604 0 3.1554909e-06 0 0)
(-2.2223624 -0.27224974 0 -2.9968281e-06 0 0)
(-2.2161466 -0.271722 0 2.8406044e-06 0 0)
(-2.2219594 -0.27221561 0 -2.6992275e-06 0 0)
(-2.2165259 -0.27175433 0 2.5645074e-06 0 0)
(-2.2215969 -0.2721849 0 -2.4404781e-06 0 0)
(-2.2168682 -0.27178348 0 2.3240403e-06 0 0)
(-2.2212695 -0.27215715 0 -2.216366e-06 0 0)
(-2.2171782 -0.27180989 0 2.1161496e-06 0 0)
(-2.2209725 -0.27213196 0 -2.0236282e-06 0 0)
(-2.2174603 -0.27183392 0 1.9381381e-06 0 0)
(-2.2207017 -0.27210898 0 -1.859641e-06 0 0)
(-2.2177186 -0.27185591 0 1.7877309e-06 0 0)
(-2.2204531 -0.27208788 0 -1.7223225e-06 0 0)
(-2.2179566 -0.27187618 0 1.663039e-06 0 0)
(-2.2202233 -0.27206836 0 -1.6102461e-06 0 0)
(-2.2181777 -0.27189501 0 1.562686e-06 0 0)
(-2.2200089 -0.27205014 0 -1.5214655e-06 0 0)
(-2.2183849 -0.27191263 0 1.490837e-06 0 0)
(-2.2198069 -0.27203291 0 -1.4440861e-06 0 0)
(-2.2185817 -0.27192931 0 1.4578372e-06 0 0)
(-2.2196184 -0.27201696 0 -1.4436665e-06 0 0)
(-2.2187814 -0.27194765 0 1.0604451e-06 0 0)
(-2.2194482 -0.2720067 0 -2.6015088e-06 0 0)
(-2.2189792 -0.27195829 0 2.3049539e-06 0 0)
(-2.9795652 -1.000647 0 -0.28531492 0 0)
(-2.2911166 -0.39209631 0 -0.045202412 0 0)
(-2.6723392 -0.3761537 0 -0.021913202 0 0)
(-2.3359491 -0.30630774 0 -0.009080499 0 0)
(-2.277514 -0.28435924 0 -0.0028492092 0 0)
(-2.1273163 -0.26587774 0 -0.00063763551 0 0)
(-2.1071727 -0.2657316 0 -0.00040494966 0 0)
(-2.0623279 -0.26212184 0 -0.00015866604 0 0)
(-2.083939 -0.26381311 0 -3.9396192e-05 0 0)
(-2.0626226 -0.26208354 0 -3.9204146e-05 0 0)
(-2.0801445 -0.26351154 0 -6.9367859e-06 0 0)
(-2.0637721 -0.26210868 0 -2.3823319e-06 0 0)
(-2.0784693 -0.26338065 0 -3.6969494e-06 0 0)
(-2.0646927 -0.26217537 0 4.2456545e-06 0 0)
(-2.077517 -0.26330764 0 -4.5596618e-06 0 0)
(-2.0654469 -0.26224256 0 4.3446911e-06 0 0)
(-2.0767701 -0.26324455 0 -4.4429571e-06 0 0)
(-2.0661122 -0.26230218 0 3.9295939e-06 0 0)
(-2.0761182 -0.2631873 0 -3.9372857e-06 0 0)
(-2.0667074 -0.26235515 0 3.5646622e-06 0 0)
(-2.0755412 -0.2631364 0 -3.4710186e-06 0 0)
(-2.0672394 -0.26240247 0 3.2169699e-06 0 0)
(-2.0750287 -0.26309122 0 -3.0829492e-06 0 0)
(-2.0677152 -0.26244478 0 2.8935595e-06 0 0)
(-2.0745724 -0.26305099 0 -2.7546167e-06 0 0)
(-2.0681414 -0.26248266 0 2.6014873e-06 0 0)
(-2.0741646 -0.26301503 0 -2.4716639e-06 0 0)
(-2.0685237 -0.26251664 0 2.3422314e-06 0 0)
(-2.0737991 -0.26298277 0 -2.2257905e-06 0 0)
(-2.0688676 -0.26254719 0 2.1143928e-06 0 0)
(-2.0734703 -0.26295373 0 -2.0119241e-06 0 0)
(-2.0691779 -0.26257476 0 1.9156651e-06 0 0)
(-2.0731734 -0.26292749 0 -1.8265578e-06 0 0)
(-2.069459 -0.26259973 0 1.7436711e-06 0 0)
(-2.0729041 -0.26290366 0 -1.6670135e-06 0 0)
(-2.0697148 -0.26262247 0 1.5962515e-06 0 0)
(-2.0726585 -0.26288192 0 -1.5311408e-06 0 0)
(-2.0699489 -0.26264328 0 1.4715552e-06 0 0)
(-2.0724332 -0.26286195 0 -1.4172249e-06 0 0)
(-2.0701646 -0.26266246 0 1.3680125e-06 0 0)
(-2.0722249 -0.26284347 0 -1.3241031e-06 0 0)
(-2.0703648 -0.26268029 0 1.2844258e-06 0 0)
(-2.0720307 -0.26282622 0 -1.2500383e-06 0 0)
(-2.0705524 -0.26269698 0 1.2248617e-06 0 0)
(-2.0718477 -0.26280989 0 -1.1829677e-06 0 0)
(-2.0707303 -0.26271276 0 1.2006953e-06 0 0)
(-2.0716769 -0.26279474 0 -1.1844127e-06 0 0)
(-2.0709117 -0.2627302 0 8.0946767e-07 0 0)
(-2.0715285 -0.26278522 0 -2.2902141e-06 0 0)
(-2.0711055 -0.26274137 0 2.0410455e-06 0 0)
(-3.0413735 -0.93000428 0 -0.24194491 0 0)
(-2.1422921 -0.36757775 0 -0.040211222 0 0)
(-2.4917864 -0.35735902 0 -0.01988755 0 0)
(-2.1846781 -0.29485629 0 -0.0086893979 0 0)
(-2.1348014 -0.27406832 0 -0.0025362726 0 0)
(-1.9882124 -0.25656594 0 -0.00061441082 0 0)
(-1.9654938 -0.25627822 0 -0.00036043065 0 0)
(-1.9216974 -0.25283255 0 -0.00013037521 0 0)
(-1.9400063 -0.25444667 0 -2.5505075e-05 0 0)
(-1.9207451 -0.252869 0 -3.4625336e-05 0 0)
(-1.9365246 -0.25423159 0 -2.7265933e-06 0 0)
(-1.9216976 -0.25292081 0 -2.5022259e-06 0 0)
(-1.9349798 -0.25412165 0 -2.0679217e-06 0 0)
(-1.9225118 -0.25298762 0 3.492813e-06 0 0)
(-1.9341174 -0.25405571 0 -3.5091752e-06 0 0)
(-1.9231911 -0.25305182 0 3.5107515e-06 0 0)
(-1.9334451 -0.25399703 0 -3.5880965e-06 0 0)
(-1.9237942 -0.2531083 0 3.1477192e-06 0 0)
(-1.9328578 -0.25394333 0 -3.1914479e-06 0 0)
(-1.9243336 -0.25315831 0 2.8622827e-06 0 0)
(-1.9323369 -0.25389542 0 -2.8085128e-06 0 0)
(-1.9248154 -0.25320294 0 2.5900193e-06 0 0)
(-1.9318735 -0.25385284 0 -2.4911722e-06 0 0)
(-1.9252461 -0.25324286 0 2.3330933e-06 0 0)
(-1.9314604 -0.25381489 0 -2.2243983e-06 0 0)
(-1.9256319 -0.25327861 0 2.0989149e-06 0 0)
(-1.9310911 -0.25378094 0 -1.9951962e-06 0 0)
(-1.9259781 -0.25331068 0 1.8900035e-06 0 0)
(-1.93076 -0.25375048 0 -1.7961704e-06 0 0)
(-1.9262896 -0.25333954 0 1.7058919e-06 0 0)
(-1.9304621 -0.25372305 0 -1.6229919e-06 0 0)
(-1.9265706 -0.25336558 0 1.5450207e-06 0 0)
(-1.9301931 -0.25369825 0 -1.4727776e-06 0 0)
(-1.9268251 -0.25338918 0 1.4056067e-06 0 0)
(-1.9299491 -0.25367573 0 -1.3433657e-06 0 0)
(-1.9270567 -0.25341067 0 1.2859656e-06 0 0)
(-1.9297267 -0.25365518 0 -1.2330239e-06 0 0)
(-1.9272687 -0.25343034 0 1.1846221e-06 0 0)
(-1.9295227 -0.2536363 0 -1.1403643e-06 0 0)
(-1.9274639 -0.25344848 0 1.1002927e-06 0 0)
(-1.9293342 -0.25361882 0 -1.064457e-06 0 0)
(-1.9276451 -0.25346534 0 1.0319419e-06 0 0)
(-1.9291585 -0.2536025 0 -1.0037683e-06 0 0)
(-1.9278147 -0.25348113 0 9.8347353e-07 0 0)