/*--------------------------------*- C++ -*----------------------------------*\
| =========                 |                                                 |
| \\      /  F ield         | OpenFOAM: The Open Source CFD Toolbox           |
|  \\    /   O peration     | Version:  2312                                  |
|   \\  /    A nd           | Website:  www.openfoam.com                      |
|    \\/     M anipulation  |                                                 |
\*---------------------------------------------------------------------------*/
FoamFile
{
    version     2.0;
    format      ascii;
    arch        "LSB;label=32;scalar=64";
    class       volScalarField;
    location    "10";
    object      T;
}
// * * * * * * * * * * * * * * * * * * * * * * * * * * * * * * * * * * * * * //

dimensions      [0 0 0 1 0 0 0];

internalField   nonuniform List<scalar> 
4000
(
318.76929
317.84068
317.6569
317.60473
317.54466
317.50377
317.46419
317.42928
317.3954
317.36417
317.33284
317.30348
317.27373
317.24545
317.2168
317.18922
317.16139
317.13429
317.1071
317.08033
317.05364
317.02712
317.00084
316.97451
316.94856
316.92237
316.89671
316.87063
316.84522
316.81921
316.79402
316.76806
316.74307
316.71715
316.69235
316.66643
316.64181
316.61589
316.59143
316.5655
316.54121
316.51523
316.49112
316.46507
316.44116
316.41498
316.39134
316.36493
316.34175
316.31444
320.34422
318.84661
318.3518
318.24368
318.11284
318.03906
317.96936
317.91355
317.86091
317.81614
317.77112
317.73197
317.69168
317.65577
317.6188
317.58497
317.55047
317.51807
317.48546
317.45409
317.42297
317.39236
317.36246
317.3324
317.30352
317.27388
317.24586
317.21653
317.18926
317.16015
317.13355
317.1046
317.07859
317.04975
317.02429
316.99549
316.97055
316.94175
316.91732
316.88845
316.86453
316.83553
316.81215
316.78293
316.76016
316.73056
316.70858
316.67829
316.65769
316.62481
321.31642
319.81372
319.04087
318.87814
318.6784
318.57213
318.47277
318.39618
318.32499
318.26671
318.20818
318.15922
318.10852
318.06496
318.01976
317.97967
317.93855
317.90086
317.86288
317.82689
317.7914
317.75666
317.7232
317.68939
317.65761
317.6245
317.59415
317.56156
317.53246
317.50025
317.47225
317.4403
317.41329
317.38152
317.35542
317.32373
317.2985
317.26679
317.24241
317.2106
317.18706
317.15503
317.13239
317.09999
317.07837
317.04536
317.02505
316.99087
316.97283
316.93468
321.96002
320.70906
319.71403
319.50197
319.23748
319.10002
318.97209
318.87515
318.78598
318.71435
318.64264
318.58395
318.52309
318.4719
318.41866
318.37232
318.32474
318.28173
318.23851
318.19789
318.15813
318.11925
318.0823
318.04473
318.01012
317.97353
317.94091
317.90505
317.87417
317.83884
317.80948
317.77453
317.74656
317.71184
317.68515
317.65054
317.62506
317.59044
317.56613
317.53136
317.50823
317.47317
317.45129
317.41572
317.39525
317.35883
317.34018
317.30216
317.2866
317.24359
322.40554
321.50332
320.35826
320.10693
319.78479
319.61873
319.46421
319.34782
319.24164
319.15703
319.07276
319.00452
318.93393
318.87521
318.81426
318.76169
318.70792
318.6596
318.61135
318.56609
318.52223
318.47921
318.43891
318.39757
318.36025
318.32016
318.28538
318.24623
318.21365
318.17519
318.14456
318.10659
318.07772
318.04005
318.01281
317.97529
317.94959
317.91206
317.88785
317.85014
317.82744
317.78936
317.76825
317.72952
317.71021
317.6704
317.65339
317.6116
317.59839
317.55101
322.72401
322.1787
320.96005
320.68343
320.31399
320.12341
319.94528
319.81099
319.68925
319.59234
319.49641
319.41899
319.33929
319.27325
319.20504
319.14639
319.08676
319.03323
318.98023
318.93038
318.88264
318.83551
318.79206
318.74696
318.70709
318.66352
318.6267
318.58428
318.55011
318.50853
318.47671
318.43573
318.40604
318.36543
318.33771
318.29728
318.27142
318.23099
318.20693
318.16629
318.14405
318.10296
318.08265
318.04078
318.02264
317.9795
317.96409
317.91865
317.90759
317.85637
322.9565
322.72655
321.50717
321.22151
320.81824
320.60865
320.41096
320.26104
320.12571
320.01755
319.91118
319.82516
319.73719
319.66419
319.58934
319.52483
319.45982
319.40123
319.34384
319.28952
319.23819
319.18703
319.14066
319.09187
319.04964
319.00264
318.96394
318.91828
318.88267
318.838
318.80512
318.76115
318.73074
318.68722
318.65909
318.61579
318.58983
318.54653
318.52267
318.47913
318.4574
318.41334
318.39384
318.3489
318.33191
318.28553
318.27165
318.22273
318.21359
318.15903
323.12944
323.14936
321.99077
321.712
321.29077
321.06889
320.85667
320.69407
320.54766
320.42969
320.31442
320.22064
320.12546
320.04602
319.96531
319.8953
319.8255
319.76209
319.70077
319.64216
319.58761
319.53256
319.48356
319.43119
319.38685
319.3365
319.29613
319.24731
319.21042
319.16272
319.12891
319.08201
319.05099
319.00462
318.97618
318.93006
318.90408
318.85796
318.83436
318.78799
318.76678
318.71984
318.70116
318.65324
318.63736
318.58787
318.57544
318.52325
318.51576
318.45835
323.2606
323.45757
322.40591
322.14781
321.72564
321.49879
321.27784
321.10616
320.95165
320.8257
320.70339
320.60293
320.50183
320.41666
320.33102
320.25599
320.18211
320.11423
320.04954
319.98689
319.92957
319.87081
319.81956
319.76375
319.7176
319.66403
319.62224
319.57036
319.53238
319.48176
319.44718
319.39745
319.36596
319.31681
319.28818
319.23931
319.21339
319.16455
319.14126
319.09214
319.07151
319.02177
319.00391
318.95314
318.93834
318.88591
318.8748
318.81963
318.81348
318.75367
323.3623
323.66773
322.75204
322.52479
322.11813
321.89367
321.67026
321.49357
321.3343
321.20256
321.07533
320.96952
320.86399
320.77397
320.6845
320.60506
320.52792
320.45603
320.38861
320.32226
320.26268
320.2005
320.14739
320.08837
320.04074
319.98413
319.94119
319.88641
319.84759
319.79417
319.75902
319.70657
319.67476
319.62295
319.59424
319.54275
319.51699
319.46553
319.44262
319.39087
319.37084
319.31845
319.30141
319.24794
319.23418
319.179
319.16908
319.11125
319.10617
319.04435
323.44344
323.79957
323.03235
322.84214
322.46514
322.24988
322.03036
321.85296
321.69251
321.55742
321.42763
321.31801
321.20969
321.11587
321.02377
320.94069
320.86122
320.78586
320.71643
320.64682
320.58555
320.52028
320.4658
320.40385
320.3551
320.29569
320.25191
320.19444
320.15502
320.09898
320.06347
320.00847
319.97652
319.9222
319.89355
319.83958
319.81407
319.76014
319.73768
319.68347
319.66407
319.60919
319.59296
319.53699
319.52419
319.46653
319.45765
319.39748
319.39322
319.32974
323.51006
323.87331
323.25325
323.10215
322.76535
322.56513
322.3555
322.18165
322.02364
321.8878
321.75791
321.64619
321.53684
321.4404
321.34699
321.26112
321.18032
321.10217
321.03152
320.95916
320.89683
320.82889
320.77352
320.70898
320.65955
320.59762
320.55335
320.49342
320.45369
320.39526
320.35961
320.30227
320.27034
320.21371
320.18526
320.129
320.10385
320.04764
320.0257
319.9692
319.95046
319.89331
319.87788
319.81964
319.80773
319.74786
319.73987
319.67771
319.67405
319.60921
323.5666
323.90782
323.42301
323.30954
323.01935
322.83865
322.6441
322.47777
322.32566
322.19171
322.06418
321.95213
321.84358
321.7458
321.65246
321.56475
321.4837
321.40347
321.33244
321.25792
321.19521
321.12507
321.06937
321.00264
320.95296
320.88886
320.84445
320.78238
320.74262
320.68208
320.64653
320.58708
320.55539
320.49667
320.46857
320.41024
320.38556
320.32729
320.30592
320.24738
320.22933
320.17014
320.15547
320.09524
320.08414
320.02237
320.01512
319.95132
319.94809
319.88217
323.6158
323.91863
323.55081
323.47073
323.2295
323.07119
322.89581
322.7404
322.5973
322.46773
322.34494
322.23434
322.12838
322.0306
321.9387
321.85019
321.76996
321.68847
321.61793
321.54189
321.47948
321.40769
321.35222
321.28375
321.2343
321.16841
321.12424
321.06036
321.0209
320.95854
320.92335
320.86209
320.83081
320.77028
320.74268
320.68254
320.65844
320.59836
320.57765
320.51731
320.49997
320.43902
320.4251
320.36316
320.3528
320.28945
320.28282
320.21772
320.21479
320.14803
323.65968
323.91769
323.64559
323.59309
323.39961
323.26494
323.11143
322.96957
322.8381
322.71512
322.59922
322.49179
322.39012
322.29365
322.20456
322.11627
322.03795
321.95604
321.88685
321.80998
321.7486
321.67571
321.62107
321.55134
321.50259
321.43535
321.39182
321.32651
321.28767
321.22383
321.18925
321.12649
321.09586
321.0338
321.00687
320.9452
320.92179
320.86019
320.8402
320.77835
320.76175
320.69933
320.68615
320.6228
320.61311
320.54852
320.5424
320.47634
320.4736
320.40626
323.6993
323.91294
323.71556
323.6842
323.53458
323.42324
323.29287
323.16631
323.04841
322.93387
322.82669
322.72395
322.62813
322.53421
322.4492
322.36216
322.28678
322.20529
322.13831
322.06132
322.00165
321.92829
321.87504
321.80458
321.757
321.68886
321.64637
321.58004
321.54214
321.4772
321.44351
321.37959
321.3498
321.28655
321.26044
321.19756
321.17496
321.11214
321.09295
321.0299
321.01407
320.95049
320.93802
320.87361
320.86453
320.79904
320.79333
320.72663
320.72404
320.65633
323.73554
323.90922
323.7676
323.75121
323.6398
323.5502
323.44292
323.33248
323.22939
323.12464
323.02762
322.93086
322.8422
322.75197
322.67215
322.58734
322.51586
322.43562
322.37164
322.29523
322.23796
322.16472
322.11342
322.04277
321.99684
321.92828
321.8872
321.82029
321.78365
321.71801
321.68545
321.62075
321.59201
321.52792
321.50279
321.43903
321.41736
321.35365
321.33533
321.2714
321.25637
321.19196
321.18019
321.11506
321.10654
321.04048
321.03513
320.9681
320.96561
320.89779
323.76879
323.90863
323.80725
323.80043
323.72076
323.65039
323.56501
323.47063
323.38286
323.28873
323.20286
323.11306
323.0326
322.94701
322.87337
322.79164
322.7249
322.64668
322.58643
322.5113
322.45702
322.38452
322.3357
322.2654
322.22155
322.15306
322.11377
322.04672
322.01164
321.94571
321.91454
321.84943
321.82195
321.75738
321.73339
321.66911
321.64846
321.58422
321.56682
321.50237
321.48816
321.42328
321.4122
321.34669
321.33869
321.2724
321.26735
321.2003
321.1979
321.13019
323.79943
323.91179
323.83863
323.83707
323.78262
323.72846
323.66294
323.58379
323.51119
323.42799
323.35376
323.2716
323.20006
323.11988
323.05314
322.97525
322.91395
322.83844
322.78256
322.70932
322.65861
322.58742
322.54155
322.47212
322.43076
322.36282
322.32566
322.25892
322.22569
322.15989
322.13034
322.06523
322.03918
321.97452
321.9518
321.88736
321.86785
321.80342
321.78702
321.7224
321.70904
321.64402
321.63363
321.56808
321.56058
321.49439
321.48963
321.42283
321.42053
321.35318
323.82765
323.91823
323.86468
323.8652
323.82998
323.78882
323.7406
323.67529
323.61711
323.54464
323.48213
323.40793
323.34572
323.27146
323.21216
323.13869
323.08337
323.01117
322.96015
322.8894
322.84269
322.77336
322.73084
322.6628
322.62429
322.55736
322.52264
322.45664
322.42552
322.36025
322.33255
322.26782
322.24338
322.179
322.15769
322.09346
322.07518
322.01092
321.99558
321.93113
321.91865
321.85385
321.84416
321.77889
321.77188
321.7061
321.70162
321.63535
321.63316
321.56642
323.85368
323.92712
323.88729
323.88779
323.86668
323.83544
323.80174
323.74847
323.70352
323.64121
323.59005
323.52383
323.47103
323.40299
323.3514
323.28279
323.2338
323.1654
323.11962
323.05183
323.00951
322.9425
322.90368
322.83747
322.80211
322.73664
322.70462
322.63978
322.611
322.54667
322.52099
322.45703
322.43436
322.37062
322.35084
322.28717
322.27021
322.20648
322.19225
322.12831
322.11675
322.0525
322.04351
321.97886
321.97235
321.90727
321.90307
321.83761
321.83553
321.76964
323.87769
323.93759
323.90767
323.90689
323.89578
323.87173
323.84978
323.80659
323.77338
323.7203
323.67983
323.6213
323.57771
323.51596
323.47214
323.40864
323.36617
323.3019
323.26161
323.19717
323.1595
323.09522
323.06035
322.99638
322.9644
322.90079
322.87169
322.8084
322.78213
322.71912
322.69563
322.6328
322.61202
322.54928
322.53114
322.46838
322.45281
322.38994
322.37688
322.31379
322.30317
322.23979
322.23152
322.1678
322.16178
322.0977
322.0938
322.02938
322.02744
321.96265
323.89985
323.94889
323.92645
323.92383
323.91959
323.90044
323.88769
323.85261
323.8295
323.78454
323.75381
323.70248
323.66763
323.61205
323.57583
323.51753
323.48159
323.42167
323.38697
323.32618
323.29329
323.23207
323.20133
323.13995
323.11152
323.05011
323.02408
322.96269
322.93909
322.87773
322.85655
322.7952
322.77641
322.71501
322.69857
322.63707
322.62295
322.56126
322.5494
322.48748
322.47783
322.41562
322.40809
322.34558
322.34007
322.27726
322.27366
322.21055
322.20876
322.14529
323.92036
323.96049
323.944
323.93937
323.93977
323.92373
323.91797
323.88915
323.87446
323.83642
323.81432
323.76952
323.74277
323.69305
323.66408
323.61091
323.58135
323.52588
323.49674
323.43978
323.41171
323.3538
323.32725
323.26873
323.24395
323.18504
323.16218
323.103
323.08215
323.02277
323.00398
322.94441
322.92769
322.86794
322.85327
322.79331
322.78069
322.72049
322.70987
322.6494
322.64074
322.57999
322.57321
322.51217
322.5072
322.44589
322.44262
322.38105
322.37941
322.31751
323.93936
323.97201
323.96046
323.95396
323.95745
323.94319
323.94258
323.91841
323.91055
323.8782
323.86356
323.82451
323.80506
323.76077
323.73856
323.69033
323.66685
323.61581
323.59206
323.53902
323.51572
323.46127
323.4389
323.38346
323.36234
323.30617
323.28652
323.22981
323.21176
323.15462
323.13826
323.08076
323.06614
323.00831
322.99545
322.93731
322.92621
322.86777
322.8584
322.79966
322.792
322.73296
322.72695
322.66763
322.6632
322.60363
322.60071
322.54088
322.53942
322.47928
323.957
323.98326
323.97591
323.96778
323.97334
323.95996
323.96305
323.94218
323.93971
323.9119
323.90352
323.86942
323.85639
323.817
323.80094
323.75737
323.73956
323.69281
323.6742
323.62507
323.60637
323.55547
323.53719
323.48495
323.46745
323.41421
323.39774
323.3437
323.32845
323.27377
323.25985
323.20464
323.19213
323.13647
323.12542
323.06935
323.05977
323.00333
322.99523
322.93845
322.9318
322.8747
322.86946
322.81208
322.8082
322.75057
322.74801
322.69013
322.68884
322.63067
323.97341
323.99414
323.99039
323.98092
323.9879
323.9748
323.98049
323.96187
323.96353
323.93923
323.93599
323.90602
323.89851
323.86345
323.85285
323.81356
323.80093
323.75827
323.74445
323.69915
323.6848
323.63745
323.62309
323.57414
323.56014
323.50993
323.49657
323.44535
323.43285
323.38081
323.36929
323.31657
323.30615
323.25285
323.2436
323.1898
323.18174
323.1275
323.12066
323.06603
323.0604
323.00543
323.00097
322.94572
322.9424
322.88689
322.88469
322.82893
322.82782
322.7718
323.98871
324.00459
324.00391
323.99338
324.00137
323.98823
323.99571
323.97853
323.98327
323.96161
323.96247
323.93588
323.93299
323.90168
323.89582
323.8604
323.8524
323.81356
323.80411
323.76248
323.75218
323.70831
323.69764
323.65198
323.64132
323.5942
323.58383
323.53553
323.52568
323.4764
323.46722
323.41713
323.40875
323.35797
323.35047
323.29911
323.29254
323.24068
323.23507
323.18277
323.17813
323.12547
323.12178
323.06881
323.06605
323.01281
323.01098
322.9575
322.95657
322.90283
324.00299
324.0146
324.01651
324.00516
324.01389
324.00053
324.00923
323.99293
323.99992
323.98017
323.98423
323.96033
323.96122
323.93311
323.93127
323.89929
323.89532
323.85999
323.85445
323.81629
323.80967
323.76918
323.76192
323.71949
323.71195
323.66793
323.66038
323.61504
323.60772
323.56127
323.55434
323.50697
323.50055
323.4524
323.4466
323.3978
323.39268
323.34331
323.33891
323.28907
323.2854
323.23517
323.23224
323.18168
323.17948
323.12864
323.12717
323.07609
323.07535
323.02402
324.01634
324.02419
324.02823
324.01624
324.02553
324.0119
324.02141
324.00561
324.01418
323.99581
324.00227
323.9805
323.9844
323.95895
323.96046
323.93147
323.93097
323.8988
323.89669
323.86176
323.85843
323.82114
323.81698
323.77769
323.77301
323.73205
323.72712
323.68474
323.67977
323.63619
323.63137
323.58678
323.58222
323.53678
323.5326
323.48644
323.4827
323.43593
323.43268
323.3854
323.38267
323.33497
323.33277
323.28472
323.28306
323.23472
323.23361
323.18502
323.18446
323.13564
324.02883
324.03335
324.03911
324.02663
324.03633
324.02243
324.03247
324.01694
324.02659
324.00918
324.0174
323.99728
324.00352
323.98027
323.98447
323.95808
323.96046
323.93114
323.93195
323.89999
323.89954
323.86526
323.86385
323.82757
323.82548
323.78748
323.78494
323.74547
323.74268
323.70196
323.69909
323.6573
323.65448
323.61178
323.60911
323.56564
323.5632
323.51908
323.51692
323.47227
323.47043
323.42533
323.42383
323.37836
323.37722
323.33145
323.33069
323.28467
323.28428
323.23804
324.04052
324.04207
324.04917
324.0363
324.0463
324.03217
324.04255
324.02717
324.03751
324.02078
324.03024
324.0114
324.01938
323.99793
324.00427
323.98009
323.98482
323.958
323.96128
323.93201
323.93402
323.90254
323.90353
323.8701
323.87028
323.83514
323.83474
323.79811
323.79728
323.75937
323.75828
323.71927
323.71803
323.67808
323.6768
323.63604
323.63481
323.59337
323.59223
323.55023
323.54923
323.50676
323.50592
323.46307
323.46243
323.41927
323.41883
323.37542
323.37519
323.33158
324.05144
324.05036
324.05844
324.04526
324.05544
324.04115
324.05171
324.03643
324.04719
324.03096
324.04125
324.0234
324.03264
324.01267
324.02062
323.99833
324.00492
323.98031
323.98558
323.95874
323.96281
323.93391
323.93694
323.90617
323.90834
323.87591
323.87738
323.84348
323.8444
323.80922
323.80972
323.77343
323.77363
323.73638
323.73638
323.69831
323.69817
323.65941
323.6592
323.61986
323.61962
323.5798
323.57957
323.53935
323.53916
323.49863
323.49849
323.45771
323.45764
323.41666
324.06164
324.05817
324.06691
324.05349
324.06375
324.04936
324.06
324.04483
324.0558
324.03996
324.05076
324.0337
324.04381
324.02505
324.03418
324.0135
324.02151
323.99882
324.00568
323.98101
323.98676
323.96021
323.96494
323.93665
323.94049
323.91061
323.91368
323.88239
323.88482
323.85228
323.85417
323.82053
323.82199
323.78739
323.78851
323.75308
323.75394
323.71781
323.71844
323.68173
323.68219
323.64499
323.64532
323.60772
323.60794
323.57002
323.57016
323.53199
323.53206
323.49371
324.07111
324.06545
324.07459
324.06098
324.07122
324.0568
324.06745
324.05241
324.06344
324.04794
324.05901
324.04261
324.05327
324.03553
324.04547
324.02616
324.03521
324.01421
324.02228
323.99955
324.00662
323.98219
323.9883
323.96228
323.9675
323.94001
323.94443
323.91559
323.91931
323.88927
323.89237
323.86126
323.86382
323.83177
323.83389
323.80103
323.80275
323.76919
323.77058
323.73643
323.73752
323.70289
323.70372
323.66869
323.6693
323.63395
323.63434
323.59875
323.59895
323.56319
324.07979
324.07214
324.08142
324.06769
324.07786
324.06348
324.07407
324.05921
324.07021
324.05504
324.0662
324.05037
324.06132
324.04446
324.05491
324.03679
324.04655
324.02702
324.03597
324.01496
324.02303
324.00053
324.00771
323.98377
323.9901
323.96481
323.97033
323.94379
323.94857
323.92089
323.925
323.8963
323.8998
323.8702
323.87316
323.84277
323.84524
323.81417
323.8162
323.78456
323.78619
323.75406
323.75533
323.72281
323.72375
323.69091
323.69153
323.65846
323.65877
323.62555
324.08757
324.07812
324.08738
324.07361
324.08364
324.06939
324.07986
324.06526
324.07614
324.06131
324.07243
324.05713
324.06818
324.05209
324.06282
324.04574
324.05595
324.03771
324.04726
324.02778
324.03656
324.01579
324.02377
324.00173
324.0089
323.98564
323.99202
323.96762
323.97325
323.94779
323.95271
323.92629
323.93056
323.90328
323.90694
323.87891
323.88201
323.85333
323.85591
323.82666
323.82876
323.79905
323.8007
323.7706
323.77182
323.74142
323.74223
323.71161
323.71201
323.68125
324.09422
324.08328
324.09242
324.0787
324.08858
324.07454
324.08486
324.07056
324.08128
324.06683
324.07781
324.06302
324.07403
324.05865
324.06947
324.0533
324.06374
324.04665
324.05656
324.03844
324.04769
324.02848
324.03701
324.01669
324.02447
324.00308
324.0101
323.98767
323.99394
323.97055
323.9761
323.95182
323.95669
323.93161
323.93583
323.91003
323.91364
323.88723
323.89026
323.86331
323.86578
323.83839
323.84034
323.81258
323.81403
323.78597
323.78694
323.75867
323.75916
323.73076
324.09949
324.08751
324.09651
324.08297
324.09268
324.07894
324.08909
324.07516
324.08566
324.07163
324.08242
324.06814
324.079
324.06428
324.07504
324.05971
324.0702
324.05414
324.06421
324.04731
324.05682
324.03901
324.04788
324.02912
324.0373
324.0176
324.02506
324.00444
324.01119
323.9897
323.99572
323.97342
323.97875
323.95571
323.96037
323.93667
323.94067
323.9164
323.91978
323.895
323.89778
323.87258
323.87478
323.84923
323.85087
323.82505
323.82614
323.80012
323.80067
323.77453
324.10318
324.09074
324.09966
324.08642
324.09597
324.08261
324.09257
324.07907
324.08934
324.07577
324.0863
324.07255
324.08319
324.0691
324.07969
324.06514
324.07554
324.06042
324.07048
324.05468
324.06427
324.04772
324.05675
324.0394
324.0478
324.02964
324.03737
324.01841
324.02545
324.00571
324.01205
323.99159
323.99723
323.9761
323.98105
323.95932
323.96361
323.94133
323.94497
323.92224
323.92524
323.90211
323.9045
323.88104
323.88282
323.85911
323.8603
323.83641
323.837
323.813
324.1053
324.093
324.1019
324.0891
324.09851
324.08559
324.09536
324.08234
324.09236
324.07928
324.08953
324.07632
324.08668
324.07321
324.08355
324.06973
324.07993
324.06567
324.07559
324.06079
324.07032
324.0549
324.06394
324.04786
324.05633
324.03956
324.04741
324.02994
324.03714
324.019
324.02552
324.00674
324.01257
323.99319
323.99834
323.97842
323.9829
323.96249
323.9663
323.94547
323.94863
323.92743
323.92995
323.90845
323.91034
323.88861
323.88986
323.86797
323.8686
323.84661
324.10605
324.09437
324.10333
324.09107
324.10035
324.08794
324.0975
324.085
324.09476
324.08221
324.09215
324.07949
324.08953
324.07668
324.08671
324.07358
324.0835
324.07003
324.07972
324.06583
324.07518
324.0608
324.06971
324.05477
324.06318
324.04766
324.0555
324.0394
324.04661
324.02993
324.0365
324.01926
324.02517
324.0074
324.01264
323.99439
323.99897
323.98028
323.98419
323.96511
323.96836
323.94896
323.95156
323.93189
323.93383
323.91395
323.91525
323.89522
323.89587
323.87575
324.10584
324.09504
324.10407
324.09242
324.10157
324.08973
324.09906
324.08712
324.0966
324.0846
324.09422
324.08213
324.09182
324.07957
324.08924
324.07679
324.08636
324.07364
324.08301
324.06995
324.07903
324.06558
324.07426
324.06036
324.06859
324.05421
324.06191
324.04704
324.05417
324.03881
324.04533
324.02949
324.03537
324.01907
324.02431
324.00759
324.01218
323.99507
323.999
323.98155
323.98483
323.96709
323.96971
323.95173
323.9537
323.93553
323.93684
323.91854
323.9192
323.90082
324.10509
324.0952
324.10426
324.09325
324.10226
324.09101
324.10011
324.08875
324.09794
324.0865
324.09578
324.08427
324.09358
324.08194
324.09122
324.07941
324.08859
324.07656
324.08556
324.07327
324.082
324.06939
324.07777
324.0648
324.07276
324.05941
324.06688
324.05313
324.06007
324.0459
324.05227
324.0377
324.04347
324.02851
324.03367
324.01833
324.02287
324.0072
324.01109
323.99513
323.99838
323.98216
323.98477
323.96834
323.9703
323.9537
323.95501
323.93829
323.93895
323.92217
324.10409
324.09504
324.10404
324.09367
324.10251
324.09186
324.10072
324.08994
324.09882
324.08797
324.0969
324.08596
324.09488
324.08383
324.09269
324.0815
324.09025
324.07888
324.08745
324.07587
324.08419
324.07236
324.08036
324.06824
324.07585
324.06342
324.07059
324.05783
324.06452
324.05142
324.05757
324.04413
324.04973
324.03596
324.04098
324.0269
324.03132
324.01696
324.02076
324.00615
324.00933
323.9945
323.99705
323.98203
323.98396
323.9688
323.97008
323.95482
323.95546
323.94014
324.10304
324.09468
324.10352
324.09377
324.1024
324.09236
324.10094
324.09075
324.09932
324.08904
324.0976
324.08724
324.09576
324.08528
324.0937
324.08309
324.09139
324.08063
324.08874
324.07781
324.08568
324.07455
324.08212
324.07076
324.07798
324.06637
324.07319
324.06132
324.06768
324.05554
324.06142
324.049
324.05435
324.04167
324.04647
324.03353
324.03778
324.0246
324.02826
324.01487
324.01794
324.00437
324.00684
323.99311
323.99497
323.98111
323.98236
323.96841
323.96904
323.95505
324.10201
324.09423
324.10281
324.09363
324.10202
324.09256
324.10086
324.09124
324.09948
324.08977
324.09795
324.08814
324.09624
324.08631
324.09428
324.08423
324.09204
324.08186
324.08948
324.07914
324.08653
324.07603
324.08314
324.07246
324.07924
324.06837
324.07478
324.06371
324.0697
324.05841
324.06396
324.05245
324.05752
324.0458
324.05036
324.03843
324.04246
324.03035
324.03383
324.02154
324.02447
324.01203
324.01439
324.00181
324.00359
323.99092
323.99211
323.97936
323.97996
323.96717
324.10099
324.09372
324.10197
324.09333
324.10143
324.09253
324.10052
324.09146
324.09935
324.09019
324.09798
324.0887
324.09636
324.08696
324.09445
324.08492
324.09223
324.08257
324.08968
324.07989
324.08677
324.07685
324.08345
324.07339
324.07969
324.06949
324.07545
324.06509
324.07067
324.06015
324.06533
324.05464
324.05937
324.04852
324.05279
324.04177
324.04556
324.03439
324.03767
324.02637
324.02912
324.0177
324.01992
324.00839
324.01007
323.99846
323.99958
323.98791
323.98847
323.97677
324.09997
324.0932
324.10104
324.0929
324.10068
324.09232
324.09997
324.09146
324.09898
324.09034
324.09771
324.08894
324.09614
324.08723
324.09423
324.08517
324.09197
324.08279
324.08937
324.08007
324.08641
324.07701
324.08309
324.07358
324.07939
324.06977
324.07526
324.06553
324.07069
324.06084
324.06562
324.05565
324.06003
324.04994
324.0539
324.0437
324.04721
324.03689
324.03994
324.02951
324.03208
324.02156
324.02364
324.01304
324.01461
324.00394
324.00499
323.99428
323.99481
323.98407
324.09896
324.09267
324.10006
324.09239
324.09982
324.09197
324.09927
324.09126
324.09839
324.09024
324.09718
324.08888
324.09559
324.08712
324.09361
324.08499
324.09125
324.0825
324.08853
324.07968
324.08547
324.07653
324.08208
324.07306
324.07835
324.06925
324.07426
324.06509
324.06979
324.06054
324.06491
324.05558
324.05959
324.05018
324.05381
324.04432
324.04755
324.03798
324.04078
324.03114
324.0335
324.02379
324.02571
324.01594
324.01738
324.00757
324.00854
323.99868
323.99917
323.98929
324.09793
324.09213
324.09904
324.09181
324.09887
324.09151
324.09843
324.09089
324.09761
324.08991
324.09639
324.0885
324.09471
324.08664
324.09258
324.08435
324.09005
324.08169
324.08715
324.07869
324.08393
324.0754
324.0804
324.07181
324.07658
324.06795
324.07246
324.06378
324.06802
324.05931
324.06325
324.05449
324.05812
324.04931
324.0526
324.04375
324.04667
324.03777
324.04032
324.03137
324.03352
324.02453
324.02627
324.01724
324.01856
324.0095
324.01038
324.00129
324.00174
323.99263
324.09687
324.09159
324.09798
324.09119
324.09787
324.09096
324.09748
324.09037
324.09665
324.08935
324.09532
324.0878
324.09347
324.08575
324.09113
324.08323
324.08835
324.08033
324.08521
324.0771
324.08176
324.0736
324.07805
324.06985
324.07408
324.06586
324.06987
324.06164
324.06541
324.05717
324.06069
324.05243
324.05567
324.0474
324.05034
324.04205
324.04467
324.03636
324.03865
324.03032
324.03225
324.0239
324.02547
324.01709
324.01828
324.00988
324.01068
324.00227
324.00267
323.99424
324.09579
324.09104
324.0969
324.09053
324.09681
324.09032
324.09642
324.0897
324.0955
324.08853
324.09398
324.08676
324.09186
324.08442
324.08921
324.08159
324.08612
324.07838
324.08268
324.07486
324.07895
324.0711
324.075
324.06714
324.07085
324.06299
324.06651
324.05867
324.06198
324.05415
324.05724
324.04943
324.05229
324.04449
324.04708
324.0393
324.04162
324.03383
324.03586
324.02807
324.02979
324.022
324.0234
324.0156
324.01666
324.00885
324.00956
324.00175
324.00211
323.99428
324.09466
324.09048
324.09578
324.08984
324.09571
324.08961
324.09526
324.08886
324.09414
324.08744
324.09231
324.08532
324.08981
324.0826
324.08677
324.07939
324.0833
324.0758
324.0795
324.07194
324.07546
324.06788
324.07123
324.06367
324.06686
324.05933
324.06235
324.05486
324.05772
324.05027
324.05294
324.04553
324.048
324.04063
324.04288
324.03554
324.03756
324.03025
324.03202
324.02472
324.02622
324.01894
324.02016
324.01288
324.0138
324.00653
324.00715
323.99987
324.00018
323.99289
324.0935
324.08991
324.09464
324.08912
324.09457
324.08881
324.09397
324.08782
324.09253
324.08601
324.09026
324.08344
324.08728
324.08023
324.08376
324.07655
324.07984
324.07254
324.07564
324.0683
324.07124
324.0639
324.06671
324.05941
324.06209
324.05485
324.0574
324.05022
324.05263
324.04552
324.04778
324.04073
324.04284
324.03584
324.03777
324.03083
324.03256
324.02566
324.02718
324.02032
324.02161
324.01478
324.01583
324.00901
324.00981
324.003
324.00354
323.99673
323.99701
323.99019
324.09227
324.08933
324.09346
324.08837
324.09336
324.0879
324.09252
324.08652
324.0906
324.08419
324.08775
324.08103
324.08419
324.07724
324.08011
324.07302
324.07568
324.06853
324.07103
324.06387
324.06625
324.05912
324.0614
324.05434
324.05652
324.04954
324.05163
324.04473
324.04672
324.03991
324.04179
324.03506
324.03681
324.03017
324.03178
324.0252
324.02665
324.02013
324.02141
324.01494
324.01603
324.0096
324.01049
324.00408
324.00476
323.99837
323.99883
323.99245
323.99268
323.98629
324.09099
324.08874
324.09225
324.08758
324.09208
324.08683
324.09083
324.0849
324.08827
324.08188
324.08471
324.07801
324.08044
324.07355
324.07573
324.06873
324.07075
324.06372
324.06562
324.05862
324.06044
324.05351
324.05527
324.04842
324.05013
324.04338
324.04504
324.0384
324.03998
324.03345
324.03496
324.02853
324.02995
324.02362
324.02493
324.01868
324.01987
324.01369
324.01474
324.00863
324.00953
324.00346
324.0042
323.99817
323.99873
323.99272
323.9931
323.9871
323.98729
323.98128
324.08963
324.08816
324.091
324.08674
324.09067
324.08554
324.08884
324.08285
324.08544
324.07897
324.08101
324.07426
324.07595
324.06905
324.07054
324.06359
324.06497
324.05804
324.05936
324.05249
324.05378
324.04701
324.04829
324.04164
324.04289
324.03637
324.03761
324.03121
324.03242
324.02615
324.02731
324.02116
324.02226
324.01622
324.01725
324.01131
324.01225
324.00639
324.00723
324.00144
324.00216
323.99643
323.99702
323.99133
323.99179
323.98612
323.98643
323.98077
323.98093
323.97526
324.08818
324.08761
324.08969
324.08584
324.08907
324.08394
324.08641
324.08025
324.08198
324.07533
324.07654
324.06968
324.0706
324.06367
324.06446
324.05754
324.05829
324.05143
324.05219
324.04545
324.04623
324.03962
324.04043
324.03396
324.0348
324.02848
324.02933
324.02317
324.02402
324.018
324.01884
324.01295
324.01377
324.008
324.00877
324.00311
324.00383
323.99826
323.99891
323.99342
323.99398
323.98855
323.98901
323.98363
323.98399