/*--------------------------------*- C++ -*----------------------------------*\
| =========                 |                                                 |
| \\      /  F ield         | OpenFOAM: The Open Source CFD Toolbox           |
|  \\    /   O peration     | Version:  2312                                  |
|   \\  /    A nd           | Website:  www.openfoam.com                      |
|    \\/     M anipulation  |                                                 |
\*---------------------------------------------------------------------------*/
FoamFile
{
    version     2.0;
    format      ascii;
    arch        "LSB;label=32;scalar=64";
    class       volScalarField;
    location    "9";
    object      p;
}
// * * * * * * * * * * * * * * * * * * * * * * * * * * * * * * * * * * * * * //

dimensions      [0 2 -2 0 0 0 0];

internalField   nonuniform List<scalar> 
4000
(
14.37856
13.887267
13.775636
13.323655
13.191469
12.757649
12.606202
12.189785
12.021715
11.620737
11.438153
11.050746
10.855446
10.479943
10.273497
9.9084276
9.6922176
9.3362857
9.1115273
8.7635915
8.5313564
8.1904101
7.951644
7.6167986
7.3723366
7.0428064
6.7933879
6.4684769
6.2147574
5.8938476
5.63641
5.318951
5.0583155
4.7438152
4.480448
4.168464
3.9027852
3.5929179
3.3253086
3.017194
2.7480025
2.4413063
2.1708544
1.865266
1.5938541
1.289082
1.0169942
0.71276037
0.44026943
0.13630174
14.377421
13.886825
13.775634
13.323663
13.191462
12.757656
12.606196
12.189791
12.021709
11.620742
11.438148
11.050751
10.855441
10.479947
10.273493
9.9084313
9.6922141
9.3362889
9.1115243
8.7635943
8.5313538
8.1904126
7.9516416
7.6168008
7.3723346
7.0428083
6.7933861
6.4684786
6.2147557
5.8938491
5.6364085
5.3189524
5.0583142
4.7438164
4.4804468
4.1684651
3.9027842
3.592919
3.3253076
3.017195
2.7480016
2.4413071
2.1708535
1.8652668
1.5938533
1.2890828
1.0169934
0.71276115
0.44026864
0.13630275
14.374803
13.886427
13.775649
13.323663
13.191461
12.757656
12.606195
12.189791
12.021709
11.620742
11.438148
11.050751
10.855441
10.479947
10.273493
9.9084314
9.692214
9.336289
9.1115242
8.7635944
8.5313537
8.1904127
7.9516416
7.6168008
7.3723345
7.0428084
6.793386
6.4684787
6.2147557
5.8938492
5.6364085
5.3189524
5.0583142
4.7438164
4.4804468
4.1684652
3.9027841
3.592919
3.3253076
3.017195
2.7480016
2.4413072
2.1708535
1.8652669
1.5938532
1.2890828
1.0169934
0.71276118
0.44026857
0.13630303
14.371813
13.88607
13.775669
13.323661
13.191464
12.757653
12.606198
12.189789
12.021711
11.62074
11.438149
11.050749
10.855443
10.479946
10.273495
9.9084301
9.6922153
9.3362878
9.1115253
8.7635933
8.5313547
8.1904118
7.9516424
7.6168
7.3723353
7.0428077
6.7933867
6.468478
6.2147563
5.8938486
5.636409
5.3189519
5.0583146
4.743816
4.4804472
4.1684648
3.9027845
3.5929186
3.325308
3.0171946
2.7480019
2.4413068
2.1708538
1.8652666
1.5938535
1.2890825
1.0169937
0.7127609
0.44026883
0.13630297
14.368963
13.885738
13.775687
13.323659
13.191467
12.75765
12.6062
12.189786
12.021713
11.620738
11.438151
11.050747
10.855444
10.479944
10.273496
9.9084287
9.6922166
9.3362866
9.1115264
8.7635923
8.5313556
8.1904109
7.9516433
7.6167992
7.372336
7.042807
6.7933874
6.4684774
6.2147569
5.893848
5.6364096
5.3189514
5.0583151
4.7438155
4.4804476
4.1684643
3.9027849
3.5929182
3.3253083
3.0171943
2.7480023
2.4413065
2.1708541
1.8652662
1.5938538
1.2890822
1.016994
0.71276061
0.44026911
0.13630288
14.366287
13.885423
13.775701
13.323659
13.191469
12.757648
12.606202
12.189784
12.021715
11.620737
11.438153
11.050746
10.855446
10.479943
10.273497
9.9084276
9.6922176
9.3362856
9.1115273
8.7635914
8.5313565
8.1904101
7.951644
7.6167985
7.3723367
7.0428064
6.7933879
6.4684769
6.2147574
5.8938476
5.63641
5.318951
5.0583155
4.7438151
4.480448
4.168464
3.9027853
3.5929179
3.3253086
3.017194
2.7480026
2.4413062
2.1708544
1.865266
1.5938541
1.2890819
1.0169942
0.71276036
0.44026934
0.1363028
14.363729
13.885121
13.775712
13.323658
13.191472
12.757646
12.606203
12.189783
12.021716
11.620735
11.438154
11.050745
10.855447
10.479942
10.273498
9.9084267
9.6922185
9.3362848
9.1115281
8.7635907
8.5313571
8.1904095
7.9516446
7.616798
7.3723372
7.0428059
6.7933884
6.4684764
6.2147578
5.8938472
5.6364104
5.3189506
5.0583159
4.7438148
4.4804483
4.1684637
3.9027855
3.5929177
3.3253089
3.0171937
2.7480028
2.441306
2.1708546
1.8652658
1.5938543
1.2890817
1.0169944
0.71276015
0.44026954
0.13630274
14.361272
13.884836
13.77572
13.323657
13.191474
12.757644
12.606205
12.189781
12.021717
11.620734
11.438155
11.050744
10.855448
10.479941
10.273499
9.9084258
9.6922193
9.3362841
9.1115288
8.76359
8.5313578
8.1904089
7.9516452
7.6167974
7.3723377
7.0428054
6.7933888
6.468476
6.2147582
5.8938468
5.6364107
5.3189503
5.0583162
4.7438145
4.4804486
4.1684634
3.9027858
3.5929174
3.3253091
3.0171935
2.748003
2.4413058
2.1708548
1.8652656
1.5938545
1.2890815
1.0169946
0.71275996
0.44026973
0.13630267
14.358916
13.884565
13.775726
13.323656
13.191476
12.757642
12.606206
12.18978
12.021719
11.620733
11.438156
11.050743
10.855449
10.47994
10.2735
9.908425
9.69222
9.3362834
9.1115294
8.7635894
8.5313583
8.1904083
7.9516457
7.616797
7.3723381
7.042805
6.7933892
6.4684756
6.2147585
5.8938465
5.636411
5.31895
5.0583165
4.7438142
4.4804488
4.1684632
3.902786
3.5929172
3.3253093
3.0171933
2.7480032
2.4413056
2.170855
1.8652654
1.5938547
1.2890814
1.0169948
0.71275978
0.44026991
0.13630261
14.356662
13.88431
13.775732
13.323654
13.191478
12.757641
12.606208
12.189779
12.02172
11.620732
11.438157
11.050742
10.85545
10.479939
10.273501
9.9084243
9.6922207
9.3362827
9.11153
8.7635889
8.5313589
8.1904078
7.9516461
7.6167965
7.3723385
7.0428046
6.7933896
6.4684753
6.2147589
5.8938461
5.6364113
5.3189497
5.0583167
4.743814
4.4804491
4.168463
3.9027863
3.592917
3.3253095
3.0171931
2.7480034
2.4413054
2.1708552
1.8652652
1.5938549
1.2890812
1.0169949
0.71275961
0.44027008
0.13630254
14.35451
13.884068
13.775735
13.323653
13.191479
12.75764
12.606209
12.189778
12.021721
11.620731
11.438158
11.050741
10.85545
10.479938
10.273501
9.9084237
9.6922213
9.3362821
9.1115306
8.7635884
8.5313593
8.1904074
7.9516466
7.6167961
7.3723389
7.0428042
6.7933899
6.468475
6.2147592
5.8938459
5.6364116
5.3189495
5.058317
4.7438138
4.4804493
4.1684628
3.9027865
3.5929168
3.3253097
3.0171929
2.7480036
2.4413052
2.1708553
1.865265
1.593855
1.289081
1.0169951
0.71275945
0.44027024
0.13630247
14.352459
13.883838
13.775738
13.323652
13.191479
12.757639
12.60621
12.189777
12.021722
11.62073
11.438159
11.05074
10.855451
10.479938
10.273502
9.908423
9.6922219
9.3362816
9.1115311
8.7635879
8.5313598
8.190407
7.951647
7.6167958
7.3723393
7.0428039
6.7933902
6.4684747
6.2147594
5.8938456
5.6364118
5.3189492
5.0583172
4.7438135
4.4804495
4.1684626
3.9027866
3.5929166
3.3253099
3.0171928
2.7480037
2.4413051
2.1708555
1.8652649
1.5938552
1.2890809
1.0169952
0.71275931
0.4402704
0.1363024
14.350507
13.883618
13.77574
13.323652
13.191479
12.757638
12.606211
12.189776
12.021723
11.620729
11.43816
11.050739
10.855452
10.479937
10.273503
9.9084225
9.6922224
9.3362811
9.1115315
8.7635874
8.5313602
8.1904066
7.9516473
7.6167954
7.3723396
7.0428036
6.7933905
6.4684744
6.2147597
5.8938454
5.6364121
5.318949
5.0583174
4.7438134
4.4804497
4.1684624
3.9027868
3.5929164
3.3253101
3.0171926
2.7480039
2.441305
2.1708556
1.8652648
1.5938553
1.2890808
1.0169954
0.71275918
0.44027054
0.13630233
14.348653
13.883409
13.775744
13.323653
13.191479
12.757637
12.606212
12.189775
12.021724
11.620728
11.438161
11.050739
10.855452
10.479936
10.273503
9.9084219
9.6922229
9.3362806
9.111532
8.763587
8.5313606
8.1904062
7.9516477
7.6167951
7.3723399
7.0428033
6.7933908
6.4684741
6.2147599
5.8938451
5.6364123
5.3189488
5.0583176
4.7438132
4.4804499
4.1684622
3.902787
3.5929163
3.3253102
3.0171925
2.748004
2.4413048
2.1708558
1.8652646
1.5938554
1.2890807
1.0169955
0.71275905
0.44027067
0.13630226
14.346895
13.883223
13.775742
13.323651
13.191477
12.757636
12.606213
12.189774
12.021724
11.620728
11.438161
11.050738
10.855453
10.479936
10.273504
9.9084215
9.6922233
9.3362802
9.1115324
8.7635867
8.5313609
8.1904059
7.951648
7.6167948
7.3723402
7.0428031
6.793391
6.4684739
6.2147602
5.8938449
5.6364125
5.3189486
5.0583178
4.743813
4.48045
4.1684621
3.9027871
3.5929162
3.3253103
3.0171923
2.7480042
2.4413047
2.1708559
1.8652645
1.5938555
1.2890805
1.0169956
0.71275894
0.4402708
0.13630219
14.345228
13.883094
13.775708
13.323643
13.191474
12.757635
12.606214
12.189774
12.021725
11.620727
11.438162
11.050737
10.855454
10.479935
10.273504
9.908421
9.6922238
9.3362798
9.1115327
8.7635863
8.5313613
8.1904056
7.9516483
7.6167945
7.3723404
7.0428028
6.7933913
6.4684737
6.2147604
5.8938447
5.6364127
5.3189484
5.0583179
4.7438128
4.4804502
4.1684619
3.9027873
3.592916
3.3253105
3.0171922
2.7480043
2.4413046
2.170856
1.8652644
1.5938556
1.2890804
1.0169957
0.71275883
0.44027092
0.13630213
14.34365
13.88304
13.775617
13.323627
13.19147
12.757633
12.606214
12.189773
12.021726
11.620726
11.438162
11.050737
10.855454
10.479935
10.273505
9.9084206
9.6922242
9.3362794
9.1115331
8.763586
8.5313616
8.1904053
7.9516486
7.6167943
7.3723407
7.0428026
6.7933915
6.4684735
6.2147606
5.8938445
5.6364128
5.3189483
5.0583181
4.7438127
4.4804503
4.1684618
3.9027874
3.5929159
3.3253106
3.0171921
2.7480044
2.4413045
2.1708561
1.8652643
1.5938557
1.2890803
1.0169958
0.71275873
0.44027104
0.13630206
14.342166
13.88299
13.775515
13.323613
13.191466
12.757632
12.606215
12.189772
12.021726
11.620726
11.438163
11.050736
10.855455
10.479934
10.273505
9.9084202
9.6922245
9.3362791
9.1115334
8.7635857
8.5313619
8.190405
7.9516488
7.616794
7.3723409
7.0428024
6.7933917
6.4684733
6.2147607
5.8938444
5.636413
5.3189481
5.0583182
4.7438126
4.4804504
4.1684617
3.9027875
3.5929158
3.3253107
3.017192
2.7480045
2.4413044
2.1708562
1.8652642
1.5938558
1.2890802
1.0169959
0.71275864
0.44027115
0.136302
14.340777
13.882857
13.775475
13.323611
13.191464
12.757632
12.606216
12.189772
12.021727
11.620725
11.438164
11.050736
10.855455
10.479934
10.273505
9.9084198
9.6922249
9.3362788
9.1115337
8.7635854
8.5313621
8.1904048
7.951649
7.6167938
7.3723411
7.0428022
6.7933919
6.4684731
6.2147609
5.8938442
5.6364131
5.318948
5.0583184
4.7438124
4.4804506
4.1684615
3.9027876
3.5929157
3.3253108
3.0171919
2.7480046
2.4413043
2.1708563
1.8652641
1.5938559
1.2890802
1.016996
0.71275855
0.44027125
0.13630193
14.339481
13.88266
13.775493
13.323617
13.191464
12.757631
12.606217
12.189771
12.021728
11.620725
11.438164
11.050736
10.855455
10.479934
10.273506
9.9084195
9.6922252
9.3362785
9.111534
8.7635851
8.5313624
8.1904045
7.9516493
7.6167936
7.3723413
7.042802
6.793392
6.468473
6.2147611
5.8938441
5.6364133
5.3189479
5.0583185
4.7438123
4.4804507
4.1684614
3.9027877
3.5929156
3.3253109
3.0171918
2.7480047
2.4413042
2.1708564
1.8652641
1.593856
1.2890801
1.0169961
0.71275847
0.44027134
0.13630187
14.338279
13.882464
13.775521
13.32362
13.191465
12.757631
12.606217
12.189771
12.021728
11.620724
11.438164
11.050735
10.855456
10.479933
10.273506
9.9084192
9.6922255
9.3362782
9.1115343
8.7635849
8.5313626
8.1904043
7.9516495
7.6167934
7.3723415
7.0428018
6.7933922
6.4684728
6.2147612
5.8938439
5.6364134
5.3189477
5.0583186
4.7438122
4.4804508
4.1684613
3.9027878
3.5929155
3.325311
3.0171917
2.7480047
2.4413041
2.1708564
1.865264
1.5938561
1.28908
1.0169961
0.71275839
0.44027143
0.13630182
14.337164
13.882298
13.775542
13.323617
13.191464
12.757631
12.606218
12.189771
12.021729
11.620724
11.438165
11.050735
10.855456
10.479933
10.273506
9.9084189
9.6922258
9.3362779
9.1115345
8.7635846
8.5313628
8.1904041
7.9516497
7.6167932
7.3723417
7.0428017
6.7933924
6.4684727
6.2147613
5.8938438
5.6364135
5.3189476
5.0583187
4.7438121
4.4804509
4.1684612
3.9027879
3.5929154
3.3253111
3.0171916
2.7480048
2.441304
2.1708565
1.8652639
1.5938561
1.2890799
1.0169962
0.71275832
0.44027152
0.13630176
14.336131
13.882158
13.775556
13.323609
13.191464
12.757631
12.606219
12.18977
12.021729
11.620724
11.438165
11.050734
10.855457
10.479933
10.273507
9.9084186
9.692226
9.3362777
9.1115347
8.7635844
8.531363
8.1904039
7.9516498
7.6167931
7.3723418
7.0428015
6.7933925
6.4684725
6.2147615
5.8938437
5.6364136
5.3189475
5.0583188
4.743812
4.480451
4.1684612
3.902788
3.5929153
3.3253111
3.0171916
2.7480049
2.441304
2.1708566
1.8652638
1.5938562
1.2890799
1.0169963
0.71275826
0.44027159
0.13630171
14.335176
13.882038
13.775563
13.3236
13.191464
12.757631
12.60622
12.18977
12.02173
11.620723
11.438166
11.050734
10.855457
10.479932
10.273507
9.9084184
9.6922263
9.3362775
9.1115349
8.7635842
8.5313632
8.1904037
7.95165
7.6167929
7.372342
7.0428014
6.7933926
6.4684724
6.2147616
5.8938436
5.6364137
5.3189474
5.0583189
4.7438119
4.4804511
4.1684611
3.9027881
3.5929153
3.3253112
3.0171915
2.748005
2.4413039
2.1708566
1.8652638
1.5938563
1.2890798
1.0169963
0.7127582
0.44027167
0.13630165
14.334296
13.881931
13.775563
13.323593
13.191464
12.757631
12.60622
12.18977
12.02173
11.620723
11.438166
11.050734
10.855457
10.479932
10.273507
9.9084181
9.6922265
9.3362773
9.1115351
8.7635841
8.5313634
8.1904036
7.9516501
7.6167928
7.3723421
7.0428012
6.7933927
6.4684723
6.2147617
5.8938435
5.6364138
5.3189473
5.058319
4.7438118
4.4804511
4.168461
3.9027881
3.5929152
3.3253113
3.0171914
2.748005
2.4413039
2.1708567
1.8652637
1.5938563
1.2890798
1.0169964
0.71275815
0.44027173
0.13630161
14.333488
13.881837
13.775555
13.32359
13.191466
12.757631
12.606221
12.18977
12.02173
11.620723
11.438166
11.050734
10.855457
10.479932
10.273507
9.9084179
9.6922267
9.3362771
9.1115353
8.7635839
8.5313635
8.1904034
7.9516503
7.6167926
7.3723422
7.0428011
6.7933929
6.4684722
6.2147618
5.8938434
5.6364139
5.3189472
5.0583191
4.7438118
4.4804512
4.1684609
3.9027882
3.5929151
3.3253113
3.0171914
2.7480051
2.4413038
2.1708568
1.8652637
1.5938564
1.2890797
1.0169964
0.7127581
0.44027179
0.13630156
14.332751
13.881753
13.77554
13.323592
13.191467
12.757632
12.606222
12.189769
12.021731
11.620722
11.438167
11.050733
10.855458
10.479932
10.273508
9.9084177
9.6922269
9.3362769
9.1115355
8.7635837
8.5313637
8.1904033
7.9516504
7.6167925
7.3723423
7.042801
6.793393
6.4684721
6.2147619
5.8938433
5.636414
5.3189472
5.0583191
4.7438117
4.4804513
4.1684609
3.9027882
3.5929151
3.3253114
3.0171913
2.7480051
2.4413038
2.1708568
1.8652636
1.5938564
1.2890797
1.0169965
0.71275805
0.44027185
0.13630152
14.332082
13.881679
13.77552
13.323598
13.191469
12.757633
12.606222
12.189769
12.021731
11.620722
11.438167
11.050733
10.855458
10.479931
10.273508
9.9084175
9.692227
9.3362767
9.1115356
8.7635836
8.5313638
8.1904032
7.9516505
7.6167924
7.3723424
7.0428009
6.793393
6.468472
6.2147619
5.8938432
5.6364141
5.3189471
5.0583192
4.7438116
4.4804513
4.1684608
3.9027883
3.592915
3.3253114
3.0171913
2.7480052
2.4413037
2.1708568
1.8652636
1.5938565
1.2890796
1.0169965
0.71275801
0.4402719
0.13630148
14.33148
13.881612
13.775498
13.323607
13.19147
12.757633
12.606223
12.189769
12.021731
11.620722
11.438167
11.050733
10.855458
10.479931
10.273508
9.9084174
9.6922272
9.3362766
9.1115358
8.7635835
8.5313639
8.1904031
7.9516506
7.6167923
7.3723425
7.0428008
6.7933931
6.4684719
6.214762
5.8938432
5.6364142
5.318947
5.0583193
4.7438116
4.4804514
4.1684608
3.9027884
3.592915
3.3253115
3.0171912
2.7480052
2.4413037
2.1708569
1.8652635
1.5938565
1.2890796
1.0169965
0.71275798
0.44027195
0.13630144
14.330941
13.88155
13.775475
13.323617
13.191471
12.757633
12.606223
12.189769
12.021732
11.620722
11.438167
11.050733
10.855458
10.479931
10.273508
9.9084172
9.6922273
9.3362765
9.1115359
8.7635833
8.531364
8.190403
7.9516507
7.6167922
7.3723426
7.0428008
6.7933932
6.4684719
6.2147621
5.8938431
5.6364142
5.318947
5.0583193
4.7438115
4.4804514
4.1684607
3.9027884
3.5929149
3.3253115
3.0171912
2.7480053
2.4413036
2.1708569
1.8652635
1.5938565
1.2890795
1.0169966
0.71275794
0.44027198
0.13630141
14.330466
13.881491
13.775451
13.323629
13.191471
12.757633
12.606224
12.189769
12.021732
11.620722
11.438167
11.050732
10.855458
10.479931
10.273508
9.9084171
9.6922275
9.3362764
9.111536
8.7635832
8.5313641
8.1904029
7.9516508
7.6167921
7.3723427
7.0428007
6.7933933
6.4684718
6.2147622
5.893843
5.6364143
5.3189469
5.0583194
4.7438115
4.4804515
4.1684607
3.9027884
3.5929149
3.3253116
3.0171912
2.7480053
2.4413036
2.170857
1.8652635
1.5938566
1.2890795
1.0169966
0.71275792
0.44027202
0.13630138
14.330052
13.881434
13.775428
13.323643
13.19147
12.757633
12.606224
12.189768
12.021732
11.620721
11.438168
11.050732
10.855459
10.479931
10.273509
9.908417
9.6922276
9.3362762
9.1115361
8.7635831
8.5313642
8.1904028
7.9516509
7.616792
7.3723428
7.0428006
6.7933933
6.4684717
6.2147622
5.893843
5.6364143
5.3189469
5.0583194
4.7438114
4.4804515
4.1684606
3.9027885
3.5929148
3.3253116
3.0171911
2.7480053
2.4413036
2.170857
1.8652634
1.5938566
1.2890795
1.0169966
0.71275789
0.44027204
0.13630136
14.329699
13.881377
13.775404
13.323655
13.191469
12.757632
12.606224
12.189768
12.021732
11.620721
11.438168
11.050732
10.855459
10.479931
10.273509
9.9084168
9.6922277
9.3362761
9.1115362
8.7635831
8.5313643
8.1904027
7.951651
7.616792
7.3723428
7.0428006
6.7933934
6.4684717
6.2147623
5.8938429
5.6364144
5.3189468
5.0583195
4.7438114
4.4804516
4.1684606
3.9027885
3.5929148
3.3253116
3.0171911
2.7480053
2.4413035
2.170857
1.8652634
1.5938566
1.2890795
1.0169967
0.71275787
0.44027206
0.13630134
14.329406
13.881316
13.775384
13.323661
13.19147
12.757633
12.606224
12.189768
12.021732
11.620721
11.438168
11.050732
10.855459
10.479931
10.273509
9.9084168
9.6922278
9.3362761
9.1115363
8.763583
8.5313644
8.1904026
7.951651
7.6167919
7.3723429
7.0428005
6.7933934
6.4684716
6.2147623
5.8938429
5.6364144
5.3189468
5.0583195
4.7438114
4.4804516
4.1684606
3.9027885
3.5929148
3.3253116
3.0171911
2.7480054
2.4413035
2.170857
1.8652634
1.5938566
1.2890794
1.0169967
0.71275786
0.44027208
0.13630132
14.329175
13.88125
13.775367
13.323655
13.191476
12.757635
12.606225
12.189768
12.021733
11.620721
11.438168
11.050732
10.855459
10.47993
10.273509
9.9084167
9.6922278
9.336276
9.1115363
8.7635829
8.5313644
8.1904026
7.9516511
7.6167919
7.3723429
7.0428005
6.7933935
6.4684716
6.2147623
5.8938429
5.6364144
5.3189468
5.0583195
4.7438113
4.4804516
4.1684606
3.9027886
3.5929148
3.3253117
3.0171911
2.7480054
2.4413035
2.170857
1.8652634
1.5938566
1.2890794
1.0169967
0.71275785
0.44027208
0.13630131
14.329005
13.881178
13.775353
13.323643
13.191484
12.757638
12.606226
12.189768
12.021733
11.620721
11.438168
11.050732
10.855459
10.47993
10.273509
9.9084166
9.6922279
9.3362759
9.1115364
8.7635829
8.5313645
8.1904025
7.9516511
7.6167918
7.372343
7.0428004
6.7933935
6.4684716
6.2147624
5.8938428
5.6364145
5.3189467
5.0583195
4.7438113
4.4804516
4.1684605
3.9027886
3.5929148
3.3253117
3.017191
2.7480054
2.4413035
2.1708571
1.8652634
1.5938567
1.2890794
1.0169967
0.71275785
0.44027208
0.1363013
14.328897
13.881101
13.775338
13.32363
13.191491
12.757641
12.606227
12.189768
12.021733
11.620721
11.438168
11.050732
10.855459
10.47993
10.273509
9.9084166
9.6922279
9.3362759
9.1115364
8.7635828
8.5313645
8.1904025
7.9516512
7.6167918
7.372343
7.0428004
6.7933935
6.4684716
6.2147624
5.8938428
5.6364145
5.3189467
5.0583196
4.7438113
4.4804516
4.1684605
3.9027886
3.5929147
3.3253117
3.017191
2.7480054
2.4413035
2.1708571
1.8652634
1.5938567
1.2890794
1.0169967
0.71275785
0.44027207
0.13630129
14.328845
13.881025
13.775323
13.323622
13.191495
12.757644
12.606228
12.189769
12.021733
11.620721
11.438168
11.050732
10.855459
10.47993
10.273509
9.9084165
9.692228
9.3362759
9.1115365
8.7635828
8.5313646
8.1904025
7.9516512
7.6167918
7.372343
7.0428004
6.7933936
6.4684715
6.2147624
5.8938428
5.6364145
5.3189467
5.0583196
4.7438113
4.4804517
4.1684605
3.9027886
3.5929147
3.3253117
3.017191
2.7480054
2.4413035
2.1708571
1.8652634
1.5938567
1.2890794
1.0169967
0.71275786
0.44027206
0.13630129
14.328834
13.880961
13.775309
13.323619
13.191496
12.757645
12.606228
12.189768
12.021733
11.620721
11.438168
11.050732
10.855459
10.47993
10.273509
9.9084165
9.692228
9.3362758
9.1115365
8.7635828
8.5313646
8.1904025
7.9516512
7.6167918
7.372343
7.0428004
6.7933936
6.4684715
6.2147624
5.8938428
5.6364145
5.3189467
5.0583196
4.7438113
4.4804517
4.1684605
3.9027886
3.5929147
3.3253117
3.017191
2.7480054
2.4413035
2.1708571
1.8652634
1.5938567
1.2890794
1.0169967
0.71275787
0.44027205
0.13630129
14.328839
13.880923
13.775301
13.323618
13.191496
12.757646
12.606228
12.189768
12.021733
11.620721
11.438168
11.050732
10.855459
10.47993
10.273509
9.9084165
9.692228
9.3362758
9.1115365
8.7635828
8.5313646
8.1904025
7.9516512
7.6167918
7.372343
7.0428004
6.7933936
6.4684715
6.2147624
5.8938428
5.6364145
5.3189467
5.0583196
4.7438113
4.4804517
4.1684605
3.9027886
3.5929147
3.3253117
3.017191
2.7480054
2.4413035
2.1708571
1.8652634
1.5938566
1.2890794
1.0169967
0.71275787
0.44027205
0.13630129
14.328839
13.880923
13.775301
13.323618
13.191496
12.757646
12.606228
12.189768
12.021733
11.620721
11.438168
11.050732
10.855459
10.47993
10.273509
9.9084165
9.692228
9.3362758
9.1115365
8.7635828
8.5313646
8.1904025
7.9516512
7.6167918
7.372343
7.0428004
6.7933936
6.4684715
6.2147624
5.8938428
5.6364145
5.3189467
5.0583196
4.7438113
4.4804517
4.1684605
3.9027886
3.5929147
3.3253117
3.017191
2.7480054
2.4413035
2.1708571
1.8652634
1.5938566
1.2890794
1.0169967
0.71275787
0.44027205
0.13630129
14.328835
13.880961
13.775309
13.323619
13.191496
12.757645
12.606228
12.189768
12.021733
11.620721
11.438168
11.050732
10.855459
10.47993
10.273509
9.9084165
9.692228
9.3362758
9.1115365
8.7635828
8.5313646
8.1904025
7.9516512
7.6167918
7.372343
7.0428004
6.7933936
6.4684715
6.2147624
5.8938428
5.6364145
5.3189467
5.0583196
4.7438113
4.4804517
4.1684605
3.9027886
3.5929147
3.3253117
3.017191
2.7480054
2.4413035
2.1708571
1.8652634
1.5938567
1.2890794
1.0169967
0.71275787
0.44027205
0.13630129
14.328846
13.881024
13.775323
13.323622
13.191495
12.757644
12.606228
12.189769
12.021733
11.620721
11.438168
11.050732
10.855459
10.47993
10.273509
9.9084165
9.692228
9.3362759
9.1115365
8.7635828
8.5313646
8.1904025
7.9516512
7.6167918
7.372343
7.0428004
6.7933936
6.4684715
6.2147624
5.8938428
5.6364145
5.3189467
5.0583196
4.7438113
4.4804517
4.1684605
3.9027886
3.5929147
3.3253117
3.017191
2.7480054
2.4413035
2.1708571
1.8652634
1.5938567
1.2890794
1.0169967
0.71275786
0.44027206
0.13630129
14.328898
13.8811
13.775338
13.32363
13.191491
12.757641
12.606227
12.189768
12.021733
11.620721
11.438168
11.050732
10.855459
10.47993
10.273509
9.9084166
9.6922279
9.3362759
9.1115364
8.7635828
8.5313645
8.1904025
7.9516512
7.6167918
7.372343
7.0428004
6.7933935
6.4684716
6.2147624
5.8938428
5.6364145
5.3189467
5.0583196
4.7438113
4.4804516
4.1684605
3.9027886
3.5929147
3.3253117
3.017191
2.7480054
2.4413035
2.1708571
1.8652634
1.5938567
1.2890794
1.0169967
0.71275785
0.44027207
0.13630129
14.329007
13.881177
13.775353
13.323643
13.191484
12.757638
12.606226
12.189768
12.021733
11.620721
11.438168
11.050732
10.855459
10.47993
10.273509
9.9084166
9.6922279
9.3362759
9.1115364
8.7635829
8.5313645
8.1904025
7.9516511
7.6167918
7.372343
7.0428004
6.7933935
6.4684716
6.2147624
5.8938428
5.6364145
5.3189467
5.0583195
4.7438113
4.4804516
4.1684605
3.9027886
3.5929148
3.3253117
3.017191
2.7480054
2.4413035
2.1708571
1.8652634
1.5938567
1.2890794
1.0169967
0.71275785
0.44027208
0.1363013
14.329177
13.881248
13.775367
13.323655
13.191476
12.757635
12.606225
12.189768
12.021733
11.620721
11.438168
11.050732
10.855459
10.47993
10.273509
9.9084167
9.6922278
9.336276
9.1115363
8.7635829
8.5313644
8.1904026
7.9516511
7.6167919
7.3723429
7.0428005
6.7933935
6.4684716
6.2147623
5.8938429
5.6364144
5.3189468
5.0583195
4.7438113
4.4804516
4.1684606
3.9027886
3.5929148
3.3253117
3.0171911
2.7480054
2.4413035
2.170857
1.8652634
1.5938566
1.2890794
1.0169967
0.71275785
0.44027208
0.13630131
14.329409
13.881314
13.775384
13.323661
13.19147
12.757633
12.606224
12.189768
12.021732
11.620721
11.438168
11.050732
10.855459
10.479931
10.273509
9.9084168
9.6922278
9.3362761
9.1115363
8.763583
8.5313644
8.1904026
7.951651
7.6167919
7.3723429
7.0428005
6.7933934
6.4684716
6.2147623
5.8938429
5.6364144
5.3189468
5.0583195
4.7438114
4.4804516
4.1684606
3.9027885
3.5929148
3.3253116
3.0171911
2.7480054
2.4413035
2.170857
1.8652634
1.5938566
1.2890794
1.0169967
0.71275786
0.44027208
0.13630132
14.329701
13.881374
13.775404
13.323655
13.191469
12.757632
12.606224
12.189768
12.021732
11.620721
11.438168
11.050732
10.855459
10.479931
10.273509
9.9084168
9.6922277
9.3362761
9.1115362
8.7635831
8.5313643
8.1904027
7.951651
7.616792
7.3723428
7.0428006
6.7933934
6.4684717
6.2147623
5.8938429
5.6364144
5.3189468
5.0583195
4.7438114
4.4804516
4.1684606
3.9027885
3.5929148
3.3253116
3.0171911
2.7480053
2.4413035
2.170857
1.8652634
1.5938566
1.2890795
1.0169967
0.71275787
0.44027206
0.13630134
14.330055
13.881431
13.775428
13.323642
13.19147
12.757633
12.606224
12.189768
12.021732
11.620721
11.438168
11.050732
10.855459
10.479931
10.273509
9.908417
9.6922276
9.3362762
9.1115361
8.7635831
8.5313642
8.1904028
7.9516509
7.616792
7.3723428
7.0428006
6.7933933
6.4684717
6.2147622
5.893843
5.6364143
5.3189469
5.0583194
4.7438114
4.4804515
4.1684606
3.9027885
3.5929148
3.3253116
3.0171911
2.7480053
2.4413036
2.170857
1.8652634
1.5938566
1.2890795
1.0169966
0.71275789
0.44027204
0.13630136
14.330469
13.881488
13.775451
13.323629
13.191471
12.757633
12.606224
12.189769
12.021732
11.620722
11.438167
11.050732
10.855458
10.479931
10.273508
9.9084171
9.6922275
9.3362764
9.111536
8.7635832
8.5313641
8.1904029
7.9516508
7.6167921
7.3723427
7.0428007
6.7933933
6.4684718
6.2147622
5.893843
5.6364143
5.3189469
5.0583194
4.7438115
4.4804515
4.1684607
3.9027884
3.5929149
3.3253116
3.0171912
2.7480053
2.4413036
2.170857
1.8652635
1.5938566
1.2890795
1.0169966
0.71275792
0.44027202
0.13630138
14.330945
13.881546
13.775475
13.323617
13.191471
12.757633
12.606223
12.189769
12.021732
11.620722
11.438167
11.050733
10.855458
10.479931
10.273508
9.9084172
9.6922273
9.3362765
9.1115359
8.7635833
8.531364
8.190403
7.9516507
7.6167922
7.3723426
7.0428008
6.7933932
6.4684719
6.2147621
5.8938431
5.6364142
5.318947
5.0583193
4.7438115
4.4804514
4.1684607
3.9027884
3.5929149
3.3253115
3.0171912
2.7480053
2.4413036
2.1708569
1.8652635
1.5938565
1.2890795
1.0169966
0.71275794
0.44027198
0.13630141
14.331484
13.881608
13.775498
13.323606
13.19147
12.757633
12.606223
12.189769
12.021731
11.620722
11.438167
11.050733
10.855458
10.479931
10.273508
9.9084174
9.6922272
9.3362766
9.1115358
8.7635835
8.5313639
8.1904031
7.9516506
7.6167923
7.3723425
7.0428008
6.7933931
6.4684719
6.214762
5.8938432
5.6364142
5.318947
5.0583193
4.7438116
4.4804514
4.1684608
3.9027884
3.592915
3.3253115
3.0171912
2.7480052
2.4413037
2.1708569
1.8652635
1.5938565
1.2890796
1.0169965
0.71275798
0.44027195
0.13630144
14.332087
13.881675
13.77552
13.323598
13.191469
12.757633
12.606222
12.189769
12.021731
11.620722
11.438167
11.050733
10.855458
10.479931
10.273508
9.9084175
9.692227
9.3362767
9.1115356
8.7635836
8.5313638
8.1904032
7.9516505
7.6167924
7.3723424
7.0428009
6.793393
6.468472
6.2147619
5.8938432
5.6364141
5.3189471
5.0583192
4.7438116
4.4804513
4.1684608
3.9027883
3.592915
3.3253114
3.0171913
2.7480052
2.4413037
2.1708568
1.8652636
1.5938565
1.2890796
1.0169965
0.71275801
0.4402719
0.13630148
14.332756
13.881749
13.77554
13.323592
13.191467
12.757632
12.606222
12.189769
12.021731
11.620722
11.438167
11.050733
10.855458
10.479932
10.273508
9.9084177
9.6922269
9.3362769
9.1115355
8.7635837
8.5313637
8.1904033
7.9516504
7.6167925
7.3723423
7.042801
6.793393
6.4684721
6.2147619
5.8938433
5.636414
5.3189472
5.0583191
4.7438117
4.4804513
4.1684609
3.9027882
3.5929151
3.3253114
3.0171913
2.7480051
2.4413038
2.1708568
1.8652636
1.5938564
1.2890797
1.0169965
0.71275805
0.44027185
0.13630152
14.333493
13.881832
13.775555
13.32359
13.191466
12.757631
12.606221
12.18977
12.02173
11.620723
11.438166
11.050734
10.855457
10.479932
10.273507
9.9084179
9.6922267
9.3362771
9.1115353
8.7635839
8.5313635
8.1904034
7.9516503
7.6167926
7.3723422
7.0428011
6.7933929
6.4684722
6.2147618
5.8938434
5.6364139
5.3189472
5.0583191
4.7438118
4.4804512
4.1684609
3.9027882
3.5929151
3.3253113
3.0171914
2.7480051
2.4413038
2.1708568
1.8652637
1.5938564
1.2890797
1.0169964
0.7127581
0.44027179
0.13630156
14.334301
13.881926
13.775562
13.323593
13.191464
12.757631
12.60622
12.18977
12.02173
11.620723
11.438166
11.050734
10.855457
10.479932
10.273507
9.9084181
9.6922265
9.3362773
9.1115351
8.7635841
8.5313634
8.1904036
7.9516501
7.6167928
7.3723421
7.0428012
6.7933927
6.4684723
6.2147617
5.8938435
5.6364138
5.3189473
5.058319
4.7438118
4.4804511
4.168461
3.9027881
3.5929152
3.3253113
3.0171914
2.748005
2.4413039
2.1708567
1.8652637
1.5938563
1.2890798
1.0169964
0.71275815
0.44027173
0.13630161
14.335181
13.882032
13.775562
13.3236
13.191464
12.757631
12.60622
12.18977
12.02173
11.620723
11.438166
11.050734
10.855457
10.479932
10.273507
9.9084184
9.6922263
9.3362775
9.1115349
8.7635842
8.5313632
8.1904037
7.95165
7.6167929
7.372342
7.0428014
6.7933926
6.4684724
6.2147616
5.8938436
5.6364137
5.3189474
5.0583189
4.7438119
4.4804511
4.1684611
3.9027881
3.5929153
3.3253112
3.0171915
2.748005
2.4413039
2.1708566
1.8652638
1.5938563
1.2890798
1.0169963
0.7127582
0.44027167
0.13630165
14.336137
13.882152
13.775556
13.323609
13.191464
12.757631
12.606219
12.18977
12.021729
11.620724
11.438165
11.050734
10.855457
10.479933
10.273507
9.9084186
9.692226
9.3362777
9.1115347
8.7635844
8.531363
8.1904039
7.9516498
7.6167931
7.3723418
7.0428015
6.7933925
6.4684725
6.2147615
5.8938437
5.6364136
5.3189475
5.0583188
4.743812
4.480451
4.1684612
3.902788
3.5929153
3.3253111
3.0171916
2.7480049
2.441304
2.1708566
1.8652638
1.5938562
1.2890799
1.0169963
0.71275826
0.44027159
0.13630171
14.337171
13.882291
13.775542
13.323617
13.191464
12.757631
12.606218
12.189771
12.021729
11.620724
11.438165
11.050735
10.855456
10.479933
10.273506
9.9084189
9.6922258
9.3362779
9.1115345
8.7635846
8.5313628
8.1904041
7.9516497