/*--------------------------------*- C++ -*----------------------------------*\
| =========                 |                                                 |
| \\      /  F ield         | OpenFOAM: The Open Source CFD Toolbox           |
|  \\    /   O peration     | Version:  2312                                  |
|   \\  /    A nd           | Website:  www.openfoam.com                      |
|    \\/     M anipulation  |                                                 |
\*---------------------------------------------------------------------------*/
FoamFile
{
    version     2.0;
    format      ascii;
    arch        "LSB;label=32;scalar=64";
    class       volSymmTensorField;
    location    "9";
    object      sigma_0;
}
// * * * * * * * * * * * * * * * * * * * * * * * * * * * * * * * * * * * * * //

dimensions      [0 2 -2 0 0 0 0];

internalField   nonuniform List<symmTensor> 
4000
(
(-0.39065066 -0.20770208 0 -0.070834764 0 0)
(-0.66802853 -0.1491489 0 -2.9883685e-05 0 0)
(-0.59380431 -0.1406679 0 3.5523421e-06 0 0)
(-0.63278871 -0.14530109 0 -2.951969e-05 0 0)
(-0.6011699 -0.141486 0 3.2037629e-05 0 0)
(-0.63086007 -0.14508126 0 -2.9358362e-05 0 0)
(-0.60379684 -0.14180361 0 2.8156761e-05 0 0)
(-0.62924411 -0.14488778 0 -2.6261938e-05 0 0)
(-0.60548198 -0.14200925 0 2.4702176e-05 0 0)
(-0.62775255 -0.14470869 0 -2.3143744e-05 0 0)
(-0.606895 -0.14218179 0 2.1710361e-05 0 0)
(-0.62642253 -0.14454886 0 -2.036412e-05 0 0)
(-0.60812993 -0.14233246 0 1.9098598e-05 0 0)
(-0.6252501 -0.14440786 0 -1.7921602e-05 0 0)
(-0.60921607 -0.14246483 0 1.6811545e-05 0 0)
(-0.62421856 -0.14428371 0 -1.5780546e-05 0 0)
(-0.61017278 -0.14258133 0 1.48085e-05 0 0)
(-0.62331077 -0.14417439 0 -1.3905666e-05 0 0)
(-0.61101615 -0.14268393 0 1.3055323e-05 0 0)
(-0.62251126 -0.14407806 0 -1.2265447e-05 0 0)
(-0.61176024 -0.14277437 0 1.1522381e-05 0 0)
(-0.62180636 -0.1439931 0 -1.083222e-05 0 0)
(-0.61241743 -0.14285418 0 1.018381e-05 0 0)
(-0.62118404 -0.14391809 0 -9.581792e-06 0 0)
(-0.61299868 -0.14292471 0 9.0170268e-06 0 0)
(-0.62063368 -0.14385174 0 -8.4930524e-06 0 0)
(-0.6135137 -0.14298715 0 8.0023493e-06 0 0)
(-0.6201459 -0.14379294 0 -7.5476222e-06 0 0)
(-0.61397109 -0.14304255 0 7.1226602e-06 0 0)
(-0.61971241 -0.14374071 0 -6.7295428e-06 0 0)
(-0.61437852 -0.14309184 0 6.3631208e-06 0 0)
(-0.61932584 -0.14369415 0 -6.0250077e-06 0 0)
(-0.61474281 -0.14313585 0 5.7109209e-06 0 0)
(-0.61897963 -0.14365249 0 -5.4221306e-06 0 0)
(-0.61507006 -0.14317534 0 5.1550661e-06 0 0)
(-0.61866791 -0.14361501 0 -4.9107482e-06 0 0)
(-0.61536578 -0.14321096 0 4.6861961e-06 0 0)
(-0.6183854 -0.1435811 0 -4.4822541e-06 0 0)
(-0.61563493 -0.14324331 0 4.2964355e-06 0 0)
(-0.61812731 -0.14355017 0 -4.1294665e-06 0 0)
(-0.61588204 -0.14327294 0 3.9792806e-06 0 0)
(-0.61788928 -0.14352171 0 -3.8465362e-06 0 0)
(-0.61611126 -0.14330035 0 3.7295372e-06 0 0)
(-0.61766726 -0.14349523 0 -3.6289307e-06 0 0)
(-0.61632647 -0.14332601 0 3.5433602e-06 0 0)
(-0.61745748 -0.14347028 0 -3.4736556e-06 0 0)
(-0.61653126 -0.14335034 0 3.4190025e-06 0 0)
(-0.61725649 -0.14344646 0 -3.3766916e-06 0 0)
(-0.61673351 -0.14337418 0 3.3869885e-06 0 0)
(-0.61709751 -0.14342766 0 -3.3338188e-06 0 0)
(-0.35582336 -0.19390333 0 -0.066204331 0 0)
(-0.60579219 -0.14212112 0 -0.00023935087 0 0)
(-0.55254037 -0.135729 0 -3.3767793e-05 0 0)
(-0.58560379 -0.13981074 0 -2.8725766e-05 0 0)
(-0.55776662 -0.13623894 0 3.6393531e-05 0 0)
(-0.58394179 -0.13961809 0 -3.1802933e-05 0 0)
(-0.56008557 -0.13653671 0 3.1776731e-05 0 0)
(-0.58253999 -0.13944029 0 -2.9319997e-05 0 0)
(-0.56157492 -0.13673051 0 2.7743201e-05 0 0)
(-0.58122548 -0.13927204 0 -2.5933705e-05 0 0)
(-0.56282153 -0.13689301 0 2.4353279e-05 0 0)
(-0.58005107 -0.13912156 0 -2.28321e-05 0 0)
(-0.56391053 -0.13703485 0 2.1418554e-05 0 0)
(-0.57901558 -0.13898876 0 -2.0095917e-05 0 0)
(-0.5648683 -0.13715947 0 1.8853002e-05 0 0)
(-0.57810451 -0.13887183 0 -1.7695741e-05 0 0)
(-0.56571199 -0.13726913 0 1.6606794e-05 0 0)
(-0.57730273 -0.13876887 0 -1.5593688e-05 0 0)
(-0.56645578 -0.13736572 0 1.4640948e-05 0 0)
(-0.57659659 -0.13867814 0 -1.375471e-05 0 0)
(-0.56711208 -0.13745086 0 1.2922122e-05 0 0)
(-0.575974 -0.13859812 0 -1.2147837e-05 0 0)
(-0.56769179 -0.13752601 0 1.1421292e-05 0 0)
(-0.57542432 -0.13852746 0 -1.0745956e-05 0 0)
(-0.56820457 -0.13759241 0 1.0113137e-05 0 0)
(-0.57493816 -0.13846496 0 -9.5254075e-06 0 0)
(-0.56865899 -0.1376512 0 8.9755895e-06 0 0)
(-0.57450725 -0.13840957 0 -8.4655925e-06 0 0)
(-0.56906264 -0.13770337 0 7.9894643e-06 0 0)
(-0.57412425 -0.13836036 0 -7.5486285e-06 0 0)
(-0.56942226 -0.13774979 0 7.1381328e-06 0 0)
(-0.57378264 -0.13831649 0 -6.7590499e-06 0 0)
(-0.5697439 -0.13779125 0 6.4072475e-06 0 0)
(-0.57347664 -0.13827723 0 -6.0835508e-06 0 0)
(-0.57003293 -0.13782845 0 5.7845051e-06 0 0)
(-0.57320104 -0.13824191 0 -5.5107677e-06 0 0)
(-0.57029421 -0.13786201 0 5.2594496e-06 0 0)
(-0.57295118 -0.13820994 0 -5.0311024e-06 0 0)
(-0.57053212 -0.1378925 0 4.8233165e-06 0 0)
(-0.57272282 -0.13818078 0 -4.6365905e-06 0 0)
(-0.57075068 -0.13792044 0 4.4689321e-06 0 0)
(-0.57251209 -0.13815393 0 -4.320839e-06 0 0)
(-0.57095356 -0.1379463 0 4.1907081e-06 0 0)
(-0.57231541 -0.13812894 0 -4.0791183e-06 0 0)
(-0.57114419 -0.13797051 0 3.984854e-06 0 0)
(-0.57212942 -0.1381054 0 -3.9090735e-06 0 0)
(-0.57132579 -0.13799347 0 3.8510804e-06 0 0)
(-0.57195077 -0.13808286 0 -3.8052408e-06 0 0)
(-0.57150379 -0.13801567 0 3.8753853e-06 0 0)
(-0.57180109 -0.138064 0 -3.7099359e-06 0 0)
(-0.33425797 -0.18410744 0 -0.061743622 0 0)
(-0.56596314 -0.13700264 0 -0.00012843736 0 0)
(-0.52481958 -0.13230058 0 -5.4520119e-05 0 0)
(-0.55506732 -0.13614928 0 -2.7238315e-05 0 0)
(-0.52962974 -0.1327272 0 3.6645885e-05 0 0)
(-0.55357458 -0.1359654 0 -3.0732237e-05 0 0)
(-0.53175706 -0.13301232 0 3.1792042e-05 0 0)
(-0.55230113 -0.13579701 0 -2.9048384e-05 0 0)
(-0.53312174 -0.13319839 0 2.7618613e-05 0 0)
(-0.55109962 -0.13563588 0 -2.5769257e-05 0 0)
(-0.53426248 -0.13335433 0 2.4217579e-05 0 0)
(-0.55002511 -0.1354916 0 -2.2697872e-05 0 0)
(-0.53525876 -0.13349041 0 2.1294965e-05 0 0)
(-0.54907764 -0.13536425 0 -1.9979472e-05 0 0)
(-0.53613499 -0.13360995 0 1.8743585e-05 0 0)
(-0.54824403 -0.13525213 0 -1.7593481e-05 0 0)
(-0.53690692 -0.13371516 0 1.6510374e-05 0 0)
(-0.54751046 -0.13515339 0 -1.5503628e-05 0 0)
(-0.5375875 -0.13380782 0 1.4556002e-05 0 0)
(-0.5468644 -0.13506638 0 -1.3675302e-05 0 0)
(-0.53818806 -0.13388951 0 1.2847226e-05 0 0)
(-0.54629479 -0.13498964 0 -1.2077747e-05 0 0)
(-0.53871857 -0.13396161 0 1.1355183e-05 0 0)
(-0.54579189 -0.13492187 0 -1.0684014e-05 0 0)
(-0.53918788 -0.13402533 0 1.0054698e-05 0 0)
(-0.5453471 -0.13486193 0 -9.4705825e-06 0 0)
(-0.5396038 -0.13408174 0 8.9238408e-06 0 0)
(-0.54495284 -0.1348088 0 -8.4169759e-06 0 0)
(-0.53997328 -0.1341318 0 7.9435422e-06 0 0)
(-0.5446024 -0.13476159 0 -7.5054213e-06 0 0)
(-0.5403025 -0.13417636 0 7.097281e-06 0 0)
(-0.54428982 -0.1347195 0 -6.7205527e-06 0 0)
(-0.54059698 -0.13421615 0 6.370808e-06 0 0)
(-0.54400977 -0.13468183 0 -6.0491582e-06 0 0)
(-0.54086163 -0.13425187 0 5.7519142e-06 0 0)
(-0.54375752 -0.13464793 0 -5.4799682e-06 0 0)
(-0.54110091 -0.13428409 0 5.230242e-06 0 0)
(-0.54352878 -0.13461724 0 -5.0034885e-06 0 0)
(-0.54131884 -0.13431338 0 4.7971432e-06 0 0)
(-0.54331968 -0.13458924 0 -4.6118879e-06 0 0)
(-0.54151908 -0.13434022 0 4.4456065e-06 0 0)
(-0.54312667 -0.13456345 0 -4.2989807e-06 0 0)
(-0.541705 -0.13436507 0 4.1703239e-06 0 0)
(-0.54294646 -0.13453944 0 -4.0604374e-06 0 0)
(-0.54187976 -0.13438835 0 3.9680952e-06 0 0)
(-0.54277595 -0.1345168 0 -3.8949837e-06 0 0)
(-0.54204633 -0.13441044 0 3.8402882e-06 0 0)
(-0.54261199 -0.13449511 0 -3.7988481e-06 0 0)
(-0.54220932 -0.13443166 0 3.9100107e-06 0 0)
(-0.54247045 -0.13447664 0 -3.8061691e-06 0 0)
(-0.31960378 -0.17556151 0 -0.056857982 0 0)
(-0.52973726 -0.1323227 0 -6.9504988e-05 0 0)
(-0.49757858 -0.12885151 0 -7.9272527e-05 0 0)
(-0.52540938 -0.13248941 0 -2.2737031e-05 0 0)
(-0.5021305 -0.12921522 0 3.3374782e-05 0 0)
(-0.52410806 -0.13231382 0 -2.6408191e-05 0 0)
(-0.50409075 -0.12948776 0 2.8851291e-05 0 0)
(-0.52294809 -0.13215477 0 -2.5968634e-05 0 0)
(-0.50534435 -0.12966618 0 2.4875347e-05 0 0)
(-0.52184575 -0.13200065 0 -2.3141691e-05 0 0)
(-0.50639099 -0.12981557 0 2.1775995e-05 0 0)
(-0.52085888 -0.13186246 0 -2.0398066e-05 0 0)
(-0.50730483 -0.1299459 0 1.9142139e-05 0 0)
(-0.51998861 -0.13174048 0 -1.7957521e-05 0 0)
(-0.50810858 -0.13006039 0 1.6847744e-05 0 0)
(-0.51922297 -0.13163306 0 -1.5813448e-05 0 0)
(-0.50881669 -0.13016115 0 1.484029e-05 0 0)
(-0.51854924 -0.13153847 0 -1.3935164e-05 0 0)
(-0.50944104 -0.1302499 0 1.3083631e-05 0 0)
(-0.51795591 -0.13145511 0 -1.2291881e-05 0 0)
(-0.50999201 -0.13032815 0 1.1547757e-05 0 0)
(-0.51743283 -0.13138159 0 -1.0856015e-05 0 0)
(-0.51047875 -0.13039721 0 1.0206702e-05 0 0)
(-0.51697102 -0.13131665 0 -9.6033547e-06 0 0)
(-0.51090935 -0.13045825 0 9.0378385e-06 0 0)
(-0.51656259 -0.13125922 0 -8.5127631e-06 0 0)
(-0.51129099 -0.13051229 0 8.0214561e-06 0 0)
(-0.51620057 -0.13120831 0 -7.5658411e-06 0 0)
(-0.51163002 -0.13056026 0 7.1404208e-06 0 0)
(-0.51587879 -0.13116307 0 -6.7466207e-06 0 0)
(-0.51193213 -0.13060295 0 6.3798903e-06 0 0)
(-0.51559178 -0.13112273 0 -6.0413007e-06 0 0)
(-0.51220236 -0.13064109 0 5.727069e-06 0 0)
(-0.51533465 -0.13108661 0 -5.4380214e-06 0 0)
(-0.51244524 -0.13067532 0 5.1710027e-06 0 0)
(-0.51510304 -0.13105411 0 -4.9266789e-06 0 0)
(-0.51266484 -0.13070622 0 4.7024138e-06 0 0)
(-0.51489303 -0.13102467 0 -4.4987815e-06 0 0)
(-0.51286486 -0.13073432 0 4.3135847e-06 0 0)
(-0.51470104 -0.1309978 0 -4.1473661e-06 0 0)
(-0.51304865 -0.13076007 0 3.9983172e-06 0 0)
(-0.51452381 -0.13097305 0 -3.8670183e-06 0 0)
(-0.51321932 -0.13078392 0 3.7520513e-06 0 0)
(-0.51435834 -0.13094999 0 -3.6541646e-06 0 0)
(-0.51337977 -0.13080628 0 3.5723834e-06 0 0)
(-0.51420176 -0.13092824 0 -3.5086018e-06 0 0)
(-0.51353273 -0.13082751 0 3.4619383e-06 0 0)
(-0.51405107 -0.13090737 0 -3.4267904e-06 0 0)
(-0.51368206 -0.13084779 0 3.5799597e-06 0 0)
(-0.51391686 -0.13088924 0 -3.5144905e-06 0 0)
(-0.30609494 -0.16736251 0 -0.052170798 0 0)
(-0.49473121 -0.12768356 0 2.8511876e-06 0 0)
(-0.47075029 -0.12535341 0 -9.5974878e-05 0 0)
(-0.49656183 -0.12883178 0 -1.9116113e-05 0 0)
(-0.47528223 -0.12569893 0 2.9550994e-05 0 0)
(-0.49550191 -0.12866571 0 -2.1960934e-05 0 0)
(-0.47710745 -0.12596 0 2.5676482e-05 0 0)
(-0.49444579 -0.12851533 0 -2.2688107e-05 0 0)
(-0.47826125 -0.12613114 0 2.1929519e-05 0 0)
(-0.49343289 -0.12836784 0 -2.0328088e-05 0 0)
(-0.47922323 -0.12627433 0 1.9158284e-05 0 0)
(-0.49252511 -0.12823544 0 -1.7933459e-05 0 0)
(-0.48006294 -0.12639921 0 1.6834738e-05 0 0)
(-0.49172454 -0.12811855 0 -1.5790354e-05 0 0)
(-0.48080149 -0.12650891 0 1.4815846e-05 0 0)
(-0.49102025 -0.12801562 0 -1.3905502e-05 0 0)
(-0.4814522 -0.12660546 0 1.3050306e-05 0 0)
(-0.49040055 -0.12792498 0 -1.2253952e-05 0 0)
(-0.48202598 -0.1266905 0 1.1505491e-05 0 0)
(-0.48985484 -0.1278451 0 -1.0808974e-05 0 0)
(-0.48253234 -0.12676548 0 1.015487e-05 0 0)
(-0.48937377 -0.12777464 0 -9.5463733e-06 0 0)
(-0.48297968 -0.12683165 0 8.9755828e-06 0 0)
(-0.48894907 -0.12771242 0 -8.4448724e-06 0 0)
(-0.48337544 -0.12689015 0 7.9477282e-06 0 0)
(-0.48857349 -0.12765737 0 -7.4858899e-06 0 0)
(-0.48372621 -0.12694194 0 7.0539726e-06 0 0)
(-0.4882406 -0.12760858 0 -6.6532503e-06 0 0)
(-0.48403782 -0.12698792 0 6.2792518e-06 0 0)
(-0.48794474 -0.12756521 0 -5.9329174e-06 0 0)
(-0.4843155 -0.12702884 0 5.6105185e-06 0 0)
(-0.48768085 -0.12752654 0 -5.3127627e-06 0 0)
(-0.48456387 -0.12706541 0 5.0365288e-06 0 0)
(-0.48744446 -0.12749191 0 -4.7823688e-06 0 0)
(-0.48478709 -0.12709823 0 4.5476633e-06 0 0)
(-0.48723154 -0.12746074 0 -4.3328689e-06 0 0)
(-0.48498892 -0.12712787 0 4.1357866e-06 0 0)
(-0.48703849 -0.12743251 0 -3.9568268e-06 0 0)
(-0.48517274 -0.12715481 0 3.7941523e-06 0 0)
(-0.48686202 -0.12740673 0 -3.6481743e-06 0 0)
(-0.48534163 -0.12717952 0 3.517385e-06 0 0)
(-0.48669915 -0.12738297 0 -3.4022556e-06 0 0)
(-0.48549846 -0.12720242 0 3.301627e-06 0 0)
(-0.48654709 -0.12736084 0 -3.2161573e-06 0 0)
(-0.48564588 -0.12722389 0 3.1450964e-06 0 0)
(-0.4864032 -0.12733995 0 -3.0904093e-06 0 0)
(-0.48578643 -0.12724428 0 3.0509949e-06 0 0)
(-0.48626469 -0.12731989 0 -3.0210721e-06 0 0)
(-0.48592336 -0.12726369 0 3.2042925e-06 0 0)
(-0.48613798 -0.12730215 0 -3.1785696e-06 0 0)
(-0.29294428 -0.15939575 0 -0.047709756 0 0)
(-0.46141723 -0.12313549 0 8.9393089e-05 0 0)
(-0.4444835 -0.1218212 0 -0.00010394161 0 0)
(-0.46852733 -0.1251744 0 -1.6341438e-05 0 0)
(-0.44911201 -0.12217939 0 2.5896557e-05 0 0)
(-0.467732 -0.12502004 0 -1.8076214e-05 0 0)
(-0.45082969 -0.12243006 0 2.2913022e-05 0 0)
(-0.46677485 -0.12487797 0 -1.9815199e-05 0 0)
(-0.45189281 -0.12259421 0 1.9352503e-05 0 0)
(-0.46584422 -0.12473684 0 -1.7864262e-05 0 0)
(-0.45277717 -0.12273142 0 1.6867013e-05 0 0)
(-0.46500908 -0.12461002 0 -1.5775497e-05 0 0)
(-0.45354889 -0.12285105 0 1.4814929e-05 0 0)
(-0.46427249 -0.12449803 0 -1.3892877e-05 0 0)
(-0.45422765 -0.12295614 0 1.303715e-05 0 0)
(-0.46362453 -0.12439942 0 -1.2234998e-05 0 0)
(-0.45482571 -0.12304863 0 1.1483343e-05 0 0)
(-0.46305444 -0.12431257 0 -1.0781961e-05 0 0)
(-0.45535308 -0.1231301 0 1.0123947e-05 0 0)
(-0.46255245 -0.12423604 0 -9.5105993e-06 0 0)
(-0.45581852 -0.12320193 0 8.9354692e-06 0 0)
(-0.46210994 -0.12416854 0 -8.3996866e-06 0 0)
(-0.45622972 -0.12326533 0 7.8977683e-06 0 0)
(-0.46171931 -0.12410891 0 -7.4305147e-06 0 0)
(-0.45659351 -0.12332137 0 6.9933266e-06 0 0)
(-0.46137387 -0.12405617 0 -6.586739e-06 0 0)
(-0.45691595 -0.123371 0 6.2068909e-06 0 0)
(-0.46106773 -0.12400941 0 -5.8541309e-06 0 0)
(-0.4572024 -0.12341506 0 5.5252064e-06 0 0)
(-0.46079564 -0.12396785 0 -5.2203444e-06 0 0)
(-0.45745765 -0.12345427 0 4.9367952e-06 0 0)
(-0.46055298 -0.12393079 0 -4.6747135e-06 0 0)
(-0.45768596 -0.12348932 0 4.4317686e-06 0 0)
(-0.46033562 -0.1238976 0 -4.2080803e-06 0 0)
(-0.45789115 -0.12352078 0 4.0016714e-06 0 0)
(-0.46013986 -0.12386772 0 -3.812656e-06 0 0)
(-0.45807666 -0.12354919 0 3.6393604e-06 0 0)
(-0.45996238 -0.12384065 0 -3.481919e-06 0 0)
(-0.45824561 -0.12357503 0 3.3389273e-06 0 0)
(-0.45980017 -0.12381592 0 -3.2105682e-06 0 0)
(-0.45840083 -0.12359874 0 3.0956938e-06 0 0)
(-0.45965047 -0.12379314 0 -2.9945801e-06 0 0)
(-0.45854494 -0.1236207 0 2.9063702e-06 0 0)
(-0.45951072 -0.12377189 0 -2.8315475e-06 0 0)
(-0.4586804 -0.1236413 0 2.7696066e-06 0 0)
(-0.45937851 -0.12375184 0 -2.7224492e-06 0 0)
(-0.45880954 -0.12366089 0 2.6887232e-06 0 0)
(-0.45925121 -0.12373257 0 -2.6624961e-06 0 0)
(-0.45893508 -0.12367946 0 2.8663869e-06 0 0)
(-0.45913192 -0.12371524 0 -2.873006e-06 0 0)
(-0.28032057 -0.15170921 0 -0.043453691 0 0)
(-0.42978578 -0.118675 0 0.00019148539 0 0)
(-0.4188031 -0.11825981 0 -0.00010383662 0 0)
(-0.44133101 -0.12151614 0 -1.3507941e-05 0 0)
(-0.42363489 -0.11865703 0 2.2432967e-05 0 0)
(-0.44078777 -0.12137606 0 -1.4666591e-05 0 0)
(-0.42526662 -0.11889844 0 2.0483204e-05 0 0)
(-0.43992596 -0.12124214 0 -1.7281471e-05 0 0)
(-0.42624728 -0.11905585 0 1.7078766e-05 0 0)
(-0.4390717 -0.12110718 0 -1.5689866e-05 0 0)
(-0.42706013 -0.11918725 0 1.4844906e-05 0 0)
(-0.43830372 -0.12098576 0 -1.3871047e-05 0 0)
(-0.4277691 -0.11930179 0 1.3032368e-05 0 0)
(-0.4376263 -0.12087854 0 -1.2218309e-05 0 0)
(-0.42839268 -0.1194024 0 1.1467369e-05 0 0)
(-0.4370304 -0.12078411 0 -1.0760729e-05 0 0)
(-0.42894214 -0.11949095 0 1.0100417e-05 0 0)
(-0.43650615 -0.12070096 0 -9.4828728e-06 0 0)
(-0.42942669 -0.11956895 0 8.9046517e-06 0 0)
(-0.43604456 -0.12062768 0 -8.3647198e-06 0 0)
(-0.42985434 -0.11963773 0 7.8592625e-06 0 0)
(-0.43563768 -0.12056303 0 -7.3876626e-06 0 0)
(-0.43023218 -0.11969844 0 6.9465058e-06 0 0)
(-0.43527853 -0.12050594 0 -6.5352603e-06 0 0)
(-0.43056647 -0.1197521 0 6.1509677e-06 0 0)
(-0.43496094 -0.12045543 0 -5.7931421e-06 0 0)
(-0.43086275 -0.11979962 0 5.4592302e-06 0 0)
(-0.43467949 -0.12041065 0 -5.1487965e-06 0 0)
(-0.43112598 -0.11984181 0 4.8596352e-06 0 0)
(-0.43442937 -0.12037085 0 -4.5913682e-06 0 0)
(-0.43136053 -0.11987937 0 4.3420883e-06 0 0)
(-0.43420632 -0.12033535 0 -4.1114803e-06 0 0)
(-0.43157032 -0.11991294 0 3.897895e-06 0 0)
(-0.43400653 -0.12030356 0 -3.7010841e-06 0 0)
(-0.43175886 -0.11994308 0 3.5196247e-06 0 0)
(-0.43382661 -0.12027493 0 -3.3533384e-06 0 0)
(-0.43192932 -0.1199703 0 3.2010055e-06 0 0)
(-0.43366351 -0.12024899 0 -3.0625231e-06 0 0)
(-0.43208454 -0.11999506 0 2.9368605e-06 0 0)
(-0.43351445 -0.1202253 0 -2.8240029e-06 0 0)
(-0.43222715 -0.12001778 0 2.7231116e-06 0 0)
(-0.4333769 -0.12020345 0 -2.6342911e-06 0 0)
(-0.43235953 -0.12003884 0 2.5569399e-06 0 0)
(-0.43324851 -0.12018308 0 -2.4913808e-06 0 0)
(-0.43248396 -0.1200586 0 2.4373051e-06 0 0)
(-0.43312707 -0.12016384 0 -2.3965203e-06 0 0)
(-0.43260257 -0.12007739 0 2.3673836e-06 0 0)
(-0.43301012 -0.12014534 0 -2.3439288e-06 0 0)
(-0.43271765 -0.12009517 0 2.5608608e-06 0 0)
(-0.43289812 -0.12012845 0 -2.5954081e-06 0 0)
(-0.26835042 -0.14431933 0 -0.039380422 0 0)
(-0.39982718 -0.11430577 0 0.0003061101 0 0)
(-0.39370178 -0.11467232 0 -9.727865e-05 0 0)
(-0.41501693 -0.11785901 0 -9.8752598e-06 0 0)
(-0.39886663 -0.11513212 0 1.9242964e-05 0 0)
(-0.41466587 -0.1177336 0 -1.1571425e-05 0 0)
(-0.4004238 -0.11536529 0 1.8260135e-05 0 0)
(-0.4138943 -0.11760769 0 -1.4966245e-05 0 0)
(-0.40132926 -0.11551621 0 1.4995146e-05 0 0)
(-0.41311107 -0.11747873 0 -1.3699159e-05 0 0)
(-0.40207612 -0.11564196 0 1.2992661e-05 0 0)
(-0.41240533 -0.11736256 0 -1.2127065e-05 0 0)
(-0.40272711 -0.11575154 0 1.1399706e-05 0 0)
(-0.41178268 -0.11725997 0 -1.0684766e-05 0 0)
(-0.40329967 -0.1158478 0 1.0029618e-05 0 0)
(-0.41123499 -0.11716962 0 -9.4105905e-06 0 0)
(-0.4038042 -0.11593251 0 8.8338069e-06 0 0)
(-0.41075318 -0.11709005 0 -8.2931479e-06 0 0)
(-0.40424915 -0.11600714 0 7.7879061e-06 0 0)
(-0.41032898 -0.11701994 0 -7.3152883e-06 0 0)
(-0.40464188 -0.11607294 0 6.8735633e-06 0 0)
(-0.40995508 -0.11695808 0 -6.4608023e-06 0 0)
(-0.40498886 -0.11613103 0 6.0752323e-06 0 0)
(-0.40962506 -0.11690345 0 -5.7153242e-06 0 0)
(-0.40529586 -0.11618238 0 5.3794262e-06 0 0)
(-0.40933325 -0.11685512 0 -5.0662898e-06 0 0)
(-0.40556797 -0.11622785 0 4.7744078e-06 0 0)
(-0.40907466 -0.11681226 0 -4.5027595e-06 0 0)
(-0.40580971 -0.11626822 0 4.2499805e-06 0 0)
(-0.40884486 -0.11677417 0 -4.015242e-06 0 0)
(-0.40602512 -0.11630417 0 3.7973166e-06 0 0)
(-0.40863994 -0.11674019 0 -3.5955396e-06 0 0)
(-0.40621779 -0.1163363 0 3.408814e-06 0 0)
(-0.40845641 -0.11670976 0 -3.2366175e-06 0 0)
(-0.40639094 -0.11636515 0 3.077978e-06 0 0)
(-0.40829114 -0.11668235 0 -2.9324994e-06 0 0)
(-0.40654748 -0.11639121 0 2.7993313e-06 0 0)
(-0.40814133 -0.11665752 0 -2.6781938e-06 0 0)
(-0.40669002 -0.11641492 0 2.5683603e-06 0 0)
(-0.40800443 -0.11663482 0 -2.4696669e-06 0 0)
(-0.40682096 -0.11643668 0 2.381525e-06 0 0)
(-0.40787811 -0.1166139 0 -2.3039068e-06 0 0)
(-0.40694251 -0.11645686 0 2.2364134e-06 0 0)
(-0.40776023 -0.11659438 0 -2.1792367e-06 0 0)
(-0.40705675 -0.1164758 0 2.1322144e-06 0 0)
(-0.40764873 -0.11657594 0 -2.097051e-06 0 0)
(-0.40716562 -0.11649381 0 2.0717974e-06 0 0)
(-0.40754137 -0.11655819 0 -2.0505209e-06 0 0)
(-0.40727106 -0.11651082 0 2.2742921e-06 0 0)
(-0.40743648 -0.11654175 0 -2.3341233e-06 0 0)
(-0.25701976 -0.13721528 0 -0.03548249 0 0)
(-0.37151027 -0.1100277 0 0.0004307548 0 0)
(-0.36919435 -0.11106152 0 -8.5494316e-05 0 0)
(-0.38959423 -0.11420402 0 -5.239042e-06 0 0)
(-0.37482107 -0.11160497 0 1.6531981e-05 0 0)
(-0.38936407 -0.11409274 0 -8.7099981e-06 0 0)
(-0.37630617 -0.11183064 0 1.6199198e-05 0 0)
(-0.38867599 -0.11397459 0 -1.2822604e-05 0 0)
(-0.37714261 -0.11197529 0 1.3058152e-05 0 0)
(-0.38795884 -0.11385146 0 -1.1851623e-05 0 0)
(-0.37782849 -0.11209555 0 1.1272201e-05 0 0)
(-0.38731082 -0.1137404 0 -1.0507846e-05 0 0)
(-0.37842584 -0.11220031 0 9.8834798e-06 0 0)
(-0.38673895 -0.11364232 0 -9.2608141e-06 0 0)
(-0.37895119 -0.11229233 0 8.694443e-06 0 0)
(-0.38623594 -0.11355593 0 -8.1569053e-06 0 0)
(-0.37941414 -0.11237332 0 7.6575662e-06 0 0)
(-0.38579346 -0.11347986 0 -7.1883979e-06 0 0)
(-0.37982244 -0.11244467 0 6.750833e-06 0 0)
(-0.38540391 -0.11341281 0 -6.3407946e-06 0 0)
(-0.38018282 -0.11250758 0 5.9581793e-06 0 0)
(-0.38506057 -0.11335367 0 -5.60011e-06 0 0)
(-0.38050125 -0.11256311 0 5.2661005e-06 0 0)
(-0.38475754 -0.11330143 0 -4.9539043e-06 0 0)
(-0.38078299 -0.11261221 0 4.662899e-06 0 0)
(-0.38448961 -0.11325522 0 -4.3912901e-06 0 0)
(-0.38103271 -0.11265569 0 4.1383986e-06 0 0)
(-0.38425219 -0.11321424 0 -3.9027866e-06 0 0)
(-0.38125457 -0.11269429 0 3.6837595e-06 0 0)
(-0.38404122 -0.11317781 0 -3.4801682e-06 0 0)
(-0.38145226 -0.11272867 0 3.2913293e-06 0 0)
(-0.38385309 -0.11314531 0 -3.1163307e-06 0 0)
(-0.38162908 -0.1127594 0 2.9545193e-06 0 0)
(-0.38368462 -0.1131162 0 -2.8051793e-06 0 0)
(-0.38178798 -0.112787 0 2.6677022e-06 0 0)
(-0.38353292 -0.11308999 0 -2.5415378e-06 0 0)
(-0.38193163 -0.11281193 0 2.4261349e-06 0 0)
(-0.38339541 -0.11306622 0 -2.3210873e-06 0 0)
(-0.38206243 -0.11283462 0 2.2259145e-06 0 0)
(-0.38326977 -0.11304451 0 -2.1403448e-06 0 0)
(-0.38218258 -0.11285544 0 2.0639906e-06 0 0)
(-0.38315386 -0.11302447 0 -1.9967249e-06 0 0)
(-0.3822941 -0.11287476 0 1.9383083e-06 0 0)
(-0.38304569 -0.11300579 0 -1.8888267e-06 0 0)
(-0.3823989 -0.11289289 0 1.8482234e-06 0 0)
(-0.38294341 -0.11298812 0 -1.8180912e-06 0 0)
(-0.38249877 -0.11291015 0 1.7961832e-06 0 0)
(-0.38284492 -0.11297112 0 -1.7766149e-06 0 0)
(-0.3825953 -0.11292643 0 2.0018863e-06 0 0)
(-0.38274693 -0.11295515 0 -2.0853726e-06 0 0)
(-0.24625353 -0.13037915 0 -0.031757996 0 0)
(-0.3447977 -0.10583929 0 0.00056382939 0 0)
(-0.34535886 -0.10743404 0 -6.9152163e-05 0 0)
(-0.3650196 -0.11054864 0 1.2826306e-07 0 0)
(-0.3515053 -0.10807584 0 1.4468987e-05 0 0)
(-0.36487816 -0.11045341 0 -6.0454249e-06 0 0)
(-0.35291802 -0.10829451 0 1.4290315e-05 0 0)
(-0.36426738 -0.11034282 0 -1.0835635e-05 0 0)
(-0.35369083 -0.10843311 0 1.1254804e-05 0 0)
(-0.36361175 -0.11022536 0 -1.0135223e-05 0 0)
(-0.35432034 -0.10854804 0 9.6721725e-06 0 0)
(-0.36301734 -0.11011928 0 -9.0027544e-06 0 0)
(-0.354868 -0.10864812 0 8.4737349e-06 0 0)
(-0.3624926 -0.11002557 0 -7.9370817e-06 0 0)
(-0.35534961 -0.10873602 0 7.4530864e-06 0 0)
(-0.36203106 -0.10994304 0 -6.9914225e-06 0 0)
(-0.35577402 -0.10881339 0 6.5639812e-06 0 0)
(-0.36162507 -0.10987035 0 -6.1613548e-06 0 0)
(-0.35614835 -0.10888154 0 5.7866321e-06 0 0)
(-0.36126767 -0.1098063 0 -5.4348306e-06 0 0)
(-0.35647877 -0.10894164 0 5.1071092e-06 0 0)
(-0.36095269 -0.1097498 0 -4.799929e-06 0 0)
(-0.35677072 -0.1089947 0 4.513807e-06 0 0)
(-0.36067469 -0.10969988 0 -4.2459997e-06 0 0)
(-0.35702905 -0.1090416 0 3.996692e-06 0 0)
(-0.36042891 -0.10965572 0 -3.7637133e-06 0 0)
(-0.35725802 -0.10908315 0 3.5470387e-06 0 0)
(-0.36021112 -0.10961657 0 -3.3449445e-06 0 0)
(-0.35746144 -0.10912003 0 3.1572685e-06 0 0)
(-0.36001761 -0.10958176 0 -2.9826434e-06 0 0)
(-0.35764271 -0.10915288 0 2.8208213e-06 0 0)
(-0.35984507 -0.1095507 0 -2.6707218e-06 0 0)
(-0.35780483 -0.10918225 0 2.5320494e-06 0 0)
(-0.35969055 -0.10952288 0 -2.4039566e-06 0 0)
(-0.35795053 -0.10920862 0 2.28613e-06 0 0)
(-0.35955143 -0.10949782 0 -2.1779137e-06 0 0)
(-0.35808223 -0.10923246 0 2.0790001e-06 0 0)
(-0.35942534 -0.1094751 0 -1.9888954e-06 0 0)
(-0.35820215 -0.10925415 0 1.9073198e-06 0 0)
(-0.35931014 -0.10945434 0 -1.8339243e-06 0 0)
(-0.3583123 -0.10927406 0 1.7684849e-06 0 0)
(-0.35920387 -0.10943518 0 -1.7107996e-06 0 0)
(-0.35841453 -0.10929254 0 1.6607553e-06 0 0)
(-0.35910471 -0.1094173 0 -1.6183501e-06 0 0)
(-0.35851058 -0.10930989 0 1.5836029e-06 0 0)
(-0.35901096 -0.1094004 0 -1.5579841e-06 0 0)
(-0.3586021 -0.10932641 0 1.5389762e-06 0 0)
(-0.3589207 -0.10938412 0 -1.5207215e-06 0 0)
(-0.3586904 -0.10934198 0 1.7428765e-06 0 0)
(-0.35882938 -0.10936863 0 -1.8487729e-06 0 0)
(-0.23596717 -0.1237933 0 -0.028204319 0 0)
(-0.319645 -0.10173817 0 0.00070454484 0 0)
(-0.32228324 -0.10379674 0 -4.8729514e-05 0 0)
(-0.34124737 -0.10689046 0 5.8372833e-06 0 0)
(-0.32892142 -0.10454489 0 1.310556e-05 0 0)
(-0.34120337 -0.10681555 0 -3.5618367e-06 0 0)
(-0.33026281 -0.10475694 0 1.2523727e-05 0 0)
(-0.34066515 -0.10671234 0 -8.9947162e-06 0 0)
(-0.33097709 -0.10488972 0 9.5757671e-06 0 0)
(-0.3400669 -0.1066004 0 -8.5414026e-06 0 0)
(-0.33155442 -0.10499946 0 8.1844308e-06 0 0)
(-0.33952236 -0.10649914 0 -7.6042119e-06 0 0)
(-0.332056 -0.10509498 0 7.1633454e-06 0 0)
(-0.33904142 -0.10640969 0 -6.7068816e-06 0 0)
(-0.33249703 -0.10517888 0 6.299284e-06 0 0)
(-0.33861839 -0.10633091 0 -5.9082522e-06 0 0)
(-0.33288569 -0.10525273 0 5.5475357e-06 0 0)
(-0.33824631 -0.10626152 0 -5.2068304e-06 0 0)
(-0.3332285 -0.10531778 0 4.8904414e-06 0 0)
(-0.33791877 -0.10620038 0 -4.5928224e-06 0 0)
(-0.33353111 -0.10537515 0 4.3160634e-06 0 0)
(-0.33763011 -0.10614644 0 -4.0562225e-06 0 0)
(-0.33379851 -0.10542579 0 3.8145628e-06 0 0)
(-0.33737537 -0.10609879 0 -3.5880423e-06 0 0)
(-0.3340351 -0.10547057 0 3.3774526e-06 0 0)
(-0.33715016 -0.10605663 0 -3.1804e-06 0 0)
(-0.33424482 -0.10551023 0 2.997356e-06 0 0)
(-0.33695061 -0.10601925 0 -2.8264292e-06 0 0)
(-0.33443114 -0.10554545 0 2.6678661e-06 0 0)
(-0.33677331 -0.10598601 0 -2.5201723e-06 0 0)
(-0.33459716 -0.10557681 0 2.3834375e-06 0 0)
(-0.33661523 -0.10595636 0 -2.2564839e-06 0 0)
(-0.33474565 -0.10560485 0 2.1392961e-06 0 0)
(-0.33647368 -0.10592979 0 -2.0309503e-06 0 0)
(-0.33487909 -0.10563004 0 1.9313659e-06 0 0)
(-0.33634624 -0.10590585 0 -1.8398249e-06 0 0)
(-0.33499971 -0.1056528 0 1.7562135e-06 0 0)
(-0.33623074 -0.10588415 0 -1.6799844e-06 0 0)
(-0.33510953 -0.10567352 0 1.6110181e-06 0 0)
(-0.33612522 -0.10586431 0 -1.5489159e-06 0 0)
(-0.33521039 -0.10569255 0 1.4935832e-06 0 0)
(-0.3360279 -0.10584601 0 -1.4447657e-06 0 0)
(-0.335304 -0.10571021 0 1.402447e-06 0 0)
(-0.3359371 -0.10582892 0 -1.3665551e-06 0 0)
(-0.33539193 -0.10572679 0 1.3371583e-06 0 0)
(-0.33585127 -0.10581276 0 -1.3155974e-06 0 0)
(-0.33547572 -0.1057426 0 1.2991245e-06 0 0)
(-0.33576865 -0.10579718 0 -1.2818698e-06 0 0)
(-0.3355564 -0.10575748 0 1.4969652e-06 0 0)
(-0.33568376 -0.10578219 0 -1.6242532e-06 0 0)
(-0.22608574 -0.11744214 0 -0.024817633 0 0)
(-0.29600162 -0.09772098 0 0.00085289115 0 0)
(-0.30002513 -0.10015472 0 -2.5153025e-05 0 0)
(-0.31825787 -0.10322928 0 1.1596753e-05 0 0)
(-0.30707036 -0.10101215 0 1.2383475e-05 0 0)
(-0.31833583 -0.10317911 0 -1.2567792e-06 0 0)
(-0.30834357 -0.10121799 0 1.0883683e-05 0 0)
(-0.31786637 -0.1030831 0 -7.2889567e-06 0 0)
(-0.3090041 -0.10134514 0 8.0106132e-06 0 0)
(-0.31732176 -0.10297653 0 -7.060711e-06 0 0)
(-0.30953312 -0.10144985 0 6.7999583e-06 0 0)
(-0.31682364 -0.10287998 0 -6.3038405e-06 0 0)
(-0.30999195 -0.10154094 0 5.944419e-06 0 0)
(-0.31638344 -0.10279466 0 -5.5628216e-06 0 0)
(-0.3103953 -0.10162095 0 5.226098e-06 0 0)
(-0.31599623 -0.10271952 0 -4.9008831e-06 0 0)
(-0.31075077 -0.10169137 0 4.6021212e-06 0 0)
(-0.31565567 -0.10265335 0 -4.3190876e-06 0 0)
(-0.31106432 -0.10175341 0 4.0568772e-06 0 0)
(-0.31535589 -0.10259503 0 -3.8097113e-06 0 0)
(-0.3113411 -0.10180812 0 3.5802921e-06 0 0)
(-0.31509171 -0.10254358 0 -3.3645246e-06 0 0)
(-0.31158568 -0.10185642 0 3.1641716e-06 0 0)
(-0.31485858 -0.10249813 0 -2.976084e-06 0 0)
(-0.3118021 -0.10189913 0 2.8014677e-06 0 0)
(-0.31465249 -0.10245792 0 -2.6378532e-06 0 0)
(-0.31199393 -0.10193696 0 2.4860577e-06 0 0)
(-0.31446989 -0.10242226 0 -2.3441361e-06 0 0)
(-0.31216436 -0.10197055 0 2.2126246e-06 0 0)
(-0.31430766 -0.10239055 0 -2.0899902e-06 0 0)
(-0.31231622 -0.10200047 0 1.9765663e-06 0 0)
(-0.31416302 -0.10236226 0 -1.8711464e-06 0 0)
(-0.31245204 -0.10202722 0 1.7739206e-06 0 0)
(-0.31403351 -0.10233691 0 -1.6839424e-06 0 0)
(-0.3125741 -0.10205125 0 1.6013047e-06 0 0)
(-0.31391692 -0.10231408 0 -1.5252696e-06 0 0)
(-0.31268442 -0.10207297 0 1.4558691e-06 0 0)
(-0.31381126 -0.10229337 0 -1.3925362e-06 0 0)
(-0.31278486 -0.10209275 0 1.3352727e-06 0 0)
(-0.31371475 -0.10227443 0 -1.2836572e-06 0 0)
(-0.3128771 -0.10211091 0 1.2376925e-06 0 0)
(-0.31362573 -0.10225695 0 -1.1970934e-06 0 0)
(-0.3129627 -0.10212777 0 1.1619135e-06 0 0)
(-0.3135427 -0.10224063 0 -1.1320283e-06 0 0)
(-0.3130431 -0.10214361 0 1.1075324e-06 0 0)
(-0.31346423 -0.1022252 0 -1.089634e-06 0 0)
(-0.3131197 -0.10215871 0 1.075402e-06 0 0)
(-0.31338871 -0.10221032 0 -1.0589102e-06 0 0)
(-0.31319331 -0.10217294 0 1.2636235e-06 0 0)
(-0.31330998 -0.10219582 0 -1.4114786e-06 0 0)
(-0.2165476 -0.11131271 0 -0.021594645 0 0)
(-0.27380077 -0.09378237 0 0.0010089912 0 0)
(-0.27861902 -0.096513496 0 -1.8314827e-07 0 0)
(-0.29605064 -0.099565856 0 1.7325408e-05 0 0)
(-0.2859538 -0.097477557 0 1.2242986e-05 0 0)
(-0.29627265 -0.099544058 0 8.865564e-07 0 0)
(-0.28716297 -0.097677673 0 9.3573515e-06 0 0)
(-0.2958685 -0.099455062 0 -5.7073682e-06 0 0)
(-0.28777429 -0.097799414 0 6.5494185e-06 0 0)
(-0.2953741 -0.099353723 0 -5.6840973e-06 0 0)
(-0.28825858 -0.097899235 0 5.5100911e-06 0 0)
(-0.29491925 -0.099261743 0 -5.0936122e-06 0 0)
(-0.28867771 -0.097986025 0 4.8093807e-06 0 0)
(-0.29451695 -0.09918045 0 -4.4978121e-06 0 0)
(-0.28904606 -0.098062252 0 4.2268729e-06 0 0)
(-0.29416307 -0.099108853 0 -3.9630683e-06 0 0)
(-0.28937068 -0.098129344 0 3.7218776e-06 0 0)
(-0.29385183 -0.099045797 0 -3.4926224e-06 0 0)
(-0.28965703 -0.098188454 0 3.2807745e-06 0 0)
(-0.29357788 -0.098990226 0 -3.0806434e-06 0 0)
(-0.28990981 -0.09824058 0 2.8952378e-06 0 0)
(-0.29333648 -0.098941201 0 -2.7205503e-06 0 0)
(-0.29013319 -0.0982866 0 2.5586067e-06 0 0)
(-0.29312346 -0.098897895 0 -2.406336e-06 0 0)
(-0.29033085 -0.098327291 0 2.2651734e-06 0 0)
(-0.29293514 -0.098859574 0 -2.1327164e-06 0 0)
(-0.29050606 -0.098363337 0 2.009983e-06 0 0)
(-0.29276831 -0.098825593 0 -1.8950846e-06 0 0)
(-0.29066172 -0.098395347 0 1.7887331e-06 0 0)