/*--------------------------------*- C++ -*----------------------------------*\
| =========                 |                                                 |
| \\      /  F ield         | OpenFOAM: The Open Source CFD Toolbox           |
|  \\    /   O peration     | Version:  2312                                  |
|   \\  /    A nd           | Website:  www.openfoam.com                      |
|    \\/     M anipulation  |                                                 |
\*---------------------------------------------------------------------------*/
FoamFile
{
    version     2.0;
    format      ascii;
    arch        "LSB;label=32;scalar=64";
    class       volSymmTensorField;
    location    "9";
    object      sigma;
}
// * * * * * * * * * * * * * * * * * * * * * * * * * * * * * * * * * * * * * //

dimensions      [0 2 -2 0 0 0 0];

internalField   nonuniform List<symmTensor> 
4000
(
(-0.39078339 -0.20770208 0 -0.070834194 0 0)
(-0.66803285 -0.1491489 0 -3.0269566e-05 0 0)
(-0.59380435 -0.1406679 0 3.5308588e-06 0 0)
(-0.6327887 -0.14530109 0 -2.9520831e-05 0 0)
(-0.60116991 -0.141486 0 3.2037607e-05 0 0)
(-0.63086006 -0.14508126 0 -2.9358363e-05 0 0)
(-0.60379685 -0.14180361 0 2.8156739e-05 0 0)
(-0.6292441 -0.14488778 0 -2.6261923e-05 0 0)
(-0.60548199 -0.14200925 0 2.4702165e-05 0 0)
(-0.62775254 -0.14470869 0 -2.3143737e-05 0 0)
(-0.60689501 -0.14218179 0 2.1710359e-05 0 0)
(-0.62642253 -0.14454886 0 -2.0364119e-05 0 0)
(-0.60812993 -0.14233246 0 1.9098599e-05 0 0)
(-0.6252501 -0.14440786 0 -1.7921603e-05 0 0)
(-0.60921607 -0.14246483 0 1.6811547e-05 0 0)
(-0.62421856 -0.14428371 0 -1.5780547e-05 0 0)
(-0.61017278 -0.14258133 0 1.4808502e-05 0 0)
(-0.62331077 -0.14417439 0 -1.3905666e-05 0 0)
(-0.61101615 -0.14268393 0 1.3055323e-05 0 0)
(-0.62251126 -0.14407806 0 -1.2265447e-05 0 0)
(-0.61176024 -0.14277437 0 1.1522381e-05 0 0)
(-0.62180636 -0.1439931 0 -1.083222e-05 0 0)
(-0.61241743 -0.14285418 0 1.018381e-05 0 0)
(-0.62118404 -0.14391809 0 -9.581792e-06 0 0)
(-0.61299868 -0.14292471 0 9.0170267e-06 0 0)
(-0.62063368 -0.14385174 0 -8.4930524e-06 0 0)
(-0.6135137 -0.14298715 0 8.0023491e-06 0 0)
(-0.6201459 -0.14379294 0 -7.5476222e-06 0 0)
(-0.61397109 -0.14304255 0 7.1226601e-06 0 0)
(-0.61971241 -0.14374071 0 -6.7295428e-06 0 0)
(-0.61437852 -0.14309184 0 6.3631207e-06 0 0)
(-0.61932584 -0.14369415 0 -6.0250076e-06 0 0)
(-0.61474281 -0.14313585 0 5.7109209e-06 0 0)
(-0.61897963 -0.14365249 0 -5.4221306e-06 0 0)
(-0.61507006 -0.14317534 0 5.1550661e-06 0 0)
(-0.61866791 -0.14361501 0 -4.9107481e-06 0 0)
(-0.61536578 -0.14321096 0 4.686196e-06 0 0)
(-0.6183854 -0.1435811 0 -4.482254e-06 0 0)
(-0.61563493 -0.14324331 0 4.2964354e-06 0 0)
(-0.61812731 -0.14355017 0 -4.1294664e-06 0 0)
(-0.61588204 -0.14327294 0 3.9792806e-06 0 0)
(-0.61788928 -0.14352171 0 -3.8465361e-06 0 0)
(-0.61611126 -0.14330035 0 3.7295372e-06 0 0)
(-0.61766726 -0.14349523 0 -3.6289306e-06 0 0)
(-0.61632647 -0.14332601 0 3.5433601e-06 0 0)
(-0.61745748 -0.14347028 0 -3.4736555e-06 0 0)
(-0.61653126 -0.14335034 0 3.4190025e-06 0 0)
(-0.61725649 -0.14344646 0 -3.3766915e-06 0 0)
(-0.61673351 -0.14337418 0 3.3869885e-06 0 0)
(-0.61709751 -0.14342766 0 -3.3338188e-06 0 0)
(-0.3558286 -0.19390333 0 -0.06620357 0 0)
(-0.60578636 -0.14212112 0 -0.00023989865 0 0)
(-0.55254002 -0.135729 0 -3.3787688e-05 0 0)
(-0.58560379 -0.13981074 0 -2.8726791e-05 0 0)
(-0.55776663 -0.13623894 0 3.6393487e-05 0 0)
(-0.58394178 -0.13961809 0 -3.1802928e-05 0 0)
(-0.56008558 -0.13653671 0 3.1776701e-05 0 0)
(-0.58253998 -0.13944029 0 -2.931998e-05 0 0)
(-0.56157493 -0.13673051 0 2.7743192e-05 0 0)
(-0.58122548 -0.13927204 0 -2.5933702e-05 0 0)
(-0.56282153 -0.13689301 0 2.435328e-05 0 0)
(-0.58005107 -0.13912156 0 -2.2832103e-05 0 0)
(-0.56391053 -0.13703485 0 2.1418558e-05 0 0)
(-0.57901558 -0.13898876 0 -2.009592e-05 0 0)
(-0.5648683 -0.13715947 0 1.8853005e-05 0 0)
(-0.57810451 -0.13887183 0 -1.7695743e-05 0 0)
(-0.56571198 -0.13726913 0 1.6606795e-05 0 0)
(-0.57730273 -0.13876887 0 -1.5593689e-05 0 0)
(-0.56645578 -0.13736572 0 1.4640948e-05 0 0)
(-0.57659659 -0.13867814 0 -1.375471e-05 0 0)
(-0.56711208 -0.13745086 0 1.2922122e-05 0 0)
(-0.575974 -0.13859812 0 -1.2147837e-05 0 0)
(-0.56769179 -0.13752601 0 1.1421292e-05 0 0)
(-0.57542432 -0.13852746 0 -1.0745956e-05 0 0)
(-0.56820457 -0.13759241 0 1.0113136e-05 0 0)
(-0.57493816 -0.13846496 0 -9.5254074e-06 0 0)
(-0.56865899 -0.1376512 0 8.9755894e-06 0 0)
(-0.57450725 -0.13840957 0 -8.4655924e-06 0 0)
(-0.56906264 -0.13770337 0 7.9894642e-06 0 0)
(-0.57412425 -0.13836036 0 -7.5486284e-06 0 0)
(-0.56942226 -0.13774979 0 7.1381328e-06 0 0)
(-0.57378264 -0.13831649 0 -6.7590498e-06 0 0)
(-0.5697439 -0.13779125 0 6.4072475e-06 0 0)
(-0.57347664 -0.13827723 0 -6.0835507e-06 0 0)
(-0.57003293 -0.13782845 0 5.7845051e-06 0 0)
(-0.57320104 -0.13824191 0 -5.5107676e-06 0 0)
(-0.57029421 -0.13786201 0 5.2594495e-06 0 0)
(-0.57295118 -0.13820994 0 -5.0311023e-06 0 0)
(-0.57053212 -0.1378925 0 4.8233165e-06 0 0)
(-0.57272282 -0.13818078 0 -4.6365904e-06 0 0)
(-0.57075068 -0.13792044 0 4.468932e-06 0 0)
(-0.57251209 -0.13815393 0 -4.3208389e-06 0 0)
(-0.57095356 -0.1379463 0 4.1907081e-06 0 0)
(-0.57231541 -0.13812894 0 -4.0791182e-06 0 0)
(-0.57114419 -0.13797051 0 3.9848539e-06 0 0)
(-0.57212942 -0.1381054 0 -3.9090734e-06 0 0)
(-0.57132579 -0.13799347 0 3.8510804e-06 0 0)
(-0.57195077 -0.13808286 0 -3.8052407e-06 0 0)
(-0.57150379 -0.13801567 0 3.8753852e-06 0 0)
(-0.57180109 -0.138064 0 -3.7099359e-06 0 0)
(-0.33418378 -0.18410744 0 -0.061742923 0 0)
(-0.56595526 -0.13700264 0 -0.00012891168 0 0)
(-0.52481941 -0.13230058 0 -5.4524062e-05 0 0)
(-0.55506735 -0.13614928 0 -2.723853e-05 0 0)
(-0.52962975 -0.1327272 0 3.6645856e-05 0 0)
(-0.55357457 -0.1359654 0 -3.0732237e-05 0 0)
(-0.53175706 -0.13301232 0 3.1792017e-05 0 0)
(-0.55230113 -0.13579701 0 -2.9048373e-05 0 0)
(-0.53312174 -0.13319839 0 2.761861e-05 0 0)
(-0.55109962 -0.13563588 0 -2.5769259e-05 0 0)
(-0.53426248 -0.13335433 0 2.4217584e-05 0 0)
(-0.55002512 -0.1354916 0 -2.2697877e-05 0 0)
(-0.53525875 -0.13349041 0 2.129497e-05 0 0)
(-0.54907764 -0.13536425 0 -1.9979475e-05 0 0)
(-0.53613499 -0.13360995 0 1.8743588e-05 0 0)
(-0.54824403 -0.13525213 0 -1.7593483e-05 0 0)
(-0.53690692 -0.13371516 0 1.6510376e-05 0 0)
(-0.54751046 -0.13515339 0 -1.5503629e-05 0 0)
(-0.5375875 -0.13380782 0 1.4556002e-05 0 0)
(-0.5468644 -0.13506638 0 -1.3675301e-05 0 0)
(-0.53818806 -0.13388951 0 1.2847226e-05 0 0)
(-0.54629479 -0.13498964 0 -1.2077746e-05 0 0)
(-0.53871857 -0.13396161 0 1.1355182e-05 0 0)
(-0.54579189 -0.13492187 0 -1.0684014e-05 0 0)
(-0.53918788 -0.13402533 0 1.0054698e-05 0 0)
(-0.5453471 -0.13486193 0 -9.4705824e-06 0 0)
(-0.5396038 -0.13408174 0 8.9238407e-06 0 0)
(-0.54495284 -0.1348088 0 -8.4169759e-06 0 0)
(-0.53997328 -0.1341318 0 7.9435421e-06 0 0)
(-0.5446024 -0.13476159 0 -7.5054212e-06 0 0)
(-0.5403025 -0.13417636 0 7.097281e-06 0 0)
(-0.54428982 -0.1347195 0 -6.7205526e-06 0 0)
(-0.54059698 -0.13421615 0 6.3708079e-06 0 0)
(-0.54400977 -0.13468183 0 -6.0491581e-06 0 0)
(-0.54086163 -0.13425187 0 5.7519142e-06 0 0)
(-0.54375752 -0.13464793 0 -5.4799681e-06 0 0)
(-0.54110091 -0.13428409 0 5.230242e-06 0 0)
(-0.54352878 -0.13461724 0 -5.0034883e-06 0 0)
(-0.54131884 -0.13431338 0 4.7971432e-06 0 0)
(-0.54331968 -0.13458924 0 -4.6118878e-06 0 0)
(-0.54151908 -0.13434022 0 4.4456065e-06 0 0)
(-0.54312667 -0.13456345 0 -4.2989806e-06 0 0)
(-0.541705 -0.13436507 0 4.1703238e-06 0 0)
(-0.54294646 -0.13453944 0 -4.0604373e-06 0 0)
(-0.54187976 -0.13438835 0 3.9680952e-06 0 0)
(-0.54277595 -0.1345168 0 -3.8949836e-06 0 0)
(-0.54204633 -0.13441044 0 3.8402881e-06 0 0)
(-0.54261199 -0.13449511 0 -3.798848e-06 0 0)
(-0.54220932 -0.13443166 0 3.9100106e-06 0 0)
(-0.54247045 -0.13447664 0 -3.806169e-06 0 0)
(-0.31951559 -0.17556151 0 -0.056857554 0 0)
(-0.52973333 -0.1323227 0 -6.9676514e-05 0 0)
(-0.49757876 -0.12885151 0 -7.9251021e-05 0 0)
(-0.52540943 -0.13248941 0 -2.2736278e-05 0 0)
(-0.5021305 -0.12921522 0 3.3374792e-05 0 0)
(-0.52410806 -0.13231382 0 -2.6408213e-05 0 0)
(-0.50409076 -0.12948776 0 2.8851288e-05 0 0)
(-0.52294809 -0.13215477 0 -2.5968635e-05 0 0)
(-0.50534435 -0.12966618 0 2.4875352e-05 0 0)
(-0.52184576 -0.13200065 0 -2.3141697e-05 0 0)
(-0.50639099 -0.12981557 0 2.1776001e-05 0 0)
(-0.52085888 -0.13186246 0 -2.0398071e-05 0 0)
(-0.50730483 -0.1299459 0 1.9142142e-05 0 0)
(-0.51998861 -0.13174048 0 -1.7957523e-05 0 0)
(-0.50810858 -0.13006039 0 1.6847746e-05 0 0)
(-0.51922297 -0.13163306 0 -1.5813449e-05 0 0)
(-0.50881669 -0.13016115 0 1.484029e-05 0 0)
(-0.51854924 -0.13153847 0 -1.3935164e-05 0 0)
(-0.50944104 -0.1302499 0 1.308363e-05 0 0)
(-0.51795591 -0.13145511 0 -1.2291881e-05 0 0)
(-0.50999201 -0.13032815 0 1.1547756e-05 0 0)
(-0.51743283 -0.13138159 0 -1.0856015e-05 0 0)
(-0.51047875 -0.13039721 0 1.0206701e-05 0 0)
(-0.51697102 -0.13131665 0 -9.6033546e-06 0 0)
(-0.51090935 -0.13045825 0 9.0378384e-06 0 0)
(-0.51656259 -0.13125922 0 -8.5127631e-06 0 0)
(-0.51129099 -0.13051229 0 8.021456e-06 0 0)
(-0.51620057 -0.13120831 0 -7.5658411e-06 0 0)
(-0.51163002 -0.13056026 0 7.1404208e-06 0 0)
(-0.51587879 -0.13116307 0 -6.7466206e-06 0 0)
(-0.51193213 -0.13060295 0 6.3798903e-06 0 0)
(-0.51559178 -0.13112273 0 -6.0413006e-06 0 0)
(-0.51220236 -0.13064109 0 5.727069e-06 0 0)
(-0.51533465 -0.13108661 0 -5.4380213e-06 0 0)
(-0.51244524 -0.13067532 0 5.1710027e-06 0 0)
(-0.51510304 -0.13105411 0 -4.9266788e-06 0 0)
(-0.51266484 -0.13070622 0 4.7024138e-06 0 0)
(-0.51489303 -0.13102467 0 -4.4987814e-06 0 0)
(-0.51286486 -0.13073432 0 4.3135847e-06 0 0)
(-0.51470104 -0.1309978 0 -4.147366e-06 0 0)
(-0.51304865 -0.13076007 0 3.9983172e-06 0 0)
(-0.51452381 -0.13097305 0 -3.8670182e-06 0 0)
(-0.51321932 -0.13078392 0 3.7520512e-06 0 0)
(-0.51435834 -0.13094999 0 -3.6541646e-06 0 0)
(-0.51337977 -0.13080628 0 3.5723834e-06 0 0)
(-0.51420176 -0.13092824 0 -3.5086017e-06 0 0)
(-0.51353273 -0.13082751 0 3.4619382e-06 0 0)
(-0.51405107 -0.13090737 0 -3.4267903e-06 0 0)
(-0.51368206 -0.13084779 0 3.5799596e-06 0 0)
(-0.51391686 -0.13088924 0 -3.5144905e-06 0 0)
(-0.30604407 -0.16736251 0 -0.052170586 0 0)
(-0.49473286 -0.12768356 0 2.9681885e-06 0 0)
(-0.47075068 -0.12535341 0 -9.5936384e-05 0 0)
(-0.49656186 -0.12883178 0 -1.9115274e-05 0 0)
(-0.47528222 -0.12569893 0 2.9551013e-05 0 0)
(-0.49550191 -0.12866571 0 -2.196098e-05 0 0)
(-0.47710745 -0.12596 0 2.5676498e-05 0 0)
(-0.49444579 -0.12851533 0 -2.2688117e-05 0 0)
(-0.47826125 -0.12613114 0 2.1929528e-05 0 0)
(-0.49343289 -0.12836784 0 -2.0328094e-05 0 0)
(-0.47922323 -0.12627433 0 1.9158288e-05 0 0)
(-0.49252511 -0.12823544 0 -1.7933461e-05 0 0)
(-0.48006294 -0.12639921 0 1.6834739e-05 0 0)
(-0.49172454 -0.12811855 0 -1.5790354e-05 0 0)
(-0.48080149 -0.12650891 0 1.4815845e-05 0 0)
(-0.49102025 -0.12801562 0 -1.3905502e-05 0 0)
(-0.4814522 -0.12660546 0 1.3050305e-05 0 0)
(-0.49040055 -0.12792498 0 -1.2253951e-05 0 0)
(-0.48202598 -0.1266905 0 1.1505491e-05 0 0)
(-0.48985484 -0.1278451 0 -1.0808974e-05 0 0)
(-0.48253234 -0.12676548 0 1.015487e-05 0 0)
(-0.48937377 -0.12777464 0 -9.5463732e-06 0 0)
(-0.48297968 -0.12683165 0 8.9755827e-06 0 0)
(-0.48894907 -0.12771242 0 -8.4448724e-06 0 0)
(-0.48337544 -0.12689015 0 7.9477281e-06 0 0)
(-0.48857349 -0.12765737 0 -7.4858899e-06 0 0)
(-0.48372621 -0.12694194 0 7.0539726e-06 0 0)
(-0.4882406 -0.12760858 0 -6.6532502e-06 0 0)
(-0.48403782 -0.12698792 0 6.2792518e-06 0 0)
(-0.48794474 -0.12756521 0 -5.9329173e-06 0 0)
(-0.4843155 -0.12702884 0 5.6105185e-06 0 0)
(-0.48768085 -0.12752654 0 -5.3127626e-06 0 0)
(-0.48456387 -0.12706541 0 5.0365288e-06 0 0)
(-0.48744446 -0.12749191 0 -4.7823687e-06 0 0)
(-0.48478709 -0.12709823 0 4.5476633e-06 0 0)
(-0.48723154 -0.12746074 0 -4.3328688e-06 0 0)
(-0.48498892 -0.12712787 0 4.1357866e-06 0 0)
(-0.48703849 -0.12743251 0 -3.9568267e-06 0 0)
(-0.48517274 -0.12715481 0 3.7941523e-06 0 0)
(-0.48686202 -0.12740673 0 -3.6481742e-06 0 0)
(-0.48534163 -0.12717952 0 3.5173849e-06 0 0)
(-0.48669915 -0.12738297 0 -3.4022555e-06 0 0)
(-0.48549846 -0.12720242 0 3.3016269e-06 0 0)
(-0.48654709 -0.12736084 0 -3.2161573e-06 0 0)
(-0.48564588 -0.12722389 0 3.1450964e-06 0 0)
(-0.4864032 -0.12733995 0 -3.0904092e-06 0 0)
(-0.48578643 -0.12724428 0 3.0509948e-06 0 0)
(-0.48626469 -0.12731989 0 -3.021072e-06 0 0)
(-0.48592336 -0.12726369 0 3.2042925e-06 0 0)
(-0.48613798 -0.12730215 0 -3.1785695e-06 0 0)
(-0.29294693 -0.15939575 0 -0.047710108 0 0)
(-0.46142251 -0.12313549 0 8.9648465e-05 0 0)
(-0.44448385 -0.1218212 0 -0.00010390323 0 0)
(-0.4685273 -0.1251744 0 -1.6341673e-05 0 0)
(-0.449112 -0.12217939 0 2.5896565e-05 0 0)
(-0.467732 -0.12502004 0 -1.8076269e-05 0 0)
(-0.45082968 -0.12243006 0 2.2913047e-05 0 0)
(-0.46677485 -0.12487797 0 -1.9815211e-05 0 0)
(-0.4518928 -0.12259421 0 1.9352511e-05 0 0)
(-0.46584422 -0.12473684 0 -1.7864265e-05 0 0)
(-0.45277717 -0.12273142 0 1.6867014e-05 0 0)
(-0.46500908 -0.12461002 0 -1.5775497e-05 0 0)
(-0.45354889 -0.12285105 0 1.4814928e-05 0 0)
(-0.46427249 -0.12449803 0 -1.3892876e-05 0 0)
(-0.45422765 -0.12295614 0 1.3037148e-05 0 0)
(-0.46362453 -0.12439942 0 -1.2234997e-05 0 0)
(-0.45482571 -0.12304863 0 1.1483342e-05 0 0)
(-0.46305444 -0.12431257 0 -1.078196e-05 0 0)
(-0.45535308 -0.1231301 0 1.0123947e-05 0 0)
(-0.46255245 -0.12423604 0 -9.5105993e-06 0 0)
(-0.45581852 -0.12320193 0 8.9354691e-06 0 0)
(-0.46210994 -0.12416854 0 -8.3996867e-06 0 0)
(-0.45622972 -0.12326533 0 7.8977683e-06 0 0)
(-0.46171931 -0.12410891 0 -7.4305147e-06 0 0)
(-0.45659351 -0.12332137 0 6.9933266e-06 0 0)
(-0.46137387 -0.12405617 0 -6.586739e-06 0 0)
(-0.45691595 -0.123371 0 6.2068908e-06 0 0)
(-0.46106773 -0.12400941 0 -5.8541308e-06 0 0)
(-0.4572024 -0.12341506 0 5.5252064e-06 0 0)
(-0.46079564 -0.12396785 0 -5.2203443e-06 0 0)
(-0.45745765 -0.12345427 0 4.9367952e-06 0 0)
(-0.46055298 -0.12393079 0 -4.6747134e-06 0 0)
(-0.45768596 -0.12348932 0 4.4317686e-06 0 0)
(-0.46033562 -0.1238976 0 -4.2080802e-06 0 0)
(-0.45789115 -0.12352078 0 4.0016714e-06 0 0)
(-0.46013986 -0.12386772 0 -3.8126559e-06 0 0)
(-0.45807666 -0.12354919 0 3.6393604e-06 0 0)
(-0.45996238 -0.12384065 0 -3.4819189e-06 0 0)
(-0.45824561 -0.12357503 0 3.3389273e-06 0 0)
(-0.45980017 -0.12381592 0 -3.2105682e-06 0 0)
(-0.45840083 -0.12359874 0 3.0956938e-06 0 0)
(-0.45965047 -0.12379314 0 -2.9945801e-06 0 0)
(-0.45854494 -0.1236207 0 2.9063701e-06 0 0)
(-0.45951072 -0.12377189 0 -2.8315474e-06 0 0)
(-0.4586804 -0.1236413 0 2.7696065e-06 0 0)
(-0.45937851 -0.12375184 0 -2.7224491e-06 0 0)
(-0.45880954 -0.12366089 0 2.6887231e-06 0 0)
(-0.45925121 -0.12373257 0 -2.662496e-06 0 0)
(-0.45893508 -0.12367946 0 2.8663869e-06 0 0)
(-0.45913192 -0.12371524 0 -2.873006e-06 0 0)
(-0.28036117 -0.15170921 0 -0.043454515 0 0)
(-0.42979135 -0.118675 0 0.00019172372 0 0)
(-0.41880318 -0.11825981 0 -0.00010381249 0 0)
(-0.44133095 -0.12151614 0 -1.3509711e-05 0 0)
(-0.42363487 -0.11865703 0 2.2433019e-05 0 0)
(-0.44078777 -0.12137606 0 -1.4666631e-05 0 0)
(-0.42526662 -0.11889844 0 2.0483229e-05 0 0)
(-0.43992596 -0.12124214 0 -1.7281477e-05 0 0)
(-0.42624728 -0.11905585 0 1.707877e-05 0 0)
(-0.4390717 -0.12110718 0 -1.5689866e-05 0 0)
(-0.42706013 -0.11918725 0 1.4844905e-05 0 0)
(-0.43830372 -0.12098576 0 -1.3871045e-05 0 0)
(-0.4277691 -0.11930179 0 1.3032366e-05 0 0)
(-0.4376263 -0.12087854 0 -1.2218308e-05 0 0)
(-0.42839268 -0.1194024 0 1.1467367e-05 0 0)
(-0.4370304 -0.12078411 0 -1.0760728e-05 0 0)
(-0.42894214 -0.11949095 0 1.0100416e-05 0 0)
(-0.43650615 -0.12070096 0 -9.4828726e-06 0 0)
(-0.42942669 -0.11956895 0 8.9046515e-06 0 0)
(-0.43604456 -0.12062768 0 -8.3647199e-06 0 0)
(-0.42985434 -0.11963773 0 7.8592625e-06 0 0)
(-0.43563768 -0.12056303 0 -7.3876627e-06 0 0)
(-0.43023218 -0.11969844 0 6.9465058e-06 0 0)
(-0.43527853 -0.12050594 0 -6.5352603e-06 0 0)
(-0.43056647 -0.1197521 0 6.1509676e-06 0 0)
(-0.43496094 -0.12045543 0 -5.793142e-06 0 0)
(-0.43086275 -0.11979962 0 5.4592302e-06 0 0)
(-0.43467949 -0.12041065 0 -5.1487964e-06 0 0)
(-0.43112598 -0.11984181 0 4.8596351e-06 0 0)
(-0.43442937 -0.12037085 0 -4.5913681e-06 0 0)
(-0.43136053 -0.11987937 0 4.3420883e-06 0 0)
(-0.43420632 -0.12033535 0 -4.1114802e-06 0 0)
(-0.43157032 -0.11991294 0 3.897895e-06 0 0)
(-0.43400653 -0.12030356 0 -3.701084e-06 0 0)
(-0.43175886 -0.11994308 0 3.5196246e-06 0 0)
(-0.43382661 -0.12027493 0 -3.3533383e-06 0 0)
(-0.43192932 -0.1199703 0 3.2010055e-06 0 0)
(-0.43366351 -0.12024899 0 -3.062523e-06 0 0)
(-0.43208454 -0.11999506 0 2.9368604e-06 0 0)
(-0.43351445 -0.1202253 0 -2.8240028e-06 0 0)
(-0.43222715 -0.12001778 0 2.7231116e-06 0 0)
(-0.4333769 -0.12020345 0 -2.6342911e-06 0 0)
(-0.43235953 -0.12003884 0 2.5569398e-06 0 0)
(-0.43324851 -0.12018308 0 -2.4913807e-06 0 0)
(-0.43248396 -0.1200586 0 2.437305e-06 0 0)
(-0.43312707 -0.12016384 0 -2.3965203e-06 0 0)
(-0.43260257 -0.12007739 0 2.3673835e-06 0 0)
(-0.43301012 -0.12014534 0 -2.3439288e-06 0 0)
(-0.43271765 -0.12009517 0 2.5608608e-06 0 0)
(-0.43289812 -0.12012845 0 -2.595408e-06 0 0)
(-0.26839942 -0.14431933 0 -0.039381355 0 0)
(-0.39983037 -0.11430577 0 0.00030624399 0 0)
(-0.39370154 -0.11467232 0 -9.7273529e-05 0 0)
(-0.41501693 -0.11785901 0 -9.8778596e-06 0 0)
(-0.39886663 -0.11513212 0 1.9243169e-05 0 0)
(-0.41466587 -0.1177336 0 -1.1571428e-05 0 0)
(-0.4004238 -0.11536529 0 1.8260154e-05 0 0)
(-0.4138943 -0.11760769 0 -1.4966245e-05 0 0)
(-0.40132927 -0.11551621 0 1.4995146e-05 0 0)
(-0.41311107 -0.11747873 0 -1.3699157e-05 0 0)
(-0.40207612 -0.11564196 0 1.2992659e-05 0 0)
(-0.41240533 -0.11736256 0 -1.2127063e-05 0 0)
(-0.40272711 -0.11575154 0 1.1399705e-05 0 0)
(-0.41178268 -0.11725997 0 -1.0684765e-05 0 0)
(-0.40329967 -0.1158478 0 1.0029617e-05 0 0)
(-0.41123499 -0.11716962 0 -9.4105901e-06 0 0)
(-0.4038042 -0.11593251 0 8.8338067e-06 0 0)
(-0.41075318 -0.11709005 0 -8.2931479e-06 0 0)
(-0.40424915 -0.11600714 0 7.7879061e-06 0 0)
(-0.41032898 -0.11701994 0 -7.3152884e-06 0 0)
(-0.40464188 -0.11607294 0 6.8735633e-06 0 0)
(-0.40995508 -0.11695808 0 -6.4608024e-06 0 0)
(-0.40498886 -0.11613103 0 6.0752323e-06 0 0)
(-0.40962506 -0.11690345 0 -5.7153242e-06 0 0)
(-0.40529586 -0.11618238 0 5.3794261e-06 0 0)
(-0.40933325 -0.11685512 0 -5.0662898e-06 0 0)
(-0.40556797 -0.11622785 0 4.7744078e-06 0 0)
(-0.40907466 -0.11681226 0 -4.5027594e-06 0 0)
(-0.40580971 -0.11626822 0 4.2499805e-06 0 0)
(-0.40884486 -0.11677417 0 -4.0152419e-06 0 0)
(-0.40602512 -0.11630417 0 3.7973166e-06 0 0)
(-0.40863994 -0.11674019 0 -3.5955395e-06 0 0)
(-0.40621779 -0.1163363 0 3.408814e-06 0 0)
(-0.40845641 -0.11670976 0 -3.2366175e-06 0 0)
(-0.40639094 -0.11636515 0 3.077978e-06 0 0)
(-0.40829114 -0.11668235 0 -2.9324993e-06 0 0)
(-0.40654748 -0.11639121 0 2.7993313e-06 0 0)
(-0.40814133 -0.11665752 0 -2.6781937e-06 0 0)
(-0.40669002 -0.11641492 0 2.5683602e-06 0 0)
(-0.40800443 -0.11663482 0 -2.4696668e-06 0 0)
(-0.40682096 -0.11643668 0 2.3815249e-06 0 0)
(-0.40787811 -0.1166139 0 -2.3039067e-06 0 0)
(-0.40694251 -0.11645686 0 2.2364134e-06 0 0)
(-0.40776023 -0.11659438 0 -2.1792367e-06 0 0)
(-0.40705675 -0.1164758 0 2.1322144e-06 0 0)
(-0.40764873 -0.11657594 0 -2.097051e-06 0 0)
(-0.40716562 -0.11649381 0 2.0717974e-06 0 0)
(-0.40754137 -0.11655819 0 -2.0505208e-06 0 0)
(-0.40727106 -0.11651082 0 2.274292e-06 0 0)
(-0.40743648 -0.11654175 0 -2.3341233e-06 0 0)
(-0.25705275 -0.13721528 0 -0.035483126 0 0)
(-0.37151021 -0.1100277 0 0.0004307731 0 0)
(-0.36919394 -0.11106152 0 -8.5503221e-05 0 0)
(-0.38959427 -0.11420402 0 -5.2411306e-06 0 0)
(-0.37482107 -0.11160497 0 1.653239e-05 0 0)
(-0.38936407 -0.11409274 0 -8.7099597e-06 0 0)
(-0.37630617 -0.11183064 0 1.6199212e-05 0 0)
(-0.38867598 -0.11397459 0 -1.2822599e-05 0 0)
(-0.37714261 -0.11197529 0 1.305815e-05 0 0)
(-0.38795884 -0.11385146 0 -1.185162e-05 0 0)
(-0.37782849 -0.11209555 0 1.1272199e-05 0 0)
(-0.38731082 -0.1137404 0 -1.0507844e-05 0 0)
(-0.37842584 -0.11220031 0 9.8834789e-06 0 0)
(-0.38673895 -0.11364232 0 -9.2608137e-06 0 0)
(-0.37895119 -0.11229233 0 8.6944428e-06 0 0)
(-0.38623594 -0.11355593 0 -8.1569053e-06 0 0)
(-0.37941414 -0.11237332 0 7.6575662e-06 0 0)
(-0.38579346 -0.11347986 0 -7.188398e-06 0 0)
(-0.37982244 -0.11244467 0 6.7508331e-06 0 0)
(-0.38540391 -0.11341281 0 -6.3407947e-06 0 0)
(-0.38018282 -0.11250758 0 5.9581793e-06 0 0)
(-0.38506057 -0.11335367 0 -5.60011e-06 0 0)
(-0.38050125 -0.11256311 0 5.2661005e-06 0 0)
(-0.38475754 -0.11330143 0 -4.9539043e-06 0 0)
(-0.38078299 -0.11261221 0 4.662899e-06 0 0)
(-0.38448961 -0.11325522 0 -4.3912901e-06 0 0)
(-0.38103271 -0.11265569 0 4.1383986e-06 0 0)
(-0.38425219 -0.11321424 0 -3.9027866e-06 0 0)
(-0.38125457 -0.11269429 0 3.6837594e-06 0 0)
(-0.38404122 -0.11317781 0 -3.4801681e-06 0 0)
(-0.38145226 -0.11272867 0 3.2913293e-06 0 0)
(-0.38385309 -0.11314531 0 -3.1163307e-06 0 0)
(-0.38162908 -0.1127594 0 2.9545193e-06 0 0)
(-0.38368462 -0.1131162 0 -2.8051792e-06 0 0)
(-0.38178798 -0.112787 0 2.6677021e-06 0 0)
(-0.38353292 -0.11308999 0 -2.5415378e-06 0 0)
(-0.38193163 -0.11281193 0 2.4261349e-06 0 0)
(-0.38339541 -0.11306622 0 -2.3210872e-06 0 0)
(-0.38206243 -0.11283462 0 2.2259145e-06 0 0)
(-0.38326977 -0.11304451 0 -2.1403447e-06 0 0)
(-0.38218258 -0.11285544 0 2.0639905e-06 0 0)
(-0.38315386 -0.11302447 0 -1.9967248e-06 0 0)
(-0.3822941 -0.11287476 0 1.9383083e-06 0 0)
(-0.38304569 -0.11300579 0 -1.8888266e-06 0 0)
(-0.3823989 -0.11289289 0 1.8482233e-06 0 0)
(-0.38294341 -0.11298812 0 -1.8180912e-06 0 0)
(-0.38249877 -0.11291015 0 1.7961831e-06 0 0)
(-0.38284492 -0.11297112 0 -1.7766148e-06 0 0)
(-0.3825953 -0.11292643 0 2.0018863e-06 0 0)
(-0.38274693 -0.11295515 0 -2.0853726e-06 0 0)
(-0.24626089 -0.13037915 0 -0.031758097 0 0)
(-0.34479525 -0.10583929 0 0.00056377063 0 0)
(-0.34535854 -0.10743404 0 -6.9164444e-05 0 0)
(-0.36501961 -0.11054864 0 1.2767826e-07 0 0)
(-0.35150531 -0.10807584 0 1.4469526e-05 0 0)
(-0.36487816 -0.11045341 0 -6.0453638e-06 0 0)
(-0.35291802 -0.10829451 0 1.4290325e-05 0 0)
(-0.36426738 -0.11034282 0 -1.083563e-05 0 0)
(-0.35369084 -0.10843311 0 1.1254802e-05 0 0)
(-0.36361175 -0.11022536 0 -1.0135221e-05 0 0)
(-0.35432034 -0.10854804 0 9.6721715e-06 0 0)
(-0.36301734 -0.11011928 0 -9.0027539e-06 0 0)
(-0.354868 -0.10864812 0 8.4737347e-06 0 0)
(-0.3624926 -0.11002557 0 -7.9370817e-06 0 0)
(-0.35534961 -0.10873602 0 7.4530866e-06 0 0)
(-0.36203106 -0.10994304 0 -6.9914226e-06 0 0)
(-0.35577402 -0.10881339 0 6.5639814e-06 0 0)
(-0.36162507 -0.10987035 0 -6.1613549e-06 0 0)
(-0.35614835 -0.10888154 0 5.7866322e-06 0 0)
(-0.36126767 -0.1098063 0 -5.4348307e-06 0 0)
(-0.35647877 -0.10894164 0 5.1071092e-06 0 0)
(-0.36095269 -0.1097498 0 -4.799929e-06 0 0)
(-0.35677072 -0.1089947 0 4.513807e-06 0 0)
(-0.36067469 -0.10969988 0 -4.2459996e-06 0 0)
(-0.35702905 -0.1090416 0 3.9966919e-06 0 0)
(-0.36042891 -0.10965572 0 -3.7637133e-06 0 0)
(-0.35725802 -0.10908315 0 3.5470387e-06 0 0)
(-0.36021112 -0.10961657 0 -3.3449445e-06 0 0)
(-0.35746144 -0.10912003 0 3.1572685e-06 0 0)
(-0.36001761 -0.10958176 0 -2.9826434e-06 0 0)
(-0.35764271 -0.10915288 0 2.8208213e-06 0 0)
(-0.35984507 -0.1095507 0 -2.6707218e-06 0 0)
(-0.35780483 -0.10918225 0 2.5320493e-06 0 0)
(-0.35969055 -0.10952288 0 -2.4039566e-06 0 0)
(-0.35795053 -0.10920862 0 2.2861299e-06 0 0)
(-0.35955143 -0.10949782 0 -2.1779137e-06 0 0)
(-0.35808223 -0.10923246 0 2.0790001e-06 0 0)
(-0.35942534 -0.1094751 0 -1.9888954e-06 0 0)
(-0.35820215 -0.10925415 0 1.9073198e-06 0 0)
(-0.35931014 -0.10945434 0 -1.8339243e-06 0 0)
(-0.3583123 -0.10927406 0 1.7684848e-06 0 0)
(-0.35920387 -0.10943518 0 -1.7107995e-06 0 0)
(-0.35841453 -0.10929254 0 1.6607552e-06 0 0)
(-0.35910471 -0.1094173 0 -1.6183501e-06 0 0)
(-0.35851058 -0.10930989 0 1.5836029e-06 0 0)
(-0.35901096 -0.1094004 0 -1.5579841e-06 0 0)
(-0.3586021 -0.10932641 0 1.5389762e-06 0 0)
(-0.3589207 -0.10938412 0 -1.5207215e-06 0 0)
(-0.3586904 -0.10934198 0 1.7428764e-06 0 0)
(-0.35882938 -0.10936863 0 -1.8487729e-06 0 0)
(-0.23595388 -0.1237933 0 -0.028203894 0 0)
(-0.31964191 -0.10173817 0 0.00070446093 0 0)
(-0.32228319 -0.10379674 0 -4.8735066e-05 0 0)
(-0.34124732 -0.10689046 0 5.8383132e-06 0 0)
(-0.32892143 -0.10454489 0 1.3106073e-05 0 0)
(-0.34120337 -0.10681555 0 -3.5617832e-06 0 0)
(-0.33026281 -0.10475694 0 1.2523734e-05 0 0)
(-0.34066515 -0.10671234 0 -8.9947122e-06 0 0)
(-0.33097709 -0.10488972 0 9.5757661e-06 0 0)
(-0.3400669 -0.1066004 0 -8.5414015e-06 0 0)
(-0.33155442 -0.10499946 0 8.1844306e-06 0 0)
(-0.33952236 -0.10649914 0 -7.6042118e-06 0 0)
(-0.332056 -0.10509498 0 7.1633456e-06 0 0)
(-0.33904142 -0.10640969 0 -6.7068817e-06 0 0)
(-0.33249703 -0.10517888 0 6.2992842e-06 0 0)
(-0.33861839 -0.10633091 0 -5.9082524e-06 0 0)
(-0.33288569 -0.10525273 0 5.5475358e-06 0 0)
(-0.33824631 -0.10626152 0 -5.2068304e-06 0 0)
(-0.3332285 -0.10531778 0 4.8904415e-06 0 0)
(-0.33791877 -0.10620038 0 -4.5928224e-06 0 0)
(-0.33353111 -0.10537515 0 4.3160634e-06 0 0)
(-0.33763011 -0.10614644 0 -4.0562224e-06 0 0)
(-0.33379851 -0.10542579 0 3.8145628e-06 0 0)
(-0.33737537 -0.10609879 0 -3.5880422e-06 0 0)
(-0.3340351 -0.10547057 0 3.3774526e-06 0 0)
(-0.33715016 -0.10605663 0 -3.1803999e-06 0 0)
(-0.33424482 -0.10551023 0 2.9973559e-06 0 0)
(-0.33695061 -0.10601925 0 -2.8264292e-06 0 0)
(-0.33443114 -0.10554545 0 2.667866e-06 0 0)
(-0.33677331 -0.10598601 0 -2.5201723e-06 0 0)
(-0.33459716 -0.10557681 0 2.3834375e-06 0 0)
(-0.33661523 -0.10595636 0 -2.2564839e-06 0 0)
(-0.33474565 -0.10560485 0 2.1392961e-06 0 0)
(-0.33647368 -0.10592979 0 -2.0309503e-06 0 0)
(-0.33487909 -0.10563004 0 1.9313658e-06 0 0)
(-0.33634624 -0.10590585 0 -1.8398249e-06 0 0)
(-0.33499971 -0.1056528 0 1.7562134e-06 0 0)
(-0.33623074 -0.10588415 0 -1.6799844e-06 0 0)
(-0.33510953 -0.10567352 0 1.611018e-06 0 0)
(-0.33612522 -0.10586431 0 -1.5489159e-06 0 0)
(-0.33521039 -0.10569255 0 1.4935832e-06 0 0)
(-0.3360279 -0.10584601 0 -1.4447656e-06 0 0)
(-0.335304 -0.10571021 0 1.4024469e-06 0 0)
(-0.3359371 -0.10582892 0 -1.3665551e-06 0 0)
(-0.33539193 -0.10572679 0 1.3371583e-06 0 0)
(-0.33585127 -0.10581276 0 -1.3155974e-06 0 0)
(-0.33547572 -0.1057426 0 1.2991245e-06 0 0)
(-0.33576865 -0.10579718 0 -1.2818698e-06 0 0)
(-0.3355564 -0.10575748 0 1.4969652e-06 0 0)
(-0.33568376 -0.10578219 0 -1.6242531e-06 0 0)
(-0.22606449 -0.11744214 0 -0.024816922 0 0)
(-0.29599943 -0.09772098 0 0.00085282057 0 0)
(-0.30002536 -0.10015472 0 -2.5147207e-05 0 0)
(-0.31825779 -0.10322928 0 1.1598727e-05 0 0)
(-0.30707036 -0.10101215 0 1.2383817e-05 0 0)
(-0.31833583 -0.10317911 0 -1.2567588e-06 0 0)
(-0.30834357 -0.10121799 0 1.0883689e-05 0 0)
(-0.31786637 -0.1030831 0 -7.2889551e-06 0 0)
(-0.30900411 -0.10134514 0 8.0106135e-06 0 0)
(-0.31732176 -0.10297653 0 -7.0607107e-06 0 0)
(-0.30953312 -0.10144985 0 6.7999585e-06 0 0)
(-0.31682364 -0.10287998 0 -6.3038405e-06 0 0)
(-0.30999195 -0.10154094 0 5.9444192e-06 0 0)
(-0.31638344 -0.10279466 0 -5.5628217e-06 0 0)
(-0.3103953 -0.10162095 0 5.2260982e-06 0 0)
(-0.31599623 -0.10271952 0 -4.9008831e-06 0 0)
(-0.31075077 -0.10169137 0 4.6021212e-06 0 0)
(-0.31565567 -0.10265335 0 -4.3190876e-06 0 0)
(-0.31106432 -0.10175341 0 4.0568773e-06 0 0)
(-0.31535589 -0.10259503 0 -3.8097112e-06 0 0)
(-0.3113411 -0.10180812 0 3.5802921e-06 0 0)
(-0.31509171 -0.10254358 0 -3.3645246e-06 0 0)
(-0.31158568 -0.10185642 0 3.1641716e-06 0 0)
(-0.31485858 -0.10249813 0 -2.976084e-06 0 0)
(-0.3118021 -0.10189913 0 2.8014677e-06 0 0)
(-0.31465249 -0.10245792 0 -2.6378531e-06 0 0)
(-0.31199393 -0.10193696 0 2.4860577e-06 0 0)
(-0.31446989 -0.10242226 0 -2.3441361e-06 0 0)
(-0.31216436 -0.10197055 0 2.2126246e-06 0 0)
(-0.31430766 -0.10239055 0 -2.0899902e-06 0 0)
(-0.31231622 -0.10200047 0 1.9765662e-06 0 0)
(-0.31416302 -0.10236226 0 -1.8711463e-06 0 0)
(-0.31245204 -0.10202722 0 1.7739206e-06 0 0)
(-0.31403351 -0.10233691 0 -1.6839424e-06 0 0)
(-0.3125741 -0.10205125 0 1.6013046e-06 0 0)
(-0.31391692 -0.10231408 0 -1.5252696e-06 0 0)
(-0.31268442 -0.10207297 0 1.4558691e-06 0 0)
(-0.31381126 -0.10229337 0 -1.3925362e-06 0 0)
(-0.31278486 -0.10209275 0 1.3352727e-06 0 0)
(-0.31371475 -0.10227443 0 -1.2836572e-06 0 0)
(-0.3128771 -0.10211091 0 1.2376924e-06 0 0)
(-0.31362573 -0.10225695 0 -1.1970934e-06 0 0)
(-0.3129627 -0.10212777 0 1.1619135e-06 0 0)
(-0.3135427 -0.10224063 0 -1.1320282e-06 0 0)
(-0.3130431 -0.10214361 0 1.1075324e-06 0 0)
(-0.31346423 -0.1022252 0 -1.089634e-06 0 0)
(-0.3131197 -0.10215871 0 1.075402e-06 0 0)
(-0.31338871 -0.10221032 0 -1.0589101e-06 0 0)
(-0.31319331 -0.10217294 0 1.2636235e-06 0 0)
(-0.31330998 -0.10219582 0 -1.4114785e-06 0 0)
(-0.2165304 -0.11131271 0 -0.021593983 0 0)
(-0.2738002 -0.09378237 0 0.0010089498 0 0)
(-0.2786194 -0.096513496 0 -1.6760777e-07 0 0)
(-0.29605057 -0.099565856 0 1.7327346e-05 0 0)
(-0.2859538 -0.097477557 0 1.2243092e-05 0 0)
(-0.29627265 -0.099544058 0 8.8653518e-07 0 0)
(-0.28716297 -0.097677673 0 9.357357e-06 0 0)
(-0.2958685 -0.099455062 0 -5.7073686e-06 0 0)
(-0.28777429 -0.097799414 0 6.5494197e-06 0 0)
(-0.2953741 -0.099353723 0 -5.6840974e-06 0 0)
(-0.28825858 -0.097899235 0 5.5100915e-06 0 0)
(-0.29491925 -0.099261743 0 -5.0936121e-06 0 0)
(-0.28867771 -0.097986025 0 4.8093807e-06 0 0)
(-0.29451695 -0.09918045 0 -4.497812e-06 0 0)
(-0.28904606 -0.098062252 0 4.2268729e-06 0 0)
(-0.29416307 -0.099108853 0 -3.9630681e-06 0 0)
(-0.28937068 -0.098129344 0 3.7218776e-06 0 0)
(-0.29385183 -0.099045797 0 -3.4926223e-06 0 0)
(-0.28965703 -0.098188454 0 3.2807745e-06 0 0)
(-0.29357788 -0.098990226 0 -3.0806433e-06 0 0)
(-0.28990981 -0.09824058 0 2.8952378e-06 0 0)
(-0.29333648 -0.098941201 0 -2.7205502e-06 0 0)
(-0.29013319 -0.0982866 0 2.5586067e-06 0 0)
(-0.29312346 -0.098897895 0 -2.406336e-06 0 0)
(-0.29033085 -0.098327291 0 2.2651734e-06 0 0)
(-0.29293514 -0.098859574 0 -2.1327164e-06 0 0)
(-0.29050606 -0.098363337 0 2.009983e-06 0 0)
(-0.29276831 -0.098825593 0 -1.8950846e-06 0 0)
(-0.29066172 -0.098395347 0 1.788733e-06 0 0)