/*--------------------------------*- C++ -*----------------------------------*\
| =========                 |                                                 |
| \\      /  F ield         | OpenFOAM: The Open Source CFD Toolbox           |
|  \\    /   O peration     | Version:  2312                                  |
|   \\  /    A nd           | Website:  www.openfoam.com                      |
|    \\/     M anipulation  |                                                 |
\*---------------------------------------------------------------------------*/
FoamFile
{
    version     2.0;
    format      ascii;
    arch        "LSB;label=32;scalar=64";
    class       volScalarField;
    location    "9";
    object      T;
}
// * * * * * * * * * * * * * * * * * * * * * * * * * * * * * * * * * * * * * //

dimensions      [0 0 0 1 0 0 0];

internalField   nonuniform List<scalar> 
4000
(
309.26112
310.16182
310.28943
310.37132
310.43265
310.49229
310.5425
310.59493
310.64081
310.68967
310.73332
310.78006
310.82239
310.86774
310.90922
310.95358
310.99446
311.03809
311.07855
311.12163
311.16175
311.20439
311.24426
311.28656
311.32622
311.36824
311.40772
311.44951
311.48883
311.53046
311.56964
311.61112
311.65016
311.69153
311.73046
311.77175
311.81055
311.85178
311.89045
311.93166
311.9702
312.01141
312.0498
312.09104
312.12926
312.1706
312.20858
312.25012
312.28764
312.33013
307.44582
309.25868
309.56138
309.72856
309.83423
309.93475
310.00707
310.086
310.1453
310.21354
310.26615
310.32804
310.37671
310.43441
310.48051
310.53525
310.57958
310.63214
310.67518
310.72606
310.76812
310.8177
310.85899
310.90753
310.94818
310.9959
311.03601
311.08307
311.1227
311.16923
311.20844
311.25454
311.29336
311.33913
311.37757
311.42311
311.46117
311.50654
311.54423
311.58952
311.62681
311.6721
311.70895
311.75434
311.79067
311.83633
311.87194
311.91823
311.95247
312.00153
306.13306
308.36811
308.83611
309.08736
309.23709
309.37818
309.47257
309.57783
309.65058
309.73808
309.79969
309.87664
309.93167
310.00166
310.05242
310.11748
310.16529
310.22672
310.27237
310.33103
310.37504
310.43153
310.47425
310.52902
310.57067
310.62407
310.66482
310.71712
310.75708
310.80849
310.84774
310.89846
310.93705
310.98722
311.02518
311.07495
311.11229
311.16179
311.1985
311.24786
311.28391
311.33326
311.36858
311.41811
311.45255
311.50253
311.53579
311.58681
311.61779
311.67322
305.1484
307.5037
308.11773
308.44991
308.64285
308.82377
308.94009
309.07129
309.15747
309.26398
309.33463
309.42645
309.48789
309.57002
309.62548
309.70076
309.75209
309.8223
309.8706
309.93695
309.98296
310.04628
310.09047
310.15141
310.19409
310.25312
310.29454
310.35204
310.39235
310.44861
310.48793
310.54322
310.58161
310.63614
310.67364
310.72762
310.76425
310.81785
310.8536
310.90701
310.94183
310.99524
311.02903
311.08268
311.11526
311.16954
311.20045
311.25617
311.28395
311.34545
304.38845
306.67901
307.41181
307.8193
308.05374
308.27317
308.41101
308.56752
308.66702
308.79214
308.8718
308.97822
309.04609
309.14014
309.20034
309.28566
309.34054
309.4194
309.4704
309.54432
309.59235
309.66243
309.70811
309.77514
309.81889
309.88348
309.9256
309.98823
310.02892
310.08998
310.12938
310.18921
310.22741
310.28627
310.32333
310.38148
310.41742
310.47509
310.5099
310.56732
310.60093
310.65835
310.69065
310.74839
310.77912
310.83766
310.86626
310.92663
310.95129
311.01849
303.78884
305.90576
306.72485
307.19932
307.47247
307.7284
307.88705
308.06791
308.18048
308.32362
308.41221
308.53281
308.60709
308.71277
308.77772
308.87284
308.93131
309.01862
309.07234
309.15369
309.20378
309.28047
309.32769
309.40069
309.44555
309.5156
309.55845
309.62613
309.66722
309.73302
309.77253
309.83682
309.87486
309.93799
309.97464
310.0369
310.07218
310.13387
310.16775
310.22914
310.26157
310.32297
310.35379
310.41557
310.44448
310.50724
310.53358
310.59852
310.62018
310.69265
303.30768
305.193
306.06376
306.59433
306.90215
307.19185
307.37015
307.57408
307.69928
307.85966
307.95699
308.09123
308.17185
308.28875
308.35843
308.46305
308.52511
308.62062
308.67709
308.76565
308.81784
308.90097
308.94975
309.02859
309.07457
309.14996
309.19357
309.2662
309.30772
309.37815
309.4178
309.48647
309.52438
309.59171
309.62796
309.69428
309.72891
309.79456
309.82755
309.89285
309.92412
309.98944
310.01881
310.08458
310.11172
310.17861
310.20275
310.27215
310.29098
310.36829
302.91652
304.54676
305.43528
306.00895
306.34622
306.66612
306.8625
307.08782
307.22499
307.40161
307.50737
307.65459
307.74139
307.86903
307.94336
308.0571
308.12271
308.22614
308.28533
308.38087
308.43514
308.52453
308.57488
308.65938
308.7065
308.78709
308.83147
308.90892
308.9509
309.02585
309.06565
309.13861
309.17642
309.24784
309.28373
309.35402
309.38804
309.45756
309.48969
309.55883
309.58897
309.65812
309.6861
309.75577
309.78118
309.85211
309.87414
309.94785
309.96406
310.04574
302.59528
303.97007
304.84546
305.44787
305.80822
306.15402
306.36641
306.61108
306.75932
306.95097
307.06471
307.22409
307.31682
307.4546
307.53345
307.65585
307.72495
307.83592
307.89781
308.00004
308.05638
308.15176
308.20368
308.29364
308.34191
308.42752
308.47268
308.55481
308.59725
308.67658
308.71657
308.7937
308.83141
308.90683
308.94237
309.01653
309.04996
309.12327
309.15456
309.22744
309.2565
309.3294
309.35602
309.42949
309.45324
309.5281
309.54811
309.62595
309.63977
309.72537
302.32931
303.4632
304.29929
304.91551
305.29172
305.65844
305.88429
306.14591
306.30406
306.50931
306.63042
306.80098
306.89932
307.04654
307.12971
307.26024
307.33269
307.4508
307.5153
307.62387
307.68225
307.78335
307.83681
307.93199
307.98139
308.07182
308.11776
308.20438
308.24729
308.33086
308.37103
308.45219
308.48982
308.56911
308.60433
308.68224
308.7151
308.79209
308.82258
308.8991
308.92711
309.00365
309.02895
309.10611
309.12828
309.20692
309.22503
309.30679
309.31848
309.40757
302.10756
303.02406
303.80033
304.41581
304.80009
305.1822
305.41856
305.69437
305.86103
306.07823
306.20595
306.3866
306.49008
306.64595
306.73315
306.87121
306.94685
307.0716
307.13861
307.25314
307.31346
307.41997
307.47492
307.57505
307.62555
307.72057
307.76728
307.85819
307.90156
307.98919
308.02954
308.11457
308.15213
308.23515
308.27006
308.35159
308.38391
308.46444
308.49415
308.57419
308.60118
308.68124
308.70529
308.786
308.80666
308.88893
308.90526
308.99071
309.00053
309.09271
301.92154
302.6487
303.35066
303.95198
304.33638
304.72799
304.97154
305.25853
305.43205
305.65937
305.79277
305.98228
306.09035
306.25396
306.34485
306.48976
306.56833
306.69921
306.76855
306.88861
306.95077
307.06232
307.11868
307.22346
307.27502
307.37437
307.4218
307.51678
307.56059
307.65207
307.6926
307.78132
307.81882
307.90539
307.94
308.025
308.05679
308.14073
308.1697
308.25311
308.27914
308.36256
308.38542
308.46953
308.48876
308.57447
308.58917
308.67805
308.68626
308.78116
301.76452
302.3318
302.95079
303.52633
303.90313
304.29823
304.54542
304.84034
305.01887
305.25432
305.39234
305.58934
305.70133
305.87171
305.96584
306.11686
306.19808
306.33448
306.40596
306.53106
306.59491
306.71111
306.76878
306.87788
306.93041
307.0338
307.08191
307.18071
307.22492
307.32004
307.36073
307.45294
307.49036
307.58031
307.61463
307.70292
307.73421
307.82139
307.84964
307.93625
307.96136
308.04799
308.06972
308.15705
308.17495
308.2639
308.27712
308.36915
308.37601
308.47328
301.63116
302.06717
302.59981
303.14022
303.5023
303.89498
304.14213
304.44162
304.62315
304.8646
305.00604
305.20909
305.32423
305.50032
305.59718
305.75349
305.837
305.97829
306.05165
306.18128
306.24663
306.36706
306.4259
306.53896
306.59235
306.69948
306.74818
306.85054
306.8951
306.99362
307.03442
307.12991
307.16723
307.26037
307.29438
307.38579
307.41657
307.50682
307.53438
307.62403
307.64826
307.73791
307.75858
307.84893
307.86561
307.95756
307.96945
308.06435
308.0701
308.16945
301.51714
301.84822
302.29554
302.79398
303.13517
303.51986
303.76331
304.06397
304.24639
304.49163
304.63519
304.84274
304.96019
305.14087
305.23987
305.40061
305.48599
305.6315
305.70642
305.84004
305.90667
306.03086
306.0907
306.20733
306.26147
306.37199
306.4212
306.52681
306.57165
306.67331
306.71419
306.81272
306.84992
306.94602
306.97972
307.07403
307.10432
307.19744
307.22433
307.31683
307.34021
307.4327
307.45237
307.54554
307.56109
307.65581
307.66653
307.76399
307.76886
307.87
301.41897
301.66835
302.03484
302.487
302.8023
303.17396
303.41024
303.70871
303.88988
304.13667
304.28097
304.49145
304.61028
304.79436
304.89486
305.05913
305.14592
305.29492
305.37107
305.50808
305.57573
305.70319
305.76385
305.88362
305.93836
306.05193
306.10153
306.21008
306.25512
306.35964
306.40053
306.50185
306.53888
306.63772
306.67108
306.76809
306.79788
306.89366
306.91989
307.01503
307.03762
307.13272
307.15146
307.24722
307.26175
307.35898
307.36869
307.46842
307.4726
307.57529
301.33384
301.52124
301.81384
302.2178
302.50354
302.85787
303.08377
303.37689
303.55467
303.8008
303.94442
304.15622
304.27545
304.46174
304.56304
304.7299
304.81758
304.96932
305.04633
305.18612
305.2545
305.38472
305.44596
305.56845
305.62361
305.73985
305.7897
305.90087
305.94601
306.05308
306.09392
306.19775
306.23458
306.33589
306.3689
306.46836
306.49765
306.59586
306.62146
306.71901
306.74084
306.83834
306.85621
306.95432
306.96793
307.06741
307.07625
307.17795
307.18161
307.28563
301.25944
301.4011
301.62825
301.98418
302.23805
302.5716
302.78433
303.06919
303.24156
303.48488
303.6264
303.83793
303.95656
304.14383
304.24521
304.4137
304.50173
304.65544
304.73288
304.87482
304.94361
305.07606
305.13763
305.26239
305.31778
305.43628
305.48625
305.59968
305.6448
305.75413
305.79482
305.90088
305.93744
306.04097
306.07359
306.17525
306.20403
306.30443
306.32941
306.42913
306.45024
306.54989
306.56697
306.66718
306.67996
306.78143
306.78953
306.89292
306.8962
307.00133
301.19394
301.30276
301.47361
301.78342
302.00444
302.31465
302.51193
302.78597
302.95104
303.18954
303.32759
303.53729
303.65431
303.84136
303.94205
304.11121
304.19902
304.35393
304.43136
304.57479
304.64366
304.77779
304.83942
304.96598
305.02138
305.14175
305.19166
305.30699
305.35196
305.46321
305.50366
305.61167
305.64788
305.75336
305.78554
305.88915
305.9174
306.01974
306.0441
306.14576
306.16617
306.26773
306.28407
306.38612
306.39817
306.50134
306.50884
306.61364
306.61664
306.7227
301.13586
301.2218
301.34553
301.61241
301.8008
302.08606
302.26615
302.52721
302.68334
302.91516
303.04843
303.25484
303.36925
303.5549
303.65414
303.82303
303.91003
304.06535
304.14231
304.28659
304.35516
304.49042
304.55184
304.6797
304.7349
304.8567
304.90638
305.02324
305.06793
305.18077
305.22087
305.3305
305.36631
305.47344
305.50513
305.61042
305.63811
305.74214
305.76588
305.86921
305.88896
305.99216
306.00782
306.11144
306.12285
306.22745
306.23445
306.34039
306.34321
306.45001
301.08401
301.15452
301.23983
301.46787
301.62486
301.88444
302.04619
302.29257
302.43834
302.66188
302.78916
302.99092
303.10176
303.28489
303.38194
303.54962
303.63523
303.79018
303.86622
304.01069
304.07859
304.21442
304.27532
304.40402
304.45876
304.58158
304.63084
304.74884
304.7931
304.90718
304.94682
305.05776
305.09307
305.20157
305.23272
305.33939
305.36651
305.47194
305.49506
305.5998
305.61892
305.72349
305.73852
305.84345
305.85429
305.96004
305.96664
306.07345
306.07616
306.18352
301.03744
301.09793
301.15271
301.34645
301.4741
301.70808
301.85091
302.08137
302.21569
302.42956
302.54981
302.74567
302.85206
303.03162
303.12576
303.29135
303.37498
303.52883
303.60346
303.74748
303.81434
303.95019
304.01026
304.1393
304.19336
304.31676
304.36539
304.48415
304.52782
304.64279
304.68185
304.79379
304.8285
304.93806
304.96861
305.07639
305.10289
305.20945
305.23195
305.33782
305.35632
305.46199
305.47644
305.5824
305.59275
305.69938
305.70566
305.8131
305.81574
305.92349
300.99542
301.04964
301.0808
301.24495
301.34586
301.55501
301.6789
301.89267
302.01474
302.21783
302.33016
302.51905
302.62019
302.79522
302.88577
303.04845
303.12954
303.28155
303.35433
303.49728
303.56272
303.69804
303.75698
303.88589
303.93899
304.06256
304.11036
304.22949
304.27241
304.38792
304.42627
304.53887
304.5729
304.68321
304.71309
304.82169
304.84753
304.95495
304.97681
305.08354
305.10143
305.20794
305.22184
305.32855
305.33846
305.44571
305.45173
305.55957
305.56217
305.67013
300.95734
301.00782
301.02118
301.16033
301.23749
301.42313
301.52851
301.72529
301.83463
302.02612
302.12982
302.31083
302.40602
302.57567
302.66202
302.82101
302.89904
303.04855
303.11902
303.26031
303.32396
303.45823
303.51573
303.64403
303.69594
303.81924
303.86601
303.98513
304.02713
304.14283
304.18035
304.29327
304.32652
304.43728
304.46642
304.57554
304.60069
304.70867
304.72988
304.83719
304.85448
304.96155
304.97494
305.08214
305.09166
305.19925
305.20507
305.31307
305.31565
305.42366
300.92276
300.9711
300.97143
301.08986
301.14639
301.31025
301.39799
301.57786
301.67429
301.85365
301.9482
302.1206
302.20926
302.3728
302.45439
302.60901
302.68349
302.82987
302.89762
303.03669
303.0982
303.23091
303.28668
303.41393
303.46439
303.58701
303.63255
303.75129
303.7922
303.90774
303.94428
304.05722
304.08959
304.20048
304.22882
304.33816
304.36257
304.47083
304.49136
304.59898
304.61568
304.72303
304.73593
304.84335
304.85252
304.96022
304.96586
305.07381
305.07638
305.18426
300.89129
300.93846
300.92954
301.03111
301.07013
301.21421
301.28546
301.44887
301.53251
301.69945
301.78454
301.9478
302.02948
302.18628
302.26265
302.4123
302.4828
302.62549
302.69014
302.82647
302.88551
303.01618
303.06993
303.19569
303.24447
303.36602
303.41012
303.52811
303.56778
303.68281
303.71826
303.83088
303.86227
303.97299
304.00045
304.10973
304.13334
304.24161
304.26145
304.36909
304.3852
304.49257
304.50499
304.61238
304.62122
304.72878
304.73426
304.84195
304.84451
304.95209
300.86264
300.90918
300.89393
300.98199
301.00644
301.13289
301.18907
301.33676
301.40795
301.56246
301.63795
301.79171
301.86609
302.01568
302.08646
302.23061
302.29677
302.43526
302.49647
302.62958
302.68584
302.81405
302.86552
302.98938
303.03625
303.15634
303.19882
303.3157
303.35397
303.46816
303.50239
303.61438
303.6447
303.75495
303.78145
303.89038
303.91316
304.02116
304.04027
304.14768
304.16318
304.27031
304.28226
304.38936
304.39789
304.50507
304.51042
304.61764
304.62018
304.72728
300.83657
300.88275
300.86336
300.94072
300.95334
301.06432
301.10695
301.23989
301.29921
301.44149
301.50743
301.65151
301.7184
301.86043
301.92532
302.06358
302.12507
302.25895
302.31642
302.44589
302.4991
302.62444
302.67338
302.79497
302.83972
302.958
302.99868
303.11411
303.15083
303.26387
303.29675
303.40781
303.43695
303.54645
303.57193
303.68023
303.70212
303.80957
303.82793
303.93484
303.94973
304.05636
304.06785
304.17442
304.18265
304.28924
304.29444
304.40101
304.40352
304.50997
300.81292
300.85881
300.83687
300.90586
300.90905
301.00667
301.03736
301.15666
301.20484
301.33529
301.3919
301.52628
301.58561
301.71985
301.77868
301.91071
301.96732
302.09621
302.14969
302.27516
302.3251
302.44719
302.4934
302.61236
302.65481
302.77094
302.80966
302.92333
302.95836
303.06994
303.10136
303.21121
303.23908
303.34754
303.37193
303.47933
303.50029
303.60693
303.62451
303.73066
303.74492
303.85082
303.86184
303.96764
303.97557
304.08135
304.08642
304.19214
304.19461
304.30023
300.79152
300.83714
300.81375
300.87622
300.87207
300.9583
300.97864
301.08553
301.12343
301.24259
301.2902
301.41503
301.46686
301.59321
301.64588
301.77146
301.82301
301.94663
301.99594
302.11709
302.16355
302.2821
302.32539
302.44141
302.48138
302.59507
302.63167
302.74329
302.7765
302.88634
302.9162
303.02455
303.05107
303.15823
303.18146
303.28771
303.30768
303.41327
303.43003
303.53519
303.54881
303.65373
303.66428
303.7691
303.77672
303.88149
303.8864
303.99109
303.99351
304.09814
300.77226
300.81755
300.79349
300.85087
300.84112
300.91775
300.92927
301.025
301.05356
301.16211
301.2012
301.31672
301.36121
301.47969
301.52619
301.64519
301.69158
301.80973
301.85472
301.97131
302.01414
302.12887
302.16909
302.28189
302.31925
302.43021
302.46457
302.57386
302.60516
302.71298
302.74118
302.84778
302.87288
302.97849
303.0005
303.10534
303.12429
303.22859
303.24451
303.34844
303.36139
303.46512
303.47518
303.57881
303.58612
303.68968
303.69443
303.79792
303.80028
303.90374
300.75507
300.79995
300.77568
300.82907
300.81515
300.88376
300.88788
300.97371
300.99391
301.0926
301.1237
301.23029
301.2677
301.37842
301.41883
301.53121
301.57241
301.68495
301.72554
301.83737
301.87647
301.98715
302.02419
302.13353
302.16817
302.27616
302.30817
302.41489
302.44416
302.54974
302.5762
302.68081
302.70441
302.80823
302.82898
302.93219
302.95007
303.05285
303.0679
303.17039
303.18265
303.28498
303.29454
303.39678
303.40376
303.50594
303.5105
303.61263
303.6149
303.71704
300.73987
300.78424
300.76005
300.81025
300.79329
300.85525
300.85327
300.9304
300.94321
301.03285
301.05659
301.1547
301.18536
301.28852
301.32298
301.42877
301.46483
301.57168
301.60785
301.71478
301.75008
301.85654
301.89031
301.996
302.02782
302.13263
302.16222
302.26615
302.29332
302.39643
302.42108
302.52348
302.54554
302.64735
302.66678
302.76814
302.78493
302.88598
302.90013
303.00097
303.01253
303.11326
303.12231
303.22298
303.22961
303.33024
303.3346
303.4352
303.43739
303.53804
300.72661
300.77035
300.7464
300.79397
300.77486
300.8313
300.82438
300.89392
300.90031
300.98171
300.99875
301.08888
301.1132
301.20907
301.23781
301.33711
301.36812
301.46928
301.50105
301.60301
301.63448
301.73659
301.76704
301.86893
301.89787
301.99933
302.02642
302.12737
302.15239
302.25284
302.27563
302.37562
302.39608
302.49569
302.51376
302.61309
302.62874
302.72787
302.7411
302.84011
302.85095
302.9499
302.95841
303.05734
303.06362
303.16253
303.16668
303.2656
303.26769
303.3667
300.71526
300.75823
300.73454
300.77988
300.75928
300.81116
300.80029
300.86327
300.86415
300.93813
300.94913
301.03185
301.05027
301.13918
301.16247
301.25546
301.28157
301.37708
301.40451
301.50147
301.52913
301.62681
301.65394
301.75189
301.77793
301.87589
301.90045
301.99827
302.02109
302.1187
302.13959
302.237
302.25583
302.35306
302.36975
302.46686
302.48135
302.57839
302.59068
302.68769
302.69778
302.7948
302.80276
302.89979
302.90569
303.00275
303.00666
303.10377
303.10574
303.20298
300.70577
300.74779
300.72435
300.76771
300.74612
300.7942
300.78022
300.83757
300.83377
300.90112
300.90677
300.98265
300.99565
301.07797
301.09612
301.18301
301.20442
301.29439
301.3176
301.40956
301.43348
301.52669
301.5505
301.64444
301.66758
301.76192
301.78394
301.87849
301.89909
301.99373
302.0127
302.10737
302.12455
302.21925
302.23453
302.32927
302.34258
302.43737
302.4487
302.54355
302.55289
302.64782
302.65522
302.75021
302.75572
302.85078
302.85445
302.94961
302.95146
303.04679
300.69808
300.73895
300.7157
300.75725
300.73501
300.77991
300.76352
300.81603
300.80833
300.8698
300.87074
300.94036
300.94843
301.02459
301.03794
301.11899
301.13594
301.2205
301.23965
301.32668
301.34694
301.43567
301.45623
301.54611
301.56636
301.65702
301.6765
301.76768
301.78606
301.87761
301.89464
301.98646
302.00197
302.094
302.10786
302.20009
302.21222
302.30462
302.31497
302.40753
302.41611
302.50881
302.51563
302.60846
302.61356
302.70651
302.70992
302.80301
302.80474
302.89804
300.6921
300.73162
300.70847
300.74831
300.72566
300.76785
300.74964
300.79801
300.78709
300.84336
300.84023
300.90415
300.90781
300.9782
300.98715
301.06264
301.07539
301.15474
301.16999
301.25219
301.26892
301.35321
301.37059
301.4564
301.47381
301.56073
301.57771
301.66544
301.68162
301.76998
301.78509
301.87394
301.88779
301.97704
301.98948
302.07908
302.09002
302.17991
302.18929
302.27943
302.28724
302.3776
302.38383
302.47439
302.47907
302.56979
302.57293
302.66385
302.66544
302.75659
300.68769
300.72566
300.70255
300.74073
300.71784
300.75768
300.73811
300.78293
300.7694
300.82111
300.81448
300.87326
300.87298
300.93806
300.94298
301.01323
301.02207
301.0964
301.10799
301.18548
301.19883
301.27874
301.29305
301.3748
301.38945
301.47261
301.48712
301.57137
301.58537
301.67049
301.68369
301.7695
301.78169
301.86808
301.8791
301.96597
301.97572
302.063
302.07141
302.15904
302.16606
302.25399
302.25962
302.3478
302.35205
302.44045
302.44332
302.53196
302.53341
302.62232
300.68469
300.72095
300.6978
300.73436
300.71134
300.74912
300.72856
300.77032
300.75471
300.8024
300.79282
300.84698
300.84325
300.90342
300.90471
300.97005
300.97528
301.04484
301.05298
301.12593
301.13606
301.21169
301.22306
301.30079
301.31278
301.39218
301.40431
301.48505
301.49692
301.57874
301.59007
301.67278
301.68334
301.76678
301.77641
301.86047
301.86905
301.95363
301.96107
302.0461
302.05235
302.13775
302.14279
302.2285
302.23232
302.31832
302.3209
302.40717
302.40848
302.49506
300.68289
300.71734
300.69409
300.72906
300.70599
300.74192
300.72068
300.75979
300.74253
300.78671
300.77467
300.82468
300.81796
300.87365
300.87169
300.93243
300.93438
300.99941
301.00436
301.07293
301.08005
301.1515
301.16007
301.23386
301.2433
301.31898
301.3288
301.40602
301.41584
301.49434
301.50385
301.58341
301.59239
301.67283
301.6811
301.76229
301.7697
301.85153
301.85801
301.94036
301.94584
302.02864
302.03309
302.11627
302.11965
302.20317
302.20547
302.28931
302.29047
302.37464
300.68207
300.71465
300.6913
300.72472
300.70165
300.73589
300.71419
300.75098
300.73247
300.77356
300.7595
300.8058
300.79652
300.84811
300.84329
300.89977
300.89875
300.95951
300.96152
301.02591
301.03021
301.09763
301.10357
301.1735
301.18051
301.25252
301.26013
301.33387
301.34171
301.41689
301.42464
301.50103
301.50847
301.58588
301.59281
301.67109
301.67738
301.75639
301.76193
301.84156
301.84628
301.92643
301.93029
302.01088
302.01383
302.09481
302.09681
302.17815
302.17918
302.26087
300.68197
300.71273
300.6893
300.72119
300.69818
300.73085
300.70888
300.74362
300.72417
300.76255
300.74685
300.78984
300.77839
300.82627
300.81894
300.87148
300.86781
300.92455
300.92389
300.9843
300.98601
301.04955
301.05303
301.11921
301.12393
301.19234
301.19786
301.26815
301.27409
301.34597
301.35204
301.42526
301.43121
301.50558
301.51122
301.58657
301.59175
301.66792
301.67254
301.74941
301.75339
301.83084
301.83412
301.91207
301.91459
301.99299
301.99471
302.0735
302.07438
302.15355
300.6824
300.71142
300.68795
300.71838
300.69545
300.72667
300.70455
300.73747
300.71735
300.75332
300.73634
300.77637
300.76312
300.80762
300.79814
300.84704
300.84102
300.89401
300.89095
300.94758
300.94692
301.00674
301.00794
301.07049
301.07308
301.13798
301.14153
301.20843
301.21258
301.28119
301.28565
301.35572
301.36025
301.43157
301.43598
301.50837
301.5125
301.58581
301.58954
301.66362
301.66687
301.74161
301.74431
301.8196
301.8217
301.89747
301.89892
301.97512
301.97586
302.05246
300.68315
300.71057
300.68713
300.71615
300.69336
300.7232
300.70107
300.73233
300.71176
300.74559
300.72762
300.765
300.75028
300.79171
300.7804
300.82597
300.81789
300.86739
300.86218
300.91525
300.91245
300.96871
300.96783
301.02689
301.0275
301.08898
301.09069
301.15427
301.15674
301.22213
301.22507
301.29202
301.2952
301.3635
301.36672
301.43617
301.43929
301.50973
301.51261
301.58389
301.58645
301.65844
301.6606
301.73319
301.73489
301.80801
301.80918
301.88277
301.88338
301.95738
300.68407
300.71007
300.68674
300.71443
300.69182
300.72034
300.69828
300.72802
300.70719
300.7391
300.7204
300.75541
300.7395
300.77816
300.76532
300.80782
300.79798
300.84422
300.83712
300.88685
300.88211
300.935
300.93223
300.98793
300.98673
301.04491
301.04492
301.10526
301.10616
301.1684
301.16991
301.23379
301.2357
301.301
301.3031
301.36963
301.37178
301.43936
301.44143
301.50992
301.51181
301.58105
301.58268
301.65259
301.65388
301.72435
301.72526
301.79621
301.79669
301.86807
300.68507
300.7098
300.68668
300.7131
300.69071
300.71799
300.69608
300.72442
300.70346
300.73365
300.71443
300.7473
300.73047
300.76662
300.75252
300.7922
300.78087
300.82409
300.81535
300.86193
300.8555
300.90518
300.90071
300.9532
300.95036
301.00535
301.0038
301.061
301.06045
301.1196
301.1198
301.18066
301.18138
301.24372
301.24478
301.30841
301.30966
301.3744
301.3757
301.4414
301.44265
301.50916
301.51029
301.5775
301.57842
301.64622
301.64688
301.7152
301.71554
301.78429
300.68606
300.70969
300.68687
300.71208
300.68998
300.71605
300.69436
300.72139
300.70044
300.72904
300.70949
300.74043
300.72292
300.75678
300.74167
300.77877
300.76619
300.80661
300.79646
300.8401
300.83218
300.87884
300.87287
300.92229
300.91797
300.9699
300.96694
301.0211
301.01923
301.07538
301.07436
301.13226
301.13188
301.19132
301.1914
301.25218
301.25258
301.31451
301.31509
301.37803
301.37869
301.44248
301.44313
301.50765
301.50821
301.57336
301.57378
301.63946
301.63969
301.70581
300.68701
300.70966
300.68723
300.71132
300.68954
300.71446
300.69304
300.71883
300.69798
300.72513
300.70541
300.73459
300.71659
300.74837
300.73248
300.76722
300.75362
300.79145
300.78012
300.821
300.8118
300.8556
300.84831
300.89482
300.88919
300.93818
300.93395
300.98518
300.98212
301.03535
301.03323
301.08825
301.08686
301.14345
301.14264
301.20061
301.20022
301.25939
301.2593
301.31951
301.31961
301.3807
301.38091
301.44277
301.44299
301.5055
301.5057
301.56875
301.56887
301.63238
300.6879
300.70968
300.6877
300.71073
300.68932
300.71314
300.69204
300.71664
300.69599
300.72178
300.70204
300.7296
300.71129
300.74117
300.7247
300.75726
300.74286
300.77829
300.76598
300.8043
300.79401
300.83512
300.82669
300.87044
300.86366
300.90984
300.90449
300.9529
300.94877
300.99919
300.99606
301.04828
301.04598
301.0998
301.09817
301.15339
301.15228
301.20873
301.20802
301.26553
301.26512
301.32356
301.32334
301.38257
301.38249
301.44238
301.44236
301.50282
301.50282
301.56374
300.68872
300.7097
300.68825
300.71027
300.68928
300.71203
300.69129
300.71476
300.69438
300.71889
300.69924
300.7253
300.70685
300.73497
300.71811
300.74867
300.73365
300.76685
300.75377
300.78969
300.7785
300.81708
300.80769
300.84882
300.84104
300.88456
300.87822
300.92393
300.91884
300.96655
300.96253
301.01204
301.00892
301.06003
301.05766
301.1102
301.10843
301.16222
301.16095
301.21582
301.21494
301.27075
301.27016
301.32678
301.32641
301.38372
301.38351
301.44139
301.4413
301.49964
300.68948
300.70971
300.68884
300.70989
300.68936
300.71107
300.69073
300.71311
300.69306
300.71637
300.69689
300.72157
300.7031
300.72961
300.71251
300.74122
300.72577
300.75691
300.74322
300.7769
300.76499
300.8012
300.791
300.82965
300.82104
300.86201
300.85483
300.89794
300.89204
300.93712
300.93233
300.97921
300.97536
301.02385
301.02082
301.07074
301.0684
301.11957
301.1178
301.17008
301.16877
301.22201
301.22108
301.27514
301.27451
301.32927
301.32889
301.38422
301.38404
301.43984
300.69018
300.70968
300.68944
300.70956
300.68951
300.71021
300.69032
300.71164
300.69196
300.71413
300.69492
300.7183
300.69993
300.72493
300.70775
300.73474
300.71901
300.74823
300.73411
300.76569
300.75323
300.7872
300.77636
300.81267
300.80337
300.84191
300.83402
300.87466
300.86805
300.91062
300.90515
300.9495
300.94502
300.99097
300.98736
301.03473
301.03187
301.08051
301.07829
301.12804
301.12635
301.17706
301.17582
301.22737
301.22651
301.27876
301.27822
301.33105
301.33079
301.38409
300.69082
300.70962
300.69002
300.70923
300.68971
300.70942
300.68999
300.71029
300.69104
300.71211
300.69324
300.71539
300.69722
300.72082
300.70367
300.72907
300.7132
300.74064
300.72623
300.75586
300.74298
300.77486
300.76352
300.79761
300.78776
300.824
300.81553
300.8538
300.84661
300.88677
300.88073
300.92263
300.91762
300.9611
300.957
301.0019
300.99859
301.04476
301.04214
301.08942
301.0874
301.13565
301.13414
301.18322
301.18215
301.23194
301.23127
301.28164
301.28131
301.33214
300.6914
300.70951
300.69057
300.70889
300.68991
300.70866
300.68972
300.70902
300.69023
300.71025
300.69177
300.71277
300.69488
300.71717
300.70016
300.72407
300.70819
300.73397
300.7194
300.7472
300.73406
300.76396
300.75226
300.78426
300.77398
300.80804
300.79911
300.83512
300.82745
300.86531
300.8588
300.89835
300.89289
300.934
300.92947
300.97198
300.96829
301.01206
301.0091
301.05398
301.05166
301.09751
301.09576
301.14244
301.14119
301.18857
301.18777
301.23573
301.23534
301.28375
300.69194
300.70935
300.69107
300.70852
300.69009
300.70789
300.68947
300.70779
300.6895
300.7085
300.69047
300.71036
300.69283
300.71389
300.69711
300.71963
300.70385
300.72807
300.71347
300.73956
300.72627
300.75431
300.74238
300.77241
300.76182
300.7938
300.78453
300.81839
300.81036
300.846
300.83911
300.87641
300.87058
300.9094
300.90453
300.94473
300.94073
300.98216
300.97892
301.02145
301.0189
301.06239
301.06045
301.10477
301.10338
301.1484
301.1475
301.19309
301.19265
301.23869
300.69242
300.70913
300.69151
300.70808
300.69022
300.70708
300.68921
300.70657
300.68882
300.70682
300.68929
300.70812
300.69101
300.7109
300.69444
300.71565
300.70006
300.72282
300.7083
300.73278
300.71945
300.74575
300.7337
300.76186
300.75108
300.7811
300.77159
300.8034
300.7951
300.82862
300.82146
300.85659
300.85048
300.88709
300.88195
300.91991
300.91565
300.95483
300.95137
300.99162
300.98887
301.03008
301.02797
301.07
301.06848
301.11119
301.11021
301.15349
301.15301
301.19673
300.69285
300.70884
300.69188
300.70756
300.69028
300.70621
300.68891
300.70533
300.68814
300.70518
300.68819
300.706
300.68937
300.70814
300.69207
300.71204
300.69674
300.71812
300.70378
300.72673
300.71348
300.73813
300.72606
300.75246
300.7416
300.76975
300.76009
300.78995
300.78148
300.81298
300.80562
300.83867
300.83236
300.86685
300.8615
300.8973
300.89285
300.92984
300.9262
300.96425
300.96135
301.00033
300.9981
301.03788
301.03626
301.07673
301.07568
301.1167
301.11618
301.15764
300.69323
300.7085
300.69216
300.70695
300.69025
300.70526
300.68855
300.70405
300.68745
300.70355
300.68714
300.70396
300.68786
300.70556
300.68995
300.70874
300.6938
300.71387
300.69979
300.72131
300.70823
300.73132
300.71933
300.74405
300.7332
300.75958
300.74988
300.77788
300.76931
300.79888
300.79141
300.82246
300.81602
300.84846
300.84299
300.8767
300.87212
300.90699
300.90322
300.93913
300.93611
300.97293
300.9706