/*--------------------------------*- C++ -*----------------------------------*\
| =========                 |                                                 |
| \\      /  F ield         | OpenFOAM: The Open Source CFD Toolbox           |
|  \\    /   O peration     | Version:  2312                                  |
|   \\  /    A nd           | Website:  www.openfoam.com                      |
|    \\/     M anipulation  |                                                 |
\*---------------------------------------------------------------------------*/
FoamFile
{
    version     2.0;
    format      ascii;
    arch        "LSB;label=32;scalar=64";
    class       volVectorField;
    location    "9";
    object      U;
}
// * * * * * * * * * * * * * * * * * * * * * * * * * * * * * * * * * * * * * //

dimensions      [0 1 -1 0 0 0 0];

internalField   nonuniform List<vector> 
4000
(
(0.0013495775 0.00023021475 0)
(0.0014476709 -1.2381015e-06 0)
(0.0013498593 -1.5159999e-07 0)
(0.0013956135 1.481216e-07 0)
(0.0013600228 -1.3728184e-07 0)
(0.0013934339 1.3032831e-07 0)
(0.0013630186 -1.2099381e-07 0)
(0.0013916168 1.1371309e-07 0)
(0.0013649318 -1.0648796e-07 0)
(0.0013899547 9.9907005e-08 0)
(0.0013665335 -9.367647e-08 0)
(0.0013884721 8.7869125e-08 0)
(0.0013679319 -8.2420628e-08 0)
(0.0013871638 7.7324211e-08 0)
(0.0013691607 -7.2551238e-08 0)
(0.0013860116 6.8085558e-08 0)
(0.0013702423 -6.3905341e-08 0)
(0.0013849966 5.9995895e-08 0)
(0.0013711951 -5.6337633e-08 0)
(0.0013841018 5.29185e-08 0)
(0.0013720354 -4.9720505e-08 0)
(0.0013833123 4.6733921e-08 0)
(0.0013727772 -4.3942297e-08 0)
(0.0013826148 4.1337793e-08 0)
(0.0013734331 -3.8905492e-08 0)
(0.0013819973 3.6639057e-08 0)
(0.0013740143 -3.4525081e-08 0)
(0.0013814496 3.2558421e-08 0)
(0.0013745304 -3.0727131e-08 0)
(0.0013809625 2.9027023e-08 0)
(0.0013749903 -2.7447543e-08 0)
(0.0013805276 2.598527e-08 0)
(0.0013754017 -2.4630968e-08 0)
(0.0013801377 2.3381837e-08 0)
(0.0013757714 -2.2229881e-08 0)
(0.0013797862 2.1172806e-08 0)
(0.0013761059 -2.0203785e-08 0)
(0.0013794671 1.9320938e-08 0)
(0.0013764106 -1.8518546e-08 0)
(0.0013791752 1.7795076e-08 0)
(0.0013766908 -1.714586e-08 0)
(0.0013789054 1.6569674e-08 0)
(0.0013769512 -1.6062877e-08 0)
(0.0013786532 1.5624553e-08 0)
(0.0013771961 -1.5252147e-08 0)
(0.0013784143 1.4944977e-08 0)
(0.0013774298 -1.4703115e-08 0)
(0.001378185 1.4524202e-08 0)
(0.0013776626 -1.4383411e-08 0)
(0.0013780089 1.4877083e-08 0)
(0.0037655245 0.00063524723 0)
(0.0041624874 4.3421976e-07 0)
(0.0039242057 4.5595975e-08 0)
(0.0040511193 4.1093439e-07 0)
(0.0039478324 -4.778454e-07 0)
(0.0040452056 4.3481428e-07 0)
(0.0039564759 -4.2089037e-07 0)
(0.0040399354 3.9180354e-07 0)
(0.0039620415 -3.6912141e-07 0)
(0.0040350833 3.4556877e-07 0)
(0.0039667168 -3.2434474e-07 0)
(0.004030755 3.0410468e-07 0)
(0.0039708008 -2.853076e-07 0)
(0.0040269357 2.6763992e-07 0)
(0.0039743899 -2.511352e-07 0)
(0.0040235719 2.356702e-07 0)
(0.0039775491 -2.2120898e-07 0)
(0.0040206086 2.0767323e-07 0)
(0.0039803325 -1.9501684e-07 0)
(0.0040179963 1.8317948e-07 0)
(0.0039827872 -1.7211555e-07 0)
(0.0040156909 1.6177614e-07 0)
(0.0039849546 -1.5211839e-07 0)
(0.0040136536 1.4310212e-07 0)
(0.0039868715 -1.3468781e-07 0)
(0.0040118501 1.2684229e-07 0)
(0.0039885701 -1.1952959e-07 0)
(0.0040102499 1.1272226e-07 0)
(0.0039900792 -1.0638788e-07 0)
(0.0040088261 1.0050371e-07 0)
(0.0039914241 -9.5040839e-08 0)
(0.0040075546 8.9980415e-08 0)
(0.0039926277 -8.5296927e-08 0)
(0.0040064141 8.0974755e-08 0)
(0.0039937101 -7.699165e-08 0)
(0.0040053852 7.3334711e-08 0)
(0.0039946897 -6.99848e-08 0)
(0.0040044507 6.6931323e-08 0)
(0.0039955831 -6.4158107e-08 0)
(0.0040035948 6.1656536e-08 0)
(0.0039964052 -5.9413275e-08 0)
(0.004002803 5.7421431e-08 0)
(0.00399717 -5.567042e-08 0)
(0.004002062 5.4154932e-08 0)
(0.0039978905 -5.286671e-08 0)
(0.004001359 5.1803986e-08 0)
(0.0039985787 -5.0961289e-08 0)
(0.0040006822 5.0258524e-08 0)
(0.0039992586 -5.0547774e-08 0)
(0.004000135 4.8404695e-08 0)
(0.0061134223 0.0010194735 0)
(0.0067964982 -4.7724007e-07 0)
(0.006433222 3.7869357e-07 0)
(0.0066395222 6.9482417e-07 0)
(0.006468453 -8.6624414e-07 0)
(0.0066298457 7.7420092e-07 0)
(0.0064826593 -7.6164417e-07 0)
(0.0066210931 7.063585e-07 0)
(0.006491864 -6.6694515e-07 0)
(0.0066130375 6.2386473e-07 0)
(0.0064996181 -5.8578236e-07 0)
(0.0066058553 5.4912085e-07 0)
(0.0065063943 -5.1523283e-07 0)
(0.0065995186 4.8329523e-07 0)
(0.0065123499 -4.535125e-07 0)
(0.0065939376 4.2556887e-07 0)
(0.0065175924 -3.9946781e-07 0)
(0.006589021 3.7501322e-07 0)
(0.0065222114 -3.5216778e-07 0)
(0.0065846865 3.3078294e-07 0)
(0.0065262852 -3.1081091e-07 0)
(0.006580861 2.9213301e-07 0)
(0.0065298825 -2.7469859e-07 0)
(0.0065774803 2.5841148e-07 0)
(0.0065330641 -2.4322117e-07 0)
(0.0065744871 2.2904933e-07 0)
(0.0065358838 -2.1584728e-07 0)
(0.0065718312 2.0355104e-07 0)
(0.006538389 -1.9211485e-07 0)
(0.0065694676 1.814863e-07 0)
(0.0065406222 -1.7162323e-07 0)
(0.0065673566 1.6248267e-07 0)
(0.006542621 -1.5402646e-07 0)
(0.0065654625 1.4621935e-07 0)
(0.0065444191 -1.390274e-07 0)
(0.0065637534 1.3242174e-07 0)
(0.0065460469 -1.2637273e-07 0)
(0.0065622005 1.2085681e-07 0)
(0.0065475319 -1.1584866e-07 0)
(0.0065607776 1.1132915e-07 0)
(0.0065488991 -1.0727728e-07 0)
(0.0065594607 1.0367764e-07 0)
(0.0065501717 -1.005135e-07 0)
(0.0065582273 9.7772695e-08 0)
(0.0065513712 -9.5441676e-08 0)
(0.0065570566 9.3516369e-08 0)
(0.006552518 -9.1979886e-08 0)
(0.0065559278 9.0674386e-08 0)
(0.0065536479 -9.1580381e-08 0)
(0.0065549927 8.6917551e-08 0)
(0.008413732 0.0013735114 0)
(0.0093561604 -2.3537716e-06 0)
(0.0088766393 9.7684169e-07 0)
(0.009161024 9.1904021e-07 0)
(0.0089217983 -1.2408062e-06 0)
(0.0091474436 1.0878503e-06 0)
(0.0089414947 -1.0892931e-06 0)
(0.0091351711 1.0062804e-06 0)
(0.0089543341 -9.5235336e-07 0)
(0.0091238894 8.9004306e-07 0)
(0.0089651795 -8.3607079e-07 0)
(0.0091138366 7.8357598e-07 0)
(0.0089746613 -7.3530793e-07 0)
(0.0091049686 6.8967356e-07 0)
(0.0089829956 -6.4721135e-07 0)
(0.0090971583 6.073025e-07 0)
(0.0089903321 -5.7008024e-07 0)
(0.0090902777 5.3515943e-07 0)
(0.0089967962 -5.0257675e-07 0)
(0.0090842117 4.7204175e-07 0)
(0.0090024974 -4.4355537e-07 0)
(0.0090788579 4.1688702e-07 0)
(0.0090075319 -3.9201876e-07 0)
(0.0090741263 3.6876503e-07 0)
(0.0090119849 -3.4709677e-07 0)
(0.0090699371 3.2686385e-07 0)
(0.0090159314 -3.0803102e-07 0)
(0.0090662195 2.9047642e-07 0)
(0.0090194382 -2.7416202e-07 0)
(0.009062911 2.5898865e-07 0)
(0.0090225643 -2.4491795e-07 0)
(0.0090599558 2.3186908e-07 0)
(0.0090253626 -2.1980505e-07 0)
(0.0090573039 2.0865989e-07 0)
(0.0090278803 -1.983992e-07 0)
(0.0090549108 1.8896918e-07 0)
(0.0090301599 -1.8033882e-07 0)
(0.0090527359 1.724643e-07 0)
(0.0090322398 -1.6531862e-07 0)
(0.0090507427 1.5886623e-07 0)
(0.0090341552 -1.5308446e-07 0)
(0.0090488974 1.4794464e-07 0)
(0.0090359386 -1.434287e-07 0)
(0.0090471689 1.395137e-07 0)
(0.0090376201 -1.3618444e-07 0)
(0.0090455272 1.3343274e-07 0)
(0.0090392285 -1.3122681e-07 0)
(0.0090439432 1.2932157e-07 0)
(0.0090408101 -1.3120809e-07 0)
(0.0090426036 1.2360599e-07 0)
(0.010659003 0.0016964439 0)
(0.011839251 -5.1325904e-06 0)
(0.011254065 1.7893801e-06 0)
(0.011615769 1.0795099e-06 0)
(0.011307877 -1.5855326e-06 0)
(0.011597983 1.362985e-06 0)
(0.011332997 -1.3907888e-06 0)
(0.011582151 1.2797074e-06 0)
(0.011349464 -1.2139819e-06 0)
(0.011567622 1.1335368e-06 0)
(0.011363411 -1.0652467e-06 0)
(0.011554685 9.9815676e-07 0)
(0.011375611 -9.3677408e-07 0)
(0.011543273 8.7857573e-07 0)
(0.011386334 -8.2452351e-07 0)
(0.011533223 7.736505e-07 0)
(0.011395774 -7.2625725e-07 0)
(0.01152437 6.8174861e-07 0)
(0.011404092 -6.4025902e-07 0)
(0.011516564 6.013429e-07 0)
(0.011411428 -5.6506739e-07 0)
(0.011509675 5.310808e-07 0)
(0.011417906 -4.9941134e-07 0)
(0.011503587 4.6977754e-07 0)
(0.011423636 -4.421822e-07 0)
(0.011498196 4.1639887e-07 0)
(0.011428714 -3.9241377e-07 0)
(0.011493412 3.7004411e-07 0)
(0.011433227 -3.4926583e-07 0)
(0.011489154 3.2993099e-07 0)
(0.01143725 -3.1200986e-07 0)
(0.011485351 2.9538249e-07 0)
(0.011440851 -2.8001678e-07 0)
(0.011481938 2.6581536e-07 0)
(0.011444092 -2.5274623e-07 0)
(0.011478858 2.4073033e-07 0)
(0.011447026 -2.297375e-07 0)
(0.011476059 2.1970359e-07 0)
(0.011449703 -2.1060156e-07 0)
(0.011473493 2.0237952e-07 0)
(0.011452169 -1.9501441e-07 0)
(0.011471118 1.8846438e-07 0)
(0.011454465 -1.8271101e-07 0)
(0.011468892 1.7772064e-07 0)
(0.01145663 -1.7347693e-07 0)
(0.011466778 1.6996881e-07 0)
(0.011458701 -1.6714333e-07 0)
(0.011464737 1.6467487e-07 0)
(0.011460735 -1.6781351e-07 0)
(0.01146298 1.5706875e-07 0)
(0.012848058 0.0019895942 0)
(0.014246006 -8.6898376e-06 0)
(0.013565416 2.7558356e-06 0)
(0.014003778 1.1855369e-06 0)
(0.013626798 -1.899633e-06 0)
(0.013981357 1.6014862e-06 0)
(0.013657268 -1.6672123e-06 0)
(0.013961938 1.5279436e-06 0)
(0.013677343 -1.4528759e-06 0)
(0.013944153 1.3553773e-06 0)
(0.013694393 -1.2742542e-06 0)
(0.013928326 1.1937567e-06 0)
(0.013709311 -1.1204671e-06 0)
(0.013914369 1.0507861e-06 0)
(0.013722427 -9.8618563e-07 0)
(0.013902077 9.2530327e-07 0)
(0.013733972 -8.6864791e-07 0)
(0.013891248 8.1538917e-07 0)
(0.013744145 -7.657869e-07 0)
(0.013881701 7.192231e-07 0)
(0.013753117 -6.7585212e-07 0)
(0.013873275 6.3518844e-07 0)
(0.01376104 -5.9732285e-07 0)
(0.013865829 5.6186846e-07 0)
(0.013768048 -5.288729e-07 0)
(0.013859235 4.9802627e-07 0)
(0.013774259 -4.6934655e-07 0)
(0.013853384 4.4258469e-07 0)
(0.013779779 -4.1773877e-07 0)
(0.013848177 3.9460815e-07 0)
(0.013784699 -3.7317818e-07 0)
(0.013843525 3.5328691e-07 0)
(0.013789104 -3.3491229e-07 0)
(0.013839351 3.179234e-07 0)
(0.013793067 -3.0229475e-07 0)
(0.013835583 2.8792045e-07 0)
(0.013796656 -2.7477441e-07 0)
(0.013832159 2.6277106e-07 0)
(0.013799931 -2.5188586e-07 0)
(0.01382902 2.4204973e-07 0)
(0.013802947 -2.3324125e-07 0)
(0.013826114 2.2540472e-07 0)
(0.013805756 -2.1852293e-07 0)
(0.013823392 2.1255086e-07 0)
(0.013808405 -2.0747207e-07 0)
(0.013820805 2.0327287e-07 0)
(0.01381094 -1.9987349e-07 0)
(0.013818307 1.968784e-07 0)
(0.013813425 -2.0146366e-07 0)
(0.013816124 1.873867e-07 0)
(0.014983422 0.0022544582 0)
(0.016576994 -1.2968244e-05 0)
(0.015810671 3.8129527e-06 0)
(0.016324946 1.2462431e-06 0)
(0.015878685 -2.1828344e-06 0)
(0.016297445 1.8063269e-06 0)
(0.015914422 -1.9207213e-06 0)
(0.016274426 1.7533192e-06 0)
(0.015938071 -1.671036e-06 0)
(0.016253389 1.5574965e-06 0)
(0.015958211 -1.4648794e-06 0)
(0.01623468 1.3720613e-06 0)
(0.01597584 -1.2879637e-06 0)
(0.016218183 1.207786e-06 0)
(0.015991339 -1.1335865e-06 0)
(0.016203655 1.0635649e-06 0)
(0.016004984 -9.9847571e-07 0)
(0.016190858 9.3723021e-07 0)
(0.016017006 -8.8023911e-07 0)
(0.016179575 8.2669594e-07 0)
(0.016027609 -7.7686171e-07 0)
(0.016169616 7.3010516e-07 0)
(0.016036973 -6.8659491e-07 0)
(0.016160815 6.4582973e-07 0)
(0.016045256 -6.0791414e-07 0)
(0.016153023 5.7244809e-07 0)
(0.016052597 -5.3949085e-07 0)
(0.016146108 5.0872215e-07 0)
(0.016059119 -4.8016974e-07 0)
(0.016139953 4.5357657e-07 0)
(0.016064935 -4.2894912e-07 0)
(0.016134456 4.0608065e-07 0)
(0.016070141 -3.8496396e-07 0)
(0.016129522 3.6543256e-07 0)
(0.016074825 -3.4747127e-07 0)
(0.016125069 3.3094585e-07 0)
(0.016079066 -3.1583738e-07 0)
(0.016121022 3.0203765e-07 0)
(0.016082937 -2.8952713e-07 0)
(0.016117313 2.7821863e-07 0)
(0.016086502 -2.6809432e-07 0)
(0.016113878 2.5908392e-07 0)
(0.016089821 -2.5117295e-07 0)
(0.01611066 2.4430431e-07 0)
(0.016092952 -2.384625e-07 0)
(0.016107603 2.3363107e-07 0)
(0.016095948 -2.2969825e-07 0)
(0.016104651 2.2621263e-07 0)
(0.016098882 -2.3236867e-07 0)
(0.016102035 2.148122e-07 0)
(0.017067325 0.002491886 0)
(0.01883292 -1.7890801e-05 0)
(0.017989946 4.9064342e-06 0)
(0.018578968 1.2683969e-06 0)
(0.018063668 -2.4335174e-06 0)
(0.018546135 1.9787306e-06 0)
(0.01810456 -2.1519163e-06 0)
(0.018519521 1.9566699e-06 0)
(0.018131735 -1.8690685e-06 0)
(0.018495246 1.7405175e-06 0)
(0.018154942 -1.6376815e-06 0)
(0.018473672 1.5336062e-06 0)
(0.018175265 -1.4397606e-06 0)
(0.018454653 1.3500448e-06 0)
(0.018193132 -1.2671643e-06 0)
(0.018437904 1.1888482e-06 0)
(0.018208862 -1.1161269e-06 0)
(0.018423149 1.0476355e-06 0)
(0.018222722 -9.8395633e-07 0)
(0.018410141 9.2408231e-07 0)
(0.018234946 -8.6839696e-07 0)
(0.018398661 8.1611439e-07 0)
(0.018245741 -7.6749353e-07 0)
(0.018388514 7.2191216e-07 0)
(0.01825529 -6.795416e-07 0)
(0.01837953 6.3988672e-07 0)
(0.018263752 -6.03056e-07 0)
(0.018371558 5.6865423e-07 0)
(0.018271272 -5.3674521e-07 0)
(0.018364463 5.0701272e-07 0)
(0.018277977 -4.7948944e-07 0)
(0.018358124 4.5392185e-07 0)
(0.018283978 -4.3032169e-07 0)
(0.018352437 4.0848536e-07 0)
(0.018289378 -3.884113e-07 0)
(0.018347303 3.6993584e-07 0)
(0.018294268 -3.5304984e-07 0)
(0.018342638 3.3762165e-07 0)
(0.01829873 -3.2363885e-07 0)
(0.018338361 3.1099551e-07 0)
(0.01830284 -2.9967909e-07 0)
(0.018334402 2.8960417e-07 0)
(0.018306667 -2.8076034e-07 0)
(0.018330691 2.7307789e-07 0)
(0.018310277 -2.6654315e-07 0)
(0.018327167 2.6113676e-07 0)
(0.018313731 -2.5671047e-07 0)
(0.018323763 2.5277293e-07 0)
(0.01831711 -2.6057088e-07 0)
(0.01832071 2.3943827e-07 0)
(0.019101025 0.0027025918 0)
(0.021014525 -2.3364948e-05 0)
(0.020103489 5.9892605e-06 0)
(0.020765347 1.2587582e-06 0)
(0.020181883 -2.6510682e-06 0)
(0.020727324 2.119429e-06 0)
(0.020227769 -2.3608233e-06 0)
(0.020697139 2.1382517e-06 0)
(0.020258415 -2.0470393e-06 0)
(0.020669652 1.9045565e-06 0)
(0.020284657 -1.7927443e-06 0)
(0.02064524 1.6784815e-06 0)
(0.020307645 -1.5759366e-06 0)
(0.020623721 1.4776399e-06 0)
(0.020327859 -1.3869892e-06 0)
(0.020604772 1.3012211e-06 0)
(0.020345653 -1.2216636e-06 0)
(0.02058808 1.1466647e-06 0)
(0.020361333 -1.0769934e-06 0)
(0.020573363 1.0114348e-06 0)
(0.020375162 -9.5050642e-07 0)
(0.020560375 8.9326261e-07 0)
(0.020387374 -8.4006171e-07 0)
(0.020548896 7.9015686e-07 0)
(0.020398176 -7.4379347e-07 0)
(0.020538732 7.0037866e-07 0)
(0.02040775 -6.6007599e-07 0)
(0.020529713 6.2241343e-07 0)
(0.020416258 -5.8749555e-07 0)
(0.020521686 5.5494564e-07 0)
(0.020423842 -5.2482642e-07 0)
(0.020514515 4.9683663e-07 0)
(0.020430632 -4.7101007e-07 0)
(0.020508081 4.471054e-07 0)
(0.020436741 -4.2513723e-07 0)
(0.020502273 4.0491196e-07 0)
(0.020442273 -3.8643232e-07 0)
(0.020496995 3.695429e-07 0)
(0.020447321 -3.5424005e-07 0)
(0.020492157 3.4039888e-07 0)
(0.02045197 -3.2801344e-07 0)
(0.020487677 3.1698303e-07 0)
(0.0204563 -3.0730228e-07 0)
(0.02048348 2.9888866e-07 0)
(0.020460384 -2.9173102e-07 0)
(0.020479493 2.8580702e-07 0)
(0.020464291 -2.8092828e-07 0)
(0.020475642 2.7658029e-07 0)
(0.02046811 -2.8604733e-07 0)
(0.02047215 2.6129973e-07 0)
(0.021085296 0.0028873366 0)
(0.023122637 -2.9290878e-05 0)
(0.022151516 7.0227831e-06 0)
(0.022883577 1.2242116e-06 0)
(0.022233477 -2.8374395e-06 0)
(0.022840919 2.2295288e-06 0)
(0.022284129 -2.5475471e-06 0)
(0.022807203 2.2983526e-06 0)
(0.02231818 -2.2050491e-06 0)
(0.022776539 2.0497617e-06 0)
(0.022347416 -1.9301826e-06 0)
(0.022749323 1.8068057e-06 0)
(0.022373037 -1.6965972e-06 0)
(0.022725337 1.5906738e-06 0)
(0.022395566 -1.493155e-06 0)
(0.022704216 1.4007734e-06 0)
(0.022415399 -1.3151685e-06 0)
(0.02268561 1.234397e-06 0)
(0.022432875 -1.1594235e-06 0)
(0.022669207 1.0888232e-06 0)
(0.022448289 -1.0232547e-06 0)
(0.02265473 9.6161127e-07 0)
(0.022461901 -9.0435662e-07 0)
(0.022641935 8.5061818e-07 0)
(0.022473941 -8.0072042e-07 0)
(0.022630606 7.5397206e-07 0)
(0.022484612 -7.1059583e-07 0)
(0.022620553 6.7004254e-07 0)
(0.022494094 -6.3246087e-07 0)
(0.022611606 5.9741348e-07 0)
(0.022502548 -5.6499591e-07 0)
(0.022603613 5.3485915e-07 0)
(0.022510116 -5.0706133e-07 0)
(0.022596441 4.8132347e-07 0)
(0.022516925 -4.5767818e-07 0)
(0.022589968 4.3590211e-07 0)
(0.022523091 -4.1601137e-07 0)
(0.022584085 3.9782693e-07 0)
(0.022528717 -3.8135516e-07 0)
(0.022578693 3.6645235e-07 0)
(0.022533899 -3.5312015e-07 0)
(0.0225737 3.4124265e-07 0)
(0.022538725 -3.3082031e-07 0)
(0.022569021 3.2175777e-07 0)
(0.022543277 -3.14047e-07 0)
(0.022564578 3.0766261e-07 0)
(0.022547632 -3.0237329e-07 0)
(0.022560286 2.9765805e-07 0)
(0.022551885 -3.0878318e-07 0)
(0.022556356 2.8043853e-07 0)
(0.023020806 0.0030468857 0)
(0.025158195 -3.5565488e-05 0)
(0.024134053 7.9768952e-06 0)
(0.024933324 1.1710304e-06 0)
(0.024218589 -2.9969655e-06 0)
(0.024886841 2.3106874e-06 0)
(0.024273712 -2.7123466e-06 0)
(0.024849646 2.4373861e-06 0)
(0.024311096 -2.3433203e-06 0)
(0.024815847 2.1763946e-06 0)
(0.024343278 -2.0502188e-06 0)
(0.02478587 1.9187978e-06 0)
(0.024371489 -1.8019428e-06 0)
(0.024759454 1.6893374e-06 0)
(0.024396297 -1.5858388e-06 0)
(0.024736194 1.4876728e-06 0)
(0.024418138 -1.3967979e-06 0)
(0.024715704 1.3109798e-06 0)
(0.024437383 -1.2313844e-06 0)
(0.02469764 1.1563775e-06 0)
(0.024454357 -1.0867634e-06 0)
(0.024681697 1.0212753e-06 0)
(0.024469347 -9.6048579e-07 0)
(0.024667606 9.0339774e-07 0)
(0.024482605 -8.5041765e-07 0)
(0.024655131 8.0075694e-07 0)
(0.024494357 -7.5470003e-07 0)
(0.02464406 7.1162151e-07 0)
(0.024504799 -6.7171638e-07 0)
(0.024634207 6.3448751e-07 0)
(0.024514108 -6.000651e-07 0)
(0.024625405 5.6805318e-07 0)
(0.024522442 -5.3853578e-07 0)
(0.024617507 5.1119693e-07 0)
(0.02452994 -4.8608858e-07 0)
(0.024610378 4.6295823e-07 0)
(0.02453673 -4.4183645e-07 0)
(0.0246039 4.2252113e-07 0)
(0.024542926 -4.0502955e-07 0)
(0.024597961 3.8919961e-07 0)
(0.024548633 -3.7504126e-07 0)
(0.024592463 3.6242376e-07 0)
(0.024553947 -3.5135395e-07 0)
(0.024587311 3.4172384e-07 0)
(0.024558959 -3.3352895e-07 0)
(0.024582418 3.2674081e-07 0)
(0.024563755 -3.210834e-07 0)
(0.024577692 3.1604487e-07 0)
(0.024568435 -3.2878401e-07 0)
(0.024573326 2.9691376e-07 0)
(0.024908213 0.0031819925 0)
(0.027122237 -4.2084133e-05 0)
(0.026050921 8.830532e-06 0)
(0.02691446 1.1049945e-06 0)
(0.026137337 -3.134984e-06 0)
(0.026865022 2.3649974e-06 0)
(0.026196585 -2.8555511e-06 0)
(0.026824403 2.5558381e-06 0)
(0.026237222 -2.4621494e-06 0)
(0.02678752 2.2847871e-06 0)
(0.026272293 -2.1531417e-06 0)
(0.026754831 2.0147388e-06 0)
(0.026303047 -1.892232e-06 0)
(0.026726029 1.7738761e-06 0)
(0.026330094 -1.6652691e-06 0)
(0.026700669 1.5621351e-06 0)
(0.026353906 -1.4667533e-06 0)
(0.026678328 1.3766034e-06 0)
(0.026374887 -1.2930536e-06 0)
(0.026658633 1.2142653e-06 0)
(0.026393393 -1.1411894e-06 0)
(0.026641251 1.0724026e-06 0)
(0.026409735 -1.0085878e-06 0)
(0.026625889 9.4862629e-07 0)
(0.02642419 -8.9300787e-07 0)
(0.026612287 8.4084917e-07 0)
(0.026437002 -7.9249746e-07 0)
(0.026600217 7.4725326e-07 0)
(0.026448387 -7.0535896e-07 0)
(0.026589474 6.6625943e-07 0)
(0.026458536 -6.3012052e-07 0)
(0.026579878 5.9650078e-07 0)
(0.026467622 -5.6551102e-07 0)
(0.026571267 5.3679955e-07 0)
(0.026475797 -5.1043847e-07 0)
(0.026563495 4.861471e-07 0)
(0.0264832 -4.6397121e-07 0)
(0.026556431 4.4368642e-07 0)
(0.026489955 -4.2532153e-07 0)
(0.026549957 4.0869673e-07 0)
(0.026496177 -3.9383079e-07 0)
(0.026543962 3.8057865e-07 0)
(0.026501971 -3.6895389e-07 0)
(0.026538346 3.5883632e-07 0)
(0.026507435 -3.5022531e-07 0)
(0.026533011 3.4308929e-07 0)
(0.026512663 -3.371067e-07 0)
(0.02652786 3.3178907e-07 0)
(0.026517761 -3.4607009e-07 0)
(0.026523062 3.107956e-07 0)
(0.026748043 0.003293401 0)
(0.029015859 -4.8745382e-05 0)
(0.02790181 9.577983e-06 0)
(0.028826989 1.0309089e-06 0)
(0.027989816 -3.2566129e-06 0)
(0.028775406 2.3948153e-06 0)
(0.028052809 -2.9775005e-06 0)
(0.028731416 2.654232e-06 0)
(0.028096612 -2.5618784e-06 0)
(0.028691507 2.3753133e-06 0)
(0.02813451 -2.2392807e-06 0)
(0.028656161 2.0949477e-06 0)
(0.028167754 -1.9677595e-06 0)
(0.028625022 1.8445689e-06 0)
(0.028196992 -1.7317059e-06 0)
(0.028597605 1.6244057e-06 0)
(0.028222733 -1.5252636e-06 0)
(0.028573454 1.4314836e-06 0)
(0.028245415 -1.3446333e-06 0)
(0.028552162 1.2626771e-06 0)
(0.02826542 -1.1867109e-06 0)
(0.02853337 1.1151613e-06 0)
(0.028283087 -1.0488202e-06 0)
(0.028516762 9.864525e-07 0)
(0.028298714 -9.286306e-07 0)
(0.028502058 8.7438042e-07 0)
(0.028312564 -8.2411191e-07 0)
(0.028489009 7.7705475e-07 0)
(0.028324872 -7.3349876e-07 0)
(0.028477395 6.9283345e-07 0)
(0.028335844 -6.5526052e-07 0)
(0.028467021 6.2029517e-07 0)
(0.028345666 -5.880753e-07 0)
(0.028457711 5.5821519e-07 0)
(0.028354504 -5.3080743e-07 0)
(0.02844931 5.0554457e-07 0)
(0.028362507 -4.8248792e-07 0)
(0.028441673 4.6139196e-07 0)
(0.02836981 -4.4229733e-07 0)
(0.028434674 4.2500742e-07 0)
(0.028376536 -4.0955007e-07 0)
(0.028428194 3.9576663e-07 0)
(0.028382799 -3.8367767e-07 0)
(0.028422122 3.731513e-07 0)
(0.028388706 -3.6419099e-07 0)
(0.028416355 3.5676207e-07 0)
(0.028394358 -3.5049757e-07 0)
(0.028410787 3.4494487e-07 0)
(0.028399866 -3.6067208e-07 0)
(0.028405563 3.2216116e-07 0)
(0.028540551 0.0033818475 0)
(0.030840104 -5.5449095e-05 0)
(0.029686403 1.0233978e-05 0)
(0.030670969 9.4930524e-07 0)
(0.029776091 -3.3670599e-06 0)
(0.030617943 2.402427e-06 0)
(0.029842436 -3.0785531e-06 0)
(0.030570634 2.7331183e-06 0)
(0.029889316 -2.6428869e-06 0)
(0.030527762 2.4483845e-06 0)
(0.029929971 -2.3090001e-06 0)
(0.03048982 2.1597759e-06 0)
(0.029965646 -2.0288501e-06 0)
(0.030456399 1.9017234e-06 0)
(0.029997024 -1.7854361e-06 0)
(0.030426974 1.6747548e-06 0)
(0.03002465 -1.5725819e-06 0)
(0.030401053 1.4758587e-06 0)
(0.030048992 -1.3863463e-06 0)
(0.030378201 1.3018228e-06 0)
(0.030070462 -1.2235248e-06 0)
(0.030358033 1.1497368e-06 0)
(0.030089423 -1.0813569e-06 0)
(0.030340208 1.0170402e-06 0)
(0.030106194 -9.5743974e-07 0)
(0.030324427 9.0149589e-07 0)
(0.030121058 -8.4967993e-07 0)
(0.030310422 8.0115492e-07 0)
(0.030134267 -7.5625727e-07 0)
(0.030297958 7.1432446e-07 0)
(0.030146043 -6.7559357e-07 0)
(0.030286824 6.3953912e-07 0)
(0.030156584 -6.0632587e-07 0)
(0.030276832 5.7553623e-07 0)
(0.03016607 -5.4728317e-07 0)
(0.030267815 5.2123424e-07 0)
(0.030174659 -4.9746626e-07 0)
(0.03025962 4.7571398e-07 0)
(0.030182496 -4.5602993e-07 0)
(0.030252108 4.3820182e-07 0)
(0.030189715 -4.2226663e-07 0)
(0.030245152 4.0805303e-07 0)
(0.030196437 -3.955886e-07 0)
(0.030238636 3.8473049e-07 0)
(0.030202776 -3.7548637e-07 0)
(0.030232447 3.6781853e-07 0)
(0.030208842 -3.613156e-07 0)
(0.030226472 3.5557138e-07 0)
(0.030214749 -3.7262964e-07 0)
(0.030220829 3.310928e-07 0)
(0.030285651 0.0034480563 0)
(0.03259565 -6.2049532e-05 0)
(0.031404692 1.0790327e-05 0)
(0.032446444 8.5581528e-07 0)
(0.031496215 -3.471578e-06 0)
(0.032392587 2.3899597e-06 0)
(0.031565518 -3.1591333e-06 0)
(0.032342009 2.793052e-06 0)
(0.031615377 -2.7055992e-06 0)
(0.032296244 2.5044444e-06 0)
(0.031658716 -2.3626978e-06 0)
(0.032255771 2.2096058e-06 0)
(0.031696758 -2.0758583e-06 0)
(0.032220127 1.9456741e-06 0)
(0.031730221 -1.826772e-06 0)
(0.032188745 1.7134768e-06 0)
(0.031759682 -1.6089833e-06 0)
(0.032161101 1.5099879e-06 0)
(0.031785642 -1.4184355e-06 0)
(0.03213673 1.3319311e-06 0)
(0.031808539 -1.2518452e-06 0)
(0.032115221 1.1763308e-06 0)
(0.031828759 -1.1063873e-06 0)
(0.032096211 1.0405679e-06 0)
(0.031846645 -9.7960291e-07 0)
(0.03207938 9.2235365e-07 0)
(0.031862497 -8.6935022e-07 0)
(0.032064444 8.1969417e-07 0)
(0.031876584 -7.7376676e-07 0)
(0.032051152 7.3085754e-07 0)
(0.031889142 -6.9123777e-07 0)
(0.032039277 6.5434454e-07 0)
(0.031900384 -6.2036866e-07 0)
(0.032028622 5.8886327e-07 0)
(0.0319105 -5.5996123e-07 0)
(0.032019005 5.3330712e-07 0)
(0.03191966 -5.0899296e-07 0)
(0.032010264 4.8673545e-07 0)
(0.031928019 -4.6659877e-07 0)
(0.032002253 4.4835628e-07 0)
(0.031935718 -4.3205398e-07 0)
(0.031994835 4.1750892e-07 0)
(0.031942887 -4.0475558e-07 0)
(0.031987885 3.93641e-07 0)
(0.031949647 -3.841771e-07 0)
(0.031981285 3.7632319e-07 0)
(0.031956116 -3.696254e-07 0)
(0.031974915 3.6373245e-07 0)
(0.031962412 -3.8199074e-07 0)
(0.03196886 3.3767723e-07 0)
(0.031982924 0.0034927184 0)
(0.034282093 -6.825836e-05 0)
(0.033057645 1.1086631e-05 0)
(0.034153415 7.3285089e-07 0)
(0.033150213 -3.5751714e-06 0)
(0.034099285 2.36002e-06 0)
(0.033222095 -3.2194827e-06 0)
(0.034045496 2.8346756e-06 0)
(0.033274835 -2.7504587e-06 0)
(0.033996913 2.5439739e-06 0)
(0.03332078 -2.4008014e-06 0)
(0.033953982 2.2448486e-06 0)
(0.033361122 -2.109165e-06 0)
(0.033916178 1.9767813e-06 0)
(0.033396609 -1.8560502e-06 0)
(0.033882894 1.7408885e-06 0)
(0.033427854 -1.6347644e-06 0)
(0.033853575 1.5341501e-06 0)
(0.033455385 -1.4411621e-06 0)
(0.033827728 1.3532479e-06 0)
(0.033479668 -1.2719027e-06 0)
(0.033804916 1.1951605e-06 0)
(0.033501112 -1.124115e-06 0)
(0.033784755 1.0572275e-06 0)
(0.033520081 -9.9530048e-07 0)
(0.033766905 9.3712375e-07 0)
(0.033536893 -8.8328278e-07 0)
(0.033751065 8.3282352e-07 0)
(0.033551832 -7.861696e-07 0)
(0.033736967 7.4256727e-07 0)
(0.033565151 -7.0232022e-07 0)
(0.033724373 6.6483181e-07 0)
(0.033577074 -6.3031765e-07 0)
(0.033713072 5.9830456e-07 0)
(0.033587803 -5.6894439e-07 0)
(0.033702873 5.4186112e-07 0)
(0.033597518 -5.1716138e-07 0)
(0.033693603 4.9454562e-07 0)
(0.033606383 -4.7408931e-07 0)
(0.033685106 4.5555295e-07 0)
(0.033614548 -4.3899122e-07 0)
(0.033677239 4.2421076e-07 0)
(0.033622151 -4.112527e-07 0)
(0.033669868 3.99955e-07 0)
(0.033629321 -3.9033371e-07 0)
(0.033662868 3.8234535e-07 0)
(0.033636181 -3.7549618e-07 0)
(0.033656113 3.6949632e-07 0)
(0.033642856 -3.8881097e-07 0)
(0.033649657 3.4200461e-07 0)
(0.033631847 0.0035166185 0)
(0.035896178 -7.3975167e-05 0)
(0.034648369 1.108674e-05 0)
(0.035792278 5.8084399e-07 0)
(0.034738123 -3.6826794e-06 0)
(0.035737988 2.3140348e-06 0)
(0.034812202 -3.2602022e-06 0)
(0.035681053 2.8585315e-06 0)
(0.034867727 -2.7779813e-06 0)
(0.035629736 2.567469e-06 0)
(0.034916194 -2.4237715e-06 0)
(0.035584421 2.2659398e-06 0)
(0.034958765 -2.1291768e-06 0)
(0.035544523 1.9954274e-06 0)
(0.034996214 -1.8736284e-06 0)
(0.035509398 1.7573265e-06 0)
(0.035029186 -1.6502405e-06 0)
(0.035478456 1.548642e-06 0)
(0.03505824 -1.4548042e-06 0)
(0.035451179 1.3660346e-06 0)
(0.035083866 -1.2839428e-06 0)
(0.035427105 1.2064568e-06 0)
(0.035106497 -1.134757e-06 0)
(0.035405828 1.0672233e-06 0)
(0.035126514 -1.0047244e-06 0)
(0.03538699 9.4598711e-07 0)
(0.035144256 -8.9164789e-07 0)
(0.035370273 8.4070367e-07 0)
(0.035160022 -7.9361725e-07 0)
(0.035355394 7.4959681e-07 0)
(0.035174078 -7.0897615e-07 0)
(0.035342104 6.7112899e-07 0)
(0.035186661 -6.3629411e-07 0)
(0.035330177 6.0397523e-07 0)
(0.035197983 -5.7434202e-07 0)
(0.035319413 5.4700042e-07 0)
(0.035208236 -5.220708e-07 0)
(0.03530963 4.9923947e-07 0)
(0.035217592 -4.7859251e-07 0)
(0.035300663 4.5987921e-07 0)
(0.035226209 -4.4316247e-07 0)
(0.03529236 4.2823986e-07 0)
(0.035234233 -4.151588e-07 0)
(0.035284581 4.0374923e-07 0)
(0.0352418 -3.9403123e-07 0)
(0.035277194 3.8595867e-07 0)
(0.035249039 -3.7900136e-07 0)
(0.035270067 3.7293526e-07 0)
(0.035256079 -3.9315283e-07 0)
(0.035263219 3.4416772e-07 0)
(0.035231599 0.00352054 0)
(0.037433793 -7.97682e-05 0)
(0.036180207 1.125661e-05 0)
(0.037364179 5.4037759e-07 0)
(0.036260104 -3.7744783e-06 0)
(0.03730872 2.2584738e-06 0)
(0.036335892 -3.2807158e-06 0)
(0.037248652 2.8654842e-06 0)
(0.036394086 -2.7886268e-06 0)
(0.037194682 2.5754788e-06 0)
(0.036444989 -2.4320845e-06 0)
(0.037147062 2.2733417e-06 0)
(0.036489712 -2.1363207e-06 0)
(0.037105141 2.0020163e-06 0)
(0.036529057 -1.879884e-06 0)
(0.037068235 1.7631457e-06 0)
(0.036563699 -1.655744e-06 0)
(0.037035726 1.5537761e-06 0)
(0.036594224 -1.4596548e-06 0)
(0.037007066 1.370567e-06 0)
(0.036621148 -1.288224e-06 0)
(0.036981771 1.210463e-06 0)
(0.036644925 -1.1385417e-06 0)
(0.036959417 1.0707703e-06 0)
(0.036665956 -1.0080769e-06 0)
(0.036939624 9.4913437e-07 0)
(0.036684597 -8.9462501e-07 0)
(0.036922059 8.4350395e-07 0)
(0.036701162 -7.9626938e-07 0)
(0.036906427 7.5209706e-07 0)
(0.03671593 -7.1134811e-07 0)
(0.036892463 6.7337109e-07 0)
(0.036729151 -6.3842589e-07 0)
(0.036879932 6.0599667e-07 0)
(0.036741047 -5.7626942e-07 0)
(0.036868622 5.4883484e-07 0)
(0.036751819 -5.2382595e-07 0)
(0.036858343 5.0091712e-07 0)
(0.036761649 -4.8020426e-07 0)
(0.036848921 4.6142719e-07 0)
(0.036770703 -4.4465646e-07 0)
(0.036840197 4.2968196e-07 0)
(0.036779134 -4.1655696e-07 0)
(0.036832024 4.0510458e-07 0)
(0.036787085 -3.9534868e-07 0)
(0.036824262 3.8724076e-07 0)
(0.03679469 -3.8021812e-07 0)
(0.036816775 3.7412516e-07 0)
(0.036802085 -3.9508498e-07 0)
(0.036809548 3.4426117e-07 0)
(0.036780809 0.0035052212 0)
(0.03890059 -8.5239936e-05 0)
(0.03764951 1.1330648e-05 0)
(0.038868727 5.9658019e-07 0)
(0.037716031 -3.8553265e-06 0)
(0.038811409 2.1939282e-06 0)
(0.037793186 -3.2817902e-06 0)
(0.038748256 2.8560775e-06 0)
(0.037853941 -2.7829849e-06 0)
(0.038691723 2.5685429e-06 0)
(0.037907189 -2.4262515e-06 0)
(0.038641882 2.2675329e-06 0)
(0.037953985 -2.1310454e-06 0)
(0.03859801 1.9969693e-06 0)
(0.037995158 -1.8752118e-06 0)
(0.038559388 1.7587172e-06 0)
(0.038031409 -1.6516226e-06 0)
(0.038525367 1.5498792e-06 0)
(0.038063352 -1.4560205e-06 0)
(0.038495375 1.3671333e-06 0)
(0.038091527 -1.2850169e-06 0)
(0.038468905 1.2074336e-06 0)
(0.038116409 -1.1357083e-06 0)
(0.038445511 1.0680936e-06 0)
(0.038138418 -1.0055696e-06 0)
(0.038424798 9.4676494e-07 0)
(0.038157925 -8.924019e-07 0)
(0.038406417 8.414015e-07 0)
(0.038175259 -7.9429303e-07 0)
(0.038390057 7.5022586e-07 0)
(0.038190714 -7.0958524e-07 0)
(0.038375444 6.7169933e-07 0)
(0.038204549 -6.3684676e-07 0)
(0.03836233 6.0449585e-07 0)
(0.038216998 -5.7484723e-07 0)
(0.038350494 5.4747927e-07 0)
(0.038228272 -5.2253638e-07 0)
(0.038339737 4.9968332e-07 0)
(0.038238559 -4.7902488e-07 0)
(0.038329876 4.6029329e-07 0)
(0.038248034 -4.4356602e-07 0)
(0.038320747 4.2862679e-07 0)
(0.038256857 -4.1553415e-07 0)
(0.038312194 4.0410566e-07 0)
(0.038265177 -3.9436875e-07 0)
(0.038304071 3.8627277e-07 0)
(0.038273136 -3.7922704e-07 0)
(0.038296238 3.7314516e-07 0)
(0.038280871 -3.9468162e-07 0)
(0.038288643 3.4238077e-07 0)
(0.038277878 0.0034714349 0)
(0.040305517 -8.9757193e-05 0)
(0.039049416 1.0865367e-05 0)
(0.040305138 6.6935202e-07 0)
(0.039105735 -3.9335658e-06 0)