/*--------------------------------*- C++ -*----------------------------------*\
| =========                 |                                                 |
| \\      /  F ield         | OpenFOAM: The Open Source CFD Toolbox           |
|  \\    /   O peration     | Version:  2312                                  |
|   \\  /    A nd           | Website:  www.openfoam.com                      |
|    \\/     M anipulation  |                                                 |
\*---------------------------------------------------------------------------*/
FoamFile
{
    version     2.0;
    format      ascii;
    arch        "LSB;label=32;scalar=64";
    class       volVectorField;
    location    "9";
    object      U_0;
}
// * * * * * * * * * * * * * * * * * * * * * * * * * * * * * * * * * * * * * //

dimensions      [0 1 -1 0 0 0 0];

internalField   nonuniform List<vector> 
4000
(
(0.0013486355 0.0002302172 0)
(0.0014476495 -1.2404028e-06 0)
(0.0013498574 -1.5160512e-07 0)
(0.001395613 1.4811994e-07 0)
(0.001360023 -1.3728168e-07 0)
(0.0013934336 1.3032793e-07 0)
(0.0013630188 -1.2099363e-07 0)
(0.0013916168 1.1371296e-07 0)
(0.0013649318 -1.0648789e-07 0)
(0.0013899547 9.9906978e-08 0)
(0.0013665334 -9.3676471e-08 0)
(0.0013884722 8.7869144e-08 0)
(0.0013679318 -8.2420649e-08 0)
(0.0013871638 7.7324235e-08 0)
(0.0013691607 -7.2551252e-08 0)
(0.0013860116 6.8085572e-08 0)
(0.0013702423 -6.3905345e-08 0)
(0.0013849966 5.9995899e-08 0)
(0.0013711951 -5.6337632e-08 0)
(0.0013841018 5.29185e-08 0)
(0.0013720354 -4.9720503e-08 0)
(0.0013833123 4.6733919e-08 0)
(0.0013727772 -4.3942296e-08 0)
(0.0013826148 4.1337791e-08 0)
(0.0013734331 -3.8905492e-08 0)
(0.0013819973 3.6639056e-08 0)
(0.0013740143 -3.4525081e-08 0)
(0.0013814496 3.2558421e-08 0)
(0.0013745304 -3.0727131e-08 0)
(0.0013809625 2.9027024e-08 0)
(0.0013749903 -2.7447542e-08 0)
(0.0013805276 2.5985271e-08 0)
(0.0013754017 -2.4630968e-08 0)
(0.0013801377 2.3381838e-08 0)
(0.0013757714 -2.2229881e-08 0)
(0.0013797862 2.1172806e-08 0)
(0.0013761059 -2.0203785e-08 0)
(0.0013794671 1.9320939e-08 0)
(0.0013764106 -1.8518546e-08 0)
(0.0013791752 1.7795076e-08 0)
(0.0013766908 -1.714586e-08 0)
(0.0013789054 1.6569674e-08 0)
(0.0013769512 -1.6062877e-08 0)
(0.0013786532 1.5624553e-08 0)
(0.0013771961 -1.5252148e-08 0)
(0.0013784143 1.4944978e-08 0)
(0.0013774298 -1.4703115e-08 0)
(0.001378185 1.4524203e-08 0)
(0.0013776626 -1.4383412e-08 0)
(0.0013780089 1.4877083e-08 0)
(0.0037638057 0.00063525864 0)
(0.0041624165 4.22997e-07 0)
(0.0039241999 4.5291118e-08 0)
(0.0040511181 4.1090286e-07 0)
(0.003947833 -4.778468e-07 0)
(0.0040452052 4.3481345e-07 0)
(0.0039564762 -4.2089048e-07 0)
(0.0040399353 3.9180356e-07 0)
(0.0039620415 -3.6912145e-07 0)
(0.0040350833 3.455688e-07 0)
(0.0039667168 -3.2434477e-07 0)
(0.0040307551 3.041047e-07 0)
(0.0039708007 -2.853076e-07 0)
(0.0040269358 2.6763992e-07 0)
(0.0039743899 -2.5113518e-07 0)
(0.0040235719 2.356702e-07 0)
(0.0039775491 -2.2120897e-07 0)
(0.0040206086 2.0767322e-07 0)
(0.0039803325 -1.9501683e-07 0)
(0.0040179963 1.8317948e-07 0)
(0.0039827872 -1.7211555e-07 0)
(0.0040156909 1.6177614e-07 0)
(0.0039849546 -1.5211839e-07 0)
(0.0040136536 1.4310212e-07 0)
(0.0039868715 -1.3468781e-07 0)
(0.0040118501 1.268423e-07 0)
(0.0039885701 -1.1952959e-07 0)
(0.0040102499 1.1272226e-07 0)
(0.0039900792 -1.0638788e-07 0)
(0.0040088261 1.0050371e-07 0)
(0.0039914241 -9.504084e-08 0)
(0.0040075546 8.9980417e-08 0)
(0.0039926277 -8.5296927e-08 0)
(0.0040064141 8.0974757e-08 0)
(0.0039937101 -7.699165e-08 0)
(0.0040053852 7.3334713e-08 0)
(0.0039946897 -6.9984801e-08 0)
(0.0040044507 6.6931325e-08 0)
(0.0039955831 -6.4158108e-08 0)
(0.0040035948 6.1656537e-08 0)
(0.0039964052 -5.9413276e-08 0)
(0.004002803 5.7421432e-08 0)
(0.00399717 -5.5670421e-08 0)
(0.004002062 5.4154933e-08 0)
(0.0039978905 -5.2866712e-08 0)
(0.004001359 5.1803987e-08 0)
(0.0039985787 -5.096129e-08 0)
(0.0040006822 5.0258525e-08 0)
(0.0039992586 -5.0547775e-08 0)
(0.004000135 4.8404696e-08 0)
(0.0061118296 0.0010194961 0)
(0.006796407 -4.9899736e-07 0)
(0.0064332146 3.7786943e-07 0)
(0.0066395209 6.9474371e-07 0)
(0.0064684536 -8.6624827e-07 0)
(0.0066298452 7.7419996e-07 0)
(0.0064826596 -7.6164504e-07 0)
(0.0066210929 7.0635897e-07 0)
(0.006491864 -6.6694547e-07 0)
(0.0066130376 6.2386488e-07 0)
(0.006499618 -5.8578239e-07 0)
(0.0066058554 5.4912083e-07 0)
(0.0065063942 -5.1523276e-07 0)
(0.0065995187 4.8329516e-07 0)
(0.0065123499 -4.5351242e-07 0)
(0.0065939376 4.2556882e-07 0)
(0.0065175924 -3.9946776e-07 0)
(0.006589021 3.750132e-07 0)
(0.0065222114 -3.5216776e-07 0)
(0.0065846865 3.3078294e-07 0)
(0.0065262852 -3.1081091e-07 0)
(0.006580861 2.9213302e-07 0)
(0.0065298825 -2.7469859e-07 0)
(0.0065774803 2.5841148e-07 0)
(0.0065330641 -2.4322117e-07 0)
(0.0065744871 2.2904933e-07 0)
(0.0065358838 -2.1584729e-07 0)
(0.0065718312 2.0355104e-07 0)
(0.006538389 -1.9211485e-07 0)
(0.0065694676 1.814863e-07 0)
(0.0065406222 -1.7162323e-07 0)
(0.0065673566 1.6248267e-07 0)
(0.006542621 -1.5402646e-07 0)
(0.0065654625 1.4621935e-07 0)
(0.0065444191 -1.390274e-07 0)
(0.0065637534 1.3242174e-07 0)
(0.0065460469 -1.2637273e-07 0)
(0.0065622005 1.2085681e-07 0)
(0.0065475319 -1.1584866e-07 0)
(0.0065607776 1.1132916e-07 0)
(0.0065488991 -1.0727728e-07 0)
(0.0065594607 1.0367764e-07 0)
(0.0065501717 -1.005135e-07 0)
(0.0065582273 9.7772697e-08 0)
(0.0065513712 -9.5441678e-08 0)
(0.0065570566 9.3516371e-08 0)
(0.006552518 -9.1979888e-08 0)
(0.0065559278 9.0674388e-08 0)
(0.0065536479 -9.1580383e-08 0)
(0.0065549926 8.6917552e-08 0)
(0.0084128108 0.0013735438 0)
(0.009356097 -2.3839175e-06 0)
(0.0088766332 9.7548223e-07 0)
(0.0091610229 9.1890765e-07 0)
(0.0089217989 -1.2408129e-06 0)
(0.0091474432 1.0878493e-06 0)
(0.008941495 -1.0892948e-06 0)
(0.009135171 1.0062813e-06 0)
(0.0089543341 -9.5235392e-07 0)
(0.0091238895 8.9004327e-07 0)
(0.0089651794 -8.3607077e-07 0)
(0.0091138367 7.8357586e-07 0)
(0.0089746613 -7.3530774e-07 0)
(0.0091049687 6.896734e-07 0)
(0.0089829956 -6.4721119e-07 0)
(0.0090971583 6.0730241e-07 0)
(0.0089903321 -5.7008016e-07 0)
(0.0090902777 5.351594e-07 0)
(0.0089967962 -5.0257672e-07 0)
(0.0090842117 4.7204175e-07 0)
(0.0090024974 -4.4355537e-07 0)
(0.0090788579 4.1688703e-07 0)
(0.009007532 -3.9201877e-07 0)
(0.0090741263 3.6876503e-07 0)
(0.0090119849 -3.4709678e-07 0)
(0.0090699371 3.2686385e-07 0)
(0.0090159314 -3.0803103e-07 0)
(0.0090662195 2.9047642e-07 0)
(0.0090194382 -2.7416202e-07 0)
(0.009062911 2.5898865e-07 0)
(0.0090225643 -2.4491795e-07 0)
(0.0090599558 2.3186908e-07 0)
(0.0090253626 -2.1980505e-07 0)
(0.0090573039 2.0865989e-07 0)
(0.0090278803 -1.9839921e-07 0)
(0.0090549108 1.8896918e-07 0)
(0.0090301599 -1.8033882e-07 0)
(0.0090527359 1.7246431e-07 0)
(0.0090322398 -1.6531862e-07 0)
(0.0090507427 1.5886623e-07 0)
(0.0090341552 -1.5308446e-07 0)
(0.0090488974 1.4794464e-07 0)
(0.0090359386 -1.4342871e-07 0)
(0.0090471689 1.3951371e-07 0)
(0.0090376201 -1.3618445e-07 0)
(0.0090455272 1.3343275e-07 0)
(0.0090392285 -1.3122681e-07 0)
(0.0090439432 1.2932158e-07 0)
(0.0090408101 -1.3120809e-07 0)
(0.0090426036 1.2360599e-07 0)
(0.010658892 0.0016964795 0)
(0.011839247 -5.1662196e-06 0)
(0.011254061 1.787764e-06 0)
(0.011615768 1.0793393e-06 0)
(0.011307878 -1.5855407e-06 0)
(0.011597983 1.3629835e-06 0)
(0.011332997 -1.390791e-06 0)
(0.011582151 1.2797085e-06 0)
(0.011349464 -1.2139825e-06 0)
(0.011567623 1.1335369e-06 0)
(0.011363411 -1.0652466e-06 0)
(0.011554685 9.9815654e-07 0)
(0.011375611 -9.367738e-07 0)
(0.011543273 8.785755e-07 0)
(0.011386334 -8.2452329e-07 0)
(0.011533223 7.7365038e-07 0)
(0.011395774 -7.2625714e-07 0)
(0.01152437 6.8174857e-07 0)
(0.011404092 -6.4025899e-07 0)
(0.011516564 6.013429e-07 0)
(0.011411428 -5.6506739e-07 0)
(0.011509675 5.3108081e-07 0)
(0.011417906 -4.9941135e-07 0)
(0.011503587 4.6977754e-07 0)
(0.011423636 -4.4218221e-07 0)
(0.011498196 4.1639887e-07 0)
(0.011428714 -3.9241378e-07 0)
(0.011493412 3.7004411e-07 0)
(0.011433227 -3.4926583e-07 0)
(0.011489154 3.2993099e-07 0)
(0.01143725 -3.1200986e-07 0)
(0.011485351 2.9538249e-07 0)
(0.011440851 -2.8001678e-07 0)
(0.011481938 2.6581536e-07 0)
(0.011444092 -2.5274624e-07 0)
(0.011478858 2.4073034e-07 0)
(0.011447026 -2.297375e-07 0)
(0.011476059 2.197036e-07 0)
(0.011449703 -2.1060156e-07 0)
(0.011473493 2.0237952e-07 0)
(0.011452169 -1.9501441e-07 0)
(0.011471118 1.8846438e-07 0)
(0.011454465 -1.8271102e-07 0)
(0.011468892 1.7772064e-07 0)
(0.01145663 -1.7347693e-07 0)
(0.011466778 1.6996881e-07 0)
(0.011458701 -1.6714333e-07 0)
(0.011464737 1.6467487e-07 0)
(0.011460735 -1.6781351e-07 0)
(0.01146298 1.5706876e-07 0)
(0.012848557 0.0019896269 0)
(0.014246056 -8.7219614e-06 0)
(0.013565414 2.7543871e-06 0)
(0.014003777 1.185346e-06 0)
(0.013626798 -1.8996409e-06 0)
(0.013981357 1.6014836e-06 0)
(0.013657269 -1.6672145e-06 0)
(0.013961938 1.5279446e-06 0)
(0.013677343 -1.4528764e-06 0)
(0.013944153 1.3553774e-06 0)
(0.013694393 -1.274254e-06 0)
(0.013928326 1.1937564e-06 0)
(0.013709311 -1.1204668e-06 0)
(0.013914369 1.0507858e-06 0)
(0.013722426 -9.8618541e-07 0)
(0.013902077 9.2530314e-07 0)
(0.013733972 -8.6864781e-07 0)
(0.013891248 8.1538914e-07 0)
(0.013744145 -7.6578687e-07 0)
(0.013881701 7.1922311e-07 0)
(0.013753117 -6.7585213e-07 0)
(0.013873275 6.3518846e-07 0)
(0.01376104 -5.9732287e-07 0)
(0.013865829 5.6186847e-07 0)
(0.013768048 -5.2887291e-07 0)
(0.013859235 4.9802627e-07 0)
(0.013774259 -4.6934655e-07 0)
(0.013853384 4.425847e-07 0)
(0.013779779 -4.1773877e-07 0)
(0.013848177 3.9460815e-07 0)
(0.013784699 -3.7317818e-07 0)
(0.013843525 3.5328691e-07 0)
(0.013789104 -3.3491229e-07 0)
(0.013839351 3.1792341e-07 0)
(0.013793067 -3.0229475e-07 0)
(0.013835583 2.8792045e-07 0)
(0.013796656 -2.7477442e-07 0)
(0.013832159 2.6277106e-07 0)
(0.013799931 -2.5188586e-07 0)
(0.01382902 2.4204973e-07 0)
(0.013802947 -2.3324125e-07 0)
(0.013826114 2.2540472e-07 0)
(0.013805756 -2.1852293e-07 0)
(0.013823392 2.1255086e-07 0)
(0.013808405 -2.0747208e-07 0)
(0.013820805 2.0327287e-07 0)
(0.01381094 -1.9987349e-07 0)
(0.013818307 1.968784e-07 0)
(0.013813425 -2.0146366e-07 0)
(0.013816124 1.873867e-07 0)
(0.014984163 0.0022544863 0)
(0.016577065 -1.2995925e-05 0)
(0.015810669 3.8119461e-06 0)
(0.016324946 1.246039e-06 0)
(0.015878685 -2.1828412e-06 0)
(0.016297445 1.8063228e-06 0)
(0.015914423 -1.9207232e-06 0)
(0.016274426 1.75332e-06 0)
(0.015938071 -1.6710364e-06 0)
(0.016253389 1.5574965e-06 0)
(0.015958211 -1.4648792e-06 0)
(0.01623468 1.372061e-06 0)
(0.01597584 -1.2879634e-06 0)
(0.016218183 1.2077858e-06 0)
(0.015991339 -1.1335863e-06 0)
(0.016203655 1.0635648e-06 0)
(0.016004984 -9.9847563e-07 0)
(0.016190858 9.3723019e-07 0)
(0.016017006 -8.802391e-07 0)
(0.016179575 8.2669596e-07 0)
(0.016027609 -7.7686172e-07 0)
(0.016169616 7.3010518e-07 0)
(0.016036973 -6.8659493e-07 0)
(0.016160815 6.4582974e-07 0)
(0.016045256 -6.0791415e-07 0)
(0.016153023 5.7244809e-07 0)
(0.016052597 -5.3949086e-07 0)
(0.016146108 5.0872215e-07 0)
(0.016059119 -4.8016974e-07 0)
(0.016139953 4.5357658e-07 0)
(0.016064935 -4.2894912e-07 0)
(0.016134456 4.0608065e-07 0)
(0.016070141 -3.8496396e-07 0)
(0.016129522 3.6543257e-07 0)
(0.016074825 -3.4747127e-07 0)
(0.016125069 3.3094585e-07 0)
(0.016079066 -3.1583738e-07 0)
(0.016121022 3.0203765e-07 0)
(0.016082937 -2.8952713e-07 0)
(0.016117313 2.7821863e-07 0)
(0.016086502 -2.6809433e-07 0)
(0.016113878 2.5908393e-07 0)
(0.016089821 -2.5117295e-07 0)
(0.01611066 2.4430432e-07 0)
(0.016092952 -2.3846251e-07 0)
(0.016107603 2.3363108e-07 0)
(0.016095948 -2.2969826e-07 0)
(0.016104651 2.2621264e-07 0)
(0.016098882 -2.3236867e-07 0)
(0.016102035 2.1481221e-07 0)
(0.017067948 0.0024919096 0)
(0.018832972 -1.7913668e-05 0)
(0.017989943 4.9058845e-06 0)
(0.018578967 1.2681728e-06 0)
(0.018063668 -2.4335231e-06 0)
(0.018546134 1.978725e-06 0)
(0.01810456 -2.1519179e-06 0)
(0.018519521 1.9566705e-06 0)
(0.018131735 -1.8690687e-06 0)
(0.018495246 1.7405174e-06 0)
(0.018154942 -1.6376812e-06 0)
(0.018473672 1.5336059e-06 0)
(0.018175265 -1.4397604e-06 0)
(0.018454653 1.3500445e-06 0)
(0.018193132 -1.2671641e-06 0)
(0.018437904 1.1888481e-06 0)
(0.018208862 -1.1161268e-06 0)
(0.018423149 1.0476355e-06 0)
(0.018222722 -9.8395632e-07 0)
(0.018410141 9.2408232e-07 0)
(0.018234946 -8.6839697e-07 0)
(0.018398661 8.161144e-07 0)
(0.018245741 -7.6749354e-07 0)
(0.018388514 7.2191216e-07 0)
(0.01825529 -6.7954161e-07 0)
(0.01837953 6.3988672e-07 0)
(0.018263752 -6.0305601e-07 0)
(0.018371558 5.6865423e-07 0)
(0.018271272 -5.3674521e-07 0)
(0.018364463 5.0701272e-07 0)
(0.018277977 -4.7948944e-07 0)
(0.018358124 4.5392186e-07 0)
(0.018283978 -4.3032169e-07 0)
(0.018352437 4.0848537e-07 0)
(0.018289378 -3.8841131e-07 0)
(0.018347303 3.6993585e-07 0)
(0.018294268 -3.5304985e-07 0)
(0.018342638 3.3762166e-07 0)
(0.01829873 -3.2363885e-07 0)
(0.018338361 3.1099552e-07 0)
(0.01830284 -2.9967909e-07 0)
(0.018334402 2.8960418e-07 0)
(0.018306667 -2.8076034e-07 0)
(0.018330691 2.730779e-07 0)
(0.018310277 -2.6654315e-07 0)
(0.018327167 2.6113676e-07 0)
(0.018313731 -2.5671047e-07 0)
(0.018323763 2.5277293e-07 0)
(0.01831711 -2.6057089e-07 0)
(0.01832071 2.3943828e-07 0)
(0.019101321 0.0027026126 0)
(0.021014536 -2.3384658e-05 0)
(0.020103484 5.9889378e-06 0)
(0.020765346 1.2585005e-06 0)
(0.020181884 -2.6510734e-06 0)
(0.020727323 2.1194222e-06 0)
(0.020227769 -2.3608247e-06 0)
(0.020697138 2.1382521e-06 0)
(0.020258415 -2.0470395e-06 0)
(0.020669652 1.9045565e-06 0)
(0.020284657 -1.7927441e-06 0)
(0.02064524 1.6784812e-06 0)
(0.020307645 -1.5759363e-06 0)
(0.020623721 1.4776397e-06 0)
(0.020327859 -1.386989e-06 0)
(0.020604772 1.301221e-06 0)
(0.020345653 -1.2216635e-06 0)
(0.02058808 1.1466647e-06 0)
(0.020361333 -1.0769934e-06 0)
(0.020573363 1.0114348e-06 0)
(0.020375162 -9.5050643e-07 0)
(0.020560375 8.9326262e-07 0)
(0.020387374 -8.4006172e-07 0)
(0.020548896 7.9015686e-07 0)
(0.020398176 -7.4379348e-07 0)
(0.020538732 7.0037866e-07 0)
(0.02040775 -6.60076e-07 0)
(0.020529713 6.2241343e-07 0)
(0.020416258 -5.8749555e-07 0)
(0.020521686 5.5494564e-07 0)
(0.020423842 -5.2482642e-07 0)
(0.020514515 4.9683664e-07 0)
(0.020430632 -4.7101007e-07 0)
(0.020508081 4.4710541e-07 0)
(0.020436741 -4.2513723e-07 0)
(0.020502273 4.0491197e-07 0)
(0.020442273 -3.8643232e-07 0)
(0.020496995 3.6954291e-07 0)
(0.020447321 -3.5424005e-07 0)
(0.020492157 3.4039889e-07 0)
(0.02045197 -3.2801345e-07 0)
(0.020487677 3.1698304e-07 0)
(0.0204563 -3.0730229e-07 0)
(0.02048348 2.9888866e-07 0)
(0.020460384 -2.9173102e-07 0)
(0.020479493 2.8580703e-07 0)
(0.020464291 -2.8092828e-07 0)
(0.020475642 2.7658029e-07 0)
(0.02046811 -2.8604733e-07 0)
(0.02047215 2.6129973e-07 0)
(0.02108524 0.0028873569 0)
(0.02312261 -2.9309832e-05 0)
(0.02215151 7.0224091e-06 0)
(0.022883576 1.2239106e-06 0)
(0.022233478 -2.8374442e-06 0)
(0.022840919 2.2295212e-06 0)
(0.022284129 -2.5475482e-06 0)
(0.022807203 2.298353e-06 0)
(0.02231818 -2.2050494e-06 0)
(0.022776539 2.0497617e-06 0)
(0.022347416 -1.9301825e-06 0)
(0.022749323 1.8068055e-06 0)
(0.022373037 -1.696597e-06 0)
(0.022725337 1.5906736e-06 0)
(0.022395566 -1.4931548e-06 0)
(0.022704216 1.4007733e-06 0)
(0.022415399 -1.3151685e-06 0)
(0.02268561 1.2343969e-06 0)
(0.022432875 -1.1594235e-06 0)
(0.022669207 1.0888232e-06 0)
(0.022448289 -1.0232547e-06 0)
(0.02265473 9.6161128e-07 0)
(0.022461901 -9.0435664e-07 0)
(0.022641935 8.5061819e-07 0)
(0.022473941 -8.0072043e-07 0)
(0.022630606 7.5397207e-07 0)
(0.022484612 -7.1059584e-07 0)
(0.022620553 6.7004254e-07 0)
(0.022494094 -6.3246087e-07 0)
(0.022611606 5.9741349e-07 0)
(0.022502548 -5.6499591e-07 0)
(0.022603613 5.3485916e-07 0)
(0.022510116 -5.0706134e-07 0)
(0.022596441 4.8132348e-07 0)
(0.022516925 -4.5767818e-07 0)
(0.022589968 4.3590212e-07 0)
(0.022523091 -4.1601137e-07 0)
(0.022584085 3.9782694e-07 0)
(0.022528717 -3.8135516e-07 0)
(0.022578693 3.6645236e-07 0)
(0.022533899 -3.5312016e-07 0)
(0.0225737 3.4124266e-07 0)
(0.022538725 -3.3082032e-07 0)
(0.022569021 3.2175778e-07 0)
(0.022543277 -3.1404701e-07 0)
(0.022564578 3.0766262e-07 0)
(0.022547632 -3.023733e-07 0)
(0.022560286 2.9765806e-07 0)
(0.022551885 -3.0878318e-07 0)
(0.022556356 2.8043854e-07 0)
(0.023020525 0.0030469074 0)
(0.025158152 -3.5585698e-05 0)
(0.024134048 7.9762658e-06 0)
(0.024933324 1.1706889e-06 0)
(0.024218589 -2.9969696e-06 0)
(0.024886841 2.3106793e-06 0)
(0.024273712 -2.7123477e-06 0)
(0.024849646 2.4373865e-06 0)
(0.024311096 -2.3433206e-06 0)
(0.024815847 2.1763946e-06 0)
(0.024343278 -2.0502187e-06 0)
(0.02478587 1.9187976e-06 0)
(0.024371489 -1.8019426e-06 0)
(0.024759454 1.6893372e-06 0)
(0.024396297 -1.5858387e-06 0)
(0.024736194 1.4876727e-06 0)
(0.024418138 -1.3967979e-06 0)
(0.024715704 1.3109798e-06 0)
(0.024437383 -1.2313844e-06 0)
(0.02469764 1.1563775e-06 0)
(0.024454357 -1.0867635e-06 0)
(0.024681697 1.0212753e-06 0)
(0.024469347 -9.604858e-07 0)
(0.024667606 9.0339774e-07 0)
(0.024482605 -8.5041766e-07 0)
(0.024655131 8.0075695e-07 0)
(0.024494357 -7.5470004e-07 0)
(0.02464406 7.1162152e-07 0)
(0.024504799 -6.7171638e-07 0)
(0.024634207 6.3448752e-07 0)
(0.024514108 -6.000651e-07 0)
(0.024625405 5.6805319e-07 0)
(0.024522442 -5.3853578e-07 0)
(0.024617507 5.1119694e-07 0)
(0.02452994 -4.8608859e-07 0)
(0.024610378 4.6295824e-07 0)
(0.02453673 -4.4183646e-07 0)
(0.0246039 4.2252114e-07 0)
(0.024542926 -4.0502955e-07 0)
(0.024597961 3.8919961e-07 0)
(0.024548633 -3.7504127e-07 0)
(0.024592463 3.6242377e-07 0)
(0.024553947 -3.5135396e-07 0)
(0.024587311 3.4172385e-07 0)
(0.024558959 -3.3352896e-07 0)
(0.024582418 3.2674081e-07 0)
(0.024563755 -3.210834e-07 0)
(0.024577692 3.1604487e-07 0)
(0.024568435 -3.2878402e-07 0)
(0.024573326 2.9691376e-07 0)
(0.024907884 0.0031820162 0)
(0.027122203 -4.2106515e-05 0)
(0.026050918 8.8296375e-06 0)
(0.026914459 1.1046248e-06 0)
(0.026137338 -3.1349872e-06 0)
(0.026865022 2.3649887e-06 0)
(0.026196586 -2.8555522e-06 0)
(0.026824403 2.5558386e-06 0)
(0.026237222 -2.4621497e-06 0)
(0.02678752 2.2847871e-06 0)
(0.026272293 -2.1531416e-06 0)
(0.026754831 2.0147386e-06 0)
(0.026303047 -1.8922318e-06 0)
(0.026726029 1.7738759e-06 0)
(0.026330094 -1.665269e-06 0)
(0.026700669 1.5621351e-06 0)
(0.026353906 -1.4667532e-06 0)
(0.026678328 1.3766034e-06 0)
(0.026374887 -1.2930536e-06 0)
(0.026658633 1.2142653e-06 0)
(0.026393393 -1.1411894e-06 0)
(0.026641251 1.0724026e-06 0)
(0.026409735 -1.0085878e-06 0)
(0.026625889 9.486263e-07 0)
(0.02642419 -8.9300788e-07 0)
(0.026612287 8.4084917e-07 0)
(0.026437002 -7.9249746e-07 0)
(0.026600217 7.4725327e-07 0)
(0.026448387 -7.0535896e-07 0)
(0.026589474 6.6625944e-07 0)
(0.026458536 -6.3012052e-07 0)
(0.026579878 5.9650079e-07 0)
(0.026467622 -5.6551103e-07 0)
(0.026571267 5.3679956e-07 0)
(0.026475797 -5.1043848e-07 0)
(0.026563495 4.8614711e-07 0)
(0.0264832 -4.6397121e-07 0)
(0.026556431 4.4368643e-07 0)
(0.026489955 -4.2532153e-07 0)
(0.026549957 4.0869674e-07 0)
(0.026496177 -3.938308e-07 0)
(0.026543962 3.8057865e-07 0)
(0.026501971 -3.689539e-07 0)
(0.026538346 3.5883633e-07 0)
(0.026507435 -3.5022532e-07 0)
(0.026533011 3.430893e-07 0)
(0.026512663 -3.3710671e-07 0)
(0.02652786 3.3178908e-07 0)
(0.026517761 -3.460701e-07 0)
(0.026523062 3.1079561e-07 0)
(0.026747811 0.0032934264 0)
(0.029015851 -4.8769694e-05 0)
(0.02790181 9.5769338e-06 0)
(0.028826989 1.0305251e-06 0)
(0.027989816 -3.2566154e-06 0)
(0.028775406 2.394806e-06 0)
(0.028052809 -2.9775016e-06 0)
(0.028731416 2.6542325e-06 0)
(0.028096612 -2.5618787e-06 0)
(0.028691507 2.3753134e-06 0)
(0.028134509 -2.2392806e-06 0)
(0.028656161 2.0949475e-06 0)
(0.028167754 -1.9677593e-06 0)
(0.028625023 1.8445688e-06 0)
(0.028196992 -1.7317058e-06 0)
(0.028597605 1.6244056e-06 0)
(0.028222733 -1.5252636e-06 0)
(0.028573454 1.4314836e-06 0)
(0.028245415 -1.3446333e-06 0)
(0.028552162 1.2626771e-06 0)
(0.02826542 -1.186711e-06 0)
(0.02853337 1.1151614e-06 0)
(0.028283087 -1.0488202e-06 0)
(0.028516762 9.8645251e-07 0)
(0.028298714 -9.2863061e-07 0)
(0.028502058 8.7438043e-07 0)
(0.028312564 -8.2411192e-07 0)
(0.028489009 7.7705476e-07 0)
(0.028324872 -7.3349877e-07 0)
(0.028477395 6.9283346e-07 0)
(0.028335844 -6.5526053e-07 0)
(0.028467021 6.2029517e-07 0)
(0.028345666 -5.880753e-07 0)
(0.028457711 5.582152e-07 0)
(0.028354504 -5.3080743e-07 0)
(0.02844931 5.0554458e-07 0)
(0.028362507 -4.8248792e-07 0)
(0.028441673 4.6139197e-07 0)
(0.02836981 -4.4229734e-07 0)
(0.028434674 4.2500743e-07 0)
(0.028376536 -4.0955007e-07 0)
(0.028428194 3.9576664e-07 0)
(0.028382799 -3.8367767e-07 0)
(0.028422122 3.7315131e-07 0)
(0.028388706 -3.64191e-07 0)
(0.028416355 3.5676208e-07 0)
(0.028394358 -3.5049757e-07 0)
(0.028410787 3.4494488e-07 0)
(0.028399866 -3.6067209e-07 0)
(0.028405563 3.2216117e-07 0)
(0.028540476 0.0033818737 0)
(0.030840123 -5.5474392e-05 0)
(0.029686403 1.0232951e-05 0)
(0.030670968 9.4891548e-07 0)
(0.029776092 -3.3670623e-06 0)
(0.030617942 2.4024171e-06 0)
(0.029842437 -3.0785541e-06 0)
(0.030570634 2.7331188e-06 0)
(0.029889316 -2.6428872e-06 0)
(0.030527762 2.4483845e-06 0)
(0.029929971 -2.309e-06 0)
(0.03048982 2.1597758e-06 0)
(0.029965646 -2.0288499e-06 0)
(0.030456399 1.9017232e-06 0)
(0.029997024 -1.7854359e-06 0)
(0.030426974 1.6747547e-06 0)
(0.03002465 -1.5725818e-06 0)
(0.030401053 1.4758587e-06 0)
(0.030048992 -1.3863463e-06 0)
(0.030378201 1.3018228e-06 0)
(0.030070462 -1.2235248e-06 0)
(0.030358033 1.1497368e-06 0)
(0.030089423 -1.0813569e-06 0)
(0.030340208 1.0170402e-06 0)
(0.030106194 -9.5743975e-07 0)
(0.030324427 9.014959e-07 0)
(0.030121058 -8.4967994e-07 0)
(0.030310422 8.0115493e-07 0)
(0.030134267 -7.5625727e-07 0)
(0.030297958 7.1432446e-07 0)
(0.030146043 -6.7559357e-07 0)
(0.030286824 6.3953913e-07 0)
(0.030156584 -6.0632587e-07 0)
(0.030276832 5.7553624e-07 0)
(0.03016607 -5.4728318e-07 0)
(0.030267815 5.2123425e-07 0)
(0.030174659 -4.9746626e-07 0)
(0.03025962 4.7571399e-07 0)
(0.030182496 -4.5602994e-07 0)
(0.030252108 4.3820183e-07 0)
(0.030189715 -4.2226663e-07 0)
(0.030245152 4.0805304e-07 0)
(0.030196437 -3.955886e-07 0)
(0.030238636 3.847305e-07 0)
(0.030202776 -3.7548638e-07 0)
(0.030232447 3.6781854e-07 0)
(0.030208842 -3.6131561e-07 0)
(0.030226472 3.5557139e-07 0)
(0.030214749 -3.7262964e-07 0)
(0.030220829 3.3109281e-07 0)
(0.030285714 0.0034480824 0)
(0.032595683 -6.2074811e-05 0)
(0.031404692 1.0789508e-05 0)
(0.032446443 8.5542373e-07 0)
(0.031496216 -3.4715807e-06 0)
(0.032392587 2.3899492e-06 0)
(0.031565518 -3.1591341e-06 0)
(0.032342009 2.7930524e-06 0)
(0.031615377 -2.7055994e-06 0)
(0.032296244 2.5044445e-06 0)
(0.031658716 -2.3626977e-06 0)
(0.032255771 2.2096056e-06 0)
(0.031696758 -2.0758581e-06 0)
(0.032220127 1.945674e-06 0)
(0.031730221 -1.8267719e-06 0)
(0.032188745 1.7134767e-06 0)
(0.031759682 -1.6089833e-06 0)
(0.032161101 1.5099879e-06 0)
(0.031785642 -1.4184355e-06 0)
(0.03213673 1.3319311e-06 0)
(0.031808539 -1.2518452e-06 0)
(0.032115221 1.1763308e-06 0)
(0.031828759 -1.1063873e-06 0)
(0.032096211 1.0405679e-06 0)
(0.031846645 -9.7960292e-07 0)
(0.03207938 9.2235366e-07 0)
(0.031862497 -8.6935023e-07 0)
(0.032064444 8.1969417e-07 0)
(0.031876584 -7.7376677e-07 0)
(0.032051152 7.3085755e-07 0)
(0.031889142 -6.9123778e-07 0)
(0.032039277 6.5434455e-07 0)
(0.031900384 -6.2036867e-07 0)
(0.032028622 5.8886328e-07 0)
(0.0319105 -5.5996124e-07 0)
(0.032019005 5.3330713e-07 0)
(0.03191966 -5.0899297e-07 0)
(0.032010264 4.8673546e-07 0)
(0.031928019 -4.6659877e-07 0)
(0.032002253 4.4835629e-07 0)
(0.031935718 -4.3205399e-07 0)
(0.031994835 4.1750893e-07 0)
(0.031942887 -4.0475558e-07 0)
(0.031987885 3.9364101e-07 0)
(0.031949647 -3.8417711e-07 0)
(0.031981285 3.763232e-07 0)
(0.031956116 -3.6962541e-07 0)
(0.031974915 3.6373246e-07 0)
(0.031962412 -3.8199074e-07 0)
(0.03196886 3.3767723e-07 0)
(0.031983055 0.0034927438 0)
(0.034282125 -6.8282949e-05 0)
(0.033057643 1.1086105e-05 0)
(0.034153414 7.3243771e-07 0)
(0.033150213 -3.5751765e-06 0)
(0.034099285 2.3600088e-06 0)
(0.033222096 -3.2194835e-06 0)
(0.034045496 2.8346759e-06 0)
(0.033274835 -2.7504589e-06 0)
(0.033996913 2.5439739e-06 0)
(0.03332078 -2.4008013e-06 0)
(0.033953982 2.2448484e-06 0)
(0.033361122 -2.1091648e-06 0)
(0.033916178 1.9767811e-06 0)
(0.033396609 -1.85605e-06 0)
(0.033882894 1.7408884e-06 0)
(0.033427854 -1.6347644e-06 0)
(0.033853575 1.5341501e-06 0)
(0.033455385 -1.4411621e-06 0)
(0.033827728 1.3532479e-06 0)
(0.033479668 -1.2719027e-06 0)
(0.033804916 1.1951605e-06 0)
(0.033501112 -1.124115e-06 0)
(0.033784755 1.0572276e-06 0)
(0.033520081 -9.9530049e-07 0)
(0.033766905 9.3712376e-07 0)
(0.033536893 -8.8328279e-07 0)
(0.033751065 8.3282353e-07 0)
(0.033551832 -7.861696e-07 0)
(0.033736967 7.4256728e-07 0)
(0.033565151 -7.0232022e-07 0)
(0.033724373 6.6483181e-07 0)
(0.033577074 -6.3031766e-07 0)
(0.033713072 5.9830457e-07 0)
(0.033587803 -5.689444e-07 0)
(0.033702873 5.4186113e-07 0)
(0.033597518 -5.1716138e-07 0)
(0.033693603 4.9454563e-07 0)
(0.033606383 -4.7408932e-07 0)
(0.033685106 4.5555296e-07 0)
(0.033614548 -4.3899122e-07 0)
(0.033677239 4.2421077e-07 0)
(0.033622151 -4.1125271e-07 0)
(0.033669868 3.9995501e-07 0)
(0.033629321 -3.9033372e-07 0)
(0.033662868 3.8234535e-07 0)
(0.033636181 -3.7549619e-07 0)
(0.033656113 3.6949633e-07 0)
(0.033642856 -3.8881098e-07 0)
(0.033649657 3.4200462e-07 0)
(0.033631972 0.0035166431 0)
(0.035896197 -7.3998731e-05 0)
(0.034648366 1.10863e-05 0)
(0.035792278 5.8040367e-07 0)
(0.034738123 -3.6826849e-06 0)
(0.035737987 2.3140233e-06 0)
(0.034812202 -3.2602028e-06 0)
(0.035681053 2.8585319e-06 0)
(0.034867727 -2.7779815e-06 0)
(0.035629736 2.567469e-06 0)
(0.034916194 -2.4237714e-06 0)
(0.035584421 2.2659397e-06 0)
(0.034958764 -2.1291766e-06 0)
(0.035544523 1.9954273e-06 0)
(0.034996214 -1.8736283e-06 0)
(0.035509398 1.7573264e-06 0)
(0.035029186 -1.6502405e-06 0)
(0.035478456 1.548642e-06 0)
(0.03505824 -1.4548042e-06 0)
(0.035451179 1.3660346e-06 0)
(0.035083866 -1.2839428e-06 0)
(0.035427105 1.2064568e-06 0)
(0.035106497 -1.134757e-06 0)
(0.035405828 1.0672233e-06 0)
(0.035126514 -1.0047244e-06 0)
(0.03538699 9.4598712e-07 0)
(0.035144256 -8.916479e-07 0)
(0.035370273 8.4070368e-07 0)
(0.035160022 -7.9361725e-07 0)
(0.035355394 7.4959682e-07 0)
(0.035174078 -7.0897615e-07 0)
(0.035342104 6.71129e-07 0)
(0.035186661 -6.3629412e-07 0)
(0.035330177 6.0397524e-07 0)
(0.035197983 -5.7434203e-07 0)
(0.035319413 5.4700043e-07 0)
(0.035208236 -5.2207081e-07 0)
(0.03530963 4.9923948e-07 0)
(0.035217592 -4.7859252e-07 0)
(0.035300663 4.5987922e-07 0)
(0.035226209 -4.4316248e-07 0)
(0.03529236 4.2823987e-07 0)
(0.035234233 -4.1515881e-07 0)
(0.035284581 4.0374924e-07 0)
(0.0352418 -3.9403124e-07 0)
(0.035277194 3.8595868e-07 0)
(0.035249039 -3.7900137e-07 0)
(0.035270067 3.7293527e-07 0)
(0.035256079 -3.9315284e-07 0)
(0.035263219 3.4416773e-07 0)
(0.035231673 0.003520564 0)
(0.037433796 -7.979113e-05 0)
(0.036180204 1.1256259e-05 0)
(0.037364178 5.3992812e-07 0)
(0.036260104 -3.774482e-06 0)
(0.037308719 2.2584619e-06 0)
(0.036335892 -3.2807163e-06 0)
(0.037248651 2.8654845e-06 0)
(0.036394086 -2.788627e-06 0)
(0.037194682 2.5754788e-06 0)
(0.036444989 -2.4320844e-06 0)
(0.037147062 2.2733416e-06 0)
(0.036489711 -2.1363205e-06 0)
(0.037105141 2.0020162e-06 0)
(0.036529057 -1.8798839e-06 0)
(0.037068235 1.7631456e-06 0)
(0.036563699 -1.6557439e-06 0)
(0.037035726 1.553776e-06 0)
(0.036594224 -1.4596548e-06 0)
(0.037007066 1.370567e-06 0)
(0.036621148 -1.288224e-06 0)
(0.036981771 1.210463e-06 0)
(0.036644925 -1.1385418e-06 0)
(0.036959417 1.0707703e-06 0)
(0.036665956 -1.0080769e-06 0)
(0.036939624 9.4913437e-07 0)
(0.036684597 -8.9462502e-07 0)
(0.036922059 8.4350396e-07 0)
(0.036701162 -7.9626939e-07 0)
(0.036906427 7.5209707e-07 0)
(0.03671593 -7.1134811e-07 0)
(0.036892463 6.733711e-07 0)
(0.036729151 -6.384259e-07 0)
(0.036879932 6.0599667e-07 0)
(0.036741047 -5.7626943e-07 0)
(0.036868622 5.4883485e-07 0)
(0.036751819 -5.2382596e-07 0)
(0.036858343 5.0091713e-07 0)
(0.036761649 -4.8020426e-07 0)
(0.036848921 4.6142719e-07 0)
(0.036770703 -4.4465647e-07 0)
(0.036840197 4.2968197e-07 0)
(0.036779134 -4.1655697e-07 0)
(0.036832024 4.0510459e-07 0)
(0.036787085 -3.9534869e-07 0)
(0.036824262 3.8724077e-07 0)
(0.03679469 -3.8021813e-07 0)
(0.036816775 3.7412516e-07 0)
(0.036802085 -3.9508499e-07 0)
(0.036809548 3.4426118e-07 0)
(0.036780822 0.0035052449 0)
(0.038900581 -8.5262637e-05 0)
(0.037649507 1.1330345e-05 0)
(0.038868727 5.9609798e-07 0)
(0.037716031 -3.8553302e-06 0)
(0.038811408 2.1939157e-06 0)
(0.037793186 -3.2817907e-06 0)
(0.038748256 2.8560778e-06 0)
(0.037853941 -2.782985e-06 0)
(0.038691723 2.5685429e-06 0)
(0.037907189 -2.4262514e-06 0)
(0.038641882 2.2675328e-06 0)
(0.037953985 -2.1310452e-06 0)
(0.03859801 1.9969692e-06 0)
(0.037995158 -1.8752117e-06 0)
(0.038559388 1.7587172e-06 0)
(0.038031409 -1.6516226e-06 0)
(0.038525367 1.5498792e-06 0)
(0.038063352 -1.4560205e-06 0)
(0.038495375 1.3671333e-06 0)
(0.038091527 -1.2850169e-06 0)
(0.038468905 1.2074336e-06 0)
(0.038116409 -1.1357083e-06 0)
(0.038445511 1.0680936e-06 0)
(0.038138418 -1.0055697e-06 0)
(0.038424798 9.4676494e-07 0)
(0.038157925 -8.9240191e-07 0)
(0.038406417 8.414015e-07 0)
(0.038175259 -7.9429303e-07 0)
(0.038390057 7.5022587e-07 0)
(0.038190714 -7.0958525e-07 0)
(0.038375444 6.7169934e-07 0)
(0.038204549 -6.3684676e-07 0)
(0.03836233 6.0449586e-07 0)
(0.038216998 -5.7484724e-07 0)
(0.038350494 5.4747928e-07 0)
(0.038228272 -5.2253639e-07 0)
(0.038339737 4.9968333e-07 0)
(0.038238559 -4.7902489e-07 0)
(0.038329876 4.602933e-07 0)
(0.038248034 -4.4356603e-07 0)
(0.038320747 4.286268e-07 0)
(0.038256857 -4.1553416e-07 0)
(0.038312194 4.0410567e-07 0)
(0.038265177 -3.9436876e-07 0)
(0.038304071 3.8627278e-07 0)
(0.038273136 -3.7922705e-07 0)
(0.038296238 3.7314517e-07 0)
(0.038280871 -3.9468162e-07 0)
(0.038288643 3.4238078e-07 0)
(0.038277847 0.0034714586 0)
(0.040305504 -8.9779903e-05 0)
(0.039049414 1.0864922e-05 0)
(0.040305137 6.6883346e-07 0)
(0.039105735 -3.9335691e-06 0)