/*--------------------------------*- C++ -*----------------------------------*\
| =========                 |                                                 |
| \\      /  F ield         | OpenFOAM: The Open Source CFD Toolbox           |
|  \\    /   O peration     | Version:  2312                                  |
|   \\  /    A nd           | Website:  www.openfoam.com                      |
|    \\/     M anipulation  |                                                 |
\*---------------------------------------------------------------------------*/
FoamFile
{
    version     2.0;
    format      ascii;
    arch        "LSB;label=32;scalar=64";
    class       surfaceScalarField;
    location    "1";
    object      phi;
}
// * * * * * * * * * * * * * * * * * * * * * * * * * * * * * * * * * * * * * //

dimensions      [0 3 -1 0 0 0 0];

oriented        oriented;

internalField   nonuniform List<scalar> 
7870
(
1.3026221e-10
2.8179878e-09
1.3322959e-10
-2.9673786e-12
1.1284753e-10
2.0382068e-11
1.1352477e-10
-6.7723631e-13
1.1443276e-10
-9.0797709e-13
1.1272558e-10
1.7071758e-12
1.1395148e-10
-1.2258945e-12
1.1249041e-10
1.4610637e-12
1.1387892e-10
-1.388515e-12
1.1249343e-10
1.3854924e-12
1.1382152e-10
-1.3280903e-12
1.1252761e-10
1.2939105e-12
1.1377192e-10
-1.2443115e-12
1.1256657e-10
1.2053557e-12
1.1372833e-10
-1.1617647e-12
1.1260563e-10
1.1227025e-12
1.1368829e-10
-1.0826604e-12
1.1264351e-10
1.0447842e-12
1.136506e-10
-1.00709e-12
1.1267991e-10
9.7069761e-13
1.1361474e-10
-9.3482846e-13
1.1271479e-10
8.9994873e-13
1.1358051e-10
-8.6572353e-13
1.1274812e-10
8.3239471e-13
1.1354789e-10
-7.9977367e-13
1.1277984e-10
7.680547e-13
1.1351695e-10
-7.3711691e-13
1.1280983e-10
7.07124e-13
1.1348781e-10
-6.7798797e-13
1.1283795e-10
6.4986462e-13
1.1346063e-10
-6.2268684e-13
1.1286404e-10
5.9659326e-13
1.1343557e-10
-5.7153655e-13
1.1288792e-10
5.4765071e-13
1.1341281e-10
-5.2488606e-13
1.1290945e-10
5.0336033e-13
1.1339249e-10
-4.8304771e-13
1.1292845e-10
4.6403733e-13
1.1337477e-10
-4.4631539e-13
1.129448e-10
4.2997157e-13
1.1335976e-10
-4.1496349e-13
1.1295838e-10
4.0138169e-13
1.1334758e-10
-3.8920084e-13
1.1296907e-10
3.7850305e-13
1.1333826e-10
-3.6918146e-13
1.1297683e-10
3.61427e-13
1.1333259e-10
-3.5576734e-13
1.1298618e-10
3.4641116e-13
1.1334792e-10
-3.617362e-13
3.2895042e-13
3.4932541e-10
5.4169124e-09
3.8046082e-10
-3.4102784e-11
3.3005784e-10
7.0785061e-11
3.2975331e-10
-3.727026e-13
3.3095824e-10
-2.1128896e-12
3.2834494e-10
4.3204654e-12
3.2969863e-10
-2.5795818e-12
3.2757621e-10
3.5834749e-12
3.2955634e-10
-3.3686435e-12
3.2753305e-10
3.4087818e-12
3.2946107e-10
-3.2561076e-12
3.2756932e-10
3.1856564e-12
3.2938204e-10
-3.0570275e-12
3.2762103e-10
2.9663711e-12
3.2931588e-10
-2.8566097e-12
3.2767638e-10
2.7622097e-12
3.2925651e-10
-2.6627851e-12
3.277313e-10
2.5699995e-12
3.2920105e-10
-2.4768397e-12
3.2778455e-10
2.3871979e-12
3.2914834e-10
-2.298616e-12
3.2783582e-10
2.2124717e-12
3.2909804e-10
-2.1279449e-12
3.2788491e-10
2.045521e-12
3.2905005e-10
-1.9649096e-12
3.2793168e-10
1.8864163e-12
3.290045e-10
-1.8099381e-12
3.2797594e-10
1.7356851e-12
3.289616e-10
-1.6636552e-12
3.2801744e-10
1.5940233e-12
3.2892158e-10
-1.5268287e-12
3.2805595e-10
1.4622177e-12
3.2888468e-10
-1.4002711e-12
3.2809119e-10
1.3411388e-12
3.2885117e-10
-1.2848659e-12
3.2812295e-10
1.2315793e-12
3.2882127e-10
-1.1813756e-12
3.28151e-10
1.1343079e-12
3.287952e-10
-1.0905123e-12
3.2817509e-10
1.0500711e-12
3.287731e-10
-1.0129667e-12
3.2819513e-10
9.7934723e-13
3.2875517e-10
-9.4924276e-13
3.282109e-10
9.2276947e-13
3.2874137e-10
-8.9964967e-13
3.2822216e-10
8.8063709e-13
3.2873267e-10
-8.6627508e-13
3.2823737e-10
8.4170861e-13
3.2877033e-10
-8.9469571e-13
7.9570999e-13
5.6498621e-10
7.8001762e-09
6.1470359e-10
-8.3820155e-11
5.4095063e-10
1.4453804e-10
5.406185e-10
-4.0577966e-14
5.4146375e-10
-2.9581271e-12
5.3877142e-10
7.0127952e-12
5.3950405e-10
-3.3122075e-12
5.374976e-10
5.589915e-12
5.3934139e-10
-5.212435e-12
5.3739832e-10
5.3518522e-12
5.3923784e-10
-5.0956323e-12
5.374159e-10
5.0076007e-12
5.3915362e-10
-4.7947487e-12
5.37459e-10
4.6610006e-12
5.3908682e-10
-4.4844204e-12
5.3751009e-10
4.338943e-12
5.3902854e-10
-4.1812309e-12
5.3756245e-10
4.0360969e-12
5.3897462e-10
-3.8890082e-12
5.3761386e-10
3.7479625e-12
5.3892344e-10
-3.6081979e-12
5.3766366e-10
3.4722634e-12
5.3887459e-10
-3.3388823e-12
5.3771147e-10
3.2086428e-12
5.3882791e-10
-3.0813529e-12
5.377571e-10
2.9572234e-12
5.387836e-10
-2.83644e-12
5.378003e-10
2.7189834e-12
5.3874183e-10
-2.6051911e-12
5.3784081e-10
2.495033e-12
5.3870286e-10
-2.388884e-12
5.3787842e-10
2.2866621e-12
5.3866695e-10
-2.1888123e-12
5.379128e-10
2.095295e-12
5.3863434e-10
-2.0064146e-12
5.3794378e-10
1.9221351e-12
5.3860527e-10
-1.8428646e-12
5.3797115e-10
1.7684271e-12
5.3857992e-10
-1.6992862e-12
5.3799463e-10
1.6353577e-12
5.3855842e-10
-1.5767557e-12
5.3801416e-10
1.5235984e-12
5.3854098e-10
-1.476061e-12
5.3802954e-10
1.4342092e-12
5.3852746e-10
-1.3975665e-12
5.3804033e-10
1.367762e-12
5.3851864e-10
-1.3445828e-12
5.3805756e-10
1.3027906e-12
5.385756e-10
-1.4127361e-12
1.225919e-12
7.5462154e-10
9.9938047e-09
8.3855326e-10
-1.6775186e-10
7.4609797e-10
2.3699334e-10
7.457431e-10
3.1429255e-13
7.4636029e-10
-3.5753003e-12
7.4358461e-10
9.7884659e-12
7.4375781e-10
-3.4853967e-12
7.4188192e-10
7.4657894e-12
7.4359654e-10
-6.9270491e-12
7.4174168e-10
7.2067123e-12
7.4348945e-10
-6.8434039e-12
7.4174335e-10
6.7536969e-12
7.4340128e-10
-6.4526749e-12
7.4177848e-10
6.2838128e-12
7.4333428e-10
-6.0402172e-12
7.4182545e-10
5.8477819e-12
7.432773e-10
-5.633077e-12
7.4187522e-10
5.4381824e-12
7.4322504e-10
-5.2388322e-12
7.419247e-10
5.0483155e-12
7.431755e-10
-4.859005e-12
7.4197288e-10
4.6748848e-12
7.4312821e-10
-4.4942075e-12
7.4201928e-10
4.3175687e-12
7.4308296e-10
-4.1450354e-12
7.4206359e-10
3.9765881e-12
7.4303998e-10
-3.8128284e-12
7.4210557e-10
3.6533876e-12
7.4299948e-10
-3.4991051e-12
7.4214494e-10
3.3495741e-12
7.429617e-10
-3.2056553e-12
7.4218146e-10
3.0669022e-12
7.429269e-10
-2.9342593e-12
7.4221483e-10
2.8073689e-12
7.4289532e-10
-2.6869111e-12
7.4224488e-10
2.5725712e-12
7.4286718e-10
-2.4651665e-12
7.4227143e-10
2.364171e-12
7.4284266e-10
-2.270513e-12
7.4229417e-10
2.1838422e-12
7.4282184e-10
-2.1044232e-12
7.423131e-10
2.0323303e-12
7.4280498e-10
-1.9679351e-12
7.42328e-10
1.9111841e-12
7.4279179e-10
-1.8613609e-12
7.4233828e-10
1.8212706e-12
7.427827e-10
-1.7890002e-12
7.4235631e-10
1.7291791e-12
7.4285399e-10
-1.9104111e-12
1.6199094e-12
9.5942954e-10
1.1982625e-08
1.0522996e-09
-2.6062188e-10
9.4508163e-10
3.442113e-10
9.4516896e-10
2.2695936e-13
9.4561916e-10
-4.0254851e-12
9.4276152e-10
1.2646097e-11
9.424563e-10
-3.1801641e-12
9.4072926e-10
9.1928115e-12
9.4232127e-10
-8.5190507e-12
9.4056276e-10
8.9652163e-12
9.422154e-10
-8.496043e-12
9.4055122e-10
8.417878e-12
9.4212454e-10
-8.0259967e-12
9.4057906e-10
7.8293059e-12
9.4205782e-10
-7.5189737e-12
9.4062208e-10
7.2835323e-12
9.4200236e-10
-7.0133582e-12
9.4066925e-10
6.771304e-12
9.4195192e-10
-6.5215042e-12
9.407167e-10
6.2835408e-12
9.4190415e-10
-6.0464574e-12
9.4076317e-10
5.8158736e-12
9.4185856e-10
-5.5896019e-12
9.40808e-10
5.3681315e-12
9.4181489e-10
-5.1519312e-12
9.4085087e-10
4.940608e-12
9.4177343e-10
-4.7354012e-12
9.4089146e-10
4.5353583e-12
9.4173435e-10
-4.3420005e-12
9.4092952e-10
4.1544072e-12
9.4169793e-10
-3.9740706e-12
9.4096481e-10
3.8000145e-12
9.416644e-10
-3.633851e-12
9.40997e-10
3.4747674e-12
9.4163398e-10
-3.3238983e-12
9.4102599e-10
3.1805569e-12
9.4160692e-10
-3.0460953e-12
9.4105158e-10
2.9195078e-12
9.4158336e-10
-2.8022959e-12
9.4107347e-10
2.6937318e-12
9.4156334e-10
-2.5942992e-12
9.4109169e-10
2.5039866e-12
9.4154715e-10
-2.4233988e-12
9.4110602e-10
2.3523112e-12
9.4153441e-10
-2.2897481e-12
9.4111574e-10
2.2399338e-12
9.4152502e-10
-2.1982792e-12
9.4113383e-10
2.1203723e-12
9.4160665e-10
-2.3832396e-12
1.9753295e-12
1.1267607e-09
1.3804114e-08
1.2540334e-09
-3.8789455e-10
1.1384432e-09
4.5980153e-10
1.1389586e-09
-2.88405e-13
1.1391956e-09
-4.2625099e-12
1.1362986e-09
1.5543061e-11
1.1355985e-09
-2.480063e-12
1.1340408e-09
1.0750505e-11
1.1355162e-09
-9.9944204e-12
1.1338617e-09
1.0619735e-11
1.1354161e-09
-1.0050467e-11
1.1338395e-09
9.9945021e-12
1.1353237e-09
-9.5102249e-12
1.1338607e-09
9.2923725e-12
1.1352577e-09
-8.9159992e-12
1.1338999e-09
8.641352e-12
1.1352039e-09
-8.3174302e-12
1.1339444e-09
8.0308372e-12
1.1351555e-09
-7.7325546e-12
1.1339898e-09
7.4492502e-12
1.1351096e-09
-7.1663051e-12
1.1340344e-09
6.8911129e-12
1.1350659e-09
-6.6210944e-12
1.1340775e-09
6.3564911e-12
1.1350239e-09
-6.0983661e-12
1.1341187e-09
5.845806e-12
1.1349841e-09
-5.6007867e-12
1.1341578e-09
5.3616838e-12
1.1349466e-09
-5.1308514e-12
1.1341944e-09
4.9066766e-12
1.1349117e-09
-4.6914241e-12
1.1342283e-09
4.4834681e-12
1.1348796e-09
-4.2852063e-12
1.1342591e-09
4.0952467e-12
1.1348505e-09
-3.9152952e-12
1.1342869e-09
3.7441812e-12
1.1348247e-09
-3.583868e-12
1.1343114e-09
3.4327632e-12
1.1348022e-09
-3.2930779e-12
1.1343323e-09
3.1636102e-12
1.1347831e-09
-3.0450627e-12
1.1343497e-09
2.9373458e-12
1.1347676e-09
-2.8413388e-12
1.1343634e-09
2.7565686e-12
1.1347554e-09
-2.6817946e-12
1.1343725e-09
2.6228497e-12
1.1347458e-09
-2.5715901e-12
1.1343901e-09
2.4761376e-12
1.1348343e-09
-2.827485e-12
2.2904563e-12
1.3128033e-09
1.5439561e-08
1.4479644e-09
-5.2305572e-10
1.3258955e-09
5.8187051e-10
1.327039e-09
-1.4319024e-12
1.3270429e-09
-4.2664072e-12
1.3241958e-09
1.8390139e-11
1.3231833e-09
-1.4675924e-12
1.3218179e-09
1.2115962e-11
1.3231818e-09
-1.1358345e-11
1.3216384e-09
1.2163135e-11
1.3230919e-09
-1.1503941e-11
1.321608e-09
1.1478413e-11
1.3229991e-09
-1.0901316e-11
1.3216231e-09
1.0668306e-11
1.3229341e-09
-1.0226995e-11
1.3216587e-09
9.9167927e-12
1.3228823e-09
-9.5410467e-12
1.3217006e-09
9.2125665e-12
1.3228359e-09
-8.8678979e-12
1.3217437e-09
8.541472e-12
1.3227921e-09
-8.2147102e-12
1.3217863e-09
7.8968993e-12
1.3227504e-09
-7.5851258e-12
1.3218276e-09
7.2792635e-12
1.3227103e-09
-6.9810915e-12
1.3218671e-09
6.6890554e-12
1.3226724e-09
-6.4060809e-12
1.3219044e-09
6.1296354e-12
1.3226366e-09
-5.863057e-12
1.3219393e-09
5.6039439e-12
1.3226033e-09
-5.3554421e-12
1.3219717e-09
5.1151363e-12
1.3225728e-09
-4.886354e-12
1.3220011e-09
4.6670115e-12
1.3225452e-09
-4.4594233e-12
1.3220275e-09
4.2618787e-12
1.3225207e-09
-4.0770549e-12
1.3220508e-09
3.902668e-12
1.3224994e-09
-3.7417136e-12
1.3220706e-09
3.5924194e-12
1.3224813e-09
-3.4557717e-12
1.3220871e-09
3.3315755e-12
1.3224667e-09
-3.2209948e-12
1.3221e-09
3.1232727e-12
1.3224551e-09
-3.0369086e-12
1.3221085e-09
2.9694791e-12
1.3224454e-09
-2.9084661e-12
1.3221251e-09
2.7964292e-12
1.3225377e-09
-3.2401402e-12
2.5647257e-12
1.4728217e-09
1.6914989e-08
1.6290383e-09
-6.792723e-10
1.5078566e-09
7.0305225e-10
1.5094189e-09
-2.9942143e-12
1.5090708e-09
-3.9182827e-12
1.5064574e-09
2.1003588e-11
1.5052086e-09
-2.1881368e-13
1.504061e-09
1.3263501e-11
1.5053183e-09
-1.2615613e-11
1.5038928e-09
1.3588637e-11
1.5052429e-09
-1.2854066e-11
1.5038565e-09
1.2864816e-11
1.5051508e-09
-1.2195543e-11
1.5038663e-09
1.1952802e-11
1.5050873e-09
-1.1448026e-11
1.5038983e-09
1.1105789e-11
1.5050376e-09
-1.0680323e-11
1.5039375e-09
1.0312642e-11
1.5049935e-09
-9.9238448e-12
1.5039783e-09
9.5566059e-12
1.5049519e-09
-9.1882191e-12
1.5040188e-09
8.8299243e-12
1.5049122e-09
-8.4785399e-12
1.5040581e-09
8.1334239e-12
1.5048742e-09
-7.79726e-12
1.5040956e-09
7.4677256e-12
1.5048382e-09
-7.1487368e-12
1.504131e-09
6.8368255e-12
1.5048044e-09
-6.5364243e-12
1.5041642e-09
6.2441853e-12
1.5047729e-09
-5.9642417e-12
1.5041948e-09
5.6933103e-12
1.5047441e-09
-5.435725e-12
1.5042225e-09
5.1886125e-12
1.5047181e-09
-4.9549936e-12
1.5042474e-09
4.7325287e-12
1.504695e-09
-4.5246473e-12
1.5042694e-09
4.3282979e-12
1.5046751e-09
-4.1473797e-12
1.504288e-09
3.9794709e-12
1.5046581e-09
-3.8258133e-12
1.5043035e-09
3.6861448e-12
1.5046444e-09
-3.5619355e-12
1.5043156e-09
3.4520726e-12
1.5046335e-09
-3.3548118e-12
1.5043234e-09
3.279554e-12
1.5046238e-09
-3.2087831e-12
1.5043387e-09
3.0814585e-12
1.5047174e-09
-3.6188081e-12
2.7984881e-12
1.6384298e-09
1.822481e-08
1.8021363e-09
-8.4297877e-10
1.683706e-09
8.214826e-10
1.6859371e-09
-5.2253311e-12
1.6852809e-09
-3.262077e-12
1.683113e-09
2.3171503e-11
1.6816862e-09
1.2079092e-12
1.6807753e-09
1.4174432e-11
1.6819275e-09
-1.3767785e-11
1.6806253e-09
1.4890839e-11
1.6818696e-09
-1.4098373e-11
1.680585e-09
1.4149368e-11
1.681779e-09
-1.3389533e-11
1.68059e-09
1.3141854e-11
1.6817174e-09
-1.2575486e-11
1.6806186e-09
1.22046e-11
1.68167e-09
-1.1731727e-11
1.6806551e-09
1.1327582e-11
1.6816283e-09
-1.0897046e-11
1.6806935e-09
1.0491436e-11
1.681589e-09
-1.0083757e-11
1.6807317e-09
9.6872588e-12
1.6815517e-09
-9.2985574e-12
1.6807688e-09
8.9163837e-12
1.6815159e-09
-8.5444152e-12
1.6808042e-09
8.179472e-12
1.6814821e-09
-7.8266552e-12
1.6808376e-09
7.4813316e-12
1.6814503e-09
-7.149144e-12
1.6808687e-09
6.8257484e-12
1.6814208e-09
-6.5163316e-12
1.6808975e-09
6.2166331e-12
1.6813938e-09
-5.9321101e-12
1.6809234e-09
5.6590134e-12
1.6813695e-09
-5.4010659e-12
1.6809468e-09
5.1552817e-12
1.681348e-09
-4.9259208e-12
1.6809672e-09
4.7090866e-12
1.6813295e-09
-4.5096205e-12
1.6809846e-09
4.3243724e-12
1.6813137e-09
-4.1549026e-12
1.6809989e-09
4.0008667e-12
1.681301e-09
-3.8640255e-12
1.6810102e-09
3.7428954e-12
1.6812909e-09
-3.6355091e-12
1.6810173e-09
3.5531237e-12
1.6812812e-09
-3.4726935e-12
1.6810311e-09
3.3315772e-12
1.681374e-09
-3.9616792e-12
2.9927121e-12
1.78907e-09
1.938399e-08
1.9621388e-09
-1.0160476e-09
1.8538195e-09
9.2980194e-10
1.8562051e-09
-7.6109359e-12
1.8554712e-09
-2.5280965e-12
1.8541392e-09
2.4503503e-11
1.8526108e-09
2.7362829e-12
1.8519604e-09
1.4824803e-11
1.8530099e-09
-1.4817273e-11
1.8518361e-09
1.6064615e-11
1.8529723e-09
-1.5234542e-11
1.8517935e-09
1.5328118e-11
1.8528841e-09
-1.4480089e-11
1.8517941e-09
1.4231873e-11
1.8528247e-09
-1.360608e-11
1.8518194e-09
1.3209865e-11
1.8527798e-09
-1.2692064e-11
1.8518531e-09
1.2254254e-11
1.8527406e-09
-1.1784537e-11
1.8518889e-09
1.1343103e-11
1.8527038e-09
-1.0898619e-11
1.8519247e-09
1.0466356e-11
1.8526689e-09
-1.0042788e-11
1.8519594e-09
9.6258838e-12
1.8526355e-09
-9.2204836e-12
1.8519925e-09
8.8224533e-12
1.8526039e-09
-8.4380531e-12
1.8520237e-09
8.0615255e-12
1.8525743e-09
-7.6997871e-12
1.8520527e-09
7.3473677e-12
1.852547e-09
-7.0105743e-12
1.8520795e-09
6.6841367e-12
1.852522e-09
-6.3746656e-12
1.8521035e-09
6.0774698e-12
1.8524995e-09
-5.7970503e-12
1.8521251e-09
5.5297111e-12
1.8524797e-09
-5.2805423e-12
1.852144e-09
5.044759e-12
1.8524627e-09
-4.8282434e-12
1.85216e-09
4.6270589e-12
1.8524481e-09
-4.4430295e-12
1.8521732e-09
4.2757951e-12
1.8524365e-09
-4.1274081e-12
1.8521835e-09
3.9959528e-12
1.8524272e-09
-3.8792665e-12
1.8521899e-09
3.7904483e-12
1.8524179e-09
-3.7006292e-12
1.8522021e-09
3.5473812e-12
1.8525078e-09
-4.267428e-12
3.1488641e-12
1.935989e-09
2.0396251e-08
2.1152463e-09
-1.1953049e-09
2.0178942e-09
1.0271541e-09
2.0205552e-09
-1.0271935e-11
2.0197968e-09
-1.769707e-12
2.0195781e-09
2.4722191e-11
2.0179947e-09
4.3196995e-12
2.0176197e-09
1.5199754e-11
2.0185661e-09
-1.5763675e-11
2.0175251e-09
1.7105688e-11
2.018551e-09
-1.6260426e-11
2.0174817e-09
1.6397388e-11
2.0184661e-09
-1.5464467e-11
2.0174784e-09
1.5219499e-11
2.0184092e-09
-1.4536876e-11
2.0175006e-09
1.411853e-11
2.018367e-09
-1.3558511e-11
2.0175314e-09
1.3089903e-11
2.0183306e-09
-1.2583705e-11
2.0175645e-09
1.2109143e-11
2.0182964e-09
-1.163049e-11
2.0175977e-09
1.1165053e-11
2.0182641e-09
-1.0709222e-11
2.0176299e-09
1.0260114e-11
2.0182332e-09
-9.8237795e-12
2.0176606e-09
9.3950803e-12
2.0182041e-09
-8.9816029e-12
2.0176894e-09
8.5762517e-12
2.0181769e-09
-8.1872909e-12
2.0177161e-09
7.8081263e-12
2.0181518e-09
-7.4462043e-12
2.0177407e-09
7.0951719e-12
2.0181289e-09
-6.7628778e-12
2.0177628e-09
6.4436323e-12
2.0181084e-09
-6.1426683e-12
2.0177825e-09
5.8556035e-12
2.0180903e-09
-5.5884091e-12
2.0177997e-09
5.3353643e-12
2.0180749e-09
-5.1033923e-12
2.0178142e-09
4.8877116e-12
2.0180617e-09
-4.6904718e-12
2.0178262e-09
4.511292e-12
2.0180512e-09
-4.3524752e-12
2.0178355e-09
4.2116835e-12
2.0180428e-09
-4.086585e-12
2.0178412e-09
3.9920682e-12
2.0180338e-09
-3.893232e-12
2.0178516e-09
3.7295665e-12
2.0181194e-09
-4.5352218e-12
3.2687617e-12
2.0814248e-09
2.1263076e-08
2.2563978e-09
-1.3702778e-09
2.1757558e-09
1.107796e-09
2.1796171e-09
-1.4133166e-11
2.1785291e-09
-6.8172594e-13
2.1794947e-09
2.3756565e-11
2.1778622e-09
5.9522173e-12
2.1777617e-09
1.5300231e-11
2.1785997e-09
-1.6601674e-11
2.1776935e-09
1.8011931e-11
2.1786065e-09
-1.717342e-11
2.1776497e-09
1.7354121e-11
2.1785253e-09
-1.6340008e-11
2.1776429e-09
1.6101863e-11
2.1784713e-09
-1.5365253e-11
2.1776619e-09
1.4927963e-11
2.178432e-09
-1.4328596e-11
2.1776897e-09
1.3832148e-11
2.1783984e-09
-1.3292343e-11
2.17772e-09
1.2787464e-11
2.178367e-09
-1.2277435e-11
2.1777505e-09
1.1781581e-11
2.1783375e-09
-1.1296245e-11
2.17778e-09
1.0817586e-11
2.1783092e-09
-1.0353001e-11
2.177808e-09
9.8962909e-12
2.1782827e-09
-9.4562694e-12
2.1778343e-09
9.0246184e-12
2.178258e-09
-8.6109601e-12
2.1778586e-09
8.2074791e-12
2.1782352e-09
-7.8227857e-12
2.1778809e-09
7.4494606e-12
2.1782146e-09
-7.0965719e-12
2.1779008e-09
6.7573995e-12
2.1781961e-09
-6.4379624e-12
2.1779186e-09
6.1331537e-12
2.1781799e-09
-5.8497873e-12
2.1779341e-09
5.5811966e-12
2.1781661e-09
-5.3354221e-12
2.177947e-09
5.1068023e-12
2.1781543e-09
-4.8977335e-12
2.1779577e-09
4.7079047e-12
2.1781451e-09
-4.5398523e-12
2.177966e-09
4.3907673e-12
2.1781376e-09
-4.258179e-12
2.177971e-09
4.1586777e-12
2.1781291e-09
-4.0513691e-12
2.1779796e-09
3.8790574e-12
2.178209e-09
-4.7646122e-12
3.3545232e-12
2.2128569e-09
2.1998469e-08
2.3920928e-09
-1.5495137e-09
2.3279252e-09
1.1719636e-09
2.3329721e-09
-1.9180067e-11
2.3316702e-09
6.2024087e-13
2.3338716e-09
2.1555141e-11
2.3322081e-09
7.6156766e-12
2.3323852e-09
1.5123187e-11
2.33311e-09
-1.7326504e-11
2.3323409e-09
1.8781071e-11
2.3331388e-09
-1.7971322e-11
2.3322973e-09
1.8195548e-11
2.3330619e-09
-1.710452e-11
2.3322874e-09
1.6876366e-11
2.3330111e-09
-1.6088969e-11
2.3323032e-09
1.5635871e-11
2.3329748e-09
-1.5000249e-11
2.332328e-09
1.447901e-11
2.3329443e-09
-1.390861e-11
2.3323553e-09
1.337639e-11
2.3329158e-09
-1.2837927e-11
2.3323828e-09
1.2314565e-11
2.3328892e-09
-1.180263e-11
2.3324095e-09
1.1297275e-11
2.3328638e-09
-1.0807232e-11
2.3324348e-09
1.0325243e-11
2.33284e-09
-9.86148e-12
2.3324584e-09
9.4062115e-12
2.3328179e-09
-8.9704469e-12
2.3324802e-09
8.5452057e-12
2.3327976e-09
-8.1402334e-12
2.3325001e-09
7.7470094e-12
2.3327794e-09
-7.3758714e-12
2.3325177e-09
7.0190447e-12
2.332763e-09
-6.6832473e-12
2.3325334e-09
6.3627113e-12
2.3327488e-09
-6.0651192e-12
2.3325471e-09
5.782839e-12
2.3327367e-09
-5.5249912e-12
2.3325585e-09
5.2849986e-12
2.3327263e-09
-5.0655657e-12
2.3325678e-09
4.8664522e-12
2.3327183e-09
-4.690365e-12
2.332575e-09
4.5340592e-12
2.3327118e-09
-4.3949499e-12
2.3325792e-09
4.2912132e-12
2.3327039e-09
-4.1760565e-12
2.3325861e-09
3.9968315e-12
2.3327771e-09
-4.9555598e-12
3.4084406e-12
2.3564815e-09
2.2590237e-08
2.5192453e-09
-1.7122776e-09
2.4745097e-09
1.2166993e-09
2.4808818e-09
-2.5552179e-11
2.4793784e-09
2.1236787e-12
2.4827376e-09
1.8195962e-11
2.4810395e-09
9.3137709e-12
2.4814915e-09
1.4671112e-11
2.4820968e-09
-1.7931748e-11
2.4814665e-09
1.9411312e-11
2.4821476e-09
-1.8652416e-11
2.4814241e-09
1.8919053e-11
2.4820758e-09
-1.7756218e-11
2.4814114e-09
1.7540783e-11
2.4820287e-09
-1.6706222e-11
2.4814242e-09
1.6240368e-11
2.4819957e-09
-1.55718e-11
2.4814459e-09
1.5028896e-11
2.4819684e-09
-1.4431107e-11
2.4814701e-09
1.3874629e-11
2.481943e-09
-1.3310833e-11
2.4814946e-09
1.2763033e-11
2.4819195e-09
-1.2227553e-11
2.4815183e-09
1.1698463e-11
2.481897e-09
-1.1185937e-11
2.4815406e-09
1.0681637e-11
2.481876e-09
-1.0196925e-11
2.4815614e-09
9.7208454e-12
2.4818567e-09
-9.2657517e-12
2.4815805e-09
8.8214358e-12
2.481839e-09
-8.3987618e-12
2.4815978e-09
7.9881717e-12
2.4818232e-09
-7.6012073e-12
2.4816132e-09
7.2290407e-12
2.481809e-09
-6.8791242e-12
2.4816267e-09
6.5450146e-12
2.4817968e-09
-6.235188e-12
2.4816386e-09
5.9410701e-12
2.4817865e-09
-5.6729152e-12
2.4816483e-09
5.4232191e-12
2.4817776e-09
-5.1948948e-12
2.4816562e-09
4.9878823e-12
2.4817708e-09
-4.8050261e-12
2.4816623e-09
4.642611e-12
2.4817653e-09
-4.497964e-12
2.4816658e-09
4.3907078e-12
2.4817582e-09
-4.2684853e-12
2.481671e-09
4.0840723e-12
2.4818237e-09
-5.1083176e-12
3.4329568e-12
2.4745498e-09
2.3063938e-08
2.6421449e-09
-1.8798727e-09
2.6155632e-09
1.2432811e-09
2.6230395e-09
-3.3028492e-11
2.6217476e-09
3.4155943e-12
2.626109e-09
1.3834541e-11
2.6243725e-09
1.1050307e-11
2.6250917e-09
1.3951872e-11
2.6255662e-09
-1.8406311e-11
2.6250738e-09
1.9903759e-11
2.6256351e-09
-1.9213758e-11
2.6250309e-09
1.9523319e-11
2.625568e-09
-1.8293304e-11
2.6250153e-09
1.809349e-11
2.6255245e-09
-1.7215462e-11
2.6250249e-09
1.6740026e-11
2.625495e-09
-1.6041969e-11
2.6250433e-09
1.5480664e-11
2.625471e-09
-1.4858803e-11
2.6250643e-09
1.428133e-11
2.6254489e-09
-1.3695434e-11
2.6250855e-09
1.3126414e-11
2.6254285e-09
-1.2570573e-11
2.6251061e-09
1.2020907e-11
2.6254091e-09
-1.1488957e-11
2.6251254e-09
1.0965357e-11
2.6253912e-09
-1.0462757e-11
2.6251432e-09
9.9688096e-12
2.6253747e-09
-9.4971972e-12
2.6251595e-09
9.0365943e-12
2.6253596e-09
-8.598908e-12
2.6251743e-09
8.1735461e-12
2.6253463e-09
-7.773271e-12
2.6251872e-09
7.3882092e-12
2.6253345e-09
-7.0264231e-12
2.6251986e-09
6.6808946e-12
2.6253243e-09
-6.3608965e-12
2.6252084e-09
6.0569192e-12
2.6253158e-09
-5.7802767e-12
2.6252165e-09
5.522526e-12
2.6253084e-09
-5.2868518e-12
2.6252229e-09
5.0733759e-12
2.6253029e-09
-4.8849999e-12
2.6252279e-09
4.7175983e-12
2.6252984e-09
-4.5684274e-12
2.6252307e-09
4.458399e-12
2.6252921e-09
-4.329939e-12
2.6252342e-09
4.1419673e-12
2.6253494e-09
-5.2234694e-12
3.4305531e-12
2.6159002e-09
2.3396287e-08
2.760277e-09
-2.0242495e-09
2.7514801e-09
1.2520781e-09
2.7589008e-09
-4.0449244e-11
2.7586748e-09
3.6416031e-12
2.7639311e-09
8.5782909e-12
2.7621865e-09
1.2794919e-11
2.763177e-09
1.2961363e-11
2.7635139e-09
-1.8743207e-11
2.7631598e-09
2.025786e-11
2.7635999e-09
-1.9653948e-11
2.7631165e-09
2.000673e-11
2.7635379e-09
-1.8714694e-11
2.7630983e-09
1.853313e-11
2.7634986e-09
-1.7615713e-11
2.7631048e-09
1.7133804e-11
2.7634728e-09
-1.6409937e-11
2.7631199e-09
1.5833561e-11
2.7634522e-09
-1.5191144e-11
2.7631375e-09
1.4596025e-11
2.7634335e-09
-1.3991418e-11
2.7631554e-09
1.3404538e-11
2.7634165e-09
-1.2831653e-11
2.7631727e-09
1.2264652e-11
2.7634003e-09
-1.1716503e-11
2.7631888e-09
1.1176839e-11
2.7633854e-09
-1.0659356e-11
2.7632036e-09
1.015058e-11
2.7633718e-09
-9.6654282e-12
2.763217e-09
9.1914272e-12
2.7633595e-09
-8.7414729e-12
2.763229e-09
8.3040479e-12
2.7633488e-09
-7.8930248e-12
2.7632395e-09
7.4975192e-12
2.7633393e-09
-7.1262224e-12
2.7632486e-09
6.7715473e-12
2.7633312e-09
-6.4434573e-12
2.7632565e-09
6.1315591e-12
2.7633245e-09
-5.8482604e-12
2.7632628e-09
5.584192e-12
2.7633187e-09
-5.3426918e-12
2.7632679e-09
5.1241866e-12
2.7633145e-09
-4.9315917e-12
2.7632717e-09
4.7603493e-12
2.7633109e-09
-4.6076643e-12
2.7632738e-09
4.4955655e-12
2.7633057e-09
-4.3618308e-12
2.7632757e-09
4.1718858e-12
2.7633541e-09
-5.3018084e-12
3.4037517e-12
2.726326e-09
2.3618211e-08
2.8752248e-09
-2.1731483e-09
2.8825731e-09
1.2447298e-09
2.8886964e-09
-4.6572554e-11
2.8902443e-09
2.0937604e-12
2.8962007e-09
2.6218467e-12
2.8944809e-09
1.4514679e-11
2.8957482e-09
1.1694125e-11
2.89594e-09
-1.8935069e-11
2.8957245e-09
2.0473379e-11
2.8960426e-09
-1.9971994e-11
2.8956811e-09
2.0368196e-11
2.8959862e-09
-1.9019782e-11
2.8956605e-09
1.8858777e-11
2.8959512e-09
-1.7906379e-11
2.8956639e-09
1.7421109e-11
2.8959293e-09
-1.667531e-11
2.8956756e-09
1.6087304e-11
2.8959124e-09
-1.5427952e-11
2.8956897e-09
1.4818705e-11
2.8958972e-09
-1.4198889e-11
2.8957041e-09
1.3597635e-11
2.8958836e-09
-1.3011133e-11
2.895718e-09
1.2430214e-11
2.8958706e-09
-1.1869145e-11
2.8957308e-09
1.1316656e-11
2.895859e-09
-1.0787555e-11
2.8957425e-09
1.0267098e-11
2.8958484e-09
-9.7713792e-12
2.8957529e-09
9.2869394e-12
2.895839e-09
-8.8275463e-12
2.8957622e-09
8.3807929e-12
2.8958309e-09
-7.9616498e-12
2.8957701e-09
7.5582578e-12
2.8958237e-09
-7.1797819e-12
2.895777e-09
6.8181982e-12
2.8958177e-09
-6.4841444e-12
2.8957829e-09
6.1663738e-12
2.8958129e-09
-5.8782807e-12
2.8957875e-09
5.6095809e-12
2.8958086e-09
-5.3638324e-12
2.8957911e-09
5.1417636e-12
2.8958057e-09
-4.9462106e-12
2.8957938e-09
4.7722672e-12
2.8958032e-09
-4.6170931e-12
2.8957951e-09
4.5036535e-12
2.8957989e-09
-4.3656146e-12
2.8957956e-09
4.1751534e-12
2.8958382e-09
-5.3443881e-12
3.3550154e-12
2.862206e-09
2.3704255e-08
2.9862745e-09
-2.2972168e-09
3.008629e-09
1.2223754e-09
3.013683e-09
-5.1626651e-11
3.0167698e-09
-9.9299507e-13
3.0230149e-09
-3.6231986e-12
3.0212924e-09
1.6237117e-11
3.0228193e-09
1.0167237e-11
3.0228501e-09
-1.8965864e-11
3.0227696e-09
2.0553852e-11
3.0229638e-09
-2.016617e-11
3.0227245e-09
2.0607464e-11
3.0229129e-09
-1.9208184e-11
3.0227016e-09
1.9070089e-11
3.0228826e-09
-1.8087338e-11
3.0227019e-09
1.7601837e-11
3.0228647e-09
-1.6838147e-11
3.02271e-09
1.6242028e-11
3.0228516e-09
-1.5569534e-11
3.0227205e-09
1.4949745e-11
3.02284e-09
-1.4318354e-11
3.0227313e-09
1.3706331e-11
3.0228299e-09
-1.3109742e-11
3.0227418e-09
1.251837e-11
3.0228204e-09
-1.1947801e-11
3.0227511e-09
1.138593e-11
3.022812e-09
-1.0848369e-11
3.0227596e-09
1.0319441e-11
3.0228045e-09
-9.8162736e-12
3.022767e-09
9.3244223e-12
3.0227979e-09
-8.8584396e-12
3.0227735e-09
8.4051783e-12
3.0227924e-09
-7.9805565e-12
3.0227789e-09
7.571805e-12
3.0227877e-09
-7.1885693e-12
3.0227834e-09
6.8224106e-12
3.0227838e-09
-6.4845082e-12
3.0227873e-09
6.1628389e-12
3.0227808e-09
-5.8717995e-12
3.0227902e-09
5.600227e-12
3.0227781e-09
-5.3517649e-12
3.0227923e-09
5.1275744e-12
3.0227765e-09
-4.9303632e-12
3.0227939e-09
4.7548656e-12
3.022775e-09
-4.5982067e-12
3.0227945e-09
4.484099e-12
3.0227718e-09
-4.3428346e-12
3.0227937e-09
4.1532537e-12
3.0228017e-09
-5.3523971e-12
3.2867703e-12
2.9747518e-09
2.3677754e-08
3.0929562e-09
-2.4154213e-09
3.1292451e-09
1.1860865e-09
3.1342974e-09
-5.6678941e-11
3.1382786e-09
-4.9742055e-12
3.1443549e-09
-9.6995546e-12
3.1426146e-09
1.797744e-11
3.1443844e-09
8.3974531e-12
3.1442413e-09
-1.8822738e-11
3.1442932e-09
2.0501923e-11
3.144363e-09
-2.0235945e-11
3.144246e-09
2.0724414e-11
3.1443182e-09
-1.9280344e-11
3.1442213e-09
1.9166993e-11
3.144293e-09
-1.8158996e-11
3.1442185e-09
1.7676276e-11
3.1442794e-09
-1.689899e-11
3.1442231e-09
1.6298321e-11
3.1442701e-09
-1.5616581e-11
3.1442299e-09
1.4989972e-11
3.1442623e-09
-1.4350731e-11
3.144237e-09
1.3731635e-11
3.1442558e-09
-1.3128569e-11
3.1442438e-09
1.2530357e-11
3.1442497e-09
-1.1953725e-11
3.1442498e-09
1.1385869e-11
3.1442447e-09
-1.0843252e-11
3.144255e-09
1.0309132e-11
3.1442403e-09
-9.8015849e-12
3.1442593e-09
9.3053838e-12
3.1442366e-09
-8.8357145e-12
3.144263e-09
8.3787535e-12
3.1442338e-09
-7.9513291e-12
3.1442658e-09
7.5398245e-12
3.1442314e-09
-7.1541849e-12
3.1442681e-09
6.7857141e-12
3.1442297e-09
-6.4461034e-12
3.1442699e-09
6.1226012e-12
3.1442286e-09
-5.8304712e-12
3.1442711e-09
5.5577051e-12
3.1442274e-09
-5.308103e-12
3.1442718e-09
5.0832464e-12
3.144227e-09
-4.8856151e-12
3.1442722e-09
4.7096878e-12
3.1442265e-09
-4.5525507e-12
3.1442721e-09
4.4384728e-12
3.1442243e-09
-4.29503e-12
3.14427e-09
4.1075824e-12
3.1442448e-09
-5.3272217e-12
3.2013157e-12
3.1074573e-09
2.3518546e-08
3.1962815e-09
-2.5042455e-09
3.244806e-09
1.1375621e-09
3.2501723e-09
-6.2045263e-11
3.2545345e-09
-9.3363544e-12
3.2601675e-09
-1.53326e-11
3.258438e-09
1.970689e-11
3.2604357e-09
6.3997528e-12
3.2601122e-09
-1.8499189e-11
3.2602947e-09
2.0319372e-11
3.2602405e-09
-2.0181656e-11
3.2602455e-09
2.0719328e-11
3.2602023e-09
-1.9237074e-11
3.2602192e-09
1.9150043e-11
3.2601825e-09
-1.8122229e-11
3.2602135e-09
1.7645253e-11
3.2601733e-09
-1.6858821e-11
3.2602145e-09
1.6257208e-11
3.2601681e-09
-1.5570268e-11
3.2602175e-09
1.494059e-11
3.2601641e-09
-1.4297324e-11
3.2602208e-09
1.3674936e-11
3.2601613e-09
-1.306907e-11
3.260224e-09
1.2467637e-11
3.2601588e-09
-1.1888487e-11
3.2602264e-09
1.1318219e-11
3.260157e-09
-1.0773785e-11
3.2602283e-09
1.0237779e-11
3.2601558e-09
-9.729037e-12
3.2602296e-09
9.2315781e-12
3.260155e-09
-8.7611087e-12
3.2602304e-09
8.3033099e-12
3.2601548e-09
-7.8757377e-12
3.2602306e-09
7.4640179e-12
3.2601548e-09
-7.0783952e-12
3.2602306e-09
6.7099485e-12
3.2601552e-09
-6.3707273e-12
3.2602305e-09
6.0473491e-12
3.2601559e-09
-5.7559461e-12
3.2602299e-09
5.4837226e-12
3.2601563e-09
-5.2344873e-12
3.2602292e-09
5.0103755e-12
3.2601571e-09
-4.8135894e-12
3.2602285e-09
4.63835e-12
3.2601576e-09
-4.4817056e-12
3.2602278e-09
4.3682885e-12
3.2601566e-09
-4.223797e-12
3.2602245e-09
4.0396725e-12
3.2601676e-09
-5.270319e-12
3.1008632e-12
3.2198178e-09
2.3246979e-08
3.2958562e-09
-2.5802839e-09
3.3552865e-09
1.0781318e-09
3.3609062e-09
-6.766499e-11
3.3654404e-09
-1.3870473e-11
3.3704385e-09
-2.0330716e-11
3.368778e-09
2.136736e-11
3.3709693e-09
4.2084978e-12
3.3704631e-09
-1.7993081e-11
3.3707743e-09
2.0008185e-11
3.3705967e-09
-2.000399e-11
3.3707228e-09
2.0593164e-11
3.3705655e-09
-1.9079762e-11
3.3706953e-09
1.902024e-11
3.3705515e-09
-1.7978374e-11
3.3706867e-09
1.7510032e-11
3.370547e-09
-1.671909e-11
3.370684e-09
1.6120176e-11
3.3705459e-09
-1.5432137e-11
3.3706832e-09
1.4803246e-11
3.3705458e-09
-1.4159833e-11
3.3706827e-09
1.353798e-11
3.3705467e-09
-1.2933033e-11
3.3706822e-09
1.2332108e-11
3.3705477e-09
-1.1753955e-11
3.3706811e-09
1.1184751e-11
3.3705493e-09
-1.0641964e-11
3.3706797e-09
1.0107405e-11
3.3705512e-09
-9.6005595e-12
3.3706778e-09
9.1049305e-12
3.3705533e-09
-8.6365678e-12
3.3706759e-09
8.1807415e-12
3.3705558e-09
-7.75568e-12
3.3706735e-09
7.346335e-12
3.3705581e-09
-6.963051e-12
3.3706712e-09
6.5968586e-12
3.3705606e-09
-6.2601268e-12
3.3706691e-09
5.9389043e-12
3.3705631e-09
-5.6500324e-12
3.3706669e-09