/*--------------------------------*- C++ -*----------------------------------*\
| =========                 |                                                 |
| \\      /  F ield         | OpenFOAM: The Open Source CFD Toolbox           |
|  \\    /   O peration     | Version:  2312                                  |
|   \\  /    A nd           | Website:  www.openfoam.com                      |
|    \\/     M anipulation  |                                                 |
\*---------------------------------------------------------------------------*/
FoamFile
{
    version     2.0;
    format      ascii;
    arch        "LSB;label=32;scalar=64";
    class       volSymmTensorField;
    location    "1";
    object      sigma;
}
// * * * * * * * * * * * * * * * * * * * * * * * * * * * * * * * * * * * * * //

dimensions      [0 2 -2 0 0 0 0];

internalField   nonuniform List<symmTensor> 
4000
(
(-2.2305495 -0.99908772 0 -0.4035111 0 0)
(-5.6288926 -0.43998099 0 -0.0028882468 0 0)
(-2.9200661 -0.31308124 0 -0.00084414356 0 0)
(-3.1153288 -0.32217141 0 -4.7697569e-06 0 0)
(-2.9155271 -0.31151876 0 3.7417964e-05 0 0)
(-3.0502835 -0.31919201 0 -6.2989968e-05 0 0)
(-2.9073515 -0.31106178 0 4.6637924e-05 0 0)
(-3.0148085 -0.31726567 0 -5.5057622e-05 0 0)
(-2.911599 -0.3112926 0 5.1810286e-05 0 0)
(-3.0066173 -0.31681403 0 -5.1659354e-05 0 0)
(-2.9150346 -0.31149364 0 4.9473406e-05 0 0)
(-3.0021078 -0.31655729 0 -4.8262948e-05 0 0)
(-2.9181831 -0.31167927 0 4.6421269e-05 0 0)
(-2.9984763 -0.31634841 0 -4.5040081e-05 0 0)
(-2.9212393 -0.31185864 0 4.3415026e-05 0 0)
(-2.9952726 -0.31616363 0 -4.201538e-05 0 0)
(-2.9241637 -0.31202962 0 4.0512679e-05 0 0)
(-2.9923285 -0.31599382 0 -3.9140446e-05 0 0)
(-2.9269431 -0.31219163 0 3.7716555e-05 0 0)
(-2.9895696 -0.31583483 0 -3.6384526e-05 0 0)
(-2.9295857 -0.31234528 0 3.5021858e-05 0 0)
(-2.9869567 -0.31568443 0 -3.3733806e-05 0 0)
(-2.9321067 -0.31249153 0 3.2427583e-05 0 0)
(-2.984468 -0.31554135 0 -3.1187443e-05 0 0)
(-2.9345168 -0.31263105 0 2.9938114e-05 0 0)
(-2.9820892 -0.31540477 0 -2.8750673e-05 0 0)
(-2.9368256 -0.31276443 0 2.7562693e-05 0 0)
(-2.9798123 -0.3152742 0 -2.6434338e-05 0 0)
(-2.9390384 -0.312892 0 2.5313608e-05 0 0)
(-2.9776317 -0.31514934 0 -2.4251583e-05 0 0)
(-2.9411593 -0.313014 0 2.3204956e-05 0 0)
(-2.9755439 -0.31502999 0 -2.2216837e-05 0 0)
(-2.9431917 -0.31313062 0 2.1251325e-05 0 0)
(-2.9735448 -0.31491595 0 -2.0345029e-05 0 0)
(-2.9451383 -0.31324199 0 1.9467654e-05 0 0)
(-2.9716317 -0.31480708 0 -1.8650052e-05 0 0)
(-2.9470033 -0.31334834 0 1.7867369e-05 0 0)
(-2.9697998 -0.31470316 0 -1.7145094e-05 0 0)
(-2.9487917 -0.31344991 0 1.6462841e-05 0 0)
(-2.9680428 -0.31460388 0 -1.5842482e-05 0 0)
(-2.9505083 -0.31354692 0 1.5265632e-05 0 0)
(-2.9663543 -0.31450893 0 -1.4751783e-05 0 0)
(-2.9521619 -0.31363983 0 1.4285513e-05 0 0)
(-2.9647263 -0.31441792 0 -1.3883887e-05 0 0)
(-2.9537589 -0.31372895 0 1.3531352e-05 0 0)
(-2.9631467 -0.31433024 0 -1.3247141e-05 0 0)
(-2.9553087 -0.3138146 0 1.3037104e-05 0 0)
(-2.9616493 -0.31424729 0 -1.2751554e-05 0 0)
(-2.9571195 -0.31391157 0 1.3188218e-05 0 0)
(-2.961415 -0.31423439 0 -1.265685e-05 0 0)
(-1.9649578 -0.91959068 0 -0.38203643 0 0)
(-4.8466285 -0.42053319 0 -0.0080941276 0 0)
(-2.9768196 -0.32087332 0 -0.0025490952 0 0)
(-2.8798055 -0.30955913 0 -5.3356245e-05 0 0)
(-2.7012624 -0.29979145 0 2.3894643e-05 0 0)
(-2.8208595 -0.30714732 0 -7.8747774e-05 0 0)
(-2.6987035 -0.29961205 0 3.2455208e-05 0 0)
(-2.7906604 -0.30536754 0 -6.184424e-05 0 0)
(-2.7006744 -0.29968155 0 5.5045431e-05 0 0)
(-2.783652 -0.304959 0 -5.7399071e-05 0 0)
(-2.7035137 -0.29986116 0 5.4204197e-05 0 0)
(-2.7797215 -0.3047174 0 -5.3560059e-05 0 0)
(-2.7062667 -0.30003844 0 5.1152672e-05 0 0)
(-2.776502 -0.30451601 0 -4.988636e-05 0 0)
(-2.7089637 -0.30021144 0 4.7942529e-05 0 0)
(-2.7736455 -0.30433658 0 -4.6481144e-05 0 0)
(-2.7115594 -0.30037739 0 4.4761425e-05 0 0)
(-2.771014 -0.3041711 0 -4.3265952e-05 0 0)
(-2.7140343 -0.30053524 0 4.1663088e-05 0 0)
(-2.7685454 -0.30401582 0 -4.0188628e-05 0 0)
(-2.7163899 -0.30068524 0 3.8661866e-05 0 0)
(-2.7662078 -0.3038688 0 -3.7226766e-05 0 0)
(-2.718636 -0.30082806 0 3.5765965e-05 0 0)
(-2.7639844 -0.30372901 0 -3.4380766e-05 0 0)
(-2.7207795 -0.30096418 0 3.2983532e-05 0 0)
(-2.7618645 -0.30359577 0 -3.165598e-05 0 0)
(-2.7228272 -0.30109402 0 3.0328203e-05 0 0)
(-2.759842 -0.30346873 0 -2.9066577e-05 0 0)
(-2.7247828 -0.30121783 0 2.7814636e-05 0 0)
(-2.7579128 -0.30334766 0 -2.6627728e-05 0 0)
(-2.7266497 -0.30133581 0 2.5459613e-05 0 0)
(-2.7560737 -0.30323237 0 -2.435585e-05 0 0)
(-2.728431 -0.30144812 0 2.3279422e-05 0 0)
(-2.7543209 -0.30312269 0 -2.2268498e-05 0 0)
(-2.7301293 -0.30155491 0 2.1291555e-05 0 0)
(-2.7526512 -0.30301845 0 -2.0380334e-05 0 0)
(-2.7317493 -0.30165642 0 1.9510438e-05 0 0)
(-2.7510596 -0.30291941 0 -1.8706482e-05 0 0)
(-2.7332965 -0.30175293 0 1.7949755e-05 0 0)
(-2.7495397 -0.30282522 0 -1.7261627e-05 0 0)
(-2.7347757 -0.30184472 0 1.6623177e-05 0 0)
(-2.7480844 -0.30273551 0 -1.6055234e-05 0 0)
(-2.7361962 -0.30193227 0 1.5542609e-05 0 0)
(-2.7466859 -0.30264987 0 -1.5103472e-05 0 0)
(-2.7375649 -0.30201597 0 1.4718726e-05 0 0)
(-2.7453315 -0.30256764 0 -1.4421861e-05 0 0)
(-2.7388869 -0.30209583 0 1.4214388e-05 0 0)
(-2.744019 -0.30248765 0 -1.3794041e-05 0 0)
(-2.7403329 -0.30217658 0 1.5110833e-05 0 0)
(-2.7435581 -0.30245891 0 -1.3358628e-05 0 0)
(-1.826425 -0.85950169 0 -0.35074671 0 0)
(-4.2545876 -0.39303468 0 -0.0094435031 0 0)
(-2.8888617 -0.32001567 0 -0.0038237396 0 0)
(-2.7500353 -0.30253276 0 -0.00016398952 0 0)
(-2.5630435 -0.29194056 0 1.1418709e-05 0 0)
(-2.6719841 -0.29905013 0 -8.482281e-05 0 0)
(-2.5624362 -0.29190394 0 1.6528353e-05 0 0)
(-2.6456369 -0.29740932 0 -6.1762348e-05 0 0)
(-2.5638387 -0.29191282 0 5.1827517e-05 0 0)
(-2.6392742 -0.2970209 0 -5.6021638e-05 0 0)
(-2.5663719 -0.29208332 0 5.2248781e-05 0 0)
(-2.6356975 -0.29678886 0 -5.2171115e-05 0 0)
(-2.5688898 -0.29225602 0 4.9508206e-05 0 0)
(-2.6327488 -0.29659304 0 -4.8507977e-05 0 0)
(-2.5713631 -0.29242489 0 4.6483029e-05 0 0)
(-2.6301228 -0.29641775 0 -4.5149223e-05 0 0)
(-2.573749 -0.29258729 0 4.342112e-05 0 0)
(-2.6277002 -0.29625574 0 -4.1998673e-05 0 0)
(-2.5760271 -0.29274205 0 4.041212e-05 0 0)
(-2.6254266 -0.29610358 0 -3.8989146e-05 0 0)
(-2.5781964 -0.29288923 0 3.7485589e-05 0 0)
(-2.6232747 -0.29595947 0 -3.6092189e-05 0 0)
(-2.5802638 -0.29302934 0 3.4656737e-05 0 0)
(-2.6212304 -0.29582253 0 -3.3308136e-05 0 0)
(-2.5822342 -0.29316276 0 3.1935941e-05 0 0)
(-2.6192846 -0.29569217 0 -3.0641872e-05 0 0)
(-2.5841129 -0.29328983 0 2.9338804e-05 0 0)
(-2.6174327 -0.29556811 0 -2.8108203e-05 0 0)
(-2.5859031 -0.29341076 0 2.6880447e-05 0 0)
(-2.6156708 -0.29545013 0 -2.572241e-05 0 0)
(-2.5876073 -0.2935257 0 2.4577681e-05 0 0)
(-2.613996 -0.29533807 0 -2.3500575e-05 0 0)
(-2.5892288 -0.29363485 0 2.244657e-05 0 0)
(-2.6124048 -0.29523175 0 -2.1460624e-05 0 0)
(-2.59077 -0.29373833 0 2.0504677e-05 0 0)
(-2.6108936 -0.29513098 0 -1.9616092e-05 0 0)
(-2.5922356 -0.29383642 0 1.8765841e-05 0 0)
(-2.6094575 -0.29503548 0 -1.7981942e-05 0 0)
(-2.5936311 -0.29392944 0 1.7243402e-05 0 0)
(-2.6080901 -0.29494492 0 -1.6573968e-05 0 0)
(-2.5949616 -0.29401767 0 1.5951167e-05 0 0)
(-2.6067841 -0.29485885 0 -1.5400108e-05 0 0)
(-2.596236 -0.29410163 0 1.4902558e-05 0 0)
(-2.6055318 -0.29477686 0 -1.4479941e-05 0 0)
(-2.5974616 -0.29418176 0 1.4108515e-05 0 0)
(-2.6043209 -0.29469829 0 -1.3835557e-05 0 0)
(-2.5986432 -0.29425805 0 1.3642673e-05 0 0)
(-2.6031406 -0.29462117 0 -1.3204033e-05 0 0)
(-2.5999088 -0.29433124 0 1.5003264e-05 0 0)
(-2.6026116 -0.29458924 0 -1.3521672e-05 0 0)
(-1.7572816 -0.82122224 0 -0.32758984 0 0)
(-3.8498814 -0.37698012 0 -0.01142308 0 0)
(-2.7864196 -0.31913046 0 -0.0053084495 0 0)
(-2.6273852 -0.29578019 0 -0.00028656376 0 0)
(-2.4309216 -0.28424169 0 -1.5553451e-05 0 0)
(-2.5283533 -0.29096737 0 -8.8502828e-05 0 0)
(-2.4290742 -0.28419063 0 -4.8065236e-06 0 0)
(-2.5051731 -0.28945526 0 -5.6932543e-05 0 0)
(-2.4300448 -0.28414583 0 4.3906256e-05 0 0)
(-2.499365 -0.28908537 0 -5.0091938e-05 0 0)
(-2.4323272 -0.28430761 0 4.5917019e-05 0 0)
(-2.4960737 -0.28886222 0 -4.6547976e-05 0 0)
(-2.4346546 -0.28447592 0 4.3770439e-05 0 0)
(-2.4933422 -0.28867159 0 -4.3174804e-05 0 0)
(-2.4369462 -0.28464077 0 4.1203391e-05 0 0)
(-2.490899 -0.28850011 0 -4.0122344e-05 0 0)
(-2.4391606 -0.28479968 0 3.8517403e-05 0 0)
(-2.4886414 -0.28834134 0 -3.7284382e-05 0 0)
(-2.4412772 -0.28495133 0 3.5840996e-05 0 0)
(-2.4865221 -0.28819209 0 -3.4580313e-05 0 0)
(-2.4432932 -0.28509562 0 3.3221281e-05 0 0)
(-2.4845172 -0.28805077 0 -3.1976126e-05 0 0)
(-2.4452129 -0.2852329 0 3.0682342e-05 0 0)
(-2.4826153 -0.28791661 0 -2.9472893e-05 0 0)
(-2.44704 -0.28536347 0 2.8236272e-05 0 0)
(-2.4808086 -0.28778909 0 -2.7074191e-05 0 0)
(-2.4487785 -0.28548759 0 2.590084e-05 0 0)
(-2.4790932 -0.28766798 0 -2.4795149e-05 0 0)
(-2.4504308 -0.28560545 0 2.369021e-05 0 0)
(-2.477466 -0.28755309 0 -2.2649873e-05 0 0)
(-2.4519992 -0.28571718 0 2.1620485e-05 0 0)
(-2.4759242 -0.28744427 0 -2.0652894e-05 0 0)
(-2.4534868 -0.28582298 0 1.9706049e-05 0 0)
(-2.4744643 -0.28734131 0 -1.8821336e-05 0 0)
(-2.454896 -0.285923 0 1.7963281e-05 0 0)
(-2.4730827 -0.28724402 0 -1.7166095e-05 0 0)
(-2.4562317 -0.28601753 0 1.6404033e-05 0 0)
(-2.4717744 -0.28715208 0 -1.5701027e-05 0 0)
(-2.4574991 -0.28610692 0 1.5040005e-05 0 0)
(-2.4705332 -0.28706513 0 -1.4441177e-05 0 0)
(-2.4587036 -0.2861915 0 1.3883827e-05 0 0)
(-2.4693516 -0.28698269 0 -1.3391795e-05 0 0)
(-2.4598537 -0.28627181 0 1.2948514e-05 0 0)
(-2.468222 -0.28690433 0 -1.2573729e-05 0 0)
(-2.4609569 -0.28634832 0 1.2242855e-05 0 0)
(-2.4671328 -0.28682938 0 -1.2012109e-05 0 0)
(-2.4620177 -0.28642105 0 1.1845136e-05 0 0)
(-2.4660657 -0.2867551 0 -1.1372576e-05 0 0)
(-2.4631262 -0.28648713 0 1.3681461e-05 0 0)
(-2.4654752 -0.28671935 0 -1.2220116e-05 0 0)
(-1.6936895 -0.7867594 0 -0.30802708 0 0)
(-3.4340535 -0.35759691 0 -0.01263834 0 0)
(-2.6440052 -0.31510127 0 -0.0065187664 0 0)
(-2.5028629 -0.2889409 0 -0.00041375866 0 0)
(-2.3050862 -0.2766694 0 -5.0489024e-05 0 0)
(-2.3896532 -0.28290683 0 -9.3932859e-05 0 0)
(-2.2989314 -0.27644983 0 -2.3433625e-05 0 0)
(-2.3689072 -0.28150858 0 -5.2062837e-05 0 0)
(-2.2995019 -0.27636879 0 3.6462465e-05 0 0)
(-2.3635577 -0.28115572 0 -4.4204309e-05 0 0)
(-2.3015767 -0.27652451 0 3.9777776e-05 0 0)
(-2.3605101 -0.2809407 0 -4.0997006e-05 0 0)
(-2.3037448 -0.27668946 0 3.815259e-05 0 0)
(-2.3579674 -0.28075483 0 -3.7921877e-05 0 0)
(-2.3058833 -0.27685101 0 3.6017303e-05 0 0)
(-2.3556829 -0.28058676 0 -3.5172415e-05 0 0)
(-2.3079514 -0.27700695 0 3.3694744e-05 0 0)
(-2.3535683 -0.28043085 0 -3.2642092e-05 0 0)
(-2.3099295 -0.27715589 0 3.1343585e-05 0 0)
(-2.3515828 -0.28028424 0 -3.023934e-05 0 0)
(-2.3118132 -0.27729762 0 2.9026181e-05 0 0)
(-2.349706 -0.28014547 0 -2.7925286e-05 0 0)
(-2.3136054 -0.27743236 0 2.6774093e-05 0 0)
(-2.3479283 -0.28001389 0 -2.5700931e-05 0 0)
(-2.3153083 -0.27756031 0 2.4601015e-05 0 0)
(-2.3462432 -0.27988904 0 -2.3568876e-05 0 0)
(-2.3169251 -0.2776817 0 2.252606e-05 0 0)
(-2.3446474 -0.27977075 0 -2.1543853e-05 0 0)
(-2.3184577 -0.27779668 0 2.0562608e-05 0 0)
(-2.3431382 -0.27965882 0 -1.9638812e-05 0 0)
(-2.3199082 -0.27790538 0 1.8725452e-05 0 0)
(-2.3417128 -0.2795531 0 -1.7866543e-05 0 0)
(-2.3212795 -0.278008 0 1.7027396e-05 0 0)
(-2.340368 -0.2794534 0 -1.6243204e-05 0 0)
(-2.322574 -0.2781047 0 1.5483302e-05 0 0)
(-2.3390999 -0.27935947 0 -1.4776965e-05 0 0)
(-2.3237966 -0.27819582 0 1.4103055e-05 0 0)
(-2.3379036 -0.27927098 0 -1.3480132e-05 0 0)
(-2.3249526 -0.27828173 0 1.2896568e-05 0 0)
(-2.3367728 -0.27918755 0 -1.2367329e-05 0 0)
(-2.3260472 -0.27836277 0 1.1874659e-05 0 0)
(-2.3357001 -0.27910865 0 -1.1440387e-05 0 0)
(-2.3270889 -0.27843953 0 1.1049991e-05 0 0)
(-2.3346783 -0.27903385 0 -1.0720526e-05 0 0)
(-2.3280851 -0.27851252 0 1.0427494e-05 0 0)
(-2.3336959 -0.27896244 0 -1.0233188e-05 0 0)
(-2.3290402 -0.27858181 0 1.0081946e-05 0 0)
(-2.3327315 -0.27889119 0 -9.584659e-06 0 0)
(-2.3300173 -0.27864209 0 1.2247225e-05 0 0)
(-2.3321108 -0.27885281 0 -1.0835397e-05 0 0)
(-1.6158953 -0.73278667 0 -0.27397293 0 0)
(-3.066218 -0.34015474 0 -0.01325968 0 0)
(-2.4933637 -0.31013754 0 -0.0075958112 0 0)
(-2.3778691 -0.28204744 0 -0.00054460676 0 0)
(-2.1835599 -0.26916287 0 -9.667667e-05 0 0)
(-2.255755 -0.27488254 0 -0.00010254901 0 0)
(-2.1722873 -0.26869426 0 -3.8942878e-05 0 0)
(-2.2367182 -0.27356747 0 -4.8002715e-05 0 0)
(-2.1724089 -0.26858683 0 3.041758e-05 0 0)
(-2.231715 -0.27322953 0 -3.9270328e-05 0 0)
(-2.1742881 -0.26873802 0 3.4721821e-05 0 0)
(-2.2288765 -0.27302202 0 -3.6382699e-05 0 0)
(-2.1763137 -0.26890026 0 3.3490365e-05 0 0)
(-2.2265026 -0.27284059 0 -3.3559163e-05 0 0)
(-2.1783163 -0.26905894 0 3.1705728e-05 0 0)
(-2.224361 -0.27267568 0 -3.1056052e-05 0 0)
(-2.1802533 -0.26921217 0 2.9682096e-05 0 0)
(-2.2223755 -0.27252244 0 -2.8777069e-05 0 0)
(-2.1821062 -0.2693586 0 2.7598889e-05 0 0)
(-2.2205113 -0.27237832 0 -2.6622048e-05 0 0)
(-2.1838701 -0.26949789 0 2.5530699e-05 0 0)
(-2.2187508 -0.27224198 0 -2.4547483e-05 0 0)
(-2.1855463 -0.26963015 0 2.351613e-05 0 0)
(-2.2170862 -0.27211291 0 -2.2554372e-05 0 0)
(-2.1871362 -0.26975555 0 2.156936e-05 0 0)
(-2.2155117 -0.27199068 0 -2.0643961e-05 0 0)
(-2.1886422 -0.26987424 0 1.9711216e-05 0 0)
(-2.2140249 -0.27187516 0 -1.8830721e-05 0 0)
(-2.1900659 -0.26998636 0 1.795374e-05 0 0)
(-2.212623 -0.27176616 0 -1.7126369e-05 0 0)
(-2.1914092 -0.27009205 0 1.631086e-05 0 0)
(-2.2113034 -0.27166352 0 -1.5542043e-05 0 0)
(-2.1926749 -0.27019152 0 1.479382e-05 0 0)
(-2.2100629 -0.27156703 0 -1.409314e-05 0 0)
(-2.1938656 -0.27028494 0 1.341608e-05 0 0)
(-2.2088974 -0.27147642 0 -1.2785236e-05 0 0)
(-2.1949861 -0.27037269 0 1.2185794e-05 0 0)
(-2.2078021 -0.27139134 0 -1.1629568e-05 0 0)
(-2.1960416 -0.27045515 0 1.1111238e-05 0 0)
(-2.2067707 -0.27131138 0 -1.0639822e-05 0 0)
(-2.1970376 -0.27053271 0 1.020158e-05 0 0)
(-2.2057959 -0.27123597 0 -9.8150275e-06 0 0)
(-2.197982 -0.27060596 0 9.4687677e-06 0 0)
(-2.2048705 -0.27116466 0 -9.1761168e-06 0 0)
(-2.1988824 -0.27067548 0 8.9140345e-06 0 0)
(-2.2039839 -0.27109675 0 -8.7482598e-06 0 0)
(-2.199743 -0.27074138 0 8.6048705e-06 0 0)
(-2.2031124 -0.27102865 0 -8.0863488e-06 0 0)
(-2.2006054 -0.27079661 0 1.0985251e-05 0 0)
(-2.2024807 -0.27098824 0 -9.5971527e-06 0 0)
(-1.5890591 -0.70247396 0 -0.25351353 0 0)
(-2.7120063 -0.32226033 0 -0.013744852 0 0)
(-2.3296892 -0.30327331 0 -0.0083907588 0 0)
(-2.2482336 -0.27479249 0 -0.00066031863 0 0)
(-2.0650964 -0.26166921 0 -0.0001542174 0 0)
(-2.1262867 -0.26687849 0 -0.00011231992 0 0)
(-2.0491679 -0.26092627 0 -5.1747189e-05 0 0)
(-2.1085351 -0.26562887 0 -4.4253013e-05 0 0)
(-2.0488418 -0.26080282 0 2.5435955e-05 0 0)
(-2.1037813 -0.26530477 0 -3.4992958e-05 0 0)
(-2.0505243 -0.2609505 0 3.0447316e-05 0 0)
(-2.1011174 -0.26510412 0 -3.243205e-05 0 0)
(-2.0524158 -0.26111032 0 2.9511624e-05 0 0)
(-2.0988947 -0.2649269 0 -2.9830841e-05 0 0)
(-2.0542942 -0.26126635 0 2.8018005e-05 0 0)
(-2.096884 -0.26476504 0 -2.7535227e-05 0 0)
(-2.0561112 -0.26141701 0 2.6247336e-05 0 0)
(-2.0950175 -0.26461441 0 -2.5468209e-05 0 0)
(-2.0578491 -0.26156096 0 2.4391802e-05 0 0)
(-2.0932655 -0.26447275 0 -2.3523366e-05 0 0)
(-2.0595022 -0.2616978 0 2.2536026e-05 0 0)
(-2.0916129 -0.26433888 0 -2.16531e-05 0 0)
(-2.0610709 -0.26182756 0 2.0724317e-05 0 0)
(-2.0900533 -0.26421235 0 -1.9857735e-05 0 0)
(-2.0625561 -0.26195034 0 1.8971501e-05 0 0)
(-2.0885817 -0.26409281 0 -1.8137556e-05 0 0)
(-2.0639593 -0.26206627 0 1.7299449e-05 0 0)
(-2.0871959 -0.26398011 0 -1.6506385e-05 0 0)
(-2.0652822 -0.26217548 0 1.5719321e-05 0 0)
(-2.0858935 -0.2638741 0 -1.497488e-05 0 0)
(-2.0665264 -0.2622781 0 1.4243841e-05 0 0)
(-2.0846717 -0.26377459 0 -1.3552659e-05 0 0)
(-2.0676949 -0.26237436 0 1.2883043e-05 0 0)
(-2.0835272 -0.26368135 0 -1.2254431e-05 0 0)
(-2.0687902 -0.26246448 0 1.1648948e-05 0 0)
(-2.0824561 -0.26359409 0 -1.1083374e-05 0 0)
(-2.0698171 -0.26254883 0 1.0548243e-05 0 0)
(-2.0814532 -0.26351243 0 -1.0049517e-05 0 0)
(-2.070781 -0.26262784 0 9.5877819e-06 0 0)
(-2.0805125 -0.26343593 0 -9.1662248e-06 0 0)
(-2.0716871 -0.26270192 0 8.7748211e-06 0 0)
(-2.0796266 -0.26336401 0 -8.4295564e-06 0 0)
(-2.0725434 -0.26277169 0 8.1212568e-06 0 0)
(-2.0787887 -0.26329617 0 -7.8601063e-06 0 0)
(-2.0733571 -0.26283775 0 7.6242854e-06 0 0)
(-2.0779885 -0.26323173 0 -7.4819024e-06 0 0)
(-2.0741326 -0.2629003 0 7.3431158e-06 0 0)
(-2.0772018 -0.26316687 0 -6.8108732e-06 0 0)
(-2.0748941 -0.26295109 0 9.8485759e-06 0 0)
(-2.0765735 -0.26312503 0 -8.4858046e-06 0 0)
(-1.5717093 -0.6623901 0 -0.22477712 0 0)
(-2.3905081 -0.30710073 0 -0.014472411 0 0)
(-2.1590972 -0.29479399 0 -0.0089277039 0 0)
(-2.1141329 -0.26727416 0 -0.00081236298 0 0)
(-1.9494289 -0.25431333 0 -0.00024979636 0 0)
(-2.0013773 -0.25894694 0 -0.00012935786 0 0)
(-1.929713 -0.25317105 0 -6.4774049e-05 0 0)
(-1.9843582 -0.25769891 0 -4.0951981e-05 0 0)
(-1.9288403 -0.25301939 0 2.1131074e-05 0 0)
(-1.9797258 -0.25738104 0 -3.106443e-05 0 0)
(-1.9303087 -0.25316239 0 2.6693899e-05 0 0)
(-1.9772045 -0.25718631 0 -2.8863343e-05 0 0)
(-1.9320735 -0.25332002 0 2.5964741e-05 0 0)
(-1.9751198 -0.25701323 0 -2.6483534e-05 0 0)
(-1.9338384 -0.25347363 0 2.4715169e-05 0 0)
(-1.9732308 -0.2568544 0 -2.4377009e-05 0 0)
(-1.9355453 -0.2536218 0 2.3166946e-05 0 0)
(-1.9714752 -0.25670639 0 -2.2499795e-05 0 0)
(-1.9371764 -0.25376328 0 2.1514493e-05 0 0)
(-1.9698279 -0.25656723 0 -2.0743284e-05 0 0)
(-1.9387263 -0.25389763 0 1.9849072e-05 0 0)
(-1.9682763 -0.25643589 0 -1.9056626e-05 0 0)
(-1.9401947 -0.25402481 0 1.8220264e-05 0 0)
(-1.966815 -0.256312 0 -1.7439666e-05 0 0)
(-1.941582 -0.2541449 0 1.6642479e-05 0 0)
(-1.9654397 -0.25619522 0 -1.5891467e-05 0 0)
(-1.9428894 -0.25425798 0 1.5139015e-05 0 0)
(-1.9641485 -0.25608544 0 -1.4425245e-05 0 0)
(-1.9441183 -0.25436418 0 1.3719552e-05 0 0)
(-1.9629388 -0.25598249 0 -1.305054e-05 0 0)
(-1.9452704 -0.25446367 0 1.2395978e-05 0 0)
(-1.9618079 -0.25588617 0 -1.177541e-05 0 0)
(-1.9463486 -0.25455667 0 1.1177049e-05 0 0)
(-1.9607526 -0.25579624 0 -1.0613988e-05 0 0)
(-1.9473558 -0.25464344 0 1.0073383e-05 0 0)
(-1.9597686 -0.25571236 0 -9.5671325e-06 0 0)
(-1.9482965 -0.25472437 0 9.0903673e-06 0 0)
(-1.9588508 -0.25563413 0 -8.6440439e-06 0 0)
(-1.9491762 -0.25479992 0 8.2334714e-06 0 0)
(-1.9579933 -0.2555611 0 -7.8572499e-06 0 0)
(-1.9500002 -0.25487053 0 7.508333e-06 0 0)
(-1.9571888 -0.25549264 0 -7.2004995e-06 0 0)
(-1.950776 -0.25493683 0 6.9264777e-06 0 0)
(-1.9564304 -0.25542826 0 -6.6937378e-06 0 0)
(-1.951511 -0.25499946 0 6.4817817e-06 0 0)
(-1.9557088 -0.25536725 0 -6.3599826e-06 0 0)
(-1.9522095 -0.2550587 0 6.2245292e-06 0 0)
(-1.9549994 -0.25530568 0 -5.6853108e-06 0 0)
(-1.9528817 -0.25510553 0 8.7839139e-06 0 0)
(-1.9543847 -0.25526296 0 -7.4633479e-06 0 0)
(-1.5629709 -0.63948052 0 -0.2096488 0 0)
(-2.0960694 -0.29227208 0 -0.015313556 0 0)
(-2.0015935 -0.2874452 0 -0.0095811849 0 0)
(-1.9775447 -0.259071 0 -0.00089365264 0 0)
(-1.8293465 -0.24640776 0 -0.00031339307 0 0)
(-1.8786596 -0.25089582 0 -0.0001358127 0 0)
(-1.812887 -0.24535631 0 -7.3251997e-05 0 0)
(-1.8638066 -0.24975695 0 -3.7147914e-05 0 0)
(-1.812323 -0.24523141 0 1.7450671e-05 0 0)
(-1.8595113 -0.24945771 0 -2.7416202e-05 0 0)
(-1.8136692 -0.24537426 0 2.3305098e-05 0 0)
(-1.8571289 -0.2492691 0 -2.559471e-05 0 0)
(-1.8153127 -0.24552977 0 2.2732768e-05 0 0)
(-1.8551654 -0.24909978 0 -2.3424349e-05 0 0)
(-1.8169683 -0.24568092 0 2.1697981e-05 0 0)
(-1.8533871 -0.24894385 0 -2.1490694e-05 0 0)
(-1.8185711 -0.24582657 0 2.0351175e-05 0 0)
(-1.8517347 -0.24879844 0 -1.9786522e-05 0 0)
(-1.8201021 -0.24596553 0 1.8884332e-05 0 0)
(-1.8501858 -0.24866183 0 -1.82025e-05 0 0)
(-1.8215551 -0.24609732 0 1.7393895e-05 0 0)
(-1.8487293 -0.2485331 0 -1.6684919e-05 0 0)
(-1.8229292 -0.24622184 0 1.5933549e-05 0 0)
(-1.8473607 -0.24841192 0 -1.5232538e-05 0 0)
(-1.8242244 -0.24633913 0 1.4517613e-05 0 0)
(-1.8460761 -0.248298 0 -1.3843481e-05 0 0)
(-1.8254418 -0.24644927 0 1.3170086e-05 0 0)
(-1.8448736 -0.24819122 0 -1.2530022e-05 0 0)
(-1.8265826 -0.24655239 0 1.1899614e-05 0 0)
(-1.8437509 -0.24809141 0 -1.1300621e-05 0 0)
(-1.8276487 -0.24664867 0 1.0716843e-05 0 0)
(-1.8427051 -0.24799834 0 -1.016189e-05 0 0)
(-1.8286429 -0.24673837 0 9.6295162e-06 0 0)
(-1.8417328 -0.24791175 0 -9.1273505e-06 0 0)
(-1.8295682 -0.24682175 0 8.6467494e-06 0 0)
(-1.8408296 -0.24783128 0 -8.1956758e-06 0 0)
(-1.8304292 -0.24689925 0 7.7727969e-06 0 0)
(-1.8399905 -0.24775649 0 -7.3750518e-06 0 0)
(-1.8312314 -0.24697133 0 7.0119466e-06 0 0)
(-1.8392096 -0.24768692 0 -6.6776864e-06 0 0)
(-1.8319799 -0.2470385 0 6.3678963e-06 0 0)
(-1.8384796 -0.2476219 0 -6.0949082e-06 0 0)
(-1.8326822 -0.24710136 0 5.852453e-06 0 0)
(-1.8377941 -0.24756094 0 -5.6459723e-06 0 0)
(-1.8333453 -0.24716059 0 5.4559413e-06 0 0)
(-1.837144 -0.24750332 0 -5.3521997e-06 0 0)
(-1.8339738 -0.24721656 0 5.2204661e-06 0 0)
(-1.8365053 -0.24744505 0 -4.6806322e-06 0 0)
(-1.8345667 -0.24725986 0 7.7748414e-06 0 0)
(-1.8359114 -0.24740194 0 -6.5200697e-06 0 0)
(-1.5589042 -0.6002065 0 -0.18279778 0 0)
(-1.8534559 -0.27949037 0 -0.015831098 0 0)
(-1.8330283 -0.27428881 0 -0.0090552384 0 0)
(-1.8453101 -0.25233761 0 -0.0013590093 0 0)
(-1.7194999 -0.23950314 0 -0.00050767606 0 0)
(-1.761994 -0.24307583 0 -0.00016131739 0 0)
(-1.7004896 -0.2376149 0 -8.4709664e-05 0 0)
(-1.747319 -0.24183355 0 -3.3508308e-05 0 0)
(-1.6994049 -0.23744586 0 1.4449606e-05 0 0)
(-1.7430922 -0.24153405 0 -2.3821539e-05 0 0)
(-1.7005828 -0.23758459 0 2.0337252e-05 0 0)
(-1.7408416 -0.24135104 0 -2.2521278e-05 0 0)
(-1.7021287 -0.23773873 0 1.9800124e-05 0 0)
(-1.7390045 -0.24118601 0 -2.0594589e-05 0 0)
(-1.7036913 -0.23788789 0 1.8932852e-05 0 0)
(-1.737336 -0.24103324 0 -1.8832377e-05 0 0)
(-1.7051998 -0.23803119 0 1.7764041e-05 0 0)
(-1.735783 -0.24089056 0 -1.7290731e-05 0 0)
(-1.7066373 -0.23816763 0 1.6466904e-05 0 0)
(-1.7343278 -0.2407566 0 -1.586706e-05 0 0)
(-1.707999 -0.23829679 0 1.5138098e-05 0 0)
(-1.7329617 -0.24063057 0 -1.450667e-05 0 0)
(-1.7092841 -0.23841855 0 1.3834548e-05 0 0)
(-1.7316809 -0.24051221 0 -1.3207663e-05 0 0)
(-1.7104924 -0.23853295 0 1.2569348e-05 0 0)
(-1.7304822 -0.24040124 0 -1.1967117e-05 0 0)
(-1.7116249 -0.23864007 0 1.1367551e-05 0 0)
(-1.7293637 -0.24029754 0 -1.0796357e-05 0 0)
(-1.7126828 -0.23874003 0 1.0236178e-05 0 0)
(-1.7283228 -0.24020094 0 -9.7027739e-06 0 0)
(-1.7136681 -0.23883304 0 9.1849757e-06 0 0)
(-1.7273568 -0.24011117 0 -8.6914427e-06 0 0)
(-1.7145838 -0.23891938 0 8.2205937e-06 0 0)
(-1.7264621 -0.24002797 0 -7.775366e-06 0 0)
(-1.7154328 -0.23899936 0 7.3506744e-06 0 0)
(-1.7256342 -0.23995091 0 -6.9511235e-06 0 0)
(-1.7162199 -0.23907341 0 6.5784943e-06 0 0)
(-1.7248681 -0.23987956 0 -6.2262175e-06 0 0)
(-1.7169503 -0.23914205 0 5.9071227e-06 0 0)
(-1.7241579 -0.23981343 0 -5.6120401e-06 0 0)
(-1.7176294 -0.23920578 0 5.3387117e-06 0 0)
(-1.7234966 -0.23975183 0 -5.0981238e-06 0 0)
(-1.7182641 -0.23926525 0 4.8849473e-06 0 0)
(-1.7228777 -0.23969423 0 -4.7028227e-06 0 0)
(-1.7188615 -0.23932114 0 4.5333989e-06 0 0)
(-1.722293 -0.23963993 0 -4.4458584e-06 0 0)
(-1.7194263 -0.2393739 0 4.3181836e-06 0 0)
(-1.7217191 -0.23958498 0 -3.7827581e-06 0 0)
(-1.7199483 -0.23941398 0 6.8182106e-06 0 0)
(-1.7211509 -0.23954188 0 -5.6558755e-06 0 0)
(-1.5593736 -0.57892475 0 -0.16912859 0 0)
(-1.6539852 -0.26566583 0 -0.015552507 0 0)
(-1.689227 -0.26704587 0 -0.010156485 0 0)
(-1.7144867 -0.24251571 0 -0.0010957834 0 0)
(-1.6043768 -0.23117167 0 -0.00048097075 0 0)
(-1.6472953 -0.23498531 0 -0.00014679376 0 0)
(-1.5909237 -0.22978655 0 -8.5167101e-05 0 0)
(-1.6346002 -0.23389801 0 -2.825033e-05 0 0)
(-1.5901571 -0.22966041 0 1.204066e-05 0 0)
(-1.6305834 -0.23361414 0 -2.0464175e-05 0 0)
(-1.5911696 -0.22979752 0 1.7600279e-05 0 0)
(-1.6284016 -0.23343492 0 -1.9686777e-05 0 0)
(-1.5925781 -0.22994873 0 1.7088891e-05 0 0)
(-1.6266507 -0.2332729 0 -1.7980993e-05 0 0)
(-1.5940332 -0.23009519 0 1.6375922e-05 0 0)
(-1.6250745 -0.23312287 0 -1.6376075e-05 0 0)
(-1.5954459 -0.23023584 0 1.537229e-05 0 0)
(-1.6236125 -0.23298286 0 -1.4984856e-05 0 0)
(-1.5967929 -0.23036961 0 1.4233436e-05 0 0)
(-1.6222456 -0.23285159 0 -1.3710594e-05 0 0)
(-1.5980673 -0.23049602 0 1.3056068e-05 0 0)
(-1.6209654 -0.23272835 0 -1.24975e-05 0 0)
(-1.5992675 -0.23061491 0 1.1899466e-05 0 0)
(-1.6197683 -0.2326129 0 -1.1342398e-05 0 0)
(-1.6003932 -0.23072632 0 1.0776021e-05 0 0)
(-1.6186512 -0.23250498 0 -1.0241497e-05 0 0)
(-1.6014453 -0.23083031 0 9.7111328e-06 0 0)
(-1.6176122 -0.23240446 0 -9.2049405e-06 0 0)
(-1.6024249 -0.23092703 0 8.7106761e-06 0 0)
(-1.6166488 -0.23231113 0 -8.2390197e-06 0 0)
(-1.6033342 -0.23101672 0 7.7831335e-06 0 0)
(-1.615758 -0.23222472 0 -7.3474412e-06 0 0)
(-1.6041762 -0.23109967 0 6.934303e-06 0 0)
(-1.614936 -0.23214492 0 -6.5426353e-06 0 0)
(-1.604954 -0.23117621 0 6.1702874e-06 0 0)
(-1.6141784 -0.2320713 0 -5.8192388e-06 0 0)
(-1.6056723 -0.23124682 0 5.4935261e-06 0 0)
(-1.61348 -0.23200337 0 -5.1839033e-06 0 0)
(-1.6063363 -0.23131204 0 4.9061082e-06 0 0)
(-1.6128353 -0.23194064 0 -4.6476734e-06 0 0)
(-1.6069512 -0.23137238 0 4.4083208e-06 0 0)
(-1.6122372 -0.23188241 0 -4.1982558e-06 0 0)
(-1.6075239 -0.2314285 0 4.0123588e-06 0 0)
(-1.6116796 -0.23182813 0 -3.8530557e-06 0 0)
(-1.6080611 -0.23148111 0 3.7028471e-06 0 0)
(-1.6111547 -0.23177709 0 -3.6296162e-06 0 0)
(-1.6085677 -0.23153071 0 3.5073626e-06 0 0)
(-1.6106401 -0.23172542 0 -2.9811916e-06 0 0)
(-1.6090263 -0.23156787 0 5.9122447e-06 0 0)
(-1.6101011 -0.23168268 0 -4.8685404e-06 0 0)
(-1.5622291 -0.54364937 0 -0.14635653 0 0)
(-1.4995155 -0.25443459 0 -0.015511622 0 0)
(-1.5520741 -0.25506107 0 -0.0094855372 0 0)
(-1.596283 -0.23451041 0 -0.0011606155 0 0)
(-1.4980476 -0.2235481 0 -0.00052566639 0 0)
(-1.5375842 -0.22701226 0 -0.00013345169 0 0)
(-1.4851642 -0.22197715 0 -8.203282e-05 0 0)
(-1.5255217 -0.2259555 0 -2.0871426e-05 0 0)
(-1.4843103 -0.2218659 0 1.0991433e-05 0 0)
(-1.5217091 -0.22568767 0 -1.6815083e-05 0 0)
(-1.4852583 -0.22200614 0 1.5304516e-05 0 0)
(-1.5196809 -0.22551612 0 -1.6936896e-05 0 0)
(-1.4866013 -0.22215715 0 1.4626422e-05 0 0)
(-1.5180539 -0.22535883 0 -1.5522255e-05 0 0)
(-1.4879803 -0.22230193 0 1.4013532e-05 0 0)
(-1.5165812 -0.22521222 0 -1.4085156e-05 0 0)
(-1.4893109 -0.22244022 0 1.3153343e-05 0 0)
(-1.5152115 -0.22507517 0 -1.2840642e-05 0 0)
(-1.4905743 -0.22257134 0 1.2160396e-05 0 0)
(-1.5139309 -0.22494678 0 -1.1708602e-05 0 0)
(-1.4917662 -0.22269493 0 1.1124949e-05 0 0)
(-1.5127335 -0.22482647 0 -1.0635059e-05 0 0)
(-1.4928857 -0.22281085 0 1.0107292e-05 0 0)
(-1.5116167 -0.22471406 0 -9.6162861e-06 0 0)
(-1.4939328 -0.22291916 0 9.117892e-06 0 0)
(-1.5105776 -0.2246093 0 -8.6476992e-06 0 0)
(-1.4949084 -0.22301993 0 8.1828121e-06 0 0)
(-1.5096143 -0.22451203 0 -7.7382402e-06 0 0)
(-1.495814 -0.22311335 0 7.3062282e-06 0 0)
(-1.5087242 -0.22442205 0 -6.8932094e-06 0 0)
(-1.4966515 -0.22319965 0 6.4956871e-06 0 0)
(-1.5079042 -0.22433903 0 -6.1148382e-06 0 0)
(-1.4974243 -0.22327917 0 5.7560746e-06 0 0)
(-1.5071505 -0.22426266 0 -5.4150774e-06 0 0)
(-1.4981354 -0.22335228 0 5.0919978e-06 0 0)
(-1.5064586 -0.22419246 0 -4.7867499e-06 0 0)
(-1.4987896 -0.22341947 0 4.5052213e-06 0 0)
(-1.5058234 -0.22412795 0 -4.2359519e-06 0 0)
(-1.4993919 -0.22348128 0 3.9967689e-06 0 0)
(-1.5052393 -0.22406859 0 -3.7729306e-06 0 0)
(-1.4999477 -0.22353828 0 3.5655536e-06 0 0)
(-1.5046996 -0.22401367 0 -3.3841513e-06 0 0)
(-1.5004633 -0.22359111 0 3.2238136e-06 0 0)
(-1.5041983 -0.22396263 0 -3.0859572e-06 0 0)
(-1.5009453 -0.22364051 0 2.9540759e-06 0 0)
(-1.5037282 -0.22391478 0 -2.8938247e-06 0 0)
(-1.5013987 -0.22368703 0 2.7779348e-06 0 0)
(-1.5032679 -0.22386634 0 -2.2649359e-06 0 0)
(-1.5018006 -0.2237215 0 5.0543945e-06 0 0)
(-1.5027601 -0.22382428 0 -4.1555008e-06 0 0)
(-1.5631344 -0.52577697 0 -0.13573658 0 0)
(-1.3779579 -0.24333691 0 -0.015071091 0 0)
(-1.435471 -0.24424698 0 -0.0090219347 0 0)
(-1.4824624 -0.22579868 0 -0.0010660817 0 0)
(-1.3947419 -0.21566407 0 -0.00051572661 0 0)
(-1.4321962 -0.21903493 0 -0.00011323558 0 0)
(-1.3835499 -0.21418627 0 -7.7661659e-05 0 0)
(-1.420712 -0.21803365 0 -1.3824575e-05 0 0)
(-1.3824066 -0.21408442 0 9.9779616e-06 0 0)
(-1.4168388 -0.21776935 0 -1.3412962e-05 0 0)
(-1.3831007 -0.21421956 0 1.3172349e-05 0 0)
(-1.4148218 -0.21760003 0 -1.4356425e-05 0 0)
(-1.3842959 -0.21436724 0 1.2332126e-05 0 0)
(-1.4132597 -0.21744568 0 -1.3220596e-05 0 0)
(-1.3855704 -0.21450921 0 1.1807017e-05 0 0)
(-1.4118672 -0.21730196 0 -1.1944397e-05 0 0)
(-1.386811 -0.2146447 0 1.108067e-05 0 0)
(-1.4105796 -0.21716777 0 -1.0839208e-05 0 0)
(-1.3879906 -0.21477292 0 1.0225913e-05 0 0)
(-1.40938 -0.2170423 0 -9.842222e-06 0 0)
(-1.3891022 -0.21489351 0 9.3257337e-06 0 0)
(-1.4082615 -0.21692502 0 -8.9016069e-06 0 0)
(-1.3901441 -0.21500633 0 8.4403692e-06 0 0)
(-1.4072214 -0.21681576 0 -8.0126968e-06 0 0)
(-1.391116 -0.21511142 0 7.5789361e-06 0 0)
(-1.4062568 -0.21671424 0 -7.170252e-06 0 0)
(-1.3920188 -0.21520888 0 6.7674634e-06 0 0)
(-1.4053657 -0.21662032 0 -6.3818915e-06 0 0)
(-1.392854 -0.21529891 0 6.0089371e-06 0 0)
(-1.4045452 -0.21653373 0 -5.651837e-06 0 0)
(-1.3936238 -0.21538178 0 5.3096459e-06 0 0)
(-1.4037922 -0.21645415 0 -4.9810656e-06 0 0)
(-1.3943314 -0.21545785 0 4.6737899e-06 0 0)
(-1.4031027 -0.21638122 0 -4.3809855e-06 0 0)
(-1.3949801 -0.21552752 0 4.1044488e-06 0 0)
(-1.4024723 -0.21631444 0 -3.8427661e-06 0 0)
(-1.3955745 -0.2155913 0 3.602829e-06 0 0)
(-1.4018959 -0.21625331 0 -3.3718059e-06 0 0)
(-1.3961197 -0.21564975 0 3.1691545e-06 0 0)
(-1.4013679 -0.21619727 0 -2.9779722e-06 0 0)
(-1.3966207 -0.21570347 0 2.8006511e-06 0 0)
(-1.4008821 -0.2161456 0 -2.6465174e-06 0 0)
(-1.3970838 -0.21575308 0 2.5101903e-06 0 0)
(-1.4004325 -0.21609774 0 -2.3926602e-06 0 0)