/*--------------------------------*- C++ -*----------------------------------*\
| =========                 |                                                 |
| \\      /  F ield         | OpenFOAM: The Open Source CFD Toolbox           |
|  \\    /   O peration     | Version:  2312                                  |
|   \\  /    A nd           | Website:  www.openfoam.com                      |
|    \\/     M anipulation  |                                                 |
\*---------------------------------------------------------------------------*/
FoamFile
{
    version     2.0;
    format      ascii;
    arch        "LSB;label=32;scalar=64";
    class       volSymmTensorField;
    location    "1";
    object      sigma_0;
}
// * * * * * * * * * * * * * * * * * * * * * * * * * * * * * * * * * * * * * //

dimensions      [0 2 -2 0 0 0 0];

internalField   nonuniform List<symmTensor> 
4000
(
(-2.2434523 -1.0037961 0 -0.40497963 0 0)
(-5.6265055 -0.4399233 0 -0.0029233799 0 0)
(-2.9200352 -0.31307102 0 -0.00084397207 0 0)
(-3.1161794 -0.32221792 0 -4.9369008e-06 0 0)
(-2.9152331 -0.31150296 0 3.741766e-05 0 0)
(-3.0502624 -0.31919329 0 -6.3183197e-05 0 0)
(-2.9072295 -0.31105384 0 4.6950542e-05 0 0)
(-3.0149423 -0.31727434 0 -5.5360842e-05 0 0)
(-2.9114277 -0.31128221 0 5.2124381e-05 0 0)
(-3.0068094 -0.31682531 0 -5.1978531e-05 0 0)
(-2.9148327 -0.31148185 0 4.9800124e-05 0 0)
(-3.0023233 -0.31656964 0 -4.8598079e-05 0 0)
(-2.9179635 -0.31166662 0 4.6761594e-05 0 0)
(-2.9987053 -0.31636143 0 -4.5384872e-05 0 0)
(-2.9210094 -0.31184545 0 4.3760273e-05 0 0)
(-2.9955078 -0.31617701 0 -4.235994e-05 0 0)
(-2.9239305 -0.31201623 0 4.0852855e-05 0 0)
(-2.9925634 -0.31600719 0 -3.9475157e-05 0 0)
(-2.9267131 -0.31217841 0 3.8042668e-05 0 0)
(-2.9897979 -0.31584785 0 -3.6701203e-05 0 0)
(-2.9293645 -0.31233255 0 3.5326543e-05 0 0)
(-2.9871736 -0.31569683 0 -3.4025991e-05 0 0)
(-2.9318987 -0.31247954 0 3.2705422e-05 0 0)
(-2.9846696 -0.3155529 0 -3.1450634e-05 0 0)
(-2.9343252 -0.31261999 0 3.0185318e-05 0 0)
(-2.982273 -0.31541531 0 -2.8981899e-05 0 0)
(-2.9366524 -0.31275443 0 2.7777167e-05 0 0)
(-2.9799767 -0.31528364 0 -2.6632229e-05 0 0)
(-2.9388847 -0.31288312 0 2.5494517e-05 0 0)
(-2.9777762 -0.31515765 0 -2.4415948e-05 0 0)
(-2.9410253 -0.31300626 0 2.3352716e-05 0 0)
(-2.9756687 -0.31503716 0 -2.2348564e-05 0 0)
(-2.943077 -0.313124 0 2.136726e-05 0 0)
(-2.9736507 -0.31492202 0 -2.0445876e-05 0 0)
(-2.9450418 -0.31323644 0 1.955388e-05 0 0)
(-2.9717198 -0.31481212 0 -1.8722423e-05 0 0)
(-2.9469237 -0.31334379 0 1.7926573e-05 0 0)
(-2.9698715 -0.31470724 0 -1.7192005e-05 0 0)
(-2.9487277 -0.31344626 0 1.6498185e-05 0 0)
(-2.9680998 -0.3146071 0 -1.5867193e-05 0 0)
(-2.9504581 -0.3135441 0 1.5280609e-05 0 0)
(-2.9663982 -0.31451138 0 -1.4757921e-05 0 0)
(-2.952124 -0.31363774 0 1.4283768e-05 0 0)
(-2.9647586 -0.31441968 0 -1.387519e-05 0 0)
(-2.9537319 -0.31372749 0 1.351676e-05 0 0)
(-2.9631688 -0.31433141 0 -1.3227605e-05 0 0)
(-2.9552915 -0.31381372 0 1.3013278e-05 0 0)
(-2.9616615 -0.31424788 0 -1.2725586e-05 0 0)
(-2.9571083 -0.31391105 0 1.3158729e-05 0 0)
(-2.9614133 -0.31423422 0 -1.2623657e-05 0 0)
(-1.9409638 -0.91038806 0 -0.37870724 0 0)
(-4.8446173 -0.42023001 0 -0.0079982189 0 0)
(-2.9766497 -0.32084633 0 -0.0025427061 0 0)
(-2.8805896 -0.30960703 0 -5.4339657e-05 0 0)
(-2.7011254 -0.29978436 0 2.3245469e-05 0 0)
(-2.82085 -0.30714834 0 -7.8921375e-05 0 0)
(-2.698564 -0.2996025 0 3.2915499e-05 0 0)
(-2.7907961 -0.30537691 0 -6.2214395e-05 0 0)
(-2.700503 -0.29967031 0 5.543127e-05 0 0)
(-2.783838 -0.3049709 0 -5.7775049e-05 0 0)
(-2.7033211 -0.2998488 0 5.4585042e-05 0 0)
(-2.7799248 -0.3047302 0 -5.3947856e-05 0 0)
(-2.7060628 -0.30002543 0 5.1544291e-05 0 0)
(-2.776713 -0.30452928 0 -5.0281684e-05 0 0)
(-2.708755 -0.30019813 0 4.8336548e-05 0 0)
(-2.7738579 -0.30434995 0 -4.6873017e-05 0 0)
(-2.7113518 -0.30036414 0 4.5146694e-05 0 0)
(-2.7712221 -0.30418421 0 -4.364371e-05 0 0)
(-2.7138332 -0.30052239 0 4.2029769e-05 0 0)
(-2.7687443 -0.30402838 0 -4.0543486e-05 0 0)
(-2.7161996 -0.30067307 0 3.900224e-05 0 0)
(-2.7663937 -0.30388057 0 -3.7552128e-05 0 0)
(-2.7184597 -0.30081678 0 3.6074255e-05 0 0)
(-2.7641548 -0.30373981 0 -3.4671854e-05 0 0)
(-2.7206193 -0.30095392 0 3.3256109e-05 0 0)
(-2.7620177 -0.30360549 0 -3.1910108e-05 0 0)
(-2.7226843 -0.30108487 0 3.0562994e-05 0 0)
(-2.7599772 -0.30347731 0 -2.9282454e-05 0 0)
(-2.7246577 -0.30120983 0 2.8011266e-05 0 0)
(-2.7580301 -0.3033551 0 -2.6805567e-05 0 0)
(-2.726542 -0.30132893 0 2.5618758e-05 0 0)
(-2.7561736 -0.3032387 0 -2.4496949e-05 0 0)
(-2.72834 -0.30144233 0 2.3402867e-05 0 0)
(-2.7544044 -0.30312797 0 -2.2375075e-05 0 0)
(-2.7300539 -0.30155012 0 2.1381849e-05 0 0)
(-2.7527197 -0.30302276 0 -2.0455285e-05 0 0)
(-2.731688 -0.30165255 0 1.9570768e-05 0 0)
(-2.7511146 -0.30292284 0 -1.875306e-05 0 0)
(-2.7332478 -0.3017499 0 1.798371e-05 0 0)
(-2.7495827 -0.30282787 0 -1.7283856e-05 0 0)
(-2.7347381 -0.30184241 0 1.6634579e-05 0 0)
(-2.748117 -0.30273748 0 -1.6056996e-05 0 0)
(-2.7361682 -0.3019306 0 1.5535737e-05 0 0)
(-2.7467095 -0.30265125 0 -1.5089013e-05 0 0)
(-2.7375453 -0.30201485 0 1.4697779e-05 0 0)
(-2.7453474 -0.30256852 0 -1.4395152e-05 0 0)
(-2.7388747 -0.30209519 0 1.4182939e-05 0 0)
(-2.7440277 -0.30248808 0 -1.3761983e-05 0 0)
(-2.7403252 -0.30217626 0 1.5071124e-05 0 0)
(-2.7435557 -0.30245865 0 -1.3314156e-05 0 0)
(-1.8432278 -0.86761026 0 -0.35494049 0 0)
(-4.2539358 -0.39328153 0 -0.0095599166 0 0)
(-2.888032 -0.31996354 0 -0.0038237172 0 0)
(-2.7506968 -0.30257291 0 -0.00016416342 0 0)
(-2.5629483 -0.29193667 0 1.0350629e-05 0 0)
(-2.6719956 -0.29905186 0 -8.4988506e-05 0 0)
(-2.5622967 -0.29189366 0 1.7074107e-05 0 0)
(-2.6457688 -0.29741894 0 -6.2142439e-05 0 0)
(-2.5636718 -0.2919012 0 5.2229413e-05 0 0)
(-2.639452 -0.29703299 0 -5.6401215e-05 0 0)
(-2.5661883 -0.29207075 0 5.2631269e-05 0 0)
(-2.6358896 -0.29680177 0 -5.2558977e-05 0 0)
(-2.5686981 -0.29224293 0 4.9898457e-05 0 0)
(-2.6329458 -0.29660629 0 -4.8901189e-05 0 0)
(-2.5711693 -0.29241165 0 4.6873574e-05 0 0)
(-2.6303186 -0.29643094 0 -4.5536957e-05 0 0)
(-2.5735585 -0.29257426 0 4.3801132e-05 0 0)
(-2.6278898 -0.29626855 0 -4.2370642e-05 0 0)
(-2.5758446 -0.29272956 0 4.0772173e-05 0 0)
(-2.625606 -0.29611571 0 -3.9337012e-05 0 0)
(-2.5780254 -0.29287752 0 3.7818198e-05 0 0)
(-2.6234408 -0.29597072 0 -3.6409579e-05 0 0)
(-2.5801068 -0.29301858 0 3.4956866e-05 0 0)
(-2.6213812 -0.29583276 0 -3.3590994e-05 0 0)
(-2.5820928 -0.29315307 0 3.2200091e-05 0 0)
(-2.619419 -0.2957013 0 -3.0887646e-05 0 0)
(-2.583988 -0.29328127 0 2.9565464e-05 0 0)
(-2.6175502 -0.29557609 0 -2.8316092e-05 0 0)
(-2.5857946 -0.29340333 0 2.7069246e-05 0 0)
(-2.6157718 -0.29545699 0 -2.5892768e-05 0 0)
(-2.5875149 -0.29351938 0 2.4729621e-05 0 0)
(-2.6140812 -0.29534385 0 -2.3634817e-05 0 0)
(-2.5891514 -0.29362958 0 2.25635e-05 0 0)
(-2.6124753 -0.29523652 0 -2.1561066e-05 0 0)
(-2.5907064 -0.29373403 0 2.0589235e-05 0 0)
(-2.6109509 -0.29513483 0 -1.9685595e-05 0 0)
(-2.5921845 -0.29383299 0 1.8821172e-05 0 0)
(-2.609503 -0.29503851 0 -1.8024018e-05 0 0)
(-2.593591 -0.29392677 0 1.7273084e-05 0 0)
(-2.6081253 -0.29494723 0 -1.6592249e-05 0 0)
(-2.594931 -0.29401567 0 1.5959068e-05 0 0)
(-2.6068105 -0.29486054 0 -1.5398545e-05 0 0)
(-2.5962135 -0.29410021 0 1.4892609e-05 0 0)
(-2.6055507 -0.29477802 0 -1.4462532e-05 0 0)
(-2.597446 -0.29418083 0 1.4084939e-05 0 0)
(-2.6043335 -0.29469901 0 -1.3806486e-05 0 0)
(-2.5986336 -0.29425754 0 1.3608682e-05 0 0)
(-2.6031475 -0.29462151 0 -1.3169826e-05 0 0)
(-2.5999029 -0.29433102 0 1.4959193e-05 0 0)
(-2.6026094 -0.29458895 0 -1.3471329e-05 0 0)
(-1.7391565 -0.81299309 0 -0.32353976 0 0)
(-3.8470197 -0.37639575 0 -0.011277303 0 0)
(-2.7860868 -0.31906601 0 -0.0052939243 0 0)
(-2.6279414 -0.29581803 0 -0.00028742726 0 0)
(-2.4308523 -0.2842407 0 -1.7296297e-05 0 0)
(-2.5283853 -0.29097 0 -8.8659248e-05 0 0)
(-2.4289338 -0.28417947 0 -4.1912319e-06 0 0)
(-2.5053057 -0.28946528 0 -5.729863e-05 0 0)
(-2.4298804 -0.28413375 0 4.4304248e-05 0 0)
(-2.4995379 -0.28909773 0 -5.0451146e-05 0 0)
(-2.4321503 -0.28429482 0 4.6276723e-05 0 0)
(-2.4962577 -0.28887525 0 -4.6909881e-05 0 0)
(-2.4344728 -0.28446279 0 4.4132497e-05 0 0)
(-2.4935283 -0.28868479 0 -4.3538178e-05 0 0)
(-2.436765 -0.28462767 0 4.1562395e-05 0 0)
(-2.4910817 -0.2885131 0 -4.0477477e-05 0 0)
(-2.4389846 -0.28478694 0 3.88638e-05 0 0)
(-2.4888162 -0.28835379 0 -3.7622241e-05 0 0)
(-2.4411104 -0.28493925 0 3.6166652e-05 0 0)
(-2.4866857 -0.28820377 0 -3.4893857e-05 0 0)
(-2.4431385 -0.28508441 0 3.3520077e-05 0 0)
(-2.4846672 -0.28806149 0 -3.2260296e-05 0 0)
(-2.4450723 -0.28522271 0 3.0949961e-05 0 0)
(-2.4827501 -0.28792626 0 -2.9724263e-05 0 0)
(-2.4469146 -0.28535439 0 2.8470222e-05 0 0)
(-2.4809276 -0.28779761 0 -2.729109e-05 0 0)
(-2.4486687 -0.28547965 0 2.6099943e-05 0 0)
(-2.4791963 -0.28767536 0 -2.4977076e-05 0 0)
(-2.4503364 -0.28559863 0 2.3854721e-05 0 0)
(-2.4775537 -0.28755937 0 -2.279753e-05 0 0)
(-2.4519196 -0.28571144 0 2.1751463e-05 0 0)
(-2.4759973 -0.28744949 0 -2.0767857e-05 0 0)
(-2.453421 -0.28581825 0 1.9805449e-05 0 0)
(-2.4745241 -0.28734558 0 -1.8905922e-05 0 0)
(-2.4548427 -0.28591918 0 1.8033633e-05 0 0)
(-2.4731307 -0.28724741 0 -1.7223068e-05 0 0)
(-2.4561893 -0.28601453 0 1.6448323e-05 0 0)
(-2.4718119 -0.28715471 0 -1.5733368e-05 0 0)
(-2.4574664 -0.28610463 0 1.5061529e-05 0 0)
(-2.4705618 -0.2870671 0 -1.4452568e-05 0 0)
(-2.4586789 -0.28618981 0 1.3885893e-05 0 0)
(-2.4693726 -0.2869841 0 -1.3385598e-05 0 0)
(-2.4598359 -0.28627063 0 1.2934918e-05 0 0)
(-2.4682368 -0.28690528 0 -1.2553585e-05 0 0)
(-2.4609448 -0.28634757 0 1.2217189e-05 0 0)
(-2.4671424 -0.28682994 0 -1.1981165e-05 0 0)
(-2.4620105 -0.28642066 0 1.1809994e-05 0 0)
(-2.4660709 -0.28675535 0 -1.1338785e-05 0 0)
(-2.4631219 -0.28648701 0 1.363484e-05 0 0)
(-2.465473 -0.28671904 0 -1.2165661e-05 0 0)
(-1.6908438 -0.78444857 0 -0.30655072 0 0)
(-3.4333534 -0.35779546 0 -0.012666441 0 0)
(-2.6431736 -0.31504373 0 -0.0065146863 0 0)
(-2.5032285 -0.28896665 0 -0.00041408291 0 0)
(-2.3050515 -0.27667063 0 -5.2645981e-05 0 0)
(-2.3897122 -0.28291083 0 -9.4058884e-05 0 0)
(-2.2987929 -0.2764379 0 -2.2761966e-05 0 0)
(-2.3690422 -0.28151911 0 -5.2413225e-05 0 0)
(-2.29934 -0.27635624 0 3.6853162e-05 0 0)
(-2.3637265 -0.28116837 0 -4.4541216e-05 0 0)
(-2.301406 -0.27651151 0 4.011289e-05 0 0)
(-2.3606867 -0.28095384 0 -4.1331136e-05 0 0)
(-2.303572 -0.27667632 0 3.8484849e-05 0 0)
(-2.3581435 -0.28076794 0 -3.8253696e-05 0 0)
(-2.3057134 -0.27683807 0 3.6343273e-05 0 0)
(-2.3558536 -0.2805995 0 -3.5493483e-05 0 0)
(-2.3077884 -0.27699453 0 3.4006363e-05 0 0)
(-2.3537298 -0.28044293 0 -3.2944821e-05 0 0)
(-2.3097766 -0.27714425 0 3.1634099e-05 0 0)
(-2.3517324 -0.28029544 0 -3.051797e-05 0 0)
(-2.3116729 -0.27728693 0 2.9290432e-05 0 0)
(-2.3498417 -0.28015564 0 -2.8175654e-05 0 0)
(-2.313479 -0.27742274 0 2.7009056e-05 0 0)
(-2.3480491 -0.28002295 0 -2.5920709e-05 0 0)
(-2.3151968 -0.27755182 0 2.4804652e-05 0 0)
(-2.3463487 -0.27989697 0 -2.3756857e-05 0 0)
(-2.3168284 -0.27767435 0 2.2697979e-05 0 0)
(-2.3447378 -0.27977754 0 -2.1700108e-05 0 0)
(-2.3183755 -0.27779044 0 2.070315e-05 0 0)
(-2.3432142 -0.27966453 0 -1.9764254e-05 0 0)
(-2.3198397 -0.27790018 0 1.8835979e-05 0 0)
(-2.3417755 -0.2795578 0 -1.7962786e-05 0 0)
(-2.3212235 -0.27800377 0 1.7109836e-05 0 0)
(-2.3404185 -0.27945718 0 -1.6312524e-05 0 0)
(-2.3225293 -0.27810134 0 1.5540093e-05 0 0)
(-2.3391398 -0.27936244 0 -1.4821895e-05 0 0)
(-2.3237617 -0.27819322 0 1.4136943e-05 0 0)
(-2.3379342 -0.27927324 0 -1.3503643e-05 0 0)
(-2.3249261 -0.27827978 0 1.2910528e-05 0 0)
(-2.3367957 -0.27918921 0 -1.2372462e-05 0 0)
(-2.3260277 -0.27836137 0 1.1871782e-05 0 0)
(-2.3357166 -0.27910981 0 -1.143023e-05 0 0)
(-2.3270752 -0.27843858 0 1.1033413e-05 0 0)
(-2.3346896 -0.2790346 0 -1.0698198e-05 0 0)
(-2.328076 -0.27851194 0 1.0400537e-05 0 0)
(-2.3337031 -0.27896286 0 -1.020168e-05 0 0)
(-2.3290349 -0.27858154 0 1.0046513e-05 0 0)
(-2.3327353 -0.27889137 0 -9.5513346e-06 0 0)
(-2.3300144 -0.27864205 0 1.2198658e-05 0 0)
(-2.3321087 -0.27885249 0 -1.0779163e-05 0 0)
(-1.6208595 -0.73973913 0 -0.27941727 0 0)
(-3.0636243 -0.3397316 0 -0.013271745 0 0)
(-2.4923197 -0.31001992 0 -0.0075816177 0 0)
(-2.3780587 -0.28206761 0 -0.00054570068 0 0)
(-2.1834945 -0.26916279 0 -9.9329822e-05 0 0)
(-2.2558315 -0.27488743 0 -0.00010261498 0 0)
(-2.1721482 -0.26868132 0 -3.819402e-05 0 0)
(-2.2368546 -0.27357842 0 -4.8327479e-05 0 0)
(-2.1722497 -0.2685738 0 3.0808614e-05 0 0)
(-2.2318795 -0.27324242 0 -3.9586673e-05 0 0)
(-2.1741238 -0.26872485 0 3.5037001e-05 0 0)
(-2.2290457 -0.27303521 0 -3.6693095e-05 0 0)
(-2.17615 -0.26888715 0 3.3797297e-05 0 0)
(-2.226669 -0.27285358 0 -3.3863969e-05 0 0)
(-2.1781573 -0.26904621 0 3.2003433e-05 0 0)
(-2.2245203 -0.27268814 0 -3.1347912e-05 0 0)
(-2.1801025 -0.2692001 0 2.9963902e-05 0 0)
(-2.2225245 -0.27253411 0 -2.904962e-05 0 0)
(-2.1819664 -0.26934741 0 2.7859254e-05 0 0)
(-2.2206478 -0.27238902 0 -2.6870685e-05 0 0)
(-2.183743 -0.26948773 0 2.5765667e-05 0 0)
(-2.2188734 -0.2722516 0 -2.4769136e-05 0 0)
(-2.185433 -0.26962111 0 2.3723183e-05 0 0)
(-2.2171941 -0.27212139 0 -2.2747201e-05 0 0)
(-2.1870373 -0.26974765 0 2.1747329e-05 0 0)
(-2.215605 -0.27199802 0 -2.0807445e-05 0 0)
(-2.1885574 -0.26986748 0 1.9859896e-05 0 0)
(-2.2141039 -0.27188137 0 -1.8965167e-05 0 0)
(-2.1899946 -0.26998069 0 1.8073998e-05 0 0)
(-2.2126886 -0.27177131 0 -1.7232914e-05 0 0)
(-2.1913505 -0.27008739 0 1.6404056e-05 0 0)
(-2.2113567 -0.2716677 0 -1.5622419e-05 0 0)
(-2.1926277 -0.27018778 0 1.4861944e-05 0 0)
(-2.2101052 -0.27157034 0 -1.4149596e-05 0 0)
(-2.1938285 -0.27028202 0 1.346145e-05 0 0)
(-2.2089302 -0.27147897 0 -1.2820197e-05 0 0)
(-2.1949577 -0.27037047 0 1.2210983e-05 0 0)
(-2.2078268 -0.27139324 0 -1.1645513e-05 0 0)
(-2.1960206 -0.27045353 0 1.1119019e-05 0 0)
(-2.2067887 -0.27131273 0 -1.0639843e-05 0 0)
(-2.1970225 -0.27053158 0 1.0194493e-05 0 0)
(-2.2058085 -0.27123689 0 -9.801726e-06 0 0)
(-2.1979717 -0.27060523 0 9.449888e-06 0 0)
(-2.2048788 -0.27116523 0 -9.1522894e-06 0 0)
(-2.1988758 -0.27067505 0 8.8860954e-06 0 0)
(-2.2039889 -0.27109704 0 -8.7159797e-06 0 0)
(-2.1997394 -0.27074121 0 8.5694742e-06 0 0)
(-2.203115 -0.27102876 0 -8.0541878e-06 0 0)
(-2.2006036 -0.27079664 0 1.0935466e-05 0 0)
(-2.2024788 -0.27098791 0 -9.5396014e-06 0 0)
(-1.5786849 -0.69351251 0 -0.24767925 0 0)
(-2.7109932 -0.32241171 0 -0.01375447 0 0)
(-2.328945 -0.30324164 0 -0.0083957301 0 0)
(-2.2482234 -0.27480333 0 -0.00066217033 0 0)
(-2.0650623 -0.2616724 0 -0.00015742806 0 0)
(-2.1264031 -0.26688624 0 -0.00011244037 0 0)
(-2.0490416 -0.26091345 0 -5.1007526e-05 0 0)
(-2.1086784 -0.26564072 0 -4.4584586e-05 0 0)
(-2.0486888 -0.26078959 0 2.581616e-05 0 0)
(-2.1039421 -0.26531793 0 -3.5294877e-05 0 0)
(-2.0503671 -0.26093726 0 3.0743168e-05 0 0)
(-2.1012791 -0.26511731 0 -3.2721747e-05 0 0)
(-2.0522612 -0.26109732 0 2.9795801e-05 0 0)
(-2.0990514 -0.2649397 0 -3.0111632e-05 0 0)
(-2.0541459 -0.26125389 0 2.8290572e-05 0 0)
(-2.0970322 -0.26477716 0 -2.7801174e-05 0 0)
(-2.0559723 -0.26140534 0 2.6502812e-05 0 0)
(-2.0951545 -0.26462563 0 -2.5714195e-05 0 0)
(-2.0577216 -0.26155026 0 2.4625722e-05 0 0)
(-2.0933896 -0.26448292 0 -2.3745748e-05 0 0)
(-2.0593875 -0.26168819 0 2.2745082e-05 0 0)
(-2.0917232 -0.26434793 0 -2.1849448e-05 0 0)
(-2.0609698 -0.2618191 0 2.0907042e-05 0 0)
(-2.0901494 -0.26422024 0 -2.0027025e-05 0 0)
(-2.0624687 -0.26194304 0 1.9126945e-05 0 0)
(-2.0886638 -0.26409955 0 -1.8279593e-05 0 0)
(-2.0638853 -0.2620601 0 1.7428058e-05 0 0)
(-2.0872646 -0.26398575 0 -1.6621872e-05 0 0)
(-2.0652208 -0.26217036 0 1.5821944e-05 0 0)
(-2.0859497 -0.26387871 0 -1.5065122e-05 0 0)
(-2.0664767 -0.26227396 0 1.4322076e-05 0 0)
(-2.0847166 -0.26377827 0 -1.3619377e-05 0 0)
(-2.0676555 -0.26237111 0 1.2938843e-05 0 0)
(-2.0835623 -0.26368422 0 -1.2299829e-05 0 0)
(-2.0687599 -0.26246199 0 1.168455e-05 0 0)
(-2.0824826 -0.26359625 0 -1.1109689e-05 0 0)
(-2.0697945 -0.26254699 0 1.0566049e-05 0 0)
(-2.0814726 -0.26351399 0 -1.0059267e-05 0 0)
(-2.0707647 -0.26262653 0 9.5902758e-06 0 0)
(-2.0805262 -0.26343701 0 -9.1619552e-06 0 0)
(-2.0716759 -0.26270105 0 8.764451e-06 0 0)
(-2.0796358 -0.2633647 0 -8.4136768e-06 0 0)
(-2.072536 -0.26277116 0 8.1005364e-06 0 0)
(-2.0787944 -0.26329657 0 -7.835036e-06 0 0)
(-2.0733527 -0.26283747 0 7.5958143e-06 0 0)
(-2.0779918 -0.2632319 0 -7.449675e-06 0 0)
(-2.0741305 -0.26290023 0 7.3079669e-06 0 0)
(-2.0772033 -0.2631669 0 -6.7793272e-06 0 0)
(-2.0748933 -0.26295118 0 9.7977392e-06 0 0)
(-2.0765717 -0.26312471 0 -8.4284865e-06 0 0)
(-1.5681073 -0.67024111 0 -0.23157311 0 0)
(-2.3885428 -0.30668105 0 -0.014508141 0 0)
(-2.1582744 -0.29463814 0 -0.0088939957 0 0)
(-2.114081 -0.26727467 0 -0.00081201254 0 0)
(-1.9492153 -0.2543023 0 -0.0002521309 0 0)
(-2.0014539 -0.25895134 0 -0.00012903404 0 0)
(-1.929557 -0.25315519 0 -6.3810684e-05 0 0)
(-1.9844869 -0.25771017 0 -4.1205701e-05 0 0)
(-1.928685 -0.2530054 0 2.1532115e-05 0 0)
(-1.9798781 -0.25739412 0 -3.134014e-05 0 0)
(-1.9301576 -0.25314904 0 2.6975253e-05 0 0)
(-1.9773577 -0.25719938 0 -2.9131577e-05 0 0)
(-1.931928 -0.25330719 0 2.6227756e-05 0 0)
(-1.9752667 -0.25702576 0 -2.6741366e-05 0 0)
(-1.9337007 -0.25346151 0 2.4964131e-05 0 0)
(-1.973368 -0.25686612 0 -2.4618655e-05 0 0)
(-1.9354177 -0.25361059 0 2.3397826e-05 0 0)
(-1.9716006 -0.25671711 0 -2.2721021e-05 0 0)
(-1.9370606 -0.25375312 0 2.1723821e-05 0 0)
(-1.9699403 -0.25657685 0 -2.0941331e-05 0 0)
(-1.9386233 -0.25388861 0 2.0034515e-05 0 0)
(-1.9683751 -0.25644435 0 -1.9229899e-05 0 0)
(-1.9401049 -0.25401695 0 1.8380637e-05 0 0)
(-1.9669001 -0.25631929 0 -1.7587477e-05 0 0)
(-1.9415053 -0.2541382 0 1.6777561e-05 0 0)
(-1.9655115 -0.25620137 0 -1.6014127e-05 0 0)
(-1.9428252 -0.25425239 0 1.5249302e-05 0 0)
(-1.9642077 -0.25609051 0 -1.4523633e-05 0 0)
(-1.9440658 -0.25435962 0 1.3806335e-05 0 0)
(-1.9629865 -0.25598657 0 -1.3126079e-05 0 0)
(-1.9452286 -0.25446004 0 1.2460801e-05 0 0)
(-1.9618454 -0.25588936 0 -1.1829914e-05 0 0)
(-1.9463162 -0.25455388 0 1.1221902e-05 0 0)
(-1.9607812 -0.25579866 0 -1.064962e-05 0 0)
(-1.9473314 -0.25464136 0 1.010038e-05 0 0)
(-1.9597896 -0.25571413 0 -9.5860226e-06 0 0)
(-1.9482789 -0.25472288 0 9.1017423e-06 0 0)
(-1.9588657 -0.25563536 0 -8.6482706e-06 0 0)
(-1.949164 -0.25479891 0 8.2315893e-06 0 0)
(-1.9580033 -0.2555619 0 -7.8494285e-06 0 0)
(-1.9499922 -0.2548699 0 7.4951195e-06 0 0)
(-1.957195 -0.25549312 0 -7.1826594e-06 0 0)
(-1.9507712 -0.25493648 0 6.9044625e-06 0 0)
(-1.956434 -0.25542849 0 -6.668021e-06 0 0)
(-1.9515084 -0.25499932 0 6.453025e-06 0 0)
(-1.9557105 -0.25536731 0 -6.3276308e-06 0 0)
(-1.9522086 -0.25505871 0 6.1900383e-06 0 0)
(-1.955 -0.25530565 0 -5.6551473e-06 0 0)
(-1.9528816 -0.25510568 0 8.7328333e-06 0 0)
(-1.954383 -0.25526265 0 -7.4064982e-06 0 0)
(-1.5564404 -0.62993232 0 -0.20340635 0 0)
(-2.095463 -0.29208736 0 -0.015165249 0 0)
(-2.0008055 -0.28733929 0 -0.0095640826 0 0)
(-1.9772743 -0.25907564 0 -0.00089824951 0 0)
(-1.8293585 -0.2464209 0 -0.00031833481 0 0)
(-1.8788684 -0.25091142 0 -0.00013638333 0 0)
(-1.8128103 -0.24534537 0 -7.2667513e-05 0 0)
(-1.8639727 -0.24977096 0 -3.7516789e-05 0 0)
(-1.8121915 -0.24521832 0 1.7800127e-05 0 0)
(-1.8596659 -0.24947131 0 -2.7689994e-05 0 0)
(-1.8135293 -0.24536118 0 2.3562586e-05 0 0)
(-1.8572752 -0.24928209 0 -2.5845076e-05 0 0)
(-1.8151771 -0.24551723 0 2.2973665e-05 0 0)
(-1.8553027 -0.24911201 0 -2.3660379e-05 0 0)
(-1.8168411 -0.24566919 0 2.1923953e-05 0 0)
(-1.8535136 -0.24895513 0 -2.1709119e-05 0 0)
(-1.8184545 -0.24581585 0 2.0558629e-05 0 0)
(-1.8518491 -0.24880864 0 -1.9984361e-05 0 0)
(-1.8199974 -0.24595593 0 1.9070559e-05 0 0)
(-1.8502872 -0.24867088 0 -1.8377775e-05 0 0)
(-1.821463 -0.24608889 0 1.7556995e-05 0 0)
(-1.8488174 -0.24854096 0 -1.6836537e-05 0 0)
(-1.8228498 -0.24621459 0 1.6073236e-05 0 0)
(-1.8474356 -0.24841861 0 -1.5360436e-05 0 0)
(-1.8241575 -0.24633303 0 1.4633742e-05 0 0)
(-1.8461384 -0.24830356 0 -1.3948221e-05 0 0)
(-1.8253867 -0.24644426 0 1.3263704e-05 0 0)
(-1.8449242 -0.24819574 0 -1.2612742e-05 0 0)
(-1.8265383 -0.24654838 0 1.1971918e-05 0 0)
(-1.843791 -0.24809497 0 -1.1362879e-05 0 0)
(-1.8276141 -0.24664555 0 1.0769556e-05 0 0)
(-1.8427359 -0.24800107 0 -1.0205433e-05 0 0)
(-1.8286167 -0.24673602 0 9.6645591e-06 0 0)
(-1.8417556 -0.24791377 0 -9.1542701e-06 0 0)
(-1.8295491 -0.24682006 0 8.66614e-06 0 0)
(-1.8408458 -0.24783269 0 -8.2079208e-06 0 0)
(-1.830416 -0.24689809 0 7.7786194e-06 0 0)
(-1.8400014 -0.24775742 0 -7.3747367e-06 0 0)
(-1.8312228 -0.2469706 0 7.0062611e-06 0 0)
(-1.8392164 -0.24768747 0 -6.6669261e-06 0 0)
(-1.8319748 -0.24703809 0 6.3525984e-06 0 0)
(-1.8384834 -0.24762218 0 -6.0755561e-06 0 0)
(-1.8326796 -0.24710118 0 5.8295488e-06 0 0)
(-1.8377958 -0.24756102 0 -5.6198712e-06 0 0)
(-1.8333443 -0.24716058 0 5.4274178e-06 0 0)
(-1.8371445 -0.24750327 0 -5.3205984e-06 0 0)
(-1.8339739 -0.24721665 0 5.186862e-06 0 0)
(-1.8365052 -0.24744497 0 -4.6514435e-06 0 0)
(-1.8345671 -0.24726005 0 7.7238902e-06 0 0)
(-1.8359099 -0.24740165 0 -6.4650533e-06 0 0)
(-1.5536394 -0.60795242 0 -0.18896111 0 0)
(-1.8520694 -0.27933406 0 -0.015969077 0 0)
(-1.8327879 -0.27418665 0 -0.0090157493 0 0)
(-1.8450604 -0.2523072 0 -0.0013548285 0 0)
(-1.7189636 -0.23946131 0 -0.00050710377 0 0)
(-1.7619673 -0.24307352 0 -0.00016033992 0 0)
(-1.7002764 -0.23759419 0 -8.3476267e-05 0 0)
(-1.7474166 -0.24184391 0 -3.3680201e-05 0 0)
(-1.699248 -0.23743094 0 1.4859152e-05 0 0)
(-1.7432261 -0.24154684 0 -2.405292e-05 0 0)
(-1.7004447 -0.23757134 0 2.0585342e-05 0 0)
(-1.7409766 -0.24136365 0 -2.2748035e-05 0 0)
(-1.7020014 -0.23772645 0 2.0021433e-05 0 0)
(-1.7391316 -0.24119782 0 -2.0808338e-05 0 0)
(-1.7035742 -0.2378766 0 1.9136894e-05 0 0)
(-1.7374521 -0.24104402 0 -1.902825e-05 0 0)
(-1.7050938 -0.238021 0 1.7949068e-05 0 0)
(-1.7358868 -0.2409002 0 -1.7466169e-05 0 0)
(-1.7065432 -0.23815861 0 1.6631112e-05 0 0)
(-1.7344187 -0.24076504 0 -1.6020732e-05 0 0)
(-1.7079172 -0.23828897 0 1.528042e-05 0 0)
(-1.7330397 -0.24063781 0 -1.4638119e-05 0 0)
(-1.7092144 -0.23841192 0 1.3954826e-05 0 0)
(-1.7317464 -0.24051828 0 -1.3317063e-05 0 0)
(-1.7104344 -0.23852745 0 1.2668064e-05 0 0)
(-1.7305359 -0.24040621 0 -1.2055391e-05 0 0)
(-1.7115779 -0.23863562 0 1.1445704e-05 0 0)
(-1.7294065 -0.24030151 0 -1.0864775e-05 0 0)
(-1.7126458 -0.23873654 0 1.0295323e-05 0 0)
(-1.728356 -0.240204 0 -9.7529145e-06 0 0)
(-1.7136399 -0.23883039 0 9.226737e-06 0 0)
(-1.7273816 -0.24011345 0 -8.7251124e-06 0 0)
(-1.7145631 -0.23891746 0 8.2468883e-06 0 0)
(-1.7264798 -0.24002958 0 -7.7945859e-06 0 0)
(-1.7154184 -0.23899803 0 7.3633799e-06 0 0)
(-1.7256462 -0.23995199 0 -6.9577206e-06 0 0)
(-1.7162105 -0.23907257 0 6.5795108e-06 0 0)
(-1.7248755 -0.23988021 0 -6.2218926e-06 0 0)
(-1.7169448 -0.23914158 0 5.8984366e-06 0 0)
(-1.7241619 -0.23981375 0 -5.5989634e-06 0 0)
(-1.7176267 -0.23920559 0 5.321701e-06 0 0)
(-1.7234982 -0.23975192 0 -5.0778377e-06 0 0)
(-1.7182633 -0.23926523 0 4.8616688e-06 0 0)
(-1.7228779 -0.23969418 0 -4.6769038e-06 0 0)
(-1.7188618 -0.23932124 0 4.5053218e-06 0 0)
(-1.7222924 -0.2396398 0 -4.4148629e-06 0 0)
(-1.7194272 -0.23937406 0 4.2859326e-06 0 0)
(-1.7217184 -0.23958485 0 -3.7553614e-06 0 0)
(-1.7199492 -0.23941421 0 6.768171e-06 0 0)
(-1.7211496 -0.2395416 0 -5.6027529e-06 0 0)
(-1.5567473 -0.5710601 0 -0.16404366 0 0)
(-1.6533579 -0.26531567 0 -0.015353972 0 0)
(-1.6884759 -0.26691091 0 -0.010107598 0 0)
(-1.7142211 -0.2425622 0 -0.0011144433 0 0)
(-1.6043532 -0.23119828 0 -0.00048934616 0 0)
(-1.647511 -0.23500802 0 -0.00014832872 0 0)
(-1.5908596 -0.22977744 0 -8.4915405e-05 0 0)
(-1.6347668 -0.23391346 0 -2.870213e-05 0 0)
(-1.5900432 -0.22964772 0 1.2338069e-05 0 0)
(-1.6307275 -0.23362778 0 -2.071141e-05 0 0)
(-1.5910481 -0.22978497 0 1.7816282e-05 0 0)
(-1.6285317 -0.23344742 0 -1.9898785e-05 0 0)
(-1.5924619 -0.22993693 0 1.7286936e-05 0 0)
(-1.6267689 -0.23328432 0 -1.8174552e-05 0 0)
(-1.5939264 -0.23008442 0 1.6557828e-05 0 0)
(-1.6251806 -0.23313314 0 -1.6550473e-05 0 0)
(-1.5953501 -0.23022622 0 1.5535648e-05 0 0)
(-1.6237061 -0.23299191 0 -1.5139024e-05 0 0)
(-1.5967088 -0.2303612 0 1.4376788e-05 0 0)
(-1.6223266 -0.23285942 0 -1.3843911e-05 0 0)
(-1.5979951 -0.23048882 0 1.3178568e-05 0 0)
(-1.621034 -0.23273498 0 -1.2609922e-05 0 0)
(-1.5992068 -0.23060889 0 1.2001717e-05 0 0)
(-1.6198251 -0.23261838 0 -1.1434568e-05 0 0)
(-1.6003435 -0.23072141 0 1.0858461e-05 0 0)
(-1.618697 -0.23250939 0 -1.0314528e-05 0 0)
(-1.6014057 -0.23082641 0 9.7752185e-06 0 0)
(-1.617648 -0.2324079 0 -9.2602353e-06 0 0)
(-1.6023944 -0.23092405 0 8.7578078e-06 0 0)
(-1.6166759 -0.23231372 0 -8.2782601e-06 0 0)
(-1.6033117 -0.23101452 0 7.8150479e-06 0 0)
(-1.6157774 -0.23222657 0 -7.3723116e-06 0 0)
(-1.6041603 -0.23109814 0 6.9528213e-06 0 0)
(-1.6149492 -0.23214617 0 -6.5550556e-06 0 0)
(-1.6049436 -0.23117523 0 6.1771654e-06 0 0)
(-1.6141866 -0.23207205 0 -5.8208549e-06 0 0)
(-1.6056662 -0.23124627 0 5.4905263e-06 0 0)
(-1.6134845 -0.23200376 0 -5.1764375e-06 0 0)
(-1.6063334 -0.2313118 0 4.894892e-06 0 0)
(-1.612837 -0.23194076 0 -4.6328327e-06 0 0)
(-1.6069506 -0.23137238 0 4.390282e-06 0 0)
(-1.6122371 -0.23188234 0 -4.1774124e-06 0 0)
(-1.6075247 -0.23142863 0 3.9890583e-06 0 0)
(-1.6116785 -0.23182795 0 -3.8275477e-06 0 0)
(-1.6080625 -0.23148131 0 3.6757252e-06 0 0)
(-1.6111533 -0.23177688 0 -3.6000463e-06 0 0)
(-1.6085692 -0.23153093 0 3.476608e-06 0 0)
(-1.6106389 -0.23172525 0 -2.9551895e-06 0 0)
(-1.6090277 -0.23156813 0 5.8635379e-06 0 0)
(-1.6100999 -0.23168243 0 -4.8184281e-06 0 0)
(-1.5586313 -0.55116116 0 -0.15163562 0 0)
(-1.4992386 -0.25450365 0 -0.015669815 0 0)
(-1.5514595 -0.25498035 0 -0.0094968111 0 0)
(-1.5959129 -0.23445197 0 -0.0011522023 0 0)
(-1.4976047 -0.22350596 0 -0.00052399696 0 0)
(-1.5375849 -0.22701183 0 -0.00013238965 0 0)
(-1.4849727 -0.2219565 0 -8.0801152e-05 0 0)
(-1.5256163 -0.22596628 0 -2.1025241e-05 0 0)
(-1.4841686 -0.22185122 0 1.1375123e-05 0 0)
(-1.5218278 -0.22570011 0 -1.7007906e-05 0 0)
(-1.4851362 -0.22199345 0 1.5515025e-05 0 0)
(-1.5197973 -0.225528 0 -1.7122625e-05 0 0)
(-1.4864919 -0.22214569 0 1.4806494e-05 0 0)
(-1.5181613 -0.22536969 0 -1.5693563e-05 0 0)
(-1.4878825 -0.22229166 0 1.4174931e-05 0 0)
(-1.5166773 -0.22522191 0 -1.423821e-05 0 0)
(-1.4892245 -0.22243119 0 1.3296013e-05 0 0)
(-1.5152954 -0.22508362 0 -1.2974233e-05 0 0)
(-1.4904996 -0.22256355 0 1.22838e-05 0 0)
(-1.5140027 -0.22495399 0 -1.1822512e-05 0 0)
(-1.4917029 -0.22268836 0 1.1228981e-05 0 0)
(-1.5127934 -0.22483249 0 -1.0729695e-05 0 0)
(-1.4928334 -0.22280544 0 1.0192567e-05 0 0)
(-1.5116654 -0.22471895 0 -9.6924377e-06 0 0)
(-1.4938907 -0.22291483 0 9.185383e-06 0 0)
(-1.5106161 -0.22461315 0 -8.7067057e-06 0 0)
(-1.4948756 -0.22301658 0 8.2338412e-06 0 0)
(-1.5096437 -0.22451496 0 -7.7816011e-06 0 0)
(-1.4957893 -0.22311085 0 7.3424759e-06 0 0)
(-1.5087457 -0.22442417 0 -6.9225355e-06 0 0)
(-1.496634 -0.22319789 0 6.5187503e-06 0 0)
(-1.507919 -0.22434048 0 -6.1318399e-06 0 0)
(-1.4974127 -0.22327803 0 5.7677311e-06 0 0)
(-1.5071599 -0.22426355 0 -5.4215764e-06 0 0)
(-1.4981285 -0.22335162 0 5.0938454e-06 0 0)
(-1.5064637 -0.22419292 0 -4.7842516e-06 0 0)
(-1.4987864 -0.22341918 0 4.4988227e-06 0 0)
(-1.5058253 -0.22412809 0 -4.2257915e-06 0 0)
(-1.4993913 -0.22348127 0 3.9837461e-06 0 0)
(-1.505239 -0.2240685 0 -3.7568501e-06 0 0)
(-1.4999488 -0.22353845 0 3.5467912e-06 0 0)
(-1.504698 -0.22401345 0 -3.3632717e-06 0 0)
(-1.5004653 -0.22359137 0 3.2009457e-06 0 0)
(-1.5041961 -0.22396235 0 -3.0613581e-06 0 0)
(-1.5009475 -0.2236408 0 2.928048e-06 0 0)
(-1.503726 -0.22391449 0 -2.8655142e-06 0 0)
(-1.5014008 -0.2236873 0 2.7491294e-06 0 0)
(-1.5032663 -0.22386614 0 -2.2411129e-06 0 0)
(-1.5018022 -0.22372178 0 5.0077017e-06 0 0)
(-1.5027591 -0.22382404 0 -4.1082751e-06 0 0)
(-1.5611083 -0.5170429 0 -0.13044615 0 0)
(-1.3777984 -0.24282711 0 -0.014741379 0 0)
(-1.4352529 -0.24415344 0 -0.0089822888 0 0)
(-1.4823148 -0.22581591 0 -0.0010758698 0 0)
(-1.3945686 -0.21565515 0 -0.00051814527 0 0)
(-1.4323421 -0.21904852 0 -0.00011313712 0 0)
(-1.3834505 -0.21417225 0 -7.6828732e-05 0 0)
(-1.420847 -0.21804723 0 -1.4067693e-05 0 0)
(-1.382298 -0.21407132 0 1.0311653e-05 0 0)
(-1.4169637 -0.21778216 0 -1.3599654e-05 0 0)
(-1.3829955 -0.21420762 0 1.3355748e-05 0 0)
(-1.4149341 -0.21761168 0 -1.4526212e-05 0 0)
(-1.3841986 -0.2143564 0 1.2488915e-05 0 0)
(-1.4133594 -0.21745608 0 -1.3372806e-05 0 0)
(-1.3854828 -0.21449956 0 1.1946896e-05 0 0)
(-1.4119543 -0.21731108 0 -1.2077467e-05 0 0)
(-1.3867341 -0.21463629 0 1.1203038e-05 0 0)
(-1.4106545 -0.21717561 0 -1.0953319e-05 0 0)
(-1.3879248 -0.21476576 0 1.0330294e-05 0 0)
(-1.409443 -0.21704889 0 -9.9378139e-06 0 0)
(-1.3890472 -0.21488756 0 9.4120532e-06 0 0)
(-1.4083133 -0.21693043 0 -8.9794421e-06 0 0)
(-1.3900993 -0.21500152 0 8.5098639e-06 0 0)
(-1.4072628 -0.21682006 0 -8.0739039e-06 0 0)
(-1.3910807 -0.21510765 0 7.6324331e-06 0 0)
(-1.4062889 -0.21671755 0 -7.216306e-06 0 0)
(-1.3919919 -0.21520604 0 6.8066518e-06 0 0)
(-1.4053894 -0.21662276 0 -6.4143128e-06 0 0)
(-1.3928345 -0.21529688 0 6.0352883e-06 0 0)
(-1.4045619 -0.21653542 0 -5.6723096e-06 0 0)
(-1.3936106 -0.21538043 0 5.3248081e-06 0 0)
(-1.4038029 -0.21645522 0 -4.9911293e-06 0 0)
(-1.3943234 -0.21545706 0 4.6794187e-06 0 0)
(-1.4031087 -0.21638179 0 -4.3823309e-06 0 0)
(-1.3949762 -0.21552716 0 4.1019996e-06 0 0)
(-1.4024747 -0.21631463 0 -3.8367203e-06 0 0)
(-1.3955736 -0.21559127 0 3.5937349e-06 0 0)
(-1.4018956 -0.21625322 0 -3.3597076e-06 0 0)
(-1.3961209 -0.21564994 0 3.154695e-06 0 0)
(-1.401366 -0.21619701 0 -2.9611361e-06 0 0)
(-1.3966232 -0.21570379 0 2.7817645e-06 0 0)
(-1.4008793 -0.21614525 0 -2.6258968e-06 0 0)
(-1.3970868 -0.21575345 0 2.4880409e-06 0 0)
(-1.4004295 -0.21609736 0 -2.3691493e-06 0 0)