/*--------------------------------*- C++ -*----------------------------------*\
| =========                 |                                                 |
| \\      /  F ield         | OpenFOAM: The Open Source CFD Toolbox           |
|  \\    /   O peration     | Version:  2312                                  |
|   \\  /    A nd           | Website:  www.openfoam.com                      |
|    \\/     M anipulation  |                                                 |
\*---------------------------------------------------------------------------*/
FoamFile
{
    version     2.0;
    format      ascii;
    arch        "LSB;label=32;scalar=64";
    class       volScalarField;
    location    "1";
    object      T;
}
// * * * * * * * * * * * * * * * * * * * * * * * * * * * * * * * * * * * * * //

dimensions      [0 0 0 1 0 0 0];

internalField   nonuniform List<scalar> 
4000
(
329.77591
328.57583
328.38985
328.30915
328.25503
328.2012
328.16189
328.11739
328.08426
328.04466
328.01484
327.97894
327.95163
327.91873
327.89332
327.86265
327.83841
327.80922
327.78553
327.75721
327.73364
327.70582
327.68214
327.65465
327.6308
327.60356
327.57954
327.55254
327.52837
327.50158
327.47729
327.45068
327.42629
327.39984
327.37536
327.34904
327.32448
327.29824
327.27364
327.24745
327.22282
327.19665
327.17201
327.14583
327.12123
327.09501
327.07047
327.04413
327.01982
326.99282
331.85097
329.78549
329.28645
329.09656
328.98647
328.87735
328.81154
328.73033
328.68305
328.6165
328.57907
328.52355
328.49363
328.44707
328.42283
328.38297
328.3623
328.32689
328.30791
328.27515
328.25654
328.22532
328.20641
328.17616
328.15674
328.12725
328.10733
328.07853
328.05817
328.03
328.00929
327.98168
327.96066
327.93353
327.91224
327.88546
327.86397
327.83745
327.8158
327.78943
327.76771
327.74139
327.71967
327.69332
327.67168
327.64521
327.62377
327.59696
327.57619
327.54749
333.17188
330.95774
330.17638
329.88015
329.71503
329.5515
329.45925
329.34185
329.28025
329.18702
329.14164
329.06652
329.03353
328.97321
328.94965
328.90052
328.883
328.84135
328.82676
328.78961
328.77575
328.7412
328.72692
328.69401
328.67889
328.64724
328.63128
328.60076
328.5841
328.55462
328.53738
328.50882
328.49108
328.4633
328.44514
328.41795
328.39945
328.37268
328.35394
328.32741
328.30855
328.28212
328.26326
328.23677
328.21805
328.19135
328.17296
328.14572
328.12841
328.0983
334.06851
332.05793
331.04869
330.65409
330.43657
330.22074
330.10246
329.94998
329.87399
329.75467
329.70092
329.60641
329.56966
329.49556
329.47193
329.41344
329.39841
329.35052
329.33981
329.29838
329.2889
329.2512
329.24125
329.20586
329.19481
329.16116
329.14896
329.11686
329.1037
329.07302
329.05906
329.02966
329.01504
328.9867
328.97152
328.94399
328.92837
328.90141
328.88548
328.85885
328.84277
328.81626
328.80019
328.77361
328.75772
328.73086
328.71542
328.68782
328.67383
328.64273
334.70442
333.05511
331.88917
331.41037
331.14539
330.88092
330.73771
330.55202
330.46178
330.31744
330.25492
330.14148
330.1002
330.01238
329.98777
329.91989
329.90651
329.85241
329.84492
329.79934
329.79375
329.75311
329.74712
329.70951
329.7022
329.66678
329.65806
329.62456
329.61463
329.58291
329.57199
329.54187
329.53015
329.50136
329.48898
329.46122
329.44831
329.42126
329.40799
329.38135
329.36791
329.34142
329.328
329.30142
329.28823
329.2613
329.24867
329.22083
329.20992
329.17833
335.17014
333.92848
332.68252
332.13941
331.83456
331.52693
331.3608
331.14458
331.04061
330.87282
330.80132
330.66972
330.62316
330.5219
330.49531
330.41809
330.40538
330.34513
330.34006
330.29051
330.2882
330.2449
330.24241
330.20285
330.19892
330.162
330.15641
330.12174
330.11471
330.08214
330.07397
330.04328
330.03421
330.0051
329.9953
329.96741
329.95703
329.92999
329.91921
329.89266
329.8817
329.85532
329.8444
329.81791
329.80727
329.78037
329.77037
329.74245
329.73434
329.70275
335.51875
334.66606
333.41447
332.83097
332.49638
332.1529
331.96688
331.72373
331.60703
331.41793
331.33749
331.1889
331.13645
331.02222
330.99268
330.90627
330.8932
330.82691
330.82338
330.77004
330.77033
330.72464
330.72514
330.68396
330.68297
330.64486
330.64201
330.60644
330.60196
330.56874
330.56299
330.5319
330.52518
330.4959
330.4884
330.46053
330.45244
330.42553
330.41705
330.39069
330.38204
330.35587
330.34728
330.32099
330.31271
330.28598
330.2784
330.25058
330.24492
330.2138
335.78453
335.26663
334.07356
333.47518
333.12299
332.75263
332.55079
332.28515
332.15728
331.94956
331.86059
331.69657
331.63784
331.51141
331.47804
331.38274
331.36828
331.29611
331.29318
331.23626
331.23841
331.19062
331.19354
331.15108
331.15258
331.11358
331.11309
331.07687
331.07458
331.04091
331.03724
331.00592
331.00123
330.97193
330.96646
330.93873
330.93269
330.90603
330.89962
330.87357
330.86702
330.84118
330.83472
330.80876
330.80263
330.77622
330.7708
330.74331
330.73971
330.7095
335.99033
335.7371
334.65226
334.06354
333.70697
333.31992
333.10725
332.82438
332.6874
332.46432
332.36761
332.19014
332.12505
331.98745
331.94956
331.84583
331.82904
331.7512
331.74793
331.68765
331.69089
331.6413
331.64603
331.60262
331.60615
331.5666
331.56804
331.53146
331.53096
331.49708
331.49511
331.46375
331.46074
331.43157
331.42783
331.40037
331.39612
331.36983
331.36527
331.33964
331.33498
331.30959
331.30503
331.27954
331.27533
331.24939
331.24588
331.21894
331.21702
331.18806
336.15236
336.09145
335.14761
334.58978
334.24198
333.84909
333.63126
333.33697
333.19348
332.95873
332.85549
332.66696
332.59573
332.44832
332.40546
332.29396
332.27399
332.1908
332.1863
332.12288
332.12643
332.0753
332.08125
332.03723
332.04229
332.00253
332.00549
331.96883
331.96974
331.93586
331.93523
331.90399
331.90234
331.87342
331.87111
331.84404
331.84131
331.8155
331.81254
331.78745
331.78444
331.75963
331.75676
331.73186
331.72933
331.70404
331.70213
331.67599
331.67537
331.64793
336.28229
336.34773
335.56096
335.05043
334.72335
334.33532
334.11833
333.81882
333.67178
333.42944
333.32122
333.12433
333.04756
332.892
332.84397
332.72557
332.70177
332.61365
332.6071
332.54079
332.54389
332.49149
332.49805
332.45372
332.45986
332.42019
332.42428
332.38782
332.38977
332.35611
332.35646
332.32549
332.32486
332.29633
332.29514
332.26856
332.26707
332.24185
332.24023
332.2158
332.21421
332.19009
332.18866
332.1645
332.16339
332.13891
332.13834
332.11319
332.11355
332.08781
336.38861
336.52584
335.89742
335.44497
335.14835
334.77509
334.56484
334.26636
334.11899
333.87331
333.76198
333.55971
333.47829
333.3165
333.26344
333.1392
333.11115
333.01861
333.00931
332.94039
332.94235
332.88892
332.89551
332.85114
332.8579
332.81862
332.82348
332.78747
332.79013
332.75688
332.75789
332.72733
332.7274
332.69934
332.69898
332.67297
332.67246
332.64791
332.6474
332.62371
332.6233
332.59998
332.59977
332.57647
332.57654
332.55302
332.5535
332.52955
332.53057
332.50666
336.47753
336.64522
336.16488
335.77566
335.51643
335.16631
334.96825
334.67679
334.53235
334.28763
334.17525
333.97072
333.88585
333.71995
333.66228
333.53348
333.50098
333.40467
333.39209
333.32087
333.32106
333.26682
333.2729
333.22873
333.23571
333.19707
333.20237
333.16705
333.17011
333.13745
333.13881
333.10878
333.10926
333.08175
333.08193
333.05657
333.05677
333.03296
333.03331
333.01045
333.01099
332.98857
332.98933
332.96702
332.96802
332.94561
332.94688
332.92428
332.92572
332.90368
336.55352
336.72336
336.37293
336.04712
335.8291
335.50854
335.32725
335.04824
334.90985
334.67023
334.55895
334.35532
334.26841
334.10067
334.03908
333.90715
333.87027
333.77095
333.75473
333.68158
333.67949
333.62464
333.62972
333.58597
333.59276
333.55501
333.56044
333.52604
333.52923
333.49733
333.49878
333.46938
333.46997
333.44309
333.44353
333.41886
333.41952
333.3965
333.39747
333.3755
333.37677
333.35533
333.35685
333.33562
333.33733
333.31614
333.31796
333.29683
333.2985
333.27832
336.61971
336.77456
336.53183
336.26568
336.08971
335.8029
335.64182
335.37986
335.25031
335.01958
334.91153
334.71185
334.62444
334.45719
334.3926
334.2591
334.21815
334.1167
334.09668
334.02203
334.01724
333.962
333.96566
333.92249
333.92878
333.8921
333.89741
333.86411
333.86721
333.83622
333.83751
333.80883
333.8093
333.78308
333.78354
333.75958
333.76045
333.73826
333.73962
333.71859
333.72036
333.69998
333.70204
333.68197
333.68418
333.6643
333.66647
333.64689
333.64863
333.63027
336.67833
336.80984
336.65161
336.43866
336.30301
336.05193
335.91321
335.67185
335.55344
335.33491
335.23205
335.03916
334.95283
334.78835
334.72187
334.58843
334.54393
334.44134
334.41756
334.34187
334.33413
334.27871
334.2806
334.23816
334.24364
334.2082
334.21317
334.18114
334.18397
334.15401
334.15496
334.12707
334.1272
334.10166
334.10191
334.07867
334.07953
334.05817
334.05971
334.03965
334.04173
334.02244
334.02484
334.006
334.00851
333.99001
333.99235
333.97436
333.97607
333.95945
336.73084
336.8368
336.74139
336.57374
336.47472
336.2593
336.14375
335.92541
335.81984
335.61619
335.52021
335.33662
335.25289
335.09336
335.02616
334.89443
334.84711
334.74442
334.7171
334.64092
334.63011
334.57473
334.5746
334.533
334.53742
334.50335
334.5078
334.47718
334.4796
334.45078
334.45125
334.4242
334.42381
334.39896
334.39879
334.37626
334.3769
334.35637
334.35789
334.3388
334.34099
334.32282
334.3254
334.30782
334.31046
334.29337
334.29575
334.27934
334.28095
334.26597
336.77832
336.86031
336.80903
336.67838
336.61097
336.42948
336.33669
336.14263
336.05091
335.86412
335.77638
335.60417
335.52444
335.37179
335.3051
335.17668
335.12738
335.02569
334.99523
334.91914
334.90528
334.85019
334.84785
334.8072
334.81038
334.77776
334.78157
334.75246
334.75437
334.72679
334.72666
334.7005
334.69944
334.67528
334.67452
334.65266
334.65289
334.63316
334.63448
334.61635
334.61849
334.60145
334.60403
334.58773
334.59037
334.57469
334.577
334.56212
334.56359
334.55016
336.82144
336.88298
336.86088
336.75934
336.71789
336.56739
336.49592
336.32631
336.24877
336.08009
336.00154
335.84231
335.76776
335.62366
335.55866
335.43502
335.38468
335.28506
335.252
335.17663
335.15988
335.10534
335.10073
335.0611
335.06292
335.0318
335.03487
335.00735
335.00871
334.98244
334.98163
334.9564
334.95456
334.93107
334.92956
334.90835
334.908
334.88902
334.88997
334.87278
334.87471
334.85878
334.86124
334.8462
334.84872
334.83444
334.83658
334.82319
334.82449
334.81248
336.86074
336.90597
336.90183
336.82245
336.80124
336.67805
336.62566
336.47974
336.41609
336.26604
336.19721
336.05205
335.9836
335.84938
335.78714
335.66959
335.61916
335.52267
335.48765
335.41365
335.39427
335.34057
335.3337
335.29518
335.29555
335.26597
335.26824
335.24237
335.24315
335.21824
335.21674
335.19245
335.18975
335.16691
335.16455
335.14392
335.14285
335.12457
335.125
335.1087
335.11029
335.09543
335.09765
335.08384
335.08615
335.07321
335.07515
335.06315
335.06429
335.05359
336.89659
336.92946
336.93541
336.87246
336.86615
336.76628
336.73025
336.60651
336.55594
336.42438
336.36538
336.23486
336.17316
336.04979
335.99121
335.88085
335.83125
335.73884
335.70257
335.63057
335.60896
335.55639
335.54737
335.51004
335.50893
335.4809
335.48235
335.45816
335.45835
335.43486
335.43266
335.40933
335.40574
335.38352
335.3802
335.36009
335.35819
335.34054
335.34033
335.32485
335.32598
335.31215
335.31403
335.30139
335.30343
335.29176
335.29346
335.28277
335.28373
335.27423
336.92934
336.95316
336.96407
336.91306
336.91702
336.83649
336.81389
336.71031
336.67156
336.5578
336.50838
336.3926
336.33798
336.22605
336.17185
336.06951
336.0216
335.93411
335.89731
335.82794
335.80455
335.75342
335.74243
335.70636
335.70382
335.67733
335.67796
335.65545
335.65509
335.63304
335.63016
335.60781
335.6033
335.58168
335.57734
335.5577
335.55486
335.53776
335.5368
335.52207
335.52265
335.50977
335.51124
335.49971
335.50142
335.49095
335.49239
335.48289
335.48369
335.47528
336.95925
336.9766
336.98936
336.94697
336.9574
336.89255
336.88047
336.79471
336.76628
336.66917
336.62875
336.52738
336.4799
336.37963
336.33031
336.23659
336.19108
336.10921
336.0726
336.00642
335.98175
335.93238
335.91966
335.88495
335.88103
335.85606
335.85591
335.83507
335.83421
335.8136
335.8101
335.78872
335.78332
335.76226
335.75687
335.73762
335.73377
335.71714
335.71535
335.70129
335.70124
335.68923
335.69023
335.67972
335.68108
335.67171
335.67288
335.66447
335.66513
335.65769
336.98658
336.99932
337.01223
336.97612
336.9901
336.9377
336.93345
336.86305
336.8433
336.76138
336.72915
336.64149
336.60097
336.51226
336.4681
336.3833
336.34079
336.26505
336.22929
336.1668
336.14138
336.09408
336.07992
336.04664
336.04146
336.018
336.01711
335.99791
335.9966
335.97744
335.97338
335.95298
335.94671
335.92619
335.91972
335.90081
335.8959
335.87966
335.87697
335.86349
335.86275
335.85152
335.85201
335.84243
335.84341
335.83504
335.83595
335.82853
335.82904
335.82248
337.01155
337.02098
337.0332
337.00182
337.01721
336.97456
336.97578
336.91833
336.90559
336.83723
336.81222
336.7373
336.70334
336.62579
336.58688
336.51107
336.47197
336.40271
336.36839
336.30999
336.28434
336.23937
336.22411
336.19235
336.18606
336.16407
336.16251
336.14491
336.14322
336.12549
336.12095
336.10153
336.09445
336.07443
336.0669
336.04826
336.04226
336.02632
336.02269
336.00968
336.00822
335.99767
335.99763
335.98888
335.98948
335.982
335.98266
335.97611
335.9765
335.97073
337.03439
337.04135
337.05255
337.02489
337.04024
337.00517
337.00989
336.96318
336.95587
336.89932
336.88048
336.81715
336.7892
336.72219
336.68842
336.62143
336.58602
336.52341
336.49099
336.43699
336.4116
336.36922
336.35319
336.32304
336.31581
336.29526
336.29311
336.27705
336.27505
336.25874
336.25379
336.23533
336.2275
336.20797
336.1994
336.18097
336.17387
336.15815
336.15355
336.14093
336.13871
336.12875
336.12816
336.12014
336.12037
336.11368
336.1141
336.10833
336.1086
336.10353
337.05528
337.06032
337.07043
337.04584
337.06026
337.03105
337.03775
336.99976
336.99646
336.95004
336.9363
336.8833
336.86071
336.80343
336.77456
336.71602
336.6844
336.62843
336.59829
336.54889
336.5242
336.4846
336.46814
336.43969
336.4317
336.41256
336.4099
336.39533
336.3931
336.37815
336.37288
336.35538
336.34687
336.32779
336.31823
336.29996
336.29177
336.27618
336.27062
336.25828
336.25531
336.24583
336.24469
336.2373
336.23716
336.23116
336.23135
336.22627
336.22643
336.22198
337.07439
337.07786
337.08691
337.06498
337.07796
337.05334
337.06085
337.02989
337.02937
336.99146
336.9818
336.93784
336.91989
336.87144
336.84709
336.79649
336.76865
336.71917
336.69155
336.64683
336.62322
336.58654
336.56998
336.54329
336.53474
336.51697
336.51392
336.50075
336.49836
336.48473
336.47922
336.46264
336.45354
336.43488
336.42438
336.40624
336.39698
336.38146
336.37492
336.3628
336.35906
336.34997
336.3483
336.34144
336.34094
336.33554
336.33552
336.33103
336.3311
336.3272
337.09188
337.09401
337.10204
337.0825
337.09381
337.07281
337.08033
337.05496
337.05623
337.02537
337.01886
336.98268
336.96864
336.92804
336.90778
336.86448
336.84028
336.797
336.77205
336.73199
336.70975
336.67609
336.65973
336.63485
336.62593
336.60951
336.60615
336.59431
336.59183
336.57946
336.57378
336.55809
336.54847
336.53022
336.51884
336.50077
336.49048
336.47498
336.46749
336.4555
336.45101
336.44223
336.44003
336.43361
336.43277
336.42789
336.42767
336.4237
336.42368
336.42025
337.10786
337.10881
337.11588
337.0985
337.1081
337.09002
337.09703
337.07609
337.07836
337.05325
337.04908
337.01947
337.00867
336.97494
336.95827
336.92158
336.90079
336.86331
336.84107
336.80555
336.7849
336.75431
336.73841
336.71537
336.70627
336.69115
336.68758
336.67699
336.67447
336.66329
336.65752
336.64267
336.63261
336.61474
336.60255
336.58453
336.57326
336.55772
336.54932
336.53738
336.53218
336.52362
336.52091
336.51486
336.5137
336.50925
336.50884
336.50532
336.50522
336.50221
337.12247
337.12234
337.12848
337.11305
337.12102
337.10533
337.11152
337.0941
337.09678
337.07633
337.07381
337.04969
337.04147
337.01365
337.00008
336.96926
336.9516
336.91946
336.89988
336.8687
336.84979
336.82222
336.807
336.78582
336.7767
336.76285
336.75916
336.74975
336.74724
336.73717
336.73135
336.7173
336.70686
336.68935
336.67643
336.65841
336.64624
336.63061
336.62134
336.60941
336.60352
336.59511
336.59194
336.58617
336.58471
336.58062
336.58005
336.57691
336.57673
336.57408
337.13577
337.13465
337.13989
337.12621
337.13268
337.119
337.12422
337.1096
337.11229
337.09557
337.09416
337.07455
337.06835
337.04555
337.03459
337.00891
336.99404
336.96673
336.94968
336.92258
336.90547
336.88085
336.86648
336.84714
336.83817
336.82555
336.82182
336.8135
336.81104
336.80199
336.79616
336.78286
336.77211
336.75491
336.74133
336.72331
336.71029
336.69454
336.68446
336.67249
336.66595
336.65765
336.65403
336.64849
336.64675
336.64296
336.64224
336.63943
336.63918
336.63685
337.14785
337.1458
337.15015
337.13803
337.14316
337.13118
337.13542
337.12303
337.12547
337.11174
337.111
337.09506
337.0904
337.07179
337.06299
337.04174
337.02932
337.00631
336.99161
336.96827
336.95299
336.93118
336.91778
336.90025
336.89155
336.88011
336.87642
336.8691
336.86672
336.85861
336.85279
336.84017
336.82915
336.81225
336.79807
336.78003
336.76624
336.75036
336.73954
336.72749
336.72036
336.71212
336.70808
336.70272
336.70073
336.69719
336.69633
336.69379
336.69349
336.69142
337.15874
337.15582
337.15931
337.14857
337.15252
337.14201
337.14531
337.13473
337.13677
337.12541
337.12503
337.11206
337.10853
337.09339
337.08635
337.06885
337.05854
337.03929
337.02674
337.00682
336.9933
336.97415
336.96179
336.94601
336.93769
336.92737
336.92379
336.91739
336.91511
336.90782
336.90204
336.89002
336.87878
336.86213
336.84742
336.82936
336.81487
336.79885
336.78735
336.77522
336.76754
336.75933
336.75492
336.74969
336.74748
336.74414
336.74316
336.74085
336.7405
336.73866
337.16846
337.16471
337.16738
337.15786
337.1608
337.15156
337.15402
337.14493
337.14651
337.13703
337.1368
337.1262
337.12349
337.11119
337.10554
337.09119
337.08267
337.06667
337.05603
337.03916
337.02732
337.01063
336.99936
336.98523
336.97738
336.96813
336.96469
336.95912
336.95694
336.95039
336.94463
336.93314
336.9217
336.90527
336.8901
336.87199
336.85689
336.84074
336.82864
336.81641
336.80826
336.80005
336.79531
336.79019
336.78778
336.78461
336.78352
336.78141
336.78101
336.77937
337.17698
337.17249
337.17441
337.16595
337.16804
337.15992
337.16165
337.1538
337.15491
337.14695
337.14673
337.13802
337.13587
337.12587
337.12132
337.10958
337.10254
337.08931
337.08035
337.06616
337.05588
337.04143
337.03123
337.01868
337.01134
337.00309
336.99985
336.99501
336.99294
336.987
336.98126
336.9702
336.95858
336.94233
336.92675
336.90861
336.89298
336.87671
336.86408
336.85176
336.8432
336.83499
336.82997
336.82493
336.82235
336.81932
336.81815
336.8162
336.81576
336.81429
337.18422
337.17914
337.18039
337.17289
337.17429
337.16716
337.16828
337.16148
337.16216
337.15543
337.15513
337.14793
337.14616
337.13801
337.1343
337.12471
337.11887
337.10797
337.10045
337.08859
337.07972
337.06729
337.05814
337.04703
337.04025
337.03293
337.0299
337.02572
337.02372
337.0183
337.01254
337.00183
336.99003
336.97392
336.95799
336.93981
336.92373
336.90736
336.8943
336.88191
336.873
336.86479
336.85954
336.85458
336.85185
336.84894
336.84769
336.84589
336.84542
336.84409
337.1901
337.18465
337.18537
337.17873
337.17959
337.17334
337.17397
337.16808
337.16839
337.16265
337.16224
337.15624
337.15473
337.14805
337.14498
337.13713
337.13228
337.1233
337.11701
337.10713
337.09952
337.08887
337.08071
337.07093
337.06471
337.05824
337.05544
337.05182
337.04988
337.04485
337.03904
337.02859
337.01661
337.0006
336.98436
336.96616
336.94971
336.93326
336.91986
336.90742
336.89824
336.89005
336.88461
336.87972
336.87689
336.87408
336.87278
336.87109
336.8706
336.86939
337.19456
337.18903
337.18939
337.18354
337.184
337.17854
337.17881
337.17368
337.1737
337.16878
337.16826
337.16322
337.16187
337.15636
337.15378
337.14732
337.14325
337.13585
337.13058
337.12238
337.11586
337.10677
337.09953
337.09095
337.08528
337.07959
337.07701
337.07385
337.07192
337.06719
337.06128
337.05099
337.03882
337.02286
337.00637
336.98815
336.97142
336.95494
336.94127
336.92883
336.91945
336.9113
336.90573
336.90091
336.89799
336.89529
336.89394
336.89236
336.89186
336.89075
337.1976
337.19234
337.19249
337.18739
337.18758
337.18283
337.18284
337.17838
337.17818
337.17394
337.17332
337.16905
337.1678
337.16322
337.16101
337.15565
337.15221
337.14609
337.14166
337.13484
337.12927
337.12151
337.11509
337.10758
337.10244
337.09744
337.09507
337.09228
337.09033
337.08576
337.0797
337.06948
337.05711
337.04117
337.02445
337.00624
336.98931
336.97284
336.95901
336.94661
336.9371
336.92901
336.92336
336.91862
336.91566
336.91304
336.91167
336.91019
336.90968
336.90867
337.19937
337.19469
337.19477
337.19038
337.19041
337.18629
337.18613
337.18226
337.18191
337.17824
337.17755
337.17389
337.17272
337.16887
337.16693
337.16244
337.15949
337.15438
337.15063
337.14494
337.14016
337.13352
337.12785
337.12126
337.11663
337.11223
337.11004
337.10752
337.10549
337.10098
337.09471
337.08447
337.07188
337.05593
337.03903
337.02085
337.00379
336.98739
336.97348
336.96117
336.95162
336.94362
336.93794
336.93329
336.93032
336.92779
336.92641
336.92502
336.9245
336.92358
337.20011
337.1962
337.19634
337.1926
337.19256
337.18901
337.18876
337.1854
337.18496
337.18177
337.18104
337.17787
337.17676
337.17347
337.17174
337.16793
337.16535
337.16104
337.15782
337.15303
337.14891
337.1432
337.13818
337.13239
337.12822
337.12433
337.12228
337.11993
337.11776
337.1132
337.10667
337.09632
337.08348
337.06749
337.05047
337.03234
337.01524
336.99897
336.98507
336.97289
336.96337
336.9555
336.94985
336.94531
336.94235
336.93992
336.93855
336.93724
336.93672
336.93587
337.20014
337.19705
337.19731
337.19416
337.19413
337.19107
337.19079
337.18787
337.1874
337.18461
337.18386
337.18109
337.18003
337.17717
337.17559
337.17229
337.17
337.1663
337.1635
337.15941
337.15582
337.15087
337.1464
337.14129
337.13752
337.13404
337.13209
337.12982
337.12745
337.12272
337.11586
337.10533
337.09225
337.0762
337.05908
337.04105
337.02399
337.0079
336.9941
336.98212
336.9727
336.965
336.95942
336.95502
336.95209
336.94977
336.94841
336.94718
336.94667
336.94589
337.19974
337.19741
337.1978
337.19516
337.19518
337.19255
337.1923
337.18975
337.18929
337.18683
337.1861
337.18363
337.18262
337.18007
337.17861
337.17569
337.17361
337.17035
337.16788
337.16432
337.16115
337.15678
337.15278
337.14822
337.1448
337.14165
337.13974
337.13743
337.13479
337.12981
337.12257
337.11178
337.09844
337.08233
337.06516
337.04727
337.03033
337.01449
337.00088
336.98916
336.9799
336.97242
336.96695
336.9627
336.95984
336.95762
336.9563
336.95515
336.95465
336.95394
337.19913
337.19741
337.19792
337.19571
337.19581
337.19354
337.19334
337.19111
337.19069
337.18849
337.18779
337.18555
337.18459
337.18226
337.18088
337.17821
337.17629
337.17335
337.17111
337.16792
337.16507
337.16116
337.15754
337.15342
337.15028
337.14735
337.14542
337.14299
337.14001
337.13467
337.127
337.11591
337.1023
337.08613
337.06897
337.05126
337.03453
337.019
337.00566
336.99426
336.98523
336.978
336.97269
336.96861
336.96585
336.96374
336.96247
336.9614
336.96092
336.96026
337.19842
337.19716
337.19776
337.19588
337.19608
337.1941
337.19399
337.19201
337.19165
337.18965
337.189
337.18691
337.18598
337.1838
337.18247
337.17995
337.17813
337.17539
337.17331
337.17037
337.16775
337.16416
337.16084
337.15706
337.15414
337.15133
337.14932
337.14667
337.14328
337.1375
337.12936
337.11792
337.10406
337.08783
337.07074
337.05327
337.03683
337.02168
337.00868
336.99765
336.98893
336.98198
336.97687
336.97298
336.97034
336.96835
336.96713
336.96613
336.96568
336.96508
337.19767
337.19675
337.1974
337.19576
337.19607
337.19431
337.1943
337.1925
337.19223
337.19036
337.18975
337.18775
337.18684
337.18471
337.1834
337.18096
337.17919
337.17655
337.17456
337.17175
337.16929
337.16591
337.16282
337.15927
337.1565
337.15373
337.15156
337.14859
337.14473
337.13845
337.12979
337.11798
337.10388
337.08764
337.07068
337.0535
337.03743
337.02272
337.01016
336.99955
336.99117
336.98455
336.97967
336.97599
336.97348
336.97162
336.97047
336.96954
336.96911
336.96857
337.19688
337.19621
337.19689
337.19541
337.19582
337.19422
337.19432
337.19264
337.19244
337.19064
337.19007
337.18809
337.18718
337.18503
337.18371
337.18125
337.1795
337.17686
337.17491
337.17214
337.16977
337.1665
337.16358
337.16016
337.15747
337.15464
337.15224
337.14887
337.14448
337.13762
337.12845
337.11626
337.10196
337.08573
337.06896
337.05215
337.03653
337.02233
337.01026
337.00013
336.99215
336.98587
336.98126
336.97781
336.97544
336.97371
336.97263
336.97178
336.97138
336.97089
337.19605
337.19557
337.19626
337.19487
337.19538
337.19388
337.19408
337.19245
337.19233
337.19052
337.18997
337.18793
337.187
337.18475
337.18339
337.18084
337.17906
337.17635
337.17439
337.17158
337.16924
337.166
337.16317
337.1598
337.15712
337.15413
337.15143
337.14757
337.14261
337.13514
337.12545
337.11288
337.09842
337.08226
337.06577
337.04939
337.03429
337.02067
337.00915
336.99953
336.992
336.98609
336.98177
336.97855
336.97635
336.97474
336.97375
336.97297
336.9726
336.97216
337.19516
337.19483
337.19553
337.19417
337.19478
337.19332
337.19361
337.19197
337.19189
337.19
337.18945
337.18728
337.18629
337.18387
337.18243
337.17971
337.17787
337.17502
337.173
337.17007
337.16772
337.16443
337.16164
337.15823
337.15549
337.15225
337.14918
337.14477
337.1392
337.13109
337.12088
337.10797
337.09341
337.07738
337.06124
337.04536
337.03087
337.01787
337.00696
336.99789
336.99083
336.98532
336.98131
336.97832
336.9763
336.97482
336.97391
336.97321
336.97287
336.97248
337.1942
337.19402
337.19472
337.19334
337.19405
337.19256
337.19293
337.1912
337.19114
337.18909
337.18848
337.18609
337.18501
337.18234
337.18079
337.17783
337.17589
337.17283
337.17073
337.16762
337.1652
337.1618
337.15899
337.15547
337.1526
337.14902
337.14553
337.14049
337.13429
337.12553
337.11485
337.10164
337.08706
337.07123
337.05552
337.04021
337.02638
337.01406
337.00381
336.99532
336.98876
336.98365
336.97997
336.97722
336.97538
336.97403
336.97321
336.97257
336.97227
336.97192
337.19316
337.19311
337.19382
337.19238
337.19319
337.19161
337.19204
337.19014
337.19005
337.18774
337.18704
337.18435
337.18312
337.18012
337.17842
337.17516
337.17309
337.16977
337.16755
337.1642
337.16169
337.1581
337.15523
337.1515
337.14844
337.14445
337.14047
337.13478
337.12794
337.11855
337.10744
337.09399
337.07948
337.06392
337.04873
337.03406
337.02096
337.00935
336.99979
336.99191
336.98587
336.98117
336.97781
336.97531
336.97364
336.97243
336.97169
336.97112
336.97085
336.97055
337.19203
337.19212
337.19285
337.19131
337.19221
337.19048
337.19092
337.18875
337.18858
337.18591
337.18506
337.18197
337.18054
337.17715
337.17525
337.17164
337.16941
337.16577
337.1634
337.15977
337.15713
337.15331
337.15032
337.14633
337.14301
337.13854
337.13404
337.12765
337.12019
337.11021
337.09874
337.08513
337.07077
337.05558
337.04098
337.02701
337.01469
337.00384
336.995
336.98772
336.98221
336.97792
336.97489
336.97263
336.97115
336.97005
336.9694
336.9689
336.96866
336.9684
337.1908
337.19104
337.19179
337.19013
337.1911
337.18913
337.18953
337.18698
337.18666
337.18353
337.18246
337.17888
337.17721
337.17335
337.17122
337.16719
337.16478
337.16078
337.15824
337.15429
337.1515
337.14739
337.14425
337.13992
337.13628
337.13128
337.12623
337.11914
337.11109
337.10057
337.08883
337.07515
337.06104
337.0463
337.03238
337.01916
337.00767
336.99759
336.98948
336.98282
336.97784
336.97396
336.97126
336.96922
336.96791
336.96694
336.96637
336.96593
336.96573
336.96549
337.18947
337.18986
337.19065
337.18882
337.18984
337.18754
337.18781
337.18477
337.18421
337.1805
337.17914
337.17498
337.17302
337.16862
337.16624
337.16175
337.15913
337.15474
337.15201
337.1477
337.14474
337.14031
337.13696
337.13224
337.12824
337.12266
337.11705
337.10928
337.10069
337.0897
337.07779
337.06414
337.05039
337.03619
337.02301
337.01059
336.99996
336.99066
336.9833
336.97725
336.97279
336.9693
336.96692
336.96511
336.96397
336.9631
336.96262
336.96223
336.96206
336.96185
337.18801
337.18859
337.18941
337.18738
337.18837
337.18563
337.18568
337.182
337.18111
337.17671
337.17499
337.17017
337.16786
337.16287
337.1602
337.15522
337.15238
337.14757
337.14464
337.13995
337.1368
337.132
337.12842
337.12326
337.11887
337.11268
337.10651
337.0981
337.08904
337.07768
337.06571
337.0522
337.03891
337.02532
337.01295
337.00137
336.99162
336.98311
336.97649
336.97103
336.96709
336.96397
336.9619
336.96029
336.95932
336.95855
336.95814
336.9578
336.95766
336.95749
337.18641
337.18724
337.18808
337.18577
337.18665
337.18333
337.18301
337.17856
337.17723
337.17203
337.16987
337.1643
337.16162
337.15599
337.15303
337.14752
337.14445
337.1392
337.13608
337.13099
337.12763
337.12244
337.11859
337.11295
337.10814
337.10134
337.09464
337.08564
337.0762
337.06458
337.05267
337.03942
337.02668
337.01378
337.00228
336.99155
336.98269
336.97497
336.96907
336.96418
336.96073
336.95797
336.95619
336.95477
336.95395
336.95328
336.95295
336.95264
336.95253
336.95239
337.18467
337.18583
337.18662
337.18394
337.18457
337.18049
337.17967
337.17428
337.1724
337.16629
337.16363
337.15726
337.15417
337.14788
337.1446
337.13857
337.13527
337.12958
337.12625
337.12075
337.11718
337.11157
337.10743
337.10128
337.09605
337.08865
337.08148
337.07196
337.06225
337.05049
337.03876
337.02587
337.01378
337.00164
336.99104
336.98119
336.97322
336.96626
336.96106
336.95672
336.95374
336.95131
336.9498
336.94855
336.94788
336.94729
336.94702
336.94675
336.94667
336.94654
337.18277
337.18436
337.18501
337.1818
337.182
337.17695
337.17546
337.16898
337.16644
337.15933
337.15611
337.1489
337.14539
337.13842
337.13484
337.12828
337.12477
337.11863
337.11511
337.1092
337.1054
337.09936
337.09491
337.08826
337.08262
337.07466
337.06707
337.05714
337.04728
337.03549
337.02407
337.01165
337.00029
336.98895
336.97928
336.9703
336.96321
336.95699
336.95246
336.94863
336.94609
336.94396
336.9427