/*--------------------------------*- C++ -*----------------------------------*\
| =========                 |                                                 |
| \\      /  F ield         | OpenFOAM: The Open Source CFD Toolbox           |
|  \\    /   O peration     | Version:  2312                                  |
|   \\  /    A nd           | Website:  www.openfoam.com                      |
|    \\/     M anipulation  |                                                 |
\*---------------------------------------------------------------------------*/
FoamFile
{
    version     2.0;
    format      ascii;
    arch        "LSB;label=32;scalar=64";
    class       volVectorField;
    location    "1";
    object      U_0;
}
// * * * * * * * * * * * * * * * * * * * * * * * * * * * * * * * * * * * * * //

dimensions      [0 1 -1 0 0 0 0];

internalField   nonuniform List<vector> 
4000
(
(0.0026843065 0.00052582064 0)
(0.0042957752 -1.0734733e-05 0)
(0.0028695759 -4.4146246e-07 0)
(0.0031062668 1.0176216e-07 0)
(0.0029954869 -2.3346479e-07 0)
(0.0030639967 2.4011124e-07 0)
(0.0029909657 -2.6283551e-07 0)
(0.0030452858 2.3438959e-07 0)
(0.0029941605 -2.2786407e-07 0)
(0.0030408531 2.1839182e-07 0)
(0.0029960308 -2.1134871e-07 0)
(0.0030385189 2.035732e-07 0)
(0.0029976561 -1.9690459e-07 0)
(0.003036684 1.8994714e-07 0)
(0.0029992105 -1.8354559e-07 0)
(0.0030350854 1.7714116e-07 0)
(0.0030006776 -1.7102793e-07 0)
(0.0030336336 1.650084e-07 0)
(0.003002054 -1.5917188e-07 0)
(0.003032288 1.5345265e-07 0)
(0.0030033479 -1.4787527e-07 0)
(0.0030310254 1.4241816e-07 0)
(0.0030045715 -1.3708069e-07 0)
(0.0030298305 1.3187077e-07 0)
(0.0030057341 -1.267812e-07 0)
(0.0030286928 1.2182292e-07 0)
(0.0030068442 -1.169864e-07 0)
(0.003027605 1.1229403e-07 0)
(0.0030079074 -1.0773533e-07 0)
(0.003026562 1.0332949e-07 0)
(0.0030089281 -9.9070115e-08 0)
(0.0030255597 9.4978413e-08 0)
(0.0030099101 -9.1045648e-08 0)
(0.0030245947 8.7293667e-08 0)
(0.0030108561 -8.3714511e-08 0)
(0.0030236645 8.0331063e-08 0)
(0.0030117691 -7.7131884e-08 0)
(0.003022766 7.4138381e-08 0)
(0.0030126525 -7.134574e-08 0)
(0.0030218955 6.8768408e-08 0)
(0.0030135088 -6.6400337e-08 0)
(0.0030210501 6.4259695e-08 0)
(0.0030143427 -6.2338217e-08 0)
(0.0030202255 6.065051e-08 0)
(0.0030151568 -5.9195037e-08 0)
(0.0030194162 5.7959906e-08 0)
(0.0030159575 -5.7039622e-08 0)
(0.0030186549 5.6280694e-08 0)
(0.0030169553 -5.5254671e-08 0)
(0.0030186425 5.9972008e-08 0)
(0.0068942993 0.0013832514 0)
(0.011799248 4.5781164e-06 0)
(0.0085668427 1.4026684e-05 0)
(0.0089686977 -3.261471e-07 0)
(0.0086888309 -4.9922414e-07 0)
(0.0088966866 9.8607855e-07 0)
(0.0086793375 -6.5899269e-07 0)
(0.0088428711 8.3685888e-07 0)
(0.0086877831 -7.9020951e-07 0)
(0.0088307781 7.9386268e-07 0)
(0.0086934957 -7.5967263e-07 0)
(0.0088238745 7.417914e-07 0)
(0.0086985359 -7.1284781e-07 0)
(0.0088182709 6.9128067e-07 0)
(0.0087033606 -6.6618111e-07 0)
(0.0088133363 6.4412983e-07 0)
(0.0087079259 -6.2117459e-07 0)
(0.0088088286 5.9960156e-07 0)
(0.0087122209 -5.7798353e-07 0)
(0.0088046353 5.5714556e-07 0)
(0.0087162672 -5.3652349e-07 0)
(0.0088006925 5.1647298e-07 0)
(0.0087200967 -4.9676541e-07 0)
(0.0087969598 4.7755333e-07 0)
(0.0087237341 -4.5872283e-07 0)
(0.0087934087 4.4039865e-07 0)
(0.008727202 -4.2252251e-07 0)
(0.0087900202 4.0516834e-07 0)
(0.0087305151 -3.883053e-07 0)
(0.0087867798 3.7201923e-07 0)
(0.0087336862 -3.5627818e-07 0)
(0.0087836762 3.4115378e-07 0)
(0.0087367261 -3.2663317e-07 0)
(0.0087806988 3.1278276e-07 0)
(0.0087396435 -2.995876e-07 0)
(0.008777839 2.8709788e-07 0)
(0.0087424495 -2.753241e-07 0)
(0.0087750859 2.6430199e-07 0)
(0.0087451547 -2.5402324e-07 0)
(0.0087724276 2.4454388e-07 0)
(0.0087477695 -2.3585035e-07 0)
(0.0087698517 2.2797233e-07 0)
(0.0087503096 -2.2091707e-07 0)
(0.0087673442 2.147198e-07 0)
(0.0087527867 -2.0932848e-07 0)
(0.0087648845 2.0488152e-07 0)
(0.0087552135 -2.0160279e-07 0)
(0.0087625054 1.9607994e-07 0)
(0.0087580084 -2.0652251e-07 0)
(0.0087619672 1.8626178e-07 0)
(0.0108319 0.0021413977 0)
(0.018741757 -2.4070847e-05 0)
(0.014115794 3.4474573e-05 0)
(0.014675363 -7.432808e-09 0)
(0.014229262 -8.4407912e-07 0)
(0.014582812 1.8692201e-06 0)
(0.014215883 -1.0185114e-06 0)
(0.014495973 1.5300418e-06 0)
(0.014230475 -1.4317406e-06 0)
(0.014476635 1.458618e-06 0)
(0.014240452 -1.3912864e-06 0)
(0.014465017 1.364301e-06 0)
(0.01424921 -1.3082797e-06 0)
(0.014455415 1.2708785e-06 0)
(0.014257574 -1.223664e-06 0)
(0.014446904 1.1838505e-06 0)
(0.01426549 -1.1412594e-06 0)
(0.014439102 1.1017511e-06 0)
(0.014272945 -1.0618237e-06 0)
(0.014431829 1.0234457e-06 0)
(0.014279975 -9.8541151e-07 0)
(0.014424982 9.4839535e-07 0)
(0.014286632 -9.119998e-07 0)
(0.014418498 8.7648604e-07 0)
(0.014292954 -8.4172006e-07 0)
(0.014412331 8.0783371e-07 0)
(0.014298977 -7.7478514e-07 0)
(0.014406453 7.4268597e-07 0)
(0.014304724 -7.1153675e-07 0)
(0.014400839 6.8139753e-07 0)
(0.014310216 -6.5231526e-07 0)
(0.014395472 6.2433264e-07 0)
(0.01431547 -5.9750843e-07 0)
(0.014390332 5.7189175e-07 0)
(0.014320503 -5.4751303e-07 0)
(0.014385406 5.2442711e-07 0)
(0.014325333 -5.0267424e-07 0)
(0.014380673 4.8226201e-07 0)
(0.014329982 -4.6329866e-07 0)
(0.014376112 4.4577361e-07 0)
(0.014334466 -4.2968429e-07 0)
(0.014371698 4.1512095e-07 0)
(0.014338816 -4.0207837e-07 0)
(0.014367408 3.9061283e-07 0)
(0.014343055 -3.8057841e-07 0)
(0.014363202 3.7234722e-07 0)
(0.014347203 -3.6609188e-07 0)
(0.014359096 3.5518279e-07 0)
(0.014351829 -3.8100681e-07 0)
(0.01435775 3.3484238e-07 0)
(0.015499404 0.0030989047 0)
(0.025317974 -2.611267e-05 0)
(0.019495877 6.2627291e-05 0)
(0.020225841 -1.1262454e-08 0)
(0.019618057 -1.1053385e-06 0)
(0.020121512 2.7937138e-06 0)
(0.019600396 -1.18954e-06 0)
(0.020005022 2.1986884e-06 0)
(0.019621912 -2.0439053e-06 0)
(0.019978821 2.1107502e-06 0)
(0.01963658 -2.0074399e-06 0)
(0.01996231 1.9768924e-06 0)
(0.019649383 -1.8916741e-06 0)
(0.019948451 1.8408042e-06 0)
(0.01966158 -1.7708465e-06 0)
(0.019936093 1.7142192e-06 0)
(0.019673126 -1.6519597e-06 0)
(0.019924728 1.5949289e-06 0)
(0.019684008 -1.5368183e-06 0)
(0.019914114 1.4811e-06 0)
(0.019694278 -1.425736e-06 0)
(0.019904112 1.3718365e-06 0)
(0.019704005 -1.3189173e-06 0)
(0.01989464 1.267145e-06 0)
(0.01971324 -1.216519e-06 0)
(0.019885636 1.1670828e-06 0)
(0.019722031 -1.1189997e-06 0)
(0.019877061 1.0721582e-06 0)
(0.019730409 -1.02679e-06 0)
(0.019868884 9.8283211e-07 0)
(0.019738403 -9.4048336e-07 0)
(0.019861079 8.9966295e-07 0)
(0.019746037 -8.6060712e-07 0)
(0.01985362 8.2325295e-07 0)
(0.019753334 -7.8777155e-07 0)
(0.019846485 7.5409029e-07 0)
(0.019760323 -7.2244516e-07 0)
(0.019839644 6.9271665e-07 0)
(0.019767034 -6.6509643e-07 0)
(0.019833065 6.3955574e-07 0)
(0.019773496 -6.1616655e-07 0)
(0.019826712 5.9491743e-07 0)
(0.019779753 -5.7593465e-07 0)
(0.019820546 5.5920415e-07 0)
(0.019785841 -5.4456326e-07 0)
(0.01981451 5.3271257e-07 0)
(0.019791792 -5.2331092e-07 0)
(0.019808587 5.0632709e-07 0)
(0.019798277 -5.5355998e-07 0)
(0.019806142 4.7506847e-07 0)
(0.018740295 0.0035385815 0)
(0.031427222 -8.642928e-05 0)
(0.024718639 9.5357409e-05 0)
(0.025627166 2.8923512e-07 0)
(0.024854435 -1.2661615e-06 0)
(0.025511846 3.7388946e-06 0)
(0.024832757 -1.1745972e-06 0)
(0.025369945 2.8108635e-06 0)
(0.024862161 -2.6045629e-06 0)
(0.025337235 2.723058e-06 0)
(0.024881956 -2.5835754e-06 0)
(0.025315653 2.5547372e-06 0)
(0.024899127 -2.4394114e-06 0)
(0.025297277 2.377963e-06 0)
(0.024915454 -2.2854916e-06 0)
(0.025280802 2.2136866e-06 0)
(0.024930909 -2.1324322e-06 0)
(0.025265605 2.0589942e-06 0)
(0.024945487 -1.9834838e-06 0)
(0.02525139 1.9113127e-06 0)
(0.024959252 -1.8394659e-06 0)
(0.025237986 1.7694778e-06 0)
(0.024972291 -1.7007219e-06 0)
(0.025225292 1.6334127e-06 0)
(0.024984666 -1.5676557e-06 0)
(0.025213233 1.5033599e-06 0)
(0.024996433 -1.4408349e-06 0)
(0.025201761 1.3799099e-06 0)
(0.025007635 -1.3209686e-06 0)
(0.025190837 1.2637722e-06 0)
(0.025018304 -1.2087531e-06 0)
(0.025180429 1.1556583e-06 0)
(0.025028475 -1.1049328e-06 0)
(0.025170503 1.0563739e-06 0)
(0.025038177 -1.0102926e-06 0)
(0.025161027 9.6653966e-07 0)
(0.025047447 -9.2544997e-07 0)
(0.025151963 8.867705e-07 0)
(0.02505633 -8.5096913e-07 0)
(0.025143264 8.1780426e-07 0)
(0.025064865 -7.8740305e-07 0)
(0.025134882 7.5982919e-07 0)
(0.025073112 -7.3520249e-07 0)
(0.025126763 7.1349664e-07 0)
(0.025081122 -6.9441115e-07 0)
(0.025118828 6.7906858e-07 0)
(0.025088941 -6.6657124e-07 0)
(0.025111023 6.4361038e-07 0)
(0.02509731 -7.1640481e-07 0)
(0.025107241 6.0068403e-07 0)
(0.023454902 0.0044405228 0)
(0.037238859 -8.4005102e-05 0)
(0.029768744 0.00013392931 0)
(0.030878313 -5.4582392e-08 0)
(0.029936902 -1.3911418e-06 0)
(0.030753114 4.6932575e-06 0)
(0.029913265 -1.0089008e-06 0)
(0.030590385 3.3651257e-06 0)
(0.029951659 -3.1200727e-06 0)
(0.030551483 3.2969288e-06 0)
(0.029976986 -3.1224075e-06 0)
(0.030524663 3.0994867e-06 0)
(0.029998827 -2.9534575e-06 0)
(0.030501531 2.8839189e-06 0)
(0.030019559 -2.7692088e-06 0)
(0.030480684 2.68366e-06 0)
(0.030039186 -2.5840791e-06 0)
(0.030461404 2.4952523e-06 0)
(0.030057709 -2.403095e-06 0)
(0.030443345 2.315311e-06 0)
(0.030075207 -2.2276147e-06 0)
(0.030426309 2.1422537e-06 0)
(0.030091781 -2.0584407e-06 0)
(0.030410178 1.9762618e-06 0)
(0.030107501 -1.8959989e-06 0)
(0.030394866 1.8174593e-06 0)
(0.030122436 -1.7412222e-06 0)
(0.030380317 1.66679e-06 0)
(0.030136632 -1.5948646e-06 0)
(0.030366484 1.5250367e-06 0)
(0.030150131 -1.4579229e-06 0)
(0.030353328 1.3930994e-06 0)
(0.030162974 -1.3312446e-06 0)
(0.030340806 1.2719929e-06 0)
(0.030175199 -1.2158318e-06 0)
(0.030328879 1.1624259e-06 0)
(0.030186856 -1.1123807e-06 0)
(0.030317494 1.0652532e-06 0)
(0.030197999 -1.0216071e-06 0)
(0.030306595 9.8118463e-07 0)
(0.030208681 -9.4419483e-07 0)
(0.030296114 9.1055617e-07 0)
(0.030218982 -8.8057124e-07 0)
(0.030285983 8.5409775e-07 0)
(0.030228968 -8.3081923e-07 0)
(0.030276101 8.1236543e-07 0)
(0.030238701 -7.9659941e-07 0)
(0.03026637 7.6759243e-07 0)
(0.030248967 -8.6884292e-07 0)
(0.030261054 7.1199547e-07 0)
(0.026697087 0.0047969618 0)
(0.042542093 -0.00017528281 0)
(0.034667534 0.00017210421 0)
(0.03598541 -1.9566946e-07 0)
(0.034862781 -1.4054322e-06 0)
(0.035845241 5.6623906e-06 0)
(0.034842271 -7.2330372e-07 0)
(0.035665926 3.8594098e-06 0)
(0.03489087 -3.5974049e-06 0)
(0.035621112 3.8344544e-06 0)
(0.034922113 -3.6276382e-06 0)
(0.035588909 3.613708e-06 0)
(0.034948904 -3.4366453e-06 0)
(0.035560798 3.3611118e-06 0)
(0.034974295 -3.2244598e-06 0)
(0.035535346 3.1263967e-06 0)
(0.034998336 -3.0090797e-06 0)
(0.035511752 2.9057172e-06 0)
(0.035021035 -2.7975842e-06 0)
(0.035489628 2.6948795e-06 0)
(0.035042481 -2.5921196e-06 0)
(0.035468752 2.4920381e-06 0)
(0.035062789 -2.3937322e-06 0)
(0.035448993 2.2972897e-06 0)
(0.03508204 -2.203192e-06 0)
(0.035430251 2.1110081e-06 0)
(0.035100308 -2.0215512e-06 0)
(0.035412466 1.9342049e-06 0)
(0.035117648 -1.8498968e-06 0)
(0.035395584 1.7679381e-06 0)
(0.035134107 -1.6892841e-06 0)
(0.035379557 1.6132394e-06 0)
(0.035149736 -1.5407851e-06 0)
(0.035364335 1.4713308e-06 0)
(0.035164581 -1.4055556e-06 0)
(0.035349867 1.3430059e-06 0)
(0.035178704 -1.284416e-06 0)
(0.035336089 1.2291415e-06 0)
(0.035192176 -1.178144e-06 0)
(0.035322926 1.1308333e-06 0)
(0.035205061 -1.0874937e-06 0)
(0.035310297 1.0481593e-06 0)
(0.03521746 -1.0131036e-06 0)
(0.035298115 9.8215346e-07 0)
(0.035229457 -9.5481963e-07 0)
(0.035286256 9.3327765e-07 0)
(0.035241134 -9.143248e-07 0)
(0.035274575 8.7975887e-07 0)
(0.035253296 -1.0111783e-06 0)
(0.035267566 8.0932269e-07 0)
(0.031171638 0.005439038 0)
(0.04761267 -0.00017080912 0)
(0.03940569 0.00021557507 0)
(0.040944528 -1.0347112e-06 0)
(0.039628002 -1.397385e-06 0)
(0.040787893 6.5657087e-06 0)
(0.039620049 -3.5336931e-07 0)
(0.040596197 4.2860988e-06 0)
(0.039680228 -4.0390881e-06 0)
(0.040545718 4.3344895e-06 0)
(0.039717751 -4.0992081e-06 0)
(0.040507994 4.0966607e-06 0)
(0.03974975 -3.8885231e-06 0)
(0.040474704 3.8088734e-06 0)
(0.039780037 -3.6506581e-06 0)
(0.040444431 3.5412417e-06 0)
(0.039808713 -3.4068436e-06 0)
(0.040416311 3.2898264e-06 0)
(0.039835797 -3.1664292e-06 0)
(0.04038992 3.0495647e-06 0)
(0.039861387 -2.9322876e-06 0)
(0.040365016 2.8181452e-06 0)
(0.03988561 -2.7061252e-06 0)
(0.040341456 2.5960465e-06 0)
(0.039908552 -2.4886978e-06 0)
(0.040319132 2.3834592e-06 0)
(0.039930299 -2.2815336e-06 0)
(0.040297976 2.1818224e-06 0)
(0.039950908 -2.0857053e-06 0)
(0.040277927 1.9922306e-06 0)
(0.039970436 -1.9026055e-06 0)
(0.040258929 1.8158862e-06 0)
(0.039988944 -1.73337e-06 0)
(0.040240922 1.6542249e-06 0)
(0.040006485 -1.5793648e-06 0)
(0.040223844 1.5080733e-06 0)
(0.040023138 -1.4414441e-06 0)
(0.040207616 1.3785662e-06 0)
(0.040038985 -1.3205242e-06 0)
(0.040192149 1.2666974e-06 0)
(0.04005411 -1.2174714e-06 0)
(0.040177341 1.1726852e-06 0)
(0.040068633 -1.1328525e-06 0)
(0.040163085 1.0976237e-06 0)
(0.04008266 -1.0665285e-06 0)
(0.040149235 1.042334e-06 0)
(0.040096291 -1.0199994e-06 0)
(0.040135599 9.7999209e-07 0)
(0.040110339 -1.1423982e-06 0)
(0.040126771 8.933731e-07 0)
(0.034803193 0.0058864485 0)
(0.052112603 -0.00027888754 0)
(0.043977053 0.00025113614 0)
(0.045757733 -4.4330346e-07 0)
(0.044230975 -8.9365402e-07 0)
(0.045582096 7.4390419e-06 0)
(0.044247407 9.9702751e-08 0)
(0.045380977 4.6397504e-06 0)
(0.044320174 -4.4457687e-06 0)
(0.045324924 4.7943543e-06 0)
(0.044364277 -4.5361999e-06 0)
(0.045281548 4.5464295e-06 0)
(0.044401725 -4.3076448e-06 0)
(0.04524289 4.2255012e-06 0)
(0.044437126 -4.046283e-06 0)
(0.045207599 3.9266249e-06 0)
(0.044470642 -3.7758504e-06 0)
(0.04517476 3.6460341e-06 0)
(0.044502301 -3.5081239e-06 0)
(0.045143921 3.3778419e-06 0)
(0.04453221 -3.2469573e-06 0)
(0.045114822 3.1194902e-06 0)
(0.044560506 -2.9943749e-06 0)
(0.045087312 2.8713627e-06 0)
(0.044587283 -2.7515423e-06 0)
(0.045061272 2.6339512e-06 0)
(0.044612631 -2.5201084e-06 0)
(0.045036629 2.4087405e-06 0)
(0.044636616 -2.3015158e-06 0)
(0.045013315 2.1971106e-06 0)
(0.044659302 -2.0971622e-06 0)
(0.044991266 2.0003684e-06 0)
(0.044680759 -1.9084106e-06 0)
(0.04497041 1.8201563e-06 0)
(0.044701053 -1.7367493e-06 0)
(0.044950673 1.657327e-06 0)
(0.044720276 -1.5831292e-06 0)
(0.044931961 1.5129899e-06 0)
(0.044738529 -1.4484981e-06 0)
(0.044914164 1.3885885e-06 0)
(0.044755913 -1.333739e-06 0)
(0.044897162 1.2839529e-06 0)
(0.04477257 -1.2396809e-06 0)
(0.044880827 1.2005292e-06 0)
(0.044788628 -1.1658371e-06 0)
(0.044864987 1.1389684e-06 0)
(0.044804212 -1.1134684e-06 0)
(0.044849406 1.0687986e-06 0)
(0.044820124 -1.2621895e-06 0)
(0.044838664 9.6376377e-07 0)
(0.03894532 0.0062246452 0)
(0.056385517 -0.00028243102 0)
(0.048401431 0.00029429103 0)
(0.050403037 -1.9663633e-06 0)
(0.048663611 -8.3168394e-07 0)
(0.050226274 7.9974693e-06 0)
(0.048724494 5.8001874e-07 0)
(0.050019917 4.907948e-06 0)
(0.048811116 -4.818018e-06 0)
(0.049958393 5.2125148e-06 0)
(0.04886207 -4.9372206e-06 0)
(0.049909228 4.9615582e-06 0)
(0.048905181 -4.6926015e-06 0)
(0.049865026 4.6095656e-06 0)
(0.048945894 -4.4099404e-06 0)
(0.049824535 4.2811687e-06 0)
(0.048984435 -4.1148086e-06 0)
(0.049786802 3.9731416e-06 0)
(0.049020839 -3.8215451e-06 0)
(0.049751353 3.6787132e-06 0)
(0.049055224 -3.5348359e-06 0)
(0.049717912 3.3948226e-06 0)
(0.049087731 -3.257537e-06 0)
(0.049686321 3.1223403e-06 0)
(0.049118462 -2.9907323e-06 0)
(0.049656453 2.8615058e-06 0)
(0.049147515 -2.7366468e-06 0)
(0.04962823 2.6142838e-06 0)
(0.049174961 -2.4966339e-06 0)
(0.049601576 2.382049e-06 0)
(0.049200872 -2.272452e-06 0)
(0.049576416 2.1662475e-06 0)
(0.049225332 -2.0654849e-06 0)
(0.049552666 1.9687354e-06 0)
(0.049248415 -1.8774113e-06 0)
(0.049530239 1.7903363e-06 0)
(0.049270234 -1.7091715e-06 0)
(0.049509022 1.6324308e-06 0)
(0.049290906 -1.5618346e-06 0)
(0.049488889 1.4962872e-06 0)
(0.049310552 -1.4363725e-06 0)
(0.049469693 1.3818681e-06 0)
(0.049329338 -1.333504e-06 0)
(0.049451288 1.2906613e-06 0)
(0.049347415 -1.2527412e-06 0)
(0.049433474 1.2237177e-06 0)
(0.049364934 -1.1948984e-06 0)
(0.049415972 1.1457579e-06 0)
(0.049382679 -1.3695092e-06 0)
(0.049403248 1.0215422e-06 0)
(0.042934536 0.0067326434 0)
(0.060145531 -0.00039632675 0)
(0.052655158 0.00032683629 0)
(0.054901799 -3.3452025e-06 0)
(0.052931227 -7.6823157e-07 0)
(0.054721986 8.228819e-06 0)
(0.053052118 1.0733409e-06 0)
(0.054512757 5.0819317e-06 0)
(0.053153414 -5.1582725e-06 0)
(0.054445749 5.5861228e-06 0)
(0.053211465 -5.3020879e-06 0)
(0.054390679 5.3404526e-06 0)
(0.053260446 -5.0424874e-06 0)
(0.05434078 4.9597753e-06 0)
(0.053306655 -4.7405931e-06 0)
(0.054294929 4.6037445e-06 0)
(0.053350387 -4.4226514e-06 0)
(0.054252147 4.2700295e-06 0)
(0.053391689 -4.1056101e-06 0)
(0.054211945 3.9510554e-06 0)
(0.053430682 -3.7952484e-06 0)
(0.054174036 3.6435383e-06 0)
(0.053467519 -3.4947837e-06 0)
(0.054138256 3.3482293e-06 0)
(0.053502305 -3.205744e-06 0)
(0.05410447 3.065707e-06 0)
(0.053535143 -2.9304659e-06 0)
(0.054072592 2.7979499e-06 0)
(0.053566115 -2.6706906e-06 0)
(0.05404254 2.5466113e-06 0)
(0.0535953 -2.4281196e-06 0)
(0.054014227 2.3132079e-06 0)
(0.053622794 -2.20436e-06 0)
(0.053987558 2.0997968e-06 0)
(0.053648688 -2.0011714e-06 0)
(0.053962428 1.9071597e-06 0)
(0.053673108 -1.8195618e-06 0)
(0.053938705 1.7366078e-06 0)
(0.053696197 -1.6606033e-06 0)
(0.053916242 1.5899136e-06 0)
(0.053718092 -1.5252215e-06 0)
(0.053894869 1.4665316e-06 0)
(0.053738988 -1.414459e-06 0)
(0.053874415 1.3683413e-06 0)
(0.053759059 -1.3273772e-06 0)
(0.053854656 1.2961303e-06 0)
(0.053778485 -1.2643534e-06 0)
(0.05383527 1.211689e-06 0)
(0.053798022 -1.4645546e-06 0)
(0.05382052 1.0665369e-06 0)
(0.046878668 0.0068340196 0)
(0.063767497 -0.00040152077 0)
(0.056709987 0.00035616187 0)
(0.059265485 -3.6284722e-06 0)
(0.05704764 -2.7093494e-07 0)
(0.05907112 8.1119589e-06 0)
(0.057231613 1.6011192e-06 0)
(0.058859504 5.1682355e-06 0)
(0.057347569 -5.4620856e-06 0)
(0.058786717 5.9154791e-06 0)
(0.057412835 -5.6293279e-06 0)
(0.05872559 5.6822123e-06 0)
(0.057467852 -5.356224e-06 0)
(0.058669848 5.2751518e-06 0)
(0.057519717 -5.0372334e-06 0)
(0.05861849 4.8934008e-06 0)
(0.057568787 -4.6984989e-06 0)
(0.058570524 4.5359363e-06 0)
(0.057615115 -4.3596315e-06 0)
(0.058525448 4.1943224e-06 0)
(0.057658831 -4.0272651e-06 0)
(0.058482965 3.8647478e-06 0)
(0.057700094 -3.7055862e-06 0)
(0.058442908 3.5485321e-06 0)
(0.057739011 -3.3959451e-06 0)
(0.058405133 3.2459301e-06 0)
(0.057775698 -3.1013415e-06 0)
(0.05836955 2.9594295e-06 0)
(0.057810238 -2.8233384e-06 0)
(0.058336063 2.6906329e-06 0)
(0.057842726 -2.5640095e-06 0)
(0.058304576 2.4411527e-06 0)
(0.057873271 -2.3249373e-06 0)
(0.058274979 2.2132557e-06 0)
(0.057901976 -2.1080409e-06 0)
(0.058247147 2.0076284e-06 0)
(0.057928992 -1.9142763e-06 0)
(0.05822093 1.8258638e-06 0)
(0.057954478 -1.7448171e-06 0)
(0.05819616 1.6694858e-06 0)
(0.057978598 -1.6006516e-06 0)
(0.058172639 1.5380781e-06 0)
(0.058001571 -1.4826827e-06 0)
(0.058150173 1.4335419e-06 0)
(0.058023599 -1.3899613e-06 0)
(0.058128507 1.3570786e-06 0)
(0.058044891 -1.3222304e-06 0)
(0.058107282 1.2662114e-06 0)
(0.058066173 -1.5465296e-06 0)
(0.058090486 1.1002406e-06 0)
(0.051214635 0.0073803819 0)
(0.066984856 -0.00051262089 0)
(0.060610524 0.00037980985 0)
(0.063480711 -5.5068722e-06 0)
(0.061012922 -2.8658117e-08 0)
(0.063273129 7.557778e-06 0)
(0.06126316 2.136904e-06 0)
(0.063059777 5.1639762e-06 0)
(0.061393889 -5.7277873e-06 0)
(0.062980935 6.1998349e-06 0)
(0.061466497 -5.9181462e-06 0)
(0.062913629 5.9858182e-06 0)
(0.061527708 -5.6330289e-06 0)
(0.062851919 5.5547045e-06 0)
(0.06158537 -5.2990742e-06 0)
(0.062794932 5.1492844e-06 0)
(0.061639902 -4.9415529e-06 0)
(0.062741667 4.7700025e-06 0)
(0.061691366 -4.5827824e-06 0)
(0.062691618 4.4076351e-06 0)
(0.061739898 -4.2305389e-06 0)
(0.062644478 4.0581733e-06 0)
(0.06178566 -3.8893833e-06 0)
(0.062600079 3.7227747e-06 0)
(0.061828769 -3.5611175e-06 0)
(0.062558266 3.4020598e-06 0)
(0.061869341 -3.2488319e-06 0)
(0.062518942 3.0984873e-06 0)
(0.061907477 -2.954479e-06 0)
(0.062482003 2.8139172e-06 0)
(0.061943278 -2.680007e-06 0)
(0.062447337 2.549995e-06 0)
(0.06197687 -2.4272141e-06 0)
(0.062414819 2.3091783e-06 0)
(0.062008374 -2.1980505e-06 0)
(0.062384306 2.0920386e-06 0)
(0.06203796 -1.9935129e-06 0)
(0.062355625 1.9000614e-06 0)
(0.062065813 -1.814753e-06 0)
(0.062328581 1.7353198e-06 0)
(0.062092119 -1.6626438e-06 0)
(0.062302952 1.5967851e-06 0)
(0.062117126 -1.538482e-06 0)
(0.062278518 1.4867805e-06 0)
(0.062141062 -1.4407741e-06 0)
(0.062254995 1.4061351e-06 0)
(0.062164172 -1.3687159e-06 0)
(0.06223199 1.3103776e-06 0)
(0.062187142 -1.616025e-06 0)
(0.062213145 1.122513e-06 0)
(0.054899382 0.0072553377 0)
(0.070119907 -0.00052472476 0)
(0.064365717 0.0004005442 0)
(0.067544277 -7.6100964e-06 0)
(0.06483555 4.8431803e-07 0)
(0.067328363 6.6043536e-06 0)
(0.065147254 2.6801289e-06 0)
(0.067113295 5.0642671e-06 0)
(0.0652927 -5.9569524e-06 0)
(0.067028065 6.4367925e-06 0)
(0.065372762 -6.1685505e-06 0)
(0.066954482 6.2499729e-06 0)
(0.065440309 -5.8723064e-06 0)
(0.066886706 5.7975636e-06 0)
(0.065503895 -5.5253954e-06 0)
(0.066823989 5.3706612e-06 0)
(0.065563995 -5.151197e-06 0)
(0.066765333 4.9717322e-06 0)
(0.065620682 -4.7746572e-06 0)
(0.066710233 4.5907413e-06 0)
(0.065674098 -4.4043539e-06 0)
(0.066658375 4.2231409e-06 0)
(0.065724412 -4.0459173e-06 0)
(0.066609588 3.8707168e-06 0)
(0.065771746 -3.7008511e-06 0)
(0.066563708 3.5336934e-06 0)
(0.065816229 -3.3729815e-06 0)
(0.066520633 3.2150463e-06 0)
(0.065857964 -3.0639835e-06 0)
(0.066480243 2.9165382e-06 0)
(0.065897071 -2.7761785e-06 0)
(0.066442412 2.6398582e-06 0)
(0.065933692 -2.5112958e-06 0)
(0.066406997 2.3876663e-06 0)
(0.065967964 -2.2714049e-06 0)
(0.066373834 2.160374e-06 0)
(0.066000086 -2.0574161e-06 0)
(0.066342727 1.9597574e-06 0)
(0.06603026 -1.8705601e-06 0)
(0.066313458 1.7875689e-06 0)
(0.066058704 -1.7117486e-06 0)
(0.066285774 1.6429146e-06 0)
(0.06608569 -1.5821162e-06 0)
(0.066259427 1.5281159e-06 0)
(0.066111479 -1.480157e-06 0)
(0.066234106 1.4444083e-06 0)
(0.066136346 -1.404336e-06 0)
(0.066209383 1.3437719e-06 0)
(0.066160944 -1.6723831e-06 0)
(0.066188507 1.1351251e-06 0)
(0.059569002 0.0078375093 0)
(0.072985174 -0.00061895425 0)
(0.0679921 0.0004086807 0)
(0.071443765 -8.4794518e-06 0)
(0.06851915 1.3899638e-06 0)
(0.071237432 5.3956546e-06 0)
(0.068884847 3.2747811e-06 0)
(0.071020141 4.8872908e-06 0)
(0.069044547 -6.1386621e-06 0)
(0.070927906 6.6296844e-06 0)
(0.069132003 -6.3781472e-06 0)
(0.070847882 6.4747621e-06 0)
(0.069205964 -6.0731112e-06 0)
(0.070773936 6.0031908e-06 0)
(0.069275562 -5.7155757e-06 0)
(0.070705403 5.5569927e-06 0)
(0.069341308 -5.3268739e-06 0)
(0.070641286 5.1405319e-06 0)
(0.06940328 -4.9346704e-06 0)
(0.070581079 4.7430007e-06 0)
(0.069461628 -4.5486757e-06 0)
(0.070524465 4.3596828e-06 0)
(0.069516526 -4.1748763e-06 0)
(0.070471266 3.992143e-06 0)
(0.069568103 -3.8152113e-06 0)
(0.070421312 3.6409877e-06 0)
(0.069616492 -3.4735662e-06 0)
(0.070374489 3.309113e-06 0)
(0.069661816 -3.1519938e-06 0)
(0.070330666 2.9985056e-06 0)
(0.069704204 -2.8526175e-06 0)
(0.070289699 2.7108494e-06 0)
(0.069743818 -2.5773737e-06 0)
(0.070251426 2.4489819e-06 0)
(0.069780818 -2.3283075e-06 0)
(0.070215661 2.2131266e-06 0)
(0.069815421 -2.1063485e-06 0)
(0.070182183 2.0049211e-06 0)
(0.069847864 -1.9126835e-06 0)
(0.070150744 1.8267028e-06 0)
(0.069878384 -1.7480396e-06 0)
(0.070121065 1.6768806e-06 0)
(0.069907288 -1.6140208e-06 0)
(0.07009287 1.5582182e-06 0)
(0.069934865 -1.5084928e-06 0)
(0.070065816 1.4714601e-06 0)
(0.069961426 -1.4293564e-06 0)
(0.070039446 1.3676407e-06 0)
(0.069987582 -1.7165161e-06 0)
(0.070016571 1.1378667e-06 0)
(0.062954462 0.0075267661 0)
(0.075779296 -0.00063763124 0)
(0.071538645 0.00041500884 0)
(0.075145822 -1.1103959e-05 0)
(0.072062201 1.6462333e-06 0)
(0.074997443 3.7202861e-06 0)
(0.072475357 3.8304412e-06 0)
(0.074779666 4.6032408e-06 0)
(0.072649573 -6.2826181e-06 0)
(0.074680056 6.7732623e-06 0)
(0.072744467 -6.5485035e-06 0)
(0.074593511 6.6585295e-06 0)
(0.072824932 -6.2354103e-06 0)
(0.074513338 6.1708442e-06 0)
(0.072900621 -5.8692496e-06 0)
(0.074438934 5.7077868e-06 0)
(0.072972071 -5.4682785e-06 0)
(0.074369311 5.2761954e-06 0)
(0.073039371 -5.0627313e-06 0)
(0.074303965 4.8644744e-06 0)
(0.073102675 -4.6630264e-06 0)
(0.074242577 4.4673592e-06 0)
(0.073162166 -4.2762873e-06 0)
(0.074184965 4.0870771e-06 0)
(0.073217977 -3.9040171e-06 0)
(0.074130949 3.723769e-06 0)
(0.073270258 -3.5508958e-06 0)
(0.074080405 3.3808357e-06 0)
(0.073319137 -3.2185931e-06 0)
(0.074033184 3.0601218e-06 0)
(0.073364766 -2.9095997e-06 0)
(0.073989127 2.7632978e-06 0)
(0.073407326 -2.6257409e-06 0)
(0.073948049 2.4933937e-06 0)
(0.073446995 -2.3691363e-06 0)
(0.073909739 2.2504145e-06 0)
(0.073484023 -2.140603e-06 0)
(0.07387395 2.0362966e-06 0)
(0.073518666 -1.9413832e-06 0)
(0.073840411 1.852986e-06 0)
(0.073551196 -1.7722243e-06 0)
(0.073808806 1.6990447e-06 0)
(0.073581947 -1.6345509e-06 0)
(0.073778833 1.5772075e-06 0)
(0.07361124 -1.5262219e-06 0)
(0.073750119 1.4886009e-06 0)
(0.073639422 -1.4443998e-06 0)
(0.073722177 1.3815195e-06 0)
(0.073667067 -1.7478586e-06 0)
(0.073697347 1.1326961e-06 0)
(0.067722169 0.0080733679 0)
(0.078422981 -0.00071429462 0)
(0.075015656 0.00041725948 0)
(0.078666024 -1.47545e-05 0)
(0.07546836 9.1114753e-07 0)
(0.078608437 1.6718376e-06 0)
(0.075919122 4.342941e-06 0)
(0.078391615 4.2153057e-06 0)
(0.076108102 -6.3829761e-06 0)
(0.078284222 6.8693066e-06 0)
(0.076210448 -6.678031e-06 0)
(0.078191102 6.8015321e-06 0)
(0.076297482 -6.3585416e-06 0)
(0.078104662 6.300308e-06 0)
(0.076379311 -5.9860603e-06 0)
(0.078024353 5.8228222e-06 0)
(0.076456499 -5.5751285e-06 0)
(0.077949201 5.3784149e-06 0)
(0.076529142 -5.158514e-06 0)
(0.077878708 4.9547774e-06 0)
(0.076597406 -4.747692e-06 0)
(0.077812551 4.5465155e-06 0)
(0.076661475 -4.3500898e-06 0)
(0.077750545 4.1555633e-06 0)
(0.076721498 -3.9676123e-06 0)
(0.077692498 3.7824541e-06 0)
(0.076777628 -3.6049558e-06 0)
(0.077638273 3.4304522e-06 0)
(0.076830018 -3.2641479e-06 0)
(0.077587707 3.1015855e-06 0)
(0.076878832 -2.9474077e-06 0)
(0.077540618 2.7974825e-06 0)
(0.076924273 -2.6567596e-06 0)
(0.0774968 2.5213363e-06 0)
(0.076966547 -2.3942419e-06 0)
(0.077456016 2.2728952e-06 0)
(0.077005923 -2.1606767e-06 0)
(0.077417992 2.0539339e-06 0)
(0.077042695 -1.9572442e-06 0)
(0.077382425 1.8670109e-06 0)
(0.077077158 -1.7844414e-06 0)
(0.07734897 1.7099289e-06 0)
(0.077109681 -1.6442401e-06 0)
(0.077317296 1.585874e-06 0)
(0.077140612 -1.5337984e-06 0)
(0.077286997 1.4953597e-06 0)
(0.077170341 -1.4497816e-06 0)
(0.077257565 1.3868185e-06 0)
(0.077199398 -1.7675867e-06 0)
(0.077230836 1.1192662e-06 0)
(0.070988491 0.0076921002 0)
(0.081005611 -0.00073389884 0)
(0.078349705 0.00041374714 0)
(0.082051166 -1.6901223e-05 0)
(0.078752738 1.8469348e-07 0)
(0.082073521 -3.8352738e-07 0)
(0.079217817 4.9158054e-06 0)
(0.081856249 3.7594657e-06 0)
(0.079420642 -6.4244589e-06 0)
(0.081740199 6.9219571e-06 0)
(0.079530251 -6.7652855e-06 0)
(0.081640401 6.9035656e-06 0)
(0.079623867 -6.4423795e-06 0)
(0.081547674 6.391266e-06 0)
(0.079711859 -6.0659148e-06 0)
(0.081461451 5.9019146e-06 0)
(0.079794792 -5.6474287e-06 0)
(0.081380772 5.4472939e-06 0)
(0.079872772 -5.2222484e-06 0)
(0.081305146 5.0142878e-06 0)
(0.079945972 -4.8024355e-06 0)
(0.081234248 4.5969464e-06 0)
(0.080014587 -4.39659e-06 0)
(0.081167889 4.1978789e-06 0)
(0.080078773 -4.0060339e-06 0)
(0.081105862 3.817088e-06 0)
(0.080138703 -3.6363019e-06 0)
(0.081048018 3.4583142e-06 0)
(0.080194536 -3.2889319e-06 0)
(0.080994173 3.1234033e-06 0)
(0.080246465 -2.9665002e-06 0)
(0.080944125 2.8139117e-06 0)
(0.080294714 -2.6708824e-06 0)
(0.080897643 2.533215e-06 0)
(0.080339511 -2.4041449e-06 0)
(0.080854464 2.2807938e-06 0)
(0.080381161 -2.1669819e-06 0)
(0.080814283 2.0587297e-06 0)
(0.080419978 -1.9606048e-06 0)
(0.080776771 1.8691232e-06 0)
(0.080456294 -1.785521e-06 0)
(0.08074155 1.709961e-06 0)
(0.080490504 -1.6435081e-06 0)
(0.080708256 1.5843699e-06 0)
(0.080522994 -1.5317318e-06 0)
(0.080676453 1.4932108e-06 0)
(0.080554187 -1.4461865e-06 0)
(0.080645611 1.3830071e-06 0)
(0.080584583 -1.775183e-06 0)
(0.080617051 1.0996515e-06 0)
(0.075602576 0.0080884023 0)
(0.08352836 -0.00079986103 0)
(0.081510876 0.00040135781 0)
(0.085326325 -1.7171653e-05 0)
(0.081915421 -6.6653703e-07 0)
(0.085391659 -2.3880802e-06 0)
(0.082371527 5.5118272e-06 0)
(0.085173013 3.2215931e-06 0)
(0.082587351 -6.4093413e-06 0)
(0.085047634 6.9293435e-06 0)
(0.082704096 -6.8108179e-06 0)
(0.084941136 6.9644001e-06 0)
(0.08280431 -6.4869363e-06 0)
(0.084842141 6.4436738e-06 0)
(0.082898469 -6.1088313e-06 0)
(0.084750026 5.9451325e-06 0)
(0.082987131 -5.6852079e-06 0)
(0.084663849 5.4828083e-06 0)
(0.083070417 -5.2538794e-06 0)
(0.08458313 5.0428768e-06 0)
(0.08314851 -4.8278601e-06 0)
(0.084507541 4.6193014e-06 0)
(0.083221616 -4.41597e-06 0)
(0.084436888 4.2143164e-06 0)
(0.083289902 -4.0198874e-06 0)
(0.084370949 3.8283244e-06 0)
(0.083353553 -3.6451107e-06 0)
(0.084309558 3.4648697e-06 0)
(0.083412756 -3.2935108e-06 0)
(0.084252516 3.1259366e-06 0)
(0.083467716 -2.9673219e-06 0)
(0.084199592 2.8130079e-06 0)
(0.083518685 -2.6686123e-06 0)
(0.084150534 2.5296071e-06 0)
(0.083565921 -2.3993129e-06 0)
(0.084105048 2.2748985e-06 0)
(0.083609751 -2.1601165e-06 0)
(0.084062801 2.0507866e-06 0)
(0.083650527 -1.9521583e-06 0)
(0.08402343 1.8600044e-06 0)
(0.083688607 -1.775638e-06 0)
(0.083986527 1.6997409e-06 0)
(0.083724422 -1.6329555e-06 0)
(0.083951698 1.5735726e-06 0)
(0.083758385 -1.5205172e-06 0)
(0.083918475 1.4816281e-06 0)
(0.083790963 -1.4339519e-06 0)
(0.083886308 1.3716278e-06 0)
(0.083822615 -1.7720337e-06 0)
(0.083855989 1.0733227e-06 0)
(0.079085722 0.0077095614 0)
(0.086005982 -0.00080797204 0)
(0.084523188 0.0003876301 0)
(0.088472234 -1.909399e-05 0)
(0.084948311 -2.024803e-06 0)
(0.088559654 -4.3709644e-06 0)
(0.085380337 6.0953813e-06 0)
(0.088341339 2.601075e-06 0)