/*--------------------------------*- C++ -*----------------------------------*\
| =========                 |                                                 |
| \\      /  F ield         | OpenFOAM: The Open Source CFD Toolbox           |
|  \\    /   O peration     | Version:  2312                                  |
|   \\  /    A nd           | Website:  www.openfoam.com                      |
|    \\/     M anipulation  |                                                 |
\*---------------------------------------------------------------------------*/
FoamFile
{
    version     2.0;
    format      ascii;
    arch        "LSB;label=32;scalar=64";
    class       volScalarField;
    location    "6";
    object      p;
}
// * * * * * * * * * * * * * * * * * * * * * * * * * * * * * * * * * * * * * //

dimensions      [0 2 -2 0 0 0 0];

internalField   nonuniform List<scalar> 
4000
(
26.553222
25.480333
25.189762
24.339505
24.088302
23.291774
23.016293
22.252702
21.949295
21.213063
20.884233
20.172035
19.820702
19.129678
18.758482
18.086122
17.697412
17.041496
16.637357
15.99592
15.578204
14.949497
14.519851
13.902322
13.46221
12.854475
12.405206
11.806028
11.348771
10.757043
10.292846
9.7075755
9.2373798
8.657672
8.1823292
7.6073734
7.127656
6.5567144
6.0733282
5.5057243
5.0193191
4.4544274
3.9656066
3.4028433
2.9121733
2.3509874
1.8590059
1.2988699
0.80609229
0.24648955
26.549286
25.478943
25.189901
24.339515
24.088292
23.291786
23.016283
22.252712
21.949285
21.213072
20.884225
20.172042
19.820695
19.129685
18.758476
18.086128
17.697406
17.041502
16.637352
15.995925
15.578199
14.949502
14.519847
13.902326
13.462207
12.854478
12.405203
11.806031
11.348768
10.757046
10.292843
9.7075779
9.2373775
8.6576742
8.1823271
7.6073754
7.1276541
6.5567162
6.0733265
5.505726
5.0193175
4.454429
3.9656051
3.4028448
2.9121719
2.3509889
1.8590045
1.2988714
0.80609081
0.24649185
26.539759
25.477761
25.190167
24.339505
24.0883
23.291785
23.016284
22.252711
21.949286
21.213071
20.884226
20.172041
19.820695
19.129684
18.758476
18.086127
17.697407
17.041501
16.637353
15.995924
15.5782
14.949501
14.519847
13.902325
13.462207
12.854478
12.405203
11.80603
11.348768
10.757045
10.292843
9.7075776
9.2373778
8.6576739
8.1823273
7.6073751
7.1276543
6.556716
6.0733267
5.5057258
5.0193177
4.4544288
3.9656053
3.4028446
2.912172
2.3509887
1.8590046
1.2988712
0.80609085
0.24649258
26.529983
25.476764
25.190454
24.339491
24.088314
23.291779
23.01629
22.252705
21.949291
21.213066
20.88423
20.172037
19.820699
19.12968
18.75848
18.086124
17.69741
17.041498
16.637356
15.995922
15.578202
14.949499
14.519849
13.902323
13.462209
12.854476
12.405205
11.806029
11.34877
10.757044
10.292845
9.7075763
9.237379
8.6576728
8.1823284
7.6073741
7.1276553
6.556715
6.0733276
5.5057249
5.0193186
4.4544279
3.9656061
3.4028438
2.9121728
2.3509879
1.8590054
1.2988704
0.8060915
0.24649262
26.518326
25.475501
25.190698
24.339483
24.088328
23.291773
23.016294
22.2527
21.949295
21.213062
20.884234
20.172034
19.820703
19.129677
18.758483
18.086121
17.697412
17.041496
16.637358
15.995919
15.578204
14.949497
14.519851
13.902321
13.462211
12.854474
12.405207
11.806027
11.348771
10.757043
10.292846
9.7075752
9.2373801
8.6576717
8.1823294
7.6073731
7.1276562
6.5567141
6.0733285
5.505724
5.0193194
4.4544272
3.9656069
3.4028431
2.9121735
2.3509872
1.8590061
1.2988697
0.80609215
0.24649259
26.509772
25.474533
25.190884
24.339486
24.088344
23.291769
23.016298
22.252696
21.949299
21.213059
20.884237
20.172031
19.820705
19.129675
18.758485
18.086119
17.697415
17.041494
16.63736
15.995918
15.578206
14.949495
14.519852
13.90232
13.462212
12.854473
12.405208
11.806026
11.348772
10.757042
10.292847
9.7075742
9.2373809
8.6576709
8.1823302
7.6073724
7.127657
6.5567134
6.0733292
5.5057234
5.01932
4.4544265
3.9656075
3.4028425
2.9121741
2.3509866
1.8590066
1.2988691
0.80609269
0.24649259
26.49989
25.473248
25.190968
24.339515
24.088365
23.291767
23.016301
22.252693
21.949301
21.213056
20.88424
20.172029
19.820707
19.129672
18.758487
18.086117
17.697416
17.041492
16.637361
15.995916
15.578207
14.949494
14.519854
13.902319
13.462213
12.854472
12.405209
11.806025
11.348773
10.757041
10.292848
9.7075735
9.2373817
8.6576702
8.1823309
7.6073717
7.1276576
6.5567129
6.0733297
5.5057229
5.0193205
4.454426
3.965608
3.402842
2.9121746
2.3509862
1.8590071
1.2988686
0.80609317
0.24649259
26.491546
25.472434
25.190948
24.339578
24.08839
23.291766
23.016304
22.25269
21.949304
21.213054
20.884242
20.172027
19.820709
19.129671
18.758489
18.086116
17.697418
17.041491
16.637363
15.995915
15.578208
14.949493
14.519855
13.902318
13.462214
12.854471
12.40521
11.806025
11.348774
10.75704
10.292848
9.7075728
9.2373823
8.6576696
8.1823314
7.6073712
7.1276581
6.5567123
6.0733302
5.5057224
5.019321
4.4544256
3.9656084
3.4028416
2.912175
2.3509857
1.8590075
1.2988682
0.80609361
0.24649258
26.484082
25.471239
25.190812
24.339632
24.088408
23.291764
23.016307
22.252688
21.949306
21.213052
20.884244
20.172025
19.820711
19.129669
18.75849
18.086114
17.697419
17.041489
16.637364
15.995914
15.578209
14.949492
14.519856
13.902317
13.462215
12.85447
12.40521
11.806024
11.348775
10.75704
10.292849
9.7075722
9.2373829
8.657669
8.182332
7.6073707
7.1276586
6.5567119
6.0733307
5.5057219
5.0193214
4.4544252
3.9656088
3.4028412
2.9121754
2.3509854
1.8590079
1.2988678
0.80609402
0.24649255
26.474646
25.470294
25.190737
24.339602
24.088401
23.291757
23.016308
22.252685
21.949308
21.21305
20.884245
20.172023
19.820713
19.129668
18.758492
18.086113
17.69742
17.041488
16.637365
15.995913
15.57821
14.949491
14.519857
13.902316
13.462216
12.85447
12.405211
11.806023
11.348775
10.757039
10.29285
9.7075717
9.2373834
8.6576686
8.1823324
7.6073702
7.127659
6.5567115
6.0733311
5.5057216
5.0193218
4.4544248
3.9656091
3.4028409
2.9121757
2.350985
1.8590082
1.2988674
0.80609441
0.24649252
26.467646
25.468927
25.190762
24.339525
24.088378
23.291747
23.016307
22.252682
21.949309
21.213048
20.884247
20.172022
19.820714
19.129666
18.758493
18.086112
17.697422
17.041487
16.637366
15.995912
15.578211
14.94949
14.519857
13.902315
13.462216
12.854469
12.405212
11.806023
11.348776
10.757038
10.29285
9.7075712
9.2373838
8.6576681
8.1823329
7.6073698
7.1276594
6.5567111
6.0733314
5.5057212
5.0193221
4.4544245
3.9656095
3.4028405
2.9121761
2.3509847
1.8590085
1.2988671
0.80609478
0.24649247
26.459401
25.467612
25.19083
24.33948
24.088357
23.291738
23.016307
22.25268
21.949311
21.213046
20.884248
20.17202
19.820715
19.129665
18.758494
18.086111
17.697423
17.041486
16.637367
15.995911
15.578212
14.949489
14.519858
13.902315
13.462217
12.854468
12.405212
11.806022
11.348776
10.757038
10.292851
9.7075708
9.2373843
8.6576677
8.1823332
7.6073695
7.1276597
6.5567108
6.0733317
5.5057209
5.0193224
4.4544242
3.9656098
3.4028403
2.9121763
2.3509844
1.8590088
1.2988668
0.80609513
0.24649242
26.453599
25.466277
25.190684
24.339431
24.088332
23.291728
23.016306
22.252677
21.949312
21.213045
20.88425
20.172019
19.820716
19.129664
18.758495
18.08611
17.697423
17.041485
16.637368
15.99591
15.578213
14.949489
14.519859
13.902314
13.462218
12.854468
12.405213
11.806021
11.348777
10.757037
10.292851
9.7075704
9.2373846
8.6576674
8.1823336
7.6073691
7.1276601
6.5567105
6.073332
5.5057206
5.0193227
4.4544239
3.96561
3.40284
2.9121766
2.3509842
1.859009
1.2988665
0.80609546
0.24649236
26.446642
25.465141
25.190382
24.339348
24.0883
23.291718
23.016305
22.252675
21.949313
21.213044
20.884251
20.172018
19.820718
19.129663
18.758496
18.086109
17.697424
17.041485
16.637368
15.995909
15.578214
14.949488
14.519859
13.902314
13.462218
12.854467
12.405213
11.806021
11.348777
10.757037
10.292851
9.70757
9.237385
8.657667
8.1823339
7.6073688
7.1276603
6.5567102
6.0733323
5.5057204
5.0193229
4.4544237
3.9656103
3.4028398
2.9121768
2.350984
1.8590093
1.2988662
0.80609577
0.24649229
26.441484
25.463885
25.189987
24.339257
24.088267
23.291706
23.016303
22.252673
21.949314
21.213042
20.884252
20.172017
19.820719
19.129662
18.758497
18.086108
17.697425
17.041484
16.637369
15.995909
15.578214
14.949488
14.51986
13.902313
13.462219
12.854467
12.405214
11.806021
11.348778
10.757037
10.292852
9.7075697
9.2373853
8.6576667
8.1823342
7.6073686
7.1276606
6.5567099
6.0733325
5.5057201
5.0193232
4.4544234
3.9656105
3.4028395
2.912177
2.3509837
1.8590095
1.298866
0.80609606
0.24649222
26.43551
25.462589
25.189577
24.339171
24.088234
23.291694
23.016301
22.252671
21.949315
21.213041
20.884253
20.172016
19.820719
19.129661
18.758498
18.086107
17.697426
17.041483
16.63737
15.995908
15.578215
14.949487
14.51986
13.902313
13.462219
12.854467
12.405214
11.80602
11.348778
10.757036
10.292852
9.7075694
9.2373856
8.6576664
8.1823344
7.6073683
7.1276609
6.5567097
6.0733328
5.5057199
5.0193234
4.4544232
3.9656107
3.4028393
2.9121772
2.3509835
1.8590096
1.2988658
0.80609634
0.24649215
26.431046
25.461287
25.189129
24.339078
24.088199
23.291681
23.016298
22.252668
21.949315
21.21304
20.884254
20.172015
19.82072
19.12966
18.758498
18.086106
17.697426
17.041483
16.63737
15.995908
15.578215
14.949487
14.519861
13.902312
13.46222
12.854466
12.405214
11.80602
11.348778
10.757036
10.292852
9.7075691
9.2373859
8.6576662
8.1823347
7.6073681
7.1276611
6.5567095
6.073333
5.5057197
5.0193236
4.454423
3.9656109
3.4028392
2.9121774
2.3509834
1.8590098
1.2988656
0.80609661
0.24649208
26.426057
25.459954
25.188734
24.338962
24.088158
23.291663
23.016293
22.252665
21.949315
21.213039
20.884254
20.172014
19.820721
19.12966
18.758499
18.086106
17.697427
17.041482
16.637371
15.995907
15.578216
14.949486
14.519861
13.902312
13.46222
12.854466
12.405215
11.80602
11.348778
10.757036
10.292853
9.7075688
9.2373861
8.657666
8.1823349
7.6073679
7.1276613
6.5567093
6.0733332
5.5057195
5.0193238
4.4544229
3.965611
3.402839
2.9121776
2.3509832
1.85901
1.2988654
0.80609686
0.246492
26.422296
25.458723
25.188372
24.338827
24.088106
23.291642
23.016287
22.252661
21.949315
21.213038
20.884255
20.172013
19.820722
19.129659
18.7585
18.086105
17.697428
17.041482
16.637371
15.995907
15.578216
14.949486
14.519862
13.902311
13.46222
12.854465
12.405215
11.806019
11.348779
10.757036
10.292853
9.7075686
9.2373863
8.6576657
8.1823351
7.6073677
7.1276615
6.5567091
6.0733334
5.5057193
5.0193239
4.4544227
3.9656112
3.4028388
2.9121777
2.350983
1.8590101
1.2988653
0.8060971
0.24649193
26.418241
25.45745
25.188039
24.338709
24.088054
23.291621
23.01628
22.252657
21.949314
21.213036
20.884256
20.172012
19.820722
19.129658
18.7585
18.086105
17.697428
17.041481
16.637372
15.995906
15.578216
14.949485
14.519862
13.902311
13.462221
12.854465
12.405215
11.806019
11.348779
10.757035
10.292853
9.7075684
9.2373865
8.6576655
8.1823353
7.6073675
7.1276617
6.5567089
6.0733335
5.5057192
5.0193241
4.4544226
3.9656113
3.4028387
2.9121779
2.3509829
1.8590103
1.2988651
0.80609732
0.24649186
26.415105
25.456389
25.187668
24.338617
24.088013
23.291605
23.016274
22.252653
21.949314
21.213035
20.884256
20.172012
19.820723
19.129658
18.758501
18.086104
17.697428
17.041481
16.637372
15.995906
15.578217
14.949485
14.519862
13.902311
13.462221
12.854465
12.405216
11.806019
11.348779
10.757035
10.292853
9.7075682
9.2373867
8.6576654
8.1823355
7.6073673
7.1276618
6.5567088
6.0733337
5.505719
5.0193242
4.4544224
3.9656115
3.4028386
2.912178
2.3509828
1.8590104
1.298865
0.80609753
0.24649179
26.411852
25.455269
25.18731
24.33853
24.087985
23.291598
23.016272
22.252651
21.949314
21.213034
20.884256
20.172011
19.820723
19.129657
18.758501
18.086104
17.697429
17.04148
16.637373
15.995905
15.578217
14.949485
14.519863
13.90231
13.462221
12.854465
12.405216
11.806019
11.348779
10.757035
10.292854
9.707568
9.2373869
8.6576652
8.1823357
7.6073671
7.127662
6.5567086
6.0733338
5.5057189
5.0193243
4.4544223
3.9656116
3.4028384
2.9121781
2.3509827
1.8590105
1.2988649
0.80609773
0.24649171
26.409234
25.454413
25.186959
24.338438
24.087963
23.291597
23.016271
22.25265
21.949314
21.213033
20.884257
20.17201
19.820724
19.129657
18.758502
18.086103
17.697429
17.04148
16.637373
15.995905
15.578218
14.949484
14.519863
13.90231
13.462221
12.854464
12.405216
11.806018
11.34878
10.757035
10.292854
9.7075678
9.2373871
8.657665
8.1823358
7.607367
7.1276621
6.5567085
6.0733339
5.5057188
5.0193245
4.4544222
3.9656117
3.4028383
2.9121782
2.3509825
1.8590106
1.2988648
0.80609792
0.24649164
26.406661
25.453453
25.186648
24.338349
24.087941
23.291601
23.016272
22.25265
21.949315
21.213033
20.884257
20.17201
19.820724
19.129656
18.758502
18.086103
17.69743
17.04148
16.637373
15.995905
15.578218
14.949484
14.519863
13.90231
13.462222
12.854464
12.405216
11.806018
11.34878
10.757034
10.292854
9.7075676
9.2373872
8.6576649
8.1823359
7.6073669
7.1276622
6.5567084
6.0733341
5.5057187
5.0193246
4.4544221
3.9656118
3.4028382
2.9121783
2.3509824
1.8590107
1.2988647
0.8060981
0.24649158
26.404432
25.452795
25.186359
24.338269
24.087916
23.291608
23.016273
22.252649
21.949315
21.213032
20.884258
20.172009
19.820725
19.129656
18.758502
18.086102
17.69743
17.041479
16.637374
15.995905
15.578218
14.949484
14.519863
13.90231
13.462222
12.854464
12.405216
11.806018
11.34878
10.757034
10.292854
9.7075675
9.2373874
8.6576647
8.1823361
7.6073667
7.1276624
6.5567082
6.0733342
5.5057186
5.0193247
4.454422
3.9656119
3.4028381
2.9121784
2.3509823
1.8590108
1.2988646
0.80609826
0.24649151
26.402519
25.451997
25.186103
24.3382
24.087891
23.291615
23.016274
22.252649
21.949316
21.213031
20.884258
20.172009
19.820725
19.129655
18.758503
18.086102
17.69743
17.041479
16.637374
15.995904
15.578218
14.949484
14.519864
13.902309
13.462222
12.854464
12.405217
11.806018
11.34878
10.757034
10.292854
9.7075674
9.2373875
8.6576646
8.1823362
7.6073666
7.1276625
6.5567081
6.0733343
5.5057185
5.0193248
4.4544219
3.965612
3.402838
2.9121785
2.3509823
1.8590109
1.2988645
0.80609841
0.24649145
26.400503
25.451492
25.185868
24.338142
24.087867
23.291622
23.016276
22.252649
21.949316
21.213031
20.884258
20.172008
19.820725
19.129655
18.758503
18.086102
17.697431
17.041479
16.637374
15.995904
15.578219
14.949483
14.519864
13.902309
13.462222
12.854464
12.405217
11.806018
11.34878
10.757034
10.292854
9.7075672
9.2373876
8.6576645
8.1823363
7.6073665
7.1276626
6.556708
6.0733344
5.5057184
5.0193249
4.4544218
3.9656121
3.402838
2.9121786
2.3509822
1.859011
1.2988645
0.80609855
0.24649139
26.399189
25.450858
25.185665
24.338094
24.087845
23.291627
23.016279
22.25265
21.949317
21.213031
20.884259
20.172008
19.820726
19.129655
18.758503
18.086102
17.697431
17.041478
16.637374
15.995904
15.578219
14.949483
14.519864
13.902309
13.462222
12.854463
12.405217
11.806017
11.34878
10.757034
10.292854
9.7075671
9.2373877
8.6576644
8.1823364
7.6073664
7.1276627
6.5567079
6.0733344
5.5057183
5.0193249
4.4544217
3.9656122
3.4028379
2.9121787
2.3509821
1.859011
1.2988644
0.80609868
0.24649134
26.397359
25.450462
25.185484
24.338054
24.087828
23.291629
23.016281
22.252652
21.949318
21.213031
20.884259
20.172008
19.820726
19.129654
18.758504
18.086101
17.697431
17.041478
16.637375
15.995904
15.578219
14.949483
14.519864
13.902309
13.462223
12.854463
12.405217
11.806017
11.348781
10.757034
10.292855
9.707567
9.2373878
8.6576643
8.1823365
7.6073663
7.1276627
6.5567079
6.0733345
5.5057182
5.019325
4.4544216
3.9656122
3.4028378
2.9121787
2.350982
1.8590111
1.2988643
0.8060988
0.24649129
26.396342
25.449978
25.185337
24.338023
24.087815
23.29163
23.016283
22.252654
21.949319
21.213031
20.88426
20.172007
19.820726
19.129654
18.758504
18.086101
17.697431
17.041478
16.637375
15.995903
15.578219
14.949483
14.519864
13.902309
13.462223
12.854463
12.405217
11.806017
11.348781
10.757034
10.292855
9.7075669
9.2373879
8.6576642
8.1823366
7.6073663
7.1276628
6.5567078
6.0733346
5.5057181
5.0193251
4.4544216
3.9656123
3.4028378
2.9121788
2.350982
1.8590111
1.2988643
0.8060989
0.24649124
26.394875
25.449708
25.185214
24.337999
24.087805
23.291631
23.016284
22.252657
21.94932
21.21303
20.88426
20.172007
19.820726
19.129654
18.758504
18.086101
17.697432
17.041478
16.637375
15.995903
15.578219
14.949483
14.519864
13.902309
13.462223
12.854463
12.405217
11.806017
11.348781
10.757034
10.292855
9.7075668
9.237388
8.6576641
8.1823367
7.6073662
7.1276629
6.5567077
6.0733347
5.5057181
5.0193251
4.4544215
3.9656124
3.4028377
2.9121789
2.3509819
1.8590112
1.2988643
0.80609899
0.2464912
26.394105
25.449352
25.185123
24.337984
24.0878
23.291632
23.016285
22.25266
21.949321
21.21303
20.88426
20.172007
19.820726
19.129654
18.758504
18.086101
17.697432
17.041478
16.637375
15.995903
15.578219
14.949482
14.519865
13.902309
13.462223
12.854463
12.405217
11.806017
11.348781
10.757033
10.292855
9.7075668
9.2373881
8.6576641
8.1823367
7.6073661
7.1276629
6.5567077
6.0733347
5.505718
5.0193252
4.4544215
3.9656124
3.4028377
2.9121789
2.3509819
1.8590112
1.2988642
0.80609907
0.24649117
26.392986
25.449189
25.185051
24.337974
24.087797
23.291634
23.016284
22.252663
21.949323
21.21303
20.88426
20.172007
19.820727
19.129653
18.758504
18.0861
17.697432
17.041477
16.637375
15.995903
15.57822
14.949482
14.519865
13.902308
13.462223
12.854463
12.405217
11.806017
11.348781
10.757033
10.292855
9.7075667
9.2373881
8.657664
8.1823368
7.6073661
7.127663
6.5567076
6.0733348
5.505718
5.0193252
4.4544214
3.9656125
3.4028376
2.9121789
2.3509818
1.8590113
1.2988642
0.80609913
0.24649114
26.392466
25.448926
25.185004
24.337971
24.087796
23.291637
23.016283
22.252666
21.949324
21.213031
20.884261
20.172006
19.820727
19.129653
18.758505
18.0861
17.697432
17.041477
16.637375
15.995903
15.57822
14.949482
14.519865
13.902308
13.462223
12.854463
12.405218
11.806017
11.348781
10.757033
10.292855
9.7075666
9.2373882
8.657664
8.1823368
7.607366
7.127663
6.5567076
6.0733348
5.5057179
5.0193253
4.4544214
3.9656125
3.4028376
2.912179
2.3509818
1.8590113
1.2988642
0.80609918
0.24649112
26.391628
25.44884
25.18497
24.337971
24.087797
23.291639
23.016282
22.252669
21.949325
21.213031
20.884261
20.172006
19.820727
19.129653
18.758505
18.0861
17.697432
17.041477
16.637375
15.995903
15.57822
14.949482
14.519865
13.902308
13.462223
12.854463
12.405218
11.806017
11.348781
10.757033
10.292855
9.7075666
9.2373882
8.6576639
8.1823369
7.607366
7.1276631
6.5567075
6.0733348
5.5057179
5.0193253
4.4544213
3.9656125
3.4028375
2.912179
2.3509818
1.8590113
1.2988642
0.80609921
0.2464911
26.391355
25.44864
25.18495
24.337974
24.087799
23.291642
23.016281
22.252671
21.949326
21.213031
20.884261
20.172006
19.820727
19.129653
18.758505
18.0861
17.697432
17.041477
16.637375
15.995903
15.57822
14.949482
14.519865
13.902308
13.462223
12.854463
12.405218
11.806017
11.348781
10.757033
10.292855
9.7075665
9.2373883
8.6576639
8.1823369
7.6073659
7.1276631
6.5567075
6.0733349
5.5057179
5.0193253
4.4544213
3.9656125
3.4028375
2.912179
2.3509818
1.8590113
1.2988641
0.80609921
0.2464911
26.390768
25.448599
25.184936
24.337977
24.087801
23.291645
23.01628
22.252673
21.949327
21.213031
20.884261
20.172006
19.820727
19.129653
18.758505
18.0861
17.697432
17.041477
16.637376
15.995903
15.57822
14.949482
14.519865
13.902308
13.462223
12.854463
12.405218
11.806017
11.348781
10.757033
10.292855
9.7075665
9.2373883
8.6576638
8.1823369
7.6073659
7.1276631
6.5567075
6.0733349
5.5057179
5.0193254
4.4544213
3.9656126
3.4028375
2.912179
2.3509818
1.8590113
1.2988642
0.80609919
0.2464911
26.390744
25.448433
25.184928
24.33798
24.087802
23.291646
23.01628
22.252673
21.949328
21.213031
20.884261
20.172006
19.820727
19.129653
18.758505
18.0861
17.697432
17.041477
16.637376
15.995903
15.57822
14.949482
14.519865
13.902308
13.462223
12.854463
12.405218
11.806017
11.348781
10.757033
10.292855
9.7075665
9.2373883
8.6576638
8.1823369
7.6073659
7.1276632
6.5567075
6.0733349
5.5057178
5.0193254
4.4544213
3.9656126
3.4028375
2.912179
2.3509818
1.8590113
1.2988642
0.80609915
0.24649111
26.390399
25.448419
25.184918
24.337981
24.087804
23.291647
23.01628
22.252673
21.94933
21.213031
20.884261
20.172006
19.820727
19.129652
18.758505
18.0861
17.697432
17.041477
16.637376
15.995903
15.57822
14.949482
14.519865
13.902308
13.462223
12.854463
12.405218
11.806017
11.348781
10.757033
10.292855
9.7075665
9.2373883
8.6576638
8.182337
7.6073659
7.1276632
6.5567075
6.0733349
5.5057178
5.0193254
4.4544213
3.9656126
3.4028375
2.912179
2.3509818
1.8590113
1.2988642
0.8060991
0.24649113
26.390578
25.448302
25.184913
24.337981
24.087804
23.291648
23.01628
22.252672
21.949331
21.213031
20.884261
20.172005
19.820727
19.129652
18.758505
18.0861
17.697432
17.041477
16.637376
15.995903
15.57822
14.949482
14.519865
13.902308
13.462223
12.854463
12.405218
11.806017
11.348781
10.757033
10.292855
9.7075665
9.2373883
8.6576638
8.182337
7.6073659
7.1276632
6.5567075
6.0733349
5.5057179
5.0193254
4.4544213
3.9656125
3.4028375
2.912179
2.3509818
1.8590113
1.2988642
0.80609907
0.24649114
26.390363
25.448365
25.184911
24.33798
24.087804
23.291648
23.01628
22.252672
21.949331
21.213031
20.884261
20.172005
19.820727
19.129652
18.758505
18.0861
17.697432
17.041477
16.637376
15.995903
15.57822
14.949482
14.519865
13.902308
13.462223
12.854463
12.405218
11.806017
11.348781
10.757033
10.292855
9.7075665
9.2373883
8.6576638
8.182337
7.6073659
7.1276632
6.5567075
6.0733349
5.5057179
5.0193254
4.4544213
3.9656125
3.4028375
2.912179
2.3509818
1.8590113
1.2988642
0.80609907
0.24649114
26.390635
25.448339
25.184917
24.337981
24.087804
23.291647
23.01628
22.252673
21.94933
21.213031
20.884261
20.172006
19.820727
19.129652
18.758505
18.0861
17.697432
17.041477
16.637376
15.995903
15.57822
14.949482
14.519865
13.902308
13.462223
12.854463
12.405218
11.806017
11.348781
10.757033
10.292855
9.7075665
9.2373883
8.6576638
8.182337
7.6073659
7.1276632
6.5567075
6.0733349
5.5057178
5.0193254
4.4544213
3.9656126
3.4028375
2.912179
2.3509818
1.8590113
1.2988642
0.8060991
0.24649113
26.390548
25.44848
25.184923
24.33798
24.087802
23.291646
23.01628
22.252673
21.949328
21.213031
20.884261
20.172006
19.820727
19.129653
18.758505
18.0861
17.697432
17.041477
16.637376
15.995903
15.57822
14.949482
14.519865
13.902308
13.462223
12.854463
12.405218
11.806017
11.348781
10.757033
10.292855
9.7075665
9.2373883
8.6576638
8.1823369
7.6073659
7.1276632
6.5567075
6.0733349
5.5057178
5.0193254
4.4544213
3.9656126
3.4028375
2.912179
2.3509818
1.8590113
1.2988642
0.80609915
0.24649111
26.391024
25.448502
25.184932
24.337977
24.087801
23.291645
23.01628
22.252673
21.949327
21.213031
20.884261
20.172006
19.820727
19.129653
18.758505
18.0861
17.697432
17.041477
16.637376
15.995903
15.57822
14.949482
14.519865
13.902308
13.462223
12.854463
12.405218
11.806017
11.348781
10.757033
10.292855
9.7075665
9.2373883
8.6576638
8.1823369
7.6073659
7.1276631
6.5567075
6.0733349
5.5057179
5.0193254
4.4544213
3.9656126
3.4028375
2.912179
2.3509818
1.8590113
1.2988642
0.80609919
0.2464911
26.391177
25.448674
25.184943
24.337974
24.087799
23.291642
23.016281
22.252671
21.949326
21.213031
20.884261
20.172006
19.820727
19.129653
18.758505
18.0861
17.697432
17.041477
16.637375
15.995903
15.57822
14.949482
14.519865
13.902308
13.462223
12.854463
12.405218
11.806017
11.348781
10.757033
10.292855
9.7075665
9.2373883
8.6576639
8.1823369
7.6073659
7.1276631
6.5567075
6.0733349
5.5057179
5.0193253
4.4544213
3.9656125
3.4028375
2.912179
2.3509818
1.8590113
1.2988641
0.80609921
0.2464911
26.391906
25.448727
25.184963
24.337971
24.087797
23.29164
23.016282
22.252669
21.949325
21.213031
20.884261
20.172006
19.820727
19.129653
18.758505
18.0861
17.697432
17.041477
16.637375
15.995903
15.57822
14.949482
14.519865
13.902308
13.462223
12.854463
12.405218
11.806017
11.348781
10.757033
10.292855
9.7075666
9.2373882
8.6576639
8.1823369
7.607366
7.1276631
6.5567075
6.0733348
5.5057179
5.0193253
4.4544213
3.9656125
3.4028375
2.912179
2.3509818
1.8590113
1.2988642
0.80609921
0.2464911
26.3923
25.448947
25.184994
24.337971
24.087796
23.291637
23.016284
22.252666
21.949324
21.213031
20.884261
20.172006
19.820727
19.129653
18.758505
18.0861
17.697432
17.041477
16.637375
15.995903
15.57822
14.949482
14.519865
13.902308
13.462223
12.854463
12.405218
11.806017
11.348781
10.757033
10.292855
9.7075666
9.2373882
8.657664
8.1823368
7.607366
7.127663
6.5567076
6.0733348
5.5057179
5.0193253
4.4544214
3.9656125
3.4028376
2.912179
2.3509818
1.8590113
1.2988642
0.80609918
0.24649112
26.393299
25.449062
25.185043
24.337975
24.087797
23.291634
23.016284
22.252663
21.949323
21.21303
20.88426
20.172007
19.820727
19.129653
18.758504
18.0861
17.697432
17.041477
16.637375
15.995903
15.57822
14.949482
14.519865
13.902308
13.462223
12.854463
12.405217
11.806017
11.348781
10.757033
10.292855
9.7075667
9.2373881
8.657664
8.1823368
7.6073661
7.127663
6.5567076
6.0733348
5.505718
5.0193252
4.4544214
3.9656125
3.4028376
2.9121789
2.3509818
1.8590113
1.2988642
0.80609913
0.24649114
26.393939
25.44936
25.185111
24.337984
24.0878
23.291633
23.016285
22.25266
21.949321
21.21303
20.88426
20.172007
19.820726
19.129654
18.758504
18.086101
17.697432
17.041478
16.637375
15.995903
15.578219
14.949482
14.519865
13.902309
13.462223
12.854463
12.405217
11.806017
11.348781
10.757033
10.292855
9.7075668
9.2373881
8.6576641
8.1823367
7.6073661
7.1276629
6.5567077
6.0733347
5.505718
5.0193252
4.4544215
3.9656124
3.4028377
2.9121789
2.3509819
1.8590112
1.2988642
0.80609907
0.24649117
26.395254
25.449569
25.185205
24.338
24.087806
23.291631
23.016284
22.252657
21.94932
21.21303
20.88426
20.172007
19.820726
19.129654
18.758504
18.086101
17.697432
17.041478
16.637375
15.995903
15.578219
14.949483
14.519864
13.902309
13.462223
12.854463
12.405217
11.806017
11.348781
10.757034
10.292855
9.7075668
9.237388
8.6576641
8.1823367
7.6073662
7.1276629
6.5567077
6.0733347
5.5057181
5.0193251
4.4544215
3.9656124
3.4028377
2.9121789
2.3509819
1.8590112
1.2988643
0.80609899
0.2464912
26.396145
25.449978
25.185324
24.338024
24.087815
23.291631
23.016283
22.252654
21.949319
21.213031
20.88426
20.172007
19.820726
19.129654
18.758504
18.086101
17.697431
17.041478
16.637375
15.995903
15.578219
14.949483
14.519864
13.902309
13.462223
12.854463
12.405217
11.806017
11.348781
10.757034
10.292855
9.7075669
9.2373879
8.6576642
8.1823366
7.6073663
7.1276628
6.5567078
6.0733346
5.5057181
5.0193251
4.4544216
3.9656123
3.4028378
2.9121788
2.350982
1.8590111
1.2988643
0.8060989
0.24649124
26.397786
25.450301
25.185473
24.338055
24.087829
23.291629
23.016281
22.252652
21.949318
21.213031
20.884259
20.172008
19.820726
19.129654
18.758504
18.086101
17.697431
17.041478
16.637375
15.995904
15.578219
14.949483
14.519864
13.902309
13.462223
12.854463
12.405217
11.806017
11.348781
10.757034
10.292855
9.707567
9.2373878
8.6576643
8.1823365
7.6073663
7.1276627
6.5567079
6.0733345
5.5057182
5.019325
4.4544216
3.9656122
3.4028378
2.9121787
2.350982
1.8590111
1.2988643
0.8060988
0.24649129
26.398977
25.450851
25.185649
24.338095
24.087846
23.291627
23.016279
22.25265
21.949317
21.213031
20.884259
20.172008
19.820726
19.129655
18.758503
18.086102
17.697431
17.041478
16.637374
15.995904
15.578219
14.949483
14.519864
13.902309
13.462222
12.854463
12.405217
11.806017
11.34878
10.757034
10.292854
9.7075671
9.2373877
8.6576644
8.1823364
7.6073664
7.1276627
6.5567079
6.0733344
5.5057183
5.0193249
4.4544217
3.9656122
3.4028379
2.9121787
2.3509821
1.859011
1.2988644
0.80609868
0.24649134
26.400836
25.451281
25.185853
24.338143
24.087868
23.291622
23.016276
22.252649
21.949316
21.213031
20.884258
20.172008
19.820725
19.129655
18.758503
18.086102
17.697431
17.041479
16.637374
15.995904
15.578219
14.949483
14.519864
13.902309
13.462222
12.854464
12.405217
11.806018
11.34878
10.757034
10.292854
9.7075672
9.2373876
8.6576645
8.1823363
7.6073665
7.1276626
6.556708
6.0733344
5.5057184
5.0193249
4.4544218
3.9656121
3.402838
2.9121786
2.3509822
1.859011
1.2988645
0.80609855
0.24649139
26.402527
25.451991
25.186083
24.338201
24.087892
23.291615
23.016274
22.252649
21.949316
21.213031
20.884258
20.172009
19.820725
19.129655
18.758503
18.086102
17.69743
17.041479
16.637374
15.995904
15.578218
14.949484
14.519864
13.902309
13.462222
12.854464
12.405217
11.806018
11.34878
10.757034
10.292854
9.7075674
9.2373875
8.6576646
8.1823362
7.6073666
7.1276625
6.5567081
6.0733343
5.5057185
5.0193248
4.4544219
3.965612
3.402838
2.9121785
2.3509823
1.8590109
1.2988645
0.80609841
0.24649145
26.404602
25.452557
25.186342
24.33827
24.087917
23.291608
23.016273
22.252649
21.949315
21.213032
20.884258
20.172009
19.820725
19.129656
18.758502
18.086102
17.69743
17.041479
16.637374
15.995905
15.578218
14.949484
14.519863
13.90231
13.462222
12.854464
12.405216
11.806018
11.34878
10.757034
10.292854
9.7075675
9.2373874
8.6576647
8.1823361
7.6073667
7.1276624
6.5567082
6.0733342
5.5057186
5.0193247
4.454422
3.9656119
3.4028381
2.9121784
2.3509823
1.8590108
1.2988646
0.80609826
0.24649151
26.406884
25.453428
25.186624
24.338349
24.087941
23.291602
23.016272
22.25265
21.949315
21.213033
20.884257
20.17201
19.820724
19.129656
18.758502
18.086103
17.69743
17.04148
16.637373
15.995905
15.578218
14.949484
14.519863
13.90231
13.462222
12.854464
12.405216
11.806018
11.34878
10.757034
10.292854
9.7075676
9.2373872
8.6576649
8.1823359
7.6073669
7.1276622
6.5567084
6.0733341
5.5057187
5.0193246
4.4544221
3.9656118
3.4028382
2.9121783
2.3509824
1.8590107
1.2988647
0.8060981
0.24649158
26.40929
25.454173
25.186942
24.338439
24.087963
23.291598
23.016272
22.25265
21.949314
21.213033
20.884257
20.17201
19.820724
19.129657
18.758502
18.086103
17.697429
17.04148
16.637373
15.995905
15.578218
14.949484
14.519863
13.90231
13.462221
12.854464
12.405216
11.806018
11.34878
10.757035
10.292854
9.7075678
9.2373871
8.657665
8.1823358
7.607367
7.1276621
6.5567085
6.0733339
5.5057188
5.0193245
4.4544222
3.9656117
3.4028383
2.9121782
2.3509825
1.8590106
1.2988648
0.80609792
0.24649164
26.412199
25.455208
25.18728
24.338531
24.087985
23.291598
23.016272
22.252651
21.949314
21.213034
20.884256
20.172011
19.820723
19.129657
18.758501
18.086104
17.697429
17.04148
16.637373
15.995905
15.578217
14.949485
14.519863
13.90231
13.462221
12.854465
12.405216
11.806019
11.348779
10.757035
10.292854
9.707568