/*--------------------------------*- C++ -*----------------------------------*\
| =========                 |                                                 |
| \\      /  F ield         | OpenFOAM: The Open Source CFD Toolbox           |
|  \\    /   O peration     | Version:  2312                                  |
|   \\  /    A nd           | Website:  www.openfoam.com                      |
|    \\/     M anipulation  |                                                 |
\*---------------------------------------------------------------------------*/
FoamFile
{
    version     2.0;
    format      ascii;
    arch        "LSB;label=32;scalar=64";
    class       surfaceScalarField;
    location    "6";
    object      phi;
}
// * * * * * * * * * * * * * * * * * * * * * * * * * * * * * * * * * * * * * //

dimensions      [0 3 -1 0 0 0 0];

oriented        oriented;

internalField   nonuniform List<scalar> 
7870
(
1.0206748e-10
2.3556825e-09
1.0156125e-10
5.0622874e-13
9.4557969e-11
7.0032836e-12
9.3960193e-11
5.9777362e-13
9.5089177e-11
-1.1289841e-12
9.3655385e-11
1.433791e-12
9.4990991e-11
-1.3356057e-12
9.3710455e-11
1.2805359e-12
9.4919317e-11
-1.2088624e-12
9.3778194e-11
1.141123e-12
9.4851787e-11
-1.0735936e-12
9.3840234e-11
1.0115537e-12
9.4792089e-11
-9.5185509e-13
9.3895613e-11
8.9647549e-13
9.4739642e-11
-8.4402829e-13
9.3944612e-11
7.9502973e-13
9.4693503e-11
-7.488911e-13
9.3987821e-11
7.0568193e-13
9.4652903e-11
-6.6508184e-13
9.4025854e-11
6.2704882e-13
9.4617205e-11
-5.9135063e-13
9.4059276e-11
5.5792914e-13
9.4585863e-11
-5.2658714e-13
9.4088589e-11
4.9727401e-13
9.4558402e-11
-4.6981304e-13
9.4114237e-11
4.4416483e-13
9.4534406e-11
-4.2016932e-13
9.4136609e-11
3.9779712e-13
9.4513513e-11
-3.7690375e-13
9.4156045e-11
3.5746771e-13
9.4495405e-11
-3.3935967e-13
9.4172841e-11
3.2256407e-13
9.4479807e-11
-3.0696628e-13
9.4187252e-11
2.9255516e-13
9.4466482e-11
-2.7923028e-13
9.4199499e-11
2.6698365e-13
9.4455227e-11
-2.5572856e-13
9.4209768e-11
2.4545921e-13
9.444587e-11
-2.3610206e-13
9.4218217e-11
2.2765268e-13
9.4438268e-11
-2.2005043e-13
9.4224976e-11
2.132913e-13
9.4432303e-11
-2.0732655e-13
9.4230143e-11
2.021598e-13
9.4427866e-11
-1.977227e-13
9.4233788e-11
1.9407818e-13
9.4425131e-11
-1.9134301e-13
9.423762e-11
1.8751107e-13
9.4430881e-11
-1.9326112e-13
1.7978141e-13
2.7957986e-10
4.5338527e-09
2.9245741e-10
-1.2371326e-11
2.7443251e-10
2.5028183e-11
2.7367934e-10
1.3509427e-12
2.7494264e-10
-2.3922894e-12
2.7288322e-10
3.4932139e-12
2.7477298e-10
-3.2253655e-12
2.7294176e-10
3.111752e-12
2.7467901e-10
-2.9461126e-12
2.7303669e-10
2.7834453e-12
2.7458168e-10
-2.6185799e-12
2.7312491e-10
2.4683181e-12
2.7449527e-10
-2.3222189e-12
2.7320438e-10
2.1873725e-12
2.7441966e-10
-2.0593065e-12
2.7327492e-10
1.939768e-12
2.7435325e-10
-1.8272204e-12
2.7333719e-10
1.7217405e-12
2.7429484e-10
-1.6227344e-12
2.7339202e-10
1.5298743e-12
2.7424349e-10
-1.4428277e-12
2.734402e-10
1.361225e-12
2.7419841e-10
-1.2847998e-12
2.7348245e-10
1.2132296e-12
2.7415891e-10
-1.146266e-12
2.7351943e-10
1.0836458e-12
2.7412439e-10
-1.0251307e-12
2.7355167e-10
9.705103e-13
2.7409433e-10
-9.1955813e-13
2.7357969e-10
8.7210708e-13
2.7406828e-10
-8.2794568e-13
2.736039e-10
7.8694124e-13
2.7404583e-10
-7.4890012e-13
2.7362467e-10
7.1371676e-13
2.7402666e-10
-6.8121728e-13
2.7364232e-10
6.5131745e-13
2.7401046e-10
-6.2386436e-13
2.7365713e-10
5.9879051e-13
2.7399699e-10
-5.7596467e-13
2.7366931e-10
5.5533225e-13
2.7398605e-10
-5.3678475e-13
2.7367906e-10
5.2027592e-13
2.7397745e-10
-5.0571999e-13
2.7368652e-10
4.9309862e-13
2.7397103e-10
-4.8223955e-13
2.7369171e-10
4.7340376e-13
2.7396698e-10
-4.6661587e-13
2.736979e-10
4.5659221e-13
2.7398166e-10
-4.7702686e-13
4.3694373e-13
4.4834894e-10
6.5432537e-09
4.7645088e-10
-4.0473271e-11
4.4932057e-10
5.2158489e-11
4.4911346e-10
1.5580557e-12
4.4976575e-10
-3.0445853e-12
4.4786225e-10
5.3967092e-12
4.4960048e-10
-4.9635941e-12
4.4789524e-10
4.816996e-12
4.4952784e-10
-4.578715e-12
4.4798148e-10
4.329806e-12
4.4943617e-10
-4.073272e-12
4.4806313e-10
3.8413556e-12
4.4935418e-10
-3.6132681e-12
4.4813766e-10
3.403898e-12
4.4928279e-10
-3.2044424e-12
4.4820411e-10
3.0184499e-12
4.4922025e-10
-2.8433544e-12
4.4826286e-10
2.6791272e-12
4.4916528e-10
-2.5251501e-12
4.483146e-10
2.380546e-12
4.4911695e-10
-2.2451774e-12
4.4836008e-10
2.1181013e-12
4.4907453e-10
-1.9992485e-12
4.4839996e-10
1.8877989e-12
4.4903735e-10
-1.7836563e-12
4.4843485e-10
1.6861474e-12
4.4900486e-10
-1.5951401e-12
4.4846527e-10
1.5100909e-12
4.4897656e-10
-1.4308426e-12
4.4849171e-10
1.3569584e-12
4.4895203e-10
-1.2882689e-12
4.4851455e-10
1.224423e-12
4.489309e-10
-1.1652499e-12
4.4853415e-10
1.1104672e-12
4.4891284e-10
-1.0599109e-12
4.4855081e-10
1.0133534e-12
4.4889759e-10
-9.7064375e-13
4.4856478e-10
9.3159812e-13
4.488849e-10
-8.9608313e-13
4.4857628e-10
8.6394951e-13
4.4887458e-10
-8.3508608e-13
4.4858549e-10
8.0936731e-13
4.4886648e-10
-7.8670797e-13
4.4859254e-10
7.6704031e-13
4.4886038e-10
-7.5008006e-13
4.4859737e-10
7.3641034e-13
4.4885644e-10
-7.2568459e-13
4.4860429e-10
7.087356e-13
4.4887902e-10
-7.5175098e-13
6.7738168e-13
6.1591685e-10
8.3850869e-09
6.5427741e-10
-7.8833836e-11
6.1955151e-10
8.6884394e-11
6.1983402e-10
1.2755372e-12
6.1994964e-10
-3.1602079e-12
6.1822602e-10
7.1203276e-12
6.1981958e-10
-6.5571556e-12
6.1824649e-10
6.390094e-12
6.1977236e-10
-6.1045903e-12
6.1832541e-10
5.7767601e-12
6.196868e-10
-5.434666e-12
6.184005e-10
5.1276517e-12
6.1960942e-10
-4.8221872e-12
6.1846994e-10
4.5433833e-12
6.1954241e-10
-4.2769119e-12
6.1853214e-10
4.028715e-12
6.1948384e-10
-3.7950469e-12
6.1858721e-10
3.5757499e-12
6.194324e-10
-3.370333e-12
6.1863574e-10
3.1772068e-12
6.1938718e-10
-2.9966263e-12
6.1867838e-10
2.8269079e-12
6.1934749e-10
-2.6683563e-12
6.1871577e-10
2.5195132e-12
6.1931269e-10
-2.3805796e-12
6.1874848e-10
2.2503602e-12
6.1928229e-10
-2.1289444e-12
6.1877701e-10
2.0153687e-12
6.192558e-10
-1.9096358e-12
6.1880179e-10
1.8109725e-12
6.1923284e-10
-1.7193224e-12
6.188232e-10
1.6340649e-12
6.1921306e-10
-1.5551077e-12
6.1884157e-10
1.4819523e-12
6.1919615e-10
-1.4144883e-12
6.1885719e-10
1.3523144e-12
6.1918186e-10
-1.2953163e-12
6.1887029e-10
1.2431699e-12
6.1916997e-10
-1.1957675e-12
6.1888108e-10
1.152846e-12
6.191603e-10
-1.1143138e-12
6.1888972e-10
1.0799496e-12
6.191527e-10
-1.0496882e-12
6.1889634e-10
1.0233985e-12
6.1914693e-10
-1.00067e-12
6.1890082e-10
9.8252955e-13
6.1914304e-10
-9.6791005e-13
6.1890806e-10
9.4371383e-13
6.1917161e-10
-1.0152962e-12
9.0141795e-13
7.7061326e-10
1.0072224e-08
8.2523888e-10
-1.3345946e-10
7.8516972e-10
1.2695355e-10
7.8584005e-10
6.0520284e-13
7.854932e-10
-2.8133538e-12
7.8397488e-10
8.6386423e-12
7.854301e-10
-8.0123792e-12
7.8399506e-10
7.8251342e-12
7.8541228e-10
-7.5218063e-12
7.8406804e-10
7.1210043e-12
7.8533331e-10
-6.6999416e-12
7.8413663e-10
6.32433e-12
7.8526077e-10
-5.9463256e-12
7.8420086e-10
5.6032898e-12
7.8519829e-10
-5.2743404e-12
7.8425869e-10
4.9683203e-12
7.8514383e-10
-4.6801879e-12
7.8430996e-10
4.409623e-12
7.8509603e-10
-4.1564116e-12
7.8435514e-10
3.9180967e-12
7.8505403e-10
-3.6955147e-12
7.8439486e-10
3.4860834e-12
7.8501715e-10
-3.2906505e-12
7.8442968e-10
3.1069864e-12
7.8498483e-10
-2.935728e-12
7.8446014e-10
2.7750518e-12
7.8495657e-10
-2.6253803e-12
7.8448669e-10
2.4852461e-12
7.8493196e-10
-2.3549011e-12
7.8450976e-10
2.2331699e-12
7.8491062e-10
-2.1201802e-12
7.8452969e-10
2.0149907e-12
7.8489223e-10
-1.917644e-12
7.845468e-10
1.8273853e-12
7.8487651e-10
-1.7442033e-12
7.8456133e-10
1.6674913e-12
7.8486323e-10
-1.5972076e-12
7.8457353e-10
1.5328635e-12
7.8485217e-10
-1.474405e-12
7.8458358e-10
1.4214361e-12
7.8484317e-10
-1.3739072e-12
7.8459164e-10
1.331485e-12
7.8483609e-10
-1.2941435e-12
7.8459782e-10
1.2616729e-12
7.8483068e-10
-1.23353e-12
7.8460192e-10
1.2112876e-12
7.8482681e-10
-1.192802e-12
7.8460923e-10
1.1613012e-12
7.848598e-10
-1.265873e-12
1.1080058e-12
9.3028042e-10
1.1599693e-08
9.9002391e-10
-1.9320295e-10
9.4607055e-10
1.7090691e-10
9.4710489e-10
-4.2914039e-13
9.4639503e-10
-2.1034995e-12
9.4511032e-10
9.9233486e-12
9.4643334e-10
-9.3353935e-12
9.4514081e-10
9.1176623e-12
9.4644808e-10
-8.8290761e-12
9.4520909e-10
8.3599968e-12
9.4637611e-10
-7.8669598e-12
9.4527127e-10
7.429165e-12
9.4630858e-10
-6.9836385e-12
9.4533021e-10
6.5816592e-12
9.4625077e-10
-6.1948919e-12
9.4538355e-10
5.835538e-12
9.4620051e-10
-5.4971455e-12
9.4543091e-10
5.1792174e-12
9.4615644e-10
-4.881939e-12
9.4547267e-10
4.6018613e-12
9.4611772e-10
-4.3405603e-12
9.4550938e-10
4.0944272e-12
9.4608372e-10
-3.8649944e-12
9.4554155e-10
3.6491528e-12
9.4605392e-10
-3.4480927e-12
9.4556969e-10
3.2592755e-12
9.4602786e-10
-3.0835511e-12
9.4559423e-10
2.9188807e-12
9.4600517e-10
-2.7658402e-12
9.4561554e-10
2.6227994e-12
9.4598549e-10
-2.49013e-12
9.4563395e-10
2.3665287e-12
9.4596853e-10
-2.2522211e-12
9.4564975e-10
2.1461642e-12
9.4595403e-10
-2.0484834e-12
9.4566318e-10
1.9583422e-12
9.4594177e-10
-1.8758018e-12
9.4567445e-10
1.800189e-12
9.4593157e-10
-1.7315282e-12
9.4568373e-10
1.6692747e-12
9.4592327e-10
-1.6134404e-12
9.4569118e-10
1.5635664e-12
9.4591672e-10
-1.5196835e-12
9.4569691e-10
1.481488e-12
9.4591168e-10
-1.4483036e-12
9.4570064e-10
1.4223327e-12
9.4590785e-10
-1.4000113e-12
9.4570779e-10
1.3613568e-12
9.4594389e-10
-1.5019683e-12
1.2962522e-12
1.0698344e-09
1.2987609e-08
1.1476914e-09
-2.7105996e-10
1.1024125e-09
2.161858e-10
1.1035979e-09
-1.6144926e-12
1.1026493e-09
-1.154949e-12
1.1016328e-09
1.0939809e-11
1.1028304e-09
-1.0532999e-11
1.1016835e-09
1.0264604e-11
1.1028802e-09
-1.0025781e-11
1.1017482e-09
9.4920227e-12
1.1028155e-09
-8.9343142e-12
1.1018041e-09
8.4406277e-12
1.1027532e-09
-7.9327409e-12
1.1018577e-09
7.4771538e-12
1.1027001e-09
-7.0373149e-12
1.1019065e-09
6.6291909e-12
1.1026541e-09
-6.2448068e-12
1.1019498e-09
5.883493e-12
1.1026138e-09
-5.5459289e-12
1.1019881e-09
5.2275799e-12
1.1025784e-09
-4.9308897e-12
1.1020217e-09
4.6511231e-12
1.1025474e-09
-4.3906139e-12
1.1020512e-09
4.1452886e-12
1.1025201e-09
-3.916987e-12
1.102077e-09
3.7023883e-12
1.1024963e-09
-3.5028471e-12
1.1020995e-09
3.3157002e-12
1.1024756e-09
-3.1419102e-12
1.102119e-09
2.9793508e-12
1.1024576e-09
-2.8286873e-12
1.1021359e-09
2.6882229e-12
1.1024421e-09
-2.5584057e-12
1.1021503e-09
2.4378799e-12
1.1024288e-09
-2.3269397e-12
1.1021626e-09
2.2244991e-12
1.1024176e-09
-2.130748e-12
1.102173e-09
2.0448139e-12
1.1024082e-09
-1.9668197e-12
1.1021815e-09
1.8960601e-12
1.1024006e-09
-1.8326247e-12
1.1021883e-09
1.775919e-12
1.1023947e-09
-1.7260447e-12
1.1021936e-09
1.6825915e-12
1.10239e-09
-1.644754e-12
1.1021969e-09
1.6154285e-12
1.1023862e-09
-1.5893179e-12
1.1022038e-09
1.543819e-12
1.1024241e-09
-1.7223293e-12
1.4657008e-12
1.2213705e-09
1.4223988e-08
1.2999435e-09
-3.4963297e-10
1.254057e-09
2.6207229e-10
1.2552701e-09
-2.827592e-12
1.2542476e-09
-1.324844e-13
1.253545e-09
1.1642444e-11
1.2546235e-09
-1.1611553e-11
1.2536234e-09
1.1264751e-11
1.2547092e-09
-1.1111603e-11
1.253685e-09
1.0516191e-11
1.2546519e-09
-9.9012039e-12
1.2537348e-09
9.357813e-12
1.2545948e-09
-8.7928249e-12
1.253783e-09
8.2889827e-12
1.2545466e-09
-7.8008738e-12
1.2538272e-09
7.3485873e-12
1.2545049e-09
-6.9225163e-12
1.2538665e-09
6.5218401e-12
1.2544684e-09
-6.1478006e-12
1.2539013e-09
5.7947134e-12
1.2544364e-09
-5.4659892e-12
1.2539318e-09
5.1556944e-12
1.2544082e-09
-4.8670548e-12
1.2539586e-09
4.5949712e-12
1.2543836e-09
-4.3420088e-12
1.253982e-09
4.104015e-12
1.254362e-09
-3.8829113e-12
1.2540023e-09
3.6753713e-12
1.2543432e-09
-3.4827939e-12
1.2540201e-09
3.3025269e-12
1.2543269e-09
-3.1355694e-12
1.2540354e-09
2.9798078e-12
1.2543129e-09
-2.8359452e-12
1.2540485e-09
2.7022947e-12
1.2543009e-09
-2.5793456e-12
1.2540596e-09
2.4657485e-12
1.2542907e-09
-2.3618429e-12
1.254069e-09
2.2665459e-12
1.2542823e-09
-2.180096e-12
1.2540767e-09
2.1016185e-12
1.2542754e-09
-2.0312944e-12
1.2540829e-09
1.9683856e-12
1.2542699e-09
-1.9130772e-12
1.2540877e-09
1.8648412e-12
1.2542657e-09
-1.822751e-12
1.2540907e-09
1.7904419e-12
1.254262e-09
-1.7606129e-12
1.2540971e-09
1.7086976e-12
1.2543007e-09
-1.9259317e-12
1.61623e-12
1.3493329e-09
1.5332405e-08
1.4445781e-09
-4.4487822e-10
1.401152e-09
3.0549842e-10
1.4021139e-09
-3.7895257e-12
1.4011839e-09
7.9756191e-13
1.4008479e-09
1.1978371e-11
1.4018144e-09
-1.2577982e-11
1.4009609e-09
1.2118212e-11
1.4019357e-09
-1.2086409e-11
1.4010195e-09
1.1432387e-11
1.4018856e-09
-1.0767316e-11
1.4010631e-09
1.0180381e-11
1.4018338e-09
-9.5635785e-12
1.401106e-09
9.016838e-12
1.4017904e-09
-8.4852819e-12
1.4011455e-09
7.9934609e-12
1.401753e-09
-7.5300186e-12
1.4011808e-09
7.0940262e-12
1.4017203e-09
-6.687329e-12
1.401212e-09
6.3030578e-12
1.4016917e-09
-5.9456611e-12
1.4012394e-09
5.6079612e-12
1.4016665e-09
-5.2941433e-12
1.4012634e-09
4.9980422e-12
1.4016444e-09
-4.7230051e-12
1.4012844e-09
4.4640159e-12
1.4016251e-09
-4.2236088e-12
1.4013027e-09
3.9977702e-12
1.4016083e-09
-3.7883721e-12
1.4013186e-09
3.592218e-12
1.4015937e-09
-3.4106711e-12
1.4013323e-09
3.2411863e-12
1.4015811e-09
-3.0847463e-12
1.4013441e-09
2.9393224e-12
1.4015704e-09
-2.8056186e-12
1.4013541e-09
2.682014e-12
1.4015613e-09
-2.5690135e-12
1.4013625e-09
2.4653174e-12
1.4015537e-09
-2.3712927e-12
1.4013694e-09
2.2858905e-12
1.4015475e-09
-2.209393e-12
1.401375e-09
2.1409148e-12
1.4015426e-09
-2.080733e-12
1.4013793e-09
2.0281934e-12
1.4015388e-09
-1.9822598e-12
1.4013819e-09
1.947333e-12
1.4015352e-09
-1.9138862e-12
1.4013878e-09
1.8560678e-12
1.4015738e-09
-2.111955e-12
1.7479501e-12
1.4909296e-09
1.6299226e-08
1.5847151e-09
-5.3866367e-10
1.5435789e-09
3.4663462e-10
1.5442116e-09
-4.4221972e-12
1.5434779e-09
1.5312623e-12
1.5435432e-09
1.1913023e-11
1.5444034e-09
-1.3438175e-11
1.5436957e-09
1.2825908e-11
1.5445599e-09
-1.295062e-11
1.5437513e-09
1.2240996e-11
1.5445168e-09
-1.1532849e-11
1.5437888e-09
1.090847e-11
1.5444703e-09
-1.0245146e-11
1.5438263e-09
9.6608404e-12
1.5444317e-09
-9.0906578e-12
1.5438612e-09
8.5639267e-12
1.5443986e-09
-8.0674174e-12
1.5438925e-09
7.6001569e-12
1.5443698e-09
-7.1646076e-12
1.5439201e-09
6.7527091e-12
1.5443445e-09
-6.3699905e-12
1.5439444e-09
6.0080107e-12
1.5443222e-09
-5.6719569e-12
1.5439657e-09
5.3545803e-12
1.5443027e-09
-5.0600467e-12
1.5439843e-09
4.7824621e-12
1.5442857e-09
-4.5250043e-12
1.5440005e-09
4.2829613e-12
1.5442708e-09
-4.058704e-12
1.5440145e-09
3.848483e-12
1.5442579e-09
-3.6540465e-12
1.5440267e-09
3.4724121e-12
1.5442468e-09
-3.3048592e-12
1.5440371e-09
3.1490128e-12
1.5442373e-09
-3.0058058e-12
1.544046e-09
2.8733423e-12
1.5442293e-09
-2.7523043e-12
1.5440534e-09
2.641173e-12
1.5442226e-09
-2.5404532e-12
1.5440595e-09
2.4489197e-12
1.5442171e-09
-2.3669637e-12
1.5440645e-09
2.2935505e-12
1.5442128e-09
-2.2290565e-12
1.5440683e-09
2.1726943e-12
1.5442094e-09
-2.1233328e-12
1.5440706e-09
2.0861464e-12
1.5442059e-09
-2.0492153e-12
1.5440759e-09
1.9860667e-12
1.5442437e-09
-2.2797635e-12
1.8611481e-12
1.6128164e-09
1.7144159e-08
1.7169232e-09
-6.4277043e-10
1.6812755e-09
3.8228226e-10
1.6817464e-09
-4.8931133e-12
1.6812088e-09
2.0688439e-12
1.6816422e-09
1.1479698e-11
1.6823939e-09
-1.4189941e-11
1.6818282e-09
1.339163e-11
1.6825822e-09
-1.3704655e-11
1.6818802e-09
1.2943e-11
1.6825458e-09
-1.219843e-11
1.6819116e-09
1.1542663e-11
1.6825046e-09
-1.0838077e-11
1.6819439e-09
1.0221502e-11
1.6824707e-09
-9.6174852e-12
1.6819742e-09
9.060445e-12
1.6824419e-09
-8.5351415e-12
1.6820014e-09
8.0406441e-12
1.6824169e-09
-7.5800186e-12
1.6820255e-09
7.144035e-12
1.6823949e-09
-6.7393186e-12
1.6820467e-09
6.356171e-12
1.6823755e-09
-6.000801e-12
1.6820652e-09
5.6648785e-12
1.6823586e-09
-5.3534066e-12
1.6820815e-09
5.0596156e-12
1.6823438e-09
-4.7873428e-12
1.6820956e-09
4.5311796e-12
1.6823309e-09
-4.2940098e-12
1.6821078e-09
4.0715331e-12
1.6823197e-09
-3.8658944e-12
1.6821184e-09
3.6736761e-12
1.68231e-09
-3.4964642e-12
1.6821275e-09
3.3315394e-12
1.6823018e-09
-3.1800717e-12
1.6821352e-09
3.0398922e-12
1.6822948e-09
-2.9118669e-12
1.6821417e-09
2.7942596e-12
1.6822889e-09
-2.6877184e-12
1.682147e-09
2.5908436e-12
1.6822842e-09
-2.5041396e-12
1.6821513e-09
2.4264239e-12
1.6822804e-09
-2.3581762e-12
1.6821547e-09
2.2984719e-12
1.6822774e-09
-2.246101e-12
1.6821566e-09
2.2070039e-12
1.6822741e-09
-2.1667564e-12
1.6821613e-09
2.0988892e-12
1.6823104e-09
-2.4288898e-12
1.9562541e-12
1.7448761e-09
1.7857033e-08
1.8453959e-09
-7.4329027e-10
1.8142116e-09
4.1346654e-10
1.8147143e-09
-5.3957845e-12
1.8143985e-09
2.3846603e-12
1.8151468e-09
1.0731336e-11
1.8157869e-09
-1.4830047e-11
1.8153585e-09
1.3820084e-11
1.816003e-09
-1.4349171e-11
1.8154061e-09
1.3539859e-11
1.8159728e-09
-1.2765075e-11
1.8154315e-09
1.2083944e-11
1.8159367e-09
-1.1343295e-11
1.8154585e-09
1.0699684e-11
1.8159076e-09
-1.0066579e-11
1.8154843e-09
9.4837873e-12
1.8158831e-09
-8.9339137e-12
1.8155075e-09
8.4161759e-12
1.8158617e-09
-7.9342046e-12
1.8155281e-09
7.4776482e-12
1.815843e-09
-7.0542181e-12
1.8155462e-09
6.6529878e-12
1.8158266e-09
-6.281186e-12
1.815562e-09
5.9294234e-12
1.8158122e-09
-5.603541e-12
1.8155759e-09
5.2959109e-12
1.8157996e-09
-5.0110321e-12
1.8155879e-09
4.7428138e-12
1.8157886e-09
-4.4946554e-12
1.8155984e-09
4.2617172e-12
1.815779e-09
-4.0465442e-12
1.8156074e-09
3.845293e-12
1.8157708e-09
-3.6598593e-12
1.8156152e-09
3.4871873e-12
1.8157638e-09
-3.3286874e-12
1.8156217e-09
3.1819239e-12
1.8157578e-09
-3.0479499e-12
1.8156273e-09
2.9248165e-12
1.8157529e-09
-2.8133183e-12
1.8156318e-09
2.7118849e-12
1.8157488e-09
-2.621136e-12
1.8156355e-09
2.5397451e-12
1.8157456e-09
-2.4682969e-12
1.8156384e-09
2.4057281e-12
1.815743e-09
-2.3507672e-12
1.8156399e-09
2.3100975e-12
1.8157399e-09
-2.2667358e-12
1.815644e-09
2.1947841e-12
1.8157742e-09
-2.5590205e-12
2.0338126e-12
1.861488e-09
1.8453295e-08
1.9662601e-09
-8.4806246e-10
1.9424591e-09
4.3726757e-10
1.9430802e-09
-6.0168978e-12
1.9430413e-09
2.4235923e-12
1.9440576e-09
9.7149991e-12
1.9445828e-09
-1.535527e-11
1.9442869e-09
1.4115985e-11
1.9448227e-09
-1.4884894e-11
1.944329e-09
1.4033565e-11
1.944798e-09
-1.3234085e-11
1.9443482e-09
1.2533691e-11
1.944767e-09
-1.1762036e-11
1.9443701e-09
1.1096577e-11
1.9447425e-09
-1.0439049e-11
1.9443913e-09
9.8350077e-12
1.9447221e-09
-9.2647199e-12
1.9444106e-09
8.727689e-12
1.9447045e-09
-8.2280426e-12
1.9444277e-09
7.754382e-12
1.944689e-09
-7.3154694e-12
1.9444428e-09
6.8992026e-12
1.9446754e-09
-6.5138074e-12
1.9444559e-09
6.1488754e-12
1.9446635e-09
-5.8110703e-12
1.9444674e-09
5.4919374e-12
1.944653e-09
-5.196627e-12
1.9444774e-09
4.9183912e-12
1.9446439e-09
-4.6611378e-12
1.9444861e-09
4.4195085e-12
1.944636e-09
-4.196443e-12
1.9444936e-09
3.9876888e-12
1.9446292e-09
-3.7954483e-12
1.9445001e-09
3.6163424e-12
1.9446234e-09
-3.4520199e-12
1.9445055e-09
3.299789e-12
1.9446185e-09
-3.1608889e-12
1.9445101e-09
3.0331668e-12
1.9446144e-09
-2.9175629e-12
1.9445139e-09
2.8123432e-12
1.944611e-09
-2.7182423e-12
1.944517e-09
2.6337955e-12
1.9446084e-09
-2.5596924e-12
1.9445194e-09
2.4947319e-12
1.9446062e-09
-2.4375987e-12
1.9445206e-09
2.3956829e-12
1.9446033e-09
-2.3494424e-12
1.9445241e-09
2.2740495e-12
1.944635e-09
-2.6699819e-12
2.0944571e-12
1.984216e-09
1.8926829e-08
2.0842142e-09
-9.4806066e-10
2.0660185e-09
4.5546323e-10
2.0668777e-09
-6.8760552e-12
2.0671392e-09
2.1620607e-12
2.0683791e-09
8.4751147e-12
2.0687824e-09
-1.5758565e-11
2.0686136e-09
1.4284779e-11
2.0690414e-09
-1.5312714e-11
2.0686485e-09
1.442645e-11
2.0690215e-09
-1.3607105e-11
2.0686616e-09
1.2893595e-11
2.0689954e-09
-1.2095839e-11
2.0686784e-09
1.141365e-11
2.0689756e-09
-1.073627e-11
2.0686952e-09
1.0115411e-11
2.0689593e-09
-9.5287832e-12
2.0687106e-09
8.9763428e-12
2.0689452e-09
-8.4626195e-12
2.0687243e-09
7.9752668e-12
2.0689329e-09
-7.5240394e-12
2.0687363e-09
7.0957319e-12
2.0689221e-09
-6.6995261e-12
2.0687469e-09
6.324051e-12
2.0689126e-09
-5.9767622e-12
2.0687561e-09
5.6484235e-12
2.0689043e-09
-5.3448134e-12
2.0687641e-09
5.0585631e-12
2.068897e-09
-4.7940719e-12
2.068771e-09
4.5454912e-12
2.0688908e-09
-4.3161436e-12
2.068777e-09
4.1013899e-12
2.0688853e-09
-3.9037305e-12
2.0687822e-09
3.719481e-12
2.0688807e-09
-3.5505225e-12
2.0687866e-09
3.3939215e-12
2.0688768e-09
-3.2510985e-12
2.0687902e-09
3.1197087e-12
2.0688735e-09
-3.0008343e-12
2.0687933e-09
2.8925874e-12
2.0688708e-09
-2.7958147e-12
2.0687957e-09
2.7089211e-12
2.0688687e-09
-2.6326992e-12
2.0687976e-09
2.5658129e-12
2.068867e-09
-2.5069215e-12
2.0687986e-09
2.4640732e-12
2.0688643e-09
-2.4152203e-12
2.0688014e-09
2.337029e-12
2.0688931e-09
-2.7617269e-12
2.138889e-12
2.09641e-09
1.9288169e-08
2.1949431e-09
-1.0465938e-09
2.1849536e-09
4.6545271e-10
2.1861277e-09
-8.0501652e-12
2.1866816e-09
1.6082041e-12
2.1881102e-09
7.0465297e-12
2.1883846e-09
-1.6032965e-11
2.1883379e-09
1.4331432e-11
2.1886592e-09
-1.5634047e-11
2.1883646e-09
1.4721061e-11
2.1886436e-09
-1.3886114e-11
2.1883716e-09
1.3165619e-11
2.1886223e-09
-1.2346516e-11
2.1883833e-09
1.1652627e-11
2.1886069e-09
-1.0959859e-11
2.1883958e-09
1.0326525e-11
2.1885945e-09
-9.727538e-12
2.1884074e-09
9.1634954e-12
2.188584e-09
-8.6392099e-12
2.1884177e-09
8.1415093e-12
2.1885748e-09
-7.6810614e-12
2.1884268e-09
7.2436491e-12
2.1885667e-09
-6.839351e-12
2.1884348e-09
6.4559057e-12
2.1885596e-09
-6.1015162e-12
2.1884418e-09
5.7662215e-12
2.1885533e-09
-5.456395e-12
2.1884478e-09
5.1640918e-12
2.1885479e-09
-4.8941777e-12
2.1884531e-09
4.6403492e-12
2.1885432e-09
-4.4062933e-12
2.1884576e-09
4.1870121e-12
2.1885392e-09
-3.9852904e-12
2.1884615e-09
3.7971607e-12
2.1885357e-09
-3.6247259e-12
2.1884648e-09
3.4648289e-12
2.1885327e-09
-3.3190638e-12
2.1884675e-09
3.1849079e-12
2.1885303e-09
-3.0635797e-12
2.1884698e-09
2.9530488e-12
2.1885283e-09
-2.8542693e-12
2.1884717e-09
2.765526e-12
2.1885267e-09
-2.6877097e-12
2.1884731e-09
2.6193553e-12
2.1885253e-09
-2.5591138e-12
2.1884738e-09
2.5156338e-12
2.188523e-09
-2.4644631e-12
2.1884759e-09
2.3841074e-12
2.1885485e-09
-2.8343234e-12
2.1678582e-12
2.2113774e-09
1.9534542e-08
2.3035386e-09
-1.1387549e-09
2.2994203e-09
4.69571e-10
2.300865e-09
-9.4948719e-12
2.3016561e-09
8.171305e-13
2.3032531e-09
5.4494499e-12
2.3033901e-09
-1.6169944e-11
2.30346e-09
1.4261522e-11
2.3036764e-09
-1.5850394e-11
2.3034772e-09
1.4920282e-11
2.3036644e-09
-1.4073331e-11
2.303478e-09
1.3351991e-11
2.3036476e-09
-1.2516113e-11
2.3034848e-09
1.181546e-11
2.3036365e-09
-1.111164e-11
2.303493e-09
1.0470082e-11
2.3036281e-09
-9.8626069e-12
2.3035009e-09
9.2906821e-12
2.3036209e-09
-8.7592552e-12
2.303508e-09
8.2544732e-12
2.3036147e-09
-7.7878169e-12
2.3035142e-09
7.3441664e-12
2.3036093e-09
-6.9344228e-12
2.3035197e-09
6.5455191e-12
2.3036045e-09
-6.1863492e-12
2.3035244e-09
5.8462946e-12
2.3036003e-09
-5.5322803e-12
2.3035285e-09
5.2358385e-12
2.3035966e-09
-4.9622688e-12
2.3035321e-09
4.7048551e-12
2.3035935e-09
-4.4676236e-12
2.3035352e-09
4.2452515e-12
2.3035907e-09
-4.0407886e-12
2.3035379e-09
3.8500112e-12
2.3035884e-09
-3.67523e-12
2.3035401e-09
3.5130849e-12
2.3035864e-09
-3.365333e-12
2.303542e-09
3.2292906e-12
2.3035847e-09
-3.1063041e-12
2.3035436e-09
2.9942144e-12
2.3035834e-09
-2.8940763e-12
2.3035448e-09
2.8040661e-12
2.3035823e-09
-2.7251666e-12
2.3035459e-09
2.655792e-12
2.3035813e-09
-2.594601e-12
2.3035462e-09
2.5507762e-12
2.3035793e-09
-2.4976077e-12
2.3035477e-09
2.415707e-12
2.3036014e-09
-2.8879433e-12
2.1821478e-12
2.3200602e-09
1.9672232e-08
2.4053674e-09
-1.2240621e-09
2.4093958e-09
4.6554265e-10
2.4111456e-09
-1.1244688e-11
2.4120554e-09
-9.2706658e-14
2.4138082e-09
3.6966334e-12
2.4137987e-09
-1.6160426e-11
2.4139796e-09
1.4080622e-11
2.4140928e-09
-1.5963612e-11
2.4139859e-09
1.5027167e-11
2.4140839e-09
-1.4171251e-11
2.4139807e-09
1.3455147e-11
2.4140715e-09
-1.2606897e-11
2.4139826e-09
1.1904298e-11
2.4140646e-09
-1.1193631e-11
2.4139867e-09
1.0547986e-11
2.4140599e-09
-9.9357799e-12
2.413991e-09
9.3595945e-12
2.4140561e-09
-8.8243451e-12
2.4139949e-09
8.315661e-12
2.4140528e-09
-7.8457189e-12
2.4139983e-09
7.3986198e-12
2.4140499e-09
-6.9859988e-12
2.4140014e-09
6.5940806e-12
2.4140474e-09
-6.232382e-12
2.414004e-09
5.8897038e-12
2.4140452e-09
-5.5734706e-12
2.4140063e-09
5.2747524e-12
2.4140432e-09
-4.9992426e-12
2.4140082e-09
4.7398605e-12
2.4140415e-09
-4.5009412e-12
2.4140099e-09
4.2768749e-12
2.4140401e-09
-4.0709534e-12
2.4140114e-09
3.878727e-12
2.4140388e-09
-3.702696e-12
2.4140126e-09
3.5393218e-12
2.4140378e-09
-3.3905105e-12
2.4140136e-09
3.2534369e-12
2.4140369e-09
-3.1295645e-12
2.4140145e-09
3.0166211e-12
2.4140362e-09
-2.9157538e-12
2.4140152e-09
2.8250434e-12
2.4140356e-09
-2.7455578e-12
2.4140158e-09
2.6755996e-12
2.414035e-09
-2.6138506e-12
2.4140158e-09
2.569954e-12
2.4140334e-09
-2.5151293e-12
2.4140168e-09
2.4322836e-12
2.4140517e-09
-2.9228523e-12
2.1825605e-12
2.4280228e-09
1.9701959e-08
2.5054947e-09
-1.301534e-09
2.5149969e-09
4.5604051e-10
2.5170202e-09
-1.3268073e-11
2.5178782e-09
-9.5069394e-13
2.5197788e-09
1.7960248e-12
2.5196113e-09
-1.59929e-11
2.5198967e-09
1.3795228e-11
2.5199087e-09
-1.597558e-11
2.5198908e-09
1.5045001e-11
2.5199022e-09
-1.4182581e-11
2.5198796e-09
1.3477718e-11
2.519894e-09
-1.2621323e-11
2.5198769e-09
1.1921466e-11
2.5198912e-09
-1.1208015e-11
2.5198769e-09
1.0562301e-11
2.5198901e-09
-9.9489943e-12
2.5198777e-09
9.3720628e-12
2.5198895e-09
-8.8361997e-12
2.5198785e-09
8.3266979e-12
2.5198891e-09
-7.8562962e-12
2.5198792e-09
7.408454e-12
2.5198887e-09
-6.9954396e-12
2.5198799e-09
6.6028766e-12
2.5198883e-09
-6.2408275e-12
2.5198804e-09
5.8975969e-12
2.519888e-09
-5.5810495e-12
2.5198809e-09
5.2818599e-12
2.5198877e-09
-5.0060698e-12
2.5198813e-09
4.7462865e-12
2.5198875e-09
-4.5071191e-12
2.5198816e-09
4.2827123e-12
2.5198873e-09
-4.0765734e-12
2.5198819e-09
3.8840594e-12
2.5198871e-09
-3.7078398e-12
2.5198822e-09
3.5442238e-12
2.5198869e-09
-3.3952507e-12
2.5198824e-09
3.2579744e-12
2.5198868e-09
-3.1339638e-12
2.5198825e-09
3.0208498e-12
2.5198867e-09
-2.9198626e-12
2.5198827e-09
2.8290017e-12
2.5198866e-09
-2.7494109e-12
2.5198829e-09
2.6792934e-12
2.5198864e-09
-2.6173674e-12
2.5198827e-09
2.573658e-12
2.5198851e-09
-2.517537e-12
2.519883e-09
2.4343236e-12
2.5198996e-09
-2.9394002e-12
2.1699077e-12
2.5333376e-09
1.9626371e-08
2.5992724e-09
-1.3674689e-09
2.6160916e-09
4.3922136e-10
2.6184312e-09
-1.5607648e-11
2.6191325e-09
-1.6520274e-12
2.6211624e-09
-2.3387028e-13
2.6208273e-09
-1.5657828e-11
2.6212104e-09
1.3412149e-11
2.6211235e-09
-1.5888685e-11
2.6211915e-09
1.4977039e-11
2.6211192e-09
-1.4110359e-11
2.6211745e-09
1.3422429e-11
2.6211153e-09
-1.2562053e-11
2.6211673e-09
1.1869422e-11
2.6211164e-09
-1.1157131e-11
2.6211635e-09
1.0515219e-11
2.6211188e-09
-9.904319e-12
2.6211609e-09
9.3300371e-12
2.6211213e-09
-8.7966545e-12
2.6211587e-09
8.2893163e-12
2.6211236e-09
-7.8211797e-12
2.6211568e-09
7.3752095e-12
2.6211256e-09
-6.9641964e-12
2.6211552e-09
6.5732788e-12
2.6211273e-09
-6.2129795e-12
2.6211537e-09
5.8711977e-12
2.6211288e-09
-5.556173e-12
2.6211524e-09
5.258256e-12
2.6211302e-09
-4.9837862e-12
2.6211513e-09
4.7251157e-12
2.6211313e-09
-4.4870887e-12
2.6211504e-09
4.2636491e-12
2.6211323e-09
-4.0584899e-12
2.6211495e-09
3.86681e-12
2.6211331e-09
-3.6914255e-12
2.6211488e-09
3.5285211e-12
2.6211338e-09
-3.3802519e-12
2.6211482e-09
3.2435733e-12
2.6211344e-09
-3.1201454e-12
2.6211477e-09
3.0075208e-12
2.6211349e-09
-2.9070014e-12
2.6211474e-09
2.8165209e-12
2.6211352e-09
-2.7372891e-12
2.6211471e-09
2.6674231e-12
2.6211354e-09
-2.6056894e-12
2.6211467e-09
2.5624123e-12
2.6211345e-09
-2.5053688e-12
2.6211465e-09
2.4223399e-12
2.6211451e-09
-2.938013e-12
2.1449998e-12
2.6342758e-09
1.9449846e-08
2.6917781e-09
-1.4249712e-09
2.7128377e-09
4.1816178e-10
2.7152568e-09
-1.802678e-11
2.7158162e-09
-2.2114406e-12
2.7179522e-09
-2.3698292e-12
2.7174459e-09
-1.5151503e-11
2.7179198e-09
1.2938197e-11
2.7177369e-09
-1.5705767e-11
2.7178874e-09
1.4826494e-11
2.717735e-09
-1.3957913e-11
2.7178653e-09
1.3292089e-11
2.7177352e-09
-1.2431933e-11
2.7178539e-09
1.175074e-11
2.7177402e-09
-1.1043457e-11
2.7178464e-09
1.040905e-11
2.717746e-09
-9.8039394e-12
2.7178405e-09
9.2355721e-12
2.7177515e-09
-8.7076461e-12
2.7178354e-09
8.2053424e-12
2.7177563e-09
-7.7420895e-12
2.717831e-09
7.3005102e-12
2.7177607e-09
-6.8937999e-12
2.7178272e-09
6.5067335e-12
2.7177644e-09
-6.1502023e-12
2.7178238e-09
5.811797e-12
2.7177677e-09
-5.5000603e-12
2.7178209e-09
5.2050953e-12
2.7177706e-09
-4.9334846e-12
2.7178183e-09
4.6773845e-12
2.717773e-09
-4.4418326e-12
2.7178161e-09
4.2206193e-12
2.7177752e-09
-4.0175904e-12
2.7178142e-09
3.8278246e-12
2.717777e-09
-3.6542593e-12
2.7178125e-09
3.4929844e-12
2.7177785e-09
-3.3462514e-12
2.7178112e-09
3.2109405e-12
2.7177798e-09
-3.0887887e-12
2.71781e-09
2.9772884e-12
2.7177808e-09
-2.877802e-12
2.7178091e-09
2.7882133e-12
2.7177816e-09
-2.7097869e-12
2.7178085e-09
2.640569e-12
2.7177822e-09
-2.5793839e-12
2.7178078e-09
2.5367699e-12
2.7177817e-09
-2.4791885e-12
2.7178071e-09
2.3968697e-12
2.7177883e-09
-2.9191842e-12
2.1086388e-12
2.7358207e-09
1.9171775e-08
2.7784192e-09
-1.4675697e-09
2.8050569e-09
3.915241e-10
2.8074632e-09
-2.0433124e-11
2.8079497e-09
-2.6978967e-12
2.8101432e-09
-4.5633723e-12
2.8094673e-09
-1.4475597e-11
2.8100253e-09
1.2380279e-11
2.8097491e-09
-1.5429593e-11
2.8099788e-09
1.4596807e-11
2.8097495e-09
-1.3728668e-11
2.8099519e-09
1.3089663e-11
2.8097539e-09
-1.2233925e-11
2.8099366e-09
1.1568116e-11
2.8097627e-09
-1.0869581e-11
2.8099255e-09
1.0246206e-11
2.8097717e-09
-9.6501389e-12
2.8099165e-09
9.0908143e-12
2.80978e-09
-8.5711983e-12
2.8099087e-09
8.076684e-12
2.8097874e-09
-7.6208235e-12
2.8099019e-09
7.1860529e-12
2.8097939e-09
-6.7858498e-12
2.8098959e-09
6.4047519e-12
2.8097996e-09
-6.0539224e-12
2.8098907e-09
5.7207434e-12
2.8098046e-09
-5.4139861e-12
2.8098861e-09
5.1235848e-12
2.809809e-09
-4.8563072e-12
2.8098822e-09
4.6041765e-12
2.8098127e-09
-4.3723785e-12
2.8098787e-09
4.1545993e-12
2.8098159e-09
-3.9548034e-12
2.8098758e-09
3.7679877e-12
2.8098187e-09
-3.5971845e-12
2.8098733e-09
3.4384195e-12
2.809821e-09
-3.29402e-12
2.8098712e-09
3.1608159e-12
2.809823e-09