/*--------------------------------*- C++ -*----------------------------------*\
| =========                 |                                                 |
| \\      /  F ield         | OpenFOAM: The Open Source CFD Toolbox           |
|  \\    /   O peration     | Version:  2312                                  |
|   \\  /    A nd           | Website:  www.openfoam.com                      |
|    \\/     M anipulation  |                                                 |
\*---------------------------------------------------------------------------*/
FoamFile
{
    version     2.0;
    format      ascii;
    arch        "LSB;label=32;scalar=64";
    class       surfaceScalarField;
    location    "6";
    object      phi_0;
}
// * * * * * * * * * * * * * * * * * * * * * * * * * * * * * * * * * * * * * //

dimensions      [0 3 -1 0 0 0 0];

oriented        oriented;

internalField   nonuniform List<scalar> 
7870
(
1.0171211e-10
2.3560379e-09
1.0153356e-10
1.7854615e-13
9.4554637e-11
6.978928e-12
9.3960381e-11
5.9425806e-13
9.5089156e-11
-1.1287748e-12
9.3655428e-11
1.4337285e-12
9.4990971e-11
-1.3355423e-12
9.371047e-11
1.2805005e-12
9.4919311e-11
-1.2088409e-12
9.3778194e-11
1.1411173e-12
9.4851793e-11
-1.0735987e-12
9.3840225e-11
1.0115679e-12
9.47921e-11
-9.5187512e-13
9.3895601e-11
8.9649935e-13
9.4739655e-11
-8.4405404e-13
9.3944599e-11
7.9505585e-13
9.4693515e-11
-7.4891645e-13
9.398781e-11
7.0570564e-13
9.4652913e-11
-6.6510336e-13
9.4025845e-11
6.2706782e-13
9.4617212e-11
-5.9136699e-13
9.4059269e-11
5.5794288e-13
9.4585868e-11
-5.2659841e-13
9.4088585e-11
4.9728303e-13
9.4558405e-11
-4.6982008e-13
9.4114235e-11
4.4417018e-13
9.4534408e-11
-4.2017329e-13
9.4136608e-11
3.9779999e-13
9.4513514e-11
-3.7690578e-13
9.4156045e-11
3.5746915e-13
9.4495405e-11
-3.393607e-13
9.417284e-11
3.2256488e-13
9.4479807e-11
-3.06967e-13
9.4187252e-11
2.9255588e-13
9.4466483e-11
-2.7923109e-13
9.4199498e-11
2.669846e-13
9.4455228e-11
-2.5572969e-13
9.4209767e-11
2.4546052e-13
9.4445871e-11
-2.3610356e-13
9.4218216e-11
2.2765437e-13
9.4438269e-11
-2.2005231e-13
9.4224975e-11
2.1329334e-13
9.4432304e-11
-2.0732873e-13
9.4230142e-11
2.0216211e-13
9.4427867e-11
-1.9772511e-13
9.4233786e-11
1.9408067e-13
9.4425132e-11
-1.9134558e-13
9.4237618e-11
1.8751366e-13
9.4430882e-11
-1.9326385e-13
1.7978403e-13
2.7850904e-10
4.5352789e-09
2.9244345e-10
-1.3755854e-11
2.7444628e-10
2.4976088e-11
2.7367993e-10
1.3606205e-12
2.7494274e-10
-2.391583e-12
2.7288327e-10
3.4931944e-12
2.7477296e-10
-3.2252306e-12
2.7294178e-10
3.1116795e-12
2.7467901e-10
-2.9460716e-12
2.7303668e-10
2.783444e-12
2.7458169e-10
-2.6186019e-12
2.7312489e-10
2.468361e-12
2.7449529e-10
-2.3222743e-12
2.7320436e-10
2.1874358e-12
2.7441968e-10
-2.0593729e-12
2.732749e-10
1.9398341e-12
2.7435327e-10
-1.8272836e-12
2.7333717e-10
1.7217988e-12
2.7429486e-10
-1.6227867e-12
2.73392e-10
1.52992e-12
2.742435e-10
-1.4428666e-12
2.7344019e-10
1.3612573e-12
2.7419842e-10
-1.284826e-12
2.7348245e-10
1.2132503e-12
2.7415891e-10
-1.1462819e-12
2.7351942e-10
1.0836577e-12
2.7412439e-10
-1.0251393e-12
2.7355167e-10
9.7051644e-13
2.7409433e-10
-9.195624e-13
2.7357969e-10
8.7211003e-13
2.7406828e-10
-8.279478e-13
2.736039e-10
7.8694293e-13
2.7404583e-10
-7.4890168e-13
2.7362467e-10
7.1371843e-13
2.7402666e-10
-6.8121923e-13
2.7364232e-10
6.513198e-13
2.7401046e-10
-6.2386718e-13
2.7365713e-10
5.9879381e-13
2.7399699e-10
-5.7596847e-13
2.7366931e-10
5.5533652e-13
2.7398605e-10
-5.3678946e-13
2.7367906e-10
5.2028103e-13
2.7397746e-10
-5.0572544e-13
2.7368651e-10
4.9310438e-13
2.7397103e-10
-4.8224556e-13
2.736917e-10
4.7340997e-13
2.7396698e-10
-4.6662225e-13
2.736979e-10
4.5659862e-13
2.7398167e-10
-4.7703372e-13
4.3695023e-13
4.5005727e-10
6.5429716e-09
4.7646804e-10
-4.016662e-11
4.4929721e-10
5.2146924e-11
4.4911312e-10
1.5447159e-12
4.4976572e-10
-3.0441841e-12
4.4786234e-10
5.3965698e-12
4.496005e-10
-4.9633821e-12
4.4789525e-10
4.8169235e-12
4.4952785e-10
-4.5786712e-12
4.4798147e-10
4.3298261e-12
4.4943619e-10
-4.073323e-12
4.4806311e-10
3.8414369e-12
4.4935421e-10
-3.6133653e-12
4.4813764e-10
3.4040046e-12
4.4928282e-10
-3.2045515e-12
4.4820409e-10
3.0185562e-12
4.4922026e-10
-2.8434545e-12
4.4826285e-10
2.6792182e-12
4.4916529e-10
-2.5252307e-12
4.4831459e-10
2.3806154e-12
4.4911696e-10
-2.2452358e-12
4.4836007e-10
2.1181492e-12
4.4907453e-10
-1.9992867e-12
4.4839995e-10
1.8878286e-12
4.4903735e-10
-1.7836788e-12
4.4843484e-10
1.6861639e-12
4.4900486e-10
-1.5951519e-12
4.4846527e-10
1.510099e-12
4.4897656e-10
-1.4308481e-12
4.4849171e-10
1.3569621e-12
4.4895203e-10
-1.2882715e-12
4.4851455e-10
1.2244252e-12
4.489309e-10
-1.165252e-12
4.4853415e-10
1.1104697e-12
4.4891284e-10
-1.0599139e-12
4.4855081e-10
1.0133571e-12
4.4889759e-10
-9.7064828e-13
4.4856478e-10
9.3160346e-13
4.488849e-10
-8.9608927e-13
4.4857628e-10
8.639564e-13
4.4887458e-10
-8.3509366e-13
4.4858549e-10
8.093755e-13
4.4886648e-10
-7.867167e-13
4.4859253e-10
7.670495e-13
4.4886038e-10
-7.5008963e-13
4.4859737e-10
7.3642021e-13
4.4885644e-10
-7.2569471e-13
4.4860429e-10
7.0874572e-13
4.4887902e-10
-7.5176199e-13
6.7739202e-13
6.1249581e-10
8.3882258e-09
6.5419911e-10
-8.1869909e-11
6.1958218e-10
8.6763853e-11
6.1983549e-10
1.2914087e-12
6.1994998e-10
-3.1586751e-12
6.1822607e-10
7.1204812e-12
6.198196e-10
-6.5569157e-12
6.1824649e-10
6.3900358e-12
6.1977238e-10
-6.1045606e-12
6.1832539e-10
5.776817e-12
6.1968682e-10
-5.4347558e-12
6.1840048e-10
5.1277787e-12
6.1960945e-10
-4.8223304e-12
6.1846992e-10
4.5435354e-12
6.1954243e-10
-4.2770637e-12
6.1853212e-10
4.0288603e-12
6.1948385e-10
-3.7951815e-12
6.185872e-10
3.5758706e-12
6.1943241e-10
-3.3704385e-12
6.1863573e-10
3.1772964e-12
6.1938719e-10
-2.9967008e-12
6.1867837e-10
2.826968e-12
6.1934749e-10
-2.6684036e-12
6.1871577e-10
2.5195494e-12
6.193127e-10
-2.3806064e-12
6.1874848e-10
2.2503794e-12
6.1928229e-10
-2.1289577e-12
6.1877701e-10
2.0153775e-12
6.192558e-10
-1.9096416e-12
6.1880179e-10
1.8109762e-12
6.1923284e-10
-1.7193251e-12
6.188232e-10
1.6340673e-12
6.1921306e-10
-1.5551103e-12
6.1884157e-10
1.4819555e-12
6.1919615e-10
-1.4144924e-12
6.1885719e-10
1.3523196e-12
6.1918186e-10
-1.2953226e-12
6.1887029e-10
1.2431774e-12
6.1916997e-10
-1.195776e-12
6.1888108e-10
1.1528556e-12
6.1916031e-10
-1.1143242e-12
6.1888972e-10
1.0799609e-12
6.191527e-10
-1.0497002e-12
6.1889634e-10
1.0234111e-12
6.1914694e-10
-1.000683e-12
6.1890081e-10
9.82543e-13
6.1914304e-10
-9.6792382e-13
6.1890806e-10
9.4372755e-13
6.1917161e-10
-1.0153113e-12
9.0143203e-13
7.7597507e-10
1.0070001e-08
8.2542139e-10
-1.3131623e-10
7.8513436e-10
1.2705089e-10
7.8583884e-10
5.8693528e-13
7.8549313e-10
-2.8129672e-12
7.8397499e-10
8.6386203e-12
7.8543016e-10
-8.0120863e-12
7.8399507e-10
7.8251323e-12
7.8541231e-10
-7.5218019e-12
7.8406801e-10
7.12111e-12
7.8533334e-10
-6.7000774e-12
7.8413661e-10
6.3245074e-12
7.8526079e-10
-5.9465168e-12
7.8420084e-10
5.6034874e-12
7.8519831e-10
-5.2745335e-12
7.8425867e-10
4.9685019e-12
7.8514384e-10
-4.6803536e-12
7.8430994e-10
4.4097694e-12
7.8509604e-10
-4.156538e-12
7.8435514e-10
3.9182027e-12
7.8505404e-10
-3.6956015e-12
7.8439485e-10
3.4861525e-12
7.8501715e-10
-3.290704e-12
7.8442968e-10
3.1070265e-12
7.8498483e-10
-2.9357571e-12
7.8446014e-10
2.7750721e-12
7.8495657e-10
-2.6253938e-12
7.8448669e-10
2.4852547e-12
7.8493196e-10
-2.3549065e-12
7.8450976e-10
2.2331733e-12
7.8491062e-10
-2.1201827e-12
7.8452969e-10
2.0149931e-12
7.8489223e-10
-1.917647e-12
7.845468e-10
1.8273894e-12
7.8487651e-10
-1.7442086e-12
7.8456133e-10
1.667498e-12
7.8486323e-10
-1.5972158e-12
7.8457353e-10
1.5328732e-12
7.8485217e-10
-1.474416e-12
7.8458358e-10
1.4214484e-12
7.8484317e-10
-1.3739206e-12
7.8459164e-10
1.3314993e-12
7.848361e-10
-1.2941587e-12
7.8459782e-10
1.2616887e-12
7.8483068e-10
-1.2335464e-12
7.8460192e-10
1.2113046e-12
7.8482681e-10
-1.1928192e-12
7.8460922e-10
1.1613183e-12
7.848598e-10
-1.2658922e-12
1.1080235e-12
9.229681e-10
1.1604783e-08
9.8971901e-10
-1.9806714e-10
9.4610836e-10
1.7066154e-10
9.4710754e-10
-4.12239e-13
9.4639565e-10
-2.1010712e-12
9.4511037e-10
9.9238975e-12
9.4643339e-10
-9.3351078e-12
9.4514081e-10
9.1177158e-12
9.4644811e-10
-8.8291094e-12
9.4520906e-10
8.3601608e-12
9.4637613e-10
-7.8671459e-12
9.4527125e-10
7.429395e-12
9.4630861e-10
-6.9838773e-12
9.4533019e-10
6.5819002e-12
9.4625078e-10
-6.1951228e-12
9.4538353e-10
5.8357516e-12
9.4620052e-10
-5.4973377e-12
9.454309e-10
5.179385e-12
9.4615645e-10
-4.8820819e-12
9.4547267e-10
4.6019795e-12
9.4611772e-10
-4.3406558e-12
9.4550937e-10
4.094502e-12
9.4608372e-10
-3.8650513e-12
9.4554155e-10
3.6491946e-12
9.4605392e-10
-3.4481223e-12
9.4556969e-10
3.2592955e-12
9.4602786e-10
-3.083564e-12
9.4559423e-10
2.9188885e-12
9.4600517e-10
-2.7658448e-12
9.4561554e-10
2.6228022e-12
9.4598549e-10
-2.4901322e-12
9.4563395e-10
2.3665313e-12
9.4596853e-10
-2.2522247e-12
9.4564975e-10
2.1461692e-12
9.4595403e-10
-2.0484901e-12
9.4566318e-10
1.9583506e-12
9.4594177e-10
-1.8758119e-12
9.4567445e-10
1.8002009e-12
9.4593157e-10
-1.7315417e-12
9.4568373e-10
1.6692897e-12
9.4592327e-10
-1.6134567e-12
9.4569118e-10
1.5635838e-12
9.4591673e-10
-1.5197019e-12
9.4569691e-10
1.4815071e-12
9.4591168e-10
-1.4483234e-12
9.4570064e-10
1.422353e-12
9.4590785e-10
-1.400032e-12
9.4570779e-10
1.3613773e-12
9.4594389e-10
-1.5019914e-12
1.2962733e-12
1.0788852e-09
1.2983647e-08
1.1481879e-09
-2.6736985e-10
1.1023774e-09
2.1647208e-10
1.1035959e-09
-1.6306954e-12
1.1026491e-09
-1.1543456e-12
1.101633e-09
1.0940061e-11
1.1028305e-09
-1.053268e-11
1.1016835e-09
1.0264755e-11
1.1028802e-09
-1.0025856e-11
1.1017482e-09
9.4922505e-12
1.1028156e-09
-8.9345521e-12
1.1018041e-09
8.4409097e-12
1.1027532e-09
-7.9330247e-12
1.1018577e-09
7.4774343e-12
1.1027001e-09
-7.0375791e-12
1.1019064e-09
6.6294316e-12
1.1026541e-09
-6.2450205e-12
1.1019498e-09
5.8836768e-12
1.1026138e-09
-5.5460835e-12
1.1019881e-09
5.227706e-12
1.1025784e-09
-4.9309902e-12
1.1020217e-09
4.6512006e-12
1.1025474e-09
-4.3906718e-12
1.1020512e-09
4.1453302e-12
1.1025201e-09
-3.9170157e-12
1.102077e-09
3.7024069e-12
1.1024963e-09
-3.5028585e-12
1.1020995e-09
3.3157067e-12
1.1024756e-09
-3.1419138e-12
1.102119e-09
2.979353e-12
1.1024576e-09
-2.8286893e-12
1.1021359e-09
2.6882257e-12
1.1024421e-09
-2.55841e-12
1.1021503e-09
2.4378859e-12
1.1024288e-09
-2.3269477e-12
1.1021626e-09
2.2245092e-12
1.1024176e-09
-2.1307603e-12
1.102173e-09
2.0448281e-12
1.1024083e-09
-1.9668357e-12
1.1021815e-09
1.8960777e-12
1.1024007e-09
-1.8326438e-12
1.1021883e-09
1.7759393e-12
1.1023947e-09
-1.726066e-12
1.1021936e-09
1.6826138e-12
1.10239e-09
-1.6447769e-12
1.1021969e-09
1.6154519e-12
1.1023862e-09
-1.5893418e-12
1.1022038e-09
1.5438426e-12
1.1024241e-09
-1.7223562e-12
1.4657252e-12
1.2118484e-09
1.4229549e-08
1.2992876e-09
-3.5480911e-10
1.2540867e-09
2.6167299e-10
1.2552737e-09
-2.8176108e-12
1.2542485e-09
-1.2920694e-13
1.253545e-09
1.1643535e-11
1.2546236e-09
-1.1611257e-11
1.2536234e-09
1.1264982e-11
1.2547093e-09
-1.1111726e-11
1.253685e-09
1.0516486e-11
1.254652e-09
-9.9014922e-12
1.2537347e-09
9.3581442e-12
1.2545949e-09
-8.7931492e-12
1.253783e-09
8.2892975e-12
1.2545466e-09
-7.8011655e-12
1.2538272e-09
7.3488492e-12
1.2545049e-09
-6.9227459e-12
1.2538665e-09
6.522035e-12
1.2544684e-09
-6.1479625e-12
1.2539013e-09
5.7948436e-12
1.2544364e-09
-5.4660915e-12
1.2539318e-09
5.1557718e-12
1.2544082e-09
-4.8671116e-12
1.2539586e-09
4.595011e-12
1.2543836e-09
-4.3420355e-12
1.253982e-09
4.1040316e-12
1.254362e-09
-3.8829209e-12
1.2540023e-09
3.6753763e-12
1.2543432e-09
-3.4827964e-12
1.2540201e-09
3.3025285e-12
1.2543269e-09
-3.1355714e-12
1.2540354e-09
2.979811e-12
1.2543129e-09
-2.8359503e-12
1.2540485e-09
2.702302e-12
1.2543009e-09
-2.5793552e-12
1.2540596e-09
2.4657606e-12
1.2542907e-09
-2.3618573e-12
1.254069e-09
2.2665625e-12
1.2542823e-09
-2.1801146e-12
1.2540767e-09
2.1016388e-12
1.2542754e-09
-2.0313162e-12
1.2540829e-09
1.9684088e-12
1.2542699e-09
-1.9131015e-12
1.2540877e-09
1.8648663e-12
1.2542657e-09
-1.8227768e-12
1.2540907e-09
1.7904684e-12
1.254262e-09
-1.7606398e-12
1.2540971e-09
1.708724e-12
1.2543007e-09
-1.9259622e-12
1.6162574e-12
1.3585455e-09
1.5328754e-08
1.4453875e-09
-4.4165113e-10
1.4011361e-09
3.0592444e-10
1.4021125e-09
-3.7940034e-12
1.4011835e-09
7.9972944e-13
1.4008481e-09
1.1978967e-11
1.4018145e-09
-1.257766e-11
1.4009609e-09
1.2118566e-11
1.4019358e-09
-1.2086575e-11
1.4010195e-09
1.1432747e-11
1.4018856e-09
-1.0767651e-11
1.401063e-09
1.0180757e-11
1.4018338e-09
-9.5639372e-12
1.4011059e-09
9.0171806e-12
1.4017904e-09
-8.4855946e-12
1.4011455e-09
7.9937379e-12
1.401753e-09
-7.5302583e-12
1.4011808e-09
7.0942271e-12
1.4017203e-09
-6.6874938e-12
1.401212e-09
6.3031885e-12
1.4016917e-09
-5.9457623e-12
1.4012394e-09
5.6080365e-12
1.4016665e-09
-5.2941974e-12
1.4012634e-09
4.9980791e-12
1.4016444e-09
-4.723029e-12
1.4012844e-09
4.46403e-12
1.4016251e-09
-4.2236164e-12
1.4013027e-09
3.9977737e-12
1.4016083e-09
-3.7883738e-12
1.4013186e-09
3.5922193e-12
1.4015937e-09
-3.4106732e-12
1.4013323e-09
3.2411901e-12
1.4015811e-09
-3.0847524e-12
1.4013441e-09
2.9393311e-12
1.4015704e-09
-2.80563e-12
1.4013541e-09
2.682028e-12
1.4015613e-09
-2.5690301e-12
1.4013625e-09
2.4653363e-12
1.4015537e-09
-2.3713138e-12
1.4013694e-09
2.2859134e-12
1.4015475e-09
-2.2094176e-12
1.401375e-09
2.1409407e-12
1.4015426e-09
-2.08076e-12
1.4013793e-09
2.0282213e-12
1.4015388e-09
-1.9822885e-12
1.4013819e-09
1.9473623e-12
1.4015352e-09
-1.9139159e-12
1.4013878e-09
1.8560969e-12
1.4015738e-09
-2.1119889e-12
1.7479803e-12
1.4827243e-09
1.6303779e-08
1.5837932e-09
-5.4272004e-10
1.5436021e-09
3.4611553e-10
1.5442145e-09
-4.4064117e-12
1.543479e-09
1.5353172e-12
1.5435433e-09
1.1914664e-11
1.5444035e-09
-1.3437883e-11
1.5436957e-09
1.2826343e-11
1.54456e-09
-1.2950831e-11
1.5437513e-09
1.2241419e-11
1.5445169e-09
-1.1533225e-11
1.5437887e-09
1.0908883e-11
1.5444703e-09
-1.0245532e-11
1.5438263e-09
9.6612037e-12
1.5444317e-09
-9.0909846e-12
1.5438612e-09
8.5642126e-12
1.5443986e-09
-8.0676619e-12
1.5438925e-09
7.6003592e-12
1.5443698e-09
-7.1647716e-12
1.5439201e-09
6.7528372e-12
1.5443444e-09
-6.3700882e-12
1.5439444e-09
6.0080821e-12
1.5443222e-09
-5.6720071e-12
1.5439657e-09
5.3546135e-12
1.5443027e-09
-5.0600673e-12
1.5439843e-09
4.7824736e-12
1.5442857e-09
-4.52501e-12
1.5440005e-09
4.2829635e-12
1.5442708e-09
-4.0587049e-12
1.5440145e-09
3.8484842e-12
1.5442579e-09
-3.654049e-12
1.5440267e-09
3.4724168e-12
1.5442468e-09
-3.3048666e-12
1.5440371e-09
3.1490231e-12
1.5442373e-09
-3.005819e-12
1.544046e-09
2.8733584e-12
1.5442293e-09
-2.7523231e-12
1.5440534e-09
2.6411943e-12
1.5442226e-09
-2.5404767e-12
1.5440595e-09
2.4489451e-12
1.5442171e-09
-2.3669907e-12
1.5440645e-09
2.293579e-12
1.5442128e-09
-2.2290862e-12
1.5440683e-09
2.1727249e-12
1.5442094e-09
-2.123364e-12
1.5440706e-09
2.0861783e-12
1.5442059e-09
-2.0492475e-12
1.5440759e-09
1.9860983e-12
1.5442437e-09
-2.2798005e-12
1.8611809e-12
1.6198897e-09
1.714164e-08
1.7179378e-09
-6.4076818e-10
1.6812878e-09
3.8276561e-10
1.6817463e-09
-4.8649529e-12
1.6812083e-09
2.07333e-12
1.6816423e-09
1.1480663e-11
1.6823941e-09
-1.4189653e-11
1.6818282e-09
1.3392191e-11
1.6825823e-09
-1.3704897e-11
1.6818802e-09
1.2943479e-11
1.6825458e-09
-1.2198838e-11
1.6819116e-09
1.1543106e-11
1.6825046e-09
-1.0838482e-11
1.6819439e-09
1.0221878e-11
1.6824707e-09
-9.6178194e-12
1.6819742e-09
9.0607339e-12
1.6824419e-09
-8.5353857e-12
1.6820014e-09
8.0408437e-12
1.6824169e-09
-7.5801784e-12
1.6820255e-09
7.1441582e-12
1.6823949e-09
-6.7394111e-12
1.6820467e-09
6.3562373e-12
1.6823755e-09
-6.0008465e-12
1.6820652e-09
5.6649077e-12
1.6823586e-09
-5.353424e-12
1.6820815e-09
5.0596246e-12
1.6823438e-09
-4.7873467e-12
1.6820956e-09
4.5311808e-12
1.6823309e-09
-4.2940103e-12
1.6821078e-09
4.0715344e-12
1.6823197e-09
-3.8658976e-12
1.6821184e-09
3.673682e-12
1.68231e-09
-3.4964731e-12
1.6821275e-09
3.3315514e-12
1.6823018e-09
-3.1800869e-12
1.6821352e-09
3.0399104e-12
1.6822948e-09
-2.911888e-12
1.6821417e-09
2.7942831e-12
1.6822889e-09
-2.6877443e-12
1.682147e-09
2.5908714e-12
1.6822842e-09
-2.504169e-12
1.6821513e-09
2.4264547e-12
1.6822804e-09
-2.3582082e-12
1.6821547e-09
2.2985048e-12
1.6822774e-09
-2.2461346e-12
1.6821566e-09
2.2070381e-12
1.6822741e-09
-2.1667909e-12
1.6821613e-09
2.0989231e-12
1.6823104e-09
-2.4289297e-12
1.9562891e-12
1.7389029e-09
1.7860487e-08
1.8443147e-09
-7.4617993e-10
1.8142172e-09
4.1286312e-10
1.8147155e-09
-5.3632907e-12
1.8143996e-09
2.3892174e-12
1.8151469e-09
1.0733367e-11
1.815787e-09
-1.4829749e-11
1.8153585e-09
1.3820721e-11
1.816003e-09
-1.4349445e-11
1.8154061e-09
1.3540386e-11
1.8159728e-09
-1.2765506e-11
1.8154315e-09
1.2084408e-11
1.8159367e-09
-1.1343711e-11
1.8154585e-09
1.0700067e-11
1.8159076e-09
-1.0066915e-11
1.8154843e-09
9.4840739e-12
1.8158831e-09
-8.9341533e-12
1.8155075e-09
8.4163694e-12
1.8158617e-09
-7.9343577e-12
1.8155281e-09
7.4777646e-12
1.815843e-09
-7.0543042e-12
1.8155462e-09
6.6530483e-12
1.8158266e-09
-6.2812266e-12
1.815562e-09
5.9294485e-12
1.8158122e-09
-5.6035553e-12
1.8155759e-09
5.2959177e-12
1.8157996e-09
-5.0110346e-12
1.8155879e-09
4.7428143e-12
1.8157886e-09
-4.4946559e-12
1.8155984e-09
4.2617191e-12
1.815779e-09
-4.0465484e-12
1.8156074e-09
3.8453001e-12
1.8157708e-09
-3.6598697e-12
1.8156152e-09
3.4872011e-12
1.8157638e-09
-3.3287045e-12
1.8156217e-09
3.1819441e-12
1.8157578e-09
-3.047973e-12
1.8156273e-09
2.9248422e-12
1.8157529e-09
-2.8133463e-12
1.8156318e-09
2.7119149e-12
1.8157488e-09
-2.6211677e-12
1.8156355e-09
2.5397781e-12
1.8157456e-09
-2.468331e-12
1.8156384e-09
2.4057631e-12
1.815743e-09
-2.3508029e-12
1.8156399e-09
2.3101338e-12
1.8157399e-09
-2.2667725e-12
1.815644e-09
2.1948199e-12
1.8157742e-09
-2.559063e-12
2.0338495e-12
1.8663619e-09
1.8451875e-08
1.9674094e-09
-8.472274e-10
1.9424432e-09
4.3782929e-10
1.9430768e-09
-5.9969285e-12
1.9430409e-09
2.4251737e-12
1.9440578e-09
9.7164825e-12
1.944583e-09
-1.5354951e-11
1.944287e-09
1.4116718e-11
1.9448227e-09
-1.4885185e-11
1.944329e-09
1.4034129e-11
1.944798e-09
-1.3234531e-11
1.9443482e-09
1.2534167e-11
1.944767e-09
-1.1762455e-11
1.9443701e-09
1.1096959e-11
1.9447425e-09
-1.0439379e-11
1.9443913e-09
9.8352873e-12
1.9447221e-09
-9.2649512e-12
1.9444106e-09
8.7278737e-12
1.9447045e-09
-8.2281871e-12
1.9444277e-09
7.7544904e-12
1.944689e-09
-7.3155483e-12
1.9444428e-09
6.899257e-12
1.9446754e-09
-6.513843e-12
1.9444559e-09
6.1488968e-12
1.9446635e-09
-5.8110818e-12
1.9444674e-09
5.4919424e-12
1.944653e-09
-5.1966285e-12
1.9444774e-09
4.9183915e-12
1.9446439e-09
-4.6611387e-12
1.9444861e-09
4.4195112e-12
1.944636e-09
-4.1964485e-12
1.9444936e-09
3.9876974e-12
1.9446292e-09
-3.7954605e-12
1.9445001e-09
3.616358e-12
1.9446234e-09
-3.452039e-12
1.9445055e-09
3.2998113e-12
1.9446185e-09
-3.1609141e-12
1.9445101e-09
3.0331946e-12
1.9446144e-09
-2.9175929e-12
1.9445139e-09
2.8123752e-12
1.944611e-09
-2.7182759e-12
1.944517e-09
2.6338304e-12
1.9446084e-09
-2.5597285e-12
1.9445194e-09
2.4947688e-12
1.9446062e-09
-2.4376363e-12
1.9445206e-09
2.395721e-12
1.9446033e-09
-2.3494808e-12
1.9445241e-09
2.2740871e-12
1.944635e-09
-2.6700267e-12
2.0944957e-12
1.9803935e-09
1.8929231e-08
2.083042e-09
-9.4987584e-10
2.0660003e-09
4.5487094e-10
2.0668786e-09
-6.8751752e-12
2.0671403e-09
2.1634656e-12
2.0683791e-09
8.4776055e-12
2.0687824e-09
-1.575824e-11
2.0686136e-09
1.4285553e-11
2.0690414e-09
-1.531302e-11
2.0686485e-09
1.442704e-11
2.0690216e-09
-1.3607556e-11
2.0686616e-09
1.2894075e-11
2.0689954e-09
-1.2096254e-11
2.0686784e-09
1.1414025e-11
2.0689756e-09
-1.0736591e-11
2.0686952e-09
1.011568e-11
2.0689593e-09
-9.5290034e-12
2.0687106e-09
8.9765169e-12
2.0689452e-09
-8.4627542e-12
2.0687243e-09
7.9753665e-12
2.0689329e-09
-7.524111e-12
2.0687363e-09
7.0957804e-12
2.0689221e-09
-6.6995571e-12
2.0687469e-09
6.324069e-12
2.0689126e-09
-5.9767714e-12
2.0687561e-09
5.6484272e-12
2.0689043e-09
-5.3448144e-12
2.0687641e-09
5.0585635e-12
2.068897e-09
-4.7940735e-12
2.068771e-09
4.545495e-12
2.0688908e-09
-4.3161504e-12
2.068777e-09
4.1014001e-12
2.0688853e-09
-3.9037444e-12
2.0687822e-09
3.7194985e-12
2.0688807e-09
-3.5505434e-12
2.0687866e-09
3.3939456e-12
2.0688768e-09
-3.2511255e-12
2.0687902e-09
3.1197383e-12
2.0688735e-09
-3.0008661e-12
2.0687933e-09
2.8926211e-12
2.0688708e-09
-2.79585e-12
2.0687957e-09
2.7089578e-12
2.0688687e-09
-2.6327369e-12
2.0687976e-09
2.5658515e-12
2.068867e-09
-2.5069606e-12
2.0687986e-09
2.464113e-12
2.0688643e-09
-2.4152603e-12
2.0688014e-09
2.3370681e-12
2.0688931e-09
-2.7617736e-12
2.138929e-12
2.09929e-09
1.9287691e-08
2.1961524e-09
-1.0467382e-09
2.1849676e-09
4.6605576e-10
2.1861269e-09
-8.034429e-12
2.186681e-09
1.6093742e-12
2.1881103e-09
7.0482848e-12
2.1883846e-09
-1.6032613e-11
2.1883379e-09
1.4332276e-11
2.1886593e-09
-1.5634349e-11
2.1883646e-09
1.4721667e-11
2.1886436e-09
-1.3886562e-11
2.1883716e-09
1.3166094e-11
2.1886223e-09
-1.2346921e-11
2.1883833e-09
1.165299e-11
2.1886069e-09
-1.0960166e-11
2.1883958e-09
1.0326781e-11
2.1885945e-09
-9.7277453e-12
2.1884074e-09
9.1636578e-12
2.188584e-09
-8.6393343e-12
2.1884177e-09
8.1416003e-12
2.1885748e-09
-7.6811259e-12
2.1884268e-09
7.243692e-12
2.1885667e-09
-6.839378e-12
2.1884348e-09
6.4559209e-12
2.1885596e-09
-6.1015237e-12
2.1884418e-09
5.7662244e-12
2.1885533e-09
-5.456396e-12
2.1884478e-09
5.1640928e-12
2.1885479e-09
-4.8941802e-12
2.1884531e-09
4.6403543e-12
2.1885432e-09
-4.4063016e-12
2.1884576e-09
4.187024e-12
2.1885392e-09
-3.985306e-12
2.1884615e-09
3.7971799e-12
2.1885357e-09
-3.6247486e-12
2.1884648e-09
3.4648548e-12
2.1885327e-09
-3.3190925e-12
2.1884675e-09
3.1849392e-12
2.1885303e-09
-3.0636131e-12
2.1884698e-09
2.9530841e-12
2.1885283e-09
-2.8543061e-12
2.1884717e-09
2.7655641e-12
2.1885267e-09
-2.6877488e-12
2.1884731e-09
2.6193953e-12
2.1885253e-09
-2.5591543e-12
2.1884738e-09
2.5156749e-12
2.188523e-09
-2.4645043e-12
2.1884759e-09
2.3841477e-12
2.1885485e-09
-2.8343719e-12
2.1678994e-12
2.2094504e-09
1.9535991e-08
2.3023235e-09
-1.1396113e-09
2.299398e-09
4.6898127e-10
2.3008665e-09
-9.5029833e-12
2.301657e-09
8.1888635e-13
2.3032532e-09
5.4521199e-12
2.3033902e-09
-1.6169569e-11
2.30346e-09
1.4262379e-11
2.3036764e-09
-1.5850692e-11
2.3034772e-09
1.4920892e-11
2.3036644e-09
-1.4073767e-11
2.303478e-09
1.3352456e-11
2.3036476e-09
-1.2516502e-11
2.3034848e-09
1.1815808e-11
2.3036365e-09
-1.1111931e-11
2.303493e-09
1.0470322e-11
2.3036281e-09
-9.8628002e-12
2.3035009e-09
9.2908323e-12
2.3036209e-09
-8.7593693e-12
2.303508e-09
8.2545558e-12
2.3036147e-09
-7.7878748e-12
2.3035142e-09
7.3442044e-12
2.3036093e-09
-6.9344463e-12
2.3035197e-09
6.5455321e-12
2.3036045e-09
-6.1863555e-12
2.3035244e-09
5.8462972e-12
2.3036003e-09
-5.5322816e-12
2.3035285e-09
5.2358404e-12
2.3035966e-09
-4.9622726e-12
2.3035321e-09
4.7048617e-12
2.3035935e-09
-4.4676335e-12
2.3035352e-09
4.2452651e-12
2.3035907e-09
-4.0408058e-12
2.3035379e-09
3.8500321e-12
2.3035884e-09
-3.6752543e-12
2.3035401e-09
3.5131124e-12
2.3035864e-09
-3.3653632e-12
2.303542e-09
3.2293233e-12
2.3035847e-09
-3.1063389e-12
2.3035436e-09
2.994251e-12
2.3035834e-09
-2.8941144e-12
2.3035448e-09
2.8041053e-12
2.3035823e-09
-2.7252069e-12
2.3035459e-09
2.6558331e-12
2.3035813e-09
-2.5946426e-12
2.3035462e-09
2.5508183e-12
2.3035793e-09
-2.4976499e-12
2.3035477e-09
2.4157482e-12
2.3036014e-09
-2.8879931e-12
2.1821898e-12
2.3210993e-09
1.9672641e-08
2.4065915e-09
-1.2251035e-09
2.4094282e-09
4.6614457e-10
2.4111455e-09
-1.1220331e-11
2.4120546e-09
-9.0187284e-14
2.4138083e-09
3.6983795e-12
2.4137988e-09
-1.6159999e-11
2.4139796e-09
1.4081526e-11
2.4140928e-09
-1.5963887e-11
2.4139859e-09
1.5027773e-11
2.4140838e-09
-1.417167e-11
2.4139807e-09
1.3455595e-11
2.4140715e-09
-1.2607266e-11
2.4139827e-09
1.1904627e-11
2.4140646e-09
-1.1193904e-11
2.4139867e-09
1.054821e-11
2.4140599e-09
-9.9359589e-12
2.413991e-09
9.3597326e-12
2.4140561e-09
-8.8244492e-12
2.4139949e-09
8.3157358e-12
2.4140528e-09
-7.8457709e-12
2.4139983e-09
7.3986535e-12
2.4140499e-09
-6.9860195e-12
2.4140014e-09
6.594092e-12
2.4140474e-09
-6.2323877e-12
2.414004e-09
5.8897065e-12
2.4140452e-09
-5.5734726e-12
2.4140063e-09
5.2747553e-12
2.4140432e-09
-4.9992477e-12
2.4140082e-09
4.7398686e-12
2.4140415e-09
-4.5009527e-12
2.4140099e-09
4.2768901e-12
2.4140401e-09
-4.0709723e-12
2.4140114e-09
3.8787494e-12
2.4140388e-09
-3.7027217e-12
2.4140126e-09
3.5393506e-12
2.4140378e-09
-3.390542e-12
2.4140136e-09
3.2534707e-12
2.4140369e-09
-3.1296004e-12
2.4140145e-09
3.0166587e-12
2.4140362e-09
-2.9157928e-12
2.4140152e-09
2.8250836e-12
2.4140356e-09
-2.7455989e-12
2.4140158e-09
2.6756414e-12
2.414035e-09
-2.6138929e-12
2.4140158e-09
2.5699969e-12
2.4140334e-09
-2.5151723e-12
2.4140168e-09
2.4323255e-12
2.4140517e-09
-2.9229031e-12
2.1826031e-12
2.4278877e-09
1.9702504e-08
2.504286e-09
-1.3015017e-09
2.514963e-09
4.5546756e-10
2.5170212e-09
-1.3278532e-11
2.5178794e-09
-9.4832056e-13
2.5197789e-09
1.7988502e-12
2.5196113e-09
-1.5992413e-11
2.5198967e-09
1.3796116e-11
2.5199087e-09
-1.5975838e-11
2.5198909e-09
1.5045595e-11
2.5199022e-09
-1.4182978e-11
2.5198796e-09
1.3478145e-11
2.519894e-09
-1.262167e-11
2.5198769e-09
1.1921774e-11
2.5198912e-09
-1.1208269e-11
2.5198769e-09
1.0562508e-11
2.5198901e-09
-9.949159e-12
2.5198777e-09
9.3721894e-12
2.5198895e-09
-8.8362945e-12
2.5198785e-09
8.3267656e-12
2.5198891e-09
-7.856343e-12
2.5198792e-09
7.4084842e-12
2.5198887e-09
-6.9954581e-12
2.5198799e-09
6.6028869e-12
2.5198883e-09
-6.240833e-12
2.5198804e-09
5.8976001e-12
2.519888e-09
-5.5810524e-12
2.5198809e-09
5.2818641e-12
2.5198877e-09
-5.0060763e-12
2.5198813e-09
4.746296e-12
2.5198875e-09
-4.5071321e-12
2.5198816e-09
4.282729e-12
2.5198873e-09
-4.0765937e-12
2.5198819e-09
3.8840831e-12
2.5198871e-09
-3.7078667e-12
2.5198822e-09
3.5442536e-12
2.5198869e-09
-3.3952832e-12
2.5198824e-09
3.2580092e-12
2.5198868e-09
-3.1340005e-12
2.5198825e-09
3.0208882e-12
2.5198867e-09
-2.9199023e-12
2.5198827e-09
2.8290425e-12
2.5198866e-09
-2.7494526e-12
2.5198829e-09
2.6793358e-12
2.5198864e-09
-2.6174103e-12
2.5198827e-09
2.5737015e-12
2.5198851e-09
-2.5175804e-12
2.519883e-09
2.4343659e-12
2.5198996e-09
-2.9394517e-12
2.1699506e-12
2.5326105e-09
1.9627643e-08
2.6004624e-09
-1.3693536e-09
2.6161309e-09
4.3979899e-10
2.6184314e-09
-1.5579044e-11
2.6191314e-09
-1.6483322e-12
2.6211625e-09
-2.3217806e-13
2.6208274e-09
-1.5657307e-11
2.6212104e-09
1.3413061e-11
2.6211235e-09
-1.5888908e-11
2.6211915e-09
1.4977613e-11
2.6211192e-09
-1.411073e-11
2.6211745e-09
1.3422832e-11
2.6211152e-09
-1.2562376e-11
2.6211673e-09
1.1869709e-11
2.6211164e-09
-1.1157365e-11
2.6211635e-09
1.0515411e-11
2.6211188e-09
-9.9044702e-12
2.6211609e-09
9.330153e-12
2.6211213e-09
-8.7967409e-12
2.6211587e-09
8.2893779e-12
2.6211236e-09
-7.8212221e-12
2.6211568e-09
7.375237e-12
2.6211256e-09
-6.9642134e-12
2.6211552e-09
6.5732887e-12
2.6211273e-09
-6.2129852e-12
2.6211537e-09
5.8712017e-12
2.6211288e-09
-5.556177e-12
2.6211524e-09
5.2582615e-12
2.6211302e-09
-4.9837942e-12
2.6211513e-09
4.7251267e-12
2.6211313e-09
-4.4871031e-12
2.6211504e-09
4.2636671e-12
2.6211323e-09
-4.0585113e-12
2.6211495e-09
3.8668348e-12
2.6211331e-09
-3.6914534e-12
2.6211488e-09
3.5285518e-12
2.6211338e-09
-3.3802852e-12
2.6211482e-09
3.2436087e-12
2.6211344e-09
-3.1201827e-12
2.6211477e-09
3.0075596e-12
2.6211349e-09
-2.9070415e-12
2.6211474e-09
2.8165621e-12
2.6211352e-09
-2.7373311e-12
2.6211471e-09
2.6674658e-12
2.6211354e-09
-2.6057325e-12
2.6211467e-09
2.5624559e-12
2.6211345e-09
-2.5054124e-12
2.6211465e-09
2.4223824e-12
2.6211451e-09
-2.9380648e-12
2.1450428e-12
2.635857e-09
1.9449536e-08
2.6906278e-09
-1.4241244e-09
2.712795e-09
4.1763187e-10
2.7152557e-09
-1.8039765e-11
2.715817e-09
-2.209648e-12
2.7179523e-09
-2.3674399e-12
2.7174458e-09
-1.515089e-11
2.7179198e-09
1.2939085e-11
2.7177369e-09
-1.5705964e-11
2.7178874e-09
1.4827044e-11
2.717735e-09
-1.3958257e-11
2.7178653e-09
1.3292466e-11
2.7177352e-09
-1.2432233e-11
2.7178539e-09
1.1751006e-11
2.7177402e-09
-1.1043673e-11
2.7178464e-09
1.0409226e-11
2.717746e-09
-9.804078e-12
2.7178405e-09
9.2356782e-12
2.7177515e-09
-8.707725e-12
2.7178354e-09
8.2053987e-12
2.7177563e-09
-7.7421284e-12
2.717831e-09
7.3005357e-12
2.7177606e-09
-6.8938159e-12
2.7178272e-09
6.5067433e-12
2.7177644e-09
-6.1502086e-12
2.7178238e-09
5.8118019e-12
2.7177677e-09
-5.5000655e-12
2.7178209e-09
5.2051022e-12
2.7177706e-09
-4.9334939e-12
2.7178183e-09
4.6773969e-12
2.717773e-09
-4.4418483e-12
2.7178161e-09
4.2206384e-12
2.7177752e-09
-4.0176129e-12
2.7178142e-09
3.8278503e-12
2.717777e-09
-3.6542879e-12
2.7178125e-09
3.4930157e-12
2.7177785e-09
-3.3462851e-12
2.7178112e-09
3.2109763e-12
2.7177798e-09
-3.0888262e-12
2.71781e-09
2.9773274e-12
2.7177808e-09
-2.8778423e-12
2.7178091e-09
2.7882546e-12
2.7177816e-09
-2.709829e-12
2.7178085e-09
2.6406117e-12
2.7177822e-09
-2.579427e-12
2.7178078e-09
2.5368136e-12
2.7177817e-09
-2.479232e-12
2.7178071e-09
2.3969121e-12
2.7177883e-09
-2.9192361e-12
2.1086815e-12
2.73341e-09
1.9173876e-08
2.7795216e-09
-1.470236e-09
2.8050998e-09
3.9205366e-10
2.8074642e-09
-2.0404166e-11
2.8079485e-09
-2.69396e-12
2.8101433e-09
-4.5621935e-12
2.8094674e-09
-1.4474954e-11
2.8100253e-09
1.2381174e-11
2.8097491e-09
-1.5429751e-11
2.8099788e-09
1.4597329e-11
2.8097495e-09
-1.3728985e-11
2.809952e-09
1.3090013e-11
2.8097539e-09
-1.2234201e-11
2.8099366e-09
1.1568361e-11
2.8097627e-09
-1.0869779e-11
2.8099255e-09
1.0246368e-11
2.8097717e-09
-9.650266e-12
2.8099165e-09
9.0909118e-12
2.80978e-09
-8.5712708e-12
2.8099087e-09
8.0767359e-12
2.8097874e-09
-7.6208595e-12
2.8099019e-09
7.1860768e-12
2.8097939e-09
-6.7858652e-12
2.8098959e-09
6.4047619e-12
2.8097996e-09
-6.0539294e-12
2.8098907e-09
5.7207493e-12
2.8098046e-09
-5.4139925e-12
2.8098861e-09
5.1235929e-12
2.809809e-09
-4.8563177e-12
2.8098822e-09
4.60419e-12
2.8098127e-09
-4.3723952e-12
2.8098787e-09
4.1546194e-12
2.8098159e-09
-3.9548267e-12
2.8098758e-09
3.768014e-12
2.8098187e-09
-3.5972136e-12
2.8098733e-09
3.4384512e-12
2.809821e-09
-3.294054e-12
2.8098712e-09
3.1608518e-12
2.809823e-09