/*--------------------------------*- C++ -*----------------------------------*\
| =========                 |                                                 |
| \\      /  F ield         | OpenFOAM: The Open Source CFD Toolbox           |
|  \\    /   O peration     | Version:  2312                                  |
|   \\  /    A nd           | Website:  www.openfoam.com                      |
|    \\/     M anipulation  |                                                 |
\*---------------------------------------------------------------------------*/
FoamFile
{
    version     2.0;
    format      ascii;
    arch        "LSB;label=32;scalar=64";
    class       volSymmTensorField;
    location    "6";
    object      sigma_0;
}
// * * * * * * * * * * * * * * * * * * * * * * * * * * * * * * * * * * * * * //

dimensions      [0 2 -2 0 0 0 0];

internalField   nonuniform List<symmTensor> 
4000
(
(-1.4160876 -0.61911617 0 -0.23036237 0 0)
(-2.8603487 -0.30960043 0 -0.00083013199 0 0)
(-1.974439 -0.2569402 0 -0.00027441857 0 0)
(-2.1390873 -0.2671529 0 -3.2752645e-05 0 0)
(-2.0106858 -0.25868771 0 4.4533298e-05 0 0)
(-2.1015944 -0.26489461 0 -5.3961465e-05 0 0)
(-2.0163537 -0.25904818 0 4.9641947e-05 0 0)
(-2.0938318 -0.26438172 0 -4.7602274e-05 0 0)
(-2.0215379 -0.25940335 0 4.4839334e-05 0 0)
(-2.089146 -0.26406397 0 -4.2338643e-05 0 0)
(-2.0256244 -0.2596863 0 3.9803414e-05 0 0)
(-2.0852101 -0.2637953 0 -3.7523928e-05 0 0)
(-2.0291938 -0.2599336 0 3.5288881e-05 0 0)
(-2.0817705 -0.2635601 0 -3.3253987e-05 0 0)
(-2.0323673 -0.26015324 0 3.1292259e-05 0 0)
(-2.0787349 -0.26335238 0 -2.9489977e-05 0 0)
(-2.0351882 -0.26034825 0 2.7765533e-05 0 0)
(-2.076047 -0.26316839 0 -2.6174663e-05 0 0)
(-2.0376946 -0.26052135 0 2.465836e-05 0 0)
(-2.0736632 -0.26300518 0 -2.3256964e-05 0 0)
(-2.0399225 -0.26067504 0 2.19247e-05 0 0)
(-2.0715463 -0.26286025 0 -2.0692462e-05 0 0)
(-2.0419045 -0.26081164 0 1.9523572e-05 0 0)
(-2.0696636 -0.26273139 0 -1.8442289e-05 0 0)
(-2.0436703 -0.26093318 0 1.7418789e-05 0 0)
(-2.0679866 -0.26261665 0 -1.6472348e-05 0 0)
(-2.0452461 -0.2610415 0 1.5578521e-05 0 0)
(-2.0664894 -0.26251429 0 -1.4752747e-05 0 0)
(-2.0466557 -0.26113824 0 1.3974872e-05 0 0)
(-2.0651492 -0.26242276 0 -1.3257351e-05 0 0)
(-2.0479203 -0.26122488 0 1.2583485e-05 0 0)
(-2.0639455 -0.26234067 0 -1.1963402e-05 0 0)
(-2.0490589 -0.26130271 0 1.1383201e-05 0 0)
(-2.0628599 -0.26226678 0 -1.0851197e-05 0 0)
(-2.0500888 -0.26137293 0 1.0355765e-05 0 0)
(-2.061876 -0.26219996 0 -9.9038104e-06 0 0)
(-2.0510255 -0.26143659 0 9.4855729e-06 0 0)
(-2.0609785 -0.2621392 0 -9.1068654e-06 0 0)
(-2.0518832 -0.26149467 0 8.7594679e-06 0 0)
(-2.060154 -0.26208357 0 -8.4483591e-06 0 0)
(-2.0526748 -0.26154804 0 8.1666118e-06 0 0)
(-2.0593898 -0.26203224 0 -7.918581e-06 0 0)
(-2.0534124 -0.26159752 0 7.6984388e-06 0 0)
(-2.0586742 -0.26198442 0 -7.5103805e-06 0 0)
(-2.0541067 -0.26164383 0 7.34865e-06 0 0)
(-2.0579953 -0.26193933 0 -7.2192791e-06 0 0)
(-2.0547675 -0.26168757 0 7.1230447e-06 0 0)
(-2.0573566 -0.26189701 0 -7.0069265e-06 0 0)
(-2.0555008 -0.26173489 0 7.1768408e-06 0 0)
(-2.0571575 -0.2618837 0 -6.9840651e-06 0 0)
(-1.2615285 -0.57106615 0 -0.21698935 0 0)
(-2.5230673 -0.29424408 0 -0.0029385568 0 0)
(-1.8938447 -0.25290538 0 -0.00084673133 0 0)
(-1.9752659 -0.25673867 0 -3.4273897e-05 0 0)
(-1.8685725 -0.24927972 0 3.0164386e-05 0 0)
(-1.9443359 -0.25488759 0 -5.9988245e-05 0 0)
(-1.8712698 -0.2494538 0 5.288116e-05 0 0)
(-1.9376608 -0.25442004 0 -5.1917735e-05 0 0)
(-1.8756166 -0.24977597 0 4.914217e-05 0 0)
(-1.9336864 -0.25412954 0 -4.6523644e-05 0 0)
(-1.87912 -0.25003972 0 4.3714293e-05 0 0)
(-1.9303072 -0.2538792 0 -4.126648e-05 0 0)
(-1.8821806 -0.25027056 0 3.8782067e-05 0 0)
(-1.9273459 -0.25365926 0 -3.6563208e-05 0 0)
(-1.8849032 -0.25047571 0 3.4397939e-05 0 0)
(-1.9247321 -0.25346497 0 -3.2421042e-05 0 0)
(-1.887324 -0.2506579 0 3.0523877e-05 0 0)
(-1.922418 -0.25329289 0 -2.8775427e-05 0 0)
(-1.8894754 -0.25081963 0 2.7109161e-05 0 0)
(-1.9203659 -0.25314026 0 -2.5568067e-05 0 0)
(-1.891388 -0.25096325 0 2.4104602e-05 0 0)
(-1.9185435 -0.25300471 0 -2.2749387e-05 0 0)
(-1.8930898 -0.25109088 0 2.146557e-05 0 0)
(-1.9169227 -0.25288419 0 -2.0276439e-05 0 0)
(-1.8946062 -0.25120446 0 1.9152399e-05 0 0)
(-1.9154788 -0.25277687 0 -1.811168e-05 0 0)
(-1.8959598 -0.2513057 0 1.7130134e-05 0 0)
(-1.9141896 -0.25268113 0 -1.6222239e-05 0 0)
(-1.897171 -0.25139613 0 1.5368123e-05 0 0)
(-1.9130354 -0.2525955 0 -1.45794e-05 0 0)
(-1.8982579 -0.25147711 0 1.3839618e-05 0 0)
(-1.9119985 -0.2525187 0 -1.3158183e-05 0 0)
(-1.899237 -0.25154989 0 1.2521403e-05 0 0)
(-1.911063 -0.25244955 0 -1.1936987e-05 0 0)
(-1.9001231 -0.25161556 0 1.1393487e-05 0 0)
(-1.9102146 -0.252387 0 -1.0897306e-05 0 0)
(-1.9009296 -0.25167513 0 1.0438836e-05 0 0)
(-1.9094405 -0.25233011 0 -1.0023495e-05 0 0)
(-1.9016685 -0.25172949 0 9.6431974e-06 0 0)
(-1.9087287 -0.252278 0 -9.3026361e-06 0 0)
(-1.9023513 -0.25177947 0 8.9950363e-06 0 0)
(-1.9080685 -0.2522299 0 -8.7245698e-06 0 0)
(-1.9029881 -0.25182582 0 8.4856512e-06 0 0)
(-1.9074497 -0.25218507 0 -8.2827763e-06 0 0)
(-1.9035885 -0.25186924 0 8.1089679e-06 0 0)
(-1.9068617 -0.25214278 0 -7.976188e-06 0 0)
(-1.9041596 -0.25191017 0 7.8829084e-06 0 0)
(-1.906299 -0.25210228 0 -7.7186429e-06 0 0)
(-1.9047652 -0.25195115 0 8.2531437e-06 0 0)
(-1.9060413 -0.25208358 0 -7.5845947e-06 0 0)
(-1.180417 -0.53918989 0 -0.20264572 0 0)
(-2.2882213 -0.27922018 0 -0.003386392 0 0)
(-1.8118699 -0.2484242 0 -0.0012682227 0 0)
(-1.8732483 -0.25010651 0 -5.8720286e-05 0 0)
(-1.7758392 -0.24294193 0 1.4096432e-05 0 0)
(-1.8429129 -0.24820745 0 -5.9514683e-05 0 0)
(-1.7770924 -0.24303055 0 5.0184707e-05 0 0)
(-1.8366724 -0.24775712 0 -5.009344e-05 0 0)
(-1.7809221 -0.24333352 0 4.7653461e-05 0 0)
(-1.8331091 -0.24748338 0 -4.5157391e-05 0 0)
(-1.7840725 -0.24358532 0 4.2410129e-05 0 0)
(-1.8300766 -0.24724535 0 -4.0081776e-05 0 0)
(-1.7868237 -0.24380551 0 3.7639107e-05 0 0)
(-1.8274148 -0.24703574 0 -3.5505843e-05 0 0)
(-1.7892708 -0.24400118 0 3.3390335e-05 0 0)
(-1.8250653 -0.24685055 0 -3.1479465e-05 0 0)
(-1.7914471 -0.24417499 0 2.9631725e-05 0 0)
(-1.8229854 -0.24668652 0 -2.7938192e-05 0 0)
(-1.7933814 -0.24432928 0 2.6317341e-05 0 0)
(-1.8211411 -0.24654103 0 -2.4823485e-05 0 0)
(-1.7951012 -0.2444663 0 2.340064e-05 0 0)
(-1.8195034 -0.24641182 0 -2.2086529e-05 0 0)
(-1.7966317 -0.24458808 0 2.0838673e-05 0 0)
(-1.8180469 -0.24629693 0 -1.9685413e-05 0 0)
(-1.7979955 -0.24469646 0 1.8593043e-05 0 0)
(-1.8167494 -0.24619461 0 -1.7583613e-05 0 0)
(-1.7992131 -0.24479307 0 1.6629848e-05 0 0)
(-1.8155909 -0.24610332 0 -1.5749193e-05 0 0)
(-1.8003026 -0.24487938 0 1.4919351e-05 0 0)
(-1.8145536 -0.24602166 0 -1.4154274e-05 0 0)
(-1.8012805 -0.24495669 0 1.3435604e-05 0 0)
(-1.8136216 -0.2459484 0 -1.2774619e-05 0 0)
(-1.8021616 -0.24502618 0 1.2156108e-05 0 0)
(-1.8127806 -0.24588242 0 -1.15893e-05 0 0)
(-1.802959 -0.2450889 0 1.1061518e-05 0 0)
(-1.8120179 -0.24582272 0 -1.0580427e-05 0 0)
(-1.8036849 -0.2451458 0 1.0135408e-05 0 0)
(-1.8113216 -0.2457684 0 -9.7329526e-06 0 0)
(-1.8043503 -0.24519776 0 9.364131e-06 0 0)
(-1.8106813 -0.24571862 0 -9.0345895e-06 0 0)
(-1.8049652 -0.24524555 0 8.7368487e-06 0 0)
(-1.810087 -0.24567264 0 -8.4759626e-06 0 0)
(-1.8055389 -0.2452899 0 8.2458284e-06 0 0)
(-1.8095298 -0.24562977 0 -8.0519809e-06 0 0)
(-1.8060801 -0.24533147 0 7.8861749e-06 0 0)
(-1.8089999 -0.2455893 0 -7.7658372e-06 0 0)
(-1.8065952 -0.24537066 0 7.6822174e-06 0 0)
(-1.80849 -0.24555024 0 -7.5141061e-06 0 0)
(-1.8071335 -0.24540852 0 8.2588413e-06 0 0)
(-1.8082166 -0.24553063 0 -7.7727956e-06 0 0)
(-1.1347404 -0.51400679 0 -0.18821888 0 0)
(-2.1018992 -0.26799321 0 -0.0040628309 0 0)
(-1.7277172 -0.24381828 0 -0.0017343432 0 0)
(-1.7745273 -0.24350889 0 -8.5866765e-05 0 0)
(-1.6850992 -0.23661975 0 -1.094986e-05 0 0)
(-1.7448468 -0.24153721 0 -5.3970107e-05 0 0)
(-1.6849975 -0.23660932 0 4.2648503e-05 0 0)
(-1.7388599 -0.24109807 0 -4.3630941e-05 0 0)
(-1.6883329 -0.23689122 0 4.1909952e-05 0 0)
(-1.7356174 -0.24084008 0 -3.9740102e-05 0 0)
(-1.6911798 -0.23713101 0 3.7312658e-05 0 0)
(-1.7328698 -0.24061402 0 -3.5317447e-05 0 0)
(-1.6936703 -0.23734058 0 3.313194e-05 0 0)
(-1.7304548 -0.24041446 0 -3.1275998e-05 0 0)
(-1.6958851 -0.2375268 0 2.9399814e-05 0 0)
(-1.7283228 -0.24023811 0 -2.7724102e-05 0 0)
(-1.697855 -0.23769221 0 2.6092787e-05 0 0)
(-1.7264358 -0.24008191 0 -2.4603366e-05 0 0)
(-1.699606 -0.23783907 0 2.3174738e-05 0 0)
(-1.7247628 -0.23994336 0 -2.1859674e-05 0 0)
(-1.701163 -0.23796949 0 2.0606294e-05 0 0)
(-1.7232774 -0.23982031 0 -1.9449119e-05 0 0)
(-1.7025486 -0.23808542 0 1.8350119e-05 0 0)
(-1.7219565 -0.23971088 0 -1.7334501e-05 0 0)
(-1.7037834 -0.23818859 0 1.6372527e-05 0 0)
(-1.7207799 -0.23961343 0 -1.548356e-05 0 0)
(-1.7048858 -0.23828058 0 1.4643688e-05 0 0)
(-1.7197295 -0.23952646 0 -1.3868137e-05 0 0)
(-1.7058723 -0.23836277 0 1.3137418e-05 0 0)
(-1.718789 -0.23944866 0 -1.2463672e-05 0 0)
(-1.7067578 -0.23843641 0 1.1830877e-05 0 0)
(-1.7179441 -0.23937884 0 -1.1248832e-05 0 0)
(-1.7075556 -0.23850262 0 1.0704273e-05 0 0)
(-1.7171819 -0.23931594 0 -1.020522e-05 0 0)
(-1.7082777 -0.23856241 0 9.7406159e-06 0 0)
(-1.7164905 -0.23925901 0 -9.3171392e-06 0 0)
(-1.708935 -0.23861667 0 8.925521e-06 0 0)
(-1.7158596 -0.23920718 0 -8.5714467e-06 0 0)
(-1.7095375 -0.23866624 0 8.2471149e-06 0 0)
(-1.7152793 -0.23915966 0 -7.9575157e-06 0 0)
(-1.7100943 -0.23871186 0 7.6961245e-06 0 0)
(-1.7147409 -0.23911574 0 -7.4674523e-06 0 0)
(-1.7106138 -0.23875423 0 7.266264e-06 0 0)
(-1.7142361 -0.23907476 0 -7.0977875e-06 0 0)
(-1.711104 -0.23879398 0 6.9535448e-06 0 0)
(-1.7137561 -0.23903605 0 -6.8550756e-06 0 0)
(-1.7115703 -0.23883148 0 6.7867192e-06 0 0)
(-1.7132917 -0.23899838 0 -6.608708e-06 0 0)
(-1.7120495 -0.23886641 0 7.5755168e-06 0 0)
(-1.7130033 -0.23897755 0 -7.1661213e-06 0 0)
(-1.0856494 -0.48439255 0 -0.17108463 0 0)
(-1.9175512 -0.25630164 0 -0.0044702443 0 0)
(-1.6365811 -0.23845082 0 -0.0021186415 0 0)
(-1.6779202 -0.23692717 0 -0.00012695892 0 0)
(-1.5960575 -0.23027574 0 -3.7673168e-05 0 0)
(-1.6497684 -0.23488004 0 -4.8882681e-05 0 0)
(-1.5950936 -0.23017937 0 3.5326741e-05 0 0)
(-1.643989 -0.23444766 0 -3.7188215e-05 0 0)
(-1.5979773 -0.230441 0 3.6248069e-05 0 0)
(-1.6410058 -0.23420345 0 -3.4332844e-05 0 0)
(-1.6005552 -0.23066965 0 3.2246468e-05 0 0)
(-1.6385039 -0.23398851 0 -3.0567814e-05 0 0)
(-1.6028201 -0.23086945 0 2.8644542e-05 0 0)
(-1.6363041 -0.23379835 0 -2.7060967e-05 0 0)
(-1.6048341 -0.23104692 0 2.5425515e-05 0 0)
(-1.6343616 -0.23363024 0 -2.3982359e-05 0 0)
(-1.6066254 -0.23120457 0 2.256791e-05 0 0)
(-1.6326426 -0.23348134 0 -2.1280795e-05 0 0)
(-1.6082178 -0.23134454 0 2.0044469e-05 0 0)
(-1.6311188 -0.23334927 0 -1.8906812e-05 0 0)
(-1.6096338 -0.23146885 0 1.7822797e-05 0 0)
(-1.6297661 -0.23323197 0 -1.6821452e-05 0 0)
(-1.610894 -0.23157935 0 1.5871109e-05 0 0)
(-1.6285634 -0.23312766 0 -1.4992228e-05 0 0)
(-1.6120171 -0.2316777 0 1.416039e-05 0 0)
(-1.6274922 -0.23303476 0 -1.3391133e-05 0 0)
(-1.6130197 -0.2317654 0 1.2664859e-05 0 0)
(-1.626536 -0.23295184 0 -1.1993774e-05 0 0)
(-1.613917 -0.23184377 0 1.1361864e-05 0 0)
(-1.62568 -0.23287765 0 -1.0778895e-05 0 0)
(-1.6147223 -0.231914 0 1.0231647e-05 0 0)
(-1.6249112 -0.23281106 0 -9.7280476e-06 0 0)
(-1.6154477 -0.23197715 0 9.2571007e-06 0 0)
(-1.6242177 -0.23275105 0 -8.8253365e-06 0 0)
(-1.6161043 -0.23203418 0 8.4235515e-06 0 0)
(-1.6235888 -0.23269673 0 -8.0572227e-06 0 0)
(-1.616702 -0.23208597 0 7.7186056e-06 0 0)
(-1.623015 -0.23264725 0 -7.4124024e-06 0 0)
(-1.6172496 -0.2321333 0 7.1320789e-06 0 0)
(-1.6224874 -0.23260188 0 -6.881801e-06 0 0)
(-1.6177556 -0.23217687 0 6.6561153e-06 0 0)
(-1.621998 -0.23255992 0 -6.4588008e-06 0 0)
(-1.6182276 -0.23221737 0 6.2855856e-06 0 0)
(-1.6215393 -0.23252073 0 -6.1410665e-06 0 0)
(-1.6186729 -0.23225539 0 6.0168005e-06 0 0)
(-1.6211033 -0.23248371 0 -5.9373546e-06 0 0)
(-1.6190963 -0.23229128 0 5.8791398e-06 0 0)
(-1.6206802 -0.23244746 0 -5.6927826e-06 0 0)
(-1.6195251 -0.23232376 0 6.8178787e-06 0 0)
(-1.6203858 -0.23242579 0 -6.4899339e-06 0 0)
(-1.053136 -0.46384369 0 -0.15942976 0 0)
(-1.7459673 -0.24522958 0 -0.0048614692 0 0)
(-1.5437616 -0.23260986 0 -0.0024195145 0 0)
(-1.5828371 -0.23032157 0 -0.0001851774 0 0)
(-1.5087818 -0.22391314 0 -6.6502801e-05 0 0)
(-1.557449 -0.22822993 0 -4.5661916e-05 0 0)
(-1.5074826 -0.22374402 0 2.9059874e-05 0 0)
(-1.5519399 -0.22780343 0 -3.1716539e-05 0 0)
(-1.5099704 -0.22398602 0 3.1535599e-05 0 0)
(-1.5491803 -0.2275716 0 -2.9762797e-05 0 0)
(-1.5123021 -0.22420397 0 2.7990333e-05 0 0)
(-1.5468964 -0.22736714 0 -2.6566736e-05 0 0)
(-1.5143643 -0.2243945 0 2.4867478e-05 0 0)
(-1.5448893 -0.22718589 0 -2.3511618e-05 0 0)
(-1.5161984 -0.22456368 0 2.207984e-05 0 0)
(-1.5431169 -0.22702561 0 -2.0831534e-05 0 0)
(-1.5178298 -0.22471395 0 1.960061e-05 0 0)
(-1.5415486 -0.22688365 0 -1.8482932e-05 0 0)
(-1.5192801 -0.22484737 0 1.7409364e-05 0 0)
(-1.5401586 -0.22675773 0 -1.6420301e-05 0 0)
(-1.5205698 -0.22496587 0 1.5479595e-05 0 0)
(-1.5389248 -0.2266459 0 -1.4608809e-05 0 0)
(-1.5217176 -0.22507121 0 1.3784201e-05 0 0)
(-1.5378281 -0.22654644 0 -1.3019918e-05 0 0)
(-1.5227405 -0.22516498 0 1.2298106e-05 0 0)
(-1.5368514 -0.22645786 0 -1.1629202e-05 0 0)
(-1.5236538 -0.22524859 0 1.0998933e-05 0 0)
(-1.5359796 -0.22637879 0 -1.0415438e-05 0 0)
(-1.524471 -0.22532331 0 9.8670018e-06 0 0)
(-1.5351994 -0.22630803 0 -9.3601514e-06 0 0)
(-1.5252044 -0.22539029 0 8.885147e-06 0 0)
(-1.5344987 -0.22624452 0 -8.4473212e-06 0 0)
(-1.5258652 -0.22545052 0 8.0385103e-06 0 0)
(-1.5338667 -0.22618728 0 -7.6631515e-06 0 0)
(-1.5264631 -0.22550494 0 7.3143597e-06 0 0)
(-1.5332938 -0.22613544 0 -6.995905e-06 0 0)
(-1.5270072 -0.22555436 0 6.7019558e-06 0 0)
(-1.5327711 -0.22608822 0 -6.435802e-06 0 0)
(-1.5275058 -0.22559953 0 6.1925008e-06 0 0)
(-1.5322907 -0.22604489 0 -5.9750264e-06 0 0)
(-1.5279663 -0.22564115 0 5.7792635e-06 0 0)
(-1.5318452 -0.22600481 0 -5.6079393e-06 0 0)
(-1.5283958 -0.22567983 0 5.4579542e-06 0 0)
(-1.5314278 -0.22596737 0 -5.3329332e-06 0 0)
(-1.5288008 -0.22571618 0 5.2248118e-06 0 0)
(-1.5310313 -0.22593198 0 -5.1601921e-06 0 0)
(-1.5291858 -0.22575052 0 5.1079054e-06 0 0)
(-1.5306456 -0.22589714 0 -4.9132722e-06 0 0)
(-1.52957 -0.22578085 0 6.1478893e-06 0 0)
(-1.5303509 -0.2258748 0 -5.879147e-06 0 0)
(-1.0123192 -0.43667777 0 -0.14403012 0 0)
(-1.5844709 -0.23416658 0 -0.0050218733 0 0)
(-1.450852 -0.22624146 0 -0.0025865431 0 0)
(-1.4891225 -0.22369428 0 -0.00026771612 0 0)
(-1.4232198 -0.21753538 0 -0.00010079636 0 0)
(-1.467769 -0.22158563 0 -4.501928e-05 0 0)
(-1.4221889 -0.21730577 0 2.3247877e-05 0 0)
(-1.4626541 -0.22116388 0 -2.7064252e-05 0 0)
(-1.4243548 -0.21752805 0 2.7517155e-05 0 0)
(-1.4600975 -0.220943 0 -2.5823006e-05 0 0)
(-1.4264603 -0.21773541 0 2.4342703e-05 0 0)
(-1.458009 -0.2207485 0 -2.3126984e-05 0 0)
(-1.4283377 -0.21791699 0 2.1623362e-05 0 0)
(-1.4561767 -0.22057583 0 -2.0462227e-05 0 0)
(-1.4300088 -0.21807817 0 1.9205489e-05 0 0)
(-1.4545589 -0.22042311 0 -1.8124681e-05 0 0)
(-1.4314952 -0.21822132 0 1.7051363e-05 0 0)
(-1.4531274 -0.22028784 0 -1.6079305e-05 0 0)
(-1.4328167 -0.21834843 0 1.5145565e-05 0 0)
(-1.4518589 -0.22016785 0 -1.4284171e-05 0 0)
(-1.4339918 -0.21846132 0 1.3466603e-05 0 0)
(-1.4507332 -0.22006129 0 -1.2707975e-05 0 0)
(-1.4350378 -0.21856168 0 1.1991407e-05 0 0)
(-1.4497326 -0.21996652 0 -1.1325564e-05 0 0)
(-1.4359699 -0.21865102 0 1.0698289e-05 0 0)
(-1.4488417 -0.21988211 0 -1.0115585e-05 0 0)
(-1.4368022 -0.21873069 0 9.5678009e-06 0 0)
(-1.4480466 -0.21980675 0 -9.0595365e-06 0 0)
(-1.4375469 -0.2188019 0 8.5828151e-06 0 0)
(-1.447335 -0.21973932 0 -8.1413375e-06 0 0)
(-1.4382152 -0.21886573 0 7.7283923e-06 0 0)
(-1.4466961 -0.21967877 0 -7.347048e-06 0 0)
(-1.4388173 -0.21892315 0 6.9916053e-06 0 0)
(-1.4461199 -0.2196242 0 -6.6646728e-06 0 0)
(-1.4393621 -0.21897503 0 6.3613835e-06 0 0)
(-1.4455976 -0.21957477 0 -6.0840142e-06 0 0)
(-1.4398578 -0.21902217 0 5.8283983e-06 0 0)
(-1.4451213 -0.21952972 0 -5.5965879e-06 0 0)
(-1.4403119 -0.21906526 0 5.3850237e-06 0 0)
(-1.4446836 -0.21948839 0 -5.1956331e-06 0 0)
(-1.4407313 -0.21910497 0 5.025459e-06 0 0)
(-1.4442778 -0.21945013 0 -4.876301e-06 0 0)
(-1.4411224 -0.2191419 0 4.7460674e-06 0 0)
(-1.4438977 -0.21941437 0 -4.6374812e-06 0 0)
(-1.4414911 -0.21917662 0 4.5428914e-06 0 0)
(-1.4435368 -0.21938057 0 -4.4903749e-06 0 0)
(-1.4418414 -0.21920946 0 4.4416931e-06 0 0)
(-1.4431852 -0.21934715 0 -4.2408473e-06 0 0)
(-1.4421862 -0.21923788 0 5.5439276e-06 0 0)
(-1.4428945 -0.21932432 0 -5.3250099e-06 0 0)
(-0.98494143 -0.41693505 0 -0.13279948 0 0)
(-1.4366733 -0.22418578 0 -0.0053440579 0 0)
(-1.3603731 -0.21960143 0 -0.0026593618 0 0)
(-1.3968352 -0.21703409 0 -0.00036927402 0 0)
(-1.3392763 -0.21111736 0 -0.00013527454 0 0)
(-1.3805586 -0.21493344 0 -4.5039899e-05 0 0)
(-1.3391634 -0.21086022 0 1.7958474e-05 0 0)
(-1.3760724 -0.21452698 0 -2.2926983e-05 0 0)
(-1.3411405 -0.21106706 0 2.3941981e-05 0 0)
(-1.3737315 -0.21431718 0 -2.2292579e-05 0 0)
(-1.3430488 -0.21126431 0 2.1086587e-05 0 0)
(-1.3718227 -0.21413226 0 -2.0048739e-05 0 0)
(-1.3447584 -0.21143723 0 1.872258e-05 0 0)
(-1.3701498 -0.2139679 0 -1.7734951e-05 0 0)
(-1.3462811 -0.21159066 0 1.6634646e-05 0 0)
(-1.3686729 -0.21382248 0 -1.5703979e-05 0 0)
(-1.3476355 -0.21172693 0 1.4771307e-05 0 0)
(-1.3673663 -0.21369369 0 -1.3929792e-05 0 0)
(-1.3488397 -0.21184792 0 1.3120874e-05 0 0)
(-1.3662086 -0.21357944 0 -1.2373886e-05 0 0)
(-1.3499107 -0.21195539 0 1.1666268e-05 0 0)
(-1.3651813 -0.21347798 0 -1.1008117e-05 0 0)
(-1.3508639 -0.21205094 0 1.0388036e-05 0 0)
(-1.3642684 -0.21338775 0 -9.81036e-06 0 0)
(-1.3517135 -0.21213599 0 9.2675214e-06 0 0)
(-1.3634556 -0.21330737 0 -8.7620042e-06 0 0)
(-1.352472 -0.21221185 0 8.2878987e-06 0 0)
(-1.3627303 -0.21323561 0 -7.8469884e-06 0 0)
(-1.3531507 -0.21227966 0 7.4343272e-06 0 0)
(-1.3620813 -0.21317138 0 -7.0513679e-06 0 0)
(-1.3537599 -0.21234045 0 6.6938588e-06 0 0)
(-1.3614986 -0.21311372 0 -6.3630649e-06 0 0)
(-1.3543086 -0.21239514 0 6.0552923e-06 0 0)
(-1.3609732 -0.21306173 0 -5.7716913e-06 0 0)
(-1.354805 -0.21244457 0 5.5090394e-06 0 0)
(-1.360497 -0.21301462 0 -5.2684212e-06 0 0)
(-1.3552567 -0.21248948 0 5.0470267e-06 0 0)
(-1.3600628 -0.21297169 0 -4.8459186e-06 0 0)
(-1.3556705 -0.21253055 0 4.6626635e-06 0 0)
(-1.3596639 -0.21293228 0 -4.4983498e-06 0 0)
(-1.3560526 -0.21256842 0 4.3509581e-06 0 0)
(-1.3592942 -0.21289579 0 -4.2215409e-06 0 0)
(-1.3564087 -0.21260365 0 4.1088166e-06 0 0)
(-1.3589479 -0.21286168 0 -4.0147403e-06 0 0)
(-1.3567445 -0.21263679 0 3.932067e-06 0 0)
(-1.3586195 -0.21282942 0 -3.8898783e-06 0 0)
(-1.3570634 -0.21266815 0 3.8436945e-06 0 0)
(-1.3582989 -0.21279741 0 -3.638945e-06 0 0)
(-1.3573729 -0.21269487 0 4.9769965e-06 0 0)
(-1.3580154 -0.21277425 0 -4.8056718e-06 0 0)
(-0.9572939 -0.39593103 0 -0.12110455 0 0)
(-1.3002742 -0.21407649 0 -0.0053780209 0 0)
(-1.2723314 -0.21233483 0 -0.0025398815 0 0)
(-1.3065013 -0.21041392 0 -0.00049877398 0 0)
(-1.2575431 -0.2047147 0 -0.00017222572 0 0)
(-1.2959385 -0.20828381 0 -4.5779279e-05 0 0)
(-1.2584727 -0.20440954 0 1.3202304e-05 0 0)
(-1.2921772 -0.20789236 0 -1.9121063e-05 0 0)
(-1.2603415 -0.2046027 0 2.0742876e-05 0 0)
(-1.2900617 -0.20769389 0 -1.9070311e-05 0 0)
(-1.2620816 -0.20479056 0 1.8141515e-05 0 0)
(-1.2883217 -0.20751836 0 -1.725086e-05 0 0)
(-1.2636399 -0.20495518 0 1.609125e-05 0 0)
(-1.2867953 -0.20736207 0 -1.5259083e-05 0 0)
(-1.2650275 -0.20510116 0 1.4301317e-05 0 0)
(-1.2854475 -0.20722372 0 -1.3506952e-05 0 0)
(-1.2662616 -0.20523078 0 1.2701772e-05 0 0)
(-1.2842551 -0.20710118 0 -1.1978978e-05 0 0)
(-1.2673589 -0.20534587 0 1.1283151e-05 0 0)
(-1.2831987 -0.2069925 0 -1.0640203e-05 0 0)
(-1.2683347 -0.20544809 0 1.0032214e-05 0 0)
(-1.2822615 -0.20689597 0 -9.4654152e-06 0 0)
(-1.2692033 -0.20553898 0 8.9327699e-06 0 0)
(-1.2814287 -0.20681011 0 -8.4352361e-06 0 0)
(-1.2699775 -0.20561989 0 7.9689218e-06 0 0)
(-1.2806872 -0.20673363 0 -7.5335521e-06 0 0)
(-1.2706687 -0.20569206 0 7.1262258e-06 0 0)
(-1.2800257 -0.20666535 0 -6.7465149e-06 0 0)
(-1.2712873 -0.20575658 0 6.3919186e-06 0 0)
(-1.2794338 -0.20660423 0 -6.0621211e-06 0 0)
(-1.2718424 -0.20581443 0 5.7548606e-06 0 0)
(-1.2789025 -0.20654934 0 -5.4699817e-06 0 0)
(-1.2723424 -0.20586648 0 5.2054164e-06 0 0)
(-1.2784235 -0.20649985 0 -4.9611649e-06 0 0)
(-1.2727948 -0.20591353 0 4.7353402e-06 0 0)
(-1.2779894 -0.206455 0 -4.528085e-06 0 0)
(-1.2732064 -0.2059563 0 4.3376924e-06 0 0)
(-1.2775936 -0.20641412 0 -4.1644407e-06 0 0)
(-1.2735833 -0.20599542 0 4.006812e-06 0 0)
(-1.2772301 -0.20637658 0 -3.8652261e-06 0 0)
(-1.2739314 -0.2060315 0 3.738423e-06 0 0)
(-1.2768932 -0.2063418 0 -3.6268555e-06 0 0)
(-1.2742558 -0.20606507 0 3.5298925e-06 0 0)
(-1.2765778 -0.20630928 0 -3.448834e-06 0 0)
(-1.2745614 -0.20609667 0 3.3768506e-06 0 0)
(-1.2762788 -0.20627852 0 -3.3435617e-06 0 0)
(-1.2748518 -0.20612662 0 3.299286e-06 0 0)
(-1.2759867 -0.20624791 0 -3.0927748e-06 0 0)
(-1.2751298 -0.2061518 0 4.4372904e-06 0 0)
(-1.2757126 -0.20622458 0 -4.3154247e-06 0 0)
(-0.93462081 -0.37212636 0 -0.10664416 0 0)
(-1.1788257 -0.20464739 0 -0.0053297963 0 0)
(-1.184509 -0.20514216 0 -0.0025088543 0 0)
(-1.2215109 -0.20361551 0 -0.00051800168 0 0)
(-1.1786576 -0.19824277 0 -0.00018267264 0 0)
(-1.2142365 -0.20163256 0 -4.2556703e-05 0 0)
(-1.1802626 -0.19795559 0 9.4658708e-06 0 0)
(-1.2110084 -0.20126205 0 -1.563183e-05 0 0)
(-1.1819974 -0.19813607 0 1.7826164e-05 0 0)
(-1.2090837 -0.20107359 0 -1.614518e-05 0 0)
(-1.1835773 -0.19831442 0 1.5461105e-05 0 0)
(-1.207495 -0.20090688 0 -1.470426e-05 0 0)
(-1.1849956 -0.19847094 0 1.3696723e-05 0 0)
(-1.2061023 -0.20075832 0 -1.300574e-05 0 0)
(-1.1862593 -0.19860969 0 1.2177705e-05 0 0)
(-1.2048727 -0.20062681 0 -1.1507582e-05 0 0)
(-1.1873832 -0.19873289 0 1.0818234e-05 0 0)
(-1.203785 -0.20051031 0 -1.0203709e-05 0 0)
(-1.1883825 -0.19884227 0 9.6106261e-06 0 0)
(-1.2028215 -0.20040699 0 -9.062539e-06 0 0)
(-1.1892713 -0.19893943 0 8.5450756e-06 0 0)
(-1.2019668 -0.20031522 0 -8.0615461e-06 0 0)
(-1.1900625 -0.19902582 0 7.6083589e-06 0 0)
(-1.2012074 -0.2002336 0 -7.1838585e-06 0 0)
(-1.1907677 -0.19910274 0 6.7870921e-06 0 0)
(-1.2005314 -0.20016088 0 -6.4156352e-06 0 0)
(-1.1913974 -0.19917134 0 6.0690045e-06 0 0)
(-1.1999283 -0.20009596 0 -5.7450439e-06 0 0)
(-1.1919608 -0.19923268 0 5.4432255e-06 0 0)
(-1.1993888 -0.20003784 0 -5.1618486e-06 0 0)
(-1.1924665 -0.19928769 0 4.9002622e-06 0 0)
(-1.1989044 -0.19998564 0 -4.6571963e-06 0 0)
(-1.1929219 -0.19933719 0 4.4319036e-06 0 0)
(-1.1984678 -0.19993857 0 -4.2234787e-06 0 0)
(-1.193334 -0.19938195 0 4.0311233e-06 0 0)
(-1.1980723 -0.1998959 0 -3.854235e-06 0 0)
(-1.1937089 -0.19942263 0 3.6920088e-06 0 0)
(-1.1977117 -0.199857 0 -3.5440992e-06 0 0)
(-1.1940522 -0.19945987 0 3.4097372e-06 0 0)
(-1.1973805 -0.19982126 0 -3.2888077e-06 0 0)
(-1.1943691 -0.19949421 0 3.1806694e-06 0 0)
(-1.1970737 -0.19978815 0 -3.0852915e-06 0 0)
(-1.1946644 -0.19952618 0 3.0025669e-06 0 0)
(-1.1967866 -0.19975718 0 -2.933233e-06 0 0)
(-1.1949427 -0.19955629 0 2.8708974e-06 0 0)
(-1.1965145 -0.19972787 0 -2.8452595e-06 0 0)
(-1.1952069 -0.19958485 0 2.8026163e-06 0 0)
(-1.1962485 -0.19969865 0 -2.5962667e-06 0 0)
(-1.1954567 -0.19960864 0 3.9228449e-06 0 0)
(-1.1959853 -0.19967527 0 -3.854008e-06 0 0)
(-0.9204978 -0.35693355 0 -0.098065306 0 0)
(-1.0736646 -0.19554342 0 -0.0051764278 0 0)
(-1.0981281 -0.19796596 0 -0.0025093647 0 0)
(-1.1420485 -0.19664817 0 -0.00042160747 0 0)
(-1.1025995 -0.19166437 0 -0.00015615223 0 0)
(-1.1353871 -0.19495693 0 -2.9790901e-05 0 0)
(-1.1045018 -0.19148765 0 8.7525222e-06 0 0)
(-1.1325223 -0.19463155 0 -1.1740017e-05 0 0)
(-1.1061052 -0.19166549 0 1.5372841e-05 0 0)
(-1.130776 -0.19445547 0 -1.341996e-05 0 0)
(-1.1075434 -0.19183566 0 1.3036843e-05 0 0)
(-1.1293294 -0.19429761 0 -1.2375364e-05 0 0)
(-1.1088349 -0.1919845 0 1.1515754e-05 0 0)
(-1.1280604 -0.19415659 0 -1.0950151e-05 0 0)
(-1.1099853 -0.19211631 0 1.0241587e-05 0 0)
(-1.1269397 -0.19403168 0 -9.6844742e-06 0 0)
(-1.1110083 -0.19223331 0 9.1007437e-06 0 0)
(-1.1259484 -0.19392103 0 -8.5850859e-06 0 0)
(-1.1119179 -0.19233719 0 8.0855385e-06 0 0)
(-1.1250703 -0.19382288 0 -7.6241104e-06 0 0)
(-1.1127269 -0.19242946 0 7.1890474e-06 0 0)
(-1.1242915 -0.19373571 0 -6.7815767e-06 0 0)
(-1.113447 -0.1925115 0 6.4007205e-06 0 0)
(-1.1235995 -0.19365818 0 -6.0429151e-06 0 0)
(-1.1140889 -0.19258456 0 5.709465e-06 0 0)
(-1.1229836 -0.1935891 0 -5.3963621e-06 0 0)
(-1.1146621 -0.19264973 0 5.104994e-06 0 0)
(-1.1224341 -0.19352742 0 -4.8319256e-06 0 0)
(-1.115175 -0.192708 0 4.5781647e-06 0 0)
(-1.1219426 -0.1934722 0 -4.3409815e-06 0 0)
(-1.1156353 -0.19276026 0 4.1209865e-06 0 0)
(-1.1215015 -0.1934226 0 -3.9160772e-06 0 0)
(-1.1160499 -0.1928073 0 3.7265465e-06 0 0)
(-1.1211039 -0.19337786 0 -3.5508093e-06 0 0)
(-1.116425 -0.19284983 0 3.3889287e-06 0 0)
(-1.1207437 -0.1933373 0 -3.2397395e-06 0 0)
(-1.1167662 -0.19288851 0 3.1031534e-06 0 0)
(-1.1204153 -0.19330031 0 -2.9783495e-06 0 0)
(-1.1170786 -0.19292391 0 2.8651561e-06 0 0)
(-1.1201139 -0.19326633 0 -2.7630449e-06 0 0)
(-1.117367 -0.19295657 0 2.6718673e-06 0 0)
(-1.1198346 -0.19323483 0 -2.5912144e-06 0 0)
(-1.1176357 -0.19298699 0 2.52139e-06 0 0)
(-1.1195733 -0.19320535 0 -2.4626587e-06 0 0)
(-1.1178888 -0.19301565 0 2.4090807e-06 0 0)
(-1.1193259 -0.19317746 0 -2.3900112e-06 0 0)
(-1.1181291 -0.19304287 0 2.3489696e-06 0 0)
(-1.1190839 -0.19314959 0 -2.1445611e-06 0 0)
(-1.1183534 -0.19306538 0 3.4324312e-06 0 0)
(-1.1188328 -0.19312628 0 -3.4210955e-06 0 0)
(-0.90327951 -0.33450726 0 -0.084834375 0 0)
(-0.98870634 -0.18689374 0 -0.0044418186 0 0)
(-1.0132292 -0.19022008 0 -0.0026568772 0 0)
(-1.0624053 -0.18989717 0 -0.00047818285 0 0)
(-1.0285964 -0.18519696 0 -0.00016185877 0 0)
(-1.059022 -0.18831618 0 -2.6424931e-05 0 0)
(-1.0311491 -0.18502754 0 6.0644834e-06 0 0)
(-1.0567001 -0.18800744 0 -8.7160938e-06 0 0)
(-1.0326824 -0.18519348 0 1.2993779e-05 0 0)
(-1.0551338 -0.18784037 0 -1.0966742e-05 0 0)
(-1.0339937 -0.18535475 0 1.0810828e-05 0 0)
(-1.0538179 -0.18769064 0 -1.0248394e-05 0 0)
(-1.035168 -0.18549602 0 9.5208125e-06 0 0)
(-1.0526622 -0.18755683 0 -9.0708764e-06 0 0)
(-1.0362139 -0.18562109 0 8.4710852e-06 0 0)
(-1.0516417 -0.18743828 0 -8.0176911e-06 0 0)
(-1.037144 -0.1857321 0 7.5302358e-06 0 0)
(-1.050739 -0.18733326 0 -7.1052583e-06 0 0)
(-1.0379709 -0.18583066 0 6.6910087e-06 0 0)
(-1.0499396 -0.18724012 0 -6.3090235e-06 0 0)
(-1.0387065 -0.18591822 0 5.9491277e-06 0 0)
(-1.0492305 -0.18715739 0 -5.6113546e-06 0 0)
(-1.0393614 -0.18599607 0 5.2964948e-06 0 0)
(-1.0486006 -0.1870838 0 -4.9997879e-06 0 0)
(-1.0399451 -0.18606539 0 4.7241188e-06 0 0)
(-1.04804 -0.18701824 0 -4.4644603e-06 0 0)
(-1.0404664 -0.18612724 0 4.2235311e-06 0 0)
(-1.04754 -0.18695969 0 -3.9970634e-06 0 0)
(-1.0409328 -0.18618254 0 3.7871708e-06 0 0)
(-1.0470927 -0.18690727 0 -3.5904473e-06 0 0)
(-1.0413514 -0.18623215 0 3.4084216e-06 0 0)
(-1.0466913 -0.18686018 0 -3.238439e-06 0 0)
(-1.0417285 -0.18627681 0 3.0815572e-06 0 0)
(-1.0463295 -0.1868177 0 -2.9357351e-06 0 0)
(-1.0420695 -0.1863172 0 2.8016754e-06 0 0)
(-1.0460018 -0.18677918 0 -2.6778301e-06 0 0)
(-1.0423798 -0.18635393 0 2.5646472e-06 0 0)
(-1.0457032 -0.18674404 0 -2.4609769e-06 0 0)
(-1.0426639 -0.18638756 0 2.3670969e-06 0 0)
(-1.045429 -0.18671175 0 -2.2821869e-06 0 0)
(-1.0429261 -0.18641859 0 2.2064681e-06 0 0)
(-1.0451751 -0.18668182 0 -2.1392588e-06 0 0)
(-1.0431703 -0.18644751 0 2.0811636e-06 0 0)
(-1.0449375 -0.18665379 0 -2.032069e-06 0 0)
(-1.0434003 -0.18647477 0 1.9864887e-06 0 0)
(-1.0447128 -0.18662726 0 -1.9730545e-06 0 0)
(-1.0436188 -0.18650068 0 1.9337621e-06 0 0)
(-1.0444928 -0.18660073 0 -1.7329493e-06 0 0)
(-1.0438199 -0.18652202 0 2.964586e-06 0 0)
(-1.0442546 -0.18657759 0 -3.0157509e-06 0 0)
(-0.89049729 -0.3214137 0 -0.077969189 0 0)
(-0.90931393 -0.17885411 0 -0.0041598263 0 0)
(-0.93753318 -0.18270902 0 -0.0024539515 0 0)
(-0.98651389 -0.18290969 0 -0.00042220809 0 0)
(-0.95727546 -0.17863476 0 -0.00013766301 0 0)
(-0.98529001 -0.18164292 0 -1.5466733e-05 0 0)
(-0.96019481 -0.17855028 0 5.8745578e-06 0 0)
(-0.98349788 -0.18138073 0 -5.2915669e-06 0 0)
(-0.96171265 -0.17871668 0 1.1010073e-05 0 0)
(-0.98213229 -0.18122676 0 -8.6587625e-06 0 0)
(-0.9629276 -0.17887115 0 8.7899729e-06 0 0)
(-0.9809478 -0.18108561 0 -8.2915385e-06 0 0)
(-0.96399964 -0.17900542 0 7.6942956e-06 0 0)
(-0.97989958 -0.18095891 0 -7.3471294e-06 0 0)
(-0.9649508 -0.17912407 0 6.8481759e-06 0 0)
(-0.97897212 -0.18084654 0 -6.4896344e-06 0 0)
(-0.96579573 -0.17922931 0 6.0903928e-06 0 0)
(-0.97815145 -0.18074698 0 -5.7487272e-06 0 0)
(-0.96654681 -0.17932275 0 5.4124829e-06 0 0)
(-0.97742456 -0.18065866 0 -5.1035247e-06 0 0)
(-0.96721488 -0.17940574 0 4.8123589e-06 0 0)
(-0.97677988 -0.18058021 0 -4.5386429e-06 0 0)
(-0.96780964 -0.17947955 0 4.2841367e-06 0 0)
(-0.97620723 -0.18051044 0 -4.0435682e-06 0 0)
(-0.96833981 -0.17954527 0 3.8207502e-06 0 0)
(-0.97569762 -0.18044827 0 -3.6101845e-06 0 0)
(-0.96881322 -0.17960391 0 3.4153993e-06 0 0)
(-0.97524309 -0.18039274 0 -3.2317284e-06 0 0)
(-0.96923689 -0.17965636 0 3.0619749e-06 0 0)
(-0.97483656 -0.18034303 0 -2.9024013e-06 0 0)
(-0.96961712 -0.1797034 0 2.7551215e-06 0 0)
(-0.97447174 -0.18029836 0 -2.6172027e-06 0 0)
(-0.96995958 -0.17974576 0 2.4902004e-06 0 0)
(-0.97414298 -0.18025806 0 -2.3718363e-06 0 0)
(-0.97026939 -0.17978407 0 2.2632377e-06 0 0)
(-0.97384523 -0.18022152 0 -2.1626495e-06 0 0)
(-0.97055117 -0.17981892 0 2.0708821e-06 0 0)
(-0.9735739 -0.18018817 0 -1.9865996e-06 0 0)
(-0.97080915 -0.17985084 0 1.9103866e-06 0 0)
(-0.97332484 -0.18015752 0 -1.8412489e-06 0 0)
(-0.97104721 -0.1798803 0 1.7796596e-06 0 0)
(-0.97309423 -0.1801291 0 -1.7247664e-06 0 0)
(-0.97126892 -0.17990776 0 1.6773696e-06 0 0)