/*--------------------------------*- C++ -*----------------------------------*\
| =========                 |                                                 |
| \\      /  F ield         | OpenFOAM: The Open Source CFD Toolbox           |
|  \\    /   O peration     | Version:  2312                                  |
|   \\  /    A nd           | Website:  www.openfoam.com                      |
|    \\/     M anipulation  |                                                 |
\*---------------------------------------------------------------------------*/
FoamFile
{
    version     2.0;
    format      ascii;
    arch        "LSB;label=32;scalar=64";
    class       volSymmTensorField;
    location    "6";
    object      sigma;
}
// * * * * * * * * * * * * * * * * * * * * * * * * * * * * * * * * * * * * * //

dimensions      [0 2 -2 0 0 0 0];

internalField   nonuniform List<symmTensor> 
4000
(
(-1.4184099 -0.61985072 0 -0.23052333 0 0)
(-2.8603126 -0.30961473 0 -0.00084055145 0 0)
(-1.974416 -0.25693829 0 -0.00027462702 0 0)
(-2.1390906 -0.26715303 0 -3.2709682e-05 0 0)
(-2.0106836 -0.25868743 0 4.4540925e-05 0 0)
(-2.1015959 -0.26489476 0 -5.396203e-05 0 0)
(-2.0163531 -0.25904809 0 4.9642225e-05 0 0)
(-2.0938318 -0.26438177 0 -4.7601863e-05 0 0)
(-2.0215383 -0.25940334 0 4.4838443e-05 0 0)
(-2.0891452 -0.26406396 0 -4.2337368e-05 0 0)
(-2.0256254 -0.25968633 0 3.9801936e-05 0 0)
(-2.085209 -0.26379525 0 -3.7522345e-05 0 0)
(-2.0291949 -0.25993366 0 3.5287294e-05 0 0)
(-2.0817694 -0.26356003 0 -3.3252464e-05 0 0)
(-2.0323683 -0.2601533 0 3.1290851e-05 0 0)
(-2.0787339 -0.26335231 0 -2.9488715e-05 0 0)
(-2.035189 -0.26034831 0 2.7764435e-05 0 0)
(-2.0760463 -0.26316834 0 -2.6173733e-05 0 0)
(-2.0376952 -0.26052139 0 2.4657594e-05 0 0)
(-2.0736627 -0.26300515 0 -2.3256351e-05 0 0)
(-2.0399229 -0.26067508 0 2.1924225e-05 0 0)
(-2.0715459 -0.26286023 0 -2.0692106e-05 0 0)
(-2.0419048 -0.26081166 0 1.9523316e-05 0 0)
(-2.0696635 -0.26273138 0 -1.8442115e-05 0 0)
(-2.0436704 -0.26093319 0 1.7418678e-05 0 0)
(-2.0679865 -0.26261664 0 -1.6472286e-05 0 0)
(-2.0452462 -0.2610415 0 1.5578492e-05 0 0)
(-2.0664893 -0.26251429 0 -1.4752741e-05 0 0)
(-2.0466557 -0.26113825 0 1.3974878e-05 0 0)
(-2.0651492 -0.26242276 0 -1.3257361e-05 0 0)
(-2.0479203 -0.26122488 0 1.2583494e-05 0 0)
(-2.0639455 -0.26234067 0 -1.1963406e-05 0 0)
(-2.0490589 -0.26130271 0 1.1383196e-05 0 0)
(-2.06286 -0.26226678 0 -1.0851182e-05 0 0)
(-2.0500888 -0.26137292 0 1.035574e-05 0 0)
(-2.061876 -0.26219996 0 -9.903774e-06 0 0)
(-2.0510255 -0.26143659 0 9.4855257e-06 0 0)
(-2.0609785 -0.2621392 0 -9.1068084e-06 0 0)
(-2.0518832 -0.26149467 0 8.7594018e-06 0 0)
(-2.060154 -0.26208357 0 -8.448285e-06 0 0)
(-2.0526749 -0.26154804 0 8.1665308e-06 0 0)
(-2.0593897 -0.26203224 0 -7.918494e-06 0 0)
(-2.0534124 -0.26159752 0 7.6983468e-06 0 0)
(-2.0586742 -0.26198442 0 -7.5102844e-06 0 0)
(-2.0541067 -0.26164383 0 7.3485506e-06 0 0)
(-2.0579953 -0.26193933 0 -7.2191771e-06 0 0)
(-2.0547675 -0.26168757 0 7.1229404e-06 0 0)
(-2.0573566 -0.26189701 0 -7.0068215e-06 0 0)
(-2.0555008 -0.26173489 0 7.1767316e-06 0 0)
(-2.0571575 -0.2618837 0 -6.9839563e-06 0 0)
(-1.2590399 -0.56997829 0 -0.21652742 0 0)
(-2.5230102 -0.29421005 0 -0.0029181843 0 0)
(-1.8938642 -0.25290594 0 -0.00084605164 0 0)
(-1.9752696 -0.25673901 0 -3.4341153e-05 0 0)
(-1.8685715 -0.24927956 0 3.0156434e-05 0 0)
(-1.9443366 -0.25488768 0 -5.9988736e-05 0 0)
(-1.8712699 -0.24945376 0 5.2881055e-05 0 0)
(-1.9376604 -0.25442005 0 -5.1916758e-05 0 0)
(-1.8756173 -0.24977599 0 4.9140853e-05 0 0)
(-1.9336856 -0.2541295 0 -4.6521963e-05 0 0)
(-1.879121 -0.25003978 0 4.371247e-05 0 0)
(-1.9303062 -0.25387914 0 -4.1264607e-05 0 0)
(-1.8821816 -0.25027062 0 3.878024e-05 0 0)
(-1.9273449 -0.25365919 0 -3.65615e-05 0 0)
(-1.884904 -0.25047577 0 3.4396389e-05 0 0)
(-1.9247313 -0.25346491 0 -3.2419682e-05 0 0)
(-1.8873247 -0.25065795 0 3.0522714e-05 0 0)
(-1.9224175 -0.25329285 0 -2.8774461e-05 0 0)
(-1.8894759 -0.25081967 0 2.7108381e-05 0 0)
(-1.9203655 -0.25314023 0 -2.5567457e-05 0 0)
(-1.8913883 -0.25096327 0 2.4104141e-05 0 0)
(-1.9185433 -0.25300469 0 -2.2749053e-05 0 0)
(-1.89309 -0.2510909 0 2.146534e-05 0 0)
(-1.9169226 -0.25288418 0 -2.0276292e-05 0 0)
(-1.8946063 -0.25120447 0 1.9152314e-05 0 0)
(-1.9154788 -0.25277687 0 -1.8111641e-05 0 0)
(-1.8959598 -0.2513057 0 1.7130125e-05 0 0)
(-1.9141896 -0.25268112 0 -1.6222248e-05 0 0)
(-1.897171 -0.25139613 0 1.5368141e-05 0 0)
(-1.9130354 -0.2525955 0 -1.4579419e-05 0 0)
(-1.8982579 -0.25147711 0 1.3839631e-05 0 0)
(-1.9119985 -0.2525187 0 -1.3158187e-05 0 0)
(-1.899237 -0.25154989 0 1.2521397e-05 0 0)
(-1.911063 -0.25244955 0 -1.1936968e-05 0 0)
(-1.9001231 -0.25161556 0 1.1393454e-05 0 0)
(-1.9102146 -0.252387 0 -1.0897261e-05 0 0)
(-1.9009296 -0.25167513 0 1.0438779e-05 0 0)
(-1.9094405 -0.25233011 0 -1.0023426e-05 0 0)
(-1.9016685 -0.25172949 0 9.6431192e-06 0 0)
(-1.9087287 -0.252278 0 -9.3025493e-06 0 0)
(-1.9023513 -0.25177947 0 8.9949421e-06 0 0)
(-1.9080685 -0.2522299 0 -8.7244693e-06 0 0)
(-1.9029881 -0.25182582 0 8.4855455e-06 0 0)
(-1.9074496 -0.25218507 0 -8.2826663e-06 0 0)
(-1.9035885 -0.25186924 0 8.1088544e-06 0 0)
(-1.9068617 -0.25214278 0 -7.9760717e-06 0 0)
(-1.9041596 -0.25191017 0 7.8827898e-06 0 0)
(-1.906299 -0.25210228 0 -7.7185245e-06 0 0)
(-1.9047652 -0.25195115 0 8.253015e-06 0 0)
(-1.9060413 -0.25208358 0 -7.5844719e-06 0 0)
(-1.1834005 -0.54086978 0 -0.20362105 0 0)
(-2.2883058 -0.27927497 0 -0.0034167168 0 0)
(-1.811817 -0.24842228 0 -0.0012695272 0 0)
(-1.8732484 -0.25010626 0 -5.8637737e-05 0 0)
(-1.7758389 -0.24294177 0 1.4114486e-05 0 0)
(-1.8429134 -0.24820751 0 -5.9512569e-05 0 0)
(-1.7770928 -0.24303054 0 5.0184081e-05 0 0)
(-1.8366719 -0.24775711 0 -5.0092182e-05 0 0)
(-1.7809229 -0.24333356 0 4.7651946e-05 0 0)
(-1.8331082 -0.24748332 0 -4.5155555e-05 0 0)
(-1.7840735 -0.24358538 0 4.2408209e-05 0 0)
(-1.8300756 -0.24724528 0 -4.0079855e-05 0 0)
(-1.7868246 -0.24380558 0 3.7637263e-05 0 0)
(-1.827414 -0.24703568 0 -3.5504151e-05 0 0)
(-1.7892716 -0.24400125 0 3.3388819e-05 0 0)
(-1.8250646 -0.24685049 0 -3.1478155e-05 0 0)
(-1.7914477 -0.24417504 0 2.9630619e-05 0 0)
(-1.8229849 -0.24668648 0 -2.7937289e-05 0 0)
(-1.7933818 -0.24432931 0 2.6316623e-05 0 0)
(-1.8211408 -0.246541 0 -2.4822934e-05 0 0)
(-1.7951015 -0.24446632 0 2.3400233e-05 0 0)
(-1.8195032 -0.2464118 0 -2.2086244e-05 0 0)
(-1.7966318 -0.24458809 0 2.0838485e-05 0 0)
(-1.8180469 -0.24629692 0 -1.96853e-05 0 0)
(-1.7979956 -0.24469646 0 1.8592987e-05 0 0)
(-1.8167494 -0.24619461 0 -1.7583596e-05 0 0)
(-1.7992131 -0.24479307 0 1.6629856e-05 0 0)
(-1.8155909 -0.24610332 0 -1.5749215e-05 0 0)
(-1.8003026 -0.24487938 0 1.4919376e-05 0 0)
(-1.8145536 -0.24602166 0 -1.4154297e-05 0 0)
(-1.8012805 -0.24495669 0 1.3435619e-05 0 0)
(-1.8136216 -0.2459484 0 -1.2774624e-05 0 0)
(-1.8021616 -0.24502618 0 1.2156101e-05 0 0)
(-1.8127806 -0.24588242 0 -1.1589279e-05 0 0)
(-1.802959 -0.2450889 0 1.1061484e-05 0 0)
(-1.8120178 -0.24582272 0 -1.058038e-05 0 0)
(-1.8036849 -0.2451458 0 1.0135349e-05 0 0)
(-1.8113216 -0.2457684 0 -9.7328827e-06 0 0)
(-1.8043503 -0.24519776 0 9.3640515e-06 0 0)
(-1.8106813 -0.24571862 0 -9.0345017e-06 0 0)
(-1.8049652 -0.24524555 0 8.7367538e-06 0 0)
(-1.810087 -0.24567264 0 -8.4758619e-06 0 0)
(-1.8055389 -0.2452899 0 8.2457228e-06 0 0)
(-1.8095298 -0.24562977 0 -8.0518713e-06 0 0)
(-1.8060801 -0.24533147 0 7.886062e-06 0 0)
(-1.8089999 -0.24558929 0 -7.7657216e-06 0 0)
(-1.8065952 -0.24537066 0 7.6820994e-06 0 0)
(-1.8084899 -0.24555024 0 -7.5139886e-06 0 0)
(-1.8071335 -0.24540852 0 8.2587104e-06 0 0)
(-1.8082166 -0.24553063 0 -7.7726667e-06 0 0)
(-1.1291796 -0.51084474 0 -0.18639179 0 0)
(-2.1016495 -0.26790687 0 -0.0040223317 0 0)
(-1.7277734 -0.24381736 0 -0.0017322096 0 0)
(-1.7745324 -0.24350923 0 -8.5871594e-05 0 0)
(-1.6850996 -0.23661972 0 -1.0961457e-05 0 0)
(-1.744847 -0.24153724 0 -5.3969594e-05 0 0)
(-1.6849981 -0.23660934 0 4.2647364e-05 0 0)
(-1.7388593 -0.24109804 0 -4.3629272e-05 0 0)
(-1.6883337 -0.23689127 0 4.1908254e-05 0 0)
(-1.7356164 -0.24084001 0 -3.9738192e-05 0 0)
(-1.6911807 -0.23713108 0 3.7310762e-05 0 0)
(-1.7328688 -0.24061395 0 -3.531563e-05 0 0)
(-1.6936711 -0.23734065 0 3.3130244e-05 0 0)
(-1.7304541 -0.2404144 0 -3.1274491e-05 0 0)
(-1.6958858 -0.23752685 0 2.9398496e-05 0 0)
(-1.7283223 -0.24023806 0 -2.7722996e-05 0 0)
(-1.6978554 -0.23769225 0 2.6091876e-05 0 0)
(-1.7264355 -0.24008187 0 -2.4602646e-05 0 0)
(-1.6996063 -0.23783909 0 2.3174184e-05 0 0)
(-1.7247626 -0.23994333 0 -2.1859267e-05 0 0)
(-1.7011631 -0.23796951 0 2.0606008e-05 0 0)
(-1.7232773 -0.23982029 0 -1.9448933e-05 0 0)
(-1.7025487 -0.23808543 0 1.835001e-05 0 0)
(-1.7219565 -0.23971088 0 -1.733445e-05 0 0)
(-1.7037834 -0.2381886 0 1.6372517e-05 0 0)
(-1.7207799 -0.23961343 0 -1.5483576e-05 0 0)
(-1.7048858 -0.23828058 0 1.4643718e-05 0 0)
(-1.7197295 -0.23952646 0 -1.3868173e-05 0 0)
(-1.7058723 -0.23836277 0 1.3137451e-05 0 0)
(-1.718789 -0.23944866 0 -1.2463698e-05 0 0)
(-1.7067578 -0.23843641 0 1.1830893e-05 0 0)
(-1.7179441 -0.23937884 0 -1.1248836e-05 0 0)
(-1.7075556 -0.23850262 0 1.0704264e-05 0 0)
(-1.7171819 -0.23931594 0 -1.0205197e-05 0 0)
(-1.7082777 -0.23856241 0 9.7405803e-06 0 0)
(-1.7164905 -0.23925901 0 -9.3170918e-06 0 0)
(-1.7089351 -0.23861667 0 8.9254628e-06 0 0)
(-1.7158596 -0.23920718 0 -8.5713791e-06 0 0)
(-1.7095375 -0.23866624 0 8.247039e-06 0 0)
(-1.7152793 -0.23915966 0 -7.9574329e-06 0 0)
(-1.7100943 -0.23871186 0 7.6960358e-06 0 0)
(-1.7147409 -0.23911574 0 -7.4673589e-06 0 0)
(-1.7106138 -0.23875423 0 7.2661666e-06 0 0)
(-1.7142361 -0.23907476 0 -7.0976869e-06 0 0)
(-1.711104 -0.23879398 0 6.9534416e-06 0 0)
(-1.7137561 -0.23903605 0 -6.8549702e-06 0 0)
(-1.7115703 -0.23883148 0 6.7866117e-06 0 0)
(-1.7132917 -0.23899838 0 -6.6086018e-06 0 0)
(-1.7120495 -0.23886641 0 7.5753936e-06 0 0)
(-1.7130033 -0.23897755 0 -7.165998e-06 0 0)
(-1.0920384 -0.48851424 0 -0.17357697 0 0)
(-1.9179063 -0.25643085 0 -0.0045296137 0 0)
(-1.6365053 -0.2384519 0 -0.0021217482 0 0)
(-1.677916 -0.23692668 0 -0.00012697406 0 0)
(-1.5960577 -0.23027562 0 -3.7656278e-05 0 0)
(-1.6497684 -0.23488003 0 -4.8878787e-05 0 0)
(-1.5950943 -0.23017941 0 3.5325024e-05 0 0)
(-1.6439882 -0.23444761 0 -3.7186398e-05 0 0)
(-1.5979782 -0.23044106 0 3.6246273e-05 0 0)
(-1.6410049 -0.23420339 0 -3.4330967e-05 0 0)
(-1.6005561 -0.23066972 0 3.2244673e-05 0 0)
(-1.6385031 -0.23398844 0 -3.0566167e-05 0 0)
(-1.6028208 -0.23086951 0 2.8643043e-05 0 0)
(-1.6363034 -0.23379829 0 -2.7059683e-05 0 0)
(-1.6048346 -0.23104697 0 2.5424419e-05 0 0)
(-1.6343612 -0.23363019 0 -2.3981471e-05 0 0)
(-1.6066258 -0.2312046 0 2.2567201e-05 0 0)
(-1.6326423 -0.23348131 0 -2.1280257e-05 0 0)
(-1.6082181 -0.23134456 0 2.0044072e-05 0 0)
(-1.6311186 -0.23334925 0 -1.8906539e-05 0 0)
(-1.6096339 -0.23146886 0 1.7822622e-05 0 0)
(-1.629766 -0.23323196 0 -1.6821354e-05 0 0)
(-1.6108941 -0.23157935 0 1.5871068e-05 0 0)
(-1.6285634 -0.23312766 0 -1.4992227e-05 0 0)
(-1.6120171 -0.23167771 0 1.4160415e-05 0 0)
(-1.6274922 -0.23303475 0 -1.3391172e-05 0 0)
(-1.6130197 -0.2317654 0 1.2664903e-05 0 0)
(-1.626536 -0.23295184 0 -1.1993816e-05 0 0)
(-1.6139169 -0.23184377 0 1.1361899e-05 0 0)
(-1.62568 -0.23287765 0 -1.077892e-05 0 0)
(-1.6147223 -0.23191399 0 1.023166e-05 0 0)
(-1.6249112 -0.23281106 0 -9.7280477e-06 0 0)
(-1.6154478 -0.23197715 0 9.2570877e-06 0 0)
(-1.6242176 -0.23275105 0 -8.8253111e-06 0 0)
(-1.6161044 -0.23203419 0 8.4235144e-06 0 0)
(-1.6235888 -0.23269673 0 -8.0571753e-06 0 0)
(-1.616702 -0.23208597 0 7.7185489e-06 0 0)
(-1.6230149 -0.23264725 0 -7.4123379e-06 0 0)
(-1.6172496 -0.2321333 0 7.1320076e-06 0 0)
(-1.6224874 -0.23260188 0 -6.8817241e-06 0 0)
(-1.6177556 -0.23217687 0 6.6560338e-06 0 0)
(-1.621998 -0.23255991 0 -6.4587155e-06 0 0)
(-1.6182277 -0.23221737 0 6.2854972e-06 0 0)
(-1.6215392 -0.23252073 0 -6.1409758e-06 0 0)
(-1.6186729 -0.23225539 0 6.0167079e-06 0 0)
(-1.6211033 -0.23248371 0 -5.9372601e-06 0 0)
(-1.6190964 -0.23229128 0 5.8790437e-06 0 0)
(-1.6206802 -0.23244746 0 -5.6926885e-06 0 0)
(-1.6195251 -0.23232376 0 6.817765e-06 0 0)
(-1.6203858 -0.23242579 0 -6.4898182e-06 0 0)
(-1.0466865 -0.4596755 0 -0.15701208 0 0)
(-1.7454693 -0.24505929 0 -0.0047908894 0 0)
(-1.5438095 -0.23260333 0 -0.0024152845 0 0)
(-1.5828442 -0.23032183 0 -0.00018501488 0 0)
(-1.5087835 -0.22391329 0 -6.651738e-05 0 0)
(-1.557449 -0.22822992 0 -4.5662461e-05 0 0)
(-1.5074835 -0.22374408 0 2.905743e-05 0 0)
(-1.5519391 -0.22780337 0 -3.1714664e-05 0 0)
(-1.5099713 -0.22398609 0 3.1533817e-05 0 0)
(-1.5491794 -0.22757153 0 -2.9761015e-05 0 0)
(-1.512303 -0.22420404 0 2.7988698e-05 0 0)
(-1.5468956 -0.22736707 0 -2.6565291e-05 0 0)
(-1.5143649 -0.22439456 0 2.4866196e-05 0 0)
(-1.5448887 -0.22718583 0 -2.351056e-05 0 0)
(-1.5161989 -0.22456372 0 2.2078961e-05 0 0)
(-1.5431165 -0.22702557 0 -2.083085e-05 0 0)
(-1.5178301 -0.22471398 0 1.9600084e-05 0 0)
(-1.5415483 -0.22688362 0 -1.8482554e-05 0 0)
(-1.5192803 -0.22484739 0 1.7409103e-05 0 0)
(-1.5401584 -0.22675771 0 -1.642014e-05 0 0)
(-1.5205699 -0.22496588 0 1.5479508e-05 0 0)
(-1.5389247 -0.22664589 0 -1.4608779e-05 0 0)
(-1.5217176 -0.22507121 0 1.378421e-05 0 0)
(-1.537828 -0.22654644 0 -1.3019953e-05 0 0)
(-1.5227405 -0.22516498 0 1.2298154e-05 0 0)
(-1.5368514 -0.22645785 0 -1.1629255e-05 0 0)
(-1.5236538 -0.22524859 0 1.0998983e-05 0 0)
(-1.5359796 -0.22637879 0 -1.0415481e-05 0 0)
(-1.524471 -0.22532331 0 9.8670345e-06 0 0)
(-1.5351994 -0.22630803 0 -9.360172e-06 0 0)
(-1.5252044 -0.22539029 0 8.8851548e-06 0 0)
(-1.5344987 -0.22624452 0 -8.4473162e-06 0 0)
(-1.5258652 -0.22545052 0 8.0384931e-06 0 0)
(-1.5338667 -0.22618728 0 -7.663123e-06 0 0)
(-1.5264631 -0.22550494 0 7.314321e-06 0 0)
(-1.5332938 -0.22613544 0 -6.9958574e-06 0 0)
(-1.5270072 -0.22555436 0 6.7019006e-06 0 0)
(-1.5327711 -0.22608822 0 -6.4357402e-06 0 0)
(-1.5275058 -0.22559953 0 6.1924336e-06 0 0)
(-1.5322907 -0.22604489 0 -5.9749548e-06 0 0)
(-1.5279663 -0.22564115 0 5.7791884e-06 0 0)
(-1.5318452 -0.22600481 0 -5.6078614e-06 0 0)
(-1.5283958 -0.22567983 0 5.457874e-06 0 0)
(-1.5314278 -0.22596737 0 -5.3328512e-06 0 0)
(-1.5288008 -0.22571618 0 5.2247285e-06 0 0)
(-1.5310313 -0.22593198 0 -5.1601073e-06 0 0)
(-1.5291858 -0.22575052 0 5.1078193e-06 0 0)
(-1.5306456 -0.22589714 0 -4.9131887e-06 0 0)
(-1.52957 -0.22578085 0 6.1477844e-06 0 0)
(-1.5303509 -0.2258748 0 -5.8790386e-06 0 0)
(-1.0164935 -0.43946848 0 -0.14557938 0 0)
(-1.5849893 -0.23436809 0 -0.0050980559 0 0)
(-1.4508143 -0.22625143 0 -0.0025918231 0 0)
(-1.4891082 -0.22369384 0 -0.00026809008 0 0)
(-1.4232176 -0.21753517 0 -0.00010078424 0 0)
(-1.4677679 -0.22158555 0 -4.5014003e-05 0 0)
(-1.4221896 -0.21730583 0 2.3245692e-05 0 0)
(-1.4626533 -0.22116381 0 -2.7062471e-05 0 0)
(-1.4243557 -0.21752813 0 2.7515379e-05 0 0)
(-1.4600967 -0.22094293 0 -2.5821414e-05 0 0)
(-1.426461 -0.21773548 0 2.4341232e-05 0 0)
(-1.4580084 -0.22074843 0 -2.3125763e-05 0 0)
(-1.4283383 -0.21791705 0 2.1622295e-05 0 0)
(-1.4561762 -0.22057579 0 -2.046139e-05 0 0)
(-1.4300092 -0.21807821 0 1.9204812e-05 0 0)
(-1.4545585 -0.22042307 0 -1.8124183e-05 0 0)
(-1.4314954 -0.21822135 0 1.7050999e-05 0 0)
(-1.4531273 -0.22028782 0 -1.6079066e-05 0 0)
(-1.4328168 -0.21834844 0 1.5145418e-05 0 0)
(-1.4518588 -0.22016784 0 -1.42841e-05 0 0)
(-1.4339919 -0.21846133 0 1.3466585e-05 0 0)
(-1.4507332 -0.22006129 0 -1.2707996e-05 0 0)
(-1.4350378 -0.21856168 0 1.1991451e-05 0 0)
(-1.4497326 -0.21996652 0 -1.1325622e-05 0 0)
(-1.4359699 -0.21865102 0 1.069835e-05 0 0)
(-1.4488417 -0.21988211 0 -1.0115642e-05 0 0)
(-1.4368022 -0.21873069 0 9.5678511e-06 0 0)
(-1.4480466 -0.21980675 0 -9.0595761e-06 0 0)
(-1.4375469 -0.2188019 0 8.5828425e-06 0 0)
(-1.447335 -0.21973932 0 -8.1413519e-06 0 0)
(-1.4382152 -0.21886573 0 7.728394e-06 0 0)
(-1.4466961 -0.21967877 0 -7.3470375e-06 0 0)
(-1.4388173 -0.21892315 0 6.9915838e-06 0 0)
(-1.4461199 -0.2196242 0 -6.6646413e-06 0 0)
(-1.4393621 -0.21897504 0 6.3613433e-06 0 0)
(-1.4455976 -0.21957476 0 -6.0839666e-06 0 0)
(-1.4398578 -0.21902217 0 5.8283445e-06 0 0)
(-1.4451213 -0.21952972 0 -5.5965289e-06 0 0)
(-1.440312 -0.21906526 0 5.3849605e-06 0 0)
(-1.4446836 -0.21948838 0 -5.1955666e-06 0 0)
(-1.4407314 -0.21910497 0 5.0253898e-06 0 0)
(-1.4442778 -0.21945012 0 -4.8762298e-06 0 0)
(-1.4411224 -0.2191419 0 4.7459945e-06 0 0)
(-1.4438976 -0.21941437 0 -4.6374071e-06 0 0)
(-1.4414911 -0.21917663 0 4.5428164e-06 0 0)
(-1.4435368 -0.21938057 0 -4.4902987e-06 0 0)
(-1.4418414 -0.21920946 0 4.441616e-06 0 0)
(-1.4431852 -0.21934715 0 -4.2407731e-06 0 0)
(-1.4421862 -0.21923788 0 5.5438308e-06 0 0)
(-1.4428945 -0.21932431 0 -5.3249085e-06 0 0)
(-0.98401059 -0.41698614 0 -0.13309523 0 0)
(-1.4362124 -0.22399188 0 -0.0052860844 0 0)
(-1.3603665 -0.21958578 0 -0.0026536333 0 0)
(-1.3968529 -0.21703355 0 -0.00036835418 0 0)
(-1.3392811 -0.21111774 0 -0.00013524914 0 0)
(-1.3805585 -0.21493345 0 -4.5037991e-05 0 0)
(-1.3391642 -0.21086031 0 1.795591e-05 0 0)
(-1.3760716 -0.21452691 0 -2.2925188e-05 0 0)
(-1.3411412 -0.21106714 0 2.3940427e-05 0 0)
(-1.3737308 -0.21431711 0 -2.2291126e-05 0 0)
(-1.3430494 -0.21126438 0 2.1085347e-05 0 0)
(-1.3718222 -0.2141322 0 -2.0047735e-05 0 0)
(-1.3447589 -0.21143727 0 1.8721735e-05 0 0)
(-1.3701494 -0.21396786 0 -1.7734323e-05 0 0)
(-1.3462814 -0.21159069 0 1.6634159e-05 0 0)
(-1.3686726 -0.21382246 0 -1.5703649e-05 0 0)
(-1.3476357 -0.21172695 0 1.4771085e-05 0 0)
(-1.3673662 -0.21369367 0 -1.3929671e-05 0 0)
(-1.3488398 -0.21184793 0 1.312082e-05 0 0)
(-1.3662085 -0.21357944 0 -1.2373887e-05 0 0)
(-1.3499107 -0.2119554 0 1.1666304e-05 0 0)
(-1.3651813 -0.21347798 0 -1.1008176e-05 0 0)
(-1.3508639 -0.21205094 0 1.0388104e-05 0 0)
(-1.3642684 -0.21338775 0 -9.8104305e-06 0 0)
(-1.3517135 -0.21213599 0 9.2675876e-06 0 0)
(-1.3634556 -0.21330737 0 -8.7620617e-06 0 0)
(-1.352472 -0.21221185 0 8.287945e-06 0 0)
(-1.3627303 -0.21323561 0 -7.8470218e-06 0 0)
(-1.3531507 -0.21227966 0 7.4343476e-06 0 0)
(-1.3620813 -0.21317138 0 -7.0513752e-06 0 0)
(-1.3537599 -0.21234045 0 6.693854e-06 0 0)
(-1.3614986 -0.21311372 0 -6.3630491e-06 0 0)
(-1.3543086 -0.21239514 0 6.0552668e-06 0 0)
(-1.3609732 -0.21306172 0 -5.7716573e-06 0 0)
(-1.354805 -0.21244457 0 5.5089982e-06 0 0)
(-1.360497 -0.21301462 0 -5.268374e-06 0 0)
(-1.3552568 -0.21248948 0 5.0469747e-06 0 0)
(-1.3600628 -0.21297169 0 -4.8458626e-06 0 0)
(-1.3556705 -0.21253056 0 4.6626045e-06 0 0)
(-1.3596639 -0.21293228 0 -4.4982883e-06 0 0)
(-1.3560526 -0.21256842 0 4.3508948e-06 0 0)
(-1.3592941 -0.21289579 0 -4.2214761e-06 0 0)
(-1.3564088 -0.21260365 0 4.1087507e-06 0 0)
(-1.3589479 -0.21286168 0 -4.0146736e-06 0 0)
(-1.3567445 -0.21263679 0 3.9319998e-06 0 0)
(-1.3586195 -0.21282942 0 -3.8898101e-06 0 0)
(-1.3570634 -0.21266816 0 3.8436257e-06 0 0)
(-1.3582989 -0.21279741 0 -3.6388795e-06 0 0)
(-1.3573729 -0.21269487 0 4.9769077e-06 0 0)
(-1.3580154 -0.21277425 0 -4.8055773e-06 0 0)
(-0.9558286 -0.393336 0 -0.11917133 0 0)
(-1.3007698 -0.21424491 0 -0.0054050349 0 0)
(-1.2723637 -0.21235044 0 -0.0025445043 0 0)
(-1.3064852 -0.21041389 0 -0.00049959738 0 0)
(-1.2575413 -0.20471428 0 -0.0001721874 0 0)
(-1.2959377 -0.20828368 0 -4.5764349e-05 0 0)
(-1.2584736 -0.20440962 0 1.3202337e-05 0 0)
(-1.2921766 -0.20789229 0 -1.9119115e-05 0 0)
(-1.2603422 -0.20460278 0 2.0741469e-05 0 0)
(-1.2900611 -0.20769382 0 -1.9069145e-05 0 0)
(-1.2620822 -0.20479062 0 1.8140457e-05 0 0)
(-1.2883213 -0.20751831 0 -1.7250108e-05 0 0)
(-1.2636403 -0.20495523 0 1.6090609e-05 0 0)
(-1.286795 -0.20736203 0 -1.5258657e-05 0 0)
(-1.2650278 -0.20510118 0 1.4301002e-05 0 0)
(-1.2854473 -0.2072237 0 -1.3506772e-05 0 0)
(-1.2662617 -0.20523079 0 1.2701672e-05 0 0)
(-1.284255 -0.20710117 0 -1.1978954e-05 0 0)
(-1.2673589 -0.20534587 0 1.1283172e-05 0 0)
(-1.2831987 -0.20699249 0 -1.064026e-05 0 0)
(-1.2683347 -0.20544809 0 1.0032288e-05 0 0)
(-1.2822615 -0.20689596 0 -9.4654979e-06 0 0)
(-1.2692034 -0.20553898 0 8.932852e-06 0 0)
(-1.2814287 -0.20681011 0 -8.4353119e-06 0 0)
(-1.2699775 -0.20561989 0 7.9689875e-06 0 0)
(-1.2806872 -0.20673363 0 -7.5336049e-06 0 0)
(-1.2706687 -0.20569206 0 7.1262652e-06 0 0)
(-1.2800257 -0.20666535 0 -6.7465403e-06 0 0)
(-1.2712873 -0.20575658 0 6.3919309e-06 0 0)
(-1.2794338 -0.20660423 0 -6.062121e-06 0 0)
(-1.2718424 -0.20581443 0 5.7548495e-06 0 0)
(-1.2789025 -0.20654934 0 -5.4699609e-06 0 0)
(-1.2723424 -0.20586648 0 5.2053874e-06 0 0)
(-1.2784234 -0.20649985 0 -4.961129e-06 0 0)
(-1.2727948 -0.20591354 0 4.7352987e-06 0 0)
(-1.2779894 -0.206455 0 -4.5280389e-06 0 0)
(-1.2732064 -0.2059563 0 4.3376427e-06 0 0)
(-1.2775936 -0.20641412 0 -4.1643882e-06 0 0)
(-1.2735834 -0.20599542 0 4.0067573e-06 0 0)
(-1.27723 -0.20637657 0 -3.8651698e-06 0 0)
(-1.2739314 -0.2060315 0 3.7383655e-06 0 0)
(-1.2768932 -0.2063418 0 -3.6267971e-06 0 0)
(-1.2742558 -0.20606507 0 3.5298334e-06 0 0)
(-1.2765778 -0.20630928 0 -3.4487745e-06 0 0)
(-1.2745615 -0.20609668 0 3.3767908e-06 0 0)
(-1.2762788 -0.20627852 0 -3.343501e-06 0 0)
(-1.2748518 -0.20612662 0 3.2992251e-06 0 0)
(-1.2759867 -0.20624791 0 -3.0927174e-06 0 0)
(-1.2751298 -0.2061518 0 4.4372096e-06 0 0)
(-1.2757125 -0.20622458 0 -4.3153373e-06 0 0)
(-0.93663295 -0.37584195 0 -0.10925397 0 0)
(-1.1784403 -0.20450539 0 -0.0053197991 0 0)
(-1.184509 -0.20511929 0 -0.0025017097 0 0)
(-1.221498 -0.20361498 0 -0.00051857191 0 0)
(-1.1786615 -0.19824324 0 -0.00018273714 0 0)
(-1.2142367 -0.2016326 0 -4.2562144e-05 0 0)
(-1.1802634 -0.1979557 0 9.4626979e-06 0 0)
(-1.2110077 -0.20126198 0 -1.5630185e-05 0 0)
(-1.1819979 -0.19813614 0 1.7825203e-05 0 0)
(-1.2090831 -0.20107352 0 -1.6144102e-05 0 0)
(-1.1835778 -0.19831447 0 1.546035e-05 0 0)
(-1.2074947 -0.20090684 0 -1.4703702e-05 0 0)
(-1.1849959 -0.19847097 0 1.3696296e-05 0 0)
(-1.206102 -0.2007583 0 -1.3005491e-05 0 0)
(-1.1862594 -0.19860971 0 1.2177545e-05 0 0)
(-1.2048725 -0.20062679 0 -1.1507527e-05 0 0)
(-1.1873833 -0.1987329 0 1.0818235e-05 0 0)
(-1.203785 -0.20051031 0 -1.0203763e-05 0 0)
(-1.1883826 -0.19884228 0 9.6107046e-06 0 0)
(-1.2028215 -0.20040699 0 -9.0626347e-06 0 0)
(-1.1892714 -0.19893944 0 8.5451746e-06 0 0)
(-1.2019668 -0.20031522 0 -8.0616421e-06 0 0)
(-1.1900625 -0.19902582 0 7.6084458e-06 0 0)
(-1.2012074 -0.2002336 0 -7.1839328e-06 0 0)
(-1.1907677 -0.19910274 0 6.7871523e-06 0 0)
(-1.2005314 -0.20016088 0 -6.4156801e-06 0 0)
(-1.1913974 -0.19917134 0 6.069035e-06 0 0)
(-1.1999283 -0.20009596 0 -5.7450603e-06 0 0)
(-1.1919608 -0.19923269 0 5.4432295e-06 0 0)
(-1.1993887 -0.20003784 0 -5.1618412e-06 0 0)
(-1.1924665 -0.19928769 0 4.9002455e-06 0 0)
(-1.1989044 -0.19998564 0 -4.6571714e-06 0 0)
(-1.192922 -0.1993372 0 4.4318721e-06 0 0)
(-1.1984678 -0.19993857 0 -4.2234418e-06 0 0)
(-1.193334 -0.19938195 0 4.0310822e-06 0 0)
(-1.1980723 -0.1998959 0 -3.8541906e-06 0 0)
(-1.1937089 -0.19942264 0 3.6919618e-06 0 0)
(-1.1977117 -0.199857 0 -3.5440504e-06 0 0)
(-1.1940522 -0.19945987 0 3.4096871e-06 0 0)
(-1.1973805 -0.19982126 0 -3.2887566e-06 0 0)
(-1.1943691 -0.19949421 0 3.1806177e-06 0 0)
(-1.1970737 -0.19978815 0 -3.0852393e-06 0 0)
(-1.1946644 -0.19952618 0 3.0025144e-06 0 0)
(-1.1967865 -0.19975717 0 -2.9331803e-06 0 0)
(-1.1949427 -0.19955629 0 2.8708446e-06 0 0)
(-1.1965145 -0.19972787 0 -2.8452061e-06 0 0)
(-1.1952069 -0.19958485 0 2.8025627e-06 0 0)
(-1.1962484 -0.19969865 0 -2.5962168e-06 0 0)
(-1.1954567 -0.19960864 0 3.9227718e-06 0 0)
(-1.1959853 -0.19967526 0 -3.8539274e-06 0 0)
(-0.91869275 -0.35280139 0 -0.095245241 0 0)
(-1.0740798 -0.19565017 0 -0.005164431 0 0)
(-1.0981738 -0.19798892 0 -0.0025159728 0 0)
(-1.1420614 -0.19664882 0 -0.00042136167 0 0)
(-1.1026019 -0.19166432 0 -0.00015610655 0 0)
(-1.1353873 -0.19495681 0 -2.9779826e-05 0 0)
(-1.104503 -0.19148775 0 8.7532023e-06 0 0)
(-1.132522 -0.19463149 0 -1.1738064e-05 0 0)
(-1.1061059 -0.19166556 0 1.5372176e-05 0 0)
(-1.1307756 -0.19445542 0 -1.3419168e-05 0 0)
(-1.1075438 -0.1918357 0 1.3036274e-05 0 0)
(-1.1293291 -0.19429757 0 -1.2375045e-05 0 0)
(-1.1088352 -0.19198453 0 1.1515498e-05 0 0)
(-1.1280602 -0.19415657 0 -1.0950066e-05 0 0)
(-1.1099855 -0.19211632 0 1.0241554e-05 0 0)
(-1.1269396 -0.19403167 0 -9.6845242e-06 0 0)
(-1.1110084 -0.19223332 0 9.1008237e-06 0 0)
(-1.1259484 -0.19392102 0 -8.5851969e-06 0 0)
(-1.1119179 -0.19233719 0 8.0856566e-06 0 0)
(-1.1250703 -0.19382288 0 -7.6242304e-06 0 0)
(-1.1127269 -0.19242946 0 7.1891593e-06 0 0)
(-1.1242915 -0.19373571 0 -6.7816766e-06 0 0)
(-1.113447 -0.1925115 0 6.4008052e-06 0 0)
(-1.1235995 -0.19365818 0 -6.042983e-06 0 0)
(-1.1140889 -0.19258456 0 5.7095164e-06 0 0)
(-1.1229836 -0.1935891 0 -5.3963972e-06 0 0)
(-1.1146621 -0.19264973 0 5.1050146e-06 0 0)
(-1.1224341 -0.19352742 0 -4.8319328e-06 0 0)
(-1.115175 -0.192708 0 4.5781607e-06 0 0)
(-1.1219426 -0.1934722 0 -4.3409677e-06 0 0)
(-1.1156353 -0.19276026 0 4.1209649e-06 0 0)
(-1.1215015 -0.1934226 0 -3.9160491e-06 0 0)
(-1.1160499 -0.1928073 0 3.7265134e-06 0 0)
(-1.1211039 -0.19337786 0 -3.5507722e-06 0 0)
(-1.116425 -0.19284983 0 3.3888887e-06 0 0)
(-1.1207437 -0.1933373 0 -3.2396973e-06 0 0)
(-1.1167662 -0.19288851 0 3.1031097e-06 0 0)
(-1.1204153 -0.19330031 0 -2.9783048e-06 0 0)
(-1.1170786 -0.19292391 0 2.8651107e-06 0 0)
(-1.1201138 -0.19326633 0 -2.7629991e-06 0 0)
(-1.117367 -0.19295657 0 2.6718213e-06 0 0)
(-1.1198346 -0.19323483 0 -2.5911683e-06 0 0)
(-1.1176357 -0.19298699 0 2.5213439e-06 0 0)
(-1.1195733 -0.19320535 0 -2.4626126e-06 0 0)
(-1.1178888 -0.19301565 0 2.4090346e-06 0 0)
(-1.1193259 -0.19317746 0 -2.3899646e-06 0 0)
(-1.1181292 -0.19304287 0 2.3489231e-06 0 0)
(-1.1190839 -0.19314959 0 -2.1445183e-06 0 0)
(-1.1183534 -0.19306538 0 3.4323658e-06 0 0)
(-1.1188328 -0.19312628 0 -3.4210216e-06 0 0)
(-0.90574761 -0.33900813 0 -0.087708776 0 0)
(-0.98805621 -0.18676198 0 -0.0044961878 0 0)
(-1.0135269 -0.19025656 0 -0.0026249539 0 0)
(-1.0623736 -0.1898991 0 -0.00047912179 0 0)
(-1.0285908 -0.18519673 0 -0.00016193818 0 0)
(-1.0590211 -0.1883162 0 -2.6446921e-05 0 0)
(-1.0311496 -0.18502766 0 6.0570146e-06 0 0)
(-1.0566995 -0.18800738 0 -8.7160995e-06 0 0)
(-1.0326827 -0.18519354 0 1.2993177e-05 0 0)
(-1.0551334 -0.18784033 0 -1.096612e-05 0 0)
(-1.0339939 -0.18535479 0 1.0810546e-05 0 0)
(-1.0538176 -0.18769061 0 -1.0248226e-05 0 0)
(-1.0351681 -0.18549604 0 9.5207364e-06 0 0)
(-1.0526621 -0.18755681 0 -9.0709165e-06 0 0)
(-1.036214 -0.1856211 0 8.4711606e-06 0 0)
(-1.0516416 -0.18743828 0 -8.0178197e-06 0 0)
(-1.037144 -0.1857321 0 7.5303744e-06 0 0)
(-1.050739 -0.18733326 0 -7.1054081e-06 0 0)
(-1.037971 -0.18583066 0 6.6911509e-06 0 0)
(-1.0499396 -0.18724012 0 -6.3091554e-06 0 0)
(-1.0387065 -0.18591822 0 5.9492427e-06 0 0)
(-1.0492305 -0.18715739 0 -5.6114511e-06 0 0)
(-1.0393614 -0.18599607 0 5.296572e-06 0 0)
(-1.0486006 -0.1870838 0 -4.9998458e-06 0 0)
(-1.0399451 -0.18606539 0 4.7241594e-06 0 0)
(-1.04804 -0.18701824 0 -4.4644846e-06 0 0)
(-1.0404664 -0.18612724 0 4.2235418e-06 0 0)
(-1.04754 -0.18695969 0 -3.997062e-06 0 0)
(-1.0409328 -0.18618255 0 3.7871597e-06 0 0)
(-1.0470927 -0.18690727 0 -3.5904282e-06 0 0)
(-1.0413514 -0.18623215 0 3.4083963e-06 0 0)
(-1.0466913 -0.18686017 0 -3.2384088e-06 0 0)
(-1.0417285 -0.18627681 0 3.0815235e-06 0 0)
(-1.0463295 -0.18681769 0 -2.9356988e-06 0 0)
(-1.0420696 -0.1863172 0 2.8016374e-06 0 0)
(-1.0460018 -0.18677918 0 -2.6777908e-06 0 0)
(-1.0423798 -0.18635393 0 2.5646072e-06 0 0)
(-1.0457031 -0.18674404 0 -2.4609366e-06 0 0)
(-1.0426639 -0.18638756 0 2.3670565e-06 0 0)
(-1.045429 -0.18671175 0 -2.2821465e-06 0 0)
(-1.0429261 -0.1864186 0 2.2064278e-06 0 0)
(-1.045175 -0.18668181 0 -2.1392186e-06 0 0)
(-1.0431703 -0.18644751 0 2.0811236e-06 0 0)
(-1.0449375 -0.18665378 0 -2.0320291e-06 0 0)
(-1.0434003 -0.18647477 0 1.986449e-06 0 0)
(-1.0447128 -0.18662726 0 -1.9730145e-06 0 0)
(-1.0436188 -0.18650068 0 1.9337221e-06 0 0)
(-1.0444928 -0.18660073 0 -1.7329132e-06 0 0)
(-1.0438199 -0.18652202 0 2.9645282e-06 0 0)
(-1.0442546 -0.18657759 0 -3.0156837e-06 0 0)
(-0.88803069 -0.31695338 0 -0.075232164 0 0)
(-0.90950034 -0.17887288 0 -0.0041272035 0 0)
(-0.93768891 -0.18274992 0 -0.0024517872 0 0)
(-0.98649999 -0.1829116 0 -0.00042311933 0 0)
(-0.95727329 -0.17863457 0 -0.00013767406 0 0)
(-0.98528941 -0.18164284 0 -1.5465562e-05 0 0)
(-0.96019558 -0.17855036 0 5.8737466e-06 0 0)
(-0.98349764 -0.18138069 0 -5.2905873e-06 0 0)
(-0.96171309 -0.17871673 0 1.1009893e-05 0 0)
(-0.98213208 -0.18122673 0 -8.6584023e-06 0 0)
(-0.96292785 -0.17887118 0 8.7898362e-06 0 0)
(-0.98094766 -0.18108559 0 -8.291566e-06 0 0)
(-0.96399976 -0.17900544 0 7.6943413e-06 0 0)
(-0.9798995 -0.1809589 0 -7.3472814e-06 0 0)
(-0.96495086 -0.17912407 0 6.8483303e-06 0 0)
(-0.97897209 -0.18084654 0 -6.4898211e-06 0 0)
(-0.96579575 -0.17922931 0 6.0905701e-06 0 0)
(-0.97815144 -0.18074698 0 -5.7488997e-06 0 0)
(-0.96654681 -0.17932275 0 5.412636e-06 0 0)
(-0.97742455 -0.18065866 0 -5.1036581e-06 0 0)
(-0.96721488 -0.17940574 0 4.8124694e-06 0 0)
(-0.97677988 -0.18058021 0 -4.5387304e-06 0 0)
(-0.96780964 -0.17947955 0 4.284203e-06 0 0)
(-0.97620722 -0.18051044 0 -4.0436142e-06 0 0)
(-0.96833982 -0.17954527 0 3.8207791e-06 0 0)
(-0.97569761 -0.18044826 0 -3.610198e-06 0 0)
(-0.96881324 -0.17960391 0 3.4154005e-06 0 0)
(-0.97524307 -0.18039274 0 -3.2317192e-06 0 0)
(-0.96923691 -0.17965636 0 3.0619579e-06 0 0)
(-0.97483654 -0.18034303 0 -2.902378e-06 0 0)
(-0.96961715 -0.1797034 0 2.7550938e-06 0 0)
(-0.97447172 -0.18029836 0 -2.6171716e-06 0 0)
(-0.9699596 -0.17974576 0 2.4901671e-06 0 0)
(-0.97414296 -0.18025806 0 -2.3718015e-06 0 0)
(-0.97026941 -0.17978408 0 2.2632022e-06 0 0)
(-0.97384521 -0.18022151 0 -2.1626137e-06 0 0)
(-0.97055119 -0.17981893 0 2.0708462e-06 0 0)
(-0.97357388 -0.18018817 0 -1.9865639e-06 0 0)
(-0.97080917 -0.17985084 0 1.9103512e-06 0 0)
(-0.97332482 -0.18015752 0 -1.8412138e-06 0 0)
(-0.97104722 -0.1798803 0 1.7796249e-06 0 0)
(-0.97309422 -0.18012909 0 -1.724732e-06 0 0)
(-0.97126893 -0.17990776 0 1.6773355e-06 0 0)