/*--------------------------------*- C++ -*----------------------------------*\
| =========                 |                                                 |
| \\      /  F ield         | OpenFOAM: The Open Source CFD Toolbox           |
|  \\    /   O peration     | Version:  2312                                  |
|   \\  /    A nd           | Website:  www.openfoam.com                      |
|    \\/     M anipulation  |                                                 |
\*---------------------------------------------------------------------------*/
FoamFile
{
    version     2.0;
    format      ascii;
    arch        "LSB;label=32;scalar=64";
    class       volScalarField;
    location    "6";
    object      T;
}
// * * * * * * * * * * * * * * * * * * * * * * * * * * * * * * * * * * * * * //

dimensions      [0 0 0 1 0 0 0];

internalField   nonuniform List<scalar> 
4000
(
309.8657
311.05348
311.21383
311.29514
311.35092
311.40534
311.44608
311.49132
311.52663
311.56731
311.59991
311.63782
311.66886
311.70493
311.73498
311.76974
311.79912
311.8329
311.86181
311.89482
311.92339
311.9558
311.98409
312.01603
312.0441
312.07565
312.10354
312.13477
312.16251
312.19348
312.22108
312.25183
312.27931
312.30988
312.33724
312.36768
312.39492
312.42525
312.45238
312.48263
312.50964
312.53984
312.56672
312.59691
312.62363
312.65385
312.68037
312.71073
312.73686
312.76798
307.74723
309.90003
310.32106
310.50956
310.62164
310.72955
310.79659
310.87702
310.92776
310.99451
311.03713
311.09562
311.13354
311.18651
311.22146
311.27048
311.30344
311.34952
311.38105
311.42486
311.45534
311.49735
311.52703
311.56759
311.59662
311.63602
311.6645
311.70295
311.73096
311.76863
311.79623
311.83325
311.86048
311.89698
311.92385
311.95993
311.98645
312.02222
312.04838
312.08392
312.10972
312.14511
312.17052
312.20586
312.23081
312.26626
312.2906
312.32645
312.34964
312.38768
306.35392
308.77567
309.43405
309.72716
309.89481
310.05551
310.14879
310.26403
310.33024
310.4228
310.47551
310.55437
310.59926
310.66896
310.7089
310.77205
310.80865
310.86692
310.90115
310.95565
310.98811
311.03964
311.07074
311.11988
311.14989
311.19709
311.2262
311.27181
311.30014
311.34445
311.37209
311.41534
311.44234
311.48474
311.51114
311.55284
311.57866
311.61983
311.64506
311.68584
311.71047
311.75101
311.77498
311.81545
311.83865
311.8793
311.90148
311.9428
311.96308
312.00778
305.3839
307.70865
308.56186
308.95277
309.17391
309.3857
309.50486
309.65403
309.73568
309.85349
309.91635
310.01517
310.06711
310.15322
310.19824
310.27528
310.31561
310.38587
310.42287
310.4879
310.52242
310.58331
310.61592
310.6735
310.70457
310.75945
310.78924
310.84193
310.87062
310.92151
310.94923
310.99864
311.02546
311.07368
311.09965
311.14691
311.17206
311.21858
311.24291
311.2889
311.31237
311.35803
311.38058
311.42615
311.44762
311.49343
311.51349
311.56022
311.57768
311.62866
304.67987
306.7241
307.71636
308.19314
308.46366
308.72359
308.86769
309.04936
309.14618
309.28833
309.36129
309.47943
309.53847
309.64051
309.69068
309.78122
309.82537
309.9073
309.94717
310.02245
310.05912
310.12916
310.16336
310.22919
310.26139
310.3238
310.35435
310.41397
310.44309
310.50042
310.52827
310.58374
310.61043
310.66437
310.68997
310.7427
310.76723
310.81902
310.84249
310.89361
310.91598
310.96667
310.98786
311.03844
311.05825
311.10913
311.12714
311.17916
311.19395
311.25076
304.15363
305.84125
306.91069
307.45642
307.76986
308.07348
308.24086
308.45292
308.56431
308.7295
308.81235
308.9489
309.01498
309.13227
309.18762
309.29112
309.33915
309.43233
309.47513
309.56032
309.59921
309.67811
309.71396
309.78779
309.8212
309.89092
309.92229
309.98866
310.01827
310.08188
310.10993
310.1713
310.19792
310.25745
310.28273
310.34081
310.36478
310.42173
310.4444
310.50053
310.52186
310.57749
310.59737
310.65285
310.67107
310.72691
310.74296
310.80013
310.81244
310.87457
303.75138
305.07121
306.1576
306.75149
307.09902
307.44033
307.62847
307.86805
307.99303
308.17951
308.27182
308.42558
308.49852
308.63018
308.69064
308.80642
308.85834
308.96221
309.00798
309.10263
309.1438
309.23117
309.26874
309.35025
309.38493
309.46168
309.49394
309.56681
309.59697
309.66666
309.69497
309.76204
309.78866
309.85362
309.87863
309.9419
309.96537
310.02733
310.04926
310.11028
310.13062
310.19105
310.2097
310.26996
310.28666
310.34731
310.36152
310.42364
310.43372
310.50066
303.439
304.41823
305.46804
306.08721
306.45794
306.8295
307.03495
307.29846
307.43556
307.64116
307.74223
307.91172
307.99116
308.1361
308.2015
308.32872
308.38444
308.49834
308.54706
308.65063
308.69407
308.78946
308.82878
308.91759
308.95357
309.03703
309.07022
309.1493
309.18007
309.25557
309.28419
309.35675
309.38341
309.45359
309.4784
309.54667
309.5697
309.6365
309.65775
309.72348
309.74291
309.80798
309.82547
309.89034
309.90562
309.9709
309.9834
310.05022
310.05835
310.1296
303.1929
303.8792
304.85001
305.47159
305.85328
306.24643
306.4649
306.74804
306.89533
307.11745
307.22627
307.40971
307.49512
307.65204
307.72207
307.85974
307.91909
308.04223
308.0938
308.20564
308.25132
308.3542
308.39525
308.49091
308.5282
308.61797
308.65211
308.73707
308.76848
308.84949
308.87846
308.95624
308.98299
309.05814
309.0828
309.15585
309.17849
309.24992
309.27055
309.3408
309.35939
309.42891
309.44532
309.5146
309.52857
309.59826
309.60921
309.68043
309.68691
309.76199
302.99667
303.44622
304.30807
304.91109
305.29102
305.69634
305.92283
306.22073
306.37579
306.61143
306.72671
306.92207
307.01268
307.18009
307.2543
307.40128
307.46398
307.59545
307.64971
307.76908
307.8169
307.92665
307.96937
308.07135
308.10992
308.20557
308.24065
308.3311
308.36314
308.44933
308.47867
308.56136
308.58823
308.66808
308.69262
308.7702
308.79249
308.86831
308.88839
308.96293
308.98075
309.05448
309.06992
309.14337
309.15615
309.22999
309.23956
309.31486
309.31999
309.39846
302.8381
303.10721
303.8431
304.41008
304.77608
305.18387
305.4129
305.72025
305.8803
306.12614
306.2463
306.4513
306.54616
306.7224
306.80018
306.9552
307.02085
307.15964
307.21631
307.3424
307.39217
307.50811
307.55239
307.66012
307.6999
307.80091
307.83689
307.9324
307.96506
308.05604
308.08574
308.173
308.2
308.28423
308.30868
308.3905
308.41249
308.49243
308.51201
308.59057
308.60769
308.68538
308.69993
308.77729
308.789
308.8667
308.87507
308.95409
308.95816
309.03962
302.70824
302.84816
303.45263
303.97054
304.31188
304.71281
304.93874
305.25002
305.41197
305.66446
305.78768
305.99985
306.09783
306.28107
306.36167
306.52332
306.59142
306.73643
306.79517
306.92706
306.97854
307.09992
307.14558
307.25841
307.29928
307.40512
307.44191
307.54199
307.57522
307.67056
307.70061
307.79205
307.81917
307.90744
307.93181
308.01754
308.03926
308.12301
308.14213
308.22443
308.24092
308.32228
308.33603
308.41701
308.42778
308.50902
308.51638
308.59873
308.602
308.68609
302.60026
302.65423
303.13142
303.59211
303.90021
304.28582
304.50317
304.81288
304.97352
305.22898
305.35328
305.57001
305.6698
305.85812
305.94067
306.10745
306.17739
306.32741
306.38778
306.52451
306.57738
306.70338
306.7502
306.86745
306.90923
307.01929
307.05678
307.16091
307.19463
307.29387
307.3242
307.41941
307.44662
307.53855
307.56283
307.65213
307.67359
307.76083
307.77953
307.86524
307.88116
307.96587
307.97891
308.06318
308.07314
308.15757
308.1641
308.2494
308.25209
308.33848
302.50906
302.5112
302.87222
303.27219
303.54112
303.9043
304.10811
304.41104
304.56715
304.82192
304.94519
305.16383
305.26403
305.4554
305.53892
305.70927
305.78034
305.93413
305.99561
306.13614
306.19002
306.31978
306.36746
306.48839
306.53087
306.64453
306.68255
306.79018
306.82426
306.92691
306.95743
307.05597
307.08322
307.1784
307.20257
307.29505
307.31626
307.40661
307.42492
307.5137
307.5291
307.61683
307.62924
307.71645
307.72572
307.81297
307.81884
307.90671
307.90901
307.9974
302.4308
302.40628
302.66658
303.00644
303.23299
303.56835
303.75444
304.0459
304.19443
304.445
304.56514
304.78305
304.88217
305.07458
305.158
305.33031
305.40174
305.55799
305.62001
305.76326
305.81771
305.95032
305.99853
306.12237
306.1653
306.28188
306.32023
306.43077
306.46506
306.57059
306.60121
306.7026
306.72982
306.82781
306.85183
306.94707
306.96802
307.06111
307.07904
307.17052
307.18544
307.27582
307.28768
307.37747
307.38615
307.47585
307.48121
307.57125
307.57331
307.66341
302.36262
302.32868
302.50567
302.7892
302.9728
303.27678
303.44198
303.71799
303.85624
304.09938
304.21436
304.42902
304.52558
304.71702
304.79924
304.97192
305.04286
305.20027
305.26218
305.40706
305.4616
305.59614
305.64449
305.77045
305.81352
305.93232
305.97078
306.08361
306.11794
306.2258
306.25638
306.36011
306.38721
306.48755
306.51136
306.60895
306.6296
306.72502
306.74258
306.83636
306.85085
306.94349
306.95487
307.04684
307.05505
307.14681
307.15178
307.24362
307.24555
307.33708
302.30242
302.26983
302.38093
302.61409
302.75641
303.02729
303.16957
303.42704
303.55275
303.78563
303.8936
304.10265
304.19522
304.38379
304.46371
304.63518
304.70479
304.86204
304.92319
305.06861
305.12269
305.25823
305.30631
305.43357
305.47646
305.59678
305.63508
305.74957
305.78374
305.89336
305.92375
306.02931
306.05617
306.15838
306.18191
306.2814
306.30171
306.39903
306.41621
306.51189
306.52596
306.62046
306.63141
306.72518
306.733
306.82641
306.83112
306.92438
306.92625
307.01895
302.24868
302.22328
302.2845
302.47446
302.57891
302.81668
302.93515
303.17193
303.28341
303.50369
303.60305
303.80443
303.89167
304.0756
304.15215
304.32092
304.38835
304.54419
304.60389
304.74876
304.80186
304.93746
304.98484
305.11258
305.15494
305.27605
305.31392
305.42943
305.46322
305.57401
305.60404
305.7109
305.7374
305.84099
305.86414
305.96506
305.98498
306.08377
306.10055
306.1977
306.21136
306.30732
306.31789
306.41304
306.42054
306.51522
306.51974
306.61406
306.61593
306.70951
302.20026
302.1845
302.20962
302.36391
302.43507
302.64109
302.73595
302.95086
303.04702
303.25292
303.3424
303.53433
303.61508
303.7928
303.86498
304.02968
304.09412
304.24734
304.30493
304.44822
304.49979
304.63453
304.68076
304.80819
304.84965
304.97084
305.00798
305.12387
305.15703
305.26843
305.2979
305.40552
305.43151
305.53598
305.55865
305.66055
305.68001
305.77983
305.79616
305.89436
305.90762
306.00461
306.01482
306.11096
306.11819
306.21375
306.21813
306.31317
306.31506
306.40925
302.15637
302.15048
302.15069
302.27652
302.31957
302.4963
302.56867
302.76143
302.84182
303.03213
303.11082
303.2919
303.3652
303.53534
303.6023
303.76169
303.82237
303.97189
304.02673
304.16746
304.21695
304.34998
304.39462
304.52096
304.56115
304.68173
304.71783
304.83346
304.86576
304.97717
305.00589
305.11374
305.13907
305.24392
305.266
305.36839
305.38732
305.48771
305.50356
305.60237
305.61521
305.71282
305.7227
305.81941
305.82641
305.92246
305.92675
306.02216
306.02408
306.11859
302.1164
302.11943
302.10331
302.20716
302.22739
302.37797
302.4297
302.60084
302.66558
302.83968
302.90704
303.07625
303.14139
303.30285
303.36385
303.51687
303.57313
303.71796
303.76945
303.90673
303.95365
304.08415
304.12676
304.25128
304.28984
304.40913
304.4439
304.55865
304.58984
304.7007
304.72847
304.83601
304.86053
304.96527
304.98663
305.08905
305.10736
305.20787
305.22319
305.32219
305.33459
305.4324
305.44194
305.53883
305.54562
305.64177
305.64599
305.74144
305.74338
305.83794
302.07988
302.09034
302.06417
302.1515
302.15394
302.28188
302.31532
302.46601
302.51573
302.67354
302.72941
302.88613
302.94263
303.09459
303.14907
303.29484
303.34613
303.48541
303.53305
303.66607
303.70996
303.83719
303.87737
303.99938
304.03597
304.15333
304.18648
304.29977
304.3296
304.43936
304.46599
304.57271
304.59624
304.70038
304.72092
304.8229
304.8405
304.94069
304.95543
305.05418
305.06611
305.16371
305.1729
305.26959
305.27616
305.37207
305.37621
305.47137
305.47332
305.56763
302.04647
302.06277
302.03087
302.10609
302.09524
302.2041
302.22187
302.35374
302.38951
302.53142
302.57601
302.71998
302.76763
302.90953
302.95711
303.09496
303.14084
303.27388
303.31723
303.44531
303.48576
303.60906
303.64645
303.76532
303.79963
303.91448
303.94573
304.057
304.08524
304.19337
304.21866
304.32407
304.34648
304.44955
304.46912
304.57022
304.58702
304.68647
304.70055
304.79865
304.81006
304.90707
304.91589
305.01199
305.01833
305.11365
305.1177
305.21225
305.21421
305.30796
302.01586
302.03656
302.00179
302.06825
302.04795
302.14111
302.14591
302.26092
302.28409
302.41089
302.44469
302.576
302.61484
302.74639
302.78687
302.91634
302.95651
303.08275
303.12149
303.24405
303.28074
303.39952
303.43383
303.549
303.58074
303.69254
303.72165
303.8304
303.85683
303.96286
303.98662
304.09026
304.11138
304.21294
304.23143
304.33122
304.34713
304.44542
304.45878
304.55583
304.56668
304.6627
304.67113
304.76628
304.77238
304.86676
304.8707
304.96434
304.96627
305.05919
301.98782
302.01174
301.97583
302.03601
302.00935
302.08988
302.08431
302.18454
302.19668
302.30943
302.33319
302.45223
302.48251
302.60369
302.63705
302.75788
302.79217
302.91123
302.94513
303.06171
303.09438
303.20819
303.23915
303.35014
303.37908
303.48737
303.51411
303.61987
303.64431
303.74778
303.76987
303.87129
303.89099
303.99062
304.00792
304.106
304.12092
304.21767
304.23023
304.32586
304.3361
304.43078
304.43877
304.53263
304.53846
304.63158
304.63538
304.72782
304.7297
304.82148
301.96212
301.98834
301.95234
302.00793
301.97735
302.04788
302.03432
302.12187
302.12462
302.22459
302.23926
302.34663
302.3688
302.4798
302.50619
302.61829
302.64669
302.75833
302.78726
302.89754
302.92603
303.03449
303.06191
303.16833
303.19428
303.29864
303.32285
303.42522
303.4475
303.54801
303.56827
303.66709
303.68524
303.78256
303.79857
303.89456
303.90841
304.00326
304.01496
304.10881
304.11839
304.21139
304.2189
304.31115
304.31667
304.40824
304.41186
304.50281
304.50461
304.59499
301.93859
301.96644
301.93089
301.98306
301.95034
302.01305
301.9936
302.07046
302.06546
302.15402
302.16065
302.25716
302.27182
302.37301
302.39272
302.4962
302.51879
302.62293
302.64687
302.75066
302.77487
302.87771
302.90148
303.00302
303.02584
303.12594
303.14747
303.2461
303.2661
303.3633
303.38161
303.47748
303.49398
303.58863
303.60326
303.69682
303.70953
303.80213
303.81292
303.90467
303.91354
304.00454
304.01153
304.10187
304.10704
304.19677
304.20019
304.28937
304.29109
304.37978
301.91705
301.94606
301.91126
301.96073
301.92716
301.98379
301.96022
302.0282
302.01698
302.09554
302.09524
302.1818
302.18967
302.28158
302.29503
302.39012
302.40712
302.50381
302.52283
302.62005
302.63998
302.73702
302.75708
302.85351
302.87312
302.9687
302.98746
303.08206
303.09968
303.19328
303.20955
303.30216
303.31693
303.40861
303.42178
303.51261
303.52411
303.61417
303.62398
303.71333
303.72144
303.81017
303.8166
303.90475
303.90954
303.99716
304.00035
304.08751
304.08911
304.17587
301.89737
301.9272
301.89329
301.94053
301.90697
301.95886
301.9326
301.9933
301.97728
302.04719
302.04107
302.11867
302.12052
302.20379
302.21148
302.29855
302.31026
302.39967
302.41394
302.5046
302.52033
302.61149
302.62786
302.71903
302.73541
302.82627
302.84222
302.93257
302.94775
303.03749
303.05166
303.14076
303.15373
303.24218
303.25383
303.34166
303.35191
303.43915
303.44794
303.53464
303.54194
303.62814
303.63396
303.71968
303.72405
303.80933
303.81226
303.89716
303.89864
303.98321
301.87943
301.90985
301.87692
301.9222
301.8892
301.93736
301.90953
301.96429
301.94471
302.00724
301.99636
302.066
302.06264
302.13797
302.14048
302.21999
302.2268
302.30917
302.31894
302.40316
302.41483
302.50013
302.51287
302.59872
302.61189
302.69791
302.71104
302.79698
302.8097
302.8954
302.90743
302.99281
303.00395
303.08895
303.09905
303.18365
303.19259
303.2768
303.28453
303.36834
303.37481
303.45824
303.46343
303.5465
303.55042
303.63314
303.63578
303.7182
303.71954
303.8017
301.86311
301.89398
301.86208
301.90556
301.87346
301.91862
301.89007
301.94
301.91791
301.97419
301.95955
302.02219
302.01443
302.08256
302.0805
302.15297
302.15531
302.231
302.23657
302.31455
302.32235
302.40188
302.41112
302.49165
302.50169
302.58282
302.59317
302.67459
302.68486
302.76639
302.77629
302.85778
302.86707
302.94844
302.95697
303.03815
303.04578
303.12675
303.13339
303.21412
303.21973
303.30021
303.30474
303.38496
303.3884
303.46837
303.47071
303.55046
303.55164
303.63121
301.84834
301.87955
301.84874
301.89052
301.8595
301.90217
301.8735
301.91949
301.89576
301.94678
301.92926
301.98581
301.97443
302.03611
302.0301
302.09609
302.09444
302.16384
302.16557
302.23756
302.24176
302.31566
302.32159
302.39686
302.4039
302.48013
302.48777
302.56464
302.57251
302.64978
302.65756
302.73506
302.74252
302.82013
302.82708
302.90471
302.91101
302.98859
302.99414
303.07162
303.07635
303.15371
303.15757
303.23477
303.23773
303.31477
303.31679
303.3937
303.39472
303.47151
301.83507
301.86654
301.83685
301.877
301.84714
301.88767
301.8593
301.90204
301.87735
301.92397
301.90434
301.95563
301.94135
301.99729
301.98795
302.04803
302.0429
302.10644
302.10471
302.17103
302.17191
302.2404
302.24323
302.31338
302.31756
302.38895
302.39401
302.46632
302.47187
302.54484
302.55057
302.62401
302.62968
302.70343
302.70883
302.78279
302.78777
302.86185
302.8663
302.94042
302.94426
303.01837
303.02154
303.0956
303.09805
303.17204
303.17371
303.24764
303.2485
303.32236
301.82327
301.85492
301.82638
301.86496
301.83626
301.87489
301.84709
301.88711
301.86199
301.90491
301.88382
301.93059
301.91406
301.96494
301.95286
302.0076
301.99948
302.05762
302.05282
302.11382
302.11171
302.17504
302.17501
302.2402
302.24172
302.30838
302.311
302.3788
302.38214
302.45083
302.45459
302.52394
302.52786
302.59772
302.6016
302.67183
302.67552
302.746
302.74938
302.82003
302.823
302.89375
302.89624
302.96704
302.96898
303.0398
303.04114
303.11197
303.11266
303.18347
301.81296
301.84469
301.8173
301.85433
301.82676
301.86365
301.83659
301.87428
301.84912
301.88891
301.8669
301.90978
301.89159
301.93802
301.92374
301.9737
301.96306
302.01627
302.00882
302.06486
302.06009
302.11854
302.11592
302.17637
302.17544
302.23751
302.23786
302.30125
302.30251
302.36697
302.36885
302.43414
302.43639
302.50234
302.50477
302.57123
302.57366
302.64051
302.64283
302.70996
302.71207
302.7794
302.78121
302.84868
302.85011
302.91768
302.91868
302.98631
302.98684
303.0545
301.80417
301.83584
301.80957
301.84508
301.81858
301.85381
301.82758
301.86322
301.8383
301.87541
301.85291
301.89246
301.87309
301.91564
301.89965
301.94535
301.93266
301.98137
301.97168
302.02314
302.01605
302.06992
302.06501
302.12093
302.1178
302.17546
302.17372
302.23283
302.23216
302.29247
302.29259
302.35387
302.35455
302.41661
302.41765
302.48035
302.48159
302.54478
302.54609
302.60967
302.61094
302.67481
302.67595
302.74004
302.74098
302.80524
302.80591
302.87028
302.87064
302.93509
301.79699
301.82838
301.80314
301.83713
301.81163
301.84527
301.8199
301.85369
301.82921
301.864
301.84135
301.87801
301.85789
301.89704
301.87979
301.92169
301.90737
301.95203
301.94047
301.98773
301.97866
302.02826
302.02134
302.07301
302.0679
302.12135
302.11773
302.17272
302.17028
302.22655
302.22506
302.2824
302.28162
302.33986
302.33959
302.39856
302.39867
302.45822
302.45856
302.51859
302.51906
302.57946
302.57996
302.64065
302.64111
302.70202
302.70238
302.76345
302.76365
302.82483
301.79144
301.82225
301.79796
301.83041
301.80584
301.83793
301.81341
301.8455
301.82159
301.85433
301.83178
301.86593
301.84539
301.88157
301.86344
301.90198
301.88641
301.92741
301.91436
301.95777
301.94704
301.99269
301.98405
302.03173
302.0249
302.07437
302.06908
302.12011
302.11609
302.16847
302.1655
302.21902
302.21689
302.27138
302.26991
302.32521
302.32426
302.38022
302.37965
302.43616
302.43587
302.49281
302.49271
302.55
302.55
302.60756
302.60761
302.66537
302.66542
302.72332
301.78753
301.81743
301.79395
301.82485
301.80112
301.83169
301.808
301.83849
301.81522
301.84612
301.82386
301.8558
301.83512
301.86869
301.85
301.88556
301.86909
301.90681
301.89259
301.9325
301.92043
301.96244
301.95236
301.99631
301.98801
302.03372
302.02697
302.07425
302.06882
302.11747
302.11318
302.16301
302.15966
302.21051
302.20795
302.25966
302.25773
302.31016
302.30876
302.36179
302.36079
302.41431
302.41364
302.46756
302.46714
302.52136
302.52112
302.57559
302.57548
302.63011
301.78515
301.81379
301.79099
301.82033
301.79738
301.82645
301.80356
301.83252
301.80995
301.83916
301.81733
301.8473
301.8267
301.85795
301.83899
301.87189
301.85481
301.88959
301.8745
301.91124
301.89812
301.93679
301.92553
301.96603
301.95649
301.99868
301.99068
302.0344
302.02776
302.07285
302.0674
302.11369
302.10925
302.15659
302.15303
302.20126
302.19846
302.24745
302.24527
302.2949
302.29326
302.34342
302.34222
302.39281
302.39199
302.44293
302.44242
302.49361
302.49338
302.54475
301.78409
301.8112
301.78897
301.81674
301.79451
301.82211
301.79998
301.82749
301.80561
301.83327
301.81196
301.84016
301.8198
301.84899
301.82997
301.86051
301.84308
301.87522
301.85952
301.89339
301.87947
301.91508
301.9029
301.9402
301.92965
301.96857
301.95952
301.99991
301.99222
302.03395
302.02748
302.07039
302.06501
302.10897
302.10454
302.14941
302.14582
302.19147
302.18861
302.23493
302.2327
302.27957
302.2779
302.32524
302.32405
302.37175
302.371
302.41898
302.41862
302.46679
301.78405
301.80947
301.78773
301.81397
301.7924
301.81857
301.79717
301.82327
301.80211
301.8283
301.80757
301.83415
301.81417
301.8415
301.82259
301.85102
301.83345
301.86321
301.84715
301.87841
301.86393
301.89675
301.88387
301.91824
301.90689
301.94275
301.93286
301.97012
301.96158
302.00012
301.9928
302.03251
302.02631
302.06705
302.06186
302.10351
302.09922
302.14166
302.13818
302.1813
302.17855
302.22224
302.22014
302.26431
302.2628
302.30734
302.30637
302.35121
302.35073
302.39577
301.78468
301.80841
301.78714
301.81188
301.79095
301.81572
301.79502
301.81977
301.79931
301.82412
301.80401
301.82909
301.80958
301.83523
301.81658
301.84309
301.82556
301.85318
301.83695
301.86585
301.85103
301.8813
301.86792
301.89959
301.88765
301.92068
301.91013
301.94447
301.93523
301.97079
301.96277
301.99945
301.99256
302.03024
302.0244
302.06298
302.0581
302.09746
302.09345
302.13349
302.13028
302.17089
302.16842
302.20951
302.20772
302.2492
302.24803
302.28981
302.28924
302.33123
301.78568
301.80782
301.78704
301.81034
301.79004
301.81346
301.79345
301.81689
301.79713
301.82062
301.80116
301.82484
301.80586
301.82996
301.81169
301.83646
301.81911
301.8448
301.82856
301.85532
301.84032
301.86827
301.85459
301.88377
301.87142
301.90184
301.8908
301.92243
301.91264
301.94541
301.93684
301.97066
301.96322
301.99801
301.99163
302.02729
302.02191
302.05833
302.05387
302.09096
302.08736
302.12502
302.12222
302.16036
302.15831
302.19684
302.1955
302.23433
302.23367
302.27271
301.78681
301.80754
301.7873
301.80925
301.78957
301.8117
301.79236
301.81455
301.79547
301.8177
301.79891
301.82127
301.80287
301.82554
301.80771
301.8309
301.81385
301.83776
301.82166
301.84648
301.83146
301.85729
301.84345
301.87037
301.85775
301.88578
301.87439
301.90351
301.89333
301.9235
301.9145
301.94565
301.93778
301.96984
301.96304
301.99593
301.99014
302.02377
302.01894
302.05322
302.04929
302.08413
302.08106
302.11637
302.11411
302.1498
302.14832
302.18431
302.18357
302.21978
301.78791
301.80744
301.7878
301.80848
301.78945
301.81034
301.79167
301.81265
301.79426
301.81528
301.79715
301.81826
301.80047
301.82181
301.80449
301.82622
301.80955
301.83185
301.81599
301.83903
301.82413
301.84803
301.83417
301.85901
301.84627
301.87209
301.8605
301.88729
301.87685
301.9046
301.8953
301.92396
301.91576
301.94527
301.93814
301.96843
301.96232
301.99331
301.98818
302.0198
302.01561
302.04776
302.04447
302.07708
302.07464
302.10763
302.10603
302.1393
302.13851
302.17199
301.78893
301.80743
301.78845
301.80795
301.78958
301.8093
301.7913
301.81112
301.79341
301.81327
301.79581
301.81573
301.79857
301.81865
301.80188
301.82226
301.80604
301.82685
301.81133
301.83275
301.81806
301.84018
301.82643
301.84936
301.83663
301.86041
301.84874
301.87339
301.86281
301.88832
301.87882
301.90516
301.89674
301.92387
301.9165
301.94435
301.938
301.96652
301.96116
301.99026
301.98586
302.01548
302.01201
302.04206
302.03948
302.06989
302.06819
302.09888
302.09804
302.12893
301.78984
301.80744
301.78917
301.80759
301.78989
301.80851
301.79118
301.80989
301.79285
301.8116
301.7948
301.8136
301.79706
301.81596
301.79977
301.81888
301.80316
301.82261
301.80749
301.82741
301.81302
301.83352
301.81997
301.84115
301.82853
301.85044
301.8388
301.86147
301.85085
301.87429
301.8647
301.88889
301.88034
301.90524
301.89772
301.92329
301.91678
301.94297
301.93745
301.96419
301.95964
301.98686
301.98326
302.01089
302.00821
302.03619
302.03441
302.06265
302.06177
302.09021
301.79064
301.80745
301.78992
301.80734
301.79032
301.8079
301.79124
301.80891
301.79252
301.81022
301.79407
301.81178
301.79588
301.81366
301.79806
301.81598
301.8008
301.81897
301.8043
301.82284
301.80882
301.82783
301.81456
301.83413
301.8217
301.8419
301.83037
301.85123
301.84065
301.86218
301.85259
301.87479
301.86619
301.88903
301.88144
301.90489
301.89829
301.9223
301.91668
301.9412
301.93656
301.96153
301.95784
301.9832
301.98045
302.00612
302.0043
302.03023
302.02932
302.05544
301.79134
301.80742
301.79066
301.80714
301.79083
301.80743
301.79144
301.8081
301.79237
301.80905
301.79355
301.81022
301.79495
301.81166
301.79667
301.81347
301.79883
301.81581
301.80164
301.8189
301.8053
301.82294
301.81001
301.82811
301.81594
301.83456
301.82322
301.8424
301.83196
301.85173
301.84221
301.86256
301.854
301.87492
301.86733
301.8888
301.88217
301.90416
301.8985
301.92096
301.91626
301.93913
301.93539
301.95861
301.95582
301.97934
301.97749
302.00125
302.00032
302.02426
301.79197
301.80736
301.79137
301.80697
301.79137
301.80704
301.79172
301.80742
301.79234
301.80804
301.79318
301.80886
301.79421
301.8099
301.79551
301.81125
301.79718
301.81305
301.7994
301.81547
301.80233
301.81869
301.80615
301.82289
301.81105
301.82821
301.81713
301.83477
301.82453
301.84267
301.83329
301.85194
301.84348
301.86263
301.85509
301.87474
301.86814
301.88825
301.8826
301.90312
301.89842
301.91933
301.91557
301.93681
301.934
301.95551
301.95364
301.97537
301.97444
301.99634
301.79253
301.80726
301.79203
301.80681
301.79191
301.8067
301.79205
301.80683
301.79239
301.80715
301.79291
301.80764
301.7936
301.80832
301.79453
301.80926
301.79577
301.81059
301.79747
301.81243
301.79977
301.81496
301.80285
301.81833
301.80686
301.82269
301.81192
301.82814
301.81814
301.83479
301.82561
301.8427
301.83438
301.85191
301.84447
301.86243
301.85591
301.87428
301.86867
301.88742
301.88275
301.90183
301.8981
301.91748
301.91468
301.93432
301.93245
301.95229
301.95136
301.97135
301.79303
301.80711
301.79264
301.80664
301.79243
301.80639
301.79239
301.8063
301.79248
301.80633
301.7927
301.80651
301.79308
301.80686
301.79366
301.80744
301.79453
301.80835
301.79578
301.80971
301.79755
301.81164
301.79999
301.81431
301.80324
301.81783
301.80741
301.82233
301.81263
301.8279
301.81897
301.83461
301.82649
301.84252
301.83524
301.85164
301.84523
301.862
301.85648
301.87358
301.86897
301.88637
301.88268
301.90035
301.89757
301.91547
301.91362
301.9317
301.93078
301.94901
301.79346
301.80693
301.79319
301.80644
301.79292
301.80608
301.79271
301.80577
301.79256
301.80555
301.79251
301.80544
301.7926
301.80549
301.79287
301.80574
301.79339
301.80629
301.79426
301.80721
301.79558
301.80865
301.79747
301.81071
301.80007
301.81353
301.80349
301.81721
301.80783
301.82185
301.81319
301.82751
301.81962
301.83427
301.82718
301.84215
301.8359
301.85118
301.84579
301.86136
301.85685
301.87269
301.86906
301.88515
301.88242
301.89871
301.89689
301.91335
301.91244
301.92903
301.79385
301.80671
301.79369
301.80622
301.79336
301.80574
301.79299
301.80524
301.79262
301.80477
301.7923
301.80439
301.79212
301.80415
301.7921
301.80411
301.79232
301.80433
301.79285
301.8049
301.79378
301.8059
301.79521
301.80745
301.79725
301.80967
301.80003
301.81265
301.80362
301.81648
301.80813
301.82124
301.81361
301.82699
301.82012
301.83378
301.82771
301.84163
301.83638
301.85056
301.84616
301.86057
301.85703
301.87166
301.869
301.88381
301.88202
301.89699
301.89609
301.91118
301.79418
301.80645
301.79413
301.80595
301.79374
301.80536
301.79321
301.80466
301.79261
301.80394
301.79205
301.80331
301.7916
301.80282
301.79133
301.80252
301.79128
301.80245
301.79151
301.8027
301.7921
301.80334
301.79313
301.80446
301.79471
301.80616
301.79693
301.80853
301.79988
301.81167
301.80365
301.81565
301.80831
301.82053
301.81391
301.82636
301.82049
301.83317
301.82809
301.84099
301.83672
301.84982
301.84639
301.85967
301.85708
301.87053
301.8688
301.88238
301.88151
301.89521
301.79446
301.80617
301.79451
301.80564
301.79404
301.80491
301.79333
301.80401
301.7925
301.80306
301.7917
301.80219
301.79102
301.80146
301.79051
301.80092
301.79022
301.80061
301.79019
301.80058
301.79049
301.8009
301.79119
301.80166
301.79237
301.80292
301.79412
301.80479
301.79653
301.80734
301.79966
301.81064
301.8036
301.81476
301.8084
301.81975
301.81411
301.82564
301.82075
301.83247
301.82836
301.84025
301.83694
301.84899
301.84649
301.85869
301.85701
301.86933
301.86849
301.88092
301.79469
301.80585
301.79483
301.80528
301.79425
301.80439
301.79334
301.80326
301.79229
301.80208
301.79126
301.80099
301.79035
301.80004
301.78963
301.79929
301.78912
301.79876
301.78887
301.7985
301.78892
301.79856
301.78933
301.799
301.79018
301.7999
301.79153
301.80134
301.79347
301.80338
301.79606
301.8061
301.79938
301.80957
301.80349
301.81382
301.80842
301.81891
301.81422
301.82487
301.82092
301.83171
301.82852
301.83946
301.83705
301.84811
301.8465
301.85766
301.85685
301.86811
301.79487
301.80551
301.79509
301.80485
301.79435
301.80376
301.79322
301.8024
301.79193
301.80099
301.79067
301.79969
301.78957
301.79854
301.78865
301.7976
301.78796
301.79689
301.78751
301.79643
301.78735
301.79626
301.78753
301.79645
301.78809
301.79704
301.7891
301.79811
301.79064
301.79973
301.79278
301.80196
301.79556
301.80485
301.79906
301.80847
301.80332
301.81286
301.80838
301.81805
301.81427
301.82406
301.82101
301.83092