/*--------------------------------*- C++ -*----------------------------------*\
| =========                 |                                                 |
| \\      /  F ield         | OpenFOAM: The Open Source CFD Toolbox           |
|  \\    /   O peration     | Version:  2312                                  |
|   \\  /    A nd           | Website:  www.openfoam.com                      |
|    \\/     M anipulation  |                                                 |
\*---------------------------------------------------------------------------*/
FoamFile
{
    version     2.0;
    format      ascii;
    arch        "LSB;label=32;scalar=64";
    class       volVectorField;
    location    "6";
    object      U;
}
// * * * * * * * * * * * * * * * * * * * * * * * * * * * * * * * * * * * * * //

dimensions      [0 1 -1 0 0 0 0];

internalField   nonuniform List<vector> 
4000
(
(0.0023318444 0.00042481813 0)
(0.0030396562 -6.8385774e-06 0)
(0.0024290997 -3.4651054e-07 0)
(0.0025689587 2.2551654e-07 0)
(0.0024867268 -2.6043925e-07 0)
(0.0025432524 2.3499202e-07 0)
(0.0024909213 -2.218145e-07 0)
(0.0025384103 2.0826173e-07 0)
(0.0024941865 -1.9548647e-07 0)
(0.0025355225 1.8388776e-07 0)
(0.0024967137 -1.7306787e-07 0)
(0.0025331243 1.628479e-07 0)
(0.0024989147 -1.5332185e-07 0)
(0.0025310318 1.4433828e-07 0)
(0.0025008686 -1.3592331e-07 0)
(0.002529184 1.2801498e-07 0)
(0.0025026038 -1.2059279e-07 0)
(0.0025275466 1.136303e-07 0)
(0.0025041447 -1.0709285e-07 0)
(0.002526093 1.0096755e-07 0)
(0.0025055138 -9.5217388e-08 0)
(0.0025248009 8.9835473e-08 0)
(0.002506732 -8.4786165e-08 0)
(0.0025236504 8.0065791e-08 0)
(0.0025078174 -7.5641234e-08 0)
(0.0025226241 7.1510779e-08 0)
(0.0025087866 -6.7644182e-08 0)
(0.0025217066 6.4040983e-08 0)
(0.0025096543 -6.0673888e-08 0)
(0.002520884 5.754324e-08 0)
(0.0025104335 -5.4624663e-08 0)
(0.0025201437 5.191898e-08 0)
(0.0025111361 -4.9404661e-08 0)
(0.0025194748 4.7082774e-08 0)
(0.0025117727 -4.4934537e-08 0)
(0.0025188669 4.2961099e-08 0)
(0.002512353 -4.1146319e-08 0)
(0.002518311 3.9491306e-08 0)
(0.0025128858 -3.7982469e-08 0)
(0.0025177985 3.6620795e-08 0)
(0.0025133791 -3.5395171e-08 0)
(0.0025173217 3.4306474e-08 0)
(0.0025138405 -3.3345959e-08 0)
(0.0025168734 3.2514503e-08 0)
(0.0025142766 -3.1807337e-08 0)
(0.0025164462 3.1217945e-08 0)
(0.0025146942 -3.0770563e-08 0)
(0.0025160462 3.0430511e-08 0)
(0.0025151751 -2.9969776e-08 0)
(0.0025159521 3.2062299e-08 0)
(0.0062511318 0.0011594694 0)
(0.0085518619 1.8791076e-06 0)
(0.0071241335 4.8534942e-06 0)
(0.0074446177 3.0663163e-07 0)
(0.0072183268 -6.0580735e-07 0)
(0.0073831238 8.1554022e-07 0)
(0.0072294697 -7.5498888e-07 0)
(0.0073698149 7.2655802e-07 0)
(0.0072391307 -6.8641706e-07 0)
(0.0073614414 6.4828305e-07 0)
(0.0072466079 -6.0987012e-07 0)
(0.0073543681 5.7474997e-07 0)
(0.007253128 -5.407777e-07 0)
(0.0073481778 5.0934909e-07 0)
(0.0072589188 -4.7953514e-07 0)
(0.0073427084 4.5170264e-07 0)
(0.0072640622 -4.2548777e-07 0)
(0.0073378605 4.0093609e-07 0)
(0.0072686302 -3.7787216e-07 0)
(0.007333556 3.5625931e-07 0)
(0.00727269 -3.359813e-07 0)
(0.0073297286 3.1698836e-07 0)
(0.0072763027 -2.9918529e-07 0)
(0.0073263199 2.8252693e-07 0)
(0.0072795228 -2.669286e-07 0)
(0.0073232783 2.5235298e-07 0)
(0.0072823991 -2.3872326e-07 0)
(0.0073205579 2.2600943e-07 0)
(0.0072849752 -2.1414191e-07 0)
(0.0073181175 2.0309678e-07 0)
(0.0072872899 -1.9281148e-07 0)
(0.0073159202 1.8326702e-07 0)
(0.0072893785 -1.7440772e-07 0)
(0.0073139327 1.6621851e-07 0)
(0.0072912725 -1.5865045e-07 0)
(0.007312125 1.5169155e-07 0)
(0.0072930008 -1.4529945e-07 0)
(0.0073104696 1.3946463e-07 0)
(0.0072945896 -1.3415105e-07 0)
(0.0073089414 1.2935117e-07 0)
(0.0072960629 -1.2503526e-07 0)
(0.0073075173 1.2119708e-07 0)
(0.0072974433 -1.178129e-07 0)
(0.0073061754 1.1488246e-07 0)
(0.0072987512 -1.1236696e-07 0)
(0.0073048931 1.1031373e-07 0)
(0.0073000043 -1.0877392e-07 0)
(0.0073036692 1.0653833e-07 0)
(0.0073013733 -1.1054677e-07 0)
(0.0073032036 1.023089e-07 0)
(0.010016867 0.0018381936 0)
(0.013788034 -1.0010877e-05 0)
(0.011700645 1.2330855e-05 0)
(0.012195351 5.0974616e-07 0)
(0.011824098 -9.3059405e-07 0)
(0.012101249 1.4765057e-06 0)
(0.011843561 -1.359108e-06 0)
(0.012079857 1.3155108e-06 0)
(0.011859941 -1.2471971e-06 0)
(0.012065901 1.178934e-06 0)
(0.011872537 -1.1090467e-06 0)
(0.012054011 1.0456493e-06 0)
(0.011883524 -9.8365626e-07 0)
(0.01204359 9.2660416e-07 0)
(0.011893282 -8.7232263e-07 0)
(0.012034379 8.2169844e-07 0)
(0.011901949 -7.7401844e-07 0)
(0.012026214 7.2933397e-07 0)
(0.011909646 -6.8739766e-07 0)
(0.012018963 6.4805559e-07 0)
(0.011916488 -6.1118661e-07 0)
(0.012012515 5.7661317e-07 0)
(0.011922577 -5.4424315e-07 0)
(0.012006772 5.139203e-07 0)
(0.011928005 -4.855576e-07 0)
(0.012001646 4.5902685e-07 0)
(0.011932854 -4.3424232e-07 0)
(0.011997062 4.1110105e-07 0)
(0.011937197 -3.8951964e-07 0)
(0.011992948 3.694159e-07 0)
(0.011941101 -3.5071056e-07 0)
(0.011989243 3.3333807e-07 0)
(0.011944624 -3.1722481e-07 0)
(0.011985891 3.0231848e-07 0)
(0.01194782 -2.8855223e-07 0)
(0.01198284 2.7588425e-07 0)
(0.011950738 -2.6425525e-07 0)
(0.011980046 2.536317e-07 0)
(0.011953421 -2.4396241e-07 0)
(0.011977464 2.3522032e-07 0)
(0.011955912 -2.2736296e-07 0)
(0.011975057 2.2036753e-07 0)
(0.011958247 -2.1420059e-07 0)
(0.011972787 2.0885265e-07 0)
(0.011960461 -2.042461e-07 0)
(0.011970615 2.0051504e-07 0)
(0.011962585 -1.9763076e-07 0)
(0.011968527 1.9320108e-07 0)
(0.011964857 -2.0329712e-07 0)
(0.011967579 1.8481801e-07 0)
(0.013924636 0.0025315779 0)
(0.018818169 -1.4874605e-05 0)
(0.016154247 2.2735532e-05 0)
(0.016820621 4.8382991e-07 0)
(0.016303947 -1.0765922e-06 0)
(0.01669787 2.0969125e-06 0)
(0.016333011 -1.9282344e-06 0)
(0.016668757 1.8753832e-06 0)
(0.016356444 -1.7860545e-06 0)
(0.016649104 1.68958e-06 0)
(0.016374346 -1.5894684e-06 0)
(0.016632235 1.4992815e-06 0)
(0.016389962 -1.4101358e-06 0)
(0.01661743 1.3284998e-06 0)
(0.016403832 -1.250628e-06 0)
(0.01660434 1.1780403e-06 0)
(0.016416151 -1.1097117e-06 0)
(0.016592735 1.0456002e-06 0)
(0.016427092 -9.8552111e-07 0)
(0.016582429 9.2906625e-07 0)
(0.016436816 -8.7624901e-07 0)
(0.016573264 8.2663721e-07 0)
(0.016445471 -7.8026337e-07 0)
(0.016565101 7.3675304e-07 0)
(0.016453186 -6.9611792e-07 0)
(0.016557816 6.5805086e-07 0)
(0.016460079 -6.2254009e-07 0)
(0.016551299 5.893378e-07 0)
(0.016466253 -5.5841455e-07 0)
(0.016545451 5.2957127e-07 0)
(0.016471803 -5.0276738e-07 0)
(0.016540184 4.7784297e-07 0)
(0.016476812 -4.5475185e-07 0)
(0.016535417 4.3336539e-07 0)
(0.016481357 -4.1363607e-07 0)
(0.01653108 3.9546018e-07 0)
(0.016485506 -3.7879216e-07 0)
(0.016527105 3.6354814e-07 0)
(0.016489323 -3.4968688e-07 0)
(0.016523433 3.3714025e-07 0)
(0.016492866 -3.2587365e-07 0)
(0.016520008 3.158297e-07 0)
(0.016496189 -3.0698259e-07 0)
(0.016516776 2.9929945e-07 0)
(0.016499342 -2.9266595e-07 0)
(0.016513684 2.8733993e-07 0)
(0.016502367 -2.8311574e-07 0)
(0.016510696 2.7626337e-07 0)
(0.016505555 -2.9494144e-07 0)
(0.016509152 2.639515e-07 0)
(0.017391852 0.003035251 0)
(0.023602551 -4.0296366e-05 0)
(0.020487394 3.5256658e-05 0)
(0.021320327 3.4539614e-07 0)
(0.020657914 -1.0356269e-06 0)
(0.021172888 2.6441371e-06 0)
(0.020697934 -2.4412527e-06 0)
(0.021136392 2.3818139e-06 0)
(0.020728735 -2.2811907e-06 0)
(0.02111094 2.1592085e-06 0)
(0.020752118 -2.0314031e-06 0)
(0.021088941 1.9170367e-06 0)
(0.020772518 -1.8026722e-06 0)
(0.021069611 1.6985447e-06 0)
(0.020790635 -1.5988876e-06 0)
(0.021052517 1.5061043e-06 0)
(0.020806725 -1.4187581e-06 0)
(0.02103736 1.3367549e-06 0)
(0.020821015 -1.2599801e-06 0)
(0.021023899 1.1877581e-06 0)
(0.020833716 -1.1202675e-06 0)
(0.021011929 1.0567992e-06 0)
(0.020845019 -9.9754098e-07 0)
(0.021001268 9.4188038e-07 0)
(0.020855096 -8.8995319e-07 0)
(0.020991753 8.4125807e-07 0)
(0.020864097 -7.9587718e-07 0)
(0.020983241 7.5340671e-07 0)
(0.020872161 -7.1388658e-07 0)
(0.020975604 6.7699294e-07 0)
(0.020879409 -6.4273569e-07 0)
(0.020968725 6.1085513e-07 0)
(0.020885951 -5.8134145e-07 0)
(0.020962501 5.5398611e-07 0)
(0.020891886 -5.2876765e-07 0)
(0.020956836 5.0551826e-07 0)
(0.020897305 -4.8421106e-07 0)
(0.020951646 4.6471062e-07 0)
(0.020902289 -4.4698931e-07 0)
(0.02094685 4.3093728e-07 0)
(0.020906916 -4.1653049e-07 0)
(0.020942377 4.0367645e-07 0)
(0.020911255 -3.9235952e-07 0)
(0.020938157 3.8252284e-07 0)
(0.020915373 -3.7400868e-07 0)
(0.020934118 3.6724107e-07 0)
(0.020919325 -3.6171439e-07 0)
(0.020930206 3.5241487e-07 0)
(0.020923442 -3.8144478e-07 0)
(0.020927969 3.364696e-07 0)
(0.021328851 0.0037002133 0)
(0.028181953 -4.5821307e-05 0)
(0.024696231 4.959175e-05 0)
(0.025692779 -9.6568082e-09 0)
(0.024886267 -8.5337406e-07 0)
(0.025525963 3.1143897e-06 0)
(0.024938753 -2.903221e-06 0)
(0.025482411 2.8366571e-06 0)
(0.024977157 -2.7352303e-06 0)
(0.025451092 2.5898176e-06 0)
(0.025006157 -2.4368324e-06 0)
(0.02542385 2.3006875e-06 0)
(0.025031457 -2.1629672e-06 0)
(0.025399887 2.0383142e-06 0)
(0.025053925 -1.9186004e-06 0)
(0.02537869 1.8072911e-06 0)
(0.025073878 -1.7024856e-06 0)
(0.025359895 1.6040431e-06 0)
(0.025091598 -1.511954e-06 0)
(0.025343203 1.425239e-06 0)
(0.025107347 -1.3442916e-06 0)
(0.02532836 1.2680864e-06 0)
(0.025121363 -1.1970118e-06 0)
(0.02531514 1.1301837e-06 0)
(0.025133857 -1.0678997e-06 0)
(0.025303342 1.0094372e-06 0)
(0.025145019 -9.5500291e-07 0)
(0.025292789 9.0401573e-07 0)
(0.025155016 -8.566093e-07 0)
(0.025283319 8.123186e-07 0)
(0.025164002 -7.7122336e-07 0)
(0.025274791 7.3295146e-07 0)
(0.025172112 -6.9754484e-07 0)
(0.025267075 6.6470533e-07 0)
(0.025179469 -6.3444975e-07 0)
(0.025260053 6.0653867e-07 0)
(0.025186186 -5.8097363e-07 0)
(0.02525362 5.5756178e-07 0)
(0.025192364 -5.3629685e-07 0)
(0.025247676 5.1702266e-07 0)
(0.025198098 -4.9973187e-07 0)
(0.025242133 4.8429298e-07 0)
(0.025203476 -4.7070584e-07 0)
(0.025236903 4.5888555e-07 0)
(0.025208579 -4.4862904e-07 0)
(0.025231899 4.4055884e-07 0)
(0.025213476 -4.3375128e-07 0)
(0.025227043 4.2203293e-07 0)
(0.025218528 -4.6268168e-07 0)
(0.025224034 4.0234125e-07 0)
(0.024458751 0.0040195627 0)
(0.032495853 -8.6655413e-05 0)
(0.028790924 6.434808e-05 0)
(0.029936237 -3.1933008e-07 0)
(0.028989104 -5.4849757e-07 0)
(0.029756684 3.5030931e-06 0)
(0.029055901 -3.3216626e-06 0)
(0.029706441 3.2428787e-06 0)
(0.029102073 -3.1519804e-06 0)
(0.029669223 2.9845368e-06 0)
(0.02913678 -2.808791e-06 0)
(0.029636662 2.6530089e-06 0)
(0.029167062 -2.4936588e-06 0)
(0.029607993 2.3502742e-06 0)
(0.029193952 -2.2120964e-06 0)
(0.029582628 2.0837909e-06 0)
(0.02921783 -1.9629603e-06 0)
(0.029560135 1.8494107e-06 0)
(0.029239035 -1.743278e-06 0)
(0.02954016 1.6432393e-06 0)
(0.029257881 -1.5499542e-06 0)
(0.029522397 1.4620397e-06 0)
(0.029274653 -1.3801311e-06 0)
(0.029506577 1.3030378e-06 0)
(0.029289603 -1.2312571e-06 0)
(0.02949246 1.1638178e-06 0)
(0.029302958 -1.101081e-06 0)
(0.029479832 1.0422673e-06 0)
(0.02931492 -9.8762799e-07 0)
(0.029468503 9.3654031e-07 0)
(0.02932567 -8.8917303e-07 0)
(0.0294583 8.4502865e-07 0)
(0.029335373 -8.0421624e-07 0)
(0.029449068 7.663379e-07 0)
(0.029344174 -7.3146102e-07 0)
(0.029440669 6.9926669e-07 0)
(0.029352209 -6.6979468e-07 0)
(0.029432974 6.4278855e-07 0)
(0.029359598 -6.1827121e-07 0)
(0.029425865 5.9603524e-07 0)
(0.029366455 -5.7609625e-07 0)
(0.029419236 5.5827947e-07 0)
(0.029372886 -5.4260578e-07 0)
(0.029412983 5.289573e-07 0)
(0.029378987 -5.1708641e-07 0)
(0.029407001 5.0783843e-07 0)
(0.029384842 -4.9976095e-07 0)
(0.02940119 4.8570178e-07 0)
(0.029390833 -5.3877256e-07 0)
(0.029397341 4.6191266e-07 0)
(0.028397403 0.0046419046 0)
(0.036639959 -9.00801e-05 0)
(0.032766579 7.9829479e-05 0)
(0.034048254 -5.5424324e-07 0)
(0.032966265 -1.677063e-07 0)
(0.033864767 3.8021305e-06 0)
(0.033049802 -3.6985865e-06 0)
(0.03380817 3.6008742e-06 0)
(0.033103806 -3.532192e-06 0)
(0.033765036 3.3437696e-06 0)
(0.033144267 -3.1477164e-06 0)
(0.033727115 2.9743448e-06 0)
(0.033179579 -2.7950914e-06 0)
(0.033693697 2.6347359e-06 0)
(0.033210933 -2.4796732e-06 0)
(0.033664123 2.3358836e-06 0)
(0.033238773 -2.2004451e-06 0)
(0.033637898 2.0731079e-06 0)
(0.033263495 -1.9541864e-06 0)
(0.03361461 1.8419826e-06 0)
(0.033285468 -1.7374644e-06 0)
(0.0335939 1.6388592e-06 0)
(0.03330502 -1.5470863e-06 0)
(0.033575456 1.4606219e-06 0)
(0.033322449 -1.3801939e-06 0)
(0.033558998 1.3045608e-06 0)
(0.033338017 -1.2342635e-06 0)
(0.033544277 1.1683069e-06 0)
(0.033351961 -1.1070804e-06 0)
(0.03353107 1.0497901e-06 0)
(0.033364492 -9.967101e-07 0)
(0.033519177 9.4720718e-07 0)
(0.033375801 -9.0147059e-07 0)
(0.033508418 8.5899461e-07 0)
(0.033386059 -8.1990772e-07 0)
(0.033498628 7.8380517e-07 0)
(0.033395422 -7.5077343e-07 0)
(0.03348966 7.2048746e-07 0)
(0.033404033 -6.9300615e-07 0)
(0.033481378 6.6806686e-07 0)
(0.033412023 -6.4571356e-07 0)
(0.033473653 6.2572475e-07 0)
(0.033419514 -6.0814723e-07 0)
(0.033466369 5.9282558e-07 0)
(0.033426622 -5.7947014e-07 0)
(0.033459403 5.6916669e-07 0)
(0.033433441 -5.5983609e-07 0)
(0.033452631 5.4355903e-07 0)
(0.03344037 -6.0948246e-07 0)
(0.033447888 5.1522204e-07 0)
(0.031373964 0.0048540504 0)
(0.040488727 -0.00014594576 0)
(0.036631405 9.4070277e-05 0)
(0.038028457 -9.8090925e-07 0)
(0.036817719 1.622899e-07 0)
(0.037849912 3.9782271e-06 0)
(0.036920816 -4.0384368e-06 0)
(0.037787332 3.9100354e-06 0)
(0.036982645 -3.8754862e-06 0)
(0.037738275 3.6671935e-06 0)
(0.037028867 -3.4532023e-06 0)
(0.037694978 3.2643134e-06 0)
(0.037069227 -3.0668998e-06 0)
(0.037656794 2.891355e-06 0)
(0.037105061 -2.721005e-06 0)
(0.037622998 2.5632654e-06 0)
(0.037136876 -2.4146508e-06 0)
(0.037593027 2.2748661e-06 0)
(0.037165129 -2.144423e-06 0)
(0.037566412 2.0212312e-06 0)
(0.037190237 -1.9065957e-06 0)
(0.037542746 1.798334e-06 0)
(0.037212581 -1.6976768e-06 0)
(0.037521669 1.602749e-06 0)
(0.037232496 -1.5145321e-06 0)
(0.037502862 1.4315e-06 0)
(0.037250285 -1.3543919e-06 0)
(0.037486041 1.2819862e-06 0)
(0.037266217 -1.2148252e-06 0)
(0.03747095 1.1519354e-06 0)
(0.037280535 -1.0937083e-06 0)
(0.037457361 1.0393683e-06 0)
(0.037293455 -9.8919465e-07 0)
(0.037445069 9.4256873e-07 0)
(0.037305175 -8.9968795e-07 0)
(0.037433885 8.6005781e-07 0)
(0.037315871 -8.2381783e-07 0)
(0.037423641 7.9057131e-07 0)
(0.037325707 -7.6041823e-07 0)
(0.03741418 7.3303827e-07 0)
(0.037334832 -7.0850786e-07 0)
(0.037405358 6.8655671e-07 0)
(0.037343387 -6.6726113e-07 0)
(0.03739704 6.5042477e-07 0)
(0.037351503 -6.3571935e-07 0)
(0.037389088 6.2448284e-07 0)
(0.037359289 -6.1392683e-07 0)
(0.037381354 5.9559066e-07 0)
(0.037367152 -6.7447984e-07 0)
(0.037375673 5.6224846e-07 0)
(0.035197681 0.0053470082 0)
(0.044217777 -0.00014751253 0)
(0.04037593 0.00010940761 0)
(0.041879987 -1.7167357e-06 0)
(0.04054473 3.2929144e-07 0)
(0.041711912 3.997082e-06 0)
(0.040669231 -4.3485929e-06 0)
(0.041643664 4.1686642e-06 0)
(0.040738837 -4.1822863e-06 0)
(0.041588707 3.9545264e-06 0)
(0.040790798 -3.7251326e-06 0)
(0.041540044 3.5227226e-06 0)
(0.040836199 -3.3089289e-06 0)
(0.041497101 3.119973e-06 0)
(0.040876506 -2.9359465e-06 0)
(0.041459089 2.7657998e-06 0)
(0.040912291 -2.6054475e-06 0)
(0.041425378 2.4545657e-06 0)
(0.040944068 -2.3138727e-06 0)
(0.041395442 2.1808794e-06 0)
(0.040972308 -2.0572463e-06 0)
(0.041368823 1.9403709e-06 0)
(0.040997437 -1.8318126e-06 0)
(0.041345118 1.7293363e-06 0)
(0.041019835 -1.634192e-06 0)
(0.041323966 1.5445617e-06 0)
(0.04103984 -1.4613956e-06 0)
(0.041305048 1.3832397e-06 0)
(0.041057758 -1.3107996e-06 0)
(0.041288077 1.2429178e-06 0)
(0.041073859 -1.1801115e-06 0)
(0.041272796 1.1214597e-06 0)
(0.041088388 -1.0673382e-06 0)
(0.041258973 1.0170132e-06 0)
(0.041101566 -9.707566e-07 0)
(0.041246397 9.2798225e-07 0)
(0.041113592 -8.8888725e-07 0)
(0.041234879 8.5300185e-07 0)
(0.041124651 -8.2047075e-07 0)
(0.041224242 7.909149e-07 0)
(0.041134909 -7.6444604e-07 0)
(0.041214326 7.407442e-07 0)
(0.041144526 -7.1991781e-07 0)
(0.041204976 7.0172703e-07 0)
(0.041153647 -6.8580936e-07 0)
(0.04119604 6.737607e-07 0)
(0.041162398 -6.6201823e-07 0)
(0.041187349 6.4180615e-07 0)
(0.041171188 -7.3349896e-07 0)
(0.041180697 6.030405e-07 0)
(0.038263041 0.0055362996 0)
(0.04765362 -0.00021380243 0)
(0.043991024 0.00012194159 0)
(0.045608617 -1.6005779e-06 0)
(0.044151304 6.0764111e-07 0)
(0.045450988 3.9252526e-06 0)
(0.044295434 -4.6145369e-06 0)
(0.045376955 4.3812294e-06 0)
(0.044372613 -4.4517764e-06 0)
(0.045316121 4.2062233e-06 0)
(0.044430262 -3.9635621e-06 0)
(0.045262126 3.7496976e-06 0)
(0.044480671 -3.5212736e-06 0)
(0.045214454 3.3206847e-06 0)
(0.044525425 -3.1245845e-06 0)
(0.045172252 2.9435715e-06 0)
(0.044565155 -2.7729127e-06 0)
(0.045134824 2.6122827e-06 0)
(0.044600433 -2.4626051e-06 0)
(0.045101588 2.3209953e-06 0)
(0.044631785 -2.1894787e-06 0)
(0.045072034 2.0650307e-06 0)
(0.044659682 -1.9495497e-06 0)
(0.045045716 1.8404384e-06 0)
(0.044684547 -1.7392239e-06 0)
(0.045022234 1.643795e-06 0)
(0.044706755 -1.55532e-06 0)
(0.045001233 1.4721114e-06 0)
(0.044726645 -1.3950444e-06 0)
(0.044982393 1.3227768e-06 0)
(0.044744518 -1.2559567e-06 0)
(0.04496543 1.1935171e-06 0)
(0.044760646 -1.135935e-06 0)
(0.044950086 1.0823608e-06 0)
(0.044775272 -1.0331446e-06 0)
(0.044936128 9.8760861e-07 0)
(0.044788621 -9.460104e-07 0)
(0.044923344 9.0780713e-07 0)
(0.044800894 -8.7319068e-07 0)
(0.044911539 8.4172328e-07 0)
(0.044812279 -8.1355391e-07 0)
(0.044900534 7.8831287e-07 0)
(0.044822949 -7.6614258e-07 0)
(0.04489016 7.4675791e-07 0)
(0.04483307 -7.2976727e-07 0)
(0.044880248 7.1702447e-07 0)
(0.044842778 -7.041458e-07 0)
(0.044870608 6.8225682e-07 0)
(0.044852485 -7.8635313e-07 0)
(0.044862959 6.3771746e-07 0)
(0.04194095 0.0058759506 0)
(0.051019621 -0.00021437524 0)
(0.047476667 0.00013412552 0)
(0.049212804 -1.4941596e-06 0)
(0.047638745 7.9657668e-07 0)
(0.049066993 3.7350311e-06 0)
(0.047799677 -4.8443814e-06 0)
(0.048987004 4.5469309e-06 0)
(0.047884179 -4.6847404e-06 0)
(0.048920327 4.4225417e-06 0)
(0.047947437 -4.1688304e-06 0)
(0.048861054 3.9454965e-06 0)
(0.048002803 -3.7042002e-06 0)
(0.048808704 3.4937289e-06 0)
(0.048051957 -3.2871492e-06 0)
(0.048762354 3.0967965e-06 0)
(0.04809559 -2.9172494e-06 0)
(0.048721248 2.7482103e-06 0)
(0.048134334 -2.5908006e-06 0)
(0.048684746 2.4417513e-06 0)
(0.048168764 -2.3034537e-06 0)
(0.048652289 2.172467e-06 0)
(0.0481994 -2.0510318e-06 0)
(0.048623386 1.9361922e-06 0)
(0.048226706 -1.8297563e-06 0)
(0.048597598 1.7293222e-06 0)
(0.048251094 -1.6362799e-06 0)
(0.048574534 1.5487109e-06 0)
(0.048272936 -1.4676629e-06 0)
(0.048553846 1.391611e-06 0)
(0.048292562 -1.3213369e-06 0)
(0.048535218 1.2556295e-06 0)
(0.048310271 -1.195069e-06 0)
(0.048518369 1.138692e-06 0)
(0.048326332 -1.0869286e-06 0)
(0.048503043 1.0390104e-06 0)
(0.048340988 -9.952575e-07 0)
(0.048489006 9.5505492e-07 0)
(0.048354463 -9.1864312e-07 0)
(0.048476046 8.8552656e-07 0)
(0.048366962 -8.5589254e-07 0)
(0.048463964 8.293225e-07 0)
(0.048378675 -8.0599378e-07 0)
(0.048452577 7.8557507e-07 0)
(0.048389784 -7.6765132e-07 0)
(0.048441699 7.5432897e-07 0)
(0.04840044 -7.4037581e-07 0)
(0.048431122 7.1701867e-07 0)
(0.048411049 -8.3291498e-07 0)
(0.04842246 6.664455e-07 0)
(0.045076549 0.0060455053 0)
(0.054103774 -0.00028217509 0)
(0.050838479 0.00014123638 0)
(0.052690799 -1.9627159e-06 0)
(0.05100693 8.1043102e-07 0)
(0.052559759 3.4245802e-06 0)
(0.051182155 -5.0416556e-06 0)
(0.052473642 4.6667195e-06 0)
(0.051273727 -4.8814319e-06 0)
(0.052401161 4.6041185e-06 0)
(0.051342488 -4.3412974e-06 0)
(0.05233668 4.1105379e-06 0)
(0.051402737 -3.8580664e-06 0)
(0.052279716 3.6394582e-06 0)
(0.051456227 -3.4239652e-06 0)
(0.052229279 3.2257857e-06 0)
(0.051503708 -3.0387474e-06 0)
(0.052184547 2.8626246e-06 0)
(0.051545867 -2.6987172e-06 0)
(0.052144825 2.5433929e-06 0)
(0.051583331 -2.3994011e-06 0)
(0.052109507 2.2628986e-06 0)
(0.051616667 -2.1364636e-06 0)
(0.052078055 2.0167927e-06 0)
(0.051646378 -1.9059718e-06 0)
(0.052049995 1.8013173e-06 0)
(0.051672914 -1.7044387e-06 0)
(0.052024899 1.6131938e-06 0)
(0.051696679 -1.5288014e-06 0)
(0.052002388 1.4495598e-06 0)
(0.051718033 -1.3763839e-06 0)
(0.05198212 1.3079226e-06 0)
(0.051737301 -1.2448595e-06 0)
(0.051963788 1.1861208e-06 0)
(0.051754775 -1.1322168e-06 0)
(0.051947113 1.0822916e-06 0)
(0.051770721 -1.0367278e-06 0)
(0.051931841 9.9484072e-07 0)
(0.051785381 -9.5691972e-07 0)
(0.051917742 9.2241342e-07 0)
(0.051798977 -8.9154761e-07 0)
(0.051904599 8.6385652e-07 0)
(0.051811719 -8.3955268e-07 0)
(0.051892213 8.1825847e-07 0)
(0.051823801 -7.9954129e-07 0)
(0.051880383 7.8575021e-07 0)
(0.051835391 -7.7079558e-07 0)
(0.051868885 7.4618406e-07 0)
(0.051846888 -8.7310518e-07 0)
(0.0518592 6.8942359e-07 0)
(0.048568322 0.0062429215 0)
(0.057158126 -0.00028171359 0)
(0.054074754 0.00014998714 0)
(0.056044333 -2.1699483e-06 0)
(0.054255918 7.787587e-07 0)
(0.055929325 3.0481023e-06 0)
(0.054443067 -5.1957542e-06 0)
(0.055836704 4.7440965e-06 0)
(0.05454142 -5.0418082e-06 0)
(0.055758467 4.7517086e-06 0)
(0.054615559 -4.4814671e-06 0)
(0.055688866 4.2453248e-06 0)
(0.0546806 -3.9833438e-06 0)
(0.055627371 3.758314e-06 0)
(0.054738348 -3.5354505e-06 0)
(0.05557292 3.3309332e-06 0)
(0.054789607 -3.1377769e-06 0)
(0.055524628 2.9558765e-06 0)
(0.054835119 -2.7866839e-06 0)
(0.055481745 2.6262322e-06 0)
(0.054875563 -2.4776135e-06 0)
(0.055443616 2.3366029e-06 0)
(0.054911549 -2.2061058e-06 0)
(0.055409662 2.0824871e-06 0)
(0.054943621 -1.9681029e-06 0)
(0.05537937 1.8600007e-06 0)
(0.054972267 -1.7600042e-06 0)
(0.055352279 1.6657573e-06 0)
(0.054997921 -1.5786462e-06 0)
(0.055327978 1.4968004e-06 0)
(0.055020972 -1.421265e-06 0)
(0.0553061 1.3505558e-06 0)
(0.055041771 -1.2854577e-06 0)
(0.055286311 1.2247916e-06 0)
(0.055060632 -1.1691465e-06 0)
(0.055268311 1.1175837e-06 0)
(0.055077844 -1.0705468e-06 0)
(0.055251827 1.0272852e-06 0)
(0.055093667 -9.8813637e-07 0)
(0.055236608 9.5249575e-07 0)
(0.055108342 -9.2062718e-07 0)
(0.055222424 8.9201998e-07 0)
(0.055122093 -8.6692143e-07 0)
(0.055209057 8.449083e-07 0)
(0.055135132 -8.2553646e-07 0)
(0.055196293 8.113834e-07 0)
(0.055147639 -7.9551111e-07 0)
(0.055183891 7.6986027e-07 0)
(0.055160004 -9.0688795e-07 0)
(0.055173182 7.0687585e-07 0)
(0.051759603 0.0063871609 0)
(0.059950931 -0.00035069933 0)
(0.057187346 0.00015328891 0)
(0.059274927 -2.4732531e-06 0)
(0.057385314 6.5276334e-07 0)
(0.05917552 2.6020652e-06 0)
(0.057582528 -5.3094209e-06 0)
(0.059076025 4.7795796e-06 0)
(0.057687396 -5.1665016e-06 0)
(0.058992107 4.8660855e-06 0)
(0.057766778 -4.5899437e-06 0)
(0.058917491 4.3504739e-06 0)
(0.057836507 -4.080588e-06 0)
(0.058851562 3.8508332e-06 0)
(0.057898421 -3.6221036e-06 0)
(0.058793183 3.4127134e-06 0)
(0.057953376 -3.214782e-06 0)
(0.058741407 3.0283869e-06 0)
(0.058002168 -2.8550952e-06 0)
(0.058695431 2.6906432e-06 0)
(0.058045527 -2.5384419e-06 0)
(0.058654552 2.3939126e-06 0)
(0.058084106 -2.2602709e-06 0)
(0.05861815 2.1335715e-06 0)
(0.05811849 -2.0164284e-06 0)
(0.058585674 1.9056369e-06 0)
(0.0581492 -1.8032255e-06 0)
(0.05855663 1.7066378e-06 0)
(0.058176701 -1.6174204e-06 0)
(0.058530579 1.5335447e-06 0)
(0.058201413 -1.4561809e-06 0)
(0.058507124 1.3837201e-06 0)
(0.058223709 -1.3170446e-06 0)
(0.058485909 1.254877e-06 0)
(0.058243929 -1.1978824e-06 0)
(0.058466613 1.1450439e-06 0)
(0.05826238 -1.096865e-06 0)
(0.058448943 1.0525328e-06 0)
(0.058279341 -1.0124316e-06 0)
(0.058432629 9.7590728e-07 0)
(0.058295071 -9.4326031e-07 0)
(0.058417425 9.1393819e-07 0)
(0.05830981 -8.8822182e-07 0)
(0.058403098 8.6564384e-07 0)
(0.058323784 -8.4575451e-07 0)
(0.05838942 8.313419e-07 0)
(0.05833719 -8.1464568e-07 0)
(0.058376136 7.8816888e-07 0)
(0.058350403 -9.342676e-07 0)
(0.058364405 7.190455e-07 0)
(0.055094875 0.0064607694 0)
(0.062747748 -0.00034718412 0)
(0.0601821 0.00015712283 0)
(0.062385046 -2.8412817e-06 0)
(0.060394503 4.2799231e-07 0)
(0.062298303 2.1002717e-06 0)
(0.060600704 -5.3773412e-06 0)
(0.062191478 4.7756325e-06 0)
(0.06071179 -5.2558506e-06 0)
(0.06210196 4.9481779e-06 0)
(0.06079626 -4.6674324e-06 0)
(0.062022447 4.4266808e-06 0)
(0.060870559 -4.1504473e-06 0)
(0.061952193 3.9176283e-06 0)
(0.060936534 -3.6845009e-06 0)
(0.061889984 3.4716709e-06 0)
(0.060995093 -3.2702737e-06 0)
(0.061834811 3.0806394e-06 0)
(0.061047084 -2.9044054e-06 0)
(0.061785818 2.7370556e-06 0)
(0.061093285 -2.5822901e-06 0)
(0.061742258 2.4352098e-06 0)
(0.061134393 -2.2993182e-06 0)
(0.061703469 2.1703862e-06 0)
(0.06117103 -2.0512685e-06 0)
(0.061668863 1.9385292e-06 0)
(0.061203752 -1.8343886e-06 0)
(0.061637916 1.7361066e-06 0)
(0.061233055 -1.6453803e-06 0)
(0.061610156 1.5600362e-06 0)
(0.061259386 -1.481362e-06 0)
(0.061585164 1.4076347e-06 0)
(0.061283143 -1.3398284e-06 0)
(0.061562559 1.2765756e-06 0)
(0.061304687 -1.2186132e-06 0)
(0.061541999 1.1648532e-06 0)
(0.061324346 -1.1158549e-06 0)
(0.061523171 1.0707494e-06 0)
(0.061342418 -1.0299647e-06 0)
(0.06150579 9.9280151e-07 0)
(0.061359178 -9.5959516e-07 0)
(0.061489591 9.2975486e-07 0)
(0.061374881 -9.0359342e-07 0)
(0.061474327 8.8060162e-07 0)
(0.061389767 -8.6032975e-07 0)
(0.061459758 8.4575554e-07 0)
(0.061404048 -8.2833811e-07 0)
(0.061445616 8.0124465e-07 0)
(0.061418087 -9.5528492e-07 0)
(0.061432872 7.2618922e-07 0)
(0.05833327 0.0065717534 0)
(0.065306089 -0.00041187467 0)
(0.063054524 0.00015549974 0)
(0.065377969 -3.4108513e-06 0)
(0.063283196 1.4587009e-07 0)
(0.065297574 1.5435728e-06 0)
(0.063497705 -5.3986778e-06 0)
(0.065182934 4.7335034e-06 0)
(0.063614712 -5.3105516e-06 0)
(0.065087916 4.9989442e-06 0)
(0.063704107 -4.7147277e-06 0)
(0.065003639 4.4747244e-06 0)
(0.063782845 -4.193642e-06 0)
(0.064929181 3.9593852e-06 0)
(0.063852767 -3.7232844e-06 0)
(0.064863249 3.5084133e-06 0)
(0.063914828 -3.3048226e-06 0)
(0.064804774 3.1131735e-06 0)
(0.063969928 -2.935121e-06 0)
(0.06475285 2.7659484e-06 0)
(0.064018891 -2.6096084e-06 0)
(0.064706684 2.4609205e-06 0)
(0.064062455 -2.3236486e-06 0)
(0.064665575 2.1933105e-06 0)
(0.064101282 -2.0729806e-06 0)
(0.064628899 1.959016e-06 0)
(0.06413596 -1.8538129e-06 0)
(0.064596101 1.7544663e-06 0)
(0.064167015 -1.662812e-06 0)
(0.064566681 1.5765463e-06 0)
(0.064194919 -1.4970655e-06 0)
(0.064540195 1.4225442e-06 0)
(0.064220096 -1.3540413e-06 0)
(0.064516238 1.2901088e-06 0)
(0.064242928 -1.2315499e-06 0)
(0.064494449 1.1772129e-06 0)
(0.064263761 -1.1277094e-06 0)
(0.064474496 1.0821197e-06 0)
(0.064282913 -1.0409131e-06 0)
(0.064456077 1.0033495e-06 0)
(0.064300673 -9.6979686e-07 0)
(0.064438911 9.3963011e-07 0)
(0.064317312 -9.1319174e-07 0)
(0.064422737 8.8993364e-07 0)
(0.064333086 -8.6941136e-07 0)
(0.064407302 8.547689e-07 0)
(0.064348219 -8.3674082e-07 0)
(0.064392326 8.0923422e-07 0)
(0.064363059 -9.7001363e-07 0)
(0.064378585 7.2857236e-07 0)
(0.061505125 0.0065348841 0)
(0.067892609 -0.00040478441 0)
(0.065808008 0.00015495447 0)
(0.068256517 -4.1044329e-06 0)
(0.066051288 -1.9614829e-07 0)
(0.068173364 9.2051172e-07 0)
(0.066273681 -5.3742729e-06 0)
(0.068050296 4.6536971e-06 0)
(0.066396262 -5.3317818e-06 0)
(0.067949877 5.0192605e-06 0)
(0.066490408 -4.7327616e-06 0)
(0.067860982 4.4954291e-06 0)
(0.066573444 -4.2109687e-06 0)
(0.06778245 3.9768484e-06 0)
(0.06664719 -3.7391565e-06 0)
(0.067712912 3.5236033e-06 0)
(0.066712642 -3.3190513e-06 0)
(0.067651239 3.1265775e-06 0)
(0.066770753 -2.9477949e-06 0)
(0.067596475 2.7778441e-06 0)
(0.066822391 -2.6208882e-06 0)
(0.067547785 2.4715091e-06 0)
(0.066868336 -2.3336994e-06 0)
(0.067504428 2.2027579e-06 0)
(0.066909284 -2.0819545e-06 0)
(0.067465747 1.9674663e-06 0)
(0.066945856 -1.8618465e-06 0)
(0.067431156 1.762047e-06 0)
(0.066978608 -1.6700275e-06 0)
(0.067400128 1.5833712e-06 0)
(0.067008036 -1.503572e-06 0)
(0.067372194 1.4287153e-06 0)
(0.067034589 -1.3599367e-06 0)
(0.067346929 1.2957179e-06 0)
(0.067058668 -1.2369224e-06 0)
(0.067323949 1.1823429e-06 0)
(0.067080639 -1.1326386e-06 0)
(0.067302906 1.0868455e-06 0)
(0.067100837 -1.0454704e-06 0)
(0.06728348 1.0077381e-06 0)
(0.067119567 -9.7404562e-07 0)
(0.067265377 9.4373862e-07 0)
(0.067137114 -9.1718639e-07 0)
(0.067248321 8.9380556e-07 0)
(0.067153747 -8.7316174e-07 0)
(0.067232046 8.585397e-07 0)
(0.067169705 -8.4001817e-07 0)
(0.067216264 8.1229488e-07 0)
(0.067185321 -9.7855705e-07 0)
(0.067201544 7.2646479e-07 0)
(0.064751994 0.0066068607 0)
(0.070262772 -0.00046223411 0)
(0.068439264 0.00014908882 0)
(0.071016951 -4.9140526e-06 0)
(0.06869943 -4.8324274e-07 0)
(0.070925446 2.5609159e-07 0)
(0.068928721 -5.2950436e-06 0)
(0.070793443 4.540437e-06 0)
(0.069056513 -5.3196046e-06 0)
(0.07068775 5.0104326e-06 0)
(0.069155235 -4.7224291e-06 0)
(0.070594398 4.4897083e-06 0)
(0.069242424 -4.2032776e-06 0)
(0.070511936 3.9708174e-06 0)
(0.069319862 -3.732873e-06 0)
(0.070438916 3.5179514e-06 0)
(0.06938859 -3.3136292e-06 0)
(0.070374155 3.1214824e-06 0)
(0.069449607 -2.9430211e-06 0)
(0.070316649 2.7733035e-06 0)
(0.069503828 -2.6166572e-06 0)
(0.070265521 2.4674742e-06 0)
(0.06955207 -2.3299401e-06 0)
(0.070219994 2.1991723e-06 0)
(0.069595066 -2.0786088e-06 0)
(0.070179378 1.9642761e-06 0)
(0.069633468 -1.8588636e-06 0)
(0.070143055 1.7592029e-06 0)
(0.069667858 -1.6673618e-06 0)
(0.070110475 1.5808287e-06 0)
(0.069698758 -1.5011826e-06 0)
(0.070081142 1.4264344e-06 0)
(0.069726639 -1.3577866e-06 0)
(0.070054613 1.2936624e-06 0)
(0.069751923 -1.2349778e-06 0)
(0.070030483 1.1804796e-06 0)
(0.069774993 -1.1308684e-06 0)
(0.070008387 1.0851436e-06 0)
(0.069796201 -1.0438448e-06 0)
(0.069987989 1.0061677e-06 0)
(0.069815867 -9.7253507e-07 0)
(0.069968981 9.4226801e-07 0)
(0.069834292 -9.1575953e-07 0)
(0.069951073 8.9239525e-07 0)
(0.069851755 -8.7175501e-07 0)
(0.069933988 8.5723739e-07 0)
(0.06986851 -8.3834501e-07 0)
(0.069917428 8.1059344e-07 0)
(0.069884875 -9.8104517e-07 0)
(0.069901751 7.2013751e-07 0)
(0.067726301 0.0064717227 0)
(0.072672104 -0.00045059212 0)
(0.070963501 0.00014404082 0)
(0.073652472 -5.5244546e-06 0)
(0.071227938 -6.712762e-07 0)
(0.073553403 -4.3549342e-07 0)
(0.071462885 -5.153365e-06 0)
(0.073412266 4.3974027e-06 0)