/*--------------------------------*- C++ -*----------------------------------*\
| =========                 |                                                 |
| \\      /  F ield         | OpenFOAM: The Open Source CFD Toolbox           |
|  \\    /   O peration     | Version:  2312                                  |
|   \\  /    A nd           | Website:  www.openfoam.com                      |
|    \\/     M anipulation  |                                                 |
\*---------------------------------------------------------------------------*/
FoamFile
{
    version     2.0;
    format      ascii;
    arch        "LSB;label=32;scalar=64";
    class       surfaceScalarField;
    location    "3";
    object      phi;
}
// * * * * * * * * * * * * * * * * * * * * * * * * * * * * * * * * * * * * * //

dimensions      [0 3 -1 0 0 0 0];

oriented        oriented;

internalField   nonuniform List<scalar> 
7870
(
1.8608322e-10
3.2755418e-09
1.8018877e-10
5.8944401e-12
1.3085017e-10
4.9338611e-11
1.4042426e-10
-9.5740979e-12
1.3429085e-10
6.1334122e-12
1.3491736e-10
-6.2651759e-13
1.3315829e-10
1.7590663e-12
1.3351113e-10
-3.5284607e-13
1.3265619e-10
8.5494279e-13
1.3322432e-10
-5.6813471e-13
1.3257702e-10
6.473014e-13
1.3315466e-10
-5.776409e-13
1.3259327e-10
5.6138467e-13
1.3311565e-10
-5.2237186e-13
1.3262338e-10
4.9227093e-13
1.3308248e-10
-4.5909513e-13
1.3265288e-10
4.296002e-13
1.3305324e-10
-4.0036043e-13
1.3267939e-10
3.7385073e-13
1.3302772e-10
-3.4831833e-13
1.3270294e-10
3.2477659e-13
1.3300533e-10
-3.0238646e-13
1.3272379e-10
2.8154184e-13
1.3298561e-10
-2.6182018e-13
1.3274221e-10
2.4339124e-13
1.3296822e-10
-2.2600767e-13
1.3275846e-10
2.0975705e-13
1.3295293e-10
-1.9446663e-13
1.3277274e-10
1.8019438e-13
1.3293954e-10
-1.66803e-13
1.327852e-10
1.5433766e-13
1.3292789e-10
-1.4268457e-13
1.3279601e-10
1.3187967e-13
1.3291783e-10
-1.2182297e-13
1.3280528e-10
1.1254524e-13
1.3290924e-10
-1.0396043e-13
1.3281315e-10
9.6092761e-14
1.3290202e-10
-8.8869203e-14
1.3281971e-10
8.230974e-14
1.3289606e-10
-7.6352129e-14
1.3282505e-10
7.1012409e-14
1.3289129e-10
-6.62392e-14
1.3282924e-10
6.204932e-14
1.3288763e-10
-5.8394008e-14
1.3283235e-10
5.528352e-14
1.3288507e-10
-5.2722854e-14
1.3283436e-10
5.0714424e-14
1.3288279e-10
-4.8430831e-14
1.32832e-10
5.0787997e-14
-4.3522149e-14
4.6881025e-10
6.2683565e-09
5.02165e-10
-2.7460336e-11
3.9234449e-10
1.5915914e-10
4.0406499e-10
-2.1294629e-11
3.903269e-10
1.9871515e-11
3.9065325e-10
-9.5288411e-13
3.8710144e-10
5.3108726e-12
3.8696558e-10
-2.1700049e-13
3.855893e-10
2.2312228e-12
3.8623877e-10
-1.217615e-12
3.8530304e-10
1.5830392e-12
3.8610502e-10
-1.3796274e-12
3.8529945e-10
1.3669589e-12
3.8604797e-10
-1.2708773e-12
3.8533819e-10
1.202051e-12
3.8599979e-10
-1.120686e-12
3.8537972e-10
1.0496731e-12
3.85957e-10
-9.7763349e-13
3.8541758e-10
9.1327856e-13
3.8591983e-10
-8.5056164e-13
3.8545146e-10
7.931447e-13
3.8588736e-10
-7.3828035e-13
3.8548158e-10
6.8731359e-13
3.8585879e-10
-6.3902574e-13
3.8550827e-10
5.9390738e-13
3.8583362e-10
-5.5135382e-13
3.8553183e-10
5.1154609e-13
3.8581148e-10
-4.7411786e-13
3.8555252e-10
4.3915044e-13
3.8579209e-10
-4.0637168e-13
3.855706e-10
3.7583014e-13
3.8577522e-10
-3.4730902e-13
3.8558626e-10
3.2083963e-13
3.8576067e-10
-2.9622789e-13
3.8559971e-10
2.7350196e-13
3.8574824e-10
-2.5249382e-13
3.8561111e-10
2.3322195e-13
3.8573779e-10
-2.1554514e-13
3.8562062e-10
1.9947823e-13
3.8572917e-10
-1.8489754e-13
3.8562836e-10
1.7181497e-13
3.8572226e-10
-1.6013085e-13
3.8563444e-10
1.498657e-13
3.8571695e-10
-1.4090822e-13
3.8563895e-10
1.332828e-13
3.8571328e-10
-1.2704806e-13
3.8564202e-10
1.2197339e-13
3.8570994e-10
-1.1634951e-13
3.8563621e-10
1.2452096e-13
-1.0252122e-13
6.9131339e-10
9.0386682e-09
7.9457993e-10
-1.3072691e-10
6.4647606e-10
3.0726305e-10
6.6033842e-10
-3.5157029e-11
6.3944442e-10
4.0765531e-11
6.393249e-10
-8.3338925e-13
6.3457112e-10
1.0064655e-11
6.3363265e-10
7.2144722e-13
6.3218571e-10
3.6781733e-12
6.3257316e-10
-1.6050791e-12
6.3169987e-10
2.4563353e-12
6.3241555e-10
-2.0953121e-12
6.3166353e-10
2.118985e-12
6.3236353e-10
-1.9708735e-12
6.3169429e-10
1.8712984e-12
6.3231809e-10
-1.7444733e-12
6.3173221e-10
1.6355538e-12
6.322769e-10
-1.5223128e-12
6.3176746e-10
1.4227217e-12
6.3224131e-10
-1.3244064e-12
6.3179937e-10
1.2350945e-12
6.322104e-10
-1.1493102e-12
6.3182789e-10
1.0698188e-12
6.3218325e-10
-9.9438122e-13
6.3185324e-10
9.2391963e-13
6.3215934e-10
-8.5745976e-13
6.3187563e-10
7.9525857e-13
6.3213832e-10
-7.3680848e-13
6.318953e-10
6.8216399e-13
6.3211991e-10
-6.3097887e-13
6.3191249e-10
5.8325092e-13
6.321039e-10
-5.3872063e-13
6.3192737e-10
4.9736388e-13
6.3209009e-10
-4.5894186e-13
6.3194015e-10
4.2343825e-13
6.320783e-10
-3.9064491e-13
6.3195098e-10
3.6053832e-13
6.3206839e-10
-3.3294555e-13
6.3196002e-10
3.0784607e-13
6.320602e-10
-2.8508302e-13
6.3196738e-10
2.6464033e-13
6.3205364e-10
-2.4639582e-13
6.3197315e-10
2.3035591e-13
6.320486e-10
-2.1635129e-13
6.3197745e-10
2.0442835e-13
6.3204515e-10
-1.9474201e-13
6.3198054e-10
1.865766e-13
6.3204181e-10
-1.7762075e-13
6.3197165e-10
1.9468412e-13
-1.5282346e-13
9.7931859e-10
1.1520975e-08
1.0724532e-09
-2.2386152e-10
8.9212088e-10
4.8759537e-10
9.0950936e-10
-5.2545544e-11
8.8141279e-10
6.8862106e-11
8.8114163e-10
-5.6225257e-13
8.7534625e-10
1.5860044e-11
8.7371097e-10
2.3567081e-12
8.72264e-10
5.125152e-12
8.7240311e-10
-1.7442094e-12
8.7160637e-10
3.253085e-12
8.7223856e-10
-2.7275012e-12
8.715443e-10
2.8132453e-12
8.7219506e-10
-2.621621e-12
8.7156858e-10
2.4977792e-12
8.7215297e-10
-2.3288529e-12
8.7160315e-10
2.1853744e-12
8.7211356e-10
-2.0327092e-12
8.7163578e-10
1.9005035e-12
8.7207965e-10
-1.768272e-12
8.7166563e-10
1.6491161e-12
8.7205037e-10
-1.5340425e-12
8.7169247e-10
1.4277151e-12
8.7202471e-10
-1.3266154e-12
8.7171637e-10
1.2322541e-12
8.7200213e-10
-1.1432197e-12
8.717375e-10
1.0598845e-12
8.7198229e-10
-9.8159282e-13
8.7175607e-10
9.0837854e-13
8.7196492e-10
-8.3982766e-13
8.7177229e-10
7.7588283e-13
8.7194982e-10
-7.1625419e-13
8.7178633e-10
6.6085681e-13
8.719368e-10
-6.0941499e-13
8.7179837e-10
5.618643e-13
8.7192569e-10
-5.179626e-13
8.7180859e-10
4.7764045e-13
8.7191635e-10
-4.4070189e-13
8.718171e-10
4.0708782e-13
8.7190863e-10
-3.7661031e-13
8.7182405e-10
3.492244e-13
8.7190244e-10
-3.2479273e-13
8.7182949e-10
3.0330602e-13
8.7189767e-10
-2.8452719e-13
8.7183355e-10
2.6854962e-13
8.7189444e-10
-2.5563596e-13
8.7183667e-10
2.4435303e-13
8.7189133e-10
-2.32282e-13
8.7182561e-10
2.6040121e-13
-1.9481608e-13
1.1682526e-09
1.3814347e-08
1.3273995e-09
-3.8300846e-10
1.1304181e-09
6.8457681e-10
1.1518766e-09
-7.4004147e-11
1.1162655e-09
1.0447323e-10
1.1161129e-09
-4.0965624e-13
1.1094067e-09
2.2566286e-11
1.1072043e-09
4.5590963e-12
1.1058244e-09
6.5049937e-12
1.105731e-09
-1.6507848e-12
1.1050227e-09
3.9613957e-12
1.1055744e-09
-3.2792518e-12
1.1049415e-09
3.4461976e-12
1.1055424e-09
-3.2225759e-12
1.1049608e-09
3.0794722e-12
1.1055043e-09
-2.8723562e-12
1.1049923e-09
2.6973656e-12
1.1054668e-09
-2.5072366e-12
1.1050223e-09
2.3450197e-12
1.1054347e-09
-2.1806697e-12
1.1050501e-09
2.0337707e-12
1.1054072e-09
-1.8911382e-12
1.1050751e-09
1.7597355e-12
1.1053831e-09
-1.6345538e-12
1.1050975e-09
1.5178166e-12
1.1053619e-09
-1.4076274e-12
1.1051173e-09
1.3044954e-12
1.1053433e-09
-1.2076228e-12
1.1051347e-09
1.1170184e-12
1.1053271e-09
-1.0322144e-12
1.1051499e-09
9.5308641e-13
1.105313e-09
-8.7933348e-13
1.105163e-09
8.1079747e-13
1.1053008e-09
-7.4718058e-13
1.1051743e-09
6.8836074e-13
1.1052904e-09
-6.3407401e-13
1.1051838e-09
5.8419738e-13
1.1052817e-09
-5.3852274e-13
1.1051918e-09
4.9694597e-13
1.1052744e-09
-4.5925515e-13
1.1051983e-09
4.2537291e-13
1.1052687e-09
-3.9515623e-13
1.1052034e-09
3.6857413e-13
1.1052642e-09
-3.4531751e-13
1.1052072e-09
3.2555255e-13
1.1052612e-09
-3.0964383e-13
1.1052103e-09
2.9523846e-13
1.1052584e-09
-2.8038936e-13
1.1051978e-09
3.2102667e-13
-2.2850451e-13
1.3973394e-09
1.5878633e-08
1.5748719e-09
-5.6054094e-10
1.3611888e-09
8.9825992e-10
1.3869287e-09
-9.9744035e-11
1.3439296e-09
1.474723e-10
1.3442073e-09
-6.8740567e-13
1.3367372e-09
3.0036462e-11
1.3341292e-09
7.1670631e-12
1.3328687e-09
7.7654614e-12
1.332561e-09
-1.3430703e-12
1.3319496e-09
4.5727651e-12
1.3324243e-09
-3.7539099e-12
1.3318551e-09
4.0153883e-12
1.3324061e-09
-3.7735692e-12
1.3318707e-09
3.6148705e-12
1.3323722e-09
-3.3738845e-12
1.3318995e-09
3.1701373e-12
1.3323369e-09
-2.9446553e-12
1.3319269e-09
2.7550074e-12
1.3323067e-09
-2.5604351e-12
1.3319525e-09
2.3879374e-12
1.3322809e-09
-2.2195616e-12
1.3319758e-09
2.0649107e-12
1.3322585e-09
-1.9173064e-12
1.3319965e-09
1.7797883e-12
1.3322389e-09
-1.6499359e-12
1.3320149e-09
1.5284132e-12
1.3322216e-09
-1.4142858e-12
1.3320311e-09
1.3075338e-12
1.3322065e-09
-1.2076478e-12
1.3320452e-09
1.1144251e-12
1.3321934e-09
-1.0275709e-12
1.3320574e-09
9.4684525e-13
1.3321821e-09
-8.7194079e-13
1.3320678e-09
8.0267042e-13
1.3321725e-09
-7.3875809e-13
1.3320767e-09
6.8002052e-13
1.3321644e-09
-6.2625043e-13
1.332084e-09
5.7729307e-13
1.3321577e-09
-5.3291608e-13
1.3320901e-09
4.9300777e-13
1.3321524e-09
-4.5743044e-13
1.3320948e-09
4.2612465e-13
1.3321482e-09
-3.9870647e-13
1.3320983e-09
3.7544106e-13
1.3321454e-09
-3.5677351e-13
1.3321014e-09
3.3927411e-13
1.3321431e-09
-3.2206834e-13
1.332088e-09
3.7609075e-13
-2.5403896e-13
1.5950036e-09
1.7745254e-08
1.7986152e-09
-7.6415263e-10
1.5848185e-09
1.1120566e-09
1.61394e-09
-1.2886553e-10
1.5646485e-09
1.9676375e-10
1.5655229e-09
-1.5618235e-12
1.5573727e-09
3.8186669e-11
1.5545102e-09
1.0029537e-11
1.5533992e-09
8.8765305e-12
1.5528976e-09
-8.4153442e-13
1.5523883e-09
5.0820517e-12
1.5527892e-09
-4.1547617e-12
1.5522852e-09
4.5193698e-12
1.5527863e-09
-4.2746806e-12
1.5522983e-09
4.1029644e-12
1.5527571e-09
-3.8326813e-12
1.5523245e-09
3.6026887e-12
1.552724e-09
-3.3440857e-12
1.5523494e-09
3.1295642e-12
1.5526957e-09
-2.9067507e-12
1.5523728e-09
2.7108358e-12
1.5526719e-09
-2.5186041e-12
1.5523942e-09
2.342586e-12
1.5526512e-09
-2.1742823e-12
1.5524133e-09
2.0176375e-12
1.5526331e-09
-1.8696722e-12
1.5524303e-09
1.7312196e-12
1.5526172e-09
-1.601215e-12
1.5524451e-09
1.4796073e-12
1.5526033e-09
-1.3658546e-12
1.5524581e-09
1.2596678e-12
1.5525913e-09
-1.1607736e-12
1.5524693e-09
1.0688418e-12
1.5525809e-09
-9.8356844e-13
1.5524789e-09
9.0469514e-13
1.5525721e-09
-8.3194329e-13
1.552487e-09
7.6506512e-13
1.5525646e-09
-7.0386247e-13
1.5524938e-09
6.4812641e-13
1.5525585e-09
-5.9760933e-13
1.5524993e-09
5.5216414e-13
1.5525536e-09
-5.1166728e-13
1.5525037e-09
4.7602338e-13
1.5525497e-09
-4.4477416e-13
1.5525069e-09
4.1831066e-13
1.5525472e-09
-3.9712252e-13
1.5525099e-09
3.7659184e-13
1.5525453e-09
-3.5750167e-13
1.5524961e-09
4.2528073e-13
-2.7178658e-13
1.7767634e-09
1.9430116e-08
2.0123379e-09
-9.9972713e-10
1.7990587e-09
1.3253358e-09
1.8281201e-09
-1.5792693e-10
1.7777202e-09
2.4716358e-10
1.7798794e-09
-3.7210157e-12
1.7712836e-09
4.6782469e-11
1.7683561e-09
1.2957046e-11
1.7674138e-09
9.8187969e-12
1.7667434e-09
-1.7116274e-13
1.7663396e-09
5.4859112e-12
1.7666699e-09
-4.4851173e-12
1.766232e-09
4.9573157e-12
1.7666835e-09
-4.7261695e-12
1.7662433e-09
4.5431097e-12
1.7666589e-09
-4.2482652e-12
1.7662673e-09
3.9943417e-12
1.7666282e-09
-3.7049566e-12
1.7662896e-09
3.4681001e-12
1.766602e-09
-3.2191036e-12
1.7663109e-09
3.0019813e-12
1.7665801e-09
-2.7878428e-12
1.7663303e-09
2.5923833e-12
1.7665612e-09
-2.4051567e-12
1.7663477e-09
2.2310842e-12
1.7665447e-09
-2.0666007e-12
1.7663632e-09
1.9127212e-12
1.7665302e-09
-1.7682558e-12
1.7663767e-09
1.6331208e-12
1.7665176e-09
-1.5067497e-12
1.7663885e-09
1.3887602e-12
1.7665066e-09
-1.2789131e-12
1.7663987e-09
1.1767838e-12
1.7664972e-09
-1.0820822e-12
1.7664074e-09
9.9447537e-13
1.7664892e-09
-9.1368838e-13
1.7664148e-09
8.3940523e-13
1.7664824e-09
-7.7144841e-13
1.766421e-09
7.0955228e-13
1.7664768e-09
-6.5345402e-13
1.766426e-09
6.0297203e-13
1.7664724e-09
-5.5800786e-13
1.76643e-09
5.1842214e-13
1.7664689e-09
-4.8368329e-13
1.7664328e-09
4.5433324e-13
1.7664666e-09
-4.3086077e-13
1.7664358e-09
4.0740141e-13
1.7664652e-09
-3.8692579e-13
1.7664221e-09
4.684165e-13
-2.8226722e-13
1.9545036e-09
2.0937237e-08
2.2050574e-09
-1.2502809e-09
2.0051175e-09
1.5252758e-09
2.027929e-09
-1.8073849e-10
1.9832337e-09
2.9185891e-10
1.9873213e-09
-7.8086454e-12
1.9785206e-09
5.5583191e-11
1.9756799e-09
1.5797679e-11
1.9749136e-09
1.0585084e-11
1.9741019e-09
6.4052909e-13
1.9738049e-09
5.7829152e-12
1.9740675e-09
-4.7476286e-12
1.9736957e-09
5.3290532e-12
1.9740979e-09
-5.1282905e-12
1.973706e-09
4.9350086e-12
1.9740781e-09
-4.6203547e-12
1.9737277e-09
4.344716e-12
1.9740497e-09
-4.0269624e-12
1.9737475e-09
3.7703059e-12
1.9740257e-09
-3.4972492e-12
1.9737665e-09
3.2611556e-12
1.9740057e-09
-3.0271091e-12
1.973784e-09
2.8141664e-12
1.9739886e-09
-2.6098326e-12
1.9737997e-09
2.4200664e-12
1.9739738e-09
-2.2406927e-12
1.9738136e-09
2.0729188e-12
1.9739607e-09
-1.9154359e-12
1.9738257e-09
1.7681276e-12
1.9739494e-09
-1.6304076e-12
1.9738363e-09
1.5017974e-12
1.9739395e-09
-1.3821027e-12
1.9738455e-09
1.2707998e-12
1.9739311e-09
-1.1676232e-12
1.9738534e-09
1.0721643e-12
1.9739238e-09
-9.8415796e-13
1.97386e-09
9.0321878e-13
1.9739178e-09
-8.2919508e-13
1.9738656e-09
7.6176456e-13
1.9739128e-09
-7.006523e-13
1.9738701e-09
6.456427e-13
1.9739087e-09
-5.9667064e-13
1.9738736e-09
5.5354503e-13
1.9739056e-09
-5.1566451e-13
1.9738762e-09
4.8374588e-13
1.9739036e-09
-4.5822355e-13
1.973879e-09
4.3197343e-13
1.9739027e-09
-4.1061473e-13
1.9738657e-09
5.0543251e-13
-2.8610354e-13
2.1159461e-09
2.2282916e-08
2.3895343e-09
-1.5238692e-09
2.2006518e-09
1.7141583e-09
2.2159571e-09
-1.9604377e-10
2.1815435e-09
3.262725e-10
2.1876559e-09
-1.392109e-11
2.1790671e-09
6.4171949e-11
2.1764726e-09
1.8392234e-11
2.1758971e-09
1.1160555e-11
2.1749742e-09
1.563446e-12
2.1747853e-09
5.9717775e-12
2.1749822e-09
-4.9445001e-12
2.1746765e-09
5.6347284e-12
2.1750296e-09
-5.4813755e-12
2.174686e-09
5.2786116e-12
2.1750145e-09
-4.9488759e-12
2.1747056e-09
4.6536914e-12
2.1749887e-09
-4.3100473e-12
2.1747228e-09
4.036128e-12
2.1749668e-09
-3.7411897e-12
2.1747396e-09
3.4883773e-12
2.1749489e-09
-3.2364608e-12
2.1747551e-09
3.0080171e-12
2.1749337e-09
-2.7884204e-12
2.174769e-09
2.5847154e-12
2.1749204e-09
-2.3920992e-12
2.1747814e-09
2.2119822e-12
2.1749089e-09
-2.042941e-12
2.1747922e-09
1.8848278e-12
2.1748988e-09
-1.7370408e-12
2.1748016e-09
1.5990033e-12
2.1748901e-09
-1.4705743e-12
2.1748097e-09
1.3511299e-12
2.1748825e-09
-1.2404377e-12
2.1748167e-09
1.1380157e-12
2.1748761e-09
-1.0436109e-12
2.1748226e-09
9.5676694e-13
2.1748708e-09
-8.7736792e-13
2.1748275e-09
8.0503568e-13
2.1748663e-09
-7.3947984e-13
2.1748315e-09
6.8045353e-13
2.1748628e-09
-6.2793643e-13
2.1748346e-09
5.8167691e-13
2.17486e-09
-5.4100665e-13
2.1748369e-09
5.0683822e-13
2.1748582e-09
-4.7949598e-13
2.1748395e-09
4.5063176e-13
2.1748578e-09
-4.2888136e-13
2.1748269e-09
5.3636008e-13
-2.839812e-13
2.2712082e-09
2.3473333e-08
2.5532027e-09
-1.8058638e-09
2.383837e-09
1.883524e-09
2.3955685e-09
-2.0777534e-10
2.3729585e-09
3.4888249e-10
2.3806926e-09
-2.1655151e-11
2.3729452e-09
7.1919286e-11
2.3707531e-09
2.0584323e-11
2.3703675e-09
1.154623e-11
2.3693638e-09
2.5671034e-12
2.3692829e-09
6.0526197e-12
2.3694151e-09
-5.0766756e-12
2.3691748e-09
5.8750836e-12
2.3694791e-09
-5.7856762e-12
2.3691835e-09
5.5741677e-12
2.3694686e-09
-5.2339163e-12
2.3692009e-09
4.9214155e-12
2.3694452e-09
-4.5543799e-12
2.3692156e-09
4.2657559e-12
2.3694255e-09
-3.9511504e-12
2.36923e-09
3.6838866e-12
2.3694097e-09
-3.4161621e-12
2.3692435e-09
3.1742106e-12
2.3693963e-09
-2.9412097e-12
2.3692557e-09
2.7253324e-12
2.3693848e-09
-2.5211311e-12
2.3692665e-09
2.3302296e-12
2.3693747e-09
-2.1510946e-12
2.3692759e-09
1.9835502e-12
2.3693659e-09
-1.8269798e-12
2.3692842e-09
1.6807118e-12
2.3693583e-09
-1.5446645e-12
2.3692913e-09
1.4181112e-12
2.3693517e-09
-1.300861e-12
2.3692973e-09
1.1923633e-12
2.3693461e-09
-1.0923806e-12
2.3693025e-09
1.0003866e-12
2.3693414e-09
-9.1630266e-13
2.3693068e-09
8.3969831e-13
2.3693376e-09
-7.7026993e-13
2.3693103e-09
7.0773987e-13
2.3693345e-09
-6.5214043e-13
2.369313e-09
6.0315252e-13
2.369332e-09
-5.6004501e-13
2.3693149e-09
5.2394485e-13
2.3693304e-09
-4.9500947e-13
2.3693173e-09
4.6373825e-13
2.3693305e-09
-4.4206081e-13
2.3693056e-09
5.613146e-13
-2.7662954e-13
2.4167094e-09
2.4518249e-08
2.708853e-09
-2.0980075e-09
2.5599009e-09
2.0324762e-09
2.5698121e-09
-2.176866e-10
2.5579164e-09
3.6077815e-10
2.5664569e-09
-3.0195647e-11
2.560193e-09
7.8183194e-11
2.5585291e-09
2.2248232e-11
2.5583249e-09
1.1750445e-11
2.5572713e-09
3.6206904e-12
2.557299e-09
6.0249481e-12
2.5573665e-09
-5.1442193e-12
2.5571905e-09
6.051115e-12
2.5574463e-09
-6.04154e-12
2.5571984e-09
5.8221102e-12
2.5574403e-09
-5.4757762e-12
2.5572134e-09
5.1482573e-12
2.5574194e-09
-4.7603532e-12
2.5572256e-09
4.4595949e-12
2.557402e-09
-4.1275642e-12
2.5572378e-09
3.8481171e-12
2.5573883e-09
-3.566659e-12
2.5572493e-09
3.3131949e-12
2.5573767e-09
-3.0686527e-12
2.5572597e-09
2.842367e-12
2.5573668e-09
-2.6282355e-12
2.5572689e-09
2.4281059e-12
2.5573582e-09
-2.2403372e-12
2.557277e-09
2.0647311e-12
2.5573507e-09
-1.9006563e-12
2.557284e-09
1.74735e-12
2.5573442e-09
-1.6047943e-12
2.5572901e-09
1.4721603e-12
2.5573385e-09
-1.3493035e-12
2.5572953e-09
1.2356131e-12
2.5573338e-09
-1.1308679e-12
2.5572997e-09
1.034471e-12
2.5573298e-09
-9.4638824e-13
2.5573033e-09
8.6614094e-13
2.5573265e-09
-7.934066e-13
2.5573063e-09
7.2788069e-13
2.5573239e-09
-6.6965928e-13
2.5573087e-09
6.1834706e-13
2.5573218e-09
-5.731532e-13
2.5573103e-09
5.3543367e-13
2.5573204e-09
-5.0512643e-13
2.5573124e-09
4.7168829e-13
2.5573209e-09
-4.5051444e-13
2.5573017e-09
5.8048016e-13
-2.6479411e-13
2.5690351e-09
2.5410838e-08
2.8504931e-09
-2.3794655e-09
2.7292261e-09
2.1537432e-09
2.7383587e-09
-2.2681924e-10
2.7363558e-09
3.6278106e-10
2.7452741e-09
-3.9113931e-11
2.7409024e-09
8.2554913e-11
2.7398219e-09
2.3328675e-11
2.7397728e-09
1.1799529e-11
2.7386984e-09
4.6951464e-12
2.7388355e-09
5.8878166e-12
2.7388371e-09
-5.1457857e-12
2.7387238e-09
6.1643371e-12
2.7389316e-09
-6.2492721e-12
2.7387306e-09
6.0231073e-12
2.7389298e-09
-5.6749301e-12
2.7387432e-09
5.3348091e-12
2.7389114e-09
-4.9285599e-12
2.7387528e-09
4.6182499e-12
2.7388963e-09
-4.2710461e-12
2.7387627e-09
3.9816791e-12
2.7388846e-09
-3.6885595e-12
2.7387722e-09
3.4255664e-12
2.7388749e-09
-3.1713355e-12
2.7387809e-09
2.9363961e-12
2.7388666e-09
-2.7139777e-12
2.7387886e-09
2.5061639e-12
2.7388594e-09
-2.311209e-12
2.7387953e-09
2.1288985e-12
2.7388532e-09
-1.9585849e-12
2.7388011e-09
1.7994217e-12
2.7388478e-09
-1.651458e-12
2.7388062e-09
1.513761e-12
2.7388431e-09
-1.3862368e-12
2.7388105e-09
1.2682244e-12
2.7388392e-09
-1.1595225e-12
2.7388142e-09
1.0594656e-12
2.7388358e-09
-9.6806145e-13
2.7388172e-09
8.8478899e-13
2.7388331e-09
-8.0931032e-13
2.7388197e-09
7.4129344e-13
2.7388309e-09
-6.8090404e-13
2.7388216e-09
6.2766599e-13
2.7388292e-09
-5.8073298e-13
2.7388229e-09
5.417005e-13
2.738828e-09
-5.1023872e-13
2.7388248e-09
4.748959e-13
2.7388289e-09
-4.5461186e-13
2.7388153e-09
5.9409947e-13
-2.4922556e-13
2.7058907e-09
2.6166573e-08
2.9888523e-09
-2.6624271e-09
2.893446e-09
2.2491496e-09
2.9012335e-09
-2.3460679e-10
2.9084995e-09
3.5551507e-10
2.9175838e-09
-4.8198305e-11
2.915153e-09
8.4985719e-11
2.9146439e-09
2.3837784e-11
2.9147134e-09
1.1730065e-11
2.9136449e-09
5.7636142e-12
2.9138937e-09
5.6390059e-12
2.9138271e-09
-5.0792025e-12
2.9137749e-09
6.2165802e-12
2.9139348e-09
-6.4092313e-12
2.91378e-09
6.1779916e-12
2.9139371e-09
-5.832057e-12
2.9137901e-09
5.4818441e-12
2.9139213e-09
-5.0597863e-12
2.9137971e-09
4.7424965e-12
2.9139084e-09
-4.3823777e-12
2.9138048e-09
4.0853297e-12
2.9138988e-09
-3.7826085e-12
2.9138123e-09
3.5120496e-12
2.913891e-09
-3.249965e-12
2.9138192e-09
3.0081031e-12
2.9138843e-09
-2.7790193e-12
2.9138254e-09
2.5650453e-12
2.9138785e-09
-2.3643307e-12
2.9138308e-09
2.1766541e-12
2.9138735e-09
-2.0013491e-12
2.9138355e-09
1.8374933e-12
2.9138692e-09
-1.6852049e-12
2.9138395e-09
1.5434494e-12
2.9138655e-09
-1.4121822e-12
2.913843e-09
1.2907052e-12
2.9138623e-09
-1.1788384e-12
2.9138459e-09
1.0758488e-12
2.9138596e-09
-9.8179039e-13
2.9138483e-09
8.9610456e-13
2.9138574e-09
-8.1843229e-13
2.9138503e-09
7.484194e-13
2.9138557e-09
-6.8630923e-13
2.9138519e-09
6.3153733e-13
2.9138543e-09
-5.8320714e-13
2.9138529e-09
5.4315801e-13
2.9138534e-09
-5.1075257e-13
2.9138545e-09
4.7379227e-13
2.9138546e-09
-4.5473769e-13
2.9138463e-09
6.0245975e-13
-2.306574e-13
2.8581975e-09
2.677e-08
3.118514e-09
-2.9227437e-09
3.0526761e-09
2.3149876e-09
3.0580987e-09
-2.4002946e-10
3.0744162e-09
3.391976e-10
3.0836679e-09
-5.7449969e-11
3.0830009e-09
8.5652715e-11
3.0830132e-09
2.3825378e-11
3.0831502e-09
1.1593084e-11
3.0821132e-09
6.8006019e-12
3.0824744e-09
5.27784e-12
3.0823372e-09
-4.9420076e-12
3.0823437e-09
6.2100931e-12
3.0824562e-09
-6.5217438e-12
3.0823464e-09
6.2877882e-12
3.0824624e-09
-5.9480029e-12
3.0823539e-09
5.5903118e-12
3.0824491e-09
-5.1549869e-12
3.0823584e-09
4.8332604e-12
3.0824385e-09
-4.462481e-12
3.0823639e-09
4.1599568e-12
3.0824309e-09
-3.8496708e-12
3.0823695e-09
3.5734744e-12
3.0824249e-09
-3.305341e-12
3.0823747e-09
3.0582597e-12
3.0824198e-09
-2.8241035e-12
3.0823794e-09
2.6054648e-12
3.0824154e-09
-2.4003896e-12
3.0823834e-09
2.2086599e-12
3.0824117e-09
-2.0295854e-12
3.082387e-09
1.8621799e-12
3.0824084e-09
-1.7066311e-12
3.0823901e-09
1.5618029e-12
3.0824056e-09
-1.4276989e-12
3.0823927e-09
1.3035944e-12
3.0824032e-09
-1.1893365e-12
3.0823949e-09
1.0841318e-12
3.0824012e-09
-9.880719e-13
3.0823967e-09
9.0056668e-13
3.0823995e-09
-8.2124253e-13
3.0823982e-09
7.497218e-13
3.0823982e-09
-6.8632604e-13
3.0823994e-09
6.3040244e-13
3.0823972e-09
-5.8101101e-13
3.0824001e-09
5.4023228e-13
3.0823964e-09
-5.0708878e-13
3.0824014e-09
4.6881103e-13
3.082398e-09
-4.5127281e-13
3.0823945e-09
6.058851e-13
-2.0980143e-13
2.986141e-09
2.7245484e-08
3.245943e-09
-3.1825457e-09
3.2075237e-09
2.3534069e-09
3.209361e-09
-2.4186679e-10
3.2342278e-09
3.1433082e-10
3.2436594e-09
-6.6881587e-11
3.2444688e-09
8.4843358e-11
3.2449301e-09
2.3364082e-11
3.2450863e-09
1.1436828e-11
3.2441119e-09
7.7750124e-12
3.2445768e-09
4.8129454e-12
3.2443679e-09
-4.7330851e-12
3.2444304e-09
6.1475717e-12
3.2444958e-09
-6.5871313e-12
3.2444299e-09
6.353696e-12
3.2445057e-09
-6.0237756e-12
3.2444347e-09
5.6613096e-12
3.244495e-09
-5.2152653e-12
3.2444366e-09
4.8915944e-12
3.2444866e-09
-4.5124002e-12
3.24444e-09
4.2065507e-12
3.244481e-09
-3.8907058e-12
3.2444437e-09
3.6107585e-12
3.2444767e-09
-3.3383461e-12
3.2444473e-09
3.0877078e-12
3.2444732e-09
-2.8500352e-12
3.2444505e-09
2.6281937e-12
3.2444702e-09
-2.4201237e-12
3.2444532e-09
2.2256227e-12
3.2444676e-09
-2.0439724e-12
3.2444557e-09
1.8741334e-12
3.2444654e-09
-1.7163627e-12
3.2444578e-09
1.5694281e-12
3.2444635e-09
-1.433374e-12
3.2444596e-09
1.3074597e-12
3.2444618e-09
-1.1915635e-12
3.2444611e-09
1.0848387e-12
3.2444605e-09
-9.8741561e-13
3.2444624e-09
8.9867537e-13
3.2444593e-09
-8.1822448e-13
3.2444634e-09
7.4567025e-13
3.2444585e-09
-6.8141412e-13
3.2444642e-09
6.2471023e-13
3.2444577e-09
-5.7458624e-13
3.2444646e-09
5.3335223e-13
3.2444572e-09
-4.9966831e-13
3.2444656e-09
4.6038989e-13
3.244459e-09
-4.4460374e-13
3.2444601e-09
6.0472373e-13
-1.873297e-13
3.1453935e-09
2.7561716e-08
3.3675559e-09
-3.4047081e-09
3.3576366e-09
2.3633261e-09
3.3560358e-09
-2.40266e-10
3.3881291e-09
2.8223752e-10
3.397567e-09
-7.6319488e-11
3.3995615e-09
8.2848855e-11
3.4003826e-09
2.2543007e-11
3.4005267e-09
1.1292656e-11
3.3996543e-09
8.647442e-12
3.4001979e-09
4.2693804e-12
3.3999196e-09
-4.4548497e-12
3.4000351e-09
6.032074e-12
3.4000537e-09
-6.6056998e-12
3.4000303e-09
6.3771029e-12
3.400067e-09
-6.0605025e-12
3.4000323e-09
5.6960789e-12
3.4000589e-09
-5.2418437e-12
3.4000318e-09
4.91866e-12
3.4000527e-09
-4.5332753e-12
3.400033e-09
4.2261916e-12
3.4000491e-09
-3.9067528e-12
3.400035e-09
3.6248873e-12
3.4000465e-09
-3.3499202e-12
3.4000369e-09
3.0973445e-12
3.4000445e-09
-2.8576705e-12
3.4000387e-09
2.6340471e-12
3.4000429e-09
-2.4243101e-12
3.4000402e-09
2.2282843e-12
3.4000414e-09
-2.0452177e-12
3.4000415e-09
1.8740317e-12
3.4000402e-09
-1.7150514e-12
3.4000427e-09
1.5669514e-12
3.4000391e-09
-1.4298121e-12
3.4000437e-09
1.3028818e-12
3.4000382e-09
-1.1860756e-12
3.4000446e-09
1.07851e-12
3.4000375e-09
-9.8034361e-13
3.4000452e-09
8.9093029e-13
3.4000369e-09
-8.0986638e-13
3.4000458e-09
7.3674246e-13
3.4000364e-09
-6.720345e-13
3.4000462e-09
6.1490953e-13
3.400036e-09
-5.6437383e-13
3.4000464e-09
5.2294734e-13
3.4000357e-09
-4.8891415e-13
3.4000471e-09
4.4895609e-13
3.4000376e-09
-4.3510331e-13
3.400043e-09
5.9934257e-13
-1.6387494e-13
3.2652192e-09
2.7758122e-08
3.484407e-09
-3.6238959e-09
3.5032636e-09
2.3444695e-09
3.4994788e-09
-2.3648122e-10
3.5362591e-09
2.4545726e-10
3.545368e-09
-8.5428435e-11
3.5482804e-09
7.9936489e-11
3.5493579e-09
2.146543e-11
3.5494809e-09
1.1169699e-11
3.5487481e-09
9.3802239e-12
3.5493323e-09
3.6851696e-12
3.5489921e-09
-4.1146403e-12
3.5491579e-09
5.8663115e-12
3.54913e-09
-6.5778271e-12
3.5491476e-09
6.3595244e-12
3.5491465e-09
-6.0594283e-12
3.5491467e-09
5.6959742e-12
3.5491409e-09
-5.2360436e-12
3.5491438e-09
4.9157067e-12
3.5491369e-09
-4.5263244e-12
3.549143e-09
4.2200243e-12
3.5491352e-09
-3.8989083e-12
3.5491432e-09
3.6169001e-12
3.5491343e-09
-3.3410544e-12
3.5491436e-09
3.0881075e-12
3.5491338e-09
-2.847899e-12
3.549144e-09
2.623871e-12
3.5491334e-09
-2.4137523e-12
3.5491443e-09
2.2174084e-12
3.5491331e-09
-2.034049e-12
3.5491446e-09
1.862569e-12
3.5491329e-09
-1.7033584e-12
3.5491448e-09
1.5550088e-12
3.5491326e-09
-1.4176271e-12
3.5491451e-09
1.2904534e-12
3.5491324e-09
-1.1734403e-12
3.5491452e-09
1.0656836e-12
3.5491323e-09
-9.6737525e-13
3.5491454e-09
8.7783936e-13
3.5491322e-09
-7.9665492e-13
3.5491455e-09
7.2340776e-13
3.5491321e-09
-6.5864488e-13
3.5491456e-09
6.0144476e-13
3.549132e-09
-5.5080842e-13
3.5491455e-09
5.0943751e-13
3.5491318e-09
-4.7523819e-13
3.5491459e-09
4.3493125e-13
3.5491339e-09
-4.2314219e-13
3.5491431e-09
5.9011582e-13
-1.4001578e-13
3.4170931e-09
2.7802654e-08
3.5975647e-09
-3.8043676e-09
3.6435126e-09
2.2985216e-09
3.6396272e-09
-2.3259578e-10
3.6785347e-09
2.0654969e-10
3.6870082e-09
-9.3901895e-11
3.6906064e-09
7.6338308e-11
3.69185e-09
2.0221801e-11
3.6919579e-09
1.1061767e-11
3.6913888e-09
9.9493107e-12
3.6919742e-09
3.0998128e-12
3.6915838e-09
-3.7243017e-12
3.6917984e-09
5.6517361e-12
3.6917247e-09
-6.5040774e-12
3.6917817e-09
6.3024991e-12
3.6917442e-09
-6.0219258e-12
3.6917778e-09
5.6624253e-12
3.691741e-09
-5.1992758e-12
3.6917727e-09
4.8840453e-12
3.6917392e-09
-4.4928263e-12
3.6917699e-09
4.1892458e-12
3.6917394e-09
-3.8683164e-12
3.6917684e-09
3.5878724e-12
3.6917401e-09
-3.3127683e-12
3.6917672e-09
3.0609629e-12
3.691741e-09
-2.8216372e-12
3.6917663e-09
2.5985322e-12
3.6917418e-09
-2.3892716e-12
3.6917655e-09
2.1937737e-12
3.6917426e-09
-2.0112039e-12
3.6917647e-09
1.8404469e-12
3.6917433e-09
-1.6819535e-12
3.6917641e-09
1.5342391e-12
3.6917439e-09
-1.3974328e-12
3.6917636e-09
1.2707638e-12
3.6917444e-09
-1.1542207e-12
3.6917632e-09
1.0469022e-12
3.6917448e-09
-9.4902896e-13
3.6917628e-09
8.5989518e-13
3.6917452e-09
-7.7907103e-13
3.6917625e-09
7.0613257e-13
3.6917455e-09
-6.4169182e-13
3.6917622e-09
5.8475018e-13
3.6917457e-09
-5.3431256e-13
3.6917619e-09
4.9323137e-13
3.6917457e-09
-4.5904462e-13
3.6917619e-09
4.1871698e-13
3.6917479e-09
-4.0906906e-13
3.6917605e-09
5.7742182e-13
-1.1628087e-13
3.5350418e-09
2.7729237e-08
3.7038483e-09
-3.9731741e-09
3.7784528e-09
2.2239172e-09
3.7759694e-09
-2.3011234e-10
3.8148506e-09
1.6766844e-10
3.8224583e-09
-1.0150956e-10
3.8265322e-09
7.226436e-11
3.8278629e-09
1.8891123e-11
3.8279652e-09
1.0959416e-11
3.8275676e-09
1.034694e-11
3.8281199e-09
2.5475165e-12
3.8276934e-09
-3.2978155e-12
3.8279565e-09
5.3886212e-12
3.8278376e-09
-6.3851384e-12
3.8279325e-09
6.2076104e-12
3.82786e-09
-5.9494555e-12
3.8279255e-09
5.5969247e-12
3.8278593e-09
-5.1330155e-12
3.8279183e-09
4.8250346e-12
3.8278596e-09
-4.4341045e-12
3.8279137e-09
4.1350848e-12
3.8278616e-09
-3.8161489e-12
3.8279105e-09
3.5389067e-12
3.8278639e-09
-3.266108e-12
3.8279079e-09
3.0168941e-12
3.8278661e-09
-2.7798132e-12
3.8279057e-09
2.5589082e-12
3.8278682e-09
-2.3516971e-12
3.8279038e-09
2.1581633e-12
3.82787e-09
-1.9774238e-12
3.8279021e-09
1.8083675e-12
3.8278716e-09
-1.6515007e-12
3.8279006e-09
1.5052754e-12
3.827873e-09
-1.369836e-12
3.8278994e-09
1.2443995e-12
3.8278741e-09
-1.1289795e-12
3.8278983e-09
1.022694e-12
3.8278751e-09
-9.2580871e-13
3.8278974e-09
8.3758827e-13
3.8278759e-09
-7.5758086e-13
3.8278967e-09
6.8536338e-13
3.8278766e-09
-6.2161023e-13
3.8278961e-09
5.6524566e-13
3.8278771e-09
-5.1529176e-13
3.8278956e-09
4.7471753e-13
3.8278773e-09
-4.4071857e-13
3.8278953e-09
4.0070268e-13
3.8278794e-09
-3.9322372e-13
3.8278952e-09
5.6163305e-13
-9.3136685e-14
3.6858595e-09
2.7505002e-08
3.8102365e-09
-4.0975511e-09
3.9080406e-09
2.126113e-09
3.9074542e-09
-2.2952599e-10
3.9450261e-09
1.3009657e-10
3.9516526e-09
-1.0813605e-10
3.9560301e-09
6.7886807e-11
3.9573946e-09
1.7526669e-11
3.9575044e-09
1.0849551e-11
3.9572763e-09
1.0575019e-11
3.9577683e-09
2.0555705e-12
3.9573202e-09
-2.8497037e-12
3.9576319e-09
5.0769432e-12
3.9574687e-09
-6.2219935e-12
3.9575999e-09
6.0764458e-12
3.957494e-09
-5.8435573e-12
3.9575899e-09
5.5010046e-12
3.9574957e-09
-5.038792e-12
3.9575807e-09
4.7400604e-12
3.9574981e-09
-4.3515128e-12
3.9575744e-09
4.058794e-12
3.9575019e-09
-3.7435999e-12
3.9575696e-09
3.4711172e-12
3.9575057e-09
-3.2021261e-12
3.9575657e-09
2.9568928e-12
3.9575092e-09
-2.7233637e-12
3.9575622e-09
2.5058801e-12
3.9575124e-09
-2.3018595e-12
3.9575592e-09
2.1113602e-12
3.9575152e-09
-1.9334454e-12
3.9575566e-09
1.7670264e-12
3.9575177e-09
-1.6126589e-12
3.9575543e-09
1.4687403e-12
3.9575199e-09
-1.3354294e-12
3.9575523e-09
1.2119285e-12
3.9575216e-09
-1.0982627e-12
3.9575507e-09
9.9358471e-13
3.9575231e-09
-8.9820849e-13