/*--------------------------------*- C++ -*----------------------------------*\
| =========                 |                                                 |
| \\      /  F ield         | OpenFOAM: The Open Source CFD Toolbox           |
|  \\    /   O peration     | Version:  2312                                  |
|   \\  /    A nd           | Website:  www.openfoam.com                      |
|    \\/     M anipulation  |                                                 |
\*---------------------------------------------------------------------------*/
FoamFile
{
    version     2.0;
    format      ascii;
    arch        "LSB;label=32;scalar=64";
    class       volSymmTensorField;
    location    "3";
    object      sigma_0;
}
// * * * * * * * * * * * * * * * * * * * * * * * * * * * * * * * * * * * * * //

dimensions      [0 2 -2 0 0 0 0];

internalField   nonuniform List<symmTensor> 
4000
(
(-3.8571524 -1.7663478 0 -0.7551332 0 0)
(-13.120686 -0.71794144 0 -0.012242368 0 0)
(-4.2757825 -0.37857051 0 -0.0024170308 0 0)
(-4.7256873 -0.39536765 0 0.00026827258 0 0)
(-4.2576633 -0.37742234 0 -0.00020737129 0 0)
(-4.164447 -0.37245507 0 2.3068853e-05 0 0)
(-4.1825007 -0.37372072 0 -6.1907426e-05 0 0)
(-4.0691658 -0.36816526 0 1.2523336e-05 0 0)
(-4.1229317 -0.37089773 0 -3.1273727e-05 0 0)
(-4.0565802 -0.36758581 0 2.0376693e-05 0 0)
(-4.1046341 -0.37003026 0 -2.3453024e-05 0 0)
(-4.0584516 -0.36768441 0 2.0705874e-05 0 0)
(-4.0987774 -0.36974549 0 -2.0175119e-05 0 0)
(-4.0612316 -0.36782614 0 1.8736498e-05 0 0)
(-4.095805 -0.36959554 0 -1.7680299e-05 0 0)
(-4.0635033 -0.36794314 0 1.6494598e-05 0 0)
(-4.0935955 -0.36948251 0 -1.5451206e-05 0 0)
(-4.0654601 -0.36804383 0 1.4405586e-05 0 0)
(-4.0916951 -0.36938541 0 -1.3458855e-05 0 0)
(-4.0672032 -0.36813311 0 1.2537299e-05 0 0)
(-4.0900233 -0.36930018 0 -1.1688533e-05 0 0)
(-4.0687584 -0.36821253 0 1.0874235e-05 0 0)
(-4.0885468 -0.36922497 0 -1.0117548e-05 0 0)
(-4.0701397 -0.368283 0 9.3971407e-06 0 0)
(-4.0872422 -0.36915851 0 -8.7256967e-06 0 0)
(-4.0713629 -0.36834541 0 8.0896672e-06 0 0)
(-4.0860901 -0.36909976 0 -7.4968515e-06 0 0)
(-4.0724437 -0.36840059 0 6.9375186e-06 0 0)
(-4.0850736 -0.36904789 0 -6.4170448e-06 0 0)
(-4.0733975 -0.36844931 0 5.9278734e-06 0 0)
(-4.0841775 -0.36900213 0 -5.4738497e-06 0 0)
(-4.0742384 -0.36849226 0 5.0489038e-06 0 0)
(-4.0833876 -0.3689618 0 -4.655867e-06 0 0)
(-4.07498 -0.36853012 0 4.2897407e-06 0 0)
(-4.0826907 -0.36892626 0 -3.9526921e-06 0 0)
(-4.0756352 -0.36856351 0 3.640581e-06 0 0)
(-4.0820742 -0.36889488 0 -3.3550581e-06 0 0)
(-4.0762159 -0.36859302 0 3.0927472e-06 0 0)
(-4.0815265 -0.3688671 0 -2.8549202e-06 0 0)
(-4.0767334 -0.3686192 0 2.6388122e-06 0 0)
(-4.0810366 -0.36884239 0 -2.4453852e-06 0 0)
(-4.0771984 -0.36864257 0 2.2725017e-06 0 0)
(-4.0805943 -0.36882025 0 -2.1210024e-06 0 0)
(-4.0776203 -0.3686636 0 1.9888932e-06 0 0)
(-4.0801897 -0.3688002 0 -1.8770789e-06 0 0)
(-4.0780092 -0.36868276 0 1.7852153e-06 0 0)
(-4.0798173 -0.36878197 0 -1.7132571e-06 0 0)
(-4.078373 -0.36870049 0 1.6412086e-06 0 0)
(-4.079418 -0.36876316 0 -1.7013962e-06 0 0)
(-4.0784784 -0.36870577 0 1.5519851e-06 0 0)
(-3.4159316 -1.6479575 0 -0.72745205 0 0)
(-10.725198 -0.69839936 0 -0.026815235 0 0)
(-5.0447125 -0.42995351 0 -0.0071666878 0 0)
(-4.3768438 -0.37878857 0 0.00026611723 0 0)
(-3.9570427 -0.36528766 0 -0.0005223235 0 0)
(-3.8427784 -0.35785222 0 -2.1818097e-06 0 0)
(-3.871444 -0.3598814 0 -0.00011833996 0 0)
(-3.7752395 -0.35466092 0 -1.919632e-05 0 0)
(-3.8178281 -0.35699878 0 -4.2764151e-05 0 0)
(-3.7623715 -0.35397617 0 1.3701419e-05 0 0)
(-3.8011688 -0.35613499 0 -2.6172226e-05 0 0)
(-3.7629604 -0.35400543 0 2.081594e-05 0 0)
(-3.796133 -0.35587244 0 -2.172972e-05 0 0)
(-3.7650902 -0.35412297 0 1.9961359e-05 0 0)
(-3.7936779 -0.35573826 0 -1.9070518e-05 0 0)
(-3.7669541 -0.35422823 0 1.7743585e-05 0 0)
(-3.7918379 -0.35563509 0 -1.6669965e-05 0 0)
(-3.7685851 -0.35432079 0 1.5506433e-05 0 0)
(-3.790244 -0.35554543 0 -1.4504469e-05 0 0)
(-3.7700409 -0.35440318 0 1.3491114e-05 0 0)
(-3.7888409 -0.35546653 0 -1.2581259e-05 0 0)
(-3.7713391 -0.35447654 0 1.1694196e-05 0 0)
(-3.7876037 -0.35539695 0 -1.0878247e-05 0 0)
(-3.7724906 -0.35454158 0 1.009681e-05 0 0)
(-3.786513 -0.35533555 0 -9.3710619e-06 0 0)
(-3.7735081 -0.35459909 0 8.6825489e-06 0 0)
(-3.7855522 -0.35528141 0 -8.0412872e-06 0 0)
(-3.774405 -0.35464981 0 7.4363263e-06 0 0)
(-3.7847068 -0.35523372 0 -6.8733097e-06 0 0)
(-3.7751942 -0.35469447 0 6.3445925e-06 0 0)
(-3.7839637 -0.35519178 0 -5.8535431e-06 0 0)
(-3.7758881 -0.35473373 0 5.3944853e-06 0 0)
(-3.7833106 -0.35515493 0 -4.9695527e-06 0 0)
(-3.7764983 -0.35476823 0 4.5741732e-06 0 0)
(-3.7827361 -0.35512255 0 -4.2099067e-06 0 0)
(-3.7770358 -0.35479856 0 3.872985e-06 0 0)
(-3.7822294 -0.35509405 0 -3.5644886e-06 0 0)
(-3.777511 -0.35482529 0 3.2814439e-06 0 0)
(-3.7817804 -0.35506891 0 -3.0246462e-06 0 0)
(-3.7779333 -0.35484892 0 2.7916108e-06 0 0)
(-3.7813801 -0.35504661 0 -2.5828748e-06 0 0)
(-3.7783119 -0.35486996 0 2.3967291e-06 0 0)
(-3.7810195 -0.35502669 0 -2.2337462e-06 0 0)
(-3.7786548 -0.35488883 0 2.0916224e-06 0 0)
(-3.7806902 -0.35500871 0 -1.9720605e-06 0 0)
(-3.7789701 -0.35490594 0 1.8759997e-06 0 0)
(-3.7803877 -0.35499241 0 -1.7974072e-06 0 0)
(-3.7792707 -0.35492215 0 1.7104712e-06 0 0)
(-3.7800846 -0.35497745 0 -1.9076459e-06 0 0)
(-3.7794098 -0.3549302 0 1.5003549e-06 0 0)
(-3.126793 -1.5271211 0 -0.66432895 0 0)
(-8.9201015 -0.63950925 0 -0.030639551 0 0)
(-5.0037746 -0.44352908 0 -0.010892646 0 0)
(-4.2546547 -0.37322148 0 2.0507853e-05 0 0)
(-3.7676178 -0.35716405 0 -0.0007791463 0 0)
(-3.6371452 -0.34814466 0 -2.3086753e-05 0 0)
(-3.665445 -0.35038563 0 -0.0001523834 0 0)
(-3.5824505 -0.34554167 0 -4.6589902e-05 0 0)
(-3.6200445 -0.34768447 0 -4.851373e-05 0 0)
(-3.571133 -0.34485338 0 5.9489083e-06 0 0)
(-3.6049083 -0.34684384 0 -2.5920663e-05 0 0)
(-3.571271 -0.34485029 0 1.8620072e-05 0 0)
(-3.6003313 -0.34659372 0 -2.0714085e-05 0 0)
(-3.5730613 -0.34495485 0 1.8830873e-05 0 0)
(-3.5981606 -0.34646887 0 -1.8159671e-05 0 0)
(-3.5746984 -0.34505325 0 1.6855837e-05 0 0)
(-3.5965402 -0.3463722 0 -1.5871109e-05 0 0)
(-3.5761424 -0.34514062 0 1.4734223e-05 0 0)
(-3.595133 -0.3462877 0 -1.3798357e-05 0 0)
(-3.5774321 -0.3452185 0 1.281743e-05 0 0)
(-3.5938932 -0.34621322 0 -1.1958322e-05 0 0)
(-3.5785817 -0.34528785 0 1.11066e-05 0 0)
(-3.592801 -0.34614755 0 -1.0331688e-05 0 0)
(-3.5796005 -0.3453493 0 9.5842549e-06 0 0)
(-3.5918394 -0.34608967 0 -8.8932658e-06 0 0)
(-3.5804996 -0.34540358 0 8.2358837e-06 0 0)
(-3.5909937 -0.3460387 0 -7.6246937e-06 0 0)
(-3.5812907 -0.34545137 0 7.0474934e-06 0 0)
(-3.5902511 -0.34599389 0 -6.5107009e-06 0 0)
(-3.5819855 -0.34549336 0 6.0064306e-06 0 0)
(-3.5895997 -0.34595456 0 -5.5381523e-06 0 0)
(-3.5825952 -0.34553021 0 5.1004423e-06 0 0)
(-3.5890284 -0.34592008 0 -4.6951969e-06 0 0)
(-3.5831301 -0.34556252 0 4.3182016e-06 0 0)
(-3.5885269 -0.34588983 0 -3.9707688e-06 0 0)
(-3.5836003 -0.34559086 0 3.649484e-06 0 0)
(-3.5880856 -0.34586327 0 -3.3551692e-06 0 0)
(-3.5840149 -0.34561579 0 3.085236e-06 0 0)
(-3.5876956 -0.34583988 0 -2.8402038e-06 0 0)
(-3.5843825 -0.34563779 0 2.6178986e-06 0 0)
(-3.5873485 -0.34581918 0 -2.4186395e-06 0 0)
(-3.5847112 -0.34565734 0 2.2411242e-06 0 0)
(-3.5870365 -0.34580072 0 -2.0856899e-06 0 0)
(-3.5850083 -0.34567484 0 1.949991e-06 0 0)
(-3.5867522 -0.34578407 0 -1.8364544e-06 0 0)
(-3.5852807 -0.34569067 0 1.746481e-06 0 0)
(-3.5864912 -0.34576898 0 -1.6688807e-06 0 0)
(-3.5855414 -0.34570576 0 1.5859986e-06 0 0)
(-3.5862344 -0.34575585 0 -1.8541215e-06 0 0)
(-3.5856822 -0.34571413 0 1.4393862e-06 0 0)
(-2.9197788 -1.4280537 0 -0.61034767 0 0)
(-7.9118797 -0.61134056 0 -0.034335777 0 0)
(-4.9091638 -0.4542912 0 -0.014634837 0 0)
(-4.145586 -0.36802924 0 -0.00020007464 0 0)
(-3.6004719 -0.3498684 0 -0.0011060282 0 0)
(-3.4426681 -0.33864791 0 -5.2060674e-05 0 0)
(-3.466282 -0.34090136 0 -0.00018742659 0 0)
(-3.3939436 -0.33641111 0 -7.7709183e-05 0 0)
(-3.427965 -0.33837222 0 -5.2043141e-05 0 0)
(-3.3844492 -0.33572916 0 -4.3357647e-06 0 0)
(-3.4142989 -0.33755838 0 -2.3717727e-05 0 0)
(-3.3842898 -0.33569439 0 1.4535908e-05 0 0)
(-3.4100871 -0.33731882 0 -1.7952958e-05 0 0)
(-3.3857942 -0.33578595 0 1.6089375e-05 0 0)
(-3.4081267 -0.33720213 0 -1.5728288e-05 0 0)
(-3.3872462 -0.33587775 0 1.4553909e-05 0 0)
(-3.4066729 -0.33711135 0 -1.3744674e-05 0 0)
(-3.3885409 -0.33596017 0 1.2722325e-05 0 0)
(-3.4054093 -0.33703164 0 -1.1932999e-05 0 0)
(-3.3896975 -0.33603365 0 1.1061582e-05 0 0)
(-3.4042961 -0.33696132 0 -1.032537e-05 0 0)
(-3.3907274 -0.33609902 0 9.5778934e-06 0 0)
(-3.4033166 -0.33689939 0 -8.9082558e-06 0 0)
(-3.3916388 -0.33615689 0 8.2562449e-06 0 0)
(-3.4024555 -0.33684487 0 -7.6571046e-06 0 0)
(-3.3924418 -0.33620791 0 7.0853183e-06 0 0)
(-3.4016998 -0.33679697 0 -6.5547201e-06 0 0)
(-3.393147 -0.33625275 0 6.0532887e-06 0 0)
(-3.4010375 -0.33675494 0 -5.587192e-06 0 0)
(-3.3937651 -0.33629207 0 5.1494298e-06 0 0)
(-3.4004579 -0.33671812 0 -4.7427701e-06 0 0)
(-3.3943063 -0.3363265 0 4.3629597e-06 0 0)
(-3.3999507 -0.33668591 0 -4.0110721e-06 0 0)
(-3.3947801 -0.33635663 0 3.6839596e-06 0 0)
(-3.3995065 -0.33665772 0 -3.3822587e-06 0 0)
(-3.3951954 -0.33638301 0 3.1034633e-06 0 0)
(-3.3991168 -0.33663301 0 -2.8477921e-06 0 0)
(-3.3955607 -0.33640616 0 2.6134998e-06 0 0)
(-3.3987733 -0.3366113 0 -2.4006028e-06 0 0)
(-3.3958836 -0.33642654 0 2.2075556e-06 0 0)
(-3.3984686 -0.33659212 0 -2.0342736e-06 0 0)
(-3.3961714 -0.33644462 0 1.8801138e-06 0 0)
(-3.3981957 -0.33657506 0 -1.7450483e-06 0 0)
(-3.3964307 -0.33646078 0 1.6268012e-06 0 0)
(-3.3979478 -0.33655969 0 -1.5284871e-06 0 0)
(-3.3966676 -0.33647537 0 1.4517885e-06 0 0)
(-3.3977207 -0.33654575 0 -1.3800942e-06 0 0)
(-3.3968947 -0.33648937 0 1.3029796e-06 0 0)
(-3.3975028 -0.3365343 0 -1.6441745e-06 0 0)
(-3.3970367 -0.33649812 0 1.1841802e-06 0 0)
(-2.8993197 -1.3905686 0 -0.57443145 0 0)
(-6.9121307 -0.57452727 0 -0.03635635 0 0)
(-4.7047727 -0.45809422 0 -0.01781723 0 0)
(-4.0165215 -0.36245417 0 -0.00045533828 0 0)
(-3.4428061 -0.34273038 0 -0.0014530418 0 0)
(-3.2579148 -0.32926808 0 -7.8346956e-05 0 0)
(-3.2727824 -0.33134541 0 -0.00021661857 0 0)
(-3.2095542 -0.3272141 0 -0.00010305176 0 0)
(-3.2410322 -0.32904495 0 -5.424043e-05 0 0)
(-3.202317 -0.32658555 0 -1.3442372e-05 0 0)
(-3.2290284 -0.32827736 0 -2.1584492e-05 0 0)
(-3.2021077 -0.3265308 0 1.0823798e-05 0 0)
(-3.2251837 -0.32804902 0 -1.5338624e-05 0 0)
(-3.2033944 -0.32661181 0 1.3545903e-05 0 0)
(-3.2233984 -0.32793948 0 -1.3427868e-05 0 0)
(-3.2046923 -0.32669801 0 1.2391127e-05 0 0)
(-3.2220829 -0.32785391 0 -1.1734635e-05 0 0)
(-3.2058624 -0.32677608 0 1.0825094e-05 0 0)
(-3.2209407 -0.32777853 0 -1.0171478e-05 0 0)
(-3.2069078 -0.32684563 0 9.4047499e-06 0 0)
(-3.219935 -0.32771201 0 -8.7843699e-06 0 0)
(-3.2078373 -0.32690743 0 8.1358367e-06 0 0)
(-3.2190512 -0.3276535 0 -7.5659407e-06 0 0)
(-3.2086584 -0.32696204 0 7.0043785e-06 0 0)
(-3.2182757 -0.3276021 0 -6.4924401e-06 0 0)
(-3.2093806 -0.3270101 0 6.0017267e-06 0 0)
(-3.2175965 -0.32755702 0 -5.5477012e-06 0 0)
(-3.2100136 -0.32705225 0 5.1180121e-06 0 0)
(-3.2170026 -0.32751755 0 -4.7190988e-06 0 0)
(-3.2105671 -0.32708913 0 4.344233e-06 0 0)
(-3.2164839 -0.32748306 0 -3.9961152e-06 0 0)
(-3.2110507 -0.32712135 0 3.6710323e-06 0 0)
(-3.2160312 -0.32745295 0 -3.369831e-06 0 0)
(-3.211473 -0.32714949 0 3.0898364e-06 0 0)
(-3.2156358 -0.32742665 0 -2.831561e-06 0 0)
(-3.2118422 -0.32717406 0 2.5928697e-06 0 0)
(-3.2152899 -0.32740367 0 -2.3739037e-06 0 0)
(-3.2121659 -0.32719557 0 2.1732567e-06 0 0)
(-3.2149859 -0.32738352 0 -1.9908565e-06 0 0)
(-3.2124511 -0.32721448 0 1.8253837e-06 0 0)
(-3.2147173 -0.32736576 0 -1.6767428e-06 0 0)
(-3.2127043 -0.32723119 0 1.5445623e-06 0 0)
(-3.2144777 -0.32735 0 -1.4286995e-06 0 0)
(-3.2129315 -0.3272461 0 1.3267724e-06 0 0)
(-3.2142608 -0.32733583 0 -1.242688e-06 0 0)
(-3.2131383 -0.32725953 0 1.1777923e-06 0 0)
(-3.2140629 -0.32732297 0 -1.1109587e-06 0 0)
(-3.2133363 -0.32727246 0 1.040346e-06 0 0)
(-3.2138768 -0.32731292 0 -1.4285145e-06 0 0)
(-3.2134742 -0.32728133 0 9.3760668e-07 0 0)
(-2.7726495 -1.2859539 0 -0.50503569 0 0)
(-5.933895 -0.53926378 0 -0.037332433 0 0)
(-4.4368658 -0.45671671 0 -0.020232195 0 0)
(-3.8477581 -0.35640929 0 -0.00096700326 0 0)
(-3.2978851 -0.33656992 0 -0.0019249289 0 0)
(-3.0875643 -0.32036406 0 -0.00012738479 0 0)
(-3.0889169 -0.32194095 0 -0.00025069623 0 0)
(-3.0302119 -0.31798309 0 -0.00012362391 0 0)
(-3.0594978 -0.31971409 0 -5.570467e-05 0 0)
(-3.0250078 -0.31742995 0 -2.1001733e-05 0 0)
(-3.0490324 -0.31900016 0 -1.9894808e-05 0 0)
(-3.0248443 -0.31736267 0 7.7884211e-06 0 0)
(-3.0455407 -0.31878302 0 -1.3197976e-05 0 0)
(-3.0259545 -0.31743464 0 1.1491171e-05 0 0)
(-3.0439064 -0.31867972 0 -1.1541449e-05 0 0)
(-3.027116 -0.31751574 0 1.0630311e-05 0 0)
(-3.0427103 -0.31859886 0 -1.0088223e-05 0 0)
(-3.0281755 -0.31758982 0 9.2735622e-06 0 0)
(-3.0416747 -0.31852749 0 -8.7294499e-06 0 0)
(-3.0291225 -0.31765571 0 8.0483351e-06 0 0)
(-3.0407641 -0.31846454 0 -7.5228562e-06 0 0)
(-3.029963 -0.31771413 0 6.9553285e-06 0 0)
(-3.0399652 -0.31840925 0 -6.4672003e-06 0 0)
(-3.0307041 -0.31776567 0 5.9798861e-06 0 0)
(-3.0392656 -0.31836078 0 -5.5394052e-06 0 0)
(-3.0313546 -0.31781093 0 5.1153269e-06 0 0)
(-3.0386541 -0.31831836 0 -4.7240205e-06 0 0)
(-3.0319236 -0.31785055 0 4.3533053e-06 0 0)
(-3.0381206 -0.31828132 0 -4.009414e-06 0 0)
(-3.0324201 -0.31788513 0 3.6862248e-06 0 0)
(-3.0376559 -0.31824901 0 -3.3860104e-06 0 0)
(-3.0328528 -0.31791527 0 3.1058536e-06 0 0)
(-3.0372511 -0.31822088 0 -2.8461184e-06 0 0)
(-3.0332297 -0.31794152 0 2.6047884e-06 0 0)
(-3.0368987 -0.31819637 0 -2.3820386e-06 0 0)
(-3.0335583 -0.3179644 0 2.1762529e-06 0 0)
(-3.0365912 -0.318175 0 -1.9872935e-06 0 0)
(-3.0338455 -0.31798437 0 1.8142347e-06 0 0)
(-3.036322 -0.31815631 0 -1.6567799e-06 0 0)
(-3.0340976 -0.31800187 0 1.5139117e-06 0 0)
(-3.0360849 -0.3181399 0 -1.3854025e-06 0 0)
(-3.0343206 -0.3180173 0 1.2712205e-06 0 0)
(-3.0358744 -0.31812537 0 -1.1710177e-06 0 0)
(-3.0345198 -0.31803103 0 1.0824051e-06 0 0)
(-3.0356847 -0.31811235 0 -1.0099154e-06 0 0)
(-3.0347002 -0.31804335 0 9.5431978e-07 0 0)
(-3.0355121 -0.31810053 0 -8.9097386e-07 0 0)
(-3.0348726 -0.31805524 0 8.2623944e-07 0 0)
(-3.0353534 -0.31809168 0 -1.242217e-06 0 0)
(-3.0350039 -0.31806409 0 7.2580591e-07 0 0)
(-2.7840217 -1.26211 0 -0.48350706 0 0)
(-4.9439358 -0.50929094 0 -0.040178409 0 0)
(-4.1465711 -0.45173061 0 -0.02146222 0 0)
(-3.5740853 -0.34595458 0 -0.0016936756 0 0)
(-3.1023888 -0.32809275 0 -0.0023507219 0 0)
(-2.9108999 -0.3110404 0 -0.00016120712 0 0)
(-2.907126 -0.31236766 0 -0.00027708031 0 0)
(-2.8555179 -0.30871907 0 -0.00013716165 0 0)
(-2.8828552 -0.31036316 0 -5.6506762e-05 0 0)
(-2.85242 -0.3082589 0 -2.7186503e-05 0 0)
(-2.8741855 -0.30972252 0 -1.8488974e-05 0 0)
(-2.8524982 -0.30818999 0 5.2484024e-06 0 0)
(-2.8711017 -0.30951901 0 -1.1384885e-05 0 0)
(-2.8534973 -0.30825522 0 9.7824326e-06 0 0)
(-2.8696161 -0.30942177 0 -9.9428139e-06 0 0)
(-2.8545432 -0.30833179 0 9.1533792e-06 0 0)
(-2.8685277 -0.30934534 0 -8.6965838e-06 0 0)
(-2.8555039 -0.30840209 0 7.9663302e-06 0 0)
(-2.8675881 -0.30927781 0 -7.5127163e-06 0 0)
(-2.8563622 -0.30846448 0 6.9044619e-06 0 0)
(-2.8667634 -0.30921829 0 -6.4591597e-06 0 0)
(-2.8571225 -0.30851966 0 5.9600838e-06 0 0)
(-2.8660411 -0.30916612 0 -5.5412162e-06 0 0)
(-2.8577916 -0.30856824 0 5.1166754e-06 0 0)
(-2.8654099 -0.30912048 0 -4.73669e-06 0 0)
(-2.8583776 -0.3086108 0 4.3689667e-06 0 0)
(-2.8648594 -0.30908063 0 -4.0307153e-06 0 0)
(-2.8588891 -0.30864798 0 3.7098903e-06 0 0)
(-2.8643802 -0.3090459 0 -3.4125131e-06 0 0)
(-2.8593344 -0.30868035 0 3.1329909e-06 0 0)
(-2.8639638 -0.3090157 0 -2.8732383e-06 0 0)
(-2.8597215 -0.3087085 0 2.6310318e-06 0 0)
(-2.863602 -0.30898945 0 -2.4063102e-06 0 0)
(-2.8600579 -0.30873296 0 2.1976299e-06 0 0)
(-2.8632879 -0.30896665 0 -2.0048661e-06 0 0)
(-2.8603502 -0.30875421 0 1.8268555e-06 0 0)
(-2.8630147 -0.30894682 0 -1.6632392e-06 0 0)
(-2.8606049 -0.30877271 0 1.5134914e-06 0 0)
(-2.8627764 -0.30892954 0 -1.3770956e-06 0 0)
(-2.8608276 -0.30878887 0 1.2533072e-06 0 0)
(-2.8625674 -0.3089144 0 -1.1418148e-06 0 0)
(-2.8610237 -0.30880307 0 1.0428394e-06 0 0)
(-2.8623826 -0.30890105 0 -9.5583403e-07 0 0)
(-2.8611982 -0.30881567 0 8.7847619e-07 0 0)
(-2.8622169 -0.30888912 0 -8.1580255e-07 0 0)
(-2.8613553 -0.30882694 0 7.6781218e-07 0 0)
(-2.8620667 -0.3088783 0 -7.0743876e-07 0 0)
(-2.8615051 -0.30883781 0 6.4837608e-07 0 0)
(-2.8619314 -0.30887053 0 -1.0773998e-06 0 0)
(-2.8616283 -0.30884652 0 5.4380214e-07 0 0)
(-2.7881878 -1.170497 0 -0.41621677 0 0)
(-4.0056318 -0.48168892 0 -0.043913244 0 0)
(-3.8316178 -0.44119275 0 -0.021535065 0 0)
(-3.3565355 -0.34662587 0 -0.0044867734 0 0)
(-2.9500275 -0.3226642 0 -0.0030824431 0 0)
(-2.7521662 -0.30246812 0 -0.00025693955 0 0)
(-2.7379695 -0.30313416 0 -0.00031978868 0 0)
(-2.6865225 -0.29943972 0 -0.00014822092 0 0)
(-2.711929 -0.30101859 0 -5.6161837e-05 0 0)
(-2.6848758 -0.29907963 0 -3.2013685e-05 0 0)
(-2.7045912 -0.30044712 0 -1.7124615e-05 0 0)
(-2.6851376 -0.29901449 0 3.0733261e-06 0 0)
(-2.7018672 -0.3002572 0 -9.776248e-06 0 0)
(-2.6860455 -0.29907412 0 8.2961615e-06 0 0)
(-2.7005157 -0.3001655 0 -8.528878e-06 0 0)
(-2.6869884 -0.29914641 0 7.8587168e-06 0 0)
(-2.6995237 -0.3000932 0 -7.4685335e-06 0 0)
(-2.6878591 -0.29921306 0 6.8170531e-06 0 0)
(-2.6986705 -0.30002937 0 -6.4414242e-06 0 0)
(-2.688637 -0.29927207 0 5.8984635e-06 0 0)
(-2.6979236 -0.29997317 0 -5.5238521e-06 0 0)
(-2.6893246 -0.29932412 0 5.0854106e-06 0 0)
(-2.6972709 -0.29992402 0 -4.7278134e-06 0 0)
(-2.6899284 -0.29936982 0 4.358748e-06 0 0)
(-2.6967016 -0.29988111 0 -4.0322652e-06 0 0)
(-2.6904561 -0.29940979 0 3.7143171e-06 0 0)
(-2.6962062 -0.29984374 0 -3.4229447e-06 0 0)
(-2.6909157 -0.2994446 0 3.1461611e-06 0 0)
(-2.695776 -0.29981125 0 -2.8898589e-06 0 0)
(-2.6913149 -0.29947485 0 2.6488631e-06 0 0)
(-2.695403 -0.29978306 0 -2.4247976e-06 0 0)
(-2.6916611 -0.29950109 0 2.2160351e-06 0 0)
(-2.6950798 -0.29975862 0 -2.0221823e-06 0 0)
(-2.6919611 -0.29952383 0 1.8422787e-06 0 0)
(-2.6948 -0.29973745 0 -1.6759577e-06 0 0)
(-2.6922211 -0.29954353 0 1.5224342e-06 0 0)
(-2.6945575 -0.2997191 0 -1.3811489e-06 0 0)
(-2.6924467 -0.29956062 0 1.2519458e-06 0 0)
(-2.6943468 -0.29970316 0 -1.1341337e-06 0 0)
(-2.6926431 -0.2995755 0 1.0271718e-06 0 0)
(-2.6941628 -0.29968925 0 -9.3068005e-07 0 0)
(-2.6928154 -0.29958853 0 8.4512211e-07 0 0)
(-2.6940009 -0.29967702 0 -7.6976294e-07 0 0)
(-2.6929679 -0.29960005 0 7.0236217e-07 0 0)
(-2.6938564 -0.29966614 0 -6.483645e-07 0 0)
(-2.6931045 -0.29961031 0 6.0688211e-07 0 0)
(-2.6937259 -0.29965626 0 -5.4950475e-07 0 0)
(-2.6932342 -0.29962021 0 4.9600964e-07 0 0)
(-2.693611 -0.29964944 0 -9.2682484e-07 0 0)
(-2.6933484 -0.29962867 0 3.8547189e-07 0 0)
(-2.8234037 -1.1307637 0 -0.38500016 0 0)
(-3.3297514 -0.46367061 0 -0.048332462 0 0)
(-3.4871654 -0.41520434 0 -0.018793915 0 0)
(-3.049831 -0.33631274 0 -0.0060730381 0 0)
(-2.7559371 -0.31316466 0 -0.0033335271 0 0)
(-2.5800653 -0.29289519 0 -0.00029851632 0 0)
(-2.5662722 -0.29351357 0 -0.00034260762 0 0)
(-2.5223438 -0.2901564 0 -0.00015256875 0 0)
(-2.5456778 -0.29164973 0 -5.5467832e-05 0 0)
(-2.5220641 -0.2898845 0 -3.5648849e-05 0 0)
(-2.540067 -0.29116866 0 -1.5796775e-05 0 0)
(-2.5227024 -0.28983388 0 1.1987634e-06 0 0)
(-2.5377862 -0.29099621 0 -8.3190353e-06 0 0)
(-2.5235926 -0.28989078 0 6.9856923e-06 0 0)
(-2.5365853 -0.29091059 0 -7.2559603e-06 0 0)
(-2.5244573 -0.28995948 0 6.7070681e-06 0 0)
(-2.5356867 -0.2908424 0 -6.3672295e-06 0 0)
(-2.5252491 -0.2900227 0 5.7919229e-06 0 0)
(-2.5349135 -0.29078216 0 -5.4837499e-06 0 0)
(-2.5259542 -0.29007845 0 5.000969e-06 0 0)
(-2.5342377 -0.2907292 0 -4.6893544e-06 0 0)
(-2.5265759 -0.29012746 0 4.3057088e-06 0 0)
(-2.5336482 -0.29068297 0 -4.0030941e-06 0 0)
(-2.5271204 -0.2901704 0 3.6838996e-06 0 0)
(-2.5331352 -0.2906427 0 -3.4054611e-06 0 0)
(-2.5275954 -0.29020786 0 3.1321719e-06 0 0)
(-2.5326897 -0.29060771 0 -2.8828695e-06 0 0)
(-2.5280081 -0.29024042 0 2.6455802e-06 0 0)
(-2.5323037 -0.29057736 0 -2.4261055e-06 0 0)
(-2.5283657 -0.29026863 0 2.2196115e-06 0 0)
(-2.5319698 -0.2905511 0 -2.0275181e-06 0 0)
(-2.5286751 -0.29029304 0 1.8486859e-06 0 0)
(-2.5316814 -0.29052839 0 -1.6824701e-06 0 0)
(-2.5289424 -0.29031413 0 1.5283163e-06 0 0)
(-2.5314325 -0.29050878 0 -1.3856652e-06 0 0)
(-2.5291732 -0.29033235 0 1.2540489e-06 0 0)
(-2.5312175 -0.29049184 0 -1.13277e-06 0 0)
(-2.5293729 -0.29034811 0 1.0219724e-06 0 0)
(-2.5310314 -0.29047718 0 -9.2079915e-07 0 0)
(-2.5295459 -0.29036177 0 8.2889576e-07 0 0)
(-2.5308697 -0.29046443 0 -7.4586548e-07 0 0)
(-2.5296969 -0.29037369 0 6.7232526e-07 0 0)
(-2.5307281 -0.29045327 0 -6.0738423e-07 0 0)
(-2.5298299 -0.29038418 0 5.489495e-07 0 0)
(-2.5306025 -0.29044338 0 -5.0274013e-07 0 0)
(-2.5299483 -0.29039348 0 4.6691912e-07 0 0)
(-2.5304895 -0.29043441 0 -4.1272088e-07 0 0)
(-2.5300602 -0.29040244 0 3.6459697e-07 0 0)
(-2.5303923 -0.29042844 0 -7.8832392e-07 0 0)
(-2.5301651 -0.29041058 0 2.4887017e-07 0 0)
(-2.8810733 -1.0714302 0 -0.34101658 0 0)
(-2.8810337 -0.42637982 0 -0.044991456 0 0)
(-3.1904338 -0.41094735 0 -0.023021982 0 0)
(-2.7779996 -0.33054323 0 -0.0086226041 0 0)
(-2.5948892 -0.30534859 0 -0.0035741074 0 0)
(-2.4274457 -0.28426833 0 -0.00043985203 0 0)
(-2.4078524 -0.28427411 0 -0.00038336578 0 0)
(-2.3642639 -0.28087168 0 -0.00015502497 0 0)
(-2.3854412 -0.28229774 0 -5.2651102e-05 0 0)
(-2.3645127 -0.2806854 0 -3.7595939e-05 0 0)
(-2.380855 -0.28189351 0 -1.4127909e-05 0 0)
(-2.3653209 -0.2806513 0 -3.095863e-07 0 0)
(-2.3789001 -0.28173741 0 -6.9568837e-06 0 0)
(-2.3661727 -0.28070596 0 5.8317083e-06 0 0)
(-2.377826 -0.28165737 0 -6.1048703e-06 0 0)
(-2.3669634 -0.28077118 0 5.6771693e-06 0 0)
(-2.3770112 -0.28159302 0 -5.3768682e-06 0 0)
(-2.3676823 -0.28083104 0 4.8738031e-06 0 0)
(-2.3763105 -0.28153622 0 -4.6250631e-06 0 0)
(-2.3683208 -0.28088361 0 4.1976179e-06 0 0)
(-2.3756996 -0.28148639 0 -3.9425993e-06 0 0)
(-2.3688822 -0.2809297 0 3.6086285e-06 0 0)
(-2.3751678 -0.28144297 0 -3.3555799e-06 0 0)
(-2.3693728 -0.28096998 0 3.0813775e-06 0 0)
(-2.3747059 -0.28140525 0 -2.8462497e-06 0 0)
(-2.3697999 -0.28100502 0 2.6131837e-06 0 0)
(-2.3743056 -0.28137254 0 -2.4017712e-06 0 0)
(-2.3701702 -0.28103541 0 2.200017e-06 0 0)
(-2.3739596 -0.28134424 0 -2.0136942e-06 0 0)
(-2.3704902 -0.28106169 0 1.8382311e-06 0 0)
(-2.3736612 -0.28131982 0 -1.6748882e-06 0 0)
(-2.3707664 -0.28108435 0 1.5229337e-06 0 0)
(-2.3734041 -0.28129877 0 -1.3815531e-06 0 0)
(-2.3710042 -0.28110388 0 1.2505301e-06 0 0)
(-2.3731829 -0.28128064 0 -1.1291656e-06 0 0)
(-2.3712089 -0.28112069 0 1.0172372e-06 0 0)
(-2.3729925 -0.28126503 0 -9.1393211e-07 0 0)
(-2.3713852 -0.28113518 0 8.1966677e-07 0 0)
(-2.3728286 -0.28125158 0 -7.3347835e-07 0 0)
(-2.3715374 -0.28114768 0 6.5511567e-07 0 0)
(-2.3726868 -0.28123993 0 -5.8417817e-07 0 0)
(-2.3716694 -0.28115854 0 5.2146176e-07 0 0)
(-2.3725633 -0.28122979 0 -4.65909e-07 0 0)
(-2.371785 -0.28116805 0 4.1557375e-07 0 0)
(-2.3724545 -0.28122085 0 -3.7636166e-07 0 0)
(-2.3718873 -0.28117645 0 3.4549803e-07 0 0)
(-2.372357 -0.28121275 0 -2.9475023e-07 0 0)
(-2.3719834 -0.28118451 0 2.5171892e-07 0 0)
(-2.3722752 -0.28120753 0 -6.6130372e-07 0 0)
(-2.3720791 -0.28119227 0 1.3296933e-07 0 0)
(-2.9539112 -1.0515265 0 -0.3203418 0 0)
(-2.5595738 -0.41449568 0 -0.046526662 0 0)
(-2.9084895 -0.39278764 0 -0.022364853 0 0)
(-2.5264486 -0.31716834 0 -0.0089126915 0 0)
(-2.422246 -0.29425667 0 -0.0032285066 0 0)
(-2.2713099 -0.27497345 0 -0.00053269569 0 0)
(-2.2505035 -0.27474228 0 -0.000395386 0 0)
(-2.2109277 -0.27155284 0 -0.00014684877 0 0)
(-2.2300451 -0.27292119 0 -4.7581202e-05 0 0)
(-2.2117707 -0.27146805 0 -3.7660848e-05 0 0)
(-2.226709 -0.27261344 0 -1.2058256e-05 0 0)
(-2.2128911 -0.27146285 0 -1.4366238e-06 0 0)
(-2.2251423 -0.27247853 0 -5.6438809e-06 0 0)
(-2.2137646 -0.27151858 0 4.8294053e-06 0 0)
(-2.2242149 -0.27240517 0 -5.0508152e-06 0 0)
(-2.2145055 -0.27158122 0 4.7571082e-06 0 0)
(-2.2234862 -0.27234489 0 -4.4812528e-06 0 0)
(-2.2151627 -0.271638 0 4.0501347e-06 0 0)
(-2.2228548 -0.27229151 0 -3.8523608e-06 0 0)
(-2.2157415 -0.27168755 0 3.4769185e-06 0 0)
(-2.2223039 -0.27224472 0 -3.2724238e-06 0 0)
(-2.2162482 -0.27173083 0 2.9839012e-06 0 0)
(-2.221825 -0.27220403 0 -2.7755537e-06 0 0)
(-2.2166899 -0.27176854 0 2.542152e-06 0 0)
(-2.2214097 -0.27216874 0 -2.3461592e-06 0 0)
(-2.2170734 -0.27180128 0 2.1494476e-06 0 0)
(-2.2210505 -0.27213822 0 -1.9722686e-06 0 0)
(-2.2174052 -0.27182961 0 1.8026048e-06 0 0)
(-2.2207408 -0.27211188 0 -1.6462148e-06 0 0)
(-2.2176913 -0.27185403 0 1.4987441e-06 0 0)
(-2.2204743 -0.27208921 0 -1.3613547e-06 0 0)
(-2.2179374 -0.27187504 0 1.2336287e-06 0 0)
(-2.2202455 -0.27206972 0 -1.1146414e-06 0 0)
(-2.2181487 -0.27189308 0 1.0044641e-06 0 0)
(-2.2200493 -0.272053 0 -9.0229993e-07 0 0)
(-2.21833 -0.27190856 0 8.0812178e-07 0 0)
(-2.2198811 -0.27203867 0 -7.2104692e-07 0 0)
(-2.2184854 -0.27192183 0 6.4170967e-07 0 0)
(-2.219737 -0.27202636 0 -5.6904068e-07 0 0)
(-2.2186187 -0.27193324 0 5.0289383e-07 0 0)
(-2.219613 -0.27201576 0 -4.4290173e-07 0 0)
(-2.2187338 -0.2719431 0 3.8995273e-07 0 0)
(-2.2195057 -0.27200658 0 -3.4287006e-07 0 0)
(-2.218834 -0.27195169 0 2.9990438e-07 0 0)
(-2.2194117 -0.27199853 0 -2.6701314e-07 0 0)
(-2.218922 -0.27195923 0 2.4052521e-07 0 0)
(-2.219328 -0.27199125 0 -1.935071e-07 0 0)
(-2.2190041 -0.27196644 0 1.5522987e-07 0 0)
(-2.2192596 -0.27198671 0 -5.4520434e-07 0 0)
(-2.2190907 -0.27197376 0 3.6517856e-08 0 0)
(-2.9761324 -0.98062697 0 -0.27615737 0 0)
(-2.2975016 -0.38822102 0 -0.044016325 0 0)
(-2.6745759 -0.37507989 0 -0.021678703 0 0)
(-2.3423153 -0.30632783 0 -0.0090462534 0 0)
(-2.275378 -0.28432415 0 -0.0029319618 0 0)
(-2.1318026 -0.26622747 0 -0.00062362778 0 0)
(-2.1055409 -0.26549561 0 -0.00039727183 0 0)
(-2.0646318 -0.26227206 0 -0.00013274708 0 0)
(-2.0809369 -0.26357018 0 -3.8770094e-05 0 0)
(-2.0645686 -0.26225457 0 -3.5437315e-05 0 0)
(-2.0779961 -0.263339 0 -9.0893779e-06 0 0)
(-2.0656143 -0.26227416 0 -2.0473236e-06 0 0)
(-2.0766036 -0.26322233 0 -4.2917143e-06 0 0)
(-2.0664252 -0.26233015 0 3.9843111e-06 0 0)
(-2.0757711 -0.26315475 0 -4.0724837e-06 0 0)
(-2.0671026 -0.26239002 0 3.9340731e-06 0 0)
(-2.0751129 -0.26309819 0 -3.6682365e-06 0 0)
(-2.0676988 -0.26244371 0 3.3083008e-06 0 0)
(-2.074543 -0.26304808 0 -3.1549779e-06 0 0)
(-2.0682218 -0.26249031 0 2.8280021e-06 0 0)
(-2.0740468 -0.2630042 0 -2.6691671e-06 0 0)
(-2.0686783 -0.26253087 0 2.422168e-06 0 0)
(-2.073616 -0.26296612 0 -2.2544009e-06 0 0)
(-2.0690752 -0.26256612 0 2.0580563e-06 0 0)
(-2.0732432 -0.26293317 0 -1.8975943e-06 0 0)
(-2.0694191 -0.26259666 0 1.7338441e-06 0 0)
(-2.0729214 -0.26290474 0 -1.5877183e-06 0 0)
(-2.069716 -0.26262301 0 1.4471248e-06 0 0)
(-2.0726446 -0.26288026 0 -1.3178847e-06 0 0)
(-2.0699713 -0.26264567 0 1.1957808e-06 0 0)
(-2.0724071 -0.26285925 0 -1.0819191e-06 0 0)
(-2.0701903 -0.26266511 0 9.7611852e-07 0 0)
(-2.0722037 -0.26284126 0 -8.7740825e-07 0 0)
(-2.0703777 -0.26268174 0 7.8609414e-07 0 0)
(-2.07203 -0.26282587 0 -7.013398e-07 0 0)
(-2.0705378 -0.26269595 0 6.2324202e-07 0 0)
(-2.0718818 -0.26281273 0 -5.5086539e-07 0 0)
(-2.0706744 -0.26270809 0 4.8503809e-07 0 0)
(-2.0717554 -0.26280151 0 -4.2465899e-07 0 0)
(-2.0707911 -0.26271846 0 3.6958939e-07 0 0)
(-2.0716473 -0.2627919 0 -3.1949887e-07 0 0)
(-2.0708911 -0.26272737 0 2.7544092e-07 0 0)
(-2.0715544 -0.26278363 0 -2.360713e-07 0 0)
(-2.0709774 -0.26273509 0 1.9981164e-07 0 0)
(-2.0714737 -0.26277641 0 -1.7262469e-07 0 0)
(-2.0710528 -0.26274183 0 1.5005205e-07 0 0)
(-2.0714021 -0.26276991 0 -1.0707244e-07 0 0)
(-2.0711225 -0.26274824 0 7.3179875e-08 0 0)
(-2.0713454 -0.26276598 0 -4.3935539e-07 0 0)
(-2.0712005 -0.26275509 0 -4.191784e-08 0 0)
(-3.0971105 -0.94918565 0 -0.24576829 0 0)
(-2.1612409 -0.37469542 0 -0.041741779 0 0)
(-2.5001826 -0.35949364 0 -0.020339228 0 0)
(-2.1917322 -0.2958372 0 -0.0088457296 0 0)
(-2.131628 -0.27397249 0 -0.0025996405 0 0)
(-1.9897864 -0.2567145 0 -0.00058875804 0 0)
(-1.9627124 -0.25598216 0 -0.00035138792 0 0)
(-1.9234852 -0.25297152 0 -0.00010570895 0 0)
(-1.9368868 -0.25420437 0 -2.6940969e-05 0 0)
(-1.9223363 -0.25302713 0 -3.0887374e-05 0 0)
(-1.9344114 -0.2540604 0 -5.2352928e-06 0 0)
(-1.9233479 -0.25308021 0 -2.1251465e-06 0 0)
(-1.9332017 -0.25396601 0 -2.8563182e-06 0 0)
(-1.9241204 -0.2531392 0 3.3051059e-06 0 0)
(-1.9324683 -0.25390525 0 -3.1437367e-06 0 0)
(-1.9247478 -0.25319713 0 3.2047181e-06 0 0)
(-1.9318804 -0.25385267 0 -2.923174e-06 0 0)
(-1.9252915 -0.25324803 0 2.6406846e-06 0 0)
(-1.9313693 -0.25380582 0 -2.5225419e-06 0 0)
(-1.9257645 -0.25329185 0 2.2427919e-06 0 0)
(-1.9309239 -0.2537648 0 -2.1243205e-06 0 0)
(-1.9261755 -0.25332982 0 1.9158806e-06 0 0)
(-1.9305375 -0.25372924 0 -1.7848052e-06 0 0)
(-1.9265318 -0.25336273 0 1.6223584e-06 0 0)
(-1.9302035 -0.25369852 0 -1.4941893e-06 0 0)
(-1.9268397 -0.25339116 0 1.3604429e-06 0 0)
(-1.9299157 -0.25367207 0 -1.2425696e-06 0 0)
(-1.9271049 -0.25341564 0 1.1284141e-06 0 0)
(-1.9296687 -0.25364937 0 -1.0238741e-06 0 0)
(-1.9273324 -0.25343663 0 9.2482936e-07 0 0)
(-1.9294574 -0.25362994 0 -8.3238928e-07 0 0)
(-1.9275269 -0.25345458 0 7.4651751e-07 0 0)
(-1.9292771 -0.25361335 0 -6.6623652e-07 0 0)
(-1.9276928 -0.25346988 0 5.9204525e-07 0 0)
(-1.9291236 -0.25359923 0 -5.2312314e-07 0 0)
(-1.9278338 -0.2534829 0 4.5964659e-07 0 0)
(-1.9289934 -0.25358722 0 -4.0065842e-07 0 0)
(-1.9279536 -0.25349396 0 3.4713097e-07 0 0)
(-1.9288828 -0.25357703 0 -2.9792612e-07 0 0)
(-1.9280552 -0.25350335 0 2.529401e-07 0 0)
(-1.928789 -0.25356835 0 -2.1189651e-07 0 0)
(-1.9281417 -0.25351137 0 1.7592287e-07 0 0)
(-1.9287089 -0.25356092 0 -1.4357756e-07 0 0)
(-1.9282159 -0.25351827 0 1.1347708e-07 0 0)