/*--------------------------------*- C++ -*----------------------------------*\
| =========                 |                                                 |
| \\      /  F ield         | OpenFOAM: The Open Source CFD Toolbox           |
|  \\    /   O peration     | Version:  2312                                  |
|   \\  /    A nd           | Website:  www.openfoam.com                      |
|    \\/     M anipulation  |                                                 |
\*---------------------------------------------------------------------------*/
FoamFile
{
    version     2.0;
    format      ascii;
    arch        "LSB;label=32;scalar=64";
    class       volScalarField;
    location    "3";
    object      T;
}
// * * * * * * * * * * * * * * * * * * * * * * * * * * * * * * * * * * * * * //

dimensions      [0 0 0 1 0 0 0];

internalField   nonuniform List<scalar> 
4000
(
318.76959
317.84036
317.65669
317.60463
317.54478
317.50372
317.4642
317.42924
317.39546
317.36411
317.33291
317.3034
317.2738
317.24537
317.21688
317.18914
317.16147
317.13421
317.10717
317.08025
317.05372
317.02705
317.00092
316.97443
316.94864
316.9223
316.8968
316.87055
316.8453
316.81913
316.7941
316.76799
316.74315
316.71707
316.69242
316.66636
316.64188
316.61583
316.5915
316.56544
316.54127
316.51517
316.49118
316.46502
316.44121
316.41495
316.39138
316.36491
316.34178
316.31445
320.34444
318.84555
318.35118
318.24336
318.11318
318.03894
317.96939
317.91345
317.8611
317.81596
317.77132
317.73175
317.6919
317.65553
317.61902
317.58474
317.55069
317.51784
317.48569
317.45386
317.42321
317.39213
317.3627
317.33217
317.30376
317.27365
317.2461
317.2163
317.1895
317.15993
317.13379
317.10438
317.07883
317.04953
317.02452
316.99528
316.97077
316.94155
316.91752
316.88827
316.86472
316.83537
316.81232
316.78279
316.7603
316.73046
316.7087
316.67824
316.65778
316.62484
321.31722
319.81264
319.03984
318.87762
318.67895
318.57192
318.47282
318.39601
318.32531
318.26643
318.20851
318.15887
318.10888
318.06458
318.02013
317.97928
317.93893
317.90047
317.86326
317.82651
317.79179
317.75628
317.72359
317.68901
317.65801
317.62412
317.59455
317.56119
317.53286
317.49988
317.47264
317.43994
317.41368
317.38116
317.3558
317.32339
317.29886
317.26647
317.24275
317.2103
317.18737
317.15477
317.13267
317.09978
317.07861
317.0452
317.02524
316.99079
316.97297
316.93472
321.96017
320.70696
319.71262
319.50125
319.23821
319.09973
318.97216
318.87493
318.78643
318.71397
318.6431
318.58347
318.52358
318.47138
318.41918
318.37178
318.32527
318.2812
318.23905
318.19736
318.15867
318.11873
318.08285
318.04421
318.01068
317.97301
317.94147
317.90453
317.87472
317.83833
317.81003
317.77403
317.7471
317.71135
317.68567
317.65008
317.62556
317.59
317.5666
317.53096
317.50866
317.47282
317.45167
317.41542
317.39558
317.35861
317.34043
317.30204
317.28679
317.24364
322.40592
321.50169
320.35659
320.10604
319.78568
319.61834
319.4643
319.34757
319.24221
319.15657
319.07334
319.00392
318.93455
318.87455
318.81491
318.76102
318.70858
318.65894
318.61203
318.56543
318.52291
318.47855
318.43961
318.39691
318.36095
318.31951
318.28608
318.24558
318.21435
318.17455
318.14526
318.10595
318.0784
318.03944
318.01347
317.9747
317.95022
317.91151
317.88844
317.84964
317.82798
317.78891
317.76873
317.72915
317.71061
317.67013
317.65371
317.61146
317.59862
317.55109
322.72421
322.17689
320.95811
320.68241
320.315
320.12293
319.9454
319.81074
319.68994
319.59181
319.49711
319.41828
319.34004
319.27248
319.20582
319.1456
319.08756
319.03244
318.98103
318.92959
318.88346
318.83473
318.79289
318.74618
318.70793
318.66274
318.62754
318.5835
318.55095
318.50776
318.47755
318.43497
318.40685
318.3647
318.3385
318.29658
318.27217
318.23033
318.20763
318.16569
318.1447
318.10244
318.08321
318.04035
318.02311
317.97919
317.96446
317.91848
317.90786
317.85645
322.95668
322.72514
321.50518
321.22042
320.81931
320.60808
320.41112
320.26079
320.12651
320.01697
319.91198
319.82436
319.73805
319.66331
319.59024
319.52394
319.46074
319.40033
319.34477
319.28862
319.23914
319.18613
319.14162
319.09097
319.05061
319.00174
318.96492
318.91739
318.88364
318.83712
318.80608
318.76028
318.73168
318.68638
318.66
318.61499
318.59069
318.54578
318.52348
318.47846
318.45813
318.41275
318.39448
318.34842
318.33244
318.28518
318.27206
318.22255
318.21387
318.15913
323.12962
323.14821
321.98875
321.71091
321.29188
321.06823
320.85686
320.69385
320.54856
320.42908
320.31532
320.21977
320.12643
320.04507
319.96633
319.89432
319.82654
319.76109
319.70182
319.64115
319.58868
319.53155
319.48465
319.43019
319.38794
319.3355
319.29723
319.24631
319.21151
319.16173
319.12999
319.08105
319.05205
319.00368
318.9772
318.92917
318.90504
318.85714
318.83526
318.78724
318.76759
318.71919
318.70186
318.65271
318.63795
318.58749
318.57588
318.52307
318.51606
318.45846
323.26077
323.4568
322.40406
322.14675
321.72672
321.49805
321.27806
321.10599
320.95263
320.82508
320.70437
320.60202
320.5029
320.41564
320.33214
320.25494
320.18325
320.11316
320.05069
319.9858
319.93074
319.86972
319.82075
319.76266
319.7188
319.66294
319.62345
319.56927
319.53359
319.48068
319.44837
319.3964
319.36712
319.31579
319.28929
319.23835
319.21444
319.16366
319.14224
319.09134
319.07238
319.02108
319.00467
318.95258
318.93897
318.88551
318.87526
318.81944
318.8138
318.7538
323.3625
323.66732
322.75041
322.52379
322.11916
321.89287
321.67051
321.49345
321.33534
321.20194
321.07639
320.96858
320.86514
320.77291
320.68571
320.60396
320.52916
320.4549
320.38986
320.32111
320.26394
320.19933
320.14868
320.08721
320.04204
319.98296
319.94249
319.88525
319.84889
319.79302
319.7603
319.70545
319.67601
319.62187
319.59543
319.54173
319.51811
319.46458
319.44366
319.39003
319.37177
319.31773
319.30221
319.24736
319.23483
319.1786
319.16957
319.11106
319.10649
319.04448
323.44359
323.79947
323.03106
322.84121
322.46608
322.24907
322.03064
321.8529
321.6936
321.55682
321.42875
321.31707
321.21092
321.11479
321.02506
320.93955
320.86254
320.78469
320.71777
320.64562
320.5869
320.51907
320.46716
320.40262
320.35649
320.29447
320.2533
320.19321
320.1564
320.09778
320.06483
320.0073
319.97783
319.92107
319.89481
319.83852
319.81525
319.75916
319.73877
319.6826
319.66504
319.60846
319.5938
319.53641
319.52487
319.46613
319.45815
319.39729
319.39355
319.32988
323.51021
323.87346
323.25228
323.10131
322.76622
322.56437
322.3558
322.18166
322.02475
321.88723
321.75908
321.64525
321.53812
321.43932
321.34835
321.25997
321.18172
321.10098
321.03292
320.95793
320.89825
320.82763
320.77496
320.70771
320.661
320.59635
320.5548
320.49216
320.45514
320.39402
320.36103
320.30105
320.27172
320.21255
320.18657
320.12791
320.10508
320.04664
320.02682
319.96832
319.95146
319.89257
319.87873
319.81906
319.80842
319.74747
319.74037
319.67753
319.67438
319.60936
323.56669
323.90811
323.42241
323.3088
323.02016
322.83796
322.64442
322.47784
322.32679
322.19117
322.06539
321.95122
321.84491
321.74473
321.65387
321.56362
321.48515
321.40228
321.33391
321.25668
321.19669
321.12379
321.07087
321.00134
320.95447
320.88756
320.84596
320.78108
320.74412
320.6808
320.648
320.58584
320.55681
320.49549
320.46992
320.40913
320.38681
320.32627
320.30707
320.24649
320.23034
320.16939
320.15634
320.09466
320.08483
320.02199
320.01563
319.95116
319.94842
319.88232
323.61585
323.91903
323.55049
323.47012
323.23025
323.07063
322.89615
322.74051
322.59842
322.46723
322.34616
322.23347
322.12974
322.02956
321.94015
321.84907
321.77145
321.6873
321.61945
321.54065
321.48101
321.4064
321.35376
321.28244
321.23585
321.16709
321.12579
321.05905
321.02244
320.95725
320.92485
320.86084
320.83226
320.76909
320.74406
320.68143
320.65971
320.59735
320.57881
320.51643
320.50099
320.43828
320.42597
320.3626
320.35349
320.28909
320.28332
320.21758
320.21512
320.14818
323.65968
323.91815
323.64554
323.59263
323.40034
323.26453
323.1118
322.96972
322.83919
322.71467
322.60046
322.49096
322.39151
322.29265
322.20604
322.1152
322.03948
321.9549
321.88841
321.80877
321.75016
321.67444
321.62264
321.55004
321.50417
321.43403
321.39339
321.3252
321.28923
321.22254
321.19078
321.12525
321.09732
321.03262
321.00825
320.9441
320.92307
320.85919
320.84136
320.77749
320.76277
320.69862
320.687
320.62227
320.6138
320.54818
320.54289
320.47621
320.47393
320.40641
323.6993
323.91344
323.71568
323.6839
323.53528
323.42299
323.29328
323.1665
323.04947
322.93347
322.82792
322.72317
322.62952
322.53327
322.45069
322.36113
322.28833
322.20419
322.13989
322.06014
322.00324
321.92704
321.87663
321.80329
321.7586
321.68756
321.64795
321.57875
321.54371
321.47593
321.44503
321.37836
321.35126
321.28539
321.26182
321.19648
321.17623
321.11118
321.0941
321.02906
321.01507
320.94981
320.93886
320.8731
320.8652
320.79872
320.79381
320.72652
320.72436
320.65649
323.73553
323.90972
323.76785
323.75107
323.64048
323.55011
323.44337
323.33269
323.23041
323.12429
323.02883
322.93014
322.84358
322.75109
322.67365
322.58637
322.51742
322.43457
322.37323
322.29411
322.23956
322.16352
322.11502
322.04152
321.99843
321.927
321.88879
321.81902
321.78521
321.71676
321.68697
321.61955
321.59346
321.52679
321.50416
321.43799
321.41861
321.35272
321.33645
321.27061
321.25735
321.19132
321.18102
321.11459
321.10719
321.04019
321.0356
320.96801
320.96593
320.89795
323.76878
323.90915
323.80757
323.80045
323.72143
323.65047
323.56551
323.47086
323.38384
323.28842
323.20403
323.1124
323.03396
322.9462
322.87485
322.79074
322.72646
322.64569
322.58803
322.51022
322.45862
322.38337
322.33729
322.26419
322.22313
322.15182
322.11534
322.04549
322.01318
321.9445
321.91604
321.84828
321.82337
321.7563
321.73473
321.66811
321.64969
321.58333
321.56792
321.50162
321.48911
321.42268
321.413
321.34625
321.33932
321.27214
321.26781
321.20022
321.19822
321.13036
323.79944
323.91234
323.83898
323.83724
323.78328
323.72868
323.66348
323.58405
323.51212
323.42772
323.35489
323.271
323.20139
323.11913
323.0546
322.97442
322.91549
322.83753
322.78414
322.70832
322.66019
322.58633
322.54312
322.47097
322.43232
322.36163
322.3272
322.25774
322.2272
322.15873
322.13181
322.06412
322.04057
321.97348
321.9531
321.88641
321.86904
321.80258
321.78808
321.72169
321.70995
321.64346
321.6344
321.56768
321.56118
321.49416
321.49007
321.42277
321.42084
321.35335
323.82767
323.91879
323.86501
323.8655
323.83062
323.78916
323.74119
323.67556
323.61799
323.54441
323.4832
323.40739
323.347
323.27078
323.21358
323.13793
323.08488
323.01033
322.96171
322.88846
322.84426
322.77233
322.73239
322.66171
322.62581
322.55623
322.52414
322.45551
322.42699
322.35915
322.33397
322.26677
322.24473
322.17801
322.15894
322.09257
322.07632
322.01014
321.99659
321.93047
321.91952
321.85333
321.84488
321.77853
321.77246
321.70591
321.70205
321.63532
321.63346
321.56659
323.85369
323.92772
323.8876
323.88819
323.86729
323.83588
323.80236
323.74877
323.70435
323.64101
323.59106
323.52333
323.47224
323.40237
323.35277
323.28209
323.23527
323.16462
323.12114
323.05097
323.01104
322.94155
322.9052
322.83645
322.80359
322.73557
322.70608
322.63872
322.61241
322.54563
322.52236
322.45604
322.43564
322.36969
322.35204
322.28634
322.2713
322.20575
322.19321
322.12771
322.11758
322.05203
322.0442
321.97854
321.9729
321.90711
321.90348
321.83759
321.83582
321.76982
323.87767
323.93821
323.90792
323.90737
323.89636
323.87224
323.85041
323.8069
323.77416
323.72013
323.68075
323.62085
323.57885
323.5154
323.47344
323.408
323.36758
323.30119
323.26308
323.19638
323.16098
323.09434
323.06182
322.99543
322.96584
322.89979
322.87308
322.8074
322.78349
322.71814
322.69692
322.63187
322.61324
322.54842
322.53227
322.46761
322.45384
322.38927
322.37778
322.31324
322.30395
322.23937
322.23217
322.16751
322.1623
322.09756
322.09419
322.02939
322.02772
321.96283
323.89981
323.94955
323.92664
323.92435
323.92012
323.901
323.88833
323.85294
323.83022
323.7844
323.75465
323.70206
323.66869
323.61154
323.57706
323.51695
323.48293
323.42103
323.38838
323.32546
323.29472
323.23127
323.20274
323.13907
323.11289
323.04918
323.0254
322.96176
322.94037
322.87683
322.85777
322.79434
322.77756
322.71422
322.69964
322.63636
322.6239
322.56065
322.55025
322.48699
322.47855
322.41525
322.40869
322.34533
322.34056
322.27714
322.27403
322.21057
322.20903
322.14548
323.92027
323.96117
323.94411
323.93992
323.94024
323.92431
323.91858
323.88949
323.87513
323.83629
323.81507
323.76913
323.74372
323.69257
323.66522
323.61038
323.58261
323.52529
323.49807
323.43912
323.41307
323.35307
323.32859
323.26793
323.24525
323.18419
323.16343
323.10214
323.08336
323.02193
323.00512
322.94362
322.92876
322.86721
322.85426
322.79267
322.78158
322.71994
322.71065
322.64896
322.64141
322.57966
322.57377
322.51196
322.50765
322.4458
322.44297
322.38108
322.37967
322.31769
323.93921
323.97271
323.9605
323.9545
323.95784
323.94378
323.94316
323.91875
323.91115
323.87808
323.86421
323.82414
323.80591
323.76032
323.73959
323.68984
323.66802
323.61527
323.59331
323.53843
323.517
323.46061
323.44017
323.38273
323.36356
323.30539
323.28769
323.22902
323.21288
323.15385
323.13932
323.08003
323.06713
323.00765
322.99636
322.93673
322.92702
322.86727
322.85912
322.79926
322.79261
322.73267
322.72746
322.66745
322.66362
322.60356
322.60103
322.54093
322.53967
322.47947
323.95678
323.98396
323.97586
323.96831
323.97365
323.96053
323.96358
323.94252
323.94024
323.91178
323.90408
323.86905
323.85713
323.81657
323.80186
323.7569
323.74062
323.69231
323.67535
323.62453
323.60757
323.55487
323.53837
323.48429
323.4686
323.41349
323.39883
323.34297
323.32948
323.27306
323.26083
323.20398
323.19304
323.13587
323.12625
323.06882
323.06052
323.00289
322.99588
322.9381
322.93235
322.87445
322.86993
322.81193
322.80858
322.75052
322.7483
322.69018
322.68908
322.63085
323.97312
323.99482
323.99025
323.98141
323.98812
323.97535
323.98095
323.96219
323.96398
323.93911
323.93644
323.90565
323.89913
323.86303
323.85366
323.81311
323.80188
323.7578
323.7455
323.69865
323.6859
323.63691
323.62419
323.57354
323.56119
323.50928
323.49757
323.44469
323.43379
323.38016
323.37018
323.31597
323.30698
323.25231
323.24435
323.18932
323.18241
323.12711
323.12124
323.06573
323.0609
323.00521
323.00139
322.94559
322.94274
322.88686
322.88496
322.82899
322.82805
322.77197
323.98835
324.00524
324.00368
323.99383
324.00149
323.98873
323.99609
323.97883
323.98364
323.96148
323.96282
323.9355
323.93349
323.90126
323.89652
323.85997
323.85324
323.81311
323.80505
323.76202
323.75318
323.70782
323.69865
323.65143
323.64228
323.59361
323.58474
323.53493
323.52653
323.47581
323.46802
323.41658
323.40949
323.35748
323.35114
323.29868
323.29314
323.24032
323.23559
323.1825
323.17857
323.12528
323.12215
323.0687
323.06636
323.01279
323.01123
322.95756
322.95678
322.903
324.00257
324.01522
324.01619
324.00556
324.01391
324.00098
324.00952
323.9932
324.0002
323.98003
323.98447
323.95994
323.9616
323.93267
323.93184
323.89885
323.89604
323.85955
323.85528
323.81585
323.81057
323.76872
323.76283
323.719
323.71282
323.6674
323.6612
323.61449
323.60848
323.56074
323.55504
323.50647
323.5012
323.45196
323.44719
323.39742
323.3932
323.343
323.33936
323.28883
323.28579
323.23501
323.23256
323.18159
323.17975
323.12863
323.1274
323.07616
323.07554
323.02418
324.01585
324.02476
324.02782
324.01659
324.02545
324.01229
324.0216
324.00584
324.01437
323.99564
324.00241
323.98009
323.98466
323.95849
323.9609
323.93103
323.93156
323.89837
323.8974
323.86133
323.85922
323.82071
323.81778
323.77724
323.77379
323.73156
323.72784
323.68424
323.68044
323.63571
323.63198
323.58633
323.58279
323.53638
323.5331
323.48609
323.48314
323.43565
323.43306
323.38519
323.383
323.33483
323.33305
323.28465
323.2833
323.23472
323.23381
323.1851
323.18464
323.1358
324.02828
324.03386
324.03862
324.02692
324.03614
324.02275
324.03256
324.01712
324.02669
324.00899
324.01744
323.99685
324.00366
323.97979
323.9848
323.95762
323.96094
323.9307
323.93254
323.89957
323.90021
323.86486
323.86455
323.82715
323.82616
323.78704
323.78557
323.74502
323.74326
323.70152
323.69962
323.65689
323.65495
323.61141
323.60953
323.56533
323.56357
323.51883
323.51725
323.47208
323.47071
323.4252
323.42407
323.3783
323.37742
323.33146
323.33086
323.28474
323.28443
323.23819
324.0399
324.04253
324.0486
324.03653
324.04601
324.03242
324.04253
324.0273
324.03751
324.02056
324.03018
324.01094
324.01942
323.99744
324.00447
323.97962
323.98517
323.95756
323.96175
323.93159
323.93458
323.90215
323.90413
323.86971
323.87087
323.83474
323.83528
323.79769
323.79777
323.75897
323.75872
323.71889
323.71843
323.67774
323.67716
323.63576
323.63512
323.59315
323.5925
323.55006
323.54945
323.50665
323.50612
323.46302
323.46259
323.41927
323.41897
323.37548
323.37533
323.33171
324.05076
324.05074
324.05779
324.04543
324.05506
324.04133
324.0516
324.03651
324.0471
324.0307
324.0411
324.02291
324.03257
324.01215
324.02071
323.99784
324.00516
323.97985
323.98594
323.95832
323.96327
323.93353
323.93744
323.9058
323.90883
323.87553
323.87783
323.8431
323.8448
323.80885
323.81008
323.77309
323.77395
323.73608
323.73666
323.69805
323.69841
323.6592
323.65941
323.6197
323.6198
323.5797
323.57972
323.53931
323.5393
323.49864
323.49861
323.45777
323.45775
323.41678
324.06089
324.05848
324.0662
324.05361
324.06329
324.04947
324.0598
324.04484
324.05563
324.03967
324.05052
324.03319
324.04364
324.02451
324.03416
324.01298
324.02164
323.99835
324.00593
323.98059
323.98711
323.95983
323.96534
323.93629
323.94089
323.91025
323.91405
323.88203
323.88515
323.85193
323.85446
323.8202
323.82224
323.7871
323.78873
323.75284
323.75412
323.71761
323.7186
323.68158
323.68233
323.64489
323.64543
323.60767
323.60805
323.57003
323.57026
323.53205
323.53217
323.49383
324.07029
324.06569
324.07381
324.06104
324.07069
324.05686
324.06716
324.05237
324.06319
324.04763
324.0587
324.04208
324.05301
324.03496
324.04536
324.02563
324.03524
324.01372
324.02243
323.99911
324.00686
323.98182
323.98861
323.96194
323.96782
323.93967
323.94472
323.91525
323.91956
323.88894
323.89258
323.86095
323.86401
323.83151
323.83404
323.8008
323.80287
323.76901
323.77068
323.7363
323.73761
323.7028
323.7038
323.66865
323.66937
323.63395
323.63441
323.5988
323.59903
323.56329
324.07891
324.07231
324.0806
324.06771
324.07726
324.06348
324.07369
324.05912
324.06989
324.05469
324.06582
324.04982
324.06098
324.04387
324.05471
324.03623
324.04649
324.02651
324.03603
324.01452
324.02318
324.00015
324.00793
323.98343
323.99033
323.96448
323.97054
323.94347
323.94874
323.92058
323.92514
323.89601
323.89992
323.86995
323.87325
323.84255
323.84531
323.814
323.81626
323.78442
323.78624
323.75397
323.75538
323.72277
323.72379
323.69091
323.69158
323.65851
323.65884
323.62564
324.08663
324.07824
324.08652
324.07358
324.083
324.06934
324.07943
324.06511
324.07575
324.06094
324.072
324.05657
324.06779
324.05149
324.06255
324.04517
324.0558
324.03719
324.04723
324.02732
324.03663
324.01541
324.02391
324.0014
324.00906
323.98533
323.99216
323.96731
323.97336
323.94749
323.9528
323.92602
323.93062
323.90304
323.90699
323.87871
323.88204
323.85316
323.85593
323.82654
323.82878
323.79896
323.80071
323.77055
323.77184
323.74142
323.74226
323.71165
323.71207
323.68133
324.09324
324.08336
324.09155
324.07865
324.0879
324.07444
324.08437
324.07038
324.08084
324.06643
324.07734
324.06245
324.07359
324.05804
324.06913
324.05272
324.06353
324.04613
324.05645
324.03798
324.04769
324.02809
324.03708
324.01636
324.02456
324.00277
324.01018
323.98737
323.994
323.97026
323.97614
323.95156
323.95671
323.93138
323.93583
323.90984
323.91363
323.88706
323.89024
323.86318
323.86577
323.8383
323.84033
323.81252
323.81403
323.78596
323.78695
323.7587
323.75919
323.73083
324.09851
324.08756
324.09564
324.0829
324.09198
324.07881
324.08856
324.07494
324.08519
324.07123
324.08191
324.06757
324.07852
324.06367
324.07466
324.05913
324.06993
324.05361
324.06404
324.04685
324.05675
324.03862
324.04788
324.02879
324.03733
324.0173
324.02509
324.00416
324.01119
323.98942
323.99571
323.97317
323.97872
323.95549
323.96033
323.93648
323.94063
323.91624
323.91973
323.89487
323.89774
323.87249
323.87474
323.84918
323.85085
323.82503
323.82614
323.80014
323.80069
323.77459
324.10223
324.09079
324.0988
324.08634
324.09527
324.08245
324.09202
324.07883
324.08885
324.07536
324.08578
324.07198
324.08268
324.0685
324.07927
324.06456
324.07522
324.05989
324.07026
324.05422
324.06415
324.04733
324.0567
324.03907
324.04778
324.02934
324.03735
324.01813
324.02541
324.00544
324.01199
323.99134
323.99716
323.97588
323.98098
323.95913
323.96353
323.94118
323.9449
323.92211
323.92517
323.90202
323.90444
323.88098
323.88279
323.85909
323.86029
323.83642
323.83702
323.81305
324.10441
324.09306
324.10107
324.08902
324.09781
324.08543
324.09479
324.08208
324.09185
324.07887
324.089
324.07577
324.08616
324.07262
324.08311
324.06916
324.07958
324.06514
324.07533
324.06033
324.07015
324.05452
324.06384
324.04754
324.05626
324.03927
324.04734
324.02967
324.03706
324.01875
324.02543
324.0065
324.01248
323.99298
323.99824
323.97824
323.9828
323.96233
323.96621
323.94534
323.94854
323.92734
323.92988
323.90839
323.91029
323.88858
323.88984
323.86798
323.86861
323.84665
324.10525
324.09446
324.10254
324.091
324.09967
324.08778
324.09694
324.08475
324.09425
324.08181
324.09162
324.07896
324.08902
324.07611
324.08626
324.07303
324.08314
324.06952
324.07944
324.06539
324.07498
324.06042
324.06958
324.05446
324.06308
324.04739
324.0554
324.03914
324.04651
324.02969
324.03639
324.01904
324.02505
324.0072
324.01252
323.99421
323.99885
323.98013
323.98407
323.96499
323.96826
323.94887
323.95148
323.93183
323.93377
323.91392
323.91522
323.89522
323.89587
323.87579
324.10513
324.09516
324.10334
324.09237
324.10092
324.08957
324.09852
324.08687
324.0961
324.08422
324.09371
324.08163
324.09132
324.07903
324.0888
324.07626
324.08599
324.07315
324.08271
324.06952
324.07881
324.06521
324.07411
324.06006
324.06847
324.05394
324.0618
324.0468
324.05405
324.03858
324.0452
324.02927
324.03524
324.01888
324.02418
324.00742
324.01205
323.99492
323.99888
323.98143
323.98472
323.967
323.96962
323.95167
323.95363
323.9355
323.93681
323.91854
323.91919
323.90085
324.10445
324.09536
324.10359
324.09322
324.10165
324.09086
324.0996
324.08851
324.09746
324.08614
324.0953
324.0838
324.09311
324.08143
324.0908
324.07891
324.08822
324.0761
324.08526
324.07286
324.08177
324.06904
324.0776
324.06451
324.07262
324.05915
324.06676
324.05289
324.05994
324.04568
324.05214
324.03749
324.04333
324.02832
324.03353
324.01817
324.02273
324.00706
324.01097
323.99501
323.99827
323.98207
323.98468
323.96828
323.97023
323.95367
323.95497
323.93829
323.93894
323.9222
324.10353
324.09522
324.10343
324.09367
324.10195
324.09174
324.10023
324.08972
324.09838
324.08764
324.09645
324.08553
324.09444
324.08336
324.09229
324.08104
324.0899
324.07844
324.08716
324.07548
324.08396
324.07203
324.08018
324.06796
324.07571
324.06318
324.07046
324.05761
324.06438
324.05121
324.05743
324.04394
324.04959
324.03579
324.04083
324.02675
324.03118
324.01682
324.02063
324.00603
324.00921
323.99441
323.99695
323.98197
323.98389
323.96876
323.97004
323.95482
323.95545
323.94017
324.10254
324.0949
324.10297
324.09379
324.1019
324.09226
324.1005
324.09056
324.09892
324.08875
324.0972
324.08686
324.09536
324.08486
324.09334
324.08267
324.09107
324.08023
324.08847
324.07745
324.08546
324.07425
324.08195
324.07051
324.07784
324.06615
324.07305
324.06111
324.06755
324.05535
324.06128
324.04882
324.05421
324.04151
324.04634
324.03339
324.03764
324.02448
324.02814
324.01477
324.01783
324.00429
324.00674
323.99305
323.9949
323.98108
323.98232
323.96841
323.96903
323.95508
324.10156
324.09447
324.10232
324.09368
324.10157
324.09249
324.10047
324.09108
324.09912
324.08952
324.0976
324.08781
324.09589
324.08594
324.09396
324.08385
324.09176
324.0815
324.08923
324.07882
324.08633
324.07576
324.08298
324.07223
324.07911
324.06817
324.07465
324.06352
324.06957
324.05824
324.06383
324.05229
324.05739
324.04565
324.05023
324.0383
324.04234
324.03023
324.03372
324.02145
324.02437
324.01195
324.0143
324.00176
324.00353
323.99089
323.99207
323.97936
323.97995
323.9672
324.10059
324.09398
324.10153
324.0934
324.10103
324.09249
324.10018
324.09134
324.09905
324.08998
324.09768
324.08842
324.09607
324.08664
324.09418
324.08459
324.09199
324.08225
324.08947
324.0796
324.08659
324.0766
324.08331
324.07319
324.07958
324.06931
324.07534
324.06492
324.07056
324.05999
324.06521
324.05449
324.05926
324.04839
324.05267
324.04166
324.04544
324.03429
324.03756
324.02628
324.02903
324.01763
324.01984
324.00835
324.01001
323.99844
323.99955
323.98791
323.98847
323.9768
324.09961
324.09348
324.10066
324.093
324.10034
324.09231
324.09969
324.09137
324.09873
324.09017
324.09747
324.08871
324.09591
324.08696
324.09401
324.08489
324.09177
324.08252
324.08919
324.07982
324.08627
324.0768
324.08298
324.07341
324.07929
324.06961
324.07517
324.06539
324.07059
324.0607
324.06552
324.05553
324.05993
324.04983
324.0538
324.0436
324.04711
324.0368
324.03985
324.02944
324.032
324.02151
324.02357
324.013
324.01456
324.00393
324.00497
323.99429
323.99482
323.98411
324.09863
324.09295
324.09972
324.09251
324.09953
324.09199
324.09904
324.09121
324.0982
324.09012
324.097
324.08869
324.09542
324.0869
324.09345
324.08476
324.0911
324.08227
324.0884
324.07947
324.08536
324.07635
324.08199
324.07291
324.07828
324.06912
324.07419
324.06497
324.06972
324.06043
324.06483
324.05548
324.05951
324.05009
324.05373
324.04424
324.04747
324.03791
324.04071
324.03108
324.03344
324.02375
324.02565
324.01591
324.01735
324.00756
324.00852
323.9987
323.99918
323.98934
324.09763
324.09243
324.09875
324.09195
324.09864
324.09156
324.09825
324.09088
324.09748
324.08983
324.09627
324.08836
324.0946
324.08647
324.09248
324.08417
324.08995
324.0815
324.08707
324.07852
324.08386
324.07525
324.08035
324.07169
324.07654
324.06784
324.07242
324.06369
324.06798
324.05922
324.0632
324.05441
324.05806
324.04924
324.05254
324.04368
324.04662
324.03771
324.04026
324.03133
324.03348
324.0245
324.02624
324.01723
324.01854
324.0095
324.01038
324.00132
324.00176
323.99267
324.0966
324.09189
324.09774
324.09135
324.09768
324.09103
324.09736
324.09039
324.09658
324.08931
324.09527
324.08771
324.09343
324.08563
324.09109
324.0831
324.08831
324.08019
324.08518
324.07697
324.08174
324.07349
324.07804
324.06976
324.07408
324.06579
324.06987
324.06157
324.0654
324.05711
324.06067
324.05237
324.05564
324.04735
324.05031
324.042
324.04464
324.03632
324.03862
324.03029
324.03222
324.02388
324.02545
324.01709
324.01827
324.0099
324.01069
324.0023
324.0027
323.99429
324.09555
324.09134
324.09669
324.0907
324.09667
324.09042
324.09636
324.08975
324.09548
324.08853
324.09398
324.08671
324.09187
324.08434
324.08923
324.0815
324.08614
324.07828
324.08269
324.07477
324.07898
324.07103
324.07503
324.06708
324.07088
324.06294
324.06654
324.05862
324.062
324.05411
324.05725
324.0494
324.05229
324.04446
324.04708
324.03927
324.04161
324.03381
324.03585
324.02806
324.02978
324.022
324.02339
324.01561
324.01667
324.00888
324.00959
324.00179
324.00215
323.99434
324.09445
324.09078
324.09561
324.09002
324.09561
324.08973
324.09524
324.08894
324.09418
324.08748
324.09237
324.08532
324.08989
324.08257
324.08685
324.07934
324.08337
324.07574
324.07957
324.07189
324.07553
324.06784
324.07131
324.06364
324.06693
324.0593
324.06242
324.05484
324.05777
324.05025
324.05298
324.04551
324.04803
324.04062
324.04291
324.03553
324.03758
324.03024
324.03203
324.02472
324.02623
324.01894
324.02017
324.0129
324.01383
324.00656
324.00719
323.99992
324.00024
323.99296
324.0933
324.09021
324.0945
324.08931
324.0945
324.08895
324.094
324.08793
324.09261
324.08609
324.09037
324.08348
324.08741
324.08024
324.0839
324.07654
324.07997
324.07252
324.07576
324.06828
324.07136
324.06389
324.06683
324.05941
324.0622
324.05485
324.0575
324.05022
324.05272
324.04552
324.04786
324.04074
324.0429
324.03585
324.03782
324.03084
324.0326
324.02567
324.02722
324.02033
324.02165
324.0148
324.01586
324.00904
324.00985
324.00305
324.00359
323.99679
323.99707
323.99027
324.0921
324.08963
324.09335
324.08857
324.09334
324.08806
324.09258
324.08666
324.09073
324.0843
324.08792
324.0811
324.08437
324.07729
324.08029
324.07305
324.07586
324.06854
324.0712
324.06388
324.06641
324.05914
324.06156
324.05437
324.05667
324.04957
324.05177
324.04476
324.04684
324.03994
324.0419
324.03509
324.03691
324.03019
324.03186
324.02522
324.02672
324.02016
324.02147
324.01497
324.01608
324.00963
324.01054
324.00413
324.00482
323.99843
323.99889
323.99252
323.99275
323.98637
324.09083
324.08904
324.09216
324.08779
324.09209
324.08701
324.09094
324.08507
324.08845
324.08201
324.08492
324.07811
324.08068
324.07362
324.07596
324.06879
324.07097
324.06376
324.06584
324.05866
324.06065
324.05355
324.05547
324.04847
324.05032
324.04344
324.04521
324.03845
324.04014
324.0335
324.0351
324.02858
324.03007
324.02366
324.02504
324.01872
324.01996
324.01373
324.01483
324.00867
324.0096
324.00351
324.00427
323.99822
323.9988
323.99278
323.99318
323.98718
323.98737
323.98137
324.08949
324.08845
324.09093
324.08696
324.09071
324.08574
324.08898
324.08304
324.08566
324.07913
324.08127
324.07439
324.07623
324.06916
324.07082
324.06368
324.06524
324.05811
324.05962
324.05256
324.05403
324.04709
324.04853
324.04171
324.04312
324.03644
324.03781
324.03128
324.03261
324.02622
324.02748
324.02122
324.02241
324.01628
324.01739
324.01136
324.01237
324.00644
324.00733
324.00149
324.00226
323.99649
323.99711
323.99139
323.99187
323.98619
323.98651
323.98086
323.98102
323.97536
324.08806
324.08789
324.08965
324.08606
324.08914
324.08415
324.08658
324.08046
324.08223
324.07551
324.07683
324.06983
324.07092
324.0638
324.06478
324.05765
324.0586
324.05153
324.05249
324.04554
324.04652
324.03971
324.0407
324.03406
324.03506
324.02858
324.02957
324.02326
324.02424
324.01808
324.01904
324.01303
324.01395
324.00807
324.00893
324.00318
324.00397
323.99833
323.99903
323.99348
323.99409
323.98862