/*--------------------------------*- C++ -*----------------------------------*\
| =========                 |                                                 |
| \\      /  F ield         | OpenFOAM: The Open Source CFD Toolbox           |
|  \\    /   O peration     | Version:  2312                                  |
|   \\  /    A nd           | Website:  www.openfoam.com                      |
|    \\/     M anipulation  |                                                 |
\*---------------------------------------------------------------------------*/
FoamFile
{
    version     2.0;
    format      ascii;
    arch        "LSB;label=32;scalar=64";
    class       surfaceScalarField;
    location    "2";
    object      phi;
}
// * * * * * * * * * * * * * * * * * * * * * * * * * * * * * * * * * * * * * //

dimensions      [0 3 -1 0 0 0 0];

oriented        oriented;

internalField   nonuniform List<scalar> 
7870
(
1.8475459e-10
3.2768704e-09
1.7951622e-10
5.238382e-12
1.3086396e-10
4.8652262e-11
1.4041093e-10
-9.5469642e-12
1.3429872e-10
6.112214e-12
1.3477799e-10
-4.7927187e-13
1.3316367e-10
1.6143203e-12
1.3344526e-10
-2.8158743e-13
1.3271802e-10
7.2723109e-13
1.3317398e-10
-4.5595852e-13
1.3262203e-10
5.5193356e-13
1.3310219e-10
-4.8015221e-13
1.3265398e-10
4.4820598e-13
1.3304388e-10
-3.8988881e-13
1.3269657e-10
3.4730792e-13
1.3300498e-10
-3.0839901e-13
1.327312e-10
2.7377816e-13
1.3297257e-10
-2.413618e-13
1.3276101e-10
2.1155499e-13
1.3294445e-10
-1.8343548e-13
1.3278704e-10
1.5741031e-13
1.3291999e-10
-1.329518e-13
1.3280977e-10
1.1022586e-13
1.3289869e-10
-8.8929565e-14
1.3282948e-10
6.9206953e-14
1.328802e-10
-5.0716257e-14
1.3284663e-10
3.3564264e-14
1.3286421e-10
-1.7586816e-14
1.3286138e-10
2.8323332e-15
1.328507e-10
1.0679338e-14
1.3287381e-10
-2.3115346e-14
1.3283895e-10
3.4858503e-14
1.3288484e-10
-4.5885418e-14
1.3282907e-10
5.5763994e-14
1.3289378e-10
-6.470752e-14
1.3282088e-10
7.2904927e-14
1.329013e-10
-8.0425029e-14
1.3281409e-10
8.7211238e-14
1.3290744e-10
-9.334993e-14
1.3280861e-10
9.8830901e-14
1.3291233e-10
-1.0372385e-13
1.3280431e-10
1.0801944e-13
1.3291608e-10
-1.1176121e-13
1.3280105e-10
1.1502587e-13
1.329187e-10
-1.1765177e-13
1.3279893e-10
1.19768e-13
1.3292147e-10
-1.2253672e-13
1.3280155e-10
1.1992228e-13
1.3293125e-10
-1.2970111e-13
1.2433119e-13
4.6490861e-10
6.2735868e-09
5.0053607e-10
-3.038906e-11
3.9222817e-10
1.5696016e-10
4.040511e-10
-2.1369879e-11
3.9033895e-10
1.9824357e-11
3.9027896e-10
-4.1926996e-13
3.8701162e-10
4.8816422e-12
3.8685367e-10
-1.2363548e-13
3.8567883e-10
1.9020455e-12
3.8619551e-10
-9.7262707e-13
3.8533975e-10
1.407681e-12
3.860479e-10
-1.1882815e-12
3.8537938e-10
1.1167066e-12
3.8594232e-10
-9.5280427e-13
3.8544467e-10
8.4494974e-13
3.8588468e-10
-7.4838804e-13
3.8549509e-10
6.6337509e-13
3.8583762e-10
-5.838759e-13
3.8553807e-10
5.1110024e-13
3.8579691e-10
-4.4227156e-13
3.855756e-10
3.7872133e-13
3.8576156e-10
-3.1891926e-13
3.8560844e-10
2.6334961e-13
3.8573082e-10
-2.113171e-13
3.8563693e-10
1.6309053e-13
3.8570412e-10
-1.1791541e-13
3.8566158e-10
7.6105542e-14
3.8568127e-10
-3.7284945e-14
3.856828e-10
1.2981395e-15
3.8566161e-10
3.1860099e-14
3.8570088e-10
-6.2384564e-14
3.8564473e-10
9.1001354e-14
3.8571663e-10
-1.1778459e-13
3.8563056e-10
1.4183246e-13
3.8572945e-10
-1.635935e-13
3.8561879e-10
1.8356145e-13
3.8574022e-10
-2.0185719e-13
3.8560906e-10
2.1837541e-13
3.8574901e-10
-2.3329862e-13
3.8560121e-10
2.4663246e-13
3.85756e-10
-2.5851875e-13
3.8559507e-10
2.6895454e-13
3.8576134e-10
-2.7803504e-13
3.8559036e-10
2.8600999e-13
3.8576492e-10
-2.9221077e-13
3.8558709e-10
2.9759971e-13
3.8576895e-10
-3.0439814e-13
3.8559342e-10
2.9545521e-13
3.8579305e-10
-3.2933337e-13
3.120302e-13
6.9561296e-10
9.0395988e-09
7.9245163e-10
-1.2722772e-10
6.4614809e-10
3.0326371e-10
6.6033007e-10
-3.5551848e-11
6.3945071e-10
4.0703707e-11
6.3870655e-10
3.2490101e-13
6.3436153e-10
9.226643e-12
6.335147e-10
7.2319546e-13
6.322727e-10
3.1440244e-12
6.3257665e-10
-1.2765685e-12
6.3169261e-10
2.2916973e-12
6.3238896e-10
-1.8846011e-12
6.3172771e-10
1.777943e-12
6.3226102e-10
-1.486089e-12
6.3179624e-10
1.3097271e-12
6.3220473e-10
-1.1568606e-12
6.3184461e-10
1.0234969e-12
6.3215985e-10
-8.9909317e-13
6.3188517e-10
7.8578054e-13
6.3212123e-10
-6.78329e-13
6.3192058e-10
5.7937253e-13
6.3208772e-10
-4.8607252e-13
6.3195165e-10
3.9941686e-13
6.3205866e-10
-3.1833375e-13
6.3197859e-10
2.431593e-13
6.3203355e-10
-1.7288998e-13
6.320016e-10
1.0804987e-13
6.3201212e-10
-4.781254e-14
6.3202178e-10
-8.3656927e-15
6.3199335e-10
6.0287365e-14
6.3203893e-10
-1.0797033e-13
6.3197753e-10
1.5239768e-13
6.3205356e-10
-1.9380898e-13
6.3196432e-10
2.3107247e-13
6.3206557e-10
-2.6484478e-13
6.3195328e-10
2.9585203e-13
6.3207563e-10
-3.2421637e-13
6.3194418e-10
3.4983009e-13
6.3208383e-10
-3.7294452e-13
6.3193686e-10
3.9360539e-13
6.3209033e-10
-4.1199805e-13
6.3193115e-10
4.2813882e-13
6.3209529e-10
-4.421715e-13
6.3192672e-10
4.5458024e-13
6.3209838e-10
-4.6387169e-13
6.3192341e-10
4.7256802e-13
6.3210232e-10
-4.8330787e-13
6.3193296e-10
4.6481425e-13
6.3213853e-10
-5.3489851e-13
5.0095195e-13
9.6910538e-10
1.1532118e-08
1.0694903e-09
-2.2761258e-10
8.9163512e-10
4.8111886e-10
9.0945977e-10
-5.3376481e-11
8.8141321e-10
6.8750257e-11
8.8024405e-10
1.494069e-12
8.7502667e-10
1.4444002e-11
8.7360402e-10
2.1458553e-12
8.7234657e-10
4.4014415e-12
8.7246103e-10
-1.391012e-12
8.7155338e-10
3.199328e-12
8.7224273e-10
-2.5739306e-12
8.7159351e-10
2.4271488e-12
8.7209555e-10
-1.9881014e-12
8.7166602e-10
1.7392519e-12
8.7204166e-10
-1.532472e-12
8.7171227e-10
1.3528807e-12
8.7199917e-10
-1.1859701e-12
8.7175024e-10
1.0347053e-12
8.7196277e-10
-8.908533e-13
8.7178345e-10
7.5869605e-13
8.7193114e-10
-6.3376765e-13
8.7181264e-10
5.1791461e-13
8.7190391e-10
-4.0962077e-13
8.7183769e-10
3.0937927e-13
8.7188072e-10
-2.159261e-13
8.7185917e-10
1.2959064e-13
8.7186029e-10
-4.8937076e-14
8.7187834e-10
-2.6418934e-14
8.7184272e-10
9.5896687e-14
8.7189428e-10
-1.5952748e-13
8.7182805e-10
2.1861558e-13
8.7190778e-10
-2.7353972e-13
8.7181582e-10
3.2303077e-13
8.7191896e-10
-3.6798607e-13
8.7180557e-10
4.0924809e-13
8.7192829e-10
-4.469388e-13
8.7179716e-10
4.8096452e-13
8.7193586e-10
-5.1164596e-13
8.717904e-10
5.3907023e-13
8.7194185e-10
-5.6345756e-13
8.7178515e-10
5.8484068e-13
8.7194641e-10
-6.0342322e-13
8.7178104e-10
6.1994396e-13
8.7194901e-10
-6.3184192e-13
8.7177768e-10
6.4389848e-13
8.7195253e-10
-6.5815381e-13
8.7178938e-10
6.2796977e-13
8.7199856e-10
-7.440886e-13
6.8897875e-13
1.1715438e-09
1.38222e-08
1.3256131e-09
-3.8168186e-10
1.1296902e-09
6.7704178e-10
1.1517917e-09
-7.5477961e-11
1.1162493e-09
1.0429269e-10
1.1148906e-09
2.8527594e-12
1.108997e-09
2.0337574e-11
1.1071386e-09
4.004269e-12
1.1059001e-09
5.6398955e-12
1.1058494e-09
-1.3403339e-12
1.1049237e-09
4.1250219e-12
1.1056091e-09
-3.2592456e-12
1.1049766e-09
3.0595701e-12
1.1054459e-09
-2.4573289e-12
1.1050538e-09
2.1313472e-12
1.1053954e-09
-1.8740513e-12
1.1050979e-09
1.6504064e-12
1.1053555e-09
-1.443626e-12
1.1051331e-09
1.2571075e-12
1.1053215e-09
-1.0791814e-12
1.1051641e-09
9.1602219e-13
1.1052918e-09
-7.6142743e-13
1.1051912e-09
6.1852916e-13
1.1052668e-09
-4.8530105e-13
1.105214e-09
3.6219788e-13
1.1052453e-09
-2.4720968e-13
1.1052345e-09
1.403536e-13
1.1052259e-09
-4.0283989e-14
1.1052522e-09
-5.2795527e-14
1.1052098e-09
1.3830954e-13
1.1052669e-09
-2.1660316e-13
1.1051963e-09
2.8919826e-13
1.1052793e-09
-3.5650889e-13
1.1051851e-09
4.1723135e-13
1.1052896e-09
-4.7249294e-13
1.1051756e-09
5.2317485e-13
1.1052981e-09
-5.6940958e-13
1.105168e-09
6.111323e-13
1.105305e-09
-6.4872695e-13
1.1051618e-09
6.823241e-13
1.1053105e-09
-7.1216668e-13
1.105157e-09
7.3830149e-13
1.1053146e-09
-7.610154e-13
1.1051533e-09
7.8129868e-13
1.1053167e-09
-7.953198e-13
1.1051499e-09
8.1077113e-13
1.1053197e-09
-8.2797468e-13
1.105163e-09
7.8469597e-13
1.1053734e-09
-9.5454197e-13
8.7307129e-13
1.3966944e-09
1.588713e-08
1.5717259e-09
-5.5671341e-10
1.3602659e-09
8.8850184e-10
1.3868226e-09
-1.0203469e-10
1.3438661e-09
1.4724921e-10
1.342611e-09
4.1079041e-12
1.3362657e-09
2.668281e-11
1.3341439e-09
6.1260875e-12
1.3329344e-09
6.8493312e-12
1.3327447e-09
-1.1506059e-12
1.331806e-09
5.0636848e-12
1.3324887e-09
-3.9418747e-12
1.3318771e-09
3.6711144e-12
1.3323124e-09
-2.8925943e-12
1.3319593e-09
2.4844683e-12
1.3322662e-09
-2.1809132e-12
1.3320012e-09
1.9154169e-12
1.3322292e-09
-1.6716112e-12
1.3320337e-09
1.4525843e-12
1.3321974e-09
-1.2429112e-12
1.3320625e-09
1.0509848e-12
1.3321701e-09
-8.6905369e-13
1.3320867e-09
7.0186544e-13
1.3321476e-09
-5.461218e-13
1.332108e-09
4.0177279e-13
1.3321271e-09
-2.6630824e-13
1.3321274e-09
1.4004852e-13
1.3321092e-09
-2.2162191e-14
1.3321433e-09
-8.6913134e-14
1.3320947e-09
1.8697388e-13
1.3321567e-09
-2.7864414e-13
1.3320823e-09
3.6356651e-13
1.332168e-09
-4.4212131e-13
1.3320721e-09
5.1306697e-13
1.3321773e-09
-5.7771914e-13
1.3320636e-09
6.3695025e-13
1.3321851e-09
-6.9092201e-13
1.3320566e-09
7.3960016e-13
1.3321913e-09
-7.8343021e-13
1.3320511e-09
8.2258967e-13
1.3321962e-09
-8.5733114e-13
1.3320468e-09
8.877194e-13
1.3321999e-09
-9.1413424e-13
1.3320434e-09
9.3780035e-13
1.3322016e-09
-9.5348186e-13
1.33204e-09
9.7234708e-13
1.3322039e-09
-9.9183973e-13
1.332054e-09
9.3461577e-13
1.3322633e-09
-1.1639362e-12
1.0505347e-12
1.5927541e-09
1.7756001e-08
1.7971691e-09
-7.6112838e-10
1.5839561e-09
1.1017148e-09
1.614069e-09
-1.3214755e-10
1.5645361e-09
1.9678212e-10
1.5635237e-09
5.1203426e-12
1.5568726e-09
3.3333891e-11
1.5546315e-09
8.367196e-12
1.5534491e-09
8.0316215e-12
1.5531485e-09
-8.4998884e-13
1.5522025e-09
6.0097139e-12
1.5528825e-09
-4.6218825e-12
1.552295e-09
4.2586207e-12
1.5526956e-09
-3.2931914e-12
1.5523824e-09
2.7977256e-12
1.5526543e-09
-2.4528328e-12
1.552422e-09
2.1477439e-12
1.5526202e-09
-1.869861e-12
1.5524518e-09
1.6210394e-12
1.5525909e-09
-1.3820124e-12
1.5524779e-09
1.1640074e-12
1.5525666e-09
-9.5782095e-13
1.5524995e-09
7.68976e-13
1.5525455e-09
-5.9211944e-13
1.5525197e-09
4.2758666e-13
1.5525264e-09
-2.7307138e-13
1.5525373e-09
1.29226e-13
1.5525105e-09
4.6045449e-15
1.5525516e-09
-1.2803363e-13
1.5524974e-09
2.4120764e-13
1.5525637e-09
-3.4496467e-13
1.5524863e-09
4.4099434e-13
1.5525738e-09
-5.2965251e-13
1.552477e-09
6.0980518e-13
1.5525822e-09
-6.8289987e-13
1.5524694e-09
7.4978656e-13
1.5525891e-09
-8.1067263e-13
1.5524632e-09
8.6555503e-13
1.5525947e-09
-9.1493576e-13
1.5524582e-09
9.5903816e-13
1.552599e-09
-9.9811242e-13
1.5524545e-09
1.0322411e-12
1.5526023e-09
-1.0619255e-12
1.5524515e-09
1.088586e-12
1.5526035e-09
-1.1054813e-12
1.5524481e-09
1.1277519e-12
1.5526051e-09
-1.1488371e-12
1.5524625e-09
1.0772587e-12
1.5526686e-09
-1.3700446e-12
1.2192143e-12
1.7842061e-09
1.943342e-08
2.0095325e-09
-9.8645479e-10
1.7981208e-09
1.3131265e-09
1.8287649e-09
-1.6279168e-10
1.7775331e-09
2.480139e-10
1.7774867e-09
5.1668413e-12
1.7707946e-09
4.0025905e-11
1.7685869e-09
1.0574943e-11
1.7674427e-09
9.1757938e-12
1.7670606e-09
-4.6791771e-13
1.7661148e-09
6.9555213e-12
1.7667914e-09
-5.2984619e-12
1.7662302e-09
4.8198147e-12
1.7665959e-09
-3.6588757e-12
1.7663228e-09
3.0708137e-12
1.76656e-09
-2.6899763e-12
1.7663602e-09
2.3475528e-12
1.7665289e-09
-2.0385986e-12
1.7663871e-09
1.7628271e-12
1.7665025e-09
-1.4974042e-12
1.7664098e-09
1.2567244e-12
1.7664809e-09
-1.028938e-12
1.7664302e-09
8.1966949e-13
1.7664608e-09
-6.2273119e-13
1.7664486e-09
4.3980535e-13
1.7664438e-09
-2.6827297e-13
1.7664642e-09
1.0883381e-13
1.7664297e-09
3.9113082e-14
1.7664769e-09
-1.7531539e-13
1.7664179e-09
3.0020713e-13
1.7664877e-09
-4.1475301e-13
1.7664081e-09
5.206537e-13
1.7664967e-09
-6.1827397e-13
1.7663999e-09
7.0660783e-13
1.7665042e-09
-7.8718299e-13
1.7663931e-09
8.6082662e-13
1.7665103e-09
-9.2780183e-13
1.7663877e-09
9.8812988e-13
1.7665151e-09
-1.0423699e-12
1.7663834e-09
1.0907931e-12
1.7665189e-09
-1.1336335e-12
1.7663801e-09
1.1710007e-12
1.7665217e-09
-1.2035225e-12
1.7663775e-09
1.2327709e-12
1.7665225e-09
-1.2504705e-12
1.7663742e-09
1.2761156e-12
1.7665234e-09
-1.2980632e-12
1.7663886e-09
1.2120695e-12
1.7665893e-09
-1.5707593e-12
1.3773992e-12
1.9494542e-09
2.0945591e-08
2.2036578e-09
-1.2406584e-09
2.0052992e-09
1.5114852e-09
2.0292634e-09
-1.8675585e-10
1.9829141e-09
2.9436312e-10
1.9845888e-09
3.4921968e-12
1.9780763e-09
4.653834e-11
1.9760117e-09
1.2639599e-11
1.9749171e-09
1.0270331e-11
1.9744816e-09
-3.2342548e-14
1.9735453e-09
7.8917978e-12
1.9742166e-09
-5.9697862e-12
1.9736828e-09
5.353668e-12
1.9740137e-09
-3.9898028e-12
1.9737806e-09
3.3039139e-12
1.9739834e-09
-2.8927109e-12
1.9738156e-09
2.5153581e-12
1.9739556e-09
-2.178612e-12
1.973839e-09
1.8794416e-12
1.9739326e-09
-1.5910161e-12
1.9738592e-09
1.3301432e-12
1.9739122e-09
-1.0819602e-12
1.9738784e-09
8.5345587e-13
1.9738942e-09
-6.3854159e-13
1.9738945e-09
4.3952041e-13
1.9738792e-09
-2.5298454e-13
1.9739081e-09
7.9894158e-14
1.9738668e-09
8.0402603e-14
1.9739193e-09
-2.2782903e-13
1.9738565e-09
3.6306525e-13
1.9739288e-09
-4.8709295e-13
1.9738478e-09
6.0162122e-13
1.9739366e-09
-7.0708239e-13
1.9738407e-09
8.0257057e-13
1.9739431e-09
-8.8965539e-13
1.9738348e-09
9.6915844e-13
1.9739484e-09
-1.0413998e-12
1.9738301e-09
1.1064239e-12
1.9739526e-09
-1.1648422e-12
1.9738264e-09
1.2169701e-12
1.9739558e-09
-1.2630139e-12
1.9738237e-09
1.3031128e-12
1.9739582e-09
-1.3380497e-12
1.9738215e-09
1.3694863e-12
1.9739586e-09
-1.3876045e-12
1.9738182e-09
1.4165575e-12
1.9739588e-09
-1.4386508e-12
1.9738324e-09
1.3384751e-12
1.9740257e-09
-1.7640857e-12
1.5237016e-12
2.119477e-09
2.2287739e-08
2.3878216e-09
-1.5090029e-09
2.2014473e-09
1.6978594e-09
2.2175166e-09
-2.0282508e-10
2.1810477e-09
3.30832e-10
2.1847799e-09
-2.4000314e-13
2.1787159e-09
5.2602272e-11
2.1768931e-09
1.4462485e-11
2.1758731e-09
1.1290235e-11
2.1754104e-09
4.3043604e-13
2.1744955e-09
8.8066087e-12
2.1751592e-09
-6.6334756e-12
2.1746527e-09
5.8602164e-12
2.1749494e-09
-4.2864877e-12
2.1747557e-09
3.4976016e-12
2.1749247e-09
-3.0617195e-12
2.1747876e-09
2.6524793e-12
2.174901e-09
-2.2920119e-12
2.1748075e-09
1.9729286e-12
2.17488e-09
-1.6634269e-12
2.1748265e-09
1.3835834e-12
2.1748612e-09
-1.1166117e-12
2.1748433e-09
8.7133389e-13
2.1748457e-09
-6.4094399e-13
2.1748573e-09
4.2794474e-13
2.1748326e-09
-2.2836872e-13
2.174869e-09
4.349884e-14
2.174822e-09
1.274328e-13
2.1748787e-09
-2.8456884e-13
2.174813e-09
4.2878858e-13
2.1748869e-09
-5.6099309e-13
2.1748056e-09
6.8292622e-13
2.1748936e-09
-7.9511697e-13
2.1747994e-09
8.9673376e-13
2.1748992e-09
-9.8936812e-13
2.1747945e-09
1.0738482e-12
2.1749036e-09
-1.1505465e-12
2.1747905e-09
1.2195233e-12
2.1749071e-09
-1.2814449e-12
2.1747874e-09
1.3366711e-12
2.1749098e-09
-1.385367e-12
2.1747852e-09
1.4277163e-12
2.1749118e-09
-1.4646525e-12
2.1747834e-09
1.4978687e-12
2.1749119e-09
-1.5160666e-12
2.1747802e-09
1.5482352e-12
2.1749113e-09
-1.5697642e-12
2.1747939e-09
1.4558694e-12
2.174978e-09
-1.9481621e-12
1.6570261e-12
2.2639758e-09
2.3485388e-08
2.5532546e-09
-1.7982817e-09
2.3852682e-09
1.8658458e-09
2.3969678e-09
-2.1452465e-10
2.3722463e-09
3.5555352e-10
2.3779639e-09
-5.9575988e-12
2.3727338e-09
5.7832328e-11
2.3712393e-09
1.5956995e-11
2.3703153e-09
1.2214199e-11
2.3698471e-09
8.9862852e-13
2.3689676e-09
9.6860726e-12
2.3696208e-09
-7.286628e-12
2.3691403e-09
6.340682e-12
2.3694035e-09
-4.5495903e-12
2.369248e-09
3.6530747e-12
2.3693849e-09
-3.1986e-12
2.3692756e-09
2.7617993e-12
2.3693644e-09
-2.3808718e-12
2.3692942e-09
2.0431427e-12
2.3693446e-09
-1.7137827e-12
2.3693109e-09
1.417283e-12
2.3693285e-09
-1.1342468e-12
2.369325e-09
8.7488933e-13
2.3693153e-09
-6.3130422e-13
2.3693369e-09
4.0636388e-13
2.3693042e-09
-1.9565349e-13
2.3693469e-09
8.0092746e-16
2.3692952e-09
1.7910839e-13
2.3693551e-09
-3.4447033e-13
2.3692875e-09
4.9632396e-13
2.3693619e-09
-6.3540942e-13
2.3692813e-09
7.6354542e-13
2.3693676e-09
-8.8138428e-13
2.3692762e-09
9.8811832e-13
2.3693722e-09
-1.0853541e-12
2.3692721e-09
1.1739447e-12
2.3693758e-09
-1.2543065e-12
2.3692689e-09
1.3265161e-12
2.3693787e-09
-1.3912896e-12
2.3692663e-09
1.4490252e-12
2.3693808e-09
-1.4998358e-12
2.3692646e-09
1.5439559e-12
2.3693824e-09
-1.5824939e-12
2.3692632e-09
1.6171007e-12
2.3693822e-09
-1.6350657e-12
2.3692601e-09
1.6703183e-12
2.369381e-09
-1.6906294e-12
2.3692732e-09
1.5636795e-12
2.3694462e-09
-2.1212526e-12
1.7765138e-12
2.4186397e-09
2.4528373e-08
2.707999e-09
-2.087641e-09
2.5611295e-09
2.0127153e-09
2.5706551e-09
-2.2405029e-10
2.5570292e-09
3.6917948e-10
2.5641373e-09
-1.3065765e-11
2.560154e-09
6.1815689e-11
2.5590545e-09
1.7056423e-11
2.5582473e-09
1.3021438e-11
2.5577917e-09
1.3541813e-12
2.5569626e-09
1.0515161e-11
2.5576025e-09
-7.9265165e-12
2.557146e-09
6.7971716e-12
2.5573765e-09
-4.7799952e-12
2.5572565e-09
3.7730483e-12
2.5573645e-09
-3.3065574e-12
2.5572809e-09
2.8453588e-12
2.5573444e-09
-2.4443174e-12
2.5572983e-09
2.0891685e-12
2.5573275e-09
-1.7429533e-12
2.5573118e-09
1.4329951e-12
2.5573142e-09
-1.1365984e-12
2.5573234e-09
8.6562325e-13
2.5573031e-09
-6.109831e-13
2.5573334e-09
3.7608334e-13
2.5572938e-09
-1.5609451e-13
2.5573416e-09
-4.6994622e-14
2.5572864e-09
2.3427489e-13
2.5573484e-09
-4.0642091e-13
2.5572801e-09
5.6457624e-13
2.557354e-09
-7.0927305e-13
2.5572751e-09
8.4245114e-13
2.5573585e-09
-9.648721e-13
2.5572709e-09
1.0757294e-12
2.5573622e-09
-1.1766489e-12
2.5572677e-09
1.2685123e-12
2.5573651e-09
-1.3517707e-12
2.5572651e-09
1.4265098e-12
2.5573673e-09
-1.4934989e-12
2.5572632e-09
1.553174e-12
2.5573689e-09
-1.6055832e-12
2.5572619e-09
1.6510306e-12
2.5573702e-09
-1.6907845e-12
2.5572609e-09
1.7263914e-12
2.5573697e-09
-1.7438635e-12
2.5572579e-09
1.7820432e-12
2.5573678e-09
-1.80052e-12
2.5572702e-09
1.6613306e-12
2.5574307e-09
-2.281773e-12
1.8815432e-12
2.559239e-09
2.5430759e-08
2.8501015e-09
-2.3785034e-09
2.7309336e-09
2.1318832e-09
2.7388712e-09
-2.319879e-10
2.7354083e-09
3.7264243e-10
2.7434445e-09
-2.1101962e-11
2.7410238e-09
6.4236311e-11
2.7403468e-09
1.7733415e-11
2.7396734e-09
1.3694848e-11
2.7392472e-09
1.7803835e-12
2.7384806e-09
1.1281702e-11
2.7391058e-09
-8.551612e-12
2.7386703e-09
7.2326658e-12
2.7388701e-09
-4.9798202e-12
2.7387809e-09
3.8622155e-12
2.7388614e-09
-3.3870255e-12
2.7388051e-09
2.9016632e-12
2.7388422e-09
-2.4813893e-12
2.7388187e-09
2.1126519e-12
2.7388289e-09
-1.7531383e-12
2.7388293e-09
1.4325761e-12
2.7388181e-09
-1.1253187e-12
2.7388387e-09
8.4498851e-13
2.7388091e-09
-5.8136371e-13
2.7388467e-09
3.3844577e-13
2.7388016e-09
-1.1098561e-13
2.7388532e-09
-9.8652467e-14
2.7387957e-09
2.917585e-13
2.7388586e-09
-4.6928595e-13
2.7387907e-09
6.3243594e-13
2.738863e-09
-7.8150603e-13
2.7387868e-09
9.1859794e-13
2.7388665e-09
-1.0445746e-12
2.7387836e-09
1.1585922e-12
2.7388693e-09
-1.2623041e-12
2.7387812e-09
1.3566289e-12
2.7388715e-09
-1.4420431e-12
2.7387793e-09
1.5186425e-12
2.7388731e-09
-1.5872451e-12
2.7387779e-09
1.6483157e-12
2.7388742e-09
-1.7018287e-12
2.738777e-09
1.7481662e-12
2.738875e-09
-1.7887744e-12
2.7387764e-09
1.825021e-12
2.7388743e-09
-1.8417658e-12
2.7387737e-09
1.8826763e-12
2.7388719e-09
-1.8987901e-12
2.738785e-09
1.7483163e-12
2.7389315e-09
-2.4282777e-12
1.9716783e-12
2.7052857e-09
2.6187099e-08
2.9868834e-09
-2.6601011e-09
2.8948772e-09
2.2238895e-09
2.9012349e-09
-2.3834566e-10
2.9074821e-09
3.6639527e-10
2.9162093e-09
-2.9829121e-11
2.9154092e-09
6.5036357e-11
2.9151253e-09
1.8017279e-11
2.9146005e-09
1.4219645e-11
2.9142199e-09
2.1609866e-12
2.9135207e-09
1.1980907e-11
2.9141322e-09
-9.1630499e-12
2.9137131e-09
7.6517056e-12
2.9138853e-09
-5.1520167e-12
2.9138234e-09
3.9241365e-12
2.9138739e-09
-3.4375265e-12
2.913846e-09
2.9295883e-12
2.9138592e-09
-2.4945361e-12
2.9138555e-09
2.1162848e-12
2.9138488e-09
-1.7463666e-12
2.9138635e-09
1.4178028e-12
2.9138402e-09
-1.1019912e-12
2.9138707e-09
8.144566e-13
2.9138332e-09
-5.4384272e-13
2.9138768e-09
2.9479424e-13
2.9138275e-09
-6.1622237e-14
2.9138817e-09
-1.5292689e-13
2.9138231e-09
3.5036532e-13
2.9138858e-09
-5.3191877e-13
2.9138194e-09
6.9879325e-13
2.9138889e-09
-8.5104561e-13
2.9138166e-09
9.9097303e-13
2.9138915e-09
-1.1195024e-12
2.9138143e-09
1.2357494e-12
2.9138934e-09
-1.3414055e-12
2.9138126e-09
1.4374191e-12
2.9138949e-09
-1.5242842e-12
2.9138114e-09
1.602099e-12
2.9138959e-09
-1.6717345e-12
2.9138105e-09
1.7336825e-12
2.9138965e-09
-1.7878327e-12
2.91381e-09
1.8346674e-12
2.9138971e-09
-1.8757833e-12
2.9138098e-09
1.9123132e-12
2.9138961e-09
-1.9281507e-12
2.9138072e-09
1.9715742e-12
2.9138933e-09
-1.9848529e-12
2.9138175e-09
1.8241484e-12
2.9139487e-09
-2.5594875e-12
2.0466785e-12
2.8461219e-09
2.6802602e-08
3.116619e-09
-2.9305981e-09
3.054518e-09
2.2859905e-09
3.0578922e-09
-2.4171985e-10
3.0734016e-09
3.5088589e-10
3.0827054e-09
-3.9132931e-11
3.0833611e-09
6.4380625e-11
3.0834073e-09
1.7971076e-11
3.0830396e-09
1.4587364e-11
3.0827118e-09
2.4887735e-12
3.0820825e-09
1.2610154e-11
3.082681e-09
-9.7615347e-12
3.0822719e-09
8.0608233e-12
3.0824179e-09
-5.2980082e-12
3.0823841e-09
3.9579482e-12
3.0824046e-09
-3.4580508e-12
3.0824024e-09
2.931848e-12
3.0823948e-09
-2.4869573e-12
3.0824088e-09
2.1022656e-12
3.082387e-09
-1.7245064e-12
3.0824144e-09
1.3903731e-12
3.0823806e-09
-1.0681679e-12
3.0824195e-09
7.7549529e-13
3.0823755e-09
-4.9983956e-13
3.0824238e-09
2.46498e-13
3.0823715e-09
-9.3092018e-15
3.0824272e-09
-2.0858068e-13
3.0823686e-09
4.0892291e-13
3.0824299e-09
-5.9319191e-13
3.0823661e-09
7.6256417e-13
3.0824319e-09
-9.1685388e-13
3.0823643e-09
1.0585761e-12
3.0824335e-09
-1.1887066e-12
3.0823629e-09
1.3062967e-12
3.0824346e-09
-1.4130831e-12
3.082362e-09
1.5100469e-12
3.0824354e-09
-1.5976914e-12
3.0823614e-09
1.676119e-12
3.0824359e-09
-1.7462482e-12
3.082361e-09
1.8085874e-12
3.0824361e-09
-1.8629344e-12
3.0823609e-09
1.9098816e-12
3.0824363e-09
-1.9511875e-12
3.0823609e-09
1.9876824e-12
3.0824352e-09
-2.0024547e-12
3.0823587e-09
2.0481366e-12
3.082432e-09
-2.0582158e-12
3.0823677e-09
1.8884319e-12
3.0824825e-09
-2.6742694e-12
2.1064462e-12
2.9932972e-09
2.7270929e-08
3.2434667e-09
-3.1807675e-09
3.2088e-09
2.3206571e-09
3.2087685e-09
-2.4168833e-10
3.2331697e-09
3.2648469e-10
3.243025e-09
-4.8988191e-11
3.2448946e-09
6.2511003e-11
3.24521e-09
1.7655693e-11
3.2449987e-09
1.4798604e-11
3.244723e-09
2.7644887e-12
3.2441675e-09
1.3165671e-11
3.2447453e-09
-1.0339324e-11
3.2443447e-09
8.4614365e-12
3.2444661e-09
-5.4193778e-12
3.2444609e-09
3.9630779e-12
3.2444555e-09
-3.4526549e-12
3.2444752e-09
2.9122322e-12
3.2444491e-09
-2.4608973e-12
3.2444788e-09
2.0726137e-12
3.2444436e-09
-1.689311e-12
3.244482e-09
1.3519189e-12
3.2444392e-09
-1.0253865e-12
3.2444851e-09
7.2959642e-13
3.2444361e-09
-4.5076237e-13
3.2444877e-09
1.9489137e-13
3.2444337e-09
4.4681578e-14
3.2444895e-09
-2.6440376e-13
3.2444321e-09
4.6627498e-13
3.2444909e-09
-6.5200244e-13
3.2444308e-09
8.2269899e-13
3.2444919e-09
-9.7793976e-13
3.24443e-09
1.1204719e-12
3.2444925e-09
-1.2512843e-12
3.2444295e-09
1.3693731e-12
3.2444929e-09
-1.4765272e-12
3.2444292e-09
1.5737485e-12
3.2444931e-09
-1.6615434e-12
3.2444292e-09
1.7400099e-12
3.244493e-09
-1.8101191e-12
3.2444292e-09
1.8723937e-12
3.2444928e-09
-1.92653e-12
3.2444295e-09
1.9732553e-12
3.2444927e-09
-2.0144496e-12
3.2444298e-09
2.0505988e-12
3.2444916e-09
-2.0642019e-12
3.2444278e-09
2.1118712e-12
3.2444881e-09
-2.1184525e-12
3.2444357e-09
1.9408018e-12
3.2445331e-09
-2.7716665e-12
2.151044e-12
3.1179054e-09
2.7614649e-08
3.3633222e-09
-3.4261843e-09
3.3590771e-09
2.3249022e-09
3.355322e-09
-2.3793315e-10
3.3870228e-09
2.9478378e-10
3.3971949e-09
-5.916028e-11
3.4000182e-09
5.9687686e-11
3.4005452e-09
1.712872e-11
3.4004811e-09
1.4862714e-11
3.4002532e-09
2.9924038e-12
3.3997742e-09
1.364459e-11
3.4003181e-09
-1.0883204e-11
3.3999333e-09
8.8462937e-12
3.4000331e-09
-5.5191468e-12
3.4000537e-09
3.9424171e-12
3.4000259e-09
-3.4248342e-12
3.4000645e-09
2.8736475e-12
3.4000219e-09
-2.4182908e-12
3.4000654e-09
2.0291723e-12
3.4000185e-09
-1.6424319e-12
3.4000664e-09
1.3040445e-12
3.4000161e-09
-9.7516815e-13
3.4000675e-09
6.782103e-13
3.4000148e-09
-3.9800505e-13
3.4000683e-09
1.4130404e-13
3.4000139e-09
9.9103116e-14
3.4000687e-09
-3.192264e-13
3.4000137e-09
5.2132119e-13
3.400069e-09
-7.0730327e-13
3.4000135e-09
8.7820646e-13
3.4000689e-09
-1.0333644e-12
3.4000136e-09
1.1757638e-12
3.4000687e-09
-1.3064008e-12
3.4000139e-09
1.4241964e-12
3.4000683e-09
-1.5309946e-12
3.4000143e-09
1.6278194e-12
3.4000679e-09
-1.7151738e-12
3.4000148e-09
1.7931529e-12
3.4000674e-09
-1.8627748e-12
3.4000152e-09
1.9245641e-12
3.4000668e-09
-1.9781117e-12
3.4000158e-09
2.0242884e-12
3.4000664e-09
-2.0651016e-12
3.4000164e-09
2.1006382e-12
3.4000652e-09
-2.1129845e-12
3.4000147e-09
2.1623376e-12
3.4000615e-09
-2.1652408e-12
3.4000213e-09
1.9810032e-12
3.4001005e-09
-2.8508709e-12
2.1806409e-12
3.2709734e-09
2.7805301e-08
3.4827799e-09
-3.6379907e-09
3.5041203e-09
2.3035619e-09
3.4984432e-09
-2.3225612e-10
3.5350962e-09
2.5813085e-10
3.5452174e-09
-6.9281521e-11
3.5487403e-09
5.6164744e-11
3.5494197e-09
1.6449331e-11
3.5494879e-09
1.4794489e-11
3.5492978e-09
3.1825186e-12
3.548902e-09
1.4040352e-11
3.5494016e-09
-1.1382685e-11
3.5490388e-09
9.209019e-12
3.5491207e-09
-5.6010033e-12
3.5491632e-09
3.8998676e-12
3.5491153e-09
-3.3768689e-12
3.5491705e-09
2.8184492e-12
3.5491131e-09
-2.3609111e-12
3.5491686e-09
1.9736851e-12
3.5491117e-09
-1.585506e-12
3.5491674e-09
1.248305e-12
3.5491113e-09
-9.1900347e-13
3.5491667e-09
6.2277379e-13
3.5491116e-09
-3.4290645e-13
3.5491659e-09
8.6985733e-14
3.5491122e-09
1.5277609e-13
3.5491649e-09
-3.7193665e-13
3.5491132e-09
5.7300725e-13
3.549164e-09
-7.5810203e-13
3.5491141e-09
9.2815666e-13
3.549163e-09
-1.0822616e-12
3.5491151e-09
1.2236476e-12
3.549162e-09
-1.3532903e-12
3.5491161e-09
1.4700479e-12
3.5491609e-09
-1.5758227e-12
3.5491171e-09
1.6716474e-12
3.54916e-09
-1.7580165e-12
3.5491181e-09
1.8350128e-12
3.549159e-09
-1.9037071e-12
3.549119e-09
1.9646234e-12
3.5491581e-09
-2.0172392e-12
3.5491198e-09
2.0625947e-12
3.5491575e-09
-2.1027735e-12
3.5491207e-09
2.1374397e-12
3.5491562e-09
-2.148493e-12
3.5491193e-09
2.1992167e-12
3.5491524e-09
-2.1983274e-12
3.5491246e-09
2.008817e-12
3.549185e-09
-2.9112549e-12
2.1955345e-12
3.3846245e-09
2.7882301e-08
3.5914106e-09
-3.8447768e-09
3.644224e-09
2.2507485e-09
3.6383908e-09
-2.2642298e-10
3.6773672e-09
2.1915453e-10
3.6870522e-09
-7.8966531e-11
3.6910521e-09
5.2164782e-11
3.6918322e-09
1.5669257e-11
3.6920175e-09
1.4609132e-11
3.6918564e-09
3.3436744e-12
3.6915534e-09
1.4343324e-11
3.6919959e-09
-1.1825165e-11
3.6916602e-09
9.544729e-12
3.6917291e-09
-5.6698591e-12
3.6917896e-09
3.8393411e-12
3.6917234e-09
-3.3106228e-12
3.6917931e-09
2.7486769e-12
3.6917227e-09
-2.2904894e-12
3.6917886e-09
1.9078182e-12
3.6917232e-09
-1.5201027e-12
3.6917853e-09
1.1862228e-12
3.6917246e-09
-8.5833275e-13
3.6917827e-09
5.6463589e-13
3.6917266e-09
-2.8675442e-13
3.6917804e-09
3.3151361e-14
3.6917286e-09
2.04576e-13
3.6917781e-09
-4.2149017e-13
3.6917308e-09
6.2036373e-13
3.6917762e-09
-8.0349065e-13
3.6917326e-09
9.7170344e-13
3.6917742e-09
-1.1238398e-12
3.6917344e-09
1.2633778e-12
3.6917724e-09
-1.3912762e-12
3.6917362e-09
1.5063075e-12
3.6917708e-09
-1.6104321e-12
3.6917377e-09
1.7046944e-12
3.6917693e-09
-1.789573e-12
3.6917392e-09
1.8651419e-12
3.691768e-09
-1.9325171e-12
3.6917404e-09
1.9922091e-12
3.6917667e-09
-2.0435806e-12
3.6917415e-09
2.087848e-12
3.6917659e-09
-2.1271725e-12
3.6917426e-09
2.1607576e-12
3.6917646e-09
-2.1704912e-12
3.6917415e-09
2.2222452e-12
3.6917608e-09
-2.2175691e-12
3.6917454e-09
2.0241445e-12
3.6917865e-09
-2.952338e-12
2.1960957e-12
3.5431764e-09
2.780075e-08
3.7039887e-09
-4.0055891e-09
3.7789101e-09
2.1758271e-09
3.7744588e-09
-2.2197162e-10
3.8136502e-09
1.799631e-10
3.82265e-09
-8.7966377e-11
3.8269426e-09
4.7872196e-11
3.8277812e-09
1.4830653e-11
3.828068e-09
1.4322351e-11
3.8279323e-09
3.4793178e-12
3.8277302e-09
1.4545467e-11
3.8280982e-09
-1.2193207e-11
3.827797e-09
9.8459863e-12
3.827858e-09
-5.7309124e-12
3.8279327e-09
3.7646716e-12
3.8278499e-09
-3.2277781e-12
3.8279324e-09
2.6661821e-12
3.8278506e-09
-2.2087019e-12
3.8279252e-09
1.8331859e-12
3.8278529e-09
-1.4477736e-12
3.8279199e-09
1.119245e-12
3.8278561e-09
-7.9452998e-13
3.8279156e-09
5.0510295e-13
3.8278596e-09
-2.3074717e-13
3.8279118e-09
-1.9100038e-14
3.8278629e-09
2.5347456e-13
3.8279084e-09
-4.6692656e-13
3.8278662e-09
6.6249159e-13
3.8279054e-09
-8.4263878e-13
3.827869e-09
1.0080823e-12
3.8279025e-09
-1.1574006e-12
3.8278716e-09
1.2943232e-12
3.8279001e-09
-1.4197676e-12
3.827874e-09
1.5324328e-12
3.8278979e-09
-1.6343391e-12
3.827876e-09
1.7265285e-12
3.8278959e-09
-1.8094595e-12
3.8278779e-09
1.8831868e-12
3.8278942e-09
-1.9488778e-12
3.8278794e-09
2.0070274e-12
3.8278927e-09
-2.0568776e-12
3.8278807e-09
2.0998458e-12
3.8278917e-09
-2.1381111e-12
3.827882e-09
2.1704127e-12
3.8278904e-09
-2.1788479e-12
3.8278813e-09
2.2312891e-12
3.8278866e-09
-2.2228904e-12
3.8278839e-09
2.0269232e-12
3.8279053e-09
-2.9738187e-12
2.1827965e-12
3.6694605e-09
2.7592914e-08
3.805866e-09
-4.1419946e-09
3.9086498e-09
2.0730434e-09
3.905868e-09
-2.1918985e-10
3.9438478e-09
1.419833e-10
3.9519593e-09
-9.6077848e-11
3.9563936e-09
4.3437831e-11
3.9572606e-09
1.3963702e-11
3.9576363e-09
1.3946585e-11
3.9575264e-09
3.5892132e-12
3.9574316e-09
1.4640246e-11
3.9577081e-09
-1.2469626e-11
3.9574503e-09
1.0103786e-11
3.9575074e-09
-5.7879803e-12
3.9575926e-09
3.6794395e-12
3.9574948e-09
-3.1299438e-12
3.9575883e-09
2.5727031e-12
3.9574968e-09
-2.1172004e-12
3.9575786e-09
1.7513235e-12
3.9575008e-09
-1.3699755e-12
3.9575713e-09
1.0487529e-12
3.9575057e-09
-7.2888628e-13
3.9575654e-09
4.4535916e-13
3.9575107e-09
-1.7600554e-13
3.9575603e-09
-6.87253e-14
3.9575152e-09
2.9852082e-13
3.9575557e-09
-5.0737575e-13
3.9575196e-09
6.9859996e-13
3.9575517e-09
-8.7482119e-13
3.9575232e-09
1.0366312e-12
3.9575481e-09
-1.1823373e-12
3.9575265e-09
1.3159251e-12
3.957545e-09
-1.4382774e-12
3.9575295e-09
1.547994e-12
3.9575423e-09
-1.6471546e-12
3.957532e-09
1.7368016e-12
3.9575399e-09
-1.8173668e-12
3.9575342e-09
1.8888897e-12
3.9575379e-09
-1.9525806e-12