/*--------------------------------*- C++ -*----------------------------------*\
| =========                 |                                                 |
| \\      /  F ield         | OpenFOAM: The Open Source CFD Toolbox           |
|  \\    /   O peration     | Version:  2312                                  |
|   \\  /    A nd           | Website:  www.openfoam.com                      |
|    \\/     M anipulation  |                                                 |
\*---------------------------------------------------------------------------*/
FoamFile
{
    version     2.0;
    format      ascii;
    arch        "LSB;label=32;scalar=64";
    class       volScalarField;
    location    "2";
    object      T;
}
// * * * * * * * * * * * * * * * * * * * * * * * * * * * * * * * * * * * * * //

dimensions      [0 0 0 1 0 0 0];

internalField   nonuniform List<scalar> 
4000
(
318.76952
317.83949
317.65667
317.60412
317.54504
317.50318
317.46409
317.42895
317.39553
317.36383
317.33304
317.30308
317.27396
317.24504
317.21704
317.18885
317.16162
317.13395
317.1073
317.08003
317.05383
317.02686
317.00101
316.97427
316.9487
316.92217
316.89683
316.87046
316.84532
316.8191
316.79414
316.76806
316.74326
316.71732
316.69267
316.66686
316.64237
316.61668
316.59235
316.56676
316.5426
316.51711
316.49312
316.46768
316.4439
316.41847
316.39494
316.36939
316.3463
316.31999
320.34429
318.84294
318.35112
318.24186
318.11395
318.03733
317.96904
317.91258
317.86128
317.81512
317.77172
317.73079
317.69239
317.65457
317.6195
317.58387
317.55113
317.51708
317.48608
317.4532
317.42354
317.39157
317.36296
317.3317
317.30394
317.27327
317.2462
317.21604
317.18956
317.15985
317.1339
317.1046
317.07914
317.05024
317.02525
316.99674
316.97221
316.94406
316.92001
316.89219
316.86864
316.84108
316.81806
316.79067
316.76826
316.74088
316.71922
316.69151
316.67118
316.6413
321.31692
319.80832
319.03974
318.87515
318.68021
318.56929
318.47223
318.39458
318.32561
318.26505
318.20916
318.15729
318.10968
318.06299
318.02091
317.97786
317.93964
317.89922
317.86389
317.82543
317.79232
317.75537
317.72401
317.68825
317.65829
317.62351
317.59471
317.56076
317.53294
317.49975
317.4728
317.44029
317.41415
317.3823
317.35693
317.32573
317.30113
317.27052
317.24671
317.21664
317.19366
317.16403
317.14193
317.11257
317.09149
317.06214
317.04232
317.01242
316.99479
316.96159
321.96
320.7013
319.71248
319.49788
319.23995
319.09614
318.97136
318.87298
318.78682
318.71208
318.64397
318.58131
318.52468
318.46921
318.42024
318.36984
318.32623
318.27949
318.23989
318.1959
318.15938
318.11749
318.0834
318.04318
318.01104
317.97219
317.94166
317.90397
317.8748
317.83816
317.81019
317.7745
317.74765
317.71288
317.68709
317.6532
317.62849
317.59541
317.5718
317.53946
317.517
317.48526
317.46404
317.43268
317.41287
317.38151
317.36348
317.33137
317.31633
317.28015
322.40584
321.4947
320.3564
320.10188
319.78784
319.61387
319.46329
319.34516
319.24268
319.15421
319.0744
319.00124
318.93591
318.87186
318.81621
318.7586
318.70976
318.65682
318.61306
318.56362
318.52377
318.47703
318.44026
318.39566
318.36137
318.31853
318.28627
318.24492
318.21439
318.17436
318.14536
318.10654
318.07895
318.04129
318.01505
317.97849
317.95361
317.91808
317.89459
317.85998
317.83797
317.8041
317.78368
317.75029
317.73167
317.69829
317.68194
317.64762
317.63499
317.59624
322.72434
322.16898
320.95791
320.67759
320.31755
320.11768
319.94423
319.80793
319.69046
319.58906
319.49831
319.41515
319.34162
319.26932
319.20734
319.14277
319.08891
319.02998
318.98221
318.9275
318.88443
318.83298
318.79362
318.74476
318.70837
318.66164
318.62771
318.58277
318.55091
318.50758
318.47754
318.43567
318.40731
318.36682
318.34008
318.3009
318.27579
318.23783
318.2144
318.17753
318.15588
318.11989
318.10017
318.06473
318.04721
318.01177
317.997
317.9605
317.95001
317.9091
322.95707
322.71655
321.505
321.21508
320.82219
320.60217
320.40983
320.25767
320.12705
320.01388
319.91329
319.82085
319.73982
319.65977
319.59192
319.52076
319.46223
319.39757
319.34605
319.28629
319.24018
319.18421
319.14238
319.08943
319.05105
319.00058
318.96502
318.91666
318.88349
318.83698
318.80591
318.76109
318.73196
318.68872
318.66146
318.61972
318.59433
318.55398
318.53054
318.49143
318.47007
318.43194
318.41284
318.37533
318.35881
318.32132
318.30797
318.26934
318.26071
318.21799
323.13029
323.13927
321.98866
321.70522
321.29499
321.06181
320.85552
320.69053
320.5491
320.42574
320.31669
320.21596
320.12834
320.04122
319.96813
319.89088
319.82811
319.75812
319.70315
319.63866
319.58974
319.52952
319.4854
319.42859
319.38833
319.33433
319.29724
319.24562
319.2112
319.16168
319.12961
319.08198
319.05208
319.00622
318.9784
318.9342
318.90849
318.86581
318.84231
318.80099
318.77984
318.7396
318.72102
318.68146
318.66581
318.62628
318.61418
318.57353
318.56642
318.52221
323.26169
323.44783
322.40415
322.14088
321.72998
321.49129
321.27674
321.10256
320.95315
320.82157
320.70576
320.59799
320.5049
320.41159
320.33402
320.25132
320.18487
320.11005
320.05204
319.98321
319.93178
319.86765
319.82145
319.76108
319.7191
319.66183
319.62331
319.56868
319.53309
319.48076
319.44773
319.39748
319.36682
319.31849
319.29012
319.24357
319.21752
319.17262
319.14899
319.10553
319.08451
319.04222
319.02406
318.98249
318.96758
318.92606
318.91502
318.87246
318.86655
318.82109
323.3637
323.65864
322.75076
322.51785
322.12246
321.88597
321.66926
321.49001
321.33583
321.19835
321.07777
320.96444
320.86719
320.76874
320.68761
320.60025
320.53077
320.45173
320.39116
320.3185
320.26492
320.19729
320.14928
320.0857
320.0422
319.98198
319.94219
319.88481
319.84816
319.79327
319.75937
319.70671
319.67533
319.62472
319.5958
319.54708
319.52066
319.47366
319.44987
319.40438
319.38343
319.33914
319.32132
319.27779
319.26349
319.22007
319.2099
319.16556
319.16053
319.11402
323.44501
323.79125
323.0317
322.8353
322.46935
322.24225
322.02953
321.84955
321.69404
321.55325
321.43008
321.31291
321.21296
321.1106
321.02695
320.93585
320.86409
320.78155
320.71899
320.64307
320.58777
320.51712
320.46763
320.40125
320.35649
320.29367
320.2528
320.193
320.15543
320.09826
320.06358
320.00877
319.97675
319.92407
319.89465
319.84393
319.81717
319.76822
319.74425
319.69684
319.67592
319.62974
319.61217
319.56678
319.55296
319.50773
319.49823
319.45227
319.44785
319.4004
323.51188
323.86588
323.25321
323.09553
322.76938
322.55783
322.35486
322.17848
322.02516
321.88377
321.76035
321.64116
321.54013
321.43521
321.35017
321.25636
321.18318
321.09794
321.03402
320.95551
320.89896
320.82585
320.77525
320.70655
320.6608
320.5958
320.55407
320.49222
320.45389
320.39478
320.35944
320.30277
320.2702
320.21572
320.18586
320.13336
320.10628
320.05556
320.03143
319.98226
319.96134
319.91339
319.89601
319.84887
319.83542
319.7885
319.7795
319.73207
319.72803
319.67973
323.56853
323.90121
323.42362
323.30328
323.02317
322.83192
322.64368
322.4749
322.32715
322.18791
322.06657
321.9473
321.84683
321.7408
321.65559
321.56019
321.48648
321.39944
321.33485
321.25447
321.19721
321.12224
321.07094
321.00044
320.95403
320.88731
320.84496
320.78147
320.74258
320.68189
320.64606
320.58784
320.55484
320.49884
320.46863
320.4146
320.38726
320.335
320.31072
320.25997
320.23904
320.18949
320.17224
320.12349
320.11032
320.06186
320.05321
320.00446
320.00061
319.95151
323.61789
323.91292
323.552
323.46498
323.2331
323.06524
322.89563
322.73788
322.59876
322.46425
322.34726
322.22981
322.13156
322.02589
321.94174
321.84591
321.77262
321.68472
321.62019
321.53872
321.48131
321.40514
321.35359
321.28186
321.23514
321.16719
321.12451
321.05981
321.02059
320.95871
320.92256
320.86315
320.82987
320.77265
320.7422
320.68692
320.6594
320.60582
320.58146
320.52933
320.50841
320.45744
320.4403
320.39011
320.37714
320.32731
320.31886
320.26896
320.26518
320.21531
323.6618
323.91282
323.64732
323.588
323.403
323.2599
323.1115
322.96745
322.83953
322.71205
322.60146
322.48765
322.39318
322.28933
322.20745
322.11237
322.04045
321.95266
321.88892
321.80717
321.75021
321.67354
321.6222
321.54983
321.50318
321.43452
321.39181
321.32637
321.28706
321.2244
321.18813
321.12791
321.0945
321.0364
321.00585
320.94961
320.92203
320.8674
320.84301
320.78974
320.76886
320.71668
320.69964
320.64822
320.63539
320.58436
320.57603
320.52513
320.52133
320.47073
323.70153
323.90898
323.71771
323.67988
323.53776
323.41917
323.2932
323.16463
323.04982
322.93126
322.82882
322.7203
322.63102
322.53037
322.45191
322.35872
322.28909
322.20236
322.14016
322.05894
322.00302
321.92654
321.87589
321.8035
321.7573
321.68848
321.64606
321.58035
321.54122
321.47821
321.44206
321.38139
321.34806
321.28942
321.25892
321.20203
321.1745
321.1191
321.09479
321.04063
321.01985
320.96668
320.94977
320.89731
320.8846
320.83257
320.82431
320.77254
320.76869
320.71741
323.73778
323.9061
323.7701
323.74776
323.64277
323.54713
323.44348
323.33127
323.23077
323.12255
323.02963
322.92775
322.84489
322.74867
322.67466
322.58443
322.51793
322.43319
322.37324
322.29335
322.23905
322.16345
322.11398
322.04217
321.99683
321.92838
321.88658
321.82109
321.78241
321.71949
321.68367
321.62296
321.5899
321.53107
321.50081
321.44358
321.41626
321.36037
321.33626
321.28148
321.26088
321.20696
321.19022
321.13695
321.12436
321.07153
321.0633
321.01084
321.00692
320.95502
323.77108
323.90641
323.80997
323.7979
323.72354
323.64831
323.56579
323.46992
323.38422
323.2872
323.20473
323.11056
323.03507
322.94433
322.87562
322.78931
322.72672
322.64481
322.58776
322.50995
322.45782
322.38378
322.33594
322.26532
322.22121
322.15367
322.11282
322.04802
322.01008
321.94767
321.91245
321.85208
321.8195
321.76084
321.73099
321.67376
321.6468
321.59073
321.56694
321.51181
321.49149
321.43709
321.42057
321.36672
321.35429
321.30087
321.29268
321.23967
321.23571
321.18329
323.80168
323.91036
323.84147
323.83547
323.78521
323.72731
323.66391
323.5836
323.51251
323.42704
323.35548
323.26975
323.20228
323.11784
323.05513
322.97354
322.91549
322.83717
322.78359
322.70856
322.65909
322.58723
322.54146
322.47258
322.43008
322.36396
322.32437
322.26074
322.22381
322.16234
322.12795
322.0683
322.03643
321.97829
321.94905
321.89212
321.8657
321.80975
321.78642
321.73122
321.71129
321.65667
321.64045
321.58628
321.57404
321.52025
321.51213
321.45875
321.45477
321.40196
323.82985
323.91756
323.86752
323.8645
323.83237
323.78853
323.7417
323.67562
323.61837
323.54428
323.48367
323.40675
323.34767
323.27009
323.21385
323.13763
323.08461
323.01052
322.96088
322.88923
322.84286
322.77375
322.73042
322.66382
322.62326
322.55904
322.52102
322.45898
322.42333
322.36319
322.32987
322.27131
322.24037
322.18308
322.15464
322.09835
322.07263
322.01709
321.99437
321.93938
321.91996
321.86539
321.84956
321.79532
321.78334
321.7294
321.72141
321.66784
321.66388
321.61082
323.85575
323.92716
323.89005
323.88793
323.86885
323.83592
323.80291
323.74933
323.70471
323.64144
323.59141
323.52332
323.47269
323.4023
323.35279
323.28238
323.23473
323.16536
323.12003
323.05226
323.00935
322.94347
322.90292
322.83905
322.80074
322.73886
322.70267
322.64263
322.60851
322.55007
322.51806
322.46093
322.43111
322.375
322.34756
322.29219
322.26735
322.2125
322.19054
322.13605
322.11726
322.063
322.04767
321.99361
321.98196
321.92811
321.92029
321.86674
321.86284
321.80971
323.87961
323.93829
323.91024
323.90779
323.89772
323.87289
323.85095
323.80797
323.77447
323.72111
323.68098
323.62145
323.57906
323.51594
323.47321
323.40886
323.36677
323.30248
323.2617
323.1982
323.15901
323.09677
323.05926
322.99852
322.9627
322.90353
322.86942
322.81173
322.77937
322.72296
322.69246
322.63707
322.60859
322.55393
322.52767
322.47351
322.44972
322.39584
322.37479
322.32105
322.30302
322.24934
322.2346
322.18096
322.16974
322.1162
322.10864
322.0553
322.05151
321.99851
323.90159
323.95019
323.92877
323.92539
323.92128
323.9022
323.8888
323.85448
323.83044
323.78589
323.75472
323.70326
323.66867
323.61268
323.57657
323.51837
323.48187
323.42285
323.38673
323.32779
323.29248
323.23419
323.19991
323.14261
323.1095
323.05334
323.02151
322.96647
322.93607
322.88198
322.85318
322.7998
322.77283
322.71991
322.69499
322.6423
322.6197
322.56705
322.54704
322.49431
322.47716
322.4243
322.41027
322.3573
322.34658
322.29358
322.28634
322.23344
322.2298
322.17715
323.92187
323.96231
323.94598
323.94149
323.94116
323.926
323.91893
323.89147
323.87521
323.83827
323.81498
323.77089
323.74348
323.69428
323.66449
323.61234
323.5813
323.52762
323.49617
323.44193
323.41059
323.35645
323.32552
323.2719
323.24163
323.18874
323.15935
323.1072
323.07891
323.02738
323.00045
322.94931
322.92401
322.87304
322.84962
322.79862
322.77736
322.72616
322.70733
322.65584
322.63969
322.58789
322.57465
322.52258
322.51246
322.46023
322.45337
322.40113
322.39768
322.3456
323.9406
323.9743
323.96206
323.95654
323.9585
323.94588
323.94333
323.92114
323.91107
323.88052
323.86393
323.82641
323.80543
323.76256
323.73862
323.6923
323.66647
323.61807
323.59118
323.54168
323.51429
323.46441
323.43688
323.38709
323.35975
323.3103
323.28344
323.23438
323.20832
323.15954
323.1346
323.0859
323.06239
323.01358
322.99178
322.94267
322.92287
322.87333
322.85577
322.80574
322.79068
322.74016
322.7278
322.67686
322.6674
322.61617
322.60975
322.5584
322.55516
322.50389
323.95795
323.98593
323.97708
323.97072
323.97402
323.963
323.96352
323.94526
323.93995
323.91462
323.90359
323.87179
323.85641
323.81929
323.80066
323.75981
323.73885
323.69553
323.67301
323.62819
323.60465
323.55905
323.53489
323.489
323.46461
323.4187
323.39445
323.34858
323.32484
323.27894
323.25609
323.20998
323.18836
323.14185
323.12178
323.07473
323.05647
323.00877
322.99259
322.9442
322.93031
322.88127
322.86987
322.82026
322.81153
322.7615
322.75558
322.70533
322.70234
322.65209
323.97403
323.9971
323.99108
323.98412
323.98815
323.97811
323.98063
323.96524
323.96346
323.94229
323.93573
323.90879
323.89817
323.86617
323.85223
323.81642
323.7999
323.7614
323.74295
323.70266
323.6828
323.64141
323.62054
323.57855
323.55708
323.51474
323.4931
323.4505
323.42912
323.38618
323.36547
323.32204
323.30238
323.25831
323.24002
323.19516
323.17852
323.13281
323.11806
323.07149
323.05883
323.01144
323.00106
322.95297
322.94502
322.8964
322.891
322.84206
322.83934
322.79034
323.98896
324.00777
324.00409
323.99676
324.00116
323.99172
323.99546
323.98212
323.98285
323.96495
323.96187
323.93898
323.9323
323.90475
323.89488
323.86362
323.85106
323.81703
323.80233
323.76633
323.74991
323.7126
323.69487
323.65669
323.63806
323.59928
323.58021
323.54089
323.52185
323.48192
323.46337
323.42269
323.40502
323.36345
323.34699
323.30442
323.28945
323.24584
323.23257
323.18794
323.17656
323.13098
323.12165
323.07525
323.06811
323.02108
323.01623
322.96881
322.96636
322.91881
324.00285
324.01793
324.01617
324.00864
324.0132
324.00414
324.00856
323.99667
323.99912
323.98372
323.98327
323.96369
323.96018
323.93646
323.93
323.90278
323.89369
323.86374
323.8524
323.82041
323.80717
323.77373
323.75894
323.72445
323.70853
323.67321
323.65664
323.62055
323.60382
323.56688
323.55048
323.51255
323.49688
323.45785
323.44324
323.40303
323.38973
323.34832
323.33654
323.29397
323.28388
323.24024
323.23198
323.18742
323.1811
323.13583
323.13155
323.08581
323.08365
323.03773
324.01577
324.02758
324.02734
324.01976
324.02433
324.01556
324.02029
324.00945
324.01299
323.9995
324.00095
323.98405
323.98301
323.96251
323.95887
323.93518
323.92905
323.90276
323.89438
323.86608
323.8557
323.82589
323.81381
323.78282
323.76945
323.73747
323.72329
323.69033
323.67585
323.64184
323.62754
323.59235
323.57864
323.54216
323.52937
323.49155
323.47992
323.44076
323.43048
323.39003
323.38124
323.33963
323.33245
323.28985
323.28437
323.24098
323.23727
323.19336
323.1915
323.14737
324.0278
324.03673
324.03766
324.03012
324.03461
324.02608
324.03089
324.02081
324.025
324.01294
324.01572
324.00094
324.00179
323.98396
323.98259
323.96193
323.95829
323.93523
323.92942
323.90445
323.89662
323.87014
323.86053
323.83282
323.82181
323.79299
323.78105
323.7511
323.73876
323.70759
323.69531
323.6628
323.651
323.61705
323.60604
323.5706
323.56061
323.52372
323.5149
323.47665
323.46913
323.42964
323.42351
323.38296
323.3783
323.33692
323.33377
323.29183
323.29024
323.24805
324.03901
324.04538
324.04716
324.03971
324.04406
324.03576
324.0405
324.03101
324.03552
324.02456
324.02821
324.01511
324.01734
324.0017
324.00211
323.98402
323.98241
323.96218
323.95853
323.93654
323.93093
323.90749
323.90008
323.8754
323.86654
323.84068
323.83082
323.80372
323.79338
323.76493
323.75458
323.72465
323.71469
323.6832
323.6739
323.64083
323.63241
323.59781
323.5904
323.55436
323.54807
323.51074
323.50564
323.46721
323.46334
323.42405
323.42144
323.38157
323.38026
323.34011
324.04942
324.05353
324.05587
324.04854
324.0527
324.04464
324.04921
324.04019
324.04481
324.0347
324.03888
324.0271
324.0303
324.01645
324.0182
324.00228
324.00229
323.9845
323.98266
323.96329
323.95958
323.93887
323.9334
323.91147
323.90455
323.88141
323.87346
323.84903
323.84055
323.81467
323.80612
323.77867
323.77043
323.74132
323.73365
323.7029
323.69597
323.66363
323.65756
323.62374
323.61862
323.58348
323.57935
323.54309
323.53997
323.50284
323.50075
323.46301
323.46196
323.42394
324.05908
324.06115
324.0638
324.05661
324.06052
324.05271
324.05706
324.04847
324.05305
324.04362
324.04807
324.03734
324.04118
324.02879
324.03153
324.01741
324.01869
324.00298
324.00261
323.98553
323.98341
323.96512
323.96132
323.94189
323.93667
323.91603
323.90979
323.88782
323.88104
323.85757
323.85069
323.82558
323.81894
323.79212
323.78596
323.75746
323.75193
323.7218
323.717
323.68538
323.68135
323.6484
323.64518
323.61111
323.60869
323.57375
323.57213
323.53659
323.53578
323.49994
324.06799
324.0682
324.07096
324.0639
324.06755
324.06
324.06411
324.0559
324.06036
324.05148
324.05604
324.04615
324.0504
324.03918
324.04262
324.02999
324.03224
324.01829
324.01908
324.00398
324.00318
323.98701
323.98464
323.96742
323.96369
323.9453
323.94059
323.92087
323.91562
323.89437
323.88901
323.86609
323.86093
323.83628
323.83152
323.80517
323.80093
323.77296
323.76931
323.73985
323.73683
323.70605
323.70367
323.67178
323.67001
323.63726
323.63609
323.60275
323.60217
323.56852
324.07612
324.07463
324.07732
324.07042
324.07378
324.0665
324.07037
324.06253
324.06682
324.05843
324.06297
324.05378
324.05823
324.04798
324.05189
324.04049
324.04345
324.03098
324.03268
324.01926
324.01953
324.00521
324.00403
323.98876
323.98631
323.96994
323.96656
323.94888
323.94499
323.92579
323.92178
323.90091
323.89706
323.87446
323.87096
323.84667
323.8436
323.8177
323.81511
323.78774
323.78565
323.75699
323.75536
323.72563
323.72445
323.69388
323.69311
323.66196
323.66158
323.63014
324.08335
324.08036
324.08286
324.07614
324.07922
324.07224
324.07586
324.0684
324.07248
324.06454
324.069
324.06039
324.06493
324.05547
324.05967
324.04929
324.05275
324.04152
324.04391
324.03192
324.03304
324.02031
324.0201
324.00654
324.00516
323.99058
323.98834
323.97249
323.96979
323.95245
323.94964
323.93065
323.92799
323.90729
323.90492
323.88256
323.88055
323.85662
323.85498
323.82963
323.82835
323.80176
323.80081
323.77319
323.77253
323.7441
323.74368
323.71469
323.7145
323.68522
324.08953
324.08529
324.08756
324.08106
324.08388
324.07722
324.0806
324.07352
324.07741
324.06988
324.07421
324.06612
324.07064
324.06185
324.06621
324.05669
324.06048
324.05029
324.05318
324.0424
324.04417
324.0328
324.03338
324.02129
324.02081
324.00779
324.00653
323.9923
323.99062
323.97496
323.97319
323.95592
323.95429
323.93536
323.93398
323.91344
323.91234
323.89029
323.88947
323.86606
323.8655
323.84089
323.84054
323.81495
323.81475
323.7884
323.78829
323.76141
323.76137
323.73421
324.09444
324.08934
324.09139
324.08517
324.08778
324.08146
324.08464
324.07795
324.08164
324.07452
324.07869
324.07106
324.07552
324.0673
324.07172
324.06291
324.06691
324.05758
324.06083
324.05106
324.05333
324.0431
324.04431
324.03349
324.03373
324.02207
324.02162
324.00882
324.00801
323.99384
323.99297
323.97726
323.97651
323.95921
323.95867
323.93983
323.93952
323.91923
323.91913
323.89754
323.8976
323.87489
323.87505
323.85142
323.8516
323.82726
323.82742
323.80257
323.80266
323.77756
324.09794
324.09248
324.09438
324.08852
324.09095
324.085
324.088
324.0817
324.08522
324.07849
324.0825
324.0753
324.07966
324.07194
324.07635
324.06815
324.07225
324.06365
324.06714
324.05821
324.06084
324.05158
324.05327
324.04352
324.04435
324.03385
324.03406
324.02252
324.02243
324.00959
324.00945
323.99515
323.99515
323.97933
323.97951
323.96223
323.96259
323.94394
323.94445
323.92458
323.92516
323.90425
323.90483
323.88305
323.88357
323.86113
323.86151
323.83862
323.83882
323.81568
324.10004
324.09471
324.09656
324.09113
324.09344
324.08789
324.09074
324.08483
324.08818
324.08185
324.0857
324.0789
324.08313
324.07587
324.08022
324.07254
324.07668
324.06869
324.07232
324.0641
324.06698
324.05853
324.06057
324.05172
324.05301
324.0435
324.04425
324.03379
324.03428
324.02261
324.02309
324.01004
324.01065
323.99617
323.99695
323.9811
323.98201
323.96489
323.96588
323.94762
323.94863
323.9294
323.93033
323.91031
323.91109
323.89047
323.89103
323.86998
323.87027
323.84899
324.10094
324.09614
324.09803
324.09308
324.09531
324.09017
324.09289
324.08739
324.09059
324.08464
324.08834
324.08193
324.08602
324.07917
324.08342
324.07621
324.08032
324.07285
324.07654
324.06891
324.07196
324.06417
324.06647
324.05838
324.06
324.05134
324.0525
324.04297
324.04392
324.03327
324.03424
324.0223
324.0234
324.01014
324.01139
323.99684
323.9982
323.98247
323.98386
323.96709
323.96843
323.95078
323.95198
323.93361
323.93459
323.91567
323.91636
323.89706
323.89742
323.8779
324.10098
324.09692
324.09889
324.09444
324.09663
324.09191
324.09452
324.08942
324.09249
324.08692
324.09047
324.08443
324.08837
324.08191
324.08604
324.07923
324.08328
324.07625
324.07995
324.07281
324.07594
324.06871
324.07118
324.06371
324.06558
324.05763
324.05909
324.05036
324.05165
324.04189
324.04323
324.03228
324.03375
324.02158
324.02319
324.00983
324.01152
323.99707
323.99876
323.98337
323.98496
323.96876
323.97017
323.95332
323.95446
323.93712
323.93792
323.92023
323.92064
323.90277
324.10054
324.09724
324.09927
324.09533
324.09748
324.09318
324.0957
324.09098
324.09393
324.08873
324.09213
324.08646
324.09025
324.08413
324.08813
324.08168
324.08564
324.07898
324.08264
324.07591
324.07907
324.07228
324.07485
324.06789
324.06993
324.06256
324.06424
324.05618
324.05773
324.04873
324.05034
324.04025
324.042
324.03079
324.03266
324.02037
324.0223
324.00902
324.01093
323.99679
323.99856
323.9837
323.98525
323.96981
323.97106
323.95518
323.95605
323.93986
323.94031
323.92396
324.09988
324.09725
324.09929
324.09582
324.09794
324.09405
324.09647
324.09214
324.09496
324.09013
324.09338
324.08805
324.09168
324.0859
324.08974
324.08361
324.08745
324.08112
324.08469
324.0783
324.08144
324.07501
324.07762
324.07108
324.07321
324.06632
324.06814
324.06064
324.06235
324.05401
324.0558
324.04647
324.0484
324.03804
324.04009
324.02875
324.03084
324.01861
324.02066
324.00766
324.00955
323.99591
323.99755
323.9834
323.98471
323.97017
323.97109
323.95628
323.95675
323.94179
324.09915
324.09706
324.09906
324.09601
324.09808
324.09457
324.09691
324.09293
324.09564
324.09115
324.09426
324.08925
324.09272
324.08724
324.09092
324.08507
324.08876
324.0827
324.08617
324.08005
324.08312
324.07699
324.07959
324.07337
324.07554
324.06903
324.07092
324.06388
324.0657
324.05791
324.0598
324.05112
324.05315
324.04355
324.0457
324.0352
324.03739
324.0261
324.02822
324.01625
324.0182
324.00567
324.00735
323.99437
323.99571
323.9824
323.98333
323.96978
323.97026
323.95658
324.09843
324.09676
324.09865
324.09597
324.09798
324.09482
324.09706
324.09343
324.09601
324.09184
324.0948
324.09009
324.09338
324.08818
324.09168
324.08609
324.0896
324.08378
324.0871
324.0812
324.08417
324.07827
324.08081
324.07484
324.077
324.0708
324.07271
324.06605
324.06789
324.06057
324.0625
324.05438
324.05645
324.0475
324.04969
324.03994
324.04215
324.03171
324.03384
324.0228
324.02475
324.01322
324.0149
324.00299
324.00433
323.99212
323.99305
323.98065
323.98112
323.96861
324.0977
324.09639
324.09813
324.09576
324.09768
324.09485
324.09699
324.09366
324.09611
324.09225
324.09504
324.09061
324.0937
324.08875
324.09204
324.08667
324.08998
324.08436
324.08751
324.08178
324.08462
324.07889
324.08134
324.07556
324.07766
324.07169
324.07357
324.06722
324.06905
324.0621
324.06402
324.05638
324.05843
324.05005
324.05222
324.04313
324.04532
324.03562
324.03772
324.02751
324.02943
324.01879
324.02045
324.00949
324.01079
323.99959
324.00049
323.98913
323.98959
323.97812
324.09697
324.09598
324.09752
324.09542
324.09724
324.09469
324.09672
324.09368
324.09598
324.09239
324.095
324.09082
324.0937
324.08896
324.09202
324.08684
324.08992
324.08445
324.0874
324.08181
324.08448
324.07887
324.0812
324.07556
324.07756
324.07177
324.07358
324.06746
324.06923
324.06261
324.06446
324.05722
324.05922
324.05133
324.05343
324.04492
324.04704
324.038
324.04003
324.03055
324.03241
324.02257
324.02417
324.01406
324.01532
324.00501
324.00588
323.99544
323.99588
323.98536
324.09621
324.09553
324.09686
324.09498
324.09669
324.09439
324.0963
324.09351
324.09565
324.0923
324.0947
324.09073
324.09336
324.08881
324.09161
324.08658
324.08941
324.08406
324.08677
324.08128
324.08375
324.07823
324.0804
324.07485
324.07673
324.07107
324.07277
324.06683
324.06851
324.06214
324.0639
324.057
324.05889
324.05143
324.05342
324.04542
324.04744
324.03898
324.04092
324.03209
324.03385
324.02472
324.02624
324.01689
324.01808
324.00858
324.0094
323.99978
324.0002
323.99052
324.09543
324.09506
324.09616
324.09447
324.09606
324.09398
324.09574
324.09317
324.09513
324.09197
324.09414
324.09034
324.0927
324.08829
324.09079
324.08587
324.08842
324.08316
324.08561
324.08018
324.08243
324.07695
324.07893
324.07344
324.07517
324.06959
324.07116
324.06536
324.06691
324.06075
324.06239
324.05577
324.05753
324.05043
324.0523
324.04474
324.04662
324.03868
324.04049
324.03223
324.03389
324.02539
324.02681
324.01813
324.01925
324.01045
324.01122
324.00234
324.00274
323.99381
324.0946
324.09456
324.09541
324.0939
324.09535
324.09346
324.09507
324.09267
324.09442
324.09141
324.09331
324.08963
324.09169
324.08737
324.08955
324.0847
324.08692
324.08172
324.08388
324.07848
324.08047
324.07502
324.07679
324.07132
324.07287
324.06734
324.06876
324.06306
324.06447
324.05847
324.05996
324.05358
324.05519
324.0484
324.05012
324.04294
324.04468
324.03718
324.03886
324.0311
324.03263
324.02469
324.026
324.01793
324.01896
324.01079
324.01151
324.00328
324.00364
323.99538
324.09372
324.09402
324.09462
324.09328
324.09458
324.09285
324.09429
324.09202
324.09352
324.09061
324.09219
324.08858
324.09028
324.08602
324.08783
324.08302
324.08489
324.0797
324.08154
324.07615
324.07787
324.07241
324.07394
324.06847
324.06983
324.06433
324.06557
324.05994
324.06118
324.05532
324.05665
324.05046
324.05192
324.04539
324.04694
324.04009
324.04168
324.03457
324.0361
324.02879
324.03019
324.02274
324.02393
324.01639
324.01733
324.00972
324.01037
324.00273
324.00306
323.99538
324.0928
324.09346
324.09378
324.0926
324.09376
324.09216
324.09339
324.09119
324.0924
324.08952
324.09074
324.08714
324.08845
324.08418
324.08559
324.08078
324.08226
324.07706
324.07855
324.07314
324.07456
324.06908
324.07036
324.06488
324.06603
324.06053
324.06159
324.056
324.05707
324.05131
324.05247
324.04645
324.04773
324.04143
324.04281
324.03626
324.03768
324.03091
324.03229
324.02537
324.02663
324.01962
324.0207
324.01362
324.01448
324.00736
324.00795
324.00081
324.00111
323.99396
324.09181
324.09286
324.0929
324.09188
324.09287
324.09136
324.09234
324.09015
324.09101
324.08809
324.0889
324.08525
324.08611
324.08179
324.08276
324.07791
324.07898
324.07375
324.07487
324.06942
324.07052
324.065
324.06602
324.06051
324.06143
324.05593
324.05679
324.05124
324.05213
324.04645
324.04743
324.04155
324.04266
324.03656
324.03777
324.03147
324.03272
324.02626
324.02749
324.02091
324.02205
324.01541
324.01638
324.00972
324.01048
324.0038
324.00433
323.99765
323.99792
323.99124
324.09076
324.09224
324.09197
324.09111
324.09191
324.09043
324.09111
324.08885
324.0893
324.08626
324.08659
324.08282
324.0832
324.07878
324.07928
324.07435
324.07498
324.06969
324.07042
324.06493
324.0657
324.06014
324.06088
324.05533
324.05602
324.05051
324.05118
324.04564
324.04635
324.04074
324.04155
324.03579
324.03672
324.0308
324.03184
324.02576
324.02686
324.02066
324.02175
324.01548
324.01648
324.01019
324.01105
324.00475
324.00544
323.99915
323.99962
323.99334
323.99358
323.98731
324.08963
324.0916
324.09098
324.09029
324.09085
324.08934
324.08964
324.0872
324.08717
324.08393
324.08373
324.07978
324.07962
324.07506
324.07505
324.07003
324.07019
324.06484
324.06516
324.05962
324.06004
324.05444
324.0549
324.04932
324.04978
324.04425
324.04472
324.03921
324.03974
324.03419
324.03482
324.02918
324.02994
324.02418
324.02506
324.01918
324.02012
324.01417
324.01511
324.00913
324.01
324.00401
324.00478
323.99881
323.99941
323.99347
323.99389
323.98797
323.98818
323.98228
324.08841
324.09095
324.08994
324.08941
324.08965
324.08801
324.08783
324.08512
324.08451
324.08099
324.0802
324.076
324.07528
324.07054
324.07001
324.06486
324.06456
324.05912
324.05903
324.05345
324.05351
324.04788
324.04805
324.04245
324.04268
324.03714
324.03742
324.03193
324.03228
324.02679
324.02726
324.02173
324.02233
324.01672
324.01744
324.01175
324.01255
324.00682
324.00763
324.00189
324.00266
323.99695
323.99761
323.99194
323.99247
323.98685
323.98721
323.98162
323.98181
323.97625
324.0871
324.09031
324.08883
324.08844
324.08824
324.08635
324.08558
324.08248
324.08121
324.07731
324.07588
324.07139
324.07008
324.06512
324.06406
324.05877
324.058
324.05248
324.05199
324.04635
324.04608
324.04043
324.04031
324.03471
324.0347
324.02918
324.02926
324.0238
324.02399
324.01857
324.01888
324.01345
324.0139
324.00843
324.00901
324.0035
324.00416
323.99865
323.99933
323.99383
323.99449
323.98904
323.98962
323.98422