/*--------------------------------*- C++ -*----------------------------------*\
| =========                 |                                                 |
| \\      /  F ield         | OpenFOAM: The Open Source CFD Toolbox           |
|  \\    /   O peration     | Version:  2312                                  |
|   \\  /    A nd           | Website:  www.openfoam.com                      |
|    \\/     M anipulation  |                                                 |
\*---------------------------------------------------------------------------*/
FoamFile
{
    version     2.0;
    format      ascii;
    arch        "LSB;label=32;scalar=64";
    class       surfaceScalarField;
    location    "8";
    object      phi;
}
// * * * * * * * * * * * * * * * * * * * * * * * * * * * * * * * * * * * * * //

dimensions      [0 3 -1 0 0 0 0];

oriented        oriented;

internalField   nonuniform List<scalar> 
7870
(
1.0170874e-10
2.3560413e-09
1.0152873e-10
1.8000854e-13
9.4556942e-11
6.9717886e-12
9.3958608e-11
5.9833476e-13
9.5089791e-11
-1.1311821e-12
9.3654356e-11
1.4354354e-12
9.4991904e-11
-1.3375476e-12
9.3709597e-11
1.2823069e-12
9.4920045e-11
-1.2104479e-12
9.3777571e-11
1.1424743e-12
9.4852281e-11
-1.0747092e-12
9.3839845e-11
1.0124357e-12
9.4792372e-11
-9.5252669e-13
9.3895415e-11
8.9695669e-13
9.4739764e-11
-8.4434829e-13
9.3944551e-11
7.952131e-13
9.4693515e-11
-7.4896449e-13
9.3987848e-11
7.0566748e-13
9.4652848e-11
-6.6500046e-13
9.402593e-11
6.269175e-13
9.4617114e-11
-5.9118402e-13
9.4059376e-11
5.5773875e-13
9.4585758e-11
-5.2638218e-13
9.4088696e-11
4.9706141e-13
9.4558294e-11
-4.6959788e-13
9.4114344e-11
4.4395068e-13
9.4534302e-11
-4.199585e-13
9.4136711e-11
3.9759098e-13
9.4513414e-11
-3.7670292e-13
9.4156142e-11
3.5727229e-13
9.4495311e-11
-3.3916939e-13
9.4172933e-11
3.2237842e-13
9.4479717e-11
-3.0678465e-13
9.418734e-11
2.9237681e-13
9.4466395e-11
-2.7905456e-13
9.4199585e-11
2.6680987e-13
9.4455141e-11
-2.5555615e-13
9.4209854e-11
2.4528762e-13
9.4445785e-11
-2.359309e-13
9.4218303e-11
2.2748157e-13
9.4438182e-11
-2.1987914e-13
9.4225063e-11
2.1311961e-13
9.4432217e-11
-2.0715437e-13
9.423023e-11
2.0198705e-13
9.4427779e-11
-1.9754944e-13
9.4233875e-11
1.9390438e-13
9.4425043e-11
-1.9116848e-13
9.4237705e-11
1.8733813e-13
9.4430786e-11
-1.9308097e-13
1.7960952e-13
2.7852989e-10
4.5352614e-09
2.924741e-10
-1.3764198e-11
2.7444674e-10
2.4999152e-11
2.7367527e-10
1.3698111e-12
2.7494307e-10
-2.398985e-12
2.7288146e-10
3.4970446e-12
2.7477426e-10
-3.2303469e-12
2.729405e-10
3.1160735e-12
2.7468001e-10
-2.9499635e-12
2.7303583e-10
2.7866582e-12
2.7458232e-10
-2.6212015e-12
2.7312441e-10
2.4703514e-12
2.7449562e-10
-2.3237413e-12
2.7320415e-10
2.1884328e-12
2.7441978e-10
-2.0599846e-12
2.7327487e-10
1.9401234e-12
2.7435323e-10
-1.827321e-12
2.7333726e-10
1.7216391e-12
2.7429474e-10
-1.6224821e-12
2.7339215e-10
1.5295109e-12
2.7424335e-10
-1.4423879e-12
2.7344035e-10
1.3607353e-12
2.7419825e-10
-1.2842813e-12
2.7348261e-10
1.2126979e-12
2.7415875e-10
-1.1457323e-12
2.7351958e-10
1.0831178e-12
2.7412424e-10
-1.0246131e-12
2.7355182e-10
9.7000577e-13
2.7409419e-10
-9.1906755e-13
2.7357983e-10
8.7163027e-13
2.7406814e-10
-8.2748163e-13
2.7360403e-10
7.8648846e-13
2.740457e-10
-7.484569e-13
2.736248e-10
7.1328126e-13
2.7402653e-10
-6.8078777e-13
2.7364245e-10
6.5089225e-13
2.7401034e-10
-6.2344208e-13
2.7365725e-10
5.9836982e-13
2.7399687e-10
-5.7554463e-13
2.7366944e-10
5.5491199e-13
2.7398592e-10
-5.3636372e-13
2.7367919e-10
5.1985366e-13
2.7397733e-10
-5.052963e-13
2.7368664e-10
4.9267335e-13
2.7397091e-10
-4.8181291e-13
2.7369183e-10
4.7297557e-13
2.7396685e-10
-4.6618588e-13
2.7369802e-10
4.5616707e-13
2.7398152e-10
-4.7657715e-13
4.3651854e-13
4.5000288e-10
6.5430085e-09
4.7635735e-10
-4.0118667e-11
4.4929722e-10
5.2059289e-11
4.4910711e-10
1.559914e-12
4.4976503e-10
-3.0569027e-12
4.4786028e-10
5.4018006e-12
4.4960162e-10
-4.9716845e-12
4.4789404e-10
4.8236529e-12
4.4952869e-10
-4.5846147e-12
4.4798074e-10
4.3346086e-12
4.4943668e-10
-4.0771416e-12
4.4806275e-10
3.844287e-12
4.4935442e-10
-3.6154169e-12
4.4813752e-10
3.4053383e-12
4.4928284e-10
-3.2053122e-12
4.4820413e-10
3.0188398e-12
4.4922018e-10
-2.8433739e-12
4.4826296e-10
2.6788557e-12
4.4916515e-10
-2.5246663e-12
4.4831475e-10
2.3799089e-12
4.491168e-10
-2.2444385e-12
4.4836024e-10
2.117299e-12
4.4907437e-10
-1.998413e-12
4.4840011e-10
1.886952e-12
4.490372e-10
-1.7828132e-12
4.4843499e-10
1.6853184e-12
4.4900471e-10
-1.5943309e-12
4.4846541e-10
1.5093045e-12
4.4897643e-10
-1.4300793e-12
4.4849184e-10
1.3562173e-12
4.489519e-10
-1.2875477e-12
4.4851467e-10
1.2237191e-12
4.4893078e-10
-1.1645603e-12
4.4853427e-10
1.1097889e-12
4.4891272e-10
-1.0592411e-12
4.4855093e-10
1.0126895e-12
4.4889747e-10
-9.6998362e-13
4.485649e-10
9.3093974e-13
4.4888478e-10
-8.9542504e-13
4.485764e-10
8.6329046e-13
4.4887446e-10
-8.3442527e-13
4.4858561e-10
8.0870412e-13
4.4886636e-10
-7.8604216e-13
4.4859266e-10
7.663717e-13
4.4886025e-10
-7.494091e-13
4.4859749e-10
7.3573661e-13
4.4885632e-10
-7.2500799e-13
4.4860441e-10
7.080684e-13
4.4887887e-10
-7.5103342e-13
6.7670909e-13
6.1248751e-10
8.388271e-09
6.5425119e-10
-8.1882343e-11
6.1957821e-10
8.6732279e-11
6.1982593e-10
1.3121923e-12
6.199484e-10
-3.1793692e-12
6.1822387e-10
7.126333e-12
6.1982047e-10
-6.5682826e-12
6.1824539e-10
6.3987321e-12
6.1977303e-10
-6.1122548e-12
6.183248e-10
5.7828326e-12
6.1968717e-10
-5.4395024e-12
6.1840023e-10
5.1312198e-12
6.1960956e-10
-4.824741e-12
6.1846988e-10
4.5450151e-12
6.1954239e-10
-4.2778214e-12
6.1853221e-10
4.0290192e-12
6.1948373e-10
-3.7948946e-12
6.1858734e-10
3.5752427e-12
6.1943225e-10
-3.3695736e-12
6.1863589e-10
3.1762691e-12
6.1938703e-10
-2.9955751e-12
6.1867854e-10
2.8257905e-12
6.1934733e-10
-2.667209e-12
6.1871592e-10
2.5183622e-12
6.1931255e-10
-2.379442e-12
6.1874862e-10
2.2492476e-12
6.1928215e-10
-2.1278622e-12
6.1877714e-10
2.0143194e-12
6.1925568e-10
-1.9086187e-12
6.1880191e-10
1.8099853e-12
6.1923272e-10
-1.7183616e-12
6.1882332e-10
1.6331265e-12
6.1921294e-10
-1.5541874e-12
6.1884169e-10
1.481046e-12
6.1919604e-10
-1.4135921e-12
6.188573e-10
1.3514249e-12
6.1918175e-10
-1.2944306e-12
6.188704e-10
1.2422856e-12
6.1916986e-10
-1.1948825e-12
6.1888119e-10
1.151959e-12
6.1916019e-10
-1.1134236e-12
6.1888984e-10
1.0790557e-12
6.1915259e-10
-1.0487902e-12
6.1889646e-10
1.0224963e-12
6.1914682e-10
-9.9976447e-13
6.1890093e-10
9.8161986e-13
6.1914292e-10
-9.6699653e-13
6.1890818e-10
9.4281511e-13
6.1917146e-10
-1.0143147e-12
9.0050459e-13
7.7597002e-10
1.0070051e-08
8.2520999e-10
-1.3112232e-10
7.8512572e-10
1.2681656e-10
7.8582866e-10
6.0925218e-13
7.8549036e-10
-2.8410648e-12
7.8397265e-10
8.6440413e-12
7.8543072e-10
-8.0263521e-12
7.8399409e-10
7.8353614e-12
7.8541275e-10
-7.5309058e-12
7.8406757e-10
7.1280052e-12
7.8533353e-10
-6.70546e-12
7.8413647e-10
6.3282807e-12
7.8526081e-10
-5.9490776e-12
7.8420088e-10
5.6049435e-12
7.8519822e-10
-5.2751588e-12
7.842588e-10
4.9684399e-12
7.851437e-10
-4.6797934e-12
7.8431011e-10
4.4088329e-12
7.8509588e-10
-4.1553484e-12
7.843553e-10
3.9168454e-12
7.8505388e-10
-3.6941498e-12
7.8439501e-10
3.484658e-12
7.8501701e-10
-3.2892046e-12
7.8442982e-10
3.1055483e-12
7.8498469e-10
-2.9343154e-12
7.8446026e-10
2.7736763e-12
7.8495645e-10
-2.624046e-12
7.8448681e-10
2.4839548e-12
7.8493184e-10
-2.3536501e-12
7.8450987e-10
2.2319559e-12
7.8491051e-10
-2.1189978e-12
7.845298e-10
2.0138348e-12
7.8489212e-10
-1.9165089e-12
7.845469e-10
1.8262659e-12
7.8487641e-10
-1.7430947e-12
7.8456144e-10
1.6663895e-12
7.8486312e-10
-1.596109e-12
7.8457364e-10
1.5317652e-12
7.8485206e-10
-1.4733047e-12
7.8458369e-10
1.4203322e-12
7.8484306e-10
-1.3727986e-12
7.8459175e-10
1.330371e-12
7.8483598e-10
-1.2930239e-12
7.8459793e-10
1.2605476e-12
7.8483057e-10
-1.2324003e-12
7.8460203e-10
1.2101523e-12
7.848267e-10
-1.191662e-12
7.8460933e-10
1.1601819e-12
7.8485965e-10
-1.2646336e-12
1.1068603e-12
9.2285809e-10
1.1604943e-08
9.8982563e-10
-1.9808985e-10
9.4610294e-10
1.7053925e-10
9.4709439e-10
-3.8219295e-13
9.4639225e-10
-2.1389286e-12
9.4510806e-10
9.9282347e-12
9.4643362e-10
-9.3519164e-12
9.4513997e-10
9.1290127e-12
9.4644834e-10
-8.8392745e-12
9.4520876e-10
8.367585e-12
9.4637619e-10
-7.8728884e-12
9.4527121e-10
7.4332639e-12
9.4630854e-10
-6.9864057e-12
9.4533029e-10
6.5831907e-12
9.4625065e-10
-6.195513e-12
9.4538369e-10
5.8353972e-12
9.4620035e-10
-5.4964593e-12
9.4543107e-10
5.1781158e-12
9.4615628e-10
-4.8805596e-12
9.4547283e-10
4.6002965e-12
9.4611757e-10
-4.3388907e-12
9.4550952e-10
4.0927091e-12
9.4608359e-10
-3.8632692e-12
9.4554168e-10
3.6474497e-12
9.460538e-10
-3.4464281e-12
9.4556981e-10
3.2576603e-12
9.4602775e-10
-3.0819876e-12
9.4559434e-10
2.9173693e-12
9.4600507e-10
-2.7643762e-12
9.4561564e-10
2.6213781e-12
9.4598539e-10
-2.4887443e-12
9.4563405e-10
2.3651724e-12
9.4596843e-10
-2.2508871e-12
9.4564985e-10
2.1448466e-12
9.4595393e-10
-2.0471765e-12
9.4566328e-10
1.9570414e-12
9.4594167e-10
-1.8745029e-12
9.4567455e-10
1.7988889e-12
9.4593147e-10
-1.7302245e-12
9.4568384e-10
1.6679656e-12
9.4592316e-10
-1.6121247e-12
9.4569129e-10
1.5622436e-12
9.4591662e-10
-1.5183534e-12
9.4569702e-10
1.4801508e-12
9.4591158e-10
-1.4469609e-12
9.4570075e-10
1.4209827e-12
9.4590774e-10
-1.3986563e-12
9.4570789e-10
1.3600287e-12
9.4594374e-10
-1.500479e-12
1.2948853e-12
1.0794718e-09
1.2983221e-08
1.1479618e-09
-2.6657986e-10
1.1023683e-09
2.1613278e-10
1.103585e-09
-1.5988957e-12
1.1026451e-09
-1.1989906e-12
1.1016307e-09
1.0942631e-11
1.1028305e-09
-1.0551709e-11
1.1016828e-09
1.027667e-11
1.1028803e-09
-1.0036738e-11
1.101748e-09
9.4998779e-12
1.1028155e-09
-8.9404068e-12
1.1018041e-09
8.4446706e-12
1.1027531e-09
-7.9353703e-12
1.1018578e-09
7.4784482e-12
1.1027e-09
-7.0376595e-12
1.1019066e-09
6.628738e-12
1.102654e-09
-6.2438001e-12
1.10195e-09
5.8820684e-12
1.1026137e-09
-5.544235e-12
1.1019883e-09
5.2257127e-12
1.1025783e-09
-4.928933e-12
1.1020219e-09
4.6491344e-12
1.1025472e-09
-4.3886339e-12
1.1020513e-09
4.1433458e-12
1.10252e-09
-3.9150958e-12
1.1020771e-09
3.7005581e-12
1.1024962e-09
-3.501078e-12
1.1020996e-09
3.313991e-12
1.1024755e-09
-3.140254e-12
1.1021191e-09
2.9777416e-12
1.1024575e-09
-2.8271163e-12
1.102136e-09
2.6866829e-12
1.102442e-09
-2.5568885e-12
1.1021504e-09
2.4363789e-12
1.1024287e-09
-2.3254484e-12
1.1021627e-09
2.2230126e-12
1.1024175e-09
-2.1292618e-12
1.1021731e-09
2.0433246e-12
1.1024082e-09
-1.9653247e-12
1.1021816e-09
1.8945577e-12
1.1024006e-09
-1.8311138e-12
1.1021884e-09
1.7743991e-12
1.1023946e-09
-1.7245158e-12
1.1021937e-09
1.681054e-12
1.1023899e-09
-1.64321e-12
1.102197e-09
1.6138755e-12
1.1023861e-09
-1.5877597e-12
1.1022038e-09
1.5422941e-12
1.102424e-09
-1.7205999e-12
1.4641246e-12
1.2114272e-09
1.4229544e-08
1.2995117e-09
-3.5466429e-10
1.2540949e-09
2.6154958e-10
1.255263e-09
-2.7670099e-12
1.2542447e-09
-1.8065663e-13
1.2535429e-09
1.1644443e-11
1.2546232e-09
-1.1632036e-11
1.2536228e-09
1.1277058e-11
1.2547091e-09
-1.1123035e-11
1.253685e-09
1.0524017e-11
1.2546518e-09
-9.9072535e-12
1.2537348e-09
9.3616304e-12
1.2545947e-09
-8.7951976e-12
1.2537832e-09
8.2899557e-12
1.2545464e-09
-7.8008892e-12
1.2538273e-09
7.3477934e-12
1.2545047e-09
-6.921179e-12
1.2538667e-09
6.5200962e-12
1.2544683e-09
-6.145806e-12
1.2539014e-09
5.7925644e-12
1.2544362e-09
-5.4637703e-12
1.2539319e-09
5.153462e-12
1.2544081e-09
-4.8648477e-12
1.2539587e-09
4.5928162e-12
1.2543835e-09
-4.3399176e-12
1.253982e-09
4.1019953e-12
1.2543619e-09
-3.8809603e-12
1.2540024e-09
3.6734863e-12
1.2543431e-09
-3.480966e-12
1.2540201e-09
3.3007488e-12
1.2543269e-09
-3.1338309e-12
1.2540354e-09
2.9781007e-12
1.2543128e-09
-2.8342603e-12
1.2540486e-09
2.700625e-12
1.2543008e-09
-2.577684e-12
1.2540597e-09
2.4640899e-12
1.2542906e-09
-2.3601824e-12
1.2540691e-09
2.2648802e-12
1.2542822e-09
-2.1784224e-12
1.2540768e-09
2.0999354e-12
1.2542753e-09
-2.0296006e-12
1.254083e-09
1.9666811e-12
1.2542699e-09
-1.9113619e-12
1.2540878e-09
1.8631157e-12
1.2542656e-09
-1.821018e-12
1.2540908e-09
1.7886984e-12
1.2542619e-09
-1.7588644e-12
1.2540972e-09
1.7069885e-12
1.2543006e-09
-1.9239736e-12
1.6144582e-12
1.3601891e-09
1.5327105e-08
1.4452332e-09
-4.3970842e-10
1.4011413e-09
3.0564145e-10
1.4021069e-09
-3.7326118e-12
1.4011801e-09
7.4615431e-13
1.4008462e-09
1.1978396e-11
1.4018138e-09
-1.2599706e-11
1.4009604e-09
1.2130468e-11
1.4019354e-09
-1.2098033e-11
1.4010195e-09
1.1439941e-11
1.4018854e-09
-1.0773153e-11
1.4010632e-09
1.0183844e-11
1.4018336e-09
-9.5656093e-12
1.4011061e-09
9.0174353e-12
1.4017902e-09
-8.4849404e-12
1.4011457e-09
7.9923176e-12
1.4017528e-09
-7.5283569e-12
1.401181e-09
7.0919795e-12
1.4017202e-09
-6.685057e-12
1.4012121e-09
6.3006545e-12
1.4016916e-09
-5.9432094e-12
1.4012395e-09
5.6055154e-12
1.4016664e-09
-5.2917388e-12
1.4012635e-09
4.9957036e-12
1.4016443e-09
-4.7207409e-12
1.4012845e-09
4.4618318e-12
1.401625e-09
-4.2214993e-12
1.4013028e-09
3.995731e-12
1.4016082e-09
-3.7863925e-12
1.4013187e-09
3.5902896e-12
1.4015936e-09
-3.4087821e-12
1.4013324e-09
3.2393282e-12
1.401581e-09
-3.0829089e-12
1.4013442e-09
2.9374986e-12
1.4015703e-09
-2.8038006e-12
1.4013542e-09
2.6801967e-12
1.4015612e-09
-2.5671919e-12
1.4013626e-09
2.4634883e-12
1.4015536e-09
-2.3694533e-12
1.4013695e-09
2.2840395e-12
1.4015474e-09
-2.2075292e-12
1.4013751e-09
2.1390384e-12
1.4015426e-09
-2.0788442e-12
1.4013794e-09
2.026293e-12
1.4015387e-09
-1.9803511e-12
1.401382e-09
1.945412e-12
1.4015351e-09
-1.9119607e-12
1.4013879e-09
1.8541878e-12
1.4015737e-09
-2.1097812e-12
1.7459973e-12
1.4813514e-09
1.6303503e-08
1.5839541e-09
-5.4231116e-10
1.5436057e-09
3.459898e-10
1.5442065e-09
-4.3333259e-12
1.5434762e-09
1.4764617e-12
1.5435415e-09
1.1913061e-11
1.5444025e-09
-1.3460747e-11
1.5436953e-09
1.2837723e-11
1.5445595e-09
-1.2962244e-11
1.5437514e-09
1.224807e-11
1.5445166e-09
-1.1538353e-11
1.5437889e-09
1.0911484e-11
1.5444701e-09
-1.0246782e-11
1.5438265e-09
9.6610347e-12
1.5444315e-09
-9.0899536e-12
1.5438614e-09
8.5624429e-12
1.5443985e-09
-8.0654509e-12
1.5438926e-09
7.5978338e-12
1.5443697e-09
-7.1620886e-12
1.5439202e-09
6.7500838e-12
1.5443444e-09
-6.3673386e-12
1.5439445e-09
6.0053833e-12
1.5443221e-09
-5.6693854e-12
1.5439658e-09
5.3520867e-12
1.5443026e-09
-5.0576359e-12
1.5439843e-09
4.780138e-12
1.5442856e-09
-4.5227588e-12
1.5440005e-09
4.2807887e-12
1.5442707e-09
-4.0565917e-12
1.5440146e-09
3.846422e-12
1.5442579e-09
-3.6520237e-12
1.5440268e-09
3.4704187e-12
1.5442467e-09
-3.3028843e-12
1.5440372e-09
3.1470492e-12
1.5442372e-09
-3.0038454e-12
1.544046e-09
2.87138e-12
1.5442292e-09
-2.7503351e-12
1.5440535e-09
2.6391939e-12
1.5442225e-09
-2.5384613e-12
1.5440596e-09
2.4469141e-12
1.544217e-09
-2.3649432e-12
1.5440646e-09
2.2915158e-12
1.5442127e-09
-2.2270077e-12
1.5440684e-09
2.1706327e-12
1.5442093e-09
-2.121262e-12
1.5440706e-09
2.0840617e-12
1.5442058e-09
-2.0471269e-12
1.544076e-09
1.9840296e-12
1.5442436e-09
-2.2773884e-12
1.8590299e-12
1.6207625e-09
1.7140491e-08
1.7176191e-09
-6.3916777e-10
1.6812609e-09
3.8234801e-10
1.6817386e-09
-4.8110028e-12
1.6812059e-09
2.0091145e-12
1.6816406e-09
1.1478363e-11
1.682393e-09
-1.4213105e-11
1.6818279e-09
1.3402816e-11
1.6825817e-09
-1.3716089e-11
1.6818804e-09
1.2949453e-11
1.6825455e-09
-1.2203513e-11
1.6819118e-09
1.1545175e-11
1.6825043e-09
-1.0839296e-11
1.6819441e-09
1.0221289e-11
1.6824706e-09
-9.6164308e-12
1.6819744e-09
9.0586436e-12
1.6824418e-09
-8.5329e-12
1.6820016e-09
8.0380782e-12
1.6824168e-09
-7.5772876e-12
1.6820256e-09
7.1412228e-12
1.6823948e-09
-6.7365006e-12
1.6820468e-09
6.3533941e-12
1.6823755e-09
-5.9980926e-12
1.6820653e-09
5.6622577e-12
1.6823585e-09
-5.3508749e-12
1.6820815e-09
5.0571749e-12
1.6823437e-09
-4.7849827e-12
1.6820956e-09
4.5288933e-12
1.6823308e-09
-4.2917831e-12
1.6821079e-09
4.0693564e-12
1.6823196e-09
-3.8637539e-12
1.6821185e-09
3.6715627e-12
1.68231e-09
-3.4943665e-12
1.6821276e-09
3.3294502e-12
1.6823017e-09
-3.1779828e-12
1.6821353e-09
3.0377988e-12
1.6822947e-09
-2.9097638e-12
1.6821418e-09
2.7921441e-12
1.6822889e-09
-2.6855878e-12
1.6821471e-09
2.5886972e-12
1.6822841e-09
-2.5019763e-12
1.6821514e-09
2.4242447e-12
1.6822804e-09
-2.3559815e-12
1.6821547e-09
2.2962632e-12
1.6822774e-09
-2.2438824e-12
1.6821567e-09
2.2047699e-12
1.682274e-09
-2.1645197e-12
1.6821614e-09
2.0967094e-12
1.6823103e-09
-2.4263292e-12
1.9539867e-12
1.7369611e-09
1.786128e-08
1.8444168e-09
-7.4662345e-10
1.814192e-09
4.125728e-10
1.8147067e-09
-5.3257232e-12
1.814399e-09
2.316819e-12
1.8151453e-09
1.0732023e-11
1.8157857e-09
-1.4853456e-11
1.8153582e-09
1.3830351e-11
1.8160024e-09
-1.4360329e-11
1.8154063e-09
1.3545582e-11
1.8159725e-09
-1.2769691e-11
1.8154317e-09
1.208593e-11
1.8159365e-09
-1.1344097e-11
1.8154587e-09
1.0699081e-11
1.8159075e-09
-1.0065201e-11
1.8154844e-09
9.4817016e-12
1.815883e-09
-8.9314337e-12
1.8155076e-09
8.413405e-12
1.8158616e-09
-7.9312992e-12
1.8155282e-09
7.4746853e-12
1.8158429e-09
-7.0512679e-12
1.8155462e-09
6.6500931e-12
1.8158265e-09
-6.2783696e-12
1.8155621e-09
5.9267017e-12
1.8158121e-09
-5.6009125e-12
1.8155759e-09
5.2933757e-12
1.8157995e-09
-5.0085776e-12
1.815588e-09
4.7404325e-12
1.8157885e-09
-4.4923317e-12
1.8155984e-09
4.2594413e-12
1.815779e-09
-4.0443015e-12
1.8156075e-09
3.8430744e-12
1.8157708e-09
-3.6576533e-12
1.8156152e-09
3.4849867e-12
1.8157637e-09
-3.3264841e-12
1.8156218e-09
3.1797132e-12
1.8157578e-09
-3.0457268e-12
1.8156273e-09
2.9225786e-12
1.8157528e-09
-2.811063e-12
1.8156319e-09
2.7096118e-12
1.8157488e-09
-2.6188443e-12
1.8156356e-09
2.5374359e-12
1.8157456e-09
-2.4659708e-12
1.8156384e-09
2.403387e-12
1.815743e-09
-2.3484156e-12
1.81564e-09
2.3077292e-12
1.8157399e-09
-2.2643661e-12
1.8156441e-09
2.1924763e-12
1.8157741e-09
-2.5562913e-12
2.0314129e-12
1.867511e-09
1.8451519e-08
1.9671225e-09
-8.46235e-10
1.9424005e-09
4.372948e-10
1.9430706e-09
-5.9958316e-12
1.9430402e-09
2.3472434e-12
1.9440559e-09
9.7162816e-12
1.9445815e-09
-1.5378969e-11
1.9442867e-09
1.4125134e-11
1.944822e-09
-1.4895698e-11
1.9443291e-09
1.4038508e-11
1.9447976e-09
-1.3238213e-11
1.9443484e-09
1.2535158e-11
1.9447668e-09
-1.1762439e-11
1.9443702e-09
1.1095615e-11
1.9447424e-09
-1.0437384e-11
1.9443914e-09
9.8326776e-12
1.944722e-09
-9.2620422e-12
1.9444107e-09
8.7247532e-12
1.9447044e-09
-8.2250009e-12
1.9444278e-09
7.7513039e-12
1.9446889e-09
-7.3124199e-12
1.9444428e-09
6.89622e-12
1.9446753e-09
-6.5109103e-12
1.944456e-09
6.1460777e-12
1.9446634e-09
-5.8083674e-12
1.9444675e-09
5.4893281e-12
1.944653e-09
-5.194097e-12
1.9444775e-09
4.9159323e-12
1.9446439e-09
-4.6587336e-12
1.9444862e-09
4.4171489e-12
1.944636e-09
-4.1941132e-12
1.9444937e-09
3.9853796e-12
1.9446292e-09
-3.7931483e-12
1.9445001e-09
3.6140446e-12
1.9446234e-09
-3.4497162e-12
1.9445056e-09
3.2974753e-12
1.9446184e-09
-3.15856e-12
1.9445102e-09
3.0308209e-12
1.9446143e-09
-2.9151974e-12
1.944514e-09
2.8099581e-12
1.944611e-09
-2.7158369e-12
1.944517e-09
2.6313713e-12
1.9446083e-09
-2.5572501e-12
1.9445194e-09
2.4922736e-12
1.9446061e-09
-2.4351296e-12
1.9445207e-09
2.3931957e-12
1.9446033e-09
-2.3469553e-12
1.9445241e-09
2.271629e-12
1.9446349e-09
-2.6671019e-12
2.0919426e-12
1.9787777e-09
1.8930491e-08
2.0832139e-09
-9.5067119e-10
2.0659806e-09
4.545281e-10
2.0668727e-09
-6.8879451e-12
2.0671399e-09
2.0801049e-12
2.0683776e-09
8.4785836e-12
2.0687809e-09
-1.5782333e-11
2.0686134e-09
1.4292656e-11
2.0690408e-09
-1.5323103e-11
2.0686487e-09
1.4430613e-11
2.0690212e-09
-1.3610744e-11
2.0686618e-09
1.289457e-11
2.0689953e-09
-1.2095877e-11
2.0686785e-09
1.1412369e-11
2.0689755e-09
-1.0734361e-11
2.0686953e-09
1.011288e-11
2.0689592e-09
-9.52595e-12
2.0687107e-09
8.9732821e-12
2.0689451e-09
-8.4594787e-12
2.0687243e-09
7.9721075e-12
2.0689328e-09
-7.5209215e-12
2.0687364e-09
7.0926894e-12
2.068922e-09
-6.6965736e-12
2.0687469e-09
6.3212e-12
2.0689125e-09
-5.9740057e-12
2.0687561e-09
5.6457591e-12
2.0689042e-09
-5.3422255e-12
2.0687641e-09
5.0560431e-12
2.068897e-09
-4.7916029e-12
2.0687711e-09
4.5430629e-12
2.0688907e-09
-4.3137412e-12
2.0687771e-09
4.0990045e-12
2.0688853e-09
-3.9013506e-12
2.0687822e-09
3.7171002e-12
2.0688807e-09
-3.5481327e-12
2.0687866e-09
3.3915189e-12
2.0688767e-09
-3.2486783e-12
2.0687903e-09
3.1172693e-12
2.0688735e-09
-2.9983734e-12
2.0687933e-09
2.8901053e-12
2.0688708e-09
-2.7933108e-12
2.0687958e-09
2.7063973e-12
2.0688687e-09
-2.6301562e-12
2.0687977e-09
2.5632533e-12
2.0688669e-09
-2.5043506e-12
2.0687986e-09
2.4614832e-12
2.0688643e-09
-2.4126321e-12
2.0688014e-09
2.3345114e-12
2.068893e-09
-2.7587149e-12
2.1362772e-12
2.1006981e-09
1.9287543e-08
2.1959108e-09
-1.0458839e-09
2.1849385e-09
4.6550043e-10
2.1861243e-09
-8.0737966e-12
2.1866796e-09
1.5248554e-12
2.1881085e-09
7.049681e-12
2.188383e-09
-1.6056854e-11
2.1883377e-09
1.4337953e-11
2.1886586e-09
-1.5644009e-11
2.1883648e-09
1.4724454e-11
2.1886433e-09
-1.3889293e-11
2.1883718e-09
1.3166142e-11
2.1886221e-09
-1.2346233e-11
2.1883834e-09
1.1651075e-11
2.1886068e-09
-1.0957751e-11
2.1883958e-09
1.0323839e-11
2.1885945e-09
-9.7245913e-12
2.1884074e-09
9.1603486e-12
2.1885839e-09
-8.6360052e-12
2.1884178e-09
8.1383006e-12
2.1885747e-09
-7.6779037e-12
2.1884269e-09
7.2405721e-12
2.1885666e-09
-6.8363662e-12
2.1884348e-09
6.4530223e-12
2.1885595e-09
-6.0987252e-12
2.1884418e-09
5.7635197e-12
2.1885533e-09
-5.4537658e-12
2.1884478e-09
5.1615264e-12
2.1885479e-09
-4.8916587e-12
2.1884531e-09
4.6378669e-12
2.1885432e-09
-4.4038326e-12
2.1884576e-09
4.1845647e-12
2.1885391e-09
-3.9828449e-12
2.1884615e-09
3.794711e-12
2.1885356e-09
-3.6222644e-12
2.1884648e-09
3.4623521e-12
2.1885327e-09
-3.316567e-12
2.1884676e-09
3.1823901e-12
2.1885302e-09
-3.0610385e-12
2.1884699e-09
2.950485e-12
2.1885282e-09
-2.8516825e-12
2.1884717e-09
2.7629184e-12
2.1885266e-09
-2.685082e-12
2.1884732e-09
2.6167104e-12
2.1885253e-09
-2.5564574e-12
2.1884738e-09
2.5129573e-12
2.188523e-09
-2.4617901e-12
2.188476e-09
2.3815087e-12
2.1885485e-09
-2.8311991e-12
2.165167e-12
2.2078883e-09
1.9537405e-08
2.302513e-09
-1.1405087e-09
2.299389e-09
4.6862448e-10
2.3008653e-09
-9.5500827e-12
2.3016557e-09
7.3443092e-13
2.3032517e-09
5.4536645e-12
2.3033886e-09
-1.6193697e-11
2.3034599e-09
1.4266642e-11
2.3036758e-09
-1.5859938e-11
2.3034773e-09
1.4922943e-11
2.3036641e-09
-1.407609e-11
2.3034781e-09
1.3352114e-11
2.3036475e-09
-1.2515558e-11
2.3034849e-09
1.1813687e-11
2.3036365e-09
-1.1109381e-11
2.303493e-09
1.0467284e-11
2.303628e-09
-9.8595864e-12
2.3035009e-09
9.2874852e-12
2.3036209e-09
-8.7560189e-12
2.303508e-09
8.2512439e-12
2.3036147e-09
-7.7846452e-12
2.3035142e-09
7.3410781e-12
2.3036093e-09
-6.9314265e-12
2.3035197e-09
6.5426222e-12
2.3036045e-09
-6.1835411e-12
2.3035244e-09
5.8435716e-12
2.3036003e-09
-5.5296251e-12
2.3035286e-09
5.2332425e-12
2.3035966e-09
-4.9597144e-12
2.3035322e-09
4.7023329e-12
2.3035934e-09
-4.4651188e-12
2.3035353e-09
4.2427561e-12
2.3035907e-09
-4.0382916e-12
2.3035379e-09
3.8475071e-12
2.3035883e-09
-3.6727112e-12
2.3035402e-09
3.5105486e-12
2.3035864e-09
-3.3627747e-12
2.303542e-09
3.2267095e-12
2.3035847e-09
-3.1036982e-12
2.3035436e-09
2.9915847e-12
2.3035833e-09
-2.8914225e-12
2.3035449e-09
2.8013906e-12
2.3035823e-09
-2.7224705e-12
2.3035459e-09
2.6530783e-12
2.3035813e-09
-2.5918756e-12
2.3035462e-09
2.5480299e-12
2.3035793e-09
-2.4948668e-12
2.3035478e-09
2.4130434e-12
2.3036013e-09
-2.8847267e-12
2.1793951e-12
2.3225037e-09
1.9672651e-08
2.4063469e-09
-1.2243518e-09
2.4094055e-09
4.6556593e-10
2.4111478e-09
-1.1292388e-11
2.4120528e-09
-1.7056833e-13
2.413807e-09
3.6994464e-12
2.4137972e-09
-1.6183949e-11
2.4139795e-09
1.4084416e-11
2.4140923e-09
-1.5972746e-11
2.4139861e-09
1.5029147e-11
2.4140836e-09
-1.4173642e-11
2.4139808e-09
1.3454922e-11
2.4140714e-09
-1.2606122e-11
2.4139827e-09
1.1902352e-11
2.4140646e-09
-1.1191266e-11
2.4139868e-09
1.0545117e-11
2.4140599e-09
-9.9327225e-12
2.413991e-09
9.3563804e-12
2.4140561e-09
-8.8211063e-12
2.4139949e-09
8.312437e-12
2.4140528e-09
-7.8425562e-12
2.4139983e-09
7.3955408e-12
2.4140499e-09
-6.9830097e-12
2.4140014e-09
6.5911873e-12
2.4140474e-09
-6.2295729e-12
2.414004e-09
5.8869747e-12
2.4140452e-09
-5.570804e-12
2.4140063e-09
5.2721398e-12
2.4140432e-09
-4.9966667e-12
2.4140082e-09
4.7373122e-12
2.4140415e-09
-4.4984061e-12
2.4140099e-09
4.2743456e-12
2.4140401e-09
-4.0684192e-12
2.4140114e-09
3.8761829e-12
2.4140388e-09
-3.7001347e-12
2.4140126e-09
3.5367409e-12
2.4140378e-09
-3.3879058e-12
2.4140137e-09
3.250808e-12
2.4140369e-09
-3.1269096e-12
2.4140145e-09
3.0139414e-12
2.4140361e-09
-2.9130492e-12
2.4140152e-09
2.8223166e-12
2.4140356e-09
-2.7428097e-12
2.4140158e-09
2.6728337e-12
2.414035e-09
-2.6110731e-12
2.4140159e-09
2.5671549e-12
2.4140333e-09
-2.5123375e-12
2.4140168e-09
2.4295716e-12
2.4140516e-09
-2.919564e-12
2.1797643e-12
2.4262419e-09
1.9704159e-08
2.5044647e-09
-1.3025747e-09
2.5149575e-09
4.5507314e-10
2.5170236e-09
-1.3358434e-11
2.5178774e-09
-1.0244129e-12
2.5197779e-09
1.798948e-12
2.5196099e-09
-1.6015912e-11
2.5198966e-09
1.3797733e-11
2.5199082e-09
-1.5984343e-11
2.5198909e-09
1.5046362e-11
2.519902e-09
-1.4184661e-11
2.5198797e-09
1.34772e-11
2.5198939e-09
-1.2620377e-11
2.5198769e-09
1.1919395e-11
2.5198912e-09
-1.1205585e-11
2.5198769e-09
1.0559399e-11
2.5198901e-09
-9.9459329e-12
2.5198777e-09
9.3688608e-12
2.5198895e-09
-8.8329842e-12
2.5198785e-09
8.323502e-12
2.5198891e-09
-7.8531629e-12
2.5198792e-09
7.4054028e-12
2.5198887e-09
-6.9924745e-12
2.5198799e-09
6.6000026e-12
2.5198883e-09
-6.2380322e-12
2.5198804e-09
5.8948758e-12
2.519888e-09
-5.5783853e-12
2.5198809e-09
5.2792443e-12
2.5198877e-09
-5.0034859e-12
2.5198813e-09
4.7437257e-12
2.5198875e-09
-4.5045675e-12
2.5198817e-09
4.2801631e-12
2.5198873e-09
-4.0740162e-12
2.5198819e-09
3.8814897e-12
2.5198871e-09
-3.7052508e-12
2.5198822e-09
3.5416134e-12
2.5198869e-09
-3.392615e-12
2.5198824e-09
3.2553133e-12
2.5198868e-09
-3.1312757e-12
2.5198826e-09
3.0181363e-12
2.5198866e-09
-2.9171236e-12
2.5198827e-09
2.8262401e-12
2.5198865e-09
-2.7466277e-12
2.5198829e-09
2.6764922e-12
2.5198864e-09
-2.6145547e-12
2.5198827e-09
2.5708233e-12
2.5198851e-09
-2.5147113e-12
2.5198831e-09
2.4315796e-12
2.5198996e-09
-2.9360612e-12
2.1670856e-12
2.534013e-09
1.9627896e-08
2.6002186e-09
-1.3687804e-09
2.6161101e-09
4.3918164e-10
2.6184337e-09
-1.5681947e-11
2.6191289e-09
-1.7197032e-12
2.6211615e-09
-2.3355858e-13
2.620826e-09
-1.5680438e-11
2.6212103e-09
1.3413461e-11
2.621123e-09
-1.5897105e-11
2.6211915e-09
1.4977844e-11
2.6211191e-09
-1.4112184e-11
2.6211746e-09
1.3421671e-11
2.6211152e-09
-1.2560986e-11
2.6211673e-09
1.186727e-11
2.6211164e-09
-1.1154674e-11
2.6211635e-09
1.0512318e-11
2.6211188e-09
-9.9012827e-12
2.6211608e-09
9.3268728e-12
2.6211213e-09
-8.7934848e-12
2.6211587e-09
8.2861685e-12
2.6211236e-09
-7.8180937e-12
2.6211568e-09
7.3722023e-12
2.6211256e-09
-6.9612706e-12
2.6211552e-09
6.5704383e-12
2.6211273e-09
-6.2102116e-12
2.6211537e-09
5.8684981e-12
2.6211289e-09
-5.5535244e-12
2.6211524e-09
5.2556506e-12
2.6211302e-09
-4.9812076e-12
2.6211513e-09
4.7225559e-12
2.6211313e-09
-4.4845343e-12
2.6211504e-09
4.2610939e-12
2.6211323e-09
-4.0559239e-12
2.6211495e-09
3.8642292e-12
2.6211331e-09
-3.6888236e-12
2.6211488e-09
3.5258964e-12
2.6211338e-09
-3.3776007e-12
2.6211482e-09
3.2408958e-12
2.6211344e-09
-3.1174402e-12
2.6211477e-09
3.0047896e-12
2.6211349e-09
-2.9042443e-12
2.6211474e-09
2.8137411e-12
2.6211352e-09
-2.7344876e-12
2.6211471e-09
2.6646037e-12
2.6211354e-09
-2.6028586e-12
2.6211467e-09
2.559559e-12
2.6211345e-09
-2.5025265e-12
2.6211465e-09
2.4195806e-12
2.6211451e-09
-2.9346444e-12
2.1421694e-12
2.6341704e-09
1.9451476e-08
2.6908043e-09
-1.4254143e-09
2.7127902e-09
4.1719574e-10
2.7152549e-09
-1.8146679e-11
2.7158141e-09
-2.278841e-12
2.7179513e-09
-2.3707971e-12
2.7174445e-09
-1.5173655e-11
2.7179197e-09
1.2938338e-11
2.7177365e-09
-1.57139e-11
2.7178875e-09
1.482681e-11
2.7177348e-09
-1.3959536e-11
2.7178654e-09
1.3291142e-11
2.7177352e-09
-1.2430787e-11
2.7178539e-09
1.1748545e-11
2.7177402e-09
-1.1041006e-11
2.7178464e-09
1.0406179e-11
2.717746e-09
-9.8009532e-12
2.7178404e-09
9.2324676e-12
2.7177515e-09
-8.7045415e-12
2.7178354e-09
8.2022601e-12
2.7177564e-09
-7.7390667e-12
2.717831e-09
7.2975616e-12
2.7177607e-09
-6.8909271e-12
2.7178272e-09
6.5039397e-12
2.7177644e-09
-6.1474748e-12
2.7178238e-09
5.8091315e-12
2.7177677e-09
-5.49744e-12
2.7178209e-09
5.202513e-12
2.7177706e-09
-4.9309243e-12
2.7178183e-09
4.674839e-12
2.717773e-09
-4.439289e-12
2.7178161e-09
4.2180719e-12
2.7177752e-09
-4.0150299e-12
2.7178142e-09
3.8252475e-12
2.717777e-09
-3.6516595e-12
2.7178125e-09
3.4903606e-12
2.7177785e-09
-3.3436002e-12
2.7178112e-09
3.2082624e-12
2.7177798e-09
-3.0860824e-12
2.71781e-09
2.9745559e-12
2.7177808e-09
-2.8750435e-12
2.7178091e-09
2.785432e-12
2.7177816e-09
-2.7069839e-12
2.7178085e-09
2.6377482e-12
2.7177822e-09
-2.576552e-12
2.7178078e-09
2.5339155e-12
2.7177817e-09
-2.4763467e-12
2.7178071e-09
2.3941117e-12
2.7177883e-09
-2.9158072e-12
2.1058173e-12
2.7348806e-09
1.9174345e-08
2.7792942e-09
-1.4698279e-09
2.8050803e-09
3.9140957e-10
2.8074621e-09
-2.0528467e-11
2.8079457e-09
-2.7623877e-12
2.8101423e-09
-4.5673807e-12
2.8094661e-09
-1.449754e-11
2.8100251e-09
1.2379349e-11
2.8097487e-09
-1.5437458e-11
2.8099788e-09
1.4596708e-11
2.8097494e-09
-1.3730132e-11
2.809952e-09
1.3088574e-11
2.8097539e-09
-1.2232736e-11
2.8099365e-09
1.1565912e-11
2.8097627e-09
-1.0867164e-11
2.8099255e-09
1.0243389e-11
2.8097718e-09
-9.6472242e-12
2.8099164e-09
9.0877885e-12
2.8097801e-09
-8.5681757e-12
2.8099087e-09
8.0736822e-12
2.8097875e-09
-7.6178777e-12
2.8099019e-09
7.1831759e-12
2.809794e-09
-6.7830424e-12
2.8098959e-09
6.402017e-12
2.8097997e-09
-6.0512473e-12
2.8098907e-09
5.7181241e-12
2.8098046e-09
-5.4114064e-12
2.8098861e-09
5.121038e-12
2.809809e-09
-4.8537781e-12
2.8098821e-09
4.6016584e-12
2.8098127e-09
-4.3698592e-12
2.8098787e-09
4.1520737e-12
2.8098159e-09
-3.9522626e-12
2.8098758e-09
3.7654287e-12
2.8098187e-09
-3.5946016e-12
2.8098733e-09
3.4358118e-12
2.809821e-09
-3.2913843e-12
2.8098712e-09
3.158153e-12