/*--------------------------------*- C++ -*----------------------------------*\
| =========                 |                                                 |
| \\      /  F ield         | OpenFOAM: The Open Source CFD Toolbox           |
|  \\    /   O peration     | Version:  2312                                  |
|   \\  /    A nd           | Website:  www.openfoam.com                      |
|    \\/     M anipulation  |                                                 |
\*---------------------------------------------------------------------------*/
FoamFile
{
    version     2.0;
    format      ascii;
    arch        "LSB;label=32;scalar=64";
    class       volSymmTensorField;
    location    "8";
    object      sigma;
}
// * * * * * * * * * * * * * * * * * * * * * * * * * * * * * * * * * * * * * //

dimensions      [0 2 -2 0 0 0 0];

internalField   nonuniform List<symmTensor> 
4000
(
(-1.4159161 -0.61894393 0 -0.23025022 0 0)
(-2.8600416 -0.30957148 0 -0.00083217394 0 0)
(-1.9744203 -0.25693847 0 -0.00027421772 0 0)
(-2.1391627 -0.2671564 0 -3.2895027e-05 0 0)
(-2.0106156 -0.25868229 0 4.4651459e-05 0 0)
(-2.1016602 -0.26489895 0 -5.40506e-05 0 0)
(-2.0163013 -0.25904428 0 4.9719922e-05 0 0)
(-2.093876 -0.26438507 0 -4.7666254e-05 0 0)
(-2.0215031 -0.25940053 0 4.4889125e-05 0 0)
(-2.089172 -0.26406619 0 -4.2375982e-05 0 0)
(-2.0256059 -0.25968458 0 3.9829986e-05 0 0)
(-2.085222 -0.26379652 0 -3.7541282e-05 0 0)
(-2.0291872 -0.25993278 0 3.529883e-05 0 0)
(-2.0817726 -0.26356056 0 -3.3257938e-05 0 0)
(-2.0323685 -0.26015305 0 3.1291663e-05 0 0)
(-2.078731 -0.26335234 0 -2.9485941e-05 0 0)
(-2.0351939 -0.26034846 0 2.7759087e-05 0 0)
(-2.0760401 -0.26316806 0 -2.6166565e-05 0 0)
(-2.0377023 -0.26052176 0 2.4649269e-05 0 0)
(-2.0736552 -0.26300471 0 -2.3247337e-05 0 0)
(-2.0399305 -0.26067554 0 2.1914909e-05 0 0)
(-2.0715383 -0.26285975 0 -2.0682742e-05 0 0)
(-2.0419122 -0.26081214 0 1.9514099e-05 0 0)
(-2.0696564 -0.26273091 0 -1.8433149e-05 0 0)
(-2.0436771 -0.26093364 0 1.7410037e-05 0 0)
(-2.0679802 -0.26261621 0 -1.6463988e-05 0 0)
(-2.045252 -0.26104191 0 1.5570542e-05 0 0)
(-2.0664839 -0.26251391 0 -1.474511e-05 0 0)
(-2.0466607 -0.2611386 0 1.3967538e-05 0 0)
(-2.0651446 -0.26242243 0 -1.3250269e-05 0 0)
(-2.0479245 -0.26122518 0 1.257661e-05 0 0)
(-2.0639416 -0.26234039 0 -1.1956685e-05 0 0)
(-2.0490625 -0.26130297 0 1.1376603e-05 0 0)
(-2.0628567 -0.26226654 0 -1.0844676e-05 0 0)
(-2.0500918 -0.26137314 0 1.0349293e-05 0 0)
(-2.0618732 -0.26219976 0 -9.8973571e-06 0 0)
(-2.0510281 -0.26143678 0 9.47912e-06 0 0)
(-2.0609762 -0.26213902 0 -9.1003927e-06 0 0)
(-2.0518854 -0.26149483 0 8.7529664e-06 0 0)
(-2.060152 -0.26208342 0 -8.4418168e-06 0 0)
(-2.0526766 -0.26154818 0 8.160027e-06 0 0)
(-2.0593882 -0.26203212 0 -7.9119478e-06 0 0)
(-2.0534139 -0.26159763 0 7.6917604e-06 0 0)
(-2.0586729 -0.26198432 0 -7.5036549e-06 0 0)
(-2.0541078 -0.26164392 0 7.3418848e-06 0 0)
(-2.0579943 -0.26193925 0 -7.2124731e-06 0 0)
(-2.0547683 -0.26168764 0 7.1161964e-06 0 0)
(-2.0573559 -0.26189695 0 -7.0001002e-06 0 0)
(-2.0555012 -0.26173494 0 7.169787e-06 0 0)
(-2.0571567 -0.26188363 0 -6.9770433e-06 0 0)
(-1.2615157 -0.57101028 0 -0.21694904 0 0)
(-2.5226635 -0.29420105 0 -0.0029345592 0 0)
(-1.8938042 -0.25289746 0 -0.00084584959 0 0)
(-1.9753276 -0.25674223 0 -3.4508167e-05 0 0)
(-1.8685147 -0.24927437 0 3.0296277e-05 0 0)
(-1.9443872 -0.25489136 0 -6.0073222e-05 0 0)
(-1.8712311 -0.24945047 0 5.2961941e-05 0 0)
(-1.937692 -0.25442273 0 -5.1982491e-05 0 0)
(-1.8755933 -0.24977381 0 4.9191291e-05 0 0)
(-1.9337026 -0.25413112 0 -4.6558867e-05 0 0)
(-1.8791095 -0.25003858 0 4.3738481e-05 0 0)
(-1.9303126 -0.25387992 0 -4.1280824e-05 0 0)
(-1.8821791 -0.25027017 0 3.8789088e-05 0 0)
(-1.9273443 -0.25365937 0 -3.6564159e-05 0 0)
(-1.884907 -0.2504758 0 3.4394579e-05 0 0)
(-1.9247265 -0.25346471 0 -3.2414418e-05 0 0)
(-1.8873306 -0.25065828 0 3.0515123e-05 0 0)
(-1.9224107 -0.25329244 0 -2.8765268e-05 0 0)
(-1.8894829 -0.25082013 0 2.7098267e-05 0 0)
(-1.9203582 -0.25313974 0 -2.5556865e-05 0 0)
(-1.8913954 -0.25096377 0 2.4093442e-05 0 0)
(-1.9185363 -0.25300419 0 -2.2738473e-05 0 0)
(-1.8930966 -0.25109138 0 2.1455047e-05 0 0)
(-1.9169163 -0.25288372 0 -2.0266368e-05 0 0)
(-1.8946121 -0.25120491 0 1.9142806e-05 0 0)
(-1.9154733 -0.25277645 0 -1.8102547e-05 0 0)
(-1.8959649 -0.25130609 0 1.7121429e-05 0 0)
(-1.9141849 -0.25268076 0 -1.6213909e-05 0 0)
(-1.8971753 -0.25139646 0 1.5360115e-05 0 0)
(-1.9130314 -0.25259519 0 -1.4571653e-05 0 0)
(-1.8982616 -0.2514774 0 1.3832077e-05 0 0)
(-1.911995 -0.25251843 0 -1.3150794e-05 0 0)
(-1.8992402 -0.25155014 0 1.2514122e-05 0 0)
(-1.9110601 -0.25244932 0 -1.192977e-05 0 0)
(-1.9001258 -0.25161577 0 1.1386303e-05 0 0)
(-1.9102121 -0.2523868 0 -1.0890124e-05 0 0)
(-1.9009319 -0.25167531 0 1.0431638e-05 0 0)
(-1.9094384 -0.25232994 0 -1.001626e-05 0 0)
(-1.9016705 -0.25172964 0 9.6359176e-06 0 0)
(-1.9087269 -0.25227786 0 -9.2953001e-06 0 0)
(-1.9023529 -0.2517796 0 8.987643e-06 0 0)
(-1.908067 -0.25222978 0 -8.7171143e-06 0 0)
(-1.9029894 -0.25182593 0 8.4781373e-06 0 0)
(-1.9074485 -0.25218497 0 -8.275202e-06 0 0)
(-1.9035895 -0.25186933 0 8.1013431e-06 0 0)
(-1.9068608 -0.2521427 0 -7.9685051e-06 0 0)
(-1.9041603 -0.25191024 0 7.8751613e-06 0 0)
(-1.9062984 -0.25210222 0 -7.710974e-06 0 0)
(-1.9047655 -0.25195119 0 8.2448641e-06 0 0)
(-1.9060407 -0.25208352 0 -7.5766651e-06 0 0)
(-1.1797196 -0.53888413 0 -0.20251093 0 0)
(-2.2876777 -0.27919376 0 -0.0033935999 0 0)
(-1.8117565 -0.24841227 0 -0.0012679394 0 0)
(-1.8732971 -0.2501095 0 -5.8956513e-05 0 0)
(-1.7757863 -0.24293654 0 1.4244488e-05 0 0)
(-1.8429559 -0.2482108 0 -5.9581701e-05 0 0)
(-1.7770609 -0.24302757 0 5.0261155e-05 0 0)
(-1.8366968 -0.24775939 0 -5.0151998e-05 0 0)
(-1.7809047 -0.24333176 0 4.7697494e-05 0 0)
(-1.8331202 -0.24748458 0 -4.5187495e-05 0 0)
(-1.7840662 -0.24358451 0 4.2430231e-05 0 0)
(-1.8300786 -0.24724577 0 -4.0092431e-05 0 0)
(-1.7868247 -0.24380537 0 3.7643261e-05 0 0)
(-1.8274114 -0.24703565 0 -3.5504438e-05 0 0)
(-1.7892759 -0.24400144 0 3.3385231e-05 0 0)
(-1.825059 -0.24685016 0 -3.1471541e-05 0 0)
(-1.791454 -0.24417545 0 2.9622096e-05 0 0)
(-1.8229781 -0.24668601 0 -2.7927478e-05 0 0)
(-1.7933888 -0.24432982 0 2.6306163e-05 0 0)
(-1.8211338 -0.24654048 0 -2.4812198e-05 0 0)
(-1.7951082 -0.24446684 0 2.3389549e-05 0 0)
(-1.8194967 -0.2464113 0 -2.2075791e-05 0 0)
(-1.7966379 -0.24458857 0 2.0828398e-05 0 0)
(-1.8180411 -0.24629646 0 -1.9675633e-05 0 0)
(-1.7980009 -0.24469689 0 1.8583764e-05 0 0)
(-1.8167444 -0.24619421 0 -1.75748e-05 0 0)
(-1.7992177 -0.24479345 0 1.6621459e-05 0 0)
(-1.8155866 -0.24610297 0 -1.5741166e-05 0 0)
(-1.8003066 -0.2448797 0 1.4911628e-05 0 0)
(-1.8145499 -0.24602136 0 -1.4146792e-05 0 0)
(-1.8012839 -0.24495696 0 1.3428308e-05 0 0)
(-1.8136184 -0.24594814 0 -1.2767455e-05 0 0)
(-1.8021645 -0.24502641 0 1.2149034e-05 0 0)
(-1.8127779 -0.2458822 0 -1.1582272e-05 0 0)
(-1.8029615 -0.2450891 0 1.1054509e-05 0 0)
(-1.8120155 -0.24582253 0 -1.0573407e-05 0 0)
(-1.8036871 -0.24514598 0 1.012836e-05 0 0)
(-1.8113196 -0.24576823 0 -9.7258577e-06 0 0)
(-1.8043521 -0.24519791 0 9.3569833e-06 0 0)
(-1.8106796 -0.24571848 0 -9.027378e-06 0 0)
(-1.8049667 -0.24524568 0 8.7295742e-06 0 0)
(-1.8100857 -0.24567252 0 -8.4686198e-06 0 0)
(-1.8055401 -0.24529001 0 8.2384222e-06 0 0)
(-1.8095287 -0.24562967 0 -8.0445079e-06 0 0)
(-1.8060811 -0.24533156 0 7.8786468e-06 0 0)
(-1.8089991 -0.24558922 0 -7.758239e-06 0 0)
(-1.8065959 -0.24537072 0 7.6745457e-06 0 0)
(-1.8084894 -0.24555019 0 -7.5065263e-06 0 0)
(-1.8071338 -0.24540856 0 8.2504334e-06 0 0)
(-1.8082161 -0.24553057 0 -7.7644671e-06 0 0)
(-1.1344802 -0.51406089 0 -0.18831886 0 0)
(-2.1014454 -0.26798022 0 -0.0040686763 0 0)
(-1.7275648 -0.24380194 0 -0.0017330916 0 0)
(-1.7745602 -0.24351112 0 -8.6107413e-05 0 0)
(-1.6850529 -0.2366147 0 -1.0807409e-05 0 0)
(-1.7448813 -0.24153999 0 -5.4007484e-05 0 0)
(-1.6849729 -0.23660681 0 4.271051e-05 0 0)
(-1.7388781 -0.24109987 0 -4.3674628e-05 0 0)
(-1.6883206 -0.23688987 0 4.1942078e-05 0 0)
(-1.7356241 -0.24084091 0 -3.9759691e-05 0 0)
(-1.6911768 -0.23713052 0 3.7324816e-05 0 0)
(-1.7328692 -0.24061418 0 -3.5321692e-05 0 0)
(-1.693673 -0.23734065 0 3.3131534e-05 0 0)
(-1.7304501 -0.24041421 0 -3.1271326e-05 0 0)
(-1.6958909 -0.23752718 0 2.9392682e-05 0 0)
(-1.7283162 -0.24023763 0 -2.771506e-05 0 0)
(-1.6978619 -0.23769274 0 2.6082802e-05 0 0)
(-1.7264286 -0.24008135 0 -2.459285e-05 0 0)
(-1.699613 -0.23783963 0 2.3164173e-05 0 0)
(-1.7247559 -0.2399428 0 -2.1849286e-05 0 0)
(-1.7011695 -0.23797002 0 2.0596285e-05 0 0)
(-1.7232712 -0.2398198 0 -1.9439572e-05 0 0)
(-1.7025543 -0.2380859 0 1.8341082e-05 0 0)
(-1.7219511 -0.23971043 0 -1.7325967e-05 0 0)
(-1.7037883 -0.23818901 0 1.6364469e-05 0 0)
(-1.7207753 -0.23961304 0 -1.5475927e-05 0 0)
(-1.70489 -0.23828094 0 1.4636425e-05 0 0)
(-1.7197255 -0.23952613 0 -1.3861181e-05 0 0)
(-1.705876 -0.23836308 0 1.3130709e-05 0 0)
(-1.7187856 -0.23944837 0 -1.2457151e-05 0 0)
(-1.706761 -0.23843668 0 1.1824493e-05 0 0)
(-1.7179412 -0.23937859 0 -1.1242538e-05 0 0)
(-1.7075583 -0.23850285 0 1.0698032e-05 0 0)
(-1.7171793 -0.23931573 0 -1.0198996e-05 0 0)
(-1.7082801 -0.23856261 0 9.734387e-06 0 0)
(-1.7164884 -0.23925882 0 -9.3108809e-06 0 0)
(-1.7089371 -0.23861684 0 8.9192214e-06 0 0)
(-1.7158577 -0.23920702 0 -8.5650911e-06 0 0)
(-1.7095393 -0.23866639 0 8.2406998e-06 0 0)
(-1.7152777 -0.23915952 0 -7.9510331e-06 0 0)
(-1.7100957 -0.23871199 0 7.6895765e-06 0 0)
(-1.7147396 -0.23911562 0 -7.4608354e-06 0 0)
(-1.710615 -0.23875434 0 7.2595832e-06 0 0)
(-1.714235 -0.23907466 0 -7.0910398e-06 0 0)
(-1.7111049 -0.23879407 0 6.9467429e-06 0 0)
(-1.7137553 -0.23903597 0 -6.8481987e-06 0 0)
(-1.711571 -0.23883154 0 6.7797665e-06 0 0)
(-1.7132912 -0.23899833 0 -6.6018805e-06 0 0)
(-1.7120498 -0.23886646 0 7.5676238e-06 0 0)
(-1.7130029 -0.2389775 0 -7.1581452e-06 0 0)
(-1.0848505 -0.48411643 0 -0.17096931 0 0)
(-1.9173204 -0.25630161 0 -0.0044768463 0 0)
(-1.6364845 -0.23843896 0 -0.0021177413 0 0)
(-1.6779454 -0.23692857 0 -0.00012700576 0 0)
(-1.5960188 -0.23027104 0 -3.7463382e-05 0 0)
(-1.6497945 -0.23488216 0 -4.8874613e-05 0 0)
(-1.5950749 -0.23017731 0 3.5379276e-05 0 0)
(-1.6440015 -0.23444898 0 -3.7216345e-05 0 0)
(-1.5979694 -0.23044005 0 3.6269682e-05 0 0)
(-1.641009 -0.23420394 0 -3.4342923e-05 0 0)
(-1.6005549 -0.23066944 0 3.2251884e-05 0 0)
(-1.6385014 -0.23398844 0 -3.0566774e-05 0 0)
(-1.6028242 -0.23086969 0 2.8640623e-05 0 0)
(-1.6362985 -0.23379796 0 -2.7053965e-05 0 0)
(-1.6048403 -0.2310474 0 2.5417159e-05 0 0)
(-1.6343548 -0.2336297 0 -2.3972877e-05 0 0)
(-1.6066322 -0.23120513 0 2.2558119e-05 0 0)
(-1.6326357 -0.23348077 0 -2.1270915e-05 0 0)
(-1.6082244 -0.2313451 0 2.0034852e-05 0 0)
(-1.6311124 -0.23334872 0 -1.8897573e-05 0 0)
(-1.6096398 -0.23146937 0 1.7814051e-05 0 0)
(-1.6297604 -0.23323148 0 -1.6813219e-05 0 0)
(-1.6108993 -0.23157981 0 1.5863387e-05 0 0)
(-1.6285584 -0.23312723 0 -1.4984982e-05 0 0)
(-1.6120216 -0.23167811 0 1.415357e-05 0 0)
(-1.627488 -0.23303438 0 -1.338468e-05 0 0)
(-1.6130236 -0.23176575 0 1.2658711e-05 0 0)
(-1.6265323 -0.23295152 0 -1.198787e-05 0 0)
(-1.6139203 -0.23184407 0 1.1356148e-05 0 0)
(-1.6256769 -0.23287737 0 -1.0773314e-05 0 0)
(-1.6147252 -0.23191425 0 1.0226157e-05 0 0)
(-1.6249085 -0.23281081 0 -9.722608e-06 0 0)
(-1.6154503 -0.23197737 0 9.2516817e-06 0 0)
(-1.6242153 -0.23275084 0 -8.8199102e-06 0 0)
(-1.6161066 -0.23203438 0 8.4180998e-06 0 0)
(-1.6235867 -0.23269654 0 -8.051728e-06 0 0)
(-1.6167039 -0.23208615 0 7.7130594e-06 0 0)
(-1.6230132 -0.23264709 0 -7.4067948e-06 0 0)
(-1.6172513 -0.23213345 0 7.1264082e-06 0 0)
(-1.6224859 -0.23260174 0 -6.8760624e-06 0 0)
(-1.617757 -0.232177 0 6.6503116e-06 0 0)
(-1.6219967 -0.2325598 0 -6.4529304e-06 0 0)
(-1.6182288 -0.23221747 0 6.2796534e-06 0 0)
(-1.6215383 -0.23252064 0 -6.1350702e-06 0 0)
(-1.6186738 -0.23225547 0 6.0107534e-06 0 0)
(-1.6211026 -0.23248364 0 -5.9312315e-06 0 0)
(-1.619097 -0.23229134 0 5.8729455e-06 0 0)
(-1.6206798 -0.23244741 0 -5.6867435e-06 0 0)
(-1.6195254 -0.23232381 0 6.8105965e-06 0 0)
(-1.6203855 -0.23242574 0 -6.4824228e-06 0 0)
(-1.053013 -0.46383309 0 -0.15942685 0 0)
(-1.7460478 -0.24519024 0 -0.0048410009 0 0)
(-1.543699 -0.23258225 0 -0.0024124778 0 0)
(-1.5828719 -0.23032089 0 -0.00018438371 0 0)
(-1.5087572 -0.22390882 0 -6.6118662e-05 0 0)
(-1.5574703 -0.22823145 0 -4.5594232e-05 0 0)
(-1.5074703 -0.22374246 0 2.910709e-05 0 0)
(-1.551948 -0.22780432 0 -3.1731898e-05 0 0)
(-1.5099663 -0.22398544 0 3.1548585e-05 0 0)
(-1.5491806 -0.22757179 0 -2.9765511e-05 0 0)
(-1.5123039 -0.22420401 0 2.7990758e-05 0 0)
(-1.5468924 -0.22736688 0 -2.6561945e-05 0 0)
(-1.5143693 -0.22439489 0 2.4861299e-05 0 0)
(-1.5448832 -0.2271854 0 -2.3503286e-05 0 0)
(-1.5162048 -0.22456422 0 2.2071025e-05 0 0)
(-1.5431102 -0.22702503 0 -2.0822171e-05 0 0)
(-1.5178364 -0.22471453 0 1.9591395e-05 0 0)
(-1.541542 -0.22688307 0 -1.8473923e-05 0 0)
(-1.5192863 -0.22484793 0 1.7400813e-05 0 0)
(-1.5401526 -0.22675719 0 -1.6412236e-05 0 0)
(-1.5205753 -0.22496637 0 1.5472064e-05 0 0)
(-1.5389196 -0.22664542 0 -1.4601791e-05 0 0)
(-1.5217224 -0.22507165 0 1.377766e-05 0 0)
(-1.5378235 -0.22654603 0 -1.3013803e-05 0 0)
(-1.5227447 -0.22516536 0 1.2292354e-05 0 0)
(-1.5368475 -0.2264575 0 -1.1623753e-05 0 0)
(-1.5236573 -0.22524892 0 1.0993724e-05 0 0)
(-1.5359763 -0.22637848 0 -1.0410413e-05 0 0)
(-1.5244741 -0.2253236 0 9.8621097e-06 0 0)
(-1.5351965 -0.22630776 0 -9.3553477e-06 0 0)
(-1.5252072 -0.22539054 0 8.880394e-06 0 0)
(-1.5344961 -0.22624428 0 -8.4425871e-06 0 0)
(-1.5258676 -0.22545074 0 8.0337707e-06 0 0)
(-1.5338645 -0.22618707 0 -7.6583855e-06 0 0)
(-1.5264652 -0.22550513 0 7.3095536e-06 0 0)
(-1.5332918 -0.22613526 0 -6.9910466e-06 0 0)
(-1.527009 -0.22555453 0 6.6970395e-06 0 0)
(-1.5327694 -0.22608806 0 -6.4308216e-06 0 0)
(-1.5275074 -0.22559968 0 6.1874562e-06 0 0)
(-1.5322893 -0.22604475 0 -5.9699154e-06 0 0)
(-1.5279676 -0.22564128 0 5.7740892e-06 0 0)
(-1.531844 -0.22600469 0 -5.6027018e-06 0 0)
(-1.5283969 -0.22567994 0 5.4526579e-06 0 0)
(-1.5314268 -0.22596727 0 -5.3275767e-06 0 0)
(-1.5288017 -0.22571627 0 5.2194089e-06 0 0)
(-1.5310306 -0.2259319 0 -5.154714e-06 0 0)
(-1.5291864 -0.22575058 0 5.1023634e-06 0 0)
(-1.5306452 -0.22589709 0 -4.907912e-06 0 0)
(-1.5295704 -0.22578089 0 6.1411552e-06 0 0)
(-1.5303506 -0.22587475 0 -5.8720784e-06 0 0)
(-1.0125188 -0.4360352 0 -0.14341945 0 0)
(-1.5853309 -0.23422859 0 -0.0050133927 0 0)
(-1.4510947 -0.22624414 0 -0.002583493 0 0)
(-1.4892103 -0.2236943 0 -0.00026620802 0 0)
(-1.4232178 -0.21753169 0 -0.00010018671 0 0)
(-1.4677863 -0.22158642 0 -4.4855769e-05 0 0)
(-1.4221809 -0.21730453 0 2.3310923e-05 0 0)
(-1.4626577 -0.2211643 0 -2.7061497e-05 0 0)
(-1.4243533 -0.21752776 0 2.7526042e-05 0 0)
(-1.4600955 -0.22094292 0 -2.5819206e-05 0 0)
(-1.4264635 -0.21773565 0 2.4339792e-05 0 0)
(-1.458004 -0.22074809 0 -2.3119539e-05 0 0)
(-1.4283433 -0.21791749 0 2.1615854e-05 0 0)
(-1.4561704 -0.22057527 0 -2.0453265e-05 0 0)
(-1.4300152 -0.21807876 0 1.9196722e-05 0 0)
(-1.4545523 -0.2204225 0 -1.8115785e-05 0 0)
(-1.4315014 -0.21822191 0 1.7042937e-05 0 0)
(-1.4531213 -0.22028726 0 -1.6071276e-05 0 0)
(-1.4328224 -0.21834898 0 1.5138105e-05 0 0)
(-1.4518534 -0.22016733 0 -1.4277242e-05 0 0)
(-1.4339969 -0.21846181 0 1.3460206e-05 0 0)
(-1.4507284 -0.22006084 0 -1.2702059e-05 0 0)
(-1.4350422 -0.21856211 0 1.1985916e-05 0 0)
(-1.4497285 -0.21996613 0 -1.1320438e-05 0 0)
(-1.4359737 -0.21865139 0 1.0693459e-05 0 0)
(-1.4488381 -0.21988176 0 -1.0110993e-05 0 0)
(-1.4368055 -0.21873101 0 9.5633876e-06 0 0)
(-1.4480434 -0.21980645 0 -9.0552534e-06 0 0)
(-1.4375498 -0.21880218 0 8.5786166e-06 0 0)
(-1.4473323 -0.21973906 0 -8.1371874e-06 0 0)
(-1.4382178 -0.21886598 0 7.7242596e-06 0 0)
(-1.4466936 -0.21967854 0 -7.3429083e-06 0 0)
(-1.4388196 -0.21892337 0 6.9874396e-06 0 0)
(-1.4461178 -0.21962399 0 -6.6604662e-06 0 0)
(-1.4393641 -0.21897523 0 6.3571263e-06 0 0)
(-1.4455958 -0.21957458 0 -6.0796988e-06 0 0)
(-1.4398596 -0.21902234 0 5.8240212e-06 0 0)
(-1.4451197 -0.21952956 0 -5.5921462e-06 0 0)
(-1.4403135 -0.21906541 0 5.3805184e-06 0 0)
(-1.4446822 -0.21948825 0 -5.1910639e-06 0 0)
(-1.4407326 -0.2191051 0 5.0208293e-06 0 0)
(-1.4442766 -0.21945001 0 -4.8716122e-06 0 0)
(-1.4411235 -0.21914201 0 4.7413233e-06 0 0)
(-1.4438967 -0.21941428 0 -4.6326815e-06 0 0)
(-1.4414919 -0.21917671 0 4.5380497e-06 0 0)
(-1.4435361 -0.2193805 0 -4.4854598e-06 0 0)
(-1.441842 -0.21920952 0 4.4367227e-06 0 0)
(-1.4431848 -0.2193471 0 -4.2360796e-06 0 0)
(-1.4421865 -0.21923792 0 5.5376974e-06 0 0)
(-1.4428943 -0.21932428 0 -5.3183644e-06 0 0)
(-0.98664851 -0.41717553 0 -0.13272199 0 0)
(-1.4368099 -0.22404752 0 -0.0052785694 0 0)
(-1.3605115 -0.21956934 0 -0.0026462586 0 0)
(-1.396957 -0.21703214 0 -0.00036697151 0 0)
(-1.3393146 -0.21111521 0 -0.00013454369 0 0)
(-1.380589 -0.21493449 0 -4.4849098e-05 0 0)
(-1.339168 -0.21085983 0 1.8003851e-05 0 0)
(-1.3760766 -0.21452727 0 -2.2922302e-05 0 0)
(-1.3411426 -0.21106712 0 2.3943507e-05 0 0)
(-1.3737284 -0.21431692 0 -2.2285152e-05 0 0)
(-1.3430532 -0.21126471 0 2.1081103e-05 0 0)
(-1.3718172 -0.21413174 0 -2.0039669e-05 0 0)
(-1.3447642 -0.21143779 0 1.8714452e-05 0 0)
(-1.3701435 -0.21396729 0 -1.7725901e-05 0 0)
(-1.3462872 -0.21159127 0 1.6626315e-05 0 0)
(-1.3686667 -0.21382187 0 -1.5695805e-05 0 0)
(-1.3476413 -0.21172752 0 1.4763821e-05 0 0)
(-1.3673606 -0.21369312 0 -1.392281e-05 0 0)
(-1.348845 -0.21184845 0 1.3114511e-05 0 0)
(-1.3662036 -0.21357894 0 -1.2368052e-05 0 0)
(-1.3499153 -0.21195586 0 1.1660935e-05 0 0)
(-1.365177 -0.21347755 0 -1.1003213e-05 0 0)
(-1.3508679 -0.21205134 0 1.0383492e-05 0 0)
(-1.3642646 -0.21338737 0 -9.8061139e-06 0 0)
(-1.351717 -0.21213634 0 9.2635047e-06 0 0)
(-1.3634523 -0.21330704 0 -8.7581635e-06 0 0)
(-1.352475 -0.21221216 0 8.2841801e-06 0 0)
(-1.3627274 -0.21323532 0 -7.8433508e-06 0 0)
(-1.3531534 -0.21227993 0 7.4307327e-06 0 0)
(-1.3620787 -0.21317113 0 -7.0477878e-06 0 0)
(-1.3537623 -0.21234069 0 6.6902688e-06 0 0)
(-1.3614963 -0.21311349 0 -6.3594471e-06 0 0)
(-1.3543107 -0.21239535 0 6.0516329e-06 0 0)
(-1.3609712 -0.21306152 0 -5.7679806e-06 0 0)
(-1.3548069 -0.21244476 0 5.5052711e-06 0 0)
(-1.3604952 -0.21301444 0 -5.2645912e-06 0 0)
(-1.3552584 -0.21248965 0 5.0431338e-06 0 0)
(-1.3600612 -0.21297153 0 -4.8419621e-06 0 0)
(-1.355672 -0.2125307 0 4.6586454e-06 0 0)
(-1.3596625 -0.21293214 0 -4.4942713e-06 0 0)
(-1.3560538 -0.21256855 0 4.3468227e-06 0 0)
(-1.359293 -0.21289568 0 -4.2173509e-06 0 0)
(-1.3564098 -0.21260375 0 4.1045755e-06 0 0)
(-1.358947 -0.21286158 0 -4.0104481e-06 0 0)
(-1.3567453 -0.21263687 0 3.9277376e-06 0 0)
(-1.3586188 -0.21282935 0 -3.8854779e-06 0 0)
(-1.3570639 -0.21266822 0 3.8392479e-06 0 0)
(-1.3582985 -0.21279736 0 -3.6347171e-06 0 0)
(-1.3573733 -0.21269492 0 4.9712537e-06 0 0)
(-1.3580151 -0.21277422 0 -4.7994483e-06 0 0)
(-0.95830245 -0.39615619 0 -0.12116268 0 0)
(-1.3002217 -0.21419122 0 -0.00544676 0 0)
(-1.272305 -0.21233056 0 -0.0025444888 0 0)
(-1.3065261 -0.21041082 0 -0.00049839729 0 0)
(-1.2575472 -0.20471162 0 -0.0001717005 0 0)
(-1.2959456 -0.20828319 0 -4.5545074e-05 0 0)
(-1.2584717 -0.20440887 0 1.3278679e-05 0 0)
(-1.2921753 -0.20789207 0 -1.9092693e-05 0 0)
(-1.2603438 -0.20460286 0 2.0747602e-05 0 0)
(-1.290057 -0.20769341 0 -1.9057448e-05 0 0)
(-1.2620865 -0.20479105 0 1.8135377e-05 0 0)
(-1.2883158 -0.20751777 0 -1.7240714e-05 0 0)
(-1.2636457 -0.20495579 0 1.6083153e-05 0 0)
(-1.2867892 -0.20736144 0 -1.5250377e-05 0 0)
(-1.2650333 -0.20510177 0 1.4293718e-05 0 0)
(-1.2854417 -0.20722312 0 -1.3499689e-05 0 0)
(-1.266267 -0.20523135 0 1.2695325e-05 0 0)
(-1.2842499 -0.20710064 0 -1.1973074e-05 0 0)
(-1.2673637 -0.20534637 0 1.1277868e-05 0 0)
(-1.2831942 -0.20699202 0 -1.0635414e-05 0 0)
(-1.2683389 -0.20544853 0 1.002787e-05 0 0)
(-1.2822575 -0.20689555 0 -9.4614338e-06 0 0)
(-1.269207 -0.20553936 0 8.9290791e-06 0 0)
(-1.2814252 -0.20680975 0 -8.4317732e-06 0 0)
(-1.2699807 -0.20562023 0 7.9656237e-06 0 0)
(-1.2806842 -0.20673332 0 -7.5303717e-06 0 0)
(-1.2706716 -0.20569236 0 7.1231168e-06 0 0)
(-1.280023 -0.20666507 0 -6.7434441e-06 0 0)
(-1.2712898 -0.20575684 0 6.3888556e-06 0 0)
(-1.2794314 -0.20660398 0 -6.0590445e-06 0 0)
(-1.2718447 -0.20581466 0 5.7517524e-06 0 0)
(-1.2789003 -0.20654912 0 -5.4668299e-06 0 0)
(-1.2723444 -0.20586669 0 5.2022119e-06 0 0)
(-1.2784215 -0.20649965 0 -4.9579021e-06 0 0)
(-1.2727966 -0.20591372 0 4.732016e-06 0 0)
(-1.2779877 -0.20645483 0 -4.524698e-06 0 0)
(-1.273208 -0.20595647 0 4.3342432e-06 0 0)
(-1.2775921 -0.20641396 0 -4.1609305e-06 0 0)
(-1.2735847 -0.20599557 0 4.0032433e-06 0 0)
(-1.2772288 -0.20637644 0 -3.8616013e-06 0 0)
(-1.2739326 -0.20603162 0 3.7347456e-06 0 0)
(-1.2768921 -0.20634169 0 -3.6231284e-06 0 0)
(-1.2742567 -0.20606518 0 3.5261188e-06 0 0)
(-1.2765769 -0.20630919 0 -3.4450142e-06 0 0)
(-1.2745622 -0.20609676 0 3.3729982e-06 0 0)
(-1.2762782 -0.20627845 0 -3.3396414e-06 0 0)
(-1.2748523 -0.20612668 0 3.2953287e-06 0 0)
(-1.2759863 -0.20624787 0 -3.0890477e-06 0 0)
(-1.2751301 -0.20615184 0 4.4320278e-06 0 0)
(-1.2757123 -0.20622455 0 -4.3096252e-06 0 0)
(-0.93357345 -0.37276272 0 -0.10732523 0 0)
(-1.1784879 -0.20478238 0 -0.0054103136 0 0)
(-1.1843959 -0.2051522 0 -0.0025183192 0 0)
(-1.2215625 -0.2036186 0 -0.00051839049 0 0)
(-1.1786935 -0.19824459 0 -0.00018272437 0 0)
(-1.2142596 -0.20163389 0 -4.259071e-05 0 0)
(-1.1802752 -0.19795637 0 9.419844e-06 0 0)
(-1.2110104 -0.20126205 0 -1.5641907e-05 0 0)
(-1.1820033 -0.1981366 0 1.7814863e-05 0 0)
(-1.2090793 -0.20107307 0 -1.613424e-05 0 0)
(-1.1835828 -0.19831501 0 1.5453465e-05 0 0)
(-1.2074892 -0.20090625 0 -1.4694094e-05 0 0)
(-1.1850012 -0.19847157 0 1.3689062e-05 0 0)
(-1.2060965 -0.20075769 0 -1.2997704e-05 0 0)
(-1.1862646 -0.1986103 0 1.2171055e-05 0 0)
(-1.2048673 -0.20062623 0 -1.1501335e-05 0 0)
(-1.1873881 -0.19873344 0 1.0812871e-05 0 0)
(-1.2037803 -0.2005098 0 -1.0198871e-05 0 0)
(-1.1883869 -0.19884275 0 9.606377e-06 0 0)
(-1.2028174 -0.20040654 0 -9.0587195e-06 0 0)
(-1.1892752 -0.19893985 0 8.5416339e-06 0 0)
(-1.2019632 -0.20031483 0 -8.0583923e-06 0 0)
(-1.1900659 -0.19902619 0 7.6054246e-06 0 0)
(-1.2012042 -0.20023326 0 -7.1810846e-06 0 0)
(-1.1907707 -0.19910306 0 6.7844234e-06 0 0)
(-1.2005286 -0.20016058 0 -6.4130316e-06 0 0)
(-1.1914 -0.19917163 0 6.0664286e-06 0 0)
(-1.1999258 -0.20009569 0 -5.7424698e-06 0 0)
(-1.1919632 -0.19923294 0 5.4406307e-06 0 0)
(-1.1993865 -0.2000376 0 -5.1592179e-06 0 0)
(-1.1924686 -0.19928792 0 4.897584e-06 0 0)
(-1.1989024 -0.19998542 0 -4.654463e-06 0 0)
(-1.1929239 -0.1993374 0 4.4291104e-06 0 0)
(-1.198466 -0.19993837 0 -4.2206235e-06 0 0)
(-1.1933357 -0.19938214 0 4.0282055e-06 0 0)
(-1.1980706 -0.19989573 0 -3.8512554e-06 0 0)
(-1.1937104 -0.1994228 0 3.6889693e-06 0 0)
(-1.1977102 -0.19985684 0 -3.5410023e-06 0 0)
(-1.1940535 -0.19946001 0 3.4065861e-06 0 0)
(-1.1973793 -0.19982113 0 -3.2856052e-06 0 0)
(-1.1943702 -0.19949433 0 3.1774192e-06 0 0)
(-1.1970726 -0.19978804 0 -3.0819966e-06 0 0)
(-1.1946654 -0.19952628 0 2.9992302e-06 0 0)
(-1.1967857 -0.19975708 0 -2.9298552e-06 0 0)
(-1.1949434 -0.19955637 0 2.8674918e-06 0 0)
(-1.1965139 -0.1997278 0 -2.8417897e-06 0 0)
(-1.1952074 -0.19958491 0 2.7991184e-06 0 0)
(-1.1962481 -0.1996986 0 -2.5930066e-06 0 0)
(-1.195457 -0.19960868 0 3.9180567e-06 0 0)
(-1.1959851 -0.19967524 0 -3.8486327e-06 0 0)
(-0.91747379 -0.35656027 0 -0.098253784 0 0)
(-1.0729548 -0.19552774 0 -0.0052024405 0 0)
(-1.0977871 -0.19795263 0 -0.0025155095 0 0)
(-1.141999 -0.19664371 0 -0.00042200739 0 0)
(-1.1025698 -0.1916612 0 -0.00015593136 0 0)
(-1.1353711 -0.19495538 0 -2.975269e-05 0 0)
(-1.1044972 -0.19148728 0 8.7576302e-06 0 0)
(-1.1325148 -0.19463075 0 -1.1719075e-05 0 0)
(-1.1061084 -0.19166588 0 1.53724e-05 0 0)
(-1.1307702 -0.19445479 0 -1.3403567e-05 0 0)
(-1.1075486 -0.19183627 0 1.303073e-05 0 0)
(-1.1293238 -0.19429695 0 -1.2365111e-05 0 0)
(-1.1088402 -0.19198513 0 1.1508972e-05 0 0)
(-1.1280551 -0.19415597 0 -1.0943006e-05 0 0)
(-1.1099903 -0.19211689 0 1.0235988e-05 0 0)
(-1.1269349 -0.19403112 0 -9.679299e-06 0 0)
(-1.1110128 -0.19223383 0 9.0964469e-06 0 0)
(-1.1259441 -0.19392054 0 -8.5812657e-06 0 0)
(-1.1119218 -0.19233764 0 8.0822462e-06 0 0)
(-1.1250666 -0.19382245 0 -7.6211718e-06 0 0)
(-1.1127303 -0.19242986 0 7.1864115e-06 0 0)
(-1.1242881 -0.19373533 0 -6.7791528e-06 0 0)
(-1.1134501 -0.19251185 0 6.3984481e-06 0 0)
(-1.1235965 -0.19365785 0 -6.0407406e-06 0 0)
(-1.1140917 -0.19258487 0 5.7073429e-06 0 0)
(-1.1229809 -0.1935888 0 -5.3942597e-06 0 0)
(-1.1146645 -0.19265 0 5.1028829e-06 0 0)
(-1.1224318 -0.19352715 0 -4.8297869e-06 0 0)
(-1.1151772 -0.19270825 0 4.5759833e-06 0 0)
(-1.1219405 -0.19347196 0 -4.3387476e-06 0 0)
(-1.1156373 -0.19276048 0 4.1186938e-06 0 0)
(-1.1214996 -0.19342238 0 -3.9137223e-06 0 0)
(-1.1160517 -0.1928075 0 3.724128e-06 0 0)
(-1.1211021 -0.19337766 0 -3.5483276e-06 0 0)
(-1.1164266 -0.19285002 0 3.3863855e-06 0 0)
(-1.1207421 -0.19333713 0 -3.2371371e-06 0 0)
(-1.1167676 -0.19288867 0 3.1004948e-06 0 0)
(-1.120414 -0.19330016 0 -2.975638e-06 0 0)
(-1.1170799 -0.19292405 0 2.8623951e-06 0 0)
(-1.1201127 -0.19326619 0 -2.7602378e-06 0 0)
(-1.1173681 -0.19295669 0 2.6690176e-06 0 0)
(-1.1198336 -0.19323472 0 -2.5883253e-06 0 0)
(-1.1176366 -0.19298709 0 2.518464e-06 0 0)
(-1.1195725 -0.19320526 0 -2.4596966e-06 0 0)
(-1.1178895 -0.19301573 0 2.4060953e-06 0 0)
(-1.1193254 -0.19317739 0 -2.3869657e-06 0 0)
(-1.1181296 -0.19304292 0 2.3459046e-06 0 0)
(-1.1190835 -0.19314955 0 -2.1417379e-06 0 0)
(-1.1183537 -0.19306542 0 3.4281123e-06 0 0)
(-1.1188327 -0.19312625 0 -3.4161426e-06 0 0)
(-0.90135855 -0.33439664 0 -0.084981669 0 0)
(-0.98853338 -0.18691166 0 -0.0044625603 0 0)
(-1.0131938 -0.19021502 0 -0.0026484812 0 0)
(-1.0624459 -0.18988989 0 -0.00047384592 0 0)
(-1.0286217 -0.18519752 0 -0.00016112635 0 0)
(-1.0590292 -0.18831705 0 -2.6498433e-05 0 0)
(-1.0311584 -0.18502897 0 5.9451451e-06 0 0)
(-1.0566978 -0.18800731 0 -8.7524024e-06 0 0)
(-1.032688 -0.18519427 0 1.2970824e-05 0 0)
(-1.0551286 -0.18783977 0 -1.0957328e-05 0 0)
(-1.0339987 -0.18535541 0 1.0803204e-05 0 0)
(-1.0538125 -0.18768999 0 -1.0239363e-05 0 0)
(-1.0351728 -0.18549663 0 9.5149214e-06 0 0)
(-1.0526573 -0.18755623 0 -9.0647656e-06 0 0)
(-1.0362183 -0.18562164 0 8.4665918e-06 0 0)
(-1.0516373 -0.18743776 0 -8.0135616e-06 0 0)
(-1.037148 -0.18573259 0 7.5269613e-06 0 0)
(-1.0507352 -0.1873328 0 -7.1023749e-06 0 0)
(-1.0379745 -0.18583109 0 6.6885841e-06 0 0)
(-1.0499362 -0.18723971 0 -6.3068669e-06 0 0)
(-1.0387097 -0.18591859 0 5.9471999e-06 0 0)
(-1.0492275 -0.18715703 0 -5.6095655e-06 0 0)
(-1.0393642 -0.1859964 0 5.2947955e-06 0 0)
(-1.0485979 -0.18708349 0 -4.9981308e-06 0 0)
(-1.0399477 -0.18606569 0 4.7224694e-06 0 0)
(-1.0480376 -0.18701795 0 -4.4627927e-06 0 0)
(-1.0404687 -0.18612751 0 4.2218261e-06 0 0)
(-1.0475378 -0.18695943 0 -3.9953079e-06 0 0)
(-1.0409349 -0.18618279 0 3.7853564e-06 0 0)
(-1.0470907 -0.18690703 0 -3.588569e-06 0 0)
(-1.0413533 -0.18623238 0 3.4064776e-06 0 0)
(-1.0466894 -0.18685996 0 -3.236429e-06 0 0)
(-1.0417302 -0.18627702 0 3.0794829e-06 0 0)
(-1.0463278 -0.1868175 0 -2.9335987e-06 0 0)
(-1.0420711 -0.18631738 0 2.7994803e-06 0 0)
(-1.0460003 -0.186779 0 -2.6755796e-06 0 0)
(-1.0423812 -0.18635409 0 2.5623451e-06 0 0)
(-1.0457018 -0.18674389 0 -2.458627e-06 0 0)
(-1.0426651 -0.1863877 0 2.3647029e-06 0 0)
(-1.0454278 -0.18671162 0 -2.2797522e-06 0 0)
(-1.0429271 -0.18641872 0 2.2039961e-06 0 0)
(-1.0451741 -0.1866817 0 -2.1367526e-06 0 0)
(-1.0431711 -0.18644761 0 2.0786253e-06 0 0)
(-1.0449368 -0.1866537 0 -2.0294996e-06 0 0)
(-1.043401 -0.18647485 0 1.9839005e-06 0 0)
(-1.0447122 -0.1866272 0 -1.9704108e-06 0 0)
(-1.0436192 -0.18650073 0 1.9311066e-06 0 0)
(-1.0444924 -0.18660069 0 -1.7305366e-06 0 0)
(-1.0438202 -0.18652206 0 2.9607316e-06 0 0)
(-1.0442545 -0.18657757 0 -3.0112171e-06 0 0)
(-0.88933735 -0.32133111 0 -0.078025358 0 0)
(-0.90975026 -0.17883819 0 -0.0041365583 0 0)
(-0.93764194 -0.18268983 0 -0.0024445989 0 0)
(-0.98639785 -0.18290377 0 -0.0004226636 0 0)
(-0.9572388 -0.17863498 0 -0.000137866 0 0)
(-0.98525491 -0.18164159 0 -1.5671576e-05 0 0)
(-0.9601846 -0.17855035 0 5.8043896e-06 0 0)
(-0.98348607 -0.18137973 0 -5.2850791e-06 0 0)
(-0.96171463 -0.17871715 0 1.1006361e-05 0 0)
(-0.98212613 -0.18122601 0 -8.642937e-06 0 0)
(-0.96293203 -0.17887176 0 8.7852519e-06 0 0)
(-0.98094285 -0.18108497 0 -8.2829381e-06 0 0)
(-0.96400409 -0.17900601 0 7.6896093e-06 0 0)
(-0.97989516 -0.18095835 0 -7.3420846e-06 0 0)
(-0.96495484 -0.17912459 0 6.844754e-06 0 0)
(-0.97896819 -0.18084605 0 -6.4865092e-06 0 0)
(-0.96579933 -0.17922977 0 6.0880521e-06 0 0)
(-0.97814796 -0.18074654 0 -5.74669e-06 0 0)
(-0.96655001 -0.17932315 0 5.4108243e-06 0 0)
(-0.97742146 -0.18065828 0 -5.1020509e-06 0 0)
(-0.96721774 -0.1794061 0 4.8110433e-06 0 0)
(-0.9767771 -0.18057988 0 -4.5373992e-06 0 0)
(-0.96781222 -0.17947987 0 4.2829292e-06 0 0)
(-0.97620472 -0.18051013 0 -4.0423553e-06 0 0)
(-0.96834216 -0.17954556 0 3.8195087e-06 0 0)
(-0.97569534 -0.18044799 0 -3.6088946e-06 0 0)
(-0.96881537 -0.17960418 0 3.4140502e-06 0 0)
(-0.975241 -0.18039249 0 -3.2303121e-06 0 0)
(-0.96923887 -0.1796566 0 3.0604892e-06 0 0)
(-0.97483465 -0.1803428 0 -2.9008444e-06 0 0)
(-0.96961893 -0.17970362 0 2.7534959e-06 0 0)
(-0.97446999 -0.18029815 0 -2.6155101e-06 0 0)
(-0.96996123 -0.17974596 0 2.4884451e-06 0 0)
(-0.9741414 -0.18025787 0 -2.3700217e-06 0 0)
(-0.97027087 -0.17978426 0 2.2613686e-06 0 0)
(-0.97384381 -0.18022134 0 -2.1607298e-06 0 0)
(-0.97055249 -0.17981909 0 2.0689162e-06 0 0)
(-0.97357265 -0.18018802 0 -1.9845913e-06 0 0)
(-0.97081031 -0.17985098 0 1.9083397e-06 0 0)
(-0.97332376 -0.18015739 0 -1.8391668e-06 0 0)
(-0.97104819 -0.17988042 0 1.7775455e-06 0 0)
(-0.97309333 -0.18012899 0 -1.7226232e-06 0 0)
(-0.97126973 -0.17990786 0 1.6751992e-06 0 0)