/*--------------------------------*- C++ -*----------------------------------*\
| =========                 |                                                 |
| \\      /  F ield         | OpenFOAM: The Open Source CFD Toolbox           |
|  \\    /   O peration     | Version:  2312                                  |
|   \\  /    A nd           | Website:  www.openfoam.com                      |
|    \\/     M anipulation  |                                                 |
\*---------------------------------------------------------------------------*/
FoamFile
{
    version     2.0;
    format      ascii;
    arch        "LSB;label=32;scalar=64";
    class       volSymmTensorField;
    location    "8";
    object      sigma_0;
}
// * * * * * * * * * * * * * * * * * * * * * * * * * * * * * * * * * * * * * //

dimensions      [0 2 -2 0 0 0 0];

internalField   nonuniform List<symmTensor> 
4000
(
(-1.4183673 -0.61969615 0 -0.23040189 0 0)
(-2.8601012 -0.30957393 0 -0.00083732976 0 0)
(-1.9744121 -0.25693674 0 -0.00027411104 0 0)
(-2.1391827 -0.26715811 0 -3.2881835e-05 0 0)
(-2.0106161 -0.25868199 0 4.4656955e-05 0 0)
(-2.101665 -0.2648996 0 -5.4056127e-05 0 0)
(-2.0163006 -0.25904402 0 4.9719154e-05 0 0)
(-2.0938756 -0.26438521 0 -4.7664266e-05 0 0)
(-2.0215047 -0.25940053 0 4.4885637e-05 0 0)
(-2.0891697 -0.26406611 0 -4.2371989e-05 0 0)
(-2.0256084 -0.25968471 0 3.9825877e-05 0 0)
(-2.0852194 -0.26379637 0 -3.753735e-05 0 0)
(-2.0291896 -0.25993294 0 3.5295256e-05 0 0)
(-2.0817704 -0.26356041 0 -3.3254804e-05 0 0)
(-2.0323704 -0.26015319 0 3.1289007e-05 0 0)
(-2.0787294 -0.26335221 0 -2.9483751e-05 0 0)
(-2.0351952 -0.26034857 0 2.7757329e-05 0 0)
(-2.076039 -0.26316797 0 -2.6165192e-05 0 0)
(-2.0377031 -0.26052183 0 2.4648224e-05 0 0)
(-2.0736545 -0.26300466 0 -2.3246568e-05 0 0)
(-2.039931 -0.26067558 0 2.1914361e-05 0 0)
(-2.071538 -0.26285972 0 -2.0682369e-05 0 0)
(-2.0419124 -0.26081216 0 1.9513861e-05 0 0)
(-2.0696562 -0.26273089 0 -1.8433013e-05 0 0)
(-2.0436771 -0.26093365 0 1.7409974e-05 0 0)
(-2.0679802 -0.26261621 0 -1.6463977e-05 0 0)
(-2.045252 -0.26104191 0 1.5570565e-05 0 0)
(-2.0664839 -0.26251391 0 -1.4745155e-05 0 0)
(-2.0466607 -0.2611386 0 1.3967596e-05 0 0)
(-2.0651446 -0.26242243 0 -1.3250332e-05 0 0)
(-2.0479245 -0.26122517 0 1.2576674e-05 0 0)
(-2.0639417 -0.2623404 0 -1.1956748e-05 0 0)
(-2.0490625 -0.26130296 0 1.1376661e-05 0 0)
(-2.0628567 -0.26226654 0 -1.084473e-05 0 0)
(-2.0500918 -0.26137314 0 1.0349342e-05 0 0)
(-2.0618732 -0.26219976 0 -9.8974011e-06 0 0)
(-2.051028 -0.26143677 0 9.4791587e-06 0 0)
(-2.0609762 -0.26213903 0 -9.1004269e-06 0 0)
(-2.0518853 -0.26149483 0 8.7529961e-06 0 0)
(-2.060152 -0.26208342 0 -8.441843e-06 0 0)
(-2.0526766 -0.26154818 0 8.1600496e-06 0 0)
(-2.0593882 -0.26203212 0 -7.9119677e-06 0 0)
(-2.0534138 -0.26159763 0 7.6917777e-06 0 0)
(-2.0586729 -0.26198432 0 -7.5036702e-06 0 0)
(-2.0541078 -0.26164392 0 7.3418982e-06 0 0)
(-2.0579943 -0.26193925 0 -7.2124851e-06 0 0)
(-2.0547683 -0.26168764 0 7.1162072e-06 0 0)
(-2.0573559 -0.26189695 0 -7.0001102e-06 0 0)
(-2.0555012 -0.26173494 0 7.1697966e-06 0 0)
(-2.0571567 -0.26188363 0 -6.9770523e-06 0 0)
(-1.2587769 -0.56982776 0 -0.21645948 0 0)
(-2.5227871 -0.29419922 0 -0.0029265663 0 0)
(-1.8938631 -0.25290215 0 -0.00084597214 0 0)
(-1.9753426 -0.25674365 0 -3.4567429e-05 0 0)
(-1.8685187 -0.24927446 0 3.0287264e-05 0 0)
(-1.9443895 -0.25489176 0 -6.0083226e-05 0 0)
(-1.8712323 -0.24945044 0 5.2957642e-05 0 0)
(-1.9376905 -0.25442271 0 -5.1979262e-05 0 0)
(-1.8755954 -0.24977392 0 4.9186317e-05 0 0)
(-1.9337002 -0.25413098 0 -4.6553864e-05 0 0)
(-1.8791119 -0.25003874 0 4.3733607e-05 0 0)
(-1.9303103 -0.25387975 0 -4.1276354e-05 0 0)
(-1.8821811 -0.25027032 0 3.8785158e-05 0 0)
(-1.9273425 -0.25365923 0 -3.6560805e-05 0 0)
(-1.8849084 -0.25047592 0 3.4391805e-05 0 0)
(-1.9247253 -0.25346461 0 -3.2412184e-05 0 0)
(-1.8873315 -0.25065836 0 3.051337e-05 0 0)
(-1.92241 -0.25329237 0 -2.8763931e-05 0 0)
(-1.8894835 -0.25082018 0 2.7097276e-05 0 0)
(-1.9203578 -0.2531397 0 -2.5556157e-05 0 0)
(-1.8913957 -0.2509638 0 2.4092956e-05 0 0)
(-1.9185361 -0.25300417 0 -2.273816e-05 0 0)
(-1.8930967 -0.2510914 0 2.1454863e-05 0 0)
(-1.9169163 -0.25288371 0 -2.0266279e-05 0 0)
(-1.8946122 -0.25120491 0 1.9142783e-05 0 0)
(-1.9154733 -0.25277645 0 -1.810257e-05 0 0)
(-1.8959649 -0.25130609 0 1.712148e-05 0 0)
(-1.9141849 -0.25268077 0 -1.6213977e-05 0 0)
(-1.8971753 -0.25139646 0 1.536019e-05 0 0)
(-1.9130314 -0.25259519 0 -1.457173e-05 0 0)
(-1.8982616 -0.2514774 0 1.3832152e-05 0 0)
(-1.9119951 -0.25251843 0 -1.3150865e-05 0 0)
(-1.8992402 -0.25155013 0 1.2514187e-05 0 0)
(-1.9110601 -0.25244932 0 -1.192983e-05 0 0)
(-1.9001258 -0.25161577 0 1.1386355e-05 0 0)
(-1.9102122 -0.25238681 0 -1.0890171e-05 0 0)
(-1.9009318 -0.25167531 0 1.0431679e-05 0 0)
(-1.9094384 -0.25232994 0 -1.0016296e-05 0 0)
(-1.9016705 -0.25172964 0 9.6359489e-06 0 0)
(-1.9087269 -0.25227786 0 -9.2953275e-06 0 0)
(-1.9023529 -0.2517796 0 8.9876667e-06 0 0)
(-1.908067 -0.25222978 0 -8.717135e-06 0 0)
(-1.9029894 -0.25182593 0 8.4781553e-06 0 0)
(-1.9074485 -0.25218497 0 -8.2752178e-06 0 0)
(-1.9035895 -0.25186933 0 8.1013571e-06 0 0)
(-1.9068608 -0.2521427 0 -7.9685176e-06 0 0)
(-1.9041603 -0.25191024 0 7.8751726e-06 0 0)
(-1.9062984 -0.25210222 0 -7.7109845e-06 0 0)
(-1.9047655 -0.25195119 0 8.2448745e-06 0 0)
(-1.9060407 -0.25208352 0 -7.5766745e-06 0 0)
(-1.1827026 -0.54062613 0 -0.20354644 0 0)
(-2.2877947 -0.27922863 0 -0.0034131304 0 0)
(-1.8117328 -0.24840973 0 -0.001268301 0 0)
(-1.8733076 -0.25011042 0 -5.8933843e-05 0 0)
(-1.7757918 -0.24293678 0 1.4236559e-05 0 0)
(-1.8429567 -0.24821104 0 -5.959308e-05 0 0)
(-1.7770631 -0.24302768 0 5.0253725e-05 0 0)
(-1.8366947 -0.24775928 0 -5.0148361e-05 0 0)
(-1.7809071 -0.24333192 0 4.7691817e-05 0 0)
(-1.8331177 -0.2474844 0 -4.5182237e-05 0 0)
(-1.7840685 -0.24358469 0 4.242526e-05 0 0)
(-1.8300765 -0.2472456 0 -4.0088003e-05 0 0)
(-1.7868264 -0.24380552 0 3.7639457e-05 0 0)
(-1.8274099 -0.24703552 0 -3.5501254e-05 0 0)
(-1.7892771 -0.24400155 0 3.3382649e-05 0 0)
(-1.825058 -0.24685008 0 -3.1469498e-05 0 0)
(-1.7914548 -0.24417552 0 2.9620524e-05 0 0)
(-1.8229775 -0.24668595 0 -2.7926303e-05 0 0)
(-1.7933892 -0.24432986 0 2.6305311e-05 0 0)
(-1.8211335 -0.24654045 0 -2.4811608e-05 0 0)
(-1.7951084 -0.24446686 0 2.3389158e-05 0 0)
(-1.8194966 -0.24641129 0 -2.2075554e-05 0 0)
(-1.796638 -0.24458858 0 2.0828272e-05 0 0)
(-1.818041 -0.24629646 0 -1.9675588e-05 0 0)
(-1.7980009 -0.2446969 0 1.8583773e-05 0 0)
(-1.8167444 -0.24619421 0 -1.7574845e-05 0 0)
(-1.7992177 -0.24479344 0 1.6621524e-05 0 0)
(-1.8155866 -0.24610297 0 -1.5741243e-05 0 0)
(-1.8003065 -0.2448797 0 1.4911708e-05 0 0)
(-1.8145499 -0.24602137 0 -1.4146871e-05 0 0)
(-1.8012839 -0.24495696 0 1.3428383e-05 0 0)
(-1.8136185 -0.24594815 0 -1.2767525e-05 0 0)
(-1.8021644 -0.24502641 0 1.2149097e-05 0 0)
(-1.8127779 -0.2458822 0 -1.1582329e-05 0 0)
(-1.8029615 -0.2450891 0 1.1054559e-05 0 0)
(-1.8120156 -0.24582253 0 -1.0573451e-05 0 0)
(-1.8036871 -0.24514598 0 1.0128398e-05 0 0)
(-1.8113197 -0.24576824 0 -9.7258918e-06 0 0)
(-1.8043521 -0.24519791 0 9.3570127e-06 0 0)
(-1.8106796 -0.24571848 0 -9.0274038e-06 0 0)
(-1.8049667 -0.24524568 0 8.7295963e-06 0 0)
(-1.8100857 -0.24567252 0 -8.4686393e-06 0 0)
(-1.8055401 -0.24529001 0 8.238439e-06 0 0)
(-1.8095287 -0.24562967 0 -8.0445228e-06 0 0)
(-1.8060811 -0.24533156 0 7.8786598e-06 0 0)
(-1.8089991 -0.24558922 0 -7.7582507e-06 0 0)
(-1.8065959 -0.24537072 0 7.6745563e-06 0 0)
(-1.8084894 -0.24555019 0 -7.5065361e-06 0 0)
(-1.8071338 -0.24540856 0 8.2504434e-06 0 0)
(-1.8082161 -0.24553057 0 -7.7644763e-06 0 0)
(-1.1284235 -0.51074844 0 -0.1864462 0 0)
(-2.1012488 -0.26791742 0 -0.0040409677 0 0)
(-1.7276637 -0.24380772 0 -0.0017325841 0 0)
(-1.7745732 -0.24351238 0 -8.6170452e-05 0 0)
(-1.6850584 -0.23661508 0 -1.0838833e-05 0 0)
(-1.7448812 -0.24154012 0 -5.4022281e-05 0 0)
(-1.6849755 -0.23660699 0 4.2700055e-05 0 0)
(-1.7388758 -0.24109971 0 -4.3670792e-05 0 0)
(-1.688323 -0.23689006 0 4.193619e-05 0 0)
(-1.7356218 -0.24084072 0 -3.975474e-05 0 0)
(-1.6911788 -0.2371307 0 3.7320313e-05 0 0)
(-1.7328674 -0.24061402 0 -3.5317845e-05 0 0)
(-1.6936745 -0.23734079 0 3.3128344e-05 0 0)
(-1.7304489 -0.24041409 0 -3.1268738e-05 0 0)
(-1.6958918 -0.23752727 0 2.9390649e-05 0 0)
(-1.7283154 -0.24023756 0 -2.7713501e-05 0 0)
(-1.6978625 -0.23769279 0 2.6081642e-05 0 0)
(-1.7264282 -0.24008131 0 -2.4592017e-05 0 0)
(-1.6996133 -0.23783966 0 2.3163597e-05 0 0)
(-1.7247557 -0.23994278 0 -2.1848911e-05 0 0)
(-1.7011696 -0.23797004 0 2.0596059e-05 0 0)
(-1.7232711 -0.23981979 0 -1.9439457e-05 0 0)
(-1.7025543 -0.2380859 0 1.8341043e-05 0 0)
(-1.7219511 -0.23971043 0 -1.7325981e-05 0 0)
(-1.7037883 -0.23818901 0 1.6364516e-05 0 0)
(-1.7207753 -0.23961304 0 -1.5475995e-05 0 0)
(-1.70489 -0.23828094 0 1.4636502e-05 0 0)
(-1.7197256 -0.23952613 0 -1.3861261e-05 0 0)
(-1.7058759 -0.23836308 0 1.3130787e-05 0 0)
(-1.7187857 -0.23944837 0 -1.2457225e-05 0 0)
(-1.7067609 -0.23843668 0 1.1824561e-05 0 0)
(-1.7179412 -0.23937859 0 -1.12426e-05 0 0)
(-1.7075583 -0.23850285 0 1.0698087e-05 0 0)
(-1.7171794 -0.23931573 0 -1.0199045e-05 0 0)
(-1.70828 -0.23856261 0 9.7344295e-06 0 0)
(-1.7164884 -0.23925882 0 -9.3109183e-06 0 0)
(-1.708937 -0.23861684 0 8.9192537e-06 0 0)
(-1.7158577 -0.23920702 0 -8.5651195e-06 0 0)
(-1.7095392 -0.23866639 0 8.2407241e-06 0 0)
(-1.7152778 -0.23915952 0 -7.9510544e-06 0 0)
(-1.7100957 -0.23871199 0 7.6895947e-06 0 0)
(-1.7147396 -0.23911563 0 -7.4608514e-06 0 0)
(-1.710615 -0.23875434 0 7.2595971e-06 0 0)
(-1.714235 -0.23907466 0 -7.091052e-06 0 0)
(-1.7111049 -0.23879407 0 6.9467536e-06 0 0)
(-1.7137553 -0.23903597 0 -6.8482083e-06 0 0)
(-1.711571 -0.23883154 0 6.7797752e-06 0 0)
(-1.7132912 -0.23899833 0 -6.6018885e-06 0 0)
(-1.7120498 -0.23886645 0 7.5676323e-06 0 0)
(-1.7130029 -0.2389775 0 -7.1581532e-06 0 0)
(-1.0912109 -0.48848016 0 -0.17369868 0 0)
(-1.9176552 -0.25640743 0 -0.0045270485 0 0)
(-1.6364229 -0.2384371 0 -0.002119356 0 0)
(-1.6779498 -0.23692895 0 -0.00012704661 0 0)
(-1.5960238 -0.2302714 0 -3.7492258e-05 0 0)
(-1.6497938 -0.2348822 0 -4.8889733e-05 0 0)
(-1.5950776 -0.23017755 0 3.5366563e-05 0 0)
(-1.6439992 -0.2344488 0 -3.7212972e-05 0 0)
(-1.5979717 -0.23044025 0 3.626398e-05 0 0)
(-1.6410069 -0.23420375 0 -3.4338577e-05 0 0)
(-1.6005566 -0.23066961 0 3.2248042e-05 0 0)
(-1.6384999 -0.2339883 0 -3.0563629e-05 0 0)
(-1.6028254 -0.23086981 0 2.8638108e-05 0 0)
(-1.6362975 -0.23379786 0 -2.7051992e-05 0 0)
(-1.604841 -0.23104747 0 2.5415668e-05 0 0)
(-1.6343542 -0.23362964 0 -2.3971777e-05 0 0)
(-1.6066327 -0.23120518 0 2.2557337e-05 0 0)
(-1.6326354 -0.23348074 0 -2.1270385e-05 0 0)
(-1.6082246 -0.23134512 0 2.0034512e-05 0 0)
(-1.6311122 -0.23334871 0 -1.8897377e-05 0 0)
(-1.6096399 -0.23146938 0 1.7813957e-05 0 0)
(-1.6297603 -0.23323147 0 -1.6813196e-05 0 0)
(-1.6108993 -0.23157981 0 1.5863411e-05 0 0)
(-1.6285585 -0.23312723 0 -1.4985036e-05 0 0)
(-1.6120216 -0.2316781 0 1.4153641e-05 0 0)
(-1.627488 -0.23303439 0 -1.3384759e-05 0 0)
(-1.6130236 -0.23176574 0 1.2658791e-05 0 0)
(-1.6265324 -0.23295152 0 -1.1987947e-05 0 0)
(-1.6139203 -0.23184406 0 1.1356219e-05 0 0)
(-1.6256769 -0.23287737 0 -1.0773379e-05 0 0)
(-1.6147251 -0.23191425 0 1.0226215e-05 0 0)
(-1.6249085 -0.23281082 0 -9.7226602e-06 0 0)
(-1.6154503 -0.23197737 0 9.2517274e-06 0 0)
(-1.6242153 -0.23275084 0 -8.8199504e-06 0 0)
(-1.6161065 -0.23203438 0 8.4181346e-06 0 0)
(-1.6235867 -0.23269655 0 -8.0517584e-06 0 0)
(-1.6167039 -0.23208614 0 7.7130856e-06 0 0)
(-1.6230132 -0.23264709 0 -7.4068177e-06 0 0)
(-1.6172513 -0.23213345 0 7.1264278e-06 0 0)
(-1.6224859 -0.23260174 0 -6.8760795e-06 0 0)
(-1.617757 -0.232177 0 6.6503263e-06 0 0)
(-1.6219967 -0.2325598 0 -6.4529433e-06 0 0)
(-1.6182288 -0.23221747 0 6.2796644e-06 0 0)
(-1.6215383 -0.23252064 0 -6.13508e-06 0 0)
(-1.6186738 -0.23225547 0 6.010762e-06 0 0)
(-1.6211026 -0.23248364 0 -5.9312392e-06 0 0)
(-1.619097 -0.23229134 0 5.8729524e-06 0 0)
(-1.6206798 -0.23244741 0 -5.6867498e-06 0 0)
(-1.6195254 -0.23232381 0 6.8106035e-06 0 0)
(-1.6203855 -0.23242574 0 -6.4824296e-06 0 0)
(-1.0458906 -0.45905561 0 -0.1565673 0 0)
(-1.7455857 -0.2450366 0 -0.0047752337 0 0)
(-1.543802 -0.23258401 0 -0.0024099219 0 0)
(-1.5828852 -0.23032185 0 -0.00018427702 0 0)
(-1.508762 -0.22390926 0 -6.6158776e-05 0 0)
(-1.5574692 -0.22823143 0 -4.561157e-05 0 0)
(-1.5074729 -0.22374272 0 2.9093121e-05 0 0)
(-1.5519459 -0.22780413 0 -3.1729232e-05 0 0)
(-1.5099683 -0.22398564 0 3.1543378e-05 0 0)
(-1.5491789 -0.22757161 0 -2.976192e-05 0 0)
(-1.5123054 -0.22420416 0 2.7987638e-05 0 0)
(-1.5468912 -0.22736676 0 -2.6559498e-05 0 0)
(-1.5143703 -0.22439499 0 2.4859413e-05 0 0)
(-1.5448824 -0.22718532 0 -2.3501859e-05 0 0)
(-1.5162054 -0.22456428 0 2.2069993e-05 0 0)
(-1.5431097 -0.22702498 0 -2.0821445e-05 0 0)
(-1.5178367 -0.22471457 0 1.9590911e-05 0 0)
(-1.5415418 -0.22688304 0 -1.8473623e-05 0 0)
(-1.5192864 -0.22484794 0 1.7400646e-05 0 0)
(-1.5401525 -0.22675718 0 -1.6412165e-05 0 0)
(-1.5205753 -0.22496638 0 1.5472058e-05 0 0)
(-1.5389195 -0.22664542 0 -1.4601827e-05 0 0)
(-1.5217224 -0.22507165 0 1.3777722e-05 0 0)
(-1.5378236 -0.22654603 0 -1.3013878e-05 0 0)
(-1.5227446 -0.22516536 0 1.2292434e-05 0 0)
(-1.5368475 -0.2264575 0 -1.1623832e-05 0 0)
(-1.5236573 -0.22524892 0 1.0993799e-05 0 0)
(-1.5359763 -0.22637848 0 -1.0410482e-05 0 0)
(-1.5244741 -0.2253236 0 9.8621724e-06 0 0)
(-1.5351965 -0.22630777 0 -9.3554037e-06 0 0)
(-1.5252071 -0.22539054 0 8.8804433e-06 0 0)
(-1.5344961 -0.22624428 0 -8.4426304e-06 0 0)
(-1.5258675 -0.22545074 0 8.0338082e-06 0 0)
(-1.5338645 -0.22618707 0 -7.6584182e-06 0 0)
(-1.5264652 -0.22550513 0 7.3095818e-06 0 0)
(-1.5332918 -0.22613526 0 -6.9910712e-06 0 0)
(-1.527009 -0.22555453 0 6.6970606e-06 0 0)
(-1.5327694 -0.22608806 0 -6.43084e-06 0 0)
(-1.5275073 -0.22559968 0 6.1874719e-06 0 0)
(-1.5322893 -0.22604475 0 -5.9699291e-06 0 0)
(-1.5279676 -0.22564127 0 5.774101e-06 0 0)
(-1.531844 -0.22600469 0 -5.6027121e-06 0 0)
(-1.5283969 -0.22567994 0 5.4526667e-06 0 0)
(-1.5314268 -0.22596727 0 -5.3275846e-06 0 0)
(-1.5288017 -0.22571627 0 5.2194157e-06 0 0)
(-1.5310306 -0.2259319 0 -5.1547202e-06 0 0)
(-1.5291864 -0.22575058 0 5.102369e-06 0 0)
(-1.5306452 -0.22589709 0 -4.907917e-06 0 0)
(-1.5295704 -0.22578089 0 6.1411609e-06 0 0)
(-1.5303506 -0.22587475 0 -5.8720844e-06 0 0)
(-1.0187502 -0.44054181 0 -0.14606397 0 0)
(-1.5859223 -0.23441369 0 -0.0050879718 0 0)
(-1.451079 -0.22624789 0 -0.002585806 0 0)
(-1.4892123 -0.22369447 0 -0.00026640129 0 0)
(-1.4232216 -0.21753191 0 -0.00010020097 0 0)
(-1.4677851 -0.22158632 0 -4.4864159e-05 0 0)
(-1.4221832 -0.21730478 0 2.3298277e-05 0 0)
(-1.4626558 -0.22116412 0 -2.7059425e-05 0 0)
(-1.424355 -0.21752794 0 2.7521495e-05 0 0)
(-1.460094 -0.22094276 0 -2.5816407e-05 0 0)
(-1.4264647 -0.21773577 0 2.4337371e-05 0 0)
(-1.458003 -0.22074798 0 -2.311774e-05 0 0)
(-1.428344 -0.21791757 0 2.1614524e-05 0 0)
(-1.4561698 -0.22057521 0 -2.0452304e-05 0 0)
(-1.4300156 -0.2180788 0 1.919607e-05 0 0)
(-1.454552 -0.22042247 0 -1.8115359e-05 0 0)
(-1.4315016 -0.21822194 0 1.7042684e-05 0 0)
(-1.4531212 -0.22028724 0 -1.6071147e-05 0 0)
(-1.4328225 -0.21834898 0 1.5138063e-05 0 0)
(-1.4518534 -0.22016733 0 -1.4277258e-05 0 0)
(-1.4339969 -0.21846181 0 1.3460257e-05 0 0)
(-1.4507284 -0.22006084 0 -1.2702131e-05 0 0)
(-1.4350422 -0.2185621 0 1.1985997e-05 0 0)
(-1.4497285 -0.21996613 0 -1.1320521e-05 0 0)
(-1.4359737 -0.21865139 0 1.069354e-05 0 0)
(-1.4488381 -0.21988177 0 -1.0111068e-05 0 0)
(-1.4368054 -0.21873101 0 9.5634556e-06 0 0)
(-1.4480435 -0.21980646 0 -9.0553141e-06 0 0)
(-1.4375497 -0.21880218 0 8.5786701e-06 0 0)
(-1.4473323 -0.21973906 0 -8.1372342e-06 0 0)
(-1.4382178 -0.21886598 0 7.7243002e-06 0 0)
(-1.4466937 -0.21967854 0 -7.3429435e-06 0 0)
(-1.4388195 -0.21892337 0 6.98747e-06 0 0)
(-1.4461178 -0.219624 0 -6.6604925e-06 0 0)
(-1.4393641 -0.21897523 0 6.357149e-06 0 0)
(-1.4455958 -0.21957459 0 -6.0797184e-06 0 0)
(-1.4398595 -0.21902234 0 5.8240381e-06 0 0)
(-1.4451197 -0.21952956 0 -5.5921608e-06 0 0)
(-1.4403135 -0.21906541 0 5.3805309e-06 0 0)
(-1.4446822 -0.21948825 0 -5.1910748e-06 0 0)
(-1.4407326 -0.2191051 0 5.0208386e-06 0 0)
(-1.4442766 -0.21945001 0 -4.8716203e-06 0 0)
(-1.4411235 -0.21914201 0 4.7413304e-06 0 0)
(-1.4438967 -0.21941428 0 -4.6326877e-06 0 0)
(-1.4414919 -0.21917671 0 4.5380552e-06 0 0)
(-1.4435361 -0.2193805 0 -4.4854647e-06 0 0)
(-1.441842 -0.21920952 0 4.4367272e-06 0 0)
(-1.4431848 -0.2193471 0 -4.2360835e-06 0 0)
(-1.4421865 -0.21923792 0 5.5377022e-06 0 0)
(-1.4428943 -0.21932428 0 -5.3183697e-06 0 0)
(-0.98273062 -0.41437407 0 -0.13119085 0 0)
(-1.436346 -0.22383035 0 -0.0051947516 0 0)
(-1.3605758 -0.2195625 0 -0.0026415624 0 0)
(-1.3969898 -0.21703202 0 -0.00036574502 0 0)
(-1.3393227 -0.2111157 0 -0.00013449803 0 0)
(-1.3805889 -0.21493443 0 -4.485623e-05 0 0)
(-1.3391703 -0.21086008 0 1.7989963e-05 0 0)
(-1.376075 -0.2145271 0 -2.2921555e-05 0 0)
(-1.3411441 -0.21106728 0 2.3939616e-05 0 0)
(-1.3737272 -0.21431679 0 -2.2283102e-05 0 0)
(-1.3430541 -0.21126481 0 2.1079355e-05 0 0)
(-1.3718164 -0.21413166 0 -2.0038441e-05 0 0)
(-1.3447647 -0.21143785 0 1.8713604e-05 0 0)
(-1.3701431 -0.21396724 0 -1.7725328e-05 0 0)
(-1.3462875 -0.2115913 0 1.6625971e-05 0 0)
(-1.3686665 -0.21382185 0 -1.5695613e-05 0 0)
(-1.3476415 -0.21172753 0 1.4763745e-05 0 0)
(-1.3673605 -0.21369311 0 -1.3922807e-05 0 0)
(-1.348845 -0.21184846 0 1.3114557e-05 0 0)
(-1.3662036 -0.21357894 0 -1.2368126e-05 0 0)
(-1.3499153 -0.21195586 0 1.1661022e-05 0 0)
(-1.365177 -0.21347755 0 -1.1003304e-05 0 0)
(-1.3508679 -0.21205134 0 1.0383581e-05 0 0)
(-1.3642646 -0.21338738 0 -9.8061969e-06 0 0)
(-1.3517169 -0.21213634 0 9.2635803e-06 0 0)
(-1.3634523 -0.21330704 0 -8.7582306e-06 0 0)
(-1.352475 -0.21221215 0 8.2842391e-06 0 0)
(-1.3627274 -0.21323532 0 -7.843402e-06 0 0)
(-1.3531534 -0.21227992 0 7.430777e-06 0 0)
(-1.3620787 -0.21317113 0 -7.0478259e-06 0 0)
(-1.3537622 -0.21234068 0 6.6903015e-06 0 0)
(-1.3614963 -0.21311349 0 -6.3594752e-06 0 0)
(-1.3543107 -0.21239535 0 6.0516571e-06 0 0)
(-1.3609712 -0.21306152 0 -5.7680014e-06 0 0)
(-1.3548069 -0.21244476 0 5.505289e-06 0 0)
(-1.3604952 -0.21301444 0 -5.2646066e-06 0 0)
(-1.3552584 -0.21248965 0 5.0431471e-06 0 0)
(-1.3600613 -0.21297153 0 -4.8419735e-06 0 0)
(-1.355672 -0.2125307 0 4.6586553e-06 0 0)
(-1.3596625 -0.21293214 0 -4.4942798e-06 0 0)
(-1.3560538 -0.21256855 0 4.3468301e-06 0 0)
(-1.359293 -0.21289568 0 -4.2173572e-06 0 0)
(-1.3564098 -0.21260375 0 4.104581e-06 0 0)
(-1.358947 -0.21286158 0 -4.010453e-06 0 0)
(-1.3567453 -0.21263687 0 3.9277419e-06 0 0)
(-1.3586188 -0.21282935 0 -3.8854818e-06 0 0)
(-1.3570639 -0.21266822 0 3.8392514e-06 0 0)
(-1.3582985 -0.21279736 0 -3.6347201e-06 0 0)
(-1.3573733 -0.21269492 0 4.9712576e-06 0 0)
(-1.3580151 -0.21277422 0 -4.7994529e-06 0 0)
(-0.95910978 -0.39571578 0 -0.12056231 0 0)
(-1.3008068 -0.21437435 0 -0.0054911785 0 0)
(-1.2723676 -0.21233835 0 -0.0025454959 0 0)
(-1.3065257 -0.21041139 0 -0.00049922437 0 0)
(-1.2575518 -0.20471152 0 -0.00017166752 0 0)
(-1.2959455 -0.20828299 0 -4.5528497e-05 0 0)
(-1.2584736 -0.20440905 0 1.3272572e-05 0 0)
(-1.292174 -0.20789192 0 -1.9091127e-05 0 0)
(-1.2603449 -0.20460299 0 2.0744746e-05 0 0)
(-1.2900561 -0.20769331 0 -1.9056096e-05 0 0)
(-1.2620872 -0.20479114 0 1.8134201e-05 0 0)
(-1.2883153 -0.2075177 0 -1.7239995e-05 0 0)
(-1.2636461 -0.20495584 0 1.6082701e-05 0 0)
(-1.2867889 -0.2073614 0 -1.5250118e-05 0 0)
(-1.2650335 -0.20510179 0 1.4293613e-05 0 0)
(-1.2854416 -0.20722311 0 -1.3499674e-05 0 0)
(-1.2662671 -0.20523136 0 1.2695376e-05 0 0)
(-1.2842499 -0.20710064 0 -1.1973158e-05 0 0)
(-1.2673637 -0.20534637 0 1.1277972e-05 0 0)
(-1.2831942 -0.20699202 0 -1.0635521e-05 0 0)
(-1.2683389 -0.20544853 0 1.0027975e-05 0 0)
(-1.2822575 -0.20689555 0 -9.4615312e-06 0 0)
(-1.269207 -0.20553936 0 8.9291673e-06 0 0)
(-1.2814252 -0.20680976 0 -8.4318505e-06 0 0)
(-1.2699807 -0.20562023 0 7.9656911e-06 0 0)
(-1.2806842 -0.20673332 0 -7.5304293e-06 0 0)
(-1.2706716 -0.20569236 0 7.1231661e-06 0 0)
(-1.280023 -0.20666507 0 -6.7434858e-06 0 0)
(-1.2712898 -0.20575684 0 6.3888911e-06 0 0)
(-1.2794314 -0.20660398 0 -6.0590746e-06 0 0)
(-1.2718446 -0.20581466 0 5.7517781e-06 0 0)
(-1.2789003 -0.20654912 0 -5.4668517e-06 0 0)
(-1.2723444 -0.20586669 0 5.2022306e-06 0 0)
(-1.2784215 -0.20649965 0 -4.9579181e-06 0 0)
(-1.2727966 -0.20591372 0 4.7320298e-06 0 0)
(-1.2779877 -0.20645483 0 -4.5247098e-06 0 0)
(-1.273208 -0.20595647 0 4.3342534e-06 0 0)
(-1.2775921 -0.20641396 0 -4.1609392e-06 0 0)
(-1.2735847 -0.20599557 0 4.0032508e-06 0 0)
(-1.2772288 -0.20637644 0 -3.8616078e-06 0 0)
(-1.2739326 -0.20603162 0 3.7347512e-06 0 0)
(-1.2768921 -0.20634169 0 -3.6231332e-06 0 0)
(-1.2742567 -0.20606518 0 3.526123e-06 0 0)
(-1.276577 -0.20630919 0 -3.4450179e-06 0 0)
(-1.2745622 -0.20609676 0 3.3730015e-06 0 0)
(-1.2762782 -0.20627845 0 -3.3396443e-06 0 0)
(-1.2748523 -0.20612668 0 3.2953314e-06 0 0)
(-1.2759863 -0.20624787 0 -3.08905e-06 0 0)
(-1.2751301 -0.20615184 0 4.432031e-06 0 0)
(-1.2757123 -0.20622455 0 -4.3096294e-06 0 0)
(-0.93520051 -0.37588535 0 -0.10959164 0 0)
(-1.1779793 -0.20462645 0 -0.0053991374 0 0)
(-1.1844231 -0.20513633 0 -0.0025131219 0 0)
(-1.2215496 -0.20361901 0 -0.00051973575 0 0)
(-1.1787 -0.19824511 0 -0.00018283211 0 0)
(-1.2142611 -0.201634 0 -4.262586e-05 0 0)
(-1.1802771 -0.19795663 0 9.3965932e-06 0 0)
(-1.2110095 -0.20126195 0 -1.5645468e-05 0 0)
(-1.1820041 -0.19813671 0 1.7812065e-05 0 0)
(-1.2090786 -0.20107299 0 -1.6133494e-05 0 0)
(-1.1835833 -0.19831507 0 1.5452859e-05 0 0)
(-1.2074889 -0.2009062 0 -1.4693751e-05 0 0)
(-1.1850015 -0.1984716 0 1.3688942e-05 0 0)
(-1.2060963 -0.20075767 0 -1.2997681e-05 0 0)
(-1.1862648 -0.19861031 0 1.2171131e-05 0 0)
(-1.2048672 -0.20062622 0 -1.1501445e-05 0 0)
(-1.1873881 -0.19873344 0 1.0813008e-05 0 0)
(-1.2037803 -0.2005098 0 -1.019901e-05 0 0)
(-1.1883869 -0.19884275 0 9.6065128e-06 0 0)
(-1.2028174 -0.20040654 0 -9.0588429e-06 0 0)
(-1.1892751 -0.19893985 0 8.5417443e-06 0 0)
(-1.2019632 -0.20031483 0 -8.0584873e-06 0 0)
(-1.1900659 -0.19902619 0 7.6055061e-06 0 0)
(-1.2012042 -0.20023326 0 -7.1811528e-06 0 0)
(-1.1907707 -0.19910306 0 6.7844808e-06 0 0)
(-1.2005286 -0.20016058 0 -6.413079e-06 0 0)
(-1.1914 -0.19917163 0 6.0664683e-06 0 0)
(-1.1999258 -0.20009569 0 -5.7425026e-06 0 0)
(-1.1919632 -0.19923294 0 5.4406583e-06 0 0)
(-1.1993865 -0.2000376 0 -5.1592409e-06 0 0)
(-1.1924686 -0.19928792 0 4.8976035e-06 0 0)
(-1.1989024 -0.19998542 0 -4.6544794e-06 0 0)
(-1.1929239 -0.1993374 0 4.4291245e-06 0 0)
(-1.198466 -0.19993837 0 -4.2206354e-06 0 0)
(-1.1933357 -0.19938214 0 4.0282157e-06 0 0)
(-1.1980706 -0.19989573 0 -3.8512641e-06 0 0)
(-1.1937104 -0.1994228 0 3.6889768e-06 0 0)
(-1.1977102 -0.19985684 0 -3.5410087e-06 0 0)
(-1.1940535 -0.19946001 0 3.4065916e-06 0 0)
(-1.1973793 -0.19982113 0 -3.2856099e-06 0 0)
(-1.1943702 -0.19949433 0 3.1774233e-06 0 0)
(-1.1970727 -0.19978804 0 -3.0820002e-06 0 0)
(-1.1946654 -0.19952628 0 2.9992334e-06 0 0)
(-1.1967857 -0.19975708 0 -2.929858e-06 0 0)
(-1.1949434 -0.19955637 0 2.8674943e-06 0 0)
(-1.1965139 -0.1997278 0 -2.8417919e-06 0 0)
(-1.1952074 -0.19958491 0 2.7991204e-06 0 0)
(-1.1962481 -0.1996986 0 -2.5930082e-06 0 0)
(-1.195457 -0.19960868 0 3.9180593e-06 0 0)
(-1.1959851 -0.19967524 0 -3.8486365e-06 0 0)
(-0.9155956 -0.35265417 0 -0.095567393 0 0)
(-1.0734063 -0.19567695 0 -0.00520583 0 0)
(-1.0977886 -0.19797254 0 -0.0025229144 0 0)
(-1.1420277 -0.19664393 0 -0.00042109062 0 0)
(-1.1025704 -0.19166106 0 -0.00015594792 0 0)
(-1.1353689 -0.19495499 0 -2.9759982e-05 0 0)
(-1.104498 -0.19148734 0 8.7527952e-06 0 0)
(-1.1325142 -0.19463064 0 -1.1717987e-05 0 0)
(-1.1061092 -0.19166596 0 1.5371358e-05 0 0)
(-1.1307698 -0.19445473 0 -1.3403265e-05 0 0)
(-1.107549 -0.19183631 0 1.303048e-05 0 0)
(-1.1293236 -0.19429692 0 -1.2365126e-05 0 0)
(-1.1088404 -0.19198515 0 1.1509077e-05 0 0)
(-1.1280549 -0.19415596 0 -1.0943163e-05 0 0)
(-1.1099904 -0.1921169 0 1.0236186e-05 0 0)
(-1.1269348 -0.19403112 0 -9.6794909e-06 0 0)
(-1.1110128 -0.19223383 0 9.0966366e-06 0 0)
(-1.1259441 -0.19392054 0 -8.5814336e-06 0 0)
(-1.1119218 -0.19233764 0 8.0823958e-06 0 0)
(-1.1250666 -0.19382245 0 -7.6212978e-06 0 0)
(-1.1127303 -0.19242985 0 7.1865182e-06 0 0)
(-1.1242882 -0.19373534 0 -6.7792398e-06 0 0)
(-1.1134501 -0.19251185 0 6.3985198e-06 0 0)
(-1.1235966 -0.19365785 0 -6.0407981e-06 0 0)
(-1.1140916 -0.19258487 0 5.7073898e-06 0 0)
(-1.122981 -0.19358881 0 -5.3942972e-06 0 0)
(-1.1146645 -0.19265 0 5.1029136e-06 0 0)
(-1.1224318 -0.19352716 0 -4.8298116e-06 0 0)
(-1.1151772 -0.19270825 0 4.5760038e-06 0 0)
(-1.1219405 -0.19347196 0 -4.3387644e-06 0 0)
(-1.1156373 -0.19276048 0 4.118708e-06 0 0)
(-1.1214996 -0.19342238 0 -3.913734e-06 0 0)
(-1.1160517 -0.1928075 0 3.7241381e-06 0 0)
(-1.1211021 -0.19337766 0 -3.548336e-06 0 0)
(-1.1164266 -0.19285002 0 3.3863927e-06 0 0)
(-1.1207421 -0.19333713 0 -3.2371431e-06 0 0)
(-1.1167676 -0.19288867 0 3.1005001e-06 0 0)
(-1.120414 -0.19330016 0 -2.9756424e-06 0 0)
(-1.1170799 -0.19292405 0 2.862399e-06 0 0)
(-1.1201127 -0.19326619 0 -2.7602411e-06 0 0)
(-1.1173681 -0.19295669 0 2.6690205e-06 0 0)
(-1.1198336 -0.19323472 0 -2.5883278e-06 0 0)
(-1.1176366 -0.19298709 0 2.5184662e-06 0 0)
(-1.1195725 -0.19320526 0 -2.4596986e-06 0 0)
(-1.1178895 -0.19301573 0 2.4060971e-06 0 0)
(-1.1193254 -0.19317739 0 -2.3869674e-06 0 0)
(-1.1181296 -0.19304292 0 2.3459061e-06 0 0)
(-1.1190835 -0.19314955 0 -2.1417391e-06 0 0)
(-1.1183537 -0.19306542 0 3.4281144e-06 0 0)
(-1.1188327 -0.19312625 0 -3.4161461e-06 0 0)
(-0.90302566 -0.33861636 0 -0.087800215 0 0)
(-0.98764579 -0.18672651 0 -0.0045110781 0 0)
(-1.0135264 -0.19025935 0 -0.0026140859 0 0)
(-1.0624163 -0.18989238 0 -0.00047512082 0 0)
(-1.0286166 -0.18519782 0 -0.00016137686 0 0)
(-1.0590285 -0.18831745 0 -2.6616903e-05 0 0)
(-1.0311586 -0.18502925 0 5.9017103e-06 0 0)
(-1.0566967 -0.18800726 0 -8.761909e-06 0 0)
(-1.0326881 -0.18519432 0 1.2968506e-05 0 0)
(-1.0551282 -0.18783972 0 -1.0957588e-05 0 0)
(-1.0339988 -0.18535544 0 1.0803344e-05 0 0)
(-1.0538123 -0.18768997 0 -1.0239564e-05 0 0)
(-1.0351729 -0.18549664 0 9.5152219e-06 0 0)
(-1.0526572 -0.18755623 0 -9.065031e-06 0 0)
(-1.0362184 -0.18562165 0 8.4668721e-06 0 0)
(-1.0516373 -0.18743776 0 -8.0137992e-06 0 0)
(-1.037148 -0.18573259 0 7.5271779e-06 0 0)
(-1.0507352 -0.18733281 0 -7.1025528e-06 0 0)
(-1.0379745 -0.18583109 0 6.6887347e-06 0 0)
(-1.0499362 -0.18723972 0 -6.3069871e-06 0 0)
(-1.0387097 -0.18591859 0 5.9472974e-06 0 0)
(-1.0492275 -0.18715703 0 -5.6096416e-06 0 0)
(-1.0393642 -0.1859964 0 5.2948559e-06 0 0)
(-1.0485979 -0.18708349 0 -4.9981774e-06 0 0)
(-1.0399477 -0.18606569 0 4.7225063e-06 0 0)
(-1.0480376 -0.18701795 0 -4.4628211e-06 0 0)
(-1.0404686 -0.18612751 0 4.2218488e-06 0 0)
(-1.0475378 -0.18695943 0 -3.9953256e-06 0 0)
(-1.0409349 -0.18618279 0 3.7853709e-06 0 0)
(-1.0470907 -0.18690703 0 -3.5885805e-06 0 0)
(-1.0413533 -0.18623238 0 3.4064872e-06 0 0)
(-1.0466895 -0.18685996 0 -3.2364368e-06 0 0)
(-1.0417302 -0.18627701 0 3.0794895e-06 0 0)
(-1.0463279 -0.1868175 0 -2.9336041e-06 0 0)
(-1.0420711 -0.18631738 0 2.799485e-06 0 0)
(-1.0460003 -0.186779 0 -2.6755834e-06 0 0)
(-1.0423812 -0.18635409 0 2.5623485e-06 0 0)
(-1.0457019 -0.18674389 0 -2.4586298e-06 0 0)
(-1.0426651 -0.1863877 0 2.3647054e-06 0 0)
(-1.0454278 -0.18671162 0 -2.2797543e-06 0 0)
(-1.0429271 -0.18641872 0 2.2039979e-06 0 0)
(-1.0451741 -0.1866817 0 -2.1367542e-06 0 0)
(-1.0431711 -0.18644761 0 2.0786268e-06 0 0)
(-1.0449368 -0.1866537 0 -2.0295009e-06 0 0)
(-1.043401 -0.18647485 0 1.9839017e-06 0 0)
(-1.0447122 -0.1866272 0 -1.970412e-06 0 0)
(-1.0436192 -0.18650073 0 1.9311077e-06 0 0)
(-1.0444924 -0.18660069 0 -1.7305374e-06 0 0)
(-1.0438202 -0.18652206 0 2.9607332e-06 0 0)
(-1.0442545 -0.18657757 0 -3.0112203e-06 0 0)
(-0.88698034 -0.31688397 0 -0.075259395 0 0)
(-0.91008952 -0.17888873 0 -0.004106733 0 0)
(-0.9377442 -0.18272384 0 -0.0024414881 0 0)
(-0.98636649 -0.18290507 0 -0.0004236368 0 0)
(-0.95722646 -0.17863444 0 -0.00013805705 0 0)
(-0.98524996 -0.18164113 0 -1.5715436e-05 0 0)
(-0.96018423 -0.17855028 0 5.8015903e-06 0 0)
(-0.98348576 -0.18137964 0 -5.2831133e-06 0 0)
(-0.96171508 -0.17871718 0 1.1007108e-05 0 0)
(-0.98212607 -0.18122599 0 -8.6431796e-06 0 0)
(-0.96293223 -0.17887177 0 8.7855928e-06 0 0)
(-0.98094279 -0.18108496 0 -8.2833454e-06 0 0)
(-0.96400416 -0.17900601 0 7.6900058e-06 0 0)
(-0.97989513 -0.18095834 0 -7.3424269e-06 0 0)
(-0.96495486 -0.17912459 0 6.8450765e-06 0 0)
(-0.97896819 -0.18084605 0 -6.4867679e-06 0 0)
(-0.96579932 -0.17922977 0 6.0882764e-06 0 0)
(-0.97814797 -0.18074655 0 -5.7468655e-06 0 0)
(-0.96655 -0.17932315 0 5.4109673e-06 0 0)
(-0.97742147 -0.18065828 0 -5.1021602e-06 0 0)
(-0.96721772 -0.1794061 0 4.8111291e-06 0 0)
(-0.97677712 -0.18057988 0 -4.5374634e-06 0 0)
(-0.9678122 -0.17947987 0 4.2829784e-06 0 0)
(-0.97620474 -0.18051014 0 -4.0423917e-06 0 0)
(-0.96834215 -0.17954556 0 3.8195364e-06 0 0)
(-0.97569535 -0.18044799 0 -3.608915e-06 0 0)
(-0.96881536 -0.17960418 0 3.414066e-06 0 0)
(-0.97524101 -0.18039249 0 -3.2303238e-06 0 0)
(-0.96923886 -0.1796566 0 3.0604985e-06 0 0)
(-0.97483466 -0.1803428 0 -2.9008515e-06 0 0)
(-0.96961893 -0.17970362 0 2.7535017e-06 0 0)
(-0.97447 -0.18029815 0 -2.6155146e-06 0 0)
(-0.96996123 -0.17974596 0 2.4884489e-06 0 0)
(-0.9741414 -0.18025787 0 -2.3700247e-06 0 0)
(-0.97027087 -0.17978426 0 2.2613712e-06 0 0)
(-0.97384381 -0.18022134 0 -2.1607318e-06 0 0)
(-0.97055249 -0.17981909 0 2.0689179e-06 0 0)
(-0.97357265 -0.18018802 0 -1.9845926e-06 0 0)
(-0.97081031 -0.17985098 0 1.908341e-06 0 0)
(-0.97332376 -0.18015739 0 -1.8391679e-06 0 0)
(-0.97104819 -0.17988042 0 1.7775465e-06 0 0)
(-0.97309333 -0.18012899 0 -1.7226241e-06 0 0)
(-0.97126973 -0.17990786 0 1.6752001e-06 0 0)