/*--------------------------------*- C++ -*----------------------------------*\
| =========                 |                                                 |
| \\      /  F ield         | OpenFOAM: The Open Source CFD Toolbox           |
|  \\    /   O peration     | Version:  2312                                  |
|   \\  /    A nd           | Website:  www.openfoam.com                      |
|    \\/     M anipulation  |                                                 |
\*---------------------------------------------------------------------------*/
FoamFile
{
    version     2.0;
    format      ascii;
    arch        "LSB;label=32;scalar=64";
    class       volVectorField;
    location    "8";
    object      U;
}
// * * * * * * * * * * * * * * * * * * * * * * * * * * * * * * * * * * * * * //

dimensions      [0 1 -1 0 0 0 0];

internalField   nonuniform List<vector> 
4000
(
(0.0023142109 0.00042295567 0)
(0.0030380472 -6.4750861e-06 0)
(0.0024290456 -3.6680217e-07 0)
(0.0025689265 2.2335536e-07 0)
(0.0024867115 -2.6083485e-07 0)
(0.0025432584 2.3529123e-07 0)
(0.0024909055 -2.2210578e-07 0)
(0.0025384298 2.0855551e-07 0)
(0.0024941644 -1.9575444e-07 0)
(0.0025355442 1.8412489e-07 0)
(0.0024966932 -1.7326847e-07 0)
(0.0025331423 1.6301212e-07 0)
(0.0024988993 -1.5345082e-07 0)
(0.0025310441 1.4443526e-07 0)
(0.002500859 -1.3599196e-07 0)
(0.002529191 1.2805942e-07 0)
(0.0025025991 -1.2061706e-07 0)
(0.0025275494 1.1363823e-07 0)
(0.0025041435 -1.0708792e-07 0)
(0.0025260929 1.009528e-07 0)
(0.0025055151 -9.5195396e-08 0)
(0.0025247989 8.9808379e-08 0)
(0.0025067345 -8.4755691e-08 0)
(0.0025236475 8.0033278e-08 0)
(0.0025078205 -7.5607697e-08 0)
(0.002522621 7.1476955e-08 0)
(0.0025087898 -6.7610582e-08 0)
(0.0025217036 6.4007936e-08 0)
(0.0025096572 -6.0641584e-08 0)
(0.0025208812 5.7511757e-08 0)
(0.0025104361 -5.459401e-08 0)
(0.0025201414 5.1889105e-08 0)
(0.0025111383 -4.9375488e-08 0)
(0.0025194728 4.70542e-08 0)
(0.0025117746 -4.4906461e-08 0)
(0.0025188652 4.2933411e-08 0)
(0.0025123546 -4.1118926e-08 0)
(0.0025183096 3.9464114e-08 0)
(0.002512887 -3.7955407e-08 0)
(0.0025177974 3.6593796e-08 0)
(0.0025133801 -3.5368188e-08 0)
(0.0025173209 3.4279468e-08 0)
(0.0025138412 -3.3318904e-08 0)
(0.0025168728 3.2487381e-08 0)
(0.0025142771 -3.178014e-08 0)
(0.0025164458 3.1190679e-08 0)
(0.0025146945 -3.0743209e-08 0)
(0.002516046 3.0403059e-08 0)
(0.0025151751 -2.9942614e-08 0)
(0.0025159517 3.2032964e-08 0)
(0.0061948974 0.0011490154 0)
(0.008552032 -2.2579366e-07 0)
(0.0071249238 4.8779242e-06 0)
(0.0074445313 3.1802308e-07 0)
(0.0072182517 -6.064314e-07 0)
(0.0073831587 8.1653097e-07 0)
(0.0072294087 -7.5612948e-07 0)
(0.0073698768 7.2756346e-07 0)
(0.007239066 -6.8731622e-07 0)
(0.0073615006 6.4904284e-07 0)
(0.0072465543 -6.1049362e-07 0)
(0.0073544129 5.7523874e-07 0)
(0.0072530913 -5.4114706e-07 0)
(0.0073482059 5.0961047e-07 0)
(0.0072588983 -4.7970606e-07 0)
(0.007342722 4.5179702e-07 0)
(0.0072640546 -4.2552108e-07 0)
(0.0073378632 4.0092079e-07 0)
(0.0072686314 -3.7782015e-07 0)
(0.0073335517 3.5618007e-07 0)
(0.0072726966 -3.3588304e-07 0)
(0.0073297204 3.1687746e-07 0)
(0.007276312 -2.9906684e-07 0)
(0.00732631 2.8240471e-07 0)
(0.007279533 -2.668054e-07 0)
(0.0073232682 2.522307e-07 0)
(0.007282409 -2.3860312e-07 0)
(0.0073205484 2.2589213e-07 0)
(0.0072849841 -2.1402774e-07 0)
(0.0073181091 2.0298574e-07 0)
(0.0072872977 -1.927034e-07 0)
(0.007315913 1.8316156e-07 0)
(0.0072893851 -1.7430453e-07 0)
(0.0073139266 1.6611715e-07 0)
(0.0072912781 -1.5855054e-07 0)
(0.00731212 1.515927e-07 0)
(0.0072930054 -1.4520133e-07 0)
(0.0073104655 1.3936693e-07 0)
(0.0072945933 -1.3405355e-07 0)
(0.0073089381 1.2925366e-07 0)
(0.0072960659 -1.2493761e-07 0)
(0.0073075147 1.2109917e-07 0)
(0.0072974455 -1.1771468e-07 0)
(0.0073061736 1.1478389e-07 0)
(0.0072987527 -1.1226807e-07 0)
(0.007304892 1.102145e-07 0)
(0.0073000052 -1.0867425e-07 0)
(0.0073036686 1.0643965e-07 0)
(0.0073013734 -1.1044323e-07 0)
(0.0073032029 1.0221032e-07 0)
(0.010108606 0.0018712856 0)
(0.013784345 -6.5651051e-06 0)
(0.011699452 1.2265766e-05 0)
(0.01219525 4.9799149e-07 0)
(0.011823917 -9.3506483e-07 0)
(0.012101329 1.4779319e-06 0)
(0.011843443 -1.3612341e-06 0)
(0.012079967 1.3173486e-06 0)
(0.011859832 -1.2488228e-06 0)
(0.012065998 1.1802767e-06 0)
(0.011872453 -1.1101361e-06 0)
(0.01205408 1.046486e-06 0)
(0.01188347 -9.8427725e-07 0)
(0.01204363 9.270301e-07 0)
(0.011893255 -8.72589e-07 0)
(0.012034395 8.2183035e-07 0)
(0.011901942 -7.7404519e-07 0)
(0.012026213 7.2927768e-07 0)
(0.011909653 -6.8727998e-07 0)
(0.012018952 6.4789305e-07 0)
(0.011916502 -6.1099368e-07 0)
(0.012012499 5.7640075e-07 0)
(0.011922594 -5.440199e-07 0)
(0.012006754 5.1369254e-07 0)
(0.011928023 -4.8532984e-07 0)
(0.012001629 4.5880214e-07 0)
(0.011932871 -4.3402248e-07 0)
(0.011997045 4.1088706e-07 0)
(0.011937212 -3.8931175e-07 0)
(0.011992933 3.6921395e-07 0)
(0.011941114 -3.5051405e-07 0)
(0.011989231 3.3314632e-07 0)
(0.011944635 -3.1703707e-07 0)
(0.01198588 3.0213394e-07 0)
(0.01194783 -2.8837015e-07 0)
(0.011982832 2.757039e-07 0)
(0.011950746 -2.6407604e-07 0)
(0.011980039 2.5345309e-07 0)
(0.011953428 -2.4378399e-07 0)
(0.011977459 2.3504173e-07 0)
(0.011955917 -2.2718398e-07 0)
(0.011975053 2.2018798e-07 0)
(0.01195825 -2.1402039e-07 0)
(0.011972784 2.0867174e-07 0)
(0.011960464 -2.0406458e-07 0)
(0.011970613 2.0033282e-07 0)
(0.011962586 -1.9744776e-07 0)
(0.011968526 1.9302038e-07 0)
(0.011964857 -2.0310448e-07 0)
(0.011967578 1.8463657e-07 0)
(0.013744598 0.0024665809 0)
(0.018815322 -2.0948612e-05 0)
(0.016155729 2.2734303e-05 0)
(0.016820507 5.1215063e-07 0)
(0.016303686 -1.0793301e-06 0)
(0.016698002 2.0990153e-06 0)
(0.016332831 -1.9314684e-06 0)
(0.016668916 1.8779498e-06 0)
(0.016356291 -1.7883355e-06 0)
(0.016649234 1.6914169e-06 0)
(0.016374235 -1.5909408e-06 0)
(0.016632321 1.5003849e-06 0)
(0.016389896 -1.4109369e-06 0)
(0.016617476 1.3290268e-06 0)
(0.016403803 -1.2509367e-06 0)
(0.016604355 1.1781658e-06 0)
(0.016416148 -1.1096971e-06 0)
(0.016592728 1.0454761e-06 0)
(0.016427106 -9.8531795e-07 0)
(0.01658241 9.2880649e-07 0)
(0.01643684 -8.7595228e-07 0)
(0.016573239 8.2631801e-07 0)
(0.016445498 -7.7993302e-07 0)
(0.016565074 7.3641971e-07 0)
(0.016453213 -6.9578715e-07 0)
(0.01655779 6.5772639e-07 0)
(0.016460104 -6.2222386e-07 0)
(0.016551275 5.8903082e-07 0)
(0.016466275 -5.5811677e-07 0)
(0.01654543 5.2928222e-07 0)
(0.016471822 -5.024861e-07 0)
(0.016540166 4.7756837e-07 0)
(0.016476828 -4.5448273e-07 0)
(0.016535402 4.3310056e-07 0)
(0.01648137 -4.1337442e-07 0)
(0.016531067 3.952007e-07 0)
(0.016485517 -3.7853399e-07 0)
(0.016527095 3.6329052e-07 0)
(0.016489332 -3.4942927e-07 0)
(0.016523425 3.3688216e-07 0)
(0.016492873 -3.2561478e-07 0)
(0.016520001 3.1556982e-07 0)
(0.016496194 -3.0672163e-07 0)
(0.016516772 2.9903734e-07 0)
(0.016499346 -2.9240289e-07 0)
(0.016513681 2.8707574e-07 0)
(0.016502369 -2.8285042e-07 0)
(0.016510695 2.7600206e-07 0)
(0.016505555 -2.946584e-07 0)
(0.016509151 2.6368711e-07 0)
(0.017676475 0.0031460516 0)
(0.023603389 -3.2013184e-05 0)
(0.020485153 3.5209161e-05 0)
(0.021320178 3.2726635e-07 0)
(0.020657512 -1.0462556e-06 0)
(0.021173076 2.6459321e-06 0)
(0.020697695 -2.4454012e-06 0)
(0.021136596 2.3850104e-06 0)
(0.020728543 -2.2840134e-06 0)
(0.021111098 2.1614177e-06 0)
(0.020751988 -2.0331538e-06 0)
(0.02108904 1.9183117e-06 0)
(0.020772445 -1.803574e-06 0)
(0.021069659 1.6991063e-06 0)
(0.020790608 -1.5991863e-06 0)
(0.021052526 1.5061828e-06 0)
(0.02080673 -1.4186724e-06 0)
(0.021037344 1.3365422e-06 0)
(0.020821039 -1.2596782e-06 0)
(0.021023869 1.1873939e-06 0)
(0.02083375 -1.1198645e-06 0)
(0.021011893 1.0563744e-06 0)
(0.020845056 -9.9710732e-07 0)
(0.021001231 9.4144709e-07 0)
(0.020855132 -8.8952623e-07 0)
(0.020991718 8.4084138e-07 0)
(0.020864131 -7.9547243e-07 0)
(0.02098321 7.5301468e-07 0)
(0.02087219 -7.1350669e-07 0)
(0.020975576 6.7662432e-07 0)
(0.020879434 -6.4237682e-07 0)
(0.020968702 6.1050452e-07 0)
(0.020885972 -5.809974e-07 0)
(0.020962481 5.536471e-07 0)
(0.020891904 -5.2843222e-07 0)
(0.02095682 5.0518514e-07 0)
(0.02089732 -4.8387916e-07 0)
(0.020951632 4.6437903e-07 0)
(0.020902302 -4.4665734e-07 0)
(0.020946839 4.3060438e-07 0)
(0.020906926 -4.1619631e-07 0)
(0.020942369 4.0334076e-07 0)
(0.020911263 -3.9202223e-07 0)
(0.020938151 3.8218393e-07 0)
(0.020915379 -3.7366846e-07 0)
(0.020934114 3.6689923e-07 0)
(0.020919328 -3.6137113e-07 0)
(0.020930204 3.5207752e-07 0)
(0.020923442 -3.8107397e-07 0)
(0.020927968 3.361256e-07 0)
(0.020945288 0.0035422474 0)
(0.02816969 -5.8279248e-05 0)
(0.024697948 4.941628e-05 0)
(0.025692728 2.4724737e-08 0)
(0.024885813 -8.6056992e-07 0)
(0.025526205 3.1163648e-06 0)
(0.024938457 -2.9084057e-06 0)
(0.025482655 2.8402737e-06 0)
(0.024976934 -2.7384781e-06 0)
(0.025451271 2.592278e-06 0)
(0.025006013 -2.4387629e-06 0)
(0.025423956 2.302048e-06 0)
(0.025031383 -2.1639016e-06 0)
(0.025399932 2.0388562e-06 0)
(0.025053905 -1.9188481e-06 0)
(0.025378691 1.8072928e-06 0)
(0.025073893 -1.7023087e-06 0)
(0.025359867 1.6037293e-06 0)
(0.025091634 -1.5115471e-06 0)
(0.025343161 1.4247689e-06 0)
(0.025107393 -1.3437845e-06 0)
(0.025328313 1.2675606e-06 0)
(0.025121412 -1.1964812e-06 0)
(0.025315092 1.1296579e-06 0)
(0.025133903 -1.0673846e-06 0)
(0.025303298 1.0089366e-06 0)
(0.02514506 -9.5451786e-07 0)
(0.025292749 9.0354662e-07 0)
(0.025155053 -8.5615492e-07 0)
(0.025283285 8.1187762e-07 0)
(0.025164034 -7.707937e-07 0)
(0.025274762 7.3253121e-07 0)
(0.025172139 -6.9713187e-07 0)
(0.02526705 6.6429779e-07 0)
(0.025179492 -6.3404588e-07 0)
(0.025260033 6.0613699e-07 0)
(0.025186205 -5.8057285e-07 0)
(0.025253603 5.571609e-07 0)
(0.02519238 -5.3589506e-07 0)
(0.025247662 5.1661939e-07 0)
(0.025198111 -4.9932673e-07 0)
(0.025242122 4.8388577e-07 0)
(0.025203485 -4.7029648e-07 0)
(0.025236895 4.5847406e-07 0)
(0.025208586 -4.482159e-07 0)
(0.025231894 4.4014353e-07 0)
(0.02521348 -4.3333436e-07 0)
(0.02522704 4.2162394e-07 0)
(0.025218529 -4.6222605e-07 0)
(0.025224032 4.0192148e-07 0)
(0.024955782 0.0042156151 0)
(0.032512702 -7.0655646e-05 0)
(0.028788573 6.447817e-05 0)
(0.029936191 -3.4029646e-07 0)
(0.028988521 -5.6706181e-07 0)
(0.029756979 3.5039206e-06 0)
(0.029055559 -3.3275239e-06 0)
(0.029706716 3.246837e-06 0)
(0.029101825 -3.1555303e-06 0)
(0.029669415 2.9871377e-06 0)
(0.029136628 -2.8108132e-06 0)
(0.029636769 2.6543817e-06 0)
(0.029166992 -2.4945695e-06 0)
(0.02960803 2.3507534e-06 0)
(0.029193941 -2.2122628e-06 0)
(0.029582617 2.0836951e-06 0)
(0.029217858 -1.9626797e-06 0)
(0.029560094 1.8489898e-06 0)
(0.029239084 -1.742765e-06 0)
(0.029540105 1.6426659e-06 0)
(0.02925794 -1.5493479e-06 0)
(0.029522338 1.4614198e-06 0)
(0.029274713 -1.3795113e-06 0)
(0.029506519 1.3024278e-06 0)
(0.029289659 -1.2306622e-06 0)
(0.029492406 1.1632414e-06 0)
(0.029303009 -1.1005235e-06 0)
(0.029479785 1.0417286e-06 0)
(0.029314964 -9.8710618e-07 0)
(0.029468461 9.3603358e-07 0)
(0.029325709 -8.8867871e-07 0)
(0.029458264 8.445445e-07 0)
(0.029335406 -8.0373969e-07 0)
(0.029449038 7.6586687e-07 0)
(0.029344202 -7.3099346e-07 0)
(0.029440643 6.9880098e-07 0)
(0.029352232 -6.6932937e-07 0)
(0.029432952 6.4232258e-07 0)
(0.029359617 -6.1780369e-07 0)
(0.029425848 5.9556561e-07 0)
(0.029366471 -5.7562411e-07 0)
(0.029419222 5.5780465e-07 0)
(0.029372897 -5.4212825e-07 0)
(0.029412973 5.2847712e-07 0)
(0.029378996 -5.1660424e-07 0)
(0.029406994 5.0735353e-07 0)
(0.029384847 -4.9927434e-07 0)
(0.029401187 4.852252e-07 0)
(0.029390834 -5.3823519e-07 0)
(0.029397339 4.6142106e-07 0)
(0.027891697 0.0044278529 0)
(0.036615287 -0.00011069837 0)
(0.032768304 7.9340291e-05 0)
(0.03404849 -5.2533541e-07 0)
(0.032965707 -1.79169e-07 0)
(0.033865104 3.8030678e-06 0)
(0.033049419 -3.7053309e-06 0)
(0.033808467 3.6049117e-06 0)
(0.033103542 -3.5359611e-06 0)
(0.033765234 3.3464019e-06 0)
(0.033144115 -3.149757e-06 0)
(0.033727217 2.9756669e-06 0)
(0.033179518 -2.7959336e-06 0)
(0.033693723 2.6351194e-06 0)
(0.033210936 -2.4797365e-06 0)
(0.033664098 2.3356772e-06 0)
(0.033238815 -2.2000545e-06 0)
(0.033637843 2.0725788e-06 0)
(0.033263559 -1.95357e-06 0)
(0.03361454 1.8413112e-06 0)
(0.03328554 -1.7367661e-06 0)
(0.033593828 1.6381533e-06 0)
(0.033305092 -1.546386e-06 0)
(0.033575387 1.4599366e-06 0)
(0.033322516 -1.3795279e-06 0)
(0.033558935 1.303917e-06 0)
(0.033338077 -1.2336415e-06 0)
(0.033544221 1.167706e-06 0)
(0.033352013 -1.106498e-06 0)
(0.033531022 1.049224e-06 0)
(0.033364538 -9.9615704e-07 0)
(0.033519135 9.4666464e-07 0)
(0.03337584 -9.0093561e-07 0)
(0.033508382 8.5846495e-07 0)
(0.033386092 -8.1938108e-07 0)
(0.033498598 7.8327985e-07 0)
(0.03339545 -7.5024786e-07 0)
(0.033489635 7.1996055e-07 0)
(0.033404056 -6.9247698e-07 0)
(0.033481357 6.6753489e-07 0)
(0.033412042 -6.4517838e-07 0)
(0.033473637 6.2518629e-07 0)
(0.033419529 -6.0760547e-07 0)
(0.033466357 5.9228069e-07 0)
(0.033426632 -5.7892291e-07 0)
(0.033459395 5.6861618e-07 0)
(0.033433447 -5.5928386e-07 0)
(0.033452627 5.4301894e-07 0)
(0.033440372 -6.0886683e-07 0)
(0.033447886 5.1466288e-07 0)
(0.031917193 0.0050591574 0)
(0.040524571 -0.00012131341 0)
(0.036630471 9.4618036e-05 0)
(0.038028784 -9.469034e-07 0)
(0.036817076 1.4457661e-07 0)
(0.037850292 3.9787017e-06 0)
(0.036920409 -4.0452914e-06 0)
(0.037787643 3.9142211e-06 0)
(0.036982373 -3.8793338e-06 0)
(0.037738473 3.6697803e-06 0)
(0.03702872 -3.4551941e-06 0)
(0.03769507 3.2655364e-06 0)
(0.037069178 -3.0676393e-06 0)
(0.037656805 2.8916201e-06 0)
(0.037105079 -2.720952e-06 0)
(0.037622956 2.5629424e-06 0)
(0.037136935 -2.4141498e-06 0)
(0.037592956 2.2742324e-06 0)
(0.037165208 -2.1437095e-06 0)
(0.037566328 2.0204699e-06 0)
(0.037190323 -1.9058146e-06 0)
(0.03754266 1.7975517e-06 0)
(0.037212664 -1.6969056e-06 0)
(0.037521588 1.6019977e-06 0)
(0.037232573 -1.5138039e-06 0)
(0.037502788 1.4307972e-06 0)
(0.037250354 -1.3537132e-06 0)
(0.037485976 1.2813304e-06 0)
(0.037266278 -1.214189e-06 0)
(0.037470894 1.1513161e-06 0)
(0.037280587 -1.0931023e-06 0)
(0.037457313 1.0387728e-06 0)
(0.0372935 -9.8860635e-07 0)
(0.037445027 9.4198527e-07 0)
(0.037305213 -8.9910686e-07 0)
(0.03743385 8.5947736e-07 0)
(0.037315903 -8.2323635e-07 0)
(0.037423611 7.8998774e-07 0)
(0.037325734 -7.5983162e-07 0)
(0.037414155 7.3244815e-07 0)
(0.037334854 -7.0791383e-07 0)
(0.037405339 6.8595879e-07 0)
(0.037343404 -6.6665934e-07 0)
(0.037397026 6.4981936e-07 0)
(0.037351515 -6.3511129e-07 0)
(0.037389078 6.2387095e-07 0)
(0.037359297 -6.1331333e-07 0)
(0.037381349 5.9499136e-07 0)
(0.037367155 -6.7379002e-07 0)
(0.037375671 5.6162643e-07 0)
(0.034728037 0.0051745879 0)
(0.044176315 -0.00017435575 0)
(0.04037697 0.00010865754 0)
(0.041880328 -1.7049691e-06 0)
(0.040544173 3.1470109e-07 0)
(0.041712315 3.9973433e-06 0)
(0.040668804 -4.3561388e-06 0)
(0.041643977 4.1726483e-06 0)
(0.040738565 -4.1861921e-06 0)
(0.041588897 3.9569731e-06 0)
(0.040790663 -3.7270338e-06 0)
(0.041540121 3.5238074e-06 0)
(0.040836166 -3.3095435e-06 0)
(0.041497095 3.1201061e-06 0)
(0.040876542 -2.9357719e-06 0)
(0.04145903 2.7653605e-06 0)
(0.040912367 -2.6048407e-06 0)
(0.041425291 2.4538348e-06 0)
(0.040944163 -2.3130714e-06 0)
(0.041395344 2.1800384e-06 0)
(0.040972407 -2.0563929e-06 0)
(0.041368725 1.9395226e-06 0)
(0.040997533 -1.8309807e-06 0)
(0.041345025 1.7285286e-06 0)
(0.041019923 -1.6334106e-06 0)
(0.041323883 1.5438083e-06 0)
(0.041039919 -1.4606679e-06 0)
(0.041304974 1.3825361e-06 0)
(0.041057827 -1.310116e-06 0)
(0.041288013 1.2422514e-06 0)
(0.041073919 -1.1794582e-06 0)
(0.04127274 1.1208165e-06 0)
(0.041088439 -1.0667016e-06 0)
(0.041258925 1.0163808e-06 0)
(0.04110161 -9.701257e-07 0)
(0.041246357 9.2735119e-07 0)
(0.04111363 -8.8825431e-07 0)
(0.041234845 8.5236602e-07 0)
(0.041124682 -8.1983107e-07 0)
(0.041224214 7.9027099e-07 0)
(0.041134935 -7.6379753e-07 0)
(0.041214303 7.4009119e-07 0)
(0.041144545 -7.1926038e-07 0)
(0.041204959 7.0106553e-07 0)
(0.041153661 -6.8514493e-07 0)
(0.041196029 6.730919e-07 0)
(0.041162407 -6.6134803e-07 0)
(0.041187343 6.4115214e-07 0)
(0.041171191 -7.3273954e-07 0)
(0.041180694 6.0236065e-07 0)
(0.038648646 0.0056720141 0)
(0.047691829 -0.00018508512 0)
(0.043989934 0.00012264669 0)
(0.045608888 -1.5739291e-06 0)
(0.044150671 5.8207498e-07 0)
(0.045451402 3.9242565e-06 0)
(0.044295005 -4.62205e-06 0)
(0.045377266 4.3851589e-06 0)
(0.04437235 -4.4556059e-06 0)
(0.045316297 4.2084969e-06 0)
(0.044430142 -3.9653291e-06 0)
(0.045262185 3.7506227e-06 0)
(0.044480657 -3.5217503e-06 0)
(0.04521443 3.3206811e-06 0)
(0.044525479 -3.1242897e-06 0)
(0.045172175 2.9430215e-06 0)
(0.044565248 -2.7722085e-06 0)
(0.04513472 2.6114648e-06 0)
(0.044600544 -2.461727e-06 0)
(0.045101474 2.320086e-06 0)
(0.044631898 -2.1885642e-06 0)
(0.045071923 2.0641273e-06 0)
(0.04465979 -1.9486673e-06 0)
(0.045045613 1.8395837e-06 0)
(0.044684645 -1.7383981e-06 0)
(0.045022141 1.642999e-06 0)
(0.044706843 -1.5545506e-06 0)
(0.04500115 1.4713667e-06 0)
(0.044726723 -1.3943198e-06 0)
(0.044982321 1.3220691e-06 0)
(0.044744585 -1.2552616e-06 0)
(0.044965368 1.1928314e-06 0)
(0.044760704 -1.135255e-06 0)
(0.044950032 1.0816841e-06 0)
(0.044775323 -1.0324686e-06 0)
(0.044936081 9.8693152e-07 0)
(0.044788664 -9.4533051e-07 0)
(0.044923304 9.0712354e-07 0)
(0.04480093 -8.7250244e-07 0)
(0.044911507 8.4103009e-07 0)
(0.044812308 -8.1285544e-07 0)
(0.044900508 7.8760936e-07 0)
(0.044822972 -7.6543411e-07 0)
(0.044890141 7.4604497e-07 0)
(0.044833086 -7.2905114e-07 0)
(0.044880234 7.1630346e-07 0)
(0.044842788 -7.0342369e-07 0)
(0.044870601 6.8155278e-07 0)
(0.044852488 -7.8552915e-07 0)
(0.044862956 6.3698512e-07 0)
(0.041569508 0.0057726844 0)
(0.05096872 -0.00024419346 0)
(0.047475474 0.00013278323 0)
(0.049212908 -1.4733111e-06 0)
(0.047638291 7.811497e-07 0)
(0.049067413 3.7357022e-06 0)
(0.047799246 -4.8521334e-06 0)
(0.048987302 4.5505194e-06 0)
(0.047883929 -4.6885159e-06 0)
(0.048920486 4.4245742e-06 0)
(0.047947337 -4.1704516e-06 0)
(0.048861094 3.9462459e-06 0)
(0.048002809 -3.7045364e-06 0)
(0.048808659 3.4935909e-06 0)
(0.04805203 -3.286741e-06 0)
(0.048762259 3.0961455e-06 0)
(0.048095701 -2.9164591e-06 0)
(0.048721128 2.7473175e-06 0)
(0.04813446 -2.589858e-06 0)
(0.048684618 2.4407857e-06 0)
(0.048168891 -2.3024895e-06 0)
(0.048652165 2.1715192e-06 0)
(0.048199521 -2.0501086e-06 0)
(0.048623271 1.9352997e-06 0)
(0.048226815 -1.8288943e-06 0)
(0.048597494 1.7284911e-06 0)
(0.048251192 -1.6354758e-06 0)
(0.048574443 1.5479315e-06 0)
(0.048273021 -1.4669031e-06 0)
(0.048553766 1.3908675e-06 0)
(0.048292637 -1.3206051e-06 0)
(0.048535149 1.2549063e-06 0)
(0.048310336 -1.1943505e-06 0)
(0.048518309 1.1379759e-06 0)
(0.048326388 -1.086212e-06 0)
(0.048502991 1.0382919e-06 0)
(0.048341036 -9.9453528e-07 0)
(0.048488962 9.5432818e-07 0)
(0.048354503 -9.1791093e-07 0)
(0.048476009 8.8478876e-07 0)
(0.048366995 -8.5514883e-07 0)
(0.048463935 8.2857321e-07 0)
(0.048378701 -8.0523906e-07 0)
(0.048452555 7.8481551e-07 0)
(0.048389803 -7.6688836e-07 0)
(0.048441683 7.5356064e-07 0)
(0.048400452 -7.3960678e-07 0)
(0.048431114 7.1626947e-07 0)
(0.048411054 -8.3203188e-07 0)
(0.048422457 6.6566623e-07 0)
(0.045348587 0.0061185771 0)
(0.054152997 -0.00025195753 0)
(0.050835249 0.00014252276 0)
(0.052690864 -1.9282008e-06 0)
(0.051006408 7.8332444e-07 0)
(0.05256016 3.4247936e-06 0)
(0.051181732 -5.0494263e-06 0)
(0.052473923 4.6699782e-06 0)
(0.051273496 -4.8851001e-06 0)
(0.0524013 4.6058989e-06 0)
(0.051342409 -4.3427543e-06 0)
(0.052336697 4.1111125e-06 0)
(0.051402764 -3.8582647e-06 0)
(0.052279651 3.6391942e-06 0)
(0.051456321 -3.4234545e-06 0)
(0.052229165 3.2250462e-06 0)
(0.051503837 -3.0378842e-06 0)
(0.05218441 2.8616701e-06 0)
(0.051546008 -2.6977229e-06 0)
(0.052144683 2.5423831e-06 0)
(0.051583472 -2.3983985e-06 0)
(0.05210937 2.2619166e-06 0)
(0.051616799 -2.1355092e-06 0)
(0.052077929 2.0158708e-06 0)
(0.051646498 -1.9050814e-06 0)
(0.052049881 1.8004582e-06 0)
(0.051673021 -1.7036064e-06 0)
(0.052024799 1.6123857e-06 0)
(0.051696774 -1.5280121e-06 0)
(0.0520023 1.448786e-06 0)
(0.051718116 -1.3756206e-06 0)
(0.051982043 1.3071668e-06 0)
(0.051737373 -1.2441073e-06 0)
(0.051963721 1.1853699e-06 0)
(0.051754838 -1.1314644e-06 0)
(0.051947055 1.0815364e-06 0)
(0.051770774 -1.0359679e-06 0)
(0.051931792 9.9407553e-07 0)
(0.051785426 -9.5614836e-07 0)
(0.051917701 9.216358e-07 0)
(0.051799014 -8.9076351e-07 0)
(0.051904566 8.6306637e-07 0)
(0.051811748 -8.3875666e-07 0)
(0.051892188 8.1745729e-07 0)
(0.051823822 -7.9873654e-07 0)
(0.051880366 7.8493965e-07 0)
(0.051835405 -7.6998479e-07 0)
(0.051868876 7.4539472e-07 0)
(0.051846893 -8.7216877e-07 0)
(0.051859197 6.8860309e-07 0)
(0.048329077 0.006198172 0)
(0.057107167 -0.00031278948 0)
(0.054072472 0.00014845188 0)
(0.056044546 -2.1897927e-06 0)
(0.054255496 7.55252e-07 0)
(0.055929718 3.0486942e-06 0)
(0.054442659 -5.2038661e-06 0)
(0.055836966 4.7469122e-06 0)
(0.054541212 -5.0453413e-06 0)
(0.055758584 4.7532277e-06 0)
(0.054615503 -4.4827598e-06 0)
(0.055688861 4.2457288e-06 0)
(0.05468065 -3.9834142e-06 0)
(0.055627285 3.7579363e-06 0)
(0.054738462 -3.5348509e-06 0)
(0.055572787 3.3301193e-06 0)
(0.054789753 -3.1368549e-06 0)
(0.055524474 2.9548737e-06 0)
(0.054835276 -2.7856504e-06 0)
(0.055481588 2.6251899e-06 0)
(0.054875717 -2.4765831e-06 0)
(0.055443466 2.3355965e-06 0)
(0.054911693 -2.2051289e-06 0)
(0.055409525 2.0815438e-06 0)
(0.054943752 -1.9671914e-06 0)
(0.055379246 1.8591203e-06 0)
(0.054972384 -1.7591498e-06 0)
(0.055352169 1.6649262e-06 0)
(0.054998024 -1.5778327e-06 0)
(0.055327882 1.4960012e-06 0)
(0.055021063 -1.4204751e-06 0)
(0.055306015 1.3497722e-06 0)
(0.05504185 -1.2846765e-06 0)
(0.055286237 1.2240106e-06 0)
(0.055060701 -1.1683631e-06 0)
(0.055268247 1.1167964e-06 0)
(0.055077903 -1.0697541e-06 0)
(0.055251772 1.0264864e-06 0)
(0.055093717 -9.8733071e-07 0)
(0.055236563 9.5168326e-07 0)
(0.055108383 -9.1980768e-07 0)
(0.055222387 8.9119401e-07 0)
(0.055122126 -8.6608923e-07 0)
(0.055209029 8.4407067e-07 0)
(0.055135155 -8.2469513e-07 0)
(0.055196274 8.1053585e-07 0)
(0.055147654 -7.9466386e-07 0)
(0.055183881 7.6903593e-07 0)
(0.05516001 -9.0590436e-07 0)
(0.055173178 7.0601998e-07 0)
(0.051935419 0.0064087374 0)
(0.060003824 -0.00031989922 0)
(0.057186082 0.0001545185 0)
(0.059275339 -2.4575013e-06 0)
(0.057384779 6.2019267e-07 0)
(0.059175887 2.6027819e-06 0)
(0.05758214 -5.3173865e-06 0)
(0.059076263 4.781955e-06 0)
(0.057687213 -5.1699118e-06 0)
(0.058992199 4.8673366e-06 0)
(0.057766746 -4.5910782e-06 0)
(0.058917463 4.3507197e-06 0)
(0.057836578 -4.0805432e-06 0)
(0.058851455 3.8503569e-06 0)
(0.057898554 -3.6214302e-06 0)
(0.058793032 3.4118401e-06 0)
(0.057953539 -3.2138152e-06 0)
(0.058741238 3.0273491e-06 0)
(0.05800234 -2.8540348e-06 0)
(0.05869526 2.6895793e-06 0)
(0.058045695 -2.5373937e-06 0)
(0.05865439 2.3928907e-06 0)
(0.058084262 -2.2592795e-06 0)
(0.058618002 2.1326141e-06 0)
(0.058118631 -2.0155023e-06 0)
(0.05858554 1.9047411e-06 0)
(0.058149326 -1.8023546e-06 0)
(0.058556511 1.7057889e-06 0)
(0.058176813 -1.6165878e-06 0)
(0.058530473 1.5327251e-06 0)
(0.058201511 -1.4553692e-06 0)
(0.058507031 1.3829135e-06 0)
(0.058223796 -1.3162392e-06 0)
(0.058485828 1.2540707e-06 0)
(0.058244004 -1.1970726e-06 0)
(0.058466543 1.1442295e-06 0)
(0.058262445 -1.0960442e-06 0)
(0.058448882 1.0517054e-06 0)
(0.058279396 -1.0115967e-06 0)
(0.058432579 9.7506499e-07 0)
(0.058295117 -9.4241055e-07 0)
(0.058417384 9.1308161e-07 0)
(0.058309846 -8.8735869e-07 0)
(0.058403067 8.6477506e-07 0)
(0.058323811 -8.4488194e-07 0)
(0.058389399 8.3046276e-07 0)
(0.058337206 -8.1376742e-07 0)
(0.058376125 7.8731481e-07 0)
(0.05835041 -9.3324322e-07 0)
(0.058364402 7.1816017e-07 0)
(0.05496104 0.0064616052 0)
(0.062695364 -0.00037822466 0)
(0.060179877 0.00015555679 0)
(0.062385555 -2.8857125e-06 0)
(0.060394065 4.0421895e-07 0)
(0.062298659 2.1017905e-06 0)
(0.06060034 -5.3853767e-06 0)
(0.062191691 4.7775613e-06 0)
(0.060711634 -5.2590951e-06 0)
(0.062102028 4.9491855e-06 0)
(0.060796253 -4.6684171e-06 0)
(0.062022397 4.4267844e-06 0)
(0.060870651 -4.1503032e-06 0)
(0.061952067 3.9170698e-06 0)
(0.060936686 -3.6837694e-06 0)
(0.061889815 3.4707531e-06 0)
(0.060995272 -3.269276e-06 0)
(0.061834626 3.0795792e-06 0)
(0.061047271 -2.9033293e-06 0)
(0.061785634 2.7359803e-06 0)
(0.061093465 -2.5812331e-06 0)
(0.061742084 2.4341805e-06 0)
(0.06113456 -2.2983197e-06 0)
(0.061703309 2.1694213e-06 0)
(0.061171182 -2.0503339e-06 0)
(0.061668719 1.9376237e-06 0)
(0.061203888 -1.8335066e-06 0)
(0.061637787 1.7352451e-06 0)
(0.061233177 -1.6445336e-06 0)
(0.061610042 1.559201e-06 0)
(0.061259493 -1.4805333e-06 0)
(0.061585063 1.4068098e-06 0)
(0.061283237 -1.3390035e-06 0)
(0.061562471 1.2757488e-06 0)
(0.06130477 -1.217782e-06 0)
(0.061541922 1.1640164e-06 0)
(0.061324417 -1.1150112e-06 0)
(0.061523105 1.0698983e-06 0)
(0.061342478 -1.0291056e-06 0)
(0.061505735 9.919346e-07 0)
(0.061359228 -9.5872039e-07 0)
(0.061489546 9.2887299e-07 0)
(0.06137492 -9.0270474e-07 0)
(0.061474293 8.7970713e-07 0)
(0.061389796 -8.594314e-07 0)
(0.061459735 8.4485033e-07 0)
(0.061404066 -8.2743439e-07 0)
(0.061445603 8.0036623e-07 0)
(0.061418095 -9.5422639e-07 0)
(0.061432869 7.2528041e-07 0)
(0.058411076 0.0065526661 0)
(0.065358597 -0.00038184882 0)
(0.063054281 0.00015677277 0)
(0.065378682 -3.3842112e-06 0)
(0.063282657 1.1627788e-07 0)
(0.065297909 1.5447749e-06 0)
(0.063497371 -5.4064604e-06 0)
(0.065183122 4.7349952e-06 0)
(0.063614581 -5.3136693e-06 0)
(0.065087958 4.9997098e-06 0)
(0.063704123 -4.7155822e-06 0)
(0.065003567 4.4747026e-06 0)
(0.063782958 -4.1934159e-06 0)
(0.064929035 3.9587612e-06 0)
(0.063852937 -3.7225101e-06 0)
(0.064863063 3.5074654e-06 0)
(0.063915023 -3.3038067e-06 0)
(0.064804575 3.1121024e-06 0)
(0.063970128 -2.9340395e-06 0)
(0.064752652 2.7648708e-06 0)
(0.064019084 -2.6085508e-06 0)
(0.064706497 2.459891e-06 0)
(0.064062634 -2.3226495e-06 0)
(0.064665404 2.1923441e-06 0)
(0.064101445 -2.0720431e-06 0)
(0.064628745 1.9581061e-06 0)
(0.064136106 -1.8529247e-06 0)
(0.064595963 1.753597e-06 0)
(0.064167145 -1.6619558e-06 0)
(0.064566559 1.5757001e-06 0)
(0.064195035 -1.4962244e-06 0)
(0.064540086 1.4217056e-06 0)
(0.064220198 -1.3532016e-06 0)
(0.064516143 1.2892662e-06 0)
(0.064243017 -1.230702e-06 0)
(0.064494366 1.1763587e-06 0)
(0.064263838 -1.1268476e-06 0)
(0.064474425 1.0812501e-06 0)
(0.064282978 -1.0400349e-06 0)
(0.064456017 1.0024633e-06 0)
(0.064300727 -9.6890244e-07 0)
(0.064438862 9.3872836e-07 0)
(0.064317355 -9.1228299e-07 0)
(0.0644227 8.8901896e-07 0)
(0.064333117 -8.6849281e-07 0)
(0.064407276 8.5384324e-07 0)
(0.064348238 -8.3581727e-07 0)
(0.064392312 8.083369e-07 0)
(0.064363068 -9.6892774e-07 0)
(0.064378581 7.2764605e-07 0)
(0.061462088 0.0065719525 0)
(0.067840554 -0.0004346336 0)
(0.065805203 0.00015337492 0)
(0.068257181 -4.1781313e-06 0)
(0.066050857 -2.1928259e-07 0)
(0.068173688 9.2152473e-07 0)
(0.066273375 -5.3821476e-06 0)
(0.068050458 4.6547263e-06 0)
(0.066396157 -5.3347591e-06 0)
(0.067949895 5.0198131e-06 0)
(0.066490446 -4.7335019e-06 0)
(0.067860888 4.4953007e-06 0)
(0.066573576 -4.2106777e-06 0)
(0.067782286 3.9761753e-06 0)
(0.066647376 -3.7383541e-06 0)
(0.06771271 3.5226385e-06 0)
(0.066712853 -3.3180289e-06 0)
(0.067651025 3.1255058e-06 0)
(0.066770967 -2.9467172e-06 0)
(0.067596264 2.7767724e-06 0)
(0.066822596 -2.6198372e-06 0)
(0.067547586 2.470486e-06 0)
(0.066868526 -2.3327057e-06 0)
(0.067504246 2.2017954e-06 0)
(0.066909457 -2.0810193e-06 0)
(0.067465583 1.9665568e-06 0)
(0.066946012 -1.8609569e-06 0)
(0.067431008 1.7611745e-06 0)
(0.066978747 -1.6691664e-06 0)
(0.067399997 1.5825186e-06 0)
(0.06700816 -1.502723e-06 0)
(0.067372078 1.4278677e-06 0)
(0.067034698 -1.3590869e-06 0)
(0.067346826 1.2948644e-06 0)
(0.067058764 -1.2360628e-06 0)
(0.067323859 1.1814765e-06 0)
(0.067080722 -1.1317639e-06 0)
(0.067302829 1.0859626e-06 0)
(0.067100907 -1.0445785e-06 0)
(0.067283415 1.0068378e-06 0)
(0.067119625 -9.7313698e-07 0)
(0.067265324 9.4282249e-07 0)
(0.06713716 -9.1626311e-07 0)
(0.06724828 8.9287631e-07 0)
(0.067153781 -8.7222861e-07 0)
(0.067232019 8.5759928e-07 0)
(0.067169727 -8.390805e-07 0)
(0.067216249 8.1138416e-07 0)
(0.06718533 -9.7745074e-07 0)
(0.06720154 7.2552692e-07 0)
(0.064737699 0.006555971 0)
(0.070313066 -0.00043397386 0)
(0.068439469 0.00015033324 0)
(0.071017688 -4.8894027e-06 0)
(0.068698884 -5.0922341e-07 0)
(0.07092574 2.5669317e-07 0)
(0.068928445 -5.3025028e-06 0)
(0.07079358 4.5411038e-06 0)
(0.069056433 -5.3224625e-06 0)
(0.070687745 5.010787e-06 0)
(0.069155295 -4.7230761e-06 0)
(0.070594284 4.489491e-06 0)
(0.069242576 -4.2029385e-06 0)
(0.070511754 3.9701102e-06 0)
(0.069320065 -3.7320556e-06 0)
(0.070438699 3.5169816e-06 0)
(0.069388814 -3.3126107e-06 0)
(0.070373927 3.1204194e-06 0)
(0.069449834 -2.9419552e-06 0)
(0.070316426 2.7722447e-06 0)
(0.069504045 -2.6156193e-06 0)
(0.070265311 2.4664631e-06 0)
(0.069552272 -2.3289571e-06 0)
(0.070219801 2.1982187e-06 0)
(0.06959525 -2.0776805e-06 0)
(0.070179203 1.9633715e-06 0)
(0.069633634 -1.8579771e-06 0)
(0.070142898 1.7583316e-06 0)
(0.069668006 -1.6665003e-06 0)
(0.070110335 1.5799742e-06 0)
(0.069698891 -1.5003305e-06 0)
(0.070081018 1.4255825e-06 0)
(0.069726756 -1.3569316e-06 0)
(0.070054503 1.2928028e-06 0)
(0.069752026 -1.2341115e-06 0)
(0.070030387 1.1796059e-06 0)
(0.069775083 -1.1299859e-06 0)
(0.070008304 1.0842525e-06 0)
(0.069796277 -1.0429446e-06 0)
(0.06998792 1.0052588e-06 0)
(0.06981593 -9.7161768e-07 0)
(0.069968924 9.4134303e-07 0)
(0.069834341 -9.1482734e-07 0)
(0.069951029 8.9145706e-07 0)
(0.069851791 -8.7081299e-07 0)
(0.069933958 8.5628794e-07 0)
(0.069868534 -8.3739893e-07 0)
(0.069917412 8.0967484e-07 0)
(0.069884885 -9.7992547e-07 0)
(0.069901747 7.1919397e-07 0)
(0.067769493 0.0065365857 0)
(0.072623206 -0.00047836816 0)
(0.070960522 0.0001424826 0)
(0.073652878 -5.6102551e-06 0)
(0.071227488 -6.9106912e-07 0)
(0.073553675 -4.3543948e-07 0)
(0.071462635 -5.1608828e-06 0)
(0.073412378 4.3976304e-06 0)