/*--------------------------------*- C++ -*----------------------------------*\
| =========                 |                                                 |
| \\      /  F ield         | OpenFOAM: The Open Source CFD Toolbox           |
|  \\    /   O peration     | Version:  2312                                  |
|   \\  /    A nd           | Website:  www.openfoam.com                      |
|    \\/     M anipulation  |                                                 |
\*---------------------------------------------------------------------------*/
FoamFile
{
    version     2.0;
    format      ascii;
    arch        "LSB;label=32;scalar=64";
    class       volVectorField;
    location    "8";
    object      U_0;
}
// * * * * * * * * * * * * * * * * * * * * * * * * * * * * * * * * * * * * * //

dimensions      [0 1 -1 0 0 0 0];

internalField   nonuniform List<vector> 
4000
(
(0.0023321318 0.00042495839 0)
(0.0030391543 -6.5594456e-06 0)
(0.0024291775 -3.4601013e-07 0)
(0.0025689251 2.2444735e-07 0)
(0.0024866991 -2.6092372e-07 0)
(0.0025432759 2.3540115e-07 0)
(0.0024908924 -2.2217976e-07 0)
(0.0025384397 2.0859722e-07 0)
(0.0024941583 -1.9577792e-07 0)
(0.0025355482 1.8413494e-07 0)
(0.0024966911 -1.7326935e-07 0)
(0.0025331434 1.6300744e-07 0)
(0.0024988991 -1.5344257e-07 0)
(0.0025310439 1.444253e-07 0)
(0.0025008595 -1.3598132e-07 0)
(0.0025291902 1.2804902e-07 0)
(0.0025025999 -1.206074e-07 0)
(0.0025275485 1.1362965e-07 0)
(0.0025041443 -1.0708057e-07 0)
(0.0025260921 1.0094667e-07 0)
(0.0025055157 -9.5190454e-08 0)
(0.0025247984 8.9804485e-08 0)
(0.0025067349 -8.4752719e-08 0)
(0.0025236472 8.0031072e-08 0)
(0.0025078207 -7.5606123e-08 0)
(0.0025226208 7.1475881e-08 0)
(0.0025087899 -6.7609896e-08 0)
(0.0025217034 6.4007544e-08 0)
(0.0025096573 -6.0641404e-08 0)
(0.0025208811 5.751173e-08 0)
(0.0025104361 -5.4594082e-08 0)
(0.0025201413 5.1889245e-08 0)
(0.0025111383 -4.9375662e-08 0)
(0.0025194728 4.7054394e-08 0)
(0.0025117746 -4.4906655e-08 0)
(0.0025188652 4.2933602e-08 0)
(0.0025123545 -4.1119103e-08 0)
(0.0025183096 3.946428e-08 0)
(0.002512887 -3.7955555e-08 0)
(0.0025177974 3.6593931e-08 0)
(0.0025133801 -3.5368306e-08 0)
(0.0025173209 3.4279574e-08 0)
(0.0025138412 -3.3318997e-08 0)
(0.0025168728 3.2487465e-08 0)
(0.0025142771 -3.1780214e-08 0)
(0.0025164458 3.1190747e-08 0)
(0.0025146945 -3.0743271e-08 0)
(0.002516046 3.0403117e-08 0)
(0.0025151751 -2.9942669e-08 0)
(0.0025159517 3.2033019e-08 0)
(0.0062521203 0.0011594796 0)
(0.0085471975 8.6135934e-07 0)
(0.0071242568 4.8176178e-06 0)
(0.0074445892 3.1303406e-07 0)
(0.0072182068 -6.0707741e-07 0)
(0.0073831994 8.1673053e-07 0)
(0.0072293804 -7.5627194e-07 0)
(0.0073698976 7.2766137e-07 0)
(0.0072390538 -6.8735213e-07 0)
(0.007361508 6.4904671e-07 0)
(0.007246551 -6.104749e-07 0)
(0.007354414 5.7520763e-07 0)
(0.0072530919 -5.4110887e-07 0)
(0.0073482043 5.0957027e-07 0)
(0.0072589006 -4.7966658e-07 0)
(0.0073427195 4.5176054e-07 0)
(0.0072640571 -4.2548867e-07 0)
(0.0073378608 4.0089301e-07 0)
(0.0072686336 -3.7779707e-07 0)
(0.0073335498 3.5616139e-07 0)
(0.0072726982 -3.3586838e-07 0)
(0.007329719 3.1686624e-07 0)
(0.007276313 -2.9905854e-07 0)
(0.0073263092 2.8239878e-07 0)
(0.0072795336 -2.6680136e-07 0)
(0.0073232678 2.5222813e-07 0)
(0.0072824093 -2.3860165e-07 0)
(0.0073205482 2.2589147e-07 0)
(0.0072849842 -2.1402764e-07 0)
(0.007318109 2.0298603e-07 0)
(0.0072872977 -1.9270392e-07 0)
(0.0073159129 1.8316223e-07 0)
(0.0072893851 -1.7430525e-07 0)
(0.0073139267 1.6611789e-07 0)
(0.007291278 -1.5855125e-07 0)
(0.00731212 1.5159337e-07 0)
(0.0072930053 -1.4520195e-07 0)
(0.0073104655 1.3936749e-07 0)
(0.0072945932 -1.3405405e-07 0)
(0.0073089382 1.292541e-07 0)
(0.0072960658 -1.24938e-07 0)
(0.0073075147 1.2109952e-07 0)
(0.0072974455 -1.1771499e-07 0)
(0.0073061736 1.1478417e-07 0)
(0.0072987527 -1.1226831e-07 0)
(0.0073048919 1.1021472e-07 0)
(0.0073000051 -1.0867445e-07 0)
(0.0073036686 1.0643984e-07 0)
(0.0073013734 -1.1044341e-07 0)
(0.0073032029 1.0221048e-07 0)
(0.010014852 0.0018379517 0)
(0.013789921 -8.0969903e-06 0)
(0.011700612 1.2354236e-05 0)
(0.012195275 5.0682219e-07 0)
(0.01182387 -9.3506788e-07 0)
(0.012101387 1.4784899e-06 0)
(0.011843405 -1.3614673e-06 0)
(0.012079994 1.3174683e-06 0)
(0.011859817 -1.2488561e-06 0)
(0.012066006 1.1802617e-06 0)
(0.01187245 -1.1100864e-06 0)
(0.012054079 1.0464182e-06 0)
(0.011883472 -9.8420058e-07 0)
(0.012043626 9.2695242e-07 0)
(0.011893259 -8.7251503e-07 0)
(0.012034391 8.2176341e-07 0)
(0.011901946 -7.7398679e-07 0)
(0.012026209 7.2922842e-07 0)
(0.011909656 -6.872396e-07 0)
(0.012018949 6.4786087e-07 0)
(0.011916505 -6.1096873e-07 0)
(0.012012497 5.7638196e-07 0)
(0.011922596 -5.4400623e-07 0)
(0.012006752 5.1368298e-07 0)
(0.011928024 -4.8532351e-07 0)
(0.012001628 4.5879829e-07 0)
(0.011932871 -4.3402044e-07 0)
(0.011997045 4.1088635e-07 0)
(0.011937213 -3.8931194e-07 0)
(0.011992933 3.6921475e-07 0)
(0.011941114 -3.5051519e-07 0)
(0.011989231 3.3314766e-07 0)
(0.011944635 -3.1703847e-07 0)
(0.01198588 3.0213533e-07 0)
(0.01194783 -2.8837147e-07 0)
(0.011982832 2.7570513e-07 0)
(0.011950746 -2.6407716e-07 0)
(0.011980039 2.5345409e-07 0)
(0.011953428 -2.4378488e-07 0)
(0.011977459 2.3504253e-07 0)
(0.011955917 -2.2718468e-07 0)
(0.011975053 2.201886e-07 0)
(0.01195825 -2.1402093e-07 0)
(0.011972784 2.0867222e-07 0)
(0.011960464 -2.0406501e-07 0)
(0.011970613 2.0033321e-07 0)
(0.011962586 -1.9744811e-07 0)
(0.011968526 1.930207e-07 0)
(0.011964857 -2.031048e-07 0)
(0.011967578 1.8463685e-07 0)
(0.01392815 0.0025327114 0)
(0.018807796 -1.749103e-05 0)
(0.016153971 2.2617364e-05 0)
(0.016820631 5.0084641e-07 0)
(0.016303592 -1.0810793e-06 0)
(0.016698068 2.099372e-06 0)
(0.016332788 -1.9316543e-06 0)
(0.016668944 1.8780859e-06 0)
(0.016356276 -1.7883388e-06 0)
(0.016649241 1.6913643e-06 0)
(0.016374235 -1.590848e-06 0)
(0.016632318 1.5002734e-06 0)
(0.016389901 -1.4108183e-06 0)
(0.01661747 1.328911e-06 0)
(0.01640381 -1.2508295e-06 0)
(0.016604348 1.1780708e-06 0)
(0.016416154 -1.1096156e-06 0)
(0.016592723 1.0454085e-06 0)
(0.016427111 -9.8526329e-07 0)
(0.016582406 9.2876357e-07 0)
(0.016436843 -8.7591949e-07 0)
(0.016573236 8.2629374e-07 0)
(0.0164455 -7.7991569e-07 0)
(0.016565073 7.3640791e-07 0)
(0.016453214 -6.957796e-07 0)
(0.016557789 6.5772207e-07 0)
(0.016460104 -6.2222188e-07 0)
(0.016551275 5.8903051e-07 0)
(0.016466275 -5.5811755e-07 0)
(0.01654543 5.2928372e-07 0)
(0.016471822 -5.0248798e-07 0)
(0.016540166 4.7757045e-07 0)
(0.016476828 -4.5448483e-07 0)
(0.016535403 4.331026e-07 0)
(0.01648137 -4.1337633e-07 0)
(0.016531068 3.9520246e-07 0)
(0.016485517 -3.7853557e-07 0)
(0.016527095 3.6329194e-07 0)
(0.016489332 -3.4943051e-07 0)
(0.016523425 3.3688326e-07 0)
(0.016492873 -3.2561574e-07 0)
(0.016520001 3.1557068e-07 0)
(0.016496194 -3.0672237e-07 0)
(0.016516772 2.99038e-07 0)
(0.016499345 -2.9240348e-07 0)
(0.016513681 2.8707627e-07 0)
(0.016502369 -2.8285091e-07 0)
(0.016510695 2.7600251e-07 0)
(0.016505555 -2.9465885e-07 0)
(0.016509151 2.6368749e-07 0)
(0.017384215 0.0030338028 0)
(0.023606196 -3.6894553e-05 0)
(0.020486975 3.5280434e-05 0)
(0.021320239 3.4087343e-07 0)
(0.020657446 -1.0457452e-06 0)
(0.02117315 2.6466948e-06 0)
(0.020697649 -2.4456077e-06 0)
(0.021136625 2.3850879e-06 0)
(0.02072853 -2.2839673e-06 0)
(0.021111102 2.1613158e-06 0)
(0.02075199 -2.0330111e-06 0)
(0.021089034 1.9181538e-06 0)
(0.020772453 -1.8034144e-06 0)
(0.02106965 1.6989552e-06 0)
(0.020790617 -1.5990497e-06 0)
(0.021052517 1.5060641e-06 0)
(0.020806737 -1.4185723e-06 0)
(0.021037337 1.3364604e-06 0)
(0.020821045 -1.259613e-06 0)
(0.021023865 1.1873435e-06 0)
(0.020833754 -1.1198266e-06 0)
(0.02101189 1.0563469e-06 0)
(0.020845059 -9.9708808e-07 0)
(0.021001229 9.4143441e-07 0)
(0.020855133 -8.8951848e-07 0)
(0.020991717 8.4083735e-07 0)
(0.020864131 -7.9547101e-07 0)
(0.02098321 7.530151e-07 0)
(0.020872191 -7.1350827e-07 0)
(0.020975576 6.7662663e-07 0)
(0.020879434 -6.4237948e-07 0)
(0.020968702 6.1050733e-07 0)
(0.020885972 -5.8100016e-07 0)
(0.020962481 5.5364974e-07 0)
(0.020891904 -5.2843466e-07 0)
(0.02095682 5.0518737e-07 0)
(0.020897319 -4.8388114e-07 0)
(0.020951632 4.6438081e-07 0)
(0.020902301 -4.466589e-07 0)
(0.02094684 4.3060576e-07 0)
(0.020906925 -4.161975e-07 0)
(0.020942369 4.0334181e-07 0)
(0.020911263 -3.9202315e-07 0)
(0.020938151 3.8218475e-07 0)
(0.020915379 -3.7366919e-07 0)
(0.020934114 3.6689988e-07 0)
(0.020919328 -3.6137173e-07 0)
(0.020930204 3.5207807e-07 0)
(0.020923442 -3.8107453e-07 0)
(0.020927968 3.3612608e-07 0)
(0.021342275 0.0037051111 0)
(0.028167806 -4.9987033e-05 0)
(0.024695451 4.935297e-05 0)
(0.02569285 9.4574846e-09 0)
(0.024885685 -8.6330803e-07 0)
(0.025526276 3.1166008e-06 0)
(0.024938412 -2.908466e-06 0)
(0.025482681 2.8403278e-06 0)
(0.024976923 -2.7383715e-06 0)
(0.025451272 2.5921204e-06 0)
(0.025006018 -2.4385699e-06 0)
(0.025423946 2.3018462e-06 0)
(0.025031394 -2.163705e-06 0)
(0.02539992 2.0386748e-06 0)
(0.025053916 -1.9186876e-06 0)
(0.02537868 1.8071556e-06 0)
(0.025073902 -1.7021947e-06 0)
(0.02535986 1.6036375e-06 0)
(0.025091641 -1.511475e-06 0)
(0.025343156 1.4247139e-06 0)
(0.025107397 -1.3437438e-06 0)
(0.025328309 1.2675316e-06 0)
(0.025121414 -1.1964615e-06 0)
(0.025315091 1.1296454e-06 0)
(0.025133905 -1.0673774e-06 0)
(0.025303297 1.0089333e-06 0)
(0.025145061 -9.545173e-07 0)
(0.025292749 9.0354795e-07 0)
(0.025155053 -8.5615738e-07 0)
(0.025283285 8.1188077e-07 0)
(0.025164033 -7.7079712e-07 0)
(0.025274762 7.3253471e-07 0)
(0.025172139 -6.9713523e-07 0)
(0.02526705 6.6430097e-07 0)
(0.025179492 -6.3404877e-07 0)
(0.025260033 6.0613962e-07 0)
(0.025186205 -5.8057518e-07 0)
(0.025253603 5.5716298e-07 0)
(0.02519238 -5.3589687e-07 0)
(0.025247662 5.16621e-07 0)
(0.025198111 -4.9932812e-07 0)
(0.025242122 4.8388699e-07 0)
(0.025203485 -4.7029755e-07 0)
(0.025236895 4.5847501e-07 0)
(0.025208586 -4.4821674e-07 0)
(0.025231894 4.4014429e-07 0)
(0.02521348 -4.3333505e-07 0)
(0.02522704 4.2162458e-07 0)
(0.025218529 -4.622267e-07 0)
(0.025224032 4.0192203e-07 0)
(0.024442214 0.0040051468 0)
(0.03250488 -8.2133701e-05 0)
(0.028790606 6.435626e-05 0)
(0.029936271 -3.3031514e-07 0)
(0.028988452 -5.659214e-07 0)
(0.02975705 3.5046138e-06 0)
(0.029055515 -3.3276e-06 0)
(0.029706738 3.2467873e-06 0)
(0.029101819 -3.1553605e-06 0)
(0.029669412 2.9869259e-06 0)
(0.029136638 -2.8105731e-06 0)
(0.029636756 2.6541409e-06 0)
(0.029167006 -2.4943419e-06 0)
(0.029608016 2.3505476e-06 0)
(0.029193955 -2.2120838e-06 0)
(0.029582605 2.0835444e-06 0)
(0.029217868 -1.9625562e-06 0)
(0.029560086 1.8488916e-06 0)
(0.029239091 -1.7426888e-06 0)
(0.029540099 1.6426086e-06 0)
(0.029257944 -1.5493061e-06 0)
(0.029522334 1.4613906e-06 0)
(0.029274715 -1.3794919e-06 0)
(0.029506517 1.302416e-06 0)
(0.029289661 -1.2306559e-06 0)
(0.029492406 1.1632391e-06 0)
(0.029303009 -1.100524e-06 0)
(0.029479785 1.0417309e-06 0)
(0.029314964 -9.8710952e-07 0)
(0.029468461 9.3603753e-07 0)
(0.029325709 -8.8868284e-07 0)
(0.029458264 8.4454861e-07 0)
(0.029335405 -8.0374358e-07 0)
(0.029449038 7.6587051e-07 0)
(0.029344202 -7.3099675e-07 0)
(0.029440644 6.9880395e-07 0)
(0.029352232 -6.6933199e-07 0)
(0.029432952 6.4232491e-07 0)
(0.029359617 -6.1780572e-07 0)
(0.029425848 5.955674e-07 0)
(0.029366471 -5.7562566e-07 0)
(0.029419222 5.5780601e-07 0)
(0.029372897 -5.4212944e-07 0)
(0.029412973 5.2847818e-07 0)
(0.029378996 -5.1660517e-07 0)
(0.029406994 5.0735438e-07 0)
(0.029384847 -4.9927511e-07 0)
(0.029401187 4.8522591e-07 0)
(0.029390834 -5.3823591e-07 0)
(0.029397339 4.6142166e-07 0)
(0.02847766 0.0046679045 0)
(0.036628349 -9.4768607e-05 0)
(0.032765957 7.9516162e-05 0)
(0.034048599 -5.2785177e-07 0)
(0.032965553 -1.8213174e-07 0)
(0.033865164 3.8029386e-06 0)
(0.03304938 -3.7052354e-06 0)
(0.033808483 3.604822e-06 0)
(0.03310354 -3.5357306e-06 0)
(0.033765227 3.3461378e-06 0)
(0.033144129 -3.1494762e-06 0)
(0.033727201 2.9753939e-06 0)
(0.033179534 -2.7956816e-06 0)
(0.033693706 2.6348955e-06 0)
(0.03321095 -2.4795447e-06 0)
(0.033664085 2.3355177e-06 0)
(0.033238827 -2.1999254e-06 0)
(0.033637834 2.0724774e-06 0)
(0.033263567 -1.9534922e-06 0)
(0.033614535 1.8412536e-06 0)
(0.033285544 -1.7367248e-06 0)
(0.033593824 1.638125e-06 0)
(0.033305094 -1.5463678e-06 0)
(0.033575385 1.459926e-06 0)
(0.033322517 -1.3795229e-06 0)
(0.033558934 1.3039159e-06 0)
(0.033338077 -1.233643e-06 0)
(0.033544221 1.1677092e-06 0)
(0.033352013 -1.1065022e-06 0)
(0.033531022 1.0492286e-06 0)
(0.033364537 -9.9616179e-07 0)
(0.033519136 9.4666929e-07 0)
(0.03337584 -9.0093996e-07 0)
(0.033508382 8.5846897e-07 0)
(0.033386092 -8.193847e-07 0)
(0.033498598 7.832831e-07 0)
(0.03339545 -7.5025072e-07 0)
(0.033489635 7.1996308e-07 0)
(0.033404056 -6.9247918e-07 0)
(0.033481357 6.6753683e-07 0)
(0.033412042 -6.4518006e-07 0)
(0.033473637 6.2518777e-07 0)
(0.033419529 -6.0760676e-07 0)
(0.033466357 5.9228183e-07 0)
(0.033426632 -5.7892392e-07 0)
(0.033459395 5.686171e-07 0)
(0.033433447 -5.592847e-07 0)
(0.033452627 5.430197e-07 0)
(0.033440372 -6.0886762e-07 0)
(0.033447886 5.1466353e-07 0)
(0.031313587 0.0048164841 0)
(0.040502511 -0.00014043575 0)
(0.036631813 9.4181494e-05 0)
(0.038028844 -9.7455405e-07 0)
(0.036817018 1.4355414e-07 0)
(0.037850351 3.9789246e-06 0)
(0.036920374 -4.0452424e-06 0)
(0.037787654 3.9140109e-06 0)
(0.036982376 -3.8790492e-06 0)
(0.037738461 3.669473e-06 0)
(0.037028737 -3.4548807e-06 0)
(0.037695051 3.2652386e-06 0)
(0.037069197 -3.0673701e-06 0)
(0.037656787 2.8913841e-06 0)
(0.037105095 -2.7207527e-06 0)
(0.037622942 2.5627784e-06 0)
(0.037136947 -2.4140186e-06 0)
(0.037592946 2.2741304e-06 0)
(0.037165216 -2.1436323e-06 0)
(0.037566322 2.0204134e-06 0)
(0.037190328 -1.9057747e-06 0)
(0.037542657 1.7975251e-06 0)
(0.037212667 -1.696889e-06 0)
(0.037521586 1.6019886e-06 0)
(0.037232574 -1.5138002e-06 0)
(0.037502788 1.4307973e-06 0)
(0.037250354 -1.3537158e-06 0)
(0.037485976 1.2813345e-06 0)
(0.037266278 -1.2141939e-06 0)
(0.037470894 1.1513214e-06 0)
(0.037280587 -1.0931076e-06 0)
(0.037457313 1.0387779e-06 0)
(0.0372935 -9.8861107e-07 0)
(0.037445027 9.4198961e-07 0)
(0.037305213 -8.9911074e-07 0)
(0.03743385 8.5948084e-07 0)
(0.037315903 -8.232394e-07 0)
(0.037423611 7.8999044e-07 0)
(0.037325734 -7.5983396e-07 0)
(0.037414156 7.3245021e-07 0)
(0.037334854 -7.0791561e-07 0)
(0.037405339 6.8596036e-07 0)
(0.037343404 -6.666607e-07 0)
(0.037397026 6.4982057e-07 0)
(0.037351515 -6.3511236e-07 0)
(0.037389078 6.2387193e-07 0)
(0.037359296 -6.1331421e-07 0)
(0.037381349 5.9499218e-07 0)
(0.037367155 -6.7379087e-07 0)
(0.037375671 5.6162712e-07 0)
(0.035295731 0.0053937631 0)
(0.0442032 -0.00015197957 0)
(0.040374872 0.00010909862 0)
(0.041880496 -1.6801042e-06 0)
(0.040544004 3.13763e-07 0)
(0.041712357 3.9968995e-06 0)
(0.040668775 -4.3558994e-06 0)
(0.041643982 4.1724009e-06 0)
(0.040738573 -4.1858678e-06 0)
(0.041588881 3.9566282e-06 0)
(0.040790683 -3.7266969e-06 0)
(0.0415401 3.5234927e-06 0)
(0.040836186 -3.3092638e-06 0)
(0.041497076 3.1198639e-06 0)
(0.040876559 -2.9355697e-06 0)
(0.041459016 2.7651958e-06 0)
(0.040912379 -2.6047102e-06 0)
(0.041425281 2.4537344e-06 0)
(0.04094417 -2.3129962e-06 0)
(0.041395338 2.1799841e-06 0)
(0.040972412 -2.0563552e-06 0)
(0.041368722 1.939498e-06 0)
(0.040997535 -1.8309658e-06 0)
(0.041345024 1.7285211e-06 0)
(0.041019923 -1.6334083e-06 0)
(0.041323882 1.5438096e-06 0)
(0.041039919 -1.4606714e-06 0)
(0.041304975 1.382541e-06 0)
(0.041057826 -1.3101216e-06 0)
(0.041288013 1.2422572e-06 0)
(0.041073918 -1.1794639e-06 0)
(0.041272741 1.1208219e-06 0)
(0.041088439 -1.0667066e-06 0)
(0.041258925 1.0163854e-06 0)
(0.041101609 -9.7012979e-07 0)
(0.041246357 9.2735484e-07 0)
(0.041113629 -8.882575e-07 0)
(0.041234845 8.5236884e-07 0)
(0.041124682 -8.1983352e-07 0)
(0.041224214 7.9027314e-07 0)
(0.041134935 -7.6379939e-07 0)
(0.041214303 7.4009283e-07 0)
(0.041144545 -7.1926181e-07 0)
(0.041204959 7.010668e-07 0)
(0.041153661 -6.8514605e-07 0)
(0.041196029 6.7309291e-07 0)
(0.041162407 -6.6134895e-07 0)
(0.041187343 6.4115299e-07 0)
(0.041171191 -7.3274043e-07 0)
(0.041180694 6.0236138e-07 0)
(0.038133676 0.0054881295 0)
(0.047660313 -0.00020878595 0)
(0.043989888 0.00012193608 0)
(0.045608883 -1.6081978e-06 0)
(0.044150639 5.8256256e-07 0)
(0.045451445 3.9242232e-06 0)
(0.044294979 -4.6218874e-06 0)
(0.045377265 4.3847999e-06 0)
(0.044372361 -4.45525e-06 0)
(0.045316279 4.2081264e-06 0)
(0.044430165 -3.9649777e-06 0)
(0.045262162 3.7502981e-06 0)
(0.044480679 -3.5214665e-06 0)
(0.04521441 3.3204374e-06 0)
(0.044525497 -3.1240886e-06 0)
(0.04517216 2.9428589e-06 0)
(0.044565261 -2.7720809e-06 0)
(0.04513471 2.6113675e-06 0)
(0.044600552 -2.4616549e-06 0)
(0.045101468 2.3200346e-06 0)
(0.044631903 -2.188529e-06 0)
(0.04507192 2.0641049e-06 0)
(0.044659792 -1.9486543e-06 0)
(0.045045611 1.8395777e-06 0)
(0.044684646 -1.738397e-06 0)
(0.045022141 1.6430012e-06 0)
(0.044706843 -1.554555e-06 0)
(0.04500115 1.4713723e-06 0)
(0.044726722 -1.3943259e-06 0)
(0.044982322 1.3220754e-06 0)
(0.044744585 -1.2552676e-06 0)
(0.044965368 1.1928371e-06 0)
(0.044760703 -1.1352602e-06 0)
(0.044950032 1.0816889e-06 0)
(0.044775322 -1.0324728e-06 0)
(0.044936082 9.8693529e-07 0)
(0.044788663 -9.4533381e-07 0)
(0.044923305 9.0712645e-07 0)
(0.04480093 -8.7250496e-07 0)
(0.044911507 8.4103231e-07 0)
(0.044812308 -8.1285736e-07 0)
(0.044900508 7.8761105e-07 0)
(0.044822972 -7.6543558e-07 0)
(0.044890141 7.4604628e-07 0)
(0.044833086 -7.290523e-07 0)
(0.044880234 7.1630451e-07 0)
(0.044842788 -7.0342464e-07 0)
(0.044870601 6.8155366e-07 0)
(0.044852488 -7.8553008e-07 0)
(0.044862956 6.3698588e-07 0)
(0.04201233 0.0059205726 0)
(0.051002234 -0.00021919837 0)
(0.047473863 0.00013372075 0)
(0.049213117 -1.472722e-06 0)
(0.047638129 7.7857751e-07 0)
(0.04906743 3.7348591e-06 0)
(0.047799225 -4.8518528e-06 0)
(0.048987297 4.5501277e-06 0)
(0.047883943 -4.6881513e-06 0)
(0.048920465 4.4241827e-06 0)
(0.047947361 -4.170094e-06 0)
(0.04886107 3.9459182e-06 0)
(0.048002832 -3.7042536e-06 0)
(0.048808638 3.4933498e-06 0)
(0.048052048 -3.2865439e-06 0)
(0.048762243 3.0959872e-06 0)
(0.048095714 -2.916336e-06 0)
(0.048721118 2.7472243e-06 0)
(0.048134468 -2.5897896e-06 0)
(0.048684612 2.4407376e-06 0)
(0.048168896 -2.3024571e-06 0)
(0.048652162 2.171499e-06 0)
(0.048199523 -2.0500975e-06 0)
(0.048623269 1.9352952e-06 0)
(0.048226816 -1.8288943e-06 0)
(0.048597494 1.7284943e-06 0)
(0.048251191 -1.6354808e-06 0)
(0.048574443 1.5479376e-06 0)
(0.048273021 -1.4669096e-06 0)
(0.048553766 1.3908741e-06 0)
(0.048292636 -1.3206114e-06 0)
(0.048535149 1.2549122e-06 0)
(0.048310335 -1.1943559e-06 0)
(0.048518309 1.1379808e-06 0)
(0.048326387 -1.0862163e-06 0)
(0.048502991 1.0382958e-06 0)
(0.048341036 -9.9453865e-07 0)
(0.048488962 9.5433114e-07 0)
(0.048354503 -9.179135e-07 0)
(0.048476009 8.8479102e-07 0)
(0.048366995 -8.5515078e-07 0)
(0.048463935 8.2857493e-07 0)
(0.048378701 -8.0524056e-07 0)
(0.048452555 7.8481684e-07 0)
(0.048389803 -7.6688954e-07 0)
(0.048441683 7.5356172e-07 0)
(0.048400452 -7.3960776e-07 0)
(0.048431114 7.1627037e-07 0)
(0.048411054 -8.3203284e-07 0)
(0.048422457 6.6566701e-07 0)
(0.044954808 0.0060023862 0)
(0.054113514 -0.00027721636 0)
(0.050836472 0.00014120866 0)
(0.052690993 -1.9604018e-06 0)
(0.051006371 7.8558159e-07 0)
(0.05256018 3.4240212e-06 0)
(0.051181714 -5.0494315e-06 0)
(0.052473914 4.6694583e-06 0)
(0.051273513 -4.8847338e-06 0)
(0.052401276 4.6054988e-06 0)
(0.051342435 -4.3423974e-06 0)
(0.052336672 4.1107867e-06 0)
(0.051402788 -3.8579873e-06 0)
(0.05227963 3.6389587e-06 0)
(0.051456339 -3.4232637e-06 0)
(0.052229149 3.2248937e-06 0)
(0.051503849 -3.0377666e-06 0)
(0.0521844 2.8615817e-06 0)
(0.051546016 -2.6976586e-06 0)
(0.052144677 2.5423384e-06 0)
(0.051583476 -2.3983688e-06 0)
(0.052109367 2.2618986e-06 0)
(0.051616801 -2.1354998e-06 0)
(0.052077928 2.0158677e-06 0)
(0.051646498 -1.9050825e-06 0)
(0.052049881 1.8004621e-06 0)
(0.051673021 -1.703612e-06 0)
(0.052024799 1.6123922e-06 0)
(0.051696773 -1.5280189e-06 0)
(0.0520023 1.4487927e-06 0)
(0.051718116 -1.375627e-06 0)
(0.051982044 1.3071728e-06 0)
(0.051737373 -1.2441128e-06 0)
(0.051963721 1.1853749e-06 0)
(0.051754837 -1.1314688e-06 0)
(0.051947055 1.0815403e-06 0)
(0.051770774 -1.0359713e-06 0)
(0.051931792 9.9407853e-07 0)
(0.051785426 -9.5615096e-07 0)
(0.051917701 9.2163808e-07 0)
(0.051799014 -8.9076548e-07 0)
(0.051904566 8.630681e-07 0)
(0.051811748 -8.3875818e-07 0)
(0.051892188 8.1745864e-07 0)
(0.051823822 -7.9873773e-07 0)
(0.051880366 7.8494073e-07 0)
(0.051835404 -7.6998578e-07 0)
(0.051868876 7.4539562e-07 0)
(0.051846893 -8.7216975e-07 0)
(0.051859197 6.886039e-07 0)
(0.048659942 0.0062859914 0)
(0.057144559 -0.00028680821 0)
(0.054072155 0.0001495773 0)
(0.056044669 -2.1901599e-06 0)
(0.054255346 7.5272706e-07 0)
(0.055929723 3.0474548e-06 0)
(0.054442647 -5.2036941e-06 0)
(0.055836955 4.7464196e-06 0)
(0.054541231 -5.0449777e-06 0)
(0.055758559 4.7528237e-06 0)
(0.05461553 -4.4824096e-06 0)
(0.055688835 4.2454094e-06 0)
(0.054680673 -3.9831452e-06 0)
(0.055627264 3.7577087e-06 0)
(0.05473848 -3.534668e-06 0)
(0.055572772 3.3299737e-06 0)
(0.054789765 -3.1367433e-06 0)
(0.055524465 2.9547903e-06 0)
(0.054835283 -2.7855903e-06 0)
(0.055481582 2.6251484e-06 0)
(0.054875721 -2.4765561e-06 0)
(0.055443463 2.3355805e-06 0)
(0.054911695 -2.205121e-06 0)
(0.055409524 2.0815418e-06 0)
(0.054943753 -1.9671933e-06 0)
(0.055379246 1.8591248e-06 0)
(0.054972384 -1.7591559e-06 0)
(0.055352169 1.664933e-06 0)
(0.054998024 -1.5778398e-06 0)
(0.055327882 1.4960082e-06 0)
(0.055021062 -1.4204817e-06 0)
(0.055306015 1.3497783e-06 0)
(0.055041849 -1.284682e-06 0)
(0.055286237 1.2240156e-06 0)
(0.055060701 -1.1683675e-06 0)
(0.055268247 1.1168003e-06 0)
(0.055077903 -1.0697575e-06 0)
(0.055251772 1.0264894e-06 0)
(0.055093717 -9.8733331e-07 0)
(0.055236563 9.5168554e-07 0)
(0.055108383 -9.1980965e-07 0)
(0.055222387 8.9119575e-07 0)
(0.055122126 -8.6609075e-07 0)
(0.055209029 8.4407202e-07 0)
(0.055135155 -8.2469633e-07 0)
(0.055196274 8.1053695e-07 0)
(0.055147654 -7.9466485e-07 0)
(0.055183881 7.6903684e-07 0)
(0.05516001 -9.0590535e-07 0)
(0.055173178 7.0602079e-07 0)
(0.051651505 0.0063459569 0)
(0.059963487 -0.00034575376 0)
(0.05718603 0.00015321991 0)
(0.059275266 -2.4922175e-06 0)
(0.057384748 6.2331605e-07 0)
(0.0591759 2.6014771e-06 0)
(0.05758213 -5.3175566e-06 0)
(0.059076249 4.7813567e-06 0)
(0.057687233 -5.169563e-06 0)
(0.058992173 4.8669376e-06 0)
(0.057766773 -4.5907388e-06 0)
(0.058917437 4.3504097e-06 0)
(0.057836602 -4.0802851e-06 0)
(0.058851434 3.8501385e-06 0)
(0.057898571 -3.6212561e-06 0)
(0.058793017 3.4117018e-06 0)
(0.057953551 -3.2137099e-06 0)
(0.058741228 3.0272707e-06 0)
(0.058002347 -2.8539787e-06 0)
(0.058695255 2.689541e-06 0)
(0.058045698 -2.5373691e-06 0)
(0.058654387 2.3928765e-06 0)
(0.058084264 -2.2592729e-06 0)
(0.058618001 2.132613e-06 0)
(0.058118632 -2.0155048e-06 0)
(0.05858554 1.9047461e-06 0)
(0.058149326 -1.8023609e-06 0)
(0.058556512 1.7057959e-06 0)
(0.058176813 -1.616595e-06 0)
(0.058530474 1.5327321e-06 0)
(0.058201511 -1.4553758e-06 0)
(0.058507032 1.3829196e-06 0)
(0.058223795 -1.3162447e-06 0)
(0.058485828 1.2540757e-06 0)
(0.058244004 -1.197077e-06 0)
(0.058466543 1.1442334e-06 0)
(0.058262444 -1.0960476e-06 0)
(0.058448883 1.0517084e-06 0)
(0.058279396 -1.0115993e-06 0)
(0.058432579 9.7506726e-07 0)
(0.058295117 -9.4241252e-07 0)
(0.058417384 9.1308334e-07 0)
(0.058309846 -8.873602e-07 0)
(0.058403067 8.6477641e-07 0)
(0.05832381 -8.4488314e-07 0)
(0.058389399 8.3046386e-07 0)
(0.058337206 -8.1376842e-07 0)
(0.058376125 7.8731572e-07 0)
(0.05835041 -9.3324423e-07 0)
(0.058364402 7.18161e-07 0)
(0.055193049 0.006502109 0)
(0.062735165 -0.00035239521 0)
(0.060179921 0.00015671994 0)
(0.06238558 -2.8715238e-06 0)
(0.060393922 4.0167118e-07 0)
(0.062298658 2.1001843e-06 0)
(0.060600334 -5.3854006e-06 0)
(0.062191677 4.7770069e-06 0)
(0.060711654 -5.2587633e-06 0)
(0.062102001 4.9487928e-06 0)
(0.06079628 -4.6680924e-06 0)
(0.062022371 4.4264858e-06 0)
(0.060870675 -4.1500574e-06 0)
(0.061952046 3.9168615e-06 0)
(0.060936703 -3.6836045e-06 0)
(0.061889801 3.4706222e-06 0)
(0.060995284 -3.269177e-06 0)
(0.061834617 3.0795057e-06 0)
(0.061047278 -2.9032771e-06 0)
(0.061785629 2.7359449e-06 0)
(0.061093469 -2.5812107e-06 0)
(0.061742081 2.4341679e-06 0)
(0.061134562 -2.2983143e-06 0)
(0.061703309 2.169421e-06 0)
(0.061171182 -2.050337e-06 0)
(0.061668719 1.9376291e-06 0)
(0.061203888 -1.8335132e-06 0)
(0.061637788 1.7352523e-06 0)
(0.061233176 -1.6445408e-06 0)
(0.061610043 1.559208e-06 0)
(0.061259492 -1.4805399e-06 0)
(0.061585064 1.4068158e-06 0)
(0.061283237 -1.339009e-06 0)
(0.061562471 1.2757537e-06 0)
(0.061304769 -1.2177863e-06 0)
(0.061541922 1.1640203e-06 0)
(0.061324417 -1.1150145e-06 0)
(0.061523106 1.0699012e-06 0)
(0.061342478 -1.0291081e-06 0)
(0.061505735 9.9193684e-07 0)
(0.061359227 -9.5872234e-07 0)
(0.061489546 9.288747e-07 0)
(0.06137492 -9.0270624e-07 0)
(0.061474293 8.7970847e-07 0)
(0.061389796 -8.5943259e-07 0)
(0.061459735 8.4485142e-07 0)
(0.061404066 -8.2743539e-07 0)
(0.061445603 8.0036714e-07 0)
(0.061418095 -9.542274e-07 0)
(0.061432869 7.2528125e-07 0)
(0.058222877 0.0065321646 0)
(0.065318651 -0.00040703861 0)
(0.063053422 0.00015540198 0)
(0.065378551 -3.4345526e-06 0)
(0.063282632 1.1744765e-07 0)
(0.06529792 1.5428837e-06 0)
(0.063497365 -5.4068194e-06 0)
(0.065183106 4.7343611e-06 0)
(0.063614602 -5.3133619e-06 0)
(0.065087931 4.9993294e-06 0)
(0.06370415 -4.7152738e-06 0)
(0.065003541 4.4744167e-06 0)
(0.063782981 -4.1931831e-06 0)
(0.064929014 3.9585634e-06 0)
(0.063852954 -3.7223546e-06 0)
(0.064863049 3.5073418e-06 0)
(0.063915035 -3.3037138e-06 0)
(0.064804565 3.1120335e-06 0)
(0.063970135 -2.9339909e-06 0)
(0.064752647 2.764838e-06 0)
(0.064019087 -2.6085303e-06 0)
(0.064706495 2.4598798e-06 0)
(0.064062636 -2.3226451e-06 0)
(0.064665403 2.1923444e-06 0)
(0.064101445 -2.0720466e-06 0)
(0.064628745 1.9581116e-06 0)
(0.064136106 -1.8529314e-06 0)
(0.064595963 1.7536042e-06 0)
(0.064167145 -1.661963e-06 0)
(0.064566559 1.5757071e-06 0)
(0.064195034 -1.4962309e-06 0)
(0.064540087 1.4217116e-06 0)
(0.064220197 -1.353207e-06 0)
(0.064516144 1.2892711e-06 0)
(0.064243016 -1.2307063e-06 0)
(0.064494367 1.1763625e-06 0)
(0.064263838 -1.1268509e-06 0)
(0.064474425 1.081253e-06 0)
(0.064282978 -1.0400374e-06 0)
(0.064456017 1.0024655e-06 0)
(0.064300727 -9.6890435e-07 0)
(0.064438863 9.3873005e-07 0)
(0.064317355 -9.1228447e-07 0)
(0.0644227 8.8902028e-07 0)
(0.064333117 -8.6849398e-07 0)
(0.064407276 8.5384432e-07 0)
(0.064348238 -8.3581826e-07 0)
(0.064392312 8.0833781e-07 0)
(0.064363068 -9.6892875e-07 0)
(0.064378581 7.2764689e-07 0)
(0.061602892 0.0065747544 0)
(0.067880012 -0.00040994047 0)
(0.065805914 0.00015456705 0)
(0.068257245 -4.1551359e-06 0)
(0.066050729 -2.2201892e-07 0)
(0.068173688 9.1962494e-07 0)
(0.066273371 -5.382359e-06 0)
(0.068050443 4.6541468e-06 0)
(0.066396179 -5.3344791e-06 0)
(0.067949869 5.0194428e-06 0)
(0.066490473 -4.733212e-06 0)
(0.067860863 4.4950281e-06 0)
(0.0665736 -4.2104582e-06 0)
(0.067782266 3.9759877e-06 0)
(0.066647393 -3.7382076e-06 0)
(0.067712696 3.522522e-06 0)
(0.066712864 -3.3179417e-06 0)
(0.067651016 3.1254413e-06 0)
(0.066770974 -2.9466719e-06 0)
(0.067596259 2.776742e-06 0)
(0.0668226 -2.6198185e-06 0)
(0.067547584 2.470476e-06 0)
(0.066868528 -2.332702e-06 0)
(0.067504245 2.2017962e-06 0)
(0.066909457 -2.0810231e-06 0)
(0.067465583 1.9665624e-06 0)
(0.066946011 -1.8609636e-06 0)
(0.067431009 1.7611816e-06 0)
(0.066978746 -1.6691735e-06 0)
(0.067399998 1.5825254e-06 0)
(0.067008159 -1.5027294e-06 0)
(0.067372078 1.4278736e-06 0)
(0.067034697 -1.3590922e-06 0)
(0.067346826 1.2948691e-06 0)
(0.067058763 -1.2360669e-06 0)
(0.06732386 1.1814802e-06 0)
(0.067080722 -1.1317671e-06 0)
(0.067302829 1.0859654e-06 0)
(0.067100907 -1.044581e-06 0)
(0.067283416 1.00684e-06 0)
(0.067119625 -9.7313885e-07 0)
(0.067265325 9.4282414e-07 0)
(0.06713716 -9.1626456e-07 0)
(0.067248281 8.928776e-07 0)
(0.067153781 -8.7222977e-07 0)
(0.067232019 8.5760035e-07 0)
(0.067169727 -8.3908148e-07 0)
(0.067216249 8.1138506e-07 0)
(0.06718533 -9.7745175e-07 0)
(0.06720154 7.2552776e-07 0)
(0.06463739 0.0065689061 0)
(0.070274972 -0.00045765396 0)
(0.068438311 0.00014895554 0)
(0.07101756 -4.9467823e-06 0)
(0.068698874 -5.0920422e-07 0)
(0.070925753 2.5446668e-07 0)
(0.068928441 -5.3030125e-06 0)
(0.070793564 4.5404672e-06 0)
(0.069056454 -5.3222115e-06 0)
(0.070687719 5.0104313e-06 0)
(0.069155321 -4.7228045e-06 0)
(0.070594259 4.4892316e-06 0)
(0.069242598 -4.2027323e-06 0)
(0.070511734 3.9699327e-06 0)
(0.069320082 -3.731918e-06 0)
(0.070438684 3.5168717e-06 0)
(0.069388826 -3.3125289e-06 0)
(0.070373918 3.1203588e-06 0)
(0.069449841 -2.9419129e-06 0)
(0.070316421 2.7722165e-06 0)
(0.069504049 -2.6156021e-06 0)
(0.070265309 2.4664542e-06 0)
(0.069552274 -2.3289541e-06 0)
(0.070219801 2.1982199e-06 0)
(0.06959525 -2.0776845e-06 0)
(0.070179203 1.9633773e-06 0)
(0.069633633 -1.8579837e-06 0)
(0.070142899 1.7583387e-06 0)
(0.069668006 -1.6665073e-06 0)
(0.070110335 1.5799809e-06 0)
(0.06969889 -1.5003367e-06 0)
(0.070081018 1.4255882e-06 0)
(0.069726755 -1.3569367e-06 0)
(0.070054503 1.2928074e-06 0)
(0.069752025 -1.2341155e-06 0)
(0.070030387 1.1796094e-06 0)
(0.069775082 -1.129989e-06 0)
(0.070008304 1.0842553e-06 0)
(0.069796277 -1.042947e-06 0)
(0.06998792 1.0052609e-06 0)
(0.06981593 -9.716195e-07 0)
(0.069968925 9.4134464e-07 0)
(0.069834341 -9.1482875e-07 0)
(0.069951029 8.9145833e-07 0)
(0.069851791 -8.7081413e-07 0)
(0.069933958 8.5628899e-07 0)
(0.069868534 -8.373999e-07 0)
(0.069917412 8.0967573e-07 0)
(0.069884885 -9.7992647e-07 0)
(0.069901747 7.1919482e-07 0)
(0.067826672 0.0065100367 0)
(0.072660098 -0.00045557639 0)
(0.070961804 0.00014366593 0)
(0.073652985 -5.5831894e-06 0)
(0.071227391 -6.9445717e-07 0)
(0.073553678 -4.375606e-07 0)
(0.071462633 -5.1612652e-06 0)
(0.073412364 4.3970579e-06 0)
(0.07159549 -5.2768745e-06 0)