/*--------------------------------*- C++ -*----------------------------------*\
| =========                 |                                                 |
| \\      /  F ield         | OpenFOAM: The Open Source CFD Toolbox           |
|  \\    /   O peration     | Version:  2312                                  |
|   \\  /    A nd           | Website:  www.openfoam.com                      |
|    \\/     M anipulation  |                                                 |
\*---------------------------------------------------------------------------*/
FoamFile
{
    version     2.0;
    format      ascii;
    arch        "LSB;label=32;scalar=64";
    class       surfaceScalarField;
    location    "5";
    object      phi_0;
}
// * * * * * * * * * * * * * * * * * * * * * * * * * * * * * * * * * * * * * //

dimensions      [0 3 -1 0 0 0 0];

oriented        oriented;

internalField   nonuniform List<scalar> 
7870
(
5.3038691e-11
1.2932113e-09
5.1925548e-11
1.113144e-12
5.1958506e-11
-3.2958016e-14
5.1215327e-11
7.4317856e-13
5.2052874e-11
-8.3754699e-13
5.1284618e-11
7.6825574e-13
5.2023483e-11
-7.3886457e-13
5.133458e-11
6.8890323e-13
5.1983002e-11
-6.4842215e-13
5.1375737e-11
6.0726441e-13
5.1945616e-11
-5.6987824e-13
5.1411254e-11
5.3436205e-13
5.1912571e-11
-5.0131789e-13
5.1442281e-11
4.7029053e-13
5.1883568e-11
-4.4128745e-13
5.1469444e-11
4.1412428e-13
5.1858158e-11
-3.8871413e-13
5.149322e-11
3.6493871e-13
5.183592e-11
-3.4270016e-13
5.1514012e-11
3.2190769e-13
5.1816479e-11
-3.024673e-13
5.1532173e-11
2.8430595e-13
5.179951e-11
-2.6733641e-13
5.1548011e-11
2.5149925e-13
5.1784725e-11
-2.3671464e-13
5.1561791e-11
2.2293405e-13
5.1771876e-11
-2.1008517e-13
5.1573748e-11
1.9812825e-13
5.1760747e-11
-1.8699844e-13
5.1584083e-11
1.7666309e-13
5.1751148e-11
-1.6706461e-13
5.1592972e-11
1.5817613e-13
5.1742919e-11
-1.4994704e-13
5.1600564e-11
1.4235518e-13
5.173592e-11
-1.353566e-13
5.1606987e-11
1.2893302e-13
5.1730034e-11
-1.2304679e-13
5.1612351e-11
1.176829e-13
5.1725161e-11
-1.1280961e-13
5.1616746e-11
1.084147e-13
5.1721218e-11
-1.0447201e-13
5.1620246e-11
1.0097173e-13
5.1718139e-11
-9.7892975e-14
5.1622911e-11
9.5228088e-14
5.1715872e-11
-9.2960657e-14
5.1624784e-11
9.1087587e-14
5.1714383e-11
-8.9599034e-14
5.1626024e-11
8.8359558e-14
5.1714684e-11
-8.8660657e-14
8.5111682e-14
1.4952572e-10
2.4899356e-09
1.5083388e-10
-1.9501713e-13
1.5025912e-10
5.418009e-13
1.4930113e-10
1.7011699e-12
1.5050771e-10
-2.0441261e-12
1.4943332e-10
1.8426453e-12
1.5049372e-10
-1.7992718e-12
1.4951109e-10
1.6715379e-12
1.5043933e-10
-1.5766646e-12
1.495712e-10
1.4753934e-12
1.5038642e-10
-1.3850974e-12
1.4962225e-10
1.2985315e-12
1.5033929e-10
-1.2183587e-12
1.496667e-10
1.1428792e-12
1.5029787e-10
-1.0724486e-12
1.4970559e-10
1.0063959e-12
1.5026156e-10
-9.4467727e-13
1.4973963e-10
8.8686889e-13
1.5022978e-10
-8.3284974e-13
1.4976939e-10
7.8229681e-13
1.5020199e-10
-7.3507264e-13
1.4979538e-10
6.9091846e-13
1.5017774e-10
-6.4969517e-13
1.4981805e-10
6.1119283e-13
1.5015661e-10
-5.7527635e-13
1.4983777e-10
5.4177476e-13
1.5013824e-10
-5.1056003e-13
1.4985488e-10
4.8149262e-13
1.5012233e-10
-4.5445358e-13
1.4986967e-10
4.2932872e-13
1.5010861e-10
-4.0600953e-13
1.4988239e-10
3.8440231e-13
1.5009685e-10
-3.6440971e-13
1.4989325e-10
3.4595468e-13
1.5008684e-10
-3.2895139e-13
1.4990244e-10
3.1333645e-13
1.5007843e-10
-2.9903548e-13
1.4991011e-10
2.8599654e-13
1.5007146e-10
-2.741564e-13
1.499164e-10
2.6347284e-13
1.5006582e-10
-2.5389345e-13
1.4992141e-10
2.4538431e-13
1.5006142e-10
-2.3790356e-13
1.4992523e-10
2.3142448e-13
1.5005818e-10
-2.2591345e-13
1.4992791e-10
2.2136052e-13
1.5005604e-10
-2.1773037e-13
1.4992973e-10
2.1467131e-13
1.5005738e-10
-2.1631964e-13
2.0606447e-13
2.4295279e-10
3.5932328e-09
2.4727007e-10
-4.512291e-12
2.4583628e-10
1.9755906e-12
2.4509528e-10
2.442171e-12
2.4623133e-10
-3.1801791e-12
2.4526126e-10
2.8127181e-12
2.4625636e-10
-2.7943737e-12
2.4534197e-10
2.5859231e-12
2.4621014e-10
-2.444834e-12
2.4539975e-10
2.2857892e-12
2.4616145e-10
-2.1467999e-12
2.4544776e-10
2.0122171e-12
2.461176e-10
-1.8881936e-12
2.4548939e-10
1.7710914e-12
2.4607897e-10
-1.6620329e-12
2.4552576e-10
1.5596015e-12
2.460451e-10
-1.4640108e-12
2.4555759e-10
1.3743756e-12
2.4601544e-10
-1.2907031e-12
2.4558542e-10
1.2123228e-12
2.4598952e-10
-1.1391717e-12
2.4560972e-10
1.0707156e-12
2.4596688e-10
-1.0068576e-12
2.4563091e-10
9.4716633e-13
2.4594716e-10
-8.9152714e-13
2.4564934e-10
8.3959034e-13
2.4593002e-10
-7.9123332e-13
2.4566534e-10
7.4617197e-13
2.4591517e-10
-7.042827e-13
2.4567916e-10
6.653341e-13
2.4590236e-10
-6.2920683e-13
2.4569105e-10
5.9571183e-13
2.4589138e-10
-5.6473765e-13
2.457012e-10
5.3612943e-13
2.4588204e-10
-5.0978604e-13
2.4570979e-10
4.8558054e-13
2.4587418e-10
-4.6342346e-13
2.4571697e-10
4.4321106e-13
2.4586768e-10
-4.2486619e-13
2.4572285e-10
4.0830466e-13
2.4586241e-10
-3.9346191e-13
2.4572753e-10
3.8027031e-13
2.458583e-10
-3.6867814e-13
2.4573109e-10
3.5863186e-13
2.4585527e-10
-3.500884e-13
2.457336e-10
3.4302903e-13
2.4585325e-10
-3.373804e-13
2.4573538e-10
3.325389e-13
2.4585576e-10
-3.3669855e-13
3.182275e-13
3.3411678e-10
4.605366e-09
3.4108374e-10
-1.1479248e-11
3.3892901e-10
4.1303173e-12
3.383736e-10
2.9975839e-12
3.3943653e-10
-4.2431032e-12
3.3856936e-10
3.6798857e-12
3.394985e-10
-3.7235168e-12
3.3865223e-10
3.4321943e-12
3.3945995e-10
-3.2525502e-12
3.3870748e-10
3.0382579e-12
3.3941539e-10
-2.8547139e-12
3.387524e-10
2.6752041e-12
3.3937481e-10
-2.5105947e-12
3.3879117e-10
2.3547297e-12
3.3933897e-10
-2.2098406e-12
3.3882501e-10
2.0735649e-12
3.3930754e-10
-1.9465384e-12
3.3885461e-10
1.8273029e-12
3.3928001e-10
-1.7161045e-12
3.3888049e-10
1.6118477e-12
3.3925594e-10
-1.5146272e-12
3.3890308e-10
1.4235753e-12
3.3923493e-10
-1.3387021e-12
3.3892278e-10
1.2593114e-12
3.3921662e-10
-1.1853591e-12
3.3893992e-10
1.1162842e-12
3.392007e-10
-1.0520088e-12
3.3895479e-10
9.9207987e-13
3.3918691e-10
-9.3639965e-13
3.3896764e-10
8.8460143e-13
3.3917501e-10
-8.3657892e-13
3.3897869e-10
7.9203422e-13
3.3916481e-10
-7.5086052e-13
3.3898813e-10
7.1281508e-13
3.3915614e-10
-6.7779624e-13
3.3899611e-10
6.4560594e-13
3.3914884e-10
-6.1615131e-13
3.3900278e-10
5.8927109e-13
3.391428e-10
-5.6488342e-13
3.3900824e-10
5.4285775e-13
3.3913791e-10
-5.2312463e-13
3.390126e-10
5.0557925e-13
3.3913408e-10
-4.9016566e-13
3.3901592e-10
4.768004e-13
3.3913126e-10
-4.6543465e-13
3.3901825e-10
4.5604164e-13
3.3912936e-10
-4.4849255e-13
3.3901997e-10
4.4193478e-13
3.3913276e-10
-4.4949204e-13
4.2197422e-13
4.2280797e-10
5.528808e-09
4.3222289e-10
-2.0894167e-11
4.295326e-10
6.8206073e-12
4.2913898e-10
3.391202e-12
4.3012314e-10
-5.2272595e-12
4.2935761e-10
4.4454142e-12
4.3022006e-10
-4.5859678e-12
4.2944176e-10
4.2104929e-12
4.3018864e-10
-3.9994292e-12
4.294943e-10
3.7325982e-12
4.3014816e-10
-3.5085688e-12
4.2953609e-10
3.287272e-12
4.3011083e-10
-3.0853375e-12
4.2957197e-10
2.8935928e-12
4.300778e-10
-2.7156767e-12
4.2960326e-10
2.5481076e-12
4.3004881e-10
-2.3920896e-12
4.2963062e-10
2.2454938e-12
4.3002342e-10
-2.1089049e-12
4.2965454e-10
1.9807336e-12
4.3000122e-10
-1.8613081e-12
4.2967542e-10
1.7493763e-12
4.2998183e-10
-1.6451139e-12
4.2969362e-10
1.5475212e-12
4.2996493e-10
-1.4566712e-12
4.2970945e-10
1.3717624e-12
4.2995024e-10
-1.2927979e-12
4.2972319e-10
1.2191334e-12
4.2993751e-10
-1.1507263e-12
4.2973506e-10
1.0870575e-12
4.2992654e-10
-1.0280569e-12
4.2974527e-10
9.7330481e-13
4.2991712e-10
-9.2271745e-13
4.2975398e-10
8.7595441e-13
4.2990911e-10
-8.3292813e-13
4.2976136e-10
7.9336195e-13
4.2990238e-10
-7.5717129e-13
4.2976752e-10
7.2413159e-13
4.298968e-10
-6.9416562e-13
4.2977257e-10
6.6709196e-13
4.2989229e-10
-6.4284369e-13
4.2977659e-10
6.2127515e-13
4.2988876e-10
-6.0233194e-13
4.2977966e-10
5.8589751e-13
4.2988615e-10
-5.7192109e-13
4.2978182e-10
5.603678e-13
4.2988436e-10
-5.5103631e-13
4.2978345e-10
5.4284794e-13
4.2988842e-10
-5.5446466e-13
5.1725077e-13
5.0899132e-10
6.3660667e-09
5.2068931e-10
-3.2592155e-11
5.1764592e-10
9.8639949e-12
5.1739385e-10
3.6432697e-12
5.1829118e-10
-6.1245836e-12
5.1762593e-10
5.110659e-12
5.1842118e-10
-5.3812107e-12
5.1771048e-10
4.9211897e-12
5.1839634e-10
-4.685294e-12
5.1776014e-10
4.3688037e-12
5.1835985e-10
-4.1082779e-12
5.1779875e-10
3.8483745e-12
5.1832577e-10
-3.6123602e-12
5.1783173e-10
3.3876341e-12
5.1829554e-10
-3.1794903e-12
5.1786046e-10
2.9831883e-12
5.1826899e-10
-2.800621e-12
5.1788557e-10
2.6289121e-12
5.1824574e-10
-2.469067e-12
5.1790752e-10
2.3189491e-12
5.1822539e-10
-2.1791827e-12
5.1792668e-10
2.0480912e-12
5.1820763e-10
-1.9260655e-12
5.1794338e-10
1.8117721e-12
5.1819215e-10
-1.70544e-12
5.1795791e-10
1.6060043e-12
5.1817869e-10
-1.5135801e-12
5.1797051e-10
1.4273149e-12
5.1816703e-10
-1.3472453e-12
5.179814e-10
1.2726873e-12
5.1815697e-10
-1.2036261e-12
5.1799076e-10
1.1395109e-12
5.1814834e-10
-1.0802963e-12
5.1799876e-10
1.025537e-12
5.18141e-10
-9.7517183e-13
5.1800552e-10
9.2884017e-13
5.1813483e-10
-8.8647562e-13
5.1801117e-10
8.4778611e-13
5.1812971e-10
-8.1270699e-13
5.180158e-10
7.8100272e-13
5.1812557e-10
-7.5261518e-13
5.1801949e-10
7.2735525e-13
5.1812234e-10
-7.0517499e-13
5.1802231e-10
6.8592226e-13
5.1811994e-10
-6.695477e-13
5.180243e-10
6.5600812e-13
5.1811828e-10
-6.4501354e-13
5.1802583e-10
6.352961e-13
5.181228e-10
-6.5143803e-13
6.0400289e-13
5.9272307e-10
7.1195937e-09
6.0649367e-10
-4.6362753e-11
6.0326662e-10
1.3091051e-11
6.0313859e-10
3.7712987e-12
6.0394073e-10
-6.926728e-12
6.0337419e-10
5.6772026e-12
6.0410198e-10
-6.1090066e-12
6.0345826e-10
5.5649177e-12
6.0408317e-10
-5.3102055e-12
6.0350488e-10
4.947094e-12
6.0405057e-10
-4.6539697e-12
6.0354028e-10
4.3586666e-12
6.0401971e-10
-4.091791e-12
6.0357036e-10
3.8369851e-12
6.0399226e-10
-3.6013979e-12
6.0359653e-10
3.3789225e-12
6.0396815e-10
-3.1722368e-12
6.036194e-10
2.97766e-12
6.0394702e-10
-2.7966835e-12
6.0363938e-10
2.6265844e-12
6.0392853e-10
-2.4683331e-12
6.0365682e-10
2.3197998e-12
6.0391239e-10
-2.18163e-12
6.0367202e-10
2.0521347e-12
6.0389831e-10
-1.9317305e-12
6.0368525e-10
1.8190728e-12
6.0388608e-10
-1.7144137e-12
6.0369671e-10
1.6166804e-12
6.0387548e-10
-1.5260089e-12
6.0370662e-10
1.4415411e-12
6.0386633e-10
-1.3633338e-12
6.0371514e-10
1.2906981e-12
6.0385849e-10
-1.22364e-12
6.0372242e-10
1.1616042e-12
6.0385181e-10
-1.1045667e-12
6.0372858e-10
1.0520789e-12
6.038462e-10
-1.0041008e-12
6.0373372e-10
9.6027032e-13
6.0384155e-10
-9.2054189e-13
6.0373793e-10
8.8462376e-13
6.0383779e-10
-8.5247189e-13
6.0374129e-10
8.2385199e-13
6.0383484e-10
-7.9872666e-13
6.0374386e-10
7.7690651e-13
6.0383266e-10
-7.5834634e-13
6.0374567e-10
7.4299447e-13
6.0383112e-10
-7.3045779e-13
6.0374709e-10
7.1932462e-13
6.0383594e-10
-7.4028832e-13
6.8226157e-13
6.7406811e-10
7.7917755e-09
6.8965271e-10
-6.1947358e-11
6.8639122e-10
1.6352537e-11
6.8636988e-10
3.7926454e-12
6.8707211e-10
-7.6289596e-12
6.8660217e-10
6.1471384e-12
6.872626e-10
-6.7694324e-12
6.8668498e-10
6.1425377e-12
6.8724921e-10
-5.874438e-12
6.8672841e-10
5.4678914e-12
6.8722041e-10
-5.1459656e-12
6.8676059e-10
4.8184841e-12
6.8719273e-10
-4.5239287e-12
6.8678778e-10
4.2419367e-12
6.8716805e-10
-3.981666e-12
6.868114e-10
3.7355657e-12
6.8714634e-10
-3.5071729e-12
6.8683204e-10
3.2919626e-12
6.8712732e-10
-3.0919628e-12
6.8685006e-10
2.9038381e-12
6.8711067e-10
-2.7289436e-12
6.868658e-10
2.5646776e-12
6.8709614e-10
-2.4119704e-12
6.8687951e-10
2.2687643e-12
6.8708346e-10
-2.1356873e-12
6.8689143e-10
2.0111053e-12
6.8707244e-10
-1.8954271e-12
6.8690177e-10
1.7873522e-12
6.870629e-10
-1.6871317e-12
6.8691071e-10
1.5937281e-12
6.8705466e-10
-1.5072825e-12
6.8691839e-10
1.4269641e-12
6.8704759e-10
-1.3528408e-12
6.8692495e-10
1.2842445e-12
6.8704158e-10
-1.2211965e-12
6.869305e-10
1.1631583e-12
6.8703652e-10
-1.1101234e-12
6.8693514e-10
1.0616579e-12
6.8703234e-10
-1.0177409e-12
6.8693894e-10
9.7802345e-13
6.8702894e-10
-9.4247983e-13
6.8694197e-10
9.1082972e-13
6.8702629e-10
-8.8304963e-13
6.8694428e-10
8.5891189e-13
6.8702432e-10
-8.3837786e-13
6.8694592e-10
8.2138708e-13
6.870229e-10
-8.0743113e-13
6.8694722e-10
7.9500391e-13
6.8702787e-10
-8.2093999e-13
7.5212265e-13
7.5307752e-10
8.384948e-09
7.701863e-10
-7.9056137e-11
7.670151e-10
1.9523738e-11
7.6708101e-10
3.7267359e-12
7.6768595e-10
-8.2339031e-12
7.6730962e-10
6.5234722e-12
7.6790311e-10
-7.3629223e-12
7.6739055e-10
6.6550999e-12
7.6789457e-10
-6.3784574e-12
7.6743066e-10
5.9317971e-12
7.6786945e-10
-5.5847576e-12
7.6745961e-10
5.2283218e-12
7.6784491e-10
-4.9092221e-12
7.6748392e-10
4.60292e-12
7.6782295e-10
-4.320693e-12
7.6750502e-10
4.053497e-12
7.6780363e-10
-3.8057812e-12
7.6752344e-10
3.5721538e-12
7.6778669e-10
-3.3552155e-12
7.6753952e-10
3.1510045e-12
7.6777187e-10
-2.9612883e-12
7.6755356e-10
2.7829841e-12
7.6775892e-10
-2.617329e-12
7.6756579e-10
2.46189e-12
7.6774763e-10
-2.3175247e-12
7.6757643e-10
2.182305e-12
7.6773782e-10
-2.0568107e-12
7.6758566e-10
1.9395107e-12
7.6772931e-10
-1.8307832e-12
7.6759363e-10
1.729409e-12
7.6772197e-10
-1.6356237e-12
7.6760048e-10
1.5484531e-12
7.6771567e-10
-1.4680349e-12
7.6760633e-10
1.3935876e-12
7.6771032e-10
-1.3251842e-12
7.6761128e-10
1.2621961e-12
7.6770581e-10
-1.2046554e-12
7.6761541e-10
1.1520564e-12
7.6770208e-10
-1.1044071e-12
7.676188e-10
1.0613012e-12
7.6769906e-10
-1.0227348e-12
7.6762151e-10
9.8838148e-13
7.6769669e-10
-9.582343e-13
7.6762358e-10
9.3202693e-13
7.6769493e-10
-9.097293e-13
7.6762504e-10
8.9127188e-13
7.6769363e-10
-8.7602137e-13
7.6762621e-10
8.6242731e-13
7.6769863e-10
-8.9336067e-13
8.1372407e-13
8.2979134e-10
8.9014067e-09
8.4811477e-10
-9.7379565e-11
8.4513277e-10
2.250574e-11
8.4526519e-10
3.5943109e-12
8.4578324e-10
-8.7519497e-12
8.4549627e-10
6.810444e-12
8.4602358e-10
-7.8902297e-12
8.4557486e-10
7.1038188e-12
8.4601931e-10
-6.8229072e-12
8.4561153e-10
6.3395751e-12
8.4599776e-10
-5.9709929e-12
8.4563727e-10
5.5888193e-12
8.459763e-10
-5.2482562e-12
8.4565873e-10
4.920493e-12
8.4595703e-10
-4.6189968e-12
8.4567732e-10
4.333207e-12
8.4594006e-10
-4.0685183e-12
8.4569355e-10
3.8186654e-12
8.4592518e-10
-3.5868441e-12
8.4570772e-10
3.368464e-12
8.4591215e-10
-3.1657225e-12
8.4572008e-10
2.9750549e-12
8.4590077e-10
-2.7980198e-12
8.4573085e-10
2.6318087e-12
8.4589085e-10
-2.4775208e-12
8.4574022e-10
2.3329346e-12
8.4588222e-10
-2.1988112e-12
8.4574834e-10
2.0733893e-12
8.4587474e-10
-1.9571827e-12
8.4575536e-10
1.8487919e-12
8.4586829e-10
-1.7485535e-12
8.4576139e-10
1.6553512e-12
8.4586275e-10
-1.5693983e-12
8.4576654e-10
1.4898009e-12
8.4585804e-10
-1.4166887e-12
8.457709e-10
1.349344e-12
8.4585408e-10
-1.2878414e-12
8.4577453e-10
1.2316044e-12
8.458508e-10
-1.180673e-12
8.4577752e-10
1.1345848e-12
8.4584814e-10
-1.0933599e-12
8.457799e-10
1.0566265e-12
8.4584606e-10
-1.0243964e-12
8.4578172e-10
9.9636479e-13
8.458445e-10
-9.7251171e-13
8.4578302e-10
9.5275831e-13
8.4584333e-10
-9.3633973e-13
8.4578405e-10
9.217094e-13
8.4584825e-10
-9.5755717e-13
8.6723572e-13
9.04243e-10
9.3434137e-09
9.2345615e-10
-1.1659271e-10
9.2073842e-10
2.5223467e-11
9.2091879e-10
3.4139398e-12
9.2136511e-10
-9.1982648e-12
9.2116199e-10
7.0135585e-12
9.2162407e-10
-8.3523053e-12
9.2123783e-10
7.4900572e-12
9.2162351e-10
-7.2085918e-12
9.2127095e-10
6.6921384e-12
9.2160542e-10
-6.305461e-12
9.2129349e-10
5.9007484e-12
9.2158697e-10
-5.5417401e-12
9.2131214e-10
5.19533e-12
9.2157034e-10
-4.877204e-12
9.2132826e-10
4.5752881e-12
9.2155568e-10
-4.2959365e-12
9.2134233e-10
4.0320189e-12
9.2154282e-10
-3.7873356e-12
9.2135461e-10
3.5566762e-12
9.2153156e-10
-3.3426759e-12
9.2136532e-10
3.1412956e-12
9.2152172e-10
-2.9544223e-12
9.2137465e-10
2.7788786e-12
9.2151314e-10
-2.6160116e-12
9.2138277e-10
2.4633117e-12
9.2150568e-10
-2.3217265e-12
9.213898e-10
2.1892698e-12
9.2149921e-10
-2.0665957e-12
9.2139588e-10
1.9521279e-12
9.2149363e-10
-1.8463088e-12
9.214011e-10
1.7478831e-12
9.2148885e-10
-1.6571435e-12
9.2140556e-10
1.5730866e-12
9.2148477e-10
-1.4959018e-12
9.2140933e-10
1.4247849e-12
9.2148135e-10
-1.3598556e-12
9.2141248e-10
1.3004687e-12
9.2147851e-10
-1.2466986e-12
9.2141506e-10
1.1980279e-12
9.2147621e-10
-1.1545031e-12
9.2141713e-10
1.1157083e-12
9.214744e-10
-1.0816751e-12
9.2141871e-10
1.0520613e-12
9.2147305e-10
-1.0268582e-12
9.2141984e-10
1.0059775e-12
9.2147201e-10
-9.8851885e-13
9.2142074e-10
9.729844e-13
9.2147675e-10
-1.013572e-12
9.1285438e-13
9.7646129e-10
9.7132024e-09
9.9622588e-10
-1.363573e-10
9.9382626e-10
2.7623088e-11
9.9404162e-10
3.19858e-12
9.9443253e-10
-9.5891721e-12
9.9430676e-10
7.1393227e-12
9.9470463e-10
-8.7501736e-12
9.9437938e-10
7.8153105e-12
9.9470725e-10
-7.5364609e-12
9.9440885e-10
6.9905369e-12
9.9469247e-10
-6.5890815e-12
9.9442822e-10
6.1650015e-12
9.9467697e-10
-5.7904965e-12
9.9444409e-10
5.4282108e-12
9.9466293e-10
-5.0960407e-12
9.9445779e-10
4.7804258e-12
9.9465053e-10
-4.4886758e-12
9.9446973e-10
4.2128176e-12
9.9463965e-10
-3.9572541e-12
9.9448016e-10
3.7161728e-12
9.9463013e-10
-3.4926462e-12
9.9448925e-10
3.2821755e-12
9.946218e-10
-3.0869762e-12
9.9449716e-10
2.9035147e-12
9.9461454e-10
-2.7333862e-12
9.9450405e-10
2.5738034e-12
9.9460822e-10
-2.425902e-12
9.9451001e-10
2.2874785e-12
9.9460275e-10
-2.1593292e-12
9.9451517e-10
2.0397077e-12
9.9459802e-10
-1.9291639e-12
9.945196e-10
1.8263088e-12
9.9459397e-10
-1.7315165e-12
9.9452338e-10
1.6436784e-12
9.9459052e-10
-1.5630454e-12
9.9452658e-10
1.4887304e-12
9.9458762e-10
-1.4208996e-12
9.9452925e-10
1.3588425e-12
9.9458522e-10
-1.3026684e-12
9.9453143e-10
1.2518084e-12
9.9458327e-10
-1.2063356e-12
9.9453318e-10
1.1657923e-12
9.9458174e-10
-1.1302309e-12
9.9453453e-10
1.0992729e-12
9.9458059e-10
-1.072922e-12
9.9453549e-10
1.0510802e-12
9.9457968e-10
-1.0327109e-12
9.9453626e-10
1.0164046e-12
9.9458417e-10
-1.06148e-12
9.5079956e-13
1.0464708e-09
1.0012982e-08
1.066438e-09
-1.5632445e-10
1.0643906e-09
2.9670485e-11
1.0646355e-09
2.953643e-12
1.0649862e-09
-9.9398203e-12
1.0649306e-09
7.1948593e-12
1.0652653e-09
-9.0848499e-12
1.0649994e-09
8.0811917e-12
1.0652706e-09
-7.8075936e-12
1.0650252e-09
7.2359455e-12
1.065259e-09
-6.8228916e-12
1.0650414e-09
6.3825809e-12
1.0652464e-09
-5.9954513e-12
1.0650546e-09
5.6200116e-12
1.0652348e-09
-5.2763238e-12
1.0650659e-09
4.94939e-12
1.0652247e-09
-4.6474557e-12
1.0650757e-09
4.3617396e-12
1.0652157e-09
-4.0972338e-12
1.0650843e-09
3.8475514e-12
1.0652079e-09
-3.6161928e-12
1.0650918e-09
3.3982219e-12
1.065201e-09
-3.196176e-12
1.0650984e-09
3.006183e-12
1.0651951e-09
-2.8300823e-12
1.065104e-09
2.6648229e-12
1.0651899e-09
-2.511726e-12
1.065109e-09
2.3683821e-12
1.0651854e-09
-2.2357287e-12
1.0651132e-09
2.1118581e-12
1.0651815e-09
-1.9974272e-12
1.0651169e-09
1.8909208e-12
1.0651781e-09
-1.792794e-12
1.06512e-09
1.7018394e-12
1.0651753e-09
-1.6183692e-12
1.0651226e-09
1.5414185e-12
1.0651729e-09
-1.4712002e-12
1.0651248e-09
1.4069424e-12
1.0651709e-09
-1.3487902e-12
1.0651266e-09
1.2961257e-12
1.0651693e-09
-1.2490495e-12
1.0651281e-09
1.2070645e-12
1.0651681e-09
-1.1702439e-12
1.0651292e-09
1.1381754e-12
1.0651671e-09
-1.1108752e-12
1.06513e-09
1.0882357e-12
1.0651663e-09
-1.0690857e-12
1.0651306e-09
1.0521391e-12
1.0651705e-09
-1.1013857e-12
9.8130951e-13
1.1142905e-09
1.0244941e-08
1.1341056e-09
-1.7613962e-10
1.1324266e-09
3.1349564e-11
1.1327029e-09
2.6773497e-12
1.1330264e-09
-1.0263387e-11
1.1330337e-09
7.1875434e-12
1.1333062e-09
-9.3573004e-12
1.133098e-09
8.289417e-12
1.1333136e-09
-8.023186e-12
1.1331198e-09
7.429652e-12
1.133305e-09
-7.0080356e-12
1.133133e-09
6.5545885e-12
1.1332952e-09
-6.157624e-12
1.1331435e-09
5.7716963e-12
1.1332861e-09
-5.4189523e-12
1.1331525e-09
5.083028e-12
1.1332781e-09
-4.7730683e-12
1.1331603e-09
4.4795304e-12
1.133271e-09
-4.2079728e-12
1.1331671e-09
3.9514694e-12
1.1332648e-09
-3.7139319e-12
1.133173e-09
3.4900149e-12
1.1332594e-09
-3.2825662e-12
1.1331782e-09
3.0873966e-12
1.1332547e-09
-2.9065818e-12
1.1331827e-09
2.7368246e-12
1.1332506e-09
-2.579626e-12
1.1331866e-09
2.4323845e-12
1.1332471e-09
-2.2961746e-12
1.13319e-09
2.1689388e-12
1.133244e-09
-2.0514383e-12
1.1331929e-09
1.9420407e-12
1.1332414e-09
-1.8412807e-12
1.1331953e-09
1.7478587e-12
1.1332391e-09
-1.6621477e-12
1.1331974e-09
1.5831107e-12
1.1332372e-09
-1.5110067e-12
1.1331992e-09
1.4450071e-12
1.1332357e-09
-1.3852923e-12
1.1332006e-09
1.3311994e-12
1.1332344e-09
-1.2828563e-12
1.1332017e-09
1.2397291e-12
1.1332334e-09
-1.2019124e-12
1.1332026e-09
1.1689617e-12
1.1332327e-09
-1.1409065e-12
1.1332033e-09
1.1176295e-12
1.133232e-09
-1.0978295e-12
1.1332038e-09
1.0803721e-12
1.1332358e-09
-1.1334202e-12
1.0046376e-12
1.1799285e-09
1.0411263e-08
1.1992414e-09
-1.954526e-10
1.1979349e-09
3.265609e-11
1.1982454e-09
2.3668459e-12
1.1985534e-09
-1.0571324e-11
1.1986161e-09
7.1247904e-12
1.1988273e-09
-9.5684472e-12
1.1986749e-09
8.4417959e-12
1.1988362e-09
-8.1845388e-12
1.1986928e-09
7.5730473e-12
1.1988306e-09
-7.1457538e-12
1.1987029e-09
6.6822163e-12
1.1988234e-09
-6.2781189e-12
1.1987108e-09
5.8843076e-12
1.1988168e-09
-5.5249001e-12
1.1987175e-09
5.1822564e-12
1.1988108e-09
-4.8663712e-12
1.1987234e-09
4.5669975e-12
1.1988056e-09
-4.2902272e-12
1.1987284e-09
4.0286384e-12
1.198801e-09
-3.7865307e-12
1.1987329e-09
3.558183e-12
1.198797e-09
-3.3467361e-12
1.1987367e-09
3.147711e-12
1.1987936e-09
-2.9634067e-12
1.1987401e-09
2.7903008e-12
1.1987905e-09
-2.6300651e-12
1.198743e-09
2.4799227e-12
1.1987879e-09
-2.341079e-12
1.1987455e-09
2.2113393e-12
1.1987856e-09
-2.0915652e-12
1.1987476e-09
1.9800171e-12
1.1987837e-09
-1.8773063e-12
1.1987495e-09
1.7820497e-12
1.198782e-09
-1.6946785e-12
1.198751e-09
1.6140905e-12
1.1987806e-09
-1.5405893e-12
1.1987523e-09
1.4732951e-12
1.1987794e-09
-1.4124222e-12
1.1987534e-09
1.3572674e-12
1.1987785e-09
-1.3079848e-12
1.1987542e-09
1.2640076e-12
1.1987778e-09
-1.2254508e-12
1.1987549e-09
1.1918409e-12
1.1987772e-09
-1.1632202e-12
1.1987554e-09
1.1394623e-12
1.1987767e-09
-1.1191429e-12
1.1987558e-09
1.1013016e-12
1.1987801e-09
-1.1577386e-12
1.0210492e-12
1.2433693e-09
1.0514143e-08
1.2618565e-09
-2.1393975e-10
1.2609337e-09
3.357886e-11
1.2612637e-09
2.0368578e-12
1.2615664e-09
-1.0874071e-11
1.2616775e-09
7.0137051e-12
1.2618285e-09
-9.7193855e-12
1.2617301e-09
8.5401637e-12
1.2618386e-09
-8.2930733e-12
1.2617441e-09
7.667607e-12
1.2618357e-09
-7.2373755e-12
1.2617512e-09
6.766737e-12
1.2618312e-09
-6.3581171e-12
1.2617565e-09
5.95896e-12
1.2618268e-09
-5.5952083e-12
1.261761e-09
5.2480551e-12
1.2618229e-09
-4.9282818e-12
1.2617649e-09
4.6250038e-12
1.2618195e-09
-4.3448056e-12
1.2617683e-09
4.0798192e-12
1.2618165e-09
-3.8347028e-12
1.2617713e-09
3.6033979e-12
1.2618139e-09
-3.3893167e-12
1.2617739e-09
3.1877203e-12
1.2618116e-09
-3.0011154e-12
1.2617761e-09
2.8257777e-12
1.2618096e-09
-2.6635387e-12
1.261778e-09
2.5114643e-12
1.2618078e-09
-2.3708825e-12
1.2617797e-09
2.2394764e-12
1.2618063e-09
-2.1182014e-12
1.2617811e-09
2.0052228e-12
1.261805e-09
-1.9012239e-12
1.2617823e-09
1.8047475e-12
1.2618039e-09
-1.7162799e-12
1.2617834e-09
1.6346612e-12
1.261803e-09
-1.5602371e-12
1.2617842e-09
1.4920825e-12
1.2618023e-09
-1.4304446e-12
1.2617849e-09
1.3745839e-12
1.2618016e-09
-1.3246799e-12
1.2617855e-09
1.2801366e-12
1.2618011e-09
-1.2410885e-12
1.261786e-09
1.2070362e-12
1.2618008e-09
-1.1780345e-12
1.2617863e-09
1.1539486e-12
1.2618004e-09
-1.1332399e-12
1.2617865e-09
1.1151385e-12
1.2618033e-09
-1.1745181e-12
1.0308186e-12
1.3045443e-09
1.0555849e-08
1.3219485e-09
-2.3134392e-10
1.3214885e-09
3.4038868e-11
1.3217658e-09
1.7594998e-12
1.3220655e-09
-1.1173706e-11
1.3222177e-09
6.8614685e-12
1.3223097e-09
-9.8113488e-12
1.3222635e-09
8.5863378e-12
1.3223208e-09
-8.3503498e-12
1.3222735e-09
7.7148684e-12
1.3223205e-09
-7.284318e-12
1.3222777e-09
6.8094928e-12
1.3223185e-09
-6.39887e-12
1.3222806e-09
5.996832e-12
1.3223164e-09
-5.6309794e-12
1.322283e-09
5.2814611e-12
1.3223144e-09
-4.9597713e-12
1.322285e-09
4.6544625e-12
1.3223127e-09
-4.3725642e-12
1.3222867e-09
4.1058174e-12
1.3223113e-09
-3.8592039e-12
1.3222883e-09
3.6263707e-12
1.3223099e-09
-3.4109757e-12
1.3222896e-09
3.2080534e-12
1.3223088e-09
-3.020299e-12
1.3222908e-09
2.8438128e-12
1.3223078e-09
-2.6805714e-12
1.3222917e-09
2.5275044e-12
1.3223069e-09
-2.386052e-12
1.3222926e-09
2.2537911e-12
1.3223062e-09
-2.1317636e-12
1.3222933e-09
2.0180524e-12
1.3223055e-09
-1.9134072e-12
1.322294e-09
1.8163069e-12
1.322305e-09
-1.727289e-12
1.3222945e-09
1.6451437e-12
1.3223045e-09
-1.5702561e-12
1.3222949e-09
1.5016623e-12
1.3223041e-09
-1.4396396e-12
1.3222953e-09
1.3834182e-12
1.3223038e-09
-1.3332009e-12
1.3222956e-09
1.2883668e-12
1.3223036e-09
-1.2490684e-12
1.3222958e-09
1.2147841e-12
1.3223034e-09
-1.1855807e-12
1.322296e-09
1.1613154e-12
1.3223031e-09
-1.1403463e-12
1.3222961e-09
1.1221049e-12
1.3223056e-09
-1.1839553e-12
1.0342271e-12
1.3633636e-09
1.0538735e-08
1.3795029e-09
-2.4748321e-10
1.3796836e-09
3.3858181e-11
1.3797763e-09
1.6667864e-12
1.3800539e-09
-1.1451349e-11
1.3802382e-09
6.6772361e-12
1.3802714e-09
-9.8445569e-12
1.3802752e-09
8.5824767e-12
1.3802828e-09
-8.3579002e-12
1.3802812e-09
7.7164817e-12
1.3802849e-09
-7.2880537e-12
1.3802825e-09
6.8118975e-12
1.3802853e-09
-6.4016893e-12
1.380283e-09
5.999161e-12
1.3802854e-09
-5.6333704e-12
1.3802833e-09
5.2835627e-12
1.3802854e-09
-4.9618594e-12
1.3802835e-09
4.6563326e-12
1.3802853e-09
-4.3744022e-12
1.3802837e-09
4.1074785e-12
1.3802853e-09
-3.8608275e-12
1.3802838e-09
3.627848e-12
1.3802853e-09
-3.4124145e-12
1.3802839e-09
3.2093706e-12
1.3802852e-09
-3.0215785e-12
1.380284e-09
2.8449911e-12
1.3802852e-09
-2.681714e-12
1.3802841e-09
2.5285628e-12
1.3802851e-09
-2.3870776e-12
1.3802842e-09
2.2547466e-12
1.3802851e-09
-2.1326895e-12
1.3802842e-09
2.0189202e-12
1.3802851e-09
-1.9142488e-12
1.3802843e-09
1.8171007e-12
1.3802851e-09
-1.7280597e-12
1.3802843e-09
1.6458752e-12
1.380285e-09
-1.5709677e-12
1.3802844e-09
1.5023416e-12
1.380285e-09
-1.4403018e-12
1.3802844e-09
1.3840531e-12
1.380285e-09
-1.3338202e-12
1.3802844e-09
1.2889612e-12
1.380285e-09
-1.2496457e-12
1.3802844e-09
1.2153329e-12
1.380285e-09
-1.1861013e-12
1.3802845e-09
1.1618008e-12
1.3802848e-09
-1.1406989e-12
1.3802845e-09
1.1224336e-12
1.3802868e-09
-1.1862645e-12
1.0315604e-12
1.4199092e-09
1.0465076e-08
1.4345565e-09
-2.621305e-10
1.4354436e-09
3.2971093e-11
1.4352853e-09
1.8250232e-12
1.435528e-09
-1.1694034e-11
1.4357378e-09
6.4674106e-12
1.4357132e-09
-9.8199354e-12
1.4357651e-09
8.5306053e-12
1.4357246e-09
-8.3174003e-12
1.4357669e-09
7.6741399e-12
1.435729e-09
-7.2501282e-12
1.4357655e-09
6.7754205e-12
1.4357317e-09
-6.3679439e-12
1.4357637e-09
5.9672364e-12
1.4357339e-09
-5.6035883e-12
1.4357619e-09
5.2554943e-12
1.4357357e-09
-4.9356095e-12
1.4357604e-09
4.6316135e-12
1.4357373e-09
-4.3512572e-12
1.4357591e-09
4.0856841e-12
1.4357386e-09
-3.8404013e-12
1.4357579e-09
3.6086086e-12
1.4357398e-09
-3.3943645e-12
1.4357568e-09
3.1923605e-12
1.4357409e-09
-3.0056014e-12
1.4357559e-09
2.8299227e-12
1.4357418e-09
-2.6675412e-12
1.4357551e-09
2.5151815e-12
1.4357425e-09
-2.3744704e-12
1.4357545e-09
2.242826e-12
1.4357432e-09
-2.1214354e-12
1.4357539e-09
2.0082586e-12
1.4357438e-09
-1.9041579e-12
1.4357534e-09
1.8075173e-12
1.4357443e-09
-1.7189614e-12
1.4357529e-09
1.6372073e-12
1.4357447e-09
-1.5627074e-12
1.4357526e-09
1.4944412e-12
1.435745e-09
-1.4327383e-12
1.4357523e-09
1.3767839e-12
1.4357453e-09
-1.3268219e-12
1.435752e-09
1.2821947e-12
1.4357455e-09
-1.2430864e-12
1.4357519e-09
1.2089418e-12
1.4357456e-09
-1.1798494e-12
1.4357518e-09
1.1556531e-12
1.4357456e-09
-1.1345441e-12
1.4357517e-09
1.1163664e-12
1.4357471e-09
-1.1816759e-12
1.023107e-12
1.4743192e-09
1.0337007e-08
1.4871483e-09
-2.7495962e-10
1.488625e-09
3.1494413e-11
1.4882751e-09
2.1749554e-12
1.4884829e-09
-1.1901912e-11
1.4887154e-09
6.2349338e-12
1.4886349e-09
-9.7394382e-12
1.488733e-09
8.4325801e-12
1.4886462e-09
-8.2306761e-12
1.4887308e-09
7.5895707e-12
1.4886528e-09
-7.1721538e-12
1.4887267e-09
6.7015811e-12
1.4886578e-09
-6.2990545e-12
1.4887226e-09
5.9023939e-12
1.4886619e-09
-5.5428844e-12
1.488719e-09
5.1984321e-12
1.4886655e-09
-4.8821243e-12
1.4887158e-09
4.5813415e-12
1.4886686e-09
-4.3041015e-12
1.4887129e-09
4.0413482e-12
1.4886713e-09
-3.7987834e-12
1.4887105e-09
3.5694594e-12
1.4886737e-09
-3.3575841e-12
1.4887083e-09
3.157737e-12
1.4886758e-09
-2.9730392e-12
1.4887064e-09
2.7992404e-12
1.4886775e-09
-2.6386486e-12
1.4887048e-09
2.4879225e-12
1.4886791e-09
-2.3487605e-12
1.4887034e-09
2.2185301e-12
1.4886804e-09
-2.0984747e-12
1.4887022e-09
1.9865156e-12
1.4886816e-09
-1.8835591e-12
1.4887011e-09
1.7879598e-12
1.4886825e-09
-1.7003768e-12
1.4887002e-09
1.6195047e-12
1.4886834e-09
-1.545823e-12
1.4886995e-09
1.4782936e-12
1.488684e-09
-1.4172676e-12
1.4886989e-09
1.3619165e-12
1.4886846e-09
-1.312501e-12
1.4886984e-09
1.2683519e-12
1.488685e-09
-1.2296667e-12
1.4886981e-09
1.1958792e-12
1.4886853e-09
-1.1670873e-12
1.4886978e-09
1.1431299e-12
1.4886854e-09
-1.1221368e-12
1.4886976e-09
1.1041539e-12
1.4886864e-09
-1.1704339e-12
1.0091567e-12
1.5265871e-09
1.015667e-08
1.5372702e-09
-2.8564263e-10
1.5392047e-09
2.9559851e-11
1.5387612e-09
2.6184482e-12
1.5389201e-09
-1.2060819e-11
1.5391719e-09
5.9831928e-12
1.5390368e-09
-9.6044029e-12
1.5391789e-09
8.2905113e-12
1.5390478e-09
-8.0995285e-12
1.5391727e-09
7.4645875e-12
1.5390564e-09
-7.0557814e-12
1.539166e-09
6.5919512e-12
1.5390634e-09
-6.1964847e-12
1.5391598e-09
5.8060121e-12
1.5390695e-09
-5.4525496e-12
1.5391543e-09
5.113589e-12
1.5390747e-09
-4.8025415e-12
1.5391495e-09
4.5065855e-12
1.5390793e-09
-4.2339383e-12
1.5391453e-09
3.9754137e-12
1.5390833e-09
-3.7368593e-12
1.5391416e-09
3.511233e-12
1.5390868e-09
-3.3028559e-12
1.5391383e-09
3.1062363e-12
1.5390899e-09
-2.9245846e-12
1.5391355e-09
2.7535965e-12
1.5390925e-09
-2.5956509e-12
1.5391331e-09
2.4473654e-12
1.5390948e-09
-2.3104947e-12
1.539131e-09
2.1823755e-12
1.5390968e-09
-2.0642958e-12
1.5391292e-09
1.9541535e-12
1.5390985e-09
-1.8528905e-12
1.5391276e-09
1.7588441e-12
1.5390999e-09
-1.6727013e-12
1.5391263e-09
1.5931438e-12
1.5391011e-09
-1.5206733e-12
1.5391252e-09
1.454242e-12