/*--------------------------------*- C++ -*----------------------------------*\
| =========                 |                                                 |
| \\      /  F ield         | OpenFOAM: The Open Source CFD Toolbox           |
|  \\    /   O peration     | Version:  2312                                  |
|   \\  /    A nd           | Website:  www.openfoam.com                      |
|    \\/     M anipulation  |                                                 |
\*---------------------------------------------------------------------------*/
FoamFile
{
    version     2.0;
    format      ascii;
    arch        "LSB;label=32;scalar=64";
    class       volSymmTensorField;
    location    "5";
    object      sigma_0;
}
// * * * * * * * * * * * * * * * * * * * * * * * * * * * * * * * * * * * * * //

dimensions      [0 2 -2 0 0 0 0];

internalField   nonuniform List<symmTensor> 
4000
(
(-0.39103236 -0.20774969 0 -0.070833567 0 0)
(-0.66804867 -0.14915066 0 -3.0510015e-05 0 0)
(-0.59379985 -0.14066744 0 3.5392851e-06 0 0)
(-0.63279154 -0.14530144 0 -2.9519384e-05 0 0)
(-0.60116684 -0.14148561 0 3.203827e-05 0 0)
(-0.63086285 -0.14508162 0 -2.9358807e-05 0 0)
(-0.60379412 -0.14180325 0 2.8157624e-05 0 0)
(-0.62924678 -0.14488813 0 -2.6262864e-05 0 0)
(-0.60547938 -0.1420089 0 2.4703344e-05 0 0)
(-0.6277552 -0.14470904 0 -2.3145074e-05 0 0)
(-0.60689239 -0.14218145 0 2.1711857e-05 0 0)
(-0.6264252 -0.14454921 0 -2.0365765e-05 0 0)
(-0.60812731 -0.14233211 0 1.9100369e-05 0 0)
(-0.62525275 -0.1444082 0 -1.7923494e-05 0 0)
(-0.60921348 -0.1424645 0 1.6813541e-05 0 0)
(-0.62422115 -0.14428404 0 -1.5782642e-05 0 0)
(-0.61017027 -0.142581 0 1.4810689e-05 0 0)
(-0.62331326 -0.14417471 0 -1.3907944e-05 0 0)
(-0.61101374 -0.14268361 0 1.305769e-05 0 0)
(-0.62251364 -0.14407837 0 -1.2267901e-05 0 0)
(-0.61175794 -0.14277407 0 1.1524924e-05 0 0)
(-0.62180862 -0.1439934 0 -1.0834849e-05 0 0)
(-0.61241525 -0.1428539 0 1.0186527e-05 0 0)
(-0.62118617 -0.14391836 0 -9.5845958e-06 0 0)
(-0.61299663 -0.14292444 0 9.0199168e-06 0 0)
(-0.62063568 -0.143852 0 -8.496028e-06 0 0)
(-0.61351177 -0.1429869 0 8.0054071e-06 0 0)
(-0.62014777 -0.14379319 0 -7.5507628e-06 0 0)
(-0.61396929 -0.14304231 0 7.1258781e-06 0 0)
(-0.61971414 -0.14374094 0 -6.7328383e-06 0 0)
(-0.61437686 -0.14309162 0 6.3664877e-06 0 0)
(-0.61932743 -0.14369436 0 -6.0284454e-06 0 0)
(-0.61474129 -0.14313565 0 5.7144238e-06 0 0)
(-0.61898108 -0.14365268 0 -5.4256966e-06 0 0)
(-0.6150687 -0.14317515 0 5.1586906e-06 0 0)
(-0.61866921 -0.14361519 0 -4.9144278e-06 0 0)
(-0.61536457 -0.14321079 0 4.6899267e-06 0 0)
(-0.61838654 -0.14358125 0 -4.4860323e-06 0 0)
(-0.61563388 -0.14324317 0 4.3002569e-06 0 0)
(-0.61812829 -0.14355031 0 -4.1333283e-06 0 0)
(-0.61588115 -0.14327282 0 3.9831775e-06 0 0)
(-0.61789009 -0.14352182 0 -3.8504667e-06 0 0)
(-0.61611053 -0.14330025 0 3.7334949e-06 0 0)
(-0.61766791 -0.14349532 0 -3.632915e-06 0 0)
(-0.61632591 -0.14332593 0 3.5473644e-06 0 0)
(-0.61745795 -0.14347035 0 -3.4776799e-06 0 0)
(-0.61653087 -0.14335028 0 3.4230406e-06 0 0)
(-0.61725679 -0.14344651 0 -3.3807409e-06 0 0)
(-0.61673331 -0.14337415 0 3.3910776e-06 0 0)
(-0.6170977 -0.14342769 0 -3.337956e-06 0 0)
(-0.35590323 -0.1939121 0 -0.066202766 0 0)
(-0.60578717 -0.14212202 0 -0.00024027725 0 0)
(-0.5525365 -0.1357286 0 -3.3800283e-05 0 0)
(-0.58560602 -0.13981105 0 -2.872669e-05 0 0)
(-0.55776389 -0.13623857 0 3.6394707e-05 0 0)
(-0.58394435 -0.13961845 0 -3.1803113e-05 0 0)
(-0.56008297 -0.13653635 0 3.1777755e-05 0 0)
(-0.58254259 -0.13944064 0 -2.9320945e-05 0 0)
(-0.56157235 -0.13673015 0 2.7744566e-05 0 0)
(-0.58122809 -0.1392724 0 -2.5935239e-05 0 0)
(-0.56281897 -0.13689266 0 2.435503e-05 0 0)
(-0.58005366 -0.13912191 0 -2.2834012e-05 0 0)
(-0.56390801 -0.1370345 0 2.1420604e-05 0 0)
(-0.57901811 -0.13898911 0 -2.0098092e-05 0 0)
(-0.56486584 -0.13715913 0 1.8855283e-05 0 0)
(-0.57810695 -0.13887217 0 -1.7698128e-05 0 0)
(-0.56570962 -0.1372688 0 1.6609279e-05 0 0)
(-0.57730508 -0.13876919 0 -1.5596271e-05 0 0)
(-0.56645351 -0.1373654 0 1.4643633e-05 0 0)
(-0.57659883 -0.13867845 0 -1.3757492e-05 0 0)
(-0.56710991 -0.13745056 0 1.2925009e-05 0 0)
(-0.57597613 -0.13859842 0 -1.2150823e-05 0 0)
(-0.56768973 -0.13752572 0 1.1424384e-05 0 0)
(-0.57542633 -0.13852774 0 -1.0749149e-05 0 0)
(-0.56820263 -0.13759214 0 1.0116431e-05 0 0)
(-0.57494006 -0.13846523 0 -9.5288027e-06 0 0)
(-0.56865717 -0.13765095 0 8.9790809e-06 0 0)
(-0.57450902 -0.13840982 0 -8.4691808e-06 0 0)
(-0.56906094 -0.13770313 0 7.993142e-06 0 0)
(-0.57412589 -0.13836059 0 -7.5523966e-06 0 0)
(-0.56942069 -0.13774957 0 7.1419833e-06 0 0)
(-0.57378415 -0.13831671 0 -6.7629819e-06 0 0)
(-0.56974246 -0.13779105 0 6.4112551e-06 0 0)
(-0.57347801 -0.13827743 0 -6.08763e-06 0 0)
(-0.57003164 -0.13782826 0 5.7886526e-06 0 0)
(-0.57320226 -0.13824209 0 -5.5149772e-06 0 0)
(-0.57029306 -0.13786185 0 5.2637191e-06 0 0)
(-0.57295225 -0.1382101 0 -5.0354253e-06 0 0)
(-0.57053113 -0.13789236 0 4.8276902e-06 0 0)
(-0.57272374 -0.13818091 0 -4.64101e-06 0 0)
(-0.57074984 -0.13792032 0 4.4733928e-06 0 0)
(-0.57251285 -0.13815404 0 -4.3253385e-06 0 0)
(-0.57095288 -0.1379462 0 4.1952396e-06 0 0)
(-0.57231602 -0.13812903 0 -4.0836819e-06 0 0)
(-0.57114368 -0.13797043 0 3.9894416e-06 0 0)
(-0.57212986 -0.13810546 0 -3.9136875e-06 0 0)
(-0.57132544 -0.13799342 0 3.8557125e-06 0 0)
(-0.57195105 -0.13808291 0 -3.8098875e-06 0 0)
(-0.57150361 -0.13801564 0 3.8801493e-06 0 0)
(-0.57180124 -0.13806403 0 -3.714671e-06 0 0)
(-0.33411034 -0.18408771 0 -0.061743288 0 0)
(-0.56594828 -0.13700269 0 -0.00012920048 0 0)
(-0.52481629 -0.13230019 0 -5.4557756e-05 0 0)
(-0.5550692 -0.13614956 0 -2.7240598e-05 0 0)
(-0.5296272 -0.13272683 0 3.664785e-05 0 0)
(-0.55357702 -0.13596576 0 -3.073233e-05 0 0)
(-0.53175452 -0.13301195 0 3.1793333e-05 0 0)
(-0.5523037 -0.13579737 0 -2.9049383e-05 0 0)
(-0.53311921 -0.13319803 0 2.762012e-05 0 0)
(-0.55110218 -0.13563624 0 -2.577087e-05 0 0)
(-0.53425998 -0.13335397 0 2.4219404e-05 0 0)
(-0.55002762 -0.13549195 0 -2.2699829e-05 0 0)
(-0.53525632 -0.13349006 0 2.129704e-05 0 0)
(-0.54908007 -0.1353646 0 -1.9981656e-05 0 0)
(-0.53613265 -0.13360961 0 1.8745863e-05 0 0)
(-0.54824636 -0.13525246 0 -1.7595859e-05 0 0)
(-0.53690466 -0.13371483 0 1.6512848e-05 0 0)
(-0.54751269 -0.13515371 0 -1.5506201e-05 0 0)
(-0.53758534 -0.13380751 0 1.4558679e-05 0 0)
(-0.54686653 -0.13506669 0 -1.3678081e-05 0 0)
(-0.53818599 -0.13388921 0 1.2850118e-05 0 0)
(-0.54629682 -0.13498993 0 -1.2080743e-05 0 0)
(-0.53871661 -0.13396132 0 1.1358291e-05 0 0)
(-0.54579381 -0.13492215 0 -1.0687228e-05 0 0)
(-0.53918602 -0.13402505 0 1.0058021e-05 0 0)
(-0.54534891 -0.13486219 0 -9.4740099e-06 0 0)
(-0.53960206 -0.13408148 0 8.9273681e-06 0 0)
(-0.54495454 -0.13480905 0 -8.4206042e-06 0 0)
(-0.53997166 -0.13413156 0 7.9472621e-06 0 0)
(-0.54460398 -0.13476182 0 -7.5092346e-06 0 0)
(-0.540301 -0.13417613 0 7.1011786e-06 0 0)
(-0.54429126 -0.13471972 0 -6.7245334e-06 0 0)
(-0.5405956 -0.13421595 0 6.3748663e-06 0 0)
(-0.54401108 -0.13468202 0 -6.0532883e-06 0 0)
(-0.54086039 -0.13425168 0 5.7561152e-06 0 0)
(-0.54375869 -0.13464811 0 -5.4842305e-06 0 0)
(-0.54109982 -0.13428393 0 5.2345672e-06 0 0)
(-0.54352981 -0.1346174 0 -5.0078663e-06 0 0)
(-0.54131789 -0.13431324 0 4.8015744e-06 0 0)
(-0.54332056 -0.13458937 0 -4.6163649e-06 0 0)
(-0.54151828 -0.1343401 0 4.4501266e-06 0 0)
(-0.54312739 -0.13456356 0 -4.3035408e-06 0 0)
(-0.54170435 -0.13436497 0 4.1749175e-06 0 0)
(-0.54294703 -0.13453953 0 -4.0650655e-06 0 0)
(-0.54187927 -0.13438827 0 3.9727492e-06 0 0)
(-0.54277637 -0.13451686 0 -3.8996682e-06 0 0)
(-0.542046 -0.13441038 0 3.844994e-06 0 0)
(-0.54261224 -0.13449515 0 -3.8035758e-06 0 0)
(-0.54220915 -0.13443163 0 3.9148971e-06 0 0)
(-0.54247057 -0.13447667 0 -3.8111949e-06 0 0)
(-0.31937457 -0.17553248 0 -0.056858682 0 0)
(-0.52972631 -0.1323222 0 -6.9844856e-05 0 0)
(-0.49757587 -0.1288511 0 -7.9295029e-05 0 0)
(-0.52541119 -0.1324897 0 -2.2739309e-05 0 0)
(-0.50212801 -0.12921484 0 3.3377998e-05 0 0)
(-0.52411047 -0.13231418 0 -2.6408444e-05 0 0)
(-0.50408826 -0.12948738 0 2.8853001e-05 0 0)
(-0.5229506 -0.13215514 0 -2.596973e-05 0 0)
(-0.50534189 -0.12966581 0 2.4876969e-05 0 0)
(-0.52184824 -0.13200102 0 -2.3143285e-05 0 0)
(-0.50638859 -0.12981521 0 2.1777751e-05 0 0)
(-0.52086129 -0.13186282 0 -2.0399887e-05 0 0)
(-0.50730251 -0.12994555 0 1.9144037e-05 0 0)
(-0.51999093 -0.13174082 0 -1.7959496e-05 0 0)
(-0.50810635 -0.13006005 0 1.684979e-05 0 0)
(-0.51922519 -0.13163339 0 -1.5815581e-05 0 0)
(-0.50881454 -0.13016083 0 1.4842509e-05 0 0)
(-0.51855137 -0.13153879 0 -1.3937479e-05 0 0)
(-0.50943898 -0.13024959 0 1.3086048e-05 0 0)
(-0.51795795 -0.13145542 0 -1.22944e-05 0 0)
(-0.50999004 -0.13032785 0 1.1550386e-05 0 0)
(-0.51743477 -0.13138188 0 -1.0858748e-05 0 0)
(-0.51047687 -0.13039692 0 1.0209545e-05 0 0)
(-0.51697286 -0.13131694 0 -9.6063016e-06 0 0)
(-0.51090757 -0.13045797 0 9.0408903e-06 0 0)
(-0.51656433 -0.13125948 0 -8.5159158e-06 0 0)
(-0.51128931 -0.13051203 0 8.0247042e-06 0 0)
(-0.5162022 -0.13120856 0 -7.5691849e-06 0 0)
(-0.51162846 -0.13056001 0 7.1438508e-06 0 0)
(-0.5158803 -0.1311633 0 -6.7501379e-06 0 0)
(-0.51193069 -0.13060273 0 6.3834865e-06 0 0)
(-0.51559316 -0.13112294 0 -6.044973e-06 0 0)
(-0.51220104 -0.13064089 0 5.7308146e-06 0 0)
(-0.51533591 -0.1310868 0 -5.4418314e-06 0 0)
(-0.51244405 -0.13067514 0 5.1748802e-06 0 0)
(-0.51510416 -0.13105428 0 -4.9306105e-06 0 0)
(-0.51266379 -0.13070606 0 4.7064058e-06 0 0)
(-0.51489401 -0.13102482 0 -4.5028198e-06 0 0)
(-0.51286395 -0.13073417 0 4.3176745e-06 0 0)
(-0.51470187 -0.13099793 0 -4.1514968e-06 0 0)
(-0.51304789 -0.13075995 0 4.0024895e-06 0 0)
(-0.51452451 -0.13097316 0 -3.8712274e-06 0 0)
(-0.5132187 -0.13078382 0 3.7562928e-06 0 0)
(-0.51435889 -0.13095008 0 -3.6584392e-06 0 0)
(-0.5133793 -0.1308062 0 3.5766836e-06 0 0)
(-0.51420216 -0.1309283 0 -3.5129331e-06 0 0)
(-0.51353241 -0.13082745 0 3.4662918e-06 0 0)
(-0.51405132 -0.13090742 0 -3.4311676e-06 0 0)
(-0.51368189 -0.13084776 0 3.584542e-06 0 0)
(-0.51391698 -0.13088926 0 -3.5193254e-06 0 0)
(-0.30590505 -0.16733875 0 -0.05216989 0 0)
(-0.49473079 -0.12768305 0 2.9740754e-06 0 0)
(-0.47074799 -0.12535298 0 -9.5968207e-05 0 0)
(-0.49656377 -0.12883209 0 -1.9117352e-05 0 0)
(-0.47527972 -0.12569854 0 2.9555545e-05 0 0)
(-0.49550431 -0.12866608 0 -2.1961409e-05 0 0)
(-0.47710501 -0.12595962 0 2.567861e-05 0 0)
(-0.49444823 -0.1285157 0 -2.2689275e-05 0 0)
(-0.47825889 -0.12613077 0 2.1931206e-05 0 0)
(-0.49343526 -0.1283682 0 -2.0329604e-05 0 0)
(-0.47922095 -0.12627397 0 1.915991e-05 0 0)
(-0.4925274 -0.1282358 0 -1.7935087e-05 0 0)
(-0.48006074 -0.12639886 0 1.6836409e-05 0 0)
(-0.49172673 -0.1281189 0 -1.5792077e-05 0 0)
(-0.48079938 -0.12650857 0 1.4817625e-05 0 0)
(-0.49102236 -0.12801596 0 -1.3907362e-05 0 0)
(-0.48145016 -0.12660513 0 1.3052245e-05 0 0)
(-0.49040258 -0.1279253 0 -1.2255987e-05 0 0)
(-0.48202401 -0.12669018 0 1.1507626e-05 0 0)
(-0.48985679 -0.12784541 0 -1.081121e-05 0 0)
(-0.48253045 -0.12676517 0 1.0157214e-05 0 0)
(-0.48937563 -0.12777494 0 -9.5488184e-06 0 0)
(-0.48297788 -0.12683136 0 8.9781351e-06 0 0)
(-0.48895084 -0.1277127 0 -8.4475229e-06 0 0)
(-0.48337374 -0.12688987 0 7.9504779e-06 0 0)
(-0.48857516 -0.12765764 0 -7.4887339e-06 0 0)
(-0.4837246 -0.12694169 0 7.0569053e-06 0 0)
(-0.48824217 -0.12760883 0 -6.6562711e-06 0 0)
(-0.48403632 -0.12698768 0 6.2823517e-06 0 0)
(-0.48794619 -0.12756544 0 -5.9360964e-06 0 0)
(-0.48431411 -0.12702862 0 5.6137697e-06 0 0)
(-0.48768218 -0.12752675 0 -5.3160816e-06 0 0)
(-0.4845626 -0.1270652 0 5.039915e-06 0 0)
(-0.48744566 -0.12749211 0 -4.7858112e-06 0 0)
(-0.48478596 -0.12709805 0 4.5511685e-06 0 0)
(-0.48723262 -0.12746092 0 -4.3364205e-06 0 0)
(-0.48498791 -0.1271277 0 4.1393947e-06 0 0)
(-0.48703943 -0.12743266 0 -3.9604747e-06 0 0)
(-0.48517187 -0.12715467 0 3.7978486e-06 0 0)
(-0.48686283 -0.12740686 0 -3.6519062e-06 0 0)
(-0.4853409 -0.1271794 0 3.521156e-06 0 0)
(-0.48669981 -0.12738308 0 -3.4060596e-06 0 0)
(-0.48549787 -0.12720232 0 3.3054617e-06 0 0)
(-0.48654761 -0.12736093 0 -3.2200225e-06 0 0)
(-0.48564543 -0.12722381 0 3.1489866e-06 0 0)
(-0.48640358 -0.12734001 0 -3.0943295e-06 0 0)
(-0.48578613 -0.12724423 0 3.0549373e-06 0 0)
(-0.48626492 -0.12731993 0 -3.0250376e-06 0 0)
(-0.4859232 -0.12726365 0 3.208497e-06 0 0)
(-0.48613808 -0.12730217 0 -3.1831238e-06 0 0)
(-0.29286079 -0.15938506 0 -0.047708209 0 0)
(-0.46142687 -0.12313545 0 8.9775168e-05 0 0)
(-0.44448138 -0.12182078 0 -0.00010391073 0 0)
(-0.46852944 -0.12517473 0 -1.6341996e-05 0 0)
(-0.44910951 -0.12217899 0 2.5902169e-05 0 0)
(-0.46773439 -0.12502042 0 -1.8076729e-05 0 0)
(-0.45082733 -0.12242968 0 2.2915408e-05 0 0)
(-0.46677718 -0.12487834 0 -1.9816312e-05 0 0)
(-0.45189057 -0.12259384 0 1.9354156e-05 0 0)
(-0.46584646 -0.12473721 0 -1.7865632e-05 0 0)
(-0.45277503 -0.12273106 0 1.686847e-05 0 0)
(-0.46501123 -0.12461037 0 -1.5776918e-05 0 0)
(-0.45354682 -0.1228507 0 1.4816379e-05 0 0)
(-0.46427457 -0.12449837 0 -1.3894368e-05 0 0)
(-0.45422565 -0.1229558 0 1.3038693e-05 0 0)
(-0.46362654 -0.12439975 0 -1.223662e-05 0 0)
(-0.45482376 -0.1230483 0 1.1485044e-05 0 0)
(-0.46305638 -0.12431289 0 -1.0783759e-05 0 0)
(-0.45535121 -0.12312978 0 1.0125843e-05 0 0)
(-0.46255432 -0.12423635 0 -9.5125958e-06 0 0)
(-0.45581671 -0.12320163 0 8.9375698e-06 0 0)
(-0.46211172 -0.12416883 0 -8.4018849e-06 0 0)
(-0.45622799 -0.12326504 0 7.9000679e-06 0 0)
(-0.46172101 -0.12410919 0 -7.4329072e-06 0 0)
(-0.45659187 -0.1233211 0 6.9958112e-06 0 0)
(-0.46137548 -0.12405643 0 -6.5893111e-06 0 0)
(-0.45691441 -0.12337075 0 6.2095438e-06 0 0)
(-0.46106923 -0.12400966 0 -5.8568645e-06 0 0)
(-0.45720096 -0.12341481 0 5.5280114e-06 0 0)
(-0.46079703 -0.12396808 0 -5.2232207e-06 0 0)
(-0.45745632 -0.12345405 0 4.9397367e-06 0 0)
(-0.46055426 -0.123931 0 -4.677715e-06 0 0)
(-0.45768475 -0.12348912 0 4.4348315e-06 0 0)
(-0.46033678 -0.12389779 0 -4.2111921e-06 0 0)
(-0.45789006 -0.1235206 0 4.0048409e-06 0 0)
(-0.4601409 -0.12386789 0 -3.8158655e-06 0 0)
(-0.4580757 -0.12354903 0 3.6426224e-06 0 0)
(-0.45996329 -0.1238408 0 -3.4852153e-06 0 0)
(-0.45824477 -0.12357489 0 3.3422687e-06 0 0)
(-0.45980094 -0.12381605 0 -3.213941e-06 0 0)
(-0.45840012 -0.12359862 0 3.0991032e-06 0 0)
(-0.4596511 -0.12379324 0 -2.9980191e-06 0 0)
(-0.45854437 -0.1236206 0 2.9098382e-06 0 0)
(-0.45951122 -0.12377198 0 -2.8350433e-06 0 0)
(-0.45867997 -0.12364123 0 2.7731267e-06 0 0)
(-0.45937887 -0.1237519 0 -2.7259975e-06 0 0)
(-0.45880924 -0.12366084 0 2.6922935e-06 0 0)
(-0.45925143 -0.12373261 0 -2.6660875e-06 0 0)
(-0.45893493 -0.12367943 0 2.8702428e-06 0 0)
(-0.45913201 -0.12371526 0 -2.8772823e-06 0 0)
(-0.28034427 -0.15171141 0 -0.043452598 0 0)
(-0.4298004 -0.11867555 0 0.00019187199 0 0)
(-0.41880097 -0.11825941 0 -0.00010379886 0 0)
(-0.44133319 -0.12151648 0 -1.3509502e-05 0 0)
(-0.42363248 -0.11865663 0 2.2439092e-05 0 0)
(-0.4407901 -0.12137643 0 -1.4666858e-05 0 0)
(-0.42526439 -0.11889806 0 2.0485615e-05 0 0)
(-0.43992817 -0.12124251 0 -1.728237e-05 0 0)
(-0.42624517 -0.11905549 0 1.7080273e-05 0 0)
(-0.43907381 -0.12110754 0 -1.5691028e-05 0 0)
(-0.42705811 -0.1191869 0 1.4846167e-05 0 0)
(-0.43830575 -0.12098611 0 -1.3872258e-05 0 0)
(-0.42776715 -0.11930145 0 1.3033615e-05 0 0)
(-0.43762827 -0.12087888 0 -1.2219598e-05 0 0)
(-0.42839078 -0.11940207 0 1.1468713e-05 0 0)
(-0.43703232 -0.12078444 0 -1.0762155e-05 0 0)
(-0.42894029 -0.11949063 0 1.0101922e-05 0 0)
(-0.436508 -0.12070128 0 -9.484476e-06 0 0)
(-0.42942489 -0.11956864 0 8.906349e-06 0 0)
(-0.43604634 -0.12062798 0 -8.3665158e-06 0 0)
(-0.42985261 -0.11963743 0 7.8611562e-06 0 0)
(-0.43563939 -0.12056333 0 -7.3896498e-06 0 0)
(-0.43023053 -0.11969815 0 6.948586e-06 0 0)
(-0.43528015 -0.12050622 0 -6.5374274e-06 0 0)
(-0.4305649 -0.11975183 0 6.1532179e-06 0 0)
(-0.43496248 -0.1204557 0 -5.7954728e-06 0 0)
(-0.43086128 -0.11979937 0 5.4616331e-06 0 0)
(-0.43468093 -0.1204109 0 -5.1512724e-06 0 0)
(-0.4311246 -0.11984157 0 4.8621744e-06 0 0)
(-0.43443071 -0.12037108 0 -4.5939714e-06 0 0)
(-0.43135925 -0.11987915 0 4.3447494e-06 0 0)
(-0.43420754 -0.12033556 0 -4.1141947e-06 0 0)
(-0.43156916 -0.11991274 0 3.9006646e-06 0 0)
(-0.43400764 -0.12030375 0 -3.7038966e-06 0 0)
(-0.43175782 -0.1199429 0 3.5224896e-06 0 0)
(-0.4338276 -0.1202751 0 -3.3562385e-06 0 0)
(-0.43192839 -0.11997014 0 3.2039534e-06 0 0)
(-0.43366437 -0.12024914 0 -3.0655014e-06 0 0)
(-0.43208374 -0.11999492 0 2.9398801e-06 0 0)
(-0.43351519 -0.12022543 0 -2.8270507e-06 0 0)
(-0.43222647 -0.12001766 0 2.7261933e-06 0 0)
(-0.43337751 -0.12020356 0 -2.6373995e-06 0 0)
(-0.43235899 -0.12003875 0 2.5600758e-06 0 0)
(-0.43324899 -0.12018317 0 -2.4945419e-06 0 0)
(-0.43248355 -0.12005853 0 2.4404899e-06 0 0)
(-0.43312741 -0.12016391 0 -2.3997313e-06 0 0)
(-0.43260229 -0.12007734 0 2.3706161e-06 0 0)
(-0.43301033 -0.12014538 0 -2.3471798e-06 0 0)
(-0.4327175 -0.12009514 0 2.5643941e-06 0 0)
(-0.43289821 -0.12012847 0 -2.5994134e-06 0 0)
(-0.2684365 -0.14432914 0 -0.039380485 0 0)
(-0.39984075 -0.11430669 0 0.00030633369 0 0)
(-0.39369968 -0.11467195 0 -9.7251556e-05 0 0)
(-0.41501906 -0.11785936 0 -9.8791587e-06 0 0)
(-0.3988644 -0.11513172 0 1.9248933e-05 0 0)
(-0.41466809 -0.11773398 0 -1.1571214e-05 0 0)
(-0.40042171 -0.11536492 0 1.8262355e-05 0 0)
(-0.41389637 -0.11760805 0 -1.4966816e-05 0 0)
(-0.40132729 -0.11551585 0 1.4996424e-05 0 0)
(-0.41311305 -0.11747908 0 -1.3700077e-05 0 0)
(-0.40207422 -0.11564161 0 1.2993713e-05 0 0)
(-0.41240725 -0.1173629 0 -1.2128077e-05 0 0)
(-0.40272526 -0.1157512 0 1.1400773e-05 0 0)
(-0.41178455 -0.1172603 0 -1.0685881e-05 0 0)
(-0.40329786 -0.11584747 0 1.0030798e-05 0 0)
(-0.41123682 -0.11716995 0 -9.4118534e-06 0 0)
(-0.40380244 -0.11593219 0 8.8351509e-06 0 0)
(-0.41075495 -0.11709037 0 -8.2945869e-06 0 0)
(-0.40424744 -0.11600683 0 7.7894343e-06 0 0)
(-0.41033069 -0.11702024 0 -7.3169103e-06 0 0)
(-0.40464022 -0.11607264 0 6.8752743e-06 0 0)
(-0.40995672 -0.11695838 0 -6.4626004e-06 0 0)
(-0.40498728 -0.11613074 0 6.077113e-06 0 0)
(-0.40962662 -0.11690373 0 -5.7172846e-06 0 0)
(-0.40529436 -0.1161821 0 5.3814592e-06 0 0)
(-0.40933472 -0.11685538 0 -5.0683955e-06 0 0)
(-0.40556656 -0.1162276 0 4.776576e-06 0 0)
(-0.40907603 -0.11681251 0 -4.5049931e-06 0 0)
(-0.4058084 -0.11626798 0 4.252269e-06 0 0)
(-0.40884614 -0.1167744 0 -4.0175873e-06 0 0)
(-0.40602391 -0.11630395 0 3.7997126e-06 0 0)
(-0.40864111 -0.11674041 0 -3.5979827e-06 0 0)
(-0.40621668 -0.1163361 0 3.4113058e-06 0 0)
(-0.40845747 -0.11670995 0 -3.2391474e-06 0 0)
(-0.40638995 -0.11636497 0 3.0805546e-06 0 0)
(-0.40829208 -0.11668253 0 -2.9351073e-06 0 0)
(-0.4065466 -0.11639105 0 2.8019822e-06 0 0)
(-0.40814216 -0.11665767 0 -2.6808721e-06 0 0)
(-0.40668926 -0.11641478 0 2.5710759e-06 0 0)
(-0.40800513 -0.11663495 0 -2.4724082e-06 0 0)
(-0.40682032 -0.11643657 0 2.3842972e-06 0 0)
(-0.4078787 -0.116614 0 -2.3067034e-06 0 0)
(-0.40694199 -0.11645676 0 2.2392358e-06 0 0)
(-0.40776069 -0.11659446 0 -2.1820819e-06 0 0)
(-0.40705635 -0.11647572 0 2.1350827e-06 0 0)
(-0.40764907 -0.116576 0 -2.099943e-06 0 0)
(-0.40716535 -0.11649376 0 2.0747105e-06 0 0)
(-0.40754157 -0.11655823 0 -2.0534494e-06 0 0)
(-0.40727091 -0.1165108 0 2.277514e-06 0 0)
(-0.40743656 -0.11654177 0 -2.3378538e-06 0 0)
(-0.25711272 -0.13722625 0 -0.035483662 0 0)
(-0.3715188 -0.11002861 0 0.00043078575 0 0)
(-0.36919242 -0.11106118 0 -8.548661e-05 0 0)
(-0.38959624 -0.11420437 0 -5.2443069e-06 0 0)
(-0.37481906 -0.11160458 0 1.6537203e-05 0 0)
(-0.38936614 -0.11409311 0 -8.7092389e-06 0 0)
(-0.37630425 -0.11183027 0 1.6201078e-05 0 0)
(-0.38867793 -0.11397494 0 -1.2822809e-05 0 0)
(-0.37714076 -0.11197493 0 1.3059165e-05 0 0)
(-0.3879607 -0.11385181 0 -1.1852295e-05 0 0)
(-0.3778267 -0.11209521 0 1.1273056e-05 0 0)
(-0.38731264 -0.11374075 0 -1.0508679e-05 0 0)
(-0.37842408 -0.11219997 0 9.8843924e-06 0 0)
(-0.38674073 -0.11364265 0 -9.261784e-06 0 0)
(-0.37894947 -0.112292 0 8.695488e-06 0 0)
(-0.38623768 -0.11355626 0 -8.1580334e-06 0 0)
(-0.37941246 -0.112373 0 7.6587751e-06 0 0)
(-0.38579515 -0.11348017 0 -7.1896964e-06 0 0)
(-0.3798208 -0.11244436 0 6.7522136e-06 0 0)
(-0.38540554 -0.11341312 0 -6.3422614e-06 0 0)
(-0.38018125 -0.11250728 0 5.9597242e-06 0 0)
(-0.38506214 -0.11335396 0 -5.6017336e-06 0 0)
(-0.38049974 -0.11256283 0 5.2677946e-06 0 0)
(-0.38475903 -0.11330171 0 -4.9556694e-06 0 0)
(-0.38078156 -0.11261194 0 4.6647254e-06 0 0)
(-0.38449101 -0.11325548 0 -4.3931806e-06 0 0)
(-0.38103137 -0.11265544 0 4.1403418e-06 0 0)
(-0.3842535 -0.11321448 0 -3.904787e-06 0 0)
(-0.38125332 -0.11269406 0 3.6858065e-06 0 0)
(-0.38404243 -0.11317804 0 -3.4822649e-06 0 0)
(-0.3814511 -0.11272845 0 3.2934697e-06 0 0)
(-0.38385421 -0.11314552 0 -3.1185125e-06 0 0)
(-0.38162802 -0.1127592 0 2.9567436e-06 0 0)
(-0.38368563 -0.11311639 0 -2.8074374e-06 0 0)
(-0.38178703 -0.11278682 0 2.6700013e-06 0 0)
(-0.38353382 -0.11309015 0 -2.5438654e-06 0 0)
(-0.38193079 -0.11281177 0 2.4285003e-06 0 0)
(-0.3833962 -0.11306637 0 -2.323478e-06 0 0)
(-0.3820617 -0.11283448 0 2.2283383e-06 0 0)
(-0.38327044 -0.11304463 0 -2.1427922e-06 0 0)
(-0.38218197 -0.11285533 0 2.0664659e-06 0 0)
(-0.38315441 -0.11302458 0 -1.9992224e-06 0 0)
(-0.38229361 -0.11287466 0 1.94083e-06 0 0)
(-0.38304613 -0.11300587 0 -1.8913686e-06 0 0)
(-0.38239852 -0.11289282 0 1.8507877e-06 0 0)
(-0.38294372 -0.11298819 0 -1.8206767e-06 0 0)
(-0.38249851 -0.1129101 0 1.798789e-06 0 0)
(-0.38284511 -0.11297116 0 -1.7792329e-06 0 0)
(-0.38259516 -0.1129264 0 2.0048023e-06 0 0)
(-0.382747 -0.11295516 0 -2.0888222e-06 0 0)
(-0.24631391 -0.13038653 0 -0.031759646 0 0)
(-0.34480044 -0.10583992 0 0.00056373566 0 0)
(-0.34535731 -0.10743372 0 -6.916083e-05 0 0)
(-0.36502149 -0.11054899 0 1.2398552e-07 0 0)
(-0.35150352 -0.10807547 0 1.4473019e-05 0 0)
(-0.36488009 -0.11045377 0 -6.0442336e-06 0 0)
(-0.35291625 -0.10829415 0 1.4291776e-05 0 0)
(-0.3642692 -0.11034317 0 -1.0835519e-05 0 0)
(-0.3536891 -0.10843276 0 1.1255558e-05 0 0)
(-0.36361351 -0.1102257 0 -1.0135682e-05 0 0)
(-0.35431864 -0.1085477 0 9.6728574e-06 0 0)
(-0.36301907 -0.11011962 0 -9.0034413e-06 0 0)
(-0.35486633 -0.10864778 0 8.4745234e-06 0 0)
(-0.3624943 -0.1100259 0 -7.9379352e-06 0 0)
(-0.35534796 -0.10873569 0 7.4540227e-06 0 0)
(-0.36203272 -0.10994336 0 -6.9924387e-06 0 0)
(-0.35577241 -0.10881307 0 6.5650757e-06 0 0)
(-0.36162669 -0.10987067 0 -6.1625305e-06 0 0)
(-0.35614679 -0.10888123 0 5.7878807e-06 0 0)
(-0.36126923 -0.1098066 0 -5.4361552e-06 0 0)
(-0.35647726 -0.10894135 0 5.1084993e-06 0 0)
(-0.36095418 -0.10975008 0 -4.8013878e-06 0 0)
(-0.35676929 -0.10899441 0 4.5153233e-06 0 0)
(-0.36067611 -0.10970016 0 -4.2475773e-06 0 0)
(-0.35702768 -0.10904133 0 3.9983192e-06 0 0)
(-0.36043024 -0.10965598 0 -3.7653956e-06 0 0)
(-0.35725674 -0.1090829 0 3.5487642e-06 0 0)
(-0.36021237 -0.10961681 0 -3.3467189e-06 0 0)
(-0.35746025 -0.1091198 0 3.1590821e-06 0 0)
(-0.36001877 -0.10958198 0 -2.9844996e-06 0 0)
(-0.35764161 -0.10915267 0 2.8227149e-06 0 0)
(-0.35984613 -0.10955091 0 -2.6726514e-06 0 0)
(-0.35780383 -0.10918205 0 2.5340156e-06 0 0)
(-0.35969151 -0.10952307 0 -2.4059531e-06 0 0)
(-0.35794963 -0.10920845 0 2.2881618e-06 0 0)
(-0.35955229 -0.10949799 0 -2.1799717e-06 0 0)
(-0.35808144 -0.1092323 0 2.0810907e-06 0 0)
(-0.35942609 -0.10947525 0 -1.9910098e-06 0 0)
(-0.35820146 -0.10925401 0 1.9094629e-06 0 0)
(-0.35931078 -0.10945446 0 -1.8360895e-06 0 0)
(-0.35831171 -0.10927395 0 1.7706749e-06 0 0)
(-0.35920439 -0.10943528 0 -1.7130098e-06 0 0)
(-0.35841406 -0.10929245 0 1.6629878e-06 0 0)
(-0.35910513 -0.10941738 0 -1.6206004e-06 0 0)
(-0.35851022 -0.10930982 0 1.5858748e-06 0 0)
(-0.35901126 -0.10940046 0 -1.5602744e-06 0 0)
(-0.35860186 -0.10932636 0 1.5412859e-06 0 0)
(-0.35892089 -0.10938415 0 -1.5230402e-06 0 0)
(-0.35869027 -0.10934196 0 1.7454912e-06 0 0)
(-0.35882945 -0.10936864 0 -1.8519373e-06 0 0)
(-0.23598258 -0.12379534 0 -0.028205626 0 0)
(-0.31964385 -0.10173846 0 0.00070442271 0 0)
(-0.32228221 -0.10379647 0 -4.8741887e-05 0 0)
(-0.34124917 -0.10689082 0 5.8353965e-06 0 0)
(-0.32891983 -0.10454454 0 1.3108076e-05 0 0)
(-0.34120516 -0.1068159 0 -3.5604792e-06 0 0)
(-0.33026118 -0.10475659 0 1.2524743e-05 0 0)
(-0.34066686 -0.10671269 0 -8.9943831e-06 0 0)
(-0.33097546 -0.10488937 0 9.5762983e-06 0 0)
(-0.34006858 -0.10660074 0 -8.5417056e-06 0 0)
(-0.3315528 -0.10499912 0 8.1849837e-06 0 0)
(-0.33952401 -0.10649948 0 -7.6047891e-06 0 0)
(-0.3320544 -0.10509465 0 7.1640391e-06 0 0)
(-0.33904304 -0.10641002 0 -6.7076439e-06 0 0)
(-0.33249546 -0.10517856 0 6.3001319e-06 0 0)
(-0.33861998 -0.10633123 0 -5.9091738e-06 0 0)
(-0.33288416 -0.10525241 0 5.5485296e-06 0 0)
(-0.33824785 -0.10626184 0 -5.2078944e-06 0 0)
(-0.33322702 -0.10531748 0 4.8915672e-06 0 0)
(-0.33792025 -0.10620068 0 -4.5940122e-06 0 0)
(-0.33352968 -0.10537486 0 4.3173055e-06 0 0)
(-0.33763153 -0.10614672 0 -4.057522e-06 0 0)
(-0.33379714 -0.10542552 0 3.8159067e-06 0 0)
(-0.33737672 -0.10609906 0 -3.5894374e-06 0 0)
(-0.33403381 -0.10547031 0 3.3788863e-06 0 0)
(-0.33715143 -0.10605688 0 -3.1818794e-06 0 0)
(-0.33424361 -0.10550998 0 2.9988702e-06 0 0)
(-0.33695179 -0.10601949 0 -2.827984e-06 0 0)
(-0.33443001 -0.10554522 0 2.6694537e-06 0 0)
(-0.33677441 -0.10598623 0 -2.5217955e-06 0 0)
(-0.33459612 -0.1055766 0 2.3850928e-06 0 0)
(-0.33661624 -0.10595656 0 -2.2581701e-06 0 0)
(-0.3347447 -0.10560466 0 2.1410138e-06 0 0)
(-0.33647458 -0.10592997 0 -2.0326951e-06 0 0)
(-0.33487824 -0.10562987 0 1.9331407e-06 0 0)
(-0.33634704 -0.10590602 0 -1.8416241e-06 0 0)
(-0.33499895 -0.10565265 0 1.7580401e-06 0 0)
(-0.33623145 -0.1058843 0 -1.6818335e-06 0 0)
(-0.33510887 -0.10567339 0 1.6128916e-06 0 0)
(-0.33612583 -0.10586444 0 -1.5508102e-06 0 0)
(-0.33520984 -0.10569244 0 1.4954992e-06 0 0)
(-0.3360284 -0.10584611 0 -1.4467e-06 0 0)
(-0.33530355 -0.10571012 0 1.4044016e-06 0 0)
(-0.33593749 -0.105829 0 -1.3685252e-06 0 0)
(-0.33539159 -0.10572672 0 1.339149e-06 0 0)
(-0.33585155 -0.10581282 0 -1.3176037e-06 0 0)
(-0.33547549 -0.10574255 0 1.301149e-06 0 0)
(-0.33576883 -0.10579722 0 -1.2838998e-06 0 0)
(-0.33555627 -0.10575746 0 1.4992836e-06 0 0)
(-0.33568382 -0.1057822 0 -1.6271305e-06 0 0)
(-0.22606685 -0.11743975 0 -0.024818045 0 0)
(-0.29599947 -0.097721057 0 0.00085280652 0 0)
(-0.3000246 -0.10015449 0 -2.5155276e-05 0 0)
(-0.31825957 -0.10322964 0 1.1596654e-05 0 0)
(-0.3070689 -0.10101181 0 1.2384185e-05 0 0)
(-0.31833751 -0.10317946 0 -1.255616e-06 0 0)
(-0.30834204 -0.10121764 0 1.0884255e-05 0 0)
(-0.31786799 -0.10308345 0 -7.2885419e-06 0 0)
(-0.30900256 -0.1013448 0 8.0109709e-06 0 0)
(-0.31732336 -0.10297687 0 -7.0609234e-06 0 0)
(-0.30953159 -0.10144951 0 6.8004202e-06 0 0)
(-0.31682522 -0.10288031 0 -6.3043447e-06 0 0)
(-0.30999043 -0.10154061 0 5.9450434e-06 0 0)
(-0.31638498 -0.10279499 0 -5.5635133e-06 0 0)
(-0.31039381 -0.10162063 0 5.2268718e-06 0 0)
(-0.31599774 -0.10271984 0 -4.9017203e-06 0 0)
(-0.31074931 -0.10169106 0 4.6030215e-06 0 0)
(-0.31565713 -0.10265365 0 -4.3200448e-06 0 0)
(-0.3110629 -0.10175311 0 4.0578836e-06 0 0)
(-0.31535729 -0.10259532 0 -3.8107686e-06 0 0)
(-0.31133975 -0.10180783 0 3.5813883e-06 0 0)
(-0.31509306 -0.10254386 0 -3.3656667e-06 0 0)
(-0.31158439 -0.10185615 0 3.1653458e-06 0 0)
(-0.31485986 -0.1024984 0 -2.9772994e-06 0 0)
(-0.31180088 -0.10189887 0 2.8027119e-06 0 0)
(-0.31465369 -0.10245817 0 -2.6391341e-06 0 0)
(-0.31199278 -0.10193671 0 2.4873663e-06 0 0)
(-0.31447101 -0.10242249 0 -2.3454774e-06 0 0)
(-0.31216329 -0.10197032 0 2.2139935e-06 0 0)
(-0.31430869 -0.10239077 0 -2.0913881e-06 0 0)
(-0.31231524 -0.10200026 0 1.9779919e-06 0 0)
(-0.31416397 -0.10236246 0 -1.8725981e-06 0 0)
(-0.31245115 -0.10202703 0 1.7753993e-06 0 0)
(-0.31403437 -0.1023371 0 -1.6854452e-06 0 0)
(-0.31257329 -0.10205108 0 1.6028326e-06 0 0)
(-0.31391768 -0.10231424 0 -1.5268202e-06 0 0)
(-0.31268371 -0.10207282 0 1.4574424e-06 0 0)
(-0.31381193 -0.10229351 0 -1.3941309e-06 0 0)
(-0.31278424 -0.10209261 0 1.3368876e-06 0 0)
(-0.31371532 -0.10227455 0 -1.2852915e-06 0 0)
(-0.31287658 -0.1021108 0 1.2393454e-06 0 0)
(-0.31362621 -0.10225705 0 -1.1987628e-06 0 0)
(-0.31296228 -0.10212768 0 1.1636012e-06 0 0)
(-0.31354308 -0.10224071 0 -1.1337291e-06 0 0)
(-0.31304278 -0.10214354 0 1.1092524e-06 0 0)
(-0.3134645 -0.10222526 0 -1.091367e-06 0 0)
(-0.31311948 -0.10215866 0 1.0771515e-06 0 0)
(-0.31338887 -0.10221035 0 -1.060662e-06 0 0)
(-0.3131932 -0.10217291 0 1.2656504e-06 0 0)
(-0.31331003 -0.10219584 0 -1.4140693e-06 0 0)
(-0.21651556 -0.1113082 0 -0.021594115 0 0)
(-0.27379991 -0.093782431 0 0.001008964 0 0)
(-0.27861875 -0.096513293 0 -1.6905311e-07 0 0)
(-0.29605222 -0.099566207 0 1.7325106e-05 0 0)
(-0.28595242 -0.097477225 0 1.2241686e-05 0 0)
(-0.29627423 -0.099544402 0 8.8716113e-07 0 0)
(-0.28716153 -0.097677336 0 9.3574828e-06 0 0)
(-0.29587004 -0.099455402 0 -5.7070086e-06 0 0)
(-0.28777282 -0.097799076 0 6.549649e-06 0 0)
(-0.29537562 -0.09935406 0 -5.6842818e-06 0 0)
(-0.28825711 -0.0978989 0 5.5104979e-06 0 0)
(-0.29492075 -0.099262075 0 -5.0940741e-06 0 0)
(-0.28867626 -0.097985697 0 4.8099551e-06 0 0)
(-0.29451843 -0.099180774 0 -4.4984467e-06 0 0)
(-0.28904464 -0.098061932 0 4.2275796e-06 0 0)
(-0.29416451 -0.099109168 0 -3.9638251e-06 0 0)
(-0.2893693 -0.098129034 0 3.7226851e-06 0 0)
(-0.29385322 -0.099046102 0 -3.493472e-06 0 0)
(-0.28965569 -0.098188156 0 3.28166e-06 0 0)
(-0.29357921 -0.098990518 0 -3.0815666e-06 0 0)
(-0.28990853 -0.098240294 0 2.8961872e-06 0 0)
(-0.29333775 -0.09894148 0 -2.7215343e-06 0 0)
(-0.29013197 -0.098286329 0 2.5596123e-06 0 0)
(-0.29312465 -0.098898158 0 -2.4073733e-06 0 0)
(-0.2903297 -0.098327035 0 2.2662314e-06 0 0)
(-0.29293627 -0.098859823 0 -2.1338029e-06 0 0)
(-0.29050498 -0.098363098 0 2.0110916e-06 0 0)
(-0.29276936 -0.098825825 0 -1.8962184e-06 0 0)
(-0.29066071 -0.098395124 0 1.7898905e-06 0 0)
(-0.29262106 -0.098795591 0 -1.6906225e-06 0 0)