/*--------------------------------*- C++ -*----------------------------------*\
| =========                 |                                                 |
| \\      /  F ield         | OpenFOAM: The Open Source CFD Toolbox           |
|  \\    /   O peration     | Version:  2312                                  |
|   \\  /    A nd           | Website:  www.openfoam.com                      |
|    \\/     M anipulation  |                                                 |
\*---------------------------------------------------------------------------*/
FoamFile
{
    version     2.0;
    format      ascii;
    arch        "LSB;label=32;scalar=64";
    class       volScalarField;
    location    "5";
    object      T;
}
// * * * * * * * * * * * * * * * * * * * * * * * * * * * * * * * * * * * * * //

dimensions      [0 0 0 1 0 0 0];

internalField   nonuniform List<scalar> 
4000
(
309.26115
310.16151
310.2895
310.37104
310.43276
310.49203
310.54263
310.59469
310.64096
310.68943
310.73349
310.77983
310.82259
310.8675
310.90943
310.95334
310.99469
311.03785
311.0788
311.12137
311.16202
311.20412
311.24455
311.28627
311.32651
311.36794
311.40802
311.44922
311.48913
311.53017
311.56992
311.61084
311.65043
311.69129
311.7307
311.77152
311.81076
311.85159
311.89063
311.93149
311.97035
312.01126
312.04991
312.0909
312.12931
312.17043
312.20854
312.24989
312.28748
312.32979
307.44591
309.25775
309.5616
309.72773
309.83455
309.93397
310.00747
310.08526
310.14577
310.21282
310.26668
310.32733
310.37729
310.4337
310.48115
310.53453
310.58027
310.63139
310.67592
310.72528
310.76892
310.81688
310.85983
310.90668
310.94906
310.99502
311.03691
311.08218
311.12359
311.16836
311.20929
311.25373
311.29415
311.33839
311.37829
311.42244
311.4618
311.50596
311.54477
311.58901
311.62725
311.67164
311.70926
311.7539
311.79081
311.83583
311.87183
311.91756
311.952
312.00053
306.1332
308.36657
308.83647
309.08596
309.23762
309.37688
309.47324
309.57659
309.65136
309.73688
309.80058
309.87546
309.93265
310.00047
310.05348
310.11628
310.16644
310.22547
310.27361
310.32973
310.37637
310.43017
310.47566
310.52759
310.57215
310.6226
310.66632
310.71565
310.75856
310.80706
310.84916
310.89711
310.93836
310.98598
311.02636
311.07385
311.11333
311.16082
311.19939
311.24702
311.28463
311.33251
311.36909
311.41739
311.45278
311.50172
311.53561
311.58571
311.61702
311.6716
305.1486
307.50155
308.11824
308.44796
308.6436
308.82195
308.94102
309.06956
309.15857
309.2623
309.33586
309.4248
309.48926
309.56836
309.62697
309.69907
309.7537
309.82055
309.87234
309.93513
309.98482
310.04437
310.09244
310.14941
310.19616
310.25107
310.29664
310.34999
310.39442
310.44662
310.4899
310.54134
310.58343
310.63443
310.67528
310.72609
310.7657
310.81652
310.85484
310.90585
310.94283
310.99421
311.02974
311.08169
311.11558
311.16842
311.20022
311.25469
311.28291
311.34324
304.38873
306.67625
307.41246
307.8168
308.05471
308.27083
308.41222
308.5653
308.66844
308.78998
308.87339
308.97609
309.04784
309.138
309.20226
309.28348
309.34262
309.41715
309.47263
309.54197
309.59475
309.65997
309.71066
309.77257
309.82154
309.88085
309.92829
309.98561
310.03156
310.08744
310.1319
310.18682
310.22973
310.28409
310.32541
310.37954
310.41925
310.4734
310.51146
310.56585
310.60219
310.65706
310.69155
310.74716
310.77954
310.83628
310.866
310.9248
310.95001
311.01575
303.78922
305.90241
306.72566
307.19627
307.47365
307.72556
307.88853
308.0652
308.18221
308.32099
308.41416
308.53021
308.60924
308.71016
308.78006
308.87018
308.93385
309.01587
309.07508
309.15081
309.20672
309.27746
309.3308
309.39756
309.44878
309.5124
309.56172
309.62294
309.67043
309.72993
309.77557
309.83393
309.87766
309.93537
309.97714
310.03458
310.07437
310.13184
310.16962
310.22739
310.26308
310.32143
310.35487
310.41412
310.445
310.50562
310.53329
310.59638
310.6187
310.68947
303.30818
305.18907
306.06473
306.59074
306.90356
307.18849
307.37191
307.57087
307.70133
307.85654
307.95929
308.08816
308.17439
308.28567
308.36121
308.4599
308.52811
308.61737
308.68033
308.76225
308.82131
308.89741
308.95343
309.02489
309.07838
309.14619
309.19742
309.26246
309.31148
309.37455
309.42135
309.48312
309.52764
309.58866
309.63087
309.69158
309.73145
309.79222
309.82971
309.89084
309.92587
309.98768
310.02007
310.08293
310.11233
310.17679
310.20246
310.26975
310.28935
310.36472
302.91715
304.54226
305.43642
306.00483
306.34785
306.66226
306.86454
307.08413
307.22736
307.39803
307.51004
307.65105
307.74433
307.86547
307.94657
308.05347
308.12619
308.22238
308.28908
308.37694
308.43916
308.52042
308.57912
308.65511
308.71089
308.78276
308.83588
308.90464
308.95519
309.02174
309.06969
309.13481
309.1801
309.2444
309.28701
309.35098
309.3909
309.45493
309.49212
309.55657
309.59093
309.65617
309.68751
309.75395
309.78189
309.85013
309.87386
309.94525
309.96231
310.04186
302.59608
303.96502
304.84679
305.44323
305.8101
306.14967
306.36873
306.60692
306.76202
306.94693
307.06774
307.22008
307.32016
307.45057
307.5371
307.65174
307.7289
307.83166
307.90207
307.99558
308.06094
308.1471
308.20849
308.28882
308.34687
308.42264
308.47765
308.55
308.60206
308.67201
308.72107
308.78946
308.8355
308.90301
308.94601
309.01317
309.05311
309.12037
309.15723
309.22497
309.25866
309.32728
309.35758
309.42753
309.45405
309.52599
309.54785
309.6232
309.63795
309.72127
302.33029
303.45762
304.30082
304.91037
305.29384
305.65361
305.8869
306.14128
306.30708
306.5048
306.63381
306.79652
306.90306
307.04204
307.13379
307.25564
307.33712
307.44602
307.52008
307.61888
307.68735
307.77814
307.84218
307.92662
307.98691
308.0664
308.12327
308.19908
308.2526
308.32583
308.37597
308.44756
308.49429
308.56496
308.60829
308.6786
308.71853
308.78896
308.82547
308.89644
308.92943
309.00138
309.03065
309.10404
309.12917
309.20472
309.2248
309.30394
309.31662
309.40332
302.10875
303.01798
303.80208
304.41018
304.80247
305.1769
305.42146
305.68929
305.86439
306.07328
306.20971
306.38169
306.49423
306.64099
306.73767
306.86613
306.95175
307.06633
307.1439
307.24762
307.31911
307.41422
307.48085
307.56913
307.63163
307.71463
307.7733
307.8524
307.90733
307.98373
308.03489
308.10957
308.15695
308.23068
308.2743
308.34768
308.38757
308.4611
308.49723
308.57136
308.60366
308.67885
308.7071
308.78385
308.80763
308.88667
308.90508
308.9878
308.99866
309.08837
301.92295
302.64214
303.35264
303.94588
304.33903
304.72224
304.97475
305.25301
305.43575
305.65398
305.79691
305.97692
306.0949
306.24854
306.34981
306.4842
306.57372
306.69343
306.77436
306.88257
306.95696
307.05603
307.12517
307.21702
307.28163
307.36792
307.42833
307.51054
307.56681
307.64622
307.69834
307.77599
307.82396
307.90065
307.94451
308.02087
308.06067
308.13721
308.17295
308.25015
308.28174
308.36008
308.38733
308.46732
308.48981
308.57218
308.58904
308.67513
308.68442
308.7768
301.76618
302.3248
302.95302
303.5198
303.90607
304.29206
304.54895
304.8344
305.02292
305.2485
305.39685
305.58355
305.70629
305.86585
305.97125
306.11082
306.20394
306.3282
306.41228
306.5245
306.60164
306.70429
306.77581
306.87092
306.93754
307.02687
307.08891
307.17404
307.23156
307.31382
307.36681
307.44731
307.49578
307.57533
307.61936
307.69859
307.73826
307.81771
307.85302
307.93319
307.96407
308.04544
308.07171
308.1548
308.17607
308.26161
308.27705
308.36625
308.37422
308.46896
301.63309
302.05976
302.60232
303.13328
303.50554
303.8884
304.14599
304.43528
304.62756
304.85837
305.01094
305.20287
305.32961
305.49402
305.60304
305.74699
305.84334
305.97153
306.05848
306.17421
306.2539
306.35972
306.43346
306.53149
306.6
306.69209
306.75565
306.84346
306.90212
306.98707
307.04082
307.12401
307.17291
307.25517
307.29932
307.3813
307.42078
307.50302
307.53787
307.62088
307.65104
307.73531
307.76062
307.84668
307.86678
307.9553
307.96945
308.06151
308.0684
308.16522
301.51937
301.84044
302.29835
302.78667
303.13873
303.5129
303.76752
304.05724
304.25116
304.48501
304.64048
304.83612
304.96599
305.13413
305.24618
305.39366
305.49282
305.62425
305.71377
305.83247
305.91447
306.02301
306.09879
306.19937
306.2696
306.36416
306.42909
306.51937
306.57903
306.66646
306.72087
306.80659
306.85581
306.94065
306.98482
307.06941
307.10865
307.19354
307.2279
307.31361
307.34305
307.43007
307.45446
307.54329
307.5623
307.65359
307.66659
307.76125
307.76725
307.86591
301.42153
301.66024
302.03798
302.47934
302.8062
303.16665
303.4148
303.70162
303.89502
304.12967
304.28665
304.48443
304.6165
304.78721
304.90162
305.05173
305.15323
305.28719
305.37893
305.50001
305.58405
305.69486
305.77244
305.8752
305.94696
306.04369
306.10982
306.2023
306.26282
306.35253
306.40746
306.49552
306.54496
306.6322
306.67632
306.76336
306.8023
306.88969
306.92352
307.01178
307.04049
307.13009
307.15357
307.245
307.26299
307.35683
307.36881
307.46578
307.47109
307.57136
301.33673
301.51285
301.81733
302.20983
302.50779
302.85024
303.08869
303.36946
303.56019
303.79345
303.9505
304.14882
304.28209
304.45418
304.57026
304.72206
304.82538
304.96114
305.05469
305.17757
305.26333
305.37591
305.45505
305.55959
305.63266
305.73122
305.79837
305.89278
305.954
306.04575
306.10106
306.19126
306.24081
306.33026
306.37424
306.46355
306.50213
306.59185
306.62512
306.71575
306.74373
306.83571
306.85833
306.95214
306.9692
307.06534
307.07643
307.17545
307.18022
307.2819
301.26271
301.39245
301.63212
301.97595
302.24269
302.56368
302.78964
303.06146
303.24747
303.4772
303.63289
303.83018
303.96363
304.13588
304.25288
304.40544
304.51001
304.6468
304.74175
304.8658
304.95294
305.06679
305.1472
305.25311
305.32724
305.42731
305.49526
305.59132
305.65304
305.7466
305.80214
305.89427
305.94379
306.03526
306.079
306.1704
306.20855
306.30041
306.33308
306.42588
306.45312
306.5473
306.56908
306.66505
306.68124
306.77944
306.78976
306.89057
306.89493
306.99782
301.1976
301.29391
301.47789
301.77496
302.00947
302.30648
302.51763
302.77795
302.95736
303.18155
303.33449
303.52921
303.66181
303.83304
303.95017
304.10255
304.20778
304.34485
304.44072
304.56532
304.65348
304.76808
304.84945
304.9563
305.03124
305.13245
305.20097
305.29839
305.36043
305.45553
305.51113
305.60496
305.65432
305.7476
305.791
305.88428
305.92194
306.01573
306.04777
306.14253
306.16903
306.26518
306.28616
306.38406
306.39945
306.49945
306.50912
306.61143
306.6155
306.71942
301.13993
301.2128
301.35023
301.60376
301.80625
302.07767
302.27226
302.51894
302.69006
302.90689
303.05574
303.24644
303.37717
303.54622
303.66272
303.81397
303.91927
304.05585
304.15216
304.27669
304.36546
304.48029
304.5623
304.66966
304.74513
304.84712
304.91597
305.01444
305.07658
305.17296
305.22845
305.32373
305.37281
305.46766
305.51062
305.60556
305.64264
305.73815
305.76951
305.86603
305.89178
305.98967
306.00988
306.10946
306.12412
306.22567
306.23477
306.33834
306.34219
306.44697
301.08851
301.14541
301.24498
301.45907
301.63074
301.87586
302.05272
302.28408
302.44548
302.65335
302.7969
302.98222
303.11011
303.27588
303.39096
303.5402
303.64493
303.78029
303.87654
304.00038
304.08935
304.20391
304.28619
304.39364
304.46933
304.57174
304.64067
304.73988
304.80191
304.89928
304.95448
305.05096
305.0996
305.19578
305.2382
305.33456
305.37101
305.468
305.49865
305.59668
305.62168
305.72107
305.74053
305.84154
305.85554
305.95837
305.96699
306.07157
306.07526
306.18073
301.0424
301.08875
301.15834
301.33755
301.48042
301.69935
301.85787
302.07269
302.22324
302.4208
302.55796
302.7367
302.86084
303.0223
303.13522
303.28157
303.38514
303.51855
303.61424
303.73678
303.82555
303.93931
304.02153
304.12862
304.20423
304.3067
304.37544
304.47506
304.53675
304.63484
304.68957
304.78698
304.83504
304.93231
304.97406
305.07161
305.10734
305.20558
305.23547
305.33478
305.35901
305.45965
305.4784
305.58058
305.59397
305.69781
305.70603
305.81137
305.81495
305.92094
301.00086
301.04044
301.08692
301.23598
301.35265
301.54617
301.68629
301.88383
302.02271
302.20887
302.33873
302.50983
302.62939
302.78561
302.89567
303.03833
303.14015
303.27091
303.36556
303.48621
303.57435
303.68682
303.76861
303.87493
303.95015
304.05231
304.12059
304.2203
304.28143
304.37995
304.43402
304.53208
304.57942
304.67751
304.7185
304.81698
304.85192
304.95116
304.98025
305.08058
305.10404
305.20568
305.22373
305.32683
305.33965
305.44425
305.45212
305.55799
305.56148
305.66782
300.96329
300.99864
301.02782
301.15135
301.24475
301.41421
301.53635
301.71632
301.84302
302.01699
302.13881
302.30139
302.41565
302.56579
302.67234
302.81058
302.91008
303.03757
303.13068
303.2489
303.33599
303.4467
303.5277
303.63283
303.70734
303.80883
303.87639
303.97588
304.03622
304.13486
304.18809
304.28654
304.33301
304.43165
304.47177
304.57092
304.60499
304.70498
304.73323
304.83433
304.85701
304.95939
304.97675
305.0805
305.09281
305.19791
305.20547
305.31164
305.31506
305.42158
300.92922
300.96199
300.97859
301.08089
301.15414
301.30129
301.40627
301.56879
301.68311
301.84436
301.9576
302.11096
302.2193
302.36267
302.46513
302.59829
302.69495
302.81858
302.9097
303.02497
303.11061
303.2191
303.29896
303.40251
303.47601
303.57648
303.64305
303.74199
303.80132
303.89979
303.952
304.05055
304.09601
304.19494
304.23408
304.33365
304.36677
304.46725
304.49462
304.59623
304.61811
304.72097
304.73767
304.84181
304.85362
304.95898
304.96627
305.07252
305.07588
305.18239
300.89829
300.92946
300.93724
301.02219
301.07836
301.20524
301.29419
301.43974
301.54175
301.69004
301.79434
301.93798
302.03992
302.17593
302.2738
302.40132
302.49467
302.61391
302.70261
302.81445
302.89827
303.00412
303.0825
303.18409
303.25629
303.35539
303.42071
303.5188
303.57691
303.67492
303.72593
303.8243
303.86862
303.96756
304.00562
304.10533
304.13745
304.23815
304.26459
304.36646
304.38753
304.49061
304.50665
304.61093
304.62227
304.72764
304.73467
304.8408
304.84409
304.95042
300.87019
300.90033
300.90218
300.97315
301.01516
301.12394
301.19824
301.32758
301.4176
301.55295
301.64815
301.78174
301.87692
302.00512
302.09799
302.21939
302.30902
302.42341
302.50931
302.6173
302.69893
302.80176
302.87834
302.97763
303.04823
303.14565
303.20948
303.30641
303.36309
303.46035
303.50999
303.60791
303.65095
303.74964
303.78652
303.88611
303.91715
304.01782
304.0433
304.14516
304.16541
304.26845
304.28384
304.38801
304.39889
304.50403
304.51083
304.61662
304.61984
304.72581
300.8447
300.87409
300.87215
300.932
300.96254
301.05541
301.11656
301.23069
301.30926
301.4319
301.51801
301.64141
301.7296
301.84969
301.93723
302.05214
302.1377
302.24686
302.3296
302.43338
302.5125
302.61195
302.68643
302.78309
302.85183
302.94727
303.00938
303.10486
303.15992
303.25615
303.30427
303.40147
303.44311
303.54128
303.57688
303.67609
303.70599
303.80637
303.83085
303.93244
303.95185
304.05461
304.06934
304.17316
304.18359
304.28829
304.29484
304.4001
304.40324
304.50867
300.82163
300.85038
300.84621
300.89728
300.91873
300.99783
301.04739
301.14746
301.21528
301.32564
301.40284
301.51607
301.59716
301.70896
301.79094
301.89908
301.98028
302.0839
302.1632
302.26244
302.33876
302.43454
302.50666
302.60038
302.66703
302.7602
302.82037
302.91414
302.96739
303.06233
303.10879
303.20499
303.24512
303.34251
303.37676
303.47534
303.50403
303.60386
303.6273
303.72839
303.74694
303.84917
303.86324
303.96647
303.97646
304.08049
304.0868
304.19133
304.19439
304.29909
300.80082
300.82896
300.82363
300.86781
300.88221
300.94954
300.98907
301.07635
301.13423
301.23291
301.30149
301.40473
301.47874
301.58219
301.65847
301.75966
301.83629
301.93414
302.00974
302.1042
302.17747
302.26931
302.33882
302.42936
302.49369
302.58433
302.64239
302.73417
302.78547
302.87885
302.92352
303.01847
303.05699
303.15335
303.18616
303.28386
303.31129
303.41034
303.4327
303.53304
303.55072
303.65219
303.6656
303.76801
303.77755
303.88071
303.88677
303.99039
303.99334
304.09715
300.78216
300.80965
300.80388
300.84264
300.8517
300.90909
300.94009
301.01586
301.06471
301.15241
301.2128
301.30635
301.3734
301.46855
301.53907
301.63325
301.70515
301.79707
301.86879
301.95826
302.02827
302.11597
302.18266
302.2698
302.33162
302.4195
302.47527
302.56484
302.61404
302.70562
302.74839
302.84186
302.87867
302.97376
303.00506
303.10164
303.12777
303.2258
303.24706
303.34641
303.3632
303.46368
303.47642
303.57781
303.58689
303.68898
303.69478
303.7973
303.80014
303.90288
300.76555
300.79234
300.78657
300.82103
300.82615
300.87521
300.89906
300.96462
301.00538
301.08289
301.13561
301.21987
301.28018
301.36719
301.43198
301.51914
301.58625
301.67215
301.73985
301.8242
301.89079
301.97416
302.03788
302.12141
302.18057
302.26549
302.31883
302.40597
302.45295
302.54252
302.58329
302.67503
302.71007
302.80365
302.8334
302.92864
302.95342
303.05019
303.07032
303.16847
303.18435
303.28363
303.29569
303.39586
303.40448
303.50531
303.51084
303.61209
303.61481
303.7163
300.75092
300.77693
300.77141
300.8024
300.80468
300.84681
300.86478
300.92136
300.95498
301.02315
301.06876
301.14424
301.19809
301.27722
301.33638
301.4166
301.47889
301.55877
301.62235
301.70151
301.76456
301.84349
301.90409
301.98388
302.04024
302.12203
302.17283
302.25734
302.30201
302.38935
302.42804
302.51786
302.55105
302.64293
302.67107
302.76474
302.78814
302.88346
302.90244
302.99917
303.01414
303.11201
303.12338
303.22213
303.23028
303.32967
303.33492
303.43474
303.43732
303.5374
300.73822
300.76334
300.75818
300.78631
300.78659
300.82299
300.83618
300.88495
300.91233
300.97203
301.01115
301.07841
301.12615
301.19772
301.25142
301.32487
301.38238
301.45629
301.51572
301.58966
301.64908
301.7235
301.7809
301.85682
301.91029
301.98879
302.03696
302.11868
302.16097
302.2459
302.28246
302.37015
302.40146
302.49142
302.51792
302.60983
302.63183
302.72548
302.74329
302.83842
302.85246
302.94874
302.95942
303.05656
303.06423
303.16202
303.16698
303.2652
303.26765
303.36616
300.72739
300.7515
300.74671
300.7724
300.77132
300.80296
300.81235
300.85437
300.87639
300.92848
300.96173
301.02137
301.06341
301.12779
301.17625
301.24315
301.29599
301.36402
301.41933
301.48806
301.54384
301.6137
301.66784
301.73981
301.79033
301.86543
301.91092
301.9897
302.02955
302.11191
302.14629
302.23169
302.26107
302.34895
302.37377
302.46375
302.48431
302.57613
302.59276
302.6861
302.6992
302.79372
302.80369
302.89908
302.90626
303.00229
303.00694
303.10342
303.10572
303.20252
300.71836
300.74133
300.73684
300.7604
300.75841
300.78611
300.79249
300.82873
300.84619
300.8915
300.91953
300.97217
301.00893
301.06657
301.11004
301.17067
301.21896
301.28129
301.33252
301.39613
301.44825
301.51358
301.56442
301.6324
301.67995
301.75155
301.79433
301.87004
301.90744
301.98709
302.01926
302.10221
302.12965
302.21528
302.23842
302.32629
302.34542
302.43523
302.45067
302.54207
302.55422
302.64682
302.65608
302.74956
302.75624
302.85037
302.85471
302.94931
302.95146
303.0464
300.71106
300.73272
300.72845
300.75008
300.7475
300.77191
300.77595
300.80726
300.82089
300.86022
300.88362
300.9299
300.96183
301.01317
301.05197
301.10664
301.15057
301.20739
301.25463
301.31324
301.36175
301.42258
301.47015
301.53413
301.57869
301.64674
301.6868
301.75936
301.7943
301.8711
301.90108
301.98144
302.00694
302.09017
302.11162
302.19724
302.21494
302.30259
302.31685
302.40615
302.41736
302.50789
302.51644
302.60787
302.61404
302.70615
302.71016
302.80276
302.80475
302.89771
300.70537
300.72557
300.72142
300.74125
300.7383
300.75994
300.76219
300.78929
300.79975
300.83382
300.85319
300.89371
300.92127
300.9668
301.00124
301.05029
301.09008
301.14163
301.18502
301.23877
301.28374
301.34015
301.38449
301.44448
301.48608
301.55055
301.58791
301.65724
301.68974
301.76361
301.7914
301.86906
301.89264
301.97334
301.99312
302.07635
302.09263
302.17799
302.19107
302.27814
302.28841
302.37674
302.38458
302.47384
302.47951
302.56946
302.57315
302.66363
302.66545
302.75632
300.70115
300.71974
300.71561
300.73376
300.73056
300.74984
300.75072
300.77427
300.78211
300.8116
300.82748
300.86285
300.88648
300.92668
300.95709
301.0009
301.03677
301.08332
301.12301
301.1721
301.21363
301.26573
301.3069
301.36295
301.40165
301.46252
301.49724
301.56328
301.59339
301.66424
301.68988
301.76475
301.78642
301.8645
301.88263
301.96336
301.97823
302.06119
302.07309
302.15782
302.16716
302.25319
302.26032
302.3473
302.35246
302.44016
302.44352
302.53177
302.53343
302.62209
300.69822
300.7151
300.71089
300.72744
300.72408
300.74132
300.74119
300.7617
300.76742
300.79294
300.80582
300.83661
300.85674
300.89209
300.91881
300.95776
300.98996
301.03181
301.06797
301.1126
301.15082
301.19875
301.23684
301.28902
301.32489
301.3822
301.41432
301.47707
301.50482
301.57261
301.59615
301.66814
301.68796
301.76332
301.77983
301.85797
301.87146
301.95191
301.96268
302.04496
302.05338
302.13701
302.14343
302.22804
302.23269
302.31806
302.32108
302.40702
302.40851
302.49487
300.69637
300.71149
300.70714
300.72217
300.71869
300.73415
300.73326
300.7512
300.7552
300.7773
300.78762
300.81436
300.8314
300.86237
300.88573
300.92021
300.949
300.98644
301.01928
301.05967
301.09473
301.13864
301.17378
301.22218
301.25532
301.30909
301.33871
301.39815
301.42364
301.48832
301.50983
301.57888
301.5969
301.66947
301.68442
301.75988
301.77203
301.84989
301.85954
301.93929
301.94682
302.02796
302.03369
302.11585
302.12
302.20294
302.20564
302.28917
302.29051
302.37449
300.69536
300.70875
300.70423
300.71781
300.71425
300.72813
300.72668
300.74242
300.74505
300.76419
300.77237
300.79554
300.80986
300.8369
300.85724
300.88762
300.91327
300.94662
300.97634
301.01274
301.04479
301.08487
301.11718
301.16192
301.19243
301.24272
301.26995
301.32609
301.34941
301.41096
301.43051
301.4966
301.51288
301.58262
301.59604
301.66877
301.67962
301.75483
301.76339
301.84055
301.8472
301.92579
301.93085
302.01049
302.01415
302.0946
302.09697
302.17804
302.17922
302.26075
300.69498
300.70672
300.70202
300.71424
300.71061
300.72309
300.72122
300.73508
300.73662
300.75321
300.75959
300.77964
300.79161
300.81513
300.83276
300.85943
300.88219
300.91177
300.93858
300.97124
301.00046
301.03689
301.06651
301.10773
301.13575
301.18264
301.20758
301.26045
301.2817
301.34013
301.35782
301.42092
301.43553
301.5024
301.51437
301.58432
301.59392
301.66642
301.67395
301.74846
301.75426
301.83025
301.83464
301.91172
301.91489
301.9928
301.99486
302.07341
302.07442
302.15345
300.69501
300.70525
300.7004
300.71135
300.70766
300.71888
300.71671
300.72894
300.72962
300.74403
300.74891
300.76624
300.77617
300.79657
300.81178
300.8351
300.85524
300.88135
300.90547
300.93465
300.96122
300.9942
301.02129
301.05911
301.08478
301.12836
301.15115
301.20081
301.2201
301.27542
301.29134
301.35145
301.36449
301.42846
301.43905
301.50619
301.5146
301.58437
301.59089
301.66271
301.6677
301.74105
301.74481
301.81927
301.82198
301.8973
301.89905
301.97504
301.9759
302.05237
300.69529
300.70421
300.69925
300.70903
300.7053
300.71537
300.71298
300.72381
300.7238
300.73634
300.73998
300.75495
300.76312
300.78077
300.79384
300.81415
300.83191
300.85487
300.8765
300.90246
300.92656
300.9563
300.98103
301.01561
301.03908
301.07945
301.10022
301.14672
301.16418
301.21642
301.23069
301.28781
301.29937
301.36044
301.36972
301.43405
301.44133
301.50833
301.51391
301.58302
301.58724
301.65791
301.66106
301.73289
301.73515
301.80786
301.80931
301.8827
301.88342
301.9573
300.69569
300.70348
300.69846
300.70719
300.70343
300.71246
300.70991
300.71951
300.71898
300.7299
300.73251
300.74543
300.7521
300.76734
300.77852
300.79614
300.81176
300.83186
300.85122
300.87421
300.89603
300.92273
300.94526
300.97678
300.99818
301.03546
301.05435
301.09777
301.11353
301.16274
301.17547
301.22963
301.23981
301.29799
301.30605
301.36755
301.37378
301.43801
301.44269
301.50908
301.51257
301.58055
301.58313
301.6523
301.65413
301.72421
301.72538
301.79616
301.79673
301.86801
300.69612
300.70297
300.69796
300.70572
300.70196
300.71005
300.70739
300.7159
300.71496
300.72449
300.72627
300.73741
300.7428
300.75592
300.76545
300.78068
300.79438
300.8119
300.8292
300.84947
300.86918
300.89307
300.91355
300.94217
300.96167
300.99598
301.01313
301.05357
301.06775
301.11399
301.1253
301.17653
301.18544
301.24076
301.24768
301.30637
301.31161
301.37308
301.37693
301.44059
301.44339
301.50868
301.51072
301.57722
301.57865
301.64609
301.647
301.71514
301.71558
301.78424
300.69652
300.7026
300.69767
300.70457
300.70083
300.70806
300.70532
300.71287
300.71161
300.71993
300.72103
300.73064
300.73495
300.74622
300.75431
300.76743
300.77941
300.79462
300.81003
300.82783
300.84562
300.8669
300.8855
300.91139
300.92913
300.96062
300.97618
301.01372
301.02646
301.0698
301.07981
301.12816
301.1359
301.18838
301.19426
301.25016
301.2545
301.31321
301.31629
301.37724
301.3794
301.44201
301.44354
301.50739
301.50844
301.57324
301.57389
301.63942
301.63973
301.70577
300.69687
300.70232
300.69752
300.70366
300.69995
300.7064
300.70362
300.71031
300.70881
300.71608
300.71662
300.72491
300.7283
300.73797
300.7448
300.75606
300.76652
300.77966
300.79338
300.80894
300.82497
300.84384
300.86073
300.88406
300.9002
300.92899
300.94309
300.97785
300.98929
301.0298
301.03864
301.08417
301.09084
301.14054
301.14547
301.19861
301.20212
301.25811
301.26048
301.31873
301.3203
301.38025
301.38131
301.44251
301.44321
301.50539
301.50581
301.56871
301.56891
301.63234
300.69715
300.7021
300.69747
300.70294
300.69928
300.70503
300.70221
300.70814
300.70645
300.7128
300.71288
300.72004
300.72265
300.73093
300.73667
300.74631
300.75541
300.76673
300.77892
300.79246
300.80689
300.82356
300.83888
300.85982
300.8745
300.90074
300.91353
300.94561
300.95589
300.99365
301.00144
301.04421
301.04993
301.09689
301.10097
301.15139
301.15416
301.20745
301.20919
301.26477
301.26581
301.32311
301.32374
301.38232
301.3827
301.44227
301.44247
301.50278
301.50287
301.56369
300.69738
300.7019
300.69748
300.70235
300.69876
300.70386
300.70103
300.70628
300.70444
300.70999
300.70971
300.71588
300.71784
300.72491
300.72971
300.73794
300.74584
300.75554
300.76636
300.7781
300.79107
300.80574
300.81963
300.83836
300.85171
300.87555
300.88716
300.91667
300.92591
300.96102
300.96788
301.00797
301.01285
301.05712
301.06045
301.1082
301.1103
301.16094
301.16211
301.21505
301.21562
301.27031
301.27055
301.32654
301.32662
301.38361
301.38362
301.44135
301.44134
301.4996
300.69755
300.70171
300.69751
300.70186
300.69835
300.70287
300.70004
300.70466
300.70271
300.70756
300.70697
300.71229
300.71371
300.71975
300.72372
300.73073
300.73757
300.74586
300.75544
300.76557
300.77723
300.79008
300.80267
300.81936
300.83152
300.8531
300.86366
300.89073
300.89905
300.9316
300.93765
300.97513
300.97928
301.02093
301.0236
301.06874
301.07026
301.11829
301.11895
301.16931
301.16945
301.22157
301.22146
301.2749
301.27472
301.32916
301.32899
301.38418
301.38408
301.43979
300.69768
300.70152
300.69756
300.70143
300.69802
300.70199
300.69917
300.70323
300.70119
300.70542
300.7046
300.70918
300.71013
300.71528
300.71856
300.7245
300.73041
300.73746
300.74594
300.75464
300.76512
300.77632
300.78775
300.80256
300.81365
300.83311
300.84273
300.86749
300.875
300.9051
300.91045
300.94541
300.94893
300.98803
300.99014
301.03272
301.03373
301.07921
301.07945
301.12726
301.12703
301.17662
301.17621
301.22713
301.22672
301.27865
301.27833
301.33101
301.33083
301.38404
300.69777
300.70133
300.69759
300.70104
300.69772
300.7012
300.69839
300.70194
300.69984
300.70352
300.7025
300.70644
300.70701
300.7114
300.71406
300.71909
300.72419
300.73016
300.73766
300.7451
300.75451
300.76424
300.77461
300.7877
300.79783
300.81532
300.82412
300.84668
300.8535
300.88125
300.88601
300.91853
300.92152
300.95815
300.95977
300.99987
301.00046
301.04344
301.04331
301.08863
301.08808
301.13519
301.13453
301.18298
301.18237
301.23183
301.23137
301.28159
301.28134
301.33208
300.69782
300.70112
300.6976
300.70066
300.69742
300.70046
300.69767
300.70075
300.69861
300.70179
300.70062
300.70401
300.70425
300.70798
300.71013
300.71438
300.71875
300.7238
300.73042
300.73675
300.74521
300.75362
300.76304
300.77456
300.78383
300.79949
300.80756
300.82806
300.83429
300.8598
300.86406
300.89423
300.89679
300.93102
300.93225
300.96993
300.97017
301.01072
301.01028
301.05317
301.05236
301.09704
301.09616
301.14219
301.14141
301.18845
301.18788
301.23567
301.23537
301.28369
300.69785
300.70089
300.69758
300.70027
300.69712
300.69973
300.69697
300.69962
300.69745
300.70019
300.6989
300.7018
300.70179
300.70495
300.70665
300.71023
300.71398
300.71822
300.72406
300.72943
300.73702
300.74426
300.75283
300.76293
300.77143
300.7854
300.79284
300.8114
300.81712
300.8405
300.84435
300.87228
300.87448
300.9064
300.90732
300.94265
300.94262
300.9808
300.98012
301.02062
301.01961
301.06192
301.06086
301.10451
301.1036
301.14827
301.14761
301.19303
301.19268
301.23862
300.69784
300.70065
300.69752
300.69985
300.69677
300.699
300.69626
300.69852
300.69633
300.69869
300.6973
300.69978
300.69954
300.70223
300.70355
300.70656
300.70975
300.71331
300.71846
300.72299
300.72981
300.73601
300.74381
300.75263
300.76045
300.77285
300.77974
300.79649
300.80178
300.82315
300.82666
300.85244
300.85437
300.88407
300.88475
300.9178
300.91756
300.95344
300.95258
300.99077
300.9896
301.02959
301.02839
301.06973
301.06871
301.11106
301.11032
301.15342
301.15303
301.19664
300.6978
300.70038
300.6974
300.69939
300.69637
300.69823
300.69552
300.69743
300.69523
300.69724
300.69578
300.6979
300.69748
300.69976
300.70074
300.70328
300.70598
300.70896
300.71349
300.7173
300.72342
300.72872
300.73582
300.74349
300.75069
300.76168
300.76807
300.78313
300.78807
300.80753
300.81079
300.83452
300.83625
300.8638
300.86431
300.89516
300.89478
300.92842
300.92743
300.96337
300.96209
300.99982
300.99852
301.0376
301.0365
301.07658
301.07579
301.11662
301.1162
301.15754
300.69773
300.70009
300.69721
300.69886
300.69589
300.69741
300.69473
300.69631
300.69412
300.69582
300.6943
300.69611
300.69554
300.69747
300.69818
300.70031
300.70259
300.70508
300.70905
300.71225
300.71775
300.72225
300.72872
300.73536
300.74201
300.7517
300.75767
300.77116
300.7758
300.79347
300.79654
300.81831
300.8199
300.8454
300.8458
300.87453
300.87406
300.90554
300.90448
300.93822
300.93687
300.9724