/*--------------------------------*- C++ -*----------------------------------*\
| =========                 |                                                 |
| \\      /  F ield         | OpenFOAM: The Open Source CFD Toolbox           |
|  \\    /   O peration     | Version:  2312                                  |
|   \\  /    A nd           | Website:  www.openfoam.com                      |
|    \\/     M anipulation  |                                                 |
\*---------------------------------------------------------------------------*/
FoamFile
{
    version     2.0;
    format      ascii;
    arch        "LSB;label=32;scalar=64";
    class       volVectorField;
    location    "5";
    object      U;
}
// * * * * * * * * * * * * * * * * * * * * * * * * * * * * * * * * * * * * * //

dimensions      [0 1 -1 0 0 0 0];

internalField   nonuniform List<vector> 
4000
(
(0.0013469116 0.00023022009 0)
(0.0014474879 -1.245742e-06 0)
(0.0013498591 -1.5210599e-07 0)
(0.0013956084 1.4809907e-07 0)
(0.001360024 -1.372794e-07 0)
(0.001393434 1.3032801e-07 0)
(0.0013630171 -1.2099637e-07 0)
(0.0013916191 1.1371676e-07 0)
(0.0013649293 -1.0649244e-07 0)
(0.0013899572 9.9912048e-08 0)
(0.0013665311 -9.3681964e-08 0)
(0.0013884744 8.7875089e-08 0)
(0.0013679299 -8.2427039e-08 0)
(0.0013871657 7.7331133e-08 0)
(0.001369159 -7.2558647e-08 0)
(0.0013860133 6.8093492e-08 0)
(0.0013702406 -6.3913753e-08 0)
(0.0013849982 6.0004792e-08 0)
(0.0013711935 -5.6346961e-08 0)
(0.0013841035 5.2928255e-08 0)
(0.0013720338 -4.9730636e-08 0)
(0.0013833139 4.6744428e-08 0)
(0.0013727756 -4.395314e-08 0)
(0.0013826163 4.1348978e-08 0)
(0.0013734317 -3.8916988e-08 0)
(0.0013819988 3.6650872e-08 0)
(0.0013740129 -3.4537191e-08 0)
(0.001381451 3.2570834e-08 0)
(0.0013745291 -3.0739826e-08 0)
(0.0013809637 2.9040003e-08 0)
(0.0013749891 -2.7460791e-08 0)
(0.0013805287 2.5998783e-08 0)
(0.0013754006 -2.4644731e-08 0)
(0.0013801387 2.3395841e-08 0)
(0.0013757705 -2.2244112e-08 0)
(0.0013797871 2.1187253e-08 0)
(0.001376105 -2.0218432e-08 0)
(0.0013794679 1.9335775e-08 0)
(0.0013764099 -1.8533552e-08 0)
(0.0013791758 1.7810244e-08 0)
(0.0013766902 -1.7161168e-08 0)
(0.0013789059 1.6585116e-08 0)
(0.0013769507 -1.6078428e-08 0)
(0.0013786536 1.5640209e-08 0)
(0.0013771958 -1.5267883e-08 0)
(0.0013784146 1.496079e-08 0)
(0.0013774295 -1.4718981e-08 0)
(0.0013781852 1.454013e-08 0)
(0.0013776625 -1.4399247e-08 0)
(0.001378009 1.4893998e-08 0)
(0.0037608443 0.00063528088 0)
(0.0041622354 4.0329693e-07 0)
(0.0039242061 4.3765985e-08 0)
(0.0040511117 4.108515e-07 0)
(0.0039478316 -4.7785607e-07 0)
(0.0040452089 4.3481852e-07 0)
(0.0039564699 -4.2090441e-07 0)
(0.0040399425 3.9181671e-07 0)
(0.003962034 -3.6913719e-07 0)
(0.0040350907 3.4558555e-07 0)
(0.0039667098 -3.2436327e-07 0)
(0.0040307617 3.0412499e-07 0)
(0.0039707946 -2.8532981e-07 0)
(0.0040269418 2.6766423e-07 0)
(0.0039743842 -2.5116145e-07 0)
(0.0040235775 2.3569846e-07 0)
(0.0039775436 -2.21239e-07 0)
(0.0040206141 2.0770498e-07 0)
(0.0039803272 -1.950501e-07 0)
(0.0040180016 1.832142e-07 0)
(0.003982782 -1.7215157e-07 0)
(0.004015696 1.6181343e-07 0)
(0.0039849497 -1.5215684e-07 0)
(0.0040136584 1.4314174e-07 0)
(0.0039868668 -1.3472852e-07 0)
(0.0040118546 1.2688412e-07 0)
(0.0039885657 -1.1957245e-07 0)
(0.0040102541 1.127662e-07 0)
(0.0039900751 -1.0643281e-07 0)
(0.0040088299 1.0054966e-07 0)
(0.0039914204 -9.5087733e-08 0)
(0.0040075581 9.0028261e-08 0)
(0.0039926243 -8.5345647e-08 0)
(0.0040064172 8.1024337e-08 0)
(0.0039937071 -7.7042029e-08 0)
(0.004005388 7.3385854e-08 0)
(0.0039946871 -7.0036649e-08 0)
(0.0040044532 6.6983836e-08 0)
(0.0039955808 -6.421122e-08 0)
(0.0040035969 6.1710214e-08 0)
(0.0039964033 -5.9467441e-08 0)
(0.0040028047 5.7476064e-08 0)
(0.0039971685 -5.5725428e-08 0)
(0.0040020632 5.4210305e-08 0)
(0.0039978894 -5.2922349e-08 0)
(0.0040013598 5.185989e-08 0)
(0.003998578 -5.1017343e-08 0)
(0.0040006826 5.0314673e-08 0)
(0.0039992583 -5.0604676e-08 0)
(0.0040001351 4.8460742e-08 0)
(0.0061097322 0.0010195415 0)
(0.0067963884 -5.3670546e-07 0)
(0.0064332214 3.7569364e-07 0)
(0.0066395181 6.9469339e-07 0)
(0.006468447 -8.6628256e-07 0)
(0.0066298538 7.742148e-07 0)
(0.0064826481 -7.6167448e-07 0)
(0.006621105 7.0638256e-07 0)
(0.0064918518 -6.6697354e-07 0)
(0.0066130497 6.2389401e-07 0)
(0.0064996065 -5.8581501e-07 0)
(0.0066058665 5.49157e-07 0)
(0.0065063836 -5.1527282e-07 0)
(0.006599529 4.8333938e-07 0)
(0.0065123399 -4.5356044e-07 0)
(0.0065939475 4.2562064e-07 0)
(0.0065175827 -3.9952285e-07 0)
(0.0065890306 3.7507143e-07 0)
(0.006522202 -3.5222871e-07 0)
(0.0065846957 3.3084646e-07 0)
(0.0065262761 -3.1087676e-07 0)
(0.0065808699 2.9220111e-07 0)
(0.0065298738 -2.7476879e-07 0)
(0.0065774887 2.5848378e-07 0)
(0.006533056 -2.4329544e-07 0)
(0.006574495 2.2912564e-07 0)
(0.0065358761 -2.1592549e-07 0)
(0.0065718385 2.0363124e-07 0)
(0.006538382 -1.9219685e-07 0)
(0.0065694743 1.815702e-07 0)
(0.0065406158 -1.7170883e-07 0)
(0.0065673627 1.6257003e-07 0)
(0.0065426152 -1.5411541e-07 0)
(0.006565468 1.4630989e-07 0)
(0.0065444139 -1.391194e-07 0)
(0.0065637583 1.3251513e-07 0)
(0.0065460424 -1.2646742e-07 0)
(0.0065622047 1.209527e-07 0)
(0.006547528 -1.1594565e-07 0)
(0.0065607812 1.1142717e-07 0)
(0.0065488959 -1.0737619e-07 0)
(0.0065594635 1.037774e-07 0)
(0.0065501691 -1.0061394e-07 0)
(0.0065582295 9.7873798e-08 0)
(0.0065513694 -9.5543247e-08 0)
(0.006557058 9.3618425e-08 0)
(0.0065525168 -9.2082176e-08 0)
(0.0065559285 9.0776831e-08 0)
(0.0065536475 -9.1684565e-08 0)
(0.0065549929 8.7020165e-08 0)
(0.0084125505 0.0013735905 0)
(0.0093562638 -2.4304659e-06 0)
(0.008876635 9.7382359e-07 0)
(0.0091610257 9.1888246e-07 0)
(0.0089217862 -1.2408758e-06 0)
(0.0091474571 1.0878708e-06 0)
(0.0089414783 -1.0893379e-06 0)
(0.0091351879 1.0063125e-06 0)
(0.0089543171 -9.5239319e-07 0)
(0.0091239062 8.9008408e-07 0)
(0.0089651632 -8.3611755e-07 0)
(0.0091138526 7.8362822e-07 0)
(0.0089746458 -7.3536611e-07 0)
(0.0091049838 6.8973793e-07 0)
(0.0089829807 -6.4728122e-07 0)
(0.0090971729 6.0737783e-07 0)
(0.0089903177 -5.7016017e-07 0)
(0.0090902919 5.3524376e-07 0)
(0.0089967823 -5.0266489e-07 0)
(0.0090842253 4.721335e-07 0)
(0.0090024841 -4.4365043e-07 0)
(0.0090788709 4.1698525e-07 0)
(0.0090075193 -3.9212004e-07 0)
(0.0090741386 3.6886932e-07 0)
(0.009011973 -3.4720395e-07 0)
(0.0090699486 3.26974e-07 0)
(0.0090159204 -3.0814393e-07 0)
(0.0090662302 2.9059224e-07 0)
(0.009019428 -2.7428046e-07 0)
(0.0090629208 2.5910988e-07 0)
(0.009022555 -2.4504166e-07 0)
(0.0090599647 2.3199536e-07 0)
(0.0090253541 -2.1993364e-07 0)
(0.0090573119 2.0879079e-07 0)
(0.0090278727 -1.9853222e-07 0)
(0.0090549179 1.8910421e-07 0)
(0.0090301532 -1.8047572e-07 0)
(0.0090527421 1.7260294e-07 0)
(0.0090322341 -1.6545886e-07 0)
(0.0090507479 1.5900794e-07 0)
(0.0090341505 -1.5322746e-07 0)
(0.0090489016 1.4808886e-07 0)
(0.0090359349 -1.4357389e-07 0)
(0.009047172 1.3965985e-07 0)
(0.0090376174 -1.3633125e-07 0)
(0.0090455294 1.3358026e-07 0)
(0.0090392268 -1.3137461e-07 0)
(0.0090439443 1.2946958e-07 0)
(0.0090408095 -1.3135918e-07 0)
(0.0090426039 1.2375507e-07 0)
(0.010660198 0.0016965162 0)
(0.011839511 -5.2085376e-06 0)
(0.011254054 1.7876571e-06 0)
(0.011615776 1.0793327e-06 0)
(0.011307859 -1.5856299e-06 0)
(0.011598002 1.3630056e-06 0)
(0.011332975 -1.3908441e-06 0)
(0.011582173 1.2797448e-06 0)
(0.011349442 -1.2140326e-06 0)
(0.011567644 1.1335896e-06 0)
(0.01136339 -1.0653082e-06 0)
(0.011554706 9.9822566e-07 0)
(0.01137559 -9.368508e-07 0)
(0.011543294 8.7866018e-07 0)
(0.011386314 -8.2461474e-07 0)
(0.011533243 7.7374835e-07 0)
(0.011395755 -7.2636071e-07 0)
(0.011524389 6.8185742e-07 0)
(0.011404073 -6.4037258e-07 0)
(0.011516583 6.0146092e-07 0)
(0.01141141 -5.6518967e-07 0)
(0.011509693 5.3120712e-07 0)
(0.011417889 -4.9954166e-07 0)
(0.011503603 4.6991176e-07 0)
(0.01142362 -4.4232025e-07 0)
(0.011498211 4.165408e-07 0)
(0.0114287 -3.9255933e-07 0)
(0.011493426 3.701935e-07 0)
(0.011433213 -3.4941864e-07 0)
(0.011489168 3.3008745e-07 0)
(0.011437237 -3.1216954e-07 0)
(0.011485363 2.9554551e-07 0)
(0.01144084 -2.8018281e-07 0)
(0.011481949 2.6598437e-07 0)
(0.011444081 -2.5291799e-07 0)
(0.011478868 2.4090467e-07 0)
(0.011447017 -2.2991428e-07 0)
(0.011476067 2.1988259e-07 0)
(0.011449695 -2.1078263e-07 0)
(0.0114735 2.0256247e-07 0)
(0.011452162 -1.9519903e-07 0)
(0.011471123 1.8865056e-07 0)
(0.01145446 -1.8289844e-07 0)
(0.011468896 1.7790931e-07 0)
(0.011456626 -1.7366643e-07 0)
(0.011466781 1.7015922e-07 0)
(0.011458699 -1.6733408e-07 0)
(0.011464739 1.6486583e-07 0)
(0.011460735 -1.6800915e-07 0)
(0.011462981 1.5726231e-07 0)
(0.012850453 0.001989655 0)
(0.014246299 -8.7523156e-06 0)
(0.013565397 2.7560751e-06 0)
(0.014003789 1.1853293e-06 0)
(0.013626775 -1.8997589e-06 0)
(0.013981381 1.6015044e-06 0)
(0.013657242 -1.6672778e-06 0)
(0.013961965 1.5279864e-06 0)
(0.013677315 -1.4529389e-06 0)
(0.013944181 1.3554434e-06 0)
(0.013694366 -1.2743317e-06 0)
(0.013928353 1.1938429e-06 0)
(0.013709285 -1.1205624e-06 0)
(0.013914395 1.0508901e-06 0)
(0.013722401 -9.862972e-07 0)
(0.013902102 9.2542219e-07 0)
(0.013733947 -8.687732e-07 0)
(0.013891272 8.1552054e-07 0)
(0.013744121 -7.6592387e-07 0)
(0.013881725 7.1936532e-07 0)
(0.013753094 -6.7599956e-07 0)
(0.013873298 6.3534077e-07 0)
(0.013761019 -5.9748018e-07 0)
(0.013865849 5.6203057e-07 0)
(0.013768028 -5.2903979e-07 0)
(0.013859255 4.9819795e-07 0)
(0.013774241 -4.6952274e-07 0)
(0.013853402 4.4276559e-07 0)
(0.013779761 -4.1792388e-07 0)
(0.013848193 3.9479773e-07 0)
(0.013784683 -3.733717e-07 0)
(0.01384354 3.534845e-07 0)
(0.01378909 -3.3511355e-07 0)
(0.013839364 3.1812825e-07 0)
(0.013793055 -3.0250296e-07 0)
(0.013835595 2.8813175e-07 0)
(0.013796645 -2.7498871e-07 0)
(0.013832169 2.62988e-07 0)
(0.013799921 -2.5210533e-07 0)
(0.013829029 2.4227145e-07 0)
(0.013802939 -2.3346499e-07 0)
(0.013826122 2.2563034e-07 0)
(0.01380575 -2.1875006e-07 0)
(0.013823397 2.1277947e-07 0)
(0.0138084 -2.0770169e-07 0)
(0.013820809 2.0350358e-07 0)
(0.013810937 -2.0010456e-07 0)
(0.013818309 1.9710967e-07 0)
(0.013813424 -2.0170141e-07 0)
(0.013816125 1.8762246e-07 0)
(0.014985641 0.0022545042 0)
(0.016577202 -1.3014245e-05 0)
(0.015810643 3.814919e-06 0)
(0.016324961 1.2459835e-06 0)
(0.015878657 -2.1829962e-06 0)
(0.016297473 1.806346e-06 0)
(0.01591439 -1.920801e-06 0)
(0.016274459 1.7533705e-06 0)
(0.015938037 -1.6711139e-06 0)
(0.016253422 1.5575774e-06 0)
(0.015958177 -1.4649737e-06 0)
(0.016234713 1.3721648e-06 0)
(0.015975807 -1.288077e-06 0)
(0.016218215 1.2079083e-06 0)
(0.015991308 -1.1337169e-06 0)
(0.016203687 1.0637031e-06 0)
(0.016004953 -9.9862092e-07 0)
(0.016190887 9.3738218e-07 0)
(0.016016977 -8.8039753e-07 0)
(0.016179603 8.2686043e-07 0)
(0.016027582 -7.770324e-07 0)
(0.016169643 7.3028162e-07 0)
(0.016036947 -6.867774e-07 0)
(0.016160841 6.4601791e-07 0)
(0.016045231 -6.0810806e-07 0)
(0.016153047 5.7264768e-07 0)
(0.016052574 -5.3969583e-07 0)
(0.01614613 5.0893267e-07 0)
(0.016059098 -4.8038526e-07 0)
(0.016139974 4.5379732e-07 0)
(0.016064915 -4.2917451e-07 0)
(0.016134474 4.0631077e-07 0)
(0.016070123 -3.851984e-07 0)
(0.016129539 3.6567114e-07 0)
(0.016074809 -3.477138e-07 0)
(0.016125084 3.3119193e-07 0)
(0.016079052 -3.1608697e-07 0)
(0.016121035 3.0229027e-07 0)
(0.016082925 -2.8978272e-07 0)
(0.016117324 2.7847679e-07 0)
(0.016086492 -2.6835486e-07 0)
(0.016113887 2.5934661e-07 0)
(0.016089813 -2.5143739e-07 0)
(0.016110667 2.4457047e-07 0)
(0.016092947 -2.3872981e-07 0)
(0.016107608 2.3389965e-07 0)
(0.016095945 -2.2996719e-07 0)
(0.016104653 2.2648174e-07 0)
(0.016098881 -2.3264618e-07 0)
(0.016102035 2.1508794e-07 0)
(0.017068453 0.0024919206 0)
(0.018832988 -1.7925358e-05 0)
(0.017989911 4.9092909e-06 0)
(0.018578987 1.268063e-06 0)
(0.018063634 -2.4337236e-06 0)
(0.018546169 1.9787566e-06 0)
(0.018104521 -2.1520156e-06 0)
(0.01851956 1.9567328e-06 0)
(0.018131695 -1.8691634e-06 0)
(0.018495286 1.7406139e-06 0)
(0.018154902 -1.6377924e-06 0)
(0.018473712 1.5337259e-06 0)
(0.018175225 -1.4398903e-06 0)
(0.018454691 1.3501836e-06 0)
(0.018193095 -1.2673115e-06 0)
(0.018437941 1.1890037e-06 0)
(0.018208826 -1.11629e-06 0)
(0.018423185 1.0478061e-06 0)
(0.018222687 -9.8413429e-07 0)
(0.018410175 9.2426722e-07 0)
(0.018234913 -8.685891e-07 0)
(0.018398693 8.1631321e-07 0)
(0.01824571 -7.6769941e-07 0)
(0.018388544 7.2212463e-07 0)
(0.01825526 -6.7976079e-07 0)
(0.018379559 6.4011243e-07 0)
(0.018263725 -6.0328795e-07 0)
(0.018371584 5.6889251e-07 0)
(0.018271247 -5.3698924e-07 0)
(0.018364487 5.0726268e-07 0)
(0.018277953 -4.7974472e-07 0)
(0.018358147 4.5418246e-07 0)
(0.018283957 -4.3058722e-07 0)
(0.018352457 4.0875552e-07 0)
(0.018289359 -3.8868598e-07 0)
(0.018347321 3.7021447e-07 0)
(0.018294252 -3.5333248e-07 0)
(0.018342653 3.3790765e-07 0)
(0.018298716 -3.2392824e-07 0)
(0.018338374 3.1128776e-07 0)
(0.018302828 -2.9997404e-07 0)
(0.018334412 2.8990152e-07 0)
(0.018306658 -2.8105968e-07 0)
(0.018330699 2.7337915e-07 0)
(0.01831027 -2.668457e-07 0)
(0.018327172 2.6144072e-07 0)
(0.018313727 -2.5701478e-07 0)
(0.018323766 2.5307736e-07 0)
(0.018317108 -2.6088573e-07 0)
(0.018320711 2.3975159e-07 0)
(0.019100865 0.0027026232 0)
(0.021014475 -2.3396559e-05 0)
(0.020103448 5.9920544e-06 0)
(0.020765373 1.2583412e-06 0)
(0.020181843 -2.6513233e-06 0)
(0.020727365 2.1194654e-06 0)
(0.020227723 -2.3609464e-06 0)
(0.020697185 2.1383277e-06 0)
(0.020258367 -2.0471517e-06 0)
(0.020669699 1.9046678e-06 0)
(0.02028461 -1.7928704e-06 0)
(0.020645286 1.6786157e-06 0)
(0.0203076 -1.5760807e-06 0)
(0.020623766 1.4777932e-06 0)
(0.020327814 -1.3871512e-06 0)
(0.020604816 1.3013919e-06 0)
(0.020345611 -1.2218427e-06 0)
(0.020588121 1.1468522e-06 0)
(0.020361292 -1.0771891e-06 0)
(0.020573403 1.0116384e-06 0)
(0.020375124 -9.5071829e-07 0)
(0.020560412 8.934821e-07 0)
(0.020387338 -8.4028926e-07 0)
(0.020548931 7.9039189e-07 0)
(0.020398142 -7.4403614e-07 0)
(0.020538765 7.0062867e-07 0)
(0.020407719 -6.6033304e-07 0)
(0.020529744 6.2267754e-07 0)
(0.020416228 -5.8776611e-07 0)
(0.020521714 5.5522276e-07 0)
(0.020423815 -5.2510949e-07 0)
(0.020514541 4.9712556e-07 0)
(0.020430607 -4.713045e-07 0)
(0.020508104 4.4740489e-07 0)
(0.020436719 -4.2544175e-07 0)
(0.020502294 4.0522078e-07 0)
(0.020442254 -3.8674562e-07 0)
(0.020497013 3.6985985e-07 0)
(0.020447304 -3.5456079e-07 0)
(0.020492172 3.4072273e-07 0)
(0.020451957 -3.2834031e-07 0)
(0.02048769 3.1731252e-07 0)
(0.020456289 -3.0763398e-07 0)
(0.020483489 2.9922245e-07 0)
(0.020460376 -2.9206625e-07 0)
(0.020479499 2.8614379e-07 0)
(0.020464286 -2.8126538e-07 0)
(0.020475645 2.7691742e-07 0)
(0.020468108 -2.8639695e-07 0)
(0.020472151 2.6164802e-07 0)
(0.021084234 0.0028873722 0)
(0.02312254 -2.9327028e-05 0)
(0.022151469 7.0249024e-06 0)
(0.022883612 1.2237252e-06 0)
(0.022233428 -2.8377416e-06 0)
(0.022840968 2.229574e-06 0)
(0.022284075 -2.5476947e-06 0)
(0.022807257 2.2984404e-06 0)
(0.022318125 -2.2051775e-06 0)
(0.022776594 2.0498858e-06 0)
(0.022347362 -1.9303218e-06 0)
(0.022749377 1.8069521e-06 0)
(0.022372984 -1.6967536e-06 0)
(0.022725389 1.5908396e-06 0)
(0.022395515 -1.4933298e-06 0)
(0.022704266 1.4009578e-06 0)
(0.022415351 -1.3153619e-06 0)
(0.022685657 1.2345996e-06 0)
(0.022432829 -1.1596354e-06 0)
(0.022669252 1.0890439e-06 0)
(0.022448245 -1.0234847e-06 0)
(0.022654772 9.6184981e-07 0)
(0.022461859 -9.0460416e-07 0)
(0.022641975 8.5087405e-07 0)
(0.022473902 -8.0098475e-07 0)
(0.022630644 7.5424449e-07 0)
(0.022484575 -7.1087604e-07 0)
(0.022620588 6.7033046e-07 0)
(0.02249406 -6.3275588e-07 0)
(0.022611638 5.9771562e-07 0)
(0.022502517 -5.6530456e-07 0)
(0.022603643 5.3517412e-07 0)
(0.022510087 -5.0738233e-07 0)
(0.022596468 4.816499e-07 0)
(0.0225169 -4.5801012e-07 0)
(0.022589992 4.3623867e-07 0)
(0.022523069 -4.1635282e-07 0)
(0.022584106 3.981723e-07 0)
(0.022528698 -3.8170467e-07 0)
(0.02257871 3.6680522e-07 0)
(0.022533884 -3.534763e-07 0)
(0.022573714 3.4160163e-07 0)
(0.022538713 -3.3118171e-07 0)
(0.022569032 3.2212142e-07 0)
(0.022543267 -3.1441222e-07 0)
(0.022564585 3.0802946e-07 0)
(0.022547626 -3.0274047e-07 0)
(0.02256029 2.9802516e-07 0)
(0.022551883 -3.0916484e-07 0)
(0.022556357 2.8081899e-07 0)
(0.023019477 0.0030469292 0)
(0.025158125 -3.5609846e-05 0)
(0.024133999 7.9782205e-06 0)
(0.024933368 1.170498e-06 0)
(0.02421853 -2.997309e-06 0)
(0.024886898 2.3107343e-06 0)
(0.02427365 -2.7125163e-06 0)
(0.024849708 2.4374821e-06 0)
(0.024311034 -2.3434616e-06 0)
(0.024815909 2.1765285e-06 0)
(0.024343216 -2.0503685e-06 0)
(0.02478593 1.9189542e-06 0)
(0.02437143 -1.8021094e-06 0)
(0.024759512 1.6895137e-06 0)
(0.02439624 -1.5860248e-06 0)
(0.02473625 1.4878692e-06 0)
(0.024418084 -1.3970042e-06 0)
(0.024715757 1.3111963e-06 0)
(0.024437331 -1.2316109e-06 0)
(0.024697691 1.1566139e-06 0)
(0.024454307 -1.08701e-06 0)
(0.024681745 1.0215313e-06 0)
(0.0244693 -9.6075162e-07 0)
(0.024667652 9.036727e-07 0)
(0.024482561 -8.5070181e-07 0)
(0.024655174 8.0104988e-07 0)
(0.024494315 -7.5500137e-07 0)
(0.0246441 7.1193116e-07 0)
(0.02450476 -6.7203366e-07 0)
(0.024634244 6.3481241e-07 0)
(0.024514073 -6.0039701e-07 0)
(0.024625439 5.6839182e-07 0)
(0.02452241 -5.388809e-07 0)
(0.024617537 5.1154782e-07 0)
(0.024529912 -4.8644541e-07 0)
(0.024610405 4.6331995e-07 0)
(0.024536705 -4.4220344e-07 0)
(0.024603923 4.2289228e-07 0)
(0.024542905 -4.0540515e-07 0)
(0.024597981 3.8957877e-07 0)
(0.024548615 -3.7542397e-07 0)
(0.024592479 3.6280948e-07 0)
(0.024553933 -3.5174228e-07 0)
(0.024587324 3.4211456e-07 0)
(0.024558949 -3.3392137e-07 0)
(0.024582426 3.2713494e-07 0)
(0.024563748 -3.2147783e-07 0)
(0.024577697 3.1643912e-07 0)
(0.024568432 -3.2919488e-07 0)
(0.024573327 2.9732341e-07 0)
(0.024907159 0.0031820435 0)
(0.027122237 -4.2136262e-05 0)
(0.026050856 8.8313626e-06 0)
(0.026914513 1.1044248e-06 0)
(0.026137269 -3.1353628e-06 0)
(0.026865088 2.3650354e-06 0)
(0.026196515 -2.8557382e-06 0)
(0.026824473 2.5559374e-06 0)
(0.026237152 -2.4622998e-06 0)
(0.026787589 2.2849277e-06 0)
(0.026272225 -2.1532992e-06 0)
(0.026754898 2.014903e-06 0)
(0.026302981 -1.8924072e-06 0)
(0.026726094 1.7740616e-06 0)
(0.02633003 -1.6654651e-06 0)
(0.026700731 1.5623423e-06 0)
(0.026353845 -1.4669711e-06 0)
(0.026678388 1.3768324e-06 0)
(0.026374829 -1.2932936e-06 0)
(0.02665869 1.214516e-06 0)
(0.026393337 -1.1414511e-06 0)
(0.026641305 1.0726746e-06 0)
(0.026409682 -1.0088702e-06 0)
(0.02662594 9.4891857e-07 0)
(0.02642414 -8.9330994e-07 0)
(0.026612335 8.4116061e-07 0)
(0.026436955 -7.9281783e-07 0)
(0.026600262 7.4758244e-07 0)
(0.026448343 -7.0569624e-07 0)
(0.026589516 6.6660474e-07 0)
(0.026458496 -6.3047327e-07 0)
(0.026579916 5.968606e-07 0)
(0.026467586 -5.6587773e-07 0)
(0.026571301 5.3717232e-07 0)
(0.026475765 -5.1081754e-07 0)
(0.026563525 4.8653131e-07 0)
(0.026483172 -4.6436101e-07 0)
(0.026556458 4.4408061e-07 0)
(0.026489931 -4.2572045e-07 0)
(0.026549979 4.0909942e-07 0)
(0.026496157 -3.9423725e-07 0)
(0.026543981 3.8098828e-07 0)
(0.026501955 -3.6936631e-07 0)
(0.02653836 3.5925124e-07 0)
(0.026507423 -3.5064206e-07 0)
(0.026533021 3.435078e-07 0)
(0.026512656 -3.3752551e-07 0)
(0.026527865 3.3220757e-07 0)
(0.026517758 -3.4650719e-07 0)
(0.026523063 3.1123133e-07 0)
(0.026747523 0.0032934569 0)
(0.029015932 -4.8802143e-05 0)
(0.027901732 9.5787471e-06 0)
(0.028827053 1.0302862e-06 0)
(0.027989738 -3.2570205e-06 0)
(0.028775481 2.3948338e-06 0)
(0.02805273 -2.9776995e-06 0)
(0.028731494 2.6543297e-06 0)
(0.028096535 -2.5620343e-06 0)
(0.028691584 2.3754578e-06 0)
(0.028134434 -2.239444e-06 0)
(0.028656235 2.0951181e-06 0)
(0.028167681 -1.9679419e-06 0)
(0.028625094 1.8447624e-06 0)
(0.028196922 -1.7319108e-06 0)
(0.028597674 1.6246226e-06 0)
(0.028222666 -1.5254922e-06 0)
(0.02857352 1.4317241e-06 0)
(0.02824535 -1.3448856e-06 0)
(0.028552225 1.2629408e-06 0)
(0.028265358 -1.1869863e-06 0)
(0.028533431 1.1154476e-06 0)
(0.028283029 -1.0491176e-06 0)
(0.028516819 9.8676025e-07 0)
(0.028298659 -9.289486e-07 0)
(0.028502111 8.747083e-07 0)
(0.028312512 -8.2444912e-07 0)
(0.028489059 7.7740118e-07 0)
(0.028324823 -7.3385369e-07 0)
(0.028477441 6.9319674e-07 0)
(0.0283358 -6.5563162e-07 0)
(0.028467063 6.2067362e-07 0)
(0.028345626 -5.8846097e-07 0)
(0.02845775 5.5860718e-07 0)
(0.028354468 -5.3120603e-07 0)
(0.028449343 5.0594855e-07 0)
(0.028362476 -4.8289776e-07 0)
(0.028441703 4.618064e-07 0)
(0.028369783 -4.4271673e-07 0)
(0.028434699 4.2543078e-07 0)
(0.028376514 -4.0997738e-07 0)
(0.028428214 3.9619727e-07 0)
(0.028382782 -3.8411126e-07 0)
(0.028422137 3.7358749e-07 0)
(0.028388693 -3.6462913e-07 0)
(0.028416365 3.5720201e-07 0)
(0.02839435 -3.5093779e-07 0)
(0.028410793 3.4538466e-07 0)
(0.028399863 -3.6113235e-07 0)
(0.028405564 3.2261976e-07 0)
(0.028540524 0.0033819048 0)
(0.030840223 -5.5506901e-05 0)
(0.029686311 1.0235072e-05 0)
(0.030671042 9.4860554e-07 0)
(0.029776004 -3.3674855e-06 0)
(0.030618025 2.4024195e-06 0)
(0.02984235 -3.0787587e-06 0)
(0.030570719 2.7332108e-06 0)
(0.029889231 -2.6430455e-06 0)
(0.030527846 2.448531e-06 0)
(0.029929888 -2.3091677e-06 0)
(0.030489901 2.1599514e-06 0)
(0.029965566 -2.0290389e-06 0)
(0.030456478 1.9019241e-06 0)
(0.029996947 -1.7856491e-06 0)
(0.030427049 1.6749806e-06 0)
(0.030024576 -1.5728201e-06 0)
(0.030401126 1.4761096e-06 0)
(0.030048921 -1.3866096e-06 0)
(0.030378271 1.3020982e-06 0)
(0.030070394 -1.2238123e-06 0)
(0.0303581 1.1500358e-06 0)
(0.030089358 -1.0816673e-06 0)
(0.030340272 1.0173615e-06 0)
(0.030106133 -9.5777161e-07 0)
(0.030324486 9.0183802e-07 0)
(0.030121001 -8.5003171e-07 0)
(0.030310477 8.0151623e-07 0)
(0.030134214 -7.5662738e-07 0)
(0.030298009 7.1470321e-07 0)
(0.030145994 -6.7598042e-07 0)
(0.030286871 6.3993358e-07 0)
(0.03015654 -6.0672783e-07 0)
(0.030276875 5.7594473e-07 0)
(0.03016603 -5.4769854e-07 0)
(0.030267852 5.2165519e-07 0)
(0.030174624 -4.978933e-07 0)
(0.030259652 4.7614582e-07 0)
(0.030182466 -4.5646692e-07 0)
(0.030252135 4.3864293e-07 0)
(0.03018969 -4.2271187e-07 0)
(0.030245175 4.0850173e-07 0)
(0.030196417 -3.9604039e-07 0)
(0.030238653 3.8518496e-07 0)
(0.030202762 -3.7594291e-07 0)
(0.030232458 3.6827688e-07 0)
(0.030208833 -3.6177422e-07 0)
(0.030226479 3.5602944e-07 0)
(0.030214746 -3.7310993e-07 0)
(0.03022083 3.3157098e-07 0)
(0.030285894 0.0034481127 0)
(0.032595781 -6.2105878e-05 0)
(0.031404591 1.0791973e-05 0)
(0.032446528 8.5501229e-07 0)
(0.031496121 -3.4720089e-06 0)
(0.032392678 2.3899237e-06 0)
(0.031565425 -3.1593413e-06 0)
(0.032342101 2.7931376e-06 0)
(0.031615285 -2.7057588e-06 0)
(0.032296334 2.5045918e-06 0)
(0.031658626 -2.362869e-06 0)
(0.03225586 2.2097857e-06 0)
(0.031696671 -2.0760528e-06 0)
(0.032220213 1.9458815e-06 0)
(0.031730137 -1.8269926e-06 0)
(0.032188828 1.7137108e-06 0)
(0.031759601 -1.6092304e-06 0)
(0.032161181 1.5102482e-06 0)
(0.031785564 -1.4187086e-06 0)
(0.032136806 1.3322167e-06 0)
(0.031808464 -1.2521432e-06 0)
(0.032115294 1.1766407e-06 0)
(0.031828688 -1.1067088e-06 0)
(0.03209628 1.0409007e-06 0)
(0.031846578 -9.7994648e-07 0)
(0.032079445 9.2270775e-07 0)
(0.031862434 -8.697142e-07 0)
(0.032064505 8.2006792e-07 0)
(0.031876525 -7.7414955e-07 0)
(0.032051207 7.3124918e-07 0)
(0.031889088 -6.9163775e-07 0)
(0.032039328 6.5475232e-07 0)
(0.031900336 -6.2078417e-07 0)
(0.032028668 5.8928552e-07 0)
(0.031910457 -5.6039055e-07 0)
(0.032019046 5.3374221e-07 0)
(0.031919622 -5.0943432e-07 0)
(0.0320103 4.8718179e-07 0)
(0.031927986 -4.6705041e-07 0)
(0.032002283 4.4881221e-07 0)
(0.031935691 -4.3251417e-07 0)
(0.031994859 4.1797268e-07 0)
(0.031942865 -4.0522257e-07 0)
(0.031987904 3.9411072e-07 0)
(0.031949632 -3.8464899e-07 0)
(0.031981298 3.767969e-07 0)
(0.031956106 -3.7009936e-07 0)
(0.031974922 3.6420573e-07 0)
(0.031962408 -3.8248783e-07 0)
(0.031968861 3.3817165e-07 0)
(0.031983184 0.0034927727 0)
(0.034282218 -6.831207e-05 0)
(0.033057541 1.1088485e-05 0)
(0.03415351 7.3192926e-07 0)
(0.033150113 -3.5755859e-06 0)
(0.034099384 2.3599609e-06 0)
(0.033221995 -3.2196894e-06 0)
(0.034045596 2.8347543e-06 0)
(0.033274736 -2.7506185e-06 0)
(0.033997011 2.5441221e-06 0)
(0.033320683 -2.4009759e-06 0)
(0.033954077 2.2450327e-06 0)
(0.033361028 -2.109365e-06 0)
(0.03391627 1.9769948e-06 0)
(0.033396518 -1.8562776e-06 0)
(0.033882984 1.7411298e-06 0)
(0.033427765 -1.6350192e-06 0)
(0.033853662 1.5344184e-06 0)
(0.0334553 -1.4414435e-06 0)
(0.033827811 1.353542e-06 0)
(0.033479587 -1.2722095e-06 0)
(0.033804996 1.1954794e-06 0)
(0.033501035 -1.1244457e-06 0)
(0.033784831 1.0575696e-06 0)
(0.033520008 -9.9565349e-07 0)
(0.033766976 9.3748749e-07 0)
(0.033536825 -8.8365655e-07 0)
(0.033751131 8.3320722e-07 0)
(0.033551769 -7.8656251e-07 0)
(0.033737027 7.4296919e-07 0)
(0.033565093 -7.0273067e-07 0)
(0.033724429 6.6525021e-07 0)
(0.033577022 -6.3074396e-07 0)
(0.033713122 5.9873777e-07 0)
(0.033587756 -5.6938483e-07 0)
(0.033702917 5.4230751e-07 0)
(0.033597476 -5.1761416e-07 0)
(0.033693641 4.9500355e-07 0)
(0.033606347 -4.7455266e-07 0)
(0.033685138 4.5602072e-07 0)
(0.033614518 -4.3946336e-07 0)
(0.033677265 4.2468656e-07 0)
(0.033622128 -4.1173185e-07 0)
(0.033669888 4.0043691e-07 0)
(0.033629304 -3.908179e-07 0)
(0.033662882 3.8283133e-07 0)
(0.03363617 -3.7598239e-07 0)
(0.033656121 3.6998175e-07 0)
(0.033642851 -3.8932159e-07 0)
(0.033649658 3.4251193e-07 0)
(0.033631954 0.0035166707 0)
(0.035896303 -7.4026871e-05 0)
(0.034648266 1.1088709e-05 0)
(0.035792384 5.7983241e-07 0)
(0.034738017 -3.6830676e-06 0)
(0.035738094 2.3139583e-06 0)
(0.034812095 -3.2604055e-06 0)
(0.03568116 2.8586048e-06 0)
(0.03486762 -2.7781413e-06 0)
(0.035629841 2.5676185e-06 0)
(0.03491609 -2.4239493e-06 0)
(0.035584524 2.2661281e-06 0)
(0.034958663 -2.1293819e-06 0)
(0.035544623 1.9956465e-06 0)
(0.034996115 -1.873862e-06 0)
(0.035509495 1.7575741e-06 0)
(0.035029091 -1.6505019e-06 0)
(0.03547855 1.5489169e-06 0)
(0.035058148 -1.4550923e-06 0)
(0.035451269 1.3663356e-06 0)
(0.035083778 -1.2842564e-06 0)
(0.03542719 1.2067826e-06 0)
(0.035106413 -1.1350946e-06 0)
(0.035405909 1.0675724e-06 0)
(0.035126435 -1.0050845e-06 0)
(0.035387066 9.4635806e-07 0)
(0.035144183 -8.9202897e-07 0)
(0.035370344 8.4109478e-07 0)
(0.035159954 -7.9401771e-07 0)
(0.03535546 7.5000638e-07 0)
(0.035174015 -7.0939439e-07 0)
(0.035342164 6.715553e-07 0)
(0.035186604 -6.3672846e-07 0)
(0.035330231 6.0441662e-07 0)
(0.035197932 -5.7479075e-07 0)
(0.035319461 5.4745525e-07 0)
(0.035208191 -5.2253211e-07 0)
(0.035309672 4.9970607e-07 0)
(0.035217553 -4.7906461e-07 0)
(0.035300698 4.6035584e-07 0)
(0.035226177 -4.4364356e-07 0)
(0.035292389 4.2872468e-07 0)
(0.035234208 -4.1564705e-07 0)
(0.035284603 4.0424027e-07 0)
(0.035241781 -3.9452462e-07 0)
(0.035277209 3.8645384e-07 0)
(0.035249027 -3.7949673e-07 0)
(0.035270076 3.7342976e-07 0)
(0.035256074 -3.9367366e-07 0)
(0.035263221 3.446846e-07 0)
(0.03523151 0.0035205911 0)
(0.037433936 -7.9819554e-05 0)
(0.036180109 1.1259011e-05 0)
(0.037364294 5.3930758e-07 0)
(0.036259993 -3.7748316e-06 0)
(0.037308834 2.2583897e-06 0)
(0.036335777 -3.2809128e-06 0)
(0.037248766 2.8655543e-06 0)
(0.036393972 -2.7887871e-06 0)
(0.037194795 2.5756301e-06 0)
(0.036444877 -2.4322656e-06 0)
(0.037147173 2.2735341e-06 0)
(0.036489603 -2.1365305e-06 0)
(0.037105249 2.0022403e-06 0)
(0.036528951 -1.8801227e-06 0)
(0.037068339 1.7633984e-06 0)
(0.036563596 -1.6560105e-06 0)
(0.037035826 1.554056e-06 0)
(0.036594125 -1.4599479e-06 0)
(0.037007162 1.3708729e-06 0)
(0.036621053 -1.2885424e-06 0)
(0.036981864 1.2107936e-06 0)
(0.036644835 -1.1388841e-06 0)
(0.036959504 1.0711242e-06 0)
(0.036665872 -1.0084418e-06 0)
(0.036939706 9.495101e-07 0)
(0.036684518 -8.9501093e-07 0)
(0.036922136 8.4389994e-07 0)
(0.036701089 -7.9667481e-07 0)
(0.036906498 7.5251165e-07 0)
(0.036715863 -7.1177148e-07 0)
(0.036892527 6.7380261e-07 0)
(0.03672909 -6.3886554e-07 0)
(0.03687999 6.0644345e-07 0)
(0.036740992 -5.7672361e-07 0)
(0.036868673 5.4929525e-07 0)
(0.036751771 -5.242929e-07 0)
(0.036858387 5.0138947e-07 0)
(0.036761608 -4.8068216e-07 0)
(0.036848959 4.619097e-07 0)
(0.036770669 -4.451435e-07 0)
(0.036840228 4.3017278e-07 0)
(0.036779107 -4.1705128e-07 0)
(0.036832047 4.0560168e-07 0)
(0.036787065 -3.958482e-07 0)
(0.036824279 3.8774203e-07 0)
(0.036794678 -3.8071956e-07 0)
(0.036816785 3.7462563e-07 0)
(0.036802079 -3.956127e-07 0)
(0.03680955 3.447843e-07 0)
(0.036780578 0.003505272 0)
(0.038900762 -8.5291881e-05 0)
(0.03764942 1.1333262e-05 0)
(0.038868853 5.9558703e-07 0)
(0.037715915 -3.8556132e-06 0)
(0.038811531 2.1938535e-06 0)
(0.037793064 -3.281977e-06 0)
(0.038748379 2.8561472e-06 0)
(0.03785382 -2.7831452e-06 0)
(0.038691844 2.5686964e-06 0)
(0.03790707 -2.4264357e-06 0)
(0.038641999 2.267729e-06 0)
(0.037953869 -2.1312592e-06 0)
(0.038598125 1.9971973e-06 0)
(0.037995044 -1.8754544e-06 0)
(0.038559499 1.7589737e-06 0)
(0.038031299 -1.6518926e-06 0)
(0.038525475 1.5501625e-06 0)
(0.038063246 -1.4563166e-06 0)
(0.038495478 1.3674422e-06 0)
(0.038091426 -1.285338e-06 0)
(0.038469003 1.2077668e-06 0)
(0.038116313 -1.1360532e-06 0)
(0.038445604 1.0684499e-06 0)
(0.038138327 -1.0059369e-06 0)
(0.038424885 9.4714303e-07 0)
(0.03815784 -8.9279018e-07 0)
(0.038406498 8.4179985e-07 0)
(0.038175181 -7.9470088e-07 0)
(0.038390133 7.5064288e-07 0)
(0.038190642 -7.1001111e-07 0)
(0.038375513 6.7213338e-07 0)
(0.038204484 -6.3728899e-07 0)
(0.038362392 6.0494529e-07 0)
(0.03821694 -5.753041e-07 0)
(0.038350549 5.4794244e-07 0)
(0.03822822 -5.2300612e-07 0)
(0.038339785 5.0015853e-07 0)
(0.038238515 -4.7950566e-07 0)
(0.038329917 4.6077875e-07 0)
(0.038247998 -4.4405603e-07 0)
(0.03832078 4.291206e-07 0)
(0.038256828 -4.160315e-07 0)
(0.038312219 4.046058e-07 0)
(0.038265156 -3.9487134e-07 0)
(0.038304089 3.8677708e-07 0)
(0.038273123 -3.7973147e-07 0)
(0.038296247 3.7364856e-07 0)
(0.038280865 -3.9521293e-07 0)
(0.038288645 3.4290688e-07 0)
(0.038277597 0.0034714859 0)
(0.040305722 -8.9810388e-05 0)
(0.039049333 1.0868323e-05 0)
(0.040305275 6.6853288e-07 0)
(0.039105613 -3.9337702e-06 0)