/*--------------------------------*- C++ -*----------------------------------*\
| =========                 |                                                 |
| \\      /  F ield         | OpenFOAM: The Open Source CFD Toolbox           |
|  \\    /   O peration     | Version:  2312                                  |
|   \\  /    A nd           | Website:  www.openfoam.com                      |
|    \\/     M anipulation  |                                                 |
\*---------------------------------------------------------------------------*/
FoamFile
{
    version     2.0;
    format      ascii;
    arch        "LSB;label=32;scalar=64";
    class       volVectorField;
    location    "5";
    object      U_0;
}
// * * * * * * * * * * * * * * * * * * * * * * * * * * * * * * * * * * * * * //

dimensions      [0 1 -1 0 0 0 0];

internalField   nonuniform List<vector> 
4000
(
(0.0013473983 0.00023021883 0)
(0.0014474869 -1.2445434e-06 0)
(0.0013498546 -1.5214395e-07 0)
(0.0013956128 1.481003e-07 0)
(0.0013600207 -1.3728206e-07 0)
(0.0013934363 1.3033077e-07 0)
(0.0013630155 -1.2099847e-07 0)
(0.0013916199 1.1371827e-07 0)
(0.0013649289 -1.0649342e-07 0)
(0.0013899573 9.9912624e-08 0)
(0.0013665312 -9.3682299e-08 0)
(0.0013884742 8.7875261e-08 0)
(0.00136793 -8.2427174e-08 0)
(0.0013871656 7.7331238e-08 0)
(0.001369159 -7.2558786e-08 0)
(0.0013860133 6.8093632e-08 0)
(0.0013702406 -6.3913928e-08 0)
(0.0013849983 6.0004962e-08 0)
(0.0013711934 -5.634715e-08 0)
(0.0013841035 5.292843e-08 0)
(0.0013720337 -4.9730823e-08 0)
(0.001383314 4.6744602e-08 0)
(0.0013727756 -4.3953322e-08 0)
(0.0013826163 4.1349153e-08 0)
(0.0013734316 -3.8917171e-08 0)
(0.0013819988 3.6651056e-08 0)
(0.0013740129 -3.4537383e-08 0)
(0.001381451 3.2571032e-08 0)
(0.0013745291 -3.0740031e-08 0)
(0.0013809637 2.9040218e-08 0)
(0.0013749891 -2.746101e-08 0)
(0.0013805287 2.5999012e-08 0)
(0.0013754006 -2.4644964e-08 0)
(0.0013801387 2.3396083e-08 0)
(0.0013757705 -2.2244357e-08 0)
(0.0013797871 2.1187504e-08 0)
(0.001376105 -2.0218687e-08 0)
(0.0013794679 1.9336033e-08 0)
(0.0013764099 -1.8533815e-08 0)
(0.0013791758 1.7810507e-08 0)
(0.0013766902 -1.7161436e-08 0)
(0.0013789059 1.6585383e-08 0)
(0.0013769507 -1.6078699e-08 0)
(0.0013786536 1.5640478e-08 0)
(0.0013771958 -1.5268156e-08 0)
(0.0013784146 1.4961061e-08 0)
(0.0013774296 -1.4719255e-08 0)
(0.0013781852 1.4540402e-08 0)
(0.0013776625 -1.4399527e-08 0)
(0.001378009 1.4894261e-08 0)
(0.0037617447 0.00063527507 0)
(0.0041622519 4.0918729e-07 0)
(0.0039241979 4.3714845e-08 0)
(0.0040511209 4.1086251e-07 0)
(0.0039478249 -4.7785601e-07 0)
(0.0040452135 4.3482048e-07 0)
(0.0039564669 -4.2090576e-07 0)
(0.004039944 3.9181786e-07 0)
(0.0039620333 -3.6913825e-07 0)
(0.0040350908 3.4558652e-07 0)
(0.00396671 -3.2436426e-07 0)
(0.0040307614 3.0412592e-07 0)
(0.0039707947 -2.853308e-07 0)
(0.0040269417 2.6766512e-07 0)
(0.0039743841 -2.5116236e-07 0)
(0.0040235776 2.3569925e-07 0)
(0.0039775435 -2.2123979e-07 0)
(0.0040206143 2.0770565e-07 0)
(0.003980327 -1.9505077e-07 0)
(0.0040180018 1.8321478e-07 0)
(0.0039827818 -1.7215217e-07 0)
(0.0040156962 1.6181399e-07 0)
(0.0039849496 -1.5215744e-07 0)
(0.0040136586 1.4314234e-07 0)
(0.0039868667 -1.3472916e-07 0)
(0.0040118547 1.2688478e-07 0)
(0.0039885657 -1.1957316e-07 0)
(0.0040102542 1.1276694e-07 0)
(0.0039900751 -1.0643358e-07 0)
(0.00400883 1.0055047e-07 0)
(0.0039914203 -9.5088563e-08 0)
(0.0040075582 9.0029125e-08 0)
(0.0039926242 -8.5346531e-08 0)
(0.0040064173 8.1025247e-08 0)
(0.0039937071 -7.7042956e-08 0)
(0.0040053881 7.3386799e-08 0)
(0.0039946871 -7.0037608e-08 0)
(0.0040044532 6.6984805e-08 0)
(0.0039955808 -6.4212203e-08 0)
(0.0040035969 6.1711202e-08 0)
(0.0039964033 -5.9468442e-08 0)
(0.0040028047 5.7477065e-08 0)
(0.0039971685 -5.572644e-08 0)
(0.0040020633 5.4211316e-08 0)
(0.0039978894 -5.2923367e-08 0)
(0.0040013599 5.1860906e-08 0)
(0.003998578 -5.1018365e-08 0)
(0.0040006827 5.0315687e-08 0)
(0.0039992584 -5.060572e-08 0)
(0.0040001351 4.8461737e-08 0)
(0.0061105886 0.0010195298 0)
(0.0067964201 -5.2514193e-07 0)
(0.0064332128 3.7571396e-07 0)
(0.0066395285 6.9471962e-07 0)
(0.0064684393 -8.6627388e-07 0)
(0.006629859 7.7421099e-07 0)
(0.0064826447 -7.6167142e-07 0)
(0.0066211067 7.0638098e-07 0)
(0.006491851 -6.6697344e-07 0)
(0.0066130498 6.2389494e-07 0)
(0.0064996065 -5.8581674e-07 0)
(0.0066058664 5.4915903e-07 0)
(0.0065063836 -5.1527506e-07 0)
(0.0065995291 4.8334144e-07 0)
(0.0065123396 -4.5356239e-07 0)
(0.0065939477 4.2562225e-07 0)
(0.0065175824 -3.9952432e-07 0)
(0.0065890309 3.7507261e-07 0)
(0.0065222017 -3.5222983e-07 0)
(0.006584696 3.3084741e-07 0)
(0.0065262758 -3.1087774e-07 0)
(0.0065808702 2.9220204e-07 0)
(0.0065298736 -2.747698e-07 0)
(0.0065774889 2.584848e-07 0)
(0.0065330558 -2.4329657e-07 0)
(0.0065744952 2.2912682e-07 0)
(0.006535876 -2.1592675e-07 0)
(0.0065718386 2.0363257e-07 0)
(0.0065383819 -1.9219825e-07 0)
(0.0065694745 1.8157167e-07 0)
(0.0065406157 -1.7171036e-07 0)
(0.0065673628 1.6257162e-07 0)
(0.0065426151 -1.5411704e-07 0)
(0.0065654681 1.4631156e-07 0)
(0.0065444138 -1.3912109e-07 0)
(0.0065637584 1.3251686e-07 0)
(0.0065460423 -1.2646917e-07 0)
(0.0065622049 1.2095447e-07 0)
(0.0065475279 -1.1594745e-07 0)
(0.0065607813 1.1142898e-07 0)
(0.0065488958 -1.0737801e-07 0)
(0.0065594636 1.0377923e-07 0)
(0.0065501691 -1.0061578e-07 0)
(0.0065582296 9.787564e-08 0)
(0.0065513694 -9.5545098e-08 0)
(0.0065570581 9.3620275e-08 0)
(0.0065525168 -9.2084035e-08 0)
(0.0065559286 9.0778674e-08 0)
(0.0065536475 -9.1686474e-08 0)
(0.0065549929 8.7021978e-08 0)
(0.00841308 0.0013735737 0)
(0.0093562933 -2.4141897e-06 0)
(0.0088766273 9.7397698e-07 0)
(0.0091610351 9.1892666e-07 0)
(0.008921779 -1.2408576e-06 0)
(0.0091474619 1.08786e-06 0)
(0.0089414751 -1.0893301e-06 0)
(0.0091351896 1.0063084e-06 0)
(0.0089543162 -9.5239235e-07 0)
(0.0091239065 8.9008547e-07 0)
(0.008965163 -8.3612042e-07 0)
(0.0091138527 7.8363164e-07 0)
(0.0089746456 -7.3536971e-07 0)
(0.0091049841 6.8974114e-07 0)
(0.0089829803 -6.472841e-07 0)
(0.0090971733 6.073801e-07 0)
(0.0089903172 -5.7016213e-07 0)
(0.0090902924 5.3524528e-07 0)
(0.0089967819 -5.0266629e-07 0)
(0.0090842257 4.7213469e-07 0)
(0.0090024837 -4.4365168e-07 0)
(0.0090788713 4.1698646e-07 0)
(0.009007519 -3.921214e-07 0)
(0.0090741389 3.6887074e-07 0)
(0.0090119728 -3.4720554e-07 0)
(0.0090699488 3.2697568e-07 0)
(0.0090159202 -3.0814576e-07 0)
(0.0090662304 2.9059418e-07 0)
(0.0090194278 -2.7428251e-07 0)
(0.009062921 2.5911202e-07 0)
(0.0090225548 -2.4504388e-07 0)
(0.0090599649 2.3199766e-07 0)
(0.009025354 -2.19936e-07 0)
(0.0090573121 2.087932e-07 0)
(0.0090278726 -1.9853468e-07 0)
(0.009054918 1.891067e-07 0)
(0.0090301531 -1.8047826e-07 0)
(0.0090527422 1.7260549e-07 0)
(0.009032234 -1.6546145e-07 0)
(0.009050748 1.5901054e-07 0)
(0.0090341504 -1.5323008e-07 0)
(0.0090489018 1.4809148e-07 0)
(0.0090359348 -1.4357654e-07 0)
(0.0090471721 1.3966251e-07 0)
(0.0090376174 -1.3633391e-07 0)
(0.0090455295 1.3358292e-07 0)
(0.0090392268 -1.3137729e-07 0)
(0.0090439443 1.2947223e-07 0)
(0.0090408095 -1.3136194e-07 0)
(0.0090426039 1.2375768e-07 0)
(0.010660321 0.0016964974 0)
(0.011839523 -5.1900248e-06 0)
(0.011254047 1.7878927e-06 0)
(0.011615783 1.0793965e-06 0)
(0.011307853 -1.5856078e-06 0)
(0.011598006 1.3629912e-06 0)
(0.011332972 -1.390835e-06 0)
(0.011582175 1.2797405e-06 0)
(0.011349441 -1.2140327e-06 0)
(0.011567645 1.1335924e-06 0)
(0.01136339 -1.0653125e-06 0)
(0.011554706 9.9823038e-07 0)
(0.011375589 -9.3685543e-07 0)
(0.011543294 8.7866413e-07 0)
(0.011386314 -8.2461812e-07 0)
(0.011533244 7.7375093e-07 0)
(0.011395754 -7.2636286e-07 0)
(0.011524389 6.8185906e-07 0)
(0.011404072 -6.4037409e-07 0)
(0.011516583 6.0146224e-07 0)
(0.011411409 -5.6519111e-07 0)
(0.011509693 5.3120857e-07 0)
(0.011417889 -4.9954335e-07 0)
(0.011503603 4.6991356e-07 0)
(0.01142362 -4.4232228e-07 0)
(0.011498212 4.1654298e-07 0)
(0.011428699 -3.9256171e-07 0)
(0.011493427 3.7019601e-07 0)
(0.011433213 -3.4942131e-07 0)
(0.011489168 3.3009023e-07 0)
(0.011437237 -3.1217243e-07 0)
(0.011485364 2.9554848e-07 0)
(0.01144084 -2.8018586e-07 0)
(0.011481949 2.6598747e-07 0)
(0.011444081 -2.5292117e-07 0)
(0.011478868 2.4090788e-07 0)
(0.011447016 -2.2991755e-07 0)
(0.011476068 2.1988587e-07 0)
(0.011449695 -2.1078596e-07 0)
(0.0114735 2.025658e-07 0)
(0.011452162 -1.952024e-07 0)
(0.011471123 1.8865394e-07 0)
(0.011454459 -1.8290184e-07 0)
(0.011468896 1.7791271e-07 0)
(0.011456626 -1.7366985e-07 0)
(0.011466781 1.7016264e-07 0)
(0.011458699 -1.6733751e-07 0)
(0.011464739 1.6486923e-07 0)
(0.011460735 -1.6801272e-07 0)
(0.011462981 1.5726566e-07 0)
(0.012850256 0.001989637 0)
(0.014246289 -8.7340873e-06 0)
(0.013565391 2.7562561e-06 0)
(0.014003796 1.1854144e-06 0)
(0.013626769 -1.8997408e-06 0)
(0.013981385 1.6014915e-06 0)
(0.013657239 -1.6672714e-06 0)
(0.013961967 1.5279844e-06 0)
(0.013677314 -1.4529412e-06 0)
(0.013944182 1.3554479e-06 0)
(0.013694365 -1.2743373e-06 0)
(0.013928354 1.1938484e-06 0)
(0.013709284 -1.1205675e-06 0)
(0.013914395 1.0508942e-06 0)
(0.0137224 -9.863006e-07 0)
(0.013902103 9.2542472e-07 0)
(0.013733946 -8.6877527e-07 0)
(0.013891273 8.1552214e-07 0)
(0.01374412 -7.6592541e-07 0)
(0.013881725 7.1936675e-07 0)
(0.013753094 -6.760012e-07 0)
(0.013873298 6.3534249e-07 0)
(0.013761018 -5.9748221e-07 0)
(0.01386585 5.6203277e-07 0)
(0.013768028 -5.2904229e-07 0)
(0.013859255 4.9820063e-07 0)
(0.01377424 -4.6952566e-07 0)
(0.013853403 4.4276867e-07 0)
(0.013779761 -4.1792715e-07 0)
(0.013848194 3.9480112e-07 0)
(0.013784683 -3.7337523e-07 0)
(0.01384354 3.5348811e-07 0)
(0.013789089 -3.3511726e-07 0)
(0.013839364 3.1813201e-07 0)
(0.013793054 -3.0250682e-07 0)
(0.013835595 2.8813562e-07 0)
(0.013796645 -2.7499266e-07 0)
(0.01383217 2.6299195e-07 0)
(0.013799921 -2.5210935e-07 0)
(0.013829029 2.4227546e-07 0)
(0.013802939 -2.3346906e-07 0)
(0.013826122 2.256344e-07 0)
(0.01380575 -2.1875415e-07 0)
(0.013823397 2.1278358e-07 0)
(0.0138084 -2.077058e-07 0)
(0.013820809 2.0350771e-07 0)
(0.013810937 -2.0010869e-07 0)
(0.013818309 1.9711377e-07 0)
(0.013813424 -2.0170574e-07 0)
(0.013816125 1.8762651e-07 0)
(0.014985303 0.0022544881 0)
(0.016577181 -1.2997937e-05 0)
(0.015810637 3.8149302e-06 0)
(0.016324967 1.2460913e-06 0)
(0.015878651 -2.1829881e-06 0)
(0.016297478 1.8063373e-06 0)
(0.015914387 -1.9207994e-06 0)
(0.016274461 1.7533714e-06 0)
(0.015938035 -1.6711186e-06 0)
(0.016253423 1.5575832e-06 0)
(0.015958176 -1.46498e-06 0)
(0.016234714 1.3721705e-06 0)
(0.015975807 -1.2880819e-06 0)
(0.016218216 1.2079122e-06 0)
(0.015991307 -1.13372e-06 0)
(0.016203687 1.0637054e-06 0)
(0.016004952 -9.9862282e-07 0)
(0.016190888 9.3738373e-07 0)
(0.016016976 -8.8039911e-07 0)
(0.016179604 8.26862e-07 0)
(0.016027581 -7.7703427e-07 0)
(0.016169644 7.3028365e-07 0)
(0.016036947 -6.867798e-07 0)
(0.016160841 6.4602054e-07 0)
(0.016045231 -6.0811104e-07 0)
(0.016153047 5.7265088e-07 0)
(0.016052573 -5.3969929e-07 0)
(0.01614613 5.0893632e-07 0)
(0.016059098 -4.803891e-07 0)
(0.016139974 4.538013e-07 0)
(0.016064915 -4.2917863e-07 0)
(0.016134474 4.0631498e-07 0)
(0.016070123 -3.8520273e-07 0)
(0.016129539 3.656755e-07 0)
(0.016074809 -3.4771827e-07 0)
(0.016125084 3.311964e-07 0)
(0.016079052 -3.1609155e-07 0)
(0.016121036 3.0229483e-07 0)
(0.016082925 -2.8978737e-07 0)
(0.016117324 2.7848143e-07 0)
(0.016086492 -2.6835956e-07 0)
(0.016113887 2.5935131e-07 0)
(0.016089813 -2.5144213e-07 0)
(0.016110667 2.4457522e-07 0)
(0.016092946 -2.3873458e-07 0)
(0.016107608 2.3390442e-07 0)
(0.016095945 -2.2997198e-07 0)
(0.016104653 2.2648649e-07 0)
(0.016098881 -2.3265123e-07 0)
(0.016102035 2.1509262e-07 0)
(0.017068151 0.0024919065 0)
(0.018832971 -1.7911246e-05 0)
(0.017989905 4.9091008e-06 0)
(0.018578994 1.2681939e-06 0)
(0.018063628 -2.4337273e-06 0)
(0.018546174 1.9787516e-06 0)
(0.018104517 -2.1520184e-06 0)
(0.018519563 1.9567357e-06 0)
(0.018131693 -1.8691695e-06 0)
(0.018495288 1.7406201e-06 0)
(0.018154901 -1.6377986e-06 0)
(0.018473713 1.5337313e-06 0)
(0.018175225 -1.4398949e-06 0)
(0.018454692 1.3501871e-06 0)
(0.018193094 -1.2673142e-06 0)
(0.018437942 1.1890058e-06 0)
(0.018208825 -1.1162918e-06 0)
(0.018423186 1.0478077e-06 0)
(0.018222686 -9.84136e-07 0)
(0.018410176 9.2426903e-07 0)
(0.018234912 -8.6859128e-07 0)
(0.018398693 8.1631563e-07 0)
(0.018245709 -7.6770224e-07 0)
(0.018388545 7.2212773e-07 0)
(0.01825526 -6.7976425e-07 0)
(0.018379559 6.4011614e-07 0)
(0.018263725 -6.0329194e-07 0)
(0.018371585 5.688967e-07 0)
(0.018271247 -5.3699363e-07 0)
(0.018364487 5.072672e-07 0)
(0.018277953 -4.797494e-07 0)
(0.018358147 4.5418721e-07 0)
(0.018283957 -4.3059211e-07 0)
(0.018352457 4.0876044e-07 0)
(0.018289359 -3.8869102e-07 0)
(0.018347321 3.702195e-07 0)
(0.018294251 -3.5333763e-07 0)
(0.018342653 3.3791277e-07 0)
(0.018298716 -3.2393346e-07 0)
(0.018338375 3.1129297e-07 0)
(0.018302828 -2.9997931e-07 0)
(0.018334412 2.899068e-07 0)
(0.018306658 -2.81065e-07 0)
(0.0183307 2.7338448e-07 0)
(0.01831027 -2.6685106e-07 0)
(0.018327173 2.6144609e-07 0)
(0.018313727 -2.5702017e-07 0)
(0.018323766 2.530827e-07 0)
(0.018317108 -2.6089145e-07 0)
(0.018320711 2.3975684e-07 0)
(0.019100713 0.0027026106 0)
(0.021014471 -2.3383968e-05 0)
(0.02010344 5.9917226e-06 0)
(0.020765381 1.2584932e-06 0)
(0.020181835 -2.651337e-06 0)
(0.02072737 2.1194616e-06 0)
(0.020227719 -2.3609517e-06 0)
(0.020697188 2.1383307e-06 0)
(0.020258365 -2.0471579e-06 0)
(0.0206697 1.9046735e-06 0)
(0.020284609 -1.7928761e-06 0)
(0.020645287 1.6786204e-06 0)
(0.020307599 -1.5760847e-06 0)
(0.020623767 1.4777963e-06 0)
(0.020327814 -1.3871536e-06 0)
(0.020604816 1.3013939e-06 0)
(0.02034561 -1.2218445e-06 0)
(0.020588122 1.146854e-06 0)
(0.020361292 -1.0771911e-06 0)
(0.020573404 1.0116406e-06 0)
(0.020375123 -9.5072086e-07 0)
(0.020560413 8.9348495e-07 0)
(0.020387337 -8.4029256e-07 0)
(0.020548932 7.9039548e-07 0)
(0.020398142 -7.4404009e-07 0)
(0.020538766 7.0063287e-07 0)
(0.020407718 -6.6033752e-07 0)
(0.020529744 6.2268223e-07 0)
(0.020416228 -5.87771e-07 0)
(0.020521715 5.5522778e-07 0)
(0.020423815 -5.2511466e-07 0)
(0.020514542 4.971308e-07 0)
(0.020430607 -4.7130988e-07 0)
(0.020508104 4.474103e-07 0)
(0.020436719 -4.2544729e-07 0)
(0.020502294 4.0522631e-07 0)
(0.020442253 -3.8675127e-07 0)
(0.020497013 3.6986549e-07 0)
(0.020447304 -3.5456652e-07 0)
(0.020492172 3.4072846e-07 0)
(0.020451956 -3.283461e-07 0)
(0.02048769 3.1731832e-07 0)
(0.020456289 -3.0763984e-07 0)
(0.02048349 2.9922832e-07 0)
(0.020460376 -2.9207215e-07 0)
(0.0204795 2.8614969e-07 0)
(0.020464286 -2.8127131e-07 0)
(0.020475646 2.7692331e-07 0)
(0.020468108 -2.8640329e-07 0)
(0.020472151 2.6165376e-07 0)
(0.021084255 0.00288736 0)
(0.023122551 -2.9314769e-05 0)
(0.02215146 7.024521e-06 0)
(0.02288362 1.2238955e-06 0)
(0.02223342 -2.8377614e-06 0)
(0.022840974 2.2295683e-06 0)
(0.02228407 -2.5477001e-06 0)
(0.022807261 2.2984418e-06 0)
(0.022318123 -2.2051828e-06 0)
(0.022776595 2.0498903e-06 0)
(0.022347361 -1.9303266e-06 0)
(0.022749378 1.8069562e-06 0)
(0.022372983 -1.6967572e-06 0)
(0.02272539 1.5908424e-06 0)
(0.022395514 -1.4933323e-06 0)
(0.022704266 1.4009599e-06 0)
(0.02241535 -1.315364e-06 0)
(0.022685658 1.2346017e-06 0)
(0.022432828 -1.1596377e-06 0)
(0.022669253 1.0890465e-06 0)
(0.022448244 -1.0234877e-06 0)
(0.022654773 9.6185316e-07 0)
(0.022461859 -9.0460794e-07 0)
(0.022641976 8.5087813e-07 0)
(0.022473901 -8.0098918e-07 0)
(0.022630645 7.5424918e-07 0)
(0.022484575 -7.1088098e-07 0)
(0.022620589 6.7033561e-07 0)
(0.02249406 -6.3276121e-07 0)
(0.022611639 5.9772108e-07 0)
(0.022502516 -5.6531016e-07 0)
(0.022603644 5.3517981e-07 0)
(0.022510087 -5.0738814e-07 0)
(0.022596469 4.8165575e-07 0)
(0.022516899 -4.580161e-07 0)
(0.022589992 4.3624464e-07 0)
(0.022523068 -4.1635891e-07 0)
(0.022584106 3.9817838e-07 0)
(0.022528698 -3.8171085e-07 0)
(0.02257871 3.668114e-07 0)
(0.022533883 -3.5348256e-07 0)
(0.022573714 3.416079e-07 0)
(0.022538712 -3.3118804e-07 0)
(0.022569033 3.2212776e-07 0)
(0.022543267 -3.1441861e-07 0)
(0.022564585 3.0803585e-07 0)
(0.022547626 -3.027469e-07 0)
(0.02256029 2.9803153e-07 0)
(0.022551882 -3.0917175e-07 0)
(0.022556357 2.8082515e-07 0)
(0.023019623 0.0030469163 0)
(0.025158146 -3.5596914e-05 0)
(0.024133989 7.977875e-06 0)
(0.024933378 1.1706845e-06 0)
(0.024218522 -2.9973307e-06 0)
(0.024886904 2.3107247e-06 0)
(0.024273646 -2.7125201e-06 0)
(0.024849711 2.4374808e-06 0)
(0.024311032 -2.3434653e-06 0)
(0.02481591 2.1765317e-06 0)
(0.024343215 -2.0503725e-06 0)
(0.024785931 1.9189577e-06 0)
(0.024371429 -1.8021128e-06 0)
(0.024759513 1.6895167e-06 0)
(0.02439624 -1.5860275e-06 0)
(0.024736251 1.4878716e-06 0)
(0.024418083 -1.3970067e-06 0)
(0.024715758 1.3111989e-06 0)
(0.02443733 -1.2316138e-06 0)
(0.024697692 1.156617e-06 0)
(0.024454306 -1.0870136e-06 0)
(0.024681746 1.0215352e-06 0)
(0.024469299 -9.6075589e-07 0)
(0.024667653 9.0367725e-07 0)
(0.02448256 -8.5070668e-07 0)
(0.024655175 8.01055e-07 0)
(0.024494314 -7.5500672e-07 0)
(0.024644101 7.119367e-07 0)
(0.024504759 -6.7203937e-07 0)
(0.024634244 6.3481826e-07 0)
(0.024514072 -6.0040298e-07 0)
(0.02462544 5.6839788e-07 0)
(0.024522409 -5.3888708e-07 0)
(0.024617538 5.1155403e-07 0)
(0.024529911 -4.8645175e-07 0)
(0.024610406 4.6332629e-07 0)
(0.024536705 -4.4220991e-07 0)
(0.024603924 4.2289875e-07 0)
(0.024542904 -4.0541172e-07 0)
(0.024597982 3.8958535e-07 0)
(0.024548615 -3.7543063e-07 0)
(0.024592479 3.6281616e-07 0)
(0.024553933 -3.5174903e-07 0)
(0.024587324 3.4212132e-07 0)
(0.024558949 -3.3392818e-07 0)
(0.024582427 3.2714175e-07 0)
(0.024563748 -3.2148469e-07 0)
(0.024577697 3.1644593e-07 0)
(0.024568432 -3.292023e-07 0)
(0.024573327 2.9732992e-07 0)
(0.024907349 0.0031820294 0)
(0.027122261 -4.2122065e-05 0)
(0.026050848 8.8310846e-06 0)
(0.026914524 1.1046294e-06 0)
(0.026137261 -3.1353825e-06 0)
(0.026865094 2.3650218e-06 0)
(0.026196511 -2.8557396e-06 0)
(0.026824476 2.5559333e-06 0)
(0.02623715 -2.462302e-06 0)
(0.026787591 2.2849297e-06 0)
(0.026272224 -2.1533026e-06 0)
(0.026754899 2.0149063e-06 0)
(0.02630298 -1.8924107e-06 0)
(0.026726095 1.7740648e-06 0)
(0.026330029 -1.6654682e-06 0)
(0.026700732 1.5623453e-06 0)
(0.026353844 -1.4669743e-06 0)
(0.026678389 1.3768356e-06 0)
(0.026374827 -1.2932971e-06 0)
(0.026658692 1.2145197e-06 0)
(0.026393336 -1.1414552e-06 0)
(0.026641307 1.0726789e-06 0)
(0.026409681 -1.008875e-06 0)
(0.026625941 9.4892356e-07 0)
(0.026424139 -8.933152e-07 0)
(0.026612336 8.4116611e-07 0)
(0.026436954 -7.9282352e-07 0)
(0.026600263 7.4758832e-07 0)
(0.026448342 -7.0570226e-07 0)
(0.026589517 6.666109e-07 0)
(0.026458495 -6.3047955e-07 0)
(0.026579917 5.9686697e-07 0)
(0.026467585 -5.6588421e-07 0)
(0.026571302 5.3717885e-07 0)
(0.026475764 -5.1082419e-07 0)
(0.026563526 4.8653798e-07 0)
(0.026483171 -4.643678e-07 0)
(0.026556458 4.4408741e-07 0)
(0.02648993 -4.2572736e-07 0)
(0.02654998 4.0910635e-07 0)
(0.026496156 -3.9424426e-07 0)
(0.026543981 3.8099531e-07 0)
(0.026501954 -3.6937342e-07 0)
(0.02653836 3.5925837e-07 0)
(0.026507423 -3.5064925e-07 0)
(0.026533021 3.4351499e-07 0)
(0.026512656 -3.3753275e-07 0)
(0.026527865 3.3221476e-07 0)
(0.026517758 -3.4651506e-07 0)
(0.026523063 3.1123813e-07 0)
(0.026747689 0.0032934416 0)
(0.029015954 -4.8786695e-05 0)
(0.027901726 9.5785404e-06 0)
(0.028827063 1.0305174e-06 0)
(0.02798973 -3.2570351e-06 0)
(0.028775487 2.394818e-06 0)
(0.028052726 -2.9776987e-06 0)
(0.028731497 2.6543236e-06 0)
(0.028096533 -2.5620354e-06 0)
(0.028691585 2.3754592e-06 0)
(0.028134433 -2.2394473e-06 0)
(0.028656236 2.0951215e-06 0)
(0.02816768 -1.9679457e-06 0)
(0.028625095 1.8447661e-06 0)
(0.02819692 -1.7319145e-06 0)
(0.028597676 1.6246262e-06 0)
(0.028222664 -1.5254959e-06 0)
(0.028573521 1.4317279e-06 0)
(0.028245349 -1.3448896e-06 0)
(0.028552227 1.2629451e-06 0)
(0.028265357 -1.1869909e-06 0)
(0.028533432 1.1154524e-06 0)
(0.028283027 -1.0491227e-06 0)
(0.028516821 9.867656e-07 0)
(0.028298657 -9.2895419e-07 0)
(0.028502113 8.7471409e-07 0)
(0.028312511 -8.2445509e-07 0)
(0.02848906 7.7740732e-07 0)
(0.028324822 -7.3385995e-07 0)
(0.028477442 6.9320314e-07 0)
(0.028335799 -6.5563813e-07 0)
(0.028467064 6.2068023e-07 0)
(0.028345625 -5.8846769e-07 0)
(0.02845775 5.5861396e-07 0)
(0.028354467 -5.3121293e-07 0)
(0.028449344 5.0595548e-07 0)
(0.028362475 -4.8290481e-07 0)
(0.028441703 4.6181348e-07 0)
(0.028369782 -4.4272392e-07 0)
(0.0284347 4.2543799e-07 0)
(0.028376513 -4.0998469e-07 0)
(0.028428214 3.962046e-07 0)
(0.028382781 -3.8411867e-07 0)
(0.028422138 3.7359492e-07 0)
(0.028388693 -3.6463664e-07 0)
(0.028416366 3.5720951e-07 0)
(0.02839435 -3.5094535e-07 0)
(0.028410793 3.4539217e-07 0)
(0.028399863 -3.611406e-07 0)
(0.028405564 3.2262677e-07 0)
(0.028540627 0.0033818886 0)
(0.030840241 -5.5490531e-05 0)
(0.029686309 1.0234913e-05 0)
(0.030671053 9.4887715e-07 0)
(0.029775997 -3.3674931e-06 0)
(0.030618031 2.4024042e-06 0)
(0.029842346 -3.0787562e-06 0)
(0.030570722 2.733204e-06 0)
(0.029889229 -2.6430462e-06 0)
(0.030527847 2.4485322e-06 0)
(0.029929887 -2.3091712e-06 0)
(0.030489902 2.1599552e-06 0)
(0.029965565 -2.0290433e-06 0)
(0.030456479 1.9019284e-06 0)
(0.029996946 -1.7856535e-06 0)
(0.030427051 1.6749849e-06 0)
(0.030024574 -1.5728245e-06 0)
(0.030401127 1.476114e-06 0)
(0.030048919 -1.3866142e-06 0)
(0.030378272 1.302103e-06 0)
(0.030070393 -1.2238173e-06 0)
(0.030358101 1.1500409e-06 0)
(0.030089357 -1.0816728e-06 0)
(0.030340273 1.0173671e-06 0)
(0.030106131 -9.5777744e-07 0)
(0.030324487 9.0184403e-07 0)
(0.030121 -8.5003788e-07 0)
(0.030310479 8.0152257e-07 0)
(0.030134212 -7.5663383e-07 0)
(0.03029801 7.1470979e-07 0)
(0.030145993 -6.7598712e-07 0)
(0.030286872 6.3994037e-07 0)
(0.030156539 -6.0673474e-07 0)
(0.030276875 5.759517e-07 0)
(0.030166029 -5.4770563e-07 0)
(0.030267853 5.2166234e-07 0)
(0.030174623 -4.9790056e-07 0)
(0.030259653 4.7615313e-07 0)
(0.030182466 -4.5647434e-07 0)
(0.030252136 4.3865039e-07 0)
(0.03018969 -4.2271942e-07 0)
(0.030245175 4.0850931e-07 0)
(0.030196417 -3.9604806e-07 0)
(0.030238653 3.8519264e-07 0)
(0.030202762 -3.7595068e-07 0)
(0.030232459 3.6828465e-07 0)
(0.030208833 -3.6178205e-07 0)
(0.030226479 3.5603723e-07 0)
(0.030214746 -3.7311849e-07 0)
(0.03022083 3.3157816e-07 0)
(0.030285936 0.0034480958 0)
(0.032595798 -6.2089046e-05 0)
(0.031404591 1.0791822e-05 0)
(0.032446539 8.5533706e-07 0)
(0.031496115 -3.4720087e-06 0)
(0.032392684 2.389912e-06 0)
(0.03156542 -3.1593378e-06 0)
(0.032342104 2.7931311e-06 0)
(0.031615282 -2.7057597e-06 0)
(0.032296336 2.5045936e-06 0)
(0.031658625 -2.362873e-06 0)
(0.032255861 2.2097902e-06 0)
(0.03169667 -2.0760579e-06 0)
(0.032220214 1.9458864e-06 0)
(0.031730135 -1.8269976e-06 0)
(0.032188829 1.7137157e-06 0)
(0.031759599 -1.6092353e-06 0)
(0.032161182 1.510253e-06 0)
(0.031785562 -1.4187136e-06 0)
(0.032136808 1.3322218e-06 0)
(0.031808462 -1.2521485e-06 0)
(0.032115295 1.1766461e-06 0)
(0.031828687 -1.1067145e-06 0)
(0.032096282 1.0409065e-06 0)
(0.031846576 -9.7995247e-07 0)
(0.032079447 9.2271391e-07 0)
(0.031862433 -8.697205e-07 0)
(0.032064506 8.2007437e-07 0)
(0.031876524 -7.7415613e-07 0)
(0.032051209 7.3125589e-07 0)
(0.031889087 -6.9164458e-07 0)
(0.03203933 6.5475925e-07 0)
(0.031900335 -6.2079122e-07 0)
(0.032028669 5.8929265e-07 0)
(0.031910456 -5.603978e-07 0)
(0.032019046 5.3374953e-07 0)
(0.031919621 -5.0944176e-07 0)
(0.0320103 4.8718928e-07 0)
(0.031927986 -4.6705801e-07 0)
(0.032002283 4.4881986e-07 0)
(0.03193569 -4.3252192e-07 0)
(0.03199486 4.1798047e-07 0)
(0.031942865 -4.0523044e-07 0)
(0.031987904 3.9411861e-07 0)
(0.031949631 -3.8465697e-07 0)
(0.031981298 3.7680487e-07 0)
(0.031956105 -3.701074e-07 0)
(0.031974922 3.6421373e-07 0)
(0.031962408 -3.8249663e-07 0)
(0.031968861 3.3817896e-07 0)
(0.031983186 0.0034927555 0)
(0.034282236 -6.829515e-05 0)
(0.033057542 1.1088351e-05 0)
(0.034153521 7.3233107e-07 0)
(0.033150107 -3.5755766e-06 0)
(0.03409939 2.3599555e-06 0)
(0.033221991 -3.2196851e-06 0)
(0.034045599 2.8347493e-06 0)
(0.033274734 -2.7506199e-06 0)
(0.033997013 2.5441247e-06 0)
(0.033320681 -2.4009806e-06 0)
(0.033954079 2.2450379e-06 0)
(0.033361026 -2.1093707e-06 0)
(0.033916272 1.9770003e-06 0)
(0.033396516 -1.8562832e-06 0)
(0.033882986 1.7411351e-06 0)
(0.033427764 -1.6350246e-06 0)
(0.033853664 1.5344236e-06 0)
(0.033455298 -1.4414488e-06 0)
(0.033827813 1.3535474e-06 0)
(0.033479585 -1.272215e-06 0)
(0.033804997 1.1954849e-06 0)
(0.033501034 -1.1244515e-06 0)
(0.033784832 1.0575755e-06 0)
(0.033520006 -9.9565956e-07 0)
(0.033766977 9.3749371e-07 0)
(0.033536823 -8.8366292e-07 0)
(0.033751132 8.3321374e-07 0)
(0.033551768 -7.8656916e-07 0)
(0.033737029 7.4297597e-07 0)
(0.033565092 -7.0273758e-07 0)
(0.03372443 6.6525723e-07 0)
(0.03357702 -6.3075111e-07 0)
(0.033713123 5.9874501e-07 0)
(0.033587755 -5.693922e-07 0)
(0.033702918 5.4231495e-07 0)
(0.033597475 -5.1762172e-07 0)
(0.033693642 4.9501118e-07 0)
(0.033606347 -4.745604e-07 0)
(0.033685139 4.5602851e-07 0)
(0.033614518 -4.3947125e-07 0)
(0.033677266 4.246945e-07 0)
(0.033622127 -4.1173987e-07 0)
(0.033669889 4.0044496e-07 0)
(0.033629304 -3.9082603e-07 0)
(0.033662882 3.8283946e-07 0)
(0.03363617 -3.759906e-07 0)
(0.033656121 3.6998992e-07 0)
(0.033642851 -3.8933057e-07 0)
(0.033649659 3.4251932e-07 0)
(0.033631946 0.0035166534 0)
(0.035896321 -7.4010062e-05 0)
(0.034648267 1.1088653e-05 0)
(0.035792394 5.8030484e-07 0)
(0.034738011 -3.6830529e-06 0)
(0.0357381 2.3139602e-06 0)
(0.03481209 -3.2604005e-06 0)
(0.035681163 2.8586017e-06 0)
(0.034867618 -2.7781433e-06 0)
(0.035629843 2.5676221e-06 0)
(0.034916088 -2.4239548e-06 0)
(0.035584526 2.2661341e-06 0)
(0.034958661 -2.1293882e-06 0)
(0.035544625 1.9956526e-06 0)
(0.034996113 -1.873868e-06 0)
(0.035509496 1.7575798e-06 0)
(0.035029089 -1.6505074e-06 0)
(0.035478552 1.5489223e-06 0)
(0.035058146 -1.4550977e-06 0)
(0.03545127 1.366341e-06 0)
(0.035083776 -1.2842619e-06 0)
(0.035427192 1.2067882e-06 0)
(0.035106412 -1.1351004e-06 0)
(0.035405911 1.0675783e-06 0)
(0.035126434 -1.0050906e-06 0)
(0.035387068 9.4636429e-07 0)
(0.035144181 -8.9203536e-07 0)
(0.035370345 8.4110131e-07 0)
(0.035159953 -7.9402439e-07 0)
(0.035355461 7.5001319e-07 0)
(0.035174014 -7.0940134e-07 0)
(0.035342165 6.7156237e-07 0)
(0.035186603 -6.3673567e-07 0)
(0.035330232 6.0442393e-07 0)
(0.035197931 -5.7479819e-07 0)
(0.035319462 5.4746277e-07 0)
(0.03520819 -5.2253976e-07 0)
(0.035309673 4.9971379e-07 0)
(0.035217553 -4.7907245e-07 0)
(0.035300699 4.6036373e-07 0)
(0.035226176 -4.4365156e-07 0)
(0.035292389 4.2873272e-07 0)
(0.035234207 -4.1565519e-07 0)
(0.035284604 4.0424843e-07 0)
(0.035241781 -3.9453287e-07 0)
(0.03527721 3.8646209e-07 0)
(0.035249027 -3.7950504e-07 0)
(0.035270076 3.7343803e-07 0)
(0.035256074 -3.9368276e-07 0)
(0.035263221 3.4469203e-07 0)
(0.035231512 0.0035205737 0)
(0.037433953 -7.980267e-05 0)
(0.036180107 1.1258921e-05 0)
(0.037364304 5.3982108e-07 0)
(0.036259987 -3.7748148e-06 0)
(0.037308841 2.2583997e-06 0)
(0.036335773 -3.2809068e-06 0)
(0.03724877 2.8655534e-06 0)
(0.036393969 -2.7887895e-06 0)
(0.037194797 2.5756346e-06 0)
(0.036444875 -2.4322717e-06 0)
(0.037147175 2.2735406e-06 0)
(0.036489601 -2.1365372e-06 0)
(0.037105251 2.0022467e-06 0)
(0.036528949 -1.8801289e-06 0)
(0.037068341 1.7634043e-06 0)
(0.036563594 -1.6560162e-06 0)
(0.037035828 1.5540615e-06 0)
(0.036594123 -1.4599533e-06 0)
(0.037007164 1.3708783e-06 0)
(0.036621051 -1.2885479e-06 0)
(0.036981865 1.2107991e-06 0)
(0.036644833 -1.1388898e-06 0)
(0.036959505 1.07113e-06 0)
(0.03666587 -1.0084478e-06 0)
(0.036939707 9.4951628e-07 0)
(0.036684517 -8.9501729e-07 0)
(0.036922137 8.4390645e-07 0)
(0.036701087 -7.9668149e-07 0)
(0.036906499 7.5251846e-07 0)
(0.036715862 -7.1177845e-07 0)
(0.036892529 6.738097e-07 0)
(0.036729088 -6.3887278e-07 0)
(0.036879991 6.064508e-07 0)
(0.036740991 -5.767311e-07 0)
(0.036868674 5.4930283e-07 0)
(0.03675177 -5.243006e-07 0)
(0.036858388 5.0139725e-07 0)
(0.036761607 -4.8069005e-07 0)
(0.036848959 4.6191766e-07 0)
(0.036770668 -4.4515156e-07 0)
(0.036840228 4.3018089e-07 0)
(0.036779107 -4.1705947e-07 0)
(0.036832048 4.0560991e-07 0)
(0.036787064 -3.9585651e-07 0)
(0.036824279 3.8775034e-07 0)
(0.036794677 -3.8072793e-07 0)
(0.036816785 3.7463397e-07 0)
(0.036802079 -3.9562186e-07 0)
(0.03680955 3.4479174e-07 0)
(0.036780598 0.0035052544 0)
(0.038900774 -8.5274898e-05 0)
(0.037649413 1.1333173e-05 0)
(0.038868864 5.961426e-07 0)
(0.037715908 -3.8555951e-06 0)
(0.038811538 2.193871e-06 0)
(0.037793059 -3.2819698e-06 0)
(0.038748383 2.8561482e-06 0)
(0.037853817 -2.7831478e-06 0)
(0.038691847 2.5687017e-06 0)
(0.037907067 -2.4264421e-06 0)
(0.038642002 2.2677358e-06 0)
(0.037953867 -2.1312661e-06 0)
(0.038598127 1.9972039e-06 0)
(0.037995042 -1.8754607e-06 0)
(0.038559502 1.7589795e-06 0)
(0.038031297 -1.6518983e-06 0)
(0.038525477 1.5501679e-06 0)
(0.038063244 -1.456322e-06 0)
(0.03849548 1.3674474e-06 0)
(0.038091424 -1.2853434e-06 0)
(0.038469005 1.2077722e-06 0)
(0.038116311 -1.1360588e-06 0)
(0.038445605 1.0684557e-06 0)
(0.038138325 -1.0059429e-06 0)
(0.038424887 9.4714913e-07 0)
(0.038157839 -8.9279649e-07 0)
(0.0384065 8.418063e-07 0)
(0.038175179 -7.9470753e-07 0)
(0.038390134 7.5064967e-07 0)
(0.038190641 -7.1001807e-07 0)
(0.038375514 6.7214047e-07 0)
(0.038204482 -6.3729623e-07 0)
(0.038362393 6.0495265e-07 0)
(0.038216939 -5.753116e-07 0)
(0.03835055 5.4795004e-07 0)
(0.038228219 -5.2301383e-07 0)
(0.038339785 5.0016633e-07 0)
(0.038238514 -4.7951357e-07 0)
(0.038329918 4.6078673e-07 0)
(0.038247997 -4.440641e-07 0)
(0.03832078 4.2912873e-07 0)
(0.038256828 -4.1603971e-07 0)
(0.038312219 4.0461405e-07 0)
(0.038265156 -3.9487966e-07 0)
(0.038304089 3.8678541e-07 0)
(0.038273122 -3.7973986e-07 0)
(0.038296248 3.7365691e-07 0)
(0.038280865 -3.952221e-07 0)
(0.038288645 3.429143e-07 0)
(0.038277628 0.0034714682 0)
(0.040305726 -8.9793242e-05 0)
(0.039049321 1.0868276e-05 0)
(0.040305285 6.691077e-07 0)
(0.039105605 -3.9337545e-06 0)
(0.040246104 2.1194094e-06 0)