/*--------------------------------*- C++ -*----------------------------------*\
| =========                 |                                                 |
| \\      /  F ield         | OpenFOAM: The Open Source CFD Toolbox           |
|  \\    /   O peration     | Version:  2312                                  |
|   \\  /    A nd           | Website:  www.openfoam.com                      |
|    \\/     M anipulation  |                                                 |
\*---------------------------------------------------------------------------*/
FoamFile
{
    version     2.0;
    format      ascii;
    arch        "LSB;label=32;scalar=64";
    class       volSymmTensorField;
    location    "4";
    object      sigma_0;
}
// * * * * * * * * * * * * * * * * * * * * * * * * * * * * * * * * * * * * * //

dimensions      [0 2 -2 0 0 0 0];

internalField   nonuniform List<symmTensor> 
4000
(
(-4.1141724 -1.8399646 0 -0.76759054 0 0)
(-13.153084 -0.71910264 0 -0.012543662 0 0)
(-4.2937352 -0.37939178 0 -0.0024224993 0 0)
(-4.7242365 -0.39528157 0 0.00026666176 0 0)
(-4.2617817 -0.37761381 0 -0.00020809767 0 0)
(-4.1615659 -0.37231673 0 2.4035999e-05 0 0)
(-4.1885461 -0.37399686 0 -6.2426375e-05 0 0)
(-4.0663098 -0.36802953 0 1.2254242e-05 0 0)
(-4.1259482 -0.37103625 0 -3.1812586e-05 0 0)
(-4.0538423 -0.36745908 0 2.1033151e-05 0 0)
(-4.1071867 -0.3701475 0 -2.4219308e-05 0 0)
(-4.0561657 -0.36757832 0 2.162748e-05 0 0)
(-4.1010397 -0.36985045 0 -2.1218502e-05 0 0)
(-4.0591752 -0.36772936 0 1.9894219e-05 0 0)
(-4.0979032 -0.36969454 0 -1.8944829e-05 0 0)
(-4.0615416 -0.3678493 0 1.7829149e-05 0 0)
(-4.0955735 -0.36957745 0 -1.6873506e-05 0 0)
(-4.0635519 -0.36795122 0 1.588154e-05 0 0)
(-4.0935918 -0.36947776 0 -1.4994432e-05 0 0)
(-4.0653582 -0.36804247 0 1.4116602e-05 0 0)
(-4.0918402 -0.36938972 0 -1.3311911e-05 0 0)
(-4.0669918 -0.36812481 0 1.2533549e-05 0 0)
(-4.0902742 -0.36931102 0 -1.1812428e-05 0 0)
(-4.0684648 -0.36819901 0 1.1122897e-05 0 0)
(-4.0888709 -0.36924046 0 -1.0482075e-05 0 0)
(-4.0697887 -0.36826571 0 9.8735415e-06 0 0)
(-4.0876136 -0.36917721 0 -9.3081706e-06 0 0)
(-4.070976 -0.36832553 0 8.7739732e-06 0 0)
(-4.0864878 -0.36912056 0 -8.2785728e-06 0 0)
(-4.0720399 -0.36837911 0 7.8125126e-06 0 0)
(-4.0854795 -0.36906984 0 -7.3814642e-06 0 0)
(-4.0729937 -0.3684271 0 6.9776727e-06 0 0)
(-4.084575 -0.3690244 0 -6.6055143e-06 0 0)
(-4.0738506 -0.36847013 0 6.2585424e-06 0 0)
(-4.0837611 -0.36898362 0 -5.9402064e-06 0 0)
(-4.0746235 -0.36850881 0 5.6451264e-06 0 0)
(-4.0830254 -0.36894689 0 -5.3760799e-06 0 0)
(-4.0753243 -0.36854373 0 5.1285815e-06 0 0)
(-4.0823562 -0.36891364 0 -4.9049104e-06 0 0)
(-4.0759642 -0.36857544 0 4.7013442e-06 0 0)
(-4.0817426 -0.36888334 0 -4.5198154e-06 0 0)
(-4.0765535 -0.36860445 0 4.3572604e-06 0 0)
(-4.0811747 -0.36885551 0 -4.2151929e-06 0 0)
(-4.0771024 -0.36863123 0 4.0920473e-06 0 0)
(-4.0806446 -0.36882975 0 -3.9870099e-06 0 0)
(-4.077622 -0.36865635 0 3.9007716e-06 0 0)
(-4.0801402 -0.36880559 0 -3.8480876e-06 0 0)
(-4.0780813 -0.36867863 0 3.7399979e-06 0 0)
(-4.0794886 -0.36877579 0 -3.9157978e-06 0 0)
(-4.077999 -0.368675 0 3.7557589e-06 0 0)
(-3.1474191 -1.545872 0 -0.68879416 0 0)
(-10.740541 -0.69724799 0 -0.026151726 0 0)
(-5.0646878 -0.43098786 0 -0.0071856105 0 0)
(-4.3766907 -0.37879318 0 0.00025637974 0 0)
(-3.9606996 -0.36545627 0 -0.00052444689 0 0)
(-3.8397265 -0.35769333 0 7.5772426e-07 0 0)
(-3.8768441 -0.36014707 0 -0.00011894559 0 0)
(-3.7730374 -0.35455081 0 -2.1110628e-05 0 0)
(-3.8206615 -0.35713867 0 -4.335621e-05 0 0)
(-3.7598615 -0.35384882 0 1.4193012e-05 0 0)
(-3.803501 -0.35625178 0 -2.6761594e-05 0 0)
(-3.7608424 -0.35389706 0 2.1704086e-05 0 0)
(-3.7982234 -0.35597929 0 -2.2770876e-05 0 0)
(-3.7631806 -0.35402332 0 2.1175871e-05 0 0)
(-3.7956263 -0.35583995 0 -2.0437349e-05 0 0)
(-3.7651377 -0.35413185 0 1.9179016e-05 0 0)
(-3.7936741 -0.3557326 0 -1.8240348e-05 0 0)
(-3.7668235 -0.35422605 0 1.7122967e-05 0 0)
(-3.7919973 -0.35563976 0 -1.6199e-05 0 0)
(-3.7683445 -0.35431097 0 1.5228087e-05 0 0)
(-3.7905136 -0.35555749 0 -1.4369618e-05 0 0)
(-3.7697207 -0.35438774 0 1.3519063e-05 0 0)
(-3.7891891 -0.35548399 0 -1.2742836e-05 0 0)
(-3.7709602 -0.35445687 0 1.1993998e-05 0 0)
(-3.7880047 -0.35541821 0 -1.1302159e-05 0 0)
(-3.7720725 -0.35451889 0 1.0643392e-05 0 0)
(-3.7869457 -0.35535938 0 -1.0032643e-05 0 0)
(-3.7730684 -0.3545744 0 9.4553998e-06 0 0)
(-3.785999 -0.35530679 0 -8.9203554e-06 0 0)
(-3.7739596 -0.35462404 0 8.4173259e-06 0 0)
(-3.7851522 -0.35525979 0 -7.9520056e-06 0 0)
(-3.7747579 -0.35466842 0 7.516531e-06 0 0)
(-3.7843931 -0.35521775 0 -7.1149873e-06 0 0)
(-3.7754748 -0.35470818 0 6.7410387e-06 0 0)
(-3.7837104 -0.35518004 0 -6.3977569e-06 0 0)
(-3.7761213 -0.35474389 0 6.0799485e-06 0 0)
(-3.7830933 -0.3551461 0 -5.7900336e-06 0 0)
(-3.7767077 -0.35477613 0 5.5237263e-06 0 0)
(-3.782532 -0.35511538 0 -5.2830026e-06 0 0)
(-3.7772434 -0.35480539 0 5.0643366e-06 0 0)
(-3.7820171 -0.3550874 0 -4.8694733e-06 0 0)
(-3.7777371 -0.35483217 0 4.6954715e-06 0 0)
(-3.7815401 -0.35506168 0 -4.5436856e-06 0 0)
(-3.7781974 -0.35485688 0 4.4139209e-06 0 0)
(-3.7810943 -0.35503787 0 -4.301096e-06 0 0)
(-3.7786346 -0.35488009 0 4.2155061e-06 0 0)
(-3.7806741 -0.35501584 0 -4.1736766e-06 0 0)
(-3.7790404 -0.35490199 0 3.9946083e-06 0 0)
(-3.7801745 -0.35499242 0 -4.5103973e-06 0 0)
(-3.7790695 -0.35490392 0 3.9517405e-06 0 0)
(-3.2406485 -1.5716222 0 -0.68461494 0 0)
(-8.9606944 -0.64396871 0 -0.031224444 0 0)
(-5.0264987 -0.44496065 0 -0.010972906 0 0)
(-4.2571598 -0.37337586 0 2.7936545e-06 0 0)
(-3.7715293 -0.35735127 0 -0.00078448651 0 0)
(-3.6342299 -0.34798081 0 -1.8461193e-05 0 0)
(-3.6703612 -0.35064171 0 -0.00015305194 0 0)
(-3.5805344 -0.34544234 0 -4.9747734e-05 0 0)
(-3.6227689 -0.34782732 0 -4.9221638e-05 0 0)
(-3.5687992 -0.34472622 0 6.1980646e-06 0 0)
(-3.6070977 -0.3469605 0 -2.6270429e-05 0 0)
(-3.5692718 -0.3447405 0 1.9384172e-05 0 0)
(-3.6022982 -0.34670145 0 -2.162523e-05 0 0)
(-3.5712554 -0.34485361 0 1.9954434e-05 0 0)
(-3.5999972 -0.34657173 0 -1.9452928e-05 0 0)
(-3.5729836 -0.3449556 0 1.8208433e-05 0 0)
(-3.59827 -0.34647074 0 -1.7385247e-05 0 0)
(-3.5744829 -0.34504497 0 1.6279617e-05 0 0)
(-3.5967802 -0.34638265 0 -1.5429942e-05 0 0)
(-3.5758373 -0.34512574 0 1.4484439e-05 0 0)
(-3.595461 -0.34630443 0 -1.3677823e-05 0 0)
(-3.5770629 -0.34519881 0 1.285864e-05 0 0)
(-3.5942844 -0.34623458 0 -1.2123001e-05 0 0)
(-3.5781658 -0.34526456 0 1.1405815e-05 0 0)
(-3.5932335 -0.34617214 0 -1.0748063e-05 0 0)
(-3.5791545 -0.34532349 0 1.0118886e-05 0 0)
(-3.5922951 -0.34611636 0 -9.5376551e-06 0 0)
(-3.5800387 -0.34537617 0 8.9871392e-06 0 0)
(-3.5914571 -0.34606656 0 -8.4778509e-06 0 0)
(-3.5808292 -0.34542322 0 7.9985098e-06 0 0)
(-3.5907083 -0.3460221 0 -7.5556141e-06 0 0)
(-3.5815367 -0.34546525 0 7.1408409e-06 0 0)
(-3.5900374 -0.34598235 0 -6.7586849e-06 0 0)
(-3.5821717 -0.34550288 0 6.402623e-06 0 0)
(-3.5894344 -0.34594672 0 -6.0759515e-06 0 0)
(-3.582744 -0.34553668 0 5.7734196e-06 0 0)
(-3.5888895 -0.34591465 0 -5.4975947e-06 0 0)
(-3.5832629 -0.34556718 0 5.2441855e-06 0 0)
(-3.5883938 -0.34588561 0 -5.0152855e-06 0 0)
(-3.5837369 -0.34559488 0 4.8073919e-06 0 0)
(-3.5879391 -0.34585915 0 -4.6223921e-06 0 0)
(-3.5841738 -0.34562022 0 4.4573099e-06 0 0)
(-3.5875178 -0.34583483 0 -4.3137445e-06 0 0)
(-3.5845809 -0.34564363 0 4.1920506e-06 0 0)
(-3.5871237 -0.34581227 0 -4.0847383e-06 0 0)
(-3.5849678 -0.34566561 0 4.0102099e-06 0 0)
(-3.5867531 -0.34579147 0 -3.9756892e-06 0 0)
(-3.5853324 -0.34568682 0 3.7780838e-06 0 0)
(-3.5863238 -0.34577092 0 -4.4763121e-06 0 0)
(-3.5854053 -0.34568993 0 4.0140659e-06 0 0)
(-2.9990357 -1.4443332 0 -0.60564101 0 0)
(-7.8937616 -0.60924829 0 -0.034350068 0 0)
(-4.9143818 -0.45460246 0 -0.014633019 0 0)
(-4.1448234 -0.36804543 0 -0.0002139271 0 0)
(-3.6037425 -0.35002339 0 -0.001111623 0 0)
(-3.4396809 -0.33846476 0 -4.4425295e-05 0 0)
(-3.4707487 -0.34114709 0 -0.00018812178 0 0)
(-3.3922152 -0.3363183 0 -8.2188109e-05 0 0)
(-3.4306083 -0.33851913 0 -5.289866e-05 0 0)
(-3.3822664 -0.33560224 0 -4.4168875e-06 0 0)
(-3.4163766 -0.33767512 0 -2.376058e-05 0 0)
(-3.3823918 -0.33558341 0 1.510484e-05 0 0)
(-3.4119528 -0.33742719 0 -1.8646433e-05 0 0)
(-3.3840755 -0.33568351 0 1.7030078e-05 0 0)
(-3.4098719 -0.33730583 0 -1.6846964e-05 0 0)
(-3.3856165 -0.33577928 0 1.5715129e-05 0 0)
(-3.4083176 -0.33721063 0 -1.50897e-05 0 0)
(-3.3869665 -0.33586403 0 1.4076546e-05 0 0)
(-3.4069734 -0.33712697 0 -1.3377667e-05 0 0)
(-3.3881866 -0.33594072 0 1.2529984e-05 0 0)
(-3.4057828 -0.33705262 0 -1.1843751e-05 0 0)
(-3.3892896 -0.33601005 0 1.1121514e-05 0 0)
(-3.4047223 -0.33698629 0 -1.0487633e-05 0 0)
(-3.3902811 -0.33607238 0 9.8609417e-06 0 0)
(-3.4037767 -0.33692709 0 -9.2916943e-06 0 0)
(-3.3911687 -0.33612817 0 8.7443917e-06 0 0)
(-3.4029335 -0.33687429 0 -8.2407981e-06 0 0)
(-3.3919615 -0.33617797 0 7.7630523e-06 0 0)
(-3.4021815 -0.3368272 0 -7.3217574e-06 0 0)
(-3.3926696 -0.33622241 0 6.9063134e-06 0 0)
(-3.4015101 -0.3367852 0 -6.5226204e-06 0 0)
(-3.3933029 -0.33626209 0 6.1633647e-06 0 0)
(-3.4009092 -0.33674766 0 -5.8323395e-06 0 0)
(-3.3938708 -0.3362976 0 5.5240318e-06 0 0)
(-3.4003694 -0.33671402 0 -5.2410801e-06 0 0)
(-3.3943824 -0.33632949 0 4.979151e-06 0 0)
(-3.3998819 -0.33668374 0 -4.74025e-06 0 0)
(-3.394846 -0.33635827 0 4.5208753e-06 0 0)
(-3.3994388 -0.33665633 0 -4.3226544e-06 0 0)
(-3.3952693 -0.33638442 0 4.1427512e-06 0 0)
(-3.3990326 -0.33663133 0 -3.9826992e-06 0 0)
(-3.3956591 -0.33640836 0 3.8399949e-06 0 0)
(-3.3986565 -0.33660834 0 -3.7160307e-06 0 0)
(-3.3960222 -0.33643048 0 3.6120707e-06 0 0)
(-3.3983049 -0.33658698 0 -3.5176593e-06 0 0)
(-3.396367 -0.33645127 0 3.4595356e-06 0 0)
(-3.3979752 -0.33656734 0 -3.4351743e-06 0 0)
(-3.3966967 -0.33647183 0 3.2097569e-06 0 0)
(-3.3976066 -0.33654947 0 -4.1047341e-06 0 0)
(-3.3968088 -0.3364764 0 3.6519774e-06 0 0)
(-2.8121386 -1.3434575 0 -0.5498529 0 0)
(-6.9187607 -0.57729304 0 -0.036224951 0 0)
(-4.7254206 -0.46036421 0 -0.018054752 0 0)
(-4.0211486 -0.3628735 0 -0.0005066996 0 0)
(-3.447639 -0.34301574 0 -0.0014711973 0 0)
(-3.2554325 -0.32910111 0 -6.9536756e-05 0 0)
(-3.2769958 -0.33159322 0 -0.00021814281 0 0)
(-3.2080108 -0.32712677 0 -0.00010905993 0 0)
(-3.2436183 -0.32919647 0 -5.5270251e-05 0 0)
(-3.2002712 -0.32645895 0 -1.3859249e-05 0 0)
(-3.2310122 -0.32839437 0 -2.1346186e-05 0 0)
(-3.2002999 -0.32641868 0 1.1220675e-05 0 0)
(-3.2269599 -0.32815794 0 -1.5827205e-05 0 0)
(-3.2017522 -0.32650826 0 1.4317656e-05 0 0)
(-3.2250617 -0.32804386 0 -1.4379532e-05 0 0)
(-3.2031368 -0.32659876 0 1.3371149e-05 0 0)
(-3.2236516 -0.32795379 0 -1.2917054e-05 0 0)
(-3.2043623 -0.32667948 0 1.1995797e-05 0 0)
(-3.2224312 -0.32787418 0 -1.1436313e-05 0 0)
(-3.2054698 -0.32675251 0 1.0682541e-05 0 0)
(-3.2213505 -0.3278034 0 -1.0109789e-05 0 0)
(-3.2064694 -0.32681846 0 9.4799777e-06 0 0)
(-3.2203892 -0.32774034 0 -8.9425666e-06 0 0)
(-3.2073666 -0.32687765 0 8.4019231e-06 0 0)
(-3.2195335 -0.32768416 0 -7.9166844e-06 0 0)
(-3.2081686 -0.32693054 0 7.4470683e-06 0 0)
(-3.2187717 -0.32763411 0 -7.0171368e-06 0 0)
(-3.2088842 -0.32697771 0 6.6082984e-06 0 0)
(-3.2180931 -0.32758955 0 -6.2314498e-06 0 0)
(-3.2095226 -0.32701976 0 5.8763981e-06 0 0)
(-3.2174878 -0.32754982 0 -5.5487547e-06 0 0)
(-3.2100931 -0.32705727 0 5.2418852e-06 0 0)
(-3.2169465 -0.32751434 0 -4.9592139e-06 0 0)
(-3.2106043 -0.32709083 0 4.6958992e-06 0 0)
(-3.2164606 -0.32748255 0 -4.4542429e-06 0 0)
(-3.2110646 -0.32712097 0 4.2305086e-06 0 0)
(-3.2160222 -0.32745394 0 -4.0264285e-06 0 0)
(-3.2114813 -0.32714817 0 3.8389979e-06 0 0)
(-3.215624 -0.32742803 0 -3.6696252e-06 0 0)
(-3.2118614 -0.32717289 0 3.5158881e-06 0 0)
(-3.2152593 -0.3274044 0 -3.3791483e-06 0 0)
(-3.2122112 -0.32719552 0 3.2571656e-06 0 0)
(-3.214922 -0.32738266 0 -3.1512763e-06 0 0)
(-3.2125366 -0.32721644 0 3.0632346e-06 0 0)
(-3.2146068 -0.32736244 0 -2.9802634e-06 0 0)
(-3.2128453 -0.32723609 0 2.9362897e-06 0 0)
(-3.2143122 -0.32734387 0 -2.9166185e-06 0 0)
(-3.2131432 -0.32725591 0 2.6699915e-06 0 0)
(-3.2139928 -0.32732811 0 -3.7047941e-06 0 0)
(-3.2132805 -0.32726161 0 3.2664828e-06 0 0)
(-2.8051683 -1.3073085 0 -0.51842405 0 0)
(-5.9083055 -0.53772839 0 -0.037434603 0 0)
(-4.4272938 -0.45548828 0 -0.020037366 0 0)
(-3.8392157 -0.35597324 0 -0.00096459835 0 0)
(-3.2984418 -0.33662278 0 -0.0019304466 0 0)
(-3.0842147 -0.32013415 0 -0.00011223638 0 0)
(-3.0920999 -0.32215276 0 -0.00025151059 0 0)
(-3.0288861 -0.31790434 0 -0.00013142596 0 0)
(-3.062039 -0.31987029 0 -5.696405e-05 0 0)
(-3.0231053 -0.31730465 0 -2.1786623e-05 0 0)
(-3.0509372 -0.31911756 0 -1.9418374e-05 0 0)
(-3.0231265 -0.3172498 0 8.0431891e-06 0 0)
(-3.0472346 -0.31889228 0 -1.3509749e-05 0 0)
(-3.0243856 -0.31733024 0 1.2124171e-05 0 0)
(-3.0454925 -0.31878454 0 -1.2352899e-05 0 0)
(-3.0256305 -0.31741593 0 1.1459832e-05 0 0)
(-3.0442071 -0.31869914 0 -1.1136848e-05 0 0)
(-3.026745 -0.31749293 0 1.0291841e-05 0 0)
(-3.0430961 -0.31862332 0 -9.8462113e-06 0 0)
(-3.0277524 -0.3175625 0 9.1689531e-06 0 0)
(-3.0421132 -0.31855593 0 -8.6897734e-06 0 0)
(-3.0286602 -0.31762523 0 8.1357711e-06 0 0)
(-3.0412404 -0.31849599 0 -7.6777721e-06 0 0)
(-3.0294735 -0.31768142 0 7.2079657e-06 0 0)
(-3.0404646 -0.31844268 0 -6.7917088e-06 0 0)
(-3.0301995 -0.31773157 0 6.3860784e-06 0 0)
(-3.0397749 -0.31839526 0 -6.0165088e-06 0 0)
(-3.0308465 -0.31777623 0 5.6643681e-06 0 0)
(-3.0391613 -0.31835308 0 -5.340241e-06 0 0)
(-3.0314233 -0.317816 0 5.0348125e-06 0 0)
(-3.0386145 -0.31831551 0 -4.7529575e-06 0 0)
(-3.0319383 -0.31785147 0 4.4890727e-06 0 0)
(-3.0381258 -0.31828197 0 -4.24586e-06 0 0)
(-3.0323995 -0.31788319 0 4.01942e-06 0 0)
(-3.0376875 -0.31825192 0 -3.8114301e-06 0 0)
(-3.0328144 -0.31791167 0 3.6189643e-06 0 0)
(-3.0372923 -0.31822488 0 -3.4432426e-06 0 0)
(-3.0331898 -0.31793738 0 3.2819298e-06 0 0)
(-3.0369336 -0.3182004 0 -3.1360139e-06 0 0)
(-3.0335319 -0.31796073 0 3.0036242e-06 0 0)
(-3.0366055 -0.31817807 0 -2.8857774e-06 0 0)
(-3.0338465 -0.31798212 0 2.7806125e-06 0 0)
(-3.0363022 -0.31815752 0 -2.6892738e-06 0 0)
(-3.0341388 -0.31800189 0 2.6139237e-06 0 0)
(-3.0360191 -0.31813839 0 -2.5399009e-06 0 0)
(-3.0344156 -0.31802045 0 2.5071876e-06 0 0)
(-3.0357552 -0.31812084 0 -2.4888086e-06 0 0)
(-3.034685 -0.31803948 0 2.2252327e-06 0 0)
(-3.035478 -0.31810685 0 -3.3563318e-06 0 0)
(-3.0348384 -0.31804618 0 2.9211124e-06 0 0)
(-2.7784706 -1.2464729 0 -0.4723212 0 0)
(-4.9649468 -0.51496864 0 -0.041442104 0 0)
(-4.1731196 -0.45562099 0 -0.022059107 0 0)
(-3.5801801 -0.34693279 0 -0.0018681368 0 0)
(-3.1084892 -0.32855911 0 -0.0023905501 0 0)
(-2.9093132 -0.31089102 0 -0.00014880932 0 0)
(-2.9105022 -0.31260422 0 -0.00028019929 0 0)
(-2.8542258 -0.30863968 0 -0.00014724582 0 0)
(-2.8853618 -0.31052413 0 -5.7884125e-05 0 0)
(-2.8506469 -0.30813519 0 -2.8335577e-05 0 0)
(-2.876014 -0.30984013 0 -1.7796494e-05 0 0)
(-2.8508687 -0.3080768 0 5.384128e-06 0 0)
(-2.8727162 -0.3096283 0 -1.1539246e-05 0 0)
(-2.8520003 -0.30815032 0 1.0298655e-05 0 0)
(-2.8711271 -0.3095267 0 -1.0632719e-05 0 0)
(-2.8531255 -0.30823168 0 9.8545711e-06 0 0)
(-2.869955 -0.30944574 0 -9.6313315e-06 0 0)
(-2.8541402 -0.30830513 0 8.8540991e-06 0 0)
(-2.8689431 -0.30937362 0 -8.5035378e-06 0 0)
(-2.8550571 -0.30837136 0 7.8912518e-06 0 0)
(-2.8680491 -0.30930954 0 -7.4916154e-06 0 0)
(-2.8558817 -0.30843094 0 7.0017615e-06 0 0)
(-2.8672564 -0.30925265 0 -6.6112892e-06 0 0)
(-2.8566192 -0.30848422 0 6.2014601e-06 0 0)
(-2.8665529 -0.30920213 0 -5.8437135e-06 0 0)
(-2.8572767 -0.3085317 0 5.4922355e-06 0 0)
(-2.8659283 -0.30915726 0 -5.1737462e-06 0 0)
(-2.857862 -0.30857394 0 4.8695352e-06 0 0)
(-2.8653731 -0.30911738 0 -4.5899426e-06 0 0)
(-2.8583834 -0.30861153 0 4.3264134e-06 0 0)
(-2.8648788 -0.30908188 0 -4.0831859e-06 0 0)
(-2.8588486 -0.30864503 0 3.8555593e-06 0 0)
(-2.8644373 -0.3090502 0 -3.6456055e-06 0 0)
(-2.859265 -0.30867499 0 3.4502478e-06 0 0)
(-2.8640416 -0.30902182 0 -3.2706172e-06 0 0)
(-2.8596394 -0.30870188 0 3.1044956e-06 0 0)
(-2.863685 -0.30899629 0 -2.9526524e-06 0 0)
(-2.8599779 -0.30872615 0 2.813333e-06 0 0)
(-2.8633617 -0.30897318 0 -2.6871569e-06 0 0)
(-2.8602861 -0.30874819 0 2.5727308e-06 0 0)
(-2.863066 -0.3089521 0 -2.4707609e-06 0 0)
(-2.8605693 -0.30876839 0 2.3797159e-06 0 0)
(-2.8627932 -0.30893269 0 -2.3005862e-06 0 0)
(-2.8608321 -0.30878705 0 2.2357629e-06 0 0)
(-2.8625386 -0.30891462 0 -2.1692542e-06 0 0)
(-2.8610806 -0.30880456 0 2.1459092e-06 0 0)
(-2.8623018 -0.30889804 0 -2.1271393e-06 0 0)
(-2.8613241 -0.30882276 0 1.8519814e-06 0 0)
(-2.8620608 -0.30888554 0 -3.0427202e-06 0 0)
(-2.8614867 -0.30883029 0 2.6095131e-06 0 0)
(-2.7431475 -1.1699862 0 -0.42322097 0 0)
(-3.9791496 -0.47646572 0 -0.043065812 0 0)
(-3.8237182 -0.43807005 0 -0.020850116 0 0)
(-3.3463645 -0.34592524 0 -0.0044775495 0 0)
(-2.9494074 -0.32256388 0 -0.0030589718 0 0)
(-2.7482209 -0.30217194 0 -0.00023488822 0 0)
(-2.7397107 -0.30330733 0 -0.00032153307 0 0)
(-2.6851714 -0.29936262 0 -0.00016079719 0 0)
(-2.7143048 -0.30118126 0 -5.7806222e-05 0 0)
(-2.6832049 -0.29895798 0 -3.3609042e-05 0 0)
(-2.7063359 -0.3005645 0 -1.6264957e-05 0 0)
(-2.6835932 -0.29890137 0 3.0960453e-06 0 0)
(-2.7034035 -0.30036614 0 -9.787863e-06 0 0)
(-2.6846193 -0.29896907 0 8.7097112e-06 0 0)
(-2.7019533 -0.30027021 0 -9.1084342e-06 0 0)
(-2.6856368 -0.29904628 0 8.4460119e-06 0 0)
(-2.700883 -0.30019346 0 -8.3010926e-06 0 0)
(-2.6865601 -0.29911626 0 7.5879222e-06 0 0)
(-2.6999613 -0.30012495 0 -7.3197125e-06 0 0)
(-2.6873944 -0.29917922 0 6.7657941e-06 0 0)
(-2.6991483 -0.30006412 0 -6.4365665e-06 0 0)
(-2.6881432 -0.29923572 0 6.0036305e-06 0 0)
(-2.6984285 -0.30001021 0 -5.6730599e-06 0 0)
(-2.6888119 -0.29928615 0 5.31628e-06 0 0)
(-2.6977908 -0.29996241 0 -5.0103293e-06 0 0)
(-2.6894073 -0.29933104 0 4.7066605e-06 0 0)
(-2.6972251 -0.29992001 0 -4.4332866e-06 0 0)
(-2.6899369 -0.29937093 0 4.1713227e-06 0 0)
(-2.6967227 -0.29988235 0 -3.9309959e-06 0 0)
(-2.6904083 -0.29940642 0 3.7043545e-06 0 0)
(-2.6962757 -0.29984884 0 -3.4951431e-06 0 0)
(-2.6908286 -0.29943803 0 3.2994111e-06 0 0)
(-2.6958767 -0.29981895 0 -3.1187258e-06 0 0)
(-2.6912047 -0.29946629 0 2.9506979e-06 0 0)
(-2.6955193 -0.29979219 0 -2.7960151e-06 0 0)
(-2.6915426 -0.29949165 0 2.6530524e-06 0 0)
(-2.6951975 -0.29976811 0 -2.5222114e-06 0 0)
(-2.691848 -0.29951454 0 2.4022245e-06 0 0)
(-2.6949058 -0.29974631 0 -2.2934084e-06 0 0)
(-2.6921259 -0.29953533 0 2.194769e-06 0 0)
(-2.6946394 -0.29972643 0 -2.1067546e-06 0 0)
(-2.6923809 -0.29955437 0 2.0281094e-06 0 0)
(-2.6943937 -0.29970813 0 -1.959713e-06 0 0)
(-2.6926174 -0.29957197 0 1.9040391e-06 0 0)
(-2.6941647 -0.29969108 0 -1.8442739e-06 0 0)
(-2.6928405 -0.29958847 0 1.8289588e-06 0 0)
(-2.6939521 -0.29967542 0 -1.8091633e-06 0 0)
(-2.6930605 -0.29960581 0 1.5272554e-06 0 0)
(-2.6937425 -0.29966419 0 -2.747973e-06 0 0)
(-2.6932274 -0.29961402 0 2.3211909e-06 0 0)
(-2.7866171 -1.1559651 0 -0.40491827 0 0)
(-3.3363156 -0.47068902 0 -0.050828525 0 0)
(-3.5102413 -0.41849681 0 -0.01919016 0 0)
(-3.0571558 -0.33788794 0 -0.0063445 0 0)
(-2.7643754 -0.31379913 0 -0.003358665 0 0)
(-2.5784914 -0.29273692 0 -0.00029204914 0 0)
(-2.5685837 -0.29372249 0 -0.00034896637 0 0)
(-2.5209557 -0.29007479 0 -0.00016763417 0 0)
(-2.5480105 -0.29181551 0 -5.7100649e-05 0 0)
(-2.5205238 -0.28976631 0 -3.7662915e-05 0 0)
(-2.5417435 -0.29128605 0 -1.4775362e-05 0 0)
(-2.5212498 -0.2897216 0 1.1189148e-06 0 0)
(-2.5392491 -0.29110463 0 -8.1990739e-06 0 0)
(-2.5222386 -0.289786 0 7.3068557e-06 0 0)
(-2.5379516 -0.29101482 0 -7.7345391e-06 0 0)
(-2.5231709 -0.28985961 0 7.1914095e-06 0 0)
(-2.5369799 -0.29094228 0 -7.1064632e-06 0 0)
(-2.524013 -0.28992627 0 6.4562162e-06 0 0)
(-2.5361419 -0.29087733 0 -6.2596038e-06 0 0)
(-2.5247721 -0.28998603 0 5.7596477e-06 0 0)
(-2.5354033 -0.2908197 0 -5.493407e-06 0 0)
(-2.5254519 -0.29003952 0 5.1119703e-06 0 0)
(-2.5347503 -0.2907687 0 -4.8352585e-06 0 0)
(-2.5260579 -0.2900872 0 4.52616e-06 0 0)
(-2.5341723 -0.29072354 0 -4.2667257e-06 0 0)
(-2.5265969 -0.29012957 0 4.0059007e-06 0 0)
(-2.5336601 -0.29068352 0 -3.772962e-06 0 0)
(-2.5270759 -0.29016721 0 3.5487867e-06 0 0)
(-2.5332056 -0.290648 0 -3.3435964e-06 0 0)
(-2.5275021 -0.29020066 0 3.1499099e-06 0 0)
(-2.5328014 -0.29061641 0 -2.9711057e-06 0 0)
(-2.527882 -0.29023047 0 2.8038488e-06 0 0)
(-2.5324409 -0.29058823 0 -2.6493127e-06 0 0)
(-2.5282217 -0.2902571 0 2.5056769e-06 0 0)
(-2.532118 -0.29056301 0 -2.3732778e-06 0 0)
(-2.5285267 -0.29028099 0 2.2509843e-06 0 0)
(-2.5318275 -0.29054032 0 -2.138903e-06 0 0)
(-2.5288022 -0.29030255 0 2.0361699e-06 0 0)
(-2.5315644 -0.29051979 0 -1.9428598e-06 0 0)
(-2.5290527 -0.29032214 0 1.85831e-06 0 0)
(-2.5313244 -0.29050106 0 -1.7827545e-06 0 0)
(-2.5292824 -0.29034008 0 1.7151717e-06 0 0)
(-2.5311031 -0.29048383 0 -1.6563616e-06 0 0)
(-2.5294951 -0.29035665 0 1.608768e-06 0 0)
(-2.530897 -0.29046775 0 -1.5551982e-06 0 0)
(-2.5296955 -0.29037217 0 1.5467517e-06 0 0)
(-2.530706 -0.29045299 0 -1.5257429e-06 0 0)
(-2.5298941 -0.29038864 0 1.2412765e-06 0 0)
(-2.5305239 -0.29044285 0 -2.4670718e-06 0 0)
(-2.5300616 -0.2903974 0 2.0541414e-06 0 0)
(-2.8654395 -1.058664 0 -0.3346198 0 0)
(-2.8606853 -0.42203066 0 -0.043608856 0 0)
(-3.1836804 -0.40904592 0 -0.022530987 0 0)
(-2.7639444 -0.32925891 0 -0.0084851841 0 0)
(-2.5959251 -0.30515096 0 -0.0034832773 0 0)
(-2.4248363 -0.28405666 0 -0.00044114457 0 0)
(-2.4092172 -0.28444516 0 -0.00039037589 0 0)
(-2.3626146 -0.28077953 0 -0.0001716013 0 0)
(-2.387549 -0.28245919 0 -5.4126691e-05 0 0)
(-2.3630102 -0.28056802 0 -3.9967081e-05 0 0)
(-2.3824172 -0.282009 0 -1.2975347e-05 0 0)
(-2.3639368 -0.28053948 0 -4.8399303e-07 0 0)
(-2.3802794 -0.28184457 0 -6.7148493e-06 0 0)
(-2.3648851 -0.28060159 0 6.0720424e-06 0 0)
(-2.3791198 -0.28176073 0 -6.4893255e-06 0 0)
(-2.3657398 -0.28067176 0 6.0695304e-06 0 0)
(-2.3782389 -0.28169226 0 -6.029795e-06 0 0)
(-2.3665073 -0.28073515 0 5.441002e-06 0 0)
(-2.3774779 -0.28163079 0 -5.3070048e-06 0 0)
(-2.3671973 -0.28079178 0 4.8571126e-06 0 0)
(-2.3768077 -0.2815763 0 -4.6474115e-06 0 0)
(-2.3678138 -0.28084234 0 4.3127567e-06 0 0)
(-2.3762158 -0.28152813 0 -4.0846032e-06 0 0)
(-2.3683626 -0.28088734 0 3.8185058e-06 0 0)
(-2.3756924 -0.28148552 0 -3.6009615e-06 0 0)
(-2.3688503 -0.28092729 0 3.3786528e-06 0 0)
(-2.3752289 -0.28144779 0 -3.1820605e-06 0 0)
(-2.3692835 -0.28096276 0 2.9917944e-06 0 0)
(-2.3748178 -0.28141432 0 -2.8181453e-06 0 0)
(-2.3696686 -0.28099428 0 2.6540007e-06 0 0)
(-2.3744525 -0.28138457 0 -2.5024696e-06 0 0)
(-2.3700118 -0.28102234 0 2.3607255e-06 0 0)
(-2.3741268 -0.28135804 0 -2.2296362e-06 0 0)
(-2.3703185 -0.28104741 0 2.1078529e-06 0 0)
(-2.3738353 -0.2813343 0 -1.9954335e-06 0 0)
(-2.3705938 -0.28106991 0 1.891659e-06 0 0)
(-2.3735731 -0.28131294 0 -1.7963992e-06 0 0)
(-2.3708422 -0.2810902 0 1.7091282e-06 0 0)
(-2.3733359 -0.28129361 0 -1.6297242e-06 0 0)
(-2.371068 -0.28110863 0 1.5578019e-06 0 0)
(-2.3731196 -0.28127599 0 -1.4934174e-06 0 0)
(-2.3712748 -0.28112551 0 1.4357503e-06 0 0)
(-2.3729205 -0.28125978 0 -1.3855387e-06 0 0)
(-2.3714661 -0.2811411 0 1.3451167e-06 0 0)
(-2.3727351 -0.28124465 0 -1.297292e-06 0 0)
(-2.3716459 -0.28115568 0 1.2946456e-06 0 0)
(-2.3725635 -0.28123074 0 -1.2725209e-06 0 0)
(-2.371825 -0.28117128 0 9.8910079e-07 0 0)
(-2.3724053 -0.28122153 0 -2.1989028e-06 0 0)
(-2.3719906 -0.28118046 0 1.8084391e-06 0 0)
(-2.9661277 -1.0456024 0 -0.31502459 0 0)
(-2.5602374 -0.41768664 0 -0.047304708 0 0)
(-2.9143142 -0.39481129 0 -0.02269813 0 0)
(-2.526242 -0.31828631 0 -0.0091462371 0 0)
(-2.4270812 -0.29463301 0 -0.0032093249 0 0)
(-2.2698242 -0.27485421 0 -0.0005498309 0 0)
(-2.2523421 -0.27492733 0 -0.00040398999 0 0)
(-2.2096358 -0.27146852 0 -0.00016472969 0 0)
(-2.2322251 -0.27308514 0 -4.8584365e-05 0 0)
(-2.2104824 -0.27135742 0 -4.0335619e-05 0 0)
(-2.2282437 -0.27272922 0 -1.0735618e-05 0 0)
(-2.2116196 -0.27135332 0 -1.6825641e-06 0 0)
(-2.2264608 -0.27258484 0 -5.2829391e-06 0 0)
(-2.2125538 -0.27141529 0 4.9993584e-06 0 0)
(-2.2254428 -0.2725076 0 -5.3491274e-06 0 0)
(-2.2133465 -0.27148255 0 5.0664365e-06 0 0)
(-2.2246509 -0.27244332 0 -5.0548309e-06 0 0)
(-2.2140481 -0.27154285 0 4.5283512e-06 0 0)
(-2.2239627 -0.27238533 0 -4.4480577e-06 0 0)
(-2.2146754 -0.27159645 0 4.0453581e-06 0 0)
(-2.223356 -0.2723339 0 -3.8862083e-06 0 0)
(-2.2152342 -0.27164419 0 3.5943212e-06 0 0)
(-2.2228202 -0.27228848 0 -3.4099661e-06 0 0)
(-2.2157308 -0.2716866 0 3.1827776e-06 0 0)
(-2.2223467 -0.27224834 0 -3.0030326e-06 0 0)
(-2.2161716 -0.27172423 0 2.8154409e-06 0 0)
(-2.2219276 -0.27221281 0 -2.6516061e-06 0 0)
(-2.216563 -0.27175761 0 2.4918511e-06 0 0)
(-2.2215561 -0.27218131 0 -2.3466007e-06 0 0)
(-2.2169109 -0.27178727 0 2.2090164e-06 0 0)
(-2.2212261 -0.27215331 0 -2.0820285e-06 0 0)
(-2.2172207 -0.27181367 0 1.9632173e-06 0 0)
(-2.220932 -0.27212835 0 -1.8532261e-06 0 0)
(-2.2174975 -0.27183726 0 1.7510871e-06 0 0)
(-2.2206689 -0.27210602 0 -1.6566483e-06 0 0)
(-2.2177458 -0.27185841 0 1.5695271e-06 0 0)
(-2.2204325 -0.27208594 0 -1.4894104e-06 0 0)
(-2.2179697 -0.27187749 0 1.4160478e-06 0 0)
(-2.2202188 -0.27206777 0 -1.3491663e-06 0 0)
(-2.2181729 -0.27189481 0 1.2886072e-06 0 0)
(-2.220024 -0.27205121 0 -1.2342811e-06 0 0)
(-2.218359 -0.27191067 0 1.185542e-06 0 0)
(-2.219845 -0.27203597 0 -1.1430784e-06 0 0)
(-2.218531 -0.27192532 0 1.1090571e-06 0 0)
(-2.2196784 -0.27202175 0 -1.0666081e-06 0 0)
(-2.2186923 -0.27193901 0 1.0687879e-06 0 0)
(-2.2195242 -0.27200865 0 -1.0458591e-06 0 0)
(-2.2188536 -0.27195374 0 7.6661801e-07 0 0)
(-2.2193871 -0.27200025 0 -1.9426379e-06 0 0)
(-2.2190152 -0.27196324 0 1.583716e-06 0 0)
(-3.044102 -0.97540657 0 -0.26658461 0 0)
(-2.2959425 -0.38619132 0 -0.042779809 0 0)
(-2.6692249 -0.37432104 0 -0.021462057 0 0)
(-2.3340671 -0.30581408 0 -0.0090293333 0 0)
(-2.2763804 -0.28428096 0 -0.002876867 0 0)
(-2.1303035 -0.26609419 0 -0.00064188571 0 0)
(-2.1071506 -0.2656687 0 -0.00040360951 0 0)
(-2.0631217 -0.26217006 0 -0.00014895316 0 0)
(-2.0829162 -0.26372584 0 -3.8464541e-05 0 0)
(-2.0633121 -0.26214401 0 -3.8047039e-05 0 0)
(-2.0794116 -0.26345158 0 -7.5647456e-06 0 0)
(-2.0644054 -0.2621655 0 -2.3306783e-06 0 0)
(-2.0778376 -0.26332659 0 -3.8121081e-06 0 0)
(-2.0652779 -0.26222773 0 4.0995535e-06 0 0)
(-2.0769279 -0.26325577 0 -4.2880721e-06 0 0)
(-2.0660037 -0.26229217 0 4.1714272e-06 0 0)
(-2.0762141 -0.26319555 0 -4.1669572e-06 0 0)
(-2.0666425 -0.26234943 0 3.7057413e-06 0 0)
(-2.0755923 -0.26314096 0 -3.6705797e-06 0 0)
(-2.0672116 -0.26240008 0 3.312752e-06 0 0)
(-2.0750437 -0.26309251 0 -3.1988073e-06 0 0)
(-2.0677173 -0.26244507 0 2.9461462e-06 0 0)
(-2.0745594 -0.26304974 0 -2.8013987e-06 0 0)
(-2.0681662 -0.26248499 0 2.609511e-06 0 0)
(-2.0741315 -0.26301197 0 -2.4639818e-06 0 0)
(-2.0685643 -0.26252039 0 2.307776e-06 0 0)
(-2.073753 -0.26297855 0 -2.1735683e-06 0 0)
(-2.0689176 -0.26255179 0 2.0413585e-06 0 0)
(-2.0734176 -0.26294893 0 -1.9217773e-06 0 0)
(-2.0692315 -0.26257967 0 1.808161e-06 0 0)
(-2.0731198 -0.26292261 0 -1.7033512e-06 0 0)
(-2.069511 -0.26260449 0 1.605235e-06 0 0)
(-2.0728545 -0.26289915 0 -1.5143113e-06 0 0)
(-2.0697605 -0.26262665 0 1.4299055e-06 0 0)
(-2.0726173 -0.26287816 0 -1.3517216e-06 0 0)
(-2.0699842 -0.26264652 0 1.2796398e-06 0 0)
(-2.0724043 -0.2628593 0 -1.213218e-06 0 0)
(-2.0701858 -0.26266444 0 1.1524226e-06 0 0)
(-2.0722119 -0.26284224 0 -1.096871e-06 0 0)
(-2.0703687 -0.2626807 0 1.0465838e-06 0 0)
(-2.0720368 -0.26282669 0 -1.0013606e-06 0 0)
(-2.070536 -0.26269559 0 9.6070119e-07 0 0)
(-2.0718759 -0.26281239 0 -9.2525435e-07 0 0)
(-2.0706903 -0.26270934 0 8.9698091e-07 0 0)
(-2.0717263 -0.26279904 0 -8.5960317e-07 0 0)
(-2.0708348 -0.26272217 0 8.6572766e-07 0 0)
(-2.071588 -0.26278673 0 -8.4245195e-07 0 0)
(-2.0709799 -0.26273604 0 5.7011224e-07 0 0)
(-2.0714693 -0.26277903 0 -1.6974165e-06 0 0)
(-2.0711361 -0.26274575 0 1.3791713e-06 0 0)
(-3.0993382 -0.96216781 0 -0.25354694 0 0)
(-2.1594699 -0.3790832 0 -0.043703051 0 0)
(-2.5023001 -0.36118984 0 -0.020857206 0 0)
(-2.1912683 -0.29649112 0 -0.0090540109 0 0)
(-2.1349657 -0.27422618 0 -0.0025921874 0 0)
(-1.9884205 -0.25656868 0 -0.0006030256 0 0)
(-1.9644228 -0.25614621 0 -0.00035515257 0 0)
(-1.922404 -0.25288106 0 -0.00012094101 0 0)
(-1.9389563 -0.25436059 0 -2.5519914e-05 0 0)
(-1.9213148 -0.25292441 0 -3.3482031e-05 0 0)
(-1.9358193 -0.25417334 0 -3.505043e-06 0 0)
(-1.922263 -0.25297498 0 -2.4245698e-06 0 0)
(-1.9343857 -0.25406917 0 -2.258184e-06 0 0)
(-1.9230536 -0.25303854 0 3.378445e-06 0 0)
(-1.9335649 -0.25400501 0 -3.2824913e-06 0 0)
(-1.9237134 -0.25310047 0 3.3785526e-06 0 0)
(-1.9329221 -0.25394889 0 -3.3521382e-06 0 0)
(-1.9242939 -0.25315483 0 2.9640848e-06 0 0)
(-1.9323617 -0.25389764 0 -2.9637457e-06 0 0)
(-1.9248096 -0.25320265 0 2.650055e-06 0 0)
(-1.931867 -0.2538521 0 -2.5758581e-06 0 0)
(-1.9252669 -0.25324501 0 2.3596074e-06 0 0)
(-1.93143 -0.25381189 0 -2.2505778e-06 0 0)
(-1.9256721 -0.25328255 0 2.090874e-06 0 0)
(-1.931044 -0.25377639 0 -1.9763622e-06 0 0)
(-1.9260312 -0.25331581 0 1.8486214e-06 0 0)
(-1.9307025 -0.25374499 0 -1.741288e-06 0 0)
(-1.9263498 -0.25334531 0 1.634023e-06 0 0)
(-1.9304001 -0.25371716 0 -1.537724e-06 0 0)
(-1.9266327 -0.25337149 0 1.4458076e-06 0 0)
(-1.9301316 -0.25369244 0 -1.3611146e-06 0 0)
(-1.9268845 -0.2533948 0 1.2817406e-06 0 0)
(-1.9298925 -0.25367042 0 -1.2081173e-06 0 0)
(-1.9271092 -0.2534156 0 1.1397784e-06 0 0)
(-1.929679 -0.25365072 0 -1.0763489e-06 0 0)
(-1.9273105 -0.25343425 0 1.0179019e-06 0 0)
(-1.9294874 -0.25363302 0 -9.6391727e-07 0 0)
(-1.9274918 -0.25345106 0 9.1452082e-07 0 0)
(-1.9293144 -0.25361702 0 -8.692642e-07 0 0)
(-1.9276561 -0.25346631 0 8.2830044e-07 0 0)
(-1.929157 -0.25360244 0 -7.913502e-07 0 0)
(-1.9278062 -0.25348026 0 7.5803444e-07 0 0)
(-1.9290127 -0.25358904 0 -7.2897022e-07 0 0)
(-1.9279447 -0.25349315 0 7.0588707e-07 0 0)
(-1.9288786 -0.25357652 0 -6.733204e-07 0 0)