/*--------------------------------*- C++ -*----------------------------------*\
| =========                 |                                                 |
| \\      /  F ield         | OpenFOAM: The Open Source CFD Toolbox           |
|  \\    /   O peration     | Version:  2312                                  |
|   \\  /    A nd           | Website:  www.openfoam.com                      |
|    \\/     M anipulation  |                                                 |
\*---------------------------------------------------------------------------*/
FoamFile
{
    version     2.0;
    format      ascii;
    arch        "LSB;label=32;scalar=64";
    class       volScalarField;
    location    "4";
    object      T;
}
// * * * * * * * * * * * * * * * * * * * * * * * * * * * * * * * * * * * * * //

dimensions      [0 0 0 1 0 0 0];

internalField   nonuniform List<scalar> 
4000
(
330.19746
328.93465
328.69274
328.63106
328.55898
328.51282
328.46878
328.43092
328.39472
328.3619
328.32924
328.29901
328.26853
328.2398
328.21086
328.18311
328.1553
328.12822
328.10127
328.07468
328.04842
328.02219
327.99648
327.97053
327.94528
327.91954
327.89468
327.8691
327.84457
327.81911
327.79488
327.76952
327.74554
327.72025
327.69652
327.67127
327.64776
327.62254
327.59923
327.57401
327.55092
327.52568
327.50279
327.4775
327.45485
327.42944
327.40708
327.38146
327.35957
327.33311
332.35488
330.31022
329.64101
329.50128
329.33173
329.23934
329.15344
329.08597
329.02356
328.97121
328.91938
328.87478
328.82951
328.78943
328.74875
328.71159
328.6743
328.63917
328.60447
328.57081
328.53816
328.50558
328.47459
328.44284
328.41322
328.3821
328.35365
328.32302
328.29557
328.26532
328.23874
328.20877
328.18298
328.15322
328.12814
328.09851
328.07409
328.04455
328.02076
327.99122
327.96805
327.93845
327.91592
327.88614
327.86432
327.83422
327.81326
327.78252
327.76298
327.72981
333.68672
331.63282
330.58152
330.36564
330.10117
329.9631
329.83596
329.73905
329.65074
329.5789
329.50811
329.44916
329.38925
329.3378
329.2855
329.23892
329.19224
329.14904
329.10667
329.06591
329.02694
328.98799
328.95177
328.91421
328.88027
328.84376
328.81175
328.77606
328.74571
328.71065
328.68176
328.64717
328.61958
328.58535
328.55894
328.52493
328.49963
328.46575
328.44149
328.40763
328.3844
328.35042
328.32826
328.29401
328.27301
328.23823
328.21867
328.18282
328.1656
328.126
334.56858
332.85747
331.50062
331.21585
330.86212
330.68017
330.51332
330.38756
330.2741
330.18299
330.09373
330.02052
329.94631
329.88353
329.81987
329.76388
329.70802
329.65675
329.60686
329.559
329.51383
329.46851
329.42717
329.38377
329.3456
329.30369
329.26821
329.22744
329.19426
329.15438
329.12323
329.08402
329.05468
329.01596
328.98827
328.94988
328.92371
328.8855
328.8608
328.82261
328.79935
328.761
328.73923
328.7005
328.68035
328.64088
328.62272
328.58179
328.56683
328.52119
335.17901
333.94384
332.38049
332.04074
331.60743
331.38517
331.1813
331.02798
330.8907
330.78086
330.67394
330.58675
330.4988
330.42486
330.35025
330.28495
330.22022
330.16093
330.10378
330.04885
329.9977
329.94602
329.89972
329.85052
329.80825
329.76095
329.7221
329.67627
329.64036
329.59567
329.56234
329.51851
329.48749
329.44429
329.41537
329.3726
329.34563
329.30309
329.27799
329.23548
329.21222
329.16952
329.14815
329.10496
329.08566
329.04155
329.02478
328.97885
328.96601
328.91482
335.61553
334.86786
333.20269
332.8272
332.32847
332.07153
331.83475
331.65602
331.49688
331.36929
331.24592
331.14528
331.04444
330.95964
330.87471
330.80028
330.72716
330.65999
330.59595
330.53405
330.4772
330.41923
330.36822
330.31325
330.26709
330.21443
330.17239
330.12152
330.08302
330.03354
329.99815
329.94973
329.91712
329.86947
329.8394
329.79228
329.76457
329.71773
329.69228
329.64549
329.62227
329.57524
329.55431
329.50671
329.48827
329.43957
329.42415
329.37334
329.36246
329.3062
335.93422
335.61736
333.95043
333.56162
333.01587
332.73189
332.46775
332.26673
332.08845
331.94457
331.80642
331.69317
331.58057
331.48545
331.391
331.30781
331.22692
331.1521
331.08166
331.01296
330.95081
330.88668
330.83127
330.77065
330.72085
330.66293
330.61789
330.56207
330.52115
330.46695
330.42965
330.37669
330.34262
330.29058
330.25946
330.20803
330.17967
330.12858
330.10285
330.05182
330.02869
329.9774
329.95692
329.90499
329.8874
329.83423
329.8201
329.7646
329.75545
329.69464
336.17128
336.19603
334.61169
334.23143
333.66039
333.35861
333.07402
332.85484
332.66084
332.5027
332.35186
332.22719
332.10427
331.99958
331.89668
331.80524
331.71737
331.63528
331.55905
331.48382
331.41685
331.34679
331.28738
331.22127
331.16815
331.10511
331.05735
330.99669
330.95357
330.89476
330.85572
330.79833
330.76294
330.70659
330.67455
330.61891
330.58998
330.53474
330.50879
330.45363
330.43062
330.37518
330.35518
330.29903
330.28228
330.22478
330.21186
330.1519
330.14422
330.07935
336.35103
336.61808
335.17957
334.82683
334.25381
333.94439
333.64731
333.41494
333.2093
333.03948
332.87849
332.74394
332.61245
332.4992
332.38911
332.29012
332.19623
332.10738
332.0261
331.94475
331.87355
331.79786
331.73491
331.66357
331.60752
331.53956
331.48939
331.42408
331.37901
331.31576
331.27519
331.21351
331.17698
331.11646
331.08363
331.02391
330.99453
330.93526
330.90918
330.85001
330.82718
330.76772
330.74822
330.688
330.67206
330.61043
330.59862
330.53451
330.52804
330.45955
336.49045
336.90615
335.65334
335.34208
334.78967
334.48277
334.18181
333.94189
333.72921
333.55075
333.38254
333.23999
333.10194
332.9814
332.86559
332.75996
332.66115
332.56622
332.48075
332.39378
332.31903
332.23812
332.17218
332.09594
332.03741
331.96482
331.91261
331.84289
331.79617
331.72868
331.68684
331.62106
331.58359
331.51909
331.48563
331.422
331.39229
331.32915
331.30304
331.24002
331.21744
331.15413
331.13515
331.07106
331.0559
330.99039
330.97957
330.91164
330.90611
330.83443
336.60158
337.08691
336.03718
335.776
335.26365
334.96874
334.6726
334.43109
334.21627
334.0326
333.86039
333.71201
333.56966
333.44333
333.32345
333.21224
333.10977
333.00957
332.92088
332.82893
332.75141
332.66578
332.59748
332.51677
332.45625
332.37939
332.32555
332.25172
332.2037
332.13225
332.08941
332.01978
331.9816
331.91333
331.87943
331.8121
331.78221
331.71542
331.68937
331.62272
331.60044
331.53352
331.51506
331.44736
331.43293
331.36382
331.35387
331.28249
331.27768
331.20318
336.69286
337.18814
336.33982
336.13167
335.6739
335.39909
335.11599
334.8788
334.66683
334.4816
334.30876
334.15694
334.01271
333.88225
333.7601
333.64456
333.5398
333.43527
333.34444
333.24826
333.1688
333.07907
333.0091
332.92441
332.86247
332.78177
332.72675
332.64919
332.60025
332.52517
332.48163
332.40846
332.36981
332.29806
332.26391
332.19316
332.16323
332.09305
332.06716
331.99715
331.97523
331.90496
331.88703
331.81601
331.80227
331.72989
331.72068
331.64624
331.64195
331.565
336.77025
337.23549
336.57249
336.4155
336.02117
335.77268
335.50979
335.28241
335.07806
334.89493
334.72486
334.57212
334.4285
334.29574
334.17319
334.05469
333.94909
333.84129
333.74945
333.64989
333.56942
333.47628
333.40537
333.3173
333.25454
333.17049
333.1148
333.03395
332.98448
332.90616
332.86226
332.7859
332.74706
332.67216
332.63798
332.5641
332.5343
332.46103
332.43543
332.36235
332.34085
332.26754
332.25017
332.17615
332.16304
332.08777
332.07917
332.00209
331.99816
331.91909
336.8376
337.25038
336.74773
336.63624
336.30862
336.09051
335.85342
335.64058
335.44814
335.27061
335.10659
334.95543
334.81489
334.68171
334.56067
334.44066
334.33571
334.22578
334.13414
334.03211
333.95159
333.85582
333.78474
333.69394
333.63099
333.54417
333.48832
333.40468
333.35512
333.274
333.2301
333.15095
333.11219
333.03452
333.00054
332.9239
332.8944
332.81839
332.79318
332.71739
332.69638
332.62038
332.60358
332.52692
332.51441
332.43663
332.42855
332.34923
332.34555
332.26467
336.89764
337.24918
336.87776
336.80393
336.54143
336.35548
336.14795
335.95332
335.77638
335.60756
335.45256
335.30539
335.17029
335.03855
334.92089
334.80084
334.69802
334.58718
334.49691
334.39342
334.31382
334.21623
334.14579
334.05296
333.99049
333.90151
333.84605
333.76016
333.71096
333.62754
333.584
333.50251
333.46414
333.38412
333.35056
333.27157
333.24254
333.16417
333.13949
333.06136
333.04092
332.96261
332.94639
332.86751
332.85554
332.77568
332.76802
332.68688
332.68336
332.60102
336.95194
337.24279
336.97377
336.92888
336.72623
336.5721
336.39592
336.22195
336.06323
335.9057
335.76225
335.62122
335.49371
335.36518
335.25265
335.13402
335.03477
334.92421
334.83649
334.73254
334.65482
334.55629
334.48729
334.39318
334.33185
334.24136
334.18685
334.09929
334.05091
333.96572
333.92291
333.83957
333.8019
333.71998
333.68709
333.60617
333.5778
333.4975
333.47347
333.39341
333.37361
333.29342
333.2778
333.19711
333.18567
333.10415
333.09684
333.0143
333.01089
332.9274
337.00159
337.23772
337.04519
337.02087
336.87039
336.74597
336.60109
336.44896
336.31019
336.16588
336.03597
335.90291
335.7848
335.66109
335.55525
335.43942
335.34506
335.23596
335.1519
335.04851
334.9736
334.875
334.80821
334.7136
334.65405
334.56274
334.50971
334.42111
334.374
334.28759
334.24589
334.16124
334.12455
334.04123
334.00925
333.92687
333.89934
333.81755
333.79431
333.71276
333.69368
333.61204
333.59705
333.51499
333.50405
333.42131
333.41433
333.33077
333.32746
333.24316
337.04721
337.237
337.0996
337.08851
336.98135
336.88327
336.76812
336.6378
336.51971
336.38981
336.27481
336.15115
336.04388
335.92636
335.82855
335.71676
335.62846
335.52193
335.44254
335.34068
335.26944
335.17163
335.10778
335.01344
334.9563
334.86487
334.81385
334.72483
334.67942
334.59239
334.55216
334.46672
334.43133
334.3471
334.31627
334.23292
334.20642
334.12361
334.10128
334.0187
334.00042
333.91778
333.90346
333.82048
333.81004
333.72651
333.71983
333.63567
333.63245
333.54769
337.08921
337.24134
337.14266
337.13891
337.06619
336.99034
336.90217
336.79259
336.695
336.57996
336.4806
336.36729
336.27189
336.16164
336.07291
335.96623
335.88497
335.782
335.70816
335.60874
335.54193
335.44575
335.38552
335.29218
335.23803
335.14716
335.09864
335.00984
334.96655
334.87948
334.84107
334.75539
334.72158
334.63697
334.60751
334.52369
334.49838
334.41504
334.39375
334.31061
334.29321
334.21003
334.19642
334.11297
334.10305
334.01917
334.01278
333.92842
333.9253
333.84043
337.12794
337.25021
337.17837
337.17763
337.13115
337.07319
337.00854
336.91781
336.83972
336.73935
336.65573
336.55328
336.47031
336.36811
336.28919
336.18848
336.11502
336.01646
335.94889
335.85272
335.79102
335.69721
335.64118
335.54957
335.49892
335.40926
335.36369
335.27573
335.23494
335.1484
335.11214
335.02677
334.9948
334.91034
334.88247
334.79866
334.77473
334.69134
334.6712
334.58799
334.57154
334.48829
334.47543
334.39196
334.38257
334.29877
334.29269
334.20851
334.20551
334.12089
337.16364
337.26244
337.20936
337.20874
337.18149
337.13723
337.09231
337.01805
336.95786
336.87137
336.80304
336.71149
336.6411
336.54739
336.47871
336.38457
336.31944
336.22598
336.16523
336.07301
336.01693
335.92619
335.87485
335.78561
335.7389
335.65108
335.60884
335.5223
335.48435
335.39891
335.36507
335.28055
335.25066
335.16686
335.14077
335.05749
335.03507
334.95211
334.93324
334.85041
334.835
334.75214
334.74007
334.65703
334.6482
334.56489
334.55914
334.47553
334.47268
334.38867
337.19659
337.27688
337.23727
337.23504
337.2214
337.18711
337.15817
337.09771
337.05341
336.97958
336.92563
336.84463
336.78658
336.70147
336.64312
336.55595
336.49943
336.41157
336.35799
336.27029
336.22023
336.13312
336.08684
336.00056
335.95813
335.87272
335.83414
335.74956
335.71474
335.63092
335.59976
335.51659
335.489
335.40634
335.38221
335.29992
335.27916
335.19709
335.17961
335.09762
335.08331
335.00127
334.99006
334.90786
334.89962
334.81721
334.81182
334.72915
334.72646
334.64342
337.22698
337.29245
337.26301
337.25835
337.25405
337.2266
337.21016
337.16085
337.13019
337.06753
337.02669
336.95559
336.90926
336.83262
336.7844
336.70434
336.65647
336.57454
336.52831
336.44554
336.40172
336.31873
336.27777
336.19492
336.15705
336.07453
336.03985
335.95774
335.92626
335.84455
335.81627
335.73493
335.7098
335.62876
335.60673
335.52589
335.5069
335.42617
335.41015
335.32943
335.3163
335.2355
335.22519
335.14424
335.13664
335.05549
335.0505
334.96912
334.96662
334.88491
337.25508
337.30843
337.28704
337.27975
337.2817
337.25864
337.25168
337.21102
337.19174
337.1386
337.10938
337.04728
337.0118
336.94323
336.90469
336.83169
336.79228
336.71643
336.67753
336.59997
336.56248
336.48395
336.44845
336.36944
336.33628
336.25708
336.22646
336.14724
336.11927
336.04011
336.01485
335.93577
335.91323
335.83423
335.81441
335.73545
335.71832
335.63935
335.62486
335.54582
335.53393
335.45476
335.44539
335.36607
335.35914
335.27962
335.27505
335.19532
335.19302
335.11297
337.28107
337.32431
337.30958
337.29982
337.3059
337.28542
337.28543
337.25123
337.24116
337.19588
337.17669
337.12253
337.09685
337.03577
337.00626
336.94006
336.90874
336.83896
336.80721
336.73499
336.70377
336.62994
336.5999
336.52503
336.49664
336.42109
336.39463
336.31866
336.29429
336.21805
336.19591
336.11947
336.09962
336.02304
336.00551
335.92881
335.9136
335.83677
335.82387
335.74688
335.73626
335.6591
335.6507
335.57335
335.56712
335.48958
335.48545
335.40768
335.40561
335.32754
337.30519
337.3398
337.33073
337.31882
337.32765
337.3085
337.3135
337.28392
337.2811
337.24212
337.23134
337.18403
337.16695
337.11266
337.09136
337.03158
337.00782
336.94394
336.91901
336.85214
336.827
336.75798
336.73333
336.66278
336.63913
336.56749
336.54518
336.47274
336.45202
336.379
336.36001
336.28655
336.26942
336.1956
336.1804
336.1063
336.09306
336.01869
336.00742
335.93281
335.9235
335.84866
335.84127
335.76621
335.76071
335.68543
335.68177
335.60627
335.60443
335.52862
337.32762
337.35477
337.35053
337.33688
337.34754
337.32891
337.3374
337.311
337.31373
337.27965
337.27575
337.23418
337.22449
337.1762
337.16221
337.10835
337.0915
337.03324
337.01468
336.95305
336.93368
336.8695
336.85002
336.78391
336.76487
336.6973
336.67907
336.61039
336.59326
336.52371
336.50787
336.43764
336.42324
336.35246
336.3396
336.26837
336.25711
336.1855
336.17587
336.10393
336.09594
336.02371
336.01735
335.94485
335.94009
335.86735
335.86418
335.7912
335.78961
335.71634
337.3485
337.36915
337.36903
337.354
337.36594
337.34736
337.35823
337.33393
337.34078
337.3104
337.31198
337.27512
337.27161
337.22853
337.22089
337.17237
337.1617
337.10871
337.09597
337.03938
337.02538
336.96595
336.95137
336.88971
336.87508
336.81167
336.79738
336.73259
336.71895
336.65305
336.64029
336.5735
336.56178
336.49426
336.48371
336.4156
336.4063
336.33769
336.32969
336.26067
336.254
336.18461
336.17928
336.10959
336.10558
336.03562
336.03294
335.96272
335.96137
335.89087
337.368
337.38293
337.38626
337.37018
337.38303
337.36426
337.37673
337.35374
337.36358
337.33593
337.34175
337.30867
337.31021
337.27156
337.26931
337.22554
337.22028
337.17212
337.1646
337.11277
337.10368
337.04884
337.0388
336.98153
336.97103
336.91179
336.90125
336.84041
336.83012
336.76798
336.75818
336.69497
336.68584
336.62175
336.61345
336.54864
336.54125
336.47584
336.46944
336.40353
336.39816
336.33183
336.32751
336.26082
336.25756
336.19057
336.18839
336.12112
336.12002
336.05248
337.38622
337.39611
337.40227
337.3854
337.39891
337.37986
337.39337
337.37119
337.38311
337.35743
337.36645
337.33635
337.3419
337.30697
337.30917
337.26957
337.26893
337.22514
337.2222
337.1748
337.17011
337.11965
337.11373
337.06072
337.05404
336.99892
336.99186
336.93498
336.92783
336.8695
336.86251
336.80296
336.79631
336.73577
336.72961
336.66823
336.66269
336.60062
336.59576
336.53311
336.52901
336.46588
336.46255
336.39902
336.3965
336.33264
336.33094
336.26679
336.26594
336.20152
337.40326
337.4087
337.41713
337.39965
337.41362
337.3943
337.40847
337.38677
337.40009
337.37583
337.38716
337.3594
337.36804
337.33618
337.34199
337.30598
337.3092
337.26933
337.27031
337.22698
337.22615
337.17979
337.17757
337.12863
337.12541
337.07429
337.07042
337.01745
337.01321
336.95867
336.9543
336.89845
336.89412
336.83717
336.83305
336.77517
336.77138
336.71274
336.70936
336.65008
336.64718
336.58737
336.58499
336.52474
336.52293
336.46232
336.46109
336.40018
336.39956
336.33839
337.41921
337.42069
337.43087
337.41293
337.4272
337.40765
337.42221
337.40081
337.41502
337.39178
337.40473
337.37878
337.38973
337.3604
337.36904
337.33611
337.34247
337.30606
337.31033
337.2707
337.27317
337.23063
337.23163
337.18655
337.1864
337.13912
337.13812
337.08895
337.08735
337.03656
337.03458
336.9824
336.98022
336.92687
336.92464
336.8703
336.86814
336.81298
336.81098
336.75513
336.75337
336.69694
336.69547
336.63857
336.63743
336.58015
336.57937
336.52178
336.52138
336.46354
337.43412
337.43207
337.44352
337.42522
337.43964
337.41994
337.43469
337.41352
337.42825
337.40576
337.41979
337.39525
337.40787
337.38061
337.39139
337.36108
337.36992
337.33655
337.34352
337.30721
337.31245
337.27342
337.27717
337.2357
337.23822
337.19459
337.19612
337.15061
337.15137
337.10422
337.1044
337.05583
337.05559
337.0058
337.0053
336.95448
336.95382
336.90214
336.90142
336.84901
336.84831
336.79529
336.79467
336.74115
336.74064
336.68673
336.68637
336.63214
336.63195
336.57748
337.44803
337.44279
337.45508
337.4365
337.45095
337.43117
337.44597
337.42503
337.44
337.41812
337.43279
337.4094
337.42313
337.39758
337.40992
337.38184
337.39259
337.36186
337.37096
337.33763
337.34513
337.3093
337.31535
337.27723
337.28201
337.24182
337.24553
337.20351
337.20632
337.16268
337.16476
337.11969
337.12118
337.07489
337.07593
337.02858
337.02927
336.98103
336.98148
336.93249
336.93275
336.88314
336.88328
336.83315
336.83322
336.78268
336.78271
336.73184
336.73185
336.68076
337.46094
337.45279
337.46554
337.44676
337.46111
337.44134
337.45609
337.4354
337.45043
337.42908
337.44408
337.42162
337.43606
337.41194
337.42535
337.39917
337.41131
337.3829
337.39363
337.36294
337.37223
337.3393
337.34722
337.31217
337.31883
337.28185
337.28739
337.24866
337.25323
337.21292
337.21665
337.17495
337.17795
337.13503
337.13743
337.09346
337.09535
337.05049
337.05196
337.00634
337.00747
336.9612
336.96204
336.91526
336.91585
336.86865
336.86903
336.82151
336.82169
336.77395
337.47278
337.46195
337.47485
337.45595
337.47012
337.45045
337.46507
337.44469
337.45964
337.43879
337.45388
337.43226
337.44706
337.42416
337.43825
337.41371
337.4268
337.40041
337.41233
337.38398
337.39464
337.36431
337.37369
337.34146
337.34963
337.31561
337.32266
337.287
337.29303
337.25588
337.26099
337.2225
337.22679
337.18711
337.19068
337.14996
337.1529
337.1113
337.11368
337.07133
337.07321
337.03023
337.03168
336.98817
336.98922
336.94529
336.94598
336.90174
336.90209
336.85764
337.48336
337.47014
337.48296
337.46403
337.47796
337.45851
337.47292
337.45293
337.4677
337.44738
337.46239
337.44152
337.45644
337.43461
337.44906
337.42594
337.43963
337.41501
337.42774
337.40147
337.41311
337.38513
337.39561
337.36593
337.37527
337.34398
337.35222
337.31941
337.32662
337.29242
337.29867
337.2632
337.26855
337.23195
337.2365
337.1989
337.20271
337.16426
337.1674
337.1282
337.13074
337.09092
337.0929
337.05257
337.05402
337.01328
337.01424
336.97319
336.97367
336.93243
337.4924
337.4772
337.48981
337.47099
337.48465
337.4655
337.47968
337.46015
337.47467
337.45491
337.46973
337.44958
337.46443
337.44357
337.45813
337.43627
337.45027
337.42721
337.44043
337.41601
337.4283
337.40242
337.41367
337.38631
337.3965
337.3677
337.37684
337.34667
337.35478
337.32333
337.33047
337.29784
337.30404
337.27035
337.27568
337.24104
337.24557
337.2101
337.21388
337.1777
337.18078
337.144
337.14642
337.10914
337.11093
337.07325
337.07444
337.03647
337.03706
336.99892
337.49954
337.48297
337.49536
337.4768
337.49019
337.47147
337.48538
337.46638
337.48062
337.46145
337.47599
337.45656
337.4712
337.45125
337.46572
337.44502
337.45908
337.43742
337.45087
337.4281
337.44075
337.41675
337.42849
337.40322
337.41398
337.38745
337.39722
337.36946
337.37824
337.34933
337.35713
337.32713
337.33399
337.30301
337.30896
337.27709
337.28219
337.24954
337.25382
337.22051
337.22402
337.19013
337.1929
337.15853
337.16059
337.12585
337.12722
337.0922
337.09288
337.0577
337.50451
337.48737
337.49961
337.4815
337.49463
337.47643
337.49006
337.47167
337.48559
337.46708
337.48127
337.46257
337.4769
337.45782
337.47206
337.45241
337.46635
337.44596
337.45941
337.43812
337.4509
337.4286
337.44058
337.41719
337.42828
337.4038
337.41397
337.38842
337.39763
337.37105
337.37931
337.35175
337.35906
337.3306
337.337
337.30772
337.31323
337.28324
337.2879
337.25727
337.26111
337.22995
337.23299
337.20138
337.20365
337.17169
337.1732
337.14098
337.14173
337.10935
337.50732
337.49041
337.50262
337.48512
337.49803
337.48046
337.49379
337.47608
337.48965
337.47183
337.48564
337.46769
337.48164
337.46341
337.47731
337.45865
337.47232
337.45309
337.46637
337.44642
337.45913
337.43835
337.45036
337.42867
337.43988
337.41726
337.4276
337.40405
337.4135
337.38905
337.39758
337.37225
337.37986
337.35372
337.36041
337.33353
337.33933
337.31179
337.31671
337.2886
337.29267
337.26406
337.2673
337.23828
337.2407
337.21135
337.21296
337.18337
337.18418
337.15445
337.50827
337.49226
337.50452
337.48778
337.50048
337.48362
337.49665
337.47966
337.49287
337.47578
337.48918
337.47199
337.48551
337.46811
337.4816
337.46387
337.47717
337.459
337.47197
337.45324
337.46573
337.44632
337.45819
337.43803
337.44917
337.42822
337.43857
337.41683
337.42634
337.40382
337.41245
337.38916
337.3969
337.3729
337.37974
337.35507
337.36102
337.33576
337.34083
337.31505
337.31926
337.29303
337.29639
337.26978
337.27229
337.24538
337.24706
337.21993
337.22077
337.19351
337.50792
337.49314
337.50548
337.48958
337.50208
337.48599
337.49871
337.48248
337.49531
337.47899
337.49196
337.47555
337.48859
337.47202
337.48502
337.46819
337.48104
337.46386
337.47642
337.45879
337.47093
337.45276
337.46434
337.44555
337.45648
337.43704
337.44724
337.42713
337.43655
337.41577
337.42436
337.40293
337.41066
337.3886
337.39546
337.37282
337.37881
337.35564
337.36077
337.33714
337.3414
337.31736
337.32078
337.2964
337.29896
337.27431
337.27601
337.25117
337.25202
337.22706
337.50682
337.49332
337.50569
337.49067
337.50296
337.48767
337.50007
337.48463
337.49707
337.48153
337.49405
337.47842
337.49097
337.47519
337.48768
337.4717
337.48403
337.46777
337.47984
337.46323
337.47491
337.45786
337.46904
337.4515
337.46208
337.44399
337.45391
337.43527
337.44447
337.42526
337.43369
337.41392
337.42153
337.40123
337.40801
337.3872
337.39314
337.37188
337.37697
337.3553
337.35955
337.33753
337.34093
337.3186
337.32116
337.29859
337.3003
337.27756
337.27841
337.25556
337.50541
337.49305
337.50533
337.49119
337.50324
337.48877
337.50082
337.48618
337.49822
337.48346
337.49551
337.48066
337.49269
337.47771
337.48964
337.47448
337.48624
337.47084
337.48235
337.46667
337.47781
337.46178
337.47247
337.45603
337.46618
337.44931
337.45884
337.44151
337.45038
337.43258
337.44073
337.42247
337.42986
337.41114
337.41774
337.3986
337.4044
337.38486
337.38985
337.36996
337.37413
337.35394
337.35728
337.33683
337.33935
337.31868
337.32036
337.29954
337.30038
337.27947
337.50392
337.49252
337.50458
337.49127
337.50303
337.48938
337.50106
337.48722
337.49883
337.48486
337.49642
337.48234
337.49383
337.47961
337.49096
337.47657
337.48772
337.47313
337.48402
337.4692
337.47974
337.46463
337.47475
337.45931
337.46894
337.45315
337.46221
337.44606
337.45451
337.43797
337.44576
337.42884
337.43592
337.41863
337.42497
337.40732
337.41291
337.39493
337.39975
337.38148
337.38551
337.36698
337.37022
337.35146
337.3539
337.33497
337.3366
337.31753
337.31835
337.29919
337.50245
337.49186
337.50355
337.49102
337.50245
337.48959
337.50087
337.48781
337.49898
337.48577
337.49683
337.4835
337.49442
337.48093
337.49167
337.47801
337.48852
337.47468
337.48491
337.47087
337.48076
337.46648
337.47598
337.46144
337.47047
337.45565
337.46418
337.44907
337.45703
337.44162
337.44897
337.43326
337.43996
337.42394
337.42996
337.41365
337.41896
337.40238
337.40697
337.39015
337.394
337.37697
337.38007
337.36285
337.36518
337.34781
337.34937
337.33188
337.33267
337.31511
337.50099
337.49112
337.50234
337.49054
337.50158
337.48947
337.50034
337.48803
337.49873
337.48626
337.4968
337.48417
337.49451
337.48171
337.49181
337.47883
337.48867
337.47551
337.48505
337.47171
337.48092
337.46739
337.47622
337.46247
337.47088
337.45691
337.46485
337.45066
337.45809
337.44367
337.45054
337.43589
337.44216
337.42727
337.43292
337.4178
337.42279
337.40747
337.41179
337.39627
337.3999
337.38421
337.38713
337.37129
337.3735
337.35753
337.35901
337.34294
337.34368
337.32756
337.49954
337.49035
337.50101
337.48989
337.50049
337.48911
337.49953
337.48793
337.49814
337.48638
337.49636
337.4844
337.49412
337.48196
337.49139
337.47903
337.48817
337.47563
337.48445
337.47175
337.48024
337.46737
337.4755
337.46246
337.4702
337.45699
337.4643
337.45094
337.45778
337.44425
337.45059
337.43688
337.44268
337.4288
337.43403
337.41998
337.42461
337.4104
337.41442
337.40006
337.40344
337.38895
337.39167
337.37706
337.37912
337.36441
337.36579
337.351
337.3517
337.33685
337.49808
337.48957
337.4996
337.48911
337.49924
337.48855
337.49849
337.48757
337.49726
337.48614
337.49554
337.48419
337.49326
337.48167
337.49041
337.47861
337.48701
337.47502
337.4831
337.47096
337.47871
337.46643
337.47383
337.46142
337.46846
337.45593
337.46259
337.44995
337.45619
337.44343
337.44922
337.43634
337.44165
337.42865
337.43344
337.42033
337.42458
337.41136
337.41505
337.40172
337.40483
337.39141
337.39392
337.38041
337.38231
337.36871
337.36999
337.35633
337.35697
337.34327
337.49658
337.48877
337.49814
337.48825
337.49788
337.48783
337.49726
337.48697
337.49611
337.48557
337.49434
337.48354
337.49192
337.48084
337.48884
337.47753
337.48517
337.47367
337.48098
337.46933
337.47632
337.46455
337.47121
337.45935
337.46569
337.45375
337.45973
337.44773
337.45335
337.44128
337.44649
337.43436
337.43914
337.42693
337.43127
337.41899
337.42284
337.41049
337.41384
337.40143
337.40425
337.39178
337.39406
337.38152
337.38325
337.37066
337.37182
337.35917
337.35976
337.34708
337.49505
337.48796
337.49662
337.48732
337.49643
337.48698
337.49588
337.48616
337.4947
337.48467
337.49277
337.48243
337.49007
337.47942
337.48665
337.47575
337.4826
337.47152
337.47803
337.46681
337.47302
337.46171
337.46762
337.45624
337.46185
337.45044
337.45575
337.4443
337.44929
337.43783
337.44247
337.43098
337.43525
337.42373
337.4276
337.41605
337.4195
337.40792
337.41092
337.39932
337.40186
337.39022
337.39227
337.3806
337.38215
337.37044
337.37149
337.35974
337.36026
337.34849
337.49347
337.48714
337.49506
337.48632
337.4949
337.48602
337.49435
337.48512
337.49301
337.48342
337.49078
337.48081
337.48767
337.47737
337.48378
337.47322
337.47925
337.46851
337.47422
337.46336
337.46878
337.45785
337.46301
337.45205
337.45695
337.44599
337.45062
337.43967
337.44403
337.4331
337.43717
337.42626
337.43
337.4191
337.4225
337.41161
337.41465
337.40376
337.40641
337.39553
337.39777
337.38688
337.3887
337.37779
337.37917
337.36824
337.36917
337.35821
337.35868
337.3477
337.49183
337.48629
337.49345
337.48528
337.49331
337.48494
337.49266
337.48384
337.49102
337.48175
337.48831
337.47862
337.48463
337.4746
337.48015
337.46986
337.47504
337.46458
337.46946
337.45891
337.46354
337.45294
337.45734
337.44675
337.45094
337.44038
337.44435
337.43384
337.43758
337.42712
337.43062
337.42022
337.42345
337.4131
337.41604
337.40573
337.40836
337.39809
337.40039
337.39015
337.3921
337.38187
337.38346
337.37323
337.37444
337.36421
337.36502
337.35477
337.35518
337.34491
337.49013
337.48543
337.49179
337.48419
337.49165
337.48373
337.49078
337.48227
337.48865
337.47959
337.48528
337.47577
337.48088
337.47102
337.47568
337.46557
337.46989
337.45964
337.46369
337.45339
337.45722
337.44692
337.45057
337.4403
337.44378
337.43358
337.4369
337.42678
337.42992
337.41989
337.42284
337.4129
337.41563
337.40577
337.40826
337.39847
337.40071
337.39099
337.39295
337.38328
337.38495
337.37531
337.37667
337.36706
337.36809
337.35848
337.35918
337.34956
337.34991
337.34028
337.48833
337.48455
337.49007
337.48305
337.4899
337.48235
337.48865
337.48032
337.48581
337.47685
337.48158
337.47215
337.47629
337.46652
337.47024
337.46026
337.46369
337.45361
337.45682
337.44672
337.44978
337.43971
337.44263
337.43265
337.43545
337.42557
337.42826
337.41849
337.42105
337.41141
337.41383
337.4043
337.40655
337.39713
337.3992
337.38988
337.39175
337.38252
337.38416
337.375
337.3764
337.36729
337.36843
337.35936
337.36023
337.35118
337.35177
337.34272
337.34301
337.33395
337.48644
337.48366
337.4883
337.48186
337.48802
337.48074
337.48618
337.47788
337.48238
337.47338
337.47707
337.46761
337.47074
337.46097
337.46374
337.45382
337.45635
337.44638
337.44877
337.43884
337.44112
337.43127
337.43349
337.42376
337.4259
337.41631
337.4184
337.40896
337.41097
337.40168
337.40359
337.39445
337.39624
337.38723
337.3889
337.38001
337.38152
337.37273
337.37407
337.36538
337.36652
337.3579
337.35883
337.35026
337.35097
337.34242
337.3429
337.33436
337.33461
337.32605
337.48444
337.48277
337.48647
337.48059
337.48595
337.47881
337.48324
337.47481
337.47819
337.46902
337.4716
337.462
337.46407
337.45424
337.45603
337.44613
337.44777
337.43788
337.43945
337.42966
337.4312
337.42154
337.42308
337.41358
337.41511
337.40579
337.40731
337.39817
337.39966
337.3907
337.39214
337.38335
337.38473
337.37609
337.37738
337.36889
337.37006
337.3617
337.36275
337.35448
337.35539
337.34721
337.34795
337.33982
337.34039
337.3323
337.33269
337.32461
337.32481
337.31672
337.48232
337.48192
337.48455
337.47922
337.4836
337.4764
337.47966
337.47092
337.47306
337.46358
337.46497
337.45515
337.45613
337.4462
337.447
337.43707
337.43784
337.42801
337.42879
337.41912
337.41996
337.41048
337.41137
337.4021
337.40304
337.39399
337.39497
337.38612
337.38713
337.37849
337.37949
337.37104
337.37202
337.36375
337.36468
337.35657
337.35744
337.34946
337.35024
337.34238
337.34306
337.33529
337.33586