/*--------------------------------*- C++ -*----------------------------------*\
| =========                 |                                                 |
| \\      /  F ield         | OpenFOAM: The Open Source CFD Toolbox           |
|  \\    /   O peration     | Version:  2312                                  |
|   \\  /    A nd           | Website:  www.openfoam.com                      |
|    \\/     M anipulation  |                                                 |
\*---------------------------------------------------------------------------*/
FoamFile
{
    version     2.0;
    format      ascii;
    arch        "LSB;label=32;scalar=64";
    class       volScalarField;
    location    "7";
    object      p;
}
// * * * * * * * * * * * * * * * * * * * * * * * * * * * * * * * * * * * * * //

dimensions      [0 2 -2 0 0 0 0];

internalField   nonuniform List<scalar> 
4000
(
32.453389
30.96286
30.338438
29.321937
28.886786
27.994769
27.578762
26.731255
26.298603
25.477607
25.024071
24.224685
23.751434
22.971014
22.480083
21.716412
21.209791
20.460899
19.940421
19.204542
18.671868
17.947423
17.404041
16.689624
16.136859
15.431219
14.870251
14.172275
13.604153
12.912848
12.338512
11.652991
11.073281
10.392745
9.8084196
9.1321477
8.5438944
7.8712291
7.279677
6.6100151
6.0157442
5.3485269
4.7520767
4.0867816
3.4886594
2.8247925
2.2254804
1.5625678
0.96252801
0.30010751
32.444032
30.960981
30.338915
29.321927
28.886774
27.994782
27.578757
26.731264
26.298595
25.477615
25.024064
24.224691
23.751428
22.97102
22.480078
21.716418
21.209786
20.460903
19.940417
19.204546
18.671864
17.947427
17.404037
16.689627
16.136856
15.431222
14.870248
14.172277
13.604151
12.912851
12.33851
11.652993
11.073279
10.392747
9.8084178
9.1321495
8.5438927
7.8712307
7.2796755
6.6100166
6.0157428
5.3485283
4.7520753
4.0867829
3.4886581
2.8247938
2.2254792
1.5625691
0.96252671
0.30010971
32.422559
30.959659
30.339752
29.321866
28.88678
27.99479
27.578765
26.731264
26.298598
25.477613
25.024065
24.22469
23.751429
22.971019
22.480079
21.716417
21.209787
20.460902
19.940418
19.204545
18.671865
17.947426
17.404038
16.689627
16.136857
15.431222
14.870249
14.172277
13.604151
12.91285
12.338511
11.652993
11.07328
10.392747
9.8084182
9.1321491
8.543893
7.8712304
7.2796758
6.6100163
6.015743
5.348528
4.7520756
4.0867826
3.4886583
2.8247936
2.2254794
1.5625688
0.96252681
0.30011044
32.405273
30.958233
30.340616
29.321772
28.886787
27.994795
27.578776
26.731259
26.298603
25.477609
25.024069
24.224686
23.751433
22.971016
22.480082
21.716414
21.20979
20.4609
19.94042
19.204542
18.671867
17.947424
17.40404
16.689625
16.136858
15.43122
14.87025
14.172275
13.604153
12.912849
12.338512
11.652991
11.073281
10.392746
9.8084193
9.1321481
8.543894
7.8712294
7.2796767
6.6100154
6.0157439
5.3485272
4.7520764
4.0867818
3.4886591
2.8247928
2.2254801
1.562568
0.96252746
0.30011054
32.382179
30.956034
30.341418
29.321653
28.886791
27.994801
27.578785
26.731255
26.298607
25.477605
25.024073
24.224683
23.751436
22.971013
22.480085
21.716411
21.209792
20.460897
19.940422
19.20454
18.671869
17.947422
17.404042
16.689623
16.13686
15.431218
14.870252
14.172274
13.604154
12.912848
12.338513
11.65299
11.073282
10.392745
9.8084202
9.1321472
8.5438949
7.8712286
7.2796775
6.6100146
6.0157447
5.3485264
4.7520771
4.0867811
3.4886598
2.8247921
2.2254808
1.5625673
0.96252809
0.30011057
32.367515
30.954601
30.342131
29.321496
28.886798
27.994808
27.578792
26.731252
26.29861
25.477602
25.024076
24.22468
23.751438
22.97101
22.480087
21.716409
21.209794
20.460895
19.940424
19.204539
18.671871
17.947421
17.404043
16.689622
16.136861
15.431217
14.870253
14.172273
13.604155
12.912847
12.338514
11.65299
11.073283
10.392744
9.8084209
9.1321465
8.5438956
7.8712279
7.2796782
6.610014
6.0157453
5.3485258
4.7520777
4.0867806
3.4886603
2.8247916
2.2254813
1.5625667
0.96252861
0.30011063
32.350264
30.952623
30.342662
29.321354
28.886819
27.994817
27.578798
26.731248
26.298613
25.477599
25.024078
24.224678
23.75144
22.971008
22.480089
21.716407
21.209796
20.460894
19.940425
19.204537
18.671872
17.94742
17.404044
16.689621
16.136862
15.431216
14.870254
14.172272
13.604156
12.912846
12.338515
11.652989
11.073283
10.392743
9.8084216
9.1321459
8.5438961
7.8712274
7.2796787
6.6100135
6.0157457
5.3485254
4.7520782
4.0867801
3.4886608
2.8247911
2.2254818
1.5625663
0.96252907
0.30011069
32.335071
30.951922
30.342685
29.321423
28.886887
27.994833
27.578805
26.731245
26.298615
25.477597
25.02408
24.224676
23.751442
22.971007
22.48009
21.716406
21.209797
20.460893
19.940427
19.204536
18.671873
17.947419
17.404045
16.68962
16.136863
15.431215
14.870254
14.172271
13.604157
12.912845
12.338515
11.652988
11.073284
10.392743
9.8084221
9.1321454
8.5438966
7.8712269
7.2796791
6.610013
6.0157462
5.3485249
4.7520786
4.0867797
3.4886612
2.8247907
2.2254821
1.5625658
0.96252949
0.30011072
32.320017
30.950192
30.341906
29.321785
28.886988
27.994852
27.578812
26.731243
26.298616
25.477594
25.024081
24.224675
23.751444
22.971005
22.480091
21.716405
21.209798
20.460891
19.940428
19.204535
18.671874
17.947418
17.404046
16.689619
16.136864
15.431215
14.870255
14.17227
13.604157
12.912845
12.338516
11.652988
11.073284
10.392742
9.8084226
9.1321449
8.5438971
7.8712265
7.2796795
6.6100126
6.0157465
5.3485246
4.7520789
4.0867794
3.4886615
2.8247904
2.2254825
1.5625654
0.96252989
0.30011074
32.300953
30.948375
30.341399
29.322068
28.887038
27.99486
27.578814
26.731239
26.298617
25.477592
25.024083
24.224673
23.751445
22.971004
22.480093
21.716403
21.2098
20.46089
19.940429
19.204534
18.671875
17.947417
17.404047
16.689618
16.136864
15.431214
14.870256
14.17227
13.604158
12.912844
12.338516
11.652987
11.073285
10.392742
9.808423
9.1321445
8.5438974
7.8712261
7.2796799
6.6100123
6.0157469
5.3485242
4.7520793
4.0867791
3.4886618
2.8247901
2.2254828
1.5625651
0.96253027
0.30011074
32.28747
30.945537
30.341774
29.321859
28.886988
27.994843
27.578807
26.731233
26.298617
25.47759
25.024084
24.224672
23.751446
22.971003
22.480094
21.716402
21.209801
20.46089
19.94043
19.204534
18.671875
17.947416
17.404048
16.689618
16.136865
15.431213
14.870256
14.172269
13.604158
12.912844
12.338517
11.652987
11.073285
10.392741
9.8084233
9.1321442
8.5438978
7.8712258
7.2796802
6.610012
6.0157472
5.3485239
4.7520795
4.0867788
3.4886621
2.8247898
2.225483
1.5625648
0.96253063
0.30011074
32.27385
30.943503
30.34218
29.321236
28.88687
27.994802
27.578792
26.731224
26.298616
25.477588
25.024084
24.22467
23.751447
22.971002
22.480095
21.716401
21.209801
20.460889
19.94043
19.204533
18.671876
17.947415
17.404048
16.689617
16.136866
15.431213
14.870257
14.172269
13.604159
12.912843
12.338517
11.652986
11.073286
10.392741
9.8084237
9.1321438
8.5438981
7.8712255
7.2796805
6.6100117
6.0157475
5.3485237
4.7520798
4.0867785
3.4886624
2.8247895
2.2254833
1.5625645
0.96253096
0.30011072
32.264106
30.94096
30.341832
29.320656
28.886759
27.994756
27.578775
26.731214
26.298614
25.477585
25.024085
24.224669
23.751448
22.971001
22.480096
21.716401
21.209802
20.460888
19.940431
19.204532
18.671877
17.947415
17.404049
16.689617
16.136866
15.431212
14.870257
14.172268
13.604159
12.912843
12.338518
11.652986
11.073286
10.392741
9.808424
9.1321436
8.5438984
7.8712252
7.2796808
6.6100114
6.0157477
5.3485234
4.75208
4.0867783
3.4886626
2.8247893
2.2254835
1.5625642
0.96253128
0.3001107
32.251019
30.938408
30.34084
29.320407
28.886708
27.994723
27.578761
26.731206
26.298612
25.477583
25.024086
24.224668
23.751449
22.971
22.480096
21.7164
21.209803
20.460887
19.940432
19.204531
18.671877
17.947414
17.404049
16.689616
16.136867
15.431212
14.870258
14.172268
13.60416
12.912843
12.338518
11.652986
11.073286
10.39274
9.8084243
9.1321433
8.5438986
7.871225
7.279681
6.6100112
6.0157479
5.3485232
4.7520803
4.0867781
3.4886628
2.8247891
2.2254837
1.562564
0.96253158
0.30011067
32.242239
30.935491
30.339243
29.32042
28.886689
27.994701
27.578749
26.731198
26.298611
25.47758
25.024086
24.224667
23.75145
22.970999
22.480097
21.716399
21.209804
20.460887
19.940432
19.204531
18.671878
17.947414
17.40405
16.689616
16.136867
15.431212
14.870258
14.172268
13.60416
12.912842
12.338518
11.652985
11.073286
10.39274
9.8084245
9.132143
8.5438989
7.8712247
7.2796812
6.610011
6.0157481
5.348523
4.7520804
4.0867779
3.488663
2.8247889
2.2254839
1.5625638
0.96253187
0.30011064
32.231675
30.932692
30.337527
29.320417
28.886628
27.994669
27.578733
26.731189
26.298608
25.477578
25.024086
24.224665
23.75145
22.970998
22.480098
21.716398
21.209804
20.460886
19.940433
19.20453
18.671878
17.947413
17.40405
16.689615
16.136867
15.431211
14.870258
14.172267
13.60416
12.912842
12.338519
11.652985
11.073287
10.39274
9.8084247
9.1321428
8.5438991
7.8712245
7.2796814
6.6100108
6.0157483
5.3485228
4.7520806
4.0867777
3.4886632
2.8247887
2.225484
1.5625636
0.96253215
0.3001106
32.22467
30.929676
30.336099
29.320147
28.886464
27.994612
27.578707
26.731176
26.298604
25.477575
25.024086
24.224664
23.751451
22.970997
22.480098
21.716398
21.209805
20.460886
19.940433
19.20453
18.671879
17.947413
17.404051
16.689615
16.136868
15.431211
14.870259
14.172267
13.60416
12.912842
12.338519
11.652985
11.073287
10.39274
9.808425
9.1321426
8.5438993
7.8712244
7.2796816
6.6100106
6.0157485
5.3485227
4.7520808
4.0867776
3.4886633
2.8247886
2.2254842
1.5625635
0.96253241
0.30011056
32.216074
30.926685
30.335208
29.319607
28.886214
27.994539
27.578674
26.73116
26.298598
25.477571
25.024085
24.224663
23.751451
22.970997
22.480099
21.716397
21.209805
20.460885
19.940434
19.20453
18.671879
17.947413
17.404051
16.689615
16.136868
15.431211
14.870259
14.172267
13.604161
12.912841
12.338519
11.652985
11.073287
10.39274
9.8084252
9.1321424
8.5438995
7.8712242
7.2796818
6.6100105
6.0157487
5.3485225
4.7520809
4.0867774
3.4886635
2.8247884
2.2254843
1.5625633
0.96253266
0.30011051
32.210168
30.923783
30.334491
29.319027
28.88597
27.994472
27.578643
26.731148
26.298593
25.477568
25.024085
24.224662
23.751451
22.970996
22.480099
21.716397
21.209806
20.460885
19.940434
19.204529
18.67188
17.947412
17.404051
16.689614
16.136868
15.43121
14.870259
14.172267
13.604161
12.912841
12.338519
11.652984
11.073287
10.392739
9.8084253
9.1321423
8.5438996
7.871224
7.2796819
6.6100103
6.0157488
5.3485224
4.7520811
4.0867773
3.4886636
2.8247883
2.2254844
1.5625632
0.96253289
0.30011047
32.203266
30.921094
30.333704
29.318577
28.88579
27.994422
27.578619
26.73114
26.29859
25.477566
25.024084
24.224661
23.751452
22.970995
22.4801
21.716396
21.209806
20.460884
19.940435
19.204529
18.67188
17.947412
17.404052
16.689614
16.136869
15.43121
14.870259
14.172266
13.604161
12.912841
12.338519
11.652984
11.073288
10.392739
9.8084255
9.1321421
8.5438998
7.8712239
7.2796821
6.6100102
6.0157489
5.3485222
4.7520812
4.0867771
3.4886637
2.8247882
2.2254846
1.562563
0.96253312
0.30011042
32.198456
30.918729
30.332764
29.31823
28.885661
27.994386
27.578601
26.731137
26.298588
25.477564
25.024084
24.22466
23.751452
22.970995
22.4801
21.716396
21.209806
20.460884
19.940435
19.204528
18.67188
17.947412
17.404052
16.689614
16.136869
15.43121
14.87026
14.172266
13.604161
12.912841
12.33852
11.652984
11.073288
10.392739
9.8084257
9.132142
8.5438999
7.8712237
7.2796822
6.6100101
6.0157491
5.3485221
4.7520813
4.086777
3.4886638
2.8247881
2.2254847
1.5625629
0.96253333
0.30011038
32.19306
30.916496
30.331833
29.317926
28.885557
27.994357
27.578586
26.731138
26.298588
25.477563
25.024084
24.224659
23.751452
22.970994
22.4801
21.716395
21.209807
20.460883
19.940435
19.204528
18.671881
17.947411
17.404052
16.689614
16.136869
15.43121
14.87026
14.172266
13.604162
12.912841
12.33852
11.652984
11.073288
10.392739
9.8084258
9.1321418
8.5439
7.8712236
7.2796823
6.6100099
6.0157492
5.348522
4.7520814
4.0867769
3.4886639
2.824788
2.2254848
1.5625628
0.96253353
0.30011033
32.189177
30.914601
30.330932
29.317639
28.885464
27.994332
27.578571
26.73114
26.298588
25.477562
25.024084
24.224658
23.751453
22.970994
22.480101
21.716395
21.209807
20.460883
19.940435
19.204528
18.671881
17.947411
17.404052
16.689613
16.136869
15.431209
14.87026
14.172266
13.604162
12.91284
12.33852
11.652984
11.073288
10.392739
9.8084259
9.1321417
8.5439002
7.8712235
7.2796824
6.6100098
6.0157493
5.3485219
4.7520815
4.0867768
3.488664
2.8247879
2.2254848
1.5625628
0.96253372
0.30011028
32.185016
30.91273
30.330131
29.317378
28.88538
27.99431
27.578555
26.731143
26.298588
25.477562
25.024085
24.224658
23.751453
22.970993
22.480101
21.716394
21.209807
20.460883
19.940436
19.204528
18.671881
17.947411
17.404053
16.689613
16.13687
15.431209
14.87026
14.172266
13.604162
12.91284
12.33852
11.652984
11.073288
10.392739
9.808426
9.1321416
8.5439003
7.8712234
7.2796825
6.6100097
6.0157494
5.3485218
4.7520816
4.0867767
3.4886641
2.8247878
2.2254849
1.5625627
0.96253389
0.30011024
32.181879
30.911237
30.329395
29.317143
28.885306
27.99429
27.57854
26.731145
26.298589
25.477562
25.024085
24.224658
23.751453
22.970993
22.480101
21.716394
21.209808
20.460882
19.940436
19.204527
18.671881
17.947411
17.404053
16.689613
16.13687
15.431209
14.87026
14.172265
13.604162
12.91284
12.33852
11.652984
11.073288
10.392738
9.8084262
9.1321415
8.5439004
7.8712233
7.2796826
6.6100096
6.0157495
5.3485217
4.7520817
4.0867767
3.4886642
2.8247877
2.225485
1.5625626
0.96253406
0.3001102
32.178713
30.909703
30.328753
29.31694
28.885243
27.994274
27.578525
26.731148
26.29859
25.477562
25.024086
24.224657
23.751453
22.970992
22.480102
21.716394
21.209808
20.460882
19.940436
19.204527
18.671881
17.94741
17.404053
16.689613
16.13687
15.431209
14.870261
14.172265
13.604162
12.91284
12.33852
11.652983
11.073288
10.392738
9.8084263
9.1321414
8.5439005
7.8712232
7.2796827
6.6100096
6.0157495
5.3485217
4.7520818
4.0867766
3.4886643
2.8247876
2.2254851
1.5625625
0.96253422
0.30011015
32.176164
30.908583
30.328181
29.316765
28.88519
27.994261
27.578512
26.73115
26.298591
25.477563
25.024086
24.224657
23.751454
22.970992
22.480102
21.716393
21.209808
20.460882
19.940436
19.204527
18.671882
17.94741
17.404053
16.689613
16.13687
15.431209
14.870261
14.172265
13.604162
12.91284
12.338521
11.652983
11.073288
10.392738
9.8084264
9.1321413
8.5439006
7.8712231
7.2796828
6.6100095
6.0157496
5.3485216
4.7520819
4.0867765
3.4886644
2.8247875
2.2254851
1.5625625
0.96253436
0.30011011
32.173799
30.907357
30.32769
29.316619
28.885148
27.994251
27.578502
26.731151
26.298591
25.477564
25.024087
24.224657
23.751454
22.970992
22.480102
21.716393
21.209808
20.460882
19.940437
19.204527
18.671882
17.94741
17.404053
16.689612
16.13687
15.431209
14.870261
14.172265
13.604162
12.91284
12.338521
11.652983
11.073289
10.392738
9.8084264
9.1321412
8.5439006
7.871223
7.2796829
6.6100094
6.0157497
5.3485215
4.7520819
4.0867764
3.4886644
2.8247875
2.2254852
1.5625624
0.96253449
0.30011007
32.171685
30.906552
30.327271
29.316499
28.885115
27.994244
27.578493
26.731152
26.298591
25.477566
25.024088
24.224657
23.751454
22.970991
22.480102
21.716393
21.209809
20.460881
19.940437
19.204526
18.671882
17.94741
17.404053
16.689612
16.13687
15.431208
14.870261
14.172265
13.604163
12.91284
12.338521
11.652983
11.073289
10.392738
9.8084265
9.1321411
8.5439007
7.871223
7.2796829
6.6100093
6.0157498
5.3485214
4.752082
4.0867764
3.4886645
2.8247874
2.2254853
1.5625624
0.96253461
0.30011004
32.169997
30.905586
30.326913
29.316402
28.885091
27.994239
27.578487
26.731154
26.29859
25.477568
25.024089
24.224657
23.751454
22.970991
22.480102
21.716393
21.209809
20.460881
19.940437
19.204526
18.671882
17.94741
17.404054
16.689612
16.13687
15.431208
14.870261
14.172265
13.604163
12.91284
12.338521
11.652983
11.073289
10.392738
9.8084266
9.1321411
8.5439008
7.8712229
7.279683
6.6100093
6.0157498
5.3485214
4.752082
4.0867763
3.4886645
2.8247874
2.2254853
1.5625624
0.96253472
0.30011001
32.168139
30.905008
30.326622
29.316326
28.885074
27.994236
27.578482
26.731155
26.298589
25.477571
25.02409
24.224657
23.751455
22.970991
22.480102
21.716392
21.209809
20.460881
19.940437
19.204526
18.671882
17.94741
17.404054
16.689612
16.136871
15.431208
14.870261
14.172265
13.604163
12.91284
12.338521
11.652983
11.073289
10.392738
9.8084267
9.132141
8.5439008
7.8712228
7.2796831
6.6100092
6.0157499
5.3485213
4.7520821
4.0867763
3.4886646
2.8247873
2.2254853
1.5625623
0.96253482
0.30010998
32.166992
30.904279
30.326383
29.316272
28.885065
27.994236
27.578479
26.731157
26.298587
25.477573
25.02409
24.224657
23.751455
22.970991
22.480103
21.716392
21.209809
20.460881
19.940437
19.204526
18.671882
17.947409
17.404054
16.689612
16.136871
15.431208
14.870261
14.172265
13.604163
12.912839
12.338521
11.652983
11.073289
10.392738
9.8084267
9.1321409
8.5439009
7.8712228
7.2796831
6.6100092
6.0157499
5.3485213
4.7520821
4.0867762
3.4886646
2.8247873
2.2254854
1.5625623
0.9625349
0.30010995
32.165409
30.903886
30.326207
29.316237
28.885062
27.994238
27.578477
26.73116
26.298585
25.477575
25.024091
24.224657
23.751455
22.97099
22.480103
21.716392
21.209809
20.460881
19.940437
19.204526
18.671882
17.947409
17.404054
16.689612
16.136871
15.431208
14.870261
14.172265
13.604163
12.912839
12.338521
11.652983
11.073289
10.392738
9.8084268
9.1321409
8.5439009
7.8712228
7.2796832
6.6100091
6.0157499
5.3485213
4.7520822
4.0867762
3.4886647
2.8247872
2.2254854
1.5625623
0.96253497
0.30010993
32.164629
30.903372
30.326076
29.316219
28.885066
27.994242
27.578477
26.731162
26.298583
25.477577
25.024092
24.224657
23.751455
22.97099
22.480103
21.716392
21.209809
20.460881
19.940437
19.204526
18.671883
17.947409
17.404054
16.689612
16.136871
15.431208
14.870261
14.172264
13.604163
12.912839
12.338521
11.652983
11.073289
10.392738
9.8084268
9.1321408
8.543901
7.8712227
7.2796832
6.6100091
6.01575
5.3485212
4.7520822
4.0867762
3.4886647
2.8247872
2.2254854
1.5625623
0.96253502
0.30010992
32.163426
30.90315
30.325999
29.316217
28.885074
27.994248
27.578477
26.731165
26.298581
25.477578
25.024093
24.224657
23.751456
22.97099
22.480103
21.716392
21.209809
20.460881
19.940437
19.204526
18.671883
17.947409
17.404054
16.689612
16.136871
15.431208
14.870261
14.172264
13.604163
12.912839
12.338521
11.652983
11.073289
10.392738
9.8084268
9.1321408
8.543901
7.8712227
7.2796832
6.6100091
6.01575
5.3485212
4.7520822
4.0867761
3.4886647
2.8247872
2.2254855
1.5625623
0.96253505
0.30010991
32.162967
30.902803
30.325951
29.316226
28.885086
27.994254
27.578479
26.731168
26.29858
25.477579
25.024094
24.224658
23.751456
22.97099
22.480103
21.716392
21.209809
20.46088
19.940438
19.204526
18.671883
17.947409
17.404054
16.689612
16.136871
15.431208
14.870261
14.172264
13.604163
12.912839
12.338521
11.652983
11.073289
10.392738
9.8084269
9.1321408
8.543901
7.8712227
7.2796832
6.6100091
6.01575
5.3485212
4.7520822
4.0867761
3.4886647
2.8247872
2.2254855
1.5625623
0.96253507
0.30010991
32.162152
30.902704
30.325939
29.316242
28.885099
27.994261
27.578481
26.73117
26.29858
25.477579
25.024095
24.224658
23.751456
22.97099
22.480103
21.716392
21.209809
20.46088
19.940438
19.204526
18.671883
17.947409
17.404054
16.689612
16.136871
15.431208
14.870262
14.172264
13.604163
12.912839
12.338521
11.652983
11.073289
10.392738
9.8084269
9.1321408
8.5439011
7.8712226
7.2796833
6.610009
6.01575
5.3485212
4.7520823
4.0867761
3.4886647
2.8247872
2.2254855
1.5625623
0.96253505
0.30010991
32.16202
30.90246
30.325933
29.31626
28.885112
27.994267
27.578483
26.731172
26.298579
25.477579
25.024096
24.224658
23.751456
22.97099
22.480103
21.716391
21.209809
20.46088
19.940438
19.204525
18.671883
17.947409
17.404054
16.689612
16.136871
15.431208
14.870262
14.172264
13.604163
12.912839
12.338521
11.652983
11.073289
10.392738
9.8084269
9.1321408
8.5439011
7.8712226
7.2796833
6.610009
6.0157501
5.3485212
4.7520823
4.0867761
3.4886647
2.8247872
2.2254855
1.5625623
0.96253501
0.30010993
32.161553
30.902447
30.325943
29.316275
28.885122
27.994272
27.578485
26.731173
26.298579
25.47758
25.024096
24.224659
23.751456
22.97099
22.480103
21.716391
21.209809
20.46088
19.940438
19.204525
18.671883
17.947409
17.404054
16.689612
16.136871
15.431208
14.870262
14.172264
13.604163
12.912839
12.338521
11.652983
11.073289
10.392738
9.8084269
9.1321407
8.5439011
7.8712226
7.2796833
6.610009
6.01575
5.3485212
4.7520823
4.0867761
3.4886647
2.8247872
2.2254854
1.5625623
0.96253496
0.30010995
32.161699
30.902305
30.325942
29.316284
28.885128
27.994274
27.578486
26.731174
26.298579
25.47758
25.024096
24.224659
23.751456
22.97099
22.480103
21.716391
21.209809
20.46088
19.940438
19.204525
18.671883
17.947409
17.404054
16.689612
16.136871
15.431208
14.870262
14.172264
13.604163
12.912839
12.338521
11.652983
11.073289
10.392738
9.8084269
9.1321408
8.5439011
7.8712226
7.2796833
6.610009
6.01575
5.3485212
4.7520822
4.0867761
3.4886647
2.8247872
2.2254854
1.5625623
0.96253492
0.30010997
32.161481
30.902375
30.325947
29.316285
28.885128
27.994274
27.578486
26.731174
26.298579
25.47758
25.024096
24.224659
23.751456
22.97099
22.480103
21.716391
21.209809
20.46088
19.940438
19.204525
18.671883
17.947409
17.404054
16.689612
16.136871
15.431208
14.870262
14.172264
13.604163
12.912839
12.338521
11.652983
11.073289
10.392738
9.8084269
9.1321408
8.5439011
7.8712226
7.2796833
6.610009
6.01575
5.3485212
4.7520822
4.0867761
3.4886647
2.8247872
2.2254854
1.5625623
0.96253492
0.30010997
32.16185
30.902303
30.325935
29.316276
28.885122
27.994272
27.578485
26.731173
26.298579
25.47758
25.024096
24.224659
23.751456
22.97099
22.480103
21.716391
21.209809
20.46088
19.940438
19.204525
18.671883
17.947409
17.404054
16.689612
16.136871
15.431208
14.870262
14.172264
13.604163
12.912839
12.338521
11.652983
11.073289
10.392738
9.8084269
9.1321407
8.5439011
7.8712226
7.2796833
6.610009
6.01575
5.3485212
4.7520823
4.0867761
3.4886647
2.8247872
2.2254854
1.5625623
0.96253496
0.30010995
32.161863
30.902465
30.325934
29.31626
28.885112
27.994267
27.578483
26.731171
26.298579
25.477579
25.024096
24.224658
23.751456
22.97099
22.480103
21.716391
21.209809
20.46088
19.940438
19.204525
18.671883
17.947409
17.404054
16.689612
16.136871
15.431208
14.870262
14.172264
13.604163
12.912839
12.338521
11.652983
11.073289
10.392738
9.8084269
9.1321408
8.5439011
7.8712226
7.2796833
6.610009
6.0157501
5.3485212
4.7520823
4.0867761
3.4886647
2.8247872
2.2254855
1.5625623
0.96253501
0.30010993
32.16252
30.902501
30.325928
29.316243
28.885099
27.994261
27.578481
26.73117
26.29858
25.477579
25.024095
24.224658
23.751456
22.97099
22.480103
21.716392
21.209809
20.46088
19.940438
19.204526
18.671883
17.947409
17.404054
16.689612
16.136871
15.431208
14.870262
14.172264
13.604163
12.912839
12.338521
11.652983
11.073289
10.392738
9.8084269
9.1321408
8.5439011
7.8712226
7.2796833
6.610009
6.01575
5.3485212
4.7520823
4.0867761
3.4886647
2.8247872
2.2254855
1.5625623
0.96253505
0.30010991
32.162854
30.902755
30.325951
29.316228
28.885086
27.994254
27.578479
26.731167
26.29858
25.477579
25.024094
24.224658
23.751456
22.97099
22.480103
21.716392
21.209809
20.46088
19.940438
19.204526
18.671883
17.947409
17.404054
16.689612
16.136871
15.431208
14.870261
14.172264
13.604163
12.912839
12.338521
11.652983
11.073289
10.392738
9.8084269
9.1321408
8.543901
7.8712227
7.2796832
6.6100091
6.01575
5.3485212
4.7520822
4.0867761
3.4886647
2.8247872
2.2254855
1.5625623
0.96253507
0.30010991
32.163885
30.902889
30.325988
29.31622
28.885075
27.994247
27.578477
26.731165
26.298581
25.477578
25.024093
24.224657
23.751456
22.97099
22.480103
21.716392
21.209809
20.460881
19.940437
19.204526
18.671883
17.947409
17.404054
16.689612
16.136871
15.431208
14.870261
14.172264
13.604163
12.912839
12.338521
11.652983
11.073289
10.392738
9.8084268
9.1321408
8.543901
7.8712227
7.2796832
6.6100091
6.01575
5.3485212
4.7520822
4.0867761
3.4886647
2.8247872
2.2254855
1.5625623
0.96253505
0.30010991
32.164545
30.903272
30.326075
29.316224
28.885066
27.994242
27.578476
26.731162
26.298583
25.477577
25.024092
24.224657
23.751455
22.97099
22.480103
21.716392
21.209809
20.460881
19.940437
19.204526
18.671883
17.947409
17.404054
16.689612
16.136871
15.431208
14.870261
14.172264
13.604163
12.912839
12.338521
11.652983
11.073289
10.392738
9.8084268
9.1321408
8.543901
7.8712227
7.2796832
6.6100091
6.01575
5.3485212
4.7520822
4.0867762
3.4886647
2.8247872
2.2254854
1.5625623
0.96253502
0.30010992
32.165967
30.903559
30.326196
29.316242
28.885063
27.994238
27.578477
26.73116
26.298584
25.477575
25.024091
24.224657
23.751455
22.97099
22.480103
21.716392
21.209809
20.460881
19.940437
19.204526
18.671882
17.947409
17.404054
16.689612
16.136871
15.431208
14.870261
14.172265
13.604163
12.912839
12.338521
11.652983
11.073289
10.392738
9.8084268
9.1321409
8.5439009
7.8712228
7.2796832
6.6100091
6.0157499
5.3485213
4.7520822
4.0867762
3.4886647
2.8247872
2.2254854
1.5625623
0.96253497
0.30010993
32.166956
30.904134
30.326383
29.316279
28.885066
27.994236
27.578479
26.731157
26.298587
25.477573
25.02409
24.224657
23.751455
22.970991
22.480103
21.716392
21.209809
20.460881
19.940437
19.204526
18.671882
17.947409
17.404054
16.689612
16.136871
15.431208
14.870261
14.172265
13.604163
12.912839
12.338521
11.652983
11.073289
10.392738
9.8084267
9.1321409
8.5439009
7.8712228
7.2796831
6.6100092
6.0157499
5.3485213
4.7520821
4.0867762
3.4886646
2.8247873
2.2254854
1.5625623
0.9625349
0.30010995
32.1687
30.904595
30.32661
29.316335
28.885076
27.994237
27.578482
26.731155
26.298588
25.477571
25.02409
24.224657
23.751455
22.970991
22.480102
21.716392
21.209809
20.460881
19.940437
19.204526
18.671882
17.94741
17.404054
16.689612
16.136871
15.431208
14.870261
14.172265
13.604163
12.91284
12.338521
11.652983
11.073289
10.392738
9.8084267
9.132141
8.5439008
7.8712228
7.2796831
6.6100092
6.0157499
5.3485213
4.7520821
4.0867763
3.4886646
2.8247873
2.2254853
1.5625623
0.96253482
0.30010998
32.170141
30.905404
30.326913
29.316411
28.885093
27.994239
27.578487
26.731154
26.29859
25.477568
25.024089
24.224657
23.751454
22.970991
22.480102
21.716393
21.209809
20.460881
19.940437
19.204526
18.671882
17.94741
17.404054
16.689612
16.13687
15.431208
14.870261
14.172265
13.604163
12.91284
12.338521
11.652983
11.073289
10.392738
9.8084266
9.1321411
8.5439008
7.8712229
7.279683
6.6100093
6.0157498
5.3485214
4.752082
4.0867763
3.4886645
2.8247874
2.2254853
1.5625624
0.96253472
0.30011001
32.172124
30.906054
30.32726
29.31651
28.885118
27.994244
27.578493
26.731152
26.298591
25.477566
25.024088
24.224657
23.751454
22.970991
22.480102
21.716393
21.209809
20.460881
19.940437
19.204526
18.671882
17.94741
17.404053
16.689612
16.13687
15.431208
14.870261
14.172265
13.604163
12.91284
12.338521
11.652983
11.073289
10.392738
9.8084265
9.1321411
8.5439007
7.871223
7.2796829
6.6100093
6.0157498
5.3485214
4.752082
4.0867764
3.4886645
2.8247874
2.2254853
1.5625624
0.96253461
0.30011004
32.174194
30.907114
30.327686
29.316631
28.885151
27.994252
27.578502
26.731151
26.298591
25.477564
25.024087
24.224657
23.751454
22.970992
22.480102
21.716393
21.209808
20.460882
19.940437
19.204527
18.671882
17.94741
17.404053
16.689612
16.13687
15.431209
14.870261
14.172265
13.604162
12.91284
12.338521
11.652983
11.073289
10.392738
9.8084264
9.1321412
8.5439006
7.871223
7.2796829
6.6100094
6.0157497
5.3485215
4.7520819
4.0867764
3.4886644
2.8247875
2.2254852
1.5625624
0.96253449
0.30011007
32.176515
30.908028
30.328176
29.31678
28.885193
27.994262
27.578512
26.731149
26.298591
25.477563
25.024086
24.224657
23.751454
22.970992
22.480102
21.716393
21.209808
20.460882
19.940436
19.204527
18.671882
17.94741
17.404053
16.689613
16.13687
15.431209
14.870261
14.172265
13.604162
12.91284
12.338521
11.652983
11.073288
10.392738
9.8084264
9.1321413
8.5439006
7.8712231
7.2796828
6.6100095
6.0157496
5.3485216
4.7520819
4.0867765
3.4886644
2.8247875
2.2254851
1.5625625
0.96253436
0.30011011
32.179297
30.909377
30.328744
29.316955
28.885246
27.994275
27.578525
26.731148
26.29859
25.477562
25.024086
24.224657
23.751453
22.970992
22.480102
21.716394
21.209808
20.460882
19.940436
19.204527
18.671881
17.94741
17.404053
16.689613
16.13687
15.431209
14.870261
14.172265
13.604162
12.91284
12.33852
11.652983
11.073288
10.392738
9.8084263
9.1321414
8.5439005
7.8712232
7.2796827
6.6100096
6.0157495
5.3485217
4.7520818
4.0867766
3.4886643
2.8247876
2.2254851
1.5625625
0.96253422
0.30011015
32.182136
30.910631
30.329394
29.317161
28.88531
27.994291
27.578539
26.731145
26.298589
25.477562
25.024085
24.224657
23.751453
22.970993
22.480101
21.716394
21.209808
20.460882
19.940436
19.204527
18.671881
17.947411
17.404053
16.689613
16.13687
15.431209
14.87026
14.172265
13.604162
12.91284
12.33852
11.652984
11.073288
10.392738
9.8084262
9.1321415
8.5439004
7.8712233
7.2796826
6.6100096
6.0157495
5.3485217
4.7520817
4.0867767
3.4886642
2.8247877
2.225485
1.5625626
0.96253406
0.3001102
32.185791
30.912308
30.330116
29.317395
28.885384
27.99431
27.578555
26.731142
26.298588
25.477562
25.024085
24.224658
23.751453
22.970993
22.480101
21.716394
21.209807
20.460883
19.940436
19.204528
18.671881
17.947411
17.404053
16.689613
16.13687
15.431209
14.87026
14.172266
13.604162
12.91284
12.33852
11.652984
11.073288
10.392739
9.808426
9.1321416
8.5439003
7.8712234
7.2796825
6.6100097
6.0157494
5.3485218
4.7520816
4.0867767
3.4886641
2.8247878
2.2254849
1.5625627
0.96253389
0.30011024
32.189293
30.91394
30.330934
29.31766
28.885468
27.994333
27.578571
26.73114
26.298588
25.477562
25.024084
24.224658
23.751453
22.970994
22.480101
21.716395
21.209807
20.460883
19.940435
19.204528
18.671881
17.947411
17.404052
16.689613
16.136869
15.431209
14.87026
14.172266
13.604162
12.91284
12.33852
11.652984
11.073288
10.392739
9.8084259
9.1321417
8.5439002
7.8712235
7.2796824
6.6100098
6.0157493
5.3485219
4.7520815
4.0867768
3.488664
2.8247879
2.2254848
1.5625628
0.96253372
0.30011028
32.194041
30.915964
30.331811
29.317945
28.885561
27.994358
27.578586
26.731138
26.298588
25.477563
25.024084
24.224659
23.751452
22.970994
22.4801
21.716395
21.209807
20.460883
19.940435
19.204528
18.671881
17.947411
17.404052
16.689614
16.136869
15.43121
14.87026
14.172266
13.604162
12.912841
12.33852