/*--------------------------------*- C++ -*----------------------------------*\
| =========                 |                                                 |
| \\      /  F ield         | OpenFOAM: The Open Source CFD Toolbox           |
|  \\    /   O peration     | Version:  2312                                  |
|   \\  /    A nd           | Website:  www.openfoam.com                      |
|    \\/     M anipulation  |                                                 |
\*---------------------------------------------------------------------------*/
FoamFile
{
    version     2.0;
    format      ascii;
    arch        "LSB;label=32;scalar=64";
    class       surfaceScalarField;
    location    "7";
    object      phi;
}
// * * * * * * * * * * * * * * * * * * * * * * * * * * * * * * * * * * * * * //

dimensions      [0 3 -1 0 0 0 0];

oriented        oriented;

internalField   nonuniform List<scalar> 
7870
(
1.3248322e-10
2.8157668e-09
1.3360368e-10
-1.1204633e-12
1.1282894e-10
2.0774739e-11
1.1391604e-10
-1.0871047e-12
1.1435304e-10
-4.3700325e-13
1.128694e-10
1.4836364e-12
1.1380686e-10
-9.3745545e-13
1.1264711e-10
1.1597418e-12
1.1369612e-10
-1.0490085e-12
1.1266888e-10
1.0272425e-12
1.1363221e-10
-9.6333263e-13
1.1271579e-10
9.1642735e-13
1.1357673e-10
-8.6094815e-13
1.1276279e-10
8.1394267e-13
1.1352844e-10
-7.6565103e-13
1.1280605e-10
7.2238838e-13
1.1348642e-10
-6.8036772e-13
1.128447e-10
6.4171529e-13
1.1344968e-10
-6.0497521e-13
1.1287885e-10
5.7082848e-13
1.1341749e-10
-5.3864297e-13
1.1290887e-10
5.0862738e-13
1.133893e-10
-4.804356e-13
1.1293517e-10
4.5412758e-13
1.1336464e-10
-4.294636e-13
1.1295818e-10
4.0645995e-13
1.133431e-10
-3.849249e-13
1.1297824e-10
3.648642e-13
1.1332435e-10
-3.4611497e-13
1.1299567e-10
3.2868206e-13
1.1330809e-10
-3.1242446e-13
1.1301075e-10
2.9734831e-13
1.1329408e-10
-2.8333133e-13
1.130237e-10
2.7038079e-13
1.1328209e-10
-2.5839124e-13
1.1303472e-10
2.4737041e-13
1.1327195e-10
-2.3722822e-13
1.1304397e-10
2.2797218e-13
1.132635e-10
-2.1952649e-13
1.130516e-10
2.1189763e-13
1.1325663e-10
-2.0502379e-13
1.1305772e-10
1.9890945e-13
1.1325122e-10
-1.935023e-13
1.1306239e-10
1.88828e-13
1.1324717e-10
-1.8477533e-13
1.1306572e-10
1.8145052e-13
1.1324492e-10
-1.7920362e-13
1.130703e-10
1.7462353e-13
1.132529e-10
-1.8260001e-13
1.6791815e-13
3.5268975e-10
5.411327e-09
3.8076772e-10
-2.9198433e-11
3.3006684e-10
7.1475601e-11
3.3071725e-10
-1.7375175e-12
3.3095545e-10
-6.7520557e-13
3.2855374e-10
3.8853419e-12
3.2949729e-10
-1.8810073e-12
3.2780494e-10
2.8520882e-12
3.2926672e-10
-2.5107894e-12
3.2779145e-10
2.5025151e-12
3.2917191e-10
-2.3437944e-12
3.2784933e-10
2.2390054e-12
3.2908895e-10
-2.1005658e-12
3.2791375e-10
1.9891455e-12
3.2901756e-10
-1.8694676e-12
3.2797509e-10
1.7648652e-12
3.2895634e-10
-1.6616181e-12
3.2803053e-10
1.5675202e-12
3.2890318e-10
-1.4776262e-12
3.2807971e-10
1.3943003e-12
3.2885675e-10
-1.3156829e-12
3.28123e-10
1.2423764e-12
3.2881612e-10
-1.173555e-12
3.2816096e-10
1.109282e-12
3.2878058e-10
-1.0490807e-12
3.2819417e-10
9.9287045e-13
3.2874955e-10
-9.403038e-13
3.2822314e-10
8.9127805e-13
3.2872253e-10
-8.4550598e-13
3.2824831e-10
8.0289689e-13
3.2869909e-10
-7.6320202e-13
3.2827009e-10
7.2634896e-13
3.2867888e-10
-6.9212e-13
3.282888e-10
6.6045936e-13
3.2866158e-10
-6.3117731e-13
3.2830472e-10
6.0423115e-13
3.2864695e-10
-5.794574e-13
3.283181e-10
5.568231e-13
3.2863476e-10
-5.3618984e-13
3.2832913e-10
5.1753094e-13
3.2862484e-10
-5.0073439e-13
3.2833798e-10
4.8577398e-13
3.2861703e-10
-4.7255594e-13
3.2834473e-10
4.6112415e-13
3.2861111e-10
-4.5115265e-13
3.2834942e-10
4.4314313e-13
3.2860775e-10
-4.3752961e-13
3.2835717e-10
4.2519726e-13
3.286276e-10
-4.5303328e-13
4.0893482e-13
5.5878507e-10
7.8007919e-09
6.1571597e-10
-8.6129346e-11
5.4123819e-10
1.4595337e-10
5.420993e-10
-2.5986347e-12
5.4159746e-10
-1.7337206e-13
5.3896327e-10
6.5195342e-12
5.3932148e-10
-2.2392136e-12
5.3771721e-10
4.4563578e-12
5.3903079e-10
-3.8243702e-12
5.3765074e-10
3.8825594e-12
5.3894215e-10
-3.6352036e-12
5.3769296e-10
3.4881927e-12
5.3886047e-10
-3.2680699e-12
5.3774934e-10
3.1002752e-12
5.3879086e-10
-2.9109926e-12
5.3780586e-10
2.7498702e-12
5.3873226e-10
-2.5880267e-12
5.378578e-10
2.4419889e-12
5.3868187e-10
-2.3017035e-12
5.3790412e-10
2.1720502e-12
5.3863802e-10
-2.0495805e-12
5.3794498e-10
1.9354118e-12
5.3859969e-10
-1.8282662e-12
5.3798085e-10
1.7281284e-12
5.3856618e-10
-1.6344139e-12
5.3801223e-10
1.5468193e-12
5.3853691e-10
-1.4649828e-12
5.3803961e-10
1.3885718e-12
5.3851141e-10
-1.3173026e-12
5.3806342e-10
1.2508831e-12
5.3848929e-10
-1.1890662e-12
5.3808403e-10
1.1316118e-12
5.384702e-10
-1.0782985e-12
5.3810173e-10
1.0289332e-12
5.3845387e-10
-9.8331786e-13
5.381168e-10
9.4129808e-13
5.3844005e-10
-9.0269958e-13
5.3812947e-10
8.6739837e-13
5.3842853e-10
-8.3524475e-13
5.3813992e-10
8.0613713e-13
5.3841914e-10
-7.7995591e-13
5.3814831e-10
7.5660729e-13
5.3841174e-10
-7.3599283e-13
5.3815471e-10
7.1815802e-13
5.3840605e-10
-7.0249565e-13
5.3815902e-10
6.901786e-13
5.3840278e-10
-6.812895e-13
5.3816814e-10
6.5983716e-13
5.3843293e-10
-7.1782391e-13
6.3516938e-13
7.6851327e-10
9.9805287e-09
8.3931826e-10
-1.5693433e-10
7.4628296e-10
2.3898865e-10
7.4774159e-10
-4.0572774e-12
7.4662088e-10
9.47341e-13
7.4375324e-10
9.3871734e-12
7.4359117e-10
-2.0771476e-12
7.4209336e-10
5.9541664e-12
7.4326483e-10
-4.9958362e-12
7.4198787e-10
5.1595143e-12
7.4318836e-10
-4.8356896e-12
7.4201676e-10
4.6597851e-12
7.4310911e-10
-4.3604172e-12
7.4206544e-10
4.1439413e-12
7.4304172e-10
-3.8872732e-12
7.4211708e-10
3.6745135e-12
7.42986e-10
-3.4569519e-12
7.4216537e-10
3.2626272e-12
7.4293853e-10
-3.0748722e-12
7.4220869e-10
2.9018946e-12
7.4289737e-10
-2.7382664e-12
7.4224698e-10
2.5858005e-12
7.4286144e-10
-2.4427258e-12
7.4228063e-10
2.3089425e-12
7.4283003e-10
-2.1838127e-12
7.4231009e-10
2.06676e-12
7.4280258e-10
-1.9574791e-12
7.423358e-10
1.8553536e-12
7.4277867e-10
-1.7601685e-12
7.4235816e-10
1.6713844e-12
7.4275791e-10
-1.5888097e-12
7.4237752e-10
1.512e-12
7.4273999e-10
-1.440773e-12
7.4239416e-10
1.3747698e-12
7.4272466e-10
-1.3138183e-12
7.4240833e-10
1.2576296e-12
7.4271167e-10
-1.2060458e-12
7.4242024e-10
1.1588342e-12
7.4270085e-10
-1.1158551e-12
7.4243007e-10
1.0769178e-12
7.4269202e-10
-1.0419125e-12
7.4243797e-10
1.0106636e-12
7.4268506e-10
-9.8308567e-13
7.42444e-10
9.5921958e-13
7.4267962e-10
-9.3811393e-13
7.4244791e-10
9.2188128e-13
7.4267629e-10
-9.096709e-13
7.4245775e-10
8.7838523e-13
7.4271428e-10
-9.7435558e-13
8.4656172e-13
9.4558808e-10
1.1983191e-08
1.0531018e-09
-2.6444807e-10
9.4564234e-10
3.4644811e-10
9.4772199e-10
-6.1369273e-12
9.4600202e-10
2.6673058e-12
9.4290632e-10
1.2482865e-11
9.4230196e-10
-1.4727808e-12
9.4093341e-10
7.3227094e-12
9.4196868e-10
-6.0311068e-12
9.408024e-10
6.325801e-12
9.4191032e-10
-5.9436102e-12
9.4082024e-10
5.7498616e-12
9.4183466e-10
-5.3748387e-12
9.4086162e-10
5.1169812e-12
9.4176995e-10
-4.7956053e-12
9.4090836e-10
4.5361063e-12
9.4171738e-10
-4.2659687e-12
9.4095289e-10
4.027113e-12
9.41673e-10
-3.7949832e-12
9.409931e-10
3.5817964e-12
9.4163466e-10
-3.3798312e-12
9.4102873e-10
3.1917358e-12
9.4160123e-10
-3.0152298e-12
9.4106006e-10
2.850111e-12
9.41572e-10
-2.6957515e-12
9.4108751e-10
2.5512468e-12
9.4154646e-10
-2.4164232e-12
9.4111148e-10
2.2903249e-12
9.4152419e-10
-2.1728732e-12
9.4113234e-10
2.0632331e-12
9.4150485e-10
-1.9613254e-12
9.4115039e-10
1.8664619e-12
9.4148817e-10
-1.7785459e-12
9.4116591e-10
1.6970207e-12
9.4147387e-10
-1.6217775e-12
9.4117914e-10
1.5523678e-12
9.4146177e-10
-1.4886797e-12
9.4119025e-10
1.4303516e-12
9.4145167e-10
-1.3772777e-12
9.4119943e-10
1.3291618e-12
9.4144344e-10
-1.2859235e-12
9.4120682e-10
1.2472892e-12
9.4143694e-10
-1.2132069e-12
9.4121246e-10
1.1836996e-12
9.4143177e-10
-1.1574288e-12
9.4121597e-10
1.1376798e-12
9.4142836e-10
-1.1220563e-12
9.412261e-10
1.0806464e-12
9.4147215e-10
-1.2204057e-12
1.0416648e-12
1.1478548e-09
1.3783586e-08
1.2554441e-09
-3.7203732e-10
1.1387423e-09
4.6314988e-10
1.1420802e-09
-9.4748315e-12
1.1397173e-09
5.0301915e-12
1.1364227e-09
1.5777425e-11
1.1354538e-09
-5.038544e-13
1.1342391e-09
8.5374327e-12
1.1351437e-09
-6.9357261e-12
1.1340943e-09
7.3751989e-12
1.1351087e-09
-6.9580055e-12
1.1341032e-09
6.7553995e-12
1.1350376e-09
-6.309267e-12
1.1341376e-09
6.0169417e-12
1.1349759e-09
-5.6339148e-12
1.1341795e-09
5.3325684e-12
1.1349267e-09
-5.0132049e-12
1.1342202e-09
4.7336499e-12
1.1348855e-09
-4.460369e-12
1.1342572e-09
4.2101744e-12
1.1348501e-09
-3.9727861e-12
1.13429e-09
3.7518095e-12
1.1348193e-09
-3.544444e-12
1.134319e-09
3.350372e-12
1.1347923e-09
-3.1690314e-12
1.1343444e-09
2.9991456e-12
1.1347687e-09
-2.8407373e-12
1.1343666e-09
2.6924657e-12
1.1347481e-09
-2.5544469e-12
1.1343858e-09
2.4255114e-12
1.1347303e-09
-2.3057408e-12
1.1344026e-09
2.1941714e-12
1.1347148e-09
-2.0908315e-12
1.1344169e-09
1.9949413e-12
1.1347016e-09
-1.9064869e-12
1.1344292e-09
1.82484e-12
1.1346904e-09
-1.7499603e-12
1.1344394e-09
1.681341e-12
1.1346811e-09
-1.6189306e-12
1.1344479e-09
1.5623143e-12
1.1346735e-09
-1.5114578e-12
1.1344548e-09
1.4659766e-12
1.1346675e-09
-1.4258698e-12
1.13446e-09
1.3911281e-12
1.1346626e-09
-1.3599986e-12
1.1344631e-09
1.3371363e-12
1.1346591e-09
-1.317995e-12
1.1344732e-09
1.2665025e-12
1.1347069e-09
-1.4540721e-12
1.219281e-12
1.2975115e-09
1.5434324e-08
1.4472622e-09
-5.2178805e-10
1.3264487e-09
5.8396342e-10
1.3307287e-09
-1.3754839e-11
1.3277122e-09
8.0466681e-12
1.3242948e-09
1.9194823e-11
1.3230411e-09
7.4980892e-13
1.3220093e-09
9.5692908e-12
1.32279e-09
-7.7164464e-12
1.3218629e-09
8.3022787e-12
1.3227838e-09
-7.8789233e-12
1.3218651e-09
7.6741692e-12
1.3227182e-09
-7.1624278e-12
1.3218931e-09
6.8420767e-12
1.32266e-09
-6.4007999e-12
1.3219301e-09
6.062443e-12
1.3226143e-09
-5.697369e-12
1.3219669e-09
5.3809835e-12
1.3225764e-09
-5.0698669e-12
1.3220007e-09
4.7859198e-12
1.322544e-09
-4.5160836e-12
1.3220308e-09
4.2650276e-12
1.3225157e-09
-4.0294227e-12
1.3220573e-09
3.8088293e-12
1.322491e-09
-3.6027984e-12
1.3220805e-09
3.4096472e-12
1.3224695e-09
-3.2296502e-12
1.3221009e-09
3.0610458e-12
1.3224506e-09
-2.9041945e-12
1.3221186e-09
2.7575611e-12
1.3224343e-09
-2.6214297e-12
1.3221339e-09
2.4945355e-12
1.3224201e-09
-2.3770656e-12
1.3221471e-09
2.267997e-12
1.322408e-09
-2.1674376e-12
1.3221583e-09
2.0745634e-12
1.3223978e-09
-1.9894274e-12
1.3221677e-09
1.911365e-12
1.3223892e-09
-1.8403962e-12
1.3221755e-09
1.7759776e-12
1.3223822e-09
-1.7181348e-12
1.3221818e-09
1.6663622e-12
1.3223767e-09
-1.6207267e-12
1.3221867e-09
1.5811696e-12
1.3223722e-09
-1.545513e-12
1.3221894e-09
1.5199373e-12
1.3223686e-09
-1.4971843e-12
1.3221991e-09
1.4359075e-12
1.3224188e-09
-1.6737552e-12
1.3787517e-12
1.4872631e-09
1.6895311e-08
1.6286198e-09
-6.6314482e-10
1.507781e-09
7.0480227e-10
1.5134897e-09
-1.94636e-11
1.5100371e-09
1.1499309e-11
1.5065547e-09
2.2677177e-11
1.5050779e-09
2.2266584e-12
1.5042499e-09
1.0397262e-11
1.5049107e-09
-8.377291e-12
1.5041089e-09
9.1041309e-12
1.5049365e-09
-8.706587e-12
1.5041058e-09
8.5049182e-12
1.504877e-09
-7.9336178e-12
1.5041278e-09
7.5913022e-12
1.5048224e-09
-7.0954225e-12
1.50416e-09
6.7248209e-12
1.5047803e-09
-6.3176684e-12
1.504193e-09
5.9683292e-12
1.5047458e-09
-5.6227497e-12
1.5042234e-09
5.3083321e-12
1.5047164e-09
-5.0090585e-12
1.5042507e-09
4.730755e-12
1.5046908e-09
-4.4695578e-12
1.5042747e-09
4.2249047e-12
1.5046684e-09
-3.9964984e-12
1.5042958e-09
3.7822262e-12
1.5046489e-09
-3.5826593e-12
1.5043143e-09
3.3955894e-12
1.5046318e-09
-3.2216615e-12
1.5043304e-09
3.0589525e-12
1.5046169e-09
-2.9079823e-12
1.5043443e-09
2.7671668e-12
1.5046041e-09
-2.6368793e-12
1.5043563e-09
2.5158387e-12
1.5045931e-09
-2.4042972e-12
1.5043665e-09
2.3012232e-12
1.5045838e-09
-2.206781e-12
1.5043751e-09
2.1201389e-12
1.5045761e-09
-2.0414029e-12
1.5043822e-09
1.9698935e-12
1.5045697e-09
-1.9057077e-12
1.5043879e-09
1.8482117e-12
1.5045647e-09
-1.7975535e-12
1.5043923e-09
1.753609e-12
1.5045605e-09
-1.7137774e-12
1.5043946e-09
1.6858798e-12
1.5045568e-09
-1.6594473e-12
1.5044039e-09
1.5888805e-12
1.5046082e-09
-1.8781208e-12
1.5198316e-12
1.6187916e-09
1.822477e-08
1.798472e-09
-8.4282531e-10
1.6834444e-09
8.1982987e-10
1.6892508e-09
-2.5269928e-11
1.6864847e-09
1.4265358e-11
1.6831681e-09
2.5993743e-11
1.6815577e-09
3.8370565e-12
1.6809597e-09
1.0995321e-11
1.6815064e-09
-8.924029e-12
1.6808319e-09
9.7786447e-12
1.6815672e-09
-9.4418736e-12
1.6808251e-09
9.2470353e-12
1.6815141e-09
-8.622696e-12
1.6808414e-09
8.2640695e-12
1.6814634e-09
-7.7174399e-12
1.680869e-09
7.3192561e-12
1.681425e-09
-6.8737404e-12
1.6808981e-09
6.4953038e-12
1.681394e-09
-6.1186642e-12
1.6809252e-09
5.7770619e-12
1.6813676e-09
-5.4513745e-12
1.6809496e-09
5.1486668e-12
1.6813446e-09
-4.8645338e-12
1.6809712e-09
4.5982965e-12
1.6813246e-09
-4.3498388e-12
1.6809902e-09
4.1166047e-12
1.681307e-09
-3.8994964e-12
1.6810068e-09
3.6958428e-12
1.6812917e-09
-3.5066046e-12
1.6810212e-09
3.329456e-12
1.6812784e-09
-3.1651792e-12
1.6810337e-09
3.0118587e-12
1.6812669e-09
-2.8700755e-12
1.6810445e-09
2.7382809e-12
1.6812571e-09
-2.6168889e-12
1.6810536e-09
2.5046528e-12
1.6812487e-09
-2.4018625e-12
1.6810613e-09
2.3075133e-12
1.6812417e-09
-2.2218084e-12
1.6810677e-09
2.1439279e-12
1.681236e-09
-2.074049e-12
1.6810729e-09
2.0114051e-12
1.6812315e-09
-1.9562367e-12
1.6810768e-09
1.9083383e-12
1.6812277e-09
-1.8647008e-12
1.6810788e-09
1.83486e-12
1.681224e-09
-1.8047172e-12
1.6810874e-09
1.7255008e-12
1.6812754e-09
-2.0660717e-12
1.6425651e-12
1.7949287e-09
1.9378091e-08
1.9616393e-09
-1.0095358e-09
1.8532868e-09
9.281823e-10
1.8575607e-09
-2.9543792e-11
1.8569147e-09
1.491131e-11
1.8541298e-09
2.8778637e-11
1.8524829e-09
5.4839996e-12
1.8521405e-09
1.1337668e-11
1.8525785e-09
-9.3620055e-12
1.8520321e-09
1.0325007e-11
1.8526762e-09
-1.0085964e-11
1.8520227e-09
9.9005596e-12
1.85263e-09
-9.22997e-12
1.8520337e-09
8.8603154e-12
1.8525832e-09
-8.2669341e-12
1.8520568e-09
7.8457114e-12
1.8525486e-09
-7.3655965e-12
1.8520821e-09
6.961877e-12
1.852521e-09
-6.5575864e-12
1.852106e-09
6.1920697e-12
1.8524976e-09
-5.8429869e-12
1.8521275e-09
5.5187132e-12
1.8524773e-09
-5.2142951e-12
1.8521466e-09
4.9289489e-12
1.8524596e-09
-4.6627601e-12
1.8521634e-09
4.4127257e-12
1.8524441e-09
-4.1801031e-12
1.8521781e-09
3.9617513e-12
1.8524305e-09
-3.7589692e-12
1.8521909e-09
3.5690215e-12
1.8524187e-09
-3.3929713e-12
1.852202e-09
3.2285664e-12
1.8524086e-09
-3.0766111e-12
1.8522116e-09
2.9352847e-12
1.8523998e-09
-2.8051757e-12
1.8522197e-09
2.6848192e-12
1.8523925e-09
-2.5746408e-12
1.8522265e-09
2.4734605e-12
1.8523863e-09
-2.3815871e-12
1.8522322e-09
2.2980584e-12
1.8523812e-09
-2.2231387e-12
1.8522367e-09
2.155926e-12
1.8523773e-09
-2.0967628e-12
1.8522402e-09
2.045347e-12
1.8523738e-09
-1.9982858e-12
1.8522418e-09
1.9668643e-12
1.8523701e-09
-1.9330246e-12
1.8522497e-09
1.8459048e-12
1.8524204e-09
-2.2367252e-12
1.7472181e-12
1.9197935e-09
2.0406547e-08
2.1135964e-09
-1.2033388e-09
2.0174673e-09
1.0243114e-09
2.0199053e-09
-3.1981783e-11
2.021524e-09
1.3292536e-11
2.0194936e-09
3.0809028e-11
2.017872e-09
7.1056547e-12
2.0177981e-09
1.1411502e-11
2.0181296e-09
-9.6934337e-12
2.0177102e-09
1.0744384e-11
2.0182643e-09
-1.0640051e-11
2.0176987e-09
1.0466184e-11
2.0182248e-09
-9.756097e-12
2.0177047e-09
9.380419e-12
2.0181821e-09
-8.7443498e-12
2.0177233e-09
8.3045132e-12
2.0181513e-09
-7.7935763e-12
2.0177448e-09
7.368332e-12
2.018127e-09
-6.9397836e-12
2.0177655e-09
6.553592e-12
2.0181066e-09
-6.184111e-12
2.0177842e-09
5.8410907e-12
2.018089e-09
-5.5190191e-12
2.0178009e-09
5.2170275e-12
2.0180735e-09
-4.9354129e-12
2.0178155e-09
4.6707316e-12
2.01806e-09
-4.4246102e-12
2.0178283e-09
4.1934403e-12
2.0180482e-09
-3.9788716e-12
2.0178395e-09
3.777761e-12
2.018038e-09
-3.5914638e-12
2.0178492e-09
3.417392e-12
2.0180291e-09
-3.2565826e-12
2.0178575e-09
3.1069439e-12
2.0180216e-09
-2.969247e-12
2.0178646e-09
2.8418096e-12
2.0180151e-09
-2.7251998e-12
2.0178705e-09
2.6180628e-12
2.0180098e-09
-2.5208189e-12
2.0178754e-09
2.4323642e-12
2.0180054e-09
-2.3530539e-12
2.0178794e-09
2.2818519e-12
2.0180019e-09
-2.2192087e-12
2.0178825e-09
2.1647123e-12
2.0179989e-09
-2.1146196e-12
2.0178838e-09
2.0819614e-12
2.0179952e-09
-2.0444867e-12
2.0178908e-09
1.9502829e-12
2.0180435e-09
-2.3893951e-12
1.8342325e-12
2.0827997e-09
2.1271998e-08
2.2582653e-09
-1.3788045e-09
2.1749585e-09
1.1076182e-09
2.1776453e-09
-3.4668518e-11
2.1804197e-09
1.0518065e-11
2.1792976e-09
3.1931112e-11
2.1777349e-09
8.6683768e-12
2.1779345e-09
1.1211975e-11
2.17816e-09
-9.9190077e-12
2.1778657e-09
1.1038747e-11
2.1783314e-09
-1.1105765e-11
2.1778526e-09
1.0944922e-11
2.1782987e-09
-1.0202151e-11
2.177854e-09
9.8250914e-12
2.1782601e-09
-9.1504723e-12
2.1778684e-09
8.6962969e-12
2.1782331e-09
-8.158313e-12
2.1778862e-09
7.715227e-12
2.1782122e-09
-7.2657828e-12
2.1779037e-09
6.8621112e-12
2.1781948e-09
-6.4751947e-12
2.1779196e-09
6.1162167e-12
2.1781797e-09
-5.7790933e-12
2.1779338e-09
5.4628967e-12
2.1781666e-09
-5.1681368e-12
2.1779463e-09
4.8909441e-12
2.1781551e-09
-4.6333191e-12
2.1779573e-09
4.3911965e-12
2.178145e-09
-4.1665821e-12
2.1779668e-09
3.9559326e-12
2.1781363e-09
-3.7609009e-12
2.1779751e-09
3.5785691e-12
2.1781287e-09
-3.410212e-12
2.1779822e-09
3.2534718e-12
2.1781223e-09
-3.1093064e-12
2.1779882e-09
2.9758201e-12
2.1781168e-09
-2.8537273e-12
2.1779933e-09
2.7415021e-12
2.1781122e-09
-2.6396789e-12
2.1779975e-09
2.5470154e-12
2.1781084e-09
-2.46396e-12
2.178001e-09
2.3893451e-12
2.1781055e-09
-2.3237332e-12
2.1780036e-09
2.2665914e-12
2.1781028e-09
-2.2138655e-12
2.1780045e-09
2.1802946e-12
2.1780993e-09
-2.1392966e-12
2.1780107e-09
2.0388757e-12
2.1781449e-09
-2.5235747e-12
1.9041889e-12
2.1996734e-09
2.2020574e-08
2.3910868e-09
-1.5702179e-09
2.3269705e-09
1.1717345e-09
2.330976e-09
-3.8674008e-11
2.3336959e-09
7.7981611e-12
2.3335769e-09
3.2050144e-11
2.3320818e-09
1.0163478e-11
2.3325516e-09
1.0742142e-11
2.3326704e-09
-1.0037861e-11
2.3324982e-09
1.1210992e-11
2.3328775e-09
-1.1485044e-11
2.3324843e-09
1.1338055e-11
2.3328518e-09
-1.0569585e-11
2.3324816e-09
1.0195312e-11
2.3328175e-09
-9.4863973e-12
2.3324918e-09
9.0219611e-12
2.3327942e-09
-8.4607021e-12
2.3325061e-09
8.0033615e-12
2.3327766e-09
-7.5363426e-12
2.3325204e-09
7.1183277e-12
2.3327621e-09
-6.716894e-12
2.3325336e-09
6.3447059e-12
2.3327496e-09
-5.9950926e-12
2.3325454e-09
5.6670993e-12
2.3327387e-09
-5.361441e-12
2.3325558e-09
5.0738461e-12
2.3327292e-09
-4.8066844e-12
2.3325649e-09
4.5554522e-12
2.3327209e-09
-4.3225087e-12
2.3325729e-09
4.1039255e-12
2.3327136e-09
-3.901651e-12
2.3325797e-09
3.7124501e-12
2.3327074e-09
-3.537834e-12
2.3325856e-09
3.375189e-12
2.332702e-09
-3.2256594e-12
2.3325907e-09
3.0871443e-12
2.3326974e-09
-2.9605044e-12
2.3325949e-09
2.8440492e-12
2.3326936e-09
-2.7384277e-12
2.3325984e-09
2.6422646e-12
2.3326905e-09
-2.5561013e-12
2.3326012e-09
2.4786441e-12
2.3326881e-09
-2.4105687e-12
2.3326034e-09
2.3512128e-12
2.3326858e-09
-2.2962556e-12
2.3326041e-09
2.2620747e-12
2.3326825e-09
-2.217715e-12
2.3326094e-09
2.1119708e-12
2.3327247e-09
-2.6389208e-12
1.957774e-12
2.3505654e-09
2.2618259e-08
2.5202445e-09
-1.739897e-09
2.4731702e-09
1.2188088e-09
2.4791191e-09
-4.4622918e-11
2.481445e-09
5.472275e-12
2.4823399e-09
3.1155269e-11
2.4809187e-09
1.1584626e-11
2.481653e-09
1.0007796e-11
2.4816631e-09
-1.0047924e-11
2.4816086e-09
1.1265469e-11
2.4819032e-09
-1.1779566e-11
2.4815938e-09
1.1647382e-11
2.4818843e-09
-1.0860027e-11
2.4815872e-09
1.0492371e-11
2.4818543e-09
-9.7534538e-12
2.4815936e-09
9.2826529e-12
2.4818347e-09
-8.701863e-12
2.4816043e-09
8.2337523e-12
2.4818204e-09
-7.7524263e-12
2.4816156e-09
7.3231376e-12
2.4818088e-09
-6.9100505e-12
2.4816261e-09
6.5273495e-12
2.4817988e-09
-6.1677602e-12
2.4816356e-09
5.8303379e-12
2.4817901e-09
-5.5159867e-12
2.4816439e-09
5.2200647e-12
2.4817825e-09
-4.9452977e-12
2.4816512e-09
4.6867697e-12
2.4817759e-09
-4.4471834e-12
2.4816575e-09
4.222246e-12
2.4817701e-09
-4.0141945e-12
2.481663e-09
3.819493e-12
2.4817651e-09
-3.6398842e-12
2.4816678e-09
3.4725119e-12
2.4817608e-09
-3.3187033e-12
2.4816718e-09
3.1761631e-12
2.4817572e-09
-3.0458956e-12
2.4816752e-09
2.9260549e-12
2.4817541e-09
-2.8174026e-12
2.481678e-09
2.7184379e-12
2.4817517e-09
-2.6297933e-12
2.4816802e-09
2.5500559e-12
2.4817497e-09
-2.4800137e-12
2.481682e-09
2.4188698e-12
2.4817479e-09
-2.3620833e-12
2.4816824e-09
2.3275731e-12
2.4817447e-09
-2.2800617e-12
2.4816868e-09
2.169898e-12
2.4817831e-09
-2.7352391e-12
1.9957522e-12
2.466943e-09
2.3099566e-08
2.6410219e-09
-1.9139759e-09
2.6141428e-09
1.2456879e-09
2.6212366e-09
-5.1716762e-11
2.6237731e-09
2.9357375e-12
2.6255811e-09
2.9347347e-11
2.6242466e-09
1.2919116e-11
2.6252409e-09
9.0135169e-12
2.6251398e-09
-9.9468827e-12
2.6251978e-09
1.1207503e-11
2.6254089e-09
-1.199074e-11
2.6251812e-09
1.1875173e-11
2.6253964e-09
-1.1075227e-11
2.6251709e-09
1.0717838e-11
2.6253706e-09
-9.9531703e-12
2.6251735e-09
9.4797391e-12
2.6253548e-09
-8.8831122e-12
2.6251809e-09
8.4076085e-12
2.6253437e-09
-7.9151791e-12
2.6251892e-09
7.4776104e-12
2.6253348e-09
-7.0556717e-12
2.6251971e-09
6.6650966e-12
2.6253273e-09
-6.2979896e-12
2.6252042e-09
5.9534575e-12
2.6253208e-09
-5.6325707e-12
2.6252105e-09
5.3303553e-12
2.625315e-09
-5.0498727e-12
2.625216e-09
4.7858271e-12
2.62531e-09
-4.5412479e-12
2.6252208e-09
4.3115051e-12
2.6253057e-09
-4.0991108e-12
2.6252249e-09
3.9002503e-12
2.6253019e-09
-3.7168879e-12
2.6252285e-09
3.5459425e-12
2.6252987e-09
-3.3889167e-12
2.6252316e-09
3.2433349e-12
2.625296e-09
-3.11034e-12
2.6252341e-09
2.9879414e-12
2.6252937e-09
-2.8770095e-12
2.6252362e-09
2.7759272e-12
2.6252919e-09
-2.6854145e-12
2.625238e-09
2.6039485e-12
2.6252904e-09
-2.5324261e-12
2.6252393e-09
2.4699129e-12
2.6252889e-09
-2.411697e-12
2.6252394e-09
2.3771162e-12
2.625286e-09
-2.3267084e-12
2.6252429e-09
2.2130264e-12
2.6253202e-09
-2.8124705e-12
2.0189421e-12
2.6096218e-09
2.3438194e-08
2.7612491e-09
-2.0656033e-09
2.7498797e-09
1.2570572e-09
2.7569731e-09
-5.8810081e-11
2.760745e-09
-8.3618252e-13
2.7632963e-09
2.6796002e-11
2.7620704e-09
1.414503e-11
2.7633169e-09
7.767023e-12
2.7631022e-09
-9.7322129e-12
2.7632665e-09
1.1043235e-11
2.7633955e-09
-1.2119706e-11
2.7632465e-09
1.2024117e-11
2.7633883e-09
-1.1217014e-11
2.7632326e-09
1.0873553e-11
2.7633666e-09
-1.0087229e-11
2.7632316e-09
9.6147946e-12
2.7633544e-09
-9.0059315e-12
2.7632357e-09
8.5263157e-12
2.7633464e-09
-8.0259046e-12
2.7632411e-09
7.5829725e-12
2.7633403e-09
-7.1549115e-12
2.7632464e-09
6.7590367e-12
2.7633352e-09
-6.3868075e-12
2.7632512e-09
6.0374304e-12
2.7633307e-09
-5.7121103e-12
2.7632555e-09
5.405588e-12
2.7633269e-09
-5.1212318e-12
2.7632593e-09
4.8534054e-12
2.7633235e-09
-4.605442e-12
2.7632626e-09
4.3724059e-12
2.7633205e-09
-4.1570672e-12
2.7632654e-09
3.9553577e-12
2.763318e-09
-3.76945e-12
2.7632679e-09
3.5960583e-12
2.7633158e-09
-3.4368505e-12
2.76327e-09
3.2891875e-12
2.763314e-09
-3.1543424e-12
2.7632717e-09
3.0301939e-12
2.7633124e-09
-2.9177147e-12
2.7632732e-09
2.8151826e-12
2.7633111e-09
-2.7234e-12
2.7632744e-09
2.6407444e-12
2.7633101e-09
-2.5682161e-12
2.7632753e-09
2.5047439e-12
2.7633091e-09
-2.4454937e-12
2.7632751e-09
2.4110791e-12
2.7633065e-09
-2.3580722e-12
2.7632778e-09
2.2417602e-12
2.763336e-09
-2.8706785e-12
2.0281968e-12
2.72591e-09
2.3660534e-08
2.8745454e-09
-2.2142386e-09
2.8808037e-09
1.2507989e-09
2.8867441e-09
-6.4750528e-11
2.8923682e-09
-6.4602229e-12
2.895484e-09
2.3680196e-11
2.8943962e-09
1.5232824e-11
2.8958765e-09
6.2866603e-12
2.8955481e-09
-9.4037885e-12
2.8958132e-09
1.0778135e-11
2.8958618e-09
-1.216834e-11
2.8957893e-09
1.2096674e-11
2.8958599e-09
-1.1287629e-11
2.8957721e-09
1.0961398e-11
2.8958424e-09
-1.0157554e-11
2.8957677e-09
9.6895198e-12
2.8958337e-09
-9.0719808e-12
2.8957686e-09
8.5913986e-12
2.8958288e-09
-8.0860565e-12
2.8957712e-09
7.640584e-12
2.8958253e-09
-7.2090565e-12
2.895774e-09
6.8103833e-12
2.8958225e-09
-6.4353595e-12
2.8957766e-09
6.0833404e-12
2.8958201e-09
-5.7556298e-12
2.895779e-09
5.4467335e-12
2.895818e-09
-5.1602933e-12
2.8957811e-09
4.8903762e-12
2.8958162e-09
-4.6405913e-12
2.8957829e-09
4.4057337e-12
2.8958146e-09
-4.188809e-12
2.8957845e-09
3.9855251e-12
2.8958133e-09
-3.7982455e-12
2.8957858e-09
3.6235037e-12
2.8958121e-09
-3.4631196e-12
2.895787e-09
3.3143093e-12
2.8958111e-09
-3.1784663e-12
2.8957879e-09
3.0533535e-12
2.8958102e-09
-2.9400385e-12
2.8957887e-09
2.8367062e-12
2.8958096e-09
-2.7442347e-12
2.8957894e-09
2.6609141e-12
2.895809e-09
-2.5878407e-12
2.8957899e-09
2.52381e-12
2.8958084e-09
-2.4639139e-12
2.8957896e-09
2.4298808e-12
2.8958061e-09
-2.3746096e-12
2.8957913e-09
2.2565349e-12
2.8958307e-09
-2.9100377e-12
2.0243869e-12
2.8610383e-09
2.3747746e-08
2.9874439e-09
-2.3406442e-09
3.0067876e-09
1.2314551e-09
3.0115946e-09
-6.9557532e-11
3.0187847e-09
-1.3650308e-11
3.0221963e-09
2.0268626e-11
3.0212586e-09
1.6170501e-11
3.0229232e-09
4.6220621e-12
3.0224798e-09
-8.9604319e-12
3.0228386e-09
1.0419364e-11
3.0228083e-09
-1.2138085e-11
3.0228094e-09
1.2095609e-11
3.0228112e-09
-1.1289443e-11
3.0227892e-09
1.0983407e-11
3.0227979e-09
-1.0166228e-11
3.0227817e-09
9.7057551e-12
3.0227927e-09
-9.0830621e-12
3.0227796e-09
8.6045137e-12
3.0227908e-09
-8.0972169e-12
3.0227794e-09
7.651926e-12
3.0227899e-09
-7.2195091e-12
3.0227798e-09
6.8204592e-12
3.0227893e-09
-6.4448959e-12
3.0227803e-09
6.0923703e-12
3.0227889e-09
-5.7642471e-12
3.0227808e-09
5.4548514e-12
3.0227886e-09
-5.1680597e-12
3.0227813e-09
4.8976909e-12
3.0227883e-09
-4.6475975e-12
3.0227817e-09
4.4123452e-12
3.022788e-09
-4.1951496e-12
3.022782e-09
3.9915268e-12
3.0227878e-09
-3.8040115e-12
3.0227823e-09
3.6289819e-12
3.0227876e-09
-3.468395e-12
3.0227825e-09
3.3193424e-12
3.0227874e-09
-3.1833265e-12
3.0227827e-09
3.0580107e-12
3.0227872e-09
-2.9445486e-12
3.0227829e-09
2.8410455e-12
3.0227871e-09
-2.7484476e-12
3.0227831e-09
2.6649706e-12
3.022787e-09
-2.5917981e-12
3.0227832e-09
2.5275983e-12
3.0227867e-09
-2.4674361e-12
3.0227826e-09
2.4339789e-12
3.0227849e-09
-2.3768109e-12
3.0227836e-09
2.2578147e-12
3.0228044e-09
-2.9308227e-12
2.0083865e-12
2.9778745e-09
2.3718121e-08
3.0925598e-09
-2.4553296e-09
3.1275106e-09
1.1965043e-09
3.1321563e-09
-7.4203197e-11
3.1400723e-09
-2.1566357e-11
3.1434681e-09
1.6872826e-11
3.1426908e-09
1.6947814e-11
3.1444581e-09
2.8548227e-12
3.1439e-09
-8.4024113e-12
3.1443439e-09
9.9754487e-12
3.1442356e-09
-1.2029765e-11
3.1443071e-09
1.2024142e-11
3.1442425e-09
-1.1224809e-11
3.144284e-09
1.0941825e-11
3.1442332e-09
-1.0115431e-11
3.1442735e-09
9.6654861e-12
3.1442315e-09
-9.0410928e-12
3.1442686e-09
8.5674383e-12
3.1442325e-09
-8.0610782e-12
3.1442658e-09
7.6185872e-12
3.1442341e-09
-7.1877732e-12
3.1442639e-09
6.7906835e-12
3.1442357e-09
-6.4167581e-12
3.1442623e-09
6.0657894e-12
3.1442372e-09
-5.7391623e-12
3.144261e-09
5.4310785e-12
3.1442385e-09
-5.1456071e-12
3.1442599e-09
4.8763704e-12
3.1442397e-09
-4.6274281e-12
3.1442589e-09
4.3931596e-12
3.1442407e-09
-4.1769617e-12
3.144258e-09
3.9741935e-12
3.1442415e-09
-3.7875384e-12
3.1442573e-09
3.6132473e-12
3.1442423e-09
-3.4533964e-12
3.1442566e-09
3.3049757e-12
3.1442429e-09
-3.1695825e-12
3.1442561e-09
3.0447989e-12
3.1442434e-09
-2.9318538e-12
3.1442557e-09
2.8287876e-12
3.1442438e-09
-2.7366061e-12
3.1442553e-09
2.6534642e-12
3.1442442e-09
-2.5806226e-12
3.1442551e-09
2.5166314e-12
3.1442443e-09
-2.4565722e-12
3.1442544e-09
2.4238652e-12
3.1442428e-09
-2.365196e-12
3.1442545e-09
2.2460885e-12
3.1442571e-09
-2.9333984e-12
1.9810625e-12
3.1064684e-09
2.3559903e-08
3.1971484e-09
-2.5460096e-09
3.2431148e-09
1.1505379e-09
3.2481618e-09
-7.9250158e-11
3.2560494e-09
-2.9453961e-11
3.2592665e-09
1.3655736e-11
3.2586882e-09
1.7526111e-11
3.260468e-09
1.0749904e-12
3.2598051e-09
-7.7395177e-12
3.260328e-09
9.4525625e-12
3.2601432e-09
-1.1844954e-11
3.260282e-09
1.1885313e-11
3.2601536e-09
-1.109633e-11
3.2602564e-09
1.083896e-11
3.2601485e-09
-1.0007487e-11
3.2602432e-09
9.5707974e-12
3.2601502e-09
-8.9481053e-12
3.2602356e-09
8.4820484e-12
3.2601539e-09
-7.9794341e-12
3.2602303e-09
7.5422474e-12
3.2601579e-09
-7.1154423e-12
3.2602261e-09
6.7225587e-12
3.2601617e-09
-6.3523675e-12
3.2602225e-09
6.0049416e-12
3.260165e-09
-5.6816465e-12
3.2602195e-09
5.3766191e-12
3.2601679e-09
-5.0940753e-12
3.2602168e-09
4.8274956e-12
3.2601705e-09
-4.5811077e-12
3.2602145e-09
4.3491504e-12
3.2601727e-09
-4.1351699e-12
3.2602125e-09
3.9344052e-12
3.2601746e-09
-3.7496638e-12
3.2602108e-09
3.5770987e-12
3.2601762e-09
-3.4188865e-12
3.2602093e-09
3.2719386e-12
3.2601776e-09
-3.137933e-12
3.260208e-09
3.014389e-12
3.2601788e-09
-2.9025994e-12
3.260207e-09
2.8005548e-12
3.2601797e-09
-2.7093112e-12
3.2602062e-09
2.6269777e-12
3.2601805e-09
-2.5548801e-12
3.2602056e-09
2.4914621e-12
3.2601809e-09
-2.4318632e-12
3.2602047e-09
2.400062e-12
3.2601798e-09
-2.3403097e-12
3.2602041e-09
2.2218673e-12
3.2601889e-09
-2.9182102e-12
1.9432645e-12
3.2232402e-09
2.3284913e-08
3.2948911e-09
-2.6176606e-09
3.3536112e-09
1.0918179e-09
3.3591486e-09
-8.4787608e-11
3.3665941e-09
-3.6899486e-11
3.3695794e-09
1.067046e-11
3.3692371e-09
1.7868436e-11
3.3709439e-09
-6.3179098e-13
3.3701925e-09
-6.9882016e-12
3.3707904e-09
8.8547076e-12
3.370531e-09
-1.1585606e-11
3.3707342e-09
1.1682139e-11
3.3705446e-09
-1.0906722e-11
3.3707063e-09
1.0677231e-11
3.3705437e-09
-9.8448139e-12
3.3706906e-09
9.4238813e-12
3.3705487e-09
-8.8062204e-12
3.3706804e-09
8.3503133e-12
3.3705552e-09
-7.854161e-12
3.3706727e-09
7.4246686e-12
3.3705615e-09
-7.0041857e-12
3.3706664e-09
6.6176597e-12
3.3705672e-09
-6.2532138e-12
3.3706609e-09
5.9112356e-12
3.3705723e-09
-5.5930324e-12
3.3706562e-09
5.2927349e-12
3.3705768e-09
-5.0146591e-12
3.3706521e-09
4.7521995e-12
3.3705807e-09
-4.5097106e-12
3.3706485e-09
4.2813375e-12
3.3705841e-09
-4.0707429e-12
3.3706454e-09
3.8730838e-12
3.370587e-09
-3.6912652e-12
3.3706427e-09
3.5213733e-12
3.3705895e-09
-3.3656643e-12
3.3706404e-09
3.2209959e-12
3.3705916e-09
-3.0891103e-12
3.3706385e-09
2.9674841e-12
3.3705934e-09
-2.8574614e-12