/*--------------------------------*- C++ -*----------------------------------*\
| =========                 |                                                 |
| \\      /  F ield         | OpenFOAM: The Open Source CFD Toolbox           |
|  \\    /   O peration     | Version:  2312                                  |
|   \\  /    A nd           | Website:  www.openfoam.com                      |
|    \\/     M anipulation  |                                                 |
\*---------------------------------------------------------------------------*/
FoamFile
{
    version     2.0;
    format      ascii;
    arch        "LSB;label=32;scalar=64";
    class       surfaceScalarField;
    location    "7";
    object      phi_0;
}
// * * * * * * * * * * * * * * * * * * * * * * * * * * * * * * * * * * * * * //

dimensions      [0 3 -1 0 0 0 0];

oriented        oriented;

internalField   nonuniform List<scalar> 
7870
(
1.3030887e-10
2.8179411e-09
1.3346965e-10
-3.1607734e-12
1.128222e-10
2.0647458e-11
1.139146e-10
-1.0923959e-12
1.1435458e-10
-4.3997565e-13
1.1286879e-10
1.48579e-12
1.1380799e-10
-9.3919999e-13
1.1264642e-10
1.161576e-12
1.1369676e-10
-1.0503432e-12
1.1266845e-10
1.0283133e-12
1.1363251e-10
-9.6405761e-13
1.1271562e-10
9.1688222e-13
1.135768e-10
-8.6117856e-13
1.127628e-10
8.1399959e-13
1.1352838e-10
-7.6557974e-13
1.1280615e-10
7.2222927e-13
1.134863e-10
-6.8015342e-13
1.1284483e-10
6.4147333e-13
1.1344955e-10
-6.0472564e-13
1.1287897e-10
5.7058675e-13
1.1341739e-10
-5.3841909e-13
1.1290896e-10
5.0842766e-13
1.1338922e-10
-4.8026318e-13
1.1293524e-10
4.5398302e-13
1.1336458e-10
-4.2934605e-13
1.1295822e-10
4.0636704e-13
1.1334307e-10
-3.8485404e-13
1.1297826e-10
3.6481207e-13
1.1332434e-10
-3.4607862e-13
1.1299568e-10
3.2865832e-13
1.1330809e-10
-3.124108e-13
1.1301075e-10
2.973422e-13
1.1329408e-10
-2.833309e-13
1.1302369e-10
2.7038428e-13
1.1328209e-10
-2.5839743e-13
1.1303471e-10
2.4737819e-13
1.1327195e-10
-2.3723689e-13
1.1304397e-10
2.2798113e-13
1.132635e-10
-2.1953537e-13
1.130516e-10
2.1190616e-13
1.1325663e-10
-2.0503185e-13
1.1305771e-10
1.9891695e-13
1.1325122e-10
-1.9350925e-13
1.1306239e-10
1.888344e-13
1.1324717e-10
-1.8478125e-13
1.1306571e-10
1.8145601e-13
1.1324492e-10
-1.7920879e-13
1.1307029e-10
1.7462839e-13
1.132529e-10
-1.826049e-13
1.6792249e-13
3.5016716e-10
5.416024e-09
3.8116126e-10
-3.4154875e-11
3.301219e-10
7.1686841e-11
3.3070979e-10
-1.6802795e-12
3.3095816e-10
-6.8834118e-13
3.2855365e-10
3.8903044e-12
3.2949918e-10
-1.8847246e-12
3.2780415e-10
2.8566073e-12
3.2926757e-10
-2.5137705e-12
3.2779094e-10
2.5049445e-12
3.2917223e-10
-2.3453417e-12
3.2784919e-10
2.2399148e-12
3.2908897e-10
-2.1009523e-12
3.2791383e-10
1.9891351e-12
3.2901742e-10
-1.8691747e-12
3.2797527e-10
1.764384e-12
3.2895614e-10
-1.6610277e-12
3.2803073e-10
1.566883e-12
3.2890299e-10
-1.4769885e-12
3.2807988e-10
1.3936956e-12
3.288566e-10
-1.3151326e-12
3.2812313e-10
1.2418928e-12
3.2881601e-10
-1.173143e-12
3.2816105e-10
1.1089413e-12
3.2878051e-10
-1.0488072e-12
3.2819422e-10
9.9265755e-13
3.2874951e-10
-9.4014399e-13
3.2822316e-10
8.9116295e-13
3.2872251e-10
-8.4542785e-13
3.2824832e-10
8.028481e-13
3.2869909e-10
-7.6317617e-13
3.2827009e-10
7.2634017e-13
3.2867888e-10
-6.9212371e-13
3.2828879e-10
6.6047154e-13
3.2866159e-10
-6.3119508e-13
3.2830472e-10
6.0425206e-13
3.2864696e-10
-5.7947985e-13
3.2831809e-10
5.5684576e-13
3.2863477e-10
-5.3621199e-13
3.2832913e-10
5.1755197e-13
3.2862485e-10
-5.007541e-13
3.2833797e-10
4.857922e-13
3.2861704e-10
-4.7257273e-13
3.2834473e-10
4.6113956e-13
3.2861112e-10
-4.5116686e-13
3.2834942e-10
4.4315629e-13
3.2860775e-10
-4.3754196e-13
3.2835717e-10
4.2520885e-13
3.2862761e-10
-4.5304508e-13
4.0894512e-13
5.6368421e-10
7.8005898e-09
6.1488492e-10
-8.5355584e-11
5.4109632e-10
1.4547546e-10
5.4209471e-10
-2.6786586e-12
5.4159979e-10
-1.9341129e-13
5.3896415e-10
6.5259494e-12
5.3932351e-10
-2.2440824e-12
5.3771676e-10
4.4633511e-12
5.3903146e-10
-3.8284649e-12
5.3765044e-10
3.8859627e-12
5.3894229e-10
-3.6371932e-12
5.3769297e-10
3.4892414e-12
5.3886037e-10
-3.2683579e-12
5.377495e-10
3.0999996e-12
5.3879066e-10
-2.9103349e-12
5.3780608e-10
2.7489684e-12
5.3873205e-10
-2.5870008e-12
5.37858e-10
2.4409273e-12
5.3868168e-10
-2.3006718e-12
5.3790429e-10
2.1710936e-12
5.3863788e-10
-2.0487259e-12
5.379451e-10
1.9346732e-12
5.385996e-10
-1.8276466e-12
5.3798092e-10
1.7276238e-12
5.3856613e-10
-1.6340151e-12
5.3801227e-10
1.5465144e-12
5.3853688e-10
-1.4647586e-12
5.3803963e-10
1.3884146e-12
5.385114e-10
-1.3171998e-12
5.3806343e-10
1.250823e-12
5.3848929e-10
-1.1890388e-12
5.3808402e-10
1.1316084e-12
5.3847021e-10
-1.0783121e-12
5.3810172e-10
1.028958e-12
5.3845388e-10
-9.8334973e-13
5.381168e-10
9.4133355e-13
5.3844005e-10
-9.0273641e-13
5.3812946e-10
8.6743478e-13
5.3842853e-10
-8.3527977e-13
5.3813991e-10
8.0617005e-13
5.3841915e-10
-7.7998648e-13
5.381483e-10
7.5663538e-13
5.3841175e-10
-7.3601857e-13
5.3815471e-10
7.1818157e-13
5.3840606e-10
-7.025173e-13
5.3815901e-10
6.9019862e-13
5.3840278e-10
-6.8130827e-13
5.3816814e-10
6.5985471e-13
5.3843293e-10
-7.1784206e-13
6.3518488e-13
7.5643973e-10
9.9924001e-09
8.3975569e-10
-1.6867153e-10
7.4639701e-10
2.3883416e-10
7.4772891e-10
-4.0105502e-12
7.4662414e-10
9.1136003e-13
7.437552e-10
9.394895e-12
7.4359324e-10
-2.0821147e-12
7.4209328e-10
5.9633147e-12
7.432653e-10
-5.0004901e-12
7.4198777e-10
5.1634933e-12
7.4318834e-10
-4.8377596e-12
7.4201689e-10
4.6606895e-12
7.4310892e-10
-4.3603897e-12
7.4206567e-10
4.1432439e-12
7.4304148e-10
-3.8861469e-12
7.4211732e-10
3.6731299e-12
7.4298578e-10
-3.4554636e-12
7.4216557e-10
3.2611397e-12
7.4293836e-10
-3.0734634e-12
7.4220884e-10
2.9006148e-12
7.4289725e-10
-2.7371428e-12
7.4224708e-10
2.5848451e-12
7.4286137e-10
-2.4419363e-12
7.4228068e-10
2.3083097e-12
7.4282999e-10
-2.1833207e-12
7.4231011e-10
2.066391e-12
7.4280257e-10
-1.9572137e-12
7.4233581e-10
1.8551735e-12
7.4277866e-10
-1.7600562e-12
7.4235816e-10
1.6713247e-12
7.4275791e-10
-1.5887894e-12
7.4237751e-10
1.512008e-12
7.4274e-10
-1.4408006e-12
7.4239415e-10
1.3748098e-12
7.4272467e-10
-1.3138656e-12
7.4240832e-10
1.2576801e-12
7.4271168e-10
-1.2060969e-12
7.4242023e-10
1.1588838e-12
7.4270085e-10
-1.1159022e-12
7.4243006e-10
1.0769616e-12
7.4269203e-10
-1.041953e-12
7.4243796e-10
1.0107005e-12
7.4268506e-10
-9.8311939e-13
7.4244399e-10
9.5925035e-13
7.4267962e-10
-9.3814215e-13
7.4244791e-10
9.2190736e-13
7.426763e-10
-9.0969534e-13
7.4245774e-10
8.7840802e-13
7.4271428e-10
-9.7437949e-13
8.465818e-13
9.6248758e-10
1.1978163e-08
1.052402e-09
-2.585859e-10
9.4538973e-10
3.4584641e-10
9.4771074e-10
-6.331558e-12
9.4600379e-10
2.6183216e-12
9.429089e-10
1.2489788e-11
9.4230398e-10
-1.4771927e-12
9.4093366e-10
7.3336337e-12
9.4196896e-10
-6.0357932e-12
9.4080248e-10
6.3299771e-12
9.4191016e-10
-5.9454414e-12
9.4082046e-10
5.7503863e-12
9.418344e-10
-5.3743287e-12
9.4086189e-10
5.1157534e-12
9.4176969e-10
-4.7939503e-12
9.409086e-10
4.534218e-12
9.4171716e-10
-4.264023e-12
9.4095308e-10
4.0252241e-12
9.4167285e-10
-3.7932338e-12
9.4099322e-10
3.5802363e-12
9.4163456e-10
-3.3784836e-12
9.410288e-10
3.1906075e-12
9.4160117e-10
-3.0143112e-12
9.410601e-10
2.8493863e-12
9.4157197e-10
-2.6951974e-12
9.4108753e-10
2.5508397e-12
9.4154645e-10
-2.4161379e-12
9.4111148e-10
2.2901384e-12
9.4152419e-10
-2.1727639e-12
9.4113233e-10
2.0631829e-12
9.4150486e-10
-1.9613185e-12
9.4115039e-10
1.8664856e-12
9.4148817e-10
-1.7785899e-12
9.4116591e-10
1.6970772e-12
9.4147388e-10
-1.6218405e-12
9.4117913e-10
1.552433e-12
9.4146178e-10
-1.4887443e-12
9.4119025e-10
1.4304135e-12
9.4145168e-10
-1.3773358e-12
9.4119943e-10
1.3292155e-12
9.4144345e-10
-1.2859727e-12
9.4120681e-10
1.247334e-12
9.4143694e-10
-1.2132476e-12
9.4121245e-10
1.1837367e-12
9.4143177e-10
-1.1574627e-12
9.4121597e-10
1.1377112e-12
9.4142836e-10
-1.1220856e-12
9.412261e-10
1.0806737e-12
9.4147215e-10
-1.2204348e-12
1.0416889e-12
1.1257987e-09
1.3800614e-08
1.2553829e-09
-3.8817008e-10
1.1388911e-09
4.6233827e-10
1.142071e-09
-9.5114814e-12
1.1397216e-09
4.9677912e-12
1.1364263e-09
1.5785084e-11
1.1354557e-09
-5.0661107e-13
1.1342396e-09
8.5497105e-12
1.1351438e-09
-6.9399813e-12
1.1340945e-09
7.3792389e-12
1.1351084e-09
-6.9593388e-12
1.1341034e-09
6.7553681e-12
1.1350373e-09
-6.3081625e-12
1.1341379e-09
6.0151251e-12
1.1349757e-09
-5.6317138e-12
1.1341797e-09
5.330188e-12
1.1349265e-09
-5.0108349e-12
1.1342203e-09
4.7314049e-12
1.1348854e-09
-4.4583305e-12
1.1342573e-09
4.208387e-12
1.13485e-09
-3.9712652e-12
1.1342901e-09
3.7505548e-12
1.1348192e-09
-3.5434371e-12
1.134319e-09
3.3495902e-12
1.1347923e-09
-3.1684441e-12
1.1343444e-09
2.9987234e-12
1.1347687e-09
-2.8404498e-12
1.1343665e-09
2.6922861e-12
1.1347481e-09
-2.5543503e-12
1.1343858e-09
2.4254773e-12
1.1347303e-09
-2.3057516e-12
1.1344025e-09
2.1942131e-12
1.1347149e-09
-2.090893e-12
1.1344169e-09
1.9950143e-12
1.1347016e-09
-1.9065651e-12
1.1344292e-09
1.824919e-12
1.1346904e-09
-1.7500371e-12
1.1344394e-09
1.6814138e-12
1.1346811e-09
-1.6189984e-12
1.1344479e-09
1.5623766e-12
1.1346735e-09
-1.5115146e-12
1.1344548e-09
1.466028e-12
1.1346675e-09
-1.4259165e-12
1.13446e-09
1.3911706e-12
1.1346626e-09
-1.3600375e-12
1.1344631e-09
1.3371722e-12
1.1346591e-09
-1.3180286e-12
1.1344732e-09
1.2665337e-12
1.1347069e-09
-1.4541058e-12
1.2193085e-12
1.3228844e-09
1.5425979e-08
1.4473542e-09
-5.126399e-10
1.3261783e-09
5.835142e-10
1.3307184e-09
-1.4051542e-11
1.3277145e-09
7.9716869e-12
1.3242985e-09
1.9201129e-11
1.3230429e-09
7.4896766e-13
1.3220101e-09
9.5825484e-12
1.32279e-09
-7.719872e-12
1.3218633e-09
8.3059183e-12
1.3227835e-09
-7.8795682e-12
1.3218654e-09
7.67347e-12
1.3227179e-09
-7.1606735e-12
1.3218934e-09
6.8396612e-12
1.3226597e-09
-6.3980747e-12
1.3219303e-09
6.0596134e-12
1.3226141e-09
-5.6946298e-12
1.3219671e-09
5.3784432e-12
1.3225763e-09
-5.0676002e-12
1.3220007e-09
4.7839628e-12
1.3225439e-09
-4.5144417e-12
1.3220308e-09
4.2636921e-12
1.3225157e-09
-4.0283659e-12
1.3220573e-09
3.8080218e-12
1.322491e-09
-3.6022025e-12
1.3220805e-09
3.409229e-12
1.3224695e-09
-3.2293746e-12
1.3221009e-09
3.0608831e-12
1.3224506e-09
-2.9041172e-12
1.3221186e-09
2.7575473e-12
1.3224343e-09
-2.6214603e-12
1.3221339e-09
2.4945961e-12
1.3224201e-09
-2.3771445e-12
1.3221471e-09
2.2680857e-12
1.322408e-09
-2.1675298e-12
1.3221583e-09
2.0746547e-12
1.3223978e-09
-1.9895151e-12
1.3221677e-09
1.9114473e-12
1.3223892e-09
-1.8404722e-12
1.3221755e-09
1.7760471e-12
1.3223822e-09
-1.7181979e-12
1.3221818e-09
1.6664194e-12
1.3223767e-09
-1.6207784e-12
1.3221867e-09
1.5812167e-12
1.3223722e-09
-1.545556e-12
1.3221894e-09
1.5199771e-12
1.3223686e-09
-1.4972216e-12
1.3221991e-09
1.435942e-12
1.3224188e-09
-1.673793e-12
1.3787822e-12
1.4615926e-09
1.6912637e-08
1.6278413e-09
-6.7888865e-10
1.5079242e-09
7.0343131e-10
1.5134894e-09
-1.9616695e-11
1.5100446e-09
1.1416478e-11
1.5065592e-09
2.2686548e-11
1.5050794e-09
2.228806e-12
1.5042508e-09
1.0411107e-11
1.5049106e-09
-8.3796203e-12
1.5041093e-09
9.1071637e-12
1.5049362e-09
-8.7064351e-12
1.5041061e-09
8.5035011e-12
1.5048767e-09
-7.9312128e-12
1.504128e-09
7.5883201e-12
1.5048222e-09
-7.0922272e-12
1.5041602e-09
6.7216081e-12
1.5047802e-09
-6.3146307e-12
1.5041931e-09
5.9655632e-12
1.5047458e-09
-5.6203197e-12
1.5042235e-09
5.3062637e-12
1.5047164e-09
-5.0073457e-12
1.5042507e-09
4.7293805e-12
1.5046908e-09
-4.468485e-12
1.5042747e-09
4.224098e-12
1.5046684e-09
-3.9959141e-12
1.5042958e-09
3.7818266e-12
1.5046489e-09
-3.5824057e-12
1.5043143e-09
3.3954502e-12
1.5046318e-09
-3.2216076e-12
1.5043304e-09
3.0589608e-12
1.504617e-09
-2.9080333e-12
1.5043443e-09
2.7672457e-12
1.5046041e-09
-2.6369745e-12
1.5043563e-09
2.5159416e-12
1.5045931e-09
-2.4044017e-12
1.5043665e-09
2.3013252e-12
1.5045838e-09
-2.2068778e-12
1.5043751e-09
2.1202291e-12
1.5045761e-09
-2.0414858e-12
1.5043821e-09
1.969969e-12
1.5045697e-09
-1.9057761e-12
1.5043879e-09
1.8482736e-12
1.5045647e-09
-1.7976094e-12
1.5043923e-09
1.7536599e-12
1.5045605e-09
-1.7138239e-12
1.5043946e-09
1.6859229e-12
1.5045568e-09
-1.6594876e-12
1.5044039e-09
1.5889178e-12
1.5046082e-09
-1.8781623e-12
1.5198646e-12
1.6433555e-09
1.8217531e-08
1.7991959e-09
-8.3472912e-10
1.6832146e-09
8.1941271e-10
1.6892272e-09
-2.5629323e-11
1.6864863e-09
1.4157368e-11
1.6831717e-09
2.6001192e-11
1.681559e-09
3.8415154e-12
1.6809607e-09
1.1009359e-11
1.6815062e-09
-8.9250664e-12
1.6808324e-09
9.7809612e-12
1.6815668e-09
-9.4408799e-12
1.6808254e-09
9.2449122e-12
1.6815139e-09
-8.6196839e-12
1.6808416e-09
8.2605876e-12
1.6814632e-09
-7.713852e-12
1.6808691e-09
7.3157412e-12
1.6814249e-09
-6.8704828e-12
1.6808981e-09
6.4923846e-12
1.6813939e-09
-6.1161351e-12
1.6809253e-09
5.7749368e-12
1.6813675e-09
-5.449636e-12
1.6809496e-09
5.1472894e-12
1.6813446e-09
-4.8634729e-12
1.6809712e-09
4.5975114e-12
1.6813246e-09
-4.3492811e-12
1.6809902e-09
4.116234e-12
1.681307e-09
-3.8992715e-12
1.6810068e-09
3.6957309e-12
1.6812917e-09
-3.5065755e-12
1.6810212e-09
3.3294866e-12
1.6812784e-09
-3.1652497e-12
1.6810337e-09
3.0119545e-12
1.6812669e-09
-2.8701851e-12
1.6810445e-09
2.7383961e-12
1.6812571e-09
-2.6170039e-12
1.6810536e-09
2.5047638e-12
1.6812487e-09
-2.4019669e-12
1.6810613e-09
2.30761e-12
1.6812417e-09
-2.2218968e-12
1.6810677e-09
2.1440082e-12
1.6812361e-09
-2.0741216e-12
1.6810729e-09
2.0114707e-12
1.6812315e-09
-1.956296e-12
1.6810768e-09
1.9083923e-12
1.6812277e-09
-1.8647501e-12
1.6810788e-09
1.8349057e-12
1.681224e-09
-1.80476e-12
1.6810874e-09
1.7255404e-12
1.6812754e-09
-2.0661162e-12
1.6426004e-12
1.769686e-09
1.9396095e-08
1.9603304e-09
-1.0253735e-09
1.8533963e-09
9.2634678e-10
1.8575072e-09
-2.9740157e-11
1.8569172e-09
1.4747338e-11
1.8541336e-09
2.8784791e-11
1.8524837e-09
5.491414e-12
1.8521416e-09
1.1351514e-11
1.8525782e-09
-9.3616958e-12
1.8520326e-09
1.0326554e-11
1.8526759e-09
-1.0084159e-11
1.852023e-09
9.8977872e-12
1.8526298e-09
-9.2264315e-12
1.8520339e-09
8.856424e-12
1.8525831e-09
-8.263046e-12
1.8520569e-09
7.8419827e-12
1.8525486e-09
-7.3621993e-12
1.8520821e-09
6.9588748e-12
1.852521e-09
-6.5550174e-12
1.852106e-09
6.1899361e-12
1.8524976e-09
-5.8412609e-12
1.8521275e-09
5.5173621e-12
1.8524773e-09
-5.2132677e-12
1.8521466e-09
4.9282008e-12
1.8524596e-09
-4.6622393e-12
1.8521634e-09
4.4123901e-12
1.8524441e-09
-4.1799101e-12
1.8521781e-09
3.9616679e-12
1.8524305e-09
-3.7589648e-12
1.8521909e-09
3.5690732e-12
1.8524187e-09
-3.3930596e-12
1.852202e-09
3.2286772e-12
1.8524086e-09
-3.076733e-12
1.8522116e-09
2.9354102e-12
1.8523998e-09
-2.8052991e-12
1.8522197e-09
2.6849372e-12
1.8523925e-09
-2.5747511e-12
1.8522265e-09
2.4735622e-12
1.8523863e-09
-2.3816798e-12
1.8522322e-09
2.2981425e-12
1.8523812e-09
-2.2232145e-12
1.8522367e-09
2.1559945e-12
1.8523773e-09
-2.0968248e-12
1.8522402e-09
2.0454034e-12
1.8523738e-09
-1.9983374e-12
1.8522418e-09
1.9669122e-12
1.8523701e-09
-1.9330696e-12
1.8522497e-09
1.8459463e-12
1.8524204e-09
-2.2367724e-12
1.7472552e-12
1.9413321e-09
2.0403013e-08
2.1147114e-09
-1.1987527e-09
2.0172452e-09
1.023813e-09
2.0198666e-09
-3.2361563e-11
2.0215212e-09
1.309278e-11
2.0194956e-09
3.0810354e-11
2.0178723e-09
7.114742e-12
2.0177991e-09
1.1424678e-11
2.0181292e-09
-9.6918263e-12
2.0177106e-09
1.0745175e-11
2.018264e-09
-1.0637514e-11
2.0176989e-09
1.0462856e-11
2.0182246e-09
-9.7521365e-12
2.0177048e-09
9.3762222e-12
2.018182e-09
-8.7402592e-12
2.0177233e-09
8.3006584e-12
2.0181513e-09
-7.7901155e-12
2.0177448e-09
7.36531e-12
2.018127e-09
-6.937226e-12
2.0177655e-09
6.55149e-12
2.0181066e-09
-6.1824278e-12
2.0177842e-09
5.8397879e-12
2.018089e-09
-5.5180406e-12
2.0178009e-09
5.2163261e-12
2.0180736e-09
-4.9349348e-12
2.0178155e-09
4.6704339e-12
2.01806e-09
-4.42445e-12
2.0178283e-09
4.1933846e-12
2.0180483e-09
-3.9788904e-12
2.0178395e-09
3.7778318e-12
2.018038e-09
-3.5915676e-12
2.0178492e-09
3.4175153e-12
2.0180292e-09
-3.2567146e-12
2.0178575e-09
3.1070775e-12
2.0180216e-09
-2.9693771e-12
2.0178646e-09
2.841933e-12
2.0180151e-09
-2.7253145e-12
2.0178705e-09
2.6181682e-12
2.0180098e-09
-2.5209147e-12
2.0178754e-09
2.4324509e-12
2.0180054e-09
-2.3531321e-12
2.0178794e-09
2.2819226e-12
2.0180019e-09
-2.2192727e-12
2.0178825e-09
2.1647706e-12
2.0179989e-09
-2.114673e-12
2.0178838e-09
2.0820111e-12
2.0179952e-09
-2.0445333e-12
2.0178908e-09
1.9503259e-12
2.0180435e-09
-2.3894446e-12
1.8342711e-12
2.0619929e-09
2.128927e-08
2.2566265e-09
-1.3933863e-09
2.1749906e-09
1.1054489e-09
2.177623e-09
-3.4993875e-11
2.1804178e-09
1.029796e-11
2.1792997e-09
3.192849e-11
2.1777349e-09
8.6795253e-12
2.1779353e-09
1.1224226e-11
2.1781597e-09
-9.9162027e-12
2.177866e-09
1.1038857e-11
2.1783311e-09
-1.1102613e-11
2.1778528e-09
1.0941158e-11
2.1782986e-09
-1.0197884e-11
2.1778541e-09
9.8206971e-12
2.1782601e-09
-9.1462746e-12
2.1778684e-09
8.6923976e-12
2.1782331e-09
-8.1548557e-12
2.1778862e-09
7.712239e-12
2.1782122e-09
-7.2632781e-12
2.1779036e-09
6.8600715e-12
2.1781948e-09
-6.4735764e-12
2.1779196e-09
6.1149772e-12
2.1781797e-09
-5.7781731e-12
2.1779338e-09
5.4622474e-12
2.1781666e-09
-5.1677037e-12
2.1779463e-09
4.8906845e-12
2.1781551e-09
-4.6331905e-12
2.1779573e-09
4.3911665e-12
2.178145e-09
-4.1666214e-12
2.1779668e-09
3.9560197e-12
2.1781363e-09
-3.7610175e-12
2.1779751e-09
3.5787024e-12
2.1781287e-09
-3.4103517e-12
2.1779822e-09
3.2536115e-12
2.1781223e-09
-3.1094411e-12
2.1779882e-09
2.9759472e-12
2.1781168e-09
-2.853845e-12
2.1779933e-09
2.7416099e-12
2.1781122e-09
-2.6397768e-12
2.1779975e-09
2.547104e-12
2.1781084e-09
-2.4640399e-12
2.178001e-09
2.3894173e-12
2.1781055e-09
-2.3237986e-12
2.1780036e-09
2.2666511e-12
2.1781028e-09
-2.2139202e-12
2.1780045e-09
2.1803456e-12
2.1780993e-09
-2.1393445e-12
2.1780107e-09
2.0389199e-12
2.1781449e-09
-2.5236261e-12
1.9042287e-12
2.217221e-09
2.2020299e-08
2.3924377e-09
-1.568603e-09
2.3268083e-09
1.1710783e-09
2.3309603e-09
-3.9145843e-11
2.3336904e-09
7.5678221e-12
2.333577e-09
3.2041926e-11
2.3320812e-09
1.0175373e-11
2.3325523e-09
1.0753112e-11
2.3326701e-09
-1.0034065e-11
2.3324985e-09
1.1210521e-11
2.3328773e-09
-1.148142e-11
2.3324845e-09
1.1333981e-11
2.3328517e-09
-1.056513e-11
2.3324816e-09
1.0190823e-11
2.3328175e-09
-9.4821794e-12
2.3324918e-09
9.018088e-12
2.3327942e-09
-8.4573045e-12
2.332506e-09
8.0004499e-12
2.3327767e-09
-7.5339223e-12
2.3325204e-09
7.1163724e-12
2.3327621e-09
-6.7153554e-12
2.3325336e-09
6.3435384e-12
2.3327496e-09
-5.9942354e-12
2.3325454e-09
5.6665037e-12
2.3327387e-09
-5.3610525e-12
2.3325558e-09
5.0736228e-12
2.3327292e-09
-4.8065847e-12
2.3325649e-09
4.5554449e-12
2.3327209e-09
-4.3225656e-12
2.3325729e-09
4.104026e-12
2.3327136e-09
-3.9017777e-12
2.3325797e-09
3.7125909e-12
2.3327074e-09
-3.5379793e-12
2.3325856e-09
3.3753328e-12
2.332702e-09
-3.2257972e-12
2.3325907e-09
3.0872737e-12
2.3326974e-09
-2.9606239e-12
2.3325949e-09
2.8441585e-12
2.3326936e-09
-2.7385268e-12
2.3325984e-09
2.6423543e-12
2.3326905e-09
-2.5561822e-12
2.3326012e-09
2.4787173e-12
2.3326881e-09
-2.410635e-12
2.3326035e-09
2.3512735e-12
2.3326858e-09
-2.2963113e-12
2.3326041e-09
2.2621266e-12
2.3326825e-09
-2.2177639e-12
2.3326094e-09
2.1120158e-12
2.3327247e-09
-2.6389738e-12
1.9578148e-12
2.334395e-09
2.2634154e-08
2.5185604e-09
-1.7527684e-09
2.4731874e-09
1.2164512e-09
2.479109e-09
-4.5067363e-11
2.481442e-09
5.2347573e-12
2.4823401e-09
3.1143814e-11
2.480918e-09
1.1597556e-11
2.4816536e-09
1.0017488e-11
2.4816628e-09
-1.0043323e-11
2.4816088e-09
1.1264542e-11
2.481903e-09
-1.1775623e-11
2.4815939e-09
1.1643122e-11
2.4818843e-09
-1.0855494e-11
2.4815872e-09
1.0487879e-11
2.4818543e-09
-9.7492895e-12
2.4815935e-09
9.2788635e-12
2.4818348e-09
-8.6985684e-12
2.4816043e-09
8.2309483e-12
2.4818205e-09
-7.7501119e-12
2.4816156e-09
7.3212804e-12
2.4818088e-09
-6.9085996e-12
2.4816261e-09
6.5262579e-12
2.4817988e-09
-6.1669669e-12
2.4816355e-09
5.8297947e-12
2.4817901e-09
-5.5156403e-12
2.4816439e-09
5.2198745e-12
2.4817825e-09
-4.9452236e-12
2.4816512e-09
4.6867818e-12
2.4817759e-09
-4.4472547e-12
2.4816575e-09
4.222357e-12
2.4817701e-09
-4.0143287e-12
2.481663e-09
3.8196391e-12
2.4817651e-09
-3.6400331e-12
2.4816678e-09
3.4726581e-12
2.4817608e-09
-3.3188426e-12
2.4816718e-09
3.1762935e-12
2.4817572e-09
-3.0460158e-12
2.4816752e-09
2.9261648e-12
2.4817541e-09
-2.8175021e-12
2.481678e-09
2.718528e-12
2.4817517e-09
-2.6298745e-12
2.4816802e-09
2.5501295e-12
2.4817497e-09
-2.4800805e-12
2.481682e-09
2.418931e-12
2.4817479e-09
-2.3621395e-12
2.4816824e-09
2.3276257e-12
2.4817447e-09
-2.2801113e-12
2.4816868e-09
2.1699436e-12
2.4817831e-09
-2.7352933e-12
1.9957938e-12
2.4808561e-09
2.3101548e-08
2.6425824e-09
-1.9144947e-09
2.6140601e-09
1.2449736e-09
2.6212353e-09
-5.224248e-11
2.6237699e-09
2.7001602e-12
2.6255803e-09
2.9333353e-11
2.6242456e-09
1.2932339e-11
2.6252412e-09
9.0218936e-12
2.6251395e-09
-9.9417183e-12
2.6251979e-09
1.1206229e-11
2.6254089e-09
-1.1986635e-11
2.6251812e-09
1.1870835e-11
2.6253964e-09
-1.1070715e-11
2.6251708e-09
1.0713419e-11
2.6253707e-09
-9.9491182e-12
2.6251735e-09
9.4760768e-12
2.6253548e-09
-8.8799515e-12
2.6251808e-09
8.4049327e-12
2.6253437e-09
-7.9129836e-12
2.6251891e-09
7.4758583e-12
2.6253348e-09
-7.0543114e-12
2.625197e-09
6.6640807e-12
2.6253273e-09
-6.2972582e-12
2.6252041e-09
5.9529638e-12
2.6253208e-09
-5.632263e-12
2.6252105e-09
5.3301946e-12
2.625315e-09
-5.0498206e-12
2.625216e-09
4.7858553e-12
2.62531e-09
-4.5413306e-12
2.6252208e-09
4.3116238e-12
2.6253057e-09
-4.09925e-12
2.6252249e-09
3.9003994e-12
2.6253019e-09
-3.7170386e-12
2.6252285e-09
3.5460896e-12
2.6252987e-09
-3.3890563e-12
2.6252316e-09
3.2434653e-12
2.625296e-09
-3.1104599e-12
2.6252341e-09
2.9880509e-12
2.6252937e-09
-2.8771087e-12
2.6252362e-09
2.776017e-12
2.6252919e-09
-2.6854956e-12
2.625238e-09
2.6040221e-12
2.6252904e-09
-2.532493e-12
2.6252393e-09
2.4699743e-12
2.6252889e-09
-2.4117535e-12
2.6252394e-09
2.3771691e-12
2.625286e-09
-2.3267584e-12
2.6252429e-09
2.2130724e-12
2.6253202e-09
-2.8125255e-12
2.0189843e-12
2.5975637e-09
2.3452235e-08
2.7595861e-09
-2.0765171e-09
2.7498893e-09
1.2546704e-09
2.7569743e-09
-5.9327457e-11
2.7607442e-09
-1.069813e-12
2.7632959e-09
2.6781678e-11
2.7620694e-09
1.4158824e-11
2.763317e-09
7.774277e-12
2.763102e-09
-9.7266514e-12
2.7632665e-09
1.1041723e-11
2.7633954e-09
-1.211558e-11
2.7632465e-09
1.2019793e-11
2.7633884e-09
-1.1212601e-11
2.7632325e-09
1.0869266e-11
2.7633667e-09
-1.0083332e-11
2.7632315e-09
9.6112895e-12
2.7633545e-09
-9.0029245e-12
2.7632356e-09
8.5237797e-12
2.7633465e-09
-8.0238339e-12
2.763241e-09
7.5813271e-12
2.7633403e-09
-7.1536409e-12
2.7632463e-09
6.7580938e-12
2.7633352e-09
-6.3861344e-12
2.7632512e-09
6.036982e-12
2.7633308e-09
-5.7118372e-12
2.7632555e-09
5.4054528e-12
2.7633269e-09
-5.1211981e-12
2.7632593e-09
4.8534463e-12
2.7633235e-09
-4.6055331e-12
2.7632626e-09
4.3725299e-12
2.7633205e-09
-4.1572094e-12
2.7632654e-09
3.9555082e-12
2.763318e-09
-3.7696009e-12
2.7632679e-09
3.5962049e-12
2.7633158e-09
-3.4369893e-12
2.76327e-09
3.2893168e-12
2.763314e-09
-3.1544613e-12
2.7632717e-09
3.0303024e-12
2.7633124e-09
-2.917813e-12
2.7632732e-09
2.8152717e-12
2.7633111e-09
-2.7234805e-12
2.7632744e-09
2.6408175e-12
2.7633101e-09
-2.5682826e-12
2.7632753e-09
2.5048051e-12
2.7633091e-09
-2.4455502e-12
2.7632751e-09
2.4111322e-12
2.7633065e-09
-2.3581223e-12
2.7632778e-09
2.2418062e-12
2.763336e-09
-2.8707341e-12
2.0282393e-12
2.7361314e-09
2.3664353e-08
2.8762463e-09
-2.216632e-09
2.8807967e-09
1.25012e-09
2.8867546e-09
-6.5285353e-11
2.892368e-09
-6.6831755e-12
2.895483e-09
2.3666614e-11
2.8943951e-09
1.5246804e-11
2.8958765e-09
6.2928017e-12
2.8955479e-09
-9.3980209e-12
2.8958132e-09
1.0776482e-11
2.8958619e-09
-1.2164296e-11
2.8957892e-09
1.2092445e-11
2.89586e-09
-1.1283373e-11
2.895772e-09
1.0957285e-11
2.8958425e-09
-1.0153841e-11
2.8957676e-09
9.6861899e-12
2.8958338e-09
-9.0691377e-12
2.8957686e-09
8.5890069e-12
2.8958288e-09
-8.0841114e-12
2.8957711e-09
7.6390433e-12
2.8958253e-09
-7.207872e-12
2.8957739e-09
6.809509e-12
2.8958225e-09
-6.4347403e-12
2.8957766e-09
6.0829328e-12
2.8958201e-09
-5.755387e-12
2.895779e-09
5.44662e-12
2.895818e-09
-5.1602747e-12
2.8957811e-09
4.8904269e-12
2.8958162e-09
-4.6406885e-12
2.8957829e-09
4.4058608e-12
2.8958146e-09
-4.1889523e-12
2.8957845e-09
3.9856753e-12
2.8958133e-09
-3.7983954e-12
2.8957858e-09
3.6236488e-12
2.8958121e-09
-3.4632566e-12
2.895787e-09
3.3144368e-12
2.8958111e-09
-3.1785834e-12
2.8957879e-09
3.0534604e-12
2.8958102e-09
-2.9401355e-12
2.8957887e-09
2.8367941e-12
2.8958096e-09
-2.7443142e-12
2.8957894e-09
2.6609864e-12
2.895809e-09
-2.5879066e-12
2.8957899e-09
2.5238707e-12
2.8958084e-09
-2.4639701e-12
2.8957896e-09
2.4299336e-12
2.8958061e-09
-2.3746595e-12
2.8957913e-09
2.2565808e-12
2.8958307e-09
-2.9100936e-12
2.0244295e-12
2.852634e-09
2.3759969e-08
2.985825e-09
-2.349823e-09
3.0067894e-09
1.2291557e-09
3.011601e-09
-7.0096944e-11
3.0187843e-09
-1.3866441e-11
3.0221947e-09
2.0256175e-11
3.0212573e-09
1.6184183e-11
3.0229231e-09
4.6270927e-12
3.0224796e-09
-8.9545892e-12
3.0228385e-09
1.0417627e-11
3.0228084e-09
-1.2134213e-11
3.0228093e-09
1.2091526e-11
3.0228113e-09
-1.1285386e-11
3.0227891e-09
1.0979495e-11
3.022798e-09
-1.0162715e-11
3.0227816e-09
9.702609e-12
3.0227928e-09
-9.080386e-12
3.0227795e-09
8.6022655e-12
3.0227908e-09
-8.0953941e-12
3.0227794e-09
7.6504856e-12
3.0227899e-09
-7.2184058e-12
3.0227798e-09
6.8196484e-12
3.0227894e-09
-6.4443255e-12
3.0227803e-09
6.091999e-12
3.0227889e-09
-5.7640307e-12
3.0227808e-09
5.4547561e-12
3.0227886e-09
-5.1680531e-12
3.0227813e-09
4.8977488e-12
3.0227883e-09
-4.6476984e-12
3.0227817e-09
4.4124735e-12
3.022788e-09
-4.1952925e-12
3.022782e-09
3.9916754e-12
3.0227878e-09
-3.8041591e-12
3.0227823e-09
3.6291245e-12
3.0227876e-09
-3.4685294e-12
3.0227825e-09
3.3194674e-12
3.0227874e-09
-3.1834413e-12
3.0227827e-09
3.0581155e-12
3.0227872e-09
-2.9446436e-12
3.0227829e-09
2.8411317e-12
3.0227871e-09
-2.7485258e-12
3.0227831e-09
2.6650418e-12
3.022787e-09
-2.5918631e-12
3.0227832e-09
2.5276583e-12
3.0227867e-09
-2.4674917e-12
3.0227827e-09
2.4340313e-12
3.0227849e-09
-2.3768605e-12
3.0227836e-09
2.2578603e-12
3.0228044e-09
-2.9308786e-12
2.0084291e-12
2.9846751e-09
2.3723544e-08
3.0943176e-09
-2.4594654e-09
3.1275696e-09
1.1959036e-09
3.1321805e-09
-7.4707778e-11
3.1400722e-09
-2.1758133e-11
3.1434661e-09
1.6862199e-11
3.1426893e-09
1.6960985e-11
3.1444578e-09
2.858673e-12
3.1438998e-09
-8.3966357e-12
3.1443438e-09
9.9736509e-12
3.1442357e-09
-1.2026122e-11
3.144307e-09
1.2020242e-11
3.1442426e-09
-1.1220976e-11
3.1442839e-09
1.0938128e-11
3.1442333e-09
-1.0112125e-11
3.1442734e-09
9.6625249e-12
3.1442316e-09
-9.0385816e-12
3.1442685e-09
8.5653293e-12
3.1442325e-09
-8.0593728e-12
3.1442658e-09
7.6172413e-12
3.1442341e-09
-7.1867457e-12
3.1442638e-09
6.789931e-12
3.1442357e-09
-6.416232e-12
3.1442623e-09
6.0654503e-12
3.1442372e-09
-5.7389686e-12
3.144261e-09
5.4309984e-12
3.1442385e-09
-5.1456099e-12
3.1442598e-09
4.8764333e-12
3.1442397e-09
-4.6275309e-12
3.1442589e-09
4.3932876e-12
3.1442407e-09
-4.1771029e-12
3.144258e-09
3.9743396e-12
3.1442415e-09
-3.787683e-12
3.1442573e-09
3.6133865e-12
3.1442423e-09
-3.4535276e-12
3.1442566e-09
3.3050975e-12
3.1442429e-09
-3.1696944e-12
3.1442561e-09
3.0449011e-12
3.1442434e-09
-2.9319466e-12
3.1442557e-09
2.8288719e-12
3.1442438e-09
-2.7366826e-12
3.1442553e-09
2.653534e-12
3.1442442e-09
-2.5806865e-12
3.1442551e-09
2.5166904e-12
3.1442443e-09
-2.4566269e-12
3.1442544e-09
2.423917e-12
3.1442428e-09
-2.3652451e-12
3.1442545e-09
2.2461335e-12
3.1442571e-09
-2.933454e-12
1.9811048e-12
3.1016198e-09
2.3570174e-08
3.1956126e-09
-2.5534581e-09
3.243106e-09
1.1484102e-09
3.2481694e-09
-7.977117e-11
3.2560482e-09
-2.9636867e-11
3.2592638e-09
1.3646597e-11
3.2586867e-09
1.7538096e-11
3.2604677e-09
1.0776044e-12
3.2598049e-09
-7.7338134e-12
3.2603278e-09
9.4507228e-12
3.2601433e-09
-1.1841563e-11
3.2602819e-09
1.1881619e-11
3.2601537e-09
-1.1092732e-11
3.2602563e-09
1.0835482e-11
3.2601486e-09
-1.0004389e-11
3.2602431e-09
9.5680173e-12
3.2601502e-09
-8.9457541e-12
3.2602355e-09
8.4800725e-12
3.260154e-09
-7.9778398e-12
3.2602302e-09
7.5409902e-12
3.260158e-09
-7.114485e-12
3.260226e-09
6.7218596e-12
3.2601617e-09
-6.3518814e-12
3.2602225e-09
6.004631e-12
3.260165e-09
-5.6814725e-12
3.2602194e-09
5.3765514e-12
3.2601679e-09
-5.0940853e-12
3.2602168e-09
4.8275617e-12
3.2601705e-09
-4.5812109e-12
3.2602145e-09
4.3492767e-12
3.2601727e-09
-4.1353082e-12
3.2602125e-09
3.9345476e-12
3.2601746e-09
-3.7498044e-12
3.2602108e-09
3.5772339e-12
3.2601762e-09
-3.4190138e-12
3.2602093e-09
3.2720569e-12
3.2601776e-09
-3.1380416e-12
3.260208e-09
3.0144882e-12
3.2601788e-09
-2.9026895e-12
3.260207e-09
2.8006368e-12
3.2601797e-09
-2.7093858e-12
3.2602062e-09
2.6270458e-12
3.2601805e-09
-2.5549425e-12
3.2602056e-09
2.4915199e-12
3.2601809e-09
-2.4319169e-12
3.2602047e-09
2.4001129e-12
3.2601798e-09
-2.3403579e-12
3.2602041e-09
2.2219116e-12
3.2601889e-09
-2.9182653e-12
1.9433064e-12
3.2268949e-09
2.3291529e-08
3.2966333e-09
-2.6231965e-09
3.3537221e-09
1.0913214e-09
3.3591763e-09
-8.5225337e-11
3.3665937e-09
-3.7054339e-11
3.3695772e-09
1.0663173e-11
3.3692356e-09
1.7879656e-11
3.3709435e-09
-6.3027289e-13
3.3701923e-09
-6.9825941e-12
3.3707902e-09
8.8527892e-12
3.3705311e-09
-1.1582476e-11
3.3707341e-09
1.167866e-11
3.3705447e-09
-1.0903362e-11
3.3707062e-09
1.0673969e-11
3.3705438e-09
-9.8419186e-12
3.3706905e-09
9.4212758e-12
3.3705488e-09
-8.8040224e-12
3.3706804e-09
8.3484637e-12
3.3705552e-09
-7.8526715e-12
3.3706727e-09
7.4234943e-12
3.3705615e-09
-7.0032937e-12
3.3706663e-09
6.6170097e-12
3.3705672e-09
-6.252764e-12
3.3706609e-09
5.9109504e-12
3.3705723e-09
-5.5928754e-12
3.3706562e-09
5.2926775e-12
3.3705768e-09
-5.0146745e-12
3.3706521e-09
4.7522672e-12
3.3705807e-09
-4.5098128e-12
3.3706485e-09
4.2814612e-12
3.3705841e-09
-4.0708774e-12
3.3706454e-09
3.8732218e-12
3.370587e-09
-3.6914013e-12
3.3706427e-09
3.5215039e-12
3.3705895e-09
-3.3657872e-12
3.3706404e-09
3.22111e-12
3.3705916e-09
-3.0892152e-12
3.3706385e-09
2.96758e-12
3.3705934e-09
-2.8575486e-12