/*--------------------------------*- C++ -*----------------------------------*\
| =========                 |                                                 |
| \\      /  F ield         | OpenFOAM: The Open Source CFD Toolbox           |
|  \\    /   O peration     | Version:  2312                                  |
|   \\  /    A nd           | Website:  www.openfoam.com                      |
|    \\/     M anipulation  |                                                 |
\*---------------------------------------------------------------------------*/
FoamFile
{
    version     2.0;
    format      ascii;
    arch        "LSB;label=32;scalar=64";
    class       volScalarField;
    location    "7";
    object      T;
}
// * * * * * * * * * * * * * * * * * * * * * * * * * * * * * * * * * * * * * //

dimensions      [0 0 0 1 0 0 0];

internalField   nonuniform List<scalar> 
4000
(
310.51924
311.79576
311.99453
312.07673
312.13478
312.18903
312.2307
312.27493
312.30994
312.34938
312.38131
312.4179
312.44806
312.48274
312.51177
312.54509
312.57335
312.60567
312.63338
312.66491
312.69221
312.72314
312.75011
312.78055
312.80727
312.83731
312.86381
312.89354
312.91985
312.94931
312.97547
313.00471
313.03072
313.05979
313.08566
313.11459
313.14032
313.16915
313.19475
313.2235
313.24896
313.27766
313.30299
313.33167
313.35683
313.38555
313.4105
313.43936
313.4639
313.49353
308.30594
310.50196
311.03902
311.23362
311.35562
311.46625
311.53928
311.61986
311.67293
311.73919
311.78298
311.8407
311.87919
311.93119
311.9663
312.01423
312.04703
312.09193
312.12308
312.16565
312.19555
312.23631
312.26524
312.30453
312.33269
312.3708
312.39831
312.43546
312.46241
312.49877
312.52524
312.56095
312.58697
312.62217
312.64777
312.68255
312.70775
312.74221
312.76702
312.80124
312.82564
312.85972
312.8837
312.91774
312.94121
312.97537
312.99819
313.03277
313.0544
313.09117
306.8969
309.24815
310.09065
310.3947
310.5795
310.74568
310.8499
310.96641
311.03754
311.13032
311.18604
311.26467
311.31155
311.3807
311.42195
311.48435
311.52175
311.57913
311.61376
311.66729
311.69984
311.75034
311.78128
311.82935
311.85899
311.90511
311.93366
311.97818
312.00581
312.04902
312.07582
312.11797
312.14403
312.18531
312.21067
312.25126
312.27596
312.31602
312.34005
312.37972
312.40308
312.44252
312.46516
312.50454
312.52634
312.56591
312.58664
312.62689
312.64565
312.68928
305.94102
308.07198
309.16109
309.56626
309.81081
310.03054
310.16528
310.31673
310.40575
310.52444
310.59205
310.69115
310.74647
310.83243
310.87988
310.95649
310.99855
311.06819
311.10637
311.17067
311.20593
311.26603
311.29903
311.35576
311.38693
311.44094
311.47059
311.52238
311.55072
311.6007
311.62789
311.67639
311.70253
311.74983
311.77499
311.82133
311.84555
311.89115
311.91445
311.95951
311.98186
312.02661
312.04794
312.0926
312.11278
312.1577
312.17637
312.22224
312.23822
312.28829
305.26257
307.00561
308.26554
308.75699
309.05564
309.32529
309.48908
309.67378
309.7802
309.92376
310.0031
310.12194
310.18565
310.28789
310.34155
310.43194
310.4787
310.56027
310.60206
310.67684
310.71488
310.78434
310.81946
310.88465
310.91741
310.97914
311.00994
311.06886
311.09796
311.15458
311.1822
311.23693
311.2632
311.31641
311.34141
311.39341
311.4172
311.46826
311.49085
311.54123
311.56261
311.61258
311.63266
311.68253
311.70113
311.75131
311.76801
311.81936
311.83274
311.88874
304.76636
306.07275
307.4203
307.97726
308.32136
308.63545
308.8258
309.04123
309.16411
309.33103
309.42167
309.55923
309.63113
309.74888
309.80869
309.91227
309.96373
310.05675
310.10216
310.18705
310.2279
310.30639
310.34367
310.41704
310.45144
310.52066
310.55266
310.6185
310.64842
310.71149
310.73959
310.8004
310.82684
310.88582
310.91071
310.96823
310.99164
311.04803
311.06998
311.12556
311.14602
311.2011
311.21999
311.27494
311.29203
311.34736
311.36217
311.41884
311.42983
311.49124
304.39467
305.28484
306.64056
307.23813
307.61617
307.9673
308.18056
308.4233
308.56117
308.74942
308.85065
309.00554
309.08527
309.21753
309.28327
309.39928
309.45533
309.5592
309.60819
309.70269
309.74633
309.83345
309.87291
309.95411
309.99017
310.06658
310.0998
310.1723
310.20308
310.27238
310.301
310.36768
310.39433
310.45889
310.48372
310.54659
310.56967
310.63123
310.65259
310.71321
310.73282
310.79286
310.81062
310.87051
310.88618
310.94648
310.95953
311.02129
311.03017
311.09642
304.11179
304.64406
305.93849
306.55027
306.94844
307.3275
307.55887
307.82463
307.97542
308.18243
308.29317
308.46368
308.55063
308.69615
308.76748
308.89497
308.9554
309.06935
309.1218
309.2253
309.27168
309.36691
309.40851
309.49712
309.53483
309.61806
309.65251
309.73135
309.76299
309.83823
309.8674
309.9397
309.9666
310.03652
310.06132
310.12933
310.15212
310.21866
310.23948
310.30496
310.32377
310.3886
310.40531
310.46994
310.48429
310.54935
310.56079
310.62736
310.63443
310.705
303.89276
304.1421
305.32198
305.92285
306.32608
306.72266
306.96634
307.25
307.41104
307.63376
307.75258
307.93663
308.02995
308.18723
308.26363
308.40146
308.46594
308.58908
308.64478
308.75654
308.80551
308.90826
308.95191
309.04741
309.08672
309.17633
309.21199
309.29678
309.32929
309.41014
309.43985
309.51747
309.54464
309.61964
309.64444
309.71734
309.73989
309.81117
309.8315
309.90161
309.9197
309.98908
310.00482
310.07397
310.08711
310.15668
310.16668
310.23771
310.2433
310.3177
303.72049
303.7645
304.79421
305.36258
305.75581
306.15885
306.4083
306.70413
306.87224
307.10715
307.23224
307.42746
307.52606
307.69337
307.77413
307.92097
307.98904
308.12034
308.17896
308.29815
308.34949
308.45906
308.5046
308.60641
308.64721
308.7427
308.77949
308.86981
308.90313
308.9892
309.01944
309.10203
309.12947
309.20923
309.23406
309.31156
309.33388
309.40964
309.42952
309.504
309.52142
309.5951
309.60996
309.68336
309.69541
309.76919
309.77793
309.85306
309.85747
309.93524
303.58244
303.49194
304.35373
304.87312
305.24262
305.64119
305.88951
306.19139
306.36295
306.60621
306.73547
306.9392
307.04174
307.21715
307.30139
307.45577
307.52681
307.6651
307.72622
307.85189
307.9053
308.0209
308.06812
308.17558
308.21771
308.31851
308.35633
308.45167
308.48573
308.57658
308.6073
308.69447
308.72214
308.80631
308.83115
308.91292
308.93504
309.01495
309.03443
309.11297
309.12979
309.20747
309.22154
309.29888
309.30997
309.38762
309.3953
309.47412
309.47764
309.55838
303.46946
303.30336
303.99518
304.45483
304.78945
305.17343
305.41383
305.71553
305.88673
306.13426
306.26533
306.47473
306.57968
306.76108
306.84775
307.00807
307.08134
307.22535
307.28842
307.41955
307.47462
307.5954
307.64401
307.75638
307.79963
307.90511
307.94379
308.0436
308.07829
308.17343
308.20455
308.29586
308.32373
308.4119
308.43673
308.5224
308.54432
308.62804
308.64713
308.72941
308.74567
308.82702
308.84037
308.92132
308.93157
309.01273
309.01953
309.10163
309.1045
309.18784
303.37501
303.17795
303.71012
304.10505
304.39699
304.75774
304.98396
305.27952
305.44646
305.69416
305.82454
306.03665
306.14232
306.32751
306.41543
306.57996
306.65461
306.80297
306.86738
307.00283
307.05911
307.18413
307.23377
307.35026
307.39435
307.50384
307.54316
307.64686
307.68201
307.78092
307.81233
307.9073
307.93527
308.02702
308.05179
308.14095
308.16266
308.2498
308.26852
308.35416
308.36992
308.45457
308.46729
308.55147
308.56101
308.64528
308.65138
308.73632
308.73876
308.82435
303.29423
303.09697
303.48831
303.81864
304.06366
304.39456
304.60131
304.8853
305.04429
305.28816
305.41533
305.62719
305.73181
305.91851
306.0064
306.17337
306.24847
306.39973
306.46477
306.60337
306.66031
306.78858
306.83884
306.95862
307.00322
307.11598
307.15571
307.26264
307.29807
307.40017
307.43172
307.52983
307.55782
307.65267
307.67732
307.76953
307.79099
307.88113
307.89949
307.98809
308.00338
308.09093
308.1031
308.1901
308.19904
308.286
308.29157
308.37893
308.38111
308.46862
303.22382
303.045
303.31876
303.5887
303.7859
304.08265
304.26588
304.53372
304.68145
304.91781
305.03933
305.24808
305.34986
305.53584
305.62237
305.78998
305.86452
306.01723
306.08213
306.22266
306.27967
306.41016
306.46056
306.58274
306.6275
306.74276
306.78261
306.8921
306.92758
307.03227
307.06379
307.1645
307.19237
307.28981
307.31426
307.40904
307.43022
307.52291
307.5409
307.63202
307.64686
307.7369
307.74857
307.83798
307.84643
307.93565
307.94082
308.03017
308.03221
308.12133
303.16136
303.01014
303.19081
303.40727
303.55857
303.81923
303.97635
304.22451
304.35825
304.58387
304.69752
304.9005
304.99773
305.18083
305.26468
305.43117
305.50411
305.65681
305.72077
305.86201
305.91844
306.05011
306.10016
306.22383
306.26834
306.38531
306.42495
306.5363
306.57158
306.67822
306.70953
306.81225
306.83987
306.93937
306.96351
307.06038
307.08119
307.17598
307.19357
307.28676
307.30117
307.39324
307.40447
307.49584
307.50388
307.59493
307.59981
307.69074
307.69272
307.78314
303.10529
302.98416
303.0947
303.26607
303.37556
303.60032
303.73024
303.95632
304.07405
304.28629
304.39019
304.58504
304.67614
304.85437
304.93427
305.09796
305.16829
305.31957
305.38176
305.52249
305.5777
305.70951
305.75866
305.88292
305.92676
306.04463
306.08373
306.19621
306.23102
306.33897
306.36983
306.47398
306.50117
306.60218
306.6259
306.72433
306.74472
306.8411
306.85825
306.95305
306.96703
307.06067
307.0715
307.16438
307.17208
307.26451
307.26919
307.36129
307.36326
307.45468
303.05447
302.96175
303.02208
303.1571
303.23026
303.42107
303.52407
303.72688
303.82735
304.02425
304.11691
304.30167
304.38529
304.55687
304.63166
304.791
304.85776
305.00626
305.06589
305.20496
305.25828
305.38921
305.43694
305.56088
305.6036
305.72158
305.75977
305.87267
305.90671
306.01531
306.0455
306.15048
306.17707
306.27903
306.30218
306.40166
306.42152
306.519
306.53567
306.63159
306.64511
306.73987
306.75031
306.84424
306.85166
306.94503
306.94957
307.04245
307.04443
307.13652
303.00816
302.94003
302.96617
303.07309
303.11609
303.27618
303.35373
303.53315
303.61591
303.79621
303.87661
304.04975
304.1248
304.28823
304.35691
304.51053
304.57285
304.71734
304.77367
304.90997
304.96078
305.08985
305.13562
305.25838
305.29955
305.41684
305.45376
305.56637
305.59935
305.70794
305.73723
305.84243
305.86822
305.97057
305.99303
306.09301
306.11225
306.21032
306.22643
306.32299
306.33604
306.43143
306.4415
306.53603
306.54319
306.63706
306.64149
306.73476
306.73676
306.8292
302.9658
302.91774
302.92178
303.00783
303.0269
303.16023
303.2147
303.37157
303.43688
303.60003
303.66766
303.82812
303.89382
304.04792
304.10967
304.2564
304.31352
304.45291
304.50527
304.6378
304.68552
304.81182
304.85514
304.97589
305.01508
305.13094
305.16623
305.27785
305.30947
305.41742
305.44556
305.55038
305.57519
305.67736
305.69898
305.79894
305.81745
305.9156
305.9311
306.02779
306.04034
306.1359
306.14558
306.24026
306.24716
306.34113
306.34545
306.43873
306.44075
306.5332
302.92699
302.89464
302.88511
302.95624
302.95717
303.06801
303.10236
303.23825
303.28703
303.43311
303.48791
303.6351
303.691
303.83492
303.88916
304.02807
304.07937
304.21276
304.26056
304.38845
304.43256
304.55526
304.59568
304.71365
304.75046
304.86418
304.89751
305.00748
305.03746
305.14415
305.17091
305.27477
305.29841
305.39986
305.42047
305.51989
305.53756
305.6353
305.6501
305.74647
305.75846
305.85373
305.86299
305.95738
305.96403
306.05767
306.06189
306.15481
306.15681
306.24894
302.89139
302.87103
302.8536
302.91441
302.90225
302.99479
303.01224
303.12924
303.16289
303.29254
303.3349
303.46868
303.51465
303.64786
303.69424
303.82465
303.8697
303.99632
304.03911
304.16161
304.20167
304.32006
304.35718
304.47168
304.50576
304.61668
304.64775
304.75545
304.78353
304.88837
304.91353
305.01587
305.03816
305.13836
305.15783
305.2562
305.27293
305.36976
305.38379
305.47936
305.49074
305.58527
305.5941
305.68776
305.69414
305.78705
305.79115
305.88335
305.88533
305.97679
302.85871
302.84741
302.82558
302.87943
302.85834
302.93642
302.94022
303.04069
303.06096
303.17524
303.2059
303.32653
303.36274
303.48506
303.52345
303.64492
303.68345
303.80276
303.84022
303.95673
303.99241
304.10587
304.13935
304.24978
304.28084
304.38838
304.4169
304.52177
304.54771
304.65017
304.67352
304.77384
304.7946
304.89305
304.91125
305.00809
305.02375
305.11923
305.1324
305.22673
305.23744
305.33081
305.33915
305.43169
305.43777
305.52958
305.53352
305.62464
305.62657
305.71702
302.82869
302.82426
302.80006
302.84926
302.82248
302.88942
302.88264
302.96902
302.97784
303.07812
303.09811
303.20617
303.23308
303.34459
303.3751
303.48744
303.51935
303.631
303.66293
303.773
303.80406
303.91211
303.94171
304.04756
304.07535
304.179
304.20476
304.3063
304.3299
304.42948
304.45084
304.54866
304.56774
304.66398
304.68078
304.77565
304.79015
304.88383
304.89606
304.98872
304.99872
305.09051
305.09833
305.18936
305.19509
305.28544
305.28919
305.3789
305.38075
305.46987
302.8011
302.80197
302.77649
302.82253
302.79247
302.85099
302.83635
302.91102
302.91037
302.99819
303.00874
303.10507
303.12334
303.22439
303.24731
303.35055
303.37593
303.47972
303.50608
303.60942
303.63572
303.73799
303.76355
303.86442
303.88876
303.9881
304.01092
304.1087
304.12979
304.22607
304.2453
304.34018
304.35746
304.45107
304.46635
304.55883
304.57208
304.66357
304.67479
304.7654
304.77461
304.86446
304.8717
304.96087
304.96621
305.05476
305.05828
305.14626
305.14801
305.23548
302.77572
302.78079
302.75459
302.79837
302.76673
302.81898
302.79879
302.86391
302.85569
302.93267
302.93509
303.02072
303.03117
303.12232
303.13811
303.23247
303.25153
303.34749
303.36833
303.46479
303.48632
303.58257
303.604
303.69959
303.72038
303.81507
303.83483
303.92849
303.94696
304.03956
304.05654
304.14812
304.16349
304.2541
304.26777
304.3575
304.36942
304.45835
304.46849
304.5567
304.56507
304.65263
304.65925
304.74622
304.75114
304.83756
304.84083
304.92677
304.9284
305.0139
302.75236
302.76085
302.73424
302.77624
302.74417
302.79176
302.76789
302.82535
302.81131
302.87905
302.87469
302.95073
302.95428
303.03623
303.04549
303.13135
303.14446
303.23272
303.24824
303.33781
303.35464
303.44474
303.46206
303.55217
303.56937
303.65915
303.6758
303.76505
303.78083
303.86945
303.88411
303.97207
303.98546
304.07275
304.08474
304.17139
304.18191
304.26796
304.27697
304.36246
304.36994
304.4549
304.46086
304.54533
304.54978
304.6338
304.63678
304.72039
304.72188
304.80513
302.73084
302.7422
302.71535
302.75584
302.72406
302.76816
302.74207
302.79346
302.77515
302.83511
302.82527
302.89287
302.89051
302.96405
302.96747
303.04533
303.05295
303.13379
303.14427
303.22706
303.23936
303.3233
303.3366
303.42112
303.43477
303.51948
303.53301
303.61765
303.6307
303.71511
303.72742
303.81149
303.82286
303.90655
303.91683
304.00012
304.00921
304.0921
304.09994
304.18242
304.18897
304.27107
304.27632
304.35803
304.36198
304.44334
304.44599
304.52702
304.52835
304.6091
302.71102
302.72484
302.69791
302.73699
302.70595
302.74735
302.72014
302.76675
302.74547
302.79898
302.78486
302.84514
302.83785
302.90383
302.90215
302.97261
302.97526
303.04906
303.05488
303.13109
303.13912
303.21698
303.2264
303.30533
303.31552
303.39508
303.40554
303.48544
303.49579
303.57582
303.58577
303.66577
303.6751
303.75498
303.76352
303.84323
303.85086
303.93035
303.93699
304.01624
304.02184
304.10082
304.10535
304.18406
304.18749
304.26594
304.26826
304.34648
304.34764
304.42563
302.69276
302.70871
302.68188
302.71961
302.68953
302.72878
302.70123
302.74406
302.72088
302.76908
302.75177
302.80578
302.79449
302.85377
302.84775
302.91144
302.90971
302.97692
302.97852
303.04844
303.05251
303.12445
303.13023
303.20362
303.21051
303.28492
303.29241
303.3675
303.37522
303.45075
303.45838
303.53417
303.54148
303.6174
303.62421
303.70015
303.70632
303.78223
303.78767
303.86348
303.86811
303.9438
303.94757
304.0231
304.02598
304.10133
304.10329
304.17849
304.17948
304.25452
302.67597
302.69378
302.66722
302.70364
302.67466
302.7121
302.68474
302.72455
302.7003
302.74416
302.72459
302.77327
302.75886
302.81225
302.80264
302.86022
302.85471
302.91583
302.91368
302.97767
302.97813
303.0444
303.0468
303.11481
303.11859
303.1879
303.19258
303.26286
303.26805
303.33904
303.34443
303.41592
303.42127
303.4931
303.49821
303.57027
303.575
303.64718
303.65142
303.72365
303.72731
303.79953
303.80255
303.87472
303.87705
303.94915
303.95074
304.02275
304.02355
304.09546
302.66057
302.68001
302.65391
302.68904
302.6612
302.69705
302.67024
302.70759
302.68291
302.72321
302.70214
302.74632
302.72957
302.77785
302.76535
302.81748
302.8088
302.86434
302.85893
302.91739
302.91465
302.97552
302.97486
303.03767
303.03858
303.10292
303.10496
303.1705
303.1733
303.23976
303.24301
303.31018
303.31364
303.38133
303.3848
303.45289
303.45622
303.52457
303.52764
303.59618
303.59888
303.66752
303.66979
303.73849
303.74026
303.80896
303.81018
303.87886
303.87949
303.94812
302.64649
302.66738
302.64192
302.67578
302.64911
302.6835
302.65745
302.69273
302.66808
302.70543
302.6835
302.7239
302.70548
302.74933
302.73459
302.78189
302.77062
302.82112
302.81294
302.8663
302.86075
302.91656
302.91317
302.97103
302.96935
303.02888
303.0285
303.08939
303.08997
303.15196
303.15321
303.21607
303.21775
303.2813
303.2832
303.34728
303.34926
303.41374
303.41566
303.48044
303.48221
303.5472
303.54874
303.61386
303.61509
303.68029
303.68116
303.74641
303.74685
303.81209
302.63372
302.6559
302.63122
302.66386
302.63834
302.67134
302.64617
302.67965
302.65536
302.69023
302.66793
302.70512
302.68562
302.72566
302.70926
302.75231
302.73898
302.78495
302.77448
302.82316
302.81524
302.86633
302.86056
302.91374
302.90975
302.96468
302.96212
303.01852
303.01708
303.0747
303.0741
303.13272
303.13273
303.19216
303.19259
303.25267
303.25337
303.31396
303.31481
303.3758
303.37667
303.43796
303.43878
303.50029
303.50098
303.56263
303.56314
303.62489
303.62516
303.68694
302.62228
302.64557
302.6218
302.65324
302.62884
302.6605
302.63626
302.66812
302.64441
302.67716
302.65486
302.68932
302.6692
302.70596
302.68841
302.72772
302.71284
302.75475
302.74246
302.78688
302.77698
302.82372
302.81592
302.86471
302.85871
302.90928
302.90479
302.95689
302.95362
303.00702
303.00474
303.05922
303.0577
303.11309
303.11216
303.16828
303.1678
303.22452
303.22435
303.28155
303.28158
303.33916
303.33931
303.39717
303.39736
303.45542
303.4556
303.5138
303.5139
303.57217
302.61223
302.63646
302.61367
302.64391
302.62059
302.65091
302.62763
302.65798
302.63498
302.66586
302.64384
302.67595
302.65559
302.6895
302.67123
302.70727
302.69127
302.72958
302.71588
302.75646
302.74497
302.7877
302.77822
302.82293
302.81523
302.86169
302.85552
302.90353
302.89866
302.948
302.94422
302.99469
302.9918
303.04324
303.04108
303.09332
303.09174
303.14466
303.14354
303.197
303.19625
303.25014
303.24966
303.30388
303.3036
303.35808
303.35793
303.41259
303.41253
303.46728
302.60372
302.62861
302.6068
302.63584
302.61353
302.64254
302.62018
302.6491
302.62688
302.65609
302.63453
302.66459
302.64428
302.67571
302.65707
302.69024
302.67351
302.70861
302.69389
302.731
302.71828
302.75736
302.74653
302.78746
302.77835
302.82097
302.81338
302.85752
302.85127
302.89674
302.89165
302.93828
302.93418
302.9818
302.97853
303.027
303.02444
303.07363
303.07166
303.12144
303.11997
303.17022
303.16917
303.2198
303.21908
303.27
303.26956
303.32069
303.32048
303.37173
302.59689
302.62207
302.60119
302.62899
302.60763
302.63531
302.61384
302.64138
302.61997
302.64763
302.62667
302.6549
302.63486
302.66412
302.6454
302.67603
302.65889
302.69114
302.67573
302.70972
302.6961
302.73186
302.71998
302.75744
302.7472
302.78625
302.7775
302.818
302.8106
302.85241
302.8462
302.88916
302.884
302.92796
302.92373
302.96856
302.96513
303.0107
303.00797
303.05416
303.05205
303.09874
303.09716
303.14427
303.14315
303.19058
303.18987
303.23752
303.23718
303.28496
302.59187
302.61685
302.59679
302.6233
302.6028
302.62915
302.60853
302.63472
302.61414
302.64034
302.62005
302.64662
302.62702
302.65433
302.63576
302.66415
302.64687
302.67658
302.66077
302.69196
302.67773
302.71048
302.69783
302.73212
302.721
302.75675
302.74707
302.78418
302.77584
302.8142
302.80706
302.84654
302.8405
302.88097
302.8759
302.91724
302.91306
302.95514
302.95175
302.99447
302.99179
303.03503
303.03299
303.07666
303.07519
303.11919
303.11825
303.16249
303.16203
303.20642
302.58864
302.6129
302.59351
302.61868
302.59897
302.62398
302.60418
302.62903
302.60926
302.63407
302.61451
302.63954
302.62049
302.64605
302.6278
302.65418
302.63698
302.66442
302.64846
302.67714
302.66255
302.69257
302.67941
302.71079
302.69904
302.73174
302.72136
302.75533
302.74624
302.78138
302.77349
302.80969
302.80292
302.84008
302.83433
302.87233
302.86752
302.90626
302.9023
302.94168
302.93851
302.97842
302.97598
303.01632
303.01455
303.05523
303.05408
303.09501
303.09445
303.13554
302.58703
302.61009
302.59126
302.61503
302.59604
302.61972
302.60068
302.62422
302.60524
302.62872
302.60991
302.6335
302.61508
302.63904
302.62124
302.64581
302.62885
302.65425
302.63834
302.66475
302.65003
302.67757
302.66412
302.69285
302.68069
302.7106
302.69972
302.73077
302.72113
302.75327
302.7448
302.77794
302.77059
302.80462
302.79831
302.83316
302.82783
302.86339
302.85897
302.89515
302.89158
302.92829
302.92551
302.96266
302.96062
302.99811
302.99677
303.03451
303.03386
303.07176
302.58669
302.60825
302.58986
302.61224
302.59391
302.61626
302.59796
302.62021
302.602
302.62418
302.60612
302.62836
302.61061
302.63309
302.61583
302.63875
302.62218
302.64574
302.63003
302.6544
302.63971
302.66502
302.65146
302.67778
302.6654
302.69275
302.68155
302.70992
302.6999
302.72925
302.72037
302.75063
302.74285
302.77396
302.76722
302.7991
302.79335
302.82591
302.82111
302.85426
302.85036
302.88402
302.88096
302.91505
302.9128
302.94723
302.94575
302.98042
302.97969
303.01452
302.58717
302.60714
302.58918
302.61016
302.59246
302.6135
302.59591
302.6169
302.59943
302.62036
302.60306
302.624
302.60695
302.62805
302.6114
302.6328
302.6167
302.63858
302.62321
302.64572
302.63123
302.6545
302.641
302.66512
302.65268
302.67768
302.66633
302.69223
302.68199
302.70876
302.69961
302.72721
302.71913
302.74751
302.74046
302.76955
302.76349
302.79322
302.78813
302.81843
302.81426
302.84504
302.84176
302.87295
302.87052
302.90203
302.90044
302.93219
302.9314
302.9633
302.58809
302.60655
302.58902
302.60866
302.59157
302.61134
302.59443
302.61419
302.59746
302.61717
302.6006
302.62031
302.60398
302.62377
302.60776
302.62776
302.61222
302.63255
302.61761
302.63843
302.62424
302.64567
302.63235
302.65448
302.64211
302.66498
302.65361
302.67725
302.66691
302.69131
302.68202
302.70716
302.69889
302.72473
302.71748
302.74396
302.7377
302.76478
302.75949
302.78709
302.78273
302.81079
302.80735
302.83579
302.83324
302.86199
302.86031
302.88928
302.88845
302.91758
302.58913
302.60627
302.58924
302.60761
302.59112
302.60968
302.59344
302.61201
302.59598
302.61453
302.59869
302.61721
302.60159
302.62014
302.60481
302.62349
302.60854
302.62745
302.61302
302.63229
302.6185
302.63824
302.62521
302.64551
302.63333
302.65424
302.64298
302.66454
302.65424
302.67646
302.66713
302.69
302.68166
302.70514
302.69779
302.72185
302.71547
302.74007
302.73466
302.75974
302.75526
302.78077
302.77722
302.80308
302.80044
302.82659
302.82484
302.85121
302.85034
302.87685
302.59012
302.60617
302.58971
302.60689
302.59102
302.60842
302.59284
302.61027
302.59494
302.61235
302.59722
302.6146
302.59969
302.61707
302.60242
302.61986
302.60554
302.62313
302.60925
302.62708
302.61376
302.63195
302.61931
302.63793
302.62604
302.64516
302.63411
302.65376
302.64359
302.6638
302.65455
302.67532
302.667
302.68831
302.68094
302.70277
302.69634
302.71865
302.71317
302.73591
302.73137
302.75449
302.75089
302.77433
302.77164
302.79535
302.79357
302.81748
302.81659
302.84065
302.59099
302.60613
302.59031
302.60641
302.59117
302.60746
302.59255
302.60889
302.59424
302.61057
302.59613
302.61242
302.5982
302.61447
302.60049
302.61677
302.60308
302.61944
302.60614
302.62266
302.60985
302.62662
302.6144
302.6315
302.61997
302.63745
302.62668
302.6446
302.63463
302.65301
302.64391
302.66276
302.65454
302.67385
302.66654
302.6863
302.6799
302.70008
302.69461
302.71517
302.71062
302.73153
302.72791
302.74911
302.7464
302.76784
302.76604
302.78766
302.78677
302.80852
302.59175
302.60611
302.59098
302.60607
302.59148
302.60675
302.59249
302.6078
302.59381
302.6091
302.59535
302.61059
302.59705
302.61225
302.59894
302.61411
302.60107
302.61627
302.60357
302.61886
302.6066
302.62205
302.61032
302.62601
302.61489
302.63088
302.62044
302.63677
302.62709
302.64379
302.6349
302.65199
302.64394
302.66141
302.65422
302.67208
302.66577
302.68399
302.67858
302.69713
302.69262
302.71148
302.70787
302.72699
302.72429
302.74363
302.74183
302.76134
302.76044
302.78006
302.5924
302.60606
302.59165
302.60583
302.59191
302.6062
302.5926
302.60693
302.5936
302.6079
302.59481
302.60905
302.59617
302.61035
302.59769
302.61182
302.59941
302.61352
302.60143
302.61557
302.60387
302.61811
302.60689
302.62129
302.61062
302.62523
302.61518
302.63006
302.6207
302.63587
302.62725
302.64273
302.6349
302.65069
302.64368
302.65979
302.65362
302.67004
302.66473
302.68144
302.677
302.69397
302.69042
302.70762
302.70496
302.72235
302.72057
302.73811
302.73723
302.75487
302.59295
302.60598
302.59231
302.60563
302.59238
302.60577
302.59283
302.60623
302.59355
302.6069
302.59445
302.60774
302.5955
302.6087
302.59668
302.60981
302.59803
302.61111
302.59962
302.61269
302.60156
302.61467
302.60397
302.61718
302.60699
302.62034
302.61072
302.62426
302.61527
302.62903
302.62073
302.63473
302.62717
302.64143
302.63463
302.64915
302.64315
302.65793
302.65276
302.66777
302.66344
302.67869
302.67521
302.69065
302.68804
302.70365
302.7019
302.71764
302.71677
302.7326
302.59344
302.60587
302.59292
302.60546
302.59288
302.60542
302.59313
302.60565
302.5936
302.60606
302.59423
302.6066
302.59498
302.60725
302.59585
302.60803
302.59686
302.60897
302.59807
302.61014
302.59957
302.61164
302.60147
302.61357
302.60387
302.61606
302.60688
302.6192
302.61061
302.62309
302.61513
302.62779
302.62052
302.63338
302.62684
302.6399
302.63411
302.64739
302.64238
302.65586
302.65166
302.66532
302.66195
302.67577
302.67324
302.68721
302.68551
302.69959
302.69875
302.71291
302.59385
302.60571
302.59348
302.60527
302.59337
302.60511
302.59346
302.60515
302.59372
302.60531
302.59409
302.60558
302.59456
302.60595
302.59513
302.60642
302.59583
302.60703
302.5967
302.60783
302.59782
302.60891
302.59927
302.61036
302.60114
302.61227
302.60354
302.61475
302.60656
302.61787
302.61028
302.62172
302.61477
302.62636
302.62009
302.63183
302.62627
302.63818
302.63337
302.64544
302.6414
302.65361
302.65036
302.66272
302.66027
302.67274
302.67111
302.68368
302.68286
302.69551
302.59421
302.60552
302.59398
302.60508
302.59383
302.60483
302.5938
302.60469
302.59385
302.60463
302.59398
302.60465
302.59419
302.60474
302.59449
302.60492
302.5949
302.60522
302.59546
302.6057
302.59623
302.60641
302.59729
302.60744
302.59872
302.60887
302.6006
302.61078
302.60301
302.61326
302.60604
302.61637
302.60975
302.62018
302.6142
302.62474
302.61944
302.6301
302.6255
302.63629
302.63242
302.64333
302.64021
302.65123
302.64888
302.66
302.65843
302.66963
302.66884
302.68011
302.59451
302.60529
302.59443
302.60486
302.59426
302.60453
302.59411
302.60424
302.59398
302.60398
302.59388
302.60374
302.59383
302.60357
302.59387
302.60349
302.59401
302.60351
302.59428
302.60369
302.59475
302.60408
302.59547
302.60475
302.59651
302.60576
302.59794
302.60719
302.59984
302.60911
302.60228
302.61159
302.60532
302.6147
302.60902
302.61847
302.61343
302.62297
302.61859
302.62823
302.62454
302.63426
302.63129
302.6411
302.63886
302.64875
302.64725
302.6572
302.65645
302.66647
302.59477
302.60504
302.59482
302.60462
302.59463
302.60422
302.59437
302.60378
302.59406
302.60331
302.59374
302.60284
302.59345
302.60242
302.59323
302.60208
302.59312
302.60185
302.59314
302.60177
302.59333
302.60187
302.59375
302.60222
302.59445
302.60287
302.5955
302.60389
302.59696
302.60534
302.59889
302.60729
302.60136
302.60979
302.60442
302.61289
302.60811
302.61664
302.61249
302.62108
302.61758
302.62623
302.62341
302.63213
302.63
302.63878
302.63735
302.64619
302.64548
302.65437
302.59496
302.60475
302.59516
302.60434
302.59494
302.60387
302.59456
302.60328
302.59407
302.60259
302.59352
302.60189
302.593
302.60124
302.59254
302.60066
302.59219
302.6002
302.59197
302.59987
302.59192
302.59973
302.59208
302.5998
302.59249
302.60015
302.59321
302.60082
302.5943
302.60187
302.5958
302.60336
302.59777
302.60534
302.60027
302.60786
302.60335
302.61096
302.60704
302.61469
302.61139
302.61908
302.61641
302.62415
302.62214
302.62992
302.62857
302.6364
302.63572
302.6436
302.59512
302.60444
302.59545
302.60403
302.59518
302.60347
302.59466
302.6027
302.59397
302.6018
302.5932
302.60087
302.59244
302.59999
302.59176
302.59919
302.59119
302.59851
302.59076
302.59797
302.59049
302.59761
302.59042
302.59745
302.59058
302.59753
302.59102
302.5979
302.59178
302.59862
302.59292
302.59972
302.59447
302.60126
302.5965
302.60328
302.59904
302.60583
302.60214
302.60895
302.60584
302.61267
302.61015
302.61702
302.61512
302.62201
302.62073
302.62766
302.62702
302.63399
302.59522
302.60412
302.59568
302.60368
302.59534
302.60299
302.59465
302.60203
302.59374
302.6009
302.59274
302.59975
302.59176
302.59865
302.59086
302.59765
302.59009
302.59677
302.58946
302.59604
302.589
302.59548
302.58873
302.59512
302.58867
302.59498
302.58887
302.5951
302.58936
302.59553
302.59019
302.59631
302.59139
302.59747
302.59301
302.59907
302.5951
302.60115
302.59769
302.60374
302.60082
302.60688
302.60452
302.61059
302.60881
302.6149
302.61371
302.61983
302.61923
302.62538
302.59528
302.60377
302.59586
302.60328
302.5954
302.60243
302.5945
302.60123
302.59335
302.59987
302.59212
302.59849
302.59092
302.59719
302.58983
302.596
302.58887
302.59494
302.58806
302.59405
302.58743
302.59332
302.58698
302.59278
302.58675
302.59246
302.58674
302.59237
302.587
302.59256
302.58757
302.59306
302.58847
302.59392
302.58975
302.59516
302.59144
302.59683
302.5936
302.59897
302.59624
302.60161
302.5994
302.60477
302.6031