/*--------------------------------*- C++ -*----------------------------------*\
| =========                 |                                                 |
| \\      /  F ield         | OpenFOAM: The Open Source CFD Toolbox           |
|  \\    /   O peration     | Version:  2312                                  |
|   \\  /    A nd           | Website:  www.openfoam.com                      |
|    \\/     M anipulation  |                                                 |
\*---------------------------------------------------------------------------*/
FoamFile
{
    version     2.0;
    format      ascii;
    arch        "LSB;label=32;scalar=64";
    class       volScalarField;
    location    "6";
    object      p;
}
// * * * * * * * * * * * * * * * * * * * * * * * * * * * * * * * * * * * * * //

dimensions      [0 2 -2 0 0 0 0];

internalField   nonuniform List<scalar> 
4000
(
14.37856
13.887261
13.775631
13.323656
13.191469
12.757647
12.606203
12.189782
12.021716
11.620735
11.438153
11.050745
10.855446
10.479942
10.273498
9.9084269
9.6922183
9.3362849
9.1115282
8.7635907
8.5313574
8.1904092
7.9516451
7.6167976
7.3723378
7.0428053
6.7933891
6.4684757
6.2147586
5.8938463
5.6364112
5.3189497
5.0583168
4.7438138
4.4804493
4.1684626
3.9027866
3.5929165
3.32531
3.0171925
2.748004
2.4413048
2.1708559
1.8652645
1.5938556
1.2890804
1.0169957
0.71275883
0.44027097
0.13630019
14.377422
13.886819
13.775629
13.323664
13.191461
12.757654
12.606197
12.189788
12.02171
11.62074
11.438148
11.05075
10.855442
10.479946
10.273494
9.9084306
9.6922149
9.3362881
9.1115251
8.7635935
8.5313548
8.1904117
7.9516428
7.6167998
7.3723357
7.0428073
6.7933873
6.4684775
6.2147569
5.8938479
5.6364098
5.3189511
5.0583155
4.743815
4.4804481
4.1684637
3.9027855
3.5929175
3.3253091
3.0171935
2.7480031
2.4413056
2.170855
1.8652653
1.5938548
1.2890812
1.0169949
0.71275962
0.44027018
0.13630121
14.374804
13.886422
13.775645
13.323664
13.191461
12.757654
12.606196
12.189789
12.02171
11.620741
11.438148
11.05075
10.855441
10.479946
10.273494
9.9084307
9.6922148
9.3362883
9.111525
8.7635936
8.5313547
8.1904118
7.9516427
7.6167999
7.3723357
7.0428073
6.7933872
6.4684775
6.2147569
5.8938479
5.6364097
5.3189511
5.0583154
4.7438151
4.4804481
4.1684638
3.9027855
3.5929175
3.325309
3.0171935
2.7480031
2.4413057
2.170855
1.8652653
1.5938548
1.2890813
1.0169949
0.71275965
0.44027011
0.13630149
14.371814
13.886065
13.775665
13.323661
13.191463
12.757651
12.606199
12.189786
12.021712
11.620739
11.43815
11.050748
10.855443
10.479945
10.273495
9.9084293
9.692216
9.3362871
9.1115262
8.7635925
8.5313557
8.1904109
7.9516435
7.6167991
7.3723364
7.0428066
6.7933879
6.4684769
6.2147575
5.8938474
5.6364103
5.3189506
5.0583159
4.7438146
4.4804485
4.1684633
3.9027859
3.5929172
3.3253094
3.0171931
2.7480034
2.4413053
2.1708553
1.865265
1.5938551
1.289081
1.0169952
0.71275936
0.44027037
0.13630143
14.368961
13.885734
13.775683
13.32366
13.191466
12.757648
12.606201
12.189784
12.021714
11.620737
11.438152
11.050746
10.855445
10.479943
10.273497
9.908428
9.6922173
9.3362859
9.1115273
8.7635915
8.5313567
8.19041
7.9516444
7.6167982
7.3723372
7.0428059
6.7933886
6.4684762
6.2147581
5.8938468
5.6364108
5.3189501
5.0583164
4.7438141
4.480449
4.1684629
3.9027863
3.5929168
3.3253098
3.0171928
2.7480038
2.441305
2.1708556
1.8652647
1.5938554
1.2890807
1.0169955
0.71275907
0.44027065
0.13630133
14.366284
13.885418
13.775696
13.323659
13.191469
12.757646
12.606203
12.189782
12.021715
11.620735
11.438153
11.050745
10.855446
10.479942
10.273498
9.9084269
9.6922183
9.3362849
9.1115282
8.7635906
8.5313575
8.1904092
7.9516451
7.6167976
7.3723378
7.0428053
6.7933891
6.4684757
6.2147586
5.8938463
5.6364113
5.3189497
5.0583168
4.7438137
4.4804493
4.1684626
3.9027866
3.5929165
3.3253101
3.0171925
2.748004
2.4413047
2.1708559
1.8652645
1.5938556
1.2890804
1.0169957
0.71275883
0.44027088
0.13630126
14.363726
13.885118
13.775707
13.323659
13.191471
12.757644
12.606205
12.189781
12.021717
11.620734
11.438155
11.050744
10.855447
10.479941
10.273499
9.908426
9.6922192
9.3362841
9.111529
8.7635899
8.5313582
8.1904086
7.9516457
7.616797
7.3723384
7.0428048
6.7933896
6.4684753
6.214759
5.8938459
5.6364116
5.3189493
5.0583172
4.7438134
4.4804496
4.1684623
3.9027869
3.5929162
3.3253103
3.0171922
2.7480043
2.4413045
2.1708561
1.8652642
1.5938558
1.2890802
1.0169959
0.71275861
0.44027108
0.1363012
14.36127
13.884832
13.775715
13.323658
13.191474
12.757642
12.606206
12.189779
12.021718
11.620732
11.438156
11.050743
10.855448
10.47994
10.2735
9.9084251
9.69222
9.3362833
9.1115297
8.7635893
8.5313588
8.190408
7.9516463
7.6167965
7.3723388
7.0428043
6.79339
6.4684748
6.2147594
5.8938455
5.636412
5.318949
5.0583175
4.7438131
4.4804499
4.168462
3.9027872
3.5929159
3.3253106
3.017192
2.7480045
2.4413043
2.1708563
1.865264
1.593856
1.28908
1.0169961
0.71275842
0.44027127
0.13630113
14.358915
13.884562
13.775722
13.323656
13.191476
12.757641
12.606207
12.189778
12.021719
11.620731
11.438157
11.050742
10.855449
10.479939
10.2735
9.9084243
9.6922207
9.3362826
9.1115303
8.7635886
8.5313593
8.1904075
7.9516468
7.616796
7.3723393
7.0428039
6.7933904
6.4684745
6.2147598
5.8938452
5.6364123
5.3189487
5.0583178
4.7438129
4.4804502
4.1684618
3.9027874
3.5929157
3.3253108
3.0171918
2.7480047
2.4413041
2.1708565
1.8652639
1.5938562
1.2890798
1.0169963
0.71275824
0.44027145
0.13630106
14.356662
13.884307
13.775727
13.323655
13.191478
12.757639
12.606209
12.189777
12.021721
11.62073
11.438158
11.050741
10.85545
10.479938
10.273501
9.9084236
9.6922214
9.336282
9.1115309
8.7635881
8.5313599
8.190407
7.9516472
7.6167956
7.3723397
7.0428035
6.7933908
6.4684741
6.2147601
5.8938449
5.6364126
5.3189484
5.058318
4.7438126
4.4804504
4.1684615
3.9027876
3.5929155
3.325311
3.0171916
2.7480049
2.4413039
2.1708567
1.8652637
1.5938564
1.2890797
1.0169965
0.71275807
0.44027162
0.136301
14.35451
13.884065
13.775731
13.323653
13.191478
12.757638
12.60621
12.189776
12.021722
11.620729
11.438159
11.05074
10.855451
10.479938
10.273502
9.9084229
9.692222
9.3362814
9.1115315
8.7635876
8.5313604
8.1904065
7.9516477
7.6167952
7.3723401
7.0428032
6.7933911
6.4684738
6.2147604
5.8938446
5.6364129
5.3189481
5.0583183
4.7438124
4.4804506
4.1684613
3.9027878
3.5929153
3.3253112
3.0171914
2.748005
2.4413037
2.1708568
1.8652635
1.5938565
1.2890795
1.0169966
0.71275792
0.44027178
0.13630093
14.352457
13.883835
13.775733
13.323653
13.191479
12.757637
12.606211
12.189775
12.021723
11.620728
11.43816
11.050739
10.855452
10.479937
10.273503
9.9084223
9.6922226
9.3362809
9.111532
8.7635871
8.5313608
8.1904061
7.9516481
7.6167948
7.3723404
7.0428028
6.7933914
6.4684735
6.2147607
5.8938444
5.6364131
5.3189479
5.0583185
4.7438122
4.4804508
4.1684611
3.902788
3.5929151
3.3253113
3.0171913
2.7480052
2.4413036
2.170857
1.8652634
1.5938567
1.2890794
1.0169968
0.71275777
0.44027194
0.13630086
14.350504
13.883616
13.775736
13.323653
13.191479
12.757636
12.606212
12.189774
12.021724
11.620727
11.43816
11.050738
10.855452
10.479936
10.273503
9.9084218
9.6922231
9.3362804
9.1115324
8.7635867
8.5313612
8.1904057
7.9516484
7.6167944
7.3723408
7.0428025
6.7933917
6.4684732
6.2147609
5.8938441
5.6364133
5.3189477
5.0583187
4.743812
4.480451
4.1684609
3.9027882
3.592915
3.3253115
3.0171911
2.7480054
2.4413035
2.1708571
1.8652633
1.5938568
1.2890792
1.0169969
0.71275764
0.44027208
0.13630079
14.348649
13.883407
13.77574
13.323653
13.191478
12.757635
12.606213
12.189773
12.021724
11.620727
11.438161
11.050738
10.855453
10.479936
10.273504
9.9084212
9.6922236
9.3362799
9.1115329
8.7635862
8.5313616
8.1904053
7.9516488
7.6167941
7.3723411
7.0428023
6.793392
6.468473
6.2147612
5.8938439
5.6364135
5.3189475
5.0583189
4.7438118
4.4804512
4.1684608
3.9027883
3.5929148
3.3253116
3.017191
2.7480055
2.4413033
2.1708573
1.8652631
1.5938569
1.2890791
1.016997
0.71275752
0.44027221
0.13630072
14.346891
13.883221
13.775738
13.323652
13.191477
12.757634
12.606214
12.189772
12.021725
11.620726
11.438162
11.050737
10.855453
10.479935
10.273504
9.9084207
9.6922241
9.3362795
9.1115333
8.7635859
8.531362
8.190405
7.9516491
7.6167938
7.3723413
7.042802
6.7933922
6.4684727
6.2147614
5.8938437
5.6364137
5.3189473
5.0583191
4.7438116
4.4804514
4.1684606
3.9027885
3.5929147
3.3253118
3.0171909
2.7480056
2.4413032
2.1708574
1.865263
1.593857
1.289079
1.0169971
0.7127574
0.44027234
0.13630065
14.345224
13.883093
13.775703
13.323644
13.191474
12.757633
12.606215
12.189771
12.021726
11.620725
11.438162
11.050736
10.855454
10.479935
10.273505
9.9084203
9.6922245
9.3362791
9.1115336
8.7635855
8.5313623
8.1904047
7.9516494
7.6167935
7.3723416
7.0428017
6.7933925
6.4684725
6.2147616
5.8938435
5.6364139
5.3189471
5.0583192
4.7438115
4.4804515
4.1684605
3.9027886
3.5929146
3.3253119
3.0171907
2.7480057
2.4413031
2.1708575
1.8652629
1.5938572
1.2890789
1.0169972
0.71275729
0.44027246
0.13630058
14.343646
13.883039
13.775612
13.323628
13.19147
12.757631
12.606215
12.189771
12.021727
11.620725
11.438163
11.050736
10.855454
10.479934
10.273505
9.9084199
9.6922249
9.3362787
9.111534
8.7635852
8.5313626
8.1904044
7.9516497
7.6167933
7.3723418
7.0428015
6.7933927
6.4684723
6.2147618
5.8938433
5.6364141
5.318947
5.0583194
4.7438113
4.4804517
4.1684604
3.9027888
3.5929144
3.325312
3.0171906
2.7480058
2.441303
2.1708576
1.8652628
1.5938573
1.2890788
1.0169973
0.71275719
0.44027258
0.13630052
14.342161
13.88299
13.77551
13.323614
13.191466
12.75763
12.606216
12.18977
12.021727
11.620724
11.438163
11.050735
10.855455
10.479934
10.273506
9.9084195
9.6922253
9.3362784
9.1115343
8.7635849
8.5313629
8.1904041
7.9516499
7.6167931
7.3723421
7.0428013
6.7933929
6.4684721
6.214762
5.8938431
5.6364143
5.3189468
5.0583195
4.7438112
4.4804518
4.1684602
3.9027889
3.5929143
3.3253121
3.0171905
2.7480059
2.4413029
2.1708577
1.8652627
1.5938573
1.2890787
1.0169974
0.7127571
0.44027269
0.13630045
14.340772
13.882857
13.77547
13.323612
13.191464
12.75763
12.606217
12.18977
12.021728
11.620724
11.438164
11.050735
10.855455
10.479933
10.273506
9.9084191
9.6922256
9.3362781
9.1115346
8.7635846
8.5313632
8.1904039
7.9516501
7.6167928
7.3723423
7.0428011
6.7933931
6.468472
6.2147621
5.893843
5.6364144
5.3189467
5.0583197
4.7438111
4.4804519
4.1684601
3.902789
3.5929142
3.3253122
3.0171904
2.748006
2.4413028
2.1708578
1.8652626
1.5938574
1.2890786
1.0169975
0.71275701
0.44027279
0.13630039
14.339476
13.88266
13.775488
13.323618
13.191464
12.75763
12.606218
12.189769
12.021728
11.620723
11.438164
11.050734
10.855456
10.479933
10.273506
9.9084188
9.6922259
9.3362778
9.1115349
8.7635843
8.5313634
8.1904036
7.9516504
7.6167926
7.3723425
7.0428009
6.7933932
6.4684718
6.2147623
5.8938428
5.6364145
5.3189465
5.0583198
4.7438109
4.480452
4.16846
3.9027891
3.5929141
3.3253123
3.0171903
2.7480061
2.4413027
2.1708579
1.8652625
1.5938575
1.2890785
1.0169976
0.71275693
0.44027288
0.13630033
14.338274
13.882465
13.775517
13.323621
13.191464
12.75763
12.606218
12.189769
12.021729
11.620723
11.438165
11.050734
10.855456
10.479932
10.273507
9.9084185
9.6922262
9.3362775
9.1115352
8.7635841
8.5313636
8.1904034
7.9516506
7.6167924
7.3723426
7.0428008
6.7933934
6.4684717
6.2147624
5.8938427
5.6364147
5.3189464
5.0583199
4.7438108
4.4804521
4.1684599
3.9027892
3.592914
3.3253124
3.0171902
2.7480062
2.4413026
2.1708579
1.8652625
1.5938576
1.2890785
1.0169977
0.71275686
0.44027297
0.13630027
14.337158
13.882298
13.775538
13.323618
13.191464
12.757629
12.606219
12.189768
12.021729
11.620722
11.438165
11.050734
10.855457
10.479932
10.273507
9.9084182
9.6922265
9.3362772
9.1115354
8.7635839
8.5313638
8.1904032
7.9516508
7.6167923
7.3723428
7.0428006
6.7933936
6.4684715
6.2147626
5.8938426
5.6364148
5.3189463
5.05832
4.7438107
4.4804522
4.1684598
3.9027893
3.5929139
3.3253125
3.0171902
2.7480063
2.4413025
2.170858
1.8652624
1.5938577
1.2890784
1.0169977
0.71275679
0.44027306
0.13630022
14.336125
13.882159
13.775551
13.32361
13.191464
12.757629
12.60622
12.189768
12.02173
11.620722
11.438166
11.050733
10.855457
10.479932
10.273507
9.9084179
9.6922267
9.336277
9.1115356
8.7635836
8.531364
8.190403
7.9516509
7.6167921
7.372343
7.0428005
6.7933937
6.4684714
6.2147627
5.8938425
5.6364149
5.3189462
5.0583201
4.7438106
4.4804523
4.1684597
3.9027894
3.5929139
3.3253126
3.0171901
2.7480064
2.4413025
2.1708581
1.8652623
1.5938577
1.2890783
1.0169978
0.71275672
0.44027313
0.13630016
14.335169
13.882039
13.775558
13.323601
13.191463
12.757629
12.606221
12.189768
12.02173
11.620722
11.438166
11.050733
10.855457
10.479932
10.273508
9.9084176
9.692227
9.3362768
9.1115358
8.7635835
8.5313642
8.1904029
7.9516511
7.6167919
7.3723431
7.0428003
6.7933938
6.4684713
6.2147628
5.8938423
5.636415
5.3189461
5.0583202
4.7438105
4.4804524
4.1684597
3.9027894
3.5929138
3.3253126
3.01719
2.7480064
2.4413024
2.1708581
1.8652623
1.5938578
1.2890783
1.0169979
0.71275667
0.44027321
0.13630011
14.334289
13.881933
13.775558
13.323594
13.191464
12.757629
12.606221
12.189768
12.021731
11.620721
11.438166
11.050733
10.855457
10.479931
10.273508
9.9084174
9.6922272
9.3362766
9.111536
8.7635833
8.5313644
8.1904027
7.9516512
7.6167918
7.3723433
7.0428002
6.7933939
6.4684711
6.2147629
5.8938422
5.6364151
5.318946
5.0583203
4.7438105
4.4804525
4.1684596
3.9027895
3.5929137
3.3253127
3.01719
2.7480065
2.4413024
2.1708582
1.8652622
1.5938578
1.2890782
1.0169979
0.71275661
0.44027327
0.13630006
14.333481
13.881839
13.77555
13.323591
13.191465
12.75763
12.606222
12.189767
12.021731
11.620721
11.438167
11.050732
10.855458
10.479931
10.273508
9.9084172
9.6922274
9.3362764
9.1115362
8.7635831
8.5313646
8.1904026
7.9516514
7.6167917
7.3723434
7.0428001
6.7933941
6.468471
6.214763
5.8938422
5.6364152
5.3189459
5.0583204
4.7438104
4.4804525
4.1684595
3.9027896
3.5929137
3.3253128
3.0171899
2.7480065
2.4413023
2.1708582
1.8652622
1.5938579
1.2890782
1.016998
0.71275656
0.44027333
0.13630002
14.332744
13.881756
13.775535
13.323593
13.191467
12.75763
12.606223
12.189767
12.021732
11.620721
11.438167
11.050732
10.855458
10.479931
10.273508
9.908417
9.6922276
9.3362762
9.1115364
8.7635829
8.5313647
8.1904024
7.9516515
7.6167915
7.3723435
7.0428
6.7933942
6.4684709
6.2147631
5.8938421
5.6364153
5.3189458
5.0583204
4.7438103
4.4804526
4.1684594
3.9027896
3.5929136
3.3253128
3.0171899
2.7480066
2.4413023
2.1708583
1.8652621
1.5938579
1.2890781
1.016998
0.71275652
0.44027339
0.13629998
14.332074
13.881681
13.775516
13.323599
13.191469
12.757631
12.606223
12.189767
12.021732
11.620721
11.438167
11.050732
10.855458
10.479931
10.273508
9.9084168
9.6922278
9.336276
9.1115365
8.7635828
8.5313648
8.1904023
7.9516516
7.6167914
7.3723436
7.0427999
6.7933942
6.4684709
6.2147632
5.893842
5.6364153
5.3189458
5.0583205
4.7438103
4.4804527
4.1684594
3.9027897
3.5929136
3.3253129
3.0171898
2.7480066
2.4413022
2.1708583
1.8652621
1.593858
1.2890781
1.016998
0.71275648
0.44027344
0.13629994
14.331471
13.881615
13.775494
13.323607
13.19147
12.757631
12.606224
12.189767
12.021732
11.62072
11.438167
11.050732
10.855458
10.47993
10.273509
9.9084167
9.6922279
9.3362759
9.1115367
8.7635827
8.531365
8.1904022
7.9516517
7.6167913
7.3723437
7.0427998
6.7933943
6.4684708
6.2147632
5.8938419
5.6364154
5.3189457
5.0583206
4.7438102
4.4804527
4.1684593
3.9027897
3.5929135
3.3253129
3.0171898
2.7480067
2.4413022
2.1708584
1.865262
1.593858
1.2890781
1.0169981
0.71275644
0.44027349
0.1362999
14.330932
13.881553
13.775471
13.323618
13.191471
12.757631
12.606224
12.189767
12.021733
11.62072
11.438168
11.050732
10.855459
10.47993
10.273509
9.9084165
9.6922281
9.3362757
9.1115368
8.7635826
8.5313651
8.1904021
7.9516518
7.6167912
7.3723438
7.0427997
6.7933944
6.4684707
6.2147633
5.8938419
5.6364155
5.3189457
5.0583206
4.7438101
4.4804528
4.1684593
3.9027898
3.5929135
3.3253129
3.0171897
2.7480067
2.4413021
2.1708584
1.865262
1.593858
1.289078
1.0169981
0.71275641
0.44027352
0.13629987
14.330457
13.881495
13.775447
13.32363
13.191471
12.757631
12.606225
12.189766
12.021733
11.62072
11.438168
11.050731
10.855459
10.47993
10.273509
9.9084164
9.6922282
9.3362756
9.1115369
8.7635825
8.5313652
8.190402
7.9516519
7.6167912
7.3723439
7.0427996
6.7933945
6.4684706
6.2147634
5.8938418
5.6364155
5.3189456
5.0583207
4.7438101
4.4804528
4.1684592
3.9027898
3.5929134
3.325313
3.0171897
2.7480068
2.4413021
2.1708585
1.865262
1.5938581
1.289078
1.0169981
0.71275638
0.44027356
0.13629984
14.330042
13.881438
13.775423
13.323643
13.191469
12.757631
12.606225
12.189766
12.021733
11.62072
11.438168
11.050731
10.855459
10.47993
10.273509
9.9084162
9.6922283
9.3362755
9.111537
8.7635824
8.5313653
8.1904019
7.951652
7.6167911
7.3723439
7.0427996
6.7933945
6.4684706
6.2147634
5.8938417
5.6364156
5.3189456
5.0583207
4.7438101
4.4804529
4.1684592
3.9027899
3.5929134
3.325313
3.0171896
2.7480068
2.4413021
2.1708585
1.8652619
1.5938581
1.289078
1.0169982
0.71275636
0.44027358
0.13629981
14.329689
13.881381
13.7754
13.323656
13.191468
12.75763
12.606225
12.189766
12.021733
11.62072
11.438168
11.050731
10.855459
10.47993
10.273509
9.9084161
9.6922284
9.3362754
9.1115371
8.7635823
8.5313653
8.1904018
7.9516521
7.616791
7.372344
7.0427995
6.7933946
6.4684705
6.2147635
5.8938417
5.6364156
5.3189455
5.0583207
4.74381
4.4804529
4.1684592
3.9027899
3.5929134
3.325313
3.0171896
2.7480068
2.441302
2.1708585
1.8652619
1.5938581
1.2890779
1.0169982
0.71275634
0.4402736
0.13629979
14.329396
13.881321
13.775379
13.323662
13.19147
12.757631
12.606225
12.189766
12.021733
11.620719
11.438168
11.050731
10.855459
10.47993
10.273509
9.908416
9.6922285
9.3362753
9.1115372
8.7635822
8.5313654
8.1904018
7.9516521
7.616791
7.372344
7.0427994
6.7933946
6.4684705
6.2147635
5.8938417
5.6364157
5.3189455
5.0583208
4.74381
4.4804529
4.1684591
3.9027899
3.5929133
3.3253131
3.0171896
2.7480068
2.441302
2.1708585
1.8652619
1.5938581
1.2890779
1.0169982
0.71275632
0.44027362
0.13629978
14.329165
13.881255
13.775362
13.323656
13.191476
12.757633
12.606226
12.189766
12.021733
11.620719
11.438168
11.050731
10.855459
10.47993
10.273509
9.908416
9.6922286
9.3362753
9.1115372
8.7635821
8.5313655
8.1904017
7.9516522
7.6167909
7.3723441
7.0427994
6.7933947
6.4684705
6.2147636
5.8938416
5.6364157
5.3189455
5.0583208
4.74381
4.4804529
4.1684591
3.9027899
3.5929133
3.3253131
3.0171896
2.7480069
2.441302
2.1708585
1.8652619
1.5938582
1.2890779
1.0169982
0.71275632
0.44027362
0.13629976
14.328995
13.881183
13.775348
13.323644
13.191484
12.757637
12.606227
12.189766
12.021734
11.620719
11.438169
11.050731
10.855459
10.47993
10.273509
9.9084159
9.6922286
9.3362752
9.1115373
8.7635821
8.5313655
8.1904017
7.9516522
7.6167909
7.3723441
7.0427994
6.7933947
6.4684704
6.2147636
5.8938416
5.6364157
5.3189454
5.0583208
4.7438099
4.480453
4.1684591
3.90279
3.5929133
3.3253131
3.0171896
2.7480069
2.441302
2.1708586
1.8652619
1.5938582
1.2890779
1.0169982
0.71275631
0.44027362
0.13629976
14.328886
13.881107
13.775333
13.323631
13.191491
12.75764
12.606228
12.189766
12.021734
11.620719
11.438169
11.050731
10.855459
10.47993
10.273509
9.9084158
9.6922287
9.3362752
9.1115373
8.7635821
8.5313655
8.1904016
7.9516523
7.6167908
7.3723441
7.0427993
6.7933947
6.4684704
6.2147636
5.8938416
5.6364157
5.3189454
5.0583209
4.7438099
4.480453
4.1684591
3.90279
3.5929133
3.3253131
3.0171896
2.7480069
2.441302
2.1708586
1.8652619
1.5938582
1.2890779
1.0169982
0.71275632
0.44027362
0.13629975
14.328834
13.881031
13.775318
13.323623
13.191495
12.757642
12.606229
12.189766
12.021734
11.620719
11.438169
11.050731
10.855459
10.479929
10.273509
9.9084158
9.6922287
9.3362751
9.1115374
8.763582
8.5313656
8.1904016
7.9516523
7.6167908
7.3723442
7.0427993
6.7933948
6.4684704
6.2147636
5.8938416
5.6364157
5.3189454
5.0583209
4.7438099
4.480453
4.1684591
3.90279
3.5929133
3.3253131
3.0171895
2.7480069
2.441302
2.1708586
1.8652619
1.5938582
1.2890779
1.0169982
0.71275632
0.4402736
0.13629975
14.328823
13.880967
13.775305
13.32362
13.191496
12.757643
12.606229
12.189766
12.021734
11.620719
11.438169
11.050731
10.855459
10.479929
10.27351
9.9084158
9.6922287
9.3362751
9.1115374
8.763582
8.5313656
8.1904016
7.9516523
7.6167908
7.3723442
7.0427993
6.7933948
6.4684704
6.2147636
5.8938416
5.6364158
5.3189454
5.0583209
4.7438099
4.480453
4.1684591
3.90279
3.5929133
3.3253131
3.0171895
2.7480069
2.441302
2.1708586
1.8652619
1.5938582
1.2890779
1.0169982
0.71275633
0.44027359
0.13629975
14.328827
13.88093
13.775296
13.323619
13.191496
12.757644
12.606229
12.189766
12.021734
11.620719
11.438169
11.050731
10.855459
10.479929
10.27351
9.9084158
9.6922287
9.3362751
9.1115374
8.763582
8.5313656
8.1904016
7.9516523
7.6167908
7.3723442
7.0427993
6.7933948
6.4684704
6.2147636
5.8938416
5.6364158
5.3189454
5.0583209
4.7438099
4.480453
4.1684591
3.90279
3.5929133
3.3253131
3.0171895
2.7480069
2.441302
2.1708586
1.8652619
1.5938582
1.2890779
1.0169982
0.71275634
0.44027359
0.13629975
14.328827
13.88093
13.775296
13.323619
13.191496
12.757644
12.606229
12.189766
12.021734
11.620719
11.438169
11.050731
10.855459
10.479929
10.27351
9.9084158
9.6922287
9.3362751
9.1115374
8.763582
8.5313656
8.1904016
7.9516523
7.6167908
7.3723442
7.0427993
6.7933948
6.4684704
6.2147636
5.8938416
5.6364158
5.3189454
5.0583209
4.7438099
4.480453
4.1684591
3.90279
3.5929133
3.3253131
3.0171895
2.7480069
2.441302
2.1708586
1.8652619
1.5938582
1.2890779
1.0169982
0.71275634
0.44027359
0.13629975
14.328822
13.880968
13.775305
13.32362
13.191496
12.757643
12.606229
12.189766
12.021734
11.620719
11.438169
11.050731
10.855459
10.479929
10.27351
9.9084158
9.6922287
9.3362751
9.1115374
8.763582
8.5313656
8.1904016
7.9516523
7.6167908
7.3723442
7.0427993
6.7933948
6.4684704
6.2147636
5.8938416
5.6364158
5.3189454
5.0583209
4.7438099
4.480453
4.1684591
3.90279
3.5929133
3.3253131
3.0171895
2.7480069
2.441302
2.1708586
1.8652619
1.5938582
1.2890779
1.0169982
0.71275633
0.44027359
0.13629975
14.328833
13.881032
13.775318
13.323623
13.191495
12.757642
12.606229
12.189766
12.021734
11.620719
11.438169
11.050731
10.855459
10.479929
10.273509
9.9084158
9.6922287
9.3362751
9.1115374
8.763582
8.5313656
8.1904016
7.9516523
7.6167908
7.3723442
7.0427993
6.7933948
6.4684704
6.2147636
5.8938416
5.6364157
5.3189454
5.0583209
4.7438099
4.480453
4.1684591
3.90279
3.5929133
3.3253131
3.0171895
2.7480069
2.441302
2.1708586
1.8652619
1.5938582
1.2890779
1.0169982
0.71275632
0.4402736
0.13629975
14.328885
13.881108
13.775333
13.323631
13.191491
12.75764
12.606228
12.189766
12.021734
11.620719
11.438169
11.050731
10.855459
10.47993
10.273509
9.9084158
9.6922287
9.3362752
9.1115373
8.7635821
8.5313655
8.1904016
7.9516523
7.6167908
7.3723441
7.0427993
6.7933947
6.4684704
6.2147636
5.8938416
5.6364157
5.3189454
5.0583209
4.7438099
4.480453
4.1684591
3.90279
3.5929133
3.3253131
3.0171896
2.7480069
2.441302
2.1708586
1.8652619
1.5938582
1.2890779
1.0169982
0.71275632
0.44027362
0.13629975
14.328993
13.881185
13.775348
13.323644
13.191484
12.757637
12.606227
12.189766
12.021734
11.620719
11.438169
11.050731
10.855459
10.47993
10.273509
9.9084159
9.6922286
9.3362752
9.1115373
8.7635821
8.5313655
8.1904017
7.9516522
7.6167909
7.3723441
7.0427994
6.7933947
6.4684704
6.2147636
5.8938416
5.6364157
5.3189454
5.0583208
4.7438099
4.480453
4.1684591
3.90279
3.5929133
3.3253131
3.0171896
2.7480069
2.441302
2.1708586
1.8652619
1.5938582
1.2890779
1.0169982
0.71275631
0.44027362
0.13629976
14.329163
13.881257
13.775362
13.323656
13.191476
12.757633
12.606226
12.189766
12.021733
11.620719
11.438168
11.050731
10.855459
10.47993
10.273509
9.908416
9.6922286
9.3362753
9.1115372
8.7635821
8.5313655
8.1904017
7.9516522
7.6167909
7.3723441
7.0427994
6.7933947
6.4684705
6.2147636
5.8938416
5.6364157
5.3189455
5.0583208
4.74381
4.4804529
4.1684591
3.9027899
3.5929133
3.3253131
3.0171896
2.7480069
2.441302
2.1708585
1.8652619
1.5938582
1.2890779
1.0169982
0.71275632
0.44027362
0.13629976
14.329394
13.881323
13.775379
13.323662
13.19147
12.757631
12.606225
12.189766
12.021733
11.620719
11.438168
11.050731
10.855459
10.47993
10.273509
9.908416
9.6922285
9.3362753
9.1115372
8.7635822
8.5313654
8.1904018
7.9516521
7.616791
7.372344
7.0427994
6.7933946
6.4684705
6.2147635
5.8938417
5.6364157
5.3189455
5.0583208
4.74381
4.4804529
4.1684591
3.9027899
3.5929133
3.3253131
3.0171896
2.7480068
2.441302
2.1708585
1.8652619
1.5938581
1.2890779
1.0169982
0.71275632
0.44027362
0.13629978
14.329687
13.881383
13.7754
13.323656
13.191468
12.75763
12.606225
12.189766
12.021733
11.62072
11.438168
11.050731
10.855459
10.47993
10.273509
9.9084161
9.6922284
9.3362754
9.1115371
8.7635823
8.5313653
8.1904018
7.9516521
7.616791
7.372344
7.0427995
6.7933946
6.4684705
6.2147635
5.8938417
5.6364156
5.3189455
5.0583207
4.74381
4.4804529
4.1684592
3.9027899
3.5929134
3.325313
3.0171896
2.7480068
2.441302
2.1708585
1.8652619
1.5938581
1.2890779
1.0169982
0.71275634
0.4402736
0.13629979
14.330039
13.881441
13.775423
13.323643
13.191469
12.757631
12.606225
12.189766
12.021733
11.62072
11.438168
11.050731
10.855459
10.47993
10.273509
9.9084162
9.6922283
9.3362755
9.111537
8.7635824
8.5313653
8.1904019
7.951652
7.6167911
7.3723439
7.0427996
6.7933945
6.4684706
6.2147634
5.8938417
5.6364156
5.3189456
5.0583207
4.7438101
4.4804529
4.1684592
3.9027899
3.5929134
3.325313
3.0171896
2.7480068
2.4413021
2.1708585
1.8652619
1.5938581
1.289078
1.0169982
0.71275636
0.44027358
0.13629981
14.330453
13.881498
13.775447
13.32363
13.191471
12.757631
12.606225
12.189766
12.021733
11.62072
11.438168
11.050731
10.855459
10.47993
10.273509
9.9084164
9.6922282
9.3362756
9.1115369
8.7635825
8.5313652
8.190402
7.9516519
7.6167912
7.3723439
7.0427996
6.7933945
6.4684706
6.2147634
5.8938418
5.6364155
5.3189456
5.0583207
4.7438101
4.4804528
4.1684592
3.9027898
3.5929134
3.325313
3.0171897
2.7480068
2.4413021
2.1708585
1.865262
1.5938581
1.289078
1.0169981
0.71275638
0.44027356
0.13629984
14.330929
13.881556
13.775471
13.323618
13.191471
12.757631
12.606224
12.189767
12.021733
11.62072
11.438168
11.050732
10.855459
10.47993
10.273509
9.9084165
9.6922281
9.3362757
9.1115368
8.7635826
8.5313651
8.1904021
7.9516518
7.6167912
7.3723438
7.0427997
6.7933944
6.4684707
6.2147633
5.8938419
5.6364155
5.3189457
5.0583206
4.7438101
4.4804528
4.1684593
3.9027898
3.5929135
3.3253129
3.0171897
2.7480067
2.4413021
2.1708584
1.865262
1.593858
1.289078
1.0169981
0.71275641
0.44027352
0.13629987
14.331467
13.881618
13.775494
13.323608
13.19147
12.757631
12.606224
12.189767
12.021732
11.62072
11.438167
11.050732
10.855458
10.47993
10.273509
9.9084167
9.6922279
9.3362759
9.1115367
8.7635827
8.531365
8.1904022
7.9516517
7.6167913
7.3723437
7.0427998
6.7933943
6.4684708
6.2147632
5.8938419
5.6364154
5.3189457
5.0583206
4.7438102
4.4804527
4.1684593
3.9027897
3.5929135
3.3253129
3.0171898
2.7480067
2.4413022
2.1708584
1.865262
1.593858
1.2890781
1.0169981
0.71275644
0.44027349
0.1362999
14.33207
13.881686
13.775516
13.323599
13.191469
12.757631
12.606223
12.189767
12.021732
11.620721
11.438167
11.050732
10.855458
10.479931
10.273508
9.9084168
9.6922278
9.336276
9.1115365
8.7635828
8.5313648
8.1904023
7.9516516
7.6167914
7.3723436
7.0427999
6.7933942
6.4684709
6.2147632
5.893842
5.6364153
5.3189458
5.0583205
4.7438103
4.4804527
4.1684594
3.9027897
3.5929136
3.3253129
3.0171898
2.7480066
2.4413022
2.1708583
1.8652621
1.593858
1.2890781
1.016998
0.71275648
0.44027344
0.13629994
14.332739
13.88176
13.775535
13.323593
13.191467
12.75763
12.606223
12.189767
12.021732
11.620721
11.438167
11.050732
10.855458
10.479931
10.273508
9.908417
9.6922276
9.3362762
9.1115364
8.7635829
8.5313647
8.1904024
7.9516515
7.6167915
7.3723435
7.0428
6.7933942
6.4684709
6.2147631
5.8938421
5.6364153
5.3189458
5.0583204
4.7438103
4.4804526
4.1684594
3.9027896
3.5929136
3.3253128
3.0171899
2.7480066
2.4413023
2.1708583
1.8652621
1.5938579
1.2890781
1.016998
0.71275652
0.44027339
0.13629998
14.333476
13.881844
13.77555
13.323591
13.191465
12.75763
12.606222
12.189767
12.021731
11.620721
11.438167
11.050732
10.855458
10.479931
10.273508
9.9084172
9.6922274
9.3362764
9.1115362
8.7635831
8.5313646
8.1904026
7.9516514
7.6167917
7.3723434
7.0428001
6.7933941
6.468471
6.214763
5.8938422
5.6364152
5.3189459
5.0583204
4.7438104
4.4804525
4.1684595
3.9027896
3.5929137
3.3253128
3.0171899
2.7480065
2.4413023
2.1708582
1.8652622
1.5938579
1.2890782
1.016998
0.71275656
0.44027333
0.13630002
14.334283
13.881938
13.775558
13.323594
13.191464
12.757629
12.606221
12.189768
12.021731
11.620721
11.438166
11.050733
10.855457
10.479931
10.273508
9.9084174
9.6922272
9.3362766
9.111536
8.7635833
8.5313644
8.1904027
7.9516512
7.6167918
7.3723433
7.0428002
6.7933939
6.4684711
6.2147629
5.8938422
5.6364151
5.318946
5.0583203
4.7438105
4.4804525
4.1684596
3.9027895
3.5929137
3.3253127
3.01719
2.7480065
2.4413024
2.1708582
1.8652622
1.5938578
1.2890782
1.0169979
0.71275661
0.44027327
0.13630006
14.335164
13.882044
13.775558
13.323601
13.191463
12.757629
12.606221
12.189768
12.02173
11.620722
11.438166
11.050733
10.855457
10.479932
10.273508
9.9084176
9.692227
9.3362768
9.1115358
8.7635835
8.5313642
8.1904029
7.9516511
7.6167919
7.3723431
7.0428003
6.7933938
6.4684713
6.2147628
5.8938423
5.636415
5.3189461
5.0583202
4.7438105
4.4804524
4.1684597
3.9027894
3.5929138
3.3253126
3.01719
2.7480064
2.4413024
2.1708581
1.8652623
1.5938578
1.2890783
1.0169979
0.71275667
0.44027321
0.13630011
14.336119
13.882165
13.775551
13.32361
13.191464
12.757629
12.60622
12.189768
12.02173
11.620722
11.438166
11.050733
10.855457
10.479932
10.273507
9.9084179
9.6922267
9.336277
9.1115356
8.7635836
8.531364
8.190403
7.9516509
7.6167921
7.372343
7.0428005
6.7933937
6.4684714
6.2147627
5.8938425
5.6364149
5.3189462
5.0583201
4.7438106
4.4804523
4.1684597
3.9027894
3.5929139
3.3253126
3.0171901
2.7480064
2.4413025
2.1708581
1.8652623
1.5938577
1.2890783
1.0169978
0.71275672
0.44027313
0.13630016
14.337152
13.882305
13.775538
13.323618
13.191464
12.757629
12.606219
12.189768
12.021729
11.620722
11.438165
11.050734
10.855457
10.479932
10.273507
9.9084182
9.6922265
9.3362772
9.1115354
8.7635839
8.5313638
8.1904032
7.9516508
7.6167923
7.3723428
7.0428006