/*--------------------------------*- C++ -*----------------------------------*\
| =========                 |                                                 |
| \\      /  F ield         | OpenFOAM: The Open Source CFD Toolbox           |
|  \\    /   O peration     | Version:  2312                                  |
|   \\  /    A nd           | Website:  www.openfoam.com                      |
|    \\/     M anipulation  |                                                 |
\*---------------------------------------------------------------------------*/
FoamFile
{
    version     2.0;
    format      ascii;
    arch        "LSB;label=32;scalar=64";
    class       surfaceScalarField;
    location    "6";
    object      phi_0;
}
// * * * * * * * * * * * * * * * * * * * * * * * * * * * * * * * * * * * * * //

dimensions      [0 3 -1 0 0 0 0];

oriented        oriented;

internalField   nonuniform List<scalar> 
7870
(
5.3066665e-11
1.2931837e-09
5.1927001e-11
1.1393685e-12
5.1958566e-11
-3.1569594e-14
5.1215333e-11
7.4322896e-13
5.2052883e-11
-8.375476e-13
5.128463e-11
7.682531e-13
5.2023474e-11
-7.3884455e-13
5.1334593e-11
6.8888159e-13
5.1982988e-11
-6.483961e-13
5.1375752e-11
6.0723669e-13
5.19456e-11
-5.6984836e-13
5.141127e-11
5.3433003e-13
5.1912553e-11
-5.012835e-13
5.14423e-11
4.702535e-13
5.1883548e-11
-4.4124782e-13
5.1469466e-11
4.14082e-13
5.1858135e-11
-3.8866938e-13
5.1493243e-11
3.6489161e-13
5.1835894e-11
-3.4265092e-13
5.1514038e-11
3.2185645e-13
5.1816452e-11
-3.0241419e-13
5.1532201e-11
2.8425108e-13
5.1799481e-11
-2.6727986e-13
5.154804e-11
2.5144106e-13
5.1784695e-11
-2.3665488e-13
5.1561822e-11
2.228727e-13
5.1771844e-11
-2.1002231e-13
5.157378e-11
1.9806384e-13
5.1760713e-11
-1.8693258e-13
5.1584117e-11
1.7659575e-13
5.1751113e-11
-1.6699589e-13
5.1593007e-11
1.5810604e-13
5.1742883e-11
-1.4987566e-13
5.16006e-11
1.4228256e-13
5.1735883e-11
-1.352828e-13
5.1607025e-11
1.2885813e-13
5.1729996e-11
-1.2297085e-13
5.161239e-11
1.1760602e-13
5.1725122e-11
-1.1273184e-13
5.1616785e-11
1.0833613e-13
5.1721178e-11
-1.0439273e-13
5.1620286e-11
1.0089178e-13
5.1718099e-11
-9.7812487e-14
5.1622952e-11
9.514708e-14
5.1715831e-11
-9.2879274e-14
5.1624825e-11
9.1005832e-14
5.1714342e-11
-8.9517074e-14
5.1626065e-11
8.8277471e-14
5.1714642e-11
-8.8577661e-14
8.5030025e-14
1.4957453e-10
2.4898586e-09
1.5083607e-10
-1.218149e-13
1.5025922e-10
5.4531503e-13
1.4930118e-10
1.7012641e-12
1.5050772e-10
-2.044084e-12
1.4943334e-10
1.8426266e-12
1.5049371e-10
-1.7992145e-12
1.4951111e-10
1.6714872e-12
1.5043931e-10
-1.576604e-12
1.4957122e-10
1.4753298e-12
1.503864e-10
-1.3850276e-12
1.4962227e-10
1.2984553e-12
1.5033927e-10
-1.2182757e-12
1.4966673e-10
1.1427887e-12
1.5029783e-10
-1.0723513e-12
1.4970563e-10
1.0062916e-12
1.5026152e-10
-9.4456694e-13
1.4973966e-10
8.8675272e-13
1.5022974e-10
-8.3272845e-13
1.4976942e-10
7.821707e-13
1.5020195e-10
-7.3494208e-13
1.4979542e-10
6.9078367e-13
1.501777e-10
-6.4955631e-13
1.4981809e-10
6.1104998e-13
1.5015656e-10
-5.7512964e-13
1.4983781e-10
5.4162412e-13
1.5013819e-10
-5.1040568e-13
1.4985492e-10
4.813344e-13
1.5012228e-10
-4.542918e-13
1.4986972e-10
4.2916325e-13
1.5010856e-10
-4.0584066e-13
1.4988244e-10
3.8423001e-13
1.500968e-10
-3.6423424e-13
1.498933e-10
3.4577613e-13
1.5008679e-10
-3.2876993e-13
1.4990249e-10
3.131523e-13
1.5007837e-10
-2.9884877e-13
1.4991017e-10
2.858075e-13
1.500714e-10
-2.739652e-13
1.4991646e-10
2.6327964e-13
1.5006577e-10
-2.5369853e-13
1.4992147e-10
2.4518773e-13
1.5006136e-10
-2.3770569e-13
1.4992529e-10
2.312253e-13
1.5005812e-10
-2.257134e-13
1.4992797e-10
2.2115951e-13
1.5005598e-10
-2.1752894e-13
1.4992979e-10
2.1446955e-13
1.5005732e-10
-2.1611494e-13
2.0586278e-13
2.4299525e-10
3.5931131e-09
2.4727133e-10
-4.3977217e-12
2.458364e-10
1.9802577e-12
2.4509536e-10
2.4423037e-12
2.4623134e-10
-3.1800696e-12
2.4526129e-10
2.8126854e-12
2.4625635e-10
-2.7942804e-12
2.4534199e-10
2.5858506e-12
2.4621013e-10
-2.4447434e-12
2.4539976e-10
2.2856938e-12
2.4616143e-10
-2.1466928e-12
2.4544778e-10
2.0120983e-12
2.4611757e-10
-1.8880633e-12
2.4548941e-10
1.7709486e-12
2.4607894e-10
-1.6618794e-12
2.4552579e-10
1.559437e-12
2.4604507e-10
-1.4638371e-12
2.4555762e-10
1.3741931e-12
2.4601541e-10
-1.2905128e-12
2.4558545e-10
1.2121252e-12
2.4598948e-10
-1.1389673e-12
2.4560976e-10
1.0705046e-12
2.4596684e-10
-1.0066402e-12
2.4563095e-10
9.4694267e-13
2.4594712e-10
-8.9129733e-13
2.4564939e-10
8.393543e-13
2.4592997e-10
-7.9099137e-13
2.4566538e-10
7.4592385e-13
2.4591512e-10
-7.0402893e-13
2.4567921e-10
6.6507444e-13
2.4590231e-10
-6.2894181e-13
2.456911e-10
5.9544138e-13
2.4589133e-10
-5.6446218e-13
2.4570125e-10
5.3584913e-13
2.4588199e-10
-5.0950114e-13
2.4570985e-10
4.8529142e-13
2.4587413e-10
-4.6313029e-13
2.4571702e-10
4.4291426e-13
2.4586762e-10
-4.2456598e-13
2.457229e-10
4.0800134e-13
2.4586236e-10
-3.9315589e-13
2.4572758e-10
3.7996169e-13
2.4585825e-10
-3.6836753e-13
2.4573115e-10
3.5831917e-13
2.4585521e-10
-3.497744e-13
2.4573366e-10
3.4271349e-13
2.4585319e-10
-3.3706431e-13
2.4573544e-10
3.322223e-13
2.458557e-10
-3.3637609e-13
3.1790916e-13
3.3413654e-10
4.6052267e-09
3.4108325e-10
-1.1344443e-11
3.3892917e-10
4.1343356e-12
3.3837369e-10
2.9977745e-12
3.3943655e-10
-4.2429263e-12
3.3856939e-10
3.6798516e-12
3.394985e-10
-3.7233933e-12
3.3865225e-10
3.432105e-12
3.3945993e-10
-3.2524299e-12
3.387075e-10
3.0381297e-12
3.3941537e-10
-2.8545677e-12
3.3875243e-10
2.6750414e-12
3.3937478e-10
-2.5104163e-12
3.3879119e-10
2.354535e-12
3.3933895e-10
-2.2096322e-12
3.3882504e-10
2.0733425e-12
3.3930751e-10
-1.9463044e-12
3.3885464e-10
1.8270576e-12
3.3927998e-10
-1.7158492e-12
3.3888052e-10
1.6115828e-12
3.3925591e-10
-1.514353e-12
3.3890312e-10
1.4232925e-12
3.3923489e-10
-1.3384104e-12
3.3892282e-10
1.2590112e-12
3.3921658e-10
-1.1850503e-12
3.3893996e-10
1.115967e-12
3.3920065e-10
-1.0516834e-12
3.3895483e-10
9.91746e-13
3.3918686e-10
-9.3605804e-13
3.3896768e-10
8.8425177e-13
3.3917496e-10
-8.3622196e-13
3.3897874e-10
7.9166991e-13
3.3916476e-10
-7.5048938e-13
3.3898817e-10
7.1243745e-13
3.3915609e-10
-6.7741236e-13
3.3899616e-10
6.4521645e-13
3.3914879e-10
-6.1575631e-13
3.3900283e-10
5.8887126e-13
3.3914274e-10
-5.6447897e-13
3.3900829e-10
5.4244916e-13
3.3913785e-10
-5.2271241e-13
3.3901265e-10
5.0516354e-13
3.3913403e-10
-4.897473e-13
3.3901597e-10
4.7637923e-13
3.3913121e-10
-4.6501178e-13
3.390183e-10
4.5561666e-13
3.3912931e-10
-4.4806696e-13
3.3902002e-10
4.4150856e-13
3.391327e-10
-4.4905633e-13
4.2154289e-13
4.2280252e-10
5.5286746e-09
4.3222081e-10
-2.0762974e-11
4.2953278e-10
6.8223529e-12
4.2913909e-10
3.391463e-12
4.3012317e-10
-5.2270112e-12
4.2935764e-10
4.4453839e-12
4.3022006e-10
-4.5858133e-12
4.2944178e-10
4.2103853e-12
4.3018862e-10
-3.9992748e-12
4.2949432e-10
3.7324333e-12
4.3014813e-10
-3.5083801e-12
4.2953611e-10
3.2870635e-12
4.3011081e-10
-3.0851107e-12
4.2957199e-10
2.8933472e-12
4.3007778e-10
-2.7154157e-12
4.2960329e-10
2.5478307e-12
4.3004878e-10
-2.3917993e-12
4.2963065e-10
2.2451902e-12
4.3002339e-10
-2.1085891e-12
4.2965457e-10
1.9804061e-12
4.3000118e-10
-1.860969e-12
4.2967545e-10
1.7490262e-12
4.2998179e-10
-1.6447525e-12
4.2969365e-10
1.5471489e-12
4.2996489e-10
-1.4562879e-12
4.2970949e-10
1.3713682e-12
4.299502e-10
-1.2923932e-12
4.2972323e-10
1.2187181e-12
4.2993747e-10
-1.1503012e-12
4.297351e-10
1.0866223e-12
4.2992649e-10
-1.0276124e-12
4.2974531e-10
9.7285119e-13
4.2991708e-10
-9.2225524e-13
4.2975403e-10
8.7548418e-13
4.2990907e-10
-8.3245004e-13
4.2976141e-10
7.9287699e-13
4.2990233e-10
-7.5667939e-13
4.2976757e-10
7.236338e-13
4.2989675e-10
-6.9366202e-13
4.2977262e-10
6.6658331e-13
4.2989223e-10
-6.4233049e-13
4.2977664e-10
6.2075765e-13
4.298887e-10
-6.0181117e-13
4.2977971e-10
5.8537326e-13
4.2988609e-10
-5.7139476e-13
4.2978187e-10
5.5983885e-13
4.2988431e-10
-5.5050673e-13
4.297835e-10
5.4231768e-13
4.2988837e-10
-5.5392073e-13
5.1671085e-13
5.0896951e-10
6.3659553e-09
5.2068648e-10
-3.2480129e-11
5.1764612e-10
9.8627137e-12
5.1739398e-10
3.643598e-12
5.1829122e-10
-6.1242438e-12
5.1762597e-10
5.1106258e-12
5.1842117e-10
-5.3810156e-12
5.177105e-10
4.921057e-12
5.1839633e-10
-4.6850986e-12
5.1776016e-10
4.368598e-12
5.1835983e-10
-4.1080444e-12
5.1779877e-10
3.84812e-12
5.1832574e-10
-3.6120864e-12
5.1783175e-10
3.3873405e-12
5.1829552e-10
-3.1791805e-12
5.1786049e-10
2.9828613e-12
5.1826897e-10
-2.8002791e-12
5.178856e-10
2.6285551e-12
5.1824571e-10
-2.4686956e-12
5.1790755e-10
2.3185639e-12
5.1822536e-10
-2.1787832e-12
5.1792671e-10
2.0476785e-12
5.182076e-10
-1.9256387e-12
5.1794341e-10
1.8113321e-12
5.1819211e-10
-1.7049865e-12
5.1795794e-10
1.6055376e-12
5.1817865e-10
-1.5131007e-12
5.1797055e-10
1.4268226e-12
5.1816699e-10
-1.3467411e-12
5.1798144e-10
1.2721711e-12
5.1815692e-10
-1.2030989e-12
5.179908e-10
1.1389728e-12
5.181483e-10
-1.0797479e-12
5.179988e-10
1.0249791e-12
5.1814095e-10
-9.7460462e-13
5.1800557e-10
9.2826495e-13
5.1813478e-10
-8.8589209e-13
5.1801122e-10
8.4719576e-13
5.1812967e-10
-8.1210968e-13
5.1801585e-10
7.8039954e-13
5.1812552e-10
-7.5200657e-13
5.1801954e-10
7.2674162e-13
5.1812229e-10
-7.0455747e-13
5.1802236e-10
6.8530067e-13
5.1811989e-10
-6.6892366e-13
5.1802435e-10
6.5538102e-13
5.1811823e-10
-6.4438581e-13
5.1802588e-10
6.3466772e-13
5.1812275e-10
-6.5079135e-13
6.0335954e-13
5.9269868e-10
7.1195066e-09
6.0649113e-10
-4.6272607e-11
6.0326683e-10
1.3087027e-11
6.0313874e-10
3.7716842e-12
6.0394077e-10
-6.9262648e-12
6.0337424e-10
5.6771539e-12
6.0410198e-10
-6.1087572e-12
6.0345828e-10
5.5647524e-12
6.0408315e-10
-5.3099637e-12
6.035049e-10
4.9468456e-12
6.0405055e-10
-4.6536916e-12
6.035403e-10
4.3583685e-12
6.0401969e-10
-4.0914737e-12
6.0357038e-10
3.836648e-12
6.0399224e-10
-3.6010442e-12
6.0359655e-10
3.3785503e-12
6.0396812e-10
-3.1718485e-12
6.0361942e-10
2.9772545e-12
6.0394699e-10
-2.7962614e-12
6.0363941e-10
2.6261462e-12
6.039285e-10
-2.4678779e-12
6.0365685e-10
2.319329e-12
6.0391236e-10
-2.1811423e-12
6.0367206e-10
2.0516315e-12
6.0389828e-10
-1.9312112e-12
6.0368528e-10
1.818538e-12
6.0388604e-10
-1.713864e-12
6.0369675e-10
1.6161158e-12
6.0387544e-10
-1.5254305e-12
6.0370666e-10
1.4409487e-12
6.0386629e-10
-1.3627286e-12
6.0371518e-10
1.2900806e-12
6.0385845e-10
-1.2230106e-12
6.0372246e-10
1.1609642e-12
6.0385177e-10
-1.1039158e-12
6.0372862e-10
1.0514189e-12
6.0384616e-10
-1.0034313e-12
6.0373376e-10
9.5959311e-13
6.0384151e-10
-9.1985664e-13
6.0373797e-10
8.8393191e-13
6.0383774e-10
-8.5177377e-13
6.0374134e-10
8.2314822e-13
6.038348e-10
-7.9801841e-13
6.037439e-10
7.7619364e-13
6.0383261e-10
-7.5763067e-13
6.0374572e-10
7.4227535e-13
6.0383107e-10
-7.2973805e-13
6.0374713e-10
7.1860434e-13
6.0383589e-10
-7.395448e-13
6.8152061e-13
6.7405236e-10
7.7917041e-09
6.8965121e-10
-6.187131e-11
6.8639147e-10
1.634679e-11
6.8637006e-10
3.7930864e-12
6.8707215e-10
-7.6283446e-12
6.8660223e-10
6.1470664e-12
6.8726259e-10
-6.7691181e-12
6.8668501e-10
6.1423364e-12
6.8724919e-10
-5.8741484e-12
6.8672844e-10
5.4676021e-12
6.8722039e-10
-5.1456463e-12
6.8676061e-10
4.8181469e-12
6.8719271e-10
-4.5235731e-12
6.867878e-10
4.2415614e-12
6.8716803e-10
-3.9812736e-12
6.8681142e-10
3.7351536e-12
6.8714632e-10
-3.506743e-12
6.8683206e-10
3.2915134e-12
6.8712729e-10
-3.0914946e-12
6.8685009e-10
2.9033512e-12
6.8711065e-10
-2.728437e-12
6.8686582e-10
2.5641528e-12
6.8709611e-10
-2.4114261e-12
6.8687954e-10
2.268202e-12
6.8708343e-10
-2.1351065e-12
6.8689146e-10
2.0105069e-12
6.8707241e-10
-1.8948117e-12
6.8690181e-10
1.7867199e-12
6.8706286e-10
-1.6864838e-12
6.8691074e-10
1.5930646e-12
6.8705462e-10
-1.5066046e-12
6.8691843e-10
1.4262725e-12
6.8704755e-10
-1.3521359e-12
6.8692499e-10
1.2835278e-12
6.8704154e-10
-1.2204676e-12
6.8693054e-10
1.1624194e-12
6.8703648e-10
-1.1093738e-12
6.8693518e-10
1.0608998e-12
6.8703229e-10
-1.0169738e-12
6.8693898e-10
9.772491e-13
6.870289e-10
-9.4169843e-13
6.8694201e-10
9.1004208e-13
6.8702625e-10
-8.8225695e-13
6.8694433e-10
8.5811413e-13
6.8702427e-10
-8.3757694e-13
6.8694597e-10
8.2058239e-13
6.8702285e-10
-8.0662585e-13
6.8694726e-10
7.9419825e-13
6.8702782e-10
-8.201059e-13
7.512905e-13
7.5307502e-10
8.3848789e-09
7.7018609e-10
-7.8982305e-11
7.6701538e-10
1.9517519e-11
7.6708121e-10
3.7272517e-12
7.67686e-10
-8.2331278e-12
7.6730968e-10
6.5233826e-12
7.679031e-10
-7.3625403e-12
7.6739057e-10
6.6548662e-12
7.6789455e-10
-6.3781242e-12
7.6743068e-10
5.9314726e-12
7.6786944e-10
-5.584403e-12
7.6745963e-10
5.2279517e-12
7.6784489e-10
-4.9088339e-12
7.6748394e-10
4.6025119e-12
7.6782293e-10
-4.3202671e-12
7.6750504e-10
4.0530497e-12
7.6780361e-10
-3.8053141e-12
7.6752346e-10
3.5716649e-12
7.6778667e-10
-3.3547051e-12
7.6753955e-10
3.1504727e-12
7.6777184e-10
-2.9607342e-12
7.6755359e-10
2.7824092e-12
7.6775889e-10
-2.6167322e-12
7.6756582e-10
2.4612729e-12
7.677476e-10
-2.316887e-12
7.6757646e-10
2.1816476e-12
7.6773779e-10
-2.0561344e-12
7.6758569e-10
1.9388157e-12
7.6772928e-10
-1.830071e-12
7.6759366e-10
1.7286797e-12
7.6772194e-10
-1.6348786e-12
7.6760051e-10
1.5476931e-12
7.6771564e-10
-1.4672602e-12
7.6760637e-10
1.3928001e-12
7.6771028e-10
-1.3243833e-12
7.6761132e-10
1.2613845e-12
7.6770578e-10
-1.2038319e-12
7.6761545e-10
1.1512238e-12
7.6770204e-10
-1.1035646e-12
7.6761884e-10
1.0604508e-12
7.6769902e-10
-1.0218766e-12
7.6762154e-10
9.8751656e-13
7.6769665e-10
-9.5736379e-13
7.6762361e-10
9.3115095e-13
7.6769489e-10
-9.088498e-13
7.6762508e-10
8.9038835e-13
7.6769359e-10
-8.7513727e-13
7.6762625e-10
8.6154307e-13
7.6769858e-10
-8.9244268e-13
8.1280769e-13
8.2979982e-10
8.9013289e-09
8.4811563e-10
-9.7298066e-11
8.451331e-10
2.2500062e-11
8.452654e-10
3.5949477e-12
8.4578331e-10
-8.7510318e-12
8.4549633e-10
6.810357e-12
8.4602358e-10
-7.8897865e-12
8.4557488e-10
7.1035629e-12
8.460193e-10
-6.8225387e-12
8.4561155e-10
6.3392236e-12
8.4599775e-10
-5.9706101e-12
8.4563728e-10
5.5884227e-12
8.4597629e-10
-5.2478408e-12
8.4565874e-10
4.9200571e-12
8.4595702e-10
-4.6185414e-12
8.4567734e-10
4.3327282e-12
8.4594004e-10
-4.0680174e-12
8.4569357e-10
3.8181402e-12
8.4592516e-10
-3.5862949e-12
8.4570774e-10
3.3678908e-12
8.4591213e-10
-3.1651246e-12
8.457201e-10
2.9744338e-12
8.4590075e-10
-2.7973745e-12
8.4573088e-10
2.631141e-12
8.4589082e-10
-2.4768306e-12
8.4574025e-10
2.3322229e-12
8.4588219e-10
-2.1980789e-12
8.4574837e-10
2.0726368e-12
8.4587471e-10
-1.9564117e-12
8.4575539e-10
1.8480024e-12
8.4586826e-10
-1.747747e-12
8.4576142e-10
1.6545286e-12
8.4586272e-10
-1.5685599e-12
8.4576657e-10
1.4889489e-12
8.4585801e-10
-1.4158222e-12
8.4577093e-10
1.348466e-12
8.4585405e-10
-1.2869506e-12
8.4577457e-10
1.2307039e-12
8.4585076e-10
-1.1797618e-12
8.4577755e-10
1.1336651e-12
8.4584811e-10
-1.0924317e-12
8.4577993e-10
1.0556912e-12
8.4584602e-10
-1.0234549e-12
8.4578176e-10
9.9541751e-13
8.4584447e-10
-9.7156054e-13
8.4578305e-10
9.5180293e-13
8.458433e-10
-9.3538377e-13
8.4578409e-10
9.2075359e-13
8.4584821e-10
-9.5656227e-13
8.6624252e-13
9.0425634e-10
9.3433226e-09
9.2345759e-10
-1.1649933e-10
9.207388e-10
2.5218859e-11
9.2091898e-10
3.4147623e-12
9.213652e-10
-9.1972424e-12
9.2116205e-10
7.013503e-12
9.2162408e-10
-8.3518137e-12
9.2123785e-10
7.4897926e-12
9.2162351e-10
-7.2081986e-12
9.2127096e-10
6.6917689e-12
9.2160541e-10
-6.305057e-12
9.212935e-10
5.9003311e-12
9.2158696e-10
-5.5413021e-12
9.2131215e-10
5.1948699e-12
9.2157033e-10
-4.8767222e-12
9.2132828e-10
4.5747807e-12
9.2155566e-10
-4.2954046e-12
9.2134234e-10
4.0314602e-12
9.215428e-10
-3.7867506e-12
9.2135463e-10
3.5560647e-12
9.2153154e-10
-3.3420376e-12
9.2136534e-10
3.140632e-12
9.215217e-10
-2.9537326e-12
9.2137468e-10
2.7781647e-12
9.2151312e-10
-2.6152736e-12
9.2138279e-10
2.4625506e-12
9.2150566e-10
-2.3209436e-12
9.2138983e-10
2.1884653e-12
9.2149919e-10
-2.0657714e-12
9.213959e-10
1.9512841e-12
9.214936e-10
-1.8454469e-12
9.2140113e-10
1.7470042e-12
9.2148882e-10
-1.6562478e-12
9.2140559e-10
1.5721765e-12
9.2148474e-10
-1.4949763e-12
9.2140936e-10
1.4238472e-12
9.2148132e-10
-1.3589042e-12
9.2141251e-10
1.2995071e-12
9.2147848e-10
-1.2457254e-12
9.214151e-10
1.1970458e-12
9.2147618e-10
-1.153512e-12
9.2141716e-10
1.1147095e-12
9.2147437e-10
-1.0806697e-12
9.2141874e-10
1.0510498e-12
9.2147302e-10
-1.0258425e-12
9.2141987e-10
1.0049574e-12
9.2147198e-10
-9.8749823e-13
9.2142077e-10
9.7196424e-13
9.2147672e-10
-1.0125075e-12
9.1179215e-13
9.7647332e-10
9.7130993e-09
9.9622741e-10
-1.3625347e-10
9.9382668e-10
2.7619588e-11
9.9404179e-10
3.1996496e-12
9.9443264e-10
-9.5880914e-12
9.9430682e-10
7.1393272e-12
9.9470465e-10
-8.7496488e-12
9.9437939e-10
7.8150507e-12
9.9470725e-10
-7.536053e-12
9.9440886e-10
6.9901572e-12
9.9469246e-10
-6.5886621e-12
9.9442823e-10
6.1645678e-12
9.9467696e-10
-5.7900391e-12
9.944441e-10
5.4277292e-12
9.9466292e-10
-5.0955348e-12
9.9445781e-10
4.779892e-12
9.9465052e-10
-4.4881151e-12
9.9446975e-10
4.2122279e-12
9.9463963e-10
-3.9566359e-12
9.9448017e-10
3.7155262e-12
9.9463011e-10
-3.4919709e-12
9.9448927e-10
3.2814731e-12
9.9462178e-10
-3.0862464e-12
9.9449718e-10
2.9027591e-12
9.9461452e-10
-2.7326053e-12
9.9450407e-10
2.5729981e-12
9.946082e-10
-2.4250739e-12
9.9451004e-10
2.2866276e-12
9.9460272e-10
-2.1584576e-12
9.9451519e-10
2.0388157e-12
9.94598e-10
-1.9282529e-12
9.9451962e-10
1.82538e-12
9.9459394e-10
-1.7305701e-12
9.945234e-10
1.6427169e-12
9.9459049e-10
-1.5620677e-12
9.945266e-10
1.4877399e-12
9.9458759e-10
-1.4198948e-12
9.9452927e-10
1.3578267e-12
9.9458519e-10
-1.3016406e-12
9.9453146e-10
1.250771e-12
9.9458324e-10
-1.2052887e-12
9.9453321e-10
1.1647374e-12
9.9458171e-10
-1.1291689e-12
9.9453456e-10
1.0982046e-12
9.9458056e-10
-1.0718491e-12
9.9453552e-10
1.0500029e-12
9.9457965e-10
-1.031633e-12
9.9453629e-10
1.0153275e-12
9.9458413e-10
-1.0603535e-12
9.4967636e-13
1.0464778e-09
1.0012872e-08
1.0664392e-09
-1.5621489e-10
1.064391e-09
2.9667795e-11
1.0646357e-09
2.9549852e-12
1.0649863e-09
-9.9387261e-12
1.0649307e-09
7.1949429e-12
1.0652653e-09
-9.0843061e-12
1.0649995e-09
8.0809469e-12
1.0652706e-09
-7.8071788e-12
1.0650252e-09
7.235561e-12
1.065259e-09
-6.8224606e-12
1.0650414e-09
6.3821336e-12
1.0652463e-09
-5.9949765e-12
1.0650546e-09
5.6195104e-12
1.0652348e-09
-5.2757955e-12
1.0650659e-09
4.9488317e-12
1.0652246e-09
-4.6468682e-12
1.0650757e-09
4.3611212e-12
1.0652157e-09
-4.0965852e-12
1.0650843e-09
3.8468728e-12
1.0652079e-09
-3.6154843e-12
1.0650918e-09
3.3974848e-12
1.065201e-09
-3.1954106e-12
1.0650984e-09
3.0053905e-12
1.065195e-09
-2.8292637e-12
1.0651041e-09
2.6639789e-12
1.0651898e-09
-2.5108583e-12
1.065109e-09
2.367491e-12
1.0651853e-09
-2.234816e-12
1.0651132e-09
2.1109243e-12
1.0651815e-09
-1.9964736e-12
1.0651169e-09
1.8899487e-12
1.0651781e-09
-1.7918036e-12
1.06512e-09
1.7008332e-12
1.0651753e-09
-1.6173462e-12
1.0651226e-09
1.5403821e-12
1.0651729e-09
-1.4701489e-12
1.0651248e-09
1.4058797e-12
1.0651709e-09
-1.3477148e-12
1.0651266e-09
1.2950404e-12
1.0651693e-09
-1.2479543e-12
1.0651281e-09
1.2059608e-12
1.065168e-09
-1.1691328e-12
1.0651292e-09
1.1370578e-12
1.0651671e-09
-1.1097526e-12
1.06513e-09
1.0871087e-12
1.0651663e-09
-1.0679581e-12
1.0651306e-09
1.0510126e-12
1.0651705e-09
-1.1002051e-12
9.8013364e-13
1.1142919e-09
1.024483e-08
1.1341063e-09
-1.7602939e-10
1.1324269e-09
3.1347241e-11
1.1327029e-09
2.6789214e-12
1.1330265e-09
-1.0262318e-11
1.1330338e-09
7.1877109e-12
1.1333062e-09
-9.3567491e-12
1.133098e-09
8.2891923e-12
1.1333136e-09
-8.022769e-12
1.1331199e-09
7.4292652e-12
1.133305e-09
-7.007595e-12
1.133133e-09
6.5541288e-12
1.1332951e-09
-6.1571329e-12
1.1331435e-09
5.7711765e-12
1.1332861e-09
-5.4184028e-12
1.1331525e-09
5.0824467e-12
1.1332781e-09
-4.7724561e-12
1.1331603e-09
4.478886e-12
1.133271e-09
-4.2072969e-12
1.1331671e-09
3.9507623e-12
1.1332648e-09
-3.7131941e-12
1.1331731e-09
3.4892476e-12
1.1332594e-09
-3.2817698e-12
1.1331782e-09
3.0865724e-12
1.1332547e-09
-2.905731e-12
1.1331827e-09
2.7359476e-12
1.1332506e-09
-2.5787248e-12
1.1331866e-09
2.4314591e-12
1.1332471e-09
-2.2952272e-12
1.13319e-09
2.1679696e-12
1.133244e-09
-2.0504487e-12
1.1331929e-09
1.9410321e-12
1.1332413e-09
-1.8402531e-12
1.1331954e-09
1.7468149e-12
1.1332391e-09
-1.6610865e-12
1.1331975e-09
1.5820356e-12
1.1332372e-09
-1.5099162e-12
1.1331992e-09
1.4439047e-12
1.1332357e-09
-1.3841768e-12
1.1332006e-09
1.3300736e-12
1.1332344e-09
-1.2817201e-12
1.1332018e-09
1.2385843e-12
1.1332334e-09
-1.2007597e-12
1.1332026e-09
1.1678024e-12
1.1332326e-09
-1.1397418e-12
1.1332033e-09
1.1164604e-12
1.133232e-09
-1.0966598e-12
1.1332038e-09
1.0792038e-12
1.1332358e-09
-1.1321934e-12
1.0034175e-12
1.1799259e-09
1.0411154e-08
1.1992415e-09
-1.9534495e-10
1.1979351e-09
3.265367e-11
1.1982454e-09
2.3685201e-12
1.1985534e-09
-1.0570317e-11
1.1986161e-09
7.1250304e-12
1.1988273e-09
-9.5678976e-12
1.1986749e-09
8.4415907e-12
1.1988362e-09
-8.1841214e-12
1.1986928e-09
7.5726581e-12
1.1988305e-09
-7.1453037e-12
1.1987029e-09
6.6817443e-12
1.1988234e-09
-6.277612e-12
1.1987108e-09
5.8837701e-12
1.1988167e-09
-5.5243307e-12
1.1987175e-09
5.1816541e-12
1.1988108e-09
-4.8657367e-12
1.1987234e-09
4.56633e-12
1.1988056e-09
-4.2895275e-12
1.1987285e-09
4.0279069e-12
1.198801e-09
-3.7857681e-12
1.1987329e-09
3.5573903e-12
1.198797e-09
-3.3459141e-12
1.1987367e-09
3.1468606e-12
1.1987935e-09
-2.9625294e-12
1.1987401e-09
2.7893968e-12
1.1987905e-09
-2.6291365e-12
1.198743e-09
2.4789695e-12
1.1987879e-09
-2.3401032e-12
1.1987455e-09
2.2103414e-12
1.1987856e-09
-2.0905464e-12
1.1987477e-09
1.9789789e-12
1.1987836e-09
-1.8762486e-12
1.1987495e-09
1.7809752e-12
1.198782e-09
-1.6935862e-12
1.198751e-09
1.6129839e-12
1.1987806e-09
-1.5394669e-12
1.1987523e-09
1.4721602e-12
1.1987794e-09
-1.411274e-12
1.1987534e-09
1.3561085e-12
1.1987785e-09
-1.3068151e-12
1.1987542e-09
1.2628291e-12
1.1987778e-09
-1.2242641e-12
1.1987549e-09
1.1906474e-12
1.1987772e-09
-1.1620211e-12
1.1987554e-09
1.1382589e-12
1.1987767e-09
-1.1179388e-12
1.1987558e-09
1.1000993e-12
1.1987801e-09
-1.156474e-12
1.0197932e-12
1.2433652e-09
1.0514039e-08
1.2618558e-09
-2.1383548e-10
1.2609336e-09
3.3575854e-11
1.2612637e-09
2.0384586e-12
1.2615665e-09
-1.087316e-11
1.2616775e-09
7.0139928e-12
1.2618285e-09
-9.7188457e-12
1.2617301e-09
8.5399734e-12
1.2618386e-09
-8.2926556e-12
1.2617441e-09
7.6672139e-12
1.2618357e-09
-7.2369154e-12
1.2617512e-09
6.7662525e-12
1.2618312e-09
-6.3575947e-12
1.2617565e-09
5.9584058e-12
1.2618268e-09
-5.5946207e-12
1.261761e-09
5.2474342e-12
1.2618229e-09
-4.927628e-12
1.2617649e-09
4.6243167e-12
1.2618195e-09
-4.3440861e-12
1.2617683e-09
4.0790678e-12
1.2618165e-09
-3.8339202e-12
1.2617713e-09
3.6025849e-12
1.2618139e-09
-3.3884745e-12
1.2617739e-09
3.1868494e-12
1.2618116e-09
-3.0002174e-12
1.2617761e-09
2.8248529e-12
1.2618096e-09
-2.6625889e-12
1.261778e-09
2.5104898e-12
1.2618078e-09
-2.369885e-12
1.2617797e-09
2.2384564e-12
1.2618063e-09
-2.1171601e-12
1.2617811e-09
2.0041617e-12
1.261805e-09
-1.900143e-12
1.2617824e-09
1.8036494e-12
1.2618039e-09
-1.7151637e-12
1.2617834e-09
1.6335302e-12
1.261803e-09
-1.55909e-12
1.2617842e-09
1.4909227e-12
1.2618022e-09
-1.4292711e-12
1.261785e-09
1.3733993e-12
1.2618016e-09
-1.3234844e-12
1.2617855e-09
1.278932e-12
1.2618011e-09
-1.2398755e-12
1.261786e-09
1.2058163e-12
1.2618008e-09
-1.1768088e-12
1.2617863e-09
1.1527186e-12
1.2618004e-09
-1.1320092e-12
1.2617866e-09
1.1139098e-12
1.2618033e-09
-1.1732239e-12
1.0295353e-12
1.3045404e-09
1.0555748e-08
1.321947e-09
-2.3124204e-10
1.3214882e-09
3.4034664e-11
1.3217657e-09
1.7609028e-12
1.3220655e-09
-1.1172909e-11
1.3222177e-09
6.8617732e-12
1.3223097e-09
-9.8108262e-12
1.3222635e-09
8.5861555e-12
1.3223208e-09
-8.3499311e-12
1.3222735e-09
7.7144691e-12
1.3223205e-09
-7.2838473e-12
1.3222777e-09
6.8089956e-12
1.3223185e-09
-6.398333e-12
1.3222806e-09
5.9962626e-12
1.3223164e-09
-5.630376e-12
1.322283e-09
5.2808245e-12
1.3223144e-09
-4.9591017e-12
1.322285e-09
4.6537601e-12
1.3223127e-09
-4.3718295e-12
1.3222868e-09
4.105051e-12
1.3223112e-09
-3.8584066e-12
1.3222883e-09
3.625543e-12
1.3223099e-09
-3.410119e-12
1.3222896e-09
3.207168e-12
1.3223088e-09
-3.0193865e-12
1.3222908e-09
2.8428733e-12
1.3223078e-09
-2.6796068e-12
1.3222918e-09
2.5265149e-12
1.3223069e-09
-2.3850392e-12
1.3222926e-09
2.2527557e-12
1.3223062e-09
-2.1307065e-12
1.3222933e-09
2.0169753e-12
1.3223055e-09
-1.91231e-12
1.322294e-09
1.8151923e-12
1.322305e-09
-1.726156e-12
1.3222945e-09
1.6439955e-12
1.3223045e-09
-1.5690916e-12
1.3222949e-09
1.5004847e-12
1.3223041e-09
-1.4384483e-12
1.3222953e-09
1.3822155e-12
1.3223038e-09
-1.3319871e-12
1.3222956e-09
1.2871437e-12
1.3223035e-09
-1.2478367e-12
1.3222958e-09
1.2135455e-12
1.3223033e-09
-1.1843361e-12
1.322296e-09
1.1600666e-12
1.3223031e-09
-1.1390969e-12
1.3222961e-09
1.1208577e-12
1.3223055e-09
-1.1826398e-12
1.0329247e-12
1.3633607e-09
1.0538637e-08
1.3795006e-09
-2.4738201e-10
1.3796831e-09
3.3852196e-11
1.3797761e-09
1.6679139e-12
1.3800539e-09
-1.1450678e-11
1.3802381e-09
6.6775239e-12
1.3802714e-09
-9.8440594e-12
1.3802752e-09
8.582295e-12
1.3802828e-09
-8.3574803e-12
1.3802812e-09
7.7160747e-12
1.3802849e-09
-7.2875727e-12
1.3802825e-09
6.8113883e-12
1.3802853e-09
-6.4011394e-12
1.380283e-09
5.9985788e-12
1.3802854e-09
-5.6327543e-12
1.3802833e-09
5.2829139e-12
1.3802854e-09
-4.9611782e-12
1.3802835e-09
4.6556192e-12
1.3802853e-09
-4.3736572e-12
1.3802837e-09
4.1067023e-12
1.3802853e-09
-3.8600209e-12
1.3802838e-09
3.6270115e-12
1.3802852e-09
-3.4115491e-12
1.3802839e-09
3.2084766e-12
1.3802852e-09
-3.0206576e-12
1.380284e-09
2.8440432e-12
1.3802852e-09
-2.6807409e-12
1.3802841e-09
2.5275648e-12
1.3802851e-09
-2.386056e-12
1.3802842e-09
2.2537024e-12
1.3802851e-09
-2.1316233e-12
1.3802843e-09
2.0178339e-12
1.3802851e-09
-1.9131421e-12
1.3802843e-09
1.8159763e-12
1.3802851e-09
-1.7269169e-12
1.3802843e-09
1.6447169e-12
1.380285e-09
-1.5697931e-12
1.3802844e-09
1.5011536e-12
1.380285e-09
-1.4391e-12
1.3802844e-09
1.3828398e-12
1.380285e-09
-1.3325955e-12
1.3802844e-09
1.2877272e-12
1.380285e-09
-1.2484028e-12
1.3802845e-09
1.2140833e-12
1.380285e-09
-1.1848455e-12
1.3802845e-09
1.1605408e-12
1.3802848e-09
-1.1394385e-12
1.3802845e-09
1.1211755e-12
1.3802868e-09
-1.1849362e-12
1.0302471e-12
1.4199073e-09
1.046498e-08
1.4345537e-09
-2.6202842e-10
1.4354429e-09
3.2963055e-11
1.4352851e-09
1.8257397e-12
1.4355279e-09
-1.169353e-11
1.4357378e-09
6.467647e-12
1.4357132e-09
-9.819473e-12
1.4357651e-09
8.5304177e-12
1.4357246e-09
-8.3169803e-12
1.4357669e-09
7.6737248e-12
1.435729e-09
-7.2496383e-12
1.4357655e-09
6.7749011e-12
1.4357317e-09
-6.3673838e-12
1.4357637e-09
5.9666446e-12
1.4357339e-09
-5.6029633e-12
1.435762e-09
5.2548378e-12
1.4357357e-09
-4.9349215e-12
1.4357604e-09
4.6308943e-12
1.4357373e-09
-4.3505072e-12
1.4357591e-09
4.0849036e-12
1.4357386e-09
-3.8395911e-12
1.4357579e-09
3.6077687e-12
1.4357398e-09
-3.3934963e-12
1.4357568e-09
3.191464e-12
1.4357409e-09
-3.004678e-12
1.4357559e-09
2.8289725e-12
1.4357418e-09
-2.6665657e-12
1.4357551e-09
2.5141812e-12
1.4357425e-09
-2.3734464e-12
1.4357545e-09
2.2417793e-12
1.4357432e-09
-2.1203666e-12
1.4357539e-09
2.0071697e-12
1.4357438e-09
-1.9030485e-12
1.4357534e-09
1.8063901e-12
1.4357443e-09
-1.7178156e-12
1.4357529e-09
1.636046e-12
1.4357447e-09
-1.5615297e-12
1.4357526e-09
1.4932499e-12
1.435745e-09
-1.4315332e-12
1.4357523e-09
1.3755672e-12
1.4357453e-09
-1.3255939e-12
1.435752e-09
1.2809572e-12
1.4357455e-09
-1.24184e-12
1.4357519e-09
1.2076886e-12
1.4357456e-09
-1.17859e-12
1.4357518e-09
1.1543896e-12
1.4357456e-09
-1.1332803e-12
1.4357517e-09
1.1151051e-12
1.4357471e-09
-1.180343e-12
1.021791e-12
1.474318e-09
1.0336912e-08
1.4871454e-09
-2.7485582e-10
1.4886241e-09
3.1484322e-11
1.4882747e-09
2.1751486e-12
1.4884828e-09
-1.1901624e-11
1.4887154e-09
6.2350913e-12
1.4886349e-09
-9.7390205e-12
1.4887329e-09
8.4323823e-12
1.4886462e-09
-8.2302585e-12
1.4887308e-09
7.5891486e-12
1.4886528e-09
-7.1716578e-12
1.4887267e-09
6.7010547e-12
1.4886578e-09
-6.298488e-12
1.4887226e-09
5.9017966e-12
1.4886619e-09
-5.542255e-12
1.488719e-09
5.1977726e-12
1.4886655e-09
-4.8814344e-12
1.4887158e-09
4.5806216e-12
1.4886686e-09
-4.3033518e-12
1.4887129e-09
4.0405689e-12
1.4886713e-09
-3.797975e-12
1.4887105e-09
3.5686219e-12
1.4886737e-09
-3.3567187e-12
1.4887083e-09
3.1568435e-12
1.4886758e-09
-2.9721192e-12
1.4887064e-09
2.7982938e-12
1.4886775e-09
-2.6376768e-12
1.4887048e-09
2.4869259e-12
1.4886791e-09
-2.3477402e-12
1.4887034e-09
2.2174873e-12
1.4886804e-09
-2.0974098e-12
1.4887022e-09
1.9854305e-12
1.4886816e-09
-1.8824536e-12
1.4887011e-09
1.7868365e-12
1.4886825e-09
-1.699235e-12
1.4887002e-09
1.6183472e-12
1.4886834e-09
-1.5446492e-12
1.4886995e-09
1.4771062e-12
1.488684e-09
-1.4160664e-12
1.4886989e-09
1.3607036e-12
1.4886846e-09
-1.3112768e-12
1.4886984e-09
1.2671184e-12
1.488685e-09
-1.2284243e-12
1.4886981e-09
1.19463e-12
1.4886853e-09
-1.1658319e-12
1.4886978e-09
1.1418704e-12
1.4886854e-09
-1.1208772e-12
1.4886976e-09
1.1028968e-12
1.4886864e-09
-1.1691045e-12
1.0078457e-12
1.5265861e-09
1.0156576e-08
1.5372674e-09
-2.8553707e-10
1.5392038e-09
2.9547891e-11
1.5387608e-09
2.61816e-12
1.53892e-09
-1.2060786e-11
1.5391718e-09
5.983255e-12
1.5390368e-09
-9.604038e-12
1.5391789e-09
8.2903015e-12
1.5390478e-09
-8.0991169e-12
1.5391727e-09
7.4641613e-12
1.5390564e-09
-7.0552833e-12
1.539166e-09
6.591422e-12
1.5390634e-09
-6.1959165e-12
1.5391598e-09
5.8054142e-12
1.5390695e-09
-5.4519209e-12
1.5391543e-09
5.1129315e-12
1.5390747e-09
-4.8018549e-12
1.5391495e-09
4.5058701e-12
1.5390793e-09
-4.2331942e-12
1.5391453e-09
3.9746408e-12
1.5390833e-09
-3.7360581e-12
1.5391416e-09
3.5104033e-12
1.5390868e-09
-3.3019987e-12
1.5391383e-09
3.1053516e-12
1.5390899e-09
-2.9236735e-12
1.5391355e-09
2.7526592e-12
1.5390925e-09
-2.5946884e-12
1.5391331e-09
2.4463785e-12
1.5390948e-09
-2.3094842e-12
1.539131e-09
2.1813426e-12
1.5390968e-09
-2.0632409e-12
1.5391292e-09
1.9530785e-12
1.5390985e-09
-1.8517953e-12
1.5391276e-09
1.7577311e-12
1.5390999e-09
-1.67157e-12
1.5391263e-09
1.5919969e-12
1.5391011e-09
-1.5195103e-12
1.5391252e-09
1.4530654e-12
1.5391022e-09
-1.3930283e-12