/*--------------------------------*- C++ -*----------------------------------*\
| =========                 |                                                 |
| \\      /  F ield         | OpenFOAM: The Open Source CFD Toolbox           |
|  \\    /   O peration     | Version:  2312                                  |
|   \\  /    A nd           | Website:  www.openfoam.com                      |
|    \\/     M anipulation  |                                                 |
\*---------------------------------------------------------------------------*/
FoamFile
{
    version     2.0;
    format      ascii;
    arch        "LSB;label=32;scalar=64";
    class       volSymmTensorField;
    location    "6";
    object      sigma;
}
// * * * * * * * * * * * * * * * * * * * * * * * * * * * * * * * * * * * * * //

dimensions      [0 2 -2 0 0 0 0];

internalField   nonuniform List<symmTensor> 
4000
(
(-0.39100153 -0.20776149 0 -0.070833597 0 0)
(-0.66804589 -0.14915071 0 -3.0577129e-05 0 0)
(-0.5938033 -0.14066789 0 3.5211904e-06 0 0)
(-0.63278924 -0.14530118 0 -2.9520313e-05 0 0)
(-0.60116943 -0.14148593 0 3.2037789e-05 0 0)
(-0.63086049 -0.14508132 0 -2.9358541e-05 0 0)
(-0.60379642 -0.14180355 0 2.8156897e-05 0 0)
(-0.62924452 -0.14488783 0 -2.6262053e-05 0 0)
(-0.60548157 -0.14200919 0 2.4702324e-05 0 0)
(-0.62775297 -0.14470874 0 -2.3143907e-05 0 0)
(-0.60689457 -0.14218174 0 2.1710564e-05 0 0)
(-0.62642297 -0.14454892 0 -2.036435e-05 0 0)
(-0.60812949 -0.1423324 0 1.9098862e-05 0 0)
(-0.62525054 -0.14440791 0 -1.7921891e-05 0 0)
(-0.60921564 -0.14246478 0 1.6811861e-05 0 0)
(-0.62421899 -0.14428376 0 -1.5780882e-05 0 0)
(-0.61017236 -0.14258128 0 1.4808859e-05 0 0)
(-0.62331119 -0.14417444 0 -1.3906041e-05 0 0)
(-0.61101575 -0.14268388 0 1.3055718e-05 0 0)
(-0.62251166 -0.14407811 0 -1.2265859e-05 0 0)
(-0.61175985 -0.14277432 0 1.1522811e-05 0 0)
(-0.62180675 -0.14399315 0 -1.0832667e-05 0 0)
(-0.61241706 -0.14285414 0 1.0184274e-05 0 0)
(-0.6211844 -0.14391813 0 -9.5822719e-06 0 0)
(-0.61299833 -0.14292467 0 9.0175228e-06 0 0)
(-0.62063402 -0.14385178 0 -8.4935645e-06 0 0)
(-0.61351337 -0.14298711 0 8.002876e-06 0 0)
(-0.62014622 -0.14379298 0 -7.5481645e-06 0 0)
(-0.61397078 -0.14304251 0 7.1232157e-06 0 0)
(-0.6197127 -0.14374074 0 -6.730113e-06 0 0)
(-0.61437823 -0.1430918 0 6.3637028e-06 0 0)
(-0.61932611 -0.14369418 0 -6.0256031e-06 0 0)
(-0.61474255 -0.14313582 0 5.7115272e-06 0 0)
(-0.61897988 -0.14365252 0 -5.4227488e-06 0 0)
(-0.61506983 -0.14317531 0 5.1556941e-06 0 0)
(-0.61866813 -0.14361504 0 -4.9113865e-06 0 0)
(-0.61536558 -0.14321093 0 4.6868433e-06 0 0)
(-0.6183856 -0.14358112 0 -4.4829101e-06 0 0)
(-0.61563475 -0.14324329 0 4.2970994e-06 0 0)
(-0.61812748 -0.14355019 0 -4.1301375e-06 0 0)
(-0.61588189 -0.14327292 0 3.9799585e-06 0 0)
(-0.61788942 -0.14352173 0 -3.8472198e-06 0 0)
(-0.61611114 -0.14330034 0 3.7302265e-06 0 0)
(-0.61766737 -0.14349524 0 -3.6296243e-06 0 0)
(-0.61632637 -0.143326 0 3.5440583e-06 0 0)
(-0.61745756 -0.1434703 0 -3.474357e-06 0 0)
(-0.61653119 -0.14335033 0 3.4197072e-06 0 0)
(-0.61725654 -0.14344647 0 -3.3773978e-06 0 0)
(-0.61673348 -0.14337418 0 3.3877035e-06 0 0)
(-0.61709755 -0.14342766 0 -3.3345378e-06 0 0)
(-0.3558773 -0.19391433 0 -0.06620271 0 0)
(-0.60578222 -0.14212168 0 -0.00024042048 0 0)
(-0.55253903 -0.13572895 0 -3.3814712e-05 0 0)
(-0.58560419 -0.1398108 0 -2.8727342e-05 0 0)
(-0.55776621 -0.13623888 0 3.6393567e-05 0 0)
(-0.58394218 -0.13961815 0 -3.1802995e-05 0 0)
(-0.56008516 -0.13653665 0 3.1776802e-05 0 0)
(-0.5825404 -0.13944034 0 -2.9320054e-05 0 0)
(-0.5615745 -0.13673045 0 2.7743353e-05 0 0)
(-0.58122591 -0.1392721 0 -2.5933882e-05 0 0)
(-0.56282111 -0.13689296 0 2.4353521e-05 0 0)
(-0.5800515 -0.13912161 0 -2.2832373e-05 0 0)
(-0.56391011 -0.1370348 0 2.141887e-05 0 0)
(-0.579016 -0.13898882 0 -2.0096257e-05 0 0)
(-0.56486789 -0.13715941 0 1.8853372e-05 0 0)
(-0.57810492 -0.13887189 0 -1.769613e-05 0 0)
(-0.56571159 -0.13726908 0 1.6607207e-05 0 0)
(-0.57730313 -0.13876892 0 -1.5594118e-05 0 0)
(-0.5664554 -0.13736567 0 1.46414e-05 0 0)
(-0.57659697 -0.13867819 0 -1.375518e-05 0 0)
(-0.56711171 -0.13745081 0 1.2922613e-05 0 0)
(-0.57597436 -0.13859817 0 -1.2148346e-05 0 0)
(-0.56769144 -0.13752596 0 1.1421821e-05 0 0)
(-0.57542466 -0.1385275 0 -1.0746504e-05 0 0)
(-0.56820424 -0.13759237 0 1.0113704e-05 0 0)
(-0.57493849 -0.138465 0 -9.5259934e-06 0 0)
(-0.56865868 -0.13765116 0 8.9761922e-06 0 0)
(-0.57450755 -0.13840961 0 -8.4662133e-06 0 0)
(-0.56906234 -0.13770333 0 7.9901001e-06 0 0)
(-0.57412453 -0.1383604 0 -7.5492813e-06 0 0)
(-0.56942199 -0.13774975 0 7.1387991e-06 0 0)
(-0.5737829 -0.13831653 0 -6.7597317e-06 0 0)
(-0.56974365 -0.13779122 0 6.4079416e-06 0 0)
(-0.57347687 -0.13827726 0 -6.0842586e-06 0 0)
(-0.57003271 -0.13782842 0 5.7852243e-06 0 0)
(-0.57320125 -0.13824194 0 -5.5114987e-06 0 0)
(-0.57029401 -0.13786198 0 5.2601909e-06 0 0)
(-0.57295136 -0.13820997 0 -5.0318537e-06 0 0)
(-0.57053195 -0.13789248 0 4.8240771e-06 0 0)
(-0.57272297 -0.1381808 0 -4.6373592e-06 0 0)
(-0.57075054 -0.13792042 0 4.4697089e-06 0 0)
(-0.57251222 -0.13815395 0 -4.3216223e-06 0 0)
(-0.57095344 -0.13794628 0 4.1914983e-06 0 0)
(-0.57231552 -0.13812896 0 -4.0799135e-06 0 0)
(-0.57114411 -0.1379705 0 3.9856548e-06 0 0)
(-0.57212949 -0.13810541 0 -3.9098784e-06 0 0)
(-0.57132573 -0.13799346 0 3.8518898e-06 0 0)
(-0.57195082 -0.13808287 0 -3.8060518e-06 0 0)
(-0.57150376 -0.13801567 0 3.8762196e-06 0 0)
(-0.57180112 -0.13806401 0 -3.7107589e-06 0 0)
(-0.3340986 -0.18408354 0 -0.061743067 0 0)
(-0.56594408 -0.13700206 0 -0.0001293541 0 0)
(-0.52481862 -0.13230048 0 -5.4556944e-05 0 0)
(-0.55506768 -0.13614931 0 -2.7239938e-05 0 0)
(-0.52962937 -0.13272715 0 3.6645961e-05 0 0)
(-0.55357496 -0.13596545 0 -3.0732249e-05 0 0)
(-0.53175665 -0.13301226 0 3.1792107e-05 0 0)
(-0.55230155 -0.13579706 0 -2.9048416e-05 0 0)
(-0.53312133 -0.13319834 0 2.7618777e-05 0 0)
(-0.55110004 -0.13563594 0 -2.5769436e-05 0 0)
(-0.53426207 -0.13335428 0 2.4217834e-05 0 0)
(-0.55002553 -0.13549165 0 -2.2698153e-05 0 0)
(-0.53525835 -0.13349035 0 2.129529e-05 0 0)
(-0.54907805 -0.13536431 0 -1.9979818e-05 0 0)
(-0.5361346 -0.1336099 0 1.874396e-05 0 0)
(-0.54824442 -0.13525218 0 -1.7593873e-05 0 0)
(-0.53690654 -0.13371511 0 1.6510791e-05 0 0)
(-0.54751084 -0.13515344 0 -1.5504061e-05 0 0)
(-0.53758713 -0.13380777 0 1.4556457e-05 0 0)
(-0.54686476 -0.13506643 0 -1.3675774e-05 0 0)
(-0.53818771 -0.13388947 0 1.2847721e-05 0 0)
(-0.54629514 -0.13498969 0 -1.207826e-05 0 0)
(-0.53871824 -0.13396156 0 1.1355717e-05 0 0)
(-0.54579222 -0.13492191 0 -1.0684568e-05 0 0)
(-0.53918756 -0.13402528 0 1.0055271e-05 0 0)
(-0.54534741 -0.13486197 0 -9.4711745e-06 0 0)
(-0.5396035 -0.1340817 0 8.9244498e-06 0 0)
(-0.54495313 -0.13480884 0 -8.4176035e-06 0 0)
(-0.53997301 -0.13413177 0 7.9441849e-06 0 0)
(-0.54460267 -0.13476163 0 -7.5060814e-06 0 0)
(-0.54030225 -0.13417632 0 7.0979547e-06 0 0)
(-0.54429006 -0.13471954 0 -6.7212423e-06 0 0)
(-0.54059674 -0.13421612 0 6.37151e-06 0 0)
(-0.54401 -0.13468186 0 -6.0498741e-06 0 0)
(-0.54086142 -0.13425184 0 5.7526418e-06 0 0)
(-0.54375772 -0.13464796 0 -5.4807077e-06 0 0)
(-0.54110073 -0.13428407 0 5.2309923e-06 0 0)
(-0.54352896 -0.13461727 0 -5.0042486e-06 0 0)
(-0.54131868 -0.13431336 0 4.7979131e-06 0 0)
(-0.54331983 -0.13458926 0 -4.612666e-06 0 0)
(-0.54151894 -0.1343402 0 4.4463932e-06 0 0)
(-0.54312679 -0.13456347 0 -4.2997739e-06 0 0)
(-0.54170489 -0.13436506 0 4.1711245e-06 0 0)
(-0.54294656 -0.13453945 0 -4.0612434e-06 0 0)
(-0.54187968 -0.13438834 0 3.9689073e-06 0 0)
(-0.54277602 -0.13451681 0 -3.8958004e-06 0 0)
(-0.54204628 -0.13441043 0 3.8411102e-06 0 0)
(-0.54261203 -0.13449512 0 -3.7996726e-06 0 0)
(-0.54220929 -0.13443165 0 3.9108667e-06 0 0)
(-0.54247047 -0.13447665 0 -3.8070394e-06 0 0)
(-0.31938203 -0.17552674 0 -0.056858302 0 0)
(-0.52972407 -0.13232147 0 -6.9950106e-05 0 0)
(-0.49757836 -0.12885138 0 -7.9273954e-05 0 0)
(-0.52540978 -0.13248944 0 -2.2737346e-05 0 0)
(-0.50213013 -0.12921516 0 3.3375081e-05 0 0)
(-0.52410845 -0.13231388 0 -2.6408247e-05 0 0)
(-0.50409036 -0.1294877 0 2.8851422e-05 0 0)
(-0.52294849 -0.13215483 0 -2.5968679e-05 0 0)
(-0.50534395 -0.12966612 0 2.4875532e-05 0 0)
(-0.52184616 -0.13200071 0 -2.3141863e-05 0 0)
(-0.50639059 -0.12981552 0 2.177624e-05 0 0)
(-0.52085928 -0.13186252 0 -2.0398324e-05 0 0)
(-0.50730444 -0.12994584 0 1.9142436e-05 0 0)
(-0.519989 -0.13174053 0 -1.7957835e-05 0 0)
(-0.5081082 -0.13006034 0 1.6848085e-05 0 0)
(-0.51922334 -0.13163311 0 -1.5813806e-05 0 0)
(-0.50881632 -0.1301611 0 1.484067e-05 0 0)
(-0.5185496 -0.13153852 0 -1.393556e-05 0 0)
(-0.50944069 -0.13024985 0 1.3084048e-05 0 0)
(-0.51795626 -0.13145516 0 -1.2292315e-05 0 0)
(-0.50999168 -0.1303281 0 1.1548211e-05 0 0)
(-0.51743316 -0.13138163 0 -1.0856488e-05 0 0)
(-0.51047843 -0.13039716 0 1.0207194e-05 0 0)
(-0.51697133 -0.1313167 0 -9.6038645e-06 0 0)
(-0.51090905 -0.1304582 0 9.0383663e-06 0 0)
(-0.51656288 -0.13125926 0 -8.5133085e-06 0 0)
(-0.5112907 -0.13051225 0 8.0220173e-06 0 0)
(-0.51620085 -0.13120835 0 -7.5664194e-06 0 0)
(-0.51162976 -0.13056022 0 7.1410131e-06 0 0)
(-0.51587905 -0.1311631 0 -6.7472289e-06 0 0)
(-0.51193188 -0.13060291 0 6.3805113e-06 0 0)
(-0.51559201 -0.13112276 0 -6.0419361e-06 0 0)
(-0.51220214 -0.13064106 0 5.7277163e-06 0 0)
(-0.51533487 -0.13108664 0 -5.4386813e-06 0 0)
(-0.51244504 -0.13067529 0 5.1716737e-06 0 0)
(-0.51510323 -0.13105414 0 -4.9273605e-06 0 0)
(-0.51266467 -0.1307062 0 4.7031058e-06 0 0)
(-0.51489319 -0.13102469 0 -4.4994824e-06 0 0)
(-0.5128647 -0.13073429 0 4.3142951e-06 0 0)
(-0.51470118 -0.13099782 0 -4.1480838e-06 0 0)
(-0.51304852 -0.13076005 0 3.9990432e-06 0 0)
(-0.51452393 -0.13097306 0 -3.8677504e-06 0 0)
(-0.51321921 -0.13078391 0 3.7527905e-06 0 0)
(-0.51435844 -0.13095 0 -3.654909e-06 0 0)
(-0.51337969 -0.13080627 0 3.5731337e-06 0 0)
(-0.51420183 -0.13092825 0 -3.5093569e-06 0 0)
(-0.51353267 -0.1308275 0 3.4626987e-06 0 0)
(-0.51405112 -0.13090738 0 -3.4275537e-06 0 0)
(-0.51368203 -0.13084778 0 3.5807627e-06 0 0)
(-0.51391688 -0.13088924 0 -3.515326e-06 0 0)
(-0.30593206 -0.16733438 0 -0.05216961 0 0)
(-0.49473005 -0.12768246 0 2.9071574e-06 0 0)
(-0.47075067 -0.12535328 0 -9.593436e-05 0 0)
(-0.49656224 -0.12883182 0 -1.9114592e-05 0 0)
(-0.47528185 -0.12569888 0 2.9551565e-05 0 0)
(-0.4955023 -0.12866577 0 -2.1961087e-05 0 0)
(-0.47710706 -0.12595994 0 2.5676702e-05 0 0)
(-0.49444619 -0.12851539 0 -2.268818e-05 0 0)
(-0.47826087 -0.12613108 0 2.1929722e-05 0 0)
(-0.49343328 -0.1283679 0 -2.0328247e-05 0 0)
(-0.47922285 -0.12627427 0 1.9158507e-05 0 0)
(-0.49252549 -0.1282355 0 -1.7933684e-05 0 0)
(-0.48006257 -0.12639915 0 1.6834997e-05 0 0)
(-0.49172491 -0.12811861 0 -1.5790628e-05 0 0)
(-0.48080113 -0.12650886 0 1.4816145e-05 0 0)
(-0.49102061 -0.12801568 0 -1.3905819e-05 0 0)
(-0.48145185 -0.1266054 0 1.3050643e-05 0 0)
(-0.4904009 -0.12792503 0 -1.2254306e-05 0 0)
(-0.48202564 -0.12669045 0 1.1505866e-05 0 0)
(-0.48985518 -0.12784515 0 -1.0809365e-05 0 0)
(-0.48253201 -0.12676543 0 1.015528e-05 0 0)
(-0.48937409 -0.12777469 0 -9.5467997e-06 0 0)
(-0.48297937 -0.12683161 0 8.9760272e-06 0 0)
(-0.48894938 -0.12771246 0 -8.4453327e-06 0 0)
(-0.48337515 -0.1268901 0 7.9482048e-06 0 0)
(-0.48857377 -0.12765741 0 -7.4863822e-06 0 0)
(-0.48372593 -0.1269419 0 7.0544795e-06 0 0)
(-0.48824087 -0.12760862 0 -6.6537722e-06 0 0)
(-0.48403757 -0.12698788 0 6.2797867e-06 0 0)
(-0.48794498 -0.12756525 0 -5.9334664e-06 0 0)
(-0.48431526 -0.1270288 0 5.6110794e-06 0 0)
(-0.48768108 -0.12752657 0 -5.3133363e-06 0 0)
(-0.48456365 -0.12706537 0 5.0371135e-06 0 0)
(-0.48744466 -0.12749194 0 -4.7829645e-06 0 0)
(-0.4847869 -0.1270982 0 4.5482696e-06 0 0)
(-0.48723173 -0.12746077 0 -4.3334844e-06 0 0)
(-0.48498875 -0.12712784 0 4.1364119e-06 0 0)
(-0.48703865 -0.12743253 0 -3.9574599e-06 0 0)
(-0.48517259 -0.12715479 0 3.7947943e-06 0 0)
(-0.48686216 -0.12740675 0 -3.6488228e-06 0 0)
(-0.48534151 -0.1271795 0 3.5180412e-06 0 0)
(-0.48669926 -0.12738299 0 -3.4029175e-06 0 0)
(-0.48549836 -0.1272024 0 3.3022953e-06 0 0)
(-0.48654718 -0.12736085 0 -3.2168307e-06 0 0)
(-0.48564581 -0.12722387 0 3.1457752e-06 0 0)
(-0.48640327 -0.12733996 0 -3.091093e-06 0 0)
(-0.48578638 -0.12724427 0 3.0516837e-06 0 0)
(-0.48626473 -0.1273199 0 -3.0217638e-06 0 0)
(-0.48592333 -0.12726368 0 3.2050294e-06 0 0)
(-0.486138 -0.12730215 0 -3.1793558e-06 0 0)
(-0.29289763 -0.15938391 0 -0.047708234 0 0)
(-0.46142629 -0.12313515 0 8.9726263e-05 0 0)
(-0.44448403 -0.12182112 0 -0.00010387562 0 0)
(-0.46852768 -0.12517445 0 -1.633922e-05 0 0)
(-0.44911161 -0.12217933 0 2.5897287e-05 0 0)
(-0.46773239 -0.1250201 0 -1.8076444e-05 0 0)
(-0.45082931 -0.12243 0 2.29133e-05 0 0)
(-0.46677523 -0.12487803 0 -1.9815284e-05 0 0)
(-0.45189244 -0.12259415 0 1.9352706e-05 0 0)
(-0.46584459 -0.1247369 0 -1.7864401e-05 0 0)
(-0.45277682 -0.12273136 0 1.6867209e-05 0 0)
(-0.46500944 -0.12461007 0 -1.577569e-05 0 0)
(-0.45354854 -0.12285099 0 1.4815153e-05 0 0)
(-0.46427285 -0.12449809 0 -1.3893117e-05 0 0)
(-0.45422731 -0.12295608 0 1.3037413e-05 0 0)
(-0.46362488 -0.12439947 0 -1.223528e-05 0 0)
(-0.45482537 -0.12304857 0 1.1483645e-05 0 0)
(-0.46305477 -0.12431262 0 -1.078228e-05 0 0)
(-0.45535276 -0.12313005 0 1.0124285e-05 0 0)
(-0.46255277 -0.12423609 0 -9.5109528e-06 0 0)
(-0.45581821 -0.12320188 0 8.9358402e-06 0 0)
(-0.46211024 -0.12416858 0 -8.4000722e-06 0 0)
(-0.45622942 -0.12326528 0 7.8981703e-06 0 0)
(-0.4617196 -0.12410896 0 -7.4309308e-06 0 0)
(-0.45659323 -0.12332133 0 6.9937576e-06 0 0)
(-0.46137415 -0.12405621 0 -6.5871838e-06 0 0)
(-0.45691569 -0.12337096 0 6.207349e-06 0 0)
(-0.46106798 -0.12400945 0 -5.8546023e-06 0 0)
(-0.45720216 -0.12341502 0 5.5256899e-06 0 0)
(-0.46079588 -0.12396789 0 -5.2208403e-06 0 0)
(-0.45745742 -0.12345424 0 4.9373023e-06 0 0)
(-0.4605532 -0.12393082 0 -4.6752316e-06 0 0)
(-0.45768575 -0.12348929 0 4.4322973e-06 0 0)
(-0.46033582 -0.12389763 0 -4.2086185e-06 0 0)
(-0.45789096 -0.12352075 0 4.0022196e-06 0 0)
(-0.46014004 -0.12386775 0 -3.8132122e-06 0 0)
(-0.4580765 -0.12354917 0 3.639926e-06 0 0)
(-0.45996254 -0.12384067 0 -3.4824913e-06 0 0)
(-0.45824546 -0.12357501 0 3.339508e-06 0 0)
(-0.4598003 -0.12381595 0 -3.2111548e-06 0 0)
(-0.45840071 -0.12359872 0 3.0962874e-06 0 0)
(-0.45965058 -0.12379315 0 -2.995179e-06 0 0)
(-0.45854484 -0.12362069 0 2.9069749e-06 0 0)
(-0.45951081 -0.12377191 0 -2.8321571e-06 0 0)
(-0.45868033 -0.12364129 0 2.770221e-06 0 0)
(-0.45937857 -0.12375185 0 -2.7230686e-06 0 0)
(-0.45880949 -0.12366088 0 2.6893472e-06 0 0)
(-0.45925124 -0.12373258 0 -2.663123e-06 0 0)
(-0.45893506 -0.12367945 0 2.8670626e-06 0 0)
(-0.45913193 -0.12371524 0 -2.8737446e-06 0 0)
(-0.28037798 -0.15171318 0 -0.043452789 0 0)
(-0.42979874 -0.11867552 0 0.00019182114 0 0)
(-0.41880327 -0.11825977 0 -0.00010377162 0 0)
(-0.44133129 -0.1215162 0 -1.3507338e-05 0 0)
(-0.42363449 -0.11865697 0 2.2433683e-05 0 0)
(-0.44078815 -0.12137612 0 -1.4666836e-05 0 0)
(-0.42526626 -0.11889838 0 2.0483486e-05 0 0)
(-0.43992632 -0.1212422 0 -1.7281542e-05 0 0)
(-0.42624693 -0.11905579 0 1.7078951e-05 0 0)
(-0.43907206 -0.12110724 0 -1.5689981e-05 0 0)
(-0.42705978 -0.1191872 0 1.4845075e-05 0 0)
(-0.43830407 -0.12098582 0 -1.3871212e-05 0 0)
(-0.42776877 -0.11930174 0 1.3032564e-05 0 0)
(-0.43762664 -0.12087859 0 -1.2218522e-05 0 0)
(-0.42839235 -0.11940235 0 1.1467603e-05 0 0)
(-0.43703073 -0.12078417 0 -1.0760982e-05 0 0)
(-0.42894182 -0.1194909 0 1.0100688e-05 0 0)
(-0.43650647 -0.12070101 0 -9.4831617e-06 0 0)
(-0.42942638 -0.1195689 0 8.904957e-06 0 0)
(-0.43604486 -0.12062773 0 -8.36504e-06 0 0)
(-0.42985405 -0.11963768 0 7.8595982e-06 0 0)
(-0.43563797 -0.12056308 0 -7.3880117e-06 0 0)
(-0.4302319 -0.11969839 0 6.9468695e-06 0 0)
(-0.4352788 -0.12050599 0 -6.5356366e-06 0 0)
(-0.4305662 -0.11975206 0 6.1513575e-06 0 0)
(-0.4349612 -0.12045547 0 -5.7935441e-06 0 0)
(-0.4308625 -0.11979958 0 5.4596446e-06 0 0)
(-0.43467974 -0.12041069 0 -5.1492225e-06 0 0)
(-0.43112574 -0.11984177 0 4.8600725e-06 0 0)
(-0.4344296 -0.12037089 0 -4.5918162e-06 0 0)
(-0.43136031 -0.11987934 0 4.3425469e-06 0 0)
(-0.43420653 -0.12033539 0 -4.1119484e-06 0 0)
(-0.43157012 -0.11991291 0 3.8983733e-06 0 0)
(-0.43400672 -0.12030359 0 -3.7015705e-06 0 0)
(-0.43175868 -0.11994305 0 3.5201206e-06 0 0)
(-0.43382678 -0.12027496 0 -3.3538413e-06 0 0)
(-0.43192916 -0.11997027 0 3.2015171e-06 0 0)
(-0.43366366 -0.12024901 0 -3.0630407e-06 0 0)
(-0.4320844 -0.11999504 0 2.9373858e-06 0 0)
(-0.43351457 -0.12022532 0 -2.8245336e-06 0 0)
(-0.43222703 -0.12001776 0 2.7236487e-06 0 0)
(-0.433377 -0.12020347 0 -2.6348332e-06 0 0)
(-0.43235944 -0.12003883 0 2.5574871e-06 0 0)
(-0.43324859 -0.12018309 0 -2.4919328e-06 0 0)
(-0.43248389 -0.12005859 0 2.4378614e-06 0 0)
(-0.43312713 -0.12016385 0 -2.3970816e-06 0 0)
(-0.43260252 -0.12007738 0 2.3679489e-06 0 0)
(-0.43301016 -0.12014535 0 -2.344497e-06 0 0)
(-0.43271762 -0.12009516 0 2.5614797e-06 0 0)
(-0.43289814 -0.12012845 0 -2.5961012e-06 0 0)
(-0.26845667 -0.14433223 0 -0.039380697 0 0)
(-0.39983749 -0.11430679 0 0.00030627651 0 0)
(-0.39370128 -0.1146723 0 -9.7236483e-05 0 0)
(-0.41501724 -0.11785906 0 -9.8777796e-06 0 0)
(-0.39886626 -0.11513206 0 1.9243582e-05 0 0)
(-0.41466623 -0.11773367 0 -1.157163e-05 0 0)
(-0.40042346 -0.11536523 0 1.826038e-05 0 0)
(-0.41389464 -0.11760774 0 -1.4966288e-05 0 0)
(-0.40132894 -0.11551615 0 1.4995302e-05 0 0)
(-0.41311141 -0.11747878 0 -1.3699253e-05 0 0)
(-0.40207579 -0.11564191 0 1.2992806e-05 0 0)
(-0.41240566 -0.11736262 0 -1.2127211e-05 0 0)
(-0.40272679 -0.11575149 0 1.139988e-05 0 0)
(-0.411783 -0.11726002 0 -1.0684958e-05 0 0)
(-0.40329936 -0.11584774 0 1.0029829e-05 0 0)
(-0.41123531 -0.11716967 0 -9.4108199e-06 0 0)
(-0.4038039 -0.11593246 0 8.8340521e-06 0 0)
(-0.41075349 -0.11709011 0 -8.2934091e-06 0 0)
(-0.40424886 -0.11600709 0 7.7881815e-06 0 0)
(-0.41032927 -0.11701999 0 -7.3155773e-06 0 0)
(-0.40464159 -0.11607289 0 6.8738657e-06 0 0)
(-0.40995536 -0.11695813 0 -6.4611169e-06 0 0)
(-0.40498859 -0.11613098 0 6.0755598e-06 0 0)
(-0.40962533 -0.1169035 0 -5.7156631e-06 0 0)
(-0.40529561 -0.11618233 0 5.3797772e-06 0 0)
(-0.4093335 -0.11685516 0 -5.0666516e-06 0 0)
(-0.40556773 -0.11622781 0 4.774781e-06 0 0)
(-0.40907489 -0.1168123 0 -4.5031428e-06 0 0)
(-0.40580949 -0.11626818 0 4.2503744e-06 0 0)
(-0.40884508 -0.11677421 0 -4.0156452e-06 0 0)
(-0.40602492 -0.11630413 0 3.7977298e-06 0 0)
(-0.40864014 -0.11674023 0 -3.595961e-06 0 0)
(-0.4062176 -0.11633627 0 3.4092449e-06 0 0)
(-0.40845659 -0.11670979 0 -3.2370554e-06 0 0)
(-0.40639077 -0.11636512 0 3.0784248e-06 0 0)
(-0.4082913 -0.11668238 0 -2.9329523e-06 0 0)
(-0.40654733 -0.11639119 0 2.7997922e-06 0 0)
(-0.40814147 -0.11665754 0 -2.6786601e-06 0 0)
(-0.40668989 -0.1164149 0 2.5688335e-06 0 0)
(-0.40800455 -0.11663484 0 -2.4701451e-06 0 0)
(-0.40682085 -0.11643666 0 2.3820089e-06 0 0)
(-0.40787821 -0.11661391 0 -2.3043954e-06 0 0)
(-0.40694243 -0.11645684 0 2.2369066e-06 0 0)
(-0.40776031 -0.11659439 0 -2.1797345e-06 0 0)
(-0.40705668 -0.11647579 0 2.1327159e-06 0 0)
(-0.40764879 -0.11657595 0 -2.0975574e-06 0 0)
(-0.40716558 -0.11649381 0 2.0723074e-06 0 0)
(-0.4075414 -0.1165582 0 -2.0510335e-06 0 0)
(-0.40727103 -0.11651082 0 2.274856e-06 0 0)
(-0.4074365 -0.11654175 0 -2.334771e-06 0 0)
(-0.2571155 -0.13722896 0 -0.035483782 0 0)
(-0.37151425 -0.11002863 0 0.00043073416 0 0)
(-0.36919326 -0.11106148 0 -8.5483276e-05 0 0)
(-0.3895946 -0.11420408 0 -5.2438022e-06 0 0)
(-0.37482073 -0.11160491 0 1.6532566e-05 0 0)
(-0.3893644 -0.1140928 0 -8.7101463e-06 0 0)
(-0.37630586 -0.11183058 0 1.6199388e-05 0 0)
(-0.38867631 -0.11397464 0 -1.282262e-05 0 0)
(-0.37714229 -0.11197523 0 1.305828e-05 0 0)
(-0.38795916 -0.11385151 0 -1.1851701e-05 0 0)
(-0.37782818 -0.11209549 0 1.1272329e-05 0 0)
(-0.38731113 -0.11374046 0 -1.0507978e-05 0 0)
(-0.37842554 -0.11220026 0 9.8836367e-06 0 0)
(-0.38673926 -0.11364237 0 -9.2609882e-06 0 0)
(-0.37895089 -0.11229228 0 8.6946333e-06 0 0)
(-0.38623624 -0.11355599 0 -8.1571127e-06 0 0)
(-0.37941385 -0.11237327 0 7.6577865e-06 0 0)
(-0.38579375 -0.11347991 0 -7.1886328e-06 0 0)
(-0.37982216 -0.11244462 0 6.7510797e-06 0 0)
(-0.38540419 -0.11341286 0 -6.3410536e-06 0 0)
(-0.38018255 -0.11250753 0 5.9584498e-06 0 0)
(-0.38506084 -0.11335372 0 -5.6003916e-06 0 0)
(-0.38050099 -0.11256307 0 5.2663933e-06 0 0)
(-0.38475779 -0.11330148 0 -4.9542074e-06 0 0)
(-0.38078275 -0.11261216 0 4.6632129e-06 0 0)
(-0.38448985 -0.11325526 0 -4.3916136e-06 0 0)
(-0.38103248 -0.11265565 0 4.1387324e-06 0 0)
(-0.38425241 -0.11321428 0 -3.9031293e-06 0 0)
(-0.38125436 -0.11269426 0 3.6841119e-06 0 0)
(-0.38404142 -0.11317785 0 -3.4805286e-06 0 0)
(-0.38145206 -0.11272864 0 3.291699e-06 0 0)
(-0.38385328 -0.11314535 0 -3.1167074e-06 0 0)
(-0.3816289 -0.11275937 0 2.9549048e-06 0 0)
(-0.38368479 -0.11311623 0 -2.8055708e-06 0 0)
(-0.38178782 -0.11278697 0 2.6681019e-06 0 0)
(-0.38353307 -0.11309001 0 -2.5419429e-06 0 0)
(-0.38193149 -0.1128119 0 2.4265473e-06 0 0)
(-0.38339555 -0.11306624 0 -2.3215045e-06 0 0)
(-0.3820623 -0.11283459 0 2.2263379e-06 0 0)
(-0.38326989 -0.11304453 0 -2.1407728e-06 0 0)
(-0.38218247 -0.11285542 0 2.0644235e-06 0 0)
(-0.38315395 -0.11302449 0 -1.9971624e-06 0 0)
(-0.38229402 -0.11287474 0 1.9387497e-06 0 0)
(-0.38304577 -0.1130058 0 -1.8892725e-06 0 0)
(-0.38239883 -0.11289288 0 1.8486724e-06 0 0)
(-0.38294346 -0.11298813 0 -1.818545e-06 0 0)
(-0.38249873 -0.11291015 0 1.7966399e-06 0 0)
(-0.38284495 -0.11297113 0 -1.777074e-06 0 0)
(-0.38259528 -0.11292643 0 2.0023965e-06 0 0)
(-0.38274694 -0.11295515 0 -2.0859743e-06 0 0)
(-0.2463025 -0.1303879 0 -0.031759623 0 0)
(-0.34479538 -0.10583973 0 0.00056370474 0 0)
(-0.3453576 -0.10743395 0 -6.9165328e-05 0 0)
(-0.36501995 -0.1105487 0 1.2344538e-07 0 0)
(-0.351505 -0.10807578 0 1.4469673e-05 0 0)
(-0.36487848 -0.11045347 0 -6.0455368e-06 0 0)
(-0.35291772 -0.10829445 0 1.429045e-05 0 0)
(-0.36426769 -0.11034288 0 -1.083564e-05 0 0)
(-0.35369054 -0.10843306 0 1.1254909e-05 0 0)
(-0.36361205 -0.11022542 0 -1.0135294e-05 0 0)
(-0.35432005 -0.10854798 0 9.6722869e-06 0 0)
(-0.36301764 -0.11011933 0 -9.002876e-06 0 0)
(-0.35486771 -0.10864806 0 8.4738769e-06 0 0)
(-0.3624929 -0.11002562 0 -7.9372397e-06 0 0)
(-0.35534932 -0.10873597 0 7.4532573e-06 0 0)
(-0.36203134 -0.10994309 0 -6.9916085e-06 0 0)
(-0.35577374 -0.10881333 0 6.5641775e-06 0 0)
(-0.36162535 -0.1098704 0 -6.161564e-06 0 0)
(-0.35614808 -0.10888149 0 5.7868509e-06 0 0)
(-0.36126794 -0.10980635 0 -5.4350607e-06 0 0)
(-0.35647851 -0.10894159 0 5.1073489e-06 0 0)
(-0.36095294 -0.10974984 0 -4.8001788e-06 0 0)
(-0.35677048 -0.10899465 0 4.5140665e-06 0 0)
(-0.36067493 -0.10969993 0 -4.2462684e-06 0 0)
(-0.35702881 -0.10904156 0 3.9969702e-06 0 0)
(-0.36042914 -0.10965577 0 -3.7640001e-06 0 0)
(-0.3572578 -0.10908311 0 3.5473347e-06 0 0)
(-0.36021134 -0.10961661 0 -3.3452483e-06 0 0)
(-0.35746124 -0.10912 0 3.1575811e-06 0 0)
(-0.36001781 -0.10958179 0 -2.982963e-06 0 0)
(-0.35764252 -0.10915285 0 2.8211493e-06 0 0)
(-0.35984525 -0.10955074 0 -2.6710558e-06 0 0)
(-0.35780466 -0.10918222 0 2.5323914e-06 0 0)
(-0.35969072 -0.10952291 0 -2.4043039e-06 0 0)
(-0.35795037 -0.1092086 0 2.2864846e-06 0 0)
(-0.35955158 -0.10949785 0 -2.1782731e-06 0 0)
(-0.3580821 -0.10923243 0 2.0793659e-06 0 0)
(-0.35942547 -0.10947512 0 -1.9892657e-06 0 0)
(-0.35820203 -0.10925413 0 1.9076954e-06 0 0)
(-0.35931025 -0.10945436 0 -1.8343043e-06 0 0)
(-0.3583122 -0.10927405 0 1.768869e-06 0 0)
(-0.35920396 -0.1094352 0 -1.711188e-06 0 0)
(-0.35841444 -0.10929252 0 1.6611469e-06 0 0)
(-0.35910478 -0.10941731 0 -1.618746e-06 0 0)
(-0.35851051 -0.10930988 0 1.5840015e-06 0 0)
(-0.35901101 -0.10940041 0 -1.5583872e-06 0 0)
(-0.35860206 -0.1093264 0 1.5393818e-06 0 0)
(-0.35892073 -0.10938412 0 -1.5211291e-06 0 0)
(-0.35869038 -0.10934198 0 1.7433338e-06 0 0)
(-0.3588294 -0.10936863 0 -1.849328e-06 0 0)
(-0.23596449 -0.12379531 0 -0.028205492 0 0)
(-0.31963913 -0.10173805 0 0.00070441946 0 0)
(-0.32228227 -0.10379663 0 -4.8749508e-05 0 0)
(-0.34124764 -0.10689052 0 5.8340959e-06 0 0)
(-0.32892113 -0.10454483 0 1.3106441e-05 0 0)
(-0.34120366 -0.1068156 0 -3.5619522e-06 0 0)
(-0.33026253 -0.10475689 0 1.2523813e-05 0 0)
(-0.34066545 -0.1067124 0 -8.9947244e-06 0 0)
(-0.3309768 -0.10488966 0 9.5758547e-06 0 0)
(-0.3400672 -0.10660045 0 -8.5414706e-06 0 0)
(-0.33155413 -0.10499941 0 8.1845332e-06 0 0)
(-0.33952265 -0.1064992 0 -7.6043236e-06 0 0)
(-0.33205572 -0.10509493 0 7.1634726e-06 0 0)
(-0.3390417 -0.10640974 0 -6.7070232e-06 0 0)
(-0.33249675 -0.10517883 0 6.2994353e-06 0 0)
(-0.33861866 -0.10633096 0 -5.9084169e-06 0 0)
(-0.33288543 -0.10525268 0 5.5477083e-06 0 0)
(-0.33824657 -0.10626157 0 -5.2070146e-06 0 0)
(-0.33322825 -0.10531773 0 4.8906334e-06 0 0)
(-0.33791902 -0.10620043 0 -4.5930246e-06 0 0)
(-0.33353087 -0.1053751 0 4.3162736e-06 0 0)
(-0.33763036 -0.10614648 0 -4.0564419e-06 0 0)
(-0.33379828 -0.10542575 0 3.8147904e-06 0 0)
(-0.3373756 -0.10609883 0 -3.5882782e-06 0 0)
(-0.33403488 -0.10547053 0 3.3776968e-06 0 0)
(-0.33715037 -0.10605667 0 -3.1806517e-06 0 0)
(-0.33424461 -0.10551019 0 2.9976158e-06 0 0)
(-0.33695081 -0.10601929 0 -2.8266958e-06 0 0)
(-0.33443095 -0.10554541 0 2.6681406e-06 0 0)
(-0.3367735 -0.10598605 0 -2.5204527e-06 0 0)
(-0.33459698 -0.10557678 0 2.3837255e-06 0 0)
(-0.3366154 -0.10595639 0 -2.2567771e-06 0 0)
(-0.33474549 -0.10560482 0 2.1395964e-06 0 0)
(-0.33647383 -0.10592982 0 -2.0312553e-06 0 0)
(-0.33487894 -0.10563001 0 1.9316772e-06 0 0)
(-0.33634637 -0.10590588 0 -1.8401406e-06 0 0)
(-0.33499958 -0.10565278 0 1.7565345e-06 0 0)
(-0.33623086 -0.10588418 0 -1.6803097e-06 0 0)
(-0.33510941 -0.1056735 0 1.6113478e-06 0 0)
(-0.33612533 -0.10586433 0 -1.5492497e-06 0 0)
(-0.33521029 -0.10569253 0 1.4939205e-06 0 0)
(-0.33602798 -0.10584602 0 -1.445107e-06 0 0)
(-0.33530392 -0.10571019 0 1.402791e-06 0 0)
(-0.33593717 -0.10582893 0 -1.366903e-06 0 0)
(-0.33539187 -0.10572678 0 1.3375085e-06 0 0)
(-0.33585132 -0.10581277 0 -1.3159518e-06 0 0)
(-0.33547568 -0.10574259 0 1.2994809e-06 0 0)
(-0.33576868 -0.10579719 0 -1.2822278e-06 0 0)
(-0.33555637 -0.10575748 0 1.4973708e-06 0 0)
(-0.33568377 -0.10578219 0 -1.6247614e-06 0 0)
(-0.22604998 -0.11743893 0 -0.024817882 0 0)
(-0.29599566 -0.097720495 0 0.00085282668 0 0)
(-0.30002468 -0.1001546 0 -2.5162201e-05 0 0)
(-0.31825804 -0.10322934 0 1.1595849e-05 0 0)
(-0.30707008 -0.10101209 0 1.2384527e-05 0 0)
(-0.31833611 -0.10317917 0 -1.2569374e-06 0 0)
(-0.30834329 -0.10121793 0 1.0883726e-05 0 0)
(-0.31786666 -0.10308316 0 -7.2889814e-06 0 0)
(-0.30900383 -0.10134508 0 8.0106868e-06 0 0)
(-0.31732204 -0.10297659 0 -7.0607784e-06 0 0)
(-0.30953286 -0.10144979 0 6.8000484e-06 0 0)
(-0.31682392 -0.10288003 0 -6.3039415e-06 0 0)
(-0.30999169 -0.10154089 0 5.9445303e-06 0 0)
(-0.3163837 -0.10279471 0 -5.562946e-06 0 0)
(-0.31039504 -0.1016209 0 5.2262295e-06 0 0)
(-0.31599649 -0.10271957 0 -4.9010263e-06 0 0)
(-0.31075052 -0.10169132 0 4.6022706e-06 0 0)
(-0.31565592 -0.1026534 0 -4.3192474e-06 0 0)
(-0.31106408 -0.10175337 0 4.0570433e-06 0 0)
(-0.31535613 -0.10259507 0 -3.8098866e-06 0 0)
(-0.31134087 -0.10180808 0 3.580474e-06 0 0)
(-0.31509194 -0.10254362 0 -3.3647149e-06 0 0)
(-0.31158546 -0.10185638 0 3.1643687e-06 0 0)
(-0.3148588 -0.10249817 0 -2.9762886e-06 0 0)
(-0.31180189 -0.10189909 0 2.8016792e-06 0 0)
(-0.3146527 -0.10245796 0 -2.6380714e-06 0 0)
(-0.31199373 -0.10193692 0 2.4862829e-06 0 0)
(-0.31447008 -0.1024223 0 -2.3443672e-06 0 0)
(-0.31216417 -0.10197051 0 2.2128625e-06 0 0)
(-0.31430784 -0.10239059 0 -2.0902332e-06 0 0)
(-0.31231605 -0.10200043 0 1.9768158e-06 0 0)
(-0.31416318 -0.1023623 0 -1.8714005e-06 0 0)
(-0.31245189 -0.10202718 0 1.7741807e-06 0 0)
(-0.31403366 -0.10233694 0 -1.6842068e-06 0 0)
(-0.31257396 -0.10205122 0 1.6015743e-06 0 0)
(-0.31391705 -0.1023141 0 -1.5255432e-06 0 0)
(-0.3126843 -0.10207295 0 1.4561472e-06 0 0)
(-0.31381138 -0.10229339 0 -1.3928182e-06 0 0)
(-0.31278475 -0.10209272 0 1.3355584e-06 0 0)
(-0.31371485 -0.10227445 0 -1.2839466e-06 0 0)
(-0.31287701 -0.10211089 0 1.2379847e-06 0 0)
(-0.31362582 -0.10225697 0 -1.1973894e-06 0 0)
(-0.31296263 -0.10212775 0 1.1622117e-06 0 0)
(-0.31354277 -0.10224065 0 -1.13233e-06 0 0)
(-0.31304305 -0.1021436 0 1.1078361e-06 0 0)
(-0.31346427 -0.10222521 0 -1.0899413e-06 0 0)
(-0.31311966 -0.1021587 0 1.075711e-06 0 0)
(-0.31338874 -0.10221032 0 -1.0592202e-06 0 0)
(-0.31319329 -0.10217293 0 1.2639784e-06 0 0)
(-0.31330999 -0.10219582 0 -1.4119398e-06 0 0)
(-0.21650508 -0.11130739 0 -0.021594011 0 0)
(-0.27379727 -0.093781847 0 0.0010089955 0 0)
(-0.27861904 -0.096513395 0 -1.7332178e-07 0 0)
(-0.29605076 -0.09956591 0 1.7326669e-05 0 0)
(-0.28595351 -0.097477499 0 1.2244067e-05 0 0)
(-0.29627291 -0.099544114 0 8.8633507e-07 0 0)
(-0.28716271 -0.097677617 0 9.3573545e-06 0 0)
(-0.29586877 -0.099455118 0 -5.7074139e-06 0 0)
(-0.28777403 -0.097799358 0 6.5494779e-06 0 0)
(-0.29537437 -0.099353779 0 -5.6841634e-06 0 0)
(-0.28825832 -0.09789918 0 5.5101675e-06 0 0)
(-0.29491951 -0.099261797 0 -5.093701e-06 0 0)
(-0.28867746 -0.097985972 0 4.8094751e-06 0 0)
(-0.29451721 -0.099180503 0 -4.4979186e-06 0 0)
(-0.28904581 -0.0980622 0 4.2269844e-06 0 0)
(-0.29416332 -0.099108904 0 -3.9631902e-06 0 0)
(-0.28937044 -0.098129294 0 3.7220046e-06 0 0)
(-0.29385207 -0.099045847 0 -3.4927584e-06 0 0)
(-0.2896568 -0.098188405 0 3.2809157e-06 0 0)
(-0.29357811 -0.098990274 0 -3.0807929e-06 0 0)
(-0.28990959 -0.098240533 0 2.8953926e-06 0 0)
(-0.2933367 -0.098941247 0 -2.7207126e-06 0 0)
(-0.29013298 -0.098286556 0 2.5587746e-06 0 0)
(-0.29312366 -0.098897938 0 -2.4065105e-06 0 0)
(-0.29033065 -0.098327249 0 2.2653537e-06 0 0)
(-0.29293534 -0.098859615 0 -2.1329025e-06 0 0)
(-0.29050587 -0.098363298 0 2.0101749e-06 0 0)
(-0.29276849 -0.098825631 0 -1.8952816e-06 0 0)
(-0.29066154 -0.09839531 0 1.7889357e-06 0 0)
(-0.29262025 -0.098795412 0 -1.6896493e-06 0 0)