/*--------------------------------*- C++ -*----------------------------------*\
| =========                 |                                                 |
| \\      /  F ield         | OpenFOAM: The Open Source CFD Toolbox           |
|  \\    /   O peration     | Version:  2312                                  |
|   \\  /    A nd           | Website:  www.openfoam.com                      |
|    \\/     M anipulation  |                                                 |
\*---------------------------------------------------------------------------*/
FoamFile
{
    version     2.0;
    format      ascii;
    arch        "LSB;label=32;scalar=64";
    class       volScalarField;
    location    "6";
    object      T;
}
// * * * * * * * * * * * * * * * * * * * * * * * * * * * * * * * * * * * * * //

dimensions      [0 0 0 1 0 0 0];

internalField   nonuniform List<scalar> 
4000
(
309.26114
310.16152
310.2895
310.37104
310.43277
310.49203
310.54265
310.59468
310.64097
310.68943
310.7335
310.77983
310.82258
310.86752
310.9094
310.95338
310.99464
311.03791
311.07871
311.12147
311.1619
311.20426
311.24439
311.28644
311.32633
311.36814
311.40781
311.44943
311.48891
311.53039
311.5697
311.61106
311.65021
311.6915
311.73049
311.77172
311.81057
311.85176
311.89047
311.93165
311.97021
312.0114
312.04981
312.09104
312.12927
312.17059
312.20858
312.25012
312.28764
312.33013
307.44589
309.25776
309.56161
309.72772
309.83458
309.93396
310.0075
310.08524
310.1458
310.2128
310.2667
310.32734
310.37727
310.43375
310.48107
310.53465
310.58011
310.6316
310.67567
310.72559
310.76856
310.81729
310.85937
310.90719
310.94851
310.99561
311.03628
311.08283
311.12293
311.16904
311.20862
311.25439
311.2935
311.33902
311.37768
311.42302
311.46125
311.50648
311.54429
311.58948
311.62685
311.67207
311.70897
311.75432
311.79068
311.83632
311.87195
311.91822
311.95248
312.00152
306.13318
308.36658
308.83649
309.08596
309.23767
309.37685
309.4733
309.57656
309.65142
309.73685
309.8006
309.87548
309.93261
310.00057
310.05334
310.11649
310.16617
310.22583
310.27318
310.33024
310.37577
310.43085
310.47488
310.52845
310.57122
310.62359
310.66528
310.71672
310.75745
310.80818
310.84804
310.89821
310.93728
310.98703
311.02536
311.07481
311.11242
311.16169
311.19859
311.24779
311.28397
311.33322
311.36862
311.41809
311.45258
311.50252
311.5358
311.5868
311.6178
311.67321
305.14859
307.50157
308.11827
308.44795
308.64367
308.82192
308.94111
309.06952
309.15865
309.26227
309.3359
309.42483
309.4892
309.5685
309.62677
309.69937
309.7533
309.82106
309.87172
309.93586
309.98396
310.04535
310.09135
310.15062
310.19485
310.25246
310.29518
310.3515
310.39287
310.44818
310.48834
310.54288
310.58192
310.63588
310.67388
310.72743
310.76443
310.81771
310.85372
310.90691
310.94191
310.99517
311.02908
311.08265
311.11529
311.16952
311.20047
311.25616
311.28395
311.34543
304.38872
306.67627
307.41251
307.81678
308.0548
308.27079
308.41233
308.56524
308.66853
308.78995
308.87343
308.97614
309.04775
309.1382
309.20198
309.28389
309.34209
309.41782
309.47182
309.54294
309.59363
309.66125
309.70923
309.77414
309.81985
309.88265
309.9264
309.98755
310.02957
310.08944
310.1299
310.18878
310.22781
310.28594
310.32363
310.38124
310.41764
310.47492
310.51005
310.5672
310.60103
310.65828
310.69071
310.74835
310.77916
310.83764
310.86629
310.92662
310.9513
311.01847
303.78921
305.90243
306.72572
307.19625
307.47376
307.7255
307.88866
308.06513
308.18233
308.32095
308.41419
308.53028
308.60912
308.71042
308.7797
308.87071
308.93318
309.01672
309.07406
309.15203
309.20531
309.27905
309.32903
309.3995
309.44669
309.51461
309.5594
309.62532
309.668
309.73237
309.77314
309.83631
309.87534
309.9376
309.97499
310.03661
310.07244
310.13366
310.16793
310.229
310.26169
310.32288
310.35386
310.41552
310.44453
310.50721
310.53361
310.59851
310.62019
310.69264
303.30818
305.18907
306.0648
306.5907
306.9037
307.18841
307.37207
307.57079
307.70146
307.85652
307.95932
308.08827
308.17422
308.286
308.36075
308.46056
308.52729
308.61842
308.67908
308.76373
308.81961
308.89933
308.9513
309.02721
309.07589
309.14882
309.19467
309.26527
309.30862
309.37741
309.41851
309.48589
309.52493
309.59126
309.62837
309.69395
309.72921
309.79433
309.82775
309.8927
309.92426
309.98934
310.0189
310.08452
310.11177
310.17858
310.20278
310.27214
310.29099
310.36827
302.91715
304.54225
305.43651
306.00477
306.34801
306.66217
306.86472
307.08404
307.2275
307.39801
307.51005
307.6512
307.7441
307.86589
307.946
308.05427
308.12518
308.22364
308.28758
308.3787
308.43715
308.52268
308.57662
308.65783
308.70798
308.78581
308.8327
308.90789
308.9519
309.02502
309.06645
309.13797
309.17702
309.24735
309.28418
309.35365
309.38836
309.4573
309.48991
309.55865
309.58912
309.65802
309.68619
309.7557
309.78124
309.85208
309.87418
309.94784
309.96407
310.04572
302.59608
303.96499
304.8469
305.44315
305.81028
306.14956
306.36893
306.60682
306.76216
306.94692
307.06772
307.22028
307.31986
307.4511
307.53639
307.6527
307.7277
307.83315
307.90031
307.99764
308.05859
308.14973
308.20561
308.29194
308.34354
308.42612
308.47404
308.55368
308.59835
308.67568
308.71744
308.793
308.83207
308.9063
308.94286
309.01614
309.05031
309.12299
309.1548
309.22726
309.25666
309.32929
309.35611
309.42942
309.45331
309.52807
309.54815
309.62594
309.63979
309.72536
302.33029
303.45756
304.30093
304.91027
305.29405
305.65348
305.88713
306.14117
306.30723
306.50482
306.63376
306.79678
306.90267
307.04269
307.13294
307.25679
307.3357
307.44777
307.51803
307.62126
307.68465
307.78114
307.8389
307.93015
307.98316
308.07031
308.11923
308.20317
308.24848
308.3299
308.37196
308.45144
308.49053
308.56855
308.60485
308.68183
308.71547
308.7918
308.82283
308.8989
308.92727
309.00353
309.02906
309.10605
309.12834
309.20689
309.22507
309.30678
309.3185
309.40756
302.10875
303.01789
303.80221
304.41005
304.8027
305.17675
305.42171
305.68918
305.86453
306.07332
306.20962
306.38202
306.49374
306.64177
306.73666
306.86748
306.9501
307.06834
307.14154
307.25034
307.31604
307.4176
307.47715
307.57309
307.62744
307.71897
307.76884
307.85691
307.90282
307.98817
308.03053
308.11379
308.15288
308.23456
308.27061
308.35116
308.38429
308.46414
308.49441
308.57399
308.60135
308.68112
308.7054
308.78594
308.80672
308.8889
308.9053
308.9907
309.00055
309.0927
301.92296
302.64202
303.35279
303.94572
304.33928
304.72207
304.97501
305.2529
305.43588
305.65405
305.79676
305.97734
306.0943
306.24947
306.34861
306.48577
306.5718
306.69574
306.77167
306.88564
306.95351
307.05982
307.12105
307.2214
307.27701
307.37269
307.42344
307.51544
307.56191
307.65102
307.69364
307.78051
307.8196
307.90479
307.94057
308.02456
308.05719
308.14043
308.16997
308.2529
308.27931
308.36244
308.38553
308.46946
308.48883
308.57444
308.58921
308.67804
308.68628
308.78115
301.76619
302.32464
302.95319
303.51961
303.90634
304.29186
304.54921
304.83429
305.02303
305.24862
305.39663
305.58407
305.70556
305.86695
305.96985
306.11264
306.20175
306.33082
306.40925
306.52795
306.59779
306.7085
306.77126
306.87574
306.93249
307.03206
307.08362
307.17933
307.22629
307.31897
307.3618
307.45211
307.49116
307.5797
307.61521
307.70248
307.73461
307.82108
307.84991
307.93605
307.96154
308.04787
308.06983
308.15698
308.17502
308.26387
308.27716
308.36914
308.37603
308.47328
301.63311
302.05956
302.6025
303.13305
303.50584
303.88819
304.14626
304.43518
304.62764
304.85854
305.01064
305.20351
305.32873
305.4953
305.60142
305.74907
305.84086
305.97448
306.05509
306.17805
306.24964
306.36436
306.42847
306.53674
306.59451
306.6977
306.74995
306.84913
306.89651
306.99252
307.03552
307.12908
307.16806
307.25975
307.29498
307.38535
307.41699
307.50651
307.53465
307.62383
307.64843
307.73779
307.75869
307.84887
307.86567
307.95753
307.96949
308.06434
308.07013
308.16944
301.5194
301.8402
302.29856
302.7864
303.13905
303.51266
303.76779
304.05715
304.25121
304.48524
304.64008
304.83688
304.96494
305.13562
305.24431
305.39601
305.49002
305.62755
305.71
305.8367
305.90978
306.02808
306.09336
306.20506
306.26368
306.37018
306.42301
306.52539
306.5731
306.67221
306.71531
306.81189
306.85076
306.94541
306.98032
307.0736
307.10474
307.19714
307.2246
307.31663
307.34038
307.43258
307.45247
307.54548
307.56115
307.65578
307.66657
307.76399
307.76888
307.87
301.42157
301.65995
302.03821
302.47904
302.80653
303.1664
303.41506
303.70155
303.89502
304.12998
304.28615
304.48534
304.61527
304.78891
304.8995
305.05438
305.1501
305.29085
305.37477
305.50466
305.57894
305.70037
305.76657
305.88133
305.94062
306.0501
306.10337
306.20865
306.25659
306.35854
306.40166
306.50102
306.53972
306.63711
306.67169
306.76766
306.79829
306.89336
306.92016
307.01483
307.03778
307.13261
307.15156
307.24716
307.2618
307.35896
307.36872
307.46841
307.47262
307.57529
301.33679
301.5125
301.81758
302.20948
302.50814
302.84996
303.08895
303.36941
303.56014
303.79384
303.94988
304.14989
304.28067
304.45612
304.56786
304.72502
304.8219
304.96517
305.05012
305.18264
305.25778
305.38186
305.44873
305.56614
305.62591
305.73801
305.79157
305.89945
305.94748
306.052
306.09505
306.19694
306.23542
306.33531
306.3695
306.46794
306.49806
306.59558
306.62172
306.71882
306.741
306.83823
306.85631
306.95427
306.96798
307.06739
307.07628
307.17795
307.18163
307.28563
301.26278
301.39206
301.63239
301.97556
302.24304
302.56339
302.78988
303.06144
303.24735
303.47768
303.63213
303.83141
303.96199
304.13807
304.25018
304.40872
304.50617
304.65123
304.73676
304.87131
304.94695
305.07319
305.14044
305.26008
305.3201
305.43446
305.48813
305.59827
305.64628
305.75306
305.79595
305.9001
305.93828
306.04041
306.07418
306.17485
306.20443
306.30416
306.32966
306.42896
306.4504
306.54979
306.56706
306.66713
306.68001
306.78141
306.78957
306.89292
306.89622
307.00134
301.19769
301.29346
301.47817
301.77453
302.00984
302.30618
302.51785
302.77797
302.95716
303.18214
303.33358
303.53062
303.65994
303.83549
303.94717
304.10617
304.20356
304.34968
304.43531
304.57126
304.64704
304.77491
304.84226
304.96368
305.02371
305.13995
305.19354
305.30561
305.35344
305.46218
305.50479
305.61091
305.64871
305.75282
305.78613
305.88877
305.91779
306.01949
306.04435
306.14559
306.16632
306.26763
306.28415
306.38607
306.39822
306.50132
306.50887
306.61364
306.61666
306.72271
301.14004
301.21229
301.35054
301.60329
301.80662
302.07736
302.27245
302.519
302.68977
302.90759
303.05467
303.24804
303.37507
303.54895
303.6594
303.81794
303.91466
304.06108
304.14632
304.28307
304.35858
304.48756
304.55469
304.67744
304.73724
304.85494
304.90826
305.02189
305.0694
305.17977
305.22199
305.32978
305.36713
305.47293
305.50571
305.61006
305.6385
305.7419
305.76612
305.86906
305.8891
305.99207
306.0079
306.1114
306.1229
306.22743
306.23448
306.34039
306.34323
306.45002
301.08865
301.14486
301.24532
301.45856
301.63112
301.87555
302.05287
302.28419
302.44509
302.65417
302.79565
302.98403
303.10775
303.27889
303.38731
303.54452
303.63994
303.78592
303.87027
304.00719
304.08203
304.2116
304.27818
304.40179
304.4611
304.57987
304.6327
304.74754
304.79455
304.90622
304.94793
305.05708
305.09387
305.20108
305.23328
305.33906
305.36688
305.47172
305.4953
305.59966
305.61905
305.7234
305.7386
305.84341
305.85433
305.96003
305.96667
306.07346
306.07618
306.18354
301.04258
301.08815
301.1587
301.33701
301.4808
301.69903
301.85798
302.07285
302.22275
302.42175
302.55653
302.73872
302.85822
303.0256
303.13124
303.28626
303.37975
303.52459
303.60755
303.74402
303.81779
303.94741
304.01312
304.13713
304.19567
304.3151
304.36724
304.4829
304.52926
304.64188
304.68294
304.79314
304.82929
304.93761
304.96916
305.07609
305.10325
305.20925
305.23217
305.33769
305.35644
305.46192
305.47651
305.58236
305.59278
305.69936
305.70568
305.81311
305.81576
305.92351
301.00107
301.03979
301.08731
301.23541
301.35303
301.54585
301.68635
301.88406
302.02211
302.20996
302.33712
302.51207
302.6265
302.78921
302.89135
303.04338
303.13436
303.27737
303.35844
303.49387
303.56618
303.69533
303.75983
303.88378
303.94129
304.06095
304.11218
304.2283
304.27383
304.38706
304.42734
304.53826
304.57367
304.68279
304.71363
304.82141
304.84788
304.95477
304.97702
305.08342
305.10155
305.20787
305.22191
305.32852
305.3385
305.4457
305.45175
305.55957
305.56218
305.67015
300.96354
300.99796
301.02823
301.15074
301.24513
301.4139
301.53636
301.71661
301.8423
302.01821
302.137
302.30385
302.41248
302.56969
302.66768
302.81599
302.9039
303.04442
303.12314
303.25697
303.32741
303.45558
303.51855
303.642
303.69822
303.8177
303.8678
303.984
304.02852
304.14202
304.18139
304.29271
304.32728
304.4369
304.46694
304.57529
304.60103
304.70851
304.73008
304.83709
304.85459
304.96149
304.975
305.08211
305.09169
305.19924
305.20509
305.31308
305.31567
305.42368
300.92951
300.96127
300.97903
301.08027
301.15451
301.301
301.40623
301.56916
301.68226
301.84573
301.95558
302.11365
302.21586
302.36687
302.46012
302.60406
302.68839
302.82582
302.90176
303.03344
303.10164
303.22835
303.28948
303.41197
303.46664
303.58555
303.63431
303.75022
303.79356
303.90698
303.9453
304.0567
304.09032
304.20014
304.22932
304.33794
304.36289
304.47069
304.49156
304.59889
304.61579
304.72298
304.73599
304.84333
304.85255
304.96021
304.96587
305.07382
305.07639
305.18428
300.89863
300.92871
300.93771
301.02155
301.07872
301.20496
301.29409
301.44018
301.54077
301.69156
301.79212
301.9409
302.0362
302.18042
302.26846
302.40744
302.48773
302.62153
302.69428
302.8233
302.88893
303.01371
303.07271
303.19382
303.24668
303.36463
303.41185
303.52711
303.56911
303.68211
303.71925
303.83041
303.86298
303.97269
304.00094
304.10954
304.13366
304.24149
304.26164
304.36902
304.3853
304.49253
304.50504
304.61235
304.62124
304.72877
304.73428
304.84196
304.84452
304.95211
300.87058
300.89956
300.90268
300.97249
301.01552
301.12368
301.19807
301.32809
301.41649
301.55462
301.64573
301.78488
301.87292
302.00991
302.09232
302.22586
302.30172
302.43141
302.5006
302.62652
302.68924
302.81168
302.86826
302.98759
303.03843
303.15504
303.20052
303.31477
303.35527
303.46753
303.50335
303.61397
303.64539
303.75469
303.78193
303.89022
303.91347
304.02106
304.04045
304.14762
304.16327
304.27027
304.28231
304.38934
304.39791
304.50507
304.51043
304.61765
304.6202
304.7273
300.84515
300.8733
300.87268
300.93134
300.96289
301.05518
301.11633
301.23129
301.30802
301.43372
301.51538
301.64477
301.72533
301.85477
301.93123
302.05893
302.13004
302.2552
302.32054
302.44293
302.50247
302.62216
302.67609
302.79327
302.84186
302.95678
303.00034
303.11326
303.1521
303.26329
303.29769
303.40745
303.43762
303.54622
303.57239
303.6801
303.70242
303.80949
303.8281
303.93479
303.94982
304.05633
304.06789
304.1744
304.18267
304.28923
304.29445
304.40102
304.40353
304.50999
300.82213
300.84958
300.84678
300.89661
300.91907
300.99763
301.04709
301.14814
301.21391
301.32761
301.40001
301.51965
301.59264
301.71431
301.78464
301.90619
301.97229
302.09258
302.1538
302.27232
302.32844
302.44502
302.49607
302.61076
302.6569
302.76981
302.81128
302.92255
302.9596
303.06942
303.10227
303.21089
303.23973
303.34735
303.37237
303.47922
303.50057
303.60687
303.62467
303.73063
303.74501
303.85079
303.86188
303.96763
303.97559
304.08135
304.08643
304.19214
304.19462
304.30025
300.80138
300.82815
300.82423
300.86714
300.88254
300.94937
300.98871
301.07711
301.13274
301.23502
301.29848
301.40851
301.47397
301.5878
301.65187
301.76707
301.82798
301.94313
302.00003
302.11437
302.16686
302.28004
302.32802
302.43991
302.48344
302.59402
302.63326
302.74257
302.77771
302.88588
302.91708
303.02427
303.0517
303.15808
303.18189
303.28762
303.30796
303.41323
303.43019
303.53517
303.54889
303.65371
303.66431
303.76909
303.77674
303.88149
303.88641
303.9911
303.99353
304.09816
300.78279
300.80885
300.80452
300.84197
300.85203
300.90895
300.93967
301.0167
301.0631
301.15466
301.20961
301.31033
301.36839
301.47441
301.5322
301.64093
301.69655
301.80635
301.85879
301.9687
302.01741
302.12691
302.17168
302.28049
302.32127
302.42924
302.46612
302.57322
302.60633
302.71258
302.74204
302.84755
302.87349
302.97837
303.00092
303.10529
303.12456
303.22856
303.24466
303.34843
303.36147
303.46511
303.47522
303.5788
303.58613
303.68968
303.69444
303.79793
303.80029
303.90376
300.76625
300.79154
300.78725
300.82037
300.82646
300.8751
300.89859
300.96553
301.00365
301.08527
301.13224
301.22404
301.27495
301.37327
301.42486
301.52707
301.57737
301.68169
301.72958
301.83488
301.8797
301.9853
302.02673
302.13222
302.17014
302.27527
302.30968
302.41431
302.4453
302.5494
302.57704
302.68062
302.70501
302.80815
302.82938
302.93215
302.95033
303.05283
303.06805
303.17038
303.18273
303.28497
303.29457
303.39677
303.40377
303.50594
303.51051
303.61264
303.61492
303.71706
300.75169
300.77614
300.77213
300.80175
300.80499
300.84673
300.86425
300.92235
300.95314
301.02565
301.06523
301.14857
301.19266
301.2835
301.32902
301.42477
301.46978
301.56855
301.61185
301.7124
301.75327
301.8548
301.89281
301.99479
302.02975
302.13182
302.16369
302.26564
302.29443
302.39614
302.42189
302.52334
302.54611
302.6473
302.66717
302.76813
302.78518
302.88598
302.90027
303.00098
303.01261
303.11326
303.12234
303.22297
303.22962
303.33024
303.33461
303.43521
303.4374
303.53806
300.73906
300.76257
300.75893
300.78567
300.7869
300.82294
300.8356
300.886
300.9104
300.97464
301.00749
301.08289
301.12054
301.20419
301.24385
301.33324
301.37305
301.46627
301.50502
301.60073
301.63763
301.73495
301.7695
301.8678
301.89976
301.99859
302.02786
302.12692
302.15347
302.25259
302.27642
302.37551
302.39664
302.49567
302.51414
302.6131
302.62898
302.72789
302.74124
302.84012
302.85102
302.94991
302.95844
303.05734
303.06363
303.16253
303.16669
303.26561
303.2677
303.36672
300.7283
300.75075
300.74749
300.77177
300.77162
300.80294
300.81172
300.85548
300.87437
300.93118
300.95795
301.02598
301.05764
301.13442
301.16851
301.2517
301.28647
301.37418
301.40845
301.4993
301.53224
301.62526
301.65635
301.75084
301.77977
301.87522
301.90185
301.99787
302.02213
302.1185
302.14036
302.23693
302.25637
302.35307
302.37012
302.46689
302.48159
302.57842
302.59081
302.68771
302.69785
302.79481
302.80279
302.89979
302.9057
303.00275
303.00667
303.10378
303.10575
303.203
300.71933
300.74059
300.73765
300.75978
300.75871
300.78611
300.79183
300.82988
300.8441
300.89429
300.91564
300.97689
301.00303
301.07333
301.10216
301.17936
301.2093
301.29159
301.3215
301.40749
301.43655
301.52522
301.55287
301.64347
301.66938
301.76132
301.78531
301.87815
301.90011
301.99358
302.01344
302.10734
302.12508
302.21928
302.23489
302.32931
302.34281
302.43741
302.44883
302.54358
302.55296
302.64783
302.65524
302.75021
302.75572
302.85078
302.85446
302.94962
302.95147
303.04681
300.71209
300.732
300.72929
300.74947
300.7478
300.77193
300.77526
300.80845
300.81874
300.86307
300.87965
300.93471
300.95583
301.02004
301.04396
301.11544
301.14078
301.2178
301.24351
301.3247
301.34996
301.43429
301.45855
301.54521
301.56812
301.65647
301.67783
301.76739
301.78705
301.87749
301.89536
301.98645
302.00248
302.09405
302.10821
302.20015
302.21244
302.30467
302.3151
302.40756
302.41617
302.50883
302.51566
302.60847
302.61357
302.70651
302.70993
302.80302
302.80475
302.89805
300.70645
300.72486
300.72228
300.74066
300.7386
300.75997
300.76147
300.79052
300.79756
300.83672
300.84915
300.89859
300.91519
300.97375
300.99315
301.05918
301.0802
301.15212
301.17381
301.25029
301.2719
301.3519
301.37287
301.45556
301.47554
301.56024
301.579
301.6652
301.68258
301.7699
301.78579
301.87396
301.88828
301.97711
301.98982
302.07915
302.09023
302.17996
302.18941
302.27947
302.2873
302.37762
302.38386
302.47439
302.47907
302.56979
302.57294
302.66385
302.66544
302.75661
300.70227
300.71905
300.71648
300.73317
300.73086
300.74988
300.75
300.77551
300.77989
300.81453
300.8234
300.86777
300.88035
300.93368
300.94894
301.00985
301.02684
301.09386
301.11176
301.18365
301.20176
301.27749
301.29528
301.37402
301.39114
301.47217
301.48839
301.57117
301.58631
301.67044
301.68437
301.76954
301.78217
301.86816
301.87943
301.96605
301.97593
302.06307
302.07153
302.15908
302.16612
302.254
302.25965
302.34781
302.35206
302.44046
302.44332
302.53196
302.53342
302.62234
300.69936
300.71441
300.71178
300.72685
300.72438
300.74137
300.74046
300.76296
300.76519
300.79589
300.80173
300.84155
300.85059
300.89911
300.91064
300.96673
300.98001
301.04236
301.05671
301.12415
301.13895
301.2105
301.22525
301.30006
301.31443
301.39179
301.40554
301.48487
301.49783
301.57872
301.59073
301.67284
301.68381
301.76688
301.77674
301.86057
301.86926
301.9537
301.96119
302.04614
302.05241
302.13777
302.14281
302.22851
302.23232
302.31832
302.3209
302.40718
302.40849
302.49508
300.69751
300.7108
300.70804
300.72158
300.719
300.7342
300.73254
300.75245
300.75298
300.78023
300.78353
300.81929
300.82526
300.86938
300.87757
300.92916
300.93907
300.99698
301.00804
301.0712
301.08289
301.15036
301.16223
301.23317
301.24491
301.31862
301.33
301.40588
301.41673
301.49434
301.5045
301.58349
301.59284
301.67294
301.68141
301.76239
301.76991
301.8516
301.85812
301.94041
301.9459
302.02867
302.03311
302.11628
302.11966
302.20318
302.20547
302.28931
302.29048
302.37466
300.6965
300.70806
300.70512
300.71721
300.71456
300.72817
300.72597
300.74366
300.74284
300.7671
300.7683
300.80044
300.80376
300.84387
300.84912
300.89653
300.90338
300.95711
300.96516
301.02421
301.03301
301.09652
301.10568
301.17285
301.18209
301.25219
301.2613
301.33375
301.34257
301.41691
301.42527
301.50113
301.50891
301.586
301.59312
301.6712
301.67758
301.75647
301.76204
301.84161
301.84634
301.92645
301.93031
302.01088
302.01383
302.09481
302.09682
302.17816
302.17919
302.26089
300.69609
300.70602
300.70291
300.71364
300.71093
300.72311
300.72053
300.73629
300.73445
300.75609
300.75558
300.78449
300.78557
300.82204
300.82472
300.86826
300.87239
300.92217
300.92748
300.98263
300.98877
301.04846
301.0551
301.11858
301.12547
301.19203
301.199
301.26805
301.27493
301.346
301.35264
301.42537
301.43164
301.50571
301.51152
301.58668
301.59194
301.668
301.67265
301.74946
301.75344
301.83087
301.83414
301.91208
301.9146
301.99299
301.99471
302.07351
302.07439
302.15357
300.69609
300.70453
300.70128
300.71073
300.70799
300.71888
300.71605
300.73011
300.7275
300.74685
300.74497
300.77101
300.77022
300.80338
300.80385
300.84382
300.84555
300.89164
300.89449
300.94592
300.94963
301.00566
301.00998
301.06988
301.07459
301.13768
301.14264
301.20834
301.21339
301.28123
301.28623
301.35583
301.36066
301.4317
301.43626
301.50849
301.51268
301.58589
301.58965
301.66367
301.66693
301.74163
301.74433
301.81961
301.82171
301.89748
301.89892
301.97513
301.97587
302.05248
300.69632
300.70347
300.70011
300.7084
300.70564
300.71535
300.71236
300.72493
300.72176
300.73908
300.73614
300.75961
300.75729
300.78746
300.78604
300.82273
300.82237
300.86501
300.86567
300.9136
300.91511
300.96764
300.96983
301.02627
301.02897
301.08869
301.09177
301.15419
301.15753
301.22218
301.22564
301.29214
301.2956
301.36363
301.367
301.43629
301.43947
301.50981
301.51271
301.58394
301.5865
301.65846
301.66061
301.7332
301.73489
301.80802
301.80919
301.88278
301.88339
301.9574
300.69667
300.70272
300.6993
300.70654
300.70378
300.71241
300.70934
300.72057
300.71701
300.73255
300.72879
300.74998
300.74642
300.77387
300.77089
300.80455
300.80239
300.84182
300.84056
300.88518
300.88474
300.93393
300.93419
300.98732
300.98818
301.04462
301.04598
301.10518
301.10693
301.16845
301.17047
301.23391
301.23609
301.30113
301.30337
301.36975
301.37196
301.43945
301.44153
301.50997
301.51186
301.58108
301.5827
301.65259
301.65389
301.72436
301.72526
301.79622
301.7967
301.86809
300.69703
300.70218
300.69878
300.70506
300.70233
300.70996
300.70687
300.7169
300.71309
300.72704
300.72267
300.74182
300.73729
300.76228
300.75801
300.7889
300.78522
300.82167
300.81874
300.86024
300.85808
300.90409
300.90264
300.95258
300.95177
301.00505
301.00483
301.06092
301.06121
301.11965
301.12034
301.18077
301.18176
301.24385
301.24504
301.30852
301.30982
301.37448
301.3758
301.44145
301.4427
301.50919
301.51031
301.5775
301.57842
301.64623
301.64688
301.71521
301.71555
301.78432
300.69737
300.70179
300.69845
300.70389
300.7012
300.70793
300.70485
300.7138
300.70984
300.72236
300.71758
300.73488
300.72962
300.75239
300.74709
300.77543
300.77049
300.80415
300.79981
300.83839
300.83473
300.87773
300.87477
300.92166
300.91936
300.96959
300.96795
301.02101
301.01996
301.07542
301.07488
301.13237
301.13225
301.19144
301.19166
301.25229
301.25274
301.31459
301.31519
301.37808
301.37873
301.4425
301.44314
301.50766
301.50822
301.57337
301.57378
301.63947
301.6397
301.70583
300.69765
300.7015
300.69828
300.70296
300.70034
300.70624
300.70321
300.71116
300.70715
300.71838
300.71334
300.72898
300.72318
300.74391
300.73782
300.76382
300.75785
300.78894
300.78342
300.81925
300.81432
300.85447
300.85018
300.89417
300.89056
300.93786
300.93495
300.98509
300.98284
301.03539
301.03374
301.08835
301.08722
301.14357
301.14288
301.20072
301.20038
301.25947
301.25939
301.31955
301.31965
301.38072
301.38092
301.44277
301.443
301.50551
301.5057
301.56877
301.56888
301.6324
300.69787
300.70126
300.69819
300.70223
300.69968
300.70483
300.70186
300.70891
300.70491
300.71497
300.70978
300.72391
300.71776
300.73664
300.72996
300.7538
300.74704
300.77573
300.76924
300.8025
300.7965
300.83395
300.82854
300.86976
300.86501
300.90951
300.90547
300.95279
300.94947
300.99921
300.99656
301.04837
301.04633
301.09991
301.0984
301.15349
301.15243
301.2088
301.2081
301.26558
301.26516
301.32358
301.32336
301.38258
301.38249
301.44239
301.44237
301.50283
301.50284
301.56376
300.69803
300.70106
300.69817
300.70163
300.69917
300.70363
300.70076
300.70696
300.70303
300.71201
300.70679
300.71955
300.71319
300.73037
300.72328
300.74513
300.73777
300.76424
300.75699
300.78784
300.78096
300.81587
300.80951
300.8481
300.84237
300.88419
300.87918
300.9238
300.91953
300.96656
300.96302
301.01212
301.00926
301.06014
301.05789
301.11029
301.10858
301.16229
301.16103
301.21586
301.21497
301.27077
301.27018
301.32679
301.32642
301.38373
301.38352
301.44141
301.44132
301.49966
300.69814
300.70087
300.69817
300.70113
300.69878
300.70259
300.69983
300.70526
300.70143
300.70943
300.70426
300.71575
300.70931
300.72494
300.71759
300.73762
300.72983
300.75423
300.7464
300.775
300.76742
300.79994
300.79281
300.8289
300.82236
300.86162
300.85578
300.89779
300.89271
300.93712
300.9328
300.97928
300.97569
301.02395
301.02104
301.07083
301.06853
301.11964
301.11787
301.17012
301.16881
301.22203
301.22109
301.27515
301.27452
301.32928
301.32889
301.38424
301.38406
301.43986
300.69821
300.70068
300.69818
300.7007
300.69845
300.70169
300.69903
300.70374
300.70005
300.70714
300.70208
300.71241
300.706
300.72019
300.71274
300.73106
300.72301
300.74549
300.73725
300.76374
300.75563
300.7859
300.77815
300.81188
300.80467
300.84149
300.83495
300.87448
300.86871
300.9106
300.90562
300.94955
300.94534
300.99105
300.98757
301.03481
301.032
301.08057
301.07836
301.12807
301.12638
301.17708
301.17584
301.22738
301.22652
301.27877
301.27823
301.33107
301.33081
301.38411
300.69824
300.70049
300.69818
300.70031
300.69816
300.70087
300.69832
300.70237
300.69883
300.70508
300.70019
300.70945
300.70316
300.71602
300.70857
300.72532
300.71715
300.73783
300.72933
300.75385
300.74537
300.7735
300.76529
300.79678
300.78905
300.82354
300.81645
300.8536
300.84726
300.88673
300.88118
300.92267
300.91793
300.96117
300.9572
301.00197
300.99872
301.04481
301.04221
301.08945
301.08743
301.13566
301.13415
301.18323
301.18216
301.23195
301.23128
301.28165
301.28133
301.33216
300.69824
300.7003
300.69816
300.69994
300.69787
300.70009
300.69766
300.70109
300.69773
300.7032
300.69851
300.70678
300.70067
300.71231
300.70497
300.72026
300.71208
300.73109
300.72247
300.74513
300.73642
300.76255
300.75402
300.78338
300.77526
300.80755
300.80002
300.83489
300.8281
300.86524
300.85924
300.89837
300.89319
300.93406
300.92967
300.97204
300.96841
301.0121
301.00917
301.054
301.0517
301.09752
301.09578
301.14244
301.1412
301.18858
301.18778
301.23575
301.23536
301.28378
300.69821
300.7001
300.69811
300.69956
300.69757
300.69935
300.69701
300.69988
300.6967
300.70145
300.697
300.70435
300.69848
300.70898
300.70183
300.71576
300.70768
300.72514
300.71651
300.73743
300.72861
300.75285
300.74413
300.77148
300.7631
300.79328
300.78544
300.81813
300.811
300.84591
300.83955
300.87642
300.87088
300.90945
300.90472
300.94478
300.94084
300.9822
300.97899
301.02148
301.01893
301.06241
301.06047
301.10478
301.10339
301.14841
301.14751
301.19311
301.19267
301.23872
300.69816
300.69988
300.69801
300.69916
300.69723
300.69859
300.69636
300.69871
300.69571
300.69979
300.6956
300.7021
300.69652
300.70595
300.69907
300.71173
300.70384
300.71984
300.71131
300.73059
300.72178
300.74424
300.73544
300.76089
300.75235
300.78053
300.77249
300.80311
300.79573
300.82851
300.82189
300.85658
300.85077
300.88712
300.88213
300.91995
300.91576
300.95486
300.95143
300.99164
300.9889
301.03009
301.02799
301.07
301.06849
301.1112
301.11022
301.15351
301.15303
301.19676
300.69808
300.69965
300.69786
300.69872
300.69683
300.69781
300.69567
300.69754
300.69472
300.6982
300.69428
300.69999
300.69473
300.70318
300.69661
300.70809
300.70046
300.71509
300.70675
300.7245
300.71579
300.73658
300.72779
300.75144
300.74286
300.76914
300.761
300.78963
300.78211
300.81284
300.80605
300.83864
300.83264
300.86686
300.86168
300.89734
300.89296
300.92987
300.92626
300.96427
300.96138
301.00033
300.99811
301.03789
301.03627
301.07674
301.07569
301.11672
301.1162
301.15767
300.69797
300.69939
300.69764
300.69822
300.69635
300.69698
300.69492
300.69636
300.69373
300.69664
300.69299
300.69798
300.69306
300.7006
300.69438
300.70476
300.69746
300.71081
300.70273
300.71904
300.71052
300.72972
300.72106
300.743
300.73447
300.75893
300.75078
300.77753
300.76994
300.79872
300.79183
300.82241
300.8163
300.84847
300.84316
300.87672
300.87222
300.90701
300.90328
300.93914
300.93614
300.97293
300.97062
301.00821
301.00653