/*--------------------------------*- C++ -*----------------------------------*\
| =========                 |                                                 |
| \\      /  F ield         | OpenFOAM: The Open Source CFD Toolbox           |
|  \\    /   O peration     | Version:  2312                                  |
|   \\  /    A nd           | Website:  www.openfoam.com                      |
|    \\/     M anipulation  |                                                 |
\*---------------------------------------------------------------------------*/
FoamFile
{
    version     2.0;
    format      ascii;
    arch        "LSB;label=32;scalar=64";
    class       volVectorField;
    location    "6";
    object      U_0;
}
// * * * * * * * * * * * * * * * * * * * * * * * * * * * * * * * * * * * * * //

dimensions      [0 1 -1 0 0 0 0];

internalField   nonuniform List<vector> 
4000
(
(0.0013487991 0.00023021761 0)
(0.0014475738 -1.2423918e-06 0)
(0.0013498503 -1.5197101e-07 0)
(0.0013956163 1.4810296e-07 0)
(0.0013600204 -1.3728628e-07 0)
(0.0013934356 1.3033132e-07 0)
(0.0013630174 -1.2099612e-07 0)
(0.0013916176 1.1371469e-07 0)
(0.0013649313 -1.064891e-07 0)
(0.0013899551 9.9907897e-08 0)
(0.0013665332 -9.3677268e-08 0)
(0.0013884724 8.7869941e-08 0)
(0.0013679316 -8.2421532e-08 0)
(0.0013871641 7.7325229e-08 0)
(0.0013691604 -7.2552391e-08 0)
(0.0013860119 6.8086831e-08 0)
(0.001370242 -6.3906737e-08 0)
(0.0013849969 5.9997389e-08 0)
(0.0013711948 -5.6339228e-08 0)
(0.0013841022 5.2920172e-08 0)
(0.0013720351 -4.9722259e-08 0)
(0.0013833127 4.6735742e-08 0)
(0.0013727769 -4.3944189e-08 0)
(0.001382615 4.1339748e-08 0)
(0.0013734329 -3.8907512e-08 0)
(0.0013819976 3.6641138e-08 0)
(0.001374014 -3.4527221e-08 0)
(0.0013814499 3.2560622e-08 0)
(0.0013745302 -3.0729386e-08 0)
(0.0013809627 2.9029336e-08 0)
(0.0013749901 -2.7449905e-08 0)
(0.0013805278 2.5987687e-08 0)
(0.0013754015 -2.4633429e-08 0)
(0.0013801379 2.3384346e-08 0)
(0.0013757713 -2.223243e-08 0)
(0.0013797863 2.1175398e-08 0)
(0.0013761057 -2.0206413e-08 0)
(0.0013794673 1.9323603e-08 0)
(0.0013764105 -1.8521242e-08 0)
(0.0013791753 1.7797802e-08 0)
(0.0013766907 -1.7148613e-08 0)
(0.0013789055 1.6572451e-08 0)
(0.0013769511 -1.6065676e-08 0)
(0.0013786532 1.562737e-08 0)
(0.0013771961 -1.5254982e-08 0)
(0.0013784143 1.4947825e-08 0)
(0.0013774297 -1.4705975e-08 0)
(0.001378185 1.4527071e-08 0)
(0.0013776625 -1.4386274e-08 0)
(0.0013780089 1.4880106e-08 0)
(0.0037642118 0.00063525793 0)
(0.0041623817 4.2517249e-07 0)
(0.0039241926 4.4536844e-08 0)
(0.0040511254 4.1088491e-07 0)
(0.0039478272 -4.7785181e-07 0)
(0.0040452094 4.3481773e-07 0)
(0.0039564732 -4.2089347e-07 0)
(0.0040399373 3.9180578e-07 0)
(0.0039620401 -3.6912377e-07 0)
(0.0040350844 3.4557118e-07 0)
(0.0039667159 -3.2434758e-07 0)
(0.0040307559 3.0410788e-07 0)
(0.0039707999 -2.8531129e-07 0)
(0.0040269367 2.6764399e-07 0)
(0.0039743889 -2.5113969e-07 0)
(0.0040235729 2.3567501e-07 0)
(0.0039775481 -2.2121414e-07 0)
(0.0040206097 2.0767865e-07 0)
(0.0039803315 -1.9502256e-07 0)
(0.0040179973 1.8318543e-07 0)
(0.0039827862 -1.7212178e-07 0)
(0.0040156919 1.617826e-07 0)
(0.0039849537 -1.521251e-07 0)
(0.0040136545 1.4310906e-07 0)
(0.0039868706 -1.3469498e-07 0)
(0.0040118509 1.2684969e-07 0)
(0.0039885693 -1.195372e-07 0)
(0.0040102507 1.1273009e-07 0)
(0.0039900784 -1.063959e-07 0)
(0.0040088268 1.0051194e-07 0)
(0.0039914234 -9.5049239e-08 0)
(0.0040075553 8.9989008e-08 0)
(0.003992627 -8.5305674e-08 0)
(0.0040064147 8.0983677e-08 0)
(0.0039937096 -7.700071e-08 0)
(0.0040053858 7.3343923e-08 0)
(0.0039946892 -6.9994137e-08 0)
(0.0040044512 6.6940789e-08 0)
(0.0039955827 -6.4167683e-08 0)
(0.0040035952 6.1666216e-08 0)
(0.0039964049 -5.9423052e-08 0)
(0.0040028033 5.7431289e-08 0)
(0.0039971697 -5.5680359e-08 0)
(0.0040020622 5.4164931e-08 0)
(0.0039978903 -5.2876771e-08 0)
(0.0040013591 5.1814088e-08 0)
(0.0039985786 -5.0971433e-08 0)
(0.0040006823 5.0268672e-08 0)
(0.0039992586 -5.0558092e-08 0)
(0.004000135 4.8414789e-08 0)
(0.006112771 0.0010194937 0)
(0.006796496 -4.9259093e-07 0)
(0.0064332118 3.7716411e-07 0)
(0.0066395301 6.947565e-07 0)
(0.0064684462 -8.6624952e-07 0)
(0.0066298507 7.7420185e-07 0)
(0.0064826555 -7.6164609e-07 0)
(0.0066210958 7.0636008e-07 0)
(0.0064918618 -6.6694824e-07 0)
(0.0066130394 6.2386854e-07 0)
(0.0064996164 -5.8578752e-07 0)
(0.006605857 5.4912688e-07 0)
(0.0065063926 -5.1523988e-07 0)
(0.0065995203 4.8330295e-07 0)
(0.0065123482 -4.5352097e-07 0)
(0.0065939394 4.2557783e-07 0)
(0.0065175906 -3.9947735e-07 0)
(0.0065890228 3.7502318e-07 0)
(0.0065222097 -3.5217825e-07 0)
(0.0065846882 3.3079381e-07 0)
(0.0065262835 -3.1082226e-07 0)
(0.0065808627 2.9214478e-07 0)
(0.0065298809 -2.7471081e-07 0)
(0.0065774818 2.5842412e-07 0)
(0.0065330626 -2.4323424e-07 0)
(0.0065744886 2.2906282e-07 0)
(0.0065358824 -2.1586117e-07 0)
(0.0065718325 2.0356533e-07 0)
(0.0065383877 -1.9212949e-07 0)
(0.0065694688 1.8150132e-07 0)
(0.006540621 -1.7163857e-07 0)
(0.0065673577 1.6249836e-07 0)
(0.0065426199 -1.5404243e-07 0)
(0.0065654635 1.4623564e-07 0)
(0.0065444182 -1.3904394e-07 0)
(0.0065637543 1.3243855e-07 0)
(0.0065460461 -1.2638977e-07 0)
(0.0065622013 1.2087409e-07 0)
(0.0065475312 -1.1586614e-07 0)
(0.0065607783 1.1134682e-07 0)
(0.0065488985 -1.0729512e-07 0)
(0.0065594612 1.0369564e-07 0)
(0.0065501712 -1.0053164e-07 0)
(0.0065582278 9.7790942e-08 0)
(0.0065513709 -9.5460037e-08 0)
(0.0065570568 9.3534801e-08 0)
(0.0065525178 -9.1998395e-08 0)
(0.0065559279 9.0692891e-08 0)
(0.0065536478 -9.1599278e-08 0)
(0.0065549927 8.6935992e-08 0)
(0.0084141509 0.0013735286 0)
(0.0093562699 -2.3705145e-06 0)
(0.0088766324 9.7556962e-07 0)
(0.0091610324 9.1898008e-07 0)
(0.0089217908 -1.2408096e-06 0)
(0.0091474493 1.0878477e-06 0)
(0.0089414902 -1.0892934e-06 0)
(0.0091351747 1.006281e-06 0)
(0.0089543311 -9.5235727e-07 0)
(0.0091238921 8.9004837e-07 0)
(0.0089651769 -8.3607845e-07 0)
(0.0091138392 7.8358496e-07 0)
(0.0089746588 -7.3531844e-07 0)
(0.0091049712 6.8968498e-07 0)
(0.008982993 -6.472238e-07 0)
(0.0090971609 6.0731559e-07 0)
(0.0089903295 -5.7009411e-07 0)
(0.0090902803 5.3517385e-07 0)
(0.0089967937 -5.0259187e-07 0)
(0.0090842142 4.7205744e-07 0)
(0.009002495 -4.4357174e-07 0)
(0.0090788603 4.1690399e-07 0)
(0.0090075296 -3.920364e-07 0)
(0.0090741286 3.6878328e-07 0)
(0.0090119827 -3.4711565e-07 0)
(0.0090699392 3.2688334e-07 0)
(0.0090159294 -3.0805108e-07 0)
(0.0090662215 2.9049706e-07 0)
(0.0090194363 -2.7418317e-07 0)
(0.0090629128 2.5901036e-07 0)
(0.0090225626 -2.4494011e-07 0)
(0.0090599574 2.3189175e-07 0)
(0.0090253611 -2.1982813e-07 0)
(0.0090573054 2.0868343e-07 0)
(0.0090278789 -1.9842311e-07 0)
(0.0090549121 1.8899348e-07 0)
(0.0090301586 -1.8036344e-07 0)
(0.0090527371 1.7248927e-07 0)
(0.0090322387 -1.6534388e-07 0)
(0.0090507437 1.5889176e-07 0)
(0.0090341543 -1.5311025e-07 0)
(0.0090488982 1.4797063e-07 0)
(0.0090359379 -1.4345491e-07 0)
(0.0090471695 1.3954007e-07 0)
(0.0090376196 -1.3621097e-07 0)
(0.0090455277 1.3345937e-07 0)
(0.0090392282 -1.3125354e-07 0)
(0.0090439434 1.2934829e-07 0)
(0.00904081 -1.312355e-07 0)
(0.0090426037 1.2363272e-07 0)
(0.010660138 0.0016964519 0)
(0.011839409 -5.1437643e-06 0)
(0.011254058 1.7889812e-06 0)
(0.011615777 1.0794732e-06 0)
(0.011307869 -1.5855373e-06 0)
(0.011597989 1.3629801e-06 0)
(0.011332991 -1.3907888e-06 0)
(0.011582156 1.2797078e-06 0)
(0.01134946 -1.2139873e-06 0)
(0.011567626 1.1335439e-06 0)
(0.011363408 -1.065257e-06 0)
(0.011554688 9.9816862e-07 0)
(0.011375607 -9.3678789e-07 0)
(0.011543277 8.785906e-07 0)
(0.011386331 -8.2453965e-07 0)
(0.011533227 7.736674e-07 0)
(0.011395771 -7.2627513e-07 0)
(0.011524373 6.8176718e-07 0)
(0.011404088 -6.4027849e-07 0)
(0.011516568 6.0136311e-07 0)
(0.011411424 -5.6508849e-07 0)
(0.011509678 5.3110268e-07 0)
(0.011417903 -4.9943409e-07 0)
(0.01150359 4.6980108e-07 0)
(0.011423633 -4.4220656e-07 0)
(0.011498199 4.1642402e-07 0)
(0.011428712 -3.9243966e-07 0)
(0.011493415 3.7007076e-07 0)
(0.011433224 -3.4929313e-07 0)
(0.011489157 3.2995902e-07 0)
(0.011437248 -3.1203846e-07 0)
(0.011485354 2.9541175e-07 0)
(0.011440849 -2.8004656e-07 0)
(0.01148194 2.6584574e-07 0)
(0.01144409 -2.5277708e-07 0)
(0.01147886 2.4076169e-07 0)
(0.011447024 -2.2976928e-07 0)
(0.011476061 2.1973581e-07 0)
(0.011449701 -2.1063416e-07 0)
(0.011473495 2.0241246e-07 0)
(0.011452167 -1.9504769e-07 0)
(0.011471119 1.8849792e-07 0)
(0.011454464 -1.8274484e-07 0)
(0.011468893 1.7775466e-07 0)
(0.011456629 -1.7351116e-07 0)
(0.011466779 1.7000317e-07 0)
(0.011458701 -1.6717782e-07 0)
(0.011464737 1.6470933e-07 0)
(0.011460735 -1.67849e-07 0)
(0.011462981 1.5710338e-07 0)
(0.012849243 0.0019895957 0)
(0.014246132 -8.6926743e-06 0)
(0.013565405 2.756375e-06 0)
(0.014003786 1.185515e-06 0)
(0.013626789 -1.8996445e-06 0)
(0.013981364 1.6014817e-06 0)
(0.013657262 -1.6672141e-06 0)
(0.013961943 1.527945e-06 0)
(0.013677338 -1.4528835e-06 0)
(0.013944158 1.3553864e-06 0)
(0.013694388 -1.274267e-06 0)
(0.013928331 1.1937712e-06 0)
(0.013709307 -1.1204839e-06 0)
(0.013914373 1.050804e-06 0)
(0.013722422 -9.8620509e-07 0)
(0.013902081 9.2532364e-07 0)
(0.013733967 -8.6866948e-07 0)
(0.013891252 8.1541159e-07 0)
(0.01374414 -7.6581044e-07 0)
(0.013881705 7.1924754e-07 0)
(0.013753113 -6.7587767e-07 0)
(0.013873279 6.3521494e-07 0)
(0.013761036 -5.9735042e-07 0)
(0.013865832 5.6189699e-07 0)
(0.013768044 -5.2890242e-07 0)
(0.013859239 4.9805675e-07 0)
(0.013774256 -4.6937791e-07 0)
(0.013853388 4.4261698e-07 0)
(0.013779776 -4.1777185e-07 0)
(0.01384818 3.946421e-07 0)
(0.013784696 -3.7321283e-07 0)
(0.013843528 3.5332236e-07 0)
(0.013789101 -3.3494837e-07 0)
(0.013839353 3.179602e-07 0)
(0.013793065 -3.0233212e-07 0)
(0.013835585 2.8795843e-07 0)
(0.013796654 -2.7481292e-07 0)
(0.013832161 2.6281008e-07 0)
(0.013799929 -2.5192535e-07 0)
(0.013829022 2.4208963e-07 0)
(0.013802946 -2.3328156e-07 0)
(0.013826116 2.2544535e-07 0)
(0.013805755 -2.185639e-07 0)
(0.013823393 2.1259206e-07 0)
(0.013808404 -2.0751353e-07 0)
(0.013820806 2.0331449e-07 0)
(0.013810939 -1.9991526e-07 0)
(0.013818308 1.9692011e-07 0)
(0.013813425 -2.0150678e-07 0)
(0.013816125 1.8742881e-07 0)
(0.014984141 0.0022544546 0)
(0.016577036 -1.2964532e-05 0)
(0.015810655 3.8139938e-06 0)
(0.016324955 1.2462104e-06 0)
(0.015878676 -2.1828566e-06 0)
(0.016297453 1.8063248e-06 0)
(0.015914415 -1.9207264e-06 0)
(0.016274433 1.7533223e-06 0)
(0.015938064 -1.6710461e-06 0)
(0.016253395 1.5575075e-06 0)
(0.015958205 -1.4648946e-06 0)
(0.016234685 1.3720781e-06 0)
(0.015975834 -1.2879831e-06 0)
(0.016218189 1.2078067e-06 0)
(0.015991334 -1.1336089e-06 0)
(0.016203661 1.0635884e-06 0)
(0.016004978 -9.9850069e-07 0)
(0.016190863 9.3725623e-07 0)
(0.016017001 -8.8026647e-07 0)
(0.01617958 8.2672437e-07 0)
(0.016027604 -7.7689145e-07 0)
(0.016169621 7.3013601e-07 0)
(0.016036969 -6.8662701e-07 0)
(0.01616082 6.4586295e-07 0)
(0.016045251 -6.0794852e-07 0)
(0.016153027 5.7248358e-07 0)
(0.016052592 -5.3952737e-07 0)
(0.016146112 5.0875974e-07 0)
(0.016059116 -4.8020825e-07 0)
(0.016139957 4.536161e-07 0)
(0.016064931 -4.2898946e-07 0)
(0.016134459 4.0612191e-07 0)
(0.016070137 -3.8500597e-07 0)
(0.016129525 3.6547539e-07 0)
(0.016074822 -3.4751477e-07 0)
(0.016125072 3.3099005e-07 0)
(0.016079064 -3.1588221e-07 0)
(0.016121025 3.0208306e-07 0)
(0.016082934 -2.895731e-07 0)
(0.016117315 2.7826507e-07 0)
(0.0160865 -2.6814125e-07 0)
(0.01611388 2.5913121e-07 0)
(0.01608982 -2.5122064e-07 0)
(0.016110661 2.4435227e-07 0)
(0.016092951 -2.3851075e-07 0)
(0.016107604 2.3367951e-07 0)
(0.016095948 -2.2974685e-07 0)
(0.016104651 2.2626116e-07 0)
(0.016098882 -2.32419e-07 0)
(0.016102035 2.1486138e-07 0)
(0.0170674 0.0024918805 0)
(0.018832876 -1.7884566e-05 0)
(0.017989927 4.9073662e-06 0)
(0.018578978 1.2683287e-06 0)
(0.018063657 -2.4335493e-06 0)
(0.018546144 1.978732e-06 0)
(0.018104551 -2.1519252e-06 0)
(0.018519529 1.9566748e-06 0)
(0.018131728 -1.8690809e-06 0)
(0.018495253 1.7405302e-06 0)
(0.018154936 -1.6376987e-06 0)
(0.018473679 1.533625e-06 0)
(0.018175258 -1.4397823e-06 0)
(0.018454659 1.3500679e-06 0)
(0.018193126 -1.2671894e-06 0)
(0.01843791 1.1888747e-06 0)
(0.018208856 -1.1161551e-06 0)
(0.018423156 1.0476649e-06 0)
(0.018222716 -9.8398727e-07 0)
(0.018410147 9.2411449e-07 0)
(0.01823494 -8.6843064e-07 0)
(0.018398667 8.1614932e-07 0)
(0.018245736 -7.6752989e-07 0)
(0.01838852 7.2194977e-07 0)
(0.018255284 -6.7958053e-07 0)
(0.018379536 6.399269e-07 0)
(0.018263747 -6.0309735e-07 0)
(0.018371563 5.6869679e-07 0)
(0.018271268 -5.367888e-07 0)
(0.018364467 5.0705745e-07 0)
(0.018277972 -4.7953511e-07 0)
(0.018358129 4.5396856e-07 0)
(0.018283974 -4.3036924e-07 0)
(0.01835244 4.0853383e-07 0)
(0.018289375 -3.8846055e-07 0)
(0.018347307 3.6998587e-07 0)
(0.018294265 -3.5310059e-07 0)
(0.018342641 3.3767304e-07 0)
(0.018298728 -3.2369088e-07 0)
(0.018338364 3.1104807e-07 0)
(0.018302838 -2.9973219e-07 0)
(0.018334403 2.896577e-07 0)
(0.018306666 -2.8081431e-07 0)
(0.018330693 2.7313217e-07 0)
(0.018310276 -2.6659775e-07 0)
(0.018327168 2.6119157e-07 0)
(0.01831373 -2.5676545e-07 0)
(0.018323763 2.5282782e-07 0)
(0.01831711 -2.6062797e-07 0)
(0.01832071 2.394941e-07 0)
(0.019100607 0.0027025879 0)
(0.021014438 -2.336009e-05 0)
(0.020103471 5.9896186e-06 0)
(0.02076536 1.2586491e-06 0)
(0.020181872 -2.6511052e-06 0)
(0.020727334 2.1194339e-06 0)
(0.020227759 -2.3608355e-06 0)
(0.020697148 2.1382577e-06 0)
(0.020258406 -2.0470536e-06 0)
(0.02066966 1.9045706e-06 0)
(0.020284649 -1.7927633e-06 0)
(0.020645248 1.6785021e-06 0)
(0.020307637 -1.5759603e-06 0)
(0.020623729 1.4776653e-06 0)
(0.020327851 -1.3870169e-06 0)
(0.02060478 1.3012503e-06 0)
(0.020345646 -1.2216947e-06 0)
(0.020588087 1.1466973e-06 0)
(0.020361325 -1.0770277e-06 0)
(0.020573371 1.0114705e-06 0)
(0.020375155 -9.5054376e-07 0)
(0.020560382 8.9330134e-07 0)
(0.020387368 -8.4010202e-07 0)
(0.020548902 7.9019856e-07 0)
(0.02039817 -7.4383663e-07 0)
(0.020538738 7.0042319e-07 0)
(0.020407745 -6.6012183e-07 0)
(0.020529719 6.2246059e-07 0)
(0.020416253 -5.8754387e-07 0)
(0.020521691 5.549952e-07 0)
(0.020423837 -5.2487703e-07 0)
(0.02051452 4.9688837e-07 0)
(0.020430627 -4.7106277e-07 0)
(0.020508085 4.471591e-07 0)
(0.020436737 -4.251918e-07 0)
(0.020502277 4.0496739e-07 0)
(0.02044227 -3.8648855e-07 0)
(0.020496998 3.6959984e-07 0)
(0.020447318 -3.542977e-07 0)
(0.02049216 3.4045712e-07 0)
(0.020451968 -3.2807229e-07 0)
(0.02048768 3.1704234e-07 0)
(0.020456298 -3.0736208e-07 0)
(0.020483482 2.9894879e-07 0)
(0.020460382 -2.9179151e-07 0)
(0.020479494 2.8586775e-07 0)
(0.02046429 -2.8098918e-07 0)
(0.020475643 2.7664108e-07 0)
(0.02046811 -2.8611071e-07 0)
(0.02047215 2.6136174e-07 0)
(0.021084688 0.0028873361 0)
(0.023122564 -2.9289566e-05 0)
(0.022151501 7.0224644e-06 0)
(0.022883591 1.2240846e-06 0)
(0.022233464 -2.8374772e-06 0)
(0.022840931 2.229537e-06 0)
(0.022284118 -2.5475618e-06 0)
(0.022807214 2.2983593e-06 0)
(0.02231817 -2.205065e-06 0)
(0.022776548 2.0497769e-06 0)
(0.022347407 -1.9302031e-06 0)
(0.022749332 1.8068279e-06 0)
(0.022373028 -1.6966228e-06 0)
(0.022725346 1.5907014e-06 0)
(0.022395557 -1.4931851e-06 0)
(0.022704225 1.4008052e-06 0)
(0.022415391 -1.3152024e-06 0)
(0.022685618 1.2344324e-06 0)
(0.022432867 -1.1594609e-06 0)
(0.022669215 1.0888621e-06 0)
(0.022448281 -1.0232954e-06 0)
(0.022654737 9.6165351e-07 0)
(0.022461894 -9.0440058e-07 0)
(0.022641942 8.5066365e-07 0)
(0.022473934 -8.0076747e-07 0)
(0.022630613 7.5402059e-07 0)
(0.022484605 -7.1064579e-07 0)
(0.022620559 6.7009393e-07 0)
(0.022494088 -6.3251353e-07 0)
(0.022611612 5.9746749e-07 0)
(0.022502542 -5.6505106e-07 0)
(0.022603619 5.3491553e-07 0)
(0.022510111 -5.0711877e-07 0)
(0.022596446 4.8138198e-07 0)
(0.02251692 -4.5773766e-07 0)
(0.022589972 4.359625e-07 0)
(0.022523087 -4.1607264e-07 0)
(0.022584089 3.9788897e-07 0)
(0.022528714 -3.8141798e-07 0)
(0.022578696 3.6651581e-07 0)
(0.022533897 -3.5318427e-07 0)
(0.022573702 3.4130727e-07 0)
(0.022538723 -3.3088546e-07 0)
(0.022569023 3.2182329e-07 0)
(0.022543275 -3.141129e-07 0)
(0.022564579 3.0772877e-07 0)
(0.022547631 -3.0243963e-07 0)
(0.022560287 2.9772426e-07 0)
(0.022551884 -3.0885234e-07 0)
(0.022556356 2.8050626e-07 0)
(0.023020297 0.0030468885 0)
(0.025158178 -3.5567864e-05 0)
(0.024134042 7.9761332e-06 0)
(0.024933339 1.1709246e-06 0)
(0.024218574 -2.997004e-06 0)
(0.024886854 2.3106986e-06 0)
(0.0242737 -2.7123631e-06 0)
(0.024849657 2.4373929e-06 0)
(0.024311085 -2.3433375e-06 0)
(0.024815858 2.1764108e-06 0)
(0.024343267 -2.0502408e-06 0)
(0.02478588 1.9188217e-06 0)
(0.024371479 -1.8019702e-06 0)
(0.024759464 1.689367e-06 0)
(0.024396287 -1.5858711e-06 0)
(0.024736204 1.487707e-06 0)
(0.024418129 -1.3968344e-06 0)
(0.024715713 1.311018e-06 0)
(0.024437374 -1.2314245e-06 0)
(0.024697649 1.1564193e-06 0)
(0.024454348 -1.0868072e-06 0)
(0.024681705 1.0213207e-06 0)
(0.024469338 -9.6053305e-07 0)
(0.024667614 9.0344662e-07 0)
(0.024482597 -8.5046824e-07 0)
(0.024655138 8.0080911e-07 0)
(0.024494349 -7.5475374e-07 0)
(0.024644067 7.1167675e-07 0)
(0.024504792 -6.7177299e-07 0)
(0.024634213 6.3454555e-07 0)
(0.024514102 -6.0012439e-07 0)
(0.024625411 5.6811377e-07 0)
(0.024522436 -5.3859752e-07 0)
(0.024617512 5.112598e-07 0)
(0.024529935 -4.8615252e-07 0)
(0.024610383 4.6302313e-07 0)
(0.024536726 -4.4190231e-07 0)
(0.024603904 4.2258781e-07 0)
(0.024542922 -4.0509707e-07 0)
(0.024597965 3.892678e-07 0)
(0.02454863 -3.7511016e-07 0)
(0.024592466 3.6249321e-07 0)
(0.024553945 -3.5142395e-07 0)
(0.024587314 3.4179426e-07 0)
(0.024558957 -3.3359977e-07 0)
(0.024582419 3.268119e-07 0)
(0.024563754 -3.2115465e-07 0)
(0.024577693 3.1611599e-07 0)
(0.024568434 -3.2885845e-07 0)
(0.024573327 2.9698669e-07 0)
(0.024907961 0.0031819971 0)
(0.027122285 -4.2088865e-05 0)
(0.026050912 8.8297519e-06 0)
(0.026914475 1.1049438e-06 0)
(0.026137322 -3.1350281e-06 0)
(0.026865037 2.3650112e-06 0)
(0.026196572 -2.855569e-06 0)
(0.026824416 2.5558449e-06 0)
(0.02623721 -2.4621677e-06 0)
(0.026787532 2.2848043e-06 0)
(0.026272281 -2.153165e-06 0)
(0.026754842 2.0147642e-06 0)
(0.026303036 -1.8922612e-06 0)
(0.02672604 1.7739077e-06 0)
(0.026330083 -1.6653034e-06 0)
(0.02670068 1.5621716e-06 0)
(0.026353895 -1.466792e-06 0)
(0.026678339 1.376644e-06 0)
(0.026374877 -1.2930963e-06 0)
(0.026658644 1.2143098e-06 0)
(0.026393383 -1.1412359e-06 0)
(0.026641261 1.0724509e-06 0)
(0.026409726 -1.008638e-06 0)
(0.026625898 9.4867824e-07 0)
(0.026424181 -8.9306163e-07 0)
(0.026612296 8.409046e-07 0)
(0.026436994 -7.9255454e-07 0)
(0.026600225 7.4731195e-07 0)
(0.026448379 -7.0541912e-07 0)
(0.026589482 6.6632109e-07 0)
(0.026458529 -6.3018353e-07 0)
(0.026579885 5.9656514e-07 0)
(0.026467615 -5.6557663e-07 0)
(0.026571273 5.3686634e-07 0)
(0.026475791 -5.105064e-07 0)
(0.0265635 4.8621604e-07 0)
(0.026483195 -4.6404118e-07 0)
(0.026556436 4.4375725e-07 0)
(0.026489951 -4.2539326e-07 0)
(0.026549961 4.0876918e-07 0)
(0.026496173 -3.9390399e-07 0)
(0.026543966 3.8065242e-07 0)
(0.026501968 -3.6902826e-07 0)
(0.026538348 3.5891113e-07 0)
(0.026507433 -3.5030053e-07 0)
(0.026533013 3.4316481e-07 0)
(0.026512662 -3.3718237e-07 0)
(0.026527861 3.3186459e-07 0)
(0.026517761 -3.4614925e-07 0)
(0.026523062 3.1087321e-07 0)
(0.026748056 0.0032934058 0)
(0.029015953 -4.8750657e-05 0)
(0.0279018 9.5775671e-06 0)
(0.028827006 1.0309241e-06 0)
(0.027989799 -3.2566686e-06 0)
(0.028775422 2.3948316e-06 0)
(0.028052794 -2.9775195e-06 0)
(0.02873143 2.6542389e-06 0)
(0.028096599 -2.5618977e-06 0)
(0.02869152 2.3753314e-06 0)
(0.028134497 -2.2393053e-06 0)
(0.028656174 2.0949745e-06 0)
(0.028167741 -1.9677902e-06 0)
(0.028625035 1.8446022e-06 0)
(0.028196979 -1.7317421e-06 0)
(0.028597618 1.624444e-06 0)
(0.028222721 -1.5253044e-06 0)
(0.028573466 1.4315264e-06 0)
(0.028245403 -1.3446782e-06 0)
(0.028552173 1.2627239e-06 0)
(0.028265409 -1.1867599e-06 0)
(0.028533381 1.1152122e-06 0)
(0.028283077 -1.0488731e-06 0)
(0.028516772 9.8650716e-07 0)
(0.028298704 -9.2868717e-07 0)
(0.028502067 8.7443874e-07 0)
(0.028312555 -8.2417197e-07 0)
(0.028489018 7.7711648e-07 0)
(0.028324863 -7.3356206e-07 0)
(0.028477403 6.9289831e-07 0)
(0.028335836 -6.5532681e-07 0)
(0.028467029 6.2036286e-07 0)
(0.028345659 -5.8814431e-07 0)
(0.028457718 5.5828543e-07 0)
(0.028354498 -5.3087888e-07 0)
(0.028449316 5.0561708e-07 0)
(0.028362501 -4.8256152e-07 0)
(0.028441679 4.6146646e-07 0)
(0.028369805 -4.4237278e-07 0)
(0.028434679 4.2508362e-07 0)
(0.028376532 -4.0962705e-07 0)
(0.028428197 3.9584422e-07 0)
(0.028382796 -3.8375587e-07 0)
(0.028422125 3.7322997e-07 0)
(0.028388704 -3.6427009e-07 0)
(0.028416357 3.5684149e-07 0)
(0.028394357 -3.5057712e-07 0)
(0.028410788 3.4502426e-07 0)
(0.028399865 -3.6075541e-07 0)
(0.028405563 3.222429e-07 0)
(0.02854073 0.0033818514 0)
(0.030840208 -5.545354e-05 0)
(0.029686386 1.0234165e-05 0)
(0.030670986 9.4937095e-07 0)
(0.029776073 -3.3671299e-06 0)
(0.03061796 2.4024459e-06 0)
(0.02984242 -3.0785729e-06 0)
(0.030570649 2.7331255e-06 0)
(0.029889301 -2.6429073e-06 0)
(0.030527777 2.4484035e-06 0)
(0.029929957 -2.3090258e-06 0)
(0.030489834 2.159804e-06 0)
(0.029965632 -2.0288822e-06 0)
(0.030456413 1.9017581e-06 0)
(0.02999701 -1.7854737e-06 0)
(0.030426987 1.6747948e-06 0)
(0.030024637 -1.5726244e-06 0)
(0.030401066 1.4759033e-06 0)
(0.030048979 -1.3863932e-06 0)
(0.030378214 1.3018717e-06 0)
(0.03007045 -1.2235758e-06 0)
(0.030358045 1.1497898e-06 0)
(0.030089411 -1.0814121e-06 0)
(0.03034022 1.0170973e-06 0)
(0.030106183 -9.5749874e-07 0)
(0.030324437 9.0155671e-07 0)
(0.030121048 -8.4974256e-07 0)
(0.030310432 8.0121929e-07 0)
(0.030134257 -7.5632328e-07 0)
(0.030297967 7.1439208e-07 0)
(0.030146034 -6.7566269e-07 0)
(0.030286832 6.396097e-07 0)
(0.030156576 -6.0639783e-07 0)
(0.03027684 5.7560946e-07 0)
(0.030166062 -5.4735767e-07 0)
(0.030267822 5.2130984e-07 0)
(0.030174652 -4.9754299e-07 0)
(0.030259625 4.7579165e-07 0)
(0.030182491 -4.5610858e-07 0)
(0.030252113 4.3828126e-07 0)
(0.030189711 -4.2234688e-07 0)
(0.030245156 4.0813393e-07 0)
(0.030196434 -3.9567012e-07 0)
(0.030238639 3.8481251e-07 0)
(0.030202774 -3.7556882e-07 0)
(0.030232449 3.6790132e-07 0)
(0.03020884 -3.6139851e-07 0)
(0.030226473 3.5565411e-07 0)
(0.030214749 -3.7271658e-07 0)
(0.030220829 3.3117812e-07 0)
(0.030285861 0.0034480588 0)
(0.032595731 -6.2052511e-05 0)
(0.031404667 1.079106e-05 0)
(0.032446464 8.5588687e-07 0)
(0.031496196 -3.4716606e-06 0)
(0.032392605 2.3899812e-06 0)
(0.031565501 -3.1591537e-06 0)
(0.032342025 2.7930596e-06 0)
(0.03161536 -2.7056206e-06 0)
(0.032296259 2.5044643e-06 0)
(0.0316587 -2.3627246e-06 0)
(0.032255787 2.2096349e-06 0)
(0.031696743 -2.0758915e-06 0)
(0.032220143 1.9457101e-06 0)
(0.031730206 -1.826811e-06 0)
(0.03218876 1.7135182e-06 0)
(0.031759668 -1.6090273e-06 0)
(0.032161115 1.5100341e-06 0)
(0.031785628 -1.418484e-06 0)
(0.032136743 1.3319817e-06 0)
(0.031808525 -1.251898e-06 0)
(0.032115234 1.1763857e-06 0)
(0.031828747 -1.1064443e-06 0)
(0.032096224 1.0406269e-06 0)
(0.031846633 -9.7966395e-07 0)
(0.032079392 9.2241657e-07 0)
(0.031862486 -8.6941501e-07 0)
(0.032064455 8.1976075e-07 0)
(0.031876573 -7.7383505e-07 0)
(0.032051162 7.3092749e-07 0)
(0.031889132 -6.9130928e-07 0)
(0.032039287 6.5441754e-07 0)
(0.031900376 -6.204431e-07 0)
(0.03202863 5.8893902e-07 0)
(0.031910492 -5.6003829e-07 0)
(0.032019012 5.3338532e-07 0)
(0.031919653 -5.0907233e-07 0)
(0.032010271 4.8681579e-07 0)
(0.031928013 -4.6668011e-07 0)
(0.032002258 4.4843845e-07 0)
(0.031935713 -4.3213698e-07 0)
(0.031994839 4.175926e-07 0)
(0.031942883 -4.0483989e-07 0)
(0.031987889 3.9372583e-07 0)
(0.031949645 -3.8426236e-07 0)
(0.031981287 3.7640881e-07 0)
(0.031956114 -3.6971112e-07 0)
(0.031974916 3.6381798e-07 0)
(0.031962412 -3.8208071e-07 0)
(0.03196886 3.3776557e-07 0)
(0.031983063 0.0034927196 0)
(0.034282134 -6.8259648e-05 0)
(0.033057614 1.1087327e-05 0)
(0.034153437 7.3285043e-07 0)
(0.033150192 -3.5752622e-06 0)
(0.034099305 2.3600442e-06 0)
(0.033222077 -3.2195033e-06 0)
(0.034045514 2.8346837e-06 0)
(0.033274818 -2.7504808e-06 0)
(0.03399693 2.5439945e-06 0)
(0.033320763 -2.400829e-06 0)
(0.033953998 2.2448785e-06 0)
(0.033361105 -2.1091991e-06 0)
(0.033916194 1.9768183e-06 0)
(0.033396593 -1.8560902e-06 0)
(0.03388291 1.740931e-06 0)
(0.033427838 -1.6348096e-06 0)
(0.033853591 1.5341976e-06 0)
(0.03345537 -1.4412119e-06 0)
(0.033827743 1.3532998e-06 0)
(0.033479653 -1.271957e-06 0)
(0.033804931 1.1952169e-06 0)
(0.033501099 -1.1241736e-06 0)
(0.033784769 1.0572882e-06 0)
(0.033520068 -9.9536318e-07 0)
(0.033766918 9.3718839e-07 0)
(0.033536881 -8.8334934e-07 0)
(0.033751077 8.3289191e-07 0)
(0.033551821 -7.8623973e-07 0)
(0.033736978 7.426391e-07 0)
(0.033565141 -7.0239365e-07 0)
(0.033724383 6.6490677e-07 0)
(0.033577065 -6.3039409e-07 0)
(0.033713081 5.9838234e-07 0)
(0.033587794 -5.6902352e-07 0)
(0.033702881 5.4194142e-07 0)
(0.03359751 -5.1724287e-07 0)
(0.03369361 4.9462812e-07 0)
(0.033606377 -4.7417284e-07 0)
(0.033685112 4.5563732e-07 0)
(0.033614543 -4.3907643e-07 0)
(0.033677243 4.2429667e-07 0)
(0.033622147 -4.1133926e-07 0)
(0.033669872 4.000421e-07 0)
(0.033629318 -3.9042125e-07 0)
(0.033662871 3.8243324e-07 0)
(0.033636179 -3.7558416e-07 0)
(0.033656115 3.695841e-07 0)
(0.033642855 -3.889034e-07 0)
(0.033649657 3.4209539e-07 0)
(0.033631873 0.0035166191 0)
(0.035896179 -7.397581e-05 0)
(0.034648336 1.1087439e-05 0)
(0.035792303 5.808023e-07 0)
(0.034738101 -3.6827668e-06 0)
(0.035738009 2.3140618e-06 0)
(0.034812182 -3.2602227e-06 0)
(0.035681072 2.8585402e-06 0)
(0.034867708 -2.7780039e-06 0)
(0.035629754 2.5674901e-06 0)
(0.034916176 -2.4237996e-06 0)
(0.035584439 2.2659704e-06 0)
(0.034958747 -2.1292116e-06 0)
(0.035544541 1.9954652e-06 0)
(0.034996196 -1.8736693e-06 0)
(0.035509415 1.7573699e-06 0)
(0.035029169 -1.6502865e-06 0)
(0.035478473 1.5486904e-06 0)
(0.035058223 -1.454855e-06 0)
(0.035451195 1.3660876e-06 0)
(0.03508385 -1.2839982e-06 0)
(0.03542712 1.2065143e-06 0)
(0.035106482 -1.1348168e-06 0)
(0.035405842 1.0672851e-06 0)
(0.0351265 -1.0047883e-06 0)
(0.035387004 9.4605305e-07 0)
(0.035144243 -8.9171579e-07 0)
(0.035370285 8.4077343e-07 0)
(0.03516001 -7.9368879e-07 0)
(0.035355406 7.4967008e-07 0)
(0.035174067 -7.0905105e-07 0)
(0.035342115 6.7120545e-07 0)
(0.035186651 -6.3637207e-07 0)
(0.035330187 6.0405456e-07 0)
(0.035197974 -5.7442272e-07 0)
(0.035319422 5.4708232e-07 0)
(0.035208228 -5.2215391e-07 0)
(0.035309638 4.9932361e-07 0)
(0.035217585 -4.7867769e-07 0)
(0.035300669 4.5996525e-07 0)
(0.035226203 -4.4324937e-07 0)
(0.035292365 4.2832747e-07 0)
(0.035234228 -4.1524707e-07 0)
(0.035284585 4.0383805e-07 0)
(0.035241797 -3.9412049e-07 0)
(0.035277197 3.860483e-07 0)
(0.035249037 -3.7909105e-07 0)
(0.035270069 3.7302474e-07 0)
(0.035256079 -3.9324713e-07 0)
(0.03526322 3.4426037e-07 0)
(0.035231532 0.0035205406 0)
(0.037433772 -7.9769316e-05 0)
(0.036180176 1.1257478e-05 0)
(0.037364206 5.4031817e-07 0)
(0.03626008 -3.774556e-06 0)
(0.037308743 2.2585037e-06 0)
(0.03633587 -3.2807357e-06 0)
(0.037248673 2.8654934e-06 0)
(0.036394066 -2.7886497e-06 0)
(0.037194702 2.5755003e-06 0)
(0.036444969 -2.432113e-06 0)
(0.037147082 2.2733728e-06 0)
(0.036489692 -2.1363559e-06 0)
(0.03710516 2.0020546e-06 0)
(0.036529038 -1.8799254e-06 0)
(0.037068254 1.7631897e-06 0)
(0.03656368 -1.6557907e-06 0)
(0.037035744 1.5538251e-06 0)
(0.036594206 -1.4597063e-06 0)
(0.037007083 1.3706208e-06 0)
(0.036621131 -1.2882802e-06 0)
(0.036981788 1.2105213e-06 0)
(0.036644909 -1.1386024e-06 0)
(0.036959432 1.070833e-06 0)
(0.036665941 -1.0081417e-06 0)
(0.036939638 9.4920121e-07 0)
(0.036684583 -8.9469383e-07 0)
(0.036922073 8.4357466e-07 0)
(0.036701149 -7.9634189e-07 0)
(0.03690644 7.5217132e-07 0)
(0.036715918 -7.1142401e-07 0)
(0.036892474 6.7344858e-07 0)
(0.03672914 -6.3850489e-07 0)
(0.036879942 6.0607706e-07 0)
(0.036741037 -5.763512e-07 0)
(0.036868631 5.4891783e-07 0)
(0.036751811 -5.2391017e-07 0)
(0.036858351 5.0100237e-07 0)
(0.036761642 -4.8029057e-07 0)
(0.036848927 4.6151438e-07 0)
(0.036770697 -4.4474452e-07 0)
(0.036840202 4.2977074e-07 0)
(0.036779129 -4.1664641e-07 0)
(0.036832028 4.0519457e-07 0)
(0.036787081 -3.9543912e-07 0)
(0.036824265 3.8733156e-07 0)
(0.036794688 -3.8030898e-07 0)
(0.036816777 3.7421578e-07 0)
(0.036802084 -3.9518055e-07 0)
(0.036809548 3.4435511e-07 0)
(0.036780697 0.0035052223 0)
(0.038900569 -8.524119e-05 0)
(0.037649479 1.1330926e-05 0)
(0.038868756 5.9647132e-07 0)
(0.037716006 -3.8553945e-06 0)
(0.038811433 2.1939611e-06 0)
(0.037793163 -3.2818091e-06 0)
(0.038748278 2.8560871e-06 0)
(0.03785392 -2.7830077e-06 0)
(0.038691745 2.5685646e-06 0)
(0.037907168 -2.4262801e-06 0)
(0.038641902 2.2675642e-06 0)
(0.037953965 -2.1310809e-06 0)
(0.03859803 1.9970079e-06 0)
(0.037995138 -1.8752534e-06 0)
(0.038559408 1.7587616e-06 0)
(0.038031389 -1.6516697e-06 0)
(0.038525386 1.5499287e-06 0)
(0.038063333 -1.4560724e-06 0)
(0.038495393 1.3671875e-06 0)
(0.038091509 -1.2850735e-06 0)
(0.038468922 1.2074924e-06 0)
(0.038116392 -1.1357694e-06 0)
(0.038445527 1.0681568e-06 0)
(0.038138401 -1.005635e-06 0)
(0.038424813 9.4683228e-07 0)
(0.03815791 -8.9247122e-07 0)
(0.038406431 8.4147272e-07 0)
(0.038175245 -7.9436606e-07 0)
(0.038390071 7.5030066e-07 0)
(0.038190701 -7.096617e-07 0)
(0.038375456 6.7177738e-07 0)
(0.038204537 -6.3692632e-07 0)
(0.038362341 6.0457683e-07 0)
(0.038216988 -5.7492958e-07 0)
(0.038350504 5.4756285e-07 0)
(0.038228262 -5.2262119e-07 0)
(0.038339745 4.9976918e-07 0)
(0.038238551 -4.791118e-07 0)
(0.038329884 4.603811e-07 0)
(0.038248028 -4.436547e-07 0)
(0.038320753 4.2871619e-07 0)
(0.038256852 -4.1562422e-07 0)
(0.038312198 4.0419629e-07 0)
(0.038265174 -3.9445981e-07 0)
(0.038304074 3.863642e-07 0)
(0.038273134 -3.7931851e-07 0)
(0.038296239 3.7323638e-07 0)
(0.03828087 -3.9477788e-07 0)
(0.038288643 3.4247541e-07 0)
(0.038277773 0.0034714366 0)
(0.040305512 -8.9758781e-05 0)
(0.039049386 1.0865133e-05 0)
(0.040305168 6.6922719e-07 0)
(0.039105708 -3.9336234e-06 0)