/*--------------------------------*- C++ -*----------------------------------*\
| =========                 |                                                 |
| \\      /  F ield         | OpenFOAM: The Open Source CFD Toolbox           |
|  \\    /   O peration     | Version:  2312                                  |
|   \\  /    A nd           | Website:  www.openfoam.com                      |
|    \\/     M anipulation  |                                                 |
\*---------------------------------------------------------------------------*/
FoamFile
{
    version     2.0;
    format      ascii;
    arch        "LSB;label=32;scalar=64";
    class       volScalarField;
    location    "8";
    object      p;
}
// * * * * * * * * * * * * * * * * * * * * * * * * * * * * * * * * * * * * * //

dimensions      [0 2 -2 0 0 0 0];

internalField   nonuniform List<scalar> 
4000
(
26.554533
25.480311
25.189886
24.339412
24.088436
23.291627
23.016437
22.252553
21.949426
21.212941
20.884334
20.17195
19.820767
19.129628
18.758517
18.086099
17.697424
17.041492
16.637354
15.995927
15.578191
14.949511
14.519833
13.902339
13.462192
12.854493
12.405187
11.806045
11.348753
10.75706
10.292828
9.7075916
9.2373633
8.6576875
8.1823133
7.6073886
7.1276405
6.5567294
6.073313
5.5057392
5.0193039
4.4544424
3.9655914
3.4028584
2.9121581
2.3510026
1.8589906
1.2988852
0.80607699
0.24650488
26.549559
25.47879
25.190028
24.339424
24.088427
23.291638
23.016427
22.252562
21.949417
21.21295
20.884326
20.171958
19.82076
19.129635
18.75851
18.086105
17.697418
17.041498
16.637349
15.995932
15.578187
14.949516
14.519829
13.902343
13.462188
12.854496
12.405184
11.806048
11.34875
10.757063
10.292826
9.707594
9.237361
8.6576897
8.1823112
7.6073906
7.1276386
6.5567312
6.0733112
5.5057409
5.0193023
4.454444
3.9655899
3.4028599
2.9121566
2.351004
1.8589892
1.2988866
0.80607551
0.24650718
26.540994
25.477717
25.190294
24.339413
24.088435
23.291637
23.016428
22.252561
21.949418
21.212949
20.884327
20.171957
19.820761
19.129634
18.758511
18.086104
17.697419
17.041497
16.637349
15.995932
15.578187
14.949515
14.51983
13.902342
13.462188
12.854496
12.405184
11.806048
11.34875
10.757062
10.292826
9.7075937
9.2373613
8.6576895
8.1823114
7.6073903
7.1276388
6.556731
6.0733114
5.5057407
5.0193025
4.4544438
3.9655901
3.4028597
2.9121568
2.3510039
1.8589893
1.2988865
0.80607555
0.2465079
26.529526
25.47658
25.19058
24.339399
24.088449
23.291631
23.016434
22.252556
21.949423
21.212945
20.884331
20.171953
19.820765
19.12963
18.758514
18.086101
17.697422
17.041494
16.637352
15.995929
15.578189
14.949513
14.519832
13.90234
13.46219
12.854494
12.405186
11.806046
11.348752
10.757061
10.292827
9.7075925
9.2373625
8.6576883
8.1823125
7.6073893
7.1276398
6.55673
6.0733124
5.5057398
5.0193033
4.4544429
3.9655909
3.4028589
2.9121576
2.3510031
1.8589901
1.2988857
0.8060762
0.24650795
26.520333
25.475545
25.190826
24.339391
24.088463
23.291625
23.016439
22.252551
21.949427
21.21294
20.884335
20.171949
19.820768
19.129627
18.758517
18.086098
17.697424
17.041492
16.637354
15.995927
15.578192
14.949511
14.519834
13.902338
13.462192
12.854492
12.405188
11.806045
11.348753
10.75706
10.292829
9.7075913
9.2373636
8.6576873
8.1823135
7.6073883
7.1276408
6.5567291
6.0733132
5.505739
5.0193041
4.4544421
3.9655916
3.4028582
2.9121583
2.3510024
1.8589908
1.298885
0.80607685
0.24650791
26.509027
25.474263
25.191003
24.339394
24.088479
23.291621
23.016442
22.252547
21.94943
21.212937
20.884338
20.171947
19.820771
19.129625
18.75852
18.086096
17.697426
17.04149
16.637356
15.995925
15.578193
14.949509
14.519835
13.902337
13.462193
12.854491
12.405189
11.806044
11.348754
10.757059
10.29283
9.7075904
9.2373645
8.6576864
8.1823143
7.6073875
7.1276415
6.5567284
6.0733139
5.5057383
5.0193048
4.4544415
3.9655922
3.4028576
2.9121589
2.3510018
1.8589913
1.2988844
0.80607739
0.24650791
26.500986
25.473351
25.191095
24.339421
24.088499
23.291619
23.016446
22.252544
21.949433
21.212935
20.88434
20.171944
19.820773
19.129623
18.758522
18.086094
17.697428
17.041488
16.637358
15.995924
15.578195
14.949508
14.519837
13.902336
13.462194
12.85449
12.40519
11.806043
11.348755
10.757058
10.29283
9.7075896
9.2373652
8.6576858
8.182315
7.6073869
7.1276421
6.5567278
6.0733144
5.5057378
5.0193053
4.454441
3.9655927
3.4028571
2.9121593
2.3510013
1.8589918
1.2988839
0.80607787
0.24650792
26.491655
25.472138
25.191059
24.339484
24.088524
23.291618
23.016448
22.252541
21.949435
21.212932
20.884343
20.171942
19.820775
19.129621
18.758524
18.086093
17.69743
17.041487
16.637359
15.995922
15.578196
14.949507
14.519838
13.902335
13.462195
12.854489
12.405191
11.806042
11.348756
10.757057
10.292831
9.707589
9.2373658
8.6576851
8.1823156
7.6073864
7.1276426
6.5567273
6.0733149
5.5057373
5.0193058
4.4544406
3.9655932
3.4028567
2.9121598
2.3510009
1.8589922
1.2988834
0.80607831
0.2465079
26.48361
25.471404
25.190952
24.339541
24.088542
23.291616
23.016451
22.252538
21.949437
21.21293
20.884344
20.17194
19.820777
19.129619
18.758525
18.086091
17.697431
17.041485
16.63736
15.995921
15.578197
14.949506
14.519839
13.902334
13.462196
12.854488
12.405191
11.806041
11.348756
10.757056
10.292832
9.7075884
9.2373664
8.6576846
8.1823161
7.6073859
7.1276431
6.5567269
6.0733154
5.5057369
5.0193062
4.4544402
3.9655936
3.4028563
2.9121601
2.3510005
1.8589926
1.298883
0.80607872
0.24650788
26.476713
25.470199
25.190862
24.339512
24.088536
23.291609
23.016452
22.252535
21.949439
21.212928
20.884346
20.171939
19.820778
19.129618
18.758526
18.08609
17.697432
17.041484
16.637361
15.99592
15.578198
14.949505
14.519839
13.902333
13.462197
12.854487
12.405192
11.806041
11.348757
10.757056
10.292832
9.7075878
9.2373669
8.6576841
8.1823166
7.6073854
7.1276435
6.5567265
6.0733158
5.5057365
5.0193066
4.4544398
3.9655939
3.4028559
2.9121605
2.3510002
1.8589929
1.2988827
0.80607911
0.24650784
26.467602
25.469065
25.190894
24.339432
24.088513
23.291599
23.016452
22.252533
21.949441
21.212926
20.884348
20.171937
19.82078
19.129616
18.758528
18.086089
17.697433
17.041483
16.637362
15.995919
15.578199
14.949504
14.51984
13.902332
13.462198
12.854487
12.405193
11.80604
11.348758
10.757055
10.292833
9.7075874
9.2373674
8.6576837
8.182317
7.607385
7.1276439
6.5567261
6.0733161
5.5057362
5.0193069
4.4544395
3.9655942
3.4028556
2.9121608
2.3509999
1.8589932
1.2988823
0.80607948
0.24650779
26.461081
25.467553
25.190908
24.339384
24.088491
23.29159
23.016451
22.25253
21.949442
21.212925
20.884349
20.171936
19.820781
19.129615
18.758529
18.086088
17.697434
17.041482
16.637363
15.995918
15.578199
14.949503
14.519841
13.902332
13.462198
12.854486
12.405193
11.80604
11.348758
10.757055
10.292833
9.7075869
9.2373678
8.6576833
8.1823174
7.6073846
7.1276443
6.5567257
6.0733165
5.5057358
5.0193072
4.4544392
3.9655945
3.4028553
2.9121611
2.3509996
1.8589935
1.298882
0.80607983
0.24650774
26.453353
25.46634
25.190791
24.339334
24.088467
23.291581
23.016451
22.252528
21.949443
21.212923
20.88435
20.171935
19.820782
19.129614
18.75853
18.086087
17.697435
17.041481
16.637364
15.995918
15.5782
14.949503
14.519842
13.902331
13.462199
12.854486
12.405194
11.806039
11.348759
10.757054
10.292834
9.7075865
9.2373682
8.6576829
8.1823177
7.6073843
7.1276446
6.5567254
6.0733168
5.5057356
5.0193075
4.4544389
3.9655948
3.4028551
2.9121613
2.3509994
1.8589937
1.2988818
0.80608015
0.24650768
26.447904
25.465085
25.190488
24.339251
24.088435
23.29157
23.016449
22.252526
21.949444
21.212922
20.884352
20.171933
19.820783
19.129613
18.758531
18.086086
17.697436
17.04148
16.637365
15.995917
15.578201
14.949502
14.519842
13.90233
13.462199
12.854485
12.405194
11.806039
11.348759
10.757054
10.292834
9.7075862
9.2373685
8.6576826
8.182318
7.607384
7.1276449
6.5567252
6.073317
5.5057353
5.0193077
4.4544387
3.965595
3.4028548
2.9121616
2.3509991
1.858994
1.2988815
0.80608046
0.24650761
26.441361
25.463914
25.190118
24.33916
24.088401
23.291559
23.016448
22.252523
21.949445
21.212921
20.884353
20.171932
19.820784
19.129612
18.758532
18.086085
17.697437
17.04148
16.637365
15.995916
15.578201
14.949502
14.519843
13.90233
13.4622
12.854485
12.405195
11.806038
11.348759
10.757054
10.292834
9.7075858
9.2373688
8.6576823
8.1823183
7.6073837
7.1276451
6.5567249
6.0733173
5.5057351
5.019308
4.4544384
3.9655953
3.4028546
2.9121618
2.3509989
1.8589942
1.2988813
0.80608076
0.24650755
26.4366
25.462593
25.189691
24.339073
24.088368
23.291547
23.016445
22.252521
21.949446
21.212919
20.884354
20.171931
19.820785
19.129611
18.758532
18.086084
17.697437
17.041479
16.637366
15.995916
15.578202
14.949501
14.519843
13.90233
13.4622
12.854484
12.405195
11.806038
11.34876
10.757053
10.292835
9.7075855
9.2373691
8.657682
8.1823186
7.6073835
7.1276454
6.5567247
6.0733175
5.5057348
5.0193082
4.4544382
3.9655955
3.4028544
2.912162
2.3509987
1.8589944
1.2988811
0.80608104
0.24650748
26.431052
25.461307
25.189262
24.338981
24.088334
23.291533
23.016442
22.252518
21.949447
21.212918
20.884354
20.17193
19.820786
19.129611
18.758533
18.086083
17.697438
17.041478
16.637367
15.995915
15.578203
14.9495
14.519844
13.902329
13.462201
12.854484
12.405195
11.806037
11.34876
10.757053
10.292835
9.7075852
9.2373694
8.6576818
8.1823188
7.6073832
7.1276456
6.5567245
6.0733177
5.5057346
5.0193084
4.454438
3.9655956
3.4028542
2.9121622
2.3509986
1.8589945
1.2988809
0.8060813
0.2465074
26.427004
25.460001
25.188851
24.338864
24.088292
23.291515
23.016438
22.252515
21.949447
21.212917
20.884355
20.17193
19.820786
19.12961
18.758534
18.086083
17.697439
17.041478
16.637367
15.995915
15.578203
14.9495
14.519844
13.902329
13.462201
12.854484
12.405196
11.806037
11.34876
10.757053
10.292835
9.707585
9.2373696
8.6576815
8.182319
7.607383
7.1276458
6.5567243
6.0733179
5.5057344
5.0193085
4.4544379
3.9655958
3.4028541
2.9121623
2.3509984
1.8589947
1.2988807
0.80608155
0.24650733
26.422416
25.458727
25.188506
24.33873
24.08824
23.291494
23.016431
22.252511
21.949446
21.212916
20.884356
20.171929
19.820787
19.129609
18.758534
18.086082
17.697439
17.041477
16.637368
15.995914
15.578203
14.9495
14.519844
13.902328
13.462201
12.854483
12.405196
11.806037
11.348761
10.757052
10.292836
9.7075847
9.2373698
8.6576813
8.1823192
7.6073828
7.127646
6.5567241
6.0733181
5.5057343
5.0193087
4.4544377
3.965596
3.4028539
2.9121625
2.3509982
1.8589948
1.2988806
0.80608179
0.24650726
26.419042
25.457533
25.188158
24.338612
24.088188
23.291473
23.016424
22.252507
21.949446
21.212914
20.884356
20.171928
19.820788
19.129608
18.758535
18.086082
17.69744
17.041477
16.637368
15.995914
15.578204
14.949499
14.519845
13.902328
13.462202
12.854483
12.405196
11.806037
11.348761
10.757052
10.292836
9.7075845
9.2373701
8.6576811
8.1823194
7.6073826
7.1276462
6.5567239
6.0733182
5.5057341
5.0193089
4.4544375
3.9655961
3.4028538
2.9121626
2.3509981
1.858995
1.2988804
0.80608202
0.24650718
26.415318
25.456381
25.1878
24.338521
24.088148
23.291458
23.016419
22.252504
21.949446
21.212913
20.884357
20.171927
19.820788
19.129608
18.758536
18.086081
17.69744
17.041476
16.637369
15.995913
15.578204
14.949499
14.519845
13.902328
13.462202
12.854483
12.405197
11.806036
11.348761
10.757052
10.292836
9.7075843
9.2373702
8.6576809
8.1823196
7.6073825
7.1276463
6.5567237
6.0733184
5.505734
5.019309
4.4544374
3.9655963
3.4028536
2.9121627
2.350998
1.8589951
1.2988803
0.80608223
0.24650711
26.412521
25.455384
25.18743
24.338433
24.088119
23.29145
23.016416
22.252502
21.949446
21.212912
20.884357
20.171927
19.820789
19.129607
18.758536
18.086081
17.697441
17.041476
16.637369
15.995913
15.578205
14.949499
14.519845
13.902327
13.462202
12.854482
12.405197
11.806036
11.348761
10.757052
10.292836
9.7075841
9.2373704
8.6576807
8.1823198
7.6073823
7.1276465
6.5567236
6.0733185
5.5057338
5.0193091
4.4544373
3.9655964
3.4028535
2.9121629
2.3509978
1.8589952
1.2988802
0.80608243
0.24650704
26.409534
25.454397
25.187089
24.338341
24.088097
23.29145
23.016416
22.252501
21.949446
21.212911
20.884358
20.171926
19.820789
19.129607
18.758536
18.08608
17.697441
17.041476
16.637369
15.995913
15.578205
14.949498
14.519846
13.902327
13.462203
12.854482
12.405197
11.806036
11.348762
10.757052
10.292836
9.707584
9.2373706
8.6576806
8.1823199
7.6073822
7.1276466
6.5567235
6.0733187
5.5057337
5.0193093
4.4544372
3.9655965
3.4028534
2.912163
2.3509977
1.8589953
1.2988801
0.80608262
0.24650697
26.407219
25.453599
25.186771
24.338251
24.088075
23.291454
23.016416
22.2525
21.949446
21.212911
20.884358
20.171925
19.82079
19.129606
18.758537
18.08608
17.697441
17.041475
16.63737
15.995912
15.578205
14.949498
14.519846
13.902327
13.462203
12.854482
12.405197
11.806036
11.348762
10.757051
10.292837
9.7075838
9.2373707
8.6576804
8.1823201
7.607382
7.1276468
6.5567233
6.0733188
5.5057336
5.0193094
4.454437
3.9655966
3.4028533
2.9121631
2.3509976
1.8589954
1.29888
0.80608279
0.2465069
26.404851
25.452774
25.186487
24.338171
24.088051
23.29146
23.016417
22.252499
21.949447
21.21291
20.884359
20.171925
19.82079
19.129606
18.758537
18.08608
17.697442
17.041475
16.63737
15.995912
15.578205
14.949498
14.519846
13.902327
13.462203
12.854482
12.405198
11.806036
11.348762
10.757051
10.292837
9.7075836
9.2373709
8.6576803
8.1823202
7.6073819
7.1276469
6.5567232
6.0733189
5.5057335
5.0193095
4.4544369
3.9655967
3.4028532
2.9121632
2.3509975
1.8589955
1.2988799
0.80608296
0.24650684
26.402884
25.452156
25.186227
24.338103
24.088026
23.291467
23.016418
22.252499
21.949447
21.21291
20.884359
20.171924
19.82079
19.129606
18.758538
18.086079
17.697442
17.041475
16.63737
15.995912
15.578206
14.949498
14.519846
13.902326
13.462203
12.854482
12.405198
11.806035
11.348762
10.757051
10.292837
9.7075835
9.237371
8.6576802
8.1823203
7.6073818
7.127647
6.5567231
6.073319
5.5057334
5.0193096
4.4544369
3.9655968
3.4028531
2.9121633
2.3509974
1.8589956
1.2988798
0.80608311
0.24650678
26.401059
25.451485
25.185996
24.338045
24.088002
23.291474
23.01642
22.2525
21.949448
21.212909
20.884359
20.171924
19.820791
19.129605
18.758538
18.086079
17.697442
17.041474
16.63737
15.995912
15.578206
14.949497
14.519847
13.902326
13.462203
12.854481
12.405198
11.806035
11.348762
10.757051
10.292837
9.7075834
9.2373711
8.6576801
8.1823204
7.6073817
7.1276471
6.556723
6.0733191
5.5057333
5.0193097
4.4544368
3.9655969
3.402853
2.9121633
2.3509974
1.8589957
1.2988797
0.80608325
0.24650672
26.399344
25.451017
25.185792
24.337997
24.08798
23.291479
23.016423
22.252501
21.949449
21.212909
20.88436
20.171924
19.820791
19.129605
18.758538
18.086079
17.697443
17.041474
16.637371
15.995911
15.578206
14.949497
14.519847
13.902326
13.462204
12.854481
12.405198
11.806035
11.348762
10.757051
10.292837
9.7075833
9.2373712
8.65768
8.1823205
7.6073816
7.1276472
6.5567229
6.0733192
5.5057332
5.0193097
4.4544367
3.965597
3.402853
2.9121634
2.3509973
1.8589957
1.2988797
0.80608338
0.24650666
26.397997
25.450496
25.185615
24.337957
24.087963
23.291481
23.016425
22.252502
21.94945
21.212909
20.88436
20.171923
19.820791
19.129605
18.758538
18.086078
17.697443
17.041474
16.637371
15.995911
15.578206
14.949497
14.519847
13.902326
13.462204
12.854481
12.405198
11.806035
11.348762
10.757051
10.292837
9.7075832
9.2373713
8.6576799
8.1823206
7.6073815
7.1276473
6.5567229
6.0733192
5.5057331
5.0193098
4.4544366
3.965597
3.4028529
2.9121635
2.3509972
1.8589958
1.2988796
0.8060835
0.24650661
26.396506
25.450148
25.185468
24.337926
24.087949
23.291482
23.016427
22.252505
21.949451
21.212909
20.88436
20.171923
19.820792
19.129604
18.758539
18.086078
17.697443
17.041474
16.637371
15.995911
15.578206
14.949497
14.519847
13.902326
13.462204
12.854481
12.405198
11.806035
11.348763
10.757051
10.292837
9.7075831
9.2373714
8.6576798
8.1823207
7.6073814
7.1276473
6.5567228
6.0733193
5.5057331
5.0193099
4.4544366
3.9655971
3.4028528
2.9121635
2.3509972
1.8589958
1.2988796
0.8060836
0.24650657
26.395509
25.449765
25.185346
24.337902
24.08794
23.291483
23.016428
22.252507
21.949452
21.212909
20.884361
20.171923
19.820792
19.129604
18.758539
18.086078
17.697443
17.041474
16.637371
15.995911
15.578207
14.949497
14.519847
13.902326
13.462204
12.854481
12.405198
11.806035
11.348763
10.75705
10.292837
9.707583
9.2373715
8.6576797
8.1823208
7.6073814
7.1276474
6.5567227
6.0733194
5.505733
5.0193099
4.4544365
3.9655971
3.4028528
2.9121636
2.3509971
1.8589959
1.2988795
0.80608369
0.24650653
26.3943
25.449523
25.185253
24.337886
24.087934
23.291485
23.016429
22.25251
21.949453
21.212909
20.884361
20.171922
19.820792
19.129604
18.758539
18.086078
17.697443
17.041473
16.637371
15.995911
15.578207
14.949496
14.519847
13.902326
13.462204
12.854481
12.405199
11.806035
11.348763
10.75705
10.292838
9.7075829
9.2373716
8.6576796
8.1823208
7.6073813
7.1276475
6.5567227
6.0733194
5.505733
5.01931
4.4544365
3.9655972
3.4028527
2.9121636
2.3509971
1.8589959
1.2988795
0.80608377
0.24650649
26.393565
25.449256
25.185182
24.337876
24.087931
23.291486
23.016428
22.252513
21.949454
21.212909
20.884361
20.171922
19.820792
19.129603
18.758539
18.086077
17.697444
17.041473
16.637372
15.99591
15.578207
14.949496
14.519848
13.902325
13.462204
12.854481
12.405199
11.806035
11.348763
10.75705
10.292838
9.7075828
9.2373717
8.6576796
8.1823209
7.6073812
7.1276475
6.5567226
6.0733195
5.5057329
5.01931
4.4544364
3.9655972
3.4028527
2.9121637
2.350997
1.858996
1.2988795
0.80608383
0.24650646
26.392663
25.449103
25.185134
24.337872
24.087931
23.291489
23.016428
22.252516
21.949455
21.212909
20.884361
20.171922
19.820792
19.129603
18.758539
18.086077
17.697444
17.041473
16.637372
15.99591
15.578207
14.949496
14.519848
13.902325
13.462204
12.854481
12.405199
11.806034
11.348763
10.75705
10.292838
9.7075828
9.2373717
8.6576795
8.182321
7.6073812
7.1276476
6.5567226
6.0733195
5.5057329
5.0193101
4.4544364
3.9655973
3.4028527
2.9121637
2.350997
1.858996
1.2988794
0.80608387
0.24650644
26.392172
25.448919
25.1851
24.337873
24.087931
23.291491
23.016426
22.252519
21.949456
21.212909
20.884362
20.171922
19.820792
19.129603
18.758539
18.086077
17.697444
17.041473
16.637372
15.99591
15.578207
14.949496
14.519848
13.902325
13.462204
12.85448
12.405199
11.806034
11.348763
10.75705
10.292838
9.7075827
9.2373718
8.6576795
8.182321
7.6073812
7.1276476
6.5567225
6.0733196
5.5057328
5.0193101
4.4544363
3.9655973
3.4028526
2.9121637
2.350997
1.858996
1.2988794
0.8060839
0.24650643
26.391546
25.448827
25.185082
24.337875
24.087933
23.291494
23.016425
22.252522
21.949457
21.212909
20.884362
20.171921
19.820792
19.129603
18.75854
18.086077
17.697444
17.041473
16.637372
15.99591
15.578207
14.949496
14.519848
13.902325
13.462204
12.85448
12.405199
11.806034
11.348763
10.75705
10.292838
9.7075827
9.2373718
8.6576794
8.182321
7.6073811
7.1276476
6.5567225
6.0733196
5.5057328
5.0193101
4.4544363
3.9655973
3.4028526
2.9121638
2.3509969
1.858996
1.2988794
0.80608391
0.24650642
26.391292
25.448693
25.185067
24.337879
24.087935
23.291496
23.016424
22.252523
21.949459
21.212909
20.884362
20.171921
19.820793
19.129603
18.75854
18.086077
17.697444
17.041473
16.637372
15.99591
15.578207
14.949496
14.519848
13.902325
13.462204
12.85448
12.405199
11.806034
11.348763
10.75705
10.292838
9.7075827
9.2373718
8.6576794
8.1823211
7.6073811
7.1276477
6.5567225
6.0733196
5.5057328
5.0193101
4.4544363
3.9655973
3.4028526
2.9121638
2.3509969
1.858996
1.2988794
0.80608389
0.24650642
26.390924
25.448629
25.18506
24.337881
24.087937
23.291498
23.016424
22.252523
21.94946
21.212909
20.884362
20.171921
19.820793
19.129603
18.75854
18.086077
17.697444
17.041473
16.637372
15.99591
15.578207
14.949496
14.519848
13.902325
13.462204
12.85448
12.405199
11.806034
11.348763
10.75705
10.292838
9.7075826
9.2373718
8.6576794
8.1823211
7.6073811
7.1276477
6.5567225
6.0733196
5.5057328
5.0193102
4.4544363
3.9655973
3.4028526
2.9121638
2.3509969
1.858996
1.2988794
0.80608385
0.24650644
26.390908
25.448527
25.18505
24.337882
24.087938
23.291499
23.016424
22.252523
21.949461
21.212909
20.884362
20.171921
19.820792
19.129603
18.75854
18.086077
17.697444
17.041473
16.637372
15.99591
15.578207
14.949496
14.519848
13.902325
13.462204
12.85448
12.405199
11.806034
11.348763
10.75705
10.292838
9.7075826
9.2373719
8.6576794
8.1823211
7.6073811
7.1276477
6.5567225
6.0733196
5.5057328
5.0193101
4.4544363
3.9655973
3.4028526
2.9121638
2.350997
1.858996
1.2988795
0.8060838
0.24650646
26.390747
25.448509
25.185047
24.337881
24.087938
23.291499
23.016424
22.252523
21.949462
21.212909
20.884362
20.171921
19.820792
19.129603
18.75854
18.086077
17.697444
17.041473
16.637372
15.99591
15.578207
14.949496
14.519848
13.902325
13.462204
12.85448
12.405199
11.806034
11.348763
10.75705
10.292838
9.7075826
9.2373719
8.6576794
8.1823211
7.6073811
7.1276477
6.5567225
6.0733196
5.5057328
5.0193101
4.4544363
3.9655973
3.4028526
2.9121637
2.350997
1.858996
1.2988795
0.80608376
0.24650647
26.390858
25.448485
25.185044
24.337881
24.087938
23.291499
23.016424
22.252523
21.949462
21.212909
20.884362
20.171921
19.820792
19.129603
18.75854
18.086077
17.697444
17.041473
16.637372
15.99591
15.578207
14.949496
14.519848
13.902325
13.462204
12.85448
12.405199
11.806034
11.348763
10.75705
10.292838
9.7075826
9.2373719
8.6576794
8.1823211
7.6073811
7.1276477
6.5567225
6.0733196
5.5057328
5.0193101
4.4544363
3.9655973
3.4028526
2.9121637
2.350997
1.858996
1.2988795
0.80608376
0.24650647
26.39079
25.448558
25.185052
24.337882
24.087938
23.291499
23.016424
22.252523
21.949461
21.212909
20.884362
20.171921
19.820792
19.129603
18.75854
18.086077
17.697444
17.041473
16.637372
15.99591
15.578207
14.949496
14.519848
13.902325
13.462204
12.85448
12.405199
11.806034
11.348763
10.75705
10.292838
9.7075826
9.2373719
8.6576794
8.1823211
7.6073811
7.1276477
6.5567225
6.0733196
5.5057328
5.0193101
4.4544363
3.9655973
3.4028526
2.9121638
2.350997
1.858996
1.2988795
0.8060838
0.24650646
26.391032
25.448612
25.185057
24.337881
24.087937
23.291498
23.016424
22.252523
21.94946
21.212909
20.884362
20.171921
19.820793
19.129603
18.75854
18.086077
17.697444
17.041473
16.637372
15.99591
15.578207
14.949496
14.519848
13.902325
13.462204
12.85448
12.405199
11.806034
11.348763
10.75705
10.292838
9.7075826
9.2373718
8.6576794
8.1823211
7.6073811
7.1276477
6.5567225
6.0733196
5.5057328
5.0193102
4.4544363
3.9655973
3.4028526
2.9121638
2.3509969
1.858996
1.2988794
0.80608385
0.24650644
26.391164
25.448733
25.185069
24.337878
24.087935
23.291496
23.016424
22.252523
21.949459
21.212909
20.884362
20.171921
19.820793
19.129603
18.75854
18.086077
17.697444
17.041473
16.637372
15.99591
15.578207
14.949496
14.519848
13.902325
13.462204
12.85448
12.405199
11.806034
11.348763
10.75705
10.292838
9.7075827
9.2373718
8.6576794
8.1823211
7.6073811
7.1276477
6.5567225
6.0733196
5.5057328
5.0193101
4.4544363
3.9655973
3.4028526
2.9121638
2.3509969
1.858996
1.2988794
0.80608389
0.24650642
26.391652
25.448817
25.185078
24.337874
24.087933
23.291494
23.016425
22.252521
21.949457
21.212909
20.884362
20.171921
19.820792
19.129603
18.75854
18.086077
17.697444
17.041473
16.637372
15.99591
15.578207
14.949496
14.519848
13.902325
13.462204
12.85448
12.405199
11.806034
11.348763
10.75705
10.292838
9.7075827
9.2373718
8.6576794
8.182321
7.6073811
7.1276476
6.5567225
6.0733196
5.5057328
5.0193101
4.4544363
3.9655973
3.4028526
2.9121638
2.3509969
1.858996
1.2988794
0.80608391
0.24650642
26.392028
25.448972
25.185101
24.337871
24.087931
23.291491
23.016426
22.252519
21.949456
21.212909
20.884362
20.171922
19.820792
19.129603
18.758539
18.086077
17.697444
17.041473
16.637372
15.99591
15.578207
14.949496
14.519848
13.902325
13.462204
12.85448
12.405199
11.806034
11.348763
10.75705
10.292838
9.7075827
9.2373718
8.6576795
8.182321
7.6073812
7.1276476
6.5567225
6.0733196
5.5057328
5.0193101
4.4544363
3.9655973
3.4028526
2.9121637
2.350997
1.858996
1.2988794
0.8060839
0.24650643
26.392776
25.449101
25.18513
24.337871
24.08793
23.291488
23.016427
22.252516
21.949455
21.212909
20.884361
20.171922
19.820792
19.129603
18.758539
18.086077
17.697444
17.041473
16.637372
15.99591
15.578207
14.949496
14.519848
13.902325
13.462204
12.854481
12.405199
11.806034
11.348763
10.75705
10.292838
9.7075828
9.2373717
8.6576795
8.182321
7.6073812
7.1276476
6.5567226
6.0733195
5.5057329
5.0193101
4.4544364
3.9655973
3.4028527
2.9121637
2.350997
1.858996
1.2988794
0.80608387
0.24650644
26.393395
25.449321
25.185183
24.337875
24.087931
23.291486
23.016428
22.252513
21.949454
21.212909
20.884361
20.171922
19.820792
19.129603
18.758539
18.086077
17.697444
17.041473
16.637372
15.99591
15.578207
14.949496
14.519848
13.902325
13.462204
12.854481
12.405199
11.806035
11.348763
10.75705
10.292838
9.7075828
9.2373717
8.6576796
8.1823209
7.6073812
7.1276475
6.5567226
6.0733195
5.5057329
5.01931
4.4544364
3.9655972
3.4028527
2.9121637
2.350997
1.858996
1.2988795
0.80608383
0.24650646
26.394431
25.449528
25.18525
24.337885
24.087934
23.291484
23.016429
22.25251
21.949453
21.212909
20.884361
20.171922
19.820792
19.129604
18.758539
18.086078
17.697443
17.041473
16.637371
15.995911
15.578207
14.949496
14.519847
13.902326
13.462204
12.854481
12.405199
11.806035
11.348763
10.75705
10.292838
9.7075829
9.2373716
8.6576796
8.1823208
7.6073813
7.1276475
6.5567227
6.0733194
5.505733
5.01931
4.4544365
3.9655972
3.4028527
2.9121636
2.3509971
1.8589959
1.2988795
0.80608377
0.24650649
26.395306
25.449846
25.185348
24.337901
24.08794
23.291483
23.016428
22.252507
21.949452
21.212909
20.884361
20.171923
19.820792
19.129604
18.758539
18.086078
17.697443
17.041474
16.637371
15.995911
15.578207
14.949497
14.519847
13.902326
13.462204
12.854481
12.405198
11.806035
11.348763
10.75705
10.292837
9.707583
9.2373715
8.6576797
8.1823208
7.6073814
7.1276474
6.5567227
6.0733194
5.505733
5.0193099
4.4544365
3.9655971
3.4028528
2.9121636
2.3509971
1.8589959
1.2988795
0.80608369
0.24650653
26.396629
25.450152
25.185465
24.337925
24.087949
23.291482
23.016427
22.252504
21.949451
21.212909
20.88436
20.171923
19.820792
19.129604
18.758539
18.086078
17.697443
17.041474
16.637371
15.995911
15.578206
14.949497
14.519847
13.902326
13.462204
12.854481
12.405198
11.806035
11.348763
10.757051
10.292837
9.7075831
9.2373714
8.6576798
8.1823207
7.6073814
7.1276473
6.5567228
6.0733193
5.5057331
5.0193099
4.4544366
3.9655971
3.4028528
2.9121635
2.3509972
1.8589958
1.2988796
0.8060836
0.24650657
26.397814
25.450597
25.185616
24.337956
24.087963
23.291481
23.016425
22.252502
21.94945
21.212909
20.88436
20.171923
19.820791
19.129605
18.758538
18.086078
17.697443
17.041474
16.637371
15.995911
15.578206
14.949497
14.519847
13.902326
13.462204
12.854481
12.405198
11.806035
11.348762
10.757051
10.292837
9.7075832
9.2373713
8.6576799
8.1823206
7.6073815
7.1276473
6.5567229
6.0733192
5.5057331
5.0193098
4.4544366
3.965597
3.4028529
2.9121635
2.3509972
1.8589958
1.2988796
0.8060835
0.24650661
26.39937
25.45101
25.185788
24.337995
24.08798
23.291478
23.016423
22.2525
21.949449
21.212909
20.88436
20.171924
19.820791
19.129605
18.758538
18.086079
17.697443
17.041474
16.637371
15.995911
15.578206
14.949497
14.519847
13.902326
13.462204
12.854481
12.405198
11.806035
11.348762
10.757051
10.292837
9.7075833
9.2373712
8.65768
8.1823205
7.6073816
7.1276472
6.5567229
6.0733192
5.5057332
5.0193097
4.4544367
3.965597
3.402853
2.9121634
2.3509973
1.8589957
1.2988797
0.80608338
0.24650666
26.400988
25.451603
25.185995
24.338043
24.088002
23.291474
23.01642
22.252499
21.949448
21.212909
20.884359
20.171924
19.820791
19.129605
18.758538
18.086079
17.697442
17.041474
16.63737
15.995912
15.578206
14.949497
14.519847
13.902326
13.462203
12.854481
12.405198
11.806035
11.348762
10.757051
10.292837
9.7075834
9.2373711
8.6576801
8.1823204
7.6073817
7.1276471
6.556723
6.0733191
5.5057333
5.0193097
4.4544368
3.9655969
3.402853
2.9121633
2.3509974
1.8589957
1.2988797
0.80608325
0.24650672
26.402774
25.45215
25.186223
24.338101
24.088026
23.291467
23.016418
22.252499
21.949447
21.21291
20.884359
20.171924
19.82079
19.129606
18.758538
18.086079
17.697442
17.041475
16.63737
15.995912
15.578206
14.949498
14.519846
13.902326
13.462203
12.854482
12.405198
11.806035
11.348762
10.757051
10.292837
9.7075835
9.237371
8.6576802
8.1823203
7.6073818
7.127647
6.5567231
6.073319
5.5057334
5.0193096
4.4544369
3.9655968
3.4028531
2.9121633
2.3509974
1.8589956
1.2988798
0.80608311
0.24650678
26.404898
25.452895
25.186483
24.338169
24.088051
23.291459
23.016417
22.252499
21.949447
21.21291
20.884359
20.171925
19.82079
19.129606
18.758537
18.08608
17.697442
17.041475
16.63737
15.995912
15.578205
14.949498
14.519846
13.902327
13.462203
12.854482
12.405198
11.806036
11.348762
10.757051
10.292837
9.7075836
9.2373709
8.6576803
8.1823202
7.6073819
7.1276469
6.5567232
6.0733189
5.5057335
5.0193095
4.4544369
3.9655967
3.4028532
2.9121632
2.3509975
1.8589955
1.2988799
0.80608296
0.24650684
26.406975
25.453605
25.186766
24.338249
24.088075
23.291453
23.016416
22.2525
21.949446
21.212911
20.884358
20.171925
19.82079
19.129606
18.758537
18.08608
17.697441
17.041475
16.63737
15.995912
15.578205
14.949498
14.519846
13.902327
13.462203
12.854482
12.405197
11.806036
11.348762
10.757051
10.292837
9.7075838
9.2373707
8.6576804
8.1823201
7.607382
7.1276468
6.5567233
6.0733188
5.5057336
5.0193094
4.454437
3.9655966
3.4028533
2.9121631
2.3509976
1.8589954
1.29888
0.80608279
0.2465069
26.409671
25.45451
25.18708
24.338338
24.088097
23.291449
23.016415
22.2525
21.949446
21.212911
20.884358
20.171926
19.820789
19.129607
18.758536
18.08608
17.697441
17.041476
16.637369
15.995913
15.578205
14.949498
14.519846
13.902327
13.462203
12.854482
12.405197
11.806036
11.348762
10.757052
10.292836
9.707584
9.2373706
8.6576806
8.1823199
7.6073822
7.1276466
6.5567235
6.0733187
5.5057337
5.0193093
4.4544372
3.9655965
3.4028534
2.912163
2.3509977
1.8589953
1.2988801
0.80608262
0.24650697
26.412172
25.45541
25.187424
24.33843
24.088119
23.29145
23.016416
22.252502
21.949446
21.212912
20.884357
20.171927
19.820789
19.129607
18.758536
18.086081
17.697441
17.041476
16.637369
15.995913
15.578205
14.949499
14.519845
13.902327
13.462202
12.854482
12.405197
11.806036
11.348761
10.757052
10.292836
9.7075841