/*--------------------------------*- C++ -*----------------------------------*\
| =========                 |                                                 |
| \\      /  F ield         | OpenFOAM: The Open Source CFD Toolbox           |
|  \\    /   O peration     | Version:  2312                                  |
|   \\  /    A nd           | Website:  www.openfoam.com                      |
|    \\/     M anipulation  |                                                 |
\*---------------------------------------------------------------------------*/
FoamFile
{
    version     2.0;
    format      ascii;
    arch        "LSB;label=32;scalar=64";
    class       surfaceScalarField;
    location    "8";
    object      phi_0;
}
// * * * * * * * * * * * * * * * * * * * * * * * * * * * * * * * * * * * * * //

dimensions      [0 3 -1 0 0 0 0];

oriented        oriented;

internalField   nonuniform List<scalar> 
7870
(
1.0206254e-10
2.3556875e-09
1.0155373e-10
5.0881294e-13
9.4559265e-11
6.9944638e-12
9.3958153e-11
6.0111161e-13
9.5090151e-11
-1.1319986e-12
9.3654191e-11
1.4359602e-12
9.4992035e-11
-1.3378448e-12
9.3709546e-11
1.2824897e-12
9.4920072e-11
-1.2105266e-12
9.377758e-11
1.1424917e-12
9.4852263e-11
-1.0746834e-12
9.3839877e-11
1.012386e-12
9.4792339e-11
-9.5246273e-13
9.3895451e-11
8.96888e-13
9.473973e-11
-8.4427986e-13
9.3944581e-11
7.9514925e-13
9.4693488e-11
-7.4890729e-13
9.398787e-11
7.0561811e-13
9.4652829e-11
-6.6495919e-13
9.4025945e-11
6.268839e-13
9.4617102e-11
-5.9115749e-13
9.4059384e-11
5.5771831e-13
9.4585751e-11
-5.2636697e-13
9.4088701e-11
4.9705043e-13
9.4558291e-11
-4.6959034e-13
9.4114345e-11
4.4394579e-13
9.4534301e-11
-4.1995562e-13
9.4136711e-11
3.9758959e-13
9.4513414e-11
-3.7670257e-13
9.4156141e-11
3.5727268e-13
9.4495311e-11
-3.3917022e-13
9.4172932e-11
3.2237954e-13
9.4479718e-11
-3.0678588e-13
9.4187339e-11
2.923781e-13
9.4466395e-11
-2.790558e-13
9.4199584e-11
2.6681105e-13
9.4455141e-11
-2.5555724e-13
9.4209853e-11
2.4528861e-13
9.4445785e-11
-2.3593178e-13
9.4218302e-11
2.2748236e-13
9.4438182e-11
-2.1987983e-13
9.4225062e-11
2.1312023e-13
9.4432217e-11
-2.0715492e-13
9.4230229e-11
2.0198754e-13
9.4427779e-11
-1.9754987e-13
9.4233874e-11
1.9390477e-13
9.4425043e-11
-1.9116884e-13
9.4237705e-11
1.8733846e-13
9.4430786e-11
-1.9308129e-13
1.7960981e-13
2.795099e-10
4.5339275e-09
2.9237263e-10
-1.2353913e-11
2.7443506e-10
2.493203e-11
2.7367522e-10
1.3609495e-12
2.7494339e-10
-2.4001696e-12
2.7288132e-10
3.4980276e-12
2.7477441e-10
-3.2309281e-12
2.7294047e-10
3.1164234e-12
2.7468002e-10
-2.9500769e-12
2.7303587e-10
2.7866472e-12
2.7458228e-10
-2.6211014e-12
2.7312446e-10
2.4702037e-12
2.7449557e-10
-2.3235682e-12
2.732042e-10
2.1882544e-12
2.7441973e-10
-2.0598123e-12
2.7327492e-10
1.9399659e-12
2.7435319e-10
-1.8271824e-12
2.7333729e-10
1.7215213e-12
2.7429471e-10
-1.6223849e-12
2.7339216e-10
1.529433e-12
2.7424333e-10
-1.4423271e-12
2.7344036e-10
1.3606892e-12
2.7419824e-10
-1.2842475e-12
2.7348262e-10
1.212674e-12
2.7415875e-10
-1.1457162e-12
2.7351958e-10
1.0831078e-12
2.7412424e-10
-1.0246076e-12
2.7355182e-10
9.7000355e-13
2.7409419e-10
-9.1906759e-13
2.7357983e-10
8.7163185e-13
2.7406814e-10
-8.2748412e-13
2.7360403e-10
7.8649149e-13
2.740457e-10
-7.4846011e-13
2.736248e-10
7.132845e-13
2.7402653e-10
-6.8079086e-13
2.7364245e-10
6.5089516e-13
2.7401033e-10
-6.2344471e-13
2.7365725e-10
5.9837222e-13
2.7399687e-10
-5.7554675e-13
2.7366943e-10
5.5491388e-13
2.7398592e-10
-5.3636538e-13
2.7367919e-10
5.1985514e-13
2.7397733e-10
-5.0529759e-13
2.7368664e-10
4.926745e-13
2.7397091e-10
-4.8181393e-13
2.7369183e-10
4.7297649e-13
2.7396685e-10
-4.6618672e-13
2.7369802e-10
4.5616785e-13
2.7398152e-10
-4.7657792e-13
4.3651921e-13
4.483455e-10
6.543332e-09
4.7648606e-10
-4.0494475e-11
4.4931923e-10
5.2098854e-11
4.491064e-10
1.5737845e-12
4.4976565e-10
-3.0594176e-12
4.4786028e-10
5.4033896e-12
4.4960168e-10
-4.9723219e-12
4.4789407e-10
4.8240312e-12
4.4952866e-10
-4.5846711e-12
4.479808e-10
4.334507e-12
4.4943663e-10
-4.0769268e-12
4.4806281e-10
3.8440165e-12
4.4935436e-10
-3.6151223e-12
4.4813757e-10
3.4050464e-12
4.492828e-10
-3.2050385e-12
4.4820417e-10
3.0185952e-12
4.4922015e-10
-2.8431626e-12
4.4826299e-10
2.6786792e-12
4.4916513e-10
-2.5245228e-12
4.4831477e-10
2.3797955e-12
4.4911679e-10
-2.2443513e-12
4.4836024e-10
2.117234e-12
4.4907436e-10
-1.9983661e-12
4.4840012e-10
1.8869197e-12
4.4903719e-10
-1.7827923e-12
4.48435e-10
1.6853061e-12
4.4900471e-10
-1.5943249e-12
4.4846541e-10
1.509303e-12
4.4897643e-10
-1.4300808e-12
4.4849184e-10
1.3562207e-12
4.4895191e-10
-1.2875522e-12
4.4851467e-10
1.2237242e-12
4.4893078e-10
-1.1645655e-12
4.4853427e-10
1.1097941e-12
4.4891272e-10
-1.059246e-12
4.4855092e-10
1.012694e-12
4.4889747e-10
-9.6998769e-13
4.485649e-10
9.309434e-13
4.4888478e-10
-8.9542827e-13
4.485764e-10
8.6329333e-13
4.4887446e-10
-8.3442778e-13
4.4858561e-10
8.0870634e-13
4.4886636e-10
-7.860441e-13
4.4859266e-10
7.6637342e-13
4.4886025e-10
-7.4941064e-13
4.4859749e-10
7.35738e-13
4.4885631e-10
-7.2500925e-13
4.4860441e-10
7.0806957e-13
4.4887887e-10
-7.5103458e-13
6.7671009e-13
6.1578759e-10
8.3852945e-09
6.5407795e-10
-7.8784832e-11
6.1954727e-10
8.662952e-11
6.198262e-10
1.2948566e-12
6.1994828e-10
-3.1815011e-12
6.1822394e-10
7.1277357e-12
6.1982049e-10
-6.5688723e-12
6.1824546e-10
6.3990591e-12
6.1977297e-10
-6.1121877e-12
6.1832488e-10
5.7825992e-12
6.196871e-10
-5.4391481e-12
6.184003e-10
5.1308147e-12
6.196095e-10
-4.8243229e-12
6.1846993e-10
4.5446142e-12
6.1954235e-10
-4.2774552e-12
6.1853225e-10
4.0286983e-12
6.194837e-10
-3.7946221e-12
6.1858737e-10
3.5750185e-12
6.1943224e-10
-3.3693938e-12
6.186359e-10
3.1761292e-12
6.1938702e-10
-2.9954691e-12
6.1867854e-10
2.8257128e-12
6.1934733e-10
-2.6671542e-12
6.1871592e-10
2.5183255e-12
6.1931255e-10
-2.3794191e-12
6.1874862e-10
2.2492351e-12
6.1928215e-10
-2.1278571e-12
6.1877714e-10
2.0143196e-12
6.1925568e-10
-1.9086222e-12
6.1880191e-10
1.8099911e-12
6.1923272e-10
-1.7183684e-12
6.1882331e-10
1.6331338e-12
6.1921294e-10
-1.5541947e-12
6.1884168e-10
1.481053e-12
6.1919604e-10
-1.4135987e-12
6.188573e-10
1.3514309e-12
6.1918175e-10
-1.294436e-12
6.188704e-10
1.2422904e-12
6.1916986e-10
-1.1948867e-12
6.1888119e-10
1.1519627e-12
6.1916019e-10
-1.1134268e-12
6.1888984e-10
1.0790586e-12
6.1915259e-10
-1.0487927e-12
6.1889646e-10
1.0224986e-12
6.1914682e-10
-9.9976644e-13
6.1890093e-10
9.8162164e-13
6.1914292e-10
-9.6699816e-13
6.1890817e-10
9.4281661e-13
6.1917146e-10
-1.0143162e-12
9.0050587e-13
7.7053762e-10
1.0072507e-08
8.2529965e-10
-1.3354686e-10
7.8516095e-10
1.2676822e-10
7.8582828e-10
6.2752162e-13
7.8549091e-10
-2.8441314e-12
7.839728e-10
8.645845e-12
7.8543068e-10
-8.0267473e-12
7.8399419e-10
7.8355481e-12
7.8541268e-10
-7.5306775e-12
7.8406766e-10
7.1276157e-12
7.8533347e-10
-6.7049564e-12
7.8413654e-10
6.3277411e-12
7.8526076e-10
-5.9485433e-12
7.8420093e-10
5.6044449e-12
7.8519818e-10
-5.2747133e-12
7.8425883e-10
4.9680561e-12
7.8514368e-10
-4.6794725e-12
7.8431012e-10
4.4085727e-12
7.8509587e-10
-4.1551426e-12
7.8435531e-10
3.9166875e-12
7.8505387e-10
-3.6940319e-12
7.8439501e-10
3.4845733e-12
7.8501701e-10
-3.2891461e-12
7.8442982e-10
3.1055105e-12
7.8498469e-10
-2.934293e-12
7.8446026e-10
2.7736653e-12
7.8495645e-10
-2.6240431e-12
7.8448681e-10
2.4839575e-12
7.8493185e-10
-2.3536562e-12
7.8450987e-10
2.2319642e-12
7.8491051e-10
-2.119007e-12
7.845298e-10
2.0138443e-12
7.8489212e-10
-1.916518e-12
7.845469e-10
1.8262747e-12
7.8487641e-10
-1.7431027e-12
7.8456144e-10
1.6663968e-12
7.8486312e-10
-1.5961155e-12
7.8457364e-10
1.531771e-12
7.8485206e-10
-1.4733098e-12
7.8458369e-10
1.4203367e-12
7.8484306e-10
-1.3728025e-12
7.8459175e-10
1.3303744e-12
7.8483598e-10
-1.2930269e-12
7.8459793e-10
1.2605503e-12
7.8483057e-10
-1.2324027e-12
7.8460203e-10
1.2101544e-12
7.848267e-10
-1.191664e-12
7.8460933e-10
1.1601837e-12
7.8485965e-10
-1.2646354e-12
1.1068618e-12
9.3026625e-10
1.1599991e-08
9.8974419e-10
-1.930248e-10
9.4605805e-10
1.7045435e-10
9.4709398e-10
-4.0840273e-13
9.4639157e-10
-2.1417255e-12
9.4510818e-10
9.9292366e-12
9.4643356e-10
-9.3521347e-12
9.4514008e-10
9.1290294e-12
9.4644826e-10
-8.838859e-12
9.4520885e-10
8.3670308e-12
9.4637613e-10
-7.872239e-12
9.4527127e-10
7.4326001e-12
9.4630849e-10
-6.9857696e-12
9.4533033e-10
6.5826101e-12
9.4625062e-10
-6.1950039e-12
9.4538371e-10
5.8349653e-12
9.4620034e-10
-5.4961032e-12
9.4543108e-10
5.1778308e-12
9.4615628e-10
-4.8803371e-12
9.4547283e-10
4.6001282e-12
9.4611757e-10
-4.3387669e-12
9.4550952e-10
4.0926219e-12
9.4608359e-10
-3.8632105e-12
9.4554168e-10
3.6474131e-12
9.460538e-10
-3.4464078e-12
9.4556981e-10
3.257652e-12
9.4602776e-10
-3.0819875e-12
9.4559434e-10
2.9173747e-12
9.4600507e-10
-2.7643849e-12
9.4561564e-10
2.6213888e-12
9.4598539e-10
-2.4887556e-12
9.4563405e-10
2.3651838e-12
9.4596843e-10
-2.250898e-12
9.4564985e-10
2.1448568e-12
9.4595393e-10
-2.0471858e-12
9.4566328e-10
1.9570498e-12
9.4594167e-10
-1.8745103e-12
9.4567455e-10
1.7988956e-12
9.4593147e-10
-1.7302302e-12
9.4568384e-10
1.6679707e-12
9.4592316e-10
-1.6121291e-12
9.4569129e-10
1.5622475e-12
9.4591662e-10
-1.5183568e-12
9.4569702e-10
1.4801538e-12
9.4591158e-10
-1.4469636e-12
9.4570075e-10
1.4209851e-12
9.4590774e-10
-1.3986585e-12
9.4570789e-10
1.3600307e-12
9.4594374e-10
-1.500481e-12
1.294887e-12
1.0696913e-09
1.2988049e-08
1.1478556e-09
-2.7118912e-10
1.102408e-09
2.1590202e-10
1.1035849e-09
-1.5853674e-12
1.1026455e-09
-1.2023199e-12
1.1016308e-09
1.0943923e-11
1.1028303e-09
-1.0551648e-11
1.1016829e-09
1.0276454e-11
1.1028802e-09
-1.0036139e-11
1.1017481e-09
9.4991644e-12
1.1028155e-09
-8.9396256e-12
1.1018042e-09
8.4438998e-12
1.102753e-09
-7.934651e-12
1.1018578e-09
7.4778037e-12
1.1026999e-09
-7.0371036e-12
1.1019066e-09
6.6282727e-12
1.1026539e-09
-6.2434213e-12
1.10195e-09
5.8817689e-12
1.1026137e-09
-5.544004e-12
1.1019883e-09
5.2255404e-12
1.1025783e-09
-4.9288083e-12
1.1020219e-09
4.6490483e-12
1.1025472e-09
-4.3885775e-12
1.1020513e-09
4.1433122e-12
1.10252e-09
-3.9150788e-12
1.1020771e-09
3.7005531e-12
1.1024962e-09
-3.5010809e-12
1.1020996e-09
3.3139993e-12
1.1024755e-09
-3.1402653e-12
1.1021191e-09
2.9777545e-12
1.1024575e-09
-2.8271296e-12
1.102136e-09
2.686696e-12
1.102442e-09
-2.5569009e-12
1.1021504e-09
2.4363904e-12
1.1024287e-09
-2.3254588e-12
1.1021627e-09
2.2230219e-12
1.1024175e-09
-2.12927e-12
1.1021731e-09
2.0433319e-12
1.1024082e-09
-1.9653311e-12
1.1021816e-09
1.8945633e-12
1.1024006e-09
-1.8311187e-12
1.1021884e-09
1.7744034e-12
1.1023946e-09
-1.7245195e-12
1.1021937e-09
1.6810573e-12
1.1023899e-09
-1.6432129e-12
1.102197e-09
1.6138781e-12
1.1023861e-09
-1.5877621e-12
1.1022038e-09
1.5422963e-12
1.102424e-09
-1.7206021e-12
1.4641265e-12
1.2226567e-09
1.4223143e-08
1.2997145e-09
-3.4824685e-10
1.2540526e-09
2.6156391e-10
1.2552619e-09
-2.7946727e-12
1.2542433e-09
-1.8376745e-13
1.2535429e-09
1.1644331e-11
1.2546231e-09
-1.1631817e-11
1.2536229e-09
1.1276621e-11
1.254709e-09
-1.1122261e-11
1.253685e-09
1.052316e-11
1.2546518e-09
-9.9063623e-12
1.2537349e-09
9.3607742e-12
1.2545946e-09
-8.7944159e-12
1.2537832e-09
8.289266e-12
1.2545464e-09
-7.8003028e-12
1.2538273e-09
7.3473082e-12
1.2545047e-09
-6.9207886e-12
1.2538667e-09
6.519791e-12
1.2544683e-09
-6.1455735e-12
1.2539014e-09
5.7923933e-12
1.2544362e-09
-5.4636484e-12
1.2539319e-09
5.1533796e-12
1.2544081e-09
-4.8647954e-12
1.2539587e-09
4.5927867e-12
1.2543835e-09
-4.3399045e-12
1.253982e-09
4.1019938e-12
1.2543619e-09
-3.8809664e-12
1.2540024e-09
3.6734974e-12
1.2543431e-09
-3.4809796e-12
1.2540201e-09
3.3007638e-12
1.2543269e-09
-3.1338459e-12
1.2540354e-09
2.9781154e-12
1.2543128e-09
-2.8342739e-12
1.2540486e-09
2.7006376e-12
1.2543008e-09
-2.5776952e-12
1.2540597e-09
2.4641e-12
1.2542906e-09
-2.3601912e-12
1.2540691e-09
2.264888e-12
1.2542822e-09
-2.1784292e-12
1.2540768e-09
2.0999414e-12
1.2542753e-09
-2.0296058e-12
1.254083e-09
1.9666857e-12
1.2542699e-09
-1.9113658e-12
1.2540878e-09
1.8631193e-12
1.2542656e-09
-1.8210212e-12
1.2540908e-09
1.7887012e-12
1.2542619e-09
-1.758867e-12
1.2540972e-09
1.7069909e-12
1.2543006e-09
-1.9239761e-12
1.6144602e-12
1.3484573e-09
1.5332435e-08
1.4448451e-09
-4.4463464e-10
1.4011677e-09
3.0524132e-10
1.4021067e-09
-3.7336811e-12
1.4011805e-09
7.4237772e-13
1.4008462e-09
1.1978625e-11
1.4018137e-09
-1.2599242e-11
1.4009605e-09
1.2129772e-11
1.4019354e-09
-1.209712e-11
1.4010196e-09
1.1438963e-11
1.4018854e-09
-1.0772178e-11
1.4010632e-09
1.0182925e-11
1.4018336e-09
-9.5647862e-12
1.4011061e-09
9.0167181e-12
1.4017902e-09
-8.4843383e-12
1.4011457e-09
7.9918245e-12
1.4017528e-09
-7.5279644e-12
1.401181e-09
7.0916758e-12
1.4017202e-09
-6.6848282e-12
1.4012121e-09
6.3004884e-12
1.4016916e-09
-5.9430929e-12
1.4012395e-09
5.6054385e-12
1.4016664e-09
-5.2916915e-12
1.4012635e-09
4.9956788e-12
1.4016443e-09
-4.7207318e-12
1.4012845e-09
4.4618338e-12
1.401625e-09
-4.2215084e-12
1.4013028e-09
3.9957446e-12
1.4016082e-09
-3.7864082e-12
1.4013187e-09
3.5903063e-12
1.4015936e-09
-3.4087986e-12
1.4013324e-09
3.239344e-12
1.401581e-09
-3.0829236e-12
1.4013442e-09
2.9375119e-12
1.4015703e-09
-2.8038126e-12
1.4013542e-09
2.6802074e-12
1.4015612e-09
-2.5672012e-12
1.4013626e-09
2.4634966e-12
1.4015536e-09
-2.3694605e-12
1.4013695e-09
2.2840458e-12
1.4015474e-09
-2.2075347e-12
1.4013751e-09
2.1390432e-12
1.4015426e-09
-2.0788484e-12
1.4013794e-09
2.0262968e-12
1.4015387e-09
-1.9803544e-12
1.401382e-09
1.945415e-12
1.4015351e-09
-1.9119634e-12
1.4013879e-09
1.8541903e-12
1.4015737e-09
-2.1097838e-12
1.7459994e-12
1.4924944e-09
1.6297691e-08
1.5844221e-09
-5.365623e-10
1.5435693e-09
3.4609411e-10
1.5442061e-09
-4.3705452e-12
1.5434742e-09
1.4743314e-12
1.5435414e-09
1.1911448e-11
1.5444024e-09
-1.3460247e-11
1.5436953e-09
1.2836813e-11
1.5445594e-09
-1.2961224e-11
1.5437514e-09
1.2246997e-11
1.5445165e-09
-1.1537321e-11
1.5437889e-09
1.0910525e-11
1.5444701e-09
-1.0245937e-11
1.5438265e-09
9.6603059e-12
1.5444315e-09
-9.0893486e-12
1.5438614e-09
8.5619518e-12
1.5443985e-09
-8.0650638e-12
1.5438926e-09
7.5975372e-12
1.5443697e-09
-7.1618675e-12
1.5439202e-09
6.7499253e-12
1.5443444e-09
-6.3672293e-12
1.5439445e-09
6.0053127e-12
1.5443221e-09
-5.6693438e-12
1.5439658e-09
5.3520666e-12
1.5443026e-09
-5.0576308e-12
1.5439843e-09
4.7801433e-12
1.5442856e-09
-4.5227706e-12
1.5440005e-09
4.2808045e-12
1.5442707e-09
-4.0566092e-12
1.5440146e-09
3.8464401e-12
1.5442579e-09
-3.6520414e-12
1.5440268e-09
3.4704355e-12
1.5442467e-09
-3.3028997e-12
1.5440372e-09
3.1470632e-12
1.5442372e-09
-3.0038579e-12
1.544046e-09
2.8713912e-12
1.5442292e-09
-2.7503448e-12
1.5440535e-09
2.6392025e-12
1.5442225e-09
-2.5384688e-12
1.5440596e-09
2.4469207e-12
1.544217e-09
-2.3649489e-12
1.5440646e-09
2.2915207e-12
1.5442127e-09
-2.2270121e-12
1.5440684e-09
2.1706366e-12
1.5442093e-09
-2.1212654e-12
1.5440706e-09
2.0840648e-12
1.5442058e-09
-2.0471297e-12
1.544076e-09
1.9840322e-12
1.5442436e-09
-2.2773911e-12
1.8590321e-12
1.6105166e-09
1.7144924e-08
1.7170271e-09
-6.430728e-10
1.6812599e-09
3.8186126e-10
1.6817376e-09
-4.8481854e-12
1.6812065e-09
2.0053885e-12
1.6816406e-09
1.1477411e-11
1.6823928e-09
-1.4212439e-11
1.6818279e-09
1.340167e-11
1.6825817e-09
-1.3715011e-11
1.6818804e-09
1.294831e-11
1.6825455e-09
-1.220245e-11
1.6819118e-09
1.1544197e-11
1.6825043e-09
-1.0838447e-11
1.6819441e-09
1.0220562e-11
1.6824706e-09
-9.6158334e-12
1.6819744e-09
9.0581622e-12
1.6824418e-09
-8.5325239e-12
1.6820016e-09
8.0377924e-12
1.6824168e-09
-7.5770768e-12
1.6820256e-09
7.1410735e-12
1.6823948e-09
-6.7363992e-12
1.6820468e-09
6.3533304e-12
1.6823755e-09
-5.9980564e-12
1.6820653e-09
5.6622421e-12
1.6823585e-09
-5.3508734e-12
1.6820815e-09
5.0571831e-12
1.6823437e-09
-4.7849967e-12
1.6820956e-09
4.5289109e-12
1.6823308e-09
-4.2918021e-12
1.6821079e-09
4.0693757e-12
1.6823196e-09
-3.8637724e-12
1.6821185e-09
3.6715801e-12
1.68231e-09
-3.4943825e-12
1.6821276e-09
3.3294647e-12
1.6823017e-09
-3.1779957e-12
1.6821353e-09
3.0378102e-12
1.6822947e-09
-2.9097738e-12
1.6821418e-09
2.7921529e-12
1.6822889e-09
-2.6855955e-12
1.6821471e-09
2.5887039e-12
1.6822841e-09
-2.5019822e-12
1.6821514e-09
2.4242498e-12
1.6822804e-09
-2.3559859e-12
1.6821547e-09
2.2962671e-12
1.6822774e-09
-2.2438859e-12
1.6821567e-09
2.2047731e-12
1.682274e-09
-2.1645226e-12
1.6821614e-09
2.096712e-12
1.6823103e-09
-2.426332e-12
1.953989e-12
1.745888e-09
1.7856786e-08
1.8450175e-09
-7.422023e-10
1.8141656e-09
4.1271311e-10
1.8147073e-09
-5.3898311e-12
1.8143967e-09
2.315959e-12
1.8151449e-09
1.0729208e-11
1.8157855e-09
-1.4853027e-11
1.8153582e-09
1.3829013e-11
1.8160024e-09
-1.4359224e-11
1.8154063e-09
1.3544396e-11
1.8159724e-09
-1.2768619e-11
1.8154317e-09
1.2084949e-11
1.8159365e-09
-1.1343257e-11
1.8154587e-09
1.0698367e-11
1.8159075e-09
-1.0064619e-11
1.8154844e-09
9.4812355e-12
1.815883e-09
-8.9310726e-12
1.8155076e-09
8.4131326e-12
1.8158616e-09
-7.9311001e-12
1.8155282e-09
7.4745459e-12
1.8158429e-09
-7.0511748e-12
1.8155462e-09
6.650036e-12
1.8158265e-09
-6.2783388e-12
1.8155621e-09
5.9266903e-12
1.8158121e-09
-5.6009142e-12
1.8155759e-09
5.2933863e-12
1.8157995e-09
-5.0085936e-12
1.815588e-09
4.7404514e-12
1.8157885e-09
-4.4923517e-12
1.8155984e-09
4.2594613e-12
1.815779e-09
-4.0443207e-12
1.8156075e-09
3.8430923e-12
1.8157708e-09
-3.6576696e-12
1.8156152e-09
3.4850015e-12
1.8157637e-09
-3.3264972e-12
1.8156218e-09
3.1797249e-12
1.8157578e-09
-3.0457369e-12
1.8156273e-09
2.9225876e-12
1.8157528e-09
-2.8110708e-12
1.8156319e-09
2.7096186e-12
1.8157488e-09
-2.6188502e-12
1.8156356e-09
2.5374411e-12
1.8157456e-09
-2.4659753e-12
1.8156384e-09
2.403391e-12
1.815743e-09
-2.3484192e-12
1.81564e-09
2.3077324e-12
1.8157399e-09
-2.2643691e-12
1.8156441e-09
2.192479e-12
1.8157741e-09
-2.5562942e-12
2.0314153e-12
1.8593875e-09
1.8455149e-08
1.9664052e-09
-8.4922002e-10
1.9424259e-09
4.3669242e-10
1.9430721e-09
-6.0359907e-12
1.9430403e-09
2.3477266e-12
1.9440556e-09
9.7138842e-12
1.9445812e-09
-1.5378652e-11
1.9442866e-09
1.4123606e-11
1.944822e-09
-1.4894607e-11
1.9443291e-09
1.4037302e-11
1.9447977e-09
-1.3237152e-11
1.9443484e-09
1.253419e-11
1.9447668e-09
-1.176162e-11
1.9443702e-09
1.109492e-11
1.9447424e-09
-1.0436823e-11
1.9443914e-09
9.8322305e-12
1.944722e-09
-9.2616984e-12
1.9444107e-09
8.7244954e-12
1.9447044e-09
-8.2248142e-12
1.9444278e-09
7.7511745e-12
1.9446889e-09
-7.3123348e-12
1.9444428e-09
6.8961691e-12
1.9446753e-09
-6.5108844e-12
1.944456e-09
6.1460699e-12
1.9446634e-09
-5.8083718e-12
1.9444675e-09
5.4893408e-12
1.944653e-09
-5.1941144e-12
1.9444775e-09
4.9159523e-12
1.9446439e-09
-4.6587544e-12
1.9444862e-09
4.4171695e-12
1.944636e-09
-4.1941327e-12
1.9444937e-09
3.9853978e-12
1.9446292e-09
-3.7931648e-12
1.9445001e-09
3.6140595e-12
1.9446234e-09
-3.4497294e-12
1.9445056e-09
3.297487e-12
1.9446184e-09
-3.1585702e-12
1.9445102e-09
3.0308299e-12
1.9446143e-09
-2.9152052e-12
1.944514e-09
2.8099649e-12
1.944611e-09
-2.7158428e-12
1.944517e-09
2.6313765e-12
1.9446083e-09
-2.5572547e-12
1.9445194e-09
2.4922777e-12
1.9446061e-09
-2.4351332e-12
1.9445207e-09
2.393199e-12
1.9446033e-09
-2.3469583e-12
1.9445241e-09
2.2716317e-12
1.9446349e-09
-2.6671049e-12
2.091945e-12
1.9856786e-09
1.892722e-08
2.0839114e-09
-9.4745278e-10
2.0659768e-09
4.5462696e-10
2.0668719e-09
-6.9310794e-12
2.0671375e-09
2.0821252e-12
2.068377e-09
8.4743474e-12
2.0687808e-09
-1.5782391e-11
2.0686134e-09
1.4291022e-11
2.0690408e-09
-1.5322034e-11
2.0686487e-09
1.4429408e-11
2.0690212e-09
-1.360971e-11
2.0686618e-09
1.2893626e-11
2.0689953e-09
-1.2095087e-11
2.0686785e-09
1.14117e-11
2.0689755e-09
-1.0733826e-11
2.0686953e-09
1.0112454e-11
2.0689592e-09
-9.5256248e-12
2.0687107e-09
8.9730394e-12
2.0689451e-09
-8.4593044e-12
2.0687243e-09
7.9719878e-12
2.0689328e-09
-7.520844e-12
2.0687364e-09
7.0926442e-12
2.068922e-09
-6.696552e-12
2.0687469e-09
6.3211953e-12
2.0689125e-09
-5.9740124e-12
2.0687561e-09
5.6457733e-12
2.0689042e-09
-5.3422441e-12
2.0687641e-09
5.0560639e-12
2.068897e-09
-4.7916242e-12
2.0687711e-09
4.5430838e-12
2.0688907e-09
-4.313761e-12
2.0687771e-09
4.0990228e-12
2.0688853e-09
-3.9013672e-12
2.0687822e-09
3.7171151e-12
2.0688807e-09
-3.5481459e-12
2.0687866e-09
3.3915306e-12
2.0688767e-09
-3.2486885e-12
2.0687903e-09
3.1172783e-12
2.0688735e-09
-2.9983812e-12
2.0687933e-09
2.8901121e-12
2.0688708e-09
-2.7933167e-12
2.0687958e-09
2.7064026e-12
2.0688687e-09
-2.6301608e-12
2.0687977e-09
2.5632574e-12
2.0688669e-09
-2.5043542e-12
2.0687986e-09
2.4614865e-12
2.0688643e-09
-2.412635e-12
2.0688014e-09
2.3345141e-12
2.068893e-09
-2.7587179e-12
2.1362797e-12
2.094618e-09
1.9290352e-08
2.195154e-09
-1.0479888e-09
2.1849361e-09
4.6484487e-10
2.1861221e-09
-8.1171234e-12
2.1866796e-09
1.5245891e-12
2.1881082e-09
7.0458237e-12
2.1883829e-09
-1.6057077e-11
2.1883377e-09
1.4336217e-11
2.1886586e-09
-1.5642993e-11
2.1883648e-09
1.4723265e-11
2.1886433e-09
-1.3888297e-11
2.1883717e-09
1.3165229e-11
2.1886221e-09
-1.2345477e-11
2.1883834e-09
1.1650435e-11
2.1886068e-09
-1.0957243e-11
2.1883958e-09
1.0323435e-11
2.1885945e-09
-9.7242849e-12
2.1884074e-09
9.1601207e-12
2.188584e-09
-8.6358427e-12
2.1884178e-09
8.1381899e-12
2.1885747e-09
-7.677833e-12
2.1884269e-09
7.240532e-12
2.1885666e-09
-6.8363482e-12
2.1884348e-09
6.4530202e-12
2.1885595e-09
-6.0987337e-12
2.1884418e-09
5.7635351e-12
2.1885533e-09
-5.4537851e-12
2.1884478e-09
5.1615476e-12
2.1885479e-09
-4.8916803e-12
2.1884531e-09
4.6378879e-12
2.1885432e-09
-4.4038524e-12
2.1884576e-09
4.184583e-12
2.1885391e-09
-3.9828614e-12
2.1884615e-09
3.7947259e-12
2.1885356e-09
-3.6222775e-12
2.1884648e-09
3.4623637e-12
2.1885327e-09
-3.3165772e-12
2.1884676e-09
3.182399e-12
2.1885302e-09
-3.0610462e-12
2.1884699e-09
2.9504918e-12
2.1885282e-09
-2.8516884e-12
2.1884717e-09
2.7629236e-12
2.1885266e-09
-2.6850865e-12
2.1884732e-09
2.6167145e-12
2.1885253e-09
-2.556461e-12
2.1884738e-09
2.5129605e-12
2.188523e-09
-2.4617931e-12
2.188476e-09
2.3815114e-12
2.1885485e-09
-2.8312021e-12
2.1651695e-12
2.2129813e-09
1.9535121e-08
2.3032621e-09
-1.1382696e-09
2.2993902e-09
4.6871685e-10
2.3008628e-09
-9.5897365e-12
2.3016534e-09
7.3395462e-13
2.3032512e-09
5.4480202e-12
2.3033885e-09
-1.6194325e-11
2.3034598e-09
1.4264863e-11
2.3036758e-09
-1.5858978e-11
2.3034773e-09
1.4921782e-11
2.3036641e-09
-1.407514e-11
2.3034781e-09
1.3351237e-11
2.3036475e-09
-1.251484e-11
2.3034848e-09
1.1813078e-11
2.3036365e-09
-1.1108901e-11
2.303493e-09
1.0466902e-11
2.303628e-09
-9.8592985e-12
2.3035009e-09
9.2872716e-12
2.3036209e-09
-8.7558676e-12
2.303508e-09
8.2511416e-12
2.3036147e-09
-7.7845808e-12
2.3035142e-09
7.3410425e-12
2.3036093e-09
-6.9314116e-12
2.3035197e-09
6.5426222e-12
2.3036045e-09
-6.183551e-12
2.3035244e-09
5.8435878e-12
2.3036003e-09
-5.5296449e-12
2.3035286e-09
5.2332639e-12
2.3035966e-09
-4.959736e-12
2.3035322e-09
4.7023538e-12
2.3035934e-09
-4.4651384e-12
2.3035353e-09
4.2427742e-12
2.3035907e-09
-4.0383079e-12
2.3035379e-09
3.8475218e-12
2.3035883e-09
-3.6727242e-12
2.3035402e-09
3.5105601e-12
2.3035864e-09
-3.3627846e-12
2.303542e-09
3.2267183e-12
2.3035847e-09
-3.1037058e-12
2.3035436e-09
2.9915914e-12
2.3035833e-09
-2.8914283e-12
2.3035449e-09
2.8013957e-12
2.3035823e-09
-2.722475e-12
2.3035459e-09
2.6530823e-12
2.3035813e-09
-2.5918792e-12
2.3035462e-09
2.5480331e-12
2.3035793e-09
-2.4948698e-12
2.3035478e-09
2.4130461e-12
2.3036013e-09
-2.8847297e-12
2.1793976e-12
2.3182253e-09
1.9674646e-08
2.4055824e-09
-1.2256267e-09
2.4093868e-09
4.6491244e-10
2.4111446e-09
-1.1347508e-11
2.4120529e-09
-1.7437885e-13
2.4138067e-09
3.6942132e-12
2.4137971e-09
-1.6184739e-11
2.4139794e-09
1.4082595e-11
2.4140923e-09
-1.5971867e-11
2.413986e-09
1.5028021e-11
2.4140836e-09
-1.4172745e-11
2.4139808e-09
1.3454084e-11
2.4140714e-09
-1.2605443e-11
2.4139827e-09
1.1901774e-11
2.4140646e-09
-1.1190813e-11
2.4139867e-09
1.0544757e-11
2.4140599e-09
-9.9324523e-12
2.413991e-09
9.3561802e-12
2.4140561e-09
-8.8209655e-12
2.4139949e-09
8.3123423e-12
2.4140528e-09
-7.8424974e-12
2.4139983e-09
7.395509e-12
2.4140499e-09
-6.9829975e-12
2.4140014e-09
6.591189e-12
2.4140474e-09
-6.2295839e-12
2.414004e-09
5.8869915e-12
2.4140452e-09
-5.570824e-12
2.4140063e-09
5.2721612e-12
2.4140432e-09
-4.9966881e-12
2.4140082e-09
4.7373329e-12
2.4140415e-09
-4.4984255e-12
2.4140099e-09
4.2743634e-12
2.4140401e-09
-4.0684353e-12
2.4140114e-09
3.8761973e-12
2.4140388e-09
-3.7001474e-12
2.4140126e-09
3.5367521e-12
2.4140378e-09
-3.3879156e-12
2.4140137e-09
3.2508165e-12
2.4140369e-09
-3.1269171e-12
2.4140145e-09
3.0139479e-12
2.4140361e-09
-2.9130549e-12
2.4140152e-09
2.8223216e-12
2.4140355e-09
-2.7428141e-12
2.4140158e-09
2.6728376e-12
2.414035e-09
-2.6110766e-12
2.4140159e-09
2.5671581e-12
2.4140333e-09
-2.5123405e-12
2.4140168e-09
2.4295743e-12
2.4140516e-09
-2.919567e-12
2.1797668e-12
2.4296189e-09
1.9702777e-08
2.5052196e-09
-1.3012275e-09
2.514972e-09
4.5516006e-10
2.5170221e-09
-1.3397596e-11
2.5178754e-09
-1.0277128e-12
2.5197775e-09
1.7921551e-12
2.5196098e-09
-1.6017079e-11
2.5198965e-09
1.3795915e-11
2.5199082e-09
-1.598354e-11
2.5198909e-09
1.5045275e-11
2.519902e-09
-1.4183818e-11
2.5198797e-09
1.3476402e-11
2.519894e-09
-1.2619739e-11
2.5198769e-09
1.1918848e-11
2.5198912e-09
-1.1205159e-11
2.5198769e-09
1.0559059e-11
2.5198902e-09
-9.9456794e-12
2.5198777e-09
9.3686731e-12
2.5198895e-09
-8.832853e-12
2.5198785e-09
8.3234142e-12
2.5198891e-09
-7.853109e-12
2.5198792e-09
7.4053743e-12
2.5198887e-09
-6.9924646e-12
2.5198799e-09
6.6000056e-12
2.5198883e-09
-6.2380439e-12
2.5198804e-09
5.8948929e-12
2.519888e-09
-5.5784053e-12
2.5198809e-09
5.2792655e-12
2.5198877e-09
-5.003507e-12
2.5198813e-09
4.743746e-12
2.5198875e-09
-4.5045865e-12
2.5198817e-09
4.2801805e-12
2.5198873e-09
-4.0740319e-12
2.5198819e-09
3.8815037e-12
2.5198871e-09
-3.7052632e-12
2.5198822e-09
3.5416243e-12
2.5198869e-09
-3.3926245e-12
2.5198824e-09
3.2553217e-12
2.5198868e-09
-3.131283e-12
2.5198826e-09
3.0181426e-12
2.5198866e-09
-2.9171291e-12
2.5198827e-09
2.826245e-12
2.5198865e-09
-2.746632e-12
2.5198829e-09
2.6764961e-12
2.5198864e-09
-2.6145581e-12
2.5198827e-09
2.5708264e-12
2.5198851e-09
-2.5147143e-12
2.5198831e-09
2.4315823e-12
2.5198996e-09
-2.9360642e-12
2.1670881e-12
2.5314169e-09
1.962911e-08
2.5994834e-09
-1.369294e-09
2.6160859e-09
4.3855753e-10
2.6184308e-09
-1.5742458e-11
2.6191294e-09
-1.7263174e-12
2.6211613e-09
-2.3970555e-13
2.6208259e-09
-1.5681718e-11
2.6212102e-09
1.3411645e-11
2.621123e-09
-1.5896394e-11
2.6211915e-09
1.4976796e-11
2.6211191e-09
-1.4111397e-11
2.6211746e-09
1.3420913e-11
2.6211152e-09
-1.2560386e-11
2.6211673e-09
1.1866752e-11
2.6211164e-09
-1.1154274e-11
2.6211635e-09
1.0511998e-11
2.6211188e-09
-9.9010451e-12
2.6211608e-09
9.3266968e-12
2.6211213e-09
-8.7933624e-12
2.6211587e-09
8.2860869e-12
2.6211236e-09
-7.8180443e-12
2.6211568e-09
7.3721768e-12
2.6211256e-09
-6.9612625e-12
2.6211552e-09
6.5704424e-12
2.6211273e-09
-6.2102238e-12
2.6211537e-09
5.8685153e-12
2.6211289e-09
-5.5535442e-12
2.6211524e-09
5.2556715e-12
2.6211302e-09
-4.9812283e-12
2.6211513e-09
4.7225757e-12
2.6211313e-09
-4.4845528e-12
2.6211504e-09
4.2611108e-12
2.6211323e-09
-4.0559391e-12
2.6211495e-09
3.8642429e-12
2.6211331e-09
-3.6888356e-12
2.6211488e-09
3.525907e-12
2.6211338e-09
-3.3776099e-12
2.6211482e-09
3.2409039e-12
2.6211344e-09
-3.1174473e-12
2.6211477e-09
3.0047957e-12
2.6211349e-09
-2.9042497e-12
2.6211474e-09
2.8137459e-12
2.6211352e-09
-2.7344918e-12
2.6211471e-09
2.6646075e-12
2.6211354e-09
-2.6028619e-12
2.6211467e-09
2.5595622e-12
2.6211345e-09
-2.5025294e-12
2.6211465e-09
2.4195833e-12
2.6211451e-09
-2.9346474e-12
2.1421719e-12
2.6359317e-09
1.9450928e-08
2.6915215e-09
-1.4248838e-09
2.7128162e-09
4.1726277e-10
2.7152549e-09
-1.8181084e-11
2.7158127e-09
-2.2841759e-12
2.717951e-09
-2.3779454e-12
2.7174445e-09
-1.5175262e-11
2.7179196e-09
1.2936558e-11
2.7177365e-09
-1.5713267e-11
2.7178875e-09
1.4825805e-11
2.7177349e-09
-1.3958804e-11
2.7178653e-09
1.3290423e-11
2.7177352e-09
-1.2430225e-11
2.7178539e-09
1.1748056e-11
2.7177402e-09
-1.104063e-11
2.7178464e-09
1.0405877e-11
2.717746e-09
-9.8007306e-12
2.7178404e-09
9.2323024e-12
2.7177515e-09
-8.7044274e-12
2.7178354e-09
8.2021842e-12
2.7177564e-09
-7.7390213e-12
2.717831e-09
7.2975386e-12
2.7177607e-09
-6.8909205e-12
2.7178272e-09
6.5039446e-12
2.7177644e-09
-6.1474872e-12
2.7178238e-09
5.8091485e-12
2.7177677e-09
-5.4974595e-12
2.7178209e-09
5.2025334e-12
2.7177706e-09
-4.9309445e-12
2.7178183e-09
4.6748583e-12
2.717773e-09
-4.4393069e-12
2.7178161e-09
4.2180883e-12
2.7177752e-09
-4.0150446e-12
2.7178142e-09
3.8252606e-12
2.717777e-09
-3.651671e-12
2.7178125e-09
3.4903708e-12
2.7177785e-09
-3.343609e-12
2.7178112e-09
3.2082702e-12
2.7177798e-09
-3.0860892e-12
2.71781e-09
2.9745619e-12
2.7177808e-09
-2.8750487e-12
2.7178091e-09
2.7854366e-12
2.7177816e-09
-2.706988e-12
2.7178085e-09
2.6377519e-12
2.7177822e-09
-2.5765553e-12
2.7178078e-09
2.5339186e-12
2.7177817e-09
-2.4763496e-12
2.7178071e-09
2.3941143e-12
2.7177883e-09
-2.9158102e-12
2.1058199e-12
2.733877e-09
1.9174801e-08
2.7786304e-09
-1.4696372e-09
2.8050525e-09
3.9084065e-10
2.8074594e-09
-2.0587991e-11
2.8079463e-09
-2.771059e-12
2.8101422e-09
-4.5737814e-12
2.8094661e-09
-1.4499208e-11
2.8100251e-09
1.2377601e-11
2.8097487e-09
-1.5436909e-11
2.8099788e-09
1.4595744e-11
2.8097494e-09
-1.3729453e-11
2.8099519e-09
1.3087891e-11
2.8097539e-09
-1.2232211e-11
2.8099365e-09
1.156545e-11
2.8097627e-09
-1.0866812e-11
2.8099255e-09
1.0243105e-11
2.8097718e-09
-9.6470158e-12
2.8099164e-09
9.0876335e-12
2.8097801e-09
-8.5680692e-12
2.8099087e-09
8.0736116e-12
2.8097875e-09
-7.617836e-12
2.8099019e-09
7.1831552e-12
2.809794e-09
-6.7830372e-12
2.8098959e-09
6.4020225e-12
2.8097997e-09
-6.0512599e-12
2.8098907e-09
5.7181409e-12
2.8098046e-09
-5.4114254e-12
2.8098861e-09
5.1210578e-12
2.809809e-09
-4.8537975e-12
2.8098821e-09
4.6016769e-12
2.8098127e-09
-4.3698764e-12
2.8098787e-09
4.1520894e-12
2.8098159e-09
-3.9522767e-12
2.8098758e-09
3.7654413e-12
2.8098187e-09
-3.5946127e-12
2.8098733e-09
3.4358216e-12
2.809821e-09
-3.2913929e-12
2.8098712e-09