/*--------------------------------*- C++ -*----------------------------------*\
| =========                 |                                                 |
| \\      /  F ield         | OpenFOAM: The Open Source CFD Toolbox           |
|  \\    /   O peration     | Version:  2312                                  |
|   \\  /    A nd           | Website:  www.openfoam.com                      |
|    \\/     M anipulation  |                                                 |
\*---------------------------------------------------------------------------*/
FoamFile
{
    version     2.0;
    format      ascii;
    arch        "LSB;label=32;scalar=64";
    class       surfaceScalarField;
    location    "9";
    object      phi;
}
// * * * * * * * * * * * * * * * * * * * * * * * * * * * * * * * * * * * * * //

dimensions      [0 3 -1 0 0 0 0];

oriented        oriented;

internalField   nonuniform List<scalar> 
7870
(
1.6996203e-10
3.291663e-09
1.7944092e-10
-9.4788768e-12
1.3078379e-10
4.8657116e-11
1.4051794e-10
-9.7341383e-12
1.3430271e-10
6.215213e-12
1.3499037e-10
-6.876493e-13
1.3316085e-10
1.8295135e-12
1.3353931e-10
-3.7846566e-13
1.3262721e-10
9.1209779e-13
1.3325446e-10
-6.2725725e-13
1.3254811e-10
7.0634337e-13
1.3318696e-10
-6.388451e-13
1.3256303e-10
6.2393107e-13
1.3314911e-10
-5.8607787e-13
1.325916e-10
5.5750515e-13
1.3311598e-10
-5.2436686e-13
1.3261999e-10
4.959841e-13
1.3308693e-10
-4.6693232e-13
1.3264583e-10
4.4110229e-13
1.3306183e-10
-4.1599542e-13
1.3266872e-10
3.9310678e-13
1.3304005e-10
-3.7132745e-13
1.3268884e-10
3.5120966e-13
1.3302107e-10
-3.3222604e-13
1.3270648e-10
3.145858e-13
1.3300448e-10
-2.9799897e-13
1.3272193e-10
2.8255432e-13
1.3298999e-10
-2.6806303e-13
1.3273542e-10
2.5457282e-13
1.3297736e-10
-2.4194259e-13
1.3274715e-10
2.3020612e-13
1.329664e-10
-2.1924868e-13
1.327573e-10
2.0909855e-13
1.3295696e-10
-1.9965857e-13
1.3276601e-10
1.9095363e-13
1.3294891e-10
-1.8290047e-13
1.3277339e-10
1.7552078e-13
1.3294213e-10
-1.6874354e-13
1.3277954e-10
1.6258727e-13
1.3293654e-10
-1.5699172e-13
1.3278456e-10
1.5197334e-13
1.3293204e-10
-1.4748252e-13
1.3278852e-10
1.4352223e-13
1.3292862e-10
-1.4009811e-13
1.3279151e-10
1.3710653e-13
1.3292613e-10
-1.3461342e-13
1.3279285e-10
1.3328199e-13
1.3292169e-10
-1.2884691e-13
1.3278482e-10
1.3687285e-13
-1.2459112e-13
4.447591e-10
6.3085289e-09
5.0276227e-10
-6.748202e-11
3.9255668e-10
1.5886268e-10
4.0429491e-10
-2.1472353e-11
3.9036302e-10
2.0147086e-11
3.9082774e-10
-1.1523714e-12
3.871625e-10
5.4947432e-12
3.870076e-10
-2.2357224e-13
3.8554792e-10
2.3717702e-12
3.8627722e-10
-1.3565721e-12
3.8526533e-10
1.7182389e-12
3.8615092e-10
-1.5244368e-12
3.8525875e-10
1.5161027e-12
3.8609728e-10
-1.4246033e-12
3.8529362e-10
1.3611748e-12
3.8604894e-10
-1.2796835e-12
3.8533231e-10
1.2126244e-12
3.8600622e-10
-1.1408387e-12
3.8536874e-10
1.0785906e-12
3.8596965e-10
-1.0169034e-12
3.8540147e-10
9.6128689e-13
3.8593811e-10
-9.0796275e-13
3.8543042e-10
8.5889689e-13
3.8591067e-10
-8.1247631e-13
3.8545589e-10
7.6937205e-13
3.8588671e-10
-7.2882142e-13
3.8547822e-10
6.9104389e-13
3.8586577e-10
-6.5561218e-13
3.8549775e-10
6.2259704e-13
3.8584751e-10
-5.9171052e-13
3.8551474e-10
5.6297916e-13
3.8583167e-10
-5.3617992e-13
3.8552944e-10
5.113285e-13
3.8581802e-10
-4.8823864e-13
3.8554205e-10
4.6692402e-13
3.8580638e-10
-4.4722491e-13
3.8555274e-10
4.2915396e-13
3.8579657e-10
-4.1257438e-13
3.8556166e-10
3.9749747e-13
3.8578848e-10
-3.8380604e-13
3.8556894e-10
3.7151401e-13
3.8578198e-10
-3.6052045e-13
3.8557469e-10
3.5081228e-13
3.8577704e-10
-3.4244935e-13
3.8557912e-10
3.3502185e-13
3.8577359e-10
-3.2907759e-13
3.8558112e-10
3.2575089e-13
3.8576577e-10
-3.1350297e-13
3.8556132e-10
3.4132613e-13
-3.0407922e-13
7.3206405e-10
9.0380898e-09
7.9629183e-10
-1.3170976e-10
6.4629004e-10
3.0886443e-10
6.6062342e-10
-3.5805712e-11
6.3950246e-10
4.1268017e-11
6.3958989e-10
-1.2398007e-12
6.3470386e-10
1.0380752e-11
6.3367095e-10
8.0932905e-13
6.3214678e-10
3.8959366e-12
6.3260154e-10
-1.81134e-12
6.3167013e-10
2.6496473e-12
6.3245757e-10
-2.3118752e-12
6.3162935e-10
2.344321e-12
6.3241135e-10
-2.2065946e-12
6.3165401e-10
2.1185206e-12
6.3236555e-10
-1.9912054e-12
6.3168749e-10
1.8906878e-12
6.3232422e-10
-1.7775655e-12
6.3172075e-10
1.6820654e-12
6.3228924e-10
-1.5853861e-12
6.3175127e-10
1.499255e-12
6.3225929e-10
-1.4159772e-12
6.3177851e-10
1.3396742e-12
6.3223331e-10
-1.2672676e-12
6.3180258e-10
1.2000967e-12
6.3221062e-10
-1.1368583e-12
6.3182374e-10
1.0779241e-12
6.3219079e-10
-1.0226618e-12
6.3184226e-10
9.711277e-13
6.3217349e-10
-9.229469e-13
6.3185839e-10
8.78087e-13
6.3215848e-10
-8.3627756e-13
6.3187234e-10
7.9747082e-13
6.3214555e-10
-7.6144602e-13
6.3188431e-10
7.2816017e-13
6.3213451e-10
-6.974238e-13
6.3189447e-10
6.6920153e-13
6.3212522e-10
-6.4333004e-13
6.3190294e-10
6.1978068e-13
6.3211754e-10
-5.984111e-13
6.3190985e-10
5.7920789e-13
6.3211137e-10
-5.6203968e-13
6.3191532e-10
5.4685795e-13
6.321067e-10
-5.3382842e-13
6.3191967e-10
5.2205677e-13
6.3210359e-10
-5.130014e-13
6.3192155e-10
5.077931e-13
6.3209404e-10
-4.8599581e-13
6.3189165e-10
5.4372277e-13
-4.7323793e-13
9.3283565e-10
1.1566879e-08
1.0701745e-09
-2.6904859e-10
8.9259733e-10
4.8644158e-10
9.0997668e-10
-5.3185041e-11
8.8147654e-10
6.9768127e-11
8.8150072e-10
-1.2639767e-12
8.7554709e-10
1.6334363e-11
8.7374424e-10
2.61217e-12
8.7222684e-10
5.4133235e-12
8.7241937e-10
-2.0038724e-12
8.7158479e-10
3.484221e-12
8.7227607e-10
-3.0031508e-12
8.715168e-10
3.1035934e-12
8.7224107e-10
-2.930851e-12
8.7153272e-10
2.8268694e-12
8.7219854e-10
-2.6570092e-12
8.7156124e-10
2.5279932e-12
8.7215885e-10
-2.3751693e-12
8.7159134e-10
2.2495836e-12
8.7212558e-10
-2.1196274e-12
8.7161959e-10
2.0052529e-12
8.720973e-10
-1.8936918e-12
8.7164504e-10
1.791936e-12
8.7207283e-10
-1.6950544e-12
8.7166764e-10
1.605292e-12
8.7205147e-10
-1.5206958e-12
8.7168754e-10
1.4418583e-12
8.720328e-10
-1.3679261e-12
8.7170498e-10
1.2989527e-12
8.7201652e-10
-1.2344877e-12
8.7172017e-10
1.1744334e-12
8.7200238e-10
-1.1184898e-12
8.7173332e-10
1.0665345e-12
8.719902e-10
-1.0183294e-12
8.717446e-10
9.7376402e-13
8.7197981e-10
-9.3263386e-13
8.7175417e-10
8.9484592e-13
8.7197106e-10
-8.6022263e-13
8.7176215e-10
8.2868736e-13
8.7196383e-10
-8.0008213e-13
8.7176867e-10
7.7436153e-13
8.71958e-10
-7.5136601e-13
8.7177384e-10
7.3101206e-13
8.7195361e-10
-7.1359453e-13
8.7177807e-10
6.9759761e-13
8.7195086e-10
-6.8579468e-13
8.7178002e-10
6.7863313e-13
8.7194033e-10
-6.4630483e-13
8.7174239e-10
7.416679e-13
-6.3166965e-13
1.1877004e-09
1.3840804e-08
1.332748e-09
-4.1409615e-10
1.1305758e-09
6.8861377e-10
1.1522941e-09
-7.4903302e-11
1.1163222e-09
1.0573998e-10
1.1165666e-09
-1.5083565e-12
1.1096647e-09
2.3236253e-11
1.1072272e-09
5.0496627e-12
1.1057885e-09
6.8519844e-12
1.1057331e-09
-1.9484195e-12
1.1050093e-09
4.207957e-12
1.1056069e-09
-3.6007045e-12
1.1049207e-09
3.7897814e-12
1.1055864e-09
-3.5965236e-12
1.1049293e-09
3.483903e-12
1.1055478e-09
-3.2754364e-12
1.1049532e-09
3.1225618e-12
1.1055099e-09
-2.9318957e-12
1.1049802e-09
2.7793421e-12
1.1054785e-09
-2.6179535e-12
1.1050062e-09
2.4776304e-12
1.105452e-09
-2.3395461e-12
1.1050298e-09
2.21417e-12
1.1054291e-09
-2.0943995e-12
1.1050508e-09
1.9835786e-12
1.1054092e-09
-1.8790233e-12
1.1050694e-09
1.7815964e-12
1.1053917e-09
-1.69022e-12
1.1050857e-09
1.6049456e-12
1.1053765e-09
-1.5252669e-12
1.1050999e-09
1.451007e-12
1.1053633e-09
-1.3818595e-12
1.1051122e-09
1.3176116e-12
1.1053519e-09
-1.2580293e-12
1.1051228e-09
1.2029193e-12
1.1053422e-09
-1.1520809e-12
1.1051317e-09
1.1053505e-12
1.105334e-09
-1.0625517e-12
1.1051392e-09
1.0235491e-12
1.1053273e-09
-9.8818163e-13
1.1051453e-09
9.5636442e-13
1.1053218e-09
-9.279146e-13
1.1051501e-09
9.0271429e-13
1.1053177e-09
-8.8120167e-13
1.1051542e-09
8.6113108e-13
1.1053154e-09
-8.4695576e-13
1.1051563e-09
8.3769188e-13
1.1053043e-09
-7.9434292e-13
1.1051129e-09
9.330977e-13
-7.7790828e-13
1.3933741e-09
1.5909055e-08
1.5724473e-09
-5.9316931e-10
1.3617829e-09
8.9927816e-10
1.3875392e-09
-1.0065962e-10
1.3439845e-09
1.4929472e-10
1.3447742e-09
-2.2980757e-12
1.3370422e-09
3.0968185e-11
1.3341286e-09
7.963287e-12
1.3328339e-09
8.1466636e-12
1.3325467e-09
-1.6611964e-12
1.3319443e-09
4.8103436e-12
1.3324512e-09
-4.1075844e-12
1.3318409e-09
4.400058e-12
1.3324477e-09
-4.2033522e-12
1.3318437e-09
4.0879729e-12
1.3324136e-09
-3.8453276e-12
1.3318633e-09
3.6728859e-12
1.3323778e-09
-3.4464016e-12
1.3318872e-09
3.2699252e-12
1.3323483e-09
-3.0790429e-12
1.3319108e-09
2.9150733e-12
1.3323236e-09
-2.7522922e-12
1.3319326e-09
2.6051649e-12
1.3323023e-09
-2.4641487e-12
1.3319521e-09
2.3338506e-12
1.3322838e-09
-2.2107895e-12
1.3319693e-09
2.0961389e-12
1.3322677e-09
-1.9885954e-12
1.3319844e-09
1.8882089e-12
1.3322536e-09
-1.7944344e-12
1.3319976e-09
1.7070042e-12
1.3322413e-09
-1.6256263e-12
1.332009e-09
1.5499832e-12
1.3322308e-09
-1.4798644e-12
1.3320187e-09
1.4149812e-12
1.3322218e-09
-1.3551528e-12
1.332027e-09
1.3001343e-12
1.3322143e-09
-1.2497646e-12
1.332034e-09
1.2038401e-12
1.332208e-09
-1.1622079e-12
1.3320396e-09
1.1247376e-12
1.3322029e-09
-1.0912271e-12
1.3320441e-09
1.0615275e-12
1.3321991e-09
-1.0362243e-12
1.332048e-09
1.0122642e-12
1.3321971e-09
-9.9609563e-13
1.3320503e-09
9.8454514e-13
1.332186e-09
-9.3007359e-13
1.3320029e-09
1.1162314e-12
-9.1077321e-13
1.5956852e-09
1.7774994e-08
1.803743e-09
-8.0122707e-10
1.5852207e-09
1.1178004e-09
1.6142348e-09
-1.2967365e-10
1.5646735e-09
1.98856e-10
1.5662038e-09
-3.8284348e-12
1.5577051e-09
3.9466883e-11
1.5544678e-09
1.1200623e-11
1.5533664e-09
9.2480359e-12
1.552865e-09
-1.1598154e-12
1.5523907e-09
5.284646e-12
1.5528102e-09
-4.5270883e-12
1.5522774e-09
4.9328593e-12
1.5528256e-09
-4.7515335e-12
1.5522755e-09
4.6380733e-12
1.5527962e-09
-4.3659783e-12
1.5522911e-09
4.1779153e-12
1.5527625e-09
-3.9177473e-12
1.5523121e-09
3.7203033e-12
1.552735e-09
-3.5019335e-12
1.5523335e-09
3.3166111e-12
1.5527122e-09
-3.1310075e-12
1.5523534e-09
2.9640213e-12
1.5526926e-09
-2.8034455e-12
1.5523712e-09
2.6552875e-12
1.5526756e-09
-2.5152151e-12
1.552387e-09
2.3847462e-12
1.5526608e-09
-2.2623521e-12
1.5524009e-09
2.1480813e-12
1.5526478e-09
-2.0413649e-12
1.552413e-09
1.9418353e-12
1.5526366e-09
-1.8492324e-12
1.5524235e-09
1.7631229e-12
1.552627e-09
-1.6833363e-12
1.5524325e-09
1.6094782e-12
1.5526187e-09
-1.5414022e-12
1.5524401e-09
1.4787733e-12
1.5526118e-09
-1.4214576e-12
1.5524464e-09
1.3691764e-12
1.552606e-09
-1.3217948e-12
1.5524516e-09
1.2791317e-12
1.5526014e-09
-1.2409695e-12
1.5524558e-09
1.2071335e-12
1.5525979e-09
-1.1783522e-12
1.5524594e-09
1.1507163e-12
1.5525963e-09
-1.1329285e-12
1.5524619e-09
1.1189014e-12
1.5525853e-09
-1.0535089e-12
1.552412e-09
1.2895574e-12
-1.0295965e-12
1.7902684e-09
1.9446351e-08
2.0104805e-09
-1.0214391e-09
1.7995023e-09
1.3287786e-09
1.8281924e-09
-1.5836376e-10
1.7777112e-09
2.4933717e-10
1.7806778e-09
-6.7950803e-12
1.7716288e-09
4.8515959e-11
1.7682569e-09
1.4572483e-11
1.7673853e-09
1.0119599e-11
1.7666913e-09
-4.6580997e-13
1.7663492e-09
5.6267658e-12
1.7666849e-09
-4.8628079e-12
1.7662302e-09
5.3875244e-12
1.7667203e-09
-5.2416142e-12
1.7662247e-09
5.1336899e-12
1.7666958e-09
-4.8370408e-12
1.7662367e-09
4.636967e-12
1.7666643e-09
-4.3453247e-12
1.7662549e-09
4.1297685e-12
1.7666389e-09
-3.8859674e-12
1.766274e-09
3.6815672e-12
1.766618e-09
-3.4750511e-12
1.7662919e-09
3.2901112e-12
1.7666002e-09
-3.111694e-12
1.7663081e-09
2.9473191e-12
1.7665847e-09
-2.7917606e-12
1.7663225e-09
2.646908e-12
1.7665712e-09
-2.5110086e-12
1.7663351e-09
2.3841094e-12
1.7665594e-09
-2.2656311e-12
1.7663461e-09
2.1550984e-12
1.7665492e-09
-2.0522984e-12
1.7663557e-09
1.9566735e-12
1.7665404e-09
-1.8681071e-12
1.7663638e-09
1.7860914e-12
1.7665329e-09
-1.7105266e-12
1.7663707e-09
1.6409811e-12
1.7665266e-09
-1.5773583e-12
1.7663765e-09
1.5192993e-12
1.7665214e-09
-1.4666956e-12
1.7663812e-09
1.4193114e-12
1.7665172e-09
-1.3769175e-12
1.766385e-09
1.3393192e-12
1.766514e-09
-1.3073774e-12
1.7663884e-09
1.2763056e-12
1.7665128e-09
-1.2572598e-12
1.7663911e-09
1.24058e-12
1.7665023e-09
-1.1647047e-12
1.76634e-09
1.4518001e-12
-1.1341021e-12
1.9478664e-09
2.0960109e-08
2.2094735e-09
-1.2830462e-09
2.0055654e-09
1.5326866e-09
2.0274169e-09
-1.8021526e-10
1.9832035e-09
2.9355053e-10
1.9882019e-09
-1.1793396e-11
1.9788554e-09
5.7862396e-11
1.9755102e-09
1.791763e-11
1.9748917e-09
1.0738148e-11
1.9740294e-09
3.9651054e-13
1.973821e-09
5.8351107e-12
1.9740763e-09
-5.1180466e-12
1.9736996e-09
5.7642184e-12
1.9741323e-09
-5.6742902e-12
1.9736912e-09
5.5747285e-12
1.9741126e-09
-5.2584216e-12
1.9736999e-09
5.0496688e-12
1.9740834e-09
-4.7287958e-12
1.9737153e-09
4.4978899e-12
1.9740601e-09
-4.2307481e-12
1.9737321e-09
4.0095219e-12
1.9740411e-09
-3.7840285e-12
1.9737482e-09
3.5830461e-12
1.974025e-09
-3.3885277e-12
1.9737627e-09
3.2095961e-12
1.9740111e-09
-3.0400975e-12
1.9737756e-09
2.8823159e-12
1.9739989e-09
-2.7342755e-12
1.973787e-09
2.5960229e-12
1.9739883e-09
-2.4669791e-12
1.9737969e-09
2.3465566e-12
1.9739792e-09
-2.2346014e-12
1.9738054e-09
2.1304264e-12
1.9739713e-09
-2.0339799e-12
1.9738128e-09
1.9446358e-12
1.9739646e-09
-1.8623506e-12
1.973819e-09
1.7865922e-12
1.9739589e-09
-1.7173097e-12
1.9738242e-09
1.6540602e-12
1.9739542e-09
-1.5967689e-12
1.9738284e-09
1.545143e-12
1.9739504e-09
-1.4989439e-12
1.9738318e-09
1.4579651e-12
1.9739476e-09
-1.4231829e-12
1.973835e-09
1.3889373e-12
1.9739467e-09
-1.3689762e-12
1.9738378e-09
1.3494968e-12
1.9739368e-09
-1.2637575e-12
1.9737867e-09
1.6018941e-12
-1.224292e-12
2.1169867e-09
2.2304748e-08
2.3866641e-09
-1.5527235e-09
2.2004502e-09
1.7189005e-09
2.2153773e-09
-1.9514237e-10
2.1814912e-09
3.2743665e-10
2.1885051e-09
-1.8807307e-11
2.1793639e-09
6.7003583e-11
2.1762314e-09
2.1050116e-11
2.1758857e-09
1.1083758e-11
2.1748818e-09
1.400422e-12
2.1748074e-09
5.9095861e-12
2.174985e-09
-5.2957175e-12
2.1746856e-09
6.0636891e-12
2.1750616e-09
-6.0503714e-12
2.174675e-09
5.9614157e-12
2.1750468e-09
-5.6302408e-12
2.1746806e-09
5.4159113e-12
2.1750198e-09
-5.0680594e-12
2.1746932e-09
4.8244816e-12
2.1749986e-09
-4.5361133e-12
2.1747078e-09
4.3002868e-12
2.1749816e-09
-4.0577682e-12
2.174722e-09
3.8426536e-12
2.1749672e-09
-3.6337882e-12
2.1747349e-09
3.4419686e-12
2.1749549e-09
-3.260088e-12
2.1747463e-09
3.090843e-12
2.1749441e-09
-2.9320359e-12
2.1747564e-09
2.7837154e-12
2.1749347e-09
-2.6453108e-12
2.1747652e-09
2.5161202e-12
2.1749266e-09
-2.3960582e-12
2.1747728e-09
2.2843052e-12
2.1749197e-09
-2.1808833e-12
2.1747792e-09
2.0850455e-12
2.1749137e-09
-1.9968125e-12
2.1747848e-09
1.9155495e-12
2.1749087e-09
-1.8412579e-12
2.1747894e-09
1.7734093e-12
2.1749046e-09
-1.7119682e-12
2.1747931e-09
1.656583e-12
2.1749012e-09
-1.6070091e-12
2.1747961e-09
1.5630353e-12
2.1748987e-09
-1.5257333e-12
2.174799e-09
1.4885951e-12
2.1748981e-09
-1.4680385e-12
2.1748019e-09
1.4456516e-12
2.174889e-09
-1.350802e-12
2.1747519e-09
1.738965e-12
-1.3003798e-12
2.2624398e-09
2.3503933e-08
2.5553905e-09
-1.8456742e-09
2.3838227e-09
1.8904682e-09
2.3950828e-09
-2.0640239e-10
2.3729032e-09
3.4961615e-10
2.3813878e-09
-2.7291864e-11
2.373179e-09
7.521233e-11
2.3704412e-09
2.3787921e-11
2.3703684e-09
1.1156524e-11
2.3692519e-09
2.5169612e-12
2.3693097e-09
5.8517317e-12
2.3694119e-09
-5.3979271e-12
2.3691884e-09
6.2872229e-12
2.3695088e-09
-6.3707066e-12
2.3691759e-09
6.2942513e-12
2.3694985e-09
-5.9527954e-12
2.3691786e-09
5.7358222e-12
2.3694738e-09
-5.3632259e-12
2.3691887e-09
5.1095842e-12
2.3694547e-09
-4.8021148e-12
2.3692011e-09
4.5538876e-12
2.3694396e-09
-4.2963032e-12
2.3692133e-09
4.0689603e-12
2.369427e-09
-3.8475065e-12
2.3692245e-09
3.6444686e-12
2.3694162e-09
-3.4517672e-12
2.3692345e-09
3.2725268e-12
2.3694068e-09
-3.104329e-12
2.3692433e-09
2.9472279e-12
2.3693986e-09
-2.8006673e-12
2.3692509e-09
2.6638316e-12
2.3693916e-09
-2.5367106e-12
2.3692575e-09
2.4183521e-12
2.3693855e-09
-2.3088583e-12
2.3692632e-09
2.2073617e-12
2.3693803e-09
-2.1139522e-12
2.369268e-09
2.0278927e-12
2.369376e-09
-1.9492417e-12
2.369272e-09
1.8773852e-12
2.3693724e-09
-1.8123314e-12
2.3692753e-09
1.7536698e-12
2.3693694e-09
-1.7011519e-12
2.3692779e-09
1.6545696e-12
2.3693672e-09
-1.6150674e-12
2.3692805e-09
1.5753332e-12
2.3693669e-09
-1.5544751e-12
2.3692835e-09
1.5291188e-12
2.3693587e-09
-1.4260104e-12
2.3692353e-09
1.8623126e-12
-1.3627456e-12
2.4213913e-09
2.4544167e-08
2.7046743e-09
-2.1289572e-09
2.5595041e-09
2.0356384e-09
2.5696096e-09
-2.1650783e-10
2.5578088e-09
3.614169e-10
2.5669463e-09
-3.6429344e-11
2.5603551e-09
8.1803442e-11
2.5581567e-09
2.598631e-11
2.5583421e-09
1.0971124e-11
2.5571418e-09
3.717301e-12
2.5573297e-09
5.6637713e-12
2.5573575e-09
-5.4257148e-12
2.5572082e-09
6.4365299e-12
2.5574737e-09
-6.636187e-12
2.557194e-09
6.5739407e-12
2.5574678e-09
-6.2265593e-12
2.5571939e-09
6.0097341e-12
2.5574453e-09
-5.6146063e-12
2.5572014e-09
5.3534439e-12
2.5574283e-09
-5.0290029e-12
2.5572117e-09
4.7705455e-12
2.5574152e-09
-4.4998543e-12
2.557222e-09
4.2621737e-12
2.5574044e-09
-4.0298865e-12
2.5572316e-09
3.8172926e-12
2.5573951e-09
-3.6153258e-12
2.5572401e-09
3.4275526e-12
2.5573871e-09
-3.2513332e-12
2.5572476e-09
3.0867335e-12
2.5573801e-09
-2.9332148e-12
2.5572541e-09
2.7898514e-12
2.5573741e-09
-2.6567122e-12
2.5572598e-09
2.5327153e-12
2.557369e-09
-2.4180468e-12
2.5572646e-09
2.3117209e-12
2.5573645e-09
-2.2139005e-12
2.5572687e-09
2.1237482e-12
2.5573608e-09
-2.0413826e-12
2.5572721e-09
1.9661059e-12
2.5573577e-09
-1.8979729e-12
2.5572749e-09
1.8365147e-12
2.5573552e-09
-1.7814817e-12
2.5572771e-09
1.7326756e-12
2.5573534e-09
-1.6912899e-12
2.5572794e-09
1.6492682e-12
2.5573533e-09
-1.6283748e-12
2.5572824e-09
1.6000372e-12
2.557346e-09
-1.4895896e-12
2.5572369e-09
1.9713968e-12
-1.4118983e-12
2.5540126e-09
2.5451779e-08
2.8502546e-09
-2.4251992e-09
2.729128e-09
2.156765e-09
2.7382874e-09
-2.2566725e-10
2.7361901e-09
3.6351425e-10
2.7455714e-09
-4.5810645e-11
2.7409923e-09
8.6382544e-11
2.7394043e-09
2.7574256e-11
2.7398094e-09
1.0565962e-11
2.7385538e-09
4.9729796e-12
2.7388693e-09
5.3481987e-12
2.7388224e-09
-5.378769e-12
2.7387451e-09
6.513792e-12
2.7389566e-09
-6.8476944e-12
2.7387292e-09
6.8013766e-12
2.7389548e-09
-6.4521713e-12
2.7387264e-09
6.238167e-12
2.7389345e-09
-5.8227005e-12
2.7387315e-09
5.556497e-12
2.7389197e-09
-5.2172116e-12
2.7387396e-09
4.9506612e-12
2.7389085e-09
-4.6688131e-12
2.738748e-09
4.4226656e-12
2.7388994e-09
-4.1812871e-12
2.7387559e-09
3.9607847e-12
2.7388917e-09
-3.751094e-12
2.738763e-09
3.5562372e-12
2.738885e-09
-3.3733516e-12
2.7387693e-09
3.2025227e-12
2.7388793e-09
-3.0432302e-12
2.7387747e-09
2.8944448e-12
2.7388743e-09
-2.7563156e-12
2.7387794e-09
2.6276366e-12
2.73887e-09
-2.5086795e-12
2.7387834e-09
2.3983444e-12
2.7388663e-09
-2.2968691e-12
2.7387868e-09
2.2033195e-12
2.7388633e-09
-2.1178759e-12
2.7387896e-09
2.0397599e-12
2.7388607e-09
-1.9690746e-12
2.7387919e-09
1.9052945e-12
2.7388586e-09
-1.8481706e-12
2.7387938e-09
1.7975214e-12
2.7388571e-09
-1.7545649e-12
2.7387957e-09
1.7105731e-12
2.7388573e-09
-1.6898815e-12
2.7387987e-09
1.6586025e-12
2.7388509e-09
-1.5417783e-12
2.7387564e-09
2.0658238e-12
-1.4484431e-12
2.7075167e-09
2.6205887e-08
2.9837353e-09
-2.7014177e-09
2.8931763e-09
2.2473239e-09
2.9013787e-09
-2.3386958e-10
2.9082724e-09
3.5662052e-10
2.917744e-09
-5.5282206e-11
2.9151811e-09
8.8945424e-11
2.9142008e-09
2.855448e-11
2.9147726e-09
9.9942176e-12
2.9134887e-09
6.2568264e-12
2.9139303e-09
4.9065898e-12
2.9138071e-09
-5.255523e-12
2.9137992e-09
6.5216393e-12
2.9139576e-09
-7.0060843e-12
2.9137814e-09
6.9776165e-12
2.9139597e-09
-6.6304369e-12
2.913776e-09
6.4218071e-12
2.9139415e-09
-5.9881899e-12
2.9137787e-09
5.7193514e-12
2.9139288e-09
-5.3673456e-12
2.9137847e-09
5.0947975e-12
2.9139196e-09
-4.8037265e-12
2.9137913e-09
4.5509546e-12
2.9139122e-09
-4.3022067e-12
2.9137976e-09
4.0754204e-12
2.913906e-09
-3.8595259e-12
2.9138032e-09
3.6590142e-12
2.9139007e-09
-3.4707968e-12
2.9138082e-09
3.2949894e-12
2.9138961e-09
-3.1310882e-12
2.9138126e-09
2.9779692e-12
2.9138921e-09
-2.8358611e-12
2.9138163e-09
2.7034411e-12
2.9138887e-09
-2.581066e-12
2.9138195e-09
2.4675286e-12
2.9138858e-09
-2.363141e-12
2.9138222e-09
2.2668783e-12
2.9138833e-09
-2.1789823e-12
2.9138245e-09
2.0985984e-12
2.9138813e-09
-2.0258787e-12
2.9138263e-09
1.9602435e-12
2.9138796e-09
-1.9014469e-12
2.9138278e-09
1.8493291e-12
2.9138784e-09
-1.8051095e-12
2.9138295e-09
1.7594706e-12
2.9138788e-09
-1.7391884e-12
2.9138323e-09
1.7050597e-12
2.9138734e-09
-1.5828453e-12
2.9137939e-09
2.1453327e-12
-1.473054e-12
2.8339183e-09
2.6833594e-08
3.1162247e-09
-2.9837241e-09
3.0528167e-09
2.3107318e-09
3.0583218e-09
-2.3937466e-10
3.0741639e-09
3.4077843e-10
3.0837311e-09
-6.4849466e-11
3.0829682e-09
8.9708385e-11
3.0825653e-09
2.8957357e-11
3.0832314e-09
9.3280734e-12
3.081947e-09
7.5412066e-12
3.0825139e-09
4.3397489e-12
3.0823121e-09
-5.0537522e-12
3.0823706e-09
6.4630979e-12
3.0824767e-09
-7.1121661e-12
3.0823505e-09
7.1038884e-12
3.0824823e-09
-6.7623102e-12
3.0823427e-09
6.5615021e-12
3.0824664e-09
-6.111922e-12
3.082343e-09
5.8427736e-12
3.0824558e-09
-5.4801635e-12
3.0823469e-09
5.2036631e-12
3.0824485e-09
-4.9052801e-12
3.0823518e-09
4.6476904e-12
3.0824428e-09
-4.3932666e-12
3.0823565e-09
4.161791e-12
3.0824381e-09
-3.9411844e-12
3.0823607e-09
3.7364196e-12
3.0824341e-09
-3.5441782e-12
3.0823645e-09
3.3646185e-12
3.0824306e-09
-3.1972493e-12
3.0823677e-09
3.0408635e-12
3.0824276e-09
-2.8957657e-12
3.0823705e-09
2.7605266e-12
3.0824251e-09
-2.6355853e-12
3.082373e-09
2.5196356e-12
3.0824229e-09
-2.4130625e-12
3.082375e-09
2.3147566e-12
3.082421e-09
-2.2250202e-12
3.0823767e-09
2.1429281e-12
3.0824195e-09
-2.0686809e-12
3.0823781e-09
2.0016479e-12
3.0824182e-09
-1.9415883e-12
3.0823792e-09
1.8883685e-12
3.0824173e-09
-1.8431875e-12
3.0823805e-09
1.7962271e-12
3.0824179e-09
-1.7765327e-12
3.0823832e-09
1.7396961e-12
3.0824135e-09
-1.6130858e-12
3.082349e-09
2.2097843e-12
-1.4864508e-12
2.9855281e-09
2.7309691e-08
3.2412578e-09
-3.2394537e-09
3.2074473e-09
2.3445423e-09
3.2096027e-09
-2.4153008e-10
3.2339355e-09
3.1644559e-10
3.2436411e-09
-7.4555046e-11
3.244381e-09
8.8968473e-11
3.2445051e-09
2.883326e-11
3.2451859e-09
8.6472263e-12
3.2439309e-09
8.7962099e-12
3.2446198e-09
3.6508922e-12
3.2443377e-09
-4.7717114e-12
3.2444594e-09
6.3414565e-12
3.244514e-09
-7.1667538e-12
3.2444363e-09
7.1815528e-12
3.2445229e-09
-6.8489054e-12
3.2444262e-09
6.6582366e-12
3.2445092e-09
-6.1949048e-12
3.2444243e-09
5.9276686e-12
3.2445007e-09
-5.5565657e-12
3.2444263e-09
5.2780952e-12
3.2444953e-09
-4.9742836e-12
3.2444293e-09
4.7136374e-12
3.2444913e-09
-4.455197e-12
3.2444325e-09
4.2205889e-12
3.244488e-09
-3.9967279e-12
3.2444354e-09
3.7890786e-12
3.2444853e-09
-3.5940891e-12
3.2444379e-09
3.411974e-12
3.2444829e-09
-3.242249e-12
3.2444401e-09
3.0836371e-12
3.2444809e-09
-2.9365137e-12
3.2444421e-09
2.7993546e-12
3.2444792e-09
-2.6726771e-12
3.2444437e-09
2.5550858e-12
3.2444777e-09
-2.447035e-12
3.2444451e-09
2.3473392e-12
3.2444764e-09
-2.2563588e-12
3.2444463e-09
2.1731043e-12
3.2444754e-09
-2.0978234e-12
3.2444472e-09
2.0298388e-12
3.2444745e-09
-1.9689161e-12
3.244448e-09
1.9149516e-12
3.2444739e-09
-1.8691039e-12
3.2444489e-09
1.821148e-12
3.2444746e-09
-1.802191e-12
3.2444515e-09
1.7628359e-12
3.2444712e-09
-1.6328194e-12
3.2444218e-09
2.2591498e-12
-1.4893794e-12
3.1129741e-09
2.7658342e-08
3.3646828e-09
-3.4911624e-09
3.3578486e-09
2.3513765e-09
3.3561418e-09
-2.3982325e-10
3.3878282e-09
2.8475912e-10
3.3974883e-09
-8.4215148e-11
3.3994249e-09
8.7031873e-11
3.4000088e-09
2.8249384e-11
3.4006363e-09
8.0196666e-12
3.3994493e-09
9.9832151e-12
3.4002462e-09
2.8539701e-12
3.3998844e-09
-4.4098433e-12
3.4000655e-09
6.160282e-12
3.4000695e-09
-7.1706641e-12
3.4000389e-09
7.2121196e-12
3.4000815e-09
-6.89147e-12
3.4000266e-09
6.7131327e-12
3.40007e-09
-6.2382836e-12
3.4000226e-09
5.9750698e-12
3.4000636e-09
-5.5975753e-12
3.4000226e-09
5.3190446e-12
3.40006e-09
-5.0116539e-12
3.400024e-09
4.7496594e-12
3.4000576e-09
-4.4888216e-12
3.4000256e-09
4.2525944e-12
3.4000558e-09
-4.0268968e-12
3.4000272e-09
3.8176939e-12
3.4000543e-09
-3.6211958e-12
3.4000286e-09
3.4376886e-12
3.400053e-09
-3.2666876e-12
3.4000298e-09
3.1068609e-12
3.4000519e-09
-2.9586478e-12
3.4000308e-09
2.8204423e-12
3.400051e-09
-2.6928341e-12
3.4000317e-09
2.5743497e-12
3.4000502e-09
-2.4655084e-12
3.4000325e-09
2.3650573e-12
3.4000495e-09
-2.2734116e-12
3.4000331e-09
2.1895249e-12
3.400049e-09
-2.1136899e-12
3.4000336e-09
2.0451869e-12
3.4000485e-09
-1.98379e-12
3.400034e-09
1.9294274e-12
3.4000481e-09
-1.8832002e-12
3.4000347e-09
1.8345723e-12
3.400049e-09
-1.8164747e-12
3.400037e-09
1.7748346e-12
3.4000465e-09
-1.6423875e-12
3.4000122e-09
2.2935009e-12
-1.4825963e-12
3.2749048e-09
2.7845062e-08
3.4835799e-09
-3.6998375e-09
3.5034162e-09
2.3315402e-09
3.499312e-09
-2.3571905e-10
3.535898e-09
2.4817308e-10
3.5452194e-09
-9.3536513e-11
3.5480991e-09
8.415216e-11
3.5490522e-09
2.7296191e-11
3.5495876e-09
7.4843479e-12
3.548516e-09
1.1054808e-11
3.5493894e-09
1.9805657e-12
3.5489522e-09
-3.9726454e-12
3.5491892e-09
5.9232803e-12
3.5491433e-09
-7.1247368e-12
3.5491581e-09
7.1972434e-12
3.549158e-09
-6.8913689e-12
3.5491437e-09
6.7274405e-12
3.5491488e-09
-6.2433225e-12
3.5491377e-09
5.9861251e-12
3.5491445e-09
-5.6043209e-12
3.549136e-09
5.3275614e-12
3.5491427e-09
-5.0184001e-12
3.5491357e-09
4.7567066e-12
3.5491419e-09
-4.4950447e-12
3.5491358e-09
4.2586628e-12
3.5491414e-09
-4.0325024e-12
3.5491361e-09
3.8230343e-12
3.5491411e-09
-3.6262272e-12
3.5491364e-09
3.4424542e-12
3.5491409e-09
-3.2712215e-12
3.5491366e-09
3.111159e-12
3.5491407e-09
-2.9627612e-12
3.5491368e-09
2.8243547e-12
3.5491406e-09
-2.6965949e-12
3.549137e-09
2.5779417e-12
3.5491404e-09
-2.4689742e-12
3.5491371e-09
2.3683821e-12
3.5491403e-09
-2.2766306e-12
3.5491372e-09
2.192625e-12
3.5491402e-09
-2.1166994e-12
3.5491373e-09
2.0480975e-12
3.5491401e-09
-1.986603e-12
3.5491374e-09
1.9321773e-12
3.54914e-09
-1.8858493e-12
3.5491377e-09
1.8368683e-12
3.549141e-09
-1.819726e-12
3.5491398e-09
1.7760743e-12
3.5491395e-09
-1.6421504e-12
3.54912e-09
2.3129996e-12
-1.4668551e-12
3.3960267e-09
2.791066e-08
3.5949407e-09
-3.8987514e-09
3.6434593e-09
2.2830216e-09
3.6389753e-09
-2.3123508e-10
3.678126e-09
2.090224e-10
3.6867905e-09
-1.0220102e-10
3.6903905e-09
8.055218e-11
3.6916146e-09
2.6072004e-11
3.6920488e-09
7.0502256e-12
3.6911383e-09
1.1965279e-11
3.6920435e-09
1.075312e-12
3.6915406e-09
-3.4696613e-12
3.6918302e-09
5.6336134e-12
3.6917354e-09
-7.029896e-12
3.691794e-09
7.1386732e-12
3.6917527e-09
-6.8500839e-12
3.6917776e-09
6.7025164e-12
3.6917457e-09
-6.2113923e-12
3.6917698e-09
5.9620801e-12
3.6917435e-09
-5.5780219e-12
3.6917662e-09
5.3047802e-12
3.6917435e-09
-4.9956101e-12
3.6917644e-09
4.7358022e-12
3.6917442e-09
-4.474839e-12
3.6917631e-09
4.2397133e-12
3.691745e-09
-4.0144164e-12
3.6917621e-09
3.8059253e-12
3.6917459e-09
-3.6099656e-12
3.6917613e-09
3.427013e-12
3.6917466e-09
-3.2565551e-12
3.6917606e-09
3.0972009e-12
3.6917473e-09
-2.9494903e-12
3.69176e-09
2.8116982e-12
3.6917479e-09
-2.6845371e-12
3.6917595e-09
2.5664139e-12
3.6917484e-09
-2.4579602e-12
3.691759e-09
2.3578192e-12
3.6917489e-09
-2.2665012e-12
3.6917586e-09
2.1828714e-12
3.6917492e-09
-2.107302e-12
3.6917583e-09
2.0390055e-12
3.6917495e-09
-1.9777768e-12
3.6917581e-09
1.9236104e-12
3.6917497e-09
-1.8774515e-12
3.6917581e-09
1.8284299e-12
3.6917507e-09
-1.8123142e-12
3.6917598e-09
1.7669594e-12
3.6917501e-09
-1.6324853e-12
3.6917453e-09
2.3178901e-12
-1.4428956e-12
3.5459905e-09
2.7826295e-08
3.7039331e-09
-4.056694e-09
3.7781054e-09
2.2088493e-09
3.7750102e-09
-2.2813985e-10
3.8143462e-09
1.6968634e-10
3.8221474e-09
-1.1000226e-10
3.8262819e-09
7.6417739e-11
3.827688e-09
2.4665872e-11
3.8280299e-09
6.7082862e-12
3.8273128e-09
1.268236e-11
3.8282028e-09
1.8531006e-13
3.827648e-09
-2.9148674e-12
3.8279885e-09
5.2931941e-12
3.8278458e-09
-6.8872191e-12
3.8279463e-09
7.0381845e-12
3.8278654e-09
-6.769221e-12
3.8279282e-09
6.6397945e-12
3.8278607e-09
-6.1439622e-12
3.8279186e-09
5.9042593e-12
3.8278605e-09
-5.5199765e-12
3.8279134e-09
5.2519056e-12
3.8278622e-09
-4.9444381e-12
3.82791e-09
4.6880307e-12
3.8278644e-09
-4.4292352e-12
3.8279074e-09
4.196719e-12
3.8278665e-09
-3.9735609e-12
3.8279052e-09
3.76724e-12
3.8278685e-09
-3.5732389e-12
3.8279034e-09
3.3921501e-12
3.8278702e-09
-3.2234335e-12
3.8279018e-09
3.0656947e-12
3.8278718e-09
-2.9195084e-12
3.8279004e-09
2.7831143e-12
3.8278731e-09
-2.6572725e-12
3.8278992e-09
2.5403503e-12
3.8278742e-09
-2.433025e-12
3.8278981e-09
2.3339041e-12
3.8278752e-09
-2.2435371e-12
3.8278973e-09
2.1607585e-12
3.827876e-09
-2.0859743e-12
3.8278966e-09
2.0183717e-12
3.8278766e-09
-1.9577579e-12
3.827896e-09
1.9041599e-12
3.827877e-09
-1.8584305e-12
3.8278958e-09
1.8096725e-12
3.8278781e-09
-1.7946321e-12
3.8278971e-09
1.747913e-12
3.8278784e-09
-1.6137839e-12
3.8278878e-09
2.3084899e-12
-1.411436e-12
3.6788285e-09
2.7609091e-08
3.8088872e-09
-4.1867527e-09
3.9077141e-09
2.1100223e-09
3.9062664e-09
-2.2669214e-10
3.9444709e-09
1.3148181e-10
3.9512572e-09
-1.1678849e-10
3.9557546e-09
7.1920322e-11
3.9572712e-09
2.3149239e-11
3.9575384e-09
6.4410074e-12
3.9570316e-09
1.3189204e-11
3.9578632e-09
-6.4634769e-13
3.9572732e-09
-2.3248106e-12
3.9576637e-09
4.9027331e-12
3.9574744e-09
-6.6979455e-12
3.957615e-09
6.8975773e-12
3.9574963e-09
-6.6504869e-12
3.9575953e-09
6.5407757e-12
3.9574939e-09
-6.0425841e-12
3.9575842e-09
5.814052e-12
3.9574957e-09
-5.4315488e-12
3.9575774e-09
5.1701998e-12
3.9574991e-09
-4.8660939e-12
3.9575726e-09
4.6145269e-12
3.9575027e-09
-4.3593116e-12
3.9575687e-09
4.1306977e-12
3.957506e-09
-3.9109009e-12
3.9575654e-09
3.7078915e-12
3.9575091e-09
-3.5169125e-12
3.9575625e-09
3.3386866e-12
3.9575117e-09
-3.172636e-12
3.95756e-09
3.0173811e-12
3.9575141e-09
-2.8735202e-12
3.9575579e-09
2.7392741e-12
3.9575161e-09
-2.6154409e-12
3.957556e-09
2.5003624e-12
3.9575178e-09
-2.3947533e-12
3.9575545e-09
2.2971971e-12
3.9575192e-09
-2.2082763e-12
3.9575532e-09