/*--------------------------------*- C++ -*----------------------------------*\
| =========                 |                                                 |
| \\      /  F ield         | OpenFOAM: The Open Source CFD Toolbox           |
|  \\    /   O peration     | Version:  2312                                  |
|   \\  /    A nd           | Website:  www.openfoam.com                      |
|    \\/     M anipulation  |                                                 |
\*---------------------------------------------------------------------------*/
FoamFile
{
    version     2.0;
    format      ascii;
    arch        "LSB;label=32;scalar=64";
    class       volSymmTensorField;
    location    "9";
    object      sigma;
}
// * * * * * * * * * * * * * * * * * * * * * * * * * * * * * * * * * * * * * //

dimensions      [0 2 -2 0 0 0 0];

internalField   nonuniform List<symmTensor> 
4000
(
(-3.8796444 -1.7738408 0 -0.75732344 0 0)
(-13.211134 -0.72093117 0 -0.012340948 0 0)
(-4.2927784 -0.37922087 0 -0.0024385377 0 0)
(-4.7247319 -0.3953368 0 0.00027184796 0 0)
(-4.2664009 -0.37781281 0 -0.00021094604 0 0)
(-4.1587689 -0.37221326 0 2.5839912e-05 0 0)
(-4.1928716 -0.37419157 0 -6.4549776e-05 0 0)
(-4.0633895 -0.36789738 0 1.3842328e-05 0 0)
(-4.1287938 -0.37117045 0 -3.3708562e-05 0 0)
(-4.0511968 -0.36732942 0 2.27867e-05 0 0)
(-4.1095788 -0.3702664 0 -2.5799959e-05 0 0)
(-4.0540898 -0.36747226 0 2.308754e-05 0 0)
(-4.1029493 -0.3699485 0 -2.2553577e-05 0 0)
(-4.057535 -0.3676435 0 2.112243e-05 0 0)
(-4.0994412 -0.36977477 0 -2.0094414e-05 0 0)
(-4.0601731 -0.36777734 0 1.8895401e-05 0 0)
(-4.096859 -0.36964453 0 -1.7887412e-05 0 0)
(-4.0623735 -0.36788969 0 1.6846753e-05 0 0)
(-4.094706 -0.36953541 0 -1.5931209e-05 0 0)
(-4.0643151 -0.36798861 0 1.503118e-05 0 0)
(-4.0928357 -0.36944071 0 -1.4216541e-05 0 0)
(-4.0660456 -0.36807644 0 1.3432816e-05 0 0)
(-4.0911845 -0.3693573 0 -1.2713055e-05 0 0)
(-4.0675916 -0.36815462 0 1.2027161e-05 0 0)
(-4.0897146 -0.36928324 0 -1.1393216e-05 0 0)
(-4.0689759 -0.36822442 0 1.0792041e-05 0 0)
(-4.0883993 -0.36921713 0 -1.0235244e-05 0 0)
(-4.070219 -0.36828693 0 9.7090165e-06 0 0)
(-4.0872179 -0.36915788 0 -9.2217788e-06 0 0)
(-4.0713384 -0.36834307 0 8.7627617e-06 0 0)
(-4.0861529 -0.3691046 0 -8.338537e-06 0 0)
(-4.0723495 -0.36839365 0 7.9403192e-06 0 0)
(-4.0851896 -0.36905653 0 -7.5734394e-06 0 0)
(-4.0732663 -0.36843937 0 7.2305642e-06 0 0)
(-4.0843145 -0.369013 0 -6.9161079e-06 0 0)
(-4.0741012 -0.36848084 0 6.6238857e-06 0 0)
(-4.0835157 -0.36897343 0 -6.3576e-06 0 0)
(-4.0748657 -0.36851865 0 6.1120189e-06 0 0)
(-4.082782 -0.36893725 0 -5.8902896e-06 0 0)
(-4.0755705 -0.36855332 0 5.6879762e-06 0 0)
(-4.082103 -0.36890397 0 -5.5078337e-06 0 0)
(-4.0762255 -0.36858532 0 5.3461383e-06 0 0)
(-4.0814692 -0.36887312 0 -5.2050293e-06 0 0)
(-4.0768406 -0.36861514 0 5.0828283e-06 0 0)
(-4.0808737 -0.36884437 0 -4.97839e-06 0 0)
(-4.0774274 -0.36864334 0 4.8924831e-06 0 0)
(-4.0803017 -0.36881714 0 -4.8464493e-06 0 0)
(-4.0779382 -0.36866807 0 4.7217895e-06 0 0)
(-4.0795284 -0.36878201 0 -4.9489666e-06 0 0)
(-4.0777748 -0.36866061 0 4.7813564e-06 0 0)
(-3.4205992 -1.6494957 0 -0.72805591 0 0)
(-10.791524 -0.70109347 0 -0.026919503 0 0)
(-5.0735482 -0.43140631 0 -0.0072330828 0 0)
(-4.377264 -0.37881185 0 0.00026627749 0 0)
(-3.9651571 -0.36568858 0 -0.00053053497 0 0)
(-3.8366981 -0.3575578 0 3.0861626e-06 0 0)
(-3.8806626 -0.36034461 0 -0.00012152393 0 0)
(-3.7706514 -0.35442805 0 -2.0147155e-05 0 0)
(-3.82311 -0.35726902 0 -4.5454785e-05 0 0)
(-3.7576301 -0.35372599 0 1.6007273e-05 0 0)
(-3.8054878 -0.35636092 0 -2.8298383e-05 0 0)
(-3.7591211 -0.35380013 0 2.3174626e-05 0 0)
(-3.7998097 -0.35606825 0 -2.411114e-05 0 0)
(-3.7618161 -0.35394539 0 2.2428262e-05 0 0)
(-3.7969245 -0.35591339 0 -2.1641391e-05 0 0)
(-3.7639784 -0.35406574 0 2.0289854e-05 0 0)
(-3.7947797 -0.35579494 0 -1.9316518e-05 0 0)
(-3.7658042 -0.35416841 0 1.8147291e-05 0 0)
(-3.7929741 -0.35569443 0 -1.7204031e-05 0 0)
(-3.7674252 -0.35425944 0 1.6212303e-05 0 0)
(-3.7914005 -0.35560682 0 -1.5349896e-05 0 0)
(-3.7688752 -0.35434059 0 1.4496712e-05 0 0)
(-3.7900091 -0.35552948 0 -1.3725938e-05 0 0)
(-3.7701735 -0.35441303 0 1.298325e-05 0 0)
(-3.7887692 -0.35546069 0 -1.2301009e-05 0 0)
(-3.7713378 -0.35447782 0 1.165145e-05 0 0)
(-3.7876589 -0.35539921 0 -1.1051e-05 0 0)
(-3.772384 -0.3545359 0 1.0482939e-05 0 0)
(-3.7866612 -0.35534408 0 -9.9571219e-06 0 0)
(-3.7733266 -0.35458809 0 9.4618762e-06 0 0)
(-3.7857617 -0.35529449 0 -9.0040335e-06 0 0)
(-3.7741783 -0.35463512 0 8.5745939e-06 0 0)
(-3.7849479 -0.35524974 0 -8.1787662e-06 0 0)
(-3.7749508 -0.35467763 0 7.8092281e-06 0 0)
(-3.7842085 -0.35520923 0 -7.4701716e-06 0 0)
(-3.7756546 -0.3547162 0 7.1554917e-06 0 0)
(-3.7835332 -0.35517239 0 -6.8686679e-06 0 0)
(-3.7762996 -0.35475137 0 6.6045691e-06 0 0)
(-3.7829126 -0.3551387 0 -6.3661643e-06 0 0)
(-3.7768948 -0.35478363 0 6.149101e-06 0 0)
(-3.7823379 -0.35510771 0 -5.9561113e-06 0 0)
(-3.7774485 -0.35481342 0 5.7834651e-06 0 0)
(-3.7818008 -0.35507897 0 -5.6331628e-06 0 0)
(-3.7779691 -0.35484117 0 5.5055895e-06 0 0)
(-3.7812952 -0.35505214 0 -5.393325e-06 0 0)
(-3.7784678 -0.35486749 0 5.3100359e-06 0 0)
(-3.7808154 -0.35502717 0 -5.2821426e-06 0 0)
(-3.778928 -0.35489231 0 5.0627142e-06 0 0)
(-3.7802213 -0.35499962 0 -5.7211288e-06 0 0)
(-3.7789108 -0.35489169 0 5.0874627e-06 0 0)
(-3.1622194 -1.5373073 0 -0.66600372 0 0)
(-8.9655755 -0.64185121 0 -0.03078495 0 0)
(-5.0306641 -0.44506104 0 -0.010976468 0 0)
(-4.2565934 -0.37330644 0 1.8606039e-05 0 0)
(-3.775642 -0.35759057 0 -0.00079254274 0 0)
(-3.6310726 -0.34782438 0 -1.547597e-05 0 0)
(-3.6738078 -0.35083651 0 -0.00015573966 0 0)
(-3.5784153 -0.34532451 0 -4.9457753e-05 0 0)
(-3.6249942 -0.3479555 0 -5.1343699e-05 0 0)
(-3.5668081 -0.34460793 0 7.859588e-06 0 0)
(-3.6088568 -0.34706358 0 -2.7593297e-05 0 0)
(-3.5677471 -0.34464892 0 2.0713079e-05 0 0)
(-3.6036986 -0.34678485 0 -2.2826263e-05 0 0)
(-3.5700456 -0.34478031 0 2.109704e-05 0 0)
(-3.6011523 -0.34664096 0 -2.0575228e-05 0 0)
(-3.5719462 -0.344893 0 1.9235712e-05 0 0)
(-3.5992645 -0.34653007 0 -1.8396358e-05 0 0)
(-3.5735597 -0.34498973 0 1.7239582e-05 0 0)
(-3.5976689 -0.34643532 0 -1.6380118e-05 0 0)
(-3.5749953 -0.34507572 0 1.5416014e-05 0 0)
(-3.5962757 -0.34635253 0 -1.4610626e-05 0 0)
(-3.5762818 -0.34515255 0 1.3790652e-05 0 0)
(-3.5950425 -0.34627932 0 -1.3063073e-05 0 0)
(-3.5774351 -0.34522125 0 1.2353019e-05 0 0)
(-3.5939428 -0.34621413 0 -1.1705997e-05 0 0)
(-3.5784702 -0.34528276 0 1.1086311e-05 0 0)
(-3.5929577 -0.34615582 0 -1.0515706e-05 0 0)
(-3.5794008 -0.34533795 0 9.9742499e-06 0 0)
(-3.5920722 -0.34610349 0 -9.4741513e-06 0 0)
(-3.5802393 -0.34538756 0 9.0023036e-06 0 0)
(-3.5912738 -0.34605641 0 -8.5667335e-06 0 0)
(-3.580997 -0.34543227 0 8.157703e-06 0 0)
(-3.5905515 -0.34601393 0 -7.7811362e-06 0 0)
(-3.5816841 -0.3454727 0 7.4292659e-06 0 0)
(-3.5898952 -0.34597544 0 -7.1067819e-06 0 0)
(-3.5823102 -0.34550939 0 6.8072731e-06 0 0)
(-3.5892957 -0.34594044 0 -6.5346084e-06 0 0)
(-3.582884 -0.34554285 0 6.283428e-06 0 0)
(-3.5887447 -0.34590842 0 -6.0570384e-06 0 0)
(-3.5834134 -0.34557355 0 5.8508924e-06 0 0)
(-3.5882342 -0.34587894 0 -5.6681101e-06 0 0)
(-3.5839061 -0.34560192 0 5.5046856e-06 0 0)
(-3.5877569 -0.34585158 0 -5.3630741e-06 0 0)
(-3.5843694 -0.34562837 0 5.2444282e-06 0 0)
(-3.5873071 -0.345826 0 -5.1377151e-06 0 0)
(-3.5848136 -0.34565345 0 5.0677449e-06 0 0)
(-3.5868813 -0.34580229 0 -5.0497456e-06 0 0)
(-3.585231 -0.34567776 0 4.8031703e-06 0 0)
(-3.5863694 -0.34577813 0 -5.6930744e-06 0 0)
(-3.5852763 -0.3456787 0 5.2029662e-06 0 0)
(-2.9415754 -1.4318219 0 -0.60796509 0 0)
(-7.9444391 -0.61305788 0 -0.034411494 0 0)
(-4.9351328 -0.45599529 0 -0.014747177 0 0)
(-4.1481512 -0.36815487 0 -0.00020440567 0 0)
(-3.6077699 -0.35030034 0 -0.0011248215 0 0)
(-3.4364276 -0.33829555 0 -4.117171e-05 0 0)
(-3.4737958 -0.34133291 0 -0.00019078773 0 0)
(-3.3903402 -0.33620831 0 -8.278544e-05 0 0)
(-3.4326175 -0.33864199 0 -5.4855217e-05 0 0)
(-3.3804971 -0.33549083 0 -3.1087886e-06 0 0)
(-3.4179392 -0.33777089 0 -2.4684572e-05 0 0)
(-3.3810362 -0.33549798 0 1.6136624e-05 0 0)
(-3.4132014 -0.33750484 0 -1.9566456e-05 0 0)
(-3.3829911 -0.33561482 0 1.7940598e-05 0 0)
(-3.4109161 -0.3373712 0 -1.7778703e-05 0 0)
(-3.384674 -0.33571985 0 1.6560307e-05 0 0)
(-3.4092294 -0.33726746 0 -1.5946432e-05 0 0)
(-3.3861164 -0.3358108 0 1.4889046e-05 0 0)
(-3.407798 -0.33717813 0 -1.4194688e-05 0 0)
(-3.3874029 -0.33589189 0 1.3333752e-05 0 0)
(-3.4065454 -0.33709983 0 -1.2655768e-05 0 0)
(-3.3885574 -0.3359645 0 1.1935569e-05 0 0)
(-3.4054358 -0.33703051 0 -1.1312487e-05 0 0)
(-3.3895934 -0.33602952 0 1.0693688e-05 0 0)
(-3.4044459 -0.33696873 0 -1.0135594e-05 0 0)
(-3.3905236 -0.3360878 0 9.5973111e-06 0 0)
(-3.4035592 -0.33691343 0 -9.1036711e-06 0 0)
(-3.39136 -0.3361401 0 8.6339942e-06 0 0)
(-3.4027623 -0.3368638 0 -8.2008612e-06 0 0)
(-3.3921135 -0.33618714 0 7.7918423e-06 0 0)
(-3.402044 -0.33681914 0 -7.4144708e-06 0 0)
(-3.3927943 -0.33622954 0 7.0600539e-06 0 0)
(-3.4013943 -0.33677882 0 -6.7338071e-06 0 0)
(-3.3934115 -0.33626788 0 6.4290221e-06 0 0)
(-3.4008043 -0.33674229 0 -6.1496868e-06 0 0)
(-3.3939738 -0.33630269 0 5.8903516e-06 0 0)
(-3.4002655 -0.33670906 0 -5.6542597e-06 0 0)
(-3.3944889 -0.33633446 0 5.4368897e-06 0 0)
(-3.3997704 -0.33667864 0 -5.2410161e-06 0 0)
(-3.3949641 -0.33636362 0 5.0627914e-06 0 0)
(-3.3993119 -0.33665062 0 -4.9049605e-06 0 0)
(-3.3954062 -0.3363906 0 4.7639719e-06 0 0)
(-3.3988834 -0.33662458 0 -4.6420328e-06 0 0)
(-3.3958217 -0.33641575 0 4.5416287e-06 0 0)
(-3.3984795 -0.33660019 0 -4.447216e-06 0 0)
(-3.3962202 -0.33643964 0 4.3952159e-06 0 0)
(-3.3980987 -0.33657768 0 -4.3891723e-06 0 0)
(-3.3966013 -0.33646346 0 4.1006716e-06 0 0)
(-3.3976582 -0.33655668 0 -5.2429684e-06 0 0)
(-3.3967027 -0.33646633 0 4.7873294e-06 0 0)
(-2.9228744 -1.3976056 0 -0.57646407 0 0)
(-6.9359785 -0.57690925 0 -0.036655572 0 0)
(-4.7322801 -0.46042298 0 -0.018034933 0 0)
(-4.0213556 -0.36275245 0 -0.00048197013 0 0)
(-3.4508783 -0.34325483 0 -0.0014842313 0 0)
(-3.2521324 -0.32891419 0 -6.5065203e-05 0 0)
(-3.279689 -0.33176817 0 -0.00022068849 0 0)
(-3.2063968 -0.32702583 0 -0.00011059788 0 0)
(-3.2454384 -0.32931306 0 -5.7031414e-05 0 0)
(-3.1987051 -0.32635492 0 -1.289906e-05 0 0)
(-3.2324035 -0.32848285 0 -2.1889618e-05 0 0)
(-3.1990907 -0.32633911 0 1.1982966e-05 0 0)
(-3.2280789 -0.32823027 0 -1.6490827e-05 0 0)
(-3.2007722 -0.32644363 0 1.5022045e-05 0 0)
(-3.226013 -0.32810587 0 -1.514135e-05 0 0)
(-3.202272 -0.32654193 0 1.4054323e-05 0 0)
(-3.2244952 -0.32800861 0 -1.363637e-05 0 0)
(-3.2035715 -0.32662778 0 1.2676421e-05 0 0)
(-3.2232032 -0.32792421 0 -1.2133516e-05 0 0)
(-3.2047334 -0.32670451 0 1.1370399e-05 0 0)
(-3.22207 -0.32785001 0 -1.0811213e-05 0 0)
(-3.2057773 -0.32677334 0 1.0185101e-05 0 0)
(-3.2210652 -0.32778423 0 -9.660048e-06 0 0)
(-3.2067147 -0.32683505 0 9.1272814e-06 0 0)
(-3.2201688 -0.32772556 0 -8.6528923e-06 0 0)
(-3.2075565 -0.32689039 0 8.1913966e-06 0 0)
(-3.2193659 -0.32767304 0 -7.770351e-06 0 0)
(-3.2083133 -0.32694007 0 7.3684059e-06 0 0)
(-3.2186445 -0.32762589 0 -6.9985033e-06 0 0)
(-3.208995 -0.32698476 0 6.6487667e-06 0 0)
(-3.2179945 -0.32758346 0 -6.3263643e-06 0 0)
(-3.2096106 -0.32702504 0 6.0234524e-06 0 0)
(-3.2174069 -0.32754515 0 -5.7447171e-06 0 0)
(-3.2101686 -0.32706147 0 5.4842941e-06 0 0)
(-3.2168734 -0.32751045 0 -5.2456565e-06 0 0)
(-3.2106767 -0.32709455 0 5.0241095e-06 0 0)
(-3.2163865 -0.32747886 0 -4.822441e-06 0 0)
(-3.2111419 -0.32712475 0 4.6367828e-06 0 0)
(-3.2159394 -0.32744995 0 -4.4695137e-06 0 0)
(-3.2115709 -0.32715248 0 4.317333e-06 0 0)
(-3.2155255 -0.32742329 0 -4.1826878e-06 0 0)
(-3.2119698 -0.32717815 0 4.0623566e-06 0 0)
(-3.2151389 -0.3273985 0 -3.9583799e-06 0 0)
(-3.2123445 -0.3272021 0 3.8741002e-06 0 0)
(-3.2147746 -0.32737525 0 -3.7902709e-06 0 0)
(-3.2127033 -0.32722484 0 3.7536145e-06 0 0)
(-3.2144322 -0.32735382 0 -3.7521112e-06 0 0)
(-3.2130508 -0.32724803 0 3.4306358e-06 0 0)
(-3.2140495 -0.32733529 0 -4.7550443e-06 0 0)
(-3.2131905 -0.3272525 0 4.3346613e-06 0 0)
(-2.788784 -1.2850663 0 -0.50154198 0 0)
(-5.9306734 -0.53852632 0 -0.037120081 0 0)
(-4.4509974 -0.45722913 0 -0.020173052 0 0)
(-3.8461593 -0.3562858 0 -0.00097407063 0 0)
(-3.3027552 -0.33699074 0 -0.001956165 0 0)
(-3.0810056 -0.31995636 0 -0.00010886955 0 0)
(-3.094156 -0.32230699 0 -0.00025401058 0 0)
(-3.0275761 -0.31781763 0 -0.00013418253 0 0)
(-3.0636971 -0.31998074 0 -5.8564762e-05 0 0)
(-3.0217285 -0.31720842 0 -2.1152484e-05 0 0)
(-3.0521808 -0.31919918 0 -1.9636052e-05 0 0)
(-3.0220459 -0.31717566 0 8.5896684e-06 0 0)
(-3.0482429 -0.31895989 0 -1.396673e-05 0 0)
(-3.0234943 -0.31726908 0 1.2670033e-05 0 0)
(-3.0463651 -0.31884374 0 -1.2985269e-05 0 0)
(-3.024831 -0.31736119 0 1.2018948e-05 0 0)
(-3.0449931 -0.31875238 0 -1.1752264e-05 0 0)
(-3.0260046 -0.31744237 0 1.0871513e-05 0 0)
(-3.043823 -0.31867252 0 -1.0451637e-05 0 0)
(-3.0270572 -0.31751509 0 9.7669279e-06 0 0)
(-3.042795 -0.31860213 0 -9.3047659e-06 0 0)
(-3.0280037 -0.31758041 0 8.7548206e-06 0 0)
(-3.0418828 -0.31853965 0 -8.3096825e-06 0 0)
(-3.028854 -0.31763902 0 7.8470556e-06 0 0)
(-3.0410688 -0.3184839 0 -7.4408615e-06 0 0)
(-3.0296177 -0.3176916 0 7.0421997e-06 0 0)
(-3.04034 -0.31843399 0 -6.6803176e-06 0 0)
(-3.0303041 -0.31773881 0 6.3338936e-06 0 0)
(-3.0396854 -0.31838918 0 -6.0155452e-06 0 0)
(-3.0309222 -0.31778127 0 5.7144346e-06 0 0)
(-3.0390958 -0.31834886 0 -5.4368578e-06 0 0)
(-3.0314802 -0.31781955 0 5.1761923e-06 0 0)
(-3.038563 -0.31831246 0 -4.9361933e-06 0 0)
(-3.0319858 -0.31785417 0 4.7121414e-06 0 0)
(-3.0380796 -0.31827948 0 -4.5066655e-06 0 0)
(-3.032446 -0.3178856 0 4.3160732e-06 0 0)
(-3.0376386 -0.31824946 0 -4.1424219e-06 0 0)
(-3.0328672 -0.31791431 0 3.9827015e-06 0 0)
(-3.0372337 -0.31822196 0 -3.8386617e-06 0 0)
(-3.0332554 -0.31794068 0 3.707721e-06 0 0)
(-3.0368592 -0.31819661 0 -3.5918173e-06 0 0)
(-3.0336162 -0.3179651 0 3.4882102e-06 0 0)
(-3.0365095 -0.31817302 0 -3.3986239e-06 0 0)
(-3.0339548 -0.31798789 0 3.327101e-06 0 0)
(-3.0361801 -0.31815087 0 -3.2513595e-06 0 0)
(-3.0342788 -0.31800952 0 3.2269403e-06 0 0)
(-3.0358714 -0.31813046 0 -3.2257331e-06 0 0)
(-3.0345957 -0.31803201 0 2.8776241e-06 0 0)
(-3.035538 -0.31811398 0 -4.3297361e-06 0 0)
(-3.0347614 -0.31803792 0 3.925595e-06 0 0)
(-2.8205121 -1.2649413 0 -0.48069703 0 0)
(-4.9656168 -0.51387179 0 -0.041236402 0 0)
(-4.1786424 -0.45549576 0 -0.021941269 0 0)
(-3.5777676 -0.34674257 0 -0.0018656981 0 0)
(-3.1099687 -0.32872672 0 -0.0024049122 0 0)
(-2.9058264 -0.31066662 0 -0.00014203255 0 0)
(-2.912069 -0.31273173 0 -0.00028193194 0 0)
(-2.8531191 -0.3085613 0 -0.00015115745 0 0)
(-2.8868809 -0.31062793 0 -5.9244848e-05 0 0)
(-2.8494404 -0.30804646 0 -2.7984219e-05 0 0)
(-2.8771313 -0.30991545 0 -1.7728164e-05 0 0)
(-2.8498999 -0.30800753 0 5.7608361e-06 0 0)
(-2.8736306 -0.30969179 0 -1.1828336e-05 0 0)
(-2.8511839 -0.30809204 0 1.0722419e-05 0 0)
(-2.8719329 -0.3095836 0 -1.1164889e-05 0 0)
(-2.8523812 -0.30817858 0 1.0316745e-05 0 0)
(-2.8706913 -0.30949777 0 -1.0165899e-05 0 0)
(-2.8534434 -0.30825544 0 9.3538462e-06 0 0)
(-2.8696303 -0.30942221 0 -9.0358937e-06 0 0)
(-2.8543986 -0.30832439 0 8.4165808e-06 0 0)
(-2.8686965 -0.30935542 0 -8.0360861e-06 0 0)
(-2.855258 -0.30838637 0 7.5497868e-06 0 0)
(-2.8678675 -0.30929609 0 -7.1720236e-06 0 0)
(-2.8560302 -0.30844202 0 6.7682952e-06 0 0)
(-2.8671278 -0.30924315 0 -6.4195975e-06 0 0)
(-2.8567236 -0.30849195 0 6.0738538e-06 0 0)
(-2.8664655 -0.30919574 0 -5.7618632e-06 0 0)
(-2.8573467 -0.30853679 0 5.4622613e-06 0 0)
(-2.865871 -0.30915319 0 -5.1873936e-06 0 0)
(-2.8579077 -0.3085771 0 4.9273086e-06 0 0)
(-2.8653357 -0.3091149 0 -4.6875358e-06 0 0)
(-2.858414 -0.30861345 0 4.4625123e-06 0 0)
(-2.8648523 -0.30908034 0 -4.2551748e-06 0 0)
(-2.8588726 -0.30864632 0 4.0617995e-06 0 0)
(-2.8644137 -0.30904902 0 -3.8842744e-06 0 0)
(-2.8592898 -0.30867617 0 3.7197781e-06 0 0)
(-2.8640137 -0.30902051 0 -3.5697281e-06 0 0)
(-2.8596716 -0.30870344 0 3.4318582e-06 0 0)
(-2.8636467 -0.30899439 0 -3.3073666e-06 0 0)
(-2.8600233 -0.30872849 0 3.1942957e-06 0 0)
(-2.8633074 -0.30897029 0 -3.0941298e-06 0 0)
(-2.8603501 -0.30875171 0 3.0045435e-06 0 0)
(-2.8629907 -0.30894786 0 -2.9270162e-06 0 0)
(-2.8606566 -0.30877338 0 2.8660082e-06 0 0)
(-2.8626925 -0.30892677 0 -2.7970302e-06 0 0)
(-2.8609494 -0.30879394 0 2.7828459e-06 0 0)
(-2.8624135 -0.30890735 0 -2.7797921e-06 0 0)
(-2.8612384 -0.30881564 0 2.4129015e-06 0 0)
(-2.8621226 -0.30889257 0 -3.946102e-06 0 0)
(-2.8614209 -0.30882282 0 3.5528301e-06 0 0)
(-2.7796688 -1.188597 0 -0.43020467 0 0)
(-3.9893538 -0.4790236 0 -0.04383805 0 0)
(-3.8386265 -0.43997273 0 -0.021145992 0 0)
(-3.3531592 -0.34658572 0 -0.0045705972 0 0)
(-2.9559022 -0.32310592 0 -0.0031008944 0 0)
(-2.7458209 -0.30202225 0 -0.00023499439 0 0)
(-2.7409176 -0.30342955 0 -0.00032420319 0 0)
(-2.6841199 -0.29929042 0 -0.00016626516 0 0)
(-2.715676 -0.30127895 0 -5.8987111e-05 0 0)
(-2.6821339 -0.29887622 0 -3.3553544e-05 0 0)
(-2.707341 -0.30063419 0 -1.5965508e-05 0 0)
(-2.6827189 -0.29883629 0 3.3334742e-06 0 0)
(-2.7042384 -0.30042619 0 -9.9407603e-06 0 0)
(-2.6838664 -0.2989131 0 9.0381317e-06 0 0)
(-2.7027024 -0.30032528 0 -9.5609843e-06 0 0)
(-2.6849398 -0.29899443 0 8.8299585e-06 0 0)
(-2.7015763 -0.30024456 0 -8.7698854e-06 0 0)
(-2.6859018 -0.29906722 0 8.0212161e-06 0 0)
(-2.7006128 -0.30017306 0 -7.7905663e-06 0 0)
(-2.6867694 -0.29913259 0 7.2289193e-06 0 0)
(-2.6997639 -0.30010973 0 -6.9199647e-06 0 0)
(-2.6875503 -0.29919139 0 6.4894671e-06 0 0)
(-2.69901 -0.30005343 0 -6.1710233e-06 0 0)
(-2.6882519 -0.29924419 0 5.8190313e-06 0 0)
(-2.6983374 -0.30000317 0 -5.5210122e-06 0 0)
(-2.6888818 -0.29929157 0 5.2218273e-06 0 0)
(-2.6977355 -0.29995819 0 -4.9538238e-06 0 0)
(-2.6894478 -0.29933411 0 4.695445e-06 0 0)
(-2.6971953 -0.29991782 0 -4.4589094e-06 0 0)
(-2.6899571 -0.29937235 0 4.2349472e-06 0 0)
(-2.6967092 -0.2998815 0 -4.0284928e-06 0 0)
(-2.6904167 -0.29940683 0 3.8348458e-06 0 0)
(-2.6962702 -0.29984871 0 -3.656284e-06 0 0)
(-2.6908328 -0.29943801 0 3.4899057e-06 0 0)
(-2.6958721 -0.299819 0 -3.3369964e-06 0 0)
(-2.6912113 -0.29946633 0 3.1954576e-06 0 0)
(-2.6955092 -0.29979194 0 -3.066184e-06 0 0)
(-2.6915576 -0.29949221 0 2.9475276e-06 0 0)
(-2.6951763 -0.29976715 0 -2.8402339e-06 0 0)
(-2.6918765 -0.29951599 0 2.7428652e-06 0 0)
(-2.6948686 -0.29974427 0 -2.6565278e-06 0 0)
(-2.6921727 -0.29953804 0 2.5792396e-06 0 0)
(-2.6945816 -0.29972296 0 -2.5123124e-06 0 0)
(-2.6924503 -0.29955863 0 2.4603844e-06 0 0)
(-2.6943113 -0.2997029 0 -2.3975295e-06 0 0)
(-2.6927151 -0.29957815 0 2.392121e-06 0 0)
(-2.6940589 -0.29968442 0 -2.3863592e-06 0 0)
(-2.6929785 -0.29959903 0 2.0077188e-06 0 0)
(-2.6938048 -0.29967108 0 -3.5839033e-06 0 0)
(-2.6931712 -0.29960729 0 3.2036908e-06 0 0)
(-2.8509099 -1.1192486 0 -0.37424266 0 0)
(-3.3297056 -0.46554748 0 -0.048529305 0 0)
(-3.5056058 -0.4185818 0 -0.019354763 0 0)
(-3.0488314 -0.33741586 0 -0.0063746532 0 0)
(-2.7642822 -0.31382314 0 -0.0033565149 0 0)
(-2.5748541 -0.29248626 0 -0.00028929122 0 0)
(-2.5691156 -0.29379736 0 -0.00035036962 0 0)
(-2.5200652 -0.2900116 0 -0.00017448716 0 0)
(-2.5492652 -0.29190663 0 -5.8065019e-05 0 0)
(-2.5195848 -0.28969131 0 -3.7879577e-05 0 0)
(-2.5426586 -0.29135104 0 -1.4275805e-05 0 0)
(-2.5204579 -0.28966009 0 1.2490103e-06 0 0)
(-2.5400181 -0.2911619 0 -8.2410545e-06 0 0)
(-2.5215394 -0.28973183 0 7.562127e-06 0 0)
(-2.5386522 -0.29106848 0 -8.1234106e-06 0 0)
(-2.5225148 -0.28980869 0 7.5115804e-06 0 0)
(-2.5376349 -0.29099267 0 -7.5205349e-06 0 0)
(-2.5233892 -0.28987772 0 6.8328879e-06 0 0)
(-2.5367605 -0.29092505 0 -6.6771245e-06 0 0)
(-2.5241783 -0.28993971 0 6.1679199e-06 0 0)
(-2.5359888 -0.29086503 0 -5.9222942e-06 0 0)
(-2.5248882 -0.28999547 0 5.5417824e-06 0 0)
(-2.5353032 -0.29081164 0 -5.2763204e-06 0 0)
(-2.5255259 -0.29004553 0 4.9705928e-06 0 0)
(-2.5346916 -0.29076399 0 -4.7179419e-06 0 0)
(-2.5260982 -0.29009045 0 4.4604008e-06 0 0)
(-2.5341445 -0.29072134 0 -4.231792e-06 0 0)
(-2.5266122 -0.29013076 0 4.0102854e-06 0 0)
(-2.5336537 -0.29068307 0 -3.8080741e-06 0 0)
(-2.5270747 -0.29016701 0 3.6164136e-06 0 0)
(-2.5332121 -0.29064865 0 -3.4397826e-06 0 0)
(-2.5274919 -0.29019968 0 3.2741822e-06 0 0)
(-2.5328135 -0.29061757 0 -3.1213664e-06 0 0)
(-2.5278695 -0.29022923 0 2.9791104e-06 0 0)
(-2.5324521 -0.29058941 0 -2.848216e-06 0 0)
(-2.528213 -0.29025608 0 2.727182e-06 0 0)
(-2.5321228 -0.29056375 0 -2.616482e-06 0 0)
(-2.5285271 -0.29028061 0 2.5149783e-06 0 0)
(-2.5318208 -0.29054024 0 -2.4230505e-06 0 0)
(-2.5288164 -0.29030318 0 2.3396915e-06 0 0)
(-2.5315417 -0.29051854 0 -2.2656944e-06 0 0)
(-2.5290849 -0.29032409 0 2.1993648e-06 0 0)
(-2.5312815 -0.29049832 0 -2.1419017e-06 0 0)
(-2.5293364 -0.29034364 0 2.0979331e-06 0 0)
(-2.5310365 -0.29047925 0 -2.0407772e-06 0 0)
(-2.529576 -0.29036215 0 2.0428352e-06 0 0)
(-2.5308079 -0.29046167 0 -2.0340602e-06 0 0)
(-2.529816 -0.29038217 0 1.6497789e-06 0 0)
(-2.5305858 -0.29044955 0 -3.2367074e-06 0 0)
(-2.5300136 -0.29039135 0 2.8760709e-06 0 0)
(-2.8627787 -1.1044162 0 -0.36407668 0 0)
(-2.853945 -0.4265507 0 -0.046393782 0 0)
(-3.1924136 -0.41126292 0 -0.023095996 0 0)
(-2.7684384 -0.33022332 0 -0.0086951816 0 0)
(-2.6015332 -0.30566967 0 -0.0035238448 0 0)
(-2.4229527 -0.2839475 0 -0.00045572097 0 0)
(-2.4098481 -0.28453395 0 -0.00039384503 0 0)
(-2.3615712 -0.28070944 0 -0.00017938962 0 0)
(-2.3886603 -0.28254371 0 -5.4756304e-05 0 0)
(-2.3621484 -0.28049775 0 -4.0424537e-05 0 0)
(-2.3832439 -0.28206981 0 -1.2328929e-05 0 0)
(-2.3632088 -0.28048069 0 -4.4079499e-07 0 0)
(-2.3809904 -0.2818996 0 -6.6704566e-06 0 0)
(-2.3642308 -0.28054872 0 6.2718141e-06 0 0)
(-2.3797778 -0.28181329 0 -6.8271485e-06 0 0)
(-2.3651198 -0.28062152 0 6.337367e-06 0 0)
(-2.3788591 -0.28174208 0 -6.397391e-06 0 0)
(-2.3659155 -0.280687 0 5.7685514e-06 0 0)
(-2.3780655 -0.28167816 0 -5.6772612e-06 0 0)
(-2.3666332 -0.28074578 0 5.2160837e-06 0 0)
(-2.3773643 -0.28162131 0 -5.0267706e-06 0 0)
(-2.3672786 -0.28079862 0 4.691307e-06 0 0)
(-2.3767409 -0.28157072 0 -4.4733845e-06 0 0)
(-2.3678579 -0.28084604 0 4.2092356e-06 0 0)
(-2.376185 -0.28152558 0 -3.9973781e-06 0 0)
(-2.3683777 -0.28088858 0 3.7772495e-06 0 0)
(-2.3756879 -0.28148519 0 -3.5840682e-06 0 0)
(-2.3688445 -0.28092676 0 3.3956772e-06 0 0)
(-2.375242 -0.28144895 0 -3.2243219e-06 0 0)
(-2.3692643 -0.28096108 0 3.0616594e-06 0 0)
(-2.3748411 -0.28141635 0 -2.911825e-06 0 0)
(-2.3696429 -0.28099202 0 2.7713912e-06 0 0)
(-2.3744792 -0.28138692 0 -2.6416974e-06 0 0)
(-2.3699856 -0.28102 0 2.5210779e-06 0 0)
(-2.3741512 -0.28136025 0 -2.4099466e-06 0 0)
(-2.3702971 -0.28104543 0 2.3072979e-06 0 0)
(-2.3738524 -0.28133595 0 -2.2132652e-06 0 0)
(-2.370582 -0.28106867 0 2.1271354e-06 0 0)
(-2.3735784 -0.28131367 0 -2.0489899e-06 0 0)
(-2.3708443 -0.28109005 0 1.978182e-06 0 0)
(-2.3733253 -0.2812931 0 -1.9152412e-06 0 0)
(-2.3710878 -0.28110988 0 1.8587217e-06 0 0)
(-2.3730894 -0.28127392 0 -1.8097419e-06 0 0)
(-2.3713157 -0.28112841 0 1.7727806e-06 0 0)
(-2.3728673 -0.28125583 0 -1.7209906e-06 0 0)
(-2.3715324 -0.28114596 0 1.7292783e-06 0 0)
(-2.3726602 -0.28123911 0 -1.7175568e-06 0 0)
(-2.3717509 -0.28116509 0 1.3329107e-06 0 0)
(-2.3724662 -0.28122802 0 -2.9030935e-06 0 0)
(-2.3719496 -0.28117505 0 2.5704876e-06 0 0)
(-2.9886181 -1.0182705 0 -0.2966683 0 0)
(-2.5392884 -0.41202761 0 -0.045702236 0 0)
(-2.9093012 -0.39392774 0 -0.022645874 0 0)
(-2.5200413 -0.31741592 0 -0.0090695528 0 0)
(-2.4273593 -0.2946232 0 -0.0031942572 0 0)
(-2.2675128 -0.27471689 0 -0.00056559497 0 0)
(-2.2526867 -0.27499308 0 -0.00040670085 0 0)
(-2.2087491 -0.27140675 0 -0.00017347085 0 0)
(-2.2332696 -0.27316476 0 -4.887435e-05 0 0)
(-2.2097285 -0.27129262 0 -4.0990272e-05 0 0)
(-2.2290118 -0.27278702 0 -9.9536338e-06 0 0)
(-2.2109538 -0.27129682 0 -1.6945632e-06 0 0)
(-2.2271261 -0.27263822 0 -5.1661504e-06 0 0)
(-2.2119406 -0.27136342 0 5.1597713e-06 0 0)
(-2.2260636 -0.27255933 0 -5.6444754e-06 0 0)
(-2.2127599 -0.27143286 0 5.2908223e-06 0 0)
(-2.2252388 -0.27249266 0 -5.3817175e-06 0 0)
(-2.2134866 -0.2714951 0 4.8122846e-06 0 0)
(-2.2245206 -0.27243232 0 -4.7753972e-06 0 0)
(-2.2141401 -0.27155082 0 4.3591561e-06 0 0)
(-2.2238841 -0.27237853 0 -4.2197837e-06 0 0)
(-2.2147267 -0.27160086 0 3.9253244e-06 0 0)
(-2.223318 -0.27233065 0 -3.7501409e-06 0 0)
(-2.2152529 -0.27164575 0 3.5235744e-06 0 0)
(-2.2228131 -0.27228793 0 -3.3485162e-06 0 0)
(-2.2157247 -0.271686 0 3.1621399e-06 0 0)
(-2.2223617 -0.27224971 0 -3.0009305e-06 0 0)
(-2.2161482 -0.27172212 0 2.8423889e-06 0 0)
(-2.221957 -0.27221542 0 -2.6988696e-06 0 0)
(-2.216529 -0.27175459 0 2.5623279e-06 0 0)
(-2.2215931 -0.27218458 0 -2.4366554e-06 0 0)
(-2.2168724 -0.27178385 0 2.3188798e-06 0 0)
(-2.2212648 -0.27215674 0 -2.2100255e-06 0 0)
(-2.2171832 -0.27181033 0 2.1088788e-06 0 0)
(-2.2209673 -0.27213151 0 -2.0155535e-06 0 0)
(-2.2174657 -0.27183439 0 1.929447e-06 0 0)
(-2.2206963 -0.27210851 0 -1.8504269e-06 0 0)
(-2.217724 -0.27185638 0 1.7781262e-06 0 0)
(-2.2204479 -0.27208742 0 -1.712391e-06 0 0)
(-2.2179617 -0.27187663 0 1.6528702e-06 0 0)
(-2.2202185 -0.27206794 0 -1.5998762e-06 0 0)
(-2.2181823 -0.27189541 0 1.5521781e-06 0 0)
(-2.2200047 -0.27204977 0 -1.5108356e-06 0 0)
(-2.2183887 -0.27191297 0 1.480074e-06 0 0)
(-2.2198035 -0.27203261 0 -1.4333926e-06 0 0)
(-2.2185847 -0.27192958 0 1.4467588e-06 0 0)
(-2.2196158 -0.27201673 0 -1.4324455e-06 0 0)
(-2.2187834 -0.27194782 0 1.0520366e-06 0 0)
(-2.2194465 -0.27200651 0 -2.5820569e-06 0 0)
(-2.2189802 -0.27195842 0 2.2869151e-06 0 0)
(-3.0025381 -1.0018234 0 -0.28577172 0 0)
(-2.2820716 -0.38923675 0 -0.045273174 0 0)
(-2.6784053 -0.37611949 0 -0.02190244 0 0)
(-2.3387045 -0.30646533 0 -0.0091288155 0 0)
(-2.2796399 -0.28462166 0 -0.0028994422 0 0)
(-2.1277745 -0.26592202 0 -0.00065046973 0 0)
(-2.1071704 -0.26570648 0 -0.00040333079 0 0)
(-2.0621872 -0.26210072 0 -0.00015687082 0 0)
(-2.0838688 -0.26379842 0 -3.7928398e-05 0 0)
(-2.0626265 -0.26208234 0 -3.8719383e-05 0 0)
(-2.0801217 -0.26350671 0 -6.6490143e-06 0 0)
(-2.063789 -0.26211066 0 -2.3696013e-06 0 0)
(-2.0784611 -0.26337865 0 -3.6340689e-06 0 0)
(-2.0647004 -0.26217659 0 4.2327682e-06 0 0)
(-2.0775142 -0.2633068 0 -4.5467237e-06 0 0)
(-2.0654481 -0.26224294 0 4.358842e-06 0 0)
(-2.0767711 -0.26324442 0 -4.4568321e-06 0 0)
(-2.0661102 -0.26230208 0 3.9500261e-06 0 0)
(-2.0761209 -0.26318751 0 -3.9579784e-06 0 0)
(-2.0667046 -0.26235489 0 3.5844382e-06 0 0)
(-2.0755438 -0.26313667 0 -3.4894169e-06 0 0)
(-2.0672374 -0.26240223 0 3.2325208e-06 0 0)
(-2.0750302 -0.2630914 0 -3.0959392e-06 0 0)
(-2.0677147 -0.26244468 0 2.9034859e-06 0 0)
(-2.0745721 -0.26305101 0 -2.7617833e-06 0 0)
(-2.0681426 -0.26248273 0 2.6059711e-06 0 0)
(-2.0741627 -0.26301488 0 -2.4737455e-06 0 0)
(-2.0685265 -0.26251686 0 2.3422083e-06 0 0)
(-2.0737957 -0.26298248 0 -2.2239096e-06 0 0)
(-2.0688716 -0.26254755 0 2.1109849e-06 0 0)
(-2.0734658 -0.26295333 0 -2.0071919e-06 0 0)
(-2.0691828 -0.2625752 0 1.9098939e-06 0 0)
(-2.0731682 -0.26292702 0 -1.8199026e-06 0 0)
(-2.0694644 -0.26260022 0 1.7363499e-06 0 0)
(-2.0728986 -0.26290316 0 -1.6591372e-06 0 0)
(-2.0697203 -0.26262297 0 1.5879742e-06 0 0)
(-2.072653 -0.26288142 0 -1.5225367e-06 0 0)
(-2.0699542 -0.26264377 0 1.4627268e-06 0 0)
(-2.072428 -0.26286147 0 -1.4082176e-06 0 0)
(-2.0701695 -0.26266292 0 1.3588914e-06 0 0)
(-2.0722202 -0.26284304 0 -1.314889e-06 0 0)
(-2.0703692 -0.26268069 0 1.2751627e-06 0 0)
(-2.0720267 -0.26282585 0 -1.2407294e-06 0 0)
(-2.0705561 -0.26269732 0 1.2154849e-06 0 0)
(-2.0718444 -0.26280959 0 -1.173712e-06 0 0)
(-2.0707332 -0.26271303 0 1.1910926e-06 0 0)
(-2.0716744 -0.26279452 0 -1.1747448e-06 0 0)
(-2.0709135 -0.26273036 0 8.025858e-07 0 0)
(-2.0715269 -0.26278504 0 -2.2725976e-06 0 0)
(-2.0711063 -0.26274148 0 2.0247787e-06 0 0)
(-3.0908616 -0.93105979 0 -0.23739573 0 0)
(-2.1492502 -0.37081118 0 -0.040828829 0 0)
(-2.5038944 -0.35960269 0 -0.020290381 0 0)
(-2.1902171 -0.29575785 0 -0.0088629386 0 0)
(-2.136248 -0.27431274 0 -0.00258498 0 0)
(-1.9868096 -0.25646272 0 -0.0006132795 0 0)
(-1.9646841 -0.25619751 0 -0.00035500928 0 0)
(-1.9215451 -0.25281376 0 -0.0001281383 0 0)
(-1.939885 -0.25443001 0 -2.402914e-05 0 0)
(-1.9207147 -0.2528666 0 -3.4070241e-05 0 0)
(-1.9364905 -0.25422682 0 -2.4433355e-06 0 0)
(-1.9216951 -0.25292156 0 -2.456846e-06 0 0)
(-1.9349741 -0.2541202 0 -2.0199945e-06 0 0)
(-1.9225103 -0.25298798 0 3.4972237e-06 0 0)
(-1.9341194 -0.25405539 0 -3.5058778e-06 0 0)
(-1.9231879 -0.2530517 0 3.5345774e-06 0 0)
(-1.9334491 -0.25399723 0 -3.6067249e-06 0 0)
(-1.9237904 -0.25310797 0 3.1717346e-06 0 0)
(-1.9328616 -0.25394366 0 -3.213135e-06 0 0)
(-1.9243307 -0.253158 0 2.8819881e-06 0 0)
(-1.9323392 -0.25389569 0 -2.8256551e-06 0 0)
(-1.9248141 -0.25320276 0 2.6037505e-06 0 0)
(-1.931874 -0.25385294 0 -2.5019494e-06 0 0)
(-1.9252467 -0.25324286 0 2.3406871e-06 0 0)
(-1.931459 -0.2538148 0 -2.2292739e-06 0 0)
(-1.9256342 -0.25327879 0 2.1012606e-06 0 0)
(-1.9310881 -0.25378069 0 -1.995391e-06 0 0)
(-1.9259818 -0.25331101 0 1.8883711e-06 0 0)
(-1.9307558 -0.2537501 0 -1.7930026e-06 0 0)
(-1.9262942 -0.25333998 0 1.7015028e-06 0 0)
(-1.9304571 -0.25372258 0 -1.6175943e-06 0 0)
(-1.9265759 -0.25336609 0 1.5388656e-06 0 0)
(-1.9301876 -0.25369773 0 -1.4660118e-06 0 0)
(-1.9268307 -0.25338972 0 1.3984102e-06 0 0)
(-1.9299435 -0.2536752 0 -1.3358333e-06 0 0)
(-1.9270623 -0.2534112 0 1.2782172e-06 0 0)
(-1.9297213 -0.25365466 0 -1.2251159e-06 0 0)
(-1.927274 -0.25343085 0 1.1766288e-06 0 0)
(-1.9295176 -0.25363581 0 -1.1323151e-06 0 0)
(-1.9274687 -0.25344894 0 1.0922308e-06 0 0)
(-1.9293296 -0.25361839 0 -1.0563904e-06 0 0)
(-1.9276494 -0.25346574 0 1.0238981e-06 0 0)
(-1.9291546 -0.25360214 0 -9.9574024e-07 0 0)
(-1.9278182 -0.25348146 0 9.7543082e-07 0 0)
(-1.9289898 -0.25358675 0 -9.3840206e-07 0 0)