/*--------------------------------*- C++ -*----------------------------------*\
| =========                 |                                                 |
| \\      /  F ield         | OpenFOAM: The Open Source CFD Toolbox           |
|  \\    /   O peration     | Version:  2312                                  |
|   \\  /    A nd           | Website:  www.openfoam.com                      |
|    \\/     M anipulation  |                                                 |
\*---------------------------------------------------------------------------*/
FoamFile
{
    version     2.0;
    format      ascii;
    arch        "LSB;label=32;scalar=64";
    class       volScalarField;
    location    "9";
    object      T;
}
// * * * * * * * * * * * * * * * * * * * * * * * * * * * * * * * * * * * * * //

dimensions      [0 0 0 1 0 0 0];

internalField   nonuniform List<scalar> 
4000
(
330.1976
328.93503
328.6928
328.63138
328.559
328.51303
328.46882
328.43108
328.3947
328.36203
328.32919
328.29911
328.26847
328.23989
328.21079
328.18319
328.15522
328.12829
328.1012
328.07475
328.04835
328.02226
327.99641
327.97059
327.94521
327.9196
327.89461
327.86915
327.84451
327.81916
327.79482
327.76956
327.74549
327.72029
327.69647
327.67131
327.64771
327.62257
327.59919
327.57404
327.55088
327.5257
327.50276
327.47751
327.45482
327.42946
327.40706
327.38147
327.35956
327.33311
332.35503
330.31129
329.64118
329.50224
329.33179
329.23997
329.15358
329.08645
329.0235
328.97158
328.91923
328.8751
328.82931
328.7897
328.74853
328.71183
328.67407
328.63939
328.60425
328.57102
328.53794
328.50578
328.47438
328.44303
328.41303
328.38228
328.35346
328.32319
328.29539
328.26547
328.23857
328.20891
328.18282
328.15334
328.12799
328.09862
328.07396
328.04464
328.02064
327.9913
327.96795
327.93851
327.91583
327.8862
327.86424
327.83426
327.8132
327.78254
327.76294
327.7298
333.68682
331.6347
330.5818
330.36722
330.10127
329.96413
329.83619
329.73985
329.65065
329.57952
329.50787
329.44968
329.38892
329.33825
329.28513
329.23932
329.19186
329.14941
329.1063
329.06626
329.02658
328.98833
328.95143
328.91452
328.87994
328.84405
328.81144
328.77633
328.74541
328.7109
328.68148
328.6474
328.61932
328.58555
328.55869
328.52511
328.4994
328.46591
328.44129
328.40776
328.38423
328.35054
328.32811
328.2941
328.27289
328.23829
328.21857
328.18285
328.16553
328.12599
334.56841
332.86003
331.501
331.21803
330.86224
330.68158
330.51363
330.38867
330.27398
330.18387
330.09341
330.02124
329.94586
329.88416
329.81936
329.76444
329.7075
329.65726
329.60634
329.55948
329.51333
329.46897
329.42669
329.38421
329.34515
329.3041
329.26778
329.22781
329.19385
329.15472
329.12284
329.08433
329.05432
329.01624
328.98793
328.95012
328.92341
328.88571
328.86053
328.82279
328.79911
328.76116
328.73902
328.70062
328.68017
328.64097
328.62259
328.58184
328.56674
328.52118
335.17871
333.94719
332.38096
332.04345
331.60756
331.38693
331.1817
331.02939
330.89056
330.78198
330.67354
330.58767
330.49825
330.42566
330.34962
330.28565
330.21956
330.16158
330.10313
330.04946
329.99707
329.94659
329.89913
329.85106
329.80768
329.76146
329.72156
329.67674
329.63985
329.59609
329.56185
329.51889
329.48703
329.44463
329.41494
329.3729
329.34524
329.30336
329.27764
329.23571
329.21192
329.16971
329.14789
329.10511
329.08545
329.04166
329.02461
328.9789
328.9659
328.9148
335.61495
334.87172
333.20319
332.83035
332.32858
332.0736
331.83522
331.6577
331.49674
331.37064
331.24547
331.1464
331.04379
330.96061
330.87396
330.80113
330.72639
330.66076
330.59518
330.53477
330.47645
330.41991
330.3675
330.31389
330.26641
330.21504
330.17174
330.12208
330.08241
330.03405
329.99757
329.95018
329.91658
329.86988
329.8389
329.79264
329.76411
329.71805
329.69187
329.64576
329.62191
329.57546
329.554
329.50688
329.48802
329.43969
329.42396
329.3734
329.36233
329.30618
335.9335
335.62163
333.9509
333.56508
333.01594
332.73422
332.46827
332.26866
332.08831
331.94615
331.80592
331.69447
331.57984
331.48656
331.39016
331.30879
331.22603
331.15299
331.08077
331.01378
330.94994
330.88746
330.83045
330.77138
330.72007
330.66362
330.61715
330.56271
330.52045
330.46753
330.42898
330.37721
330.342
330.29104
330.25888
330.20844
330.17915
330.12894
330.10238
330.05213
330.02828
329.97765
329.95658
329.90518
329.88712
329.83436
329.81988
329.76466
329.7553
329.6946
336.17043
336.20032
334.61201
334.23506
333.66038
333.36114
333.07457
332.85698
332.6607
332.50448
332.35133
332.22866
332.10347
332.00083
331.89574
331.80633
331.71638
331.63627
331.55806
331.48474
331.41589
331.34765
331.28645
331.22208
331.16728
331.10587
331.05652
330.99739
330.95279
330.8954
330.85498
330.7989
330.76225
330.7071
330.67391
330.61936
330.5894
330.53513
330.50828
330.45396
330.43017
330.37545
330.3548
330.29923
330.28197
330.22491
330.21162
330.15197
330.14407
330.0793
336.35006
336.62212
335.17964
334.83049
334.25371
333.94706
333.64786
333.41725
333.20917
333.04144
332.87795
332.74557
332.61159
332.50058
332.3881
332.29133
332.19515
332.10847
332.02502
331.94575
331.87249
331.79879
331.7339
331.66445
331.60656
331.54038
331.48849
331.42484
331.37817
331.31645
331.27439
331.21413
331.17624
331.11701
331.08294
331.02439
330.99391
330.93567
330.90862
330.85035
330.8267
330.768
330.74781
330.68821
330.67173
330.61057
330.59837
330.53457
330.52787
330.45949
336.48945
336.90982
335.65306
335.34564
334.78943
334.48551
334.18234
333.94433
333.72908
333.55286
333.38198
333.24176
333.10105
332.9829
332.86452
332.76126
332.66001
332.56738
332.47959
332.39485
332.3179
332.23911
332.1711
332.09688
332.03638
331.96569
331.91165
331.84369
331.79527
331.72941
331.68599
331.62171
331.5828
331.51966
331.4849
331.4225
331.39163
331.32958
331.30245
331.24038
331.21692
331.15442
331.13471
331.07128
331.05555
330.99052
330.97931
330.91169
330.90594
330.83436
336.60048
337.09012
336.03654
335.77937
335.26326
334.97148
334.67306
334.43361
334.21613
334.03484
333.85982
333.7139
333.56874
333.44492
333.32233
333.21362
333.10857
333.01079
332.91967
332.83005
332.75021
332.66682
332.59634
332.51774
332.45517
332.38029
332.32453
332.25255
332.20275
332.13301
332.08852
332.02046
331.98077
331.91393
331.87867
331.81262
331.78151
331.71586
331.68875
331.62309
331.5999
331.53381
331.5146
331.44757
331.43257
331.36395
331.3536
331.28253
331.2775
331.20311
336.69178
337.19101
336.33886
336.13478
335.67335
335.40176
335.11636
334.88136
334.66667
334.48393
334.30817
334.15892
334.01176
333.88392
333.75895
333.646
333.53856
333.43654
333.34318
333.24941
333.16756
333.08014
333.0079
332.92541
332.86134
332.78269
332.72569
332.65005
332.59926
332.52594
332.48071
332.40915
332.36895
332.29867
332.26313
332.19368
332.16251
332.09349
332.06653
331.99752
331.97468
331.90524
331.88657
331.81621
331.80189
331.73002
331.7204
331.64628
331.64177
331.56492
336.7691
337.23801
336.57127
336.41829
336.02042
335.77524
335.51003
335.28497
335.07787
334.89731
334.72427
334.57417
334.42754
334.29746
334.17201
334.05617
333.94781
333.8426
333.74816
333.65107
333.56815
333.47737
333.40414
333.3183
333.25337
333.17142
333.11371
333.03481
332.98347
332.90694
332.86132
332.7866
332.74618
332.67277
332.63717
332.56463
332.53357
332.46147
332.43478
332.36271
332.34029
332.26782
332.2497
332.17635
332.16267
332.08789
332.0789
332.00212
331.99797
331.919
336.83653
337.25278
336.7463
336.63868
336.30767
336.0929
335.85352
335.64309
335.4479
335.27301
335.10597
334.95752
334.81392
334.68347
334.55948
334.44216
334.33441
334.22711
334.13282
334.03331
333.95029
333.8569
333.78348
333.69494
333.6298
333.54509
333.48721
333.40553
333.35409
333.27478
333.22914
333.15164
333.11131
333.03513
332.99973
332.92442
332.89367
332.81882
332.79253
332.71773
332.69582
332.62065
332.60311
332.52711
332.51403
332.43674
332.42827
332.34925
332.34536
332.26458
336.89652
337.25135
336.87618
336.80601
336.54028
336.35767
336.14788
335.95574
335.77608
335.60995
335.45192
335.30748
335.16931
335.04032
334.91969
334.80235
334.69672
334.58851
334.49558
334.39461
334.3125
334.21731
334.14452
334.05395
333.98929
333.90242
333.84492
333.761
333.70992
333.6283
333.58303
333.50319
333.46326
333.38471
333.34975
333.27207
333.24181
333.16459
333.13884
333.06169
333.04036
332.96286
332.94592
332.86768
332.85517
332.77577
332.76774
332.68689
332.68317
332.60091
336.95085
337.24487
336.97209
336.93062
336.72488
336.57407
336.39565
336.22426
336.06285
335.90803
335.76158
335.6233
335.49272
335.36695
335.25144
335.13552
335.03346
334.92552
334.83516
334.73371
334.6535
334.55735
334.48601
334.39414
334.33064
334.24224
334.18571
334.1001
334.04986
333.96645
333.92195
333.84023
333.80102
333.72055
333.68628
333.60665
333.57708
333.49789
333.47283
333.39372
333.37306
333.29365
333.27734
333.19726
333.1853
333.10422
333.09657
333.01429
333.0107
332.92729
337.00041
337.23967
337.04346
337.0223
336.86884
336.74769
336.60063
336.45113
336.30972
336.16812
336.03525
335.90495
335.78381
335.66283
335.55406
335.44089
335.34376
335.23724
335.15058
335.04965
334.97229
334.87602
334.80694
334.71452
334.65284
334.56359
334.50858
334.42189
334.37296
334.2883
334.24494
334.16186
334.12369
334.04177
334.00846
333.92733
333.89863
333.81792
333.79368
333.71305
333.69314
333.61224
333.5966
333.51512
333.50369
333.42137
333.41406
333.33076
333.32727
333.24305
337.04596
337.23889
337.09786
337.08965
336.97964
336.88477
336.76746
336.63981
336.51914
336.39193
336.27405
336.15311
336.04288
335.92805
335.82736
335.71819
335.62717
335.52317
335.44123
335.34178
335.26814
335.17261
335.10653
335.01432
334.9551
334.86566
334.81273
334.72556
334.67839
334.59305
334.55123
334.46731
334.43048
334.34762
334.3155
334.23334
334.20572
334.12395
334.10066
334.01896
333.99989
333.91796
333.90302
333.82059
333.80969
333.72656
333.71957
333.63565
333.63227
333.54758
337.08787
337.24318
337.14093
337.13982
337.06433
336.99161
336.90132
336.79442
336.69431
336.58195
336.47978
336.36915
336.27088
336.16326
336.07173
335.96759
335.8837
335.78318
335.70686
335.60978
335.54066
335.44668
335.38428
335.29301
335.23685
335.1479
335.09753
335.01051
334.96554
334.88009
334.84015
334.75594
334.72075
334.63745
334.60676
334.52408
334.49771
334.41535
334.39315
334.31085
334.2927
334.21019
334.19599
334.11307
334.10271
334.0192
334.01253
333.92839
333.92512
333.84032
337.12652
337.252
337.17666
337.17835
337.12917
337.07424
337.0075
336.91946
336.83893
336.74118
336.65486
336.55502
336.46929
336.36964
336.28803
336.18976
336.11377
336.01757
335.94761
335.85369
335.78977
335.69808
335.63997
335.55034
335.49777
335.40995
335.36261
335.27634
335.23395
335.14896
335.11124
335.02727
334.99399
334.91077
334.88174
334.79902
334.77408
334.69162
334.67063
334.58819
334.57104
334.48843
334.47501
334.39204
334.38224
334.29879
334.29244
334.20847
334.20534
334.12078
337.16213
337.26415
337.20769
337.2093
337.17943
337.13808
337.09112
337.01951
336.95696
336.87303
336.80211
336.7131
336.64007
336.54881
336.47755
336.38577
336.31821
336.22701
336.16398
336.07391
336.01571
335.92699
335.87367
335.78631
335.73777
335.6517
335.60779
335.52285
335.48338
335.39941
335.3642
335.28099
335.24988
335.16724
335.14007
335.0578
335.03445
334.95235
334.93269
334.85059
334.83453
334.75225
334.73968
334.65708
334.64788
334.56489
334.5589
334.47548
334.4725
334.38855
337.19497
337.27845
337.23563
337.23548
337.21928
337.18777
337.15683
337.09898
337.05241
336.98107
336.92464
336.8461
336.78553
336.70278
336.64198
336.55705
336.49822
336.41251
336.35677
336.27111
336.21903
336.13385
336.0857
336.00119
335.95704
335.87327
335.83311
335.75005
335.7138
335.63136
335.59891
335.51698
335.48824
335.40668
335.38154
335.3002
335.27856
335.1973
335.17908
335.09776
335.08286
335.00136
334.98968
334.90789
334.89932
334.8172
334.81159
334.72909
334.72629
334.64331
337.2253
337.29389
337.26138
337.25868
337.25189
337.2271
337.20871
337.16194
337.12911
337.06884
337.02565
336.9569
336.9082
336.83381
336.78328
336.70534
336.65528
336.57538
336.52712
336.44627
336.40056
336.31937
336.27666
336.19548
336.156
336.07502
336.03886
335.95816
335.92535
335.84493
335.81545
335.73526
335.70907
335.62904
335.60608
335.52612
335.50633
335.42635
335.40965
335.32954
335.31587
335.23556
335.22483
335.14425
335.13635
335.05547
335.05027
334.96906
334.96646
334.8848
337.25335
337.30972
337.28542
337.27998
337.27952
337.25899
337.25013
337.21193
337.19058
337.13973
337.1083
337.04843
337.01073
336.94429
336.90359
336.83258
336.79112
336.71718
336.67637
336.60061
336.56136
336.48451
336.44738
336.36992
336.33526
336.25749
336.2255
336.14759
336.11839
336.04042
336.01406
335.93604
335.91254
335.83447
335.8138
335.73564
335.71778
335.63949
335.62439
335.54591
335.53352
335.4548
335.44505
335.36606
335.35886
335.27959
335.27484
335.19525
335.19287
335.11286
337.27935
337.32545
337.30797
337.29995
337.30371
337.28563
337.28382
337.25196
337.23994
337.19685
337.17557
337.12353
337.09576
337.03669
337.00517
336.94085
336.90762
336.83961
336.80608
336.73554
336.70268
336.63041
336.59887
336.52544
336.49566
336.42144
336.39371
336.31894
336.29345
336.21829
336.19515
336.11969
336.09895
336.02323
336.00493
335.92896
335.91309
335.83687
335.82342
335.74694
335.73587
335.65911
335.65038
335.57333
335.56686
335.48953
335.48525
335.40761
335.40546
335.32743
337.30348
337.34081
337.32912
337.31887
337.32547
337.30858
337.31183
337.2845
337.27983
337.24293
337.2302
337.18487
337.16586
337.11345
337.09029
337.03225
337.00673
336.94449
336.91792
336.8526
336.82594
336.75837
336.73233
336.66312
336.63819
336.56776
336.5443
336.47297
336.4512
336.37918
336.35928
336.28671
336.26878
336.19574
336.17985
336.1064
336.09257
336.01876
336.007
335.93284
335.92313
335.84865
335.84096
335.76617
335.76045
335.68537
335.68158
335.60619
335.60428
335.52852
337.32594
337.35565
337.34893
337.33685
337.34539
337.32889
337.3357
337.31143
337.31243
337.2803
337.27459
337.23487
337.2234
337.17686
337.16115
337.10891
337.09043
337.03369
337.01362
336.95341
336.93266
336.8698
336.84906
336.78417
336.76397
336.69751
336.67823
336.61055
336.59248
336.52383
336.50717
336.43774
336.42262
336.35255
336.33906
336.26844
336.25665
336.18554
336.17547
336.10393
336.0956
336.02368
336.01705
335.94479
335.93985
335.86728
335.864
335.79112
335.78947
335.71624
337.34688
337.3699
337.36744
337.3539
337.36383
337.34724
337.35652
337.33422
337.33946
337.31091
337.31082
337.27567
337.27052
337.22907
337.21985
337.17283
337.16067
337.10906
337.09494
337.03965
337.0244
336.96618
336.95045
336.8899
336.87422
336.81181
336.79658
336.73269
336.71821
336.65312
336.63962
336.57355
336.56119
336.4943
336.4832
336.41562
336.40586
336.3377
336.32932
336.26065
336.25367
336.18457
336.179
336.10952
336.10535
336.03554
336.03276
335.96263
335.96124
335.89077
337.36644
337.38356
337.38469
337.37001
337.38096
337.36405
337.37503
337.35392
337.36225
337.33631
337.34059
337.3091
337.30913
337.27198
337.26829
337.2259
337.21927
337.17238
337.1636
337.11296
337.10273
337.04899
337.03792
336.98165
336.97021
336.91188
336.90048
336.84046
336.82941
336.76799
336.75753
336.69497
336.68528
336.62175
336.61297
336.54863
336.54084
336.47582
336.46909
336.40349
336.39785
336.33176
336.32724
336.26074
336.25735
336.19048
336.18822
336.12104
336.1199
336.05239
337.38473
337.39662
337.40073
337.38517
337.39691
337.37958
337.39169
337.37126
337.38179
337.3577
337.36529
337.33666
337.34083
337.30728
337.30818
337.26984
337.26796
337.22533
337.22124
337.17491
337.1692
337.11972
337.11288
337.06078
337.05326
336.99895
336.99113
336.93498
336.92716
336.86947
336.86189
336.80292
336.79577
336.73572
336.72915
336.66819
336.6623
336.60057
336.59543
336.53305
336.52872
336.4658
336.4623
336.39893
336.3963
336.33255
336.33078
336.26671
336.26582
336.20144
337.40184
337.4091
337.41562
337.39938
337.4117
337.39397
337.40683
337.38674
337.39879
337.37599
337.38603
337.3596
337.367
337.33639
337.34102
337.30616
337.30826
337.26944
337.26939
337.22702
337.22527
337.1798
337.17675
337.12863
337.12466
337.07426
337.06972
337.0174
337.01256
336.9586
336.95371
336.89836
336.89361
336.83709
336.83261
336.7751
336.77101
336.71266
336.70904
336.64999
336.64691
336.58727
336.58476
336.52464
336.52273
336.46222
336.46094
336.40009
336.39944
336.33831
337.41785
337.42098
337.4294
337.41261
337.42536
337.40727
337.42062
337.40071
337.41376
337.39186
337.40363
337.3789
337.38872
337.36053
337.3681
337.33621
337.34157
337.3061
337.30945
337.27068
337.27233
337.23059
337.23085
337.18649
337.18568
337.13905
337.13746
337.08886
337.08674
337.03645
337.03402
336.98229
336.97973
336.92676
336.92422
336.8702
336.86779
336.81288
336.81068
336.75503
336.75311
336.69683
336.69525
336.63846
336.63725
336.58004
336.57922
336.52169
336.52127
336.46346
337.43282
337.43227
337.44209
337.42487
337.43789
337.41953
337.43317
337.41336
337.42703
337.40577
337.41872
337.3953
337.40689
337.38065
337.39048
337.36111
337.36906
337.33653
337.34268
337.30713
337.31164
337.27332
337.27643
337.2356
337.23754
337.19448
337.19549
337.15048
337.15079
337.10407
337.10386
337.05568
337.05512
337.00566
337.0049
336.95435
336.95349
336.90202
336.90114
336.84889
336.84807
336.79518
336.79446
336.74104
336.74047
336.68662
336.68623
336.63205
336.63185
336.57741
337.44678
337.4429
337.45371
337.43614
337.4493
337.43074
337.44452
337.42482
337.43883
337.41807
337.43177
337.40937
337.42219
337.39756
337.40906
337.38181
337.39177
337.36179
337.37017
337.3375
337.34436
337.30916
337.31464
337.27708
337.28136
337.24168
337.24494
337.20335
337.20577
337.1625
337.16425
337.11951
337.12074
337.07472
337.07554
337.02843
337.02896
336.9809
336.98121
336.93236
336.93253
336.88301
336.88309
336.83303
336.83305
336.78257
336.78257
336.73176
336.73176
336.6807
337.45973
337.45282
337.46424
337.44639
337.45957
337.44092
337.45473
337.43516
337.44932
337.42898
337.44311
337.42155
337.43516
337.41187
337.42453
337.3991
337.41053
337.38279
337.39287
337.36278
337.3715
337.33911
337.34654
337.31199
337.31822
337.28167
337.28683
337.24847
337.25271
337.21272
337.21617
337.17475
337.17752
337.13485
337.13707
337.0933
337.09505
337.05034
337.05171
337.0062
337.00725
336.96107
336.96186
336.91513
336.91569
336.86854
336.8689
336.82142
336.8216
336.77389
337.47162
337.46194
337.47364
337.45559
337.4687
337.45004
337.4638
337.44443
337.4586
337.43866
337.45297
337.43215
337.44621
337.42405
337.43747
337.41359
337.42607
337.40026
337.41162
337.38379
337.39395
337.3641
337.37305
337.34125
337.34905
337.31541
337.32213
337.2868
337.29254
337.25567
337.26054
337.22228
337.22638
337.18691
337.19033
337.14979
337.15261
337.11114
337.11344
337.07118
337.07301
337.03009
337.0315
336.98804
336.98907
336.94518
336.94586
336.90166
336.902
336.85758
337.48227
337.47009
337.48184
337.46371
337.47667
337.45812
337.47175
337.45267
337.46673
337.44723
337.46154
337.44138
337.45565
337.43447
337.44833
337.4258
337.43894
337.41484
337.42707
337.40126
337.41246
337.38489
337.395
337.3657
337.37472
337.34376
337.35171
337.31919
337.32615
337.29219
337.29823
337.26297
337.26817
337.23174
337.23617
337.19871
337.20244
337.16409
337.16718
337.12805
337.13055
337.09078
337.09274
337.05244
337.05388
337.01317
337.01412
336.97311
336.97358
336.93237
337.49139
337.47714
337.48879
337.4707
337.48348
337.46515
337.47861
337.4599
337.47378
337.45475
337.46894
337.44942
337.46369
337.44341
337.45744
337.43611
337.44963
337.42702
337.43981
337.41578
337.42769
337.40217
337.4131
337.38607
337.39598
337.36747
337.37636
337.34643
337.35434
337.32309
337.33006
337.2976
337.30368
337.27012
337.27537
337.24084
337.24531
337.20993
337.21367
337.17755
337.1806
337.14386
337.14626
337.10901
337.11079
337.07314
337.07433
337.03639
337.03698
336.99887
337.49865
337.48293
337.49444
337.47656
337.48915
337.47116
337.48442
337.46615
337.4798
337.46129
337.47526
337.4564
337.47052
337.45108
337.46509
337.44484
337.45848
337.43722
337.45028
337.42786
337.44018
337.41649
337.42795
337.40296
337.41349
337.38721
337.39677
337.36922
337.37783
337.34908
337.35675
337.32689
337.33364
337.30278
337.30866
337.27689
337.28194
337.24937
337.25362
337.22035
337.22385
337.18998
337.19275
337.1584
337.16047
337.12574
337.12711
337.09212
337.09281
337.05765
337.50377
337.48736
337.49881
337.48131
337.49372
337.47617
337.48921
337.47146
337.48485
337.46692
337.48061
337.46241
337.47628
337.45765
337.47148
337.45223
337.4658
337.44575
337.45887
337.43788
337.45037
337.42834
337.44007
337.41693
337.42782
337.40356
337.41355
337.38817
337.39724
337.3708
337.37894
337.3515
337.35874
337.33037
337.33672
337.30752
337.313
337.28306
337.28771
337.25711
337.26095
337.2298
337.23285
337.20125
337.20353
337.17158
337.1731
337.1409
337.14166
337.10931
337.50672
337.49045
337.50194
337.485
337.49724
337.48025
337.49304
337.4759
337.48899
337.47168
337.48505
337.46753
337.48107
337.46323
337.47678
337.45846
337.47182
337.45288
337.46587
337.44618
337.45864
337.43809
337.44989
337.42841
337.43945
337.41701
337.42721
337.40381
337.41314
337.3888
337.39724
337.37201
337.37955
337.35349
337.36014
337.33333
337.33911
337.31161
337.31654
337.28845
337.29252
337.26392
337.26717
337.23815
337.24058
337.21125
337.21287
337.1833
337.18411
337.15441
337.50782
337.49235
337.50395
337.48771
337.49981
337.48346
337.49599
337.4795
337.49228
337.47565
337.48865
337.47185
337.485
337.46794
337.48111
337.46369
337.47671
337.4588
337.47152
337.45301
337.46528
337.44606
337.45775
337.43777
337.44877
337.42798
337.43821
337.4166
337.426
337.40358
337.41213
337.38892
337.39661
337.37267
337.37949
337.35487
337.36081
337.33559
337.34067
337.3149
337.31912
337.29289
337.29627
337.26966
337.27219
337.24528
337.24697
337.21986
337.22071
337.19347
337.50757
337.49326
337.50501
337.48956
337.50152
337.48587
337.49815
337.48236
337.4948
337.47888
337.49149
337.47541
337.48814
337.47186
337.48459
337.46802
337.48062
337.46366
337.476
337.45857
337.47051
337.45251
337.46394
337.44531
337.45611
337.43681
337.4469
337.4269
337.43623
337.41554
337.42406
337.40269
337.41039
337.38838
337.39523
337.37262
337.37862
337.35547
337.36061
337.33699
337.34127
337.31723
337.32066
337.29628
337.29885
337.27421
337.27593
337.2511
337.25196
337.22702
337.50654
337.49347
337.5053
337.49069
337.50249
337.4876
337.49959
337.48454
337.49663
337.48144
337.49363
337.4783
337.49056
337.47505
337.48729
337.47154
337.48365
337.46759
337.47946
337.46302
337.47453
337.45763
337.46867
337.45126
337.46174
337.44377
337.4536
337.43505
337.44418
337.42504
337.43341
337.4137
337.42128
337.40102
337.40779
337.38701
337.39296
337.37171
337.37683
337.35516
337.35943
337.3374
337.34082
337.31849
337.32106
337.2985
337.30022
337.27749
337.27836
337.25553
337.50518
337.49322
337.50501
337.49124
337.50285
337.48874
337.50041
337.48612
337.49783
337.48339
337.49514
337.48056
337.49233
337.47758
337.48929
337.47433
337.4859
337.47068
337.48201
337.46647
337.47747
337.46157
337.47213
337.45581
337.46586
337.44909
337.45855
337.4413
337.45011
337.43237
337.44047
337.42226
337.42962
337.41094
337.41753
337.39842
337.40422
337.3847
337.38971
337.36982
337.37401
337.35381
337.35718
337.33672
337.33925
337.31859
337.32029
337.29948
337.30033
337.27944
337.50372
337.4927
337.50431
337.49135
337.50271
337.48937
337.50072
337.48718
337.4985
337.4848
337.4961
337.48226
337.49351
337.4795
337.49065
337.47644
337.48742
337.47298
337.48372
337.46902
337.47943
337.46443
337.47445
337.45911
337.46865
337.45295
337.46195
337.44586
337.45426
337.43777
337.44552
337.42864
337.4357
337.41844
337.42477
337.40715
337.41275
337.39478
337.39961
337.38134
337.3854
337.36686
337.37012
337.35135
337.35381
337.33488
337.33653
337.31747
337.3183
337.29917
337.50227
337.49204
337.50332
337.49112
337.50218
337.48961
337.50058
337.48779
337.49869
337.48573
337.49655
337.48343
337.49415
337.48084
337.4914
337.47791
337.48826
337.47455
337.48464
337.47071
337.48049
337.4663
337.4757
337.46125
337.47021
337.45547
337.46393
337.44888
337.4568
337.44143
337.44875
337.43307
337.43975
337.42376
337.42977
337.41348
337.41881
337.40224
337.40685
337.39003
337.3939
337.37685
337.37997
337.36274
337.3651
337.34772
337.3493
337.33182
337.33262
337.31508
337.50083
337.4913
337.50215
337.49065
337.50135
337.48952
337.50009
337.48803
337.49849
337.48624
337.49656
337.48413
337.49427
337.48164
337.49158
337.47874
337.48844
337.4754
337.48481
337.47157
337.48067
337.46723
337.47597
337.4623
337.47064
337.45675
337.46463
337.4505
337.45788
337.4435
337.45034
337.43571
337.44197
337.4271
337.43275
337.41765
337.42265
337.40733
337.41167
337.39615
337.3998
337.3841
337.38704
337.37119
337.37342
337.35745
337.35894
337.34289
337.34364
337.32753
337.49939
337.49053
337.50085
337.49001
337.5003
337.48917
337.49932
337.48795
337.49794
337.48637
337.49615
337.48437
337.49391
337.48191
337.49119
337.47896
337.48797
337.47554
337.48424
337.47163
337.48002
337.46723
337.47527
337.46231
337.46998
337.45684
337.4641
337.45079
337.45759
337.44409
337.4504
337.43672
337.44251
337.42864
337.43387
337.41984
337.42448
337.41027
337.41431
337.39995
337.40334
337.38884
337.39159
337.37697
337.37905
337.36433
337.36573
337.35095
337.35165
337.33683
337.49794
337.48974
337.49946
337.48924
337.49908
337.48862
337.49831
337.48761
337.49708
337.48615
337.49536
337.48418
337.49308
337.48164
337.49023
337.47856
337.48683
337.47495
337.48292
337.47086
337.47851
337.46631
337.47363
337.46129
337.46827
337.4558
337.4624
337.44981
337.45601
337.44329
337.44904
337.4362
337.44148
337.42851
337.43329
337.4202
337.42446
337.41124
337.41494
337.40161
337.40474
337.39131
337.39384
337.38032
337.38223
337.36864
337.36993
337.35628
337.35693
337.34325
337.49645
337.48893
337.49801
337.48838
337.49774
337.48791
337.49711
337.48702
337.49596
337.4856
337.49419
337.48354
337.49177
337.48083
337.48869
337.4775
337.48502
337.47362
337.48082
337.46925
337.47614
337.46445
337.47104
337.45924
337.46551
337.45363
337.45957
337.44761
337.45318
337.44115
337.44633
337.43422
337.43899
337.42681
337.43113
337.41887
337.42272
337.41038
337.41374
337.40133
337.40417
337.39168
337.39398
337.38144
337.38318
337.37059
337.37176
337.35912
337.35971
337.34705
337.49493
337.48812
337.49651
337.48744
337.4963
337.48707
337.49575
337.48622
337.49456
337.48471
337.49264
337.48245
337.48994
337.47943
337.48652
337.47574
337.48247
337.47148
337.47789
337.46675
337.47287
337.46163
337.46746
337.45615
337.4617
337.45034
337.45559
337.4442
337.44914
337.43772
337.44232
337.43086
337.4351
337.42361
337.42747
337.41594
337.41939
337.40782
337.41083
337.39923
337.40177
337.39013
337.39219
337.38052
337.38208
337.37037
337.37143
337.35969
337.36022
337.34846
337.49336
337.48729
337.49495
337.48645
337.49479
337.48611
337.49423
337.48519
337.4929
337.48347
337.49066
337.48085
337.48756
337.47739
337.48367
337.47323
337.47914
337.4685
337.4741
337.46332
337.46865
337.4578
337.46287
337.45198
337.45681
337.44591
337.45048
337.43959
337.44389
337.43301
337.43703
337.42615
337.42987
337.419
337.42238
337.41151
337.41454
337.40367
337.40632
337.39544
337.39769
337.38679
337.38862
337.37771
337.3791
337.36817
337.36911
337.35817
337.35864
337.34767
337.49173
337.48645
337.49335
337.48541
337.4932
337.48504
337.49256
337.48392
337.49092
337.48181
337.48821
337.47867
337.48454
337.47464
337.48006
337.46988
337.47495
337.46458
337.46936
337.45889
337.46342
337.4529
337.45722
337.4467
337.45081
337.44032
337.44422
337.43377
337.43745
337.42704
337.43049
337.42013
337.42333
337.41301
337.41593
337.40565
337.40827
337.39801
337.40031
337.39007
337.39202
337.38179
337.38338
337.37316
337.37437
337.36414
337.36496
337.35472
337.35514
337.34488
337.49003
337.48559
337.4917
337.48432
337.49155
337.48383
337.49069
337.48236
337.48856
337.47967
337.4852
337.47584
337.4808
337.47108
337.4756
337.46561
337.46981
337.45966
337.4636
337.45338
337.45712
337.44689
337.45046
337.44026
337.44367
337.43354
337.43678
337.42672
337.4298
337.41982
337.42272
337.41282
337.41551
337.40569
337.40815
337.3984
337.40062
337.39091
337.39287
337.38321
337.38487
337.37524
337.3766
337.36699
337.36802
337.35842
337.35912
337.34951
337.34987
337.34025
337.48825
337.48471
337.48999
337.48318
337.4898
337.48246
337.48857
337.48041
337.48573
337.47693
337.48151
337.47223
337.47623
337.46659
337.47018
337.46032
337.46362
337.45364
337.45674
337.44673
337.44968
337.43971
337.44253
337.43263
337.43535
337.42554
337.42815
337.41845
337.42094
337.41135
337.41371
337.40424
337.40644
337.39707
337.3991
337.38982
337.39166
337.38245
337.38408
337.37493
337.37632
337.36722
337.36836
337.3593
337.36017
337.35112
337.35171
337.34267
337.34297
337.33391
337.48637
337.48382
337.48822
337.48199
337.48793
337.48085
337.4861
337.47799
337.48231
337.47347
337.47701
337.4677
337.47069
337.46106
337.46369
337.45389
337.45629
337.44643
337.4487
337.43886
337.44104
337.43128
337.4334
337.42375
337.42581
337.4163
337.4183
337.40893
337.41086
337.40164
337.40348
337.39439
337.39614
337.38718
337.3888
337.37995
337.38143
337.37267
337.37399
337.36531
337.36644
337.35783
337.35876
337.35019
337.35091
337.34236
337.34285
337.33432
337.33456
337.32601
337.48437
337.48293
337.48639
337.48072
337.48587
337.47892
337.48317
337.47492
337.47813
337.46913
337.47154
337.46211
337.46403
337.45435
337.45599
337.44621
337.44772
337.43794
337.43939
337.4297
337.43113
337.42157
337.423
337.41359
337.41502
337.40579
337.40721
337.39815
337.39956
337.39067
337.39204
337.38331
337.38463
337.37605
337.37729
337.36884
337.36998
337.36164
337.36267
337.35442
337.35531
337.34714
337.34788
337.33976
337.34033
337.33225
337.33263
337.32456
337.32476
337.31668
337.48225
337.48209
337.48448
337.47935
337.48352
337.47652
337.4796
337.47103
337.47301
337.4637
337.46492
337.45528
337.4561
337.44631
337.44697
337.43717
337.43779
337.42808
337.42874
337.41918
337.41989
337.41051
337.41129
337.40212
337.40296
337.39399
337.39488
337.38612
337.38704
337.37847
337.3794
337.37101
337.37193
337.36371
337.36459
337.35652
337.35735
337.34941
337.35016
337.34233
337.34299
337.33523