/*--------------------------------*- C++ -*----------------------------------*\
| =========                 |                                                 |
| \\      /  F ield         | OpenFOAM: The Open Source CFD Toolbox           |
|  \\    /   O peration     | Version:  2312                                  |
|   \\  /    A nd           | Website:  www.openfoam.com                      |
|    \\/     M anipulation  |                                                 |
\*---------------------------------------------------------------------------*/
FoamFile
{
    version     2.0;
    format      ascii;
    arch        "LSB;label=32;scalar=64";
    class       volSymmTensorField;
    location    "8";
    object      sigma_0;
}
// * * * * * * * * * * * * * * * * * * * * * * * * * * * * * * * * * * * * * //

dimensions      [0 2 -2 0 0 0 0];

internalField   nonuniform List<symmTensor> 
4000
(
(-4.0058723 -1.8191019 0 -0.77116688 0 0)
(-13.149271 -0.71885703 0 -0.0126155 0 0)
(-4.2891155 -0.37914152 0 -0.0024301888 0 0)
(-4.7243126 -0.39528467 0 0.00026918572 0 0)
(-4.2627442 -0.37764222 0 -0.00020955559 0 0)
(-4.159368 -0.37221979 0 2.5420066e-05 0 0)
(-4.1914856 -0.37412798 0 -6.310133e-05 0 0)
(-4.0645393 -0.36795466 0 1.2824424e-05 0 0)
(-4.1278097 -0.37111798 0 -3.2794943e-05 0 0)
(-4.0520434 -0.3673761 0 2.2013753e-05 0 0)
(-4.1088701 -0.37022573 0 -2.5167472e-05 0 0)
(-4.0546644 -0.36750639 0 2.2586101e-05 0 0)
(-4.1024845 -0.36992016 0 -2.2166938e-05 0 0)
(-4.0578898 -0.36766595 0 2.0831493e-05 0 0)
(-4.0991662 -0.36975706 0 -1.9876765e-05 0 0)
(-4.0603761 -0.36779086 0 1.8735339e-05 0 0)
(-4.0967056 -0.36963422 0 -1.7767944e-05 0 0)
(-4.0624869 -0.36789745 0 1.6756691e-05 0 0)
(-4.0946188 -0.36952953 0 -1.5859717e-05 0 0)
(-4.0643835 -0.36799314 0 1.4971272e-05 0 0)
(-4.0927785 -0.36943711 0 -1.4162211e-05 0 0)
(-4.0660964 -0.36807947 0 1.338038e-05 0 0)
(-4.0911365 -0.36935463 0 -1.2659837e-05 0 0)
(-4.0676391 -0.36815715 0 1.1971657e-05 0 0)
(-4.0896662 -0.36928078 0 -1.1334721e-05 0 0)
(-4.069026 -0.36822692 0 1.0730287e-05 0 0)
(-4.0883474 -0.36921459 0 -1.0170495e-05 0 0)
(-4.0702727 -0.36828956 0 9.6415924e-06 0 0)
(-4.0871628 -0.36915519 0 -9.1522819e-06 0 0)
(-4.0713945 -0.36834582 0 8.6917112e-06 0 0)
(-4.0860964 -0.36910182 0 -8.26654e-06 0 0)
(-4.0724061 -0.36839644 0 7.8678947e-06 0 0)
(-4.0851337 -0.36905375 0 -7.5010588e-06 0 0)
(-4.0733212 -0.3684421 0 7.1586587e-06 0 0)
(-4.0842611 -0.36901033 0 -6.8449806e-06 0 0)
(-4.0741527 -0.36848344 0 6.5538521e-06 0 0)
(-4.0834663 -0.36897093 0 -6.2888112e-06 0 0)
(-4.0749126 -0.36852104 0 6.0446744e-06 0 0)
(-4.0827378 -0.36893499 0 -5.8244191e-06 0 0)
(-4.0756118 -0.36855544 0 5.6236749e-06 0 0)
(-4.0820648 -0.36890199 0 -5.4450389e-06 0 0)
(-4.0762605 -0.36858715 0 5.2848557e-06 0 0)
(-4.0814376 -0.36887145 0 -5.145129e-06 0 0)
(-4.0768689 -0.36861666 0 5.0242348e-06 0 0)
(-4.080849 -0.36884301 0 -4.9209366e-06 0 0)
(-4.0774485 -0.36864453 0 4.8360269e-06 0 0)
(-4.0802841 -0.36881611 0 -4.7906002e-06 0 0)
(-4.0779525 -0.36866895 0 4.6673576e-06 0 0)
(-4.0795203 -0.3687814 0 -4.8918119e-06 0 0)
(-4.0777901 -0.36866153 0 4.7269e-06 0 0)
(-3.2408987 -1.5935965 0 -0.71638301 0 0)
(-10.739794 -0.69725514 0 -0.026678634 0 0)
(-5.0672584 -0.43092885 0 -0.0071857675 0 0)
(-4.3772412 -0.37880266 0 0.00026341548 0 0)
(-3.9619299 -0.36551484 0 -0.00052802749 0 0)
(-3.8372932 -0.35757151 0 3.7846285e-06 0 0)
(-3.8795009 -0.36027748 0 -0.00011935455 0 0)
(-3.7715402 -0.35448001 0 -2.1099809e-05 0 0)
(-3.8223581 -0.35722338 0 -4.4537552e-05 0 0)
(-3.7582582 -0.3537651 0 1.5222545e-05 0 0)
(-3.8049787 -0.35632818 0 -2.7673406e-05 0 0)
(-3.7595224 -0.35382653 0 2.2686611e-05 0 0)
(-3.7994905 -0.35604692 0 -2.3745154e-05 0 0)
(-3.7620528 -0.35396167 0 2.2161732e-05 0 0)
(-3.7967414 -0.35590075 0 -2.1444372e-05 0 0)
(-3.7641112 -0.35407514 0 2.0148625e-05 0 0)
(-3.7946773 -0.35578778 0 -1.9210278e-05 0 0)
(-3.7658811 -0.3541738 0 1.8066978e-05 0 0)
(-3.7929116 -0.35569021 0 -1.7137687e-05 0 0)
(-3.7674771 -0.35426284 0 1.6154343e-05 0 0)
(-3.7913534 -0.3556039 0 -1.5294266e-05 0 0)
(-3.7689197 -0.35434323 0 1.4440662e-05 0 0)
(-3.7899647 -0.35552695 0 -1.3667128e-05 0 0)
(-3.7702186 -0.35441554 0 1.2920774e-05 0 0)
(-3.7887225 -0.35545814 0 -1.223455e-05 0 0)
(-3.7713858 -0.35448044 0 1.1581098e-05 0 0)
(-3.7876092 -0.35539652 0 -1.0977322e-05 0 0)
(-3.7724347 -0.35453866 0 1.0406451e-05 0 0)
(-3.7866096 -0.35534127 0 -9.8786199e-06 0 0)
(-3.7733783 -0.35459093 0 9.3819789e-06 0 0)
(-3.78571 -0.35529165 0 -8.9234482e-06 0 0)
(-3.7742292 -0.35463794 0 8.4938856e-06 0 0)
(-3.7848978 -0.35524697 0 -8.0984431e-06 0 0)
(-3.7749993 -0.35468034 0 7.7297401e-06 0 0)
(-3.7841614 -0.3552066 0 -7.3918209e-06 0 0)
(-3.7756996 -0.35471873 0 7.0785982e-06 0 0)
(-3.7834903 -0.35516997 0 -6.793362e-06 0 0)
(-3.77634 -0.35475366 0 6.5310459e-06 0 0)
(-3.7828747 -0.35513654 0 -6.2944233e-06 0 0)
(-3.7769299 -0.35478565 0 6.0792257e-06 0 0)
(-3.7823054 -0.35510583 0 -5.8880045e-06 0 0)
(-3.7774779 -0.35481514 0 5.7171136e-06 0 0)
(-3.7817741 -0.35507739 0 -5.5683998e-06 0 0)
(-3.7779926 -0.35484259 0 5.442303e-06 0 0)
(-3.7812746 -0.35505087 0 -5.331337e-06 0 0)
(-3.7784851 -0.35486858 0 5.2490948e-06 0 0)
(-3.780801 -0.35502623 0 -5.2217419e-06 0 0)
(-3.7789391 -0.35489309 0 5.0046553e-06 0 0)
(-3.7802143 -0.35499901 0 -5.6554513e-06 0 0)
(-3.778921 -0.35489241 0 5.0308923e-06 0 0)
(-3.050009 -1.5112849 0 -0.66640674 0 0)
(-8.927509 -0.64008706 0 -0.030669311 0 0)
(-5.0229387 -0.44431119 0 -0.010895996 0 0)
(-4.2574291 -0.37333567 0 1.5180987e-05 0 0)
(-3.7730111 -0.35743369 0 -0.00079011833 0 0)
(-3.6317753 -0.34784758 0 -1.4178227e-05 0 0)
(-3.6728122 -0.35076988 0 -0.00015316612 0 0)
(-3.5791774 -0.34537322 0 -5.0248615e-05 0 0)
(-3.6243665 -0.34791425 0 -5.0516569e-05 0 0)
(-3.5673218 -0.3446425 0 7.1410616e-06 0 0)
(-3.6084538 -0.34703566 0 -2.7039873e-05 0 0)
(-3.5680588 -0.34467081 0 2.0284125e-05 0 0)
(-3.6034566 -0.34676765 0 -2.2512188e-05 0 0)
(-3.5702213 -0.34479306 0 2.0875413e-05 0 0)
(-3.601018 -0.34663126 0 -2.0412489e-05 0 0)
(-3.5720423 -0.34490006 0 1.9122257e-05 0 0)
(-3.5991897 -0.34652471 0 -1.8309856e-05 0 0)
(-3.5736168 -0.34499379 0 1.7174153e-05 0 0)
(-3.5976203 -0.34643204 0 -1.6323802e-05 0 0)
(-3.5750377 -0.34507849 0 1.5365083e-05 0 0)
(-3.5962349 -0.34635 0 -1.4559451e-05 0 0)
(-3.5763219 -0.34515497 0 1.3737532e-05 0 0)
(-3.5950011 -0.34627689 0 -1.3006099e-05 0 0)
(-3.5774779 -0.34522374 0 1.2291823e-05 0 0)
(-3.5938982 -0.34621155 0 -1.1640562e-05 0 0)
(-3.5785162 -0.34528544 0 1.1016963e-05 0 0)
(-3.5929103 -0.34615307 0 -1.0443172e-05 0 0)
(-3.5794489 -0.34534076 0 9.8991186e-06 0 0)
(-3.5920236 -0.34610065 0 -9.3972755e-06 0 0)
(-3.5802878 -0.34539042 0 8.9242997e-06 0 0)
(-3.5912258 -0.34605357 0 -8.4883055e-06 0 0)
(-3.5810442 -0.34543508 0 8.0793881e-06 0 0)
(-3.5905055 -0.34601118 0 -7.703411e-06 0 0)
(-3.5817287 -0.34547537 0 7.3525511e-06 0 0)
(-3.5898524 -0.34597288 0 -7.0313402e-06 0 0)
(-3.5823511 -0.34551185 0 6.7334023e-06 0 0)
(-3.589257 -0.3459381 0 -6.4624022e-06 0 0)
(-3.5829205 -0.34554506 0 6.2130676e-06 0 0)
(-3.5887106 -0.34590634 0 -5.9884935e-06 0 0)
(-3.583445 -0.34557549 0 5.7842391e-06 0 0)
(-3.5882052 -0.34587715 0 -5.6032283e-06 0 0)
(-3.5839324 -0.34560357 0 5.4415586e-06 0 0)
(-3.5877333 -0.34585009 0 -5.3015176e-06 0 0)
(-3.5843903 -0.34562971 0 5.1843224e-06 0 0)
(-3.587289 -0.34582481 0 -5.0788868e-06 0 0)
(-3.584829 -0.34565448 0 5.0098703e-06 0 0)
(-3.5868687 -0.34580141 0 -4.9923595e-06 0 0)
(-3.5852407 -0.34567847 0 4.7483517e-06 0 0)
(-3.5863632 -0.34577755 0 -5.6280376e-06 0 0)
(-3.5852844 -0.34567934 0 5.1458894e-06 0 0)
(-2.9736575 -1.4531234 0 -0.62126385 0 0)
(-7.9150097 -0.60942042 0 -0.034536597 0 0)
(-4.9278841 -0.45497206 0 -0.014619771 0 0)
(-4.1481742 -0.36812483 0 -0.00020064989 0 0)
(-3.6051021 -0.35012967 0 -0.0011203591 0 0)
(-3.4370176 -0.33831418 0 -3.8560144e-05 0 0)
(-3.4729356 -0.34126888 0 -0.00018781131 0 0)
(-3.3909483 -0.33624961 0 -8.3212842e-05 0 0)
(-3.4321006 -0.33860654 0 -5.4233831e-05 0 0)
(-3.3809042 -0.33551975 0 -3.6618853e-06 0 0)
(-3.417624 -0.33774809 0 -2.4285738e-05 0 0)
(-3.381275 -0.33551538 0 1.5830175e-05 0 0)
(-3.4130179 -0.3374914 0 -1.9352749e-05 0 0)
(-3.383122 -0.33562453 0 1.7799151e-05 0 0)
(-3.4108154 -0.33736384 0 -1.7675014e-05 0 0)
(-3.384746 -0.33572515 0 1.6491558e-05 0 0)
(-3.4091712 -0.33726334 0 -1.5890806e-05 0 0)
(-3.3861624 -0.335814 0 1.48457e-05 0 0)
(-3.4077565 -0.33717538 0 -1.4153064e-05 0 0)
(-3.387441 -0.33589435 0 1.3293047e-05 0 0)
(-3.4065071 -0.33709745 0 -1.2611563e-05 0 0)
(-3.3885961 -0.33596689 0 1.1887758e-05 0 0)
(-3.4053953 -0.33702804 0 -1.1259905e-05 0 0)
(-3.3896353 -0.33603208 0 1.0636747e-05 0 0)
(-3.4044023 -0.33696606 0 -1.0074613e-05 0 0)
(-3.3905683 -0.33609055 0 9.5329264e-06 0 0)
(-3.4035134 -0.33691062 0 -9.0366836e-06 0 0)
(-3.3914061 -0.33614296 0 8.5650547e-06 0 0)
(-3.402716 -0.33686093 0 -8.1307709e-06 0 0)
(-3.3921594 -0.33619 0 7.7211656e-06 0 0)
(-3.4019988 -0.33681631 0 -7.3438234e-06 0 0)
(-3.3928384 -0.33623231 0 6.9898827e-06 0 0)
(-3.4013515 -0.33677612 0 -6.6645083e-06 0 0)
(-3.3934528 -0.33627049 0 6.3609247e-06 0 0)
(-3.4007647 -0.3367398 0 -6.0829969e-06 0 0)
(-3.3940113 -0.33630508 0 5.8252902e-06 0 0)
(-3.40023 -0.3367068 0 -5.590888e-06 0 0)
(-3.3945222 -0.33633659 0 5.3753317e-06 0 0)
(-3.3997394 -0.33667665 0 -5.1812285e-06 0 0)
(-3.3949928 -0.33636547 0 5.0048115e-06 0 0)
(-3.3992856 -0.33664892 0 -4.8486688e-06 0 0)
(-3.39543 -0.33639215 0 4.7093292e-06 0 0)
(-3.398862 -0.33662317 0 -4.5888646e-06 0 0)
(-3.3958406 -0.33641701 0 4.4898002e-06 0 0)
(-3.3984632 -0.33659908 0 -4.3965906e-06 0 0)
(-3.396234 -0.3364406 0 4.3454048e-06 0 0)
(-3.3980873 -0.33657686 0 -4.3397912e-06 0 0)
(-3.39661 -0.33646411 0 4.0541928e-06 0 0)
(-3.3976523 -0.33655613 0 -5.1835472e-06 0 0)
(-3.3967092 -0.33646688 0 4.7360653e-06 0 0)
(-2.8244711 -1.3576614 0 -0.55972279 0 0)
(-6.8970097 -0.57289681 0 -0.03610559 0 0)
(-4.7235687 -0.4589032 0 -0.017801876 0 0)
(-4.0225747 -0.36274127 0 -0.00047604005 0 0)
(-3.4498875 -0.34316097 0 -0.0014824127 0 0)
(-3.2529806 -0.32894778 0 -6.2396609e-05 0 0)
(-3.2791022 -0.33171633 0 -0.00021781475 0 0)
(-3.206895 -0.32706068 0 -0.00011080156 0 0)
(-3.2450396 -0.32928445 0 -5.6629357e-05 0 0)
(-3.1990244 -0.32637846 0 -1.3306079e-05 0 0)
(-3.2321658 -0.32846503 0 -2.1633696e-05 0 0)
(-3.1992703 -0.32635249 0 1.1781729e-05 0 0)
(-3.2279426 -0.3282201 0 -1.6361426e-05 0 0)
(-3.2008691 -0.32645083 0 1.4945339e-05 0 0)
(-3.2259371 -0.32810036 0 -1.5083237e-05 0 0)
(-3.2023272 -0.32654592 0 1.4018854e-05 0 0)
(-3.2244481 -0.32800535 0 -1.360235e-05 0 0)
(-3.2036107 -0.32663045 0 1.2647898e-05 0 0)
(-3.2231654 -0.32792174 0 -1.2101088e-05 0 0)
(-3.2047696 -0.32670686 0 1.1335914e-05 0 0)
(-3.2220325 -0.32784762 0 -1.0771179e-05 0 0)
(-3.2058157 -0.3267758 0 1.0140734e-05 0 0)
(-3.2210249 -0.32778166 0 -9.610702e-06 0 0)
(-3.2067561 -0.32683772 0 9.0739343e-06 0 0)
(-3.2201258 -0.32772279 0 -8.5960494e-06 0 0)
(-3.2076001 -0.32689323 0 8.1318619e-06 0 0)
(-3.2193215 -0.32767016 0 -7.7089183e-06 0 0)
(-3.2083576 -0.32694298 0 7.3057077e-06 0 0)
(-3.2186003 -0.327623 0 -6.9352539e-06 0 0)
(-3.2090384 -0.32698762 0 6.5854408e-06 0 0)
(-3.2179519 -0.32758065 0 -6.2634804e-06 0 0)
(-3.209652 -0.32702777 0 5.9613536e-06 0 0)
(-3.2173669 -0.32754251 0 -5.6837225e-06 0 0)
(-3.2102069 -0.32706401 0 5.4246402e-06 0 0)
(-3.2168368 -0.32750803 0 -5.1875e-06 0 0)
(-3.2107113 -0.32709686 0 4.9675982e-06 0 0)
(-3.2163539 -0.32747669 0 -4.7676113e-06 0 0)
(-3.2111725 -0.32712679 0 4.5837056e-06 0 0)
(-3.215911 -0.32744804 0 -4.4181394e-06 0 0)
(-3.2115971 -0.32715425 0 4.2676638e-06 0 0)
(-3.2155015 -0.32742167 0 -4.134611e-06 0 0)
(-3.2119915 -0.32717963 0 4.0158133e-06 0 0)
(-3.2151194 -0.32739717 0 -3.9132108e-06 0 0)
(-3.2123616 -0.32720329 0 3.8301612e-06 0 0)
(-3.2147597 -0.32737421 0 -3.7474639e-06 0 0)
(-3.212716 -0.32722573 0 3.7115e-06 0 0)
(-3.2144218 -0.32735306 0 -3.7104251e-06 0 0)
(-3.2130588 -0.32724863 0 3.392096e-06 0 0)
(-3.2140439 -0.32733477 0 -4.7017063e-06 0 0)
(-3.2131959 -0.32725297 0 4.2894909e-06 0 0)
(-2.7658006 -1.3094 0 -0.52694825 0 0)
(-5.9179467 -0.53779516 0 -0.037588984 0 0)
(-4.4480045 -0.45664169 0 -0.020068084 0 0)
(-3.8431808 -0.3561461 0 -0.00097704916 0 0)
(-3.2994316 -0.33677936 0 -0.001948987 0 0)
(-3.0811533 -0.31995378 0 -0.00010333462 0 0)
(-3.0935187 -0.32225194 0 -0.00025044431 0 0)
(-3.0278864 -0.31784156 0 -0.00013390425 0 0)
(-3.063366 -0.31995719 0 -5.8312989e-05 0 0)
(-3.021959 -0.31722646 0 -2.1431825e-05 0 0)
(-3.0520003 -0.31918556 0 -1.9491415e-05 0 0)
(-3.0221757 -0.31718554 0 8.4662315e-06 0 0)
(-3.0481415 -0.31895231 0 -1.3896131e-05 0 0)
(-3.0235658 -0.31727434 0 1.2637084e-05 0 0)
(-3.0463064 -0.31883956 0 -1.2955071e-05 0 0)
(-3.0248752 -0.3173643 0 1.200299e-05 0 0)
(-3.0449525 -0.31874964 0 -1.1729061e-05 0 0)
(-3.0260402 -0.31744477 0 1.0849808e-05 0 0)
(-3.0437868 -0.31867014 0 -1.0422486e-05 0 0)
(-3.0270928 -0.31751746 0 9.7344465e-06 0 0)
(-3.0427574 -0.31859964 0 -9.265904e-06 0 0)
(-3.0280422 -0.31758299 0 8.7117901e-06 0 0)
(-3.0418425 -0.31853695 0 -8.2620433e-06 0 0)
(-3.0288951 -0.31764181 0 7.7961415e-06 0 0)
(-3.0410266 -0.31848103 0 -7.387184e-06 0 0)
(-3.0296602 -0.31769451 0 6.9866246e-06 0 0)
(-3.0402971 -0.31843105 0 -6.6235434e-06 0 0)
(-3.0303465 -0.31774174 0 6.2764956e-06 0 0)
(-3.0396433 -0.31838629 0 -5.9581191e-06 0 0)
(-3.0309632 -0.31778411 0 5.6573634e-06 0 0)
(-3.0390557 -0.31834609 0 -5.380559e-06 0 0)
(-3.0315189 -0.31782223 0 5.1209186e-06 0 0)
(-3.0385258 -0.31830988 0 -4.8821943e-06 0 0)
(-3.0320214 -0.31785663 0 4.6595774e-06 0 0)
(-3.0380457 -0.31827713 0 -4.4556531e-06 0 0)
(-3.0324779 -0.31788783 0 4.2667013e-06 0 0)
(-3.0376085 -0.31824737 0 -4.0947094e-06 0 0)
(-3.0328952 -0.31791626 0 3.9366765e-06 0 0)
(-3.0372077 -0.31822015 0 -3.7942729e-06 0 0)
(-3.0332794 -0.31794236 0 3.6649423e-06 0 0)
(-3.0368373 -0.31819507 0 -3.5505441e-06 0 0)
(-3.033636 -0.31796649 0 3.4483683e-06 0 0)
(-3.0364918 -0.31817177 0 -3.3600692e-06 0 0)
(-3.0339705 -0.31798901 0 3.2896835e-06 0 0)
(-3.0361666 -0.31814989 0 -3.2150154e-06 0 0)
(-3.0342903 -0.31801036 0 3.19119e-06 0 0)
(-3.0358619 -0.31812976 0 -3.1904379e-06 0 0)
(-3.034603 -0.31803256 0 2.8456644e-06 0 0)
(-3.0355327 -0.31811349 0 -4.2817682e-06 0 0)
(-3.034766 -0.31803833 0 3.8858731e-06 0 0)
(-2.7317714 -1.2234535 0 -0.46263787 0 0)
(-4.9146932 -0.50568355 0 -0.03952792 0 0)
(-4.163143 -0.45273482 0 -0.021412784 0 0)
(-3.5775319 -0.34677179 0 -0.0018890585 0 0)
(-3.1110595 -0.32875965 0 -0.0024123986 0 0)
(-2.9071419 -0.31072841 0 -0.00014012208 0 0)
(-2.9120804 -0.3127132 0 -0.00027986174 0 0)
(-2.8533939 -0.30858078 0 -0.00015103911 0 0)
(-2.8866768 -0.31061168 0 -5.9137683e-05 0 0)
(-2.849627 -0.30806061 0 -2.8170116e-05 0 0)
(-2.8770078 -0.30990573 0 -1.7667274e-05 0 0)
(-2.8499979 -0.30801479 0 5.6923831e-06 0 0)
(-2.8735568 -0.30968628 0 -1.179772e-05 0 0)
(-2.8512392 -0.30809595 0 1.0717501e-05 0 0)
(-2.8718858 -0.30958032 0 -1.1150823e-05 0 0)
(-2.8524192 -0.30818118 0 1.0311105e-05 0 0)
(-2.8706543 -0.30949527 0 -1.0146973e-05 0 0)
(-2.8534777 -0.30825777 0 9.3342822e-06 0 0)
(-2.8695944 -0.30941977 0 -9.0068737e-06 0 0)
(-2.8544345 -0.30832688 0 8.3840258e-06 0 0)
(-2.8686586 -0.30935279 0 -7.9970845e-06 0 0)
(-2.8552966 -0.3083891 0 7.5072636e-06 0 0)
(-2.8678273 -0.30929326 0 -7.1255537e-06 0 0)
(-2.8560707 -0.30844492 0 6.7194117e-06 0 0)
(-2.8670864 -0.30924019 0 -6.3687254e-06 0 0)
(-2.8567647 -0.30849492 0 6.0218472e-06 0 0)
(-2.8664243 -0.30919278 0 -5.7092936e-06 0 0)
(-2.8573872 -0.30853971 0 5.4096239e-06 0 0)
(-2.8658311 -0.30915031 0 -5.1351639e-06 0 0)
(-2.8579463 -0.30857991 0 4.8757803e-06 0 0)
(-2.8652982 -0.30911219 0 -4.6370348e-06 0 0)
(-2.85845 -0.30861606 0 4.413214e-06 0 0)
(-2.8648176 -0.30907783 0 -4.2072686e-06 0 0)
(-2.8589054 -0.3086487 0 4.015385e-06 0 0)
(-2.8643824 -0.30904676 0 -3.8394344e-06 0 0)
(-2.8593191 -0.30867831 0 3.6765563e-06 0 0)
(-2.8639862 -0.30901851 0 -3.5281286e-06 0 0)
(-2.8596972 -0.3087053 0 3.3918774e-06 0 0)
(-2.863623 -0.30899266 0 -3.268951e-06 0 0)
(-2.8600452 -0.30873009 0 3.1573989e-06 0 0)
(-2.8632875 -0.30896884 0 -3.058654e-06 0 0)
(-2.8603681 -0.30875302 0 2.9704042e-06 0 0)
(-2.8629746 -0.30894668 0 -2.8940821e-06 0 0)
(-2.8606708 -0.30877443 0 2.8341275e-06 0 0)
(-2.8626802 -0.30892585 0 -2.7661668e-06 0 0)
(-2.8609598 -0.30879472 0 2.7524912e-06 0 0)
(-2.8624049 -0.30890669 0 -2.7499264e-06 0 0)
(-2.861245 -0.30881615 0 2.3864978e-06 0 0)
(-2.8621176 -0.30889211 0 -3.9030077e-06 0 0)
(-2.8614247 -0.30882317 0 3.5179849e-06 0 0)
(-2.694407 -1.2088795 0 -0.45623836 0 0)
(-3.9761201 -0.48152717 0 -0.045614222 0 0)
(-3.8231782 -0.43906853 0 -0.021177966 0 0)
(-3.3423039 -0.34635009 0 -0.0046561229 0 0)
(-2.9502159 -0.32276159 0 -0.0030907685 0 0)
(-2.7446882 -0.30194546 0 -0.00022526987 0 0)
(-2.7400072 -0.30336221 0 -0.00031953659 0 0)
(-2.6842397 -0.29930191 0 -0.00016542402 0 0)
(-2.7154576 -0.3012645 0 -5.9010146e-05 0 0)
(-2.6822475 -0.29888607 0 -3.3672088e-05 0 0)
(-2.7072404 -0.30062698 0 -1.5975782e-05 0 0)
(-2.6827855 -0.29884136 0 3.3003242e-06 0 0)
(-2.704179 -0.30042198 0 -9.9351661e-06 0 0)
(-2.6839095 -0.29891608 0 9.0503477e-06 0 0)
(-2.7026609 -0.30032247 0 -9.5542516e-06 0 0)
(-2.6849744 -0.2989968 0 8.8288725e-06 0 0)
(-2.7015402 -0.30024209 0 -8.7510279e-06 0 0)
(-2.685936 -0.29906963 0 8.0012942e-06 0 0)
(-2.7005763 -0.30017048 0 -7.7601049e-06 0 0)
(-2.6868058 -0.29913525 0 7.1955287e-06 0 0)
(-2.6997256 -0.30010693 0 -6.8804869e-06 0 0)
(-2.6875889 -0.29919427 0 6.4474063e-06 0 0)
(-2.6989702 -0.30005047 0 -6.1257911e-06 0 0)
(-2.6882916 -0.29924718 0 5.7722811e-06 0 0)
(-2.6982973 -0.30000016 0 -5.4730079e-06 0 0)
(-2.6889214 -0.29929457 0 5.1733836e-06 0 0)
(-2.6976961 -0.29995522 0 -4.9053619e-06 0 0)
(-2.6894861 -0.29933701 0 4.6473818e-06 0 0)
(-2.6971577 -0.29991498 0 -4.4115991e-06 0 0)
(-2.6899933 -0.2993751 0 4.1886086e-06 0 0)
(-2.6966741 -0.29987885 0 -3.9833659e-06 0 0)
(-2.6904501 -0.29940936 0 3.7910452e-06 0 0)
(-2.6962381 -0.29984629 0 -3.6139452e-06 0 0)
(-2.6908631 -0.2994403 0 3.4490819e-06 0 0)
(-2.6958434 -0.29981683 0 -3.2977407e-06 0 0)
(-2.6912382 -0.29946837 0 3.1577795e-06 0 0)
(-2.695484 -0.29979003 0 -3.0300749e-06 0 0)
(-2.691581 -0.29949398 0 2.9129597e-06 0 0)
(-2.6951546 -0.29976551 0 -2.8071523e-06 0 0)
(-2.6918963 -0.2995175 0 2.7112084e-06 0 0)
(-2.6948505 -0.2997429 0 -2.6262043e-06 0 0)
(-2.692189 -0.29953928 0 2.5501581e-06 0 0)
(-2.694567 -0.29972185 0 -2.4843533e-06 0 0)
(-2.6924631 -0.29955961 0 2.4333974e-06 0 0)
(-2.6943002 -0.29970204 0 -2.3715009e-06 0 0)
(-2.6927246 -0.29957888 0 2.3665233e-06 0 0)
(-2.6940511 -0.29968381 0 -2.3612806e-06 0 0)
(-2.6929846 -0.29959949 0 1.9861724e-06 0 0)
(-2.6938002 -0.29967065 0 -3.5454036e-06 0 0)
(-2.6931743 -0.29960759 0 3.1733009e-06 0 0)
(-2.8279951 -1.108545 0 -0.37022733 0 0)
(-3.2935761 -0.45763822 0 -0.046889357 0 0)
(-3.4808269 -0.41647018 0 -0.019221551 0 0)
(-3.0403153 -0.33726644 0 -0.0064795455 0 0)
(-2.7658915 -0.31389021 0 -0.0033686197 0 0)
(-2.5773361 -0.29260513 0 -0.00029237062 0 0)
(-2.5700428 -0.2938285 0 -0.00035020264 0 0)
(-2.5202199 -0.29001739 0 -0.00017409455 0 0)
(-2.5492272 -0.2919004 0 -5.7949119e-05 0 0)
(-2.5197063 -0.28969935 0 -3.7887156e-05 0 0)
(-2.5426048 -0.29134656 0 -1.4306072e-05 0 0)
(-2.5205177 -0.28966408 0 1.2438133e-06 0 0)
(-2.539974 -0.29115871 0 -8.2468042e-06 0 0)
(-2.5215793 -0.28973443 0 7.5828173e-06 0 0)
(-2.5386149 -0.29106589 0 -8.1182894e-06 0 0)
(-2.5225493 -0.28981108 0 7.5107238e-06 0 0)
(-2.5375989 -0.29099009 0 -7.4994843e-06 0 0)
(-2.5234243 -0.28988031 0 6.811142e-06 0 0)
(-2.5367234 -0.29092228 0 -6.6447193e-06 0 0)
(-2.5242153 -0.28994255 0 6.133561e-06 0 0)
(-2.5359504 -0.29086207 0 -5.88255e-06 0 0)
(-2.5249266 -0.28999847 0 5.5004811e-06 0 0)
(-2.5352641 -0.29080858 0 -5.2326663e-06 0 0)
(-2.5255645 -0.29004858 0 4.926263e-06 0 0)
(-2.5346529 -0.29076094 0 -4.6730191e-06 0 0)
(-2.526136 -0.29009344 0 4.4156357e-06 0 0)
(-2.5341071 -0.29071839 0 -4.1874548e-06 0 0)
(-2.5266483 -0.29013363 0 3.9667195e-06 0 0)
(-2.5336184 -0.29068029 0 -3.7655205e-06 0 0)
(-2.5271085 -0.29016969 0 3.5750297e-06 0 0)
(-2.5331795 -0.29064608 0 -3.3997322e-06 0 0)
(-2.5275228 -0.29020213 0 3.2355327e-06 0 0)
(-2.5327839 -0.29061524 0 -3.0842068e-06 0 0)
(-2.5278974 -0.29023143 0 2.9434585e-06 0 0)
(-2.5324258 -0.29058734 0 -2.8141002e-06 0 0)
(-2.5282376 -0.29025802 0 2.6945853e-06 0 0)
(-2.5320998 -0.29056195 0 -2.5853856e-06 0 0)
(-2.5285484 -0.29028229 0 2.4853361e-06 0 0)
(-2.5318011 -0.2905387 0 -2.3948071e-06 0 0)
(-2.5288343 -0.29030459 0 2.3127741e-06 0 0)
(-2.5315253 -0.29051725 0 -2.2400179e-06 0 0)
(-2.5290996 -0.29032526 0 2.1748339e-06 0 0)
(-2.5312683 -0.29049728 0 -2.1184079e-06 0 0)
(-2.529348 -0.29034455 0 2.07533e-06 0 0)
(-2.5310264 -0.29047846 0 -2.0190696e-06 0 0)
(-2.5295846 -0.29036283 0 2.0214864e-06 0 0)
(-2.5308008 -0.29046111 0 -2.013252e-06 0 0)
(-2.5298215 -0.29038259 0 1.6325245e-06 0 0)
(-2.5305815 -0.29044915 0 -3.2025831e-06 0 0)
(-2.5300162 -0.29039161 0 2.8497443e-06 0 0)
(-2.8342886 -1.0924704 0 -0.359242 0 0)
(-2.8583142 -0.42650657 0 -0.046185052 0 0)
(-3.1772325 -0.4108144 0 -0.023224085 0 0)
(-2.7592982 -0.33014533 0 -0.0087913094 0 0)
(-2.596232 -0.30530278 0 -0.0034992938 0 0)
(-2.4209572 -0.28380263 0 -0.00043951459 0 0)
(-2.4086206 -0.28444775 0 -0.00038699471 0 0)
(-2.3616044 -0.28071502 0 -0.00017790035 0 0)
(-2.3884929 -0.28253466 0 -5.4945934e-05 0 0)
(-2.3621999 -0.28050297 0 -4.0470411e-05 0 0)
(-2.3831796 -0.28206597 0 -1.2426808e-05 0 0)
(-2.3632471 -0.28048355 0 -4.4570853e-07 0 0)
(-2.3809459 -0.28189665 0 -6.6819175e-06 0 0)
(-2.3642653 -0.2805511 0 6.2948768e-06 0 0)
(-2.3797395 -0.28181061 0 -6.8191609e-06 0 0)
(-2.3651539 -0.28062402 0 6.3348245e-06 0 0)
(-2.3788218 -0.2817393 0 -6.372718e-06 0 0)
(-2.3659511 -0.28068979 0 5.7447732e-06 0 0)
(-2.3780277 -0.28167519 0 -5.6429235e-06 0 0)
(-2.3666703 -0.28074878 0 5.1811972e-06 0 0)
(-2.3773259 -0.28161821 0 -4.9872137e-06 0 0)
(-2.3673162 -0.28080172 0 4.6512821e-06 0 0)
(-2.3767029 -0.28156761 0 -4.4317348e-06 0 0)
(-2.3678951 -0.28084912 0 4.1676777e-06 0 0)
(-2.376148 -0.28152253 0 -3.9557697e-06 0 0)
(-2.3684136 -0.28089156 0 3.7362929e-06 0 0)
(-2.3756527 -0.28148228 0 -3.543879e-06 0 0)
(-2.3688783 -0.28092957 0 3.3565433e-06 0 0)
(-2.3752092 -0.28144624 0 -3.186379e-06 0 0)
(-2.3692956 -0.28096367 0 3.0250205e-06 0 0)
(-2.3748109 -0.28141387 0 -2.8765857e-06 0 0)
(-2.3696714 -0.28099437 0 2.7375859e-06 0 0)
(-2.3744521 -0.28138469 0 -2.6093743e-06 0 0)
(-2.3700111 -0.2810221 0 2.4902298e-06 0 0)
(-2.3741272 -0.28135828 0 -2.38058e-06 0 0)
(-2.3703195 -0.28104727 0 2.2793772e-06 0 0)
(-2.3738315 -0.28133424 0 -2.1867625e-06 0 0)
(-2.3706013 -0.28107025 0 2.1019914e-06 0 0)
(-2.3735606 -0.28131222 0 -2.025149e-06 0 0)
(-2.3708606 -0.28109138 0 1.955564e-06 0 0)
(-2.3733105 -0.28129189 0 -1.8937669e-06 0 0)
(-2.371101 -0.28111096 0 1.8382945e-06 0 0)
(-2.3730776 -0.28127296 0 -1.7902637e-06 0 0)
(-2.3713261 -0.28112926 0 1.7541111e-06 0 0)
(-2.3728583 -0.28125509 0 -1.7031498e-06 0 0)
(-2.3715401 -0.28114658 0 1.7117296e-06 0 0)
(-2.3726538 -0.2812386 0 -1.7005593e-06 0 0)
(-2.3717558 -0.28116548 0 1.3194463e-06 0 0)
(-2.3724623 -0.28122765 0 -2.87313e-06 0 0)
(-2.3719518 -0.28117527 0 2.5478333e-06 0 0)
(-2.964113 -1.0166221 0 -0.29787577 0 0)
(-2.5340012 -0.40689891 0 -0.04413833 0 0)
(-2.8926493 -0.39104334 0 -0.022162436 0 0)
(-2.514654 -0.31632888 0 -0.0088915168 0 0)
(-2.4276708 -0.29431999 0 -0.0031333716 0 0)
(-2.2709725 -0.27484101 0 -0.00055803907 0 0)
(-2.2543148 -0.27505676 0 -0.00040568153 0 0)
(-2.2089309 -0.27140729 0 -0.0001722215 0 0)
(-2.233344 -0.2731652 0 -4.8533528e-05 0 0)
(-2.2098391 -0.27129845 0 -4.08786e-05 0 0)
(-2.2289968 -0.27278527 0 -1.0015405e-05 0 0)
(-2.211006 -0.27129995 0 -1.6857674e-06 0 0)
(-2.2270934 -0.27263569 0 -5.1719679e-06 0 0)
(-2.2119797 -0.27136605 0 5.1818157e-06 0 0)
(-2.2260275 -0.27255656 0 -5.6321494e-06 0 0)
(-2.2127964 -0.27143564 0 5.2851582e-06 0 0)
(-2.2252017 -0.27248968 0 -5.3536922e-06 0 0)
(-2.2135233 -0.27149811 0 4.7865894e-06 0 0)
(-2.2244828 -0.27242918 0 -4.7398693e-06 0 0)
(-2.2141771 -0.27155397 0 4.3243277e-06 0 0)
(-2.2238465 -0.27237534 0 -4.1811233e-06 0 0)
(-2.2147634 -0.27160402 0 3.8871178e-06 0 0)
(-2.2232813 -0.27232751 0 -3.7109752e-06 0 0)
(-2.2152884 -0.27164883 0 3.485116e-06 0 0)
(-2.222778 -0.27228491 0 -3.3104449e-06 0 0)
(-2.2157584 -0.27168893 0 3.1250946e-06 0 0)
(-2.2223287 -0.27224687 0 -2.9648987e-06 0 0)
(-2.2161797 -0.27172485 0 2.8076115e-06 0 0)
(-2.2219265 -0.2722128 0 -2.6653933e-06 0 0)
(-2.216558 -0.27175708 0 2.5302341e-06 0 0)
(-2.2215654 -0.27218221 0 -2.4059817e-06 0 0)
(-2.2168986 -0.2717861 0 2.2896382e-06 0 0)
(-2.22124 -0.27215462 0 -2.1822291e-06 0 0)
(-2.2172064 -0.27181232 0 2.0825035e-06 0 0)
(-2.2209454 -0.27212964 0 -1.9905868e-06 0 0)
(-2.217486 -0.27183613 0 1.90584e-06 0 0)
(-2.2206773 -0.2721069 0 -1.8281443e-06 0 0)
(-2.2177414 -0.27185787 0 1.7570993e-06 0 0)
(-2.2204318 -0.27208606 0 -1.6925643e-06 0 0)
(-2.2179763 -0.27187787 0 1.6341592e-06 0 0)
(-2.2202052 -0.27206681 0 -1.5822076e-06 0 0)
(-2.2181942 -0.27189642 0 1.535456e-06 0 0)
(-2.2199941 -0.27204888 0 -1.4949721e-06 0 0)
(-2.218398 -0.27191376 0 1.4649366e-06 0 0)
(-2.2197953 -0.27203193 0 -1.4190133e-06 0 0)
(-2.2185916 -0.27193015 0 1.4326096e-06 0 0)
(-2.2196101 -0.27201626 0 -1.4188459e-06 0 0)
(-2.2187878 -0.27194817 0 1.0419123e-06 0 0)
(-2.2194429 -0.27200617 0 -2.5560409e-06 0 0)
(-2.218982 -0.2719586 0 2.2675514e-06 0 0)
(-2.9842096 -1.0037897 0 -0.288001 0 0)
(-2.2921417 -0.38949873 0 -0.0450486 0 0)
(-2.6786606 -0.37621319 0 -0.021897225 0 0)
(-2.3427217 -0.30680259 0 -0.0091352106 0 0)
(-2.2799866 -0.28452531 0 -0.0028701619 0 0)
(-2.1263993 -0.26573773 0 -0.0006151155 0 0)
(-2.1062237 -0.26563071 0 -0.00039436498 0 0)
(-2.0621685 -0.26210242 0 -0.00015464885 0 0)
(-2.0837344 -0.26379261 0 -3.8133436e-05 0 0)
(-2.0626496 -0.26208573 0 -3.8750305e-05 0 0)
(-2.0800653 -0.26350386 0 -6.7977983e-06 0 0)
(-2.0638178 -0.26211307 0 -2.3875505e-06 0 0)
(-2.0784172 -0.2633756 0 -3.6402701e-06 0 0)
(-2.0647343 -0.26217922 0 4.2507778e-06 0 0)
(-2.0774741 -0.26330367 0 -4.5288986e-06 0 0)
(-2.0654837 -0.2622459 0 4.3508919e-06 0 0)
(-2.0767324 -0.26324118 0 -4.4255799e-06 0 0)
(-2.0661466 -0.26230526 0 3.923487e-06 0 0)
(-2.0760832 -0.26318422 0 -3.9219348e-06 0 0)
(-2.0667408 -0.26235813 0 3.5505549e-06 0 0)
(-2.0755072 -0.26313342 0 -3.452278e-06 0 0)
(-2.0672725 -0.26240542 0 3.1967213e-06 0 0)
(-2.0749952 -0.26308826 0 -3.0596526e-06 0 0)
(-2.0677483 -0.26244773 0 2.8684261e-06 0 0)
(-2.0745391 -0.26304804 0 -2.7274104e-06 0 0)
(-2.0681741 -0.26248559 0 2.5729083e-06 0 0)
(-2.074132 -0.26301213 0 -2.4418501e-06 0 0)
(-2.0685556 -0.2625195 0 2.3116997e-06 0 0)
(-2.0737675 -0.26297996 0 -2.1947528e-06 0 0)
(-2.0688982 -0.26254994 0 2.0832447e-06 0 0)
(-2.0734404 -0.26295106 0 -1.9808548e-06 0 0)
(-2.0692067 -0.26257734 0 1.8849591e-06 0 0)
(-2.0731456 -0.262925 0 -1.7963522e-06 0 0)
(-2.0694855 -0.26260211 0 1.7141493e-06 0 0)
(-2.0728787 -0.2629014 0 -1.638257e-06 0 0)
(-2.0697387 -0.26262461 0 1.5683572e-06 0 0)
(-2.0726359 -0.26287991 0 -1.5041401e-06 0 0)
(-2.0699699 -0.26264516 0 1.4454769e-06 0 0)
(-2.0724135 -0.2628602 0 -1.3920589e-06 0 0)
(-2.0701827 -0.26266407 0 1.3437377e-06 0 0)
(-2.0722083 -0.26284199 0 -1.3006726e-06 0 0)
(-2.0703799 -0.26268163 0 1.2617905e-06 0 0)
(-2.0720171 -0.26282502 0 -1.2281233e-06 0 0)
(-2.0705644 -0.26269804 0 1.2035219e-06 0 0)
(-2.0718371 -0.26280897 0 -1.1624335e-06 0 0)
(-2.0707393 -0.26271355 0 1.1799869e-06 0 0)
(-2.0716693 -0.26279408 0 -1.1641747e-06 0 0)
(-2.0709175 -0.26273068 0 7.9540045e-07 0 0)
(-2.0715235 -0.26278473 0 -2.2503205e-06 0 0)
(-2.0711078 -0.26274164 0 2.0083414e-06 0 0)
(-3.1137878 -0.9314142 0 -0.23578374 0 0)
(-2.1535361 -0.36759751 0 -0.039404017 0 0)
(-2.4993778 -0.35749963 0 -0.019770901 0 0)
(-2.1892281 -0.29460734 0 -0.0085865035 0 0)
(-2.1367022 -0.27393571 0 -0.0025019692 0 0)
(-1.989559 -0.25648082 0 -0.00058292165 0 0)
(-1.9660278 -0.25624052 0 -0.00035131426 0 0)
(-1.9218269 -0.252821 0 -0.00012679872 0 0)
(-1.9399733 -0.25443336 0 -2.4088275e-05 0 0)
(-1.9208359 -0.25287332 0 -3.4088304e-05 0 0)
(-1.9364928 -0.25422609 0 -2.5846735e-06 0 0)
(-1.9217551 -0.25292533 0 -2.4848329e-06 0 0)
(-1.9349466 -0.25411756 0 -2.0213533e-06 0 0)
(-1.9225542 -0.25299125 0 3.509673e-06 0 0)
(-1.9340835 -0.25405219 0 -3.4848105e-06 0 0)
(-1.9232267 -0.25305499 0 3.5239094e-06 0 0)
(-1.9334119 -0.25399386 0 -3.5739856e-06 0 0)
(-1.9238272 -0.25311132 0 3.1449239e-06 0 0)
(-1.9328251 -0.25394029 0 -3.1777211e-06 0 0)
(-1.924366 -0.2531613 0 2.8496984e-06 0 0)
(-1.9323042 -0.25389242 0 -2.7907473e-06 0 0)
(-1.9248477 -0.25320594 0 2.5707935e-06 0 0)
(-1.931841 -0.25384984 0 -2.4689122e-06 0 0)
(-1.9252782 -0.25324585 0 2.3092277e-06 0 0)
(-1.9314282 -0.25381191 0 -2.1987232e-06 0 0)
(-1.9256635 -0.25328156 0 2.0722e-06 0 0)
(-1.9310597 -0.25377803 0 -1.9675899e-06 0 0)
(-1.9260087 -0.25331355 0 1.8620257e-06 0 0)
(-1.9307299 -0.25374768 0 -1.7680172e-06 0 0)
(-1.9263186 -0.25334226 0 1.6779296e-06 0 0)
(-1.9304339 -0.25372042 0 -1.595379e-06 0 0)
(-1.9265976 -0.25336812 0 1.5179989e-06 0 0)
(-1.9301671 -0.25369583 0 -1.4464502e-06 0 0)
(-1.9268498 -0.25339149 0 1.3801122e-06 0 0)
(-1.9299256 -0.25367355 0 -1.318755e-06 0 0)
(-1.9270788 -0.25341273 0 1.2622961e-06 0 0)
(-1.9297059 -0.25365325 0 -1.2103033e-06 0 0)
(-1.927288 -0.25343214 0 1.1628483e-06 0 0)
(-1.9295047 -0.25363463 0 -1.1195115e-06 0 0)
(-1.9274805 -0.25345001 0 1.0803187e-06 0 0)
(-1.929319 -0.25361742 0 -1.0453077e-06 0 0)
(-1.9276589 -0.2534666 0 1.0135563e-06 0 0)
(-1.9291461 -0.25360137 0 -9.8607065e-07 0 0)
(-1.9278257 -0.25348213 0 9.6632126e-07 0 0)
(-1.9289833 -0.25358618 0 -9.2990102e-07 0 0)