/*--------------------------------*- C++ -*----------------------------------*\
| =========                 |                                                 |
| \\      /  F ield         | OpenFOAM: The Open Source CFD Toolbox           |
|  \\    /   O peration     | Version:  2312                                  |
|   \\  /    A nd           | Website:  www.openfoam.com                      |
|    \\/     M anipulation  |                                                 |
\*---------------------------------------------------------------------------*/
FoamFile
{
    version     2.0;
    format      ascii;
    arch        "LSB;label=32;scalar=64";
    class       volScalarField;
    location    "8";
    object      T;
}
// * * * * * * * * * * * * * * * * * * * * * * * * * * * * * * * * * * * * * //

dimensions      [0 0 0 1 0 0 0];

internalField   nonuniform List<scalar> 
4000
(
330.1974
328.93476
328.69288
328.63141
328.55903
328.51301
328.46881
328.43103
328.39467
328.36199
328.32917
328.29909
328.26846
328.23988
328.21079
328.18318
328.15522
328.12828
328.1012
328.07474
328.04835
328.02225
327.99641
327.97058
327.94521
327.91959
327.89461
327.86915
327.84451
327.81916
327.79482
327.76956
327.74549
327.72029
327.69647
327.67131
327.64771
327.62257
327.59919
327.57404
327.55088
327.5257
327.50276
327.47751
327.45482
327.42946
327.40706
327.38147
327.35956
327.33311
332.35411
330.31051
329.64142
329.50233
329.33188
329.23991
329.15353
329.08631
329.02341
328.97146
328.91917
328.87502
328.8293
328.78966
328.74853
328.71181
328.67408
328.63937
328.60425
328.571
328.53794
328.50576
328.47438
328.443
328.41302
328.38226
328.35346
328.32317
328.29539
328.26545
328.23857
328.2089
328.18282
328.15334
328.128
328.09862
328.07397
328.04465
328.02065
327.99131
327.96796
327.93852
327.91583
327.8862
327.86425
327.83426
327.81321
327.78255
327.76294
327.7298
333.6853
331.6339
330.58226
330.36738
330.10142
329.96405
329.83613
329.73962
329.65051
329.57932
329.50778
329.44955
329.38889
329.33819
329.28513
329.23928
329.19187
329.14938
329.1063
329.06622
329.02657
328.98828
328.95142
328.91448
328.87993
328.84402
328.81143
328.7763
328.74541
328.71088
328.68148
328.64739
328.61933
328.58554
328.55871
328.52511
328.49942
328.46591
328.44131
328.40777
328.38424
328.35054
328.32813
328.2941
328.2729
328.2383
328.21858
328.18286
328.16554
328.12599
334.56647
332.85933
331.50174
331.21826
330.86248
330.68151
330.51356
330.38836
330.27379
330.18359
330.09327
330.02107
329.94581
329.88407
329.81937
329.76439
329.70751
329.65721
329.60634
329.55943
329.51332
329.46891
329.42668
329.38415
329.34514
329.30405
329.26776
329.22778
329.19385
329.1547
329.12285
329.08432
329.05433
329.01623
328.98795
328.95012
328.92343
328.88572
328.86055
328.8228
328.79913
328.76116
328.73904
328.70062
328.68019
328.64097
328.6226
328.58184
328.56674
328.52118
335.17662
333.9467
332.382
332.04374
331.6079
331.38689
331.18164
331.02902
330.89032
330.78162
330.67336
330.58744
330.49818
330.42554
330.34962
330.28559
330.21958
330.16152
330.10314
330.04939
329.99706
329.94652
329.89911
329.85099
329.80766
329.7614
329.72154
329.67669
329.63984
329.59606
329.56186
329.51888
329.48705
329.44463
329.41497
329.3729
329.34527
329.30336
329.27767
329.23572
329.21195
329.16972
329.14791
329.10512
329.08547
329.04166
329.02463
328.9789
328.96591
328.9148
335.61261
334.87135
333.20453
332.8307
332.32903
332.07362
331.83519
331.65729
331.49645
331.37021
331.24524
331.14611
331.04369
330.96046
330.87396
330.80105
330.72641
330.66069
330.59519
330.53469
330.47644
330.41983
330.36748
330.31381
330.26639
330.21497
330.17172
330.12202
330.0824
330.03401
329.99758
329.95016
329.9166
329.86987
329.83893
329.79264
329.76415
329.71805
329.69191
329.64577
329.62194
329.57547
329.55403
329.50689
329.48804
329.4397
329.42398
329.3734
329.36234
329.30618
335.93113
335.62165
333.95252
333.56548
333.01651
332.73432
332.4683
332.26824
332.088
331.94567
331.80565
331.69413
331.57971
331.48638
331.39014
331.30869
331.22605
331.15292
331.08079
331.01371
330.94994
330.88737
330.83043
330.77129
330.72005
330.66354
330.61713
330.56264
330.52044
330.46748
330.42899
330.37718
330.34202
330.29103
330.25891
330.20844
330.17918
330.12895
330.10242
330.05214
330.02831
329.97766
329.95661
329.90519
329.88715
329.83437
329.81991
329.76467
329.75532
329.6946
336.16809
336.20051
334.61376
334.2355
333.66109
333.36136
333.07467
332.85655
332.66037
332.50395
332.35102
332.22827
332.10331
332.00062
331.89572
331.80622
331.7164
331.6362
331.55808
331.48466
331.41589
331.34756
331.28644
331.22199
331.16726
331.10578
331.0565
330.99732
330.95278
330.89535
330.85499
330.79887
330.76227
330.70709
330.67394
330.61936
330.58944
330.53514
330.50832
330.45397
330.43021
330.37547
330.35484
330.29924
330.282
330.22493
330.21165
330.15197
330.14409
330.07931
336.34781
336.62238
335.18144
334.83096
334.25455
333.94739
333.64804
333.41685
333.20884
333.04088
332.8776
332.74514
332.6114
332.50034
332.38806
332.2912
332.19518
332.10839
332.02505
331.94567
331.87251
331.7987
331.73389
331.66435
331.60654
331.54029
331.48847
331.42476
331.37815
331.31639
331.27439
331.21409
331.17625
331.11699
331.08297
331.02439
330.99395
330.93568
330.90867
330.85037
330.82674
330.76802
330.74785
330.68823
330.67177
330.61059
330.5984
330.53458
330.52789
330.4595
336.48734
336.90993
335.65476
335.34616
334.79041
334.48596
334.1826
333.94398
333.72876
333.55229
333.38161
333.24128
333.10083
332.98262
332.86446
332.76112
332.66003
332.5673
332.47963
332.39478
332.31792
332.23903
332.1711
332.09678
332.03637
331.9656
331.91163
331.84361
331.79526
331.72935
331.68599
331.62167
331.58282
331.51964
331.48493
331.42249
331.39167
331.32959
331.30249
331.2404
331.21697
331.15444
331.13476
331.0713
331.05559
330.99054
330.97934
330.9117
330.90596
330.83437
336.5985
337.08994
336.0381
335.77994
335.26435
334.97205
334.67341
334.43332
334.21585
334.03427
333.85943
333.71339
333.56849
333.44461
333.32225
333.21346
333.10859
333.01071
332.91971
332.82999
332.75025
332.66674
332.59635
332.51765
332.45516
332.3802
332.32452
332.25247
332.20274
332.13294
332.08852
332.02041
331.98078
331.9139
331.87869
331.81261
331.78156
331.71587
331.6888
331.62311
331.59996
331.53383
331.51466
331.44759
331.43261
331.36397
331.35363
331.28255
331.27752
331.20312
336.68998
337.19053
336.34018
336.13538
335.67451
335.40243
335.1168
334.88114
334.66643
334.48338
334.30779
334.1584
334.01149
333.88359
333.75885
333.64583
333.53857
333.43646
333.34323
333.24936
333.16761
333.08008
333.00793
332.92533
332.86134
332.78261
332.72569
332.64997
332.59926
332.52588
332.48071
332.4091
332.36897
332.29864
332.26315
332.19367
332.16255
332.0935
332.06658
331.99753
331.97473
331.90527
331.88663
331.81624
331.80194
331.73004
331.72044
331.6463
331.6418
331.56493
336.76742
337.23728
336.57239
336.4189
336.02162
335.77597
335.51054
335.28482
335.07768
334.8968
334.72389
334.57364
334.42725
334.29711
334.1719
334.05599
333.94782
333.84252
333.74822
333.65103
333.56821
333.47732
333.40418
333.31824
333.25339
333.17135
333.11371
333.03474
332.98347
332.90688
332.86132
332.78655
332.74619
332.67274
332.6372
332.56462
332.53361
332.46148
332.43483
332.36273
332.34035
332.26784
332.24976
332.17637
332.16272
332.08791
332.07894
332.00214
331.99801
331.91902
336.83498
337.25186
336.74719
336.63927
336.30884
336.09366
335.85408
335.64303
335.44778
335.27255
335.10562
334.95699
334.81362
334.6831
334.55935
334.44197
334.33441
334.22703
334.13288
334.03327
333.95037
333.85687
333.78354
333.69489
333.62983
333.54504
333.48722
333.40547
333.35409
333.27472
333.22915
333.1516
333.11132
333.0351
332.99975
332.92441
332.8937
332.81882
332.79258
332.71775
332.69588
332.62067
332.60316
332.52714
332.51409
332.43677
332.42832
332.34928
332.34539
332.2646
336.89507
337.25034
336.87688
336.80655
336.54139
336.35844
336.14848
335.95576
335.77603
335.60955
335.45161
335.30698
335.16901
335.03995
334.91954
334.80215
334.69671
334.58843
334.49565
334.39459
334.31259
334.2173
334.14459
334.05393
333.98934
333.90238
333.84495
333.76095
333.70993
333.62825
333.58305
333.50315
333.46327
333.38468
333.34977
333.27206
333.24184
333.16459
333.13889
333.0617
333.04041
332.96289
332.94598
332.86771
332.85523
332.7758
332.76779
332.68692
332.68321
332.60094
336.94949
337.24385
336.97261
336.9311
336.72589
336.5748
336.39627
336.22434
336.06287
335.90771
335.76132
335.62284
335.49243
335.36657
335.25129
335.13531
335.03345
334.92544
334.83523
334.7337
334.65361
334.55735
334.4861
334.39414
334.33071
334.24222
334.18576
334.10007
334.04989
333.96641
333.92197
333.8402
333.80104
333.72052
333.68631
333.60664
333.57711
333.4979
333.47288
333.39374
333.37311
333.29367
333.2774
333.19729
333.18536
333.10426
333.09662
333.01433
333.01074
332.92732
336.99916
337.23869
337.04385
337.0227
336.86973
336.74837
336.60124
336.45128
336.30982
336.16789
336.03506
335.90453
335.78354
335.66246
335.5539
335.44068
335.34374
335.23716
335.15065
335.04965
334.9724
334.87605
334.80705
334.71454
334.65293
334.56359
334.50865
334.42187
334.373
334.28828
334.24497
334.16184
334.12371
334.04175
334.00848
333.92731
333.89867
333.81793
333.79372
333.71306
333.69319
333.61227
333.59666
333.51516
333.50375
333.42141
333.41411
333.3308
333.32732
333.24309
337.04481
337.23794
337.09814
337.08999
336.98041
336.88537
336.76805
336.64001
336.51931
336.39179
336.27392
336.15275
336.04264
335.9277
335.82721
335.71798
335.62715
335.52309
335.4413
335.34178
335.26826
335.17265
335.10666
335.01436
334.95522
334.86569
334.81281
334.72557
334.67845
334.59305
334.55127
334.4673
334.43051
334.3476
334.31553
334.23334
334.20576
334.12395
334.10071
334.01898
333.99994
333.91799
333.90307
333.82063
333.80975
333.7266
333.71962
333.63569
333.63231
333.54761
337.08683
337.24227
337.14113
337.1401
337.06498
336.99213
336.90188
336.79466
336.69455
336.58189
336.47973
336.36886
336.27068
336.16294
336.07159
335.96739
335.88368
335.7831
335.70694
335.60979
335.54079
335.44674
335.38442
335.29308
335.23699
335.14795
335.09764
335.01055
334.96562
334.8801
334.84021
334.75594
334.72079
334.63744
334.6068
334.52407
334.49775
334.41536
334.39319
334.31086
334.29274
334.21022
334.19605
334.1131
334.10277
334.01924
334.01258
333.92843
333.92517
333.84035
337.12556
337.25109
337.1768
337.17859
337.12972
337.07468
337.00803
336.91974
336.83923
336.74121
336.65489
336.5548
336.46914
336.36936
336.2879
336.18958
336.11374
336.0175
335.94769
335.85372
335.78991
335.69816
335.64013
335.55043
335.49792
335.41003
335.36274
335.2764
335.23405
335.149
335.11132
335.02729
334.99405
334.91078
334.88179
334.79902
334.77412
334.69162
334.67067
334.58821
334.57109
334.48845
334.47507
334.39207
334.3823
334.29883
334.2925
334.20851
334.20538
334.12082
337.16128
337.26327
337.20778
337.20951
337.17989
337.13845
337.0916
337.01981
336.95731
336.87314
336.80221
336.71295
336.63997
336.54858
336.47744
336.3856
336.31819
336.22695
336.16405
336.07394
336.01585
335.92708
335.87384
335.78642
335.73794
335.6518
335.60794
335.52294
335.48351
335.39947
335.3643
335.28103
335.24995
335.16726
335.14013
335.05781
335.03449
334.95236
334.93274
334.85061
334.83457
334.75227
334.73973
334.65712
334.64794
334.56493
334.55896
334.47552
334.47255
334.38859
337.19421
337.27758
337.23567
337.23566
337.21967
337.18808
337.15727
337.09929
337.0528
336.98125
336.92481
336.84603
336.78548
336.70259
336.6419
336.55691
336.49821
336.41246
336.35685
336.27115
336.21918
336.13395
336.08588
336.00132
335.95723
335.8734
335.83328
335.75016
335.71394
335.63144
335.59903
335.51704
335.48833
335.40671
335.3816
335.30022
335.27861
335.19732
335.17912
335.09778
335.0829
335.00138
334.98973
334.90793
334.89937
334.81724
334.81164
334.72913
334.72634
334.64335
337.22465
337.29305
337.26139
337.25885
337.25223
337.22735
337.20911
337.16225
337.12952
337.06908
337.02589
336.9569
336.9082
336.83366
336.78322
336.70522
336.65528
336.57535
336.5272
336.44632
336.40071
336.31948
336.27685
336.19563
336.1562
336.07517
336.03905
335.95829
335.92552
335.84504
335.81559
335.73535
335.70918
335.6291
335.60616
335.52616
335.50639
335.42637
335.40969
335.32957
335.31592
335.23559
335.22488
335.14429
335.1364
335.05551
335.05033
334.96911
334.96651
334.88484
337.25278
337.3089
337.2854
337.28014
337.27982
337.2592
337.2505
337.21224
337.19102
337.14003
337.10859
337.0485
337.01078
336.9442
336.90356
336.83249
336.79113
336.71715
336.67645
336.60067
336.56151
336.48463
336.44757
336.37008
336.33547
336.25766
336.22571
336.14775
336.11858
336.04055
336.01422
335.93615
335.91266
335.83454
335.81389
335.73569
335.71785
335.63952
335.62444
335.54593
335.53356
335.45483
335.44509
335.3661
335.35891
335.27963
335.27489
335.19529
335.19292
335.1129
337.27885
337.32467
337.30793
337.30011
337.304
337.28582
337.28415
337.25228
337.24039
337.19718
337.17591
337.12366
337.09587
337.03665
337.00517
336.94078
336.90764
336.83959
336.80617
336.7356
336.70283
336.63054
336.59907
336.52561
336.49588
336.42162
336.39393
336.31912
336.29366
336.21845
336.19533
336.11982
336.09909
336.02332
336.00503
335.92902
335.91317
335.83691
335.82348
335.74697
335.73592
335.65914
335.65042
335.57336
335.56691
335.48957
335.4853
335.40765
335.40551
335.32747
337.30304
337.34006
337.32907
337.31903
337.32574
337.30875
337.31213
337.2848
337.28028
337.24329
337.23057
337.18506
337.16602
337.11345
337.09032
337.03222
337.00676
336.94449
336.918
336.85267
336.82609
336.75851
336.73254
336.6633
336.63842
336.56796
336.54453
336.47316
336.45143
336.37936
336.35948
336.28686
336.26894
336.19586
336.17997
336.10648
336.09266
336.01881
336.00706
335.93287
335.92318
335.84868
335.84101
335.7662
335.7605
335.68541
335.68163
335.60623
335.60433
335.52856
337.32555
337.35493
337.34887
337.337
337.34565
337.32905
337.33598
337.31173
337.31288
337.28069
337.275
337.23511
337.22359
337.17691
337.16122
337.1089
337.09048
337.03371
337.01371
336.95349
336.93281
336.86995
336.84927
336.78436
336.7642
336.69772
336.67848
336.61076
336.59272
336.52403
336.50738
336.43791
336.4228
336.35268
336.3392
336.26853
336.25675
336.1856
336.17554
336.10398
336.09565
336.02371
336.0171
335.94483
335.9399
335.86732
335.86404
335.79116
335.78952
335.71628
337.34653
337.36922
337.36737
337.35405
337.36407
337.34739
337.35679
337.33451
337.3399
337.31132
337.31124
337.27594
337.27075
337.22916
337.21994
337.17285
337.16073
337.1091
337.09504
337.03974
337.02455
336.96632
336.95065
336.89009
336.87445
336.81203
336.79683
336.73291
336.71846
336.65334
336.63985
336.57374
336.56139
336.49446
336.48336
336.41574
336.40597
336.33777
336.32939
336.26069
336.25373
336.1846
336.17905
336.10955
336.1054
336.03557
336.03281
335.96268
335.96128
335.89081
337.36612
337.38292
337.38461
337.37016
337.38121
337.36421
337.37527
337.35419
337.36268
337.33672
337.34102
337.3094
337.30938
337.2721
337.2684
337.22595
337.21936
337.17243
337.16371
337.11305
337.10288
337.04914
337.03812
336.98184
336.97045
336.9121
336.90074
336.84069
336.82967
336.76822
336.75778
336.69518
336.68549
336.62193
336.61314
336.54876
336.54096
336.47591
336.46917
336.40354
336.39791
336.3318
336.32729
336.26077
336.25739
336.19052
336.18826
336.12108
336.11994
336.05243
337.38442
337.39602
337.40065
337.38532
337.39714
337.37974
337.39193
337.37152
337.3822
337.35811
337.36573
337.33698
337.34111
337.30743
337.30832
337.26991
337.26805
337.22539
337.22135
337.17501
337.16935
337.11987
337.11308
337.06097
337.0535
336.99917
336.99138
336.93521
336.92742
336.86971
336.86215
336.80314
336.796
336.73591
336.72934
336.66833
336.66244
336.60067
336.59552
336.53312
336.52878
336.46584
336.46235
336.39897
336.39634
336.33258
336.33083
336.26674
336.26586
336.20148
337.40155
337.40854
337.41554
337.39951
337.41192
337.39413
337.40705
337.387
337.39918
337.37639
337.38646
337.35994
337.36728
337.33657
337.34118
337.30625
337.30837
337.26952
337.26951
337.22713
337.22542
337.17995
337.17695
337.12882
337.12489
337.07449
337.06998
337.01764
337.01283
336.95885
336.95397
336.8986
336.89385
336.83729
336.83281
336.77526
336.77116
336.71277
336.70915
336.65007
336.64698
336.58732
336.58481
336.52468
336.52278
336.46225
336.46098
336.40013
336.39948
336.33834
337.41758
337.42047
337.42932
337.41275
337.42558
337.40743
337.42083
337.40095
337.41412
337.39225
337.40405
337.37924
337.38901
337.36072
337.36827
337.33632
337.34169
337.30619
337.30957
337.27079
337.27247
337.23074
337.23104
337.18668
337.18591
337.13927
337.13771
337.0891
337.087
337.0367
337.03429
336.98253
336.97998
336.92698
336.92443
336.87037
336.86795
336.813
336.8108
336.75511
336.75319
336.69689
336.6953
336.6385
336.63729
336.58008
336.57926
336.52172
336.52131
336.4635
337.43256
337.4318
337.44202
337.425
337.4381
337.41969
337.43337
337.41359
337.42737
337.40614
337.41913
337.39563
337.40718
337.38086
337.39066
337.36123
337.36919
337.33663
337.3428
337.30725
337.31179
337.27347
337.27661
337.23579
337.23776
337.1947
337.19574
337.15072
337.15105
337.10432
337.10413
337.05593
337.05537
337.00589
337.00512
336.95454
336.95366
336.90215
336.90126
336.84898
336.84815
336.79524
336.79451
336.74108
336.74051
336.68666
336.68627
336.63208
336.63189
336.57745
337.44654
337.44248
337.45365
337.43626
337.4495
337.4309
337.44471
337.42503
337.43915
337.41842
337.43216
337.40971
337.42248
337.39777
337.40924
337.38195
337.3919
337.3619
337.37029
337.33762
337.34451
337.3093
337.31482
337.27727
337.28158
337.24189
337.24518
337.20358
337.20603
337.16275
337.16452
337.11977
337.121
337.07496
337.07577
337.02863
337.02914
336.98104
336.98134
336.93246
336.93261
336.88308
336.88314
336.83307
336.8331
336.7826
336.78261
336.73179
336.73179
336.68073
337.45951
337.45245
337.46419
337.44651
337.45975
337.44107
337.4549
337.43536
337.44961
337.42931
337.44347
337.42187
337.43545
337.41208
337.42471
337.39923
337.41067
337.3829
337.393
337.36289
337.37164
337.33926
337.34671
337.31217
337.31842
337.28188
337.28706
337.2487
337.25296
337.21297
337.21643
337.175
337.17778
337.13508
337.1373
337.0935
337.09524
337.05049
337.05185
337.0063
337.00734
336.96114
336.96192
336.91518
336.91574
336.86857
336.86894
336.82145
336.82163
336.77392
337.47143
337.46161
337.47359
337.4557
337.46886
337.45018
337.46396
337.44462
337.45886
337.43897
337.45331
337.43245
337.44649
337.42425
337.43765
337.41373
337.4262
337.40038
337.41174
337.38391
337.39408
337.36424
337.37321
337.34142
337.34924
337.31561
337.32235
337.28702
337.29278
337.25591
337.26079
337.22253
337.22664
337.18715
337.19057
337.14999
337.1528
337.1113
337.11358
337.07129
337.07311
337.03016
337.03157
336.98809
336.98912
336.94522
336.9459
336.90169
336.90203
336.85761
337.48211
337.46982
337.4818
337.4638
337.47682
337.45825
337.4719
337.45284
337.46697
337.4475
337.46185
337.44167
337.4559
337.43467
337.4485
337.42593
337.43908
337.41495
337.42719
337.40137
337.41259
337.38503
337.39516
337.36587
337.3749
337.34395
337.35193
337.3194
337.32639
337.29242
337.29848
337.26321
337.26842
337.23198
337.2364
337.19892
337.20264
337.16425
337.16732
337.12817
337.13065
337.09086
337.0928
337.05249
337.05393
337.0132
337.01416
336.97314
336.97362
336.9324
337.49127
337.47692
337.48875
337.47078
337.48361
337.46527
337.47875
337.46005
337.474
337.455
337.46922
337.44969
337.46393
337.4436
337.4576
337.43624
337.44975
337.42713
337.43992
337.4159
337.42781
337.4023
337.41324
337.38622
337.39616
337.36765
337.37656
337.34664
337.35457
337.32332
337.3303
337.29784
337.30393
337.27036
337.2756
337.24105
337.24551
337.21009
337.21381
337.17766
337.1807
337.14393
337.14633
337.10906
337.11084
337.07318
337.07436
337.03642
337.03702
336.99889
337.49856
337.48276
337.49442
337.47663
337.48926
337.47126
337.48453
337.46628
337.47999
337.46151
337.47552
337.45664
337.47074
337.45126
337.46524
337.44497
337.4586
337.43733
337.45039
337.42796
337.44029
337.41661
337.42809
337.40311
337.41366
337.38738
337.39696
337.36942
337.37804
337.3493
337.35698
337.32712
337.33389
337.30301
337.30889
337.2771
337.28214
337.24953
337.25377
337.22047
337.22395
337.19006
337.19282
337.15846
337.16051
337.12578
337.12715
337.09215
337.09284
337.05768
337.50372
337.48724
337.49879
337.48137
337.49381
337.47626
337.48931
337.47158
337.48502
337.46711
337.48084
337.46262
337.47647
337.45781
337.47162
337.45234
337.46592
337.44586
337.45898
337.43798
337.45048
337.42845
337.4402
337.41707
337.42798
337.40372
337.41373
337.38835
337.39744
337.371
337.37916
337.35172
337.35897
337.33059
337.33694
337.30772
337.31319
337.28322
337.28785
337.25723
337.26105
337.22989
337.23292
337.20131
337.20358
337.17162
337.17314
337.14093
337.14169
337.10934
337.50671
337.49037
337.50193
337.48504
337.49732
337.48032
337.49313
337.47599
337.48913
337.47185
337.48524
337.46772
337.48125
337.46338
337.4769
337.45857
337.47192
337.45298
337.46597
337.44627
337.45874
337.4382
337.45001
337.42854
337.43959
337.41716
337.42738
337.40398
337.41333
337.38899
337.39745
337.37222
337.37977
337.3537
337.36036
337.33353
337.33929
337.31178
337.31668
337.28856
337.29262
337.264
337.26724
337.23821
337.24063
337.21128
337.2129
337.18333
337.18414
337.15443
337.50782
337.4923
337.50394
337.48774
337.49987
337.48352
337.49606
337.47959
337.4924
337.4758
337.48882
337.47201
337.48515
337.46807
337.48122
337.46378
337.4768
337.45889
337.47161
337.45309
337.46537
337.44616
337.45786
337.43789
337.4489
337.42812
337.43836
337.41675
337.42618
337.40375
337.41233
337.38912
337.39682
337.37287
337.37969
337.35506
337.36099
337.33574
337.34081
337.31502
337.31922
337.29297
337.29633
337.26971
337.27223
337.24532
337.24701
337.21989
337.22074
337.1935
337.50758
337.49324
337.505
337.48959
337.50156
337.48592
337.4982
337.48243
337.4949
337.479
337.49163
337.47555
337.48827
337.47197
337.48468
337.4681
337.4807
337.46374
337.47608
337.45865
337.4706
337.4526
337.46404
337.44541
337.45623
337.43693
337.44704
337.42705
337.43639
337.4157
337.42425
337.40288
337.41059
337.38857
337.39542
337.3728
337.37879
337.35562
337.36075
337.3371
337.34137
337.31731
337.32072
337.29633
337.2989
337.27425
337.27596
337.25113
337.25199
337.22705
337.50656
337.49347
337.50529
337.49071
337.50253
337.48764
337.49963
337.48459
337.49671
337.48154
337.49375
337.47842
337.49067
337.47514
337.48737
337.47162
337.48373
337.46766
337.47953
337.46309
337.4746
337.45771
337.46876
337.45136
337.46185
337.44388
337.45373
337.43518
337.44432
337.42519
337.43358
337.41387
337.42146
337.4012
337.40797
337.38719
337.39312
337.37186
337.37696
337.35527
337.35952
337.33747
337.34089
337.31854
337.32111
337.29853
337.30026
337.27752
337.27838
337.25555
337.50519
337.49323
337.50501
337.49126
337.50287
337.48876
337.50045
337.48616
337.4979
337.48347
337.49525
337.48066
337.49242
337.47766
337.48936
337.47439
337.48596
337.47074
337.48207
337.46654
337.47754
337.46164
337.47221
337.4559
337.46596
337.4492
337.45867
337.44142
337.45024
337.43251
337.44063
337.42242
337.42979
337.41111
337.41771
337.39858
337.40438
337.38484
337.38983
337.36993
337.3741
337.35389
337.35724
337.33677
337.3393
337.31862
337.32032
337.29951
337.30036
337.27946
337.50373
337.49272
337.50431
337.49137
337.50273
337.48939
337.50074
337.48721
337.49855
337.48487
337.49618
337.48234
337.49359
337.47956
337.49071
337.47649
337.48747
337.47303
337.48377
337.46907
337.47949
337.46449
337.47452
337.45919
337.46874
337.45304
337.46205
337.44597
337.45438
337.4379
337.44566
337.42879
337.43586
337.41859
337.42494
337.4073
337.41289
337.39491
337.39973
337.38144
337.38548
337.36693
337.37018
337.3514
337.35386
337.33491
337.33656
337.31749
337.31832
337.29919
337.50227
337.49206
337.50332
337.49114
337.50219
337.48962
337.5006
337.48781
337.49873
337.48578
337.49662
337.48349
337.4942
337.48089
337.49145
337.47794
337.4883
337.47459
337.48469
337.47075
337.48054
337.46636
337.47577
337.46132
337.47029
337.45555
337.46403
337.44898
337.45691
337.44155
337.44888
337.4332
337.4399
337.4239
337.42993
337.41363
337.41895
337.40236
337.40696
337.39012
337.39398
337.37692
337.38003
337.36279
337.36514
337.34776
337.34933
337.33185
337.33265
337.3151
337.50083
337.49132
337.50215
337.49067
337.50136
337.48953
337.5001
337.48804
337.49852
337.48628
337.49661
337.48417
337.49432
337.48168
337.49161
337.47877
337.48847
337.47543
337.48485
337.47161
337.48072
337.46727
337.47602
337.46237
337.47071
337.45682
337.46471
337.45059
337.45798
337.44361
337.45046
337.43584
337.4421
337.42724
337.43289
337.41778
337.42278
337.40745
337.41177
337.39624
337.39988
337.38416
337.3871
337.37124
337.37346
337.35748
337.35897
337.34291
337.34366
337.32755
337.49939
337.49055
337.50085
337.49002
337.50031
337.48917
337.49932
337.48796
337.49796
337.4864
337.49619
337.4844
337.49395
337.48193
337.49121
337.47898
337.48799
337.47556
337.48427
337.47166
337.48005
337.46727
337.47532
337.46237
337.47005
337.45691
337.46418
337.45087
337.45768
337.44419
337.45051
337.43683
337.44263
337.42877
337.434
337.41996
337.4246
337.41038
337.4144
337.40003
337.40341
337.3889
337.39164
337.37701
337.37908
337.36436
337.36576
337.35097
337.35167
337.33685
337.49793
337.48976
337.49947
337.48925
337.49909
337.48862
337.49831
337.48761
337.4971
337.48617
337.49539
337.4842
337.4931
337.48166
337.49025
337.47857
337.48685
337.47497
337.48294
337.47089
337.47854
337.46634
337.47367
337.46134
337.46833
337.45586
337.46247
337.44988
337.45609
337.44337
337.44914
337.4363
337.44159
337.42862
337.43341
337.42031
337.42456
337.41134
337.41503
337.40169
337.40481
337.39136
337.39388
337.38035
337.38227
337.36867
337.36996
337.3563
337.35695
337.34327
337.49645
337.48896
337.49802
337.48839
337.49775
337.48791
337.49711
337.48702
337.49596
337.48561
337.49421
337.48356
337.49178
337.48083
337.4887
337.4775
337.48503
337.47363
337.48083
337.46927
337.47616
337.46448
337.47107
337.45929
337.46556
337.45369
337.45963
337.44767
337.45325
337.44123
337.44642
337.43431
337.43909
337.42691
337.43124
337.41897
337.42282
337.41047
337.41382
337.4014
337.40423
337.39173
337.39403
337.38147
337.38322
337.37061
337.37179
337.35915
337.35974
337.34707
337.49493
337.48814
337.49652
337.48746
337.49632
337.48707
337.49575
337.48621
337.49457
337.48472
337.49265
337.48245
337.48995
337.47943
337.48652
337.47574
337.48247
337.47149
337.4779
337.46677
337.47289
337.46165
337.46749
337.45619
337.46174
337.45039
337.45565
337.44426
337.44921
337.43778
337.4424
337.43094
337.43519
337.4237
337.42756
337.41603
337.41947
337.4079
337.4109
337.39929
337.40183
337.39018
337.39224
337.38055
337.38212
337.3704
337.37145
337.35971
337.36024
337.34847
337.49336
337.48732
337.49497
337.48648
337.49481
337.48611
337.49423
337.48519
337.4929
337.48347
337.49067
337.48085
337.48755
337.47738
337.48366
337.47322
337.47914
337.46849
337.4741
337.46333
337.46866
337.45781
337.46289
337.45201
337.45684
337.44595
337.45053
337.43964
337.44395
337.43307
337.4371
337.42623
337.42995
337.41908
337.42247
337.41159
337.41462
337.40374
337.40639
337.3955
337.39774
337.38684
337.38866
337.37774
337.37913
337.3682
337.36913
337.35819
337.35866
337.34769
337.49173
337.48647
337.49337
337.48544
337.49322
337.48504
337.49255
337.48391
337.49091
337.48181
337.48821
337.47867
337.48453
337.47462
337.48005
337.46987
337.47494
337.46458
337.46936
337.45889
337.46343
337.45292
337.45724
337.44673
337.45084
337.44035
337.44426
337.43381
337.4375
337.4271
337.43056
337.4202
337.4234
337.41308
337.41601
337.40572
337.40834
337.39807
337.40037
337.39012
337.39207
337.38183
337.38342
337.37319
337.3744
337.36417
337.36498
337.35474
337.35516
337.3449
337.49003
337.48561
337.49172
337.48435
337.49157
337.48383
337.49068
337.48234
337.48856
337.47966
337.4852
337.47583
337.48079
337.47106
337.47559
337.4656
337.4698
337.45965
337.4636
337.45338
337.45713
337.44691
337.45048
337.44029
337.4437
337.43357
337.43682
337.42676
337.42985
337.41987
337.42277
337.41288
337.41558
337.40575
337.40822
337.39846
337.40068
337.39097
337.39292
337.38325
337.38491
337.37527
337.37663
337.36701
337.36805
337.35844
337.35914
337.34953
337.34989
337.34026
337.48824
337.48473
337.49001
337.48322
337.48982
337.48246
337.48856
337.4804
337.48573
337.47693
337.48151
337.47221
337.47621
337.46657
337.47017
337.4603
337.46361
337.45363
337.45674
337.44673
337.44969
337.43972
337.44255
337.43265
337.43537
337.42557
337.42818
337.41848
337.42098
337.4114
337.41376
337.40429
337.4065
337.39712
337.39916
337.38987
337.39171
337.3825
337.38412
337.37497
337.37636
337.36725
337.36839
337.35932
337.36019
337.35114
337.35173
337.34269
337.34298
337.33392
337.48635
337.48384
337.48825
337.48203
337.48795
337.48085
337.4861
337.47797
337.48231
337.47347
337.47701
337.46768
337.47067
337.46104
337.46367
337.45387
337.45628
337.44642
337.4487
337.43886
337.44105
337.43129
337.43341
337.42377
337.42583
337.41632
337.41833
337.40896
337.4109
337.40167
337.40353
337.39444
337.39619
337.38722
337.38885
337.38
337.38148
337.37272
337.37403
337.36535
337.36648
337.35786
337.35879
337.35022
337.35093
337.34238
337.34287
337.33433
337.33458
337.32603
337.48436
337.48296
337.48642
337.48077
337.48589
337.47892
337.48316
337.47491
337.47813
337.46912
337.47154
337.46209
337.46401
337.45432
337.45597
337.44619
337.4477
337.43793
337.43939
337.4297
337.43113
337.42157
337.42301
337.4136
337.41504
337.40581
337.40724
337.39818
337.39959
337.3907
337.39208
337.38335
337.38467
337.37609
337.37733
337.36888
337.37002
337.36168
337.3627
337.35446
337.35534
337.34717
337.3479
337.33978
337.34035
337.33226
337.33265
337.32458
337.32477
337.31669
337.48223
337.48211
337.48452
337.4794
337.48354
337.47652
337.47959
337.47102
337.47301
337.46369
337.46492
337.45526
337.45608
337.44628
337.44695
337.43715
337.43778
337.42807
337.42873
337.41917
337.41989
337.41052
337.41131
337.40213
337.40298
337.39401
337.3949
337.38614
337.38706
337.37849
337.37943
337.37104
337.37197
337.36375
337.36463
337.35656
337.35739
337.34944
337.3502
337.34235
337.34301
337.33526
337.33581
337.32811
337.32854