/*--------------------------------*- C++ -*----------------------------------*\
| =========                 |                                                 |
| \\      /  F ield         | OpenFOAM: The Open Source CFD Toolbox           |
|  \\    /   O peration     | Version:  2312                                  |
|   \\  /    A nd           | Website:  www.openfoam.com                      |
|    \\/     M anipulation  |                                                 |
\*---------------------------------------------------------------------------*/
FoamFile
{
    version     2.0;
    format      ascii;
    arch        "LSB;label=32;scalar=64";
    class       volScalarField;
    location    "8";
    object      p;
}
// * * * * * * * * * * * * * * * * * * * * * * * * * * * * * * * * * * * * * //

dimensions      [0 2 -2 0 0 0 0];

internalField   nonuniform List<scalar> 
4000
(
39.829657
37.750439
35.993959
35.035136
33.865547
33.179056
32.214807
31.599171
30.702049
30.090075
29.219748
28.596819
27.74259
27.107268
26.265744
25.618994
24.788447
24.131528
23.310626
22.644696
21.832301
21.158387
20.353504
19.672519
18.874265
18.187038
17.394621
16.701902
15.914608
15.217082
14.434263
13.732553
12.953619
12.248296
11.472707
10.764291
9.9915527
9.2805205
8.5101782
7.7969669
7.0286007
6.3136156
5.5468339
4.8304539
4.0648887
3.347471
2.5827734
1.8646612
1.100497
0.38202086
39.788056
37.749506
35.995402
35.035016
33.865635
33.179039
32.214824
31.599173
30.702056
30.090071
29.219753
28.596815
27.742594
27.107264
26.265748
25.61899
24.78845
24.131525
23.310629
22.644694
21.832304
21.158384
20.353506
19.672517
18.874267
18.187036
17.394623
16.7019
15.91461
15.21708
14.434264
13.732552
12.95362
12.248295
11.472708
10.76429
9.9915539
9.2805194
8.5101793
7.7969659
7.0286017
6.3136147
5.5468348
4.830453
4.0648895
3.3474702
2.5827743
1.8646603
1.1004979
0.38201921
39.759824
37.750143
35.997622
35.034735
33.865783
33.179025
32.214845
31.599187
30.702057
30.090075
29.219752
28.596817
27.742593
27.107265
26.265747
25.618991
24.788449
24.131526
23.310628
22.644694
21.832303
21.158385
20.353505
19.672518
18.874267
18.187037
17.394623
16.701901
15.91461
15.217081
14.434264
13.732552
12.95362
12.248295
11.472708
10.764291
9.9915536
9.2805197
8.510179
7.7969661
7.0286014
6.313615
5.5468346
4.8304532
4.0648893
3.3474704
2.5827741
1.8646606
1.1004978
0.38201865
39.72459
37.746706
35.999695
35.034351
33.865933
33.179001
32.214864
31.599203
30.702056
30.090081
29.219749
28.59682
27.74259
27.107268
26.265745
25.618994
24.788447
24.131528
23.310626
22.644696
21.832302
21.158387
20.353504
19.672519
18.874265
18.187038
17.394621
16.701902
15.914608
15.217082
14.434263
13.732553
12.953619
12.248296
11.472707
10.764291
9.9915528
9.2805204
8.5101783
7.7969668
7.0286007
6.3136156
5.5468339
4.8304538
4.0648887
3.347471
2.5827735
1.8646612
1.1004973
0.38201853
39.676515
37.742461
36.001498
35.033895
33.866099
33.178965
32.214883
31.599216
30.702054
30.090086
29.219746
28.596823
27.742588
27.10727
26.265743
25.618996
24.788445
24.131529
23.310625
22.644698
21.8323
21.158388
20.353502
19.672521
18.874264
18.187039
17.39462
16.701903
15.914607
15.217083
14.434262
13.732554
12.953618
12.248297
11.472706
10.764292
9.9915521
9.280521
8.5101777
7.7969674
7.0286001
6.3136162
5.5468334
4.8304544
4.0648882
3.3474715
2.582773
1.8646618
1.1004968
0.38201846
39.645476
37.73865
36.002643
35.033587
33.866325
33.178919
32.214901
31.599224
30.702051
30.090089
29.219744
28.596824
27.742586
27.107272
26.265741
25.618997
24.788444
24.131531
23.310623
22.644699
21.832299
21.158389
20.353501
19.672521
18.874263
18.18704
17.39462
16.701904
15.914607
15.217083
14.434261
13.732555
12.953617
12.248298
11.472706
10.764293
9.9915516
9.2805215
8.5101772
7.7969679
7.0285997
6.3136166
5.546833
4.8304548
4.0648878
3.3474719
2.5827726
1.8646622
1.1004964
0.38201837
39.603339
37.736779
36.002646
35.034068
33.866663
33.178874
32.214921
31.599228
30.702048
30.090091
29.219741
28.596826
27.742584
27.107273
26.26574
25.618998
24.788443
24.131532
23.310622
22.6447
21.832298
21.15839
20.353501
19.672522
18.874263
18.18704
17.394619
16.701904
15.914606
15.217084
14.434261
13.732555
12.953617
12.248298
11.472705
10.764293
9.9915512
9.2805219
8.5101768
7.7969682
7.0285994
6.3136169
5.5468326
4.8304551
4.0648874
3.3474722
2.5827723
1.8646626
1.1004961
0.38201829
39.579262
37.736996
36.001048
35.035503
33.866989
33.178829
32.214941
31.599229
30.702045
30.090092
29.219739
28.596827
27.742583
27.107274
26.265739
25.618999
24.788442
24.131533
23.310622
22.644701
21.832297
21.158391
20.3535
19.672523
18.874262
18.187041
17.394618
16.701905
15.914606
15.217084
14.43426
13.732556
12.953616
12.248298
11.472705
10.764293
9.9915509
9.2805222
8.5101765
7.7969686
7.028599
6.3136172
5.5468323
4.8304554
4.0648872
3.3474725
2.582772
1.8646629
1.1004958
0.38201823
39.542898
37.734018
35.999993
35.03723
33.867063
33.178795
32.214961
31.599226
30.702042
30.090093
29.219737
28.596828
27.742581
27.107275
26.265738
25.619
24.788441
24.131533
23.310621
22.644701
21.832297
21.158391
20.353499
19.672523
18.874262
18.187042
17.394618
16.701905
15.914605
15.217085
14.43426
13.732556
12.953616
12.248299
11.472704
10.764294
9.9915506
9.2805225
8.5101762
7.7969688
7.0285988
6.3136175
5.5468321
4.8304556
4.0648869
3.3474728
2.5827718
1.8646632
1.1004955
0.38201819
39.507591
37.729586
36.000768
35.038337
33.866782
33.178792
32.214978
31.599217
30.702037
30.090092
29.219735
28.596829
27.74258
27.107276
26.265737
25.619001
24.78844
24.131534
23.31062
22.644702
21.832296
21.158392
20.353499
19.672524
18.874261
18.187042
17.394617
16.701906
15.914605
15.217085
14.43426
13.732556
12.953616
12.248299
11.472704
10.764294
9.9915503
9.2805228
8.510176
7.7969691
7.0285985
6.3136177
5.5468319
4.8304559
4.0648867
3.347473
2.5827716
1.8646635
1.1004952
0.38201816
39.481418
37.724249
36.000889
35.038366
33.86624
33.17879
32.214975
31.5992
30.702029
30.09009
29.219733
28.596829
27.742579
27.107276
26.265736
25.619002
24.78844
24.131535
23.31062
22.644703
21.832296
21.158392
20.353498
19.672524
18.874261
18.187042
17.394617
16.701906
15.914605
15.217085
14.434259
13.732557
12.953616
12.248299
11.472704
10.764294
9.99155
9.280523
8.5101757
7.7969693
7.0285983
6.3136179
5.5468317
4.8304561
4.0648865
3.3474732
2.5827714
1.8646637
1.1004949
0.38201814
39.456431
37.719518
35.999375
35.037687
33.865637
33.17873
32.214939
31.599171
30.702019
30.090086
29.219729
28.596829
27.742578
27.107277
26.265735
25.619002
24.788439
24.131535
23.310619
22.644703
21.832295
21.158393
20.353498
19.672525
18.87426
18.187043
17.394617
16.701906
15.914604
15.217086
14.434259
13.732557
12.953615
12.2483
11.472704
10.764294
9.9915498
9.2805233
8.5101755
7.7969695
7.0285981
6.3136181
5.5468315
4.8304562
4.0648863
3.3474734
2.5827712
1.8646639
1.1004946
0.38201812
39.432981
37.712736
35.997018
35.036779
33.865064
33.178592
32.21487
31.599131
30.702005
30.09008
29.219725
28.596828
27.742577
27.107277
26.265734
25.619003
24.788438
24.131536
23.310618
22.644703
21.832295
21.158393
20.353498
19.672525
18.87426
18.187043
17.394616
16.701907
15.914604
15.217086
14.434259
13.732557
12.953615
12.2483
11.472703
10.764295
9.9915496
9.2805234
8.5101754
7.7969697
7.028598
6.3136183
5.5468313
4.8304564
4.0648861
3.3474735
2.5827711
1.8646641
1.1004944
0.38201811
39.410431
37.706414
35.9944
35.035805
33.864517
33.178392
32.214779
31.599084
30.701989
30.090072
29.219721
28.596827
27.742575
27.107278
26.265734
25.619003
24.788438
24.131536
23.310618
22.644704
21.832294
21.158394
20.353497
19.672526
18.87426
18.187043
17.394616
16.701907
15.914604
15.217086
14.434258
13.732557
12.953615
12.2483
11.472703
10.764295
9.9915494
9.2805236
8.5101752
7.7969698
7.0285978
6.3136184
5.5468312
4.8304566
4.064886
3.3474737
2.582771
1.8646643
1.1004942
0.38201811
39.393149
37.699809
35.991667
35.034779
33.863951
33.178155
32.214679
31.599032
30.701975
30.090064
29.219716
28.596826
27.742574
27.107278
26.265733
25.619003
24.788437
24.131537
23.310618
22.644704
21.832294
21.158394
20.353497
19.672526
18.874259
18.187044
17.394616
16.701907
15.914603
15.217086
14.434258
13.732558
12.953615
12.2483
11.472703
10.764295
9.9915493
9.2805238
8.510175
7.79697
7.0285977
6.3136186
5.546831
4.8304567
4.0648859
3.3474738
2.5827708
1.8646644
1.1004939
0.38201812
39.378142
37.693757
35.989073
35.033609
33.86334
33.1779
32.214576
31.598979
30.701962
30.090056
29.219711
28.596824
27.742572
27.107278
26.265732
25.619004
24.788437
24.131537
23.310617
22.644705
21.832294
21.158394
20.353497
19.672526
18.874259
18.187044
17.394616
16.701907
15.914603
15.217087
14.434258
13.732558
12.953614
12.2483
11.472703
10.764295
9.9915491
9.2805239
8.5101749
7.7969701
7.0285975
6.3136187
5.5468309
4.8304568
4.0648858
3.3474739
2.5827707
1.8646645
1.1004937
0.38201812
39.366579
37.686642
35.986685
35.032244
33.862695
33.177647
32.214475
31.598926
30.701951
30.090049
29.219706
28.596823
27.742571
27.107278
26.265732
25.619004
24.788437
24.131537
23.310617
22.644705
21.832293
21.158394
20.353496
19.672526
18.874259
18.187044
17.394615
16.701908
15.914603
15.217087
14.434258
13.732558
12.953614
12.248301
11.472703
10.764295
9.991549
9.2805241
8.5101748
7.7969702
7.0285974
6.3136188
5.5468308
4.8304569
4.0648856
3.347474
2.5827706
1.8646647
1.1004935
0.38201813
39.349994
37.680394
35.984797
35.030802
33.862071
33.177413
32.214381
31.598877
30.70194
30.090043
29.219703
28.596822
27.74257
27.107278
26.265731
25.619004
24.788436
24.131538
23.310617
22.644705
21.832293
21.158395
20.353496
19.672527
18.874259
18.187044
17.394615
16.701908
15.914603
15.217087
14.434258
13.732558
12.953614
12.248301
11.472703
10.764295
9.9915489
9.2805242
8.5101747
7.7969704
7.0285973
6.3136189
5.5468307
4.830457
4.0648855
3.3474741
2.5827705
1.8646648
1.1004933
0.38201815
39.342472
37.674694
35.983033
35.029403
33.861507
33.177206
32.214295
31.598834
30.70193
30.090037
29.219701
28.596821
27.742569
27.107278
26.265731
25.619005
24.788436
24.131538
23.310616
22.644705
21.832293
21.158395
20.353496
19.672527
18.874258
18.187045
17.394615
16.701908
15.914603
15.217087
14.434258
13.732558
12.953614
12.248301
11.472702
10.764295
9.9915488
9.2805243
8.5101746
7.7969705
7.0285972
6.313619
5.5468306
4.8304571
4.0648855
3.3474742
2.5827705
1.8646648
1.1004931
0.38201816
39.328526
37.668599
35.981116
35.028123
33.861022
33.177033
32.214221
31.598797
30.701922
30.090031
29.2197
28.596821
27.742568
27.107278
26.26573
25.619005
24.788435
24.131538
23.310616
22.644706
21.832293
21.158395
20.353496
19.672527
18.874258
18.187045
17.394615
16.701908
15.914603
15.217087
14.434257
13.732558
12.953614
12.248301
11.472702
10.764296
9.9915487
9.2805244
8.5101745
7.7969705
7.0285971
6.3136191
5.5468305
4.8304572
4.0648854
3.3474743
2.5827704
1.8646649
1.100493
0.38201818
39.321365
37.663793
35.979126
35.027002
33.860603
33.176891
32.214158
31.598767
30.701914
30.090025
29.219701
28.59682
27.742567
27.107278
26.26573
25.619005
24.788435
24.131538
23.310616
22.644706
21.832292
21.158395
20.353495
19.672527
18.874258
18.187045
17.394615
16.701908
15.914602
15.217087
14.434257
13.732559
12.953614
12.248301
11.472702
10.764296
9.9915486
9.2805245
8.5101744
7.7969706
7.028597
6.3136192
5.5468304
4.8304573
4.0648853
3.3474744
2.5827703
1.864665
1.1004928
0.38201819
39.311855
37.658635
35.977078
35.026012
33.860237
33.176773
32.214103
31.598741
30.701908
30.090018
29.219702
28.59682
27.742567
27.107278
26.265729
25.619005
24.788435
24.131538
23.310616
22.644706
21.832292
21.158396
20.353495
19.672527
18.874258
18.187045
17.394615
16.701908
15.914602
15.217088
14.434257
13.732559
12.953614
12.248301
11.472702
10.764296
9.9915485
9.2805246
8.5101743
7.7969707
7.0285969
6.3136193
5.5468303
4.8304573
4.0648852
3.3474745
2.5827703
1.8646651
1.1004926
0.38201821
39.304696
37.654947
35.975179
35.02513
33.859909
33.176672
32.214056
31.598719
30.701904
30.090011
29.219703
28.59682
27.742566
27.107278
26.265729
25.619005
24.788435
24.131539
23.310615
22.644706
21.832292
21.158396
20.353495
19.672528
18.874258
18.187045
17.394614
16.701909
15.914602
15.217088
14.434257
13.732559
12.953614
12.248301
11.472702
10.764296
9.9915484
9.2805246
8.5101742
7.7969708
7.0285969
6.3136193
5.5468303
4.8304574
4.0648852
3.3474745
2.5827702
1.8646651
1.1004925
0.38201823
39.29942
37.650943
35.973321
35.024329
33.859613
33.176584
32.214014
31.5987
30.7019
30.090003
29.219705
28.59682
27.742566
27.107278
26.265729
25.619005
24.788434
24.131539
23.310615
22.644706
21.832292
21.158396
20.353495
19.672528
18.874258
18.187045
17.394614
16.701909
15.914602
15.217088
14.434257
13.732559
12.953613
12.248301
11.472702
10.764296
9.9915483
9.2805247
8.5101741
7.7969709
7.0285968
6.3136194
5.5468302
4.8304575
4.0648851
3.3474746
2.5827701
1.8646652
1.1004923
0.38201825
39.292658
37.647458
35.971645
35.02361
33.859344
33.176507
32.213977
31.598683
30.701896
30.089996
29.219706
28.59682
27.742566
27.107278
26.265728
25.619005
24.788434
24.131539
23.310615
22.644707
21.832292
21.158396
20.353495
19.672528
18.874257
18.187045
17.394614
16.701909
15.914602
15.217088
14.434257
13.732559
12.953613
12.248301
11.472702
10.764296
9.9915482
9.2805248
8.5101741
7.7969709
7.0285967
6.3136195
5.5468301
4.8304575
4.064885
3.3474747
2.5827701
1.8646652
1.1004922
0.38201827
39.287863
37.644153
35.970095
35.022974
33.859107
33.176441
32.213944
31.598668
30.701894
30.089989
29.219707
28.59682
27.742566
27.107278
26.265728
25.619006
24.788434
24.131539
23.310615
22.644707
21.832291
21.158396
20.353495
19.672528
18.874257
18.187046
17.394614
16.701909
15.914602
15.217088
14.434257
13.732559
12.953613
12.248301
11.472702
10.764296
9.9915482
9.2805248
8.510174
7.796971
7.0285967
6.3136195
5.5468301
4.8304576
4.064885
3.3474747
2.58277
1.8646652
1.1004921
0.38201829
39.28291
37.641459
35.968763
35.022416
33.858897
33.176386
32.213915
31.598656
30.701891
30.089982
29.219708
28.59682
27.742567
27.107279
26.265728
25.619006
24.788434
24.131539
23.310614
22.644707
21.832291
21.158396
20.353495
19.672528
18.874257
18.187046
17.394614
16.701909
15.914602
15.217088
14.434257
13.732559
12.953613
12.248302
11.472702
10.764296
9.9915481
9.2805249
8.5101739
7.796971
7.0285966
6.3136196
5.54683
4.8304576
4.0648849
3.3474748
2.58277
1.8646653
1.100492
0.38201831
39.279333
37.638997
35.967554
35.021939
33.85872
33.176342
32.213891
31.598647
30.701889
30.089977
29.219708
28.596819
27.742568
27.107279
26.265728
25.619006
24.788433
24.131539
23.310614
22.644707
21.832291
21.158396
20.353494
19.672528
18.874257
18.187046
17.394614
16.701909
15.914602
15.217088
14.434257
13.732559
12.953613
12.248302
11.472702
10.764296
9.9915481
9.280525
8.5101739
7.7969711
7.0285966
6.3136196
5.54683
4.8304577
4.0648849
3.3474748
2.58277
1.8646653
1.1004919
0.38201833
39.275589
37.636954
35.966566
35.021543
33.858573
33.17631
32.213872
31.598639
30.701888
30.089973
29.219709
28.596818
27.742569
27.107279
26.265728
25.619006
24.788433
24.131539
23.310614
22.644707
21.832291
21.158396
20.353494
19.672528
18.874257
18.187046
17.394614
16.701909
15.914602
15.217088
14.434257
13.732559
12.953613
12.248302
11.472702
10.764296
9.991548
9.280525
8.5101738
7.7969711
7.0285965
6.3136197
5.54683
4.8304577
4.0648849
3.3474749
2.5827699
1.8646653
1.1004918
0.38201835
39.272876
37.635122
35.965676
35.021216
33.858457
33.176289
32.213858
31.598635
30.701887
30.089969
29.21971
28.596816
27.74257
27.10728
26.265728
25.619006
24.788433
24.131539
23.310614
22.644707
21.832291
21.158396
20.353494
19.672528
18.874257
18.187046
17.394614
16.701909
15.914602
15.217088
14.434257
13.732559
12.953613
12.248302
11.472702
10.764296
9.991548
9.2805251
8.5101738
7.7969712
7.0285965
6.3136197
5.5468299
4.8304578
4.0648848
3.3474749
2.5827699
1.8646653
1.1004917
0.38201836
39.270164
37.633592
35.964986
35.020961
33.858367
33.176277
32.213849
31.598632
30.701887
30.089966
29.219711
28.596815
27.742571
27.10728
26.265728
25.619006
24.788433
24.131539
23.310614
22.644707
21.832291
21.158397
20.353494
19.672528
18.874257
18.187046
17.394614
16.701909
15.914601
15.217088
14.434256
13.732559
12.953613
12.248302
11.472701
10.764296
9.9915479
9.2805251
8.5101738
7.7969712
7.0285965
6.3136197
5.5468299
4.8304578
4.0648848
3.3474749
2.5827699
1.8646654
1.1004916
0.38201838
39.268054
37.632275
35.964386
35.020765
33.858304
33.176275
32.213843
31.598631
30.701888
30.089964
29.219712
28.596813
27.742572
27.107281
26.265728
25.619006
24.788433
24.131539
23.310614
22.644707
21.832291
21.158397
20.353494
19.672528
18.874257
18.187046
17.394614
16.701909
15.914601
15.217088
14.434256
13.732559
12.953613
12.248302
11.472701
10.764296
9.9915479
9.2805251
8.5101737
7.7969712
7.0285964
6.3136198
5.5468299
4.8304578
4.0648848
3.3474749
2.5827698
1.8646654
1.1004915
0.38201839
39.26611
37.631151
35.963944
35.02062
33.858259
33.176279
32.213842
31.598631
30.701889
30.089963
29.219713
28.596811
27.742573
27.107281
26.265728
25.619007
24.788433
24.13154
23.310614
22.644707
21.832291
21.158397
20.353494
19.672528
18.874257
18.187046
17.394614
16.701909
15.914601
15.217088
14.434256
13.732559
12.953613
12.248302
11.472701
10.764296
9.9915479
9.2805252
8.5101737
7.7969713
7.0285964
6.3136198
5.5468298
4.8304578
4.0648847
3.347475
2.5827698
1.8646654
1.1004915
0.3820184
39.264328
37.630216
35.963578
35.020525
33.858237
33.17629
32.213843
31.598634
30.70189
30.089962
29.219714
28.596809
27.742573
27.107282
26.265728
25.619007
24.788433
24.13154
23.310614
22.644707
21.83229
21.158397
20.353494
19.672528
18.874257
18.187046
17.394614
16.701909
15.914601
15.217088
14.434256
13.732559
12.953613
12.248302
11.472701
10.764296
9.9915478
9.2805252
8.5101737
7.7969713
7.0285964
6.3136198
5.5468298
4.8304579
4.0648847
3.347475
2.5827698
1.8646654
1.1004914
0.38201841
39.263023
37.629492
35.963358
35.020475
33.858231
33.176306
32.213848
31.598637
30.701893
30.089961
29.219715
28.596808
27.742574
27.107282
26.265729
25.619007
24.788433
24.13154
23.310613
22.644707
21.83229
21.158397
20.353494
19.672529
18.874257
18.187046
17.394614
16.701909
15.914601
15.217088
14.434256
13.73256
12.953613
12.248302
11.472701
10.764296
9.9915478
9.2805252
8.5101737
7.7969713
7.0285964
6.3136198
5.5468298
4.8304579
4.0648847
3.347475
2.5827698
1.8646654
1.1004914
0.38201841
39.261714
37.628859
35.963195
35.020465
33.858244
33.176328
32.213856
31.598642
30.701895
30.089961
29.219716
28.596808
27.742574
27.107282
26.265729
25.619007
24.788433
24.13154
23.310613
22.644707
21.83229
21.158397
20.353494
19.672529
18.874257
18.187046
17.394613
16.701909
15.914601
15.217088
14.434256
13.73256
12.953613
12.248302
11.472701
10.764297
9.9915478
9.2805252
8.5101736
7.7969713
7.0285963
6.3136199
5.5468298
4.8304579
4.0648847
3.347475
2.5827698
1.8646654
1.1004914
0.38201841
39.2609
37.628485
35.963155
35.020487
33.858266
33.176352
32.213866
31.598647
30.701898
30.089962
29.219717
28.596808
27.742574
27.107282
26.26573
25.619007
24.788433
24.13154
23.310613
22.644707
21.83229
21.158397
20.353494
19.672529
18.874256
18.187046
17.394613
16.701909
15.914601
15.217088
14.434256
13.73256
12.953613
12.248302
11.472701
10.764297
9.9915478
9.2805252
8.5101736
7.7969713
7.0285963
6.3136199
5.5468298
4.8304579
4.0648847
3.347475
2.5827698
1.8646654
1.1004914
0.3820184
39.260183
37.628095
35.963132
35.020529
33.858298
33.176377
32.213876
31.598653
30.701901
30.089963
29.219718
28.596808
27.742574
27.107283
26.26573
25.619008
24.788433
24.13154
23.310613
22.644707
21.83229
21.158397
20.353494
19.672529
18.874256
18.187046
17.394613
16.701909
15.914601
15.217089
14.434256
13.73256
12.953613
12.248302
11.472701
10.764297
9.9915478
9.2805252
8.5101736
7.7969714
7.0285963
6.3136199
5.5468298
4.8304579
4.0648847
3.347475
2.5827698
1.8646654
1.1004914
0.38201838
39.259813
37.627993
35.963186
35.020576
33.858326
33.176398
32.213886
31.598658
30.701903
30.089963
29.219718
28.596808
27.742574
27.107283
26.26573
25.619008
24.788433
24.13154
23.310613
22.644707
21.83229
21.158397
20.353494
19.672529
18.874256
18.187046
17.394613
16.701909
15.914601
15.217089
14.434256
13.73256
12.953613
12.248302
11.472701
10.764297
9.9915478
9.2805252
8.5101736
7.7969713
7.0285963
6.3136199
5.5468298
4.8304579
4.0648847
3.347475
2.5827698
1.8646654
1.1004915
0.38201836
39.259616
37.627819
35.963203
35.020607
33.858345
33.17641
32.213891
31.598661
30.701904
30.089964
29.219719
28.596808
27.742574
27.107283
26.26573
25.619008
24.788432
24.13154
23.310613
22.644707
21.83229
21.158397
20.353494
19.672529
18.874256
18.187046
17.394613
16.701909
15.914601
15.217089
14.434256
13.73256
12.953613
12.248302
11.472701
10.764297
9.9915478
9.2805252
8.5101736
7.7969713
7.0285963
6.3136199
5.5468298
4.8304579
4.0648847
3.347475
2.5827698
1.8646654
1.1004915
0.38201834
39.259658
37.627867
35.963221
35.020604
33.858345
33.17641
32.213891
31.598661
30.701904
30.089964
29.219719
28.596808
27.742574
27.107283
26.26573
25.619008
24.788432
24.13154
23.310613
22.644707
21.83229
21.158397
20.353494
19.672529
18.874256
18.187046
17.394613
16.701909
15.914601
15.217089
14.434256
13.73256
12.953613
12.248302
11.472701
10.764297
9.9915478
9.2805252
8.5101736
7.7969713
7.0285963
6.3136199
5.5468298
4.8304579
4.0648847
3.347475
2.5827698
1.8646654
1.1004915
0.38201834
39.25996
37.627745
35.963155
35.020568
33.858328
33.176398
32.213886
31.598658
30.701903
30.089963
29.219718
28.596808
27.742573
27.107283
26.26573
25.619008
24.788432
24.13154
23.310613
22.644707
21.83229
21.158397
20.353494
19.672529
18.874256
18.187046
17.394613
16.701909
15.914601
15.217089
14.434256
13.73256
12.953613
12.248302
11.472701
10.764297
9.9915478
9.2805252
8.5101736
7.7969713
7.0285963
6.3136199
5.5468298
4.8304579
4.0648847
3.347475
2.5827698
1.8646654
1.1004915
0.38201836
39.260416
37.627968
35.963118
35.020517
33.858299
33.176378
32.213877
31.598654
30.701901
30.089962
29.219718
28.596808
27.742573
27.107283
26.26573
25.619008
24.788432
24.13154
23.310613
22.644707
21.83229
21.158397
20.353494
19.672529
18.874256
18.187046
17.394613
16.701909
15.914601
15.217089
14.434256
13.73256
12.953613
12.248302
11.472701
10.764297
9.9915478
9.2805252
8.5101736
7.7969714
7.0285963
6.3136199
5.5468298
4.8304579
4.0648847
3.347475
2.5827698
1.8646654
1.1004914
0.38201838
39.261144
37.628102
35.963089
35.020473
33.858271
33.176355
32.213868
31.598649
30.701898
30.089962
29.219717
28.596808
27.742574
27.107283
26.265729
25.619007
24.788433
24.13154
23.310613
22.644707
21.83229
21.158397
20.353494
19.672529
18.874256
18.187046
17.394613
16.701909
15.914601
15.217088
14.434256
13.73256
12.953613
12.248302
11.472701
10.764297
9.9915478
9.2805252
8.5101736
7.7969713
7.0285963
6.3136199
5.5468298
4.8304579
4.0648847
3.347475
2.5827698
1.8646654
1.1004914
0.3820184
39.262128
37.628583
35.963145
35.020448
33.858247
33.176332
32.213859
31.598644
30.701896
30.089961
29.219716
28.596808
27.742574
27.107282
26.265729
25.619007
24.788433
24.13154
23.310613
22.644707
21.83229
21.158397
20.353494
19.672529
18.874257
18.187046
17.394613
16.701909
15.914601
15.217088
14.434256
13.73256
12.953613
12.248302
11.472701
10.764297
9.9915478
9.2805252
8.5101736
7.7969713
7.0285963
6.3136199
5.5468298
4.8304579
4.0648847
3.347475
2.5827698
1.8646654
1.1004914
0.38201841
39.263374
37.628989
35.963264
35.020456
33.858239
33.176313
32.213853
31.59864
30.701893
30.089961
29.219715
28.596808
27.742574
27.107282
26.265729
25.619007
24.788433
24.13154
23.310613
22.644707
21.83229
21.158397
20.353494
19.672529
18.874257
18.187046
17.394614
16.701909
15.914601
15.217088
14.434256
13.73256
12.953613
12.248302
11.472701
10.764296
9.9915478
9.2805252
8.5101737
7.7969713
7.0285964
6.3136198
5.5468298
4.8304579
4.0648847
3.347475
2.5827698
1.8646654
1.1004914
0.38201841
39.26485
37.629754
35.963496
35.020503
33.858243
33.176298
32.213849
31.598637
30.701892
30.089961
29.219714
28.596809
27.742573
27.107282
26.265728
25.619007
24.788433
24.13154
23.310614
22.644707
21.83229
21.158397
20.353494
19.672528
18.874257
18.187046
17.394614
16.701909
15.914601
15.217088
14.434256
13.732559
12.953613
12.248302
11.472701
10.764296
9.9915478
9.2805252
8.5101737
7.7969713
7.0285964
6.3136198
5.5468298
4.8304579
4.0648847
3.347475
2.5827698
1.8646654
1.1004914
0.38201841
39.266685
37.630559
35.963832
35.020598
33.858269
33.176289
32.213848
31.598635
30.70189
30.089962
29.219713
28.596811
27.742573
27.107281
26.265728
25.619007
24.788433
24.13154
23.310614
22.644707
21.832291
21.158397
20.353494
19.672528
18.874257
18.187046
17.394614
16.701909
15.914601
15.217088
14.434256
13.732559
12.953613
12.248302
11.472701
10.764296
9.9915479
9.2805252
8.5101737
7.7969713
7.0285964
6.3136198
5.5468298
4.8304578
4.0648847
3.347475
2.5827698
1.8646654
1.1004915
0.3820184
39.268547
37.631638
35.96429
35.020743
33.858314
33.176286
32.21385
31.598635
30.701889
30.089964
29.219712
28.596812
27.742572
27.107281
26.265728
25.619006
24.788433
24.131539
23.310614
22.644707
21.832291
21.158397
20.353494
19.672528
18.874257
18.187046
17.394614
16.701909
15.914601
15.217088
14.434256
13.732559
12.953613
12.248302
11.472701
10.764296
9.9915479
9.2805251
8.5101737
7.7969712
7.0285964
6.3136198
5.5468299
4.8304578
4.0648848
3.3474749
2.5827698
1.8646654
1.1004915
0.38201839
39.271166
37.632914
35.96486
35.02094
33.858381
33.17629
32.213857
31.598636
30.701889
30.089966
29.219711
28.596814
27.742571
27.10728
26.265728
25.619006
24.788433
24.131539
23.310614
22.644707
21.832291
21.158397
20.353494
19.672528
18.874257
18.187046
17.394614
16.701909
15.914601
15.217088
14.434256
13.732559
12.953613
12.248302
11.472701
10.764296
9.9915479
9.2805251
8.5101738
7.7969712
7.0285965
6.3136197
5.5468299
4.8304578
4.0648848
3.3474749
2.5827699
1.8646654
1.1004916
0.38201838
39.273347
37.634367
35.96558
35.021195
33.85847
33.176303
32.213867
31.59864
30.701889
30.089969
29.21971
28.596816
27.74257
27.10728
26.265728
25.619006
24.788433
24.131539
23.310614
22.644707
21.832291
21.158396
20.353494
19.672528
18.874257
18.187046
17.394614
16.701909
15.914602
15.217088
14.434257
13.732559
12.953613
12.248302
11.472702
10.764296
9.991548
9.2805251
8.5101738
7.7969712
7.0285965
6.3136197
5.5468299
4.8304578
4.0648848
3.3474749
2.5827699
1.8646653
1.1004917
0.38201836
39.276932
37.636129
35.966429
35.021523
33.858589
33.176325
32.213882
31.598645
30.70189
30.089973
29.219709
28.596818
27.742569
27.107279
26.265728
25.619006
24.788433
24.131539
23.310614
22.644707
21.832291
21.158396
20.353494
19.672528
18.874257
18.187046
17.394614
16.701909
15.914602
15.217088
14.434257
13.732559
12.953613
12.248302
11.472702
10.764296
9.991548
9.280525
8.5101738
7.7969711
7.0285965
6.3136197
5.54683
4.8304577
4.0648849
3.3474749
2.5827699
1.8646653
1.1004918
0.38201835
39.279982
37.638105
35.967449
35.021916
33.858735
33.176358
32.213902
31.598653
30.701892
30.089977
29.219708
28.596819
27.742568
27.107279
26.265728
25.619006
24.788433
24.131539
23.310614
22.644707
21.832291
21.158396
20.353494
19.672528
18.874257
18.187046
17.394614
16.701909
15.914602
15.217088
14.434257
13.732559
12.953613
12.248302
11.472702
10.764296
9.9915481
9.280525
8.5101739
7.7969711
7.0285966
6.3136196
5.54683
4.8304577
4.0648849
3.3474748
2.58277
1.8646653
1.1004919
0.38201833
39.284766
37.640455
35.968594
35.022391
33.858913
33.176403
32.213926
31.598663
30.701894
30.089983
29.219708
28.59682
27.742567
27.107279
26.265728
25.619006
24.788434
24.131539
23.310614
22.644707
21.832291
21.158396
20.353495
19.672528
18.874257
18.187046
17.394614
16.701909
15.914602
15.217088
14.434257
13.732559
12.953613
12.248302
11.472702
10.764296
9.9915481
9.2805249
8.5101739
7.796971
7.0285966
6.3136196
5.54683
4.8304576
4.0648849
3.3474748
2.58277
1.8646653
1.100492
0.38201831
39.288769
37.643251
35.970011
35.022956
33.859124
33.17646
32.213956
31.598676
30.701897
30.089989
29.219707
28.59682
27.742566
27.107278
26.265728
25.619006
24.788434
24.131539
23.310615
22.644707
21.832291
21.158396
20.353495
19.672528
18.874257
18.187046
17.394614
16.701909
15.914602
15.217088
14.434257
13.732559
12.953613
12.248301
11.472702
10.764296
9.9915482
9.2805248
8.510174
7.796971
7.0285967
6.3136195
5.5468301
4.8304576
4.064885
3.3474747
2.58277
1.8646652
1.1004921
0.38201829
39.295202
37.646581
35.971516
35.023605
33.859367
33.176529
32.21399
31.598691
30.7019
30.089996
29.219706
28.59682
27.742566
27.107278
26.265728
25.619006
24.788434
24.131539
23.310615
22.644707
21.832292
21.158396
20.353495
19.672528
18.874257
18.187045
17.394614
16.701909
15.914602
15.217088
14.434257
13.732559
12.953613
12.248301
11.472702
10.764296
9.9915482
9.2805248
8.5101741
7.7969709
7.0285967
6.3136195
5.5468301
4.8304575
4.064885
3.3474747
2.5827701
1.8646652
1.1004922
0.38201827
39.299354
37.650098
35.973239
35.024326
33.859638
33.176608
32.214029
31.598708
30.701903
30.090003
29.219705
28.59682
27.742566
27.107278
26.265729
25.619005
24.788434
24.131539
23.310615
22.644706
21.832292
21.158396
20.353495
19.672528
18.874258
18.187045
17.394614
16.701909
15.914602
15.217088
14.434257
13.732559
12.953613
12.248301
11.472702
10.764296
9.9915483
9.2805247
8.5101741
7.7969709
7.0285968
6.3136194
5.5468302
4.8304575
4.0648851
3.3474746
2.5827701
1.8646652
1.1004923
0.38201825
39.305519
37.653044
35.974953
35.025126
33.859937
33.176698
32.214071
31.598728
30.701907
30.090011
29.219703
28.59682
27.742566
27.107278
26.265729
25.619005
24.788435
24.131539
23.310615
22.644706
21.832292
21.158396
20.353495
19.672528
18.874258
18.187045
17.394614
16.701909
15.914602
15.217088
14.434257
13.732559
12.953614
12.248301
11.472702
10.764296
9.9915484
9.2805246
8.5101742
7.7969708
7.0285969
6.3136193
5.5468303
4.8304574
4.0648852
3.3474745
2.5827702
1.8646651
1.1004925
0.38201823
39.313259
37.657965
35.976945
35.026016
33.860265
33.176799
32.214119
31.59875
30.701912
30.090018
29.219702
28.59682
27.742566
27.107278
26.265729
25.619005
24.788435
24.131538
23.310616
22.644706
21.832292
21.158396
20.353495
19.672527
18.874258
18.187045
17.394615
16.701908
15.914602
15.217088
14.434257
13.732559