/*--------------------------------*- C++ -*----------------------------------*\
| =========                 |                                                 |
| \\      /  F ield         | OpenFOAM: The Open Source CFD Toolbox           |
|  \\    /   O peration     | Version:  2312                                  |
|   \\  /    A nd           | Website:  www.openfoam.com                      |
|    \\/     M anipulation  |                                                 |
\*---------------------------------------------------------------------------*/
FoamFile
{
    version     2.0;
    format      ascii;
    arch        "LSB;label=32;scalar=64";
    class       surfaceScalarField;
    location    "8";
    object      phi;
}
// * * * * * * * * * * * * * * * * * * * * * * * * * * * * * * * * * * * * * //

dimensions      [0 3 -1 0 0 0 0];

oriented        oriented;

internalField   nonuniform List<scalar> 
7870
(
1.7140209e-10
3.2902229e-09
1.7909708e-10
-7.6950097e-12
1.3085753e-10
4.8239555e-11
1.4047833e-10
-9.6208155e-12
1.3424899e-10
6.2293399e-12
1.3498159e-10
-7.3260725e-13
1.331635e-10
1.8181034e-12
1.3352896e-10
-3.6546338e-13
1.326368e-10
8.9217636e-13
1.3324453e-10
-6.0773901e-13
1.3255715e-10
6.8740027e-13
1.3317876e-10
-6.2162341e-13
1.3256982e-10
6.0895059e-13
1.3314331e-10
-5.7350309e-13
1.3259622e-10
5.4709209e-13
1.3311214e-10
-5.1593136e-13
1.3262294e-10
4.8920128e-13
1.3308446e-10
-4.6153048e-13
1.3264767e-10
4.3679091e-13
1.330602e-10
-4.1253577e-13
1.3266993e-10
3.9026698e-13
1.3303888e-10
-3.6894489e-13
1.3268976e-10
3.4911949e-13
1.3302011e-10
-3.3033954e-13
1.3270731e-10
3.1279813e-13
1.3300359e-10
-2.9627497e-13
1.3272276e-10
2.8083528e-13
1.3298911e-10
-2.6634496e-13
1.3273628e-10
2.5282854e-13
1.3297647e-10
-2.4018196e-13
1.3274805e-10
2.2842112e-13
1.329655e-10
-2.1745229e-13
1.3275821e-10
2.0729275e-13
1.3295607e-10
-1.9785418e-13
1.3276691e-10
1.8915656e-13
1.3294803e-10
-1.8111766e-13
1.3277427e-10
1.7375849e-13
1.3294127e-10
-1.6700492e-13
1.327804e-10
1.6087717e-13
1.3293571e-10
-1.5531028e-13
1.3278538e-10
1.5032336e-13
1.3293124e-10
-1.45862e-13
1.3278931e-10
1.4193193e-13
1.3292784e-10
-1.3853442e-13
1.3279228e-10
1.3556891e-13
1.3292537e-10
-1.3309732e-13
1.3279359e-10
1.3177935e-13
1.3292098e-10
-1.2738857e-13
1.3278566e-10
1.353202e-13
-1.2319731e-13
4.3849748e-10
6.3133504e-09
5.0090261e-10
-7.0100171e-11
3.9251534e-10
1.5662683e-10
4.0417424e-10
-2.1279742e-11
3.902372e-10
2.016639e-11
3.9079042e-10
-1.2858366e-12
3.8716813e-10
5.4404196e-12
3.8698822e-10
-1.8556034e-13
3.8556344e-10
2.3169892e-12
3.862622e-10
-1.3065161e-12
3.852783e-10
1.67133e-12
3.8613926e-10
-1.4826141e-12
3.8526791e-10
1.4803233e-12
3.8608946e-10
-1.3950936e-12
3.8529963e-10
1.3369312e-12
3.8604396e-10
-1.2602864e-12
3.8533606e-10
1.197101e-12
3.8600307e-10
-1.1285618e-12
3.8537106e-10
1.0687995e-12
3.8596756e-10
-1.0090385e-12
3.8540304e-10
9.5478892e-13
3.8593655e-10
-9.0244763e-13
3.8543168e-10
8.5399542e-13
3.8590933e-10
-8.0797517e-13
3.8545708e-10
7.6505493e-13
3.8588542e-10
-7.2459942e-13
3.8547945e-10
6.868081e-13
3.8586447e-10
-6.5134763e-13
3.8549904e-10
6.1826174e-13
3.8584619e-10
-5.873242e-13
3.8551608e-10
5.5853628e-13
3.8583034e-10
-5.3171006e-13
3.8553079e-10
5.0684228e-13
3.858167e-10
-4.8376266e-13
3.8554338e-10
4.6247304e-13
3.8580508e-10
-4.4281764e-13
3.8555404e-10
4.2480312e-13
3.8579532e-10
-4.0829023e-13
3.8556291e-10
3.9328813e-13
3.8578727e-10
-3.7967456e-13
3.8557013e-10
3.6746341e-13
3.8578081e-10
-3.5654829e-13
3.8557583e-10
3.4691707e-13
3.8577592e-10
-3.3862405e-13
3.8558022e-10
3.3126328e-13
3.857725e-10
-3.253736e-13
3.8558219e-10
3.2208322e-13
3.8576476e-10
-3.0995629e-13
3.8556262e-10
3.3746219e-13
-3.0070127e-13
7.2393424e-10
9.0510412e-09
7.9429464e-10
-1.4046062e-10
6.4632304e-10
3.0459843e-10
6.604002e-10
-3.5356923e-11
6.3931501e-10
4.1251594e-11
6.3952198e-10
-1.4928201e-12
6.3471069e-10
1.0251752e-11
6.3364881e-10
8.763058e-13
6.3216258e-10
3.8032551e-12
6.3258726e-10
-1.7312193e-12
6.3168179e-10
2.576843e-12
6.3244716e-10
-2.248029e-12
6.3163689e-10
2.2906176e-12
6.3240489e-10
-2.1631335e-12
6.3165872e-10
2.0831133e-12
6.3236164e-10
-1.9632497e-12
6.3169033e-10
1.8684145e-12
6.323218e-10
-1.7600574e-12
6.3172252e-10
1.6680855e-12
6.3228759e-10
-1.5741097e-12
6.3175254e-10
1.4898362e-12
6.3225796e-10
-1.4078555e-12
6.3177964e-10
1.3323274e-12
6.3223207e-10
-1.2603878e-12
6.3180373e-10
1.1934021e-12
6.3220937e-10
-1.1302226e-12
6.3182496e-10
1.0712224e-12
6.321895e-10
-1.0158746e-12
6.3184355e-10
9.6422013e-13
6.3217218e-10
-9.1594983e-13
6.3185971e-10
8.7100898e-13
6.3215717e-10
-8.2916406e-13
6.3187367e-10
7.9034559e-13
6.3214426e-10
-7.5435049e-13
6.3188561e-10
7.2111821e-13
6.3213326e-10
-6.9046548e-13
6.3189572e-10
6.6234417e-13
6.3212402e-10
-6.3659114e-13
6.3190413e-10
6.1316914e-13
6.3211639e-10
-5.9193336e-13
6.3191099e-10
5.7286481e-13
6.3211027e-10
-5.5582895e-13
6.3191641e-10
5.4077392e-13
6.3210564e-10
-5.2786097e-13
6.3192071e-10
5.161995e-13
6.3210256e-10
-5.0723254e-13
6.3192256e-10
5.0208626e-13
6.3209311e-10
-4.8050288e-13
6.3189299e-10
5.3758242e-13
-4.6802699e-13
9.3816165e-10
1.1574505e-08
1.0674914e-09
-2.6979041e-10
8.9223223e-10
4.7985762e-10
9.0964091e-10
-5.2765635e-11
8.8124159e-10
6.9650932e-11
8.8140744e-10
-1.6586838e-12
8.7555323e-10
1.6105998e-11
8.7372258e-10
2.706949e-12
8.7224161e-10
5.2842607e-12
8.7240692e-10
-1.8965507e-12
8.7159457e-10
3.3892363e-12
8.7226727e-10
-2.9207749e-12
8.7152256e-10
3.0353572e-12
8.7223601e-10
-2.8766292e-12
8.7153614e-10
2.7829938e-12
8.7219564e-10
-2.622791e-12
8.7156327e-10
2.5007893e-12
8.7215705e-10
-2.3538612e-12
8.7159265e-10
2.2324886e-12
8.7212426e-10
-2.1057256e-12
8.7162064e-10
1.9934634e-12
8.7209612e-10
-1.8833326e-12
8.7164608e-10
1.7823779e-12
8.7207164e-10
-1.685934e-12
8.7166876e-10
1.5962946e-12
8.7205024e-10
-1.5116813e-12
8.7168876e-10
1.4327059e-12
8.7203152e-10
-1.358624e-12
8.7170626e-10
1.2894837e-12
8.7201522e-10
-1.2248983e-12
8.7172148e-10
1.1647508e-12
8.720011e-10
-1.1087753e-12
8.7173462e-10
1.0568265e-12
8.7198895e-10
-1.0086826e-12
8.7174586e-10
9.6421115e-13
8.7197861e-10
-9.2321422e-13
8.7175537e-10
8.8558083e-13
8.7196991e-10
-8.511349e-13
8.7176329e-10
8.1978603e-13
8.7196273e-10
-7.9137553e-13
8.7176975e-10
7.6584783e-13
8.7195696e-10
-7.4304196e-13
8.7177486e-10
7.2286748e-13
8.7195262e-10
-7.0561539e-13
8.7177904e-10
6.8977483e-13
8.719499e-10
-6.7809401e-13
8.7178096e-10
6.7102454e-13
8.7193947e-10
-6.3901117e-13
8.7174373e-10
7.3331765e-13
-6.2478124e-13
1.1772328e-09
1.3858897e-08
1.3292567e-09
-4.2181433e-10
1.1304459e-09
6.7866835e-10
1.1518606e-09
-7.4180303e-11
1.1160291e-09
1.0548247e-10
1.1164499e-09
-2.079538e-12
1.1096678e-09
2.2888137e-11
1.1072079e-09
5.1668147e-12
1.1058016e-09
6.6906328e-12
1.105723e-09
-1.8179646e-12
1.1050169e-09
4.0953275e-12
1.1055998e-09
-3.503689e-12
1.1049247e-09
3.7105359e-12
1.1055827e-09
-3.5346684e-12
1.1049316e-09
3.4340716e-12
1.1055458e-09
-3.2370003e-12
1.1049546e-09
3.0919683e-12
1.1055086e-09
-2.9079445e-12
1.1049812e-09
2.7599529e-12
1.1054774e-09
-2.6019918e-12
1.1050071e-09
2.4638368e-12
1.1054509e-09
-2.3271719e-12
1.1050308e-09
2.2025237e-12
1.105428e-09
-2.0830955e-12
1.105052e-09
1.9722989e-12
1.1054079e-09
-1.8676315e-12
1.1050706e-09
1.7699928e-12
1.1053904e-09
-1.6784067e-12
1.105087e-09
1.5929316e-12
1.1053752e-09
-1.5131144e-12
1.1051012e-09
1.4387654e-12
1.1053621e-09
-1.3696041e-12
1.1051135e-09
1.3053956e-12
1.1053507e-09
-1.2459178e-12
1.105124e-09
1.1909535e-12
1.1053411e-09
-1.1403069e-12
1.1051329e-09
1.0937925e-12
1.105333e-09
-1.0512363e-12
1.1051403e-09
1.0124845e-12
1.1053263e-09
-9.7737673e-13
1.1051463e-09
9.4581407e-13
1.1053209e-09
-9.1761385e-13
1.1051511e-09
8.9264793e-13
1.1053168e-09
-8.7135123e-13
1.1051551e-09
8.5148503e-13
1.1053145e-09
-8.3746506e-13
1.1051572e-09
8.2832779e-13
1.1053035e-09
-7.8539796e-13
1.1051142e-09
9.2263055e-13
-7.6951352e-13
1.3896783e-09
1.5930843e-08
1.5693956e-09
-6.0153166e-10
1.3611555e-09
8.8690842e-10
1.3869519e-09
-9.9976725e-11
1.3436593e-09
1.487751e-10
1.3446446e-09
-3.0648642e-12
1.337043e-09
3.0489799e-11
1.3341138e-09
8.0959616e-12
1.3328454e-09
7.9591158e-12
1.3325394e-09
-1.5119782e-12
1.3319497e-09
4.6849964e-12
1.3324458e-09
-3.9998087e-12
1.3318432e-09
4.3131782e-12
1.3324452e-09
-4.136704e-12
1.3318449e-09
4.0343674e-12
1.3324122e-09
-3.8043647e-12
1.3318641e-09
3.6401105e-12
1.3323768e-09
-3.4206625e-12
1.3318879e-09
3.248807e-12
1.3323473e-09
-3.0613777e-12
1.3319117e-09
2.8994786e-12
1.3323225e-09
-2.7380042e-12
1.3319336e-09
2.5914666e-12
1.3323012e-09
-2.4506628e-12
1.3319532e-09
2.3202757e-12
1.3322826e-09
-2.1970084e-12
1.3319705e-09
2.0820811e-12
1.3322664e-09
-1.9742834e-12
1.3319857e-09
1.8736796e-12
1.3322523e-09
-1.7797666e-12
1.3319988e-09
1.6922684e-12
1.3322401e-09
-1.6109102e-12
1.3320102e-09
1.5353533e-12
1.3322297e-09
-1.4653939e-12
1.3320199e-09
1.400718e-12
1.3322207e-09
-1.3411478e-12
1.3320281e-09
1.2864138e-12
1.3322132e-09
-1.2363564e-12
1.332035e-09
1.1907514e-12
1.332207e-09
-1.1494468e-12
1.3320406e-09
1.1122953e-12
1.332202e-09
-1.0790959e-12
1.332045e-09
1.049687e-12
1.3321983e-09
-1.0246509e-12
1.3320488e-09
1.0009445e-12
1.3321963e-09
-9.8496351e-13
1.3320511e-09
9.735784e-13
1.3321853e-09
-9.1962939e-13
1.3320042e-09
1.1037627e-12
-9.0105443e-13
1.5829799e-09
1.7809489e-08
1.7999311e-09
-8.1848293e-10
1.5848766e-09
1.1019629e-09
1.6134784e-09
-1.2857855e-10
1.5642774e-09
1.9797612e-10
1.5660519e-09
-4.839412e-12
1.557699e-09
3.8842801e-11
1.5544581e-09
1.1336842e-11
1.5533762e-09
9.0410591e-12
1.5528605e-09
-9.9634506e-13
1.5523941e-09
5.1514664e-12
1.5528064e-09
-4.4121629e-12
1.5522783e-09
4.8413323e-12
1.552824e-09
-4.6825026e-12
1.552276e-09
4.5824462e-12
1.5527953e-09
-4.3237816e-12
1.5522916e-09
4.143815e-12
1.5527617e-09
-3.890784e-12
1.5523128e-09
3.6977868e-12
1.5527341e-09
-3.4827415e-12
1.5523343e-09
3.2992874e-12
1.5527111e-09
-3.1148163e-12
1.5523544e-09
2.9482508e-12
1.5526915e-09
-2.7877482e-12
1.5523724e-09
2.6393935e-12
1.5526744e-09
-2.4990347e-12
1.5523882e-09
2.3682437e-12
1.5526595e-09
-2.2455713e-12
1.5524021e-09
2.1310873e-12
1.5526466e-09
-2.0242515e-12
1.5524142e-09
1.9246924e-12
1.5526355e-09
-1.8321569e-12
1.5524246e-09
1.7461932e-12
1.5526259e-09
-1.6666307e-12
1.5524335e-09
1.5930502e-12
1.5526177e-09
-1.5253047e-12
1.5524411e-09
1.4630339e-12
1.5526108e-09
-1.406104e-12
1.5524474e-09
1.3542139e-12
1.5526051e-09
-1.3072294e-12
1.5524525e-09
1.2649509e-12
1.5526005e-09
-1.2271618e-12
1.5524566e-09
1.1936736e-12
1.5525971e-09
-1.1652107e-12
1.5524602e-09
1.1378781e-12
1.5525955e-09
-1.1203087e-12
1.5524626e-09
1.1064892e-12
1.5525847e-09
-1.041719e-12
1.5524132e-09
1.2752209e-12
-1.0187404e-12
1.7832167e-09
1.9487897e-08
2.0079812e-09
-1.0432475e-09
1.7986542e-09
1.3112899e-09
1.8271881e-09
-1.5711248e-10
1.7772902e-09
2.4787405e-10
1.7805264e-09
-8.0755981e-12
1.7716219e-09
4.7747349e-11
1.7682534e-09
1.4705281e-11
1.7673941e-09
9.9004256e-12
1.7666898e-09
-2.9205125e-13
1.7663508e-09
5.4904435e-12
1.7666824e-09
-4.7437938e-12
1.76623e-09
5.2938226e-12
1.7667195e-09
-5.1720795e-12
1.7662246e-09
5.0773355e-12
1.7666953e-09
-4.7945e-12
1.766237e-09
4.6020737e-12
1.7666637e-09
-4.3174435e-12
1.7662555e-09
4.1059926e-12
1.766638e-09
-3.8652886e-12
1.7662748e-09
3.6624953e-12
1.7666169e-09
-3.456913e-12
1.7662929e-09
3.2722209e-12
1.766599e-09
-3.0937493e-12
1.7663093e-09
2.9290889e-12
1.7665834e-09
-2.7731878e-12
1.7663237e-09
2.6279913e-12
1.76657e-09
-2.4918134e-12
1.7663363e-09
2.364726e-12
1.7665583e-09
-2.246166e-12
1.7663473e-09
2.1356581e-12
1.7665481e-09
-2.0329862e-12
1.7663567e-09
1.9375771e-12
1.7665394e-09
-1.8493075e-12
1.7663648e-09
1.7676462e-12
1.766532e-09
-1.6924886e-12
1.7663717e-09
1.6233785e-12
1.7665258e-09
-1.5602169e-12
1.7663774e-09
1.5026225e-12
1.7665206e-09
-1.4504858e-12
1.766382e-09
1.4035526e-12
1.7665164e-09
-1.3615934e-12
1.7663857e-09
1.3243998e-12
1.7665133e-09
-1.292827e-12
1.7663891e-09
1.2621075e-12
1.7665121e-09
-1.2433093e-12
1.7663917e-09
1.2268823e-12
1.7665017e-09
-1.151723e-12
1.7663412e-09
1.4357441e-12
-1.1222944e-12
1.9329247e-09
2.1016597e-08
2.2047167e-09
-1.3150395e-09
2.0043941e-09
1.5116125e-09
2.0262325e-09
-1.7895084e-10
1.9827063e-09
2.9140028e-10
1.9880169e-09
-1.3386242e-11
1.9788364e-09
5.6927919e-11
1.975512e-09
1.802963e-11
1.9748995e-09
1.0512979e-11
1.9740305e-09
5.7690623e-13
1.9738212e-09
5.6997864e-12
1.9740748e-09
-4.9974038e-12
1.9736984e-09
5.6701964e-12
1.9741319e-09
-5.605602e-12
1.9736907e-09
5.5184923e-12
1.9741123e-09
-5.216068e-12
1.9737001e-09
5.0142363e-12
1.9740828e-09
-4.7001006e-12
1.9737159e-09
4.4728521e-12
1.9740591e-09
-4.2085324e-12
1.973733e-09
3.9886316e-12
1.97404e-09
-3.7638778e-12
1.9737492e-09
3.5629879e-12
1.9740238e-09
-3.3683123e-12
1.9737639e-09
3.1890344e-12
1.9740099e-09
-3.0191648e-12
1.9737768e-09
2.8610438e-12
1.9739978e-09
-2.7127476e-12
1.9737881e-09
2.574352e-12
1.9739873e-09
-2.4452806e-12
1.973798e-09
2.3249506e-12
1.9739782e-09
-2.2131948e-12
1.9738064e-09
2.1093139e-12
1.9739704e-09
-2.0132427e-12
1.9738137e-09
1.9243343e-12
1.9739637e-09
-1.842536e-12
1.9738198e-09
1.7672922e-12
1.9739582e-09
-1.6985471e-12
1.9738249e-09
1.635836e-12
1.9739535e-09
-1.5790812e-12
1.9738291e-09
1.5279718e-12
1.9739498e-09
-1.4822681e-12
1.9738324e-09
1.4417495e-12
1.973947e-09
-1.4073855e-12
1.9738356e-09
1.3735402e-12
1.9739461e-09
-1.3538538e-12
1.9738383e-09
1.3346739e-12
1.9739363e-09
-1.2497367e-12
1.9737878e-09
1.5842787e-12
-1.2117137e-12
2.1144809e-09
2.2363741e-08
2.3844993e-09
-1.5850578e-09
2.1984381e-09
1.6976736e-09
2.2139244e-09
-1.9443714e-10
2.1809331e-09
3.243916e-10
2.1883069e-09
-2.0760143e-11
2.1793442e-09
6.589073e-11
2.1762405e-09
2.1133259e-11
2.1758935e-09
1.0860014e-11
2.1748857e-09
1.5847275e-12
2.1748066e-09
5.7789486e-12
2.1749843e-09
-5.1751501e-12
2.1746839e-09
5.970638e-12
2.1750616e-09
-5.9833606e-12
2.1746743e-09
5.9057661e-12
2.1750465e-09
-5.5883058e-12
2.1746808e-09
5.3799861e-12
2.1750191e-09
-5.038511e-12
2.1746939e-09
4.798094e-12
2.1749976e-09
-4.5122655e-12
2.1747088e-09
4.2774939e-12
2.1749805e-09
-4.0355457e-12
2.174723e-09
3.820399e-12
2.1749661e-09
-3.6113064e-12
2.174736e-09
3.4191111e-12
2.1749537e-09
-3.2368601e-12
2.1747475e-09
3.0673049e-12
2.174943e-09
-2.908286e-12
2.1747575e-09
2.7598846e-12
2.1749337e-09
-2.6215204e-12
2.1747662e-09
2.4925006e-12
2.1749257e-09
-2.3727171e-12
2.1747737e-09
2.2613424e-12
2.1749188e-09
-2.1583783e-12
2.1747801e-09
2.0630602e-12
2.1749129e-09
-1.9753947e-12
2.1747855e-09
1.8947261e-12
2.174908e-09
-1.8210475e-12
2.17479e-09
1.7538101e-12
2.1749039e-09
-1.6929735e-12
2.1747937e-09
1.6381688e-12
2.1749006e-09
-1.5891489e-12
2.1747967e-09
1.5456888e-12
2.1748981e-09
-1.5088523e-12
2.1747995e-09
1.4721602e-12
2.1748976e-09
-1.4519031e-12
2.1748024e-09
1.4298633e-12
2.1748885e-09
-1.3358932e-12
2.1747528e-09
1.7199582e-12
-1.2872041e-12
2.2537085e-09
2.3571658e-08
2.5509952e-09
-1.8823446e-09
2.3818413e-09
1.8668276e-09
2.3937604e-09
-2.0635628e-10
2.3723663e-09
3.4578573e-10
2.3811711e-09
-2.9564936e-11
2.3731495e-09
7.3912309e-11
2.3704558e-09
2.3826955e-11
2.3703761e-09
1.0939772e-11
2.3692578e-09
2.7029657e-12
2.3693082e-09
5.7286206e-12
2.3694116e-09
-5.2785649e-12
2.3691864e-09
6.1958572e-12
2.3695088e-09
-6.3058028e-12
2.3691752e-09
6.2393443e-12
2.3694982e-09
-5.9113007e-12
2.3691788e-09
5.6993104e-12
2.369473e-09
-5.3327063e-12
2.3691894e-09
5.0817216e-12
2.3694536e-09
-4.7765338e-12
2.369202e-09
4.529122e-12
2.3694385e-09
-4.2719766e-12
2.3692144e-09
4.0445146e-12
2.3694259e-09
-3.8227985e-12
2.3692256e-09
3.619387e-12
2.3694151e-09
-3.426342e-12
2.3692356e-09
3.2468431e-12
2.3694058e-09
-3.078495e-12
2.3692443e-09
2.9213893e-12
2.3693977e-09
-2.7749474e-12
2.3692519e-09
2.6383687e-12
2.3693908e-09
-2.5116106e-12
2.3692584e-09
2.3937182e-12
2.3693848e-09
-2.2847666e-12
2.369264e-09
2.1838741e-12
2.3693797e-09
-2.0911126e-12
2.3692687e-09
2.0057261e-12
2.3693754e-09
-1.9277619e-12
2.3692726e-09
1.8565873e-12
2.3693718e-09
-1.7922035e-12
2.3692758e-09
1.7341837e-12
2.3693689e-09
-1.6822755e-12
2.3692784e-09
1.6362577e-12
2.3693668e-09
-1.5972655e-12
2.3692809e-09
1.5580205e-12
2.3693665e-09
-1.5374842e-12
2.3692838e-09
1.5125221e-12
2.3693583e-09
-1.4103612e-12
2.3692362e-09
1.8420884e-12
-1.3491358e-12
2.4189819e-09
2.4614301e-08
2.7038899e-09
-2.1672526e-09
2.5575223e-09
2.0131952e-09
2.5682904e-09
-2.171244e-10
2.5572682e-09
3.5680798e-10
2.566745e-09
-3.9041756e-11
2.5603298e-09
8.0327505e-11
2.5581815e-09
2.5975249e-11
2.5583505e-09
1.0770813e-11
2.5571499e-09
3.9035311e-12
2.557328e-09
5.5506001e-12
2.5573574e-09
-5.3080411e-12
2.5572061e-09
6.3471847e-12
2.5574737e-09
-6.5734655e-12
2.5571933e-09
6.5197414e-12
2.5574674e-09
-6.1853832e-12
2.5571942e-09
5.9724773e-12
2.5574445e-09
-5.5829682e-12
2.5572022e-09
5.3239875e-12
2.5574273e-09
-5.0016109e-12
2.5572126e-09
4.7437729e-12
2.5574141e-09
-4.4734313e-12
2.557223e-09
4.2355833e-12
2.5574033e-09
-4.0030322e-12
2.5572326e-09
3.790095e-12
2.5573941e-09
-3.5878345e-12
2.5572411e-09
3.3998722e-12
2.5573862e-09
-3.2235783e-12
2.5572485e-09
3.0590604e-12
2.5573793e-09
-2.9057462e-12
2.5572549e-09
2.7627307e-12
2.5573734e-09
-2.6300418e-12
2.5572605e-09
2.5066e-12
2.5573683e-09
-2.392558e-12
2.5572653e-09
2.2869199e-12
2.557364e-09
-2.189826e-12
2.5572693e-09
2.100423e-12
2.5573603e-09
-2.0188151e-12
2.5572726e-09
1.9442878e-12
2.5573573e-09
-1.8768867e-12
2.5572754e-09
1.8161282e-12
2.5573548e-09
-1.7617569e-12
2.5572775e-09
1.7135626e-12
2.557353e-09
-1.6727281e-12
2.5572798e-09
1.6312354e-12
2.557353e-09
-1.6106832e-12
2.5572827e-09
1.5827858e-12
2.5573457e-09
-1.4733434e-12
2.5572376e-09
1.9501321e-12
-1.3980062e-12
2.5503498e-09
2.5525576e-08
2.8472063e-09
-2.4641091e-09
2.7272176e-09
2.1331838e-09
2.7370738e-09
-2.2698056e-10
2.7357155e-09
3.5816622e-10
2.7454362e-09
-4.8762446e-11
2.7409742e-09
8.4789565e-11
2.7394362e-09
2.7513186e-11
2.739818e-09
1.0389145e-11
2.7385631e-09
5.1583172e-12
2.7388674e-09
5.2464245e-12
2.7388222e-09
-5.2629428e-12
2.738743e-09
6.4264174e-12
2.7389566e-09
-6.7870506e-12
2.7387286e-09
6.7477114e-12
2.7389543e-09
-6.4111442e-12
2.7387268e-09
6.199988e-12
2.7389336e-09
-5.7898154e-12
2.7387323e-09
5.525361e-12
2.7389186e-09
-5.1879751e-12
2.7387405e-09
4.9218942e-12
2.7389074e-09
-4.6403479e-12
2.738749e-09
4.3940206e-12
2.7388984e-09
-4.1524057e-12
2.7387569e-09
3.9316138e-12
2.7388908e-09
-3.7216976e-12
2.7387639e-09
3.5267349e-12
2.7388842e-09
-3.3438604e-12
2.7387701e-09
3.1732065e-12
2.7388785e-09
-3.0142087e-12
2.7387754e-09
2.8658644e-12
2.7388736e-09
-2.7282737e-12
2.73878e-09
2.6002382e-12
2.7388694e-09
-2.4819902e-12
2.7387839e-09
2.3724241e-12
2.7388659e-09
-2.2717507e-12
2.7387873e-09
2.179023e-12
2.7388628e-09
-2.094404e-12
2.73879e-09
2.0171006e-12
2.7388603e-09
-1.9472048e-12
2.7387923e-09
1.8841777e-12
2.7388583e-09
-1.8277634e-12
2.7387941e-09
1.777769e-12
2.7388568e-09
-1.7354012e-12
2.738796e-09
1.6919741e-12
2.738857e-09
-1.6716403e-12
2.7387989e-09
1.640845e-12
2.7388506e-09
-1.5250738e-12
2.7387571e-09
2.0436962e-12
-1.4344081e-12
2.7104381e-09
2.6276763e-08
2.9848273e-09
-2.7384984e-09
2.8916434e-09
2.2263677e-09
2.9002827e-09
-2.3561992e-10
2.9078528e-09
3.5059616e-10
2.9176543e-09
-5.8563959e-11
2.9151692e-09
8.7274681e-11
2.9142417e-09
2.8440707e-11
2.914781e-09
9.8498583e-12
2.9134991e-09
6.4401844e-12
2.9139285e-09
4.817139e-12
2.9138069e-09
-5.1413875e-12
2.9137973e-09
6.4360266e-12
2.9139574e-09
-6.9472651e-12
2.9137809e-09
6.9242932e-12
2.9139591e-09
-6.5893758e-12
2.9137765e-09
6.3825671e-12
2.9139406e-09
-5.9539704e-12
2.9137795e-09
5.6865048e-12
2.9139278e-09
-5.3362837e-12
2.9137856e-09
5.0641005e-12
2.9139186e-09
-4.7733204e-12
2.9137922e-09
4.5203867e-12
2.9139113e-09
-4.2714537e-12
2.9137984e-09
4.0444495e-12
2.9139052e-09
-3.8284114e-12
2.913804e-09
3.6278861e-12
2.9139e-09
-3.4397722e-12
2.9138089e-09
3.2642363e-12
2.9138955e-09
-3.1007221e-12
2.9138132e-09
2.9481372e-12
2.9138916e-09
-2.8066546e-12
2.9138168e-09
2.6749639e-12
2.9138882e-09
-2.5533776e-12
2.91382e-09
2.4406863e-12
2.9138854e-09
-2.3371717e-12
2.9138226e-09
2.2417987e-12
2.913883e-09
-2.1547892e-12
2.9138248e-09
2.075276e-12
2.913881e-09
-2.0033981e-12
2.9138266e-09
1.9385642e-12
2.9138794e-09
-1.8805198e-12
2.913828e-09
1.8290951e-12
2.9138781e-09
-1.7854972e-12
2.9138297e-09
1.7404545e-12
2.9138786e-09
-1.7205435e-12
2.9138325e-09
1.6869388e-12
2.9138732e-09
-1.565815e-12
2.9137944e-09
2.1225188e-12
-1.4590023e-12
2.840854e-09
2.6897534e-08
3.115394e-09
-3.0130384e-09
3.0511757e-09
2.290586e-09
3.0571967e-09
-2.4164092e-10
3.0737801e-09
3.340128e-10
3.0836857e-09
-6.846961e-11
3.0829648e-09
8.7995635e-11
3.0826118e-09
2.879372e-11
3.083239e-09
9.2226823e-12
3.0819577e-09
7.7214222e-12
3.082512e-09
4.2628961e-12
3.0823117e-09
-4.9410996e-12
3.0823688e-09
6.3788993e-12
3.0824764e-09
-7.0549078e-12
3.08235e-09
7.0507205e-12
3.0824817e-09
-6.7210825e-12
3.0823431e-09
6.5211153e-12
3.0824655e-09
-6.0763443e-12
3.0823438e-09
5.8082448e-12
3.0824548e-09
-5.4473523e-12
3.0823478e-09
5.1711508e-12
3.0824475e-09
-4.8730781e-12
3.0823526e-09
4.6153689e-12
3.082442e-09
-4.3608287e-12
3.0823572e-09
4.1292198e-12
3.0824374e-09
-3.9085605e-12
3.0823614e-09
3.7038798e-12
3.0824335e-09
-3.5118374e-12
3.082365e-09
3.3326466e-12
3.0824301e-09
-3.1657561e-12
3.0823682e-09
3.0099952e-12
3.0824272e-09
-2.8656071e-12
3.082371e-09
2.7311791e-12
3.0824247e-09
-2.6071017e-12
3.0823733e-09
2.4920703e-12
3.0824226e-09
-2.3864356e-12
3.0823753e-09
2.2890814e-12
3.0824208e-09
-2.2002874e-12
3.082377e-09
2.1191181e-12
3.0824193e-09
-2.045759e-12
3.0823783e-09
1.9795697e-12
3.0824181e-09
-1.9202994e-12
3.0823794e-09
1.8678058e-12
3.0824171e-09
-1.8232748e-12
3.0823807e-09
1.7769373e-12
3.0824177e-09
-1.7576242e-12
3.0823833e-09
1.7213482e-12
3.0824134e-09
-1.5958562e-12
3.0823494e-09
2.1864578e-12
-1.4724952e-12
2.9989887e-09
2.736017e-08
3.243226e-09
-3.2572757e-09
3.2059669e-09
2.3278451e-09
3.2085806e-09
-2.4425459e-10
3.2336108e-09
3.0898253e-10
3.2436155e-09
-7.8474293e-11
3.2443825e-09
8.7228732e-11
3.2445533e-09
2.8622829e-11
3.2451917e-09
8.5843098e-12
3.2439414e-09
8.9717595e-12
3.2446178e-09
3.586528e-12
3.2443371e-09
-4.6604311e-12
3.2444577e-09
6.2582764e-12
3.2445136e-09
-7.1108296e-12
3.2444359e-09
7.1284114e-12
3.2445223e-09
-6.8074438e-12
3.2444267e-09
6.6166908e-12
3.2445083e-09
-6.1580097e-12
3.244425e-09
5.8915481e-12
3.2444998e-09
-5.5221337e-12
3.244427e-09
5.2439278e-12
3.2444944e-09
-4.9404687e-12
3.24443e-09
4.6797626e-12
3.2444905e-09
-4.4212868e-12
3.2444331e-09
4.1866381e-12
3.2444874e-09
-3.9628203e-12
3.2444359e-09
3.7553548e-12
3.2444848e-09
-3.5606606e-12
3.2444384e-09
3.3790099e-12
3.2444825e-09
-3.209853e-12
3.2444405e-09
3.0519528e-12
3.2444806e-09
-2.905619e-12
3.2444424e-09
2.7693474e-12
3.2444789e-09
-2.6436032e-12
3.244444e-09
2.5269958e-12
3.2444775e-09
-2.4199426e-12
3.2444453e-09
2.3212537e-12
3.2444763e-09
-2.2312647e-12
3.2444464e-09
2.1489783e-12
3.2444753e-09
-2.0746253e-12
3.2444473e-09
2.0075203e-12
3.2444744e-09
-1.9474181e-12
3.244448e-09
1.8942072e-12
3.2444738e-09
-1.8490326e-12
3.244449e-09
1.8017213e-12
3.2444745e-09
-1.7831526e-12
3.2444515e-09
1.7443902e-12
3.2444712e-09
-1.6155099e-12
3.2444221e-09
2.23548e-12
-1.4756197e-12
3.1273248e-09
2.769447e-08
3.3639023e-09
-3.4938532e-09
3.3561155e-09
2.3356319e-09
3.3551329e-09
-2.4327206e-10
3.3875162e-09
2.7659925e-10
3.3974646e-09
-8.8422762e-11
3.3994319e-09
8.5261491e-11
3.4000559e-09
2.7998878e-11
3.4006405e-09
7.9997495e-12
3.3994599e-09
1.01523e-11
3.4002441e-09
2.8023719e-12
3.3998835e-09
-4.2999268e-12
3.400064e-09
6.0778082e-12
3.4000691e-09
-7.1158999e-12
3.4000385e-09
7.1589633e-12
3.4000808e-09
-6.8497802e-12
3.400027e-09
6.670492e-12
3.4000692e-09
-6.2001744e-12
3.4000232e-09
5.9375041e-12
3.4000628e-09
-5.5616966e-12
3.4000233e-09
5.2834211e-12
3.4000593e-09
-4.9764401e-12
3.4000246e-09
4.7144578e-12
3.400057e-09
-4.4536723e-12
3.4000261e-09
4.2175013e-12
3.4000553e-09
-3.9919444e-12
3.4000276e-09
3.7830244e-12
3.4000539e-09
-3.586916e-12
3.4000289e-09
3.4039652e-12
3.4000527e-09
-3.2336176e-12
3.4000301e-09
3.0745839e-12
3.4000517e-09
-2.9272344e-12
3.400031e-09
2.7899861e-12
3.4000508e-09
-2.6633738e-12
3.4000319e-09
2.5459315e-12
3.4000501e-09
-2.4381394e-12
3.4000326e-09
2.3387429e-12
3.4000495e-09
-2.2481302e-12
3.4000332e-09
2.1652495e-12
3.4000489e-09
-2.0903749e-12
3.4000337e-09
2.0227808e-12
3.4000485e-09
-1.962229e-12
3.400034e-09
1.9086415e-12
3.4000481e-09
-1.8631052e-12
3.4000347e-09
1.8151383e-12
3.400049e-09
-1.7974329e-12
3.400037e-09
1.7564125e-12
3.4000465e-09
-1.6251103e-12
3.4000124e-09
2.2696516e-12
-1.4691195e-12
3.2793106e-09
2.7876785e-08
3.4834105e-09
-3.6979531e-09
3.5018372e-09
2.3172052e-09
3.4985333e-09
-2.3996825e-10
3.5356228e-09
2.3950978e-10
3.545183e-09
-9.7982975e-11
3.548108e-09
8.2336564e-11
3.5490941e-09
2.7012761e-11
3.5495898e-09
7.5040843e-12
3.5485269e-09
1.1215142e-11
3.5493869e-09
1.9424067e-12
3.5489513e-09
-3.8643094e-12
3.5491878e-09
5.8413023e-12
3.5491429e-09
-7.0710312e-12
3.5491577e-09
7.1441223e-12
3.5491575e-09
-6.8495307e-12
3.5491441e-09
6.6838374e-12
3.5491481e-09
-6.2041594e-12
3.5491383e-09
5.947307e-12
3.5491438e-09
-5.5672082e-12
3.5491365e-09
5.2907113e-12
3.5491421e-09
-4.9820265e-12
3.5491361e-09
4.7204239e-12
3.5491414e-09
-4.4589052e-12
3.5491362e-09
4.2226769e-12
3.549141e-09
-3.9967539e-12
3.5491364e-09
3.7876645e-12
3.5491408e-09
-3.591338e-12
3.5491366e-09
3.4082078e-12
3.5491407e-09
-3.2377083e-12
3.5491368e-09
3.0785132e-12
3.5491406e-09
-2.931046e-12
3.5491369e-09
2.7936585e-12
3.5491405e-09
-2.6669493e-12
3.549137e-09
2.5493883e-12
3.5491404e-09
-2.4415133e-12
3.5491371e-09
2.3420151e-12
3.5491403e-09
-2.2513301e-12
3.5491372e-09
2.1683605e-12
3.5491403e-09
-2.0934203e-12
3.5491373e-09
2.0257493e-12
3.5491402e-09
-1.9651179e-12
3.5491374e-09
1.9114828e-12
3.5491401e-09
-1.865858e-12
3.5491377e-09
1.8175492e-12
3.5491411e-09
-1.8007997e-12
3.5491397e-09
1.7577895e-12
3.5491396e-09
-1.6250103e-12
3.5491201e-09
2.2891282e-12
-1.4537361e-12
3.4152169e-09
2.7923193e-08
3.5937913e-09
-3.8765276e-09
3.6417609e-09
2.2692357e-09
3.6384549e-09
-2.3666232e-10
3.6778801e-09
2.0008458e-10
3.6867497e-09
-1.0685251e-10
3.6904033e-09
7.8682995e-11
3.6916504e-09
2.5765624e-11
3.6920497e-09
7.1048704e-12
3.6911496e-09
1.2115134e-11
3.6920408e-09
1.0513197e-12
3.6915397e-09
-3.3633111e-12
3.691829e-09
5.5520352e-12
3.6917352e-09
-6.9772081e-12
3.6917936e-09
7.0857339e-12
3.6917522e-09
-6.8082343e-12
3.6917779e-09
6.6581471e-12
3.6917451e-09
-6.1713792e-12
3.6917702e-09
5.9222411e-12
3.6917429e-09
-5.5399173e-12
3.6917666e-09
5.2669567e-12
3.691743e-09
-4.9583341e-12
3.6917647e-09
4.6986989e-12
3.6917438e-09
-4.4379694e-12
3.6917634e-09
4.2030928e-12
3.6917448e-09
-3.9781265e-12
3.6917623e-09
3.7701052e-12
3.6917457e-09
-3.5747115e-12
3.6917614e-09
3.3924814e-12
3.6917466e-09
-3.2228293e-12
3.6917607e-09
3.0644087e-12
3.6917473e-09
-2.9176876e-12
3.69176e-09
2.7809677e-12
3.691748e-09
-2.6549032e-12
3.6917594e-09
2.5379129e-12
3.6917485e-09
-2.4305864e-12
3.691759e-09
2.3315697e-12
3.691749e-09
-2.2413432e-12
3.6917586e-09
2.158771e-12
3.6917493e-09
-2.0842043e-12
3.6917582e-09
2.0168534e-12
3.6917496e-09
-1.9564989e-12
3.691758e-09
1.9031322e-12
3.6917498e-09
-1.8576834e-12
3.691758e-09
1.8093398e-12
3.6917508e-09
-1.7936147e-12
3.6917597e-09
1.7489176e-12
3.6917502e-09
-1.6155799e-12
3.6917452e-09
2.2941468e-12
-1.4301979e-12
3.5497806e-09
2.7835037e-08
3.7032166e-09
-4.0299636e-09
3.7769359e-09
2.1955163e-09
3.7748199e-09
-2.3454633e-10
3.8141707e-09
1.6073384e-10
3.8221218e-09
-1.1480363e-10
3.8263012e-09
7.4503639e-11
3.8277174e-09
2.4349359e-11
3.82803e-09
6.7923487e-12
3.8273243e-09
1.2820805e-11
3.8281996e-09
1.7602471e-13
3.8276473e-09
-2.811057e-12
3.8279874e-09
5.2120045e-12
3.8278457e-09
-6.8355825e-12
3.8279458e-09
6.9856461e-12
3.8278651e-09
-6.7275492e-12
3.8279283e-09
6.5949041e-12
3.8278603e-09
-6.1033383e-12
3.8279189e-09
5.8636593e-12
3.8278601e-09
-5.4811445e-12
3.8279137e-09
5.2133792e-12
3.8278619e-09
-4.9065308e-12
3.8279102e-09
4.6503773e-12
3.8278642e-09
-4.391903e-12
3.8279075e-09
4.1597274e-12
3.8278664e-09
-3.9369881e-12
3.8279053e-09
3.7312215e-12
3.8278685e-09
-3.5378646e-12
3.8279034e-09
3.35757e-12
3.8278703e-09
-3.1897235e-12
3.8279017e-09
3.0329755e-12
3.8278719e-09
-2.8878286e-12
3.8279003e-09
2.7525499e-12
3.8278732e-09
-2.6278412e-12
3.8278991e-09
2.5120832e-12
3.8278744e-09
-2.4059103e-12
3.827898e-09
2.3079347e-12
3.8278753e-09
-2.2186754e-12
3.8278971e-09
2.1369676e-12
3.8278761e-09
-2.0631952e-12
3.8278964e-09
1.9965454e-12
3.8278767e-09
-1.9368102e-12
3.8278959e-09
1.8840149e-12
3.8278772e-09
-1.838997e-12
3.8278956e-09
1.7909177e-12
3.8278782e-09
-1.7762627e-12
3.8278969e-09
1.7302119e-12
3.8278786e-09
-1.5972033e-12
3.8278877e-09
2.2850172e-12
-1.3992127e-12
3.700307e-09
2.7596355e-08
3.8085733e-09
-4.13823e-09
3.9067307e-09
2.0973589e-09
3.9062676e-09
-2.3408326e-10
3.944341e-09
1.2266052e-10
3.9512553e-09
-1.2171798e-10
3.9557806e-09
6.9978357e-11
3.957296e-09
2.2833985e-11
3.9575386e-09
6.549759e-12
3.957043e-09
1.3316404e-11
3.9578596e-09
-6.4057281e-13
3.9572727e-09
-2.2241427e-12
3.9576627e-09
4.8220197e-12
3.9574745e-09
-6.647458e-12
3.9576145e-09
6.8457148e-12
3.9574961e-09
-6.6092235e-12
3.9575954e-09
6.4956449e-12
3.9574936e-09
-6.0016161e-12
3.9575843e-09
5.7729713e-12
3.9574954e-09
-5.39227e-12
3.9575776e-09
5.1312526e-12
3.9574989e-09
-4.8278354e-12
3.9575727e-09
4.5766004e-12
3.9575026e-09
-4.3217892e-12
3.9575687e-09
4.0936012e-12
3.957506e-09
-3.8743044e-12
3.9575653e-09
3.671926e-12
3.9575091e-09
-3.4816613e-12
3.9575624e-09
3.3042919e-12
3.9575119e-09
-3.1391663e-12
3.9575599e-09
2.9849494e-12
3.9575142e-09
-2.8421676e-12
3.9575577e-09
2.7090698e-12
3.9575163e-09
-2.5863961e-12
3.9575559e-09
2.4725028e-12
3.957518e-09
-2.3680616e-12
3.9575543e-09
2.2716623e-12
3.9575195e-09
-2.1838563e-12
3.957553e-09
2.1034593e-12