/*--------------------------------*- C++ -*----------------------------------*\
| =========                 |                                                 |
| \\      /  F ield         | OpenFOAM: The Open Source CFD Toolbox           |
|  \\    /   O peration     | Version:  2312                                  |
|   \\  /    A nd           | Website:  www.openfoam.com                      |
|    \\/     M anipulation  |                                                 |
\*---------------------------------------------------------------------------*/
FoamFile
{
    version     2.0;
    format      ascii;
    arch        "LSB;label=32;scalar=64";
    class       volScalarField;
    location    "8";
    object      T;
}
// * * * * * * * * * * * * * * * * * * * * * * * * * * * * * * * * * * * * * //

dimensions      [0 0 0 1 0 0 0];

internalField   nonuniform List<scalar> 
4000
(
318.76922
317.84077
317.65693
317.60485
317.54471
317.5038
317.46421
317.42927
317.39539
317.36414
317.33282
317.30345
317.27371
317.24542
317.21679
317.1892
317.16139
317.13427
317.10709
317.08032
317.05364
317.02712
317.00084
316.9745
316.94857
316.92237
316.89672
316.87062
316.84522
316.8192
316.79402
316.76806
316.74308
316.71715
316.69235
316.66643
316.64181
316.61589
316.59144
316.5655
316.54121
316.51523
316.49112
316.46507
316.44116
316.41498
316.39134
316.36493
316.34175
316.31444
320.34368
318.84686
318.3519
318.24404
318.11298
318.03917
317.96943
317.91353
317.86086
317.81604
317.77105
317.73187
317.69162
317.6557
317.61876
317.58492
317.55045
317.51804
317.48545
317.45406
317.42297
317.39234
317.36246
317.33239
317.30352
317.27387
317.24587
317.21652
317.18927
317.16015
317.13356
317.1046
317.0786
317.04974
317.0243
316.99549
316.97056
316.94175
316.91733
316.88845
316.86454
316.83553
316.81216
316.78293
316.76017
316.73057
316.70859
316.67829
316.65769
316.62481
321.31549
319.8145
319.04105
318.87873
318.67863
318.57231
318.47288
318.39615
318.32492
318.26656
318.20806
318.15906
318.10842
318.06484
318.0197
317.97959
317.93852
317.9008
317.86287
317.82684
317.7914
317.75663
317.7232
317.68936
317.65762
317.62448
317.59416
317.56155
317.53247
317.50024
317.47226
317.4403
317.41331
317.38151
317.35544
317.32373
317.29852
317.26679
317.24243
317.2106
317.18708
317.15503
317.13241
317.1
317.07839
317.04536
317.02506
316.99088
316.97284
316.93468
321.95875
320.71035
319.71433
319.50277
319.23779
319.10027
318.97226
318.87512
318.7859
318.71414
318.64248
318.58373
318.52296
318.47173
318.41858
318.3722
318.3247
318.28164
318.23849
318.19782
318.15812
318.1192
318.08231
318.04469
318.01013
317.9735
317.94093
317.90503
317.87419
317.83882
317.80951
317.77452
317.74658
317.71184
317.68517
317.65054
317.62508
317.59044
317.56615
317.53137
317.50826
317.47318
317.45131
317.41572
317.39527
317.35883
317.34019
317.30216
317.28661
317.24359
322.40415
321.50511
320.35866
320.10793
319.78518
319.61905
319.46444
319.34781
319.24155
319.15678
319.07256
319.00425
318.93376
318.87499
318.81415
318.76154
318.70786
318.65949
318.61132
318.56601
318.52222
318.47915
318.43892
318.39753
318.36027
318.32013
318.2854
318.24621
318.21368
318.17518
318.14459
318.10658
318.07775
318.04005
318.01284
317.97529
317.94962
317.91206
317.88788
317.85015
317.82747
317.78936
317.76828
317.72952
317.71024
317.67041
317.65341
317.61161
317.59841
317.55102
322.7224
322.18079
320.96054
320.68458
320.31444
320.12379
319.94558
319.81101
319.68917
319.59206
319.49618
319.41866
319.33908
319.27299
319.20491
319.1462
319.08669
319.0331
318.98019
318.93029
318.88263
318.83544
318.79206
318.74691
318.7071
318.66348
318.62672
318.58425
318.55014
318.50851
318.47674
318.43571
318.40607
318.36543
318.33774
318.29728
318.27146
318.23099
318.20697
318.1663
318.14409
318.10297
318.08268
318.04079
318.02267
317.97951
317.96412
317.91866
317.90762
317.85638
322.95488
322.72894
321.50771
321.22274
320.81873
320.60909
320.41135
320.26109
320.12565
320.01725
319.91092
319.82478
319.73694
319.66388
319.58918
319.52461
319.45973
319.40107
319.34379
319.28941
319.23817
319.18695
319.14066
319.09181
319.04966
319.00259
318.96397
318.91825
318.8827
318.83798
318.80515
318.76113
318.73077
318.68721
318.65913
318.61579
318.58987
318.54653
318.52272
318.47914
318.45744
318.41335
318.39388
318.34892
318.33195
318.28554
318.27169
318.22274
318.21361
318.15904
323.12783
323.15172
321.99127
321.71326
321.29129
321.06937
320.85713
320.69416
320.54764
320.42939
320.31415
320.22022
320.12519
320.04567
319.96512
319.89504
319.82539
319.76191
319.70072
319.64203
319.58759
319.53246
319.48357
319.43112
319.38687
319.33645
319.29616
319.24727
319.21045
319.16269
319.12895
319.082
319.05104
319.00461
318.97623
318.93006
318.90413
318.85797
318.83441
318.788
318.76683
318.71985
318.7012
318.65325
318.63741
318.58789
318.57547
318.52327
318.51578
318.45837
323.259
323.45974
322.40632
322.14902
321.72618
321.4993
321.27836
321.1063
320.95166
320.8254
320.70311
320.60248
320.50153
320.41627
320.33081
320.2557
320.18198
320.11403
320.04947
319.98674
319.92954
319.87071
319.81956
319.76368
319.71762
319.66397
319.62227
319.57032
319.53242
319.48173
319.44723
319.39743
319.36601
319.3168
319.28823
319.23931
319.21345
319.16455
319.14132
319.09215
319.07156
319.02179
319.00396
318.95315
318.93839
318.88593
318.87484
318.81965
318.81352
318.7537
323.36083
323.66959
322.75229
322.52589
322.11867
321.89419
321.67084
321.49375
321.33436
321.20227
321.07506
320.96906
320.86367
320.77355
320.68426
320.60475
320.52778
320.4558
320.38853
320.3221
320.26265
320.20038
320.14739
320.08829
320.04076
319.98407
319.94122
319.88637
319.84763
319.79414
319.75907
319.70655
319.67481
319.62294
319.5943
319.54276
319.51704
319.46553
319.44268
319.39089
319.3709
319.31847
319.30147
319.24796
319.23423
319.17903
319.16913
319.11127
319.10621
319.04438
323.44196
323.80089
323.03243
322.8431
322.46567
322.25041
322.03098
321.85318
321.69261
321.55716
321.42737
321.31754
321.20936
321.11543
321.02351
320.94035
320.86105
320.78562
320.71635
320.64665
320.58552
320.52017
320.4658
320.40376
320.35513
320.29563
320.25195
320.19439
320.15506
320.09896
320.06352
320.00846
319.97657
319.92219
319.8936
319.83958
319.81413
319.76015
319.73775
319.68348
319.66413
319.60922
319.59302
319.53702
319.52425
319.46656
319.4577
319.39751
319.39326
319.32977
323.50873
323.87417
323.25315
323.10293
322.76586
322.56565
322.35614
322.18191
322.02378
321.88757
321.75767
321.64572
321.5365
321.43994
321.34671
321.26076
321.18015
321.10191
321.03142
320.95898
320.89679
320.82876
320.77352
320.70889
320.65957
320.59756
320.55338
320.49338
320.45373
320.39524
320.35966
320.30225
320.2704
320.21371
320.18532
320.12901
320.10391
320.04765
320.02576
319.96922
319.95053
319.89334
319.87794
319.81967
319.80779
319.74789
319.73992
319.67774
319.6741
319.60925
323.56527
323.90815
323.42278
323.31012
323.01982
322.83914
322.64475
322.47806
322.32585
322.19151
322.06397
321.95168
321.84324
321.74533
321.65217
321.56438
321.4835
321.4032
321.33234
321.25773
321.19516
321.12494
321.06937
321.00255
320.95299
320.8888
320.84449
320.78234
320.74267
320.68205
320.64658
320.58707
320.55544
320.49667
320.46863
320.41024
320.38562
320.3273
320.30599
320.2474
320.22939
320.17017
320.15554
320.09527
320.0842
320.02241
320.01518
319.95136
319.94814
319.88221
323.61458
323.91866
323.55046
323.47111
323.2299
323.07165
322.89644
322.7407
322.59752
322.46757
322.34476
322.23391
322.12806
322.03013
321.93841
321.8498
321.76975
321.68819
321.61782
321.54169
321.47944
321.40755
321.35222
321.28366
321.23432
321.16835
321.12428
321.06032
321.02095
320.95852
320.9234
320.86207
320.83088
320.77028
320.74275
320.68255
320.6585
320.59837
320.57772
320.51733
320.50004
320.43905
320.42517
320.36319
320.35287
320.28949
320.28288
320.21776
320.21484
320.14808
323.65846
323.91744
323.64518
323.59328
323.39994
323.26535
323.11204
322.96988
322.83834
322.715
322.59908
322.49138
322.38982
322.29319
322.20426
322.11588
322.03774
321.95575
321.88674
321.80979
321.74855
321.67558
321.62106
321.55125
321.50261
321.43529
321.39186
321.32647
321.28772
321.22381
321.18931
321.12648
321.09592
321.0338
321.00693
320.94521
320.92186
320.8602
320.84027
320.77838
320.76183
320.69936
320.68622
320.62284
320.61318
320.54857
320.54246
320.47638
320.47366
320.4063
323.69821
323.91262
323.71509
323.68421
323.53482
323.42358
323.29344
323.16662
323.04868
322.93378
322.82659
322.72358
322.62785
322.53377
322.4489
322.36177
322.28657
322.205
322.13819
322.06112
322.00161
321.92816
321.87503
321.80449
321.75703
321.68881
321.64641
321.58001
321.54219
321.47719
321.44357
321.37958
321.34986
321.28656
321.26051
321.19757
321.17503
321.11216
321.09302
321.02993
321.01414
320.95052
320.93809
320.87365
320.8646
320.79908
320.7934
320.72668
320.7241
320.65638
323.73448
323.90879
323.76713
323.75108
323.63996
323.55048
323.44345
323.33278
323.22967
323.12458
323.02755
322.93052
322.84194
322.75154
322.67187
322.58696
322.51564
322.43533
322.37152
322.29504
322.23791
322.16459
322.11342
322.04269
321.99687
321.92823
321.88725
321.82026
321.78371
321.718
321.68552
321.62074
321.59208
321.52793
321.50286
321.43905
321.41743
321.35367
321.3354
321.27143
321.25644
321.192
321.18027
321.11511
321.10661
321.04053
321.0352
320.96815
320.96568
320.89784
323.76783
323.90821
323.80678
323.80019
323.72084
323.65061
323.56549
323.47092
323.38315
323.28871
323.20282
323.11276
323.03238
322.94662
322.8731
322.79127
322.72469
322.64639
322.58631
322.5111
322.45698
322.3844
322.3357
322.26532
322.22158
322.15301
322.11382
322.0467
322.0117
321.9457
321.91461
321.84944
321.82202
321.75739
321.73346
321.66913
321.64854
321.58424
321.5669
321.50241
321.48824
321.42332
321.41228
321.34674
321.33876
321.27246
321.26743
321.20035
321.19797
321.13025
323.79852
323.91134
323.83819
323.83675
323.78263
323.72862
323.66337
323.58407
323.51148
323.42799
323.35376
323.27134
323.19987
323.11952
323.0529
322.9749
322.91375
322.83817
322.78244
322.70914
322.65856
322.5873
322.54155
322.47205
322.4308
322.36278
322.32572
322.25891
322.22576
322.15989
322.13042
322.06524
322.03926
321.97453
321.95187
321.88738
321.86792
321.80345
321.7871
321.72243
321.70911
321.64407
321.63371
321.56813
321.56066
321.49445
321.4897
321.42289
321.4206
321.35324
323.82682
323.91777
323.86426
323.86484
323.82994
323.78893
323.74099
323.67555
323.6174
323.54467
323.48215
323.40771
323.34556
323.27113
323.21194
323.13837
323.08318
323.01091
322.96004
322.88922
322.84265
322.77325
322.73085
322.66274
322.62433
322.55733
322.5227
322.45664
322.42559
322.36026
322.33263
322.26784
322.24346
322.17902
322.15777
322.09348
322.07525
322.01095
321.99565
321.93116
321.91872
321.85389
321.84423
321.77895
321.77196
321.70617
321.7017
321.63542
321.63323
321.56648
323.85292
323.92666
323.8869
323.88741
323.86659
323.83551
323.80209
323.74872
323.70382
323.64125
323.5901
323.52365
323.4709
323.4027
323.35121
323.28249
323.23363
323.16515
323.11952
323.05167
323.00948
322.9424
322.9037
322.83742
322.80215
322.73662
322.70468
322.63979
322.61108
322.54669
322.52108
322.45706
322.43444
322.37064
322.35092
322.2872
322.27029
322.20651
322.19232
322.12835
322.11682
322.05255
322.04359
321.97892
321.97243
321.90734
321.90315
321.83768
321.83561
321.76971
323.87699
323.93711
323.9073
323.9065
323.89567
323.87176
323.8501
323.80683
323.77368
323.72037
323.6799
323.62116
323.57761
323.51571
323.47198
323.40837
323.36602
323.30167
323.26152
323.19702
323.15947
323.09513
323.06037
322.99635
322.96445
322.90078
322.87175
322.80841
322.78222
322.71915
322.69572
322.63283
322.6121
322.54932
322.53122
322.46842
322.45289
322.38998
322.37695
322.31383
322.30324
322.23984
322.2316
322.16785
322.16186
322.09777
322.09388
322.02946
322.02752
321.96272
323.89923
323.94841
323.92611
323.92344
323.91946
323.90045
323.88799
323.85285
323.8298
323.78464
323.7539
323.70237
323.66757
323.61184
323.5757
323.51729
323.48146
323.42147
323.38689
323.32604
323.29327
323.232
323.20135
323.13992
323.11157
323.05011
323.02415
322.96271
322.93917
322.87777
322.85664
322.79524
322.7765
322.71505
322.69866
322.63711
322.62302
322.5613
322.54948
322.48753
322.4779
322.41567
322.40817
322.34564
322.34016
322.27732
322.27374
322.21063
322.20884
322.14537
323.91979
323.96
323.94367
323.939
323.93963
323.92372
323.91824
323.88939
323.87477
323.83653
323.81444
323.76945
323.74273
323.69287
323.66398
323.61071
323.58124
323.5257
323.49667
323.43965
323.4117
323.35374
323.32728
323.26872
323.24401
323.18505
323.16226
323.10303
323.08224
323.02282
323.00407
322.94447
322.92778
322.86799
322.85336
322.79336
322.78077
322.72053
322.70994
322.64945
322.64081
322.58004
322.57329
322.51224
322.50728
322.44596
322.44271
322.38113
322.3795
322.31759
323.93885
323.97154
323.96015
323.9536
323.9573
323.94317
323.94283
323.91865
323.91086
323.87834
323.86369
323.82447
323.80505
323.76062
323.73848
323.69016
323.66676
323.61565
323.59201
323.53892
323.51572
323.46123
323.43894
323.38345
323.36241
323.3062
323.2866
323.22985
323.21186
323.15467
323.13836
323.08082
323.06624
323.00837
322.99554
322.93737
322.92629
322.86782
322.85848
322.79971
322.79207
322.73302
322.72703
322.6677
322.66328
322.6037
322.60079
322.54096
322.5395
322.47936
323.95653
323.9828
323.97561
323.96744
323.9732
323.95993
323.96329
323.94242
323.94003
323.91206
323.90368
323.8694
323.8564
323.81689
323.80088
323.75722
323.73949
323.69267
323.67416
323.62498
323.60637
323.55544
323.53723
323.48496
323.46753
323.41424
323.39783
323.34375
323.32855
323.27383
323.25996
323.20471
323.19224
323.13654
323.12552
323.06941
323.05986
323.00339
322.99531
322.9385
322.93187
322.87476
322.86954
322.81215
322.80829
322.75064
322.74809
322.69021
322.68893
322.63076
323.97299
323.99368
323.99009
323.98059
323.98776
323.97477
323.98072
323.96211
323.96385
323.93941
323.93616
323.90603
323.89853
323.86337
323.85281
323.81344
323.80088
323.75816
323.74442
323.69908
323.68481
323.63743
323.62314
323.57415
323.56022
323.50997
323.49667
323.44541
323.43295
323.38087
323.3694
323.31665
323.30626
323.25293
323.2437
323.18987
323.18183
323.12756
323.12074
323.06609
323.06047
323.00549
323.00105
322.94578
322.94248
322.88696
322.88477
322.82901
322.82791
322.77188
323.98832
324.00414
324.00362
323.99306
324.00123
323.98819
323.99592
323.97877
323.9836
323.9618
323.96266
323.93591
323.93303
323.90162
323.89581
323.86031
323.85237
323.81347
323.80409
323.76242
323.7522
323.7083
323.6977
323.65201
323.6414
323.59425
323.58393
323.53559
323.52579
323.47647
323.46734
323.41721
323.40887
323.35805
323.35058
323.29918
323.29264
323.24074
323.23515
323.18283
323.1782
323.12553
323.12185
323.06887
323.06613
323.01289
323.01106
322.95758
322.95666
322.90292
324.00264
324.01417
324.01623
324.00485
324.01375
324.0005
324.00943
323.99316
324.00024
323.98038
323.98442
323.96038
323.96128
323.93306
323.93127
323.89922
323.89531
323.85992
323.85444
323.81625
323.8097
323.76918
323.76198
323.71953
323.71204
323.66799
323.66049
323.61511
323.60783
323.56135
323.55445
323.50706
323.50067
323.45249
323.44671
323.39788
323.39277
323.34338
323.33899
323.28913
323.28548
323.23523
323.23231
323.18174
323.17956
323.12871
323.12726
323.07617
323.07544
323.02411
324.01602
324.02377
324.02796
324.01595
324.0254
324.01187
324.0216
324.00584
324.0145
323.99603
324.00248
323.98057
323.98447
323.95893
323.96047
323.93142
323.93096
323.89875
323.89669
323.86173
323.85846
323.82115
323.81704
323.77774
323.7731
323.73211
323.72722
323.68481
323.67988
323.63628
323.63149
323.58688
323.58234
323.53688
323.53271
323.48652
323.48279
323.436
323.43276
323.38547
323.38274
323.33503
323.33284
323.28479
323.28314
323.23479
323.2337
323.18511
323.18455
323.13573
324.02854
324.03294
324.03884
324.02635
324.0362
324.0224
324.03265
324.01717
324.02691
324.00941
324.01762
323.99737
324.0036
323.98026
323.9845
323.95805
323.96047
323.9311
323.93196
323.89997
323.89958
323.86528
323.86392
323.82762
323.82557
323.78755
323.78504
323.74556
323.7428
323.70205
323.69921
323.6574
323.6546
323.61188
323.60922
323.56573
323.5633
323.51916
323.51701
323.47234
323.47051
323.42539
323.4239
323.37843
323.3773
323.33152
323.33077
323.28475
323.28437
323.23813
324.04026
324.04168
324.04891
324.03604
324.04617
324.03214
324.04271
324.02739
324.03782
324.02102
324.03046
324.0115
324.01947
323.99794
324.0043
323.98007
323.98484
323.95799
323.9613
323.932
323.93406
323.90257
323.9036
323.87016
323.87038
323.83522
323.83484
323.7982
323.7974
323.75947
323.7584
323.71937
323.71816
323.67818
323.67692
323.63614
323.63491
323.59346
323.59232
323.5503
323.5493
323.50682
323.50599
323.46314
323.4625
323.41934
323.41891
323.3755
323.37528
323.33166
324.05121
324.04998
324.05819
324.04502
324.05532
324.04112
324.05186
324.03665
324.04749
324.0312
324.04147
324.02351
324.03274
324.01269
324.02066
323.99833
324.00495
323.9803
323.98561
323.95875
323.96286
323.93394
323.93702
323.90624
323.90844
323.87599
323.87748
323.84357
323.84451
323.80932
323.80984
323.77354
323.77376
323.73649
323.73649
323.69841
323.69828
323.65949
323.65929
323.61993
323.6197
323.57986
323.57964
323.53942
323.53924
323.4987
323.49857
323.45779
323.45772
323.41674
324.06142
324.05781
324.06668
324.05327
324.06364
324.04933
324.06014
324.04503
324.05608
324.04019
324.05098
324.03382
324.04391
324.02509
324.03423
324.0135
324.02154
323.99882
324.00572
323.98103
323.98681
323.96025
323.96502
323.93671
323.94058
323.91069
323.91379
323.88248
323.88493
323.85238
323.85429
323.82063
323.82212
323.7875
323.78863
323.75319
323.75404
323.7179
323.71853
323.6818
323.68227
323.64505
323.64539
323.60778
323.60802
323.57009
323.57024
323.53207
323.53215
323.4938
324.0709
324.06512
324.07436
324.06077
324.07112
324.05678
324.06758
324.0526
324.06371
324.04817
324.05923
324.04273
324.05337
324.03557
324.04552
324.02618
324.03525
324.01422
324.02232
323.99956
324.00667
323.98223
323.98838
323.96235
323.9676
323.94009
323.94454
323.91569
323.91942
323.88937
323.89248
323.86136
323.86395
323.83189
323.83401
323.80113
323.80286
323.76928
323.77067
323.73651
323.7376
323.70296
323.70379
323.66875
323.66937
323.63401
323.63442
323.59883
323.59903
323.56328
324.0796
324.07183
324.08122
324.0675
324.07776
324.06346
324.07418
324.05939
324.07046
324.05525
324.06641
324.05049
324.06142
324.0445
324.05496
324.0368
324.0466
324.02704
324.03601
324.01498
324.02308
324.00057
324.00778
323.98384
323.99019
323.96489
323.97043
323.94388
323.94868
323.92099
323.92511
323.89641
323.89992
323.87031
323.87327
323.84287
323.84534
323.81426
323.81629
323.78463
323.78627
323.75413
323.7554
323.72287
323.72381
323.69098
323.6916
323.65854
323.65885
323.62563
324.08739
324.07785
324.0872
324.07344
324.08356
324.06937
324.07997
324.06541
324.07637
324.06152
324.07263
324.05725
324.06828
324.05214
324.06288
324.04576
324.05599
324.03773
324.0473
324.0278
324.03661
324.01584
324.02384
324.0018
324.00899
323.98573
323.99212
323.96771
323.97335
323.94789
323.95282
323.9264
323.93068
323.90339
323.90706
323.87902
323.88212
323.85342
323.856
323.82674
323.82884
323.79911
323.80076
323.77066
323.77188
323.74149
323.7423
323.71168
323.71209
323.68133
324.09407
324.08305
324.09226
324.07856
324.0885
324.07452
324.08495
324.0707
324.08148
324.06702
324.078
324.06314
324.07413
324.0587
324.06952
324.05333
324.06379
324.04668
324.0566
324.03847
324.04774
324.02852
324.03708
324.01676
324.02456
324.00316
324.01019
323.98775
323.99404
323.97064
323.97621
323.95193
323.95681
323.93172
323.93594
323.91014
323.91375
323.88732
323.89034
323.86338
323.86586
323.83845
323.8404
323.81263
323.81409
323.78604
323.78701
323.75875
323.75923
323.73084
324.09937
324.08732
324.09638
324.08284
324.09262
324.07892
324.08916
324.07528
324.08585
324.07181
324.08259
324.06825
324.0791
324.06432
324.07509
324.05974
324.07024
324.05417
324.06425
324.04734
324.05687
324.03905
324.04794
324.02918
324.03738
324.01768
324.02516
324.00453
324.01128
323.98979
323.99582
323.97352
323.97886
323.95582
323.96048
323.93678
323.94078
323.91649
323.91986
323.89507
323.89785
323.87264
323.87484
323.84929
323.85093
323.82511
323.82621
323.80019
323.80074
323.77461
324.10311
324.0906
324.09955
324.08632
324.09592
324.08259
324.09264
324.07918
324.08951
324.07592
324.08646
324.07265
324.08328
324.06914
324.07974
324.06517
324.07558
324.06044
324.07052
324.05471
324.06432
324.04776
324.05681
324.03946
324.04788
324.02971
324.03746
324.01849
324.02554
324.0058
324.01215
323.99168
323.99733
323.9762
323.98116
323.95942
323.96371
323.94142
323.94506
323.92231
323.92531
323.90217
323.90456
323.88109
323.88288
323.85917
323.86037
323.83648
323.83707
323.81308
324.10527
324.0929
324.10182
324.08902
324.09847
324.08558
324.09541
324.08243
324.0925
324.07942
324.08967
324.07641
324.08676
324.07325
324.08359
324.06975
324.07996
324.06569
324.07563
324.06082
324.07036
324.05494
324.064
324.04792
324.0564
324.03963
324.04749
324.03002
324.03722
324.01908
324.02561
324.00683
324.01267
323.99329
323.99845
323.97852
323.98299
323.96258
323.96638
323.94554
323.9487
323.92749
323.93001
323.90851
323.91039
323.88866
323.88993
323.86803
323.86867
323.84668
324.10606
324.09432
324.10327
324.09101
324.10031
324.08794
324.09755
324.08508
324.09488
324.08233
324.09227
324.07958
324.0896
324.07671
324.08674
324.07361
324.08353
324.07006
324.07976
324.06586
324.07522
324.06083
324.06976
324.05483
324.06324
324.04773
324.05557
324.03947
324.04669
324.03001
324.03659
324.01935
324.02527
324.0075
324.01274
323.99449
323.99906
323.98036
323.98426
323.96518
323.96843
323.94902
323.95161
323.93194
323.93389
323.914
323.91531
323.89528
323.89593
323.87582
324.10587
324.09502
324.10403
324.09238
324.10154
324.08972
324.0991
324.08718
324.0967
324.0847
324.09432
324.0822
324.09188
324.0796
324.08928
324.07681
324.08639
324.07366
324.08304
324.06998
324.07907
324.06561
324.07431
324.06041
324.06865
324.05427
324.06198
324.04711
324.05425
324.03888
324.04541
324.02957
324.03546
324.01916
324.02441
324.00768
324.01227
323.99515
323.99908
323.98162
323.98489
323.96715
323.96977
323.95178
323.95375
323.93558
323.9369
323.9186
323.91926
323.90088
324.10512
324.0952
324.10424
324.09322
324.10224
324.091
324.10014
324.0888
324.09802
324.08659
324.09587
324.08433
324.09364
324.08197
324.09125
324.07942
324.08861
324.07658
324.08559
324.07329
324.08203
324.06942
324.07781
324.06485
324.07282
324.05947
324.06695
324.05319
324.06014
324.04597
324.05235
324.03777
324.04356
324.02859
324.03375
324.01842
324.02295
324.00728
324.01117
323.99519
323.99844
323.98221
323.98482
323.96839
323.97035
323.95375
323.95507
323.93835
323.93901
323.92223
324.10413
324.09505
324.10403
324.09365
324.10249
324.09185
324.10074
324.08997
324.09889
324.08804
324.09697
324.08601
324.09493
324.08385
324.09272
324.08151
324.09027
324.07889
324.08747
324.07588
324.08422
324.07238
324.08039
324.06828
324.0759
324.06347
324.07065
324.05789
324.06458
324.05148
324.05764
324.04421
324.04981
324.03604
324.04106
324.02698
324.03139
324.01703
324.02083
324.00621
324.00938
323.99454
323.9971
323.98208
323.984
323.96884
323.97013
323.95487
323.95552
323.94021
324.10308
324.09471
324.10352
324.09376
324.10239
324.09235
324.10096
324.09078
324.09937
324.08909
324.09766
324.08728
324.09579
324.08529
324.09372
324.0831
324.09141
324.08064
324.08876
324.07782
324.08571
324.07457
324.08216
324.0708
324.07803
324.06642
324.07324
324.06137
324.06774
324.0556
324.06148
324.04906
324.05442
324.04174
324.04655
324.03361
324.03785
324.02467
324.02833
324.01493
324.018
324.00441
324.00688
323.99315
323.99501
323.98116
323.98241
323.96847
323.9691
323.95511
324.10203
324.09426
324.10281
324.09363
324.10201
324.09255
324.10086
324.09126
324.09952
324.08981
324.098
324.08817
324.09627
324.08632
324.0943
324.08423
324.09206
324.08186
324.08949
324.07915
324.08655
324.07605
324.08317
324.07249
324.07928
324.06841
324.07483
324.06375
324.06975
324.05847
324.06402
324.05252
324.05759
324.04587
324.05043
324.0385
324.04253
324.03041
324.03389
324.0216
324.02452
324.01207
324.01443
324.00185
324.00363
323.99096
323.99216
323.97941
323.98001
323.96723
324.10101
324.09376
324.10197
324.09332
324.10142
324.09252
324.10052
324.09147
324.09938
324.09022
324.09802
324.08873
324.09638
324.08696
324.09446
324.08492
324.09224
324.08258
324.08969
324.0799
324.08678
324.07686
324.08348
324.07342
324.07973
324.06952
324.07549
324.06513
324.07072
324.0602
324.06538
324.05469
324.05943
324.04858
324.05286
324.04184
324.04562
324.03445
324.03773
324.02642
324.02917
324.01774
324.01996
324.00843
324.01011
323.9985
323.99963
323.98796
323.98852
323.97682
324.1
324.09324
324.10104
324.0929
324.10067
324.09231
324.09997
324.09146
324.099
324.09036
324.09774
324.08896
324.09616
324.08723
324.09424
324.08517
324.09198
324.08279
324.08937
324.08008
324.08643
324.07702
324.08312
324.07361
324.07942
324.0698
324.0753
324.06557
324.07073
324.06088
324.06567
324.0557
324.06009
324.05
324.05396
324.04376
324.04727
324.03694
324.03999
324.02956
324.03213
324.0216
324.02367
324.01307
324.01464
324.00398
324.00504
323.99433
323.99486
323.98412
324.09898
324.09271
324.10006
324.09239
324.09981
324.09196
324.09926
324.09126
324.0984
324.09026
324.0972
324.08888
324.0956
324.08712
324.09361
324.08499
324.09125
324.0825
324.08853
324.07968
324.08548
324.07654
324.0821
324.07308
324.07837
324.06928
324.07429
324.06512
324.06983
324.06058
324.06495
324.05563
324.05964
324.05024
324.05387
324.04438
324.0476
324.03803
324.04083
324.03118
324.03354
324.02383
324.02574
324.01597
324.01742
324.0076
324.00858
323.99873
323.99922
323.98934
324.09795
324.09217
324.09904
324.09182
324.09886
324.0915
324.09842
324.09089
324.09762
324.08992
324.0964
324.0885
324.09472
324.08663
324.09258
324.08434
324.09005
324.08168
324.08715
324.07869
324.08393
324.0754
324.08041
324.07183
324.0766
324.06797
324.07249
324.06381
324.06806
324.05934
324.06329
324.05453
324.05816
324.04936
324.05265
324.04379
324.04672
324.03782
324.04036
324.03141
324.03356
324.02456
324.02631
324.01727
324.01859
324.00953
324.01042
324.00133
324.00178
323.99267
324.09689
324.09163
324.09799
324.0912
324.09786
324.09094
324.09747
324.09036
324.09666
324.08935
324.09534
324.0878
324.09348
324.08574
324.09113
324.08322
324.08835
324.08032
324.08521
324.0771
324.08177
324.0736
324.07806
324.06986
324.0741
324.06588
324.0699
324.06167
324.06544
324.0572
324.06072
324.05247
324.05571
324.04744
324.05038
324.04209
324.04472
324.0364
324.03869
324.03035
324.03229
324.02393
324.0255
324.01712
324.01831
324.00991
324.01072
324.0023
324.00271
323.99428
324.09581
324.09108
324.0969
324.09054
324.0968
324.09031
324.09641
324.08969
324.0955
324.08853
324.09398
324.08675
324.09186
324.08441
324.0892
324.08158
324.08611
324.07837
324.08267
324.07486
324.07896
324.07111
324.07501
324.06715
324.07087
324.06301
324.06653
324.05869
324.062
324.05418
324.05727
324.04947
324.05232
324.04453
324.04712
324.03934
324.04166
324.03387
324.03589
324.02811
324.02982
324.02203
324.02342
324.01563
324.01669
324.00888
324.0096
324.00179
324.00215
323.99432
324.09468
324.09052
324.09579
324.08984
324.0957
324.0896
324.09525
324.08885
324.09414
324.08743
324.09231
324.08532
324.08981
324.08259
324.08677
324.07937
324.08329
324.07579
324.0795
324.07194
324.07546
324.06788
324.07124
324.06368
324.06687
324.05934
324.06237
324.05488
324.05774
324.05029
324.05297
324.04556
324.04803
324.04066
324.04292
324.03558
324.0376
324.03028
324.03205
324.02475
324.02625
324.01896
324.02018
324.0129
324.01383
324.00656
324.00718
323.9999
324.00022
323.99293
324.09352
324.08995
324.09465
324.08912
324.09455
324.08879
324.09396
324.08781
324.09253
324.08601
324.09026
324.08343
324.08728
324.08022
324.08376
324.07654
324.07983
324.07252
324.07563
324.06829
324.07124
324.0639
324.06672
324.05942
324.0621
324.05486
324.05741
324.05023
324.05265
324.04554
324.04781
324.04076
324.04287
324.03588
324.0378
324.03086
324.03259
324.02569
324.02721
324.02035
324.02164
324.0148
324.01585
324.00903
324.00984
324.00303
324.00357
323.99677
323.99704
323.99023
324.09229
324.08938
324.09347
324.08837
324.09335
324.08788
324.0925
324.08651
324.0906
324.08419
324.08776
324.08102
324.08419
324.07723
324.0801
324.07301
324.07567
324.06851
324.07102
324.06386
324.06625
324.05912
324.06141
324.05434
324.05653
324.04955
324.05164
324.04474
324.04674
324.03993
324.04181
324.03509
324.03684
324.03019
324.0318
324.02523
324.02668
324.02016
324.02143
324.01496
324.01605
324.00962
324.01051
324.00411
324.00479
323.9984
323.99886
323.99248
323.99271
323.98632
324.09101
324.08879
324.09226
324.08758
324.09206
324.08681
324.09082
324.08489
324.08827
324.08187
324.08471
324.07799
324.08044
324.07353
324.07572
324.06871
324.07074
324.0637
324.06561
324.05861
324.06044
324.0535
324.05527
324.04842
324.05014
324.04339
324.04505
324.03841
324.04
324.03347
324.03498
324.02855
324.02997
324.02364
324.02495
324.0187
324.01989
324.01372
324.01477
324.00865
324.00955
324.00348
324.00422
323.99819
323.99876
323.99274
323.99313
323.98713
323.98732
323.98131
324.08965
324.08821
324.091
324.08674
324.09065
324.08552
324.08882
324.08284
324.08544
324.07896
324.08101
324.07425
324.07594
324.06904
324.07053
324.06357
324.06496
324.05802
324.05935
324.05248
324.05378
324.04701
324.04829
324.04164
324.0429
324.03637
324.03762
324.03122
324.03243
324.02616
324.02733
324.02117
324.02228
324.01624
324.01728
324.01133
324.01227
324.00641
324.00725
324.00146
324.00218
323.99645
323.99704
323.99135
323.99181
323.98614
323.98645
323.9808
323.98095
323.97529
324.0882
324.08765
324.0897
324.08583
324.08905
324.08392
324.0864
324.08024
324.08198
324.07533
324.07654
324.06967
324.0706
324.06365
324.06446
324.05752
324.05828
324.05142
324.05219
324.04543
324.04623
324.03961
324.04043
324.03396
324.0348
324.02849
324.02934
324.02317
324.02404
324.01801
324.01886
324.01297
324.01379
324.00802
324.00879
324.00313
324.00385
323.99828
323.99892
323.99343
323.99399
323.98857
323.98903
323.98365