/*--------------------------------*- C++ -*----------------------------------*\
| =========                 |                                                 |
| \\      /  F ield         | OpenFOAM: The Open Source CFD Toolbox           |
|  \\    /   O peration     | Version:  2312                                  |
|   \\  /    A nd           | Website:  www.openfoam.com                      |
|    \\/     M anipulation  |                                                 |
\*---------------------------------------------------------------------------*/
FoamFile
{
    version     2.0;
    format      ascii;
    arch        "LSB;label=32;scalar=64";
    class       volVectorField;
    location    "8";
    object      U;
}
// * * * * * * * * * * * * * * * * * * * * * * * * * * * * * * * * * * * * * //

dimensions      [0 1 -1 0 0 0 0];

internalField   nonuniform List<vector> 
4000
(
(0.0026740202 0.00059502185 0)
(0.0063740799 -1.4850607e-05 0)
(0.0031593069 -3.6540499e-07 0)
(0.0038589528 -7.0155175e-07 0)
(0.0036062584 9.6229381e-08 0)
(0.0035832579 -1.9918942e-07 0)
(0.0035914172 1.020225e-07 0)
(0.0035351244 -1.6608305e-07 0)
(0.0035643986 1.1895967e-07 0)
(0.0035306867 -1.2458035e-07 0)
(0.0035560329 1.1052716e-07 0)
(0.0035322858 -1.0497724e-07 0)
(0.0035530845 9.8001584e-08 0)
(0.0035338274 -9.2305666e-08 0)
(0.0035515655 8.6901057e-08 0)
(0.0035349457 -8.2049839e-08 0)
(0.0035504773 7.7413377e-08 0)
(0.0035358669 -7.3165644e-08 0)
(0.0035495749 6.911631e-08 0)
(0.0035366824 -6.5345003e-08 0)
(0.0035487874 6.1779091e-08 0)
(0.0035374142 -5.8432648e-08 0)
(0.0035480875 5.5283551e-08 0)
(0.0035380726 -5.2322018e-08 0)
(0.0035474605 4.954346e-08 0)
(0.0035386658 -4.6931478e-08 0)
(0.0035468964 4.4487404e-08 0)
(0.003539201 -4.219351e-08 0)
(0.0035463873 4.005345e-08 0)
(0.0035396847 -3.8049477e-08 0)
(0.0035459266 3.6186479e-08 0)
(0.0035401229 -3.4447081e-08 0)
(0.0035455084 3.28369e-08 0)
(0.0035405213 -3.1339305e-08 0)
(0.0035451274 2.9960198e-08 0)
(0.003540885 -2.8684132e-08 0)
(0.0035447784 2.7516872e-08 0)
(0.0035412191 -2.6444566e-08 0)
(0.0035444568 2.5472511e-08 0)
(0.0035415282 -2.4588776e-08 0)
(0.0035441579 2.3797877e-08 0)
(0.0035418167 -2.3090297e-08 0)
(0.0035438777 2.2469415e-08 0)
(0.0035420892 -2.1927178e-08 0)
(0.003543613 2.147371e-08 0)
(0.0035423503 -2.1078635e-08 0)
(0.0035433548 2.0804572e-08 0)
(0.0035425704 -2.0604673e-08 0)
(0.0035429832 2.011311e-08 0)
(0.0035424652 -2.2194977e-08 0)
(0.0065206989 0.0014068005 0)
(0.016730431 -5.0844286e-07 0)
(0.0099546871 3.3385929e-05 0)
(0.011037916 -5.3259085e-06 0)
(0.010477717 4.0527281e-06 0)
(0.01037926 -3.4976198e-07 0)
(0.010426394 1.1366856e-06 0)
(0.0102593 -1.3276099e-07 0)
(0.010347043 5.228579e-07 0)
(0.010248021 -3.2612658e-07 0)
(0.01032315 3.8986635e-07 0)
(0.010252929 -3.4859073e-07 0)
(0.010314923 3.446833e-07 0)
(0.010257478 -3.2444461e-07 0)
(0.010310588 3.1019368e-07 0)
(0.010260792 -2.9242826e-07 0)
(0.010307385 2.7750672e-07 0)
(0.01026355 -2.617193e-07 0)
(0.010304689 2.4776913e-07 0)
(0.010266005 -2.3396788e-07 0)
(0.010302322 2.2136193e-07 0)
(0.010268212 -2.0925064e-07 0)
(0.010300215 1.9801098e-07 0)
(0.010270199 -1.8735246e-07 0)
(0.010298325 1.7740211e-07 0)
(0.010271989 -1.6802822e-07 0)
(0.010296624 1.592685e-07 0)
(0.010273604 -1.5104987e-07 0)
(0.010295089 1.4338108e-07 0)
(0.010275064 -1.3620947e-07 0)
(0.0102937 1.2953689e-07 0)
(0.010276386 -1.2331761e-07 0)
(0.01029244 1.1755376e-07 0)
(0.010277589 -1.1220283e-07 0)
(0.01029129 1.0726864e-07 0)
(0.010278688 -1.0271177e-07 0)
(0.010290237 9.8537242e-08 0)
(0.010279699 -9.4709536e-08 0)
(0.010289264 9.1234066e-08 0)
(0.010280636 -8.8079638e-08 0)
(0.010288359 8.5252213e-08 0)
(0.010281512 -8.2725363e-08 0)
(0.010287507 8.0498385e-08 0)
(0.010282342 -7.8579347e-08 0)
(0.010286701 7.6894571e-08 0)
(0.01028314 -7.5515603e-08 0)
(0.010285922 7.4793917e-08 0)
(0.010283862 -7.2158706e-08 0)
(0.010284911 7.7557322e-08 0)
(0.010283747 -7.01018e-08 0)
(0.012646662 0.0028970716 0)
(0.025831036 -1.9903175e-05 0)
(0.016500305 7.5345648e-05 0)
(0.0180283 -9.1440964e-06 0)
(0.017152923 9.6551379e-06 0)
(0.016988158 -4.5772079e-07 0)
(0.017083193 2.5217335e-06 0)
(0.016804768 6.4316089e-08 0)
(0.016956805 1.0092235e-06 0)
(0.016790215 -5.1731577e-07 0)
(0.016918292 7.0632055e-07 0)
(0.016799307 -6.2083683e-07 0)
(0.016904966 6.2579444e-07 0)
(0.016807115 -5.8995973e-07 0)
(0.016897773 5.6667727e-07 0)
(0.016812758 -5.3408341e-07 0)
(0.016892362 5.0775897e-07 0)
(0.016817468 -4.7851577e-07 0)
(0.016887769 4.5333213e-07 0)
(0.016821669 -4.278971e-07 0)
(0.016883726 4.0494016e-07 0)
(0.016825449 -3.8270178e-07 0)
(0.016880119 3.621662e-07 0)
(0.016828852 -3.4262987e-07 0)
(0.016876884 3.2442874e-07 0)
(0.016831918 -3.0726187e-07 0)
(0.016873972 2.9123296e-07 0)
(0.016834683 -2.7618946e-07 0)
(0.016871345 2.6215582e-07 0)
(0.016837182 -2.4903345e-07 0)
(0.016868969 2.3682287e-07 0)
(0.016839446 -2.2544585e-07 0)
(0.016866811 2.1489805e-07 0)
(0.016841504 -2.0511085e-07 0)
(0.016864845 1.9608065e-07 0)
(0.016843386 -1.877459e-07 0)
(0.016863041 1.8010462e-07 0)
(0.016845118 -1.731024e-07 0)
(0.016861376 1.6673852e-07 0)
(0.016846723 -1.609653e-07 0)
(0.016859824 1.5578494e-07 0)
(0.016848226 -1.5115514e-07 0)
(0.016858365 1.4706746e-07 0)
(0.016849649 -1.4355416e-07 0)
(0.016856979 1.4041227e-07 0)
(0.016851021 -1.3793858e-07 0)
(0.016855644 1.3656129e-07 0)
(0.016852292 -1.3105345e-07 0)
(0.016853993 1.4451451e-07 0)
(0.016852286 -1.2742837e-07 0)
(0.015807842 0.0031641767 0)
(0.034098705 -8.8962437e-05 0)
(0.022802062 0.00012829021 0)
(0.024841061 -1.4557919e-05 0)
(0.023633216 1.7789872e-05 0)
(0.023410562 -5.2079802e-07 0)
(0.023561362 4.3085757e-06 0)
(0.023171533 5.4218875e-07 0)
(0.023393973 1.5163219e-06 0)
(0.023157264 -6.2377252e-07 0)
(0.023341623 1.0010923e-06 0)
(0.023171326 -8.6760355e-07 0)
(0.023323351 8.9188295e-07 0)
(0.023182633 -8.4320565e-07 0)
(0.023313247 8.1371593e-07 0)
(0.023190748 -7.6683573e-07 0)
(0.023305518 7.3040502e-07 0)
(0.023197537 -6.878041e-07 0)
(0.023298913 6.5207278e-07 0)
(0.0232036 -6.1521306e-07 0)
(0.023293084 5.823367e-07 0)
(0.023209057 -5.5023899e-07 0)
(0.02328788 5.2072977e-07 0)
(0.02321397 -4.9258825e-07 0)
(0.02328321 4.6640293e-07 0)
(0.023218394 -4.4169886e-07 0)
(0.023279008 4.1863201e-07 0)
(0.023222384 -3.9699538e-07 0)
(0.023275218 3.7680062e-07 0)
(0.023225987 -3.5793344e-07 0)
(0.023271791 3.4036419e-07 0)
(0.023229251 -3.240099e-07 0)
(0.023268682 3.0883468e-07 0)
(0.023232218 -2.9476729e-07 0)
(0.023265847 2.8177598e-07 0)
(0.023234931 -2.6979644e-07 0)
(0.023263248 2.5880277e-07 0)
(0.023237426 -2.4873758e-07 0)
(0.023260849 2.3958021e-07 0)
(0.023239739 -2.312793e-07 0)
(0.023258613 2.2382281e-07 0)
(0.023241905 -2.1716127e-07 0)
(0.023256509 2.1127068e-07 0)
(0.023243955 -2.0622499e-07 0)
(0.02325451 2.0163339e-07 0)
(0.023245935 -1.9816244e-07 0)
(0.023252588 1.9613516e-07 0)
(0.023247796 -1.8724075e-07 0)
(0.023250294 2.1193429e-07 0)
(0.023248024 -1.8271983e-07 0)
(0.020673759 0.0044128681 0)
(0.041988007 -9.6696527e-05 0)
(0.028871857 0.00019342848 0)
(0.031475345 -2.1656513e-05 0)
(0.029917531 2.8430958e-05 0)
(0.029648183 -5.9731429e-07 0)
(0.029859358 6.4272388e-06 0)
(0.029359644 1.2658066e-06 0)
(0.029658411 2.0050728e-06 0)
(0.02934936 -6.398091e-07 0)
(0.029593049 1.2574232e-06 0)
(0.029369094 -1.0789366e-06 0)
(0.029569984 1.1309122e-06 0)
(0.029384113 -1.0738597e-06 0)
(0.02955692 1.0409333e-06 0)
(0.029394833 -9.8104848e-07 0)
(0.029546771 9.3617523e-07 0)
(0.029403821 -8.8085749e-07 0)
(0.029538047 8.3570268e-07 0)
(0.029411855 -7.8808549e-07 0)
(0.029530331 7.4614654e-07 0)
(0.029419087 -7.0485223e-07 0)
(0.029523438 6.6708193e-07 0)
(0.029425596 -6.3095261e-07 0)
(0.029517253 5.9739937e-07 0)
(0.029431456 -5.6571647e-07 0)
(0.02951169 5.3615164e-07 0)
(0.029436737 -5.0841931e-07 0)
(0.029506674 4.8253674e-07 0)
(0.029441504 -4.5836329e-07 0)
(0.029502141 4.3584818e-07 0)
(0.029445821 -4.1489951e-07 0)
(0.029498029 3.954541e-07 0)
(0.029449745 -3.7743737e-07 0)
(0.029494282 3.6079103e-07 0)
(0.029453329 -3.4544909e-07 0)
(0.029490847 3.3136198e-07 0)
(0.029456626 -3.1847111e-07 0)
(0.029487677 3.0673555e-07 0)
(0.029459683 -2.9610206e-07 0)
(0.029484724 2.8654445e-07 0)
(0.029462543 -2.7800587e-07 0)
(0.029481945 2.7044881e-07 0)
(0.029465251 -2.6399414e-07 0)
(0.029479305 2.5802372e-07 0)
(0.029467864 -2.5370357e-07 0)
(0.029476769 2.5100967e-07 0)
(0.029470346 -2.3852891e-07 0)
(0.029473829 2.7670207e-07 0)
(0.029470917 -2.3350435e-07 0)
(0.025052476 0.0049575627 0)
(0.048942603 -0.00019152777 0)
(0.034723744 0.00026126724 0)
(0.037927479 -3.0786315e-05 0)
(0.036003764 4.1654137e-05 0)
(0.035702162 -8.4048353e-07 0)
(0.035975787 8.8234065e-06 0)
(0.035369887 2.1756135e-06 0)
(0.035749815 2.4551856e-06 0)
(0.03536696 -5.7400992e-07 0)
(0.035672322 1.4738386e-06 0)
(0.035392905 -1.2582685e-06 0)
(0.035644626 1.3438658e-06 0)
(0.035411794 -1.283705e-06 0)
(0.035628574 1.24945e-06 0)
(0.035425224 -1.1779128e-06 0)
(0.035615925 1.126035e-06 0)
(0.035436508 -1.0586239e-06 0)
(0.035604993 1.0050678e-06 0)
(0.035446603 -9.4733584e-07 0)
(0.03559531 8.9712813e-07 0)
(0.035455688 -8.4727527e-07 0)
(0.035586655 8.019088e-07 0)
(0.035463862 -7.5838612e-07 0)
(0.035578891 7.1804162e-07 0)
(0.035471218 -6.7991686e-07 0)
(0.03557191 6.4436e-07 0)
(0.035477843 -6.1100902e-07 0)
(0.035565619 5.7988272e-07 0)
(0.035483822 -5.5082199e-07 0)
(0.035559935 5.2374888e-07 0)
(0.035489233 -4.985703e-07 0)
(0.035554781 4.7519086e-07 0)
(0.03549415 -4.535387e-07 0)
(0.035550086 4.3352569e-07 0)
(0.035498641 -4.1508862e-07 0)
(0.035545785 3.9815216e-07 0)
(0.03550277 -3.8265979e-07 0)
(0.035541814 3.6854897e-07 0)
(0.035506596 -3.5576688e-07 0)
(0.035538118 3.4427279e-07 0)
(0.035510176 -3.3400247e-07 0)
(0.035534641 3.2490719e-07 0)
(0.035513564 -3.1715652e-07 0)
(0.035531337 3.0987523e-07 0)
(0.03551683 -3.0484135e-07 0)
(0.035528168 3.0143436e-07 0)
(0.035519956 -2.8527726e-07 0)
(0.035524579 3.3855973e-07 0)
(0.035520963 -2.7960931e-07 0)
(0.028816283 0.0055270512 0)
(0.055492799 -0.00021019161 0)
(0.040466619 0.00033215065 0)
(0.04411635 -3.6622073e-05 0)
(0.041896283 5.8103761e-05 0)
(0.041575902 -1.1953498e-06 0)
(0.041910469 1.1506747e-05 0)
(0.04120352 3.2213261e-06 0)
(0.041667877 2.8502204e-06 0)
(0.041210542 -4.3484619e-07 0)
(0.0415792 1.6500277e-06 0)
(0.04124306 -1.4090148e-06 0)
(0.041547035 1.5321396e-06 0)
(0.041265924 -1.4746969e-06 0)
(0.041527982 1.4406489e-06 0)
(0.041282139 -1.3588392e-06 0)
(0.041512775 1.3011779e-06 0)
(0.041295795 -1.2222669e-06 0)
(0.041499571 1.1612269e-06 0)
(0.041308017 -1.0939834e-06 0)
(0.041487858 1.0362361e-06 0)
(0.041319014 -9.7841918e-07 0)
(0.041477389 9.2607433e-07 0)
(0.041328904 -8.7570987e-07 0)
(0.041467998 8.2911238e-07 0)
(0.041337799 -7.8504305e-07 0)
(0.041459558 7.4396663e-07 0)
(0.041345808 -7.0543856e-07 0)
(0.041451955 6.6948249e-07 0)
(0.041353032 -6.3592246e-07 0)
(0.041445088 6.0465201e-07 0)
(0.041359568 -5.7558126e-07 0)
(0.041438863 5.485796e-07 0)
(0.041365505 -5.2358319e-07 0)
(0.041433196 5.0047055e-07 0)
(0.041370926 -4.7918649e-07 0)
(0.041428004 4.596265e-07 0)
(0.041375909 -4.4174092e-07 0)
(0.041423213 4.2544249e-07 0)
(0.041380525 -4.106829e-07 0)
(0.041418755 3.9740453e-07 0)
(0.041384842 -3.8553764e-07 0)
(0.041414562 3.750232e-07 0)
(0.041388927 -3.6607981e-07 0)
(0.041410578 3.5755382e-07 0)
(0.041392862 -3.5193113e-07 0)
(0.041406761 3.4774566e-07 0)
(0.041396646 -3.2792979e-07 0)
(0.041402523 3.9737989e-07 0)
(0.041398169 -3.211376e-07 0)
(0.034081911 0.0064874376 0)
(0.060909406 -0.0003108245 0)
(0.046144212 0.00039249312 0)
(0.049840753 -4.6023677e-05 0)
(0.047569447 7.5003981e-05 0)
(0.047263438 -2.0860085e-06 0)
(0.0476616 1.4389159e-05 0)
(0.046861604 4.3371059e-06 0)
(0.04741221 3.1780119e-06 0)
(0.046880497 -2.2918517e-07 0)
(0.04731347 1.7846301e-06 0)
(0.046919817 -1.5326125e-06 0)
(0.047276999 1.6955859e-06 0)
(0.046946716 -1.6471626e-06 0)
(0.047254946 1.6144654e-06 0)
(0.04696577 -1.5238398e-06 0)
(0.047237141 1.461506e-06 0)
(0.04698185 -1.3717251e-06 0)
(0.047221618 1.3040916e-06 0)
(0.046996247 -1.2279649e-06 0)
(0.047207834 1.1634028e-06 0)
(0.047009198 -1.0982327e-06 0)
(0.047195512 1.0395281e-06 0)
(0.047020838 -9.8288529e-07 0)
(0.047184464 9.305746e-07 0)
(0.047031303 -8.8106654e-07 0)
(0.047174536 8.3494445e-07 0)
(0.047040721 -7.9168674e-07 0)
(0.047165597 7.5131625e-07 0)
(0.047049214 -7.1364875e-07 0)
(0.047157526 6.7854314e-07 0)
(0.047056894 -6.4592038e-07 0)
(0.047150212 6.1561001e-07 0)
(0.047063869 -5.8756205e-07 0)
(0.047143554 5.6161858e-07 0)
(0.047070236 -5.377367e-07 0)
(0.047137457 5.1578081e-07 0)
(0.047076087 -4.9571118e-07 0)
(0.047131832 4.774146e-07 0)
(0.047081507 -4.6084959e-07 0)
(0.047126598 4.4594095e-07 0)
(0.047086574 -4.3261393e-07 0)
(0.047121678 4.2080187e-07 0)
(0.047091366 -4.1076911e-07 0)
(0.047117004 4.010727e-07 0)
(0.047095979 -3.9498201e-07 0)
(0.047112528 3.8995465e-07 0)
(0.047100431 -3.6658707e-07 0)
(0.047107646 4.5279015e-07 0)
(0.047102537 -3.5801233e-07 0)
(0.037394553 0.0064422759 0)
(0.065584975 -0.00039279062 0)
(0.051959321 0.00047569059 0)
(0.054998749 -5.4457882e-05 0)
(0.053026801 9.0716022e-05 0)
(0.052761687 -3.3884135e-06 0)
(0.053229525 1.7461874e-05 0)
(0.052345112 5.4744565e-06 0)
(0.052982494 3.4269705e-06 0)
(0.052377169 3.5888905e-08 0)
(0.05287497 1.8764703e-06 0)
(0.052423403 -1.6298091e-06 0)
(0.052834336 1.8337983e-06 0)
(0.052454363 -1.800971e-06 0)
(0.052809294 1.7705113e-06 0)
(0.052476284 -1.6725784e-06 0)
(0.052788866 1.6066177e-06 0)
(0.052494823 -1.5066442e-06 0)
(0.052770995 1.4333046e-06 0)
(0.052511426 -1.3489591e-06 0)
(0.052755115 1.2783217e-06 0)
(0.052526354 -1.2064337e-06 0)
(0.052740919 1.1420071e-06 0)
(0.052539766 -1.0796658e-06 0)
(0.052728193 1.0222002e-06 0)
(0.052551818 -9.6777161e-07 0)
(0.052716762 9.1709366e-07 0)
(0.05256266 -8.6956382e-07 0)
(0.052706473 8.2520732e-07 0)
(0.052572434 -7.8383285e-07 0)
(0.052697185 7.4526471e-07 0)
(0.052581271 -7.0943785e-07 0)
(0.052688771 6.7614064e-07 0)
(0.052589294 -6.4534072e-07 0)
(0.052681113 6.16842e-07 0)
(0.052596617 -5.9061759e-07 0)
(0.052674102 5.6649897e-07 0)
(0.052603344 -5.4445984e-07 0)
(0.052667635 5.2435923e-07 0)
(0.052609574 -5.0616558e-07 0)
(0.05266162 4.8978467e-07 0)
(0.052615398 -4.7513822e-07 0)
(0.052655965 4.6215392e-07 0)
(0.052620904 -4.5113759e-07 0)
(0.052650594 4.4035396e-07 0)
(0.052626199 -4.3391215e-07 0)
(0.052645454 4.2798839e-07 0)
(0.052631324 -4.0124696e-07 0)
(0.052639932 5.0438009e-07 0)
(0.05263407 -3.9016849e-07 0)
(0.043106757 0.0075311236 0)
(0.069559063 -0.00048646565 0)
(0.057572423 0.00054364601 0)
(0.059734474 -6.2708737e-05 0)
(0.058301113 0.00010312503 0)
(0.058059583 -5.3922737e-06 0)
(0.058613753 2.0562821e-05 0)
(0.05765463 6.5634944e-06 0)
(0.058378499 3.587655e-06 0)
(0.057700847 3.5105231e-07 0)
(0.058263569 1.9246655e-06 0)
(0.057754025 -1.7014599e-06 0)
(0.058218888 1.9466098e-06 0)
(0.057789036 -1.9361238e-06 0)
(0.05819087 1.9085912e-06 0)
(0.057813831 -1.8048743e-06 0)
(0.058167811 1.7362834e-06 0)
(0.057834846 -1.6268275e-06 0)
(0.05814758 1.548664e-06 0)
(0.057853669 -1.4567931e-06 0)
(0.058129592 1.380826e-06 0)
(0.057870586 -1.3028752e-06 0)
(0.058113513 1.2333719e-06 0)
(0.057885777 -1.1659266e-06 0)
(0.058099103 1.1038708e-06 0)
(0.057899423 -1.0450506e-06 0)
(0.058086163 9.903121e-07 0)
(0.057911694 -9.3897562e-07 0)
(0.058074519 8.9106628e-07 0)
(0.057922753 -8.4639128e-07 0)
(0.058064011 8.0473757e-07 0)
(0.05793275 -7.660589e-07 0)
(0.058054493 7.3010065e-07 0)
(0.057941824 -6.9685171e-07 0)
(0.058045833 6.6607684e-07 0)
(0.057950105 -6.3776781e-07 0)
(0.058037904 6.117228e-07 0)
(0.057957712 -5.8793082e-07 0)
(0.058030593 5.6622308e-07 0)
(0.057964755 -5.465794e-07 0)
(0.058023793 5.2888661e-07 0)
(0.057971338 -5.1306324e-07 0)
(0.058017402 4.9903449e-07 0)
(0.057977559 -4.8714096e-07 0)
(0.058011333 4.7536059e-07 0)
(0.057983538 -4.6867771e-07 0)
(0.058005526 4.6181501e-07 0)
(0.057989335 -4.3192933e-07 0)
(0.057999372 5.5181432e-07 0)
(0.057992766 -4.1763071e-07 0)
(0.04696859 0.0074151034 0)
(0.073124811 -0.00057728338 0)
(0.062885886 0.00059270605 0)
(0.064202218 -6.8639968e-05 0)
(0.063424531 0.00011219495 0)
(0.063146034 -8.1806221e-06 0)
(0.063813358 2.3428545e-05 0)
(0.062791308 7.535152e-06 0)
(0.063599971 3.655811e-06 0)
(0.062851777 7.0709742e-07 0)
(0.063479151 1.9291986e-06 0)
(0.062911863 -1.7482459e-06 0)
(0.063430505 2.0341362e-06 0)
(0.062950886 -2.0527611e-06 0)
(0.063399537 2.0287035e-06 0)
(0.062978545 -1.9207158e-06 0)
(0.063373851 1.8504463e-06 0)
(0.063002037 -1.7322398e-06 0)
(0.063351261 1.6501249e-06 0)
(0.063023081 -1.5514392e-06 0)
(0.063331167 1.470889e-06 0)
(0.063041983 -1.3875383e-06 0)
(0.063313208 1.3136077e-06 0)
(0.063058951 -1.2416554e-06 0)
(0.063297118 1.1755786e-06 0)
(0.063074186 -1.112896e-06 0)
(0.063282673 1.0545955e-06 0)
(0.063087883 -9.9991754e-07 0)
(0.063269678 9.4889079e-07 0)
(0.063100224 -9.0132128e-07 0)
(0.063257953 8.5696024e-07 0)
(0.063111378 -8.1578183e-07 0)
(0.063247335 7.7748893e-07 0)
(0.0631215 -7.4209389e-07 0)
(0.063237674 7.0932218e-07 0)
(0.063130737 -6.7918653e-07 0)
(0.063228831 6.5145146e-07 0)
(0.06313922 -6.2612349e-07 0)
(0.063220678 6.0300548e-07 0)
(0.063147074 -5.8209071e-07 0)
(0.063213095 5.6324641e-07 0)
(0.063154414 -5.4638923e-07 0)
(0.063205971 5.314441e-07 0)
(0.063161348 -5.1877951e-07 0)
(0.063199206 5.0609814e-07 0)
(0.063168007 -4.9927598e-07 0)
(0.063192734 4.9144567e-07 0)
(0.063174473 -4.5868304e-07 0)
(0.063185955 5.9483267e-07 0)
(0.063178627 -4.4049809e-07 0)
(0.052675227 0.008297698 0)
(0.076234932 -0.00066522184 0)
(0.067929294 0.00064815459 0)
(0.068528371 -7.1163383e-05 0)
(0.068406574 0.00011790524 0)
(0.068025482 -1.1428597e-05 0)
(0.068831156 2.5843852e-05 0)
(0.067756458 8.3449655e-06 0)
(0.068646861 3.6355471e-06 0)
(0.06783019 1.0949328e-06 0)
(0.06852165 1.8905062e-06 0)
(0.067897087 -1.7705372e-06 0)
(0.06846906 2.0967074e-06 0)
(0.067940052 -2.1510597e-06 0)
(0.068435169 2.1309732e-06 0)
(0.067970548 -2.020179e-06 0)
(0.068406874 1.9491582e-06 0)
(0.067996502 -1.8229406e-06 0)
(0.06838194 1.7377381e-06 0)
(0.068019752 -1.6329589e-06 0)
(0.068359756 1.5485672e-06 0)
(0.068040627 -1.4604847e-06 0)
(0.068339931 1.3827721e-06 0)
(0.068059358 -1.3069116e-06 0)
(0.068322173 1.237379e-06 0)
(0.06807617 -1.1713632e-06 0)
(0.068306235 1.109996e-06 0)
(0.068091282 -1.0524405e-06 0)
(0.0682919 9.9872866e-07 0)
(0.068104894 -9.4866893e-07 0)
(0.068278968 9.0197628e-07 0)
(0.068117194 -8.5864818e-07 0)
(0.068267258 8.1834507e-07 0)
(0.068128357 -7.8110472e-07 0)
(0.068256605 7.4661391e-07 0)
(0.068138542 -7.149077e-07 0)
(0.068246855 6.8571769e-07 0)
(0.068147895 -6.5906884e-07 0)
(0.068237867 6.3473652e-07 0)
(0.068156553 -6.1272821e-07 0)
(0.068229508 5.9289214e-07 0)
(0.068164643 -5.7514343e-07 0)
(0.068221656 5.5940966e-07 0)
(0.068172285 -5.4607909e-07 0)
(0.0682142 5.3259688e-07 0)
(0.068179619 -5.2572796e-07 0)
(0.068207067 5.1691723e-07 0)
(0.068186745 -4.8157168e-07 0)
(0.068199676 6.3323252e-07 0)
(0.068191651 -4.5891945e-07 0)
(0.056915521 0.0081147987 0)
(0.079002609 -0.00079132795 0)
(0.072804616 0.00069125562 0)
(0.072703357 -7.4351256e-05 0)
(0.073233297 0.00011999199 0)
(0.07271598 -1.4681077e-05 0)
(0.073670839 2.7658037e-05 0)
(0.072551139 8.9583558e-06 0)
(0.0735191 3.5372079e-06 0)
(0.072636215 1.5052065e-06 0)
(0.073390997 1.8093934e-06 0)
(0.07270984 -1.7683072e-06 0)
(0.073334429 2.1348281e-06 0)
(0.072756651 -2.2312542e-06 0)
(0.073297654 2.2155995e-06 0)
(0.072789944 -2.1034318e-06 0)
(0.073266781 2.0325454e-06 0)
(0.072818333 -1.8990698e-06 0)
(0.073239531 1.8116262e-06 0)
(0.072843765 -1.7014806e-06 0)
(0.073215282 1.613981e-06 0)
(0.072866588 -1.5218327e-06 0)
(0.073193615 1.440979e-06 0)
(0.07288706 -1.3618035e-06 0)
(0.073174211 1.2893767e-06 0)
(0.072905429 -1.2205508e-06 0)
(0.073156799 1.1566085e-06 0)
(0.072921936 -1.0966336e-06 0)
(0.07314114 1.0406657e-06 0)
(0.072936803 -9.8851493e-07 0)
(0.073127017 9.3986298e-07 0)
(0.072950236 -8.9473093e-07 0)
(0.07311423 8.5273867e-07 0)
(0.072962426 -8.1395029e-07 0)
(0.073102598 7.7801501e-07 0)
(0.072973546 -7.4499133e-07 0)
(0.073091952 7.1457874e-07 0)
(0.072983758 -6.8682177e-07 0)
(0.073082138 6.6146875e-07 0)
(0.07299321 -6.385426e-07 0)
(0.073073014 6.1787259e-07 0)
(0.073002041 -5.9937346e-07 0)
(0.073064443 5.8297741e-07 0)
(0.073010382 -5.6908472e-07 0)
(0.073056304 5.5490495e-07 0)
(0.073018381 -5.4807227e-07 0)
(0.073048518 5.3828506e-07 0)
(0.073026159 -5.0066866e-07 0)
(0.073040527 6.6686026e-07 0)
(0.073031837 -4.730792e-07 0)
(0.062841731 0.0088818915 0)
(0.081616117 -0.00084793755 0)
(0.077530288 0.00073018865 0)
(0.076747011 -7.7033191e-05 0)
(0.077894055 0.00011898624 0)
(0.077235885 -1.7938483e-05 0)
(0.078335888 2.8811887e-05 0)
(0.077176488 9.3692049e-06 0)
(0.078216708 3.3794504e-06 0)
(0.077269968 1.9297568e-06 0)
(0.078087162 1.6868544e-06 0)
(0.077350267 -1.7409013e-06 0)
(0.078026516 2.149314e-06 0)
(0.077400791 -2.2935308e-06 0)
(0.077986893 2.2829064e-06 0)
(0.077436825 -2.1706924e-06 0)
(0.077953485 2.1008192e-06 0)
(0.077467612 -1.9608326e-06 0)
(0.077923958 1.87198e-06 0)
(0.077495189 -1.7571948e-06 0)
(0.077897679 1.6673086e-06 0)
(0.077519929 -1.5717563e-06 0)
(0.077874201 1.4883914e-06 0)
(0.077542111 -1.4064886e-06 0)
(0.077853179 1.3317198e-06 0)
(0.07756201 -1.2606004e-06 0)
(0.07783432 1.1945666e-06 0)
(0.077579889 -1.1326242e-06 0)
(0.077817361 1.074822e-06 0)
(0.077595989 -1.0209734e-06 0)
(0.077802066 9.7072838e-07 0)
(0.077610535 -9.2413261e-07 0)
(0.077788221 8.8076718e-07 0)
(0.077623733 -8.40723e-07 0)
(0.077775626 8.0361365e-07 0)
(0.077635773 -7.695212e-07 0)
(0.0777641 7.3811486e-07 0)
(0.077646829 -7.0945873e-07 0)
(0.077753475 6.832758e-07 0)
(0.077657062 -6.5960441e-07 0)
(0.077743597 6.3825601e-07 0)
(0.077666622 -6.1914536e-07 0)
(0.077734319 6.022116e-07 0)
(0.07767565 -5.8785885e-07 0)
(0.07772551 5.7308714e-07 0)
(0.077684303 -5.6636378e-07 0)
(0.077717081 5.5562118e-07 0)
(0.077692719 -5.160568e-07 0)
(0.077708503 6.9560757e-07 0)
(0.077699183 -4.8318822e-07 0)
(0.067461324 0.0086499058 0)
(0.083953062 -0.00098163776 0)
(0.082156631 0.00075287726 0)
(0.080629005 -7.9614049e-05 0)
(0.08238074 0.00011486719 0)
(0.081598658 -2.1196993e-05 0)
(0.082828118 2.933591e-05 0)
(0.081633352 9.5795256e-06 0)
(0.082739584 3.1816861e-06 0)
(0.081731516 2.3589305e-06 0)
(0.082610073 1.5224616e-06 0)
(0.08181848 -1.6876729e-06 0)
(0.082545227 2.1410092e-06 0)
(0.081872564 -2.3381667e-06 0)
(0.0825028 2.3332614e-06 0)
(0.081911273 -2.2222707e-06 0)
(0.08246691 2.154248e-06 0)
(0.081944408 -2.0085053e-06 0)
(0.082435155 1.9190483e-06 0)
(0.081974088 -1.8003485e-06 0)
(0.082406889 1.7087804e-06 0)
(0.082000703 -1.6104765e-06 0)
(0.08238164 1.5252189e-06 0)
(0.082024559 -1.4411647e-06 0)
(0.082359035 1.3645968e-06 0)
(0.082045955 -1.2916897e-06 0)
(0.082338758 1.2240393e-06 0)
(0.082065176 -1.1605716e-06 0)
(0.082320527 1.1013492e-06 0)
(0.082082483 -1.0461876e-06 0)
(0.082304087 9.9470873e-07 0)
(0.082098118 -9.4698218e-07 0)
(0.082289205 9.025533e-07 0)
(0.082112303 -8.6153942e-07 0)
(0.082275668 8.2352083e-07 0)
(0.082125243 -7.8860313e-07 0)
(0.08226328 7.5642709e-07 0)
(0.082137126 -7.270765e-07 0)
(0.082251861 7.0025038e-07 0)
(0.082148123 -6.760029e-07 0)
(0.082241245 6.541284e-07 0)
(0.082158397 -6.3454259e-07 0)
(0.082231275 6.1719305e-07 0)
(0.082168098 -6.0248038e-07 0)
(0.082221808 5.8722352e-07 0)
(0.082177391 -5.8067273e-07 0)
(0.082212749 5.6901261e-07 0)
(0.08218643 -5.2782816e-07 0)
(0.082203601 7.1940792e-07 0)
(0.082193689 -4.8947608e-07 0)
(0.073574878 0.0092763301 0)
(0.0862742 -0.0010195126 0)
(0.086652995 0.00077385867 0)
(0.084388102 -8.124185e-05 0)
(0.086695411 0.00010776634 0)
(0.085808295 -2.4536725e-05 0)
(0.087148064 2.9305376e-05 0)
(0.085922342 9.6031149e-06 0)
(0.087087478 2.9679184e-06 0)
(0.0860211 2.7852375e-06 0)
(0.086959617 1.3167153e-06 0)
(0.086114577 -1.6074887e-06 0)
(0.086890484 2.1111073e-06 0)
(0.086172048 -2.3653531e-06 0)
(0.086845299 2.3671471e-06 0)
(0.086213357 -2.2585129e-06 0)
(0.08680699 2.1931688e-06 0)
(0.086248784 -2.0424163e-06 0)
(0.086773063 1.9531331e-06 0)
(0.086280514 -1.8312378e-06 0)
(0.086742861 1.7386712e-06 0)
(0.086308957 -1.6382581e-06 0)
(0.086715885 1.5517094e-06 0)
(0.086334445 -1.4660687e-06 0)
(0.086691738 1.3882303e-06 0)
(0.086357301 -1.3140303e-06 0)
(0.08667008 1.2452263e-06 0)
(0.086377829 -1.1806651e-06 0)
(0.08665061 1.1204263e-06 0)
(0.086396312 -1.0643271e-06 0)
(0.086633053 1.0119648e-06 0)
(0.086413008 -9.6343217e-07 0)
(0.08661716 9.1824196e-07 0)
(0.086428156 -8.7653717e-07 0)
(0.086602704 8.3786776e-07 0)
(0.086441974 -8.0236203e-07 0)
(0.086589476 7.6963496e-07 0)
(0.086454663 -7.3978925e-07 0)
(0.086577283 7.1250227e-07 0)
(0.086466406 -6.8784345e-07 0)
(0.086565947 6.6559155e-07 0)
(0.086477376 -6.4566366e-07 0)
(0.086555302 6.2801733e-07 0)
(0.086487734 -6.130425e-07 0)
(0.086545194 5.9740769e-07 0)
(0.086497651 -5.9108296e-07 0)
(0.086535518 5.7855942e-07 0)
(0.086507297 -5.3608315e-07 0)
(0.086525816 7.3823294e-07 0)
(0.086515351 -4.9218411e-07 0)
(0.078326113 0.0090032612 0)
(0.0883678 -0.001161 0)
(0.090995695 0.0007766761 0)
(0.088053126 -8.2149469e-05 0)
(0.090846512 9.7952855e-05 0)
(0.089865473 -2.7859983e-05 0)
(0.091296165 2.8831608e-05 0)
(0.09004354 9.4656013e-06 0)
(0.09125975 2.7591269e-06 0)
(0.090139424 3.1964063e-06 0)
(0.091135614 1.0720087e-06 0)
(0.09023865 -1.5000841e-06 0)
(0.091062222 2.0607458e-06 0)
(0.090299314 -2.3753901e-06 0)
(0.091014324 2.3850644e-06 0)
(0.090343137 -2.2798398e-06 0)
(0.090973667 2.2179593e-06 0)
(0.090380792 -2.0629472e-06 0)
(0.090937633 1.9745791e-06 0)
(0.090414514 -1.8502003e-06 0)
(0.090905553 1.7572949e-06 0)
(0.090444733 -1.6554009e-06 0)
(0.090876901 1.5681453e-06 0)
(0.090471805 -1.4814676e-06 0)
(0.090851256 1.4028733e-06 0)
(0.090496077 -1.3278606e-06 0)
(0.090828258 1.2583539e-06 0)
(0.090517875 -1.1931183e-06 0)
(0.090807583 1.1322561e-06 0)
(0.0905375 -1.0755837e-06 0)
(0.090788942 1.0226787e-06 0)
(0.090555227 -9.7365511e-07 0)
(0.090772068 9.2799723e-07 0)
(0.09057131 -8.8587223e-07 0)
(0.09075672 8.4680304e-07 0)
(0.090585981 -8.1093967e-07 0)
(0.090742675 7.7787392e-07 0)
(0.090599453 -7.4772673e-07 0)
(0.090729729 7.2015593e-07 0)
(0.090611921 -6.9524587e-07 0)
(0.090717693 6.7276098e-07 0)
(0.090623568 -6.5262054e-07 0)
(0.090706391 6.3479285e-07 0)
(0.090634564 -6.1965118e-07 0)
(0.09069566 6.0374509e-07 0)
(0.090645088 -5.9769056e-07 0)
(0.090685384 5.8437279e-07 0)
(0.090655321 -5.4092977e-07 0)
(0.090675146 7.5208892e-07 0)
(0.090664167 -4.915596e-07 0)
(0.084180096 0.0093940406 0)
(0.090620676 -0.0011667571 0)
(0.095116471 0.00078215901 0)
(0.091703925 -8.0592905e-05 0)
(0.094843784 8.6271511e-05 0)
(0.093767211 -3.1134563e-05 0)
(0.095272731 2.7994693e-05 0)
(0.093996358 9.1908382e-06 0)
(0.095255639 2.5746293e-06 0)
(0.094087498 3.5747282e-06 0)
(0.095137781 7.9542818e-07 0)
(0.094190767 -1.3665198e-06 0)
(0.095060383 1.9911033e-06 0)
(0.09425442 -2.3686024e-06 0)
(0.095009821 2.3875649e-06 0)
(0.094300665 -2.2867131e-06 0)
(0.094966893 2.2290411e-06 0)
(0.094340478 -2.0705205e-06 0)
(0.094928822 1.9837685e-06 0)
(0.094376128 -1.8576103e-06 0)
(0.094894926 1.7649976e-06 0)
(0.094408065 -1.6622368e-06 0)
(0.094864653 1.5748373e-06 0)
(0.094436669 -1.487657e-06 0)
(0.09483756 1.4088038e-06 0)
(0.094462311 -1.3334445e-06 0)
(0.094813265 1.2636709e-06 0)
(0.094485338 -1.198167e-06 0)
(0.094791426 1.1370616e-06 0)
(0.094506067 -1.0801686e-06 0)
(0.094771735 1.0270508e-06 0)
(0.094524792 -9.7784109e-07 0)
(0.094753911 9.3199978e-07 0)
(0.094541781 -8.8971634e-07 0)
(0.094737699 8.5049042e-07 0)
(0.094557277 -8.1449212e-07 0)
(0.094722863 7.8129333e-07 0)
(0.094571507 -7.5103184e-07 0)
(0.094709189 7.2334872e-07 0)
(0.094584678 -6.983422e-07 0)
(0.094696475 6.7576423e-07 0)
(0.09459698 -6.5553668e-07 0)
(0.094684538 6.3763933e-07 0)
(0.094608594 -6.2242335e-07 0)
(0.094673203 6.0635149e-07 0)
(0.094619705 -6.0060227e-07 0)
(0.094662345 5.8657341e-07 0)
(0.094630506 -5.4248269e-07 0)
(0.094651589 7.6101356e-07 0)
(0.094640136 -4.8785105e-07 0)
(0.089383165 0.009262695 0)
(0.092665925 -0.001294145 0)
(0.098958533 0.00076393714 0)
(0.095324226 -7.9731023e-05 0)
(0.098686024 7.3314996e-05 0)
(0.097512015 -3.4209204e-05 0)
(0.099078139 2.6886157e-05 0)
(0.097780028 8.8140929e-06 0)
(0.099074973 2.4256441e-06 0)
(0.097866021 3.9044562e-06 0)
(0.098965803 4.9997931e-07 0)
(0.09797095 -1.209368e-06 0)
(0.098884918 1.903294e-06 0)
(0.098037417 -2.3453701e-06 0)
(0.098831745 2.3752206e-06 0)
(0.098085984 -2.2796451e-06 0)
(0.098786627 2.2268659e-06 0)
(0.09812788 -2.0655958e-06 0)
(0.098746595 1.9811148e-06 0)
(0.09816539 -1.8538714e-06 0)
(0.098710949 1.7621536e-06 0)
(0.098198982 -1.659123e-06 0)
(0.098679115 1.5721211e-06 0)
(0.098229064 -1.4849545e-06 0)
(0.098650626 1.4063221e-06 0)
(0.098256027 -1.3310654e-06 0)
(0.09862508 1.2614459e-06 0)
(0.098280237 -1.1960649e-06 0)
(0.098602118 1.1350833e-06 0)
(0.098302032 -1.0783096e-06 0)
(0.098581416 1.0252971e-06 0)
(0.098321719 -9.7619504e-07 0)
(0.098562676 9.3044449e-07 0)
(0.09833958 -8.8825487e-07 0)
(0.098545631 8.4910658e-07 0)
(0.098355873 -8.1318806e-07 0)
(0.098530032 7.8005449e-07 0)
(0.098370835 -7.498592e-07 0)
(0.098515654 7.2222909e-07 0)
(0.098384683 -6.9727539e-07 0)
(0.098502287 6.7473924e-07 0)
(0.098397618 -6.5454575e-07 0)
(0.098489735 6.3668626e-07 0)
(0.098409829 -6.2148565e-07 0)
(0.098477817 6.0535163e-07 0)
(0.098421507 -5.9993443e-07 0)
(0.098466397 5.8529004e-07 0)
(0.098432854 -5.4086258e-07 0)
(0.098455143 7.6507299e-07 0)
(0.098443256 -4.8130426e-07 0)
(0.094344025 0.0092911803 0)
(0.094882469 -0.0012980541 0)
(0.10257799 0.00074852031 0)
(0.098913886 -7.8241586e-05 0)
(0.1023692 6.0130663e-05 0)
(0.10109765 -3.7014235e-05 0)
(0.10271234 2.5569629e-05 0)
(0.10139371 8.3654629e-06 0)
(0.1027182 2.3092759e-06 0)
(0.10147508 4.1733847e-06 0)
(0.10261939 2.0171219e-07 0)