/*--------------------------------*- C++ -*----------------------------------*\
| =========                 |                                                 |
| \\      /  F ield         | OpenFOAM: The Open Source CFD Toolbox           |
|  \\    /   O peration     | Version:  2312                                  |
|   \\  /    A nd           | Website:  www.openfoam.com                      |
|    \\/     M anipulation  |                                                 |
\*---------------------------------------------------------------------------*/
FoamFile
{
    version     2.0;
    format      ascii;
    arch        "LSB;label=32;scalar=64";
    class       volScalarField;
    location    "5";
    object      p;
}
// * * * * * * * * * * * * * * * * * * * * * * * * * * * * * * * * * * * * * //

dimensions      [0 2 -2 0 0 0 0];

internalField   nonuniform List<scalar> 
4000
(
14.378542
13.887278
13.775618
13.323667
13.191462
12.757653
12.606202
12.189784
12.021717
11.620734
11.438157
11.050743
10.85545
10.47994
10.273502
9.9084241
9.6922231
9.3362818
9.1115332
8.7635872
8.5313628
8.1904054
7.9516508
7.6167934
7.3723437
7.0428007
6.7933952
6.4684708
6.2147649
5.8938411
5.6364178
5.3189442
5.0583235
4.7438081
4.4804562
4.1684567
3.9027937
3.5929104
3.3253172
3.0171862
2.7480113
2.4412983
2.1708632
1.8652578
1.5938629
1.2890736
1.017003
0.71275188
0.44027815
0.13629311
14.377404
13.886836
13.775616
13.323675
13.191454
12.75766
12.606195
12.18979
12.021712
11.62074
11.438152
11.050748
10.855446
10.479944
10.273498
9.9084278
9.6922197
9.336285
9.1115302
8.76359
8.5313602
8.1904079
7.9516484
7.6167956
7.3723416
7.0428027
6.7933934
6.4684725
6.2147633
5.8938427
5.6364163
5.3189456
5.0583222
4.7438093
4.480455
4.1684578
3.9027926
3.5929114
3.3253163
3.0171872
2.7480104
2.4412992
2.1708623
1.8652587
1.5938621
1.2890744
1.0170022
0.71275267
0.44027735
0.13629413
14.374787
13.886438
13.775632
13.323675
13.191454
12.75766
12.606195
12.18979
12.021711
11.62074
11.438152
11.050748
10.855446
10.479944
10.273498
9.9084279
9.6922196
9.3362851
9.1115301
8.7635901
8.5313601
8.190408
7.9516483
7.6167956
7.3723415
7.0428028
6.7933933
6.4684726
6.2147632
5.8938427
5.6364162
5.3189456
5.0583222
4.7438093
4.480455
4.1684578
3.9027926
3.5929114
3.3253162
3.0171872
2.7480103
2.4412992
2.1708623
1.8652587
1.5938621
1.2890745
1.0170022
0.7127527
0.44027729
0.13629441
14.371796
13.886081
13.775652
13.323672
13.191456
12.757657
12.606197
12.189788
12.021714
11.620738
11.438154
11.050746
10.855447
10.479942
10.2735
9.9084266
9.6922208
9.3362839
9.1115312
8.7635891
8.5313611
8.1904071
7.9516492
7.6167948
7.3723423
7.042802
6.793394
6.468472
6.2147638
5.8938421
5.6364168
5.3189451
5.0583227
4.7438089
4.4804554
4.1684574
3.902793
3.592911
3.3253166
3.0171868
2.7480107
2.4412989
2.1708626
1.8652584
1.5938624
1.2890742
1.0170025
0.71275241
0.44027755
0.13629435
14.368944
13.88575
13.77567
13.323671
13.191459
12.757654
12.606199
12.189786
12.021716
11.620736
11.438155
11.050744
10.855449
10.479941
10.273501
9.9084252
9.6922221
9.3362828
9.1115324
8.763588
8.5313621
8.1904061
7.9516501
7.616794
7.3723431
7.0428013
6.7933947
6.4684713
6.2147644
5.8938416
5.6364173
5.3189446
5.0583231
4.7438084
4.4804559
4.168457
3.9027934
3.5929107
3.325317
3.0171865
2.748011
2.4412985
2.1708629
1.8652581
1.5938627
1.2890739
1.0170028
0.71275212
0.44027782
0.13629426
14.366266
13.885435
13.775684
13.32367
13.191462
12.757652
12.606201
12.189784
12.021717
11.620734
11.438157
11.050743
10.85545
10.47994
10.273502
9.9084241
9.6922231
9.3362818
9.1115333
8.7635872
8.5313629
8.1904054
7.9516508
7.6167933
7.3723437
7.0428007
6.7933952
6.4684708
6.2147649
5.8938411
5.6364178
5.3189442
5.0583235
4.743808
4.4804562
4.1684566
3.9027937
3.5929103
3.3253173
3.0171862
2.7480113
2.4412983
2.1708632
1.8652578
1.5938629
1.2890736
1.017003
0.71275188
0.44027806
0.13629418
14.363708
13.885134
13.775694
13.32367
13.191465
12.75765
12.606203
12.189782
12.021719
11.620733
11.438158
11.050742
10.855451
10.479939
10.273503
9.9084232
9.692224
9.336281
9.111534
8.7635864
8.5313635
8.1904047
7.9516514
7.6167928
7.3723443
7.0428002
6.7933957
6.4684703
6.2147653
5.8938407
5.6364182
5.3189438
5.0583239
4.7438077
4.4804566
4.1684563
3.902794
3.5929101
3.3253175
3.0171859
2.7480116
2.441298
2.1708634
1.8652576
1.5938631
1.2890734
1.0170032
0.71275166
0.44027826
0.13629412
14.361251
13.884849
13.775702
13.323669
13.191467
12.757648
12.606204
12.189781
12.02172
11.620732
11.438159
11.050741
10.855452
10.479938
10.273504
9.9084223
9.6922248
9.3362802
9.1115347
8.7635858
8.5313642
8.1904041
7.9516519
7.6167922
7.3723447
7.0427998
6.7933961
6.4684699
6.2147657
5.8938403
5.6364185
5.3189435
5.0583242
4.7438074
4.4804568
4.1684561
3.9027943
3.5929098
3.3253178
3.0171857
2.7480118
2.4412978
2.1708636
1.8652574
1.5938633
1.2890732
1.0170034
0.71275147
0.44027845
0.13629405
14.358897
13.884578
13.775709
13.323667
13.191469
12.757647
12.606206
12.18978
12.021721
11.620731
11.43816
11.05074
10.855453
10.479937
10.273505
9.9084215
9.6922255
9.3362795
9.1115354
8.7635852
8.5313647
8.1904036
7.9516524
7.6167918
7.3723452
7.0427993
6.7933965
6.4684695
6.2147661
5.89384
5.6364188
5.3189432
5.0583245
4.7438071
4.4804571
4.1684558
3.9027945
3.5929096
3.325318
3.0171855
2.748012
2.4412976
2.1708638
1.8652572
1.5938635
1.289073
1.0170036
0.71275129
0.44027863
0.13629399
14.356644
13.884323
13.775714
13.323666
13.191471
12.757645
12.606207
12.189779
12.021722
11.62073
11.438161
11.050739
10.855454
10.479936
10.273506
9.9084208
9.6922262
9.3362789
9.111536
8.7635846
8.5313653
8.1904031
7.9516529
7.6167913
7.3723456
7.0427989
6.7933969
6.4684692
6.2147664
5.8938397
5.6364191
5.3189429
5.0583247
4.7438069
4.4804573
4.1684556
3.9027947
3.5929094
3.3253182
3.0171853
2.7480122
2.4412974
2.170864
1.865257
1.5938637
1.2890729
1.0170037
0.71275112
0.4402788
0.13629392
14.354492
13.884081
13.775718
13.323664
13.191471
12.757644
12.606208
12.189777
12.021723
11.620729
11.438162
11.050738
10.855455
10.479935
10.273506
9.9084201
9.6922268
9.3362783
9.1115365
8.7635841
8.5313657
8.1904027
7.9516533
7.6167909
7.372346
7.0427986
6.7933972
6.4684689
6.2147667
5.8938394
5.6364194
5.3189427
5.058325
4.7438067
4.4804576
4.1684554
3.9027949
3.5929092
3.3253184
3.0171851
2.7480123
2.4412973
2.1708642
1.8652569
1.5938638
1.2890727
1.0170039
0.71275097
0.44027896
0.13629385
14.35244
13.883852
13.77572
13.323664
13.191472
12.757643
12.606209
12.189777
12.021724
11.620728
11.438163
11.050737
10.855456
10.479934
10.273507
9.9084195
9.6922274
9.3362778
9.111537
8.7635836
8.5313662
8.1904022
7.9516537
7.6167906
7.3723463
7.0427983
6.7933975
6.4684686
6.214767
5.8938391
5.6364196
5.3189424
5.0583252
4.7438064
4.4804578
4.1684552
3.9027951
3.592909
3.3253185
3.017185
2.7480125
2.4412971
2.1708643
1.8652567
1.593864
1.2890726
1.017004
0.71275082
0.44027911
0.13629378
14.350487
13.883632
13.775723
13.323664
13.191472
12.757642
12.60621
12.189776
12.021725
11.620727
11.438164
11.050736
10.855457
10.479934
10.273508
9.908419
9.6922279
9.3362773
9.1115375
8.7635832
8.5313666
8.1904018
7.9516541
7.6167902
7.3723467
7.0427979
6.7933978
6.4684683
6.2147672
5.8938389
5.6364199
5.3189422
5.0583254
4.7438063
4.4804579
4.168455
3.9027953
3.5929089
3.3253187
3.0171848
2.7480126
2.441297
2.1708644
1.8652566
1.5938641
1.2890724
1.0170042
0.71275069
0.44027926
0.13629371
14.348632
13.883423
13.775727
13.323664
13.191471
12.757641
12.606211
12.189775
12.021726
11.620726
11.438165
11.050736
10.855457
10.479933
10.273508
9.9084184
9.6922284
9.3362768
9.1115379
8.7635828
8.531367
8.1904015
7.9516544
7.6167899
7.372347
7.0427977
6.7933981
6.4684681
6.2147675
5.8938387
5.6364201
5.318942
5.0583256
4.7438061
4.4804581
4.1684549
3.9027954
3.5929087
3.3253188
3.0171847
2.7480128
2.4412968
2.1708646
1.8652565
1.5938642
1.2890723
1.0170043
0.71275057
0.44027939
0.13629364
14.346873
13.883238
13.775725
13.323663
13.19147
12.75764
12.606212
12.189774
12.021727
11.620725
11.438165
11.050735
10.855458
10.479933
10.273509
9.908418
9.6922289
9.3362764
9.1115383
8.7635824
8.5313673
8.1904011
7.9516547
7.6167896
7.3723472
7.0427974
6.7933984
6.4684678
6.2147677
5.8938385
5.6364203
5.3189418
5.0583258
4.7438059
4.4804583
4.1684547
3.9027956
3.5929086
3.325319
3.0171846
2.7480129
2.4412967
2.1708647
1.8652564
1.5938644
1.2890722
1.0170044
0.71275045
0.44027952
0.13629357
14.345206
13.883109
13.775691
13.323655
13.191467
12.757639
12.606213
12.189773
12.021728
11.620725
11.438166
11.050734
10.855458
10.479932
10.273509
9.9084175
9.6922293
9.336276
9.1115387
8.763582
8.5313677
8.1904008
7.951655
7.6167893
7.3723475
7.0427972
6.7933986
6.4684676
6.2147679
5.8938383
5.6364205
5.3189416
5.058326
4.7438057
4.4804584
4.1684546
3.9027957
3.5929084
3.3253191
3.0171844
2.748013
2.4412966
2.1708648
1.8652563
1.5938645
1.2890721
1.0170045
0.71275034
0.44027964
0.13629351
14.343628
13.883055
13.7756
13.323639
13.191463
12.757637
12.606214
12.189773
12.021728
11.620724
11.438167
11.050734
10.855459
10.479932
10.27351
9.9084171
9.6922297
9.3362756
9.1115391
8.7635817
8.531368
8.1904005
7.9516553
7.6167891
7.3723477
7.0427969
6.7933988
6.4684674
6.2147681
5.8938381
5.6364206
5.3189415
5.0583261
4.7438056
4.4804586
4.1684544
3.9027958
3.5929083
3.3253192
3.0171843
2.7480131
2.4412965
2.1708649
1.8652562
1.5938646
1.289072
1.0170046
0.71275024
0.44027976
0.13629344
14.342144
13.883006
13.775497
13.323625
13.191459
12.757636
12.606214
12.189772
12.021729
11.620724
11.438167
11.050733
10.855459
10.479931
10.27351
9.9084167
9.6922301
9.3362752
9.1115394
8.7635814
8.5313683
8.1904003
7.9516556
7.6167888
7.372348
7.0427967
6.793399
6.4684672
6.2147683
5.8938379
5.6364208
5.3189413
5.0583262
4.7438055
4.4804587
4.1684543
3.902796
3.5929082
3.3253193
3.0171842
2.7480132
2.4412964
2.170865
1.8652561
1.5938647
1.2890719
1.0170047
0.71275015
0.44027986
0.13629338
14.340755
13.882873
13.775457
13.323623
13.191457
12.757636
12.606215
12.189772
12.02173
11.620723
11.438168
11.050733
10.85546
10.479931
10.273511
9.9084163
9.6922304
9.3362749
9.1115397
8.7635811
8.5313685
8.1904
7.9516558
7.6167886
7.3723482
7.0427965
6.7933992
6.468467
6.2147684
5.8938378
5.6364209
5.3189412
5.0583264
4.7438053
4.4804588
4.1684542
3.9027961
3.5929081
3.3253194
3.0171841
2.7480133
2.4412963
2.1708651
1.865256
1.5938647
1.2890718
1.0170048
0.71275006
0.44027997
0.13629331
14.339459
13.882676
13.775475
13.323629
13.191457
12.757636
12.606216
12.189771
12.02173
11.620723
11.438168
11.050733
10.85546
10.47993
10.273511
9.908416
9.6922307
9.3362746
9.11154
8.7635808
8.5313688
8.1903998
7.951656
7.6167884
7.3723484
7.0427963
6.7933994
6.4684669
6.2147686
5.8938376
5.6364211
5.3189411
5.0583265
4.7438052
4.4804589
4.1684541
3.9027962
3.592908
3.3253195
3.017184
2.7480134
2.4412962
2.1708652
1.8652559
1.5938648
1.2890717
1.0170049
0.71274998
0.44028006
0.13629325
14.338256
13.882481
13.775504
13.323632
13.191457
12.757635
12.606217
12.189771
12.021731
11.620722
11.438169
11.050732
10.855461
10.47993
10.273511
9.9084157
9.692231
9.3362744
9.1115402
8.7635806
8.531369
8.1903996
7.9516562
7.6167882
7.3723485
7.0427962
6.7933995
6.4684667
6.2147687
5.8938375
5.6364212
5.3189409
5.0583266
4.7438051
4.480459
4.168454
3.9027963
3.5929079
3.3253196
3.0171839
2.7480135
2.4412961
2.1708653
1.8652558
1.5938649
1.2890717
1.0170049
0.71274991
0.44028015
0.1362932
14.337141
13.882314
13.775525
13.323629
13.191457
12.757635
12.606217
12.18977
12.021731
11.620722
11.438169
11.050732
10.855461
10.47993
10.273512
9.9084154
9.6922313
9.3362741
9.1115405
8.7635804
8.5313692
8.1903994
7.9516564
7.616788
7.3723487
7.042796
6.7933997
6.4684666
6.2147689
5.8938374
5.6364213
5.3189408
5.0583267
4.743805
4.4804591
4.1684539
3.9027963
3.5929078
3.3253197
3.0171839
2.7480136
2.4412961
2.1708653
1.8652557
1.593865
1.2890716
1.017005
0.71274984
0.44028023
0.13629314
14.336107
13.882175
13.775538
13.323621
13.191457
12.757635
12.606218
12.18977
12.021732
11.620721
11.438169
11.050731
10.855461
10.479929
10.273512
9.9084151
9.6922315
9.3362739
9.1115407
8.7635802
8.5313694
8.1903992
7.9516566
7.6167879
7.3723489
7.0427959
6.7933998
6.4684665
6.214769
5.8938372
5.6364214
5.3189407
5.0583268
4.7438049
4.4804592
4.1684538
3.9027964
3.5929077
3.3253198
3.0171838
2.7480136
2.441296
2.1708654
1.8652557
1.593865
1.2890715
1.0170051
0.71274977
0.44028031
0.13629309
14.335152
13.882055
13.775545
13.323612
13.191456
12.757635
12.606219
12.18977
12.021732
11.620721
11.43817
11.050731
10.855462
10.479929
10.273512
9.9084149
9.6922318
9.3362736
9.1115409
8.76358
8.5313696
8.190399
7.9516567
7.6167877
7.372349
7.0427957
6.7933999
6.4684663
6.2147691
5.8938371
5.6364215
5.3189406
5.0583269
4.7438048
4.4804593
4.1684537
3.9027965
3.5929077
3.3253198
3.0171837
2.7480137
2.4412959
2.1708655
1.8652556
1.5938651
1.2890715
1.0170051
0.71274971
0.44028038
0.13629303
14.334271
13.881949
13.775545
13.323605
13.191457
12.757635
12.60622
12.189769
12.021733
11.620721
11.43817
11.050731
10.855462
10.479929
10.273512
9.9084146
9.692232
9.3362734
9.1115411
8.7635798
8.5313698
8.1903989
7.9516569
7.6167876
7.3723491
7.0427956
6.7934
6.4684662
6.2147692
5.893837
5.6364216
5.3189405
5.058327
4.7438047
4.4804594
4.1684537
3.9027966
3.5929076
3.3253199
3.0171837
2.7480138
2.4412959
2.1708655
1.8652556
1.5938651
1.2890714
1.0170052
0.71274966
0.44028045
0.13629299
14.333464
13.881855
13.775537
13.323602
13.191458
12.757636
12.60622
12.189769
12.021733
11.62072
11.43817
11.050731
10.855462
10.479929
10.273513
9.9084144
9.6922322
9.3362732
9.1115413
8.7635796
8.5313699
8.1903987
7.951657
7.6167874
7.3723493
7.0427955
6.7934002
6.4684661
6.2147693
5.8938369
5.6364217
5.3189404
5.0583271
4.7438047
4.4804594
4.1684536
3.9027966
3.5929075
3.32532
3.0171836
2.7480138
2.4412958
2.1708656
1.8652555
1.5938652
1.2890714
1.0170052
0.71274961
0.44028051
0.13629294
14.332726
13.881772
13.775522
13.323604
13.19146
12.757636
12.606221
12.189769
12.021733
11.62072
11.438171
11.05073
10.855462
10.479928
10.273513
9.9084142
9.6922324
9.3362731
9.1115415
8.7635795
8.5313701
8.1903986
7.9516572
7.6167873
7.3723494
7.0427954
6.7934003
6.468466
6.2147694
5.8938368
5.6364218
5.3189404
5.0583272
4.7438046
4.4804595
4.1684535
3.9027967
3.5929075
3.32532
3.0171835
2.7480139
2.4412958
2.1708656
1.8652555
1.5938652
1.2890713
1.0170053
0.71274956
0.44028057
0.1362929
14.332057
13.881697
13.775503
13.32361
13.191462
12.757637
12.606222
12.189769
12.021734
11.62072
11.438171
11.05073
10.855463
10.479928
10.273513
9.908414
9.6922326
9.3362729
9.1115416
8.7635793
8.5313702
8.1903984
7.9516573
7.6167872
7.3723495
7.0427953
6.7934004
6.4684659
6.2147695
5.8938368
5.6364219
5.3189403
5.0583272
4.7438045
4.4804596
4.1684535
3.9027968
3.5929074
3.3253201
3.0171835
2.7480139
2.4412957
2.1708657
1.8652554
1.5938653
1.2890713
1.0170053
0.71274952
0.44028062
0.13629286
14.331454
13.881631
13.775481
13.323618
13.191463
12.757637
12.606222
12.189769
12.021734
11.62072
11.438171
11.05073
10.855463
10.479928
10.273513
9.9084139
9.6922327
9.3362728
9.1115417
8.7635792
8.5313703
8.1903983
7.9516574
7.6167871
7.3723496
7.0427952
6.7934004
6.4684659
6.2147696
5.8938367
5.6364219
5.3189402
5.0583273
4.7438045
4.4804596
4.1684534
3.9027968
3.5929074
3.3253201
3.0171835
2.748014
2.4412957
2.1708657
1.8652554
1.5938653
1.2890712
1.0170053
0.71274949
0.44028066
0.13629282
14.330915
13.881569
13.775458
13.323629
13.191464
12.757637
12.606223
12.189768
12.021734
11.620719
11.438171
11.05073
10.855463
10.479928
10.273513
9.9084137
9.6922329
9.3362726
9.1115419
8.7635791
8.5313704
8.1903982
7.9516575
7.616787
7.3723497
7.0427951
6.7934005
6.4684658
6.2147696
5.8938366
5.636422
5.3189402
5.0583273
4.7438044
4.4804597
4.1684534
3.9027969
3.5929073
3.3253201
3.0171834
2.748014
2.4412956
2.1708657
1.8652553
1.5938654
1.2890712
1.0170054
0.71274946
0.4402807
0.13629279
14.330439
13.881511
13.775434
13.323641
13.191464
12.757637
12.606223
12.189768
12.021735
11.620719
11.438172
11.050729
10.855463
10.479928
10.273513
9.9084136
9.692233
9.3362725
9.111542
8.763579
8.5313705
8.1903981
7.9516576
7.6167869
7.3723497
7.042795
6.7934006
6.4684657
6.2147697
5.8938366
5.636422
5.3189401
5.0583274
4.7438044
4.4804597
4.1684533
3.9027969
3.5929073
3.3253202
3.0171834
2.748014
2.4412956
2.1708658
1.8652553
1.5938654
1.2890712
1.0170054
0.71274943
0.44028074
0.13629276
14.330025
13.881454
13.77541
13.323654
13.191462
12.757637
12.606223
12.189768
12.021735
11.620719
11.438172
11.050729
10.855463
10.479928
10.273514
9.9084134
9.6922331
9.3362724
9.1115421
8.7635789
8.5313706
8.190398
7.9516577
7.6167869
7.3723498
7.042795
6.7934006
6.4684657
6.2147697
5.8938365
5.6364221
5.3189401
5.0583274
4.7438043
4.4804598
4.1684533
3.9027969
3.5929073
3.3253202
3.0171833
2.7480141
2.4412956
2.1708658
1.8652553
1.5938654
1.2890712
1.0170054
0.7127494
0.44028076
0.13629274
14.329672
13.881397
13.775387
13.323667
13.191461
12.757636
12.606223
12.189768
12.021735
11.620719
11.438172
11.050729
10.855463
10.479927
10.273514
9.9084133
9.6922332
9.3362723
9.1115422
8.7635788
8.5313707
8.190398
7.9516577
7.6167868
7.3723499
7.0427949
6.7934007
6.4684656
6.2147698
5.8938365
5.6364221
5.31894
5.0583275
4.7438043
4.4804598
4.1684532
3.902797
3.5929072
3.3253202
3.0171833
2.7480141
2.4412956
2.1708658
1.8652553
1.5938654
1.2890711
1.0170055
0.71274939
0.44028078
0.13629272
14.329379
13.881337
13.775366
13.323673
13.191463
12.757637
12.606223
12.189768
12.021735
11.620719
11.438172
11.050729
10.855463
10.479927
10.273514
9.9084133
9.6922333
9.3362722
9.1115422
8.7635787
8.5313708
8.1903979
7.9516578
7.6167867
7.3723499
7.0427949
6.7934007
6.4684656
6.2147698
5.8938364
5.6364222
5.31894
5.0583275
4.7438043
4.4804598
4.1684532
3.902797
3.5929072
3.3253203
3.0171833
2.7480141
2.4412955
2.1708658
1.8652552
1.5938655
1.2890711
1.0170055
0.71274937
0.4402808
0.1362927
14.329148
13.881271
13.77535
13.323667
13.191469
12.757639
12.606224
12.189768
12.021735
11.620719
11.438172
11.050729
10.855464
10.479927
10.273514
9.9084132
9.6922334
9.3362721
9.1115423
8.7635787
8.5313708
8.1903979
7.9516578
7.6167867
7.37235
7.0427948
6.7934008
6.4684655
6.2147699
5.8938364
5.6364222
5.31894
5.0583275
4.7438042
4.4804599
4.1684532
3.902797
3.5929072
3.3253203
3.0171833
2.7480141
2.4412955
2.1708659
1.8652552
1.5938655
1.2890711
1.0170055
0.71274936
0.4402808
0.13629269
14.328978
13.881199
13.775335
13.323654
13.191477
12.757643
12.606225
12.189768
12.021735
11.620719
11.438172
11.050729
10.855464
10.479927
10.273514
9.9084131
9.6922334
9.3362721
9.1115424
8.7635786
8.5313709
8.1903978
7.9516579
7.6167866
7.37235
7.0427948
6.7934008
6.4684655
6.2147699
5.8938364
5.6364222
5.3189399
5.0583276
4.7438042
4.4804599
4.1684532
3.902797
3.5929072
3.3253203
3.0171833
2.7480141
2.4412955
2.1708659
1.8652552
1.5938655
1.2890711
1.0170055
0.71274936
0.4402808
0.13629268
14.328869
13.881123
13.775321
13.323642
13.191484
12.757645
12.606226
12.189768
12.021736
11.620719
11.438172
11.050729
10.855464
10.479927
10.273514
9.9084131
9.6922335
9.336272
9.1115424
8.7635786
8.5313709
8.1903978
7.9516579
7.6167866
7.37235
7.0427948
6.7934008
6.4684655
6.2147699
5.8938364
5.6364223
5.3189399
5.0583276
4.7438042
4.4804599
4.1684532
3.902797
3.5929072
3.3253203
3.0171832
2.7480142
2.4412955
2.1708659
1.8652552
1.5938655
1.2890711
1.0170055
0.71274936
0.44028079
0.13629267
14.328817
13.881047
13.775305
13.323634
13.191488
12.757648
12.606227
12.189768
12.021736
11.620719
11.438172
11.050729
10.855464
10.479927
10.273514
9.908413
9.6922335
9.336272
9.1115424
8.7635785
8.531371
8.1903978
7.9516579
7.6167866
7.3723501
7.0427947
6.7934009
6.4684655
6.2147699
5.8938363
5.6364223
5.3189399
5.0583276
4.7438042
4.4804599
4.1684532
3.902797
3.5929072
3.3253203
3.0171832
2.7480142
2.4412955
2.1708659
1.8652552
1.5938655
1.2890711
1.0170055
0.71274937
0.44028078
0.13629267
14.328806
13.880983
13.775292
13.323631
13.191489
12.757649
12.606227
12.189768
12.021736
11.620718
11.438172
11.050729
10.855464
10.479927
10.273514
9.908413
9.6922335
9.336272
9.1115425
8.7635785
8.531371
8.1903977
7.951658
7.6167866
7.3723501
7.0427947
6.7934009
6.4684654
6.21477
5.8938363
5.6364223
5.3189399
5.0583276
4.7438042
4.4804599
4.1684532
3.9027971
3.5929071
3.3253203
3.0171832
2.7480142
2.4412955
2.1708659
1.8652552
1.5938655
1.2890711
1.0170055
0.71274938
0.44028077
0.13629267
14.32881
13.880946
13.775283
13.323629
13.191489
12.75765
12.606227
12.189768
12.021736
11.620718
11.438172
11.050729
10.855464
10.479927
10.273514
9.908413
9.6922335
9.336272
9.1115425
8.7635785
8.531371
8.1903977
7.951658
7.6167866
7.3723501
7.0427947
6.7934009
6.4684654
6.21477
5.8938363
5.6364223
5.3189399
5.0583276
4.7438042
4.4804599
4.1684532
3.9027971
3.5929071
3.3253203
3.0171832
2.7480142
2.4412955
2.1708659
1.8652552
1.5938655
1.2890711
1.0170055
0.71274938
0.44028076
0.13629267
14.32881
13.880946
13.775283
13.323629
13.191489
12.75765
12.606227
12.189768
12.021736
11.620718
11.438172
11.050729
10.855464
10.479927
10.273514
9.908413
9.6922335
9.336272
9.1115425
8.7635785
8.531371
8.1903977
7.951658
7.6167866
7.3723501
7.0427947
6.7934009
6.4684654
6.21477
5.8938363
5.6364223
5.3189399
5.0583276
4.7438042
4.4804599
4.1684532
3.9027971
3.5929071
3.3253203
3.0171832
2.7480142
2.4412955
2.1708659
1.8652552
1.5938655
1.2890711
1.0170055
0.71274938
0.44028076
0.13629267
14.328805
13.880984
13.775292
13.323631
13.191489
12.757649
12.606227
12.189768
12.021736
11.620718
11.438172
11.050729
10.855464
10.479927
10.273514
9.908413
9.6922335
9.336272
9.1115425
8.7635785
8.531371
8.1903977
7.951658
7.6167866
7.3723501
7.0427947
6.7934009
6.4684654
6.21477
5.8938363
5.6364223
5.3189399
5.0583276
4.7438042
4.4804599
4.1684532
3.9027971
3.5929071
3.3253203
3.0171832
2.7480142
2.4412955
2.1708659
1.8652552
1.5938655
1.2890711
1.0170055
0.71274938
0.44028077
0.13629267
14.328816
13.881048
13.775305
13.323634
13.191488
12.757648
12.606227
12.189768
12.021736
11.620719
11.438172
11.050729
10.855464
10.479927
10.273514
9.908413
9.6922335
9.336272
9.1115424
8.7635785
8.531371
8.1903978
7.9516579
7.6167866
7.3723501
7.0427947
6.7934009
6.4684655
6.2147699
5.8938363
5.6364223
5.3189399
5.0583276
4.7438042
4.4804599
4.1684532
3.902797
3.5929072
3.3253203
3.0171832
2.7480142
2.4412955
2.1708659
1.8652552
1.5938655
1.2890711
1.0170055
0.71274937
0.44028078
0.13629267
14.328868
13.881124
13.775321
13.323642
13.191484
12.757645
12.606226
12.189768
12.021736
11.620719
11.438172
11.050729
10.855464
10.479927
10.273514
9.9084131
9.6922335
9.336272
9.1115424
8.7635786
8.5313709
8.1903978
7.9516579
7.6167866
7.37235
7.0427948
6.7934008
6.4684655
6.2147699
5.8938364
5.6364223
5.3189399
5.0583276
4.7438042
4.4804599
4.1684532
3.902797
3.5929072
3.3253203
3.0171832
2.7480142
2.4412955
2.1708659
1.8652552
1.5938655
1.2890711
1.0170055
0.71274936
0.44028079
0.13629267
14.328976
13.881201
13.775335
13.323654
13.191477
12.757643
12.606225
12.189768
12.021735
11.620719
11.438172
11.050729
10.855464
10.479927
10.273514
9.9084131
9.6922334
9.3362721
9.1115424
8.7635786
8.5313709
8.1903978
7.9516579
7.6167866
7.37235
7.0427948
6.7934008
6.4684655
6.2147699
5.8938364
5.6364222
5.3189399
5.0583276
4.7438042
4.4804599
4.1684532
3.902797
3.5929072
3.3253203
3.0171833
2.7480141
2.4412955
2.1708659
1.8652552
1.5938655
1.2890711
1.0170055
0.71274936
0.4402808
0.13629268
14.329146
13.881273
13.77535
13.323667
13.191469
12.757639
12.606224
12.189768
12.021735
11.620719
11.438172
11.050729
10.855464
10.479927
10.273514
9.9084132
9.6922334
9.3362721
9.1115423
8.7635787
8.5313708
8.1903979
7.9516578
7.6167867
7.37235
7.0427948
6.7934008
6.4684655
6.2147699
5.8938364
5.6364222
5.31894
5.0583275
4.7438042
4.4804599
4.1684532
3.902797
3.5929072
3.3253203
3.0171833
2.7480141
2.4412955
2.1708659
1.8652552
1.5938655
1.2890711
1.0170055
0.71274936
0.4402808
0.13629269
14.329377
13.881339
13.775366
13.323673
13.191463
12.757637
12.606223
12.189768
12.021735
11.620719
11.438172
11.050729
10.855463
10.479927
10.273514
9.9084133
9.6922333
9.3362722
9.1115422
8.7635787
8.5313708
8.1903979
7.9516578
7.6167867
7.3723499
7.0427949
6.7934007
6.4684656
6.2147698
5.8938364
5.6364222
5.31894
5.0583275
4.7438043
4.4804598
4.1684532
3.902797
3.5929072
3.3253203
3.0171833
2.7480141
2.4412955
2.1708658
1.8652552
1.5938655
1.2890711
1.0170055
0.71274937
0.4402808
0.1362927
14.329669
13.8814
13.775387
13.323667
13.191461
12.757636
12.606223
12.189768
12.021735
11.620719
11.438172
11.050729
10.855463
10.479927
10.273514
9.9084133
9.6922332
9.3362723
9.1115422
8.7635788
8.5313707
8.190398
7.9516577
7.6167868
7.3723499
7.0427949
6.7934007
6.4684656
6.2147698
5.8938365
5.6364221
5.31894
5.0583275
4.7438043
4.4804598
4.1684532
3.902797
3.5929072
3.3253202
3.0171833
2.7480141
2.4412956
2.1708658
1.8652553
1.5938654
1.2890711
1.0170055
0.71274939
0.44028078
0.13629272
14.330023
13.881457
13.77541
13.323654
13.191462
12.757637
12.606223
12.189768
12.021735
11.620719
11.438172
11.050729
10.855463
10.479928
10.273514
9.9084134
9.6922331
9.3362724
9.1115421
8.7635789
8.5313706
8.190398
7.9516577
7.6167869
7.3723498
7.042795
6.7934006
6.4684657
6.2147697
5.8938365
5.6364221
5.3189401
5.0583274
4.7438043
4.4804598
4.1684533
3.9027969
3.5929073
3.3253202
3.0171833
2.7480141
2.4412956
2.1708658
1.8652553
1.5938654
1.2890712
1.0170054
0.7127494
0.44028076
0.13629274
14.330436
13.881514
13.775434
13.323641
13.191464
12.757637
12.606223
12.189768
12.021735
11.620719
11.438172
11.050729
10.855463
10.479928
10.273513
9.9084136
9.692233
9.3362725
9.111542
8.763579
8.5313705
8.1903981
7.9516576
7.6167869
7.3723497
7.042795
6.7934006
6.4684657
6.2147697
5.8938366
5.636422
5.3189401
5.0583274
4.7438044
4.4804597
4.1684533
3.9027969
3.5929073
3.3253202
3.0171834
2.748014
2.4412956
2.1708658
1.8652553
1.5938654
1.2890712
1.0170054
0.71274943
0.44028074
0.13629276
14.330912
13.881572
13.775458
13.323629
13.191464
12.757637
12.606223
12.189768
12.021734
11.620719
11.438171
11.05073
10.855463
10.479928
10.273513
9.9084137
9.6922329
9.3362726
9.1115419
8.7635791
8.5313704
8.1903982
7.9516575
7.616787
7.3723497
7.0427951
6.7934005
6.4684658
6.2147696
5.8938366
5.636422
5.3189402
5.0583273
4.7438044
4.4804597
4.1684534
3.9027969
3.5929073
3.3253201
3.0171834
2.748014
2.4412956
2.1708657
1.8652553
1.5938654
1.2890712
1.0170054
0.71274946
0.4402807
0.13629279
14.33145
13.881634
13.775481
13.323618
13.191463
12.757637
12.606222
12.189769
12.021734
11.62072
11.438171
11.05073
10.855463
10.479928
10.273513
9.9084139
9.6922327
9.3362728
9.1115417
8.7635792
8.5313703
8.1903983
7.9516574
7.6167871
7.3723496
7.0427952
6.7934004
6.4684659
6.2147696
5.8938367
5.6364219
5.3189402
5.0583273
4.7438045
4.4804596
4.1684534
3.9027968
3.5929074
3.3253201
3.0171835
2.748014
2.4412957
2.1708657
1.8652554
1.5938653
1.2890712
1.0170053
0.71274949
0.44028066
0.13629282
14.332053
13.881702
13.775503
13.32361
13.191462
12.757637
12.606222
12.189769
12.021734
11.62072
11.438171
11.05073
10.855463
10.479928
10.273513
9.908414
9.6922326
9.3362729
9.1115416
8.7635793
8.5313702
8.1903984
7.9516573
7.6167872
7.3723495
7.0427953
6.7934004
6.4684659
6.2147695
5.8938368
5.6364219
5.3189403
5.0583272
4.7438045
4.4804596
4.1684535
3.9027968
3.5929074
3.3253201
3.0171835
2.7480139
2.4412957
2.1708657
1.8652554
1.5938653
1.2890713
1.0170053
0.71274952
0.44028062
0.13629286
14.332722
13.881776
13.775522
13.323604
13.19146
12.757636
12.606221
12.189769
12.021733
11.62072
11.438171
11.05073
10.855462
10.479928
10.273513
9.9084142
9.6922324
9.3362731
9.1115415
8.7635795
8.5313701
8.1903986
7.9516572
7.6167873
7.3723494
7.0427954
6.7934003
6.468466
6.2147694
5.8938368
5.6364218
5.3189404
5.0583272
4.7438046
4.4804595
4.1684535
3.9027967
3.5929075
3.32532
3.0171835
2.7480139
2.4412958
2.1708656
1.8652555
1.5938652
1.2890713
1.0170053
0.71274956
0.44028057
0.1362929
14.333459
13.88186
13.775537
13.323602
13.191458
12.757636
12.60622
12.189769
12.021733
11.62072
11.43817
11.050731
10.855462
10.479929
10.273513
9.9084144
9.6922322
9.3362732
9.1115413
8.7635796
8.5313699
8.1903987
7.951657
7.6167874
7.3723493
7.0427955
6.7934002
6.4684661
6.2147693
5.8938369
5.6364217
5.3189404
5.0583271
4.7438047
4.4804594
4.1684536
3.9027966
3.5929075
3.32532
3.0171836
2.7480138
2.4412958
2.1708656
1.8652555
1.5938652
1.2890714
1.0170052
0.71274961
0.44028051
0.13629294
14.334266
13.881954
13.775545
13.323605
13.191457
12.757635
12.60622
12.189769
12.021733
11.620721
11.43817
11.050731
10.855462
10.479929
10.273512
9.9084146
9.692232
9.3362734
9.1115411
8.7635798
8.5313698
8.1903989
7.9516569
7.6167876
7.3723491
7.0427956
6.7934
6.4684662
6.2147692
5.893837
5.6364216
5.3189405
5.058327
4.7438047
4.4804594
4.1684537
3.9027966
3.5929076
3.3253199
3.0171837
2.7480138
2.4412959
2.1708655
1.8652556
1.5938651
1.2890714
1.0170052
0.71274966
0.44028045
0.13629299
14.335146
13.88206
13.775545
13.323612
13.191456
12.757635
12.606219
12.18977
12.021732
11.620721
11.43817
11.050731
10.855462
10.479929
10.273512
9.9084149
9.6922318
9.3362736
9.1115409
8.76358
8.5313696
8.190399
7.9516567
7.6167877
7.372349
7.0427957
6.7933999
6.4684663
6.2147691
5.8938371
5.6364215
5.3189406
5.0583269
4.7438048
4.4804593
4.1684537
3.9027965
3.5929077
3.3253198
3.0171837
2.7480137
2.4412959
2.1708655
1.8652556
1.5938651
1.2890715
1.0170051
0.71274971
0.44028038
0.13629303
14.336102
13.882181
13.775538
13.323621
13.191457
12.757635
12.606218
12.18977
12.021732
11.620721
11.438169
11.050731
10.855461
10.479929
10.273512
9.9084151
9.6922315
9.3362739
9.1115407
8.7635802
8.5313694
8.1903992
7.9516566
7.6167879
7.3723489
7.0427959
6.7933998
6.4684665
6.214769
5.8938372
5.6364214
5.3189407
5.0583268
4.7438049
4.4804592
4.1684538
3.9027964
3.5929077
3.3253198
3.0171838
2.7480136
2.441296
2.1708654
1.8652557
1.593865
1.2890715
1.0170051
0.71274977
0.44028031
0.13629309
14.337135
13.882321
13.775525
13.323629
13.191457
12.757635
12.606217
12.18977
12.021731
11.620722
11.438169
11.050732
10.855461
10.47993
10.273512
9.9084154
9.6922313
9.3362741
9.1115405
8.7635804
8.5313692
8.1903994
7.9516564
7.616788
7.3723487