/*--------------------------------*- C++ -*----------------------------------*\
| =========                 |                                                 |
| \\      /  F ield         | OpenFOAM: The Open Source CFD Toolbox           |
|  \\    /   O peration     | Version:  2312                                  |
|   \\  /    A nd           | Website:  www.openfoam.com                      |
|    \\/     M anipulation  |                                                 |
\*---------------------------------------------------------------------------*/
FoamFile
{
    version     2.0;
    format      ascii;
    arch        "LSB;label=32;scalar=64";
    class       surfaceScalarField;
    location    "5";
    object      phi;
}
// * * * * * * * * * * * * * * * * * * * * * * * * * * * * * * * * * * * * * //

dimensions      [0 3 -1 0 0 0 0];

oriented        oriented;

internalField   nonuniform List<scalar> 
7870
(
5.3029575e-11
1.2932204e-09
5.1925666e-11
1.1039088e-12
5.1958487e-11
-3.2820455e-14
5.1215329e-11
7.4315815e-13
5.2052871e-11
-8.3754185e-13
5.1284623e-11
7.6824797e-13
5.2023482e-11
-7.3885892e-13
5.1334583e-11
6.8889906e-13
5.1983002e-11
-6.4841908e-13
5.1375739e-11
6.0726222e-13
5.1945616e-11
-5.6987646e-13
5.1411255e-11
5.3436063e-13
5.1912571e-11
-5.0131645e-13
5.1442282e-11
4.7028924e-13
5.1883568e-11
-4.4128606e-13
5.1469445e-11
4.1412303e-13
5.1858158e-11
-3.887128e-13
5.149322e-11
3.6493754e-13
5.1835919e-11
-3.4269895e-13
5.1514013e-11
3.2190662e-13
5.1816479e-11
-3.0246617e-13
5.1532174e-11
2.8430491e-13
5.1799509e-11
-2.673353e-13
5.1548011e-11
2.5149817e-13
5.1784724e-11
-2.3671349e-13
5.1561791e-11
2.2293288e-13
5.1771875e-11
-2.1008393e-13
5.1573748e-11
1.9812696e-13
5.1760745e-11
-1.8699709e-13
5.1584084e-11
1.7666169e-13
5.1751147e-11
-1.6706316e-13
5.1592972e-11
1.5817463e-13
5.1742918e-11
-1.499455e-13
5.1600564e-11
1.4235359e-13
5.1735919e-11
-1.3535498e-13
5.1606988e-11
1.2893137e-13
5.1730033e-11
-1.2304511e-13
5.1612352e-11
1.1768121e-13
5.172516e-11
-1.1280789e-13
5.1616747e-11
1.0841298e-13
5.1721217e-11
-1.0447026e-13
5.1620247e-11
1.0096998e-13
5.1718138e-11
-9.7891207e-14
5.1622912e-11
9.5226321e-14
5.1715871e-11
-9.2958877e-14
5.1624785e-11
9.108581e-14
5.1714382e-11
-8.9597246e-14
5.1626024e-11
8.8357784e-14
5.1714683e-11
-8.8658837e-14
8.5109939e-14
1.4950851e-10
2.4899619e-09
1.5083375e-10
-2.2132302e-13
1.5025907e-10
5.4185567e-13
1.4930112e-10
1.7011124e-12
1.5050771e-10
-2.044138e-12
1.4943331e-10
1.842647e-12
1.5049373e-10
-1.7992738e-12
1.4951109e-10
1.6715382e-12
1.5043933e-10
-1.5766631e-12
1.495712e-10
1.4753906e-12
1.5038642e-10
-1.3850934e-12
1.4962226e-10
1.2985271e-12
1.5033929e-10
-1.218354e-12
1.4966671e-10
1.1428748e-12
1.5029786e-10
-1.0724443e-12
1.497056e-10
1.0063923e-12
1.5026156e-10
-9.4467382e-13
1.4973963e-10
8.8686605e-13
1.5022978e-10
-8.3284698e-13
1.4976939e-10
7.8229444e-13
1.5020199e-10
-7.3507019e-13
1.4979538e-10
6.9091617e-13
1.5017774e-10
-6.4969269e-13
1.4981805e-10
6.1119035e-13
1.5015661e-10
-5.7527366e-13
1.4983777e-10
5.4177196e-13
1.5013824e-10
-5.1055704e-13
1.4985488e-10
4.8148947e-13
1.5012233e-10
-4.5445027e-13
1.4986967e-10
4.2932526e-13
1.5010861e-10
-4.0600596e-13
1.4988239e-10
3.8439859e-13
1.5009685e-10
-3.644059e-13
1.4989325e-10
3.4595077e-13
1.5008684e-10
-3.289474e-13
1.4990244e-10
3.1333239e-13
1.5007843e-10
-2.9903136e-13
1.4991012e-10
2.8599238e-13
1.5007146e-10
-2.7415218e-13
1.499164e-10
2.634686e-13
1.5006582e-10
-2.5388916e-13
1.4992141e-10
2.4538002e-13
1.5006142e-10
-2.3789923e-13
1.4992523e-10
2.3142014e-13
1.5005818e-10
-2.2590909e-13
1.4992791e-10
2.2135616e-13
1.5005604e-10
-2.1772599e-13
1.4992973e-10
2.1466697e-13
1.5005738e-10
-2.1631515e-13
2.0606021e-13
2.4293613e-10
3.5932758e-09
2.4726966e-10
-4.5548507e-12
2.4583621e-10
1.9752993e-12
2.4509526e-10
2.4420663e-12
2.4623134e-10
-3.1802212e-12
2.4526125e-10
2.8127414e-12
2.4625637e-10
-2.7943911e-12
2.4534197e-10
2.5859324e-12
2.4621014e-10
-2.4448358e-12
2.4539975e-10
2.285786e-12
2.4616145e-10
-2.1467931e-12
2.4544777e-10
2.0122088e-12
2.461176e-10
-1.8881847e-12
2.4548939e-10
1.7710833e-12
2.4607897e-10
-1.6620255e-12
2.4552577e-10
1.5595956e-12
2.460451e-10
-1.4640056e-12
2.4555759e-10
1.3743715e-12
2.4601544e-10
-1.2906992e-12
2.4558542e-10
1.2123196e-12
2.4598952e-10
-1.1391684e-12
2.4560972e-10
1.0707124e-12
2.4596688e-10
-1.006854e-12
2.4563091e-10
9.4716265e-13
2.4594716e-10
-8.9152305e-13
2.4564934e-10
8.3958603e-13
2.4593002e-10
-7.9122865e-13
2.4566534e-10
7.4616703e-13
2.4591517e-10
-7.0427749e-13
2.4567916e-10
6.6532865e-13
2.4590236e-10
-6.2920118e-13
2.4569105e-10
5.9570598e-13
2.4589138e-10
-5.6473164e-13
2.457012e-10
5.3612329e-13
2.4588204e-10
-5.0977976e-13
2.4570979e-10
4.8557418e-13
2.4587418e-10
-4.6341698e-13
2.4571697e-10
4.4320454e-13
2.4586768e-10
-4.2485957e-13
2.4572285e-10
4.0829802e-13
2.4586241e-10
-3.9345519e-13
2.4572753e-10
3.8026359e-13
2.458583e-10
-3.6867137e-13
2.457311e-10
3.5862508e-13
2.4585527e-10
-3.5008159e-13
2.457336e-10
3.4302222e-13
2.4585325e-10
-3.3737356e-13
2.4573538e-10
3.3253212e-13
2.4585576e-10
-3.366915e-13
3.1822084e-13
3.3410629e-10
4.6054195e-09
3.4108335e-10
-1.1531915e-11
3.3892895e-10
4.129704e-12
3.3837359e-10
2.9974229e-12
3.3943654e-10
-4.2431651e-12
3.3856935e-10
3.6799244e-12
3.3949851e-10
-3.7235429e-12
3.3865223e-10
3.4322073e-12
3.3945995e-10
-3.2525514e-12
3.3870748e-10
3.0382517e-12
3.3941539e-10
-2.854703e-12
3.3875241e-10
2.6751918e-12
3.393748e-10
-2.5105822e-12
3.3879117e-10
2.3547189e-12
3.3933897e-10
-2.2098311e-12
3.3882501e-10
2.0735575e-12
3.3930754e-10
-1.9465322e-12
3.3885461e-10
1.8272982e-12
3.3928001e-10
-1.7161001e-12
3.3888049e-10
1.6118439e-12
3.3925594e-10
-1.5146231e-12
3.3890308e-10
1.4235713e-12
3.3923493e-10
-1.3386976e-12
3.3892278e-10
1.2593065e-12
3.3921661e-10
-1.1853536e-12
3.3893992e-10
1.1162785e-12
3.392007e-10
-1.0520025e-12
3.3895479e-10
9.920732e-13
3.391869e-10
-9.3639257e-13
3.3896764e-10
8.8459405e-13
3.3917501e-10
-8.3657124e-13
3.3897869e-10
7.9202632e-13
3.3916481e-10
-7.5085238e-13
3.3898813e-10
7.128068e-13
3.3915613e-10
-6.7778776e-13
3.3899611e-10
6.4559739e-13
3.3914884e-10
-6.161426e-13
3.3900278e-10
5.8926234e-13
3.3914279e-10
-5.6487453e-13
3.3900824e-10
5.4284885e-13
3.391379e-10
-5.2311563e-13
3.390126e-10
5.0557024e-13
3.3913408e-10
-4.9015658e-13
3.3901592e-10
4.767913e-13
3.3913126e-10
-4.6542553e-13
3.3901825e-10
4.560325e-13
3.3912936e-10
-4.4848338e-13
3.3901997e-10
4.4192569e-13
3.3913276e-10
-4.4948254e-13
4.2196527e-13
4.2280544e-10
5.5288641e-09
4.3222282e-10
-2.0949297e-11
4.2953254e-10
6.8199809e-12
4.2913899e-10
3.390979e-12
4.3012314e-10
-5.2273198e-12
4.2935761e-10
4.4454549e-12
4.3022006e-10
-4.585991e-12
4.2944177e-10
4.2105021e-12
4.3018864e-10
-3.9994253e-12
4.294943e-10
3.7325872e-12
4.3014816e-10
-3.5085538e-12
4.2953609e-10
3.2872565e-12
4.3011083e-10
-3.0853229e-12
4.2957197e-10
2.8935806e-12
4.300778e-10
-2.7156666e-12
4.2960326e-10
2.5481e-12
4.3004881e-10
-2.3920833e-12
4.2963062e-10
2.2454889e-12
4.3002342e-10
-2.1089003e-12
4.2965454e-10
1.9807295e-12
4.3000122e-10
-1.8613035e-12
4.2967542e-10
1.7493715e-12
4.2998183e-10
-1.6451084e-12
4.2969362e-10
1.5475152e-12
4.2996493e-10
-1.4566644e-12
4.2970945e-10
1.3717551e-12
4.2995024e-10
-1.2927899e-12
4.2972319e-10
1.219125e-12
4.2993751e-10
-1.1507174e-12
4.2973506e-10
1.0870483e-12
4.2992653e-10
-1.0280473e-12
4.2974527e-10
9.7329495e-13
4.2991712e-10
-9.2270728e-13
4.2975398e-10
8.7594411e-13
4.2990911e-10
-8.3291757e-13
4.2976136e-10
7.9335134e-13
4.2990238e-10
-7.5716047e-13
4.2976752e-10
7.2412076e-13
4.298968e-10
-6.941546e-13
4.2977257e-10
6.6708094e-13
4.2989228e-10
-6.4283254e-13
4.2977659e-10
6.2126399e-13
4.2988875e-10
-6.0232071e-13
4.2977966e-10
5.8588625e-13
4.2988614e-10
-5.7190979e-13
4.2978182e-10
5.6035648e-13
4.2988436e-10
-5.5102496e-13
4.2978345e-10
5.4283669e-13
4.2988842e-10
-5.5445282e-13
5.1723967e-13
5.0899518e-10
6.3661189e-09
5.2068962e-10
-3.2643741e-11
5.1764588e-10
9.8637253e-12
5.1739388e-10
3.6429805e-12
5.1829118e-10
-6.1246223e-12
5.1762594e-10
5.1106907e-12
5.1842117e-10
-5.3812223e-12
5.1771049e-10
4.921191e-12
5.1839634e-10
-4.6852833e-12
5.1776014e-10
4.3687882e-12
5.1835985e-10
-4.10826e-12
5.1779875e-10
3.8483575e-12
5.1832577e-10
-3.6123451e-12
5.1783173e-10
3.387622e-12
5.1829554e-10
-3.1794806e-12
5.1786046e-10
2.9831811e-12
5.1826899e-10
-2.8006151e-12
5.1788557e-10
2.6289074e-12
5.1824574e-10
-2.4690623e-12
5.1790752e-10
2.3189446e-12
5.1822539e-10
-2.1791774e-12
5.1792668e-10
2.0480856e-12
5.1820763e-10
-1.9260589e-12
5.1794338e-10
1.8117648e-12
5.1819215e-10
-1.7054318e-12
5.1795791e-10
1.6059955e-12
5.1817869e-10
-1.5135705e-12
5.1797051e-10
1.4273048e-12
5.1816703e-10
-1.3472346e-12
5.179814e-10
1.2726762e-12
5.1815696e-10
-1.2036146e-12
5.1799076e-10
1.1394992e-12
5.1814834e-10
-1.0802842e-12
5.1799876e-10
1.0255248e-12
5.18141e-10
-9.7515934e-13
5.1800552e-10
9.2882766e-13
5.1813482e-10
-8.8646283e-13
5.1801117e-10
8.4777334e-13
5.1812971e-10
-8.12694e-13
5.180158e-10
7.8098975e-13
5.1812557e-10
-7.5260204e-13
5.1801949e-10
7.273421e-13
5.1812233e-10
-7.0516174e-13
5.1802231e-10
6.8590899e-13
5.1811994e-10
-6.6953438e-13
5.180243e-10
6.5599478e-13
5.1811827e-10
-6.4500015e-13
5.1802583e-10
6.3528284e-13
5.181228e-10
-6.5142397e-13
6.039898e-13
5.9272979e-10
7.1196391e-09
6.0649419e-10
-4.6408146e-11
6.0326658e-10
1.309134e-11
6.0313862e-10
3.7709402e-12
6.0394073e-10
-6.9267342e-12
6.033742e-10
5.6772224e-12
6.0410198e-10
-6.1090044e-12
6.0345826e-10
5.5649117e-12
6.0408317e-10
-5.3101893e-12
6.0350488e-10
4.9470761e-12
6.0405057e-10
-4.6539509e-12
6.0354028e-10
4.35865e-12
6.0401971e-10
-4.0917768e-12
6.0357036e-10
3.8369741e-12
6.0399227e-10
-3.6013892e-12
6.0359653e-10
3.378916e-12
6.0396815e-10
-3.1722313e-12
6.036194e-10
2.9776553e-12
6.0394701e-10
-2.7966785e-12
6.0363938e-10
2.6265793e-12
6.0392853e-10
-2.468327e-12
6.0365682e-10
2.3197932e-12
6.0391239e-10
-2.1816222e-12
6.0367202e-10
2.0521262e-12
6.0389831e-10
-1.9317209e-12
6.0368525e-10
1.8190625e-12
6.0388608e-10
-1.7144025e-12
6.0369671e-10
1.6166687e-12
6.0387548e-10
-1.5259966e-12
6.0370662e-10
1.4415284e-12
6.0386633e-10
-1.3633206e-12
6.0371514e-10
1.2906847e-12
6.0385849e-10
-1.2236262e-12
6.0372242e-10
1.1615903e-12
6.0385181e-10
-1.1045525e-12
6.0372858e-10
1.0520646e-12
6.038462e-10
-1.0040863e-12
6.0373372e-10
9.6025578e-13
6.0384155e-10
-9.2052709e-13
6.0373793e-10
8.8460899e-13
6.0383779e-10
-8.5245693e-13
6.0374129e-10
8.2383702e-13
6.0383484e-10
-7.9871157e-13
6.0374386e-10
7.7689139e-13
6.0383266e-10
-7.5833115e-13
6.0374567e-10
7.4297926e-13
6.0383111e-10
-7.3044252e-13
6.0374709e-10
7.1930949e-13
6.0383594e-10
-7.4027217e-13
6.8224668e-13
6.7407408e-10
7.791815e-09
6.8965319e-10
-6.1987246e-11
6.8639119e-10
1.6353333e-11
6.8636991e-10
3.7922198e-12
6.8707211e-10
-7.6289334e-12
6.8660218e-10
6.1471511e-12
6.872626e-10
-6.7694201e-12
6.8668498e-10
6.1425287e-12
6.8724921e-10
-5.8744195e-12
6.8672842e-10
5.4678736e-12
6.8722041e-10
-5.1459478e-12
6.8676059e-10
4.8184689e-12
6.8719273e-10
-4.5239159e-12
6.8678778e-10
4.2419269e-12
6.8716805e-10
-3.9816582e-12
6.868114e-10
3.7355596e-12
6.8714634e-10
-3.5071675e-12
6.8683204e-10
3.2919577e-12
6.8712732e-10
-3.0919573e-12
6.8685006e-10
2.9038322e-12
6.8711067e-10
-2.7289365e-12
6.868658e-10
2.5646697e-12
6.8709614e-10
-2.4119613e-12
6.8687951e-10
2.2687542e-12
6.8708346e-10
-2.1356761e-12
6.8689143e-10
2.0110934e-12
6.8707244e-10
-1.8954144e-12
6.8690177e-10
1.7873389e-12
6.8706289e-10
-1.6871178e-12
6.8691071e-10
1.5937138e-12
6.8705466e-10
-1.5072677e-12
6.8691839e-10
1.4269491e-12
6.8704759e-10
-1.3528254e-12
6.8692495e-10
1.284229e-12
6.8704158e-10
-1.2211806e-12
6.869305e-10
1.1631424e-12
6.8703652e-10
-1.1101072e-12
6.8693514e-10
1.0616417e-12
6.8703233e-10
-1.0177245e-12
6.8693894e-10
9.7800705e-13
6.8702894e-10
-9.4246321e-13
6.8694197e-10
9.1081309e-13
6.8702629e-10
-8.8303286e-13
6.8694428e-10
8.5889509e-13
6.8702431e-10
-8.3836096e-13
6.8694592e-10
8.2137017e-13
6.870229e-10
-8.0741414e-13
6.8694722e-10
7.9498707e-13
6.8702787e-10
-8.2092189e-13
7.5210617e-13
7.5308044e-10
8.3849846e-09
7.7018655e-10
-7.9093357e-11
7.6701507e-10
1.952481e-11
7.6708104e-10
3.7262508e-12
7.6768596e-10
-8.2338528e-12
7.6730963e-10
6.5234864e-12
7.6790311e-10
-7.3629062e-12
7.6739055e-10
6.6550933e-12
7.6789457e-10
-6.3784403e-12
7.6743066e-10
5.9317819e-12
7.6786945e-10
-5.5847419e-12
7.6745961e-10
5.2283085e-12
7.6784491e-10
-4.9092108e-12
7.6748392e-10
4.602911e-12
7.6782295e-10
-4.3206856e-12
7.6750502e-10
4.0534909e-12
7.6780363e-10
-3.8057753e-12
7.6752344e-10
3.572148e-12
7.6778669e-10
-3.3552089e-12
7.6753952e-10
3.1509973e-12
7.6777187e-10
-2.9612799e-12
7.6755356e-10
2.7829747e-12
7.6775892e-10
-2.6173184e-12
7.6756579e-10
2.4618785e-12
7.6774763e-10
-2.3175121e-12
7.6757643e-10
2.1822916e-12
7.6773781e-10
-2.0567966e-12
7.6758566e-10
1.9394959e-12
7.6772931e-10
-1.8307679e-12
7.6759363e-10
1.7293933e-12
7.6772197e-10
-1.6356076e-12
7.6760048e-10
1.5484367e-12
7.6771567e-10
-1.4680181e-12
7.6760633e-10
1.3935707e-12
7.6771032e-10
-1.3251669e-12
7.6761128e-10
1.2621788e-12
7.6770581e-10
-1.2046378e-12
7.6761541e-10
1.1520388e-12
7.6770208e-10
-1.1043892e-12
7.676188e-10
1.0612834e-12
7.6769906e-10
-1.0227167e-12
7.6762151e-10
9.8836337e-13
7.6769669e-10
-9.5821602e-13
7.6762358e-10
9.3200862e-13
7.6769493e-10
-9.0971087e-13
7.6762504e-10
8.9125343e-13
7.6769363e-10
-8.7600283e-13
7.6762621e-10
8.6240893e-13
7.6769863e-10
-8.9334079e-13
8.1370622e-13
8.2979074e-10
8.9014438e-09
8.4811476e-10
-9.7417375e-11
8.4513274e-10
2.2506825e-11
8.4526522e-10
3.5937754e-12
8.4578325e-10
-8.7518872e-12
8.4549627e-10
6.8104674e-12
8.4602358e-10
-7.890216e-12
8.4557486e-10
7.1038189e-12
8.4601931e-10
-6.8228939e-12
8.4561153e-10
6.3395637e-12
8.4599777e-10
-5.9709797e-12
8.4563727e-10
5.5888078e-12
8.459763e-10
-5.2482458e-12
8.4565873e-10
4.9204844e-12
8.4595703e-10
-4.6189891e-12
8.4567732e-10
4.3332001e-12
8.4594006e-10
-4.0685113e-12
8.4569355e-10
3.8186583e-12
8.4592518e-10
-3.5868361e-12
8.4570772e-10
3.3684553e-12
8.4591215e-10
-3.1657126e-12
8.4572008e-10
2.9750441e-12
8.4590077e-10
-2.7980077e-12
8.4573085e-10
2.6317957e-12
8.4589085e-10
-2.4775069e-12
8.4574022e-10
2.3329199e-12
8.4588222e-10
-2.1987957e-12
8.4574834e-10
2.0733732e-12
8.4587474e-10
-1.9571662e-12
8.4575536e-10
1.8487749e-12
8.4586829e-10
-1.7485362e-12
8.4576139e-10
1.6553336e-12
8.4586275e-10
-1.5693803e-12
8.4576654e-10
1.4897828e-12
8.4585804e-10
-1.4166702e-12
8.457709e-10
1.3493255e-12
8.4585408e-10
-1.2878225e-12
8.4577453e-10
1.2315856e-12
8.458508e-10
-1.1806539e-12
8.4577752e-10
1.1345656e-12
8.4584814e-10
-1.0933405e-12
8.457799e-10
1.0566071e-12
8.4584606e-10
-1.0243768e-12
8.4578172e-10
9.9634514e-13
8.458445e-10
-9.7249191e-13
8.4578302e-10
9.527385e-13
8.4584333e-10
-9.363198e-13
8.4578405e-10
9.2168963e-13
8.4584825e-10
-9.5753568e-13
8.6721672e-13
9.0423986e-10
9.343454e-09
9.2345595e-10
-1.1663347e-10
9.2073838e-10
2.5224393e-11
9.209188e-10
3.4133548e-12
9.2136512e-10
-9.1982023e-12
9.2116199e-10
7.0135938e-12
9.2162407e-10
-8.3522976e-12
9.2123783e-10
7.4900654e-12
9.2162352e-10
-7.2085831e-12
9.2127095e-10
6.6921307e-12
9.2160542e-10
-6.3054499e-12
9.2129349e-10
5.900738e-12
9.2158697e-10
-5.5417298e-12
9.2131214e-10
5.1953208e-12
9.2157034e-10
-4.8771952e-12
9.2132826e-10
4.5752799e-12
9.2155568e-10
-4.295928e-12
9.2134233e-10
4.0320102e-12
9.2154282e-10
-3.787326e-12
9.2135461e-10
3.5566659e-12
9.2153156e-10
-3.3426645e-12
9.2136532e-10
3.1412833e-12
9.2152172e-10
-2.9544088e-12
9.2137465e-10
2.7788643e-12
9.2151314e-10
-2.6159964e-12
9.2138277e-10
2.4632957e-12
9.2150568e-10
-2.3217099e-12
9.213898e-10
2.1892526e-12
9.2149921e-10
-2.0665781e-12
9.2139588e-10
1.9521099e-12
9.2149363e-10
-1.8462904e-12
9.214011e-10
1.7478644e-12
9.2148884e-10
-1.6571245e-12
9.2140556e-10
1.5730675e-12
9.2148477e-10
-1.4958823e-12
9.2140933e-10
1.4247654e-12
9.2148135e-10
-1.3598357e-12
9.2141248e-10
1.3004488e-12
9.2147851e-10
-1.2466783e-12
9.2141506e-10
1.1980077e-12
9.2147621e-10
-1.1544826e-12
9.2141713e-10
1.1156877e-12
9.214744e-10
-1.0816543e-12
9.2141871e-10
1.0520404e-12
9.2147305e-10
-1.0268372e-12
9.2141984e-10
1.0059564e-12
9.2147201e-10
-9.884977e-13
9.2142074e-10
9.7296341e-13
9.2147675e-10
-1.0135491e-12
9.1283443e-13
9.7645726e-10
9.7132467e-09
9.9622561e-10
-1.3640182e-10
9.9382619e-10
2.762381e-11
9.9404162e-10
3.1979295e-12
9.9443254e-10
-9.5891202e-12
9.9430676e-10
7.1393673e-12
9.9470464e-10
-8.7501728e-12
9.9437938e-10
7.8153258e-12
9.9470725e-10
-7.5364559e-12
9.9440885e-10
6.990532e-12
9.9469247e-10
-6.5890714e-12
9.9442822e-10
6.1649913e-12
9.9467697e-10
-5.7904856e-12
9.9444409e-10
5.4282005e-12
9.9466293e-10
-5.0960304e-12
9.9445779e-10
4.7804159e-12
9.9465053e-10
-4.4886655e-12
9.9446973e-10
4.2128071e-12
9.9463965e-10
-3.9572428e-12
9.9448016e-10
3.7161609e-12
9.9463012e-10
-3.4926332e-12
9.9448925e-10
3.2821617e-12
9.946218e-10
-3.0869614e-12
9.9449716e-10
2.9034992e-12
9.9461454e-10
-2.7333699e-12
9.9450405e-10
2.5737865e-12
9.9460822e-10
-2.4258845e-12
9.9451001e-10
2.2874604e-12
9.9460275e-10
-2.1593107e-12
9.9451517e-10
2.0396888e-12
9.9459802e-10
-1.9291447e-12
9.945196e-10
1.8262894e-12
9.9459397e-10
-1.7314967e-12
9.9452338e-10
1.6436585e-12
9.9459052e-10
-1.5630251e-12
9.9452658e-10
1.48871e-12
9.9458762e-10
-1.4208789e-12
9.9452925e-10
1.3588216e-12
9.9458521e-10
-1.3026473e-12
9.9453143e-10
1.2517871e-12
9.9458327e-10
-1.2063141e-12
9.9453318e-10
1.1657708e-12
9.9458174e-10
-1.1302091e-12
9.9453453e-10
1.0992511e-12
9.9458059e-10
-1.0729e-12
9.9453549e-10
1.0510582e-12
9.9457968e-10
-1.0326887e-12
9.9453626e-10
1.0163826e-12
9.9458417e-10
-1.0614559e-12
9.5077885e-13
1.0464673e-09
1.0013029e-08
1.0664377e-09
-1.5637223e-10
1.0643905e-09
2.9671048e-11
1.0646355e-09
2.9528917e-12
1.0649862e-09
-9.9397868e-12
1.0649306e-09
7.1949062e-12
1.0652653e-09
-9.0848549e-12
1.0649994e-09
8.0812111e-12
1.0652706e-09
-7.8075908e-12
1.0650252e-09
7.2359416e-12
1.065259e-09
-6.8228814e-12
1.0650414e-09
6.3825699e-12
1.0652464e-09
-5.995439e-12
1.0650546e-09
5.6199997e-12
1.0652348e-09
-5.2763116e-12
1.0650659e-09
4.9493783e-12
1.0652247e-09
-4.6474436e-12
1.0650757e-09
4.3617273e-12
1.0652157e-09
-4.0972208e-12
1.0650843e-09
3.847538e-12
1.0652079e-09
-3.6161785e-12
1.0650918e-09
3.3982069e-12
1.065201e-09
-3.1961602e-12
1.0650984e-09
3.0061665e-12
1.0651951e-09
-2.8300652e-12
1.065104e-09
2.6648052e-12
1.0651899e-09
-2.5117078e-12
1.065109e-09
2.3683634e-12
1.0651854e-09
-2.2357096e-12
1.0651132e-09
2.1118386e-12
1.0651815e-09
-1.9974074e-12
1.0651169e-09
1.8909007e-12
1.0651781e-09
-1.7927736e-12
1.06512e-09
1.7018187e-12
1.0651753e-09
-1.6183482e-12
1.0651226e-09
1.5413974e-12
1.0651729e-09
-1.4711787e-12
1.0651248e-09
1.4069208e-12
1.0651709e-09
-1.3487683e-12
1.0651266e-09
1.2961037e-12
1.0651693e-09
-1.2490272e-12
1.0651281e-09
1.2070421e-12
1.0651681e-09
-1.1702213e-12
1.0651292e-09
1.1381527e-12
1.0651671e-09
-1.1108523e-12
1.06513e-09
1.0882128e-12
1.0651663e-09
-1.0690627e-12
1.0651306e-09
1.0521162e-12
1.0651705e-09
-1.1013605e-12
9.8128822e-13
1.1142882e-09
1.0244991e-08
1.1341054e-09
-1.7618942e-10
1.1324264e-09
3.135003e-11
1.1327028e-09
2.6764513e-12
1.1330264e-09
-1.0263377e-11
1.1330337e-09
7.1875838e-12
1.1333062e-09
-9.3573094e-12
1.133098e-09
8.289437e-12
1.1333136e-09
-8.0231836e-12
1.1331198e-09
7.4296475e-12
1.133305e-09
-7.0080243e-12
1.133133e-09
6.554576e-12
1.1332952e-09
-6.1576099e-12
1.1331435e-09
5.7716825e-12
1.1332861e-09
-5.4189383e-12
1.1331525e-09
5.0830143e-12
1.1332781e-09
-4.7730544e-12
1.1331603e-09
4.4795166e-12
1.133271e-09
-4.2079584e-12
1.1331671e-09
3.9514547e-12
1.1332648e-09
-3.7139165e-12
1.1331731e-09
3.489999e-12
1.1332594e-09
-3.2825495e-12
1.1331782e-09
3.0873794e-12
1.1332547e-09
-2.9065641e-12
1.1331827e-09
2.7368064e-12
1.1332506e-09
-2.5796073e-12
1.1331866e-09
2.4323653e-12
1.1332471e-09
-2.2961551e-12
1.13319e-09
2.1689188e-12
1.133244e-09
-2.0514181e-12
1.1331929e-09
1.9420201e-12
1.1332414e-09
-1.8412597e-12
1.1331953e-09
1.7478375e-12
1.1332391e-09
-1.6621262e-12
1.1331974e-09
1.583089e-12
1.1332372e-09
-1.5109847e-12
1.1331992e-09
1.4449849e-12
1.1332357e-09
-1.3852698e-12
1.1332006e-09
1.3311768e-12
1.1332344e-09
-1.2828333e-12
1.1332017e-09
1.2397061e-12
1.1332334e-09
-1.2018891e-12
1.1332026e-09
1.1689384e-12
1.1332327e-09
-1.1408829e-12
1.1332033e-09
1.1176058e-12
1.133232e-09
-1.0978057e-12
1.1332038e-09
1.0803484e-12
1.1332358e-09
-1.1333941e-12
1.0046159e-12
1.1799273e-09
1.0411314e-08
1.1992411e-09
-1.9550321e-10
1.1979347e-09
3.265649e-11
1.1982454e-09
2.3657587e-12
1.1985533e-09
-1.0571338e-11
1.1986161e-09
7.1248161e-12
1.1988273e-09
-9.568459e-12
1.1986749e-09
8.441813e-12
1.1988362e-09
-8.1845354e-12
1.1986928e-09
7.5730408e-12
1.1988306e-09
-7.1457406e-12
1.1987029e-09
6.6822017e-12
1.1988234e-09
-6.2781029e-12
1.1987108e-09
5.8842918e-12
1.1988168e-09
-5.5248842e-12
1.1987175e-09
5.1822411e-12
1.1988108e-09
-4.8663559e-12
1.1987234e-09
4.5669824e-12
1.1988056e-09
-4.2902117e-12
1.1987284e-09
4.0286227e-12
1.198801e-09
-3.7865146e-12
1.1987329e-09
3.5581665e-12
1.198797e-09
-3.346719e-12
1.1987367e-09
3.1476935e-12
1.1987936e-09
-2.9633887e-12
1.1987401e-09
2.7902822e-12
1.1987905e-09
-2.6300461e-12
1.198743e-09
2.4799032e-12
1.1987879e-09
-2.3410592e-12
1.1987455e-09
2.2113191e-12
1.1987856e-09
-2.0915446e-12
1.1987476e-09
1.9799962e-12
1.1987837e-09
-1.877285e-12
1.1987495e-09
1.7820281e-12
1.198782e-09
-1.6946566e-12
1.198751e-09
1.6140684e-12
1.1987806e-09
-1.5405668e-12
1.1987523e-09
1.4732724e-12
1.1987794e-09
-1.4123992e-12
1.1987534e-09
1.3572442e-12
1.1987785e-09
-1.3079613e-12
1.1987542e-09
1.2639841e-12
1.1987778e-09
-1.225427e-12
1.1987549e-09
1.191817e-12
1.1987772e-09
-1.163196e-12
1.1987554e-09
1.1394381e-12
1.1987767e-09
-1.1191185e-12
1.1987558e-09
1.1012774e-12
1.1987801e-09
-1.1577119e-12
1.0210272e-12
1.243369e-09
1.0514195e-08
1.2618562e-09
-2.1399041e-10
1.2609335e-09
3.3579186e-11
1.2612637e-09
2.0355628e-12
1.2615664e-09
-1.0874106e-11
1.2616775e-09
7.0137102e-12
1.2618285e-09
-9.7193994e-12
1.2617301e-09
8.5401758e-12
1.2618386e-09
-8.2930683e-12
1.2617441e-09
7.6675977e-12
1.2618357e-09
-7.2373602e-12
1.2617512e-09
6.7667203e-12
1.2618312e-09
-6.3580991e-12
1.2617565e-09
5.9589425e-12
1.2618268e-09
-5.5951909e-12
1.261761e-09
5.2480386e-12
1.2618229e-09
-4.9282655e-12
1.2617649e-09
4.6249878e-12
1.2618195e-09
-4.3447895e-12
1.2617683e-09
4.0798031e-12
1.2618165e-09
-3.8346863e-12
1.2617713e-09
3.6033811e-12
1.2618139e-09
-3.3892994e-12
1.2617739e-09
3.1877026e-12
1.2618116e-09
-3.0010972e-12
1.2617761e-09
2.8257591e-12
1.2618096e-09
-2.6635195e-12
1.261778e-09
2.5114448e-12
1.2618078e-09
-2.3708626e-12
1.2617797e-09
2.239456e-12
1.2618063e-09
-2.1181806e-12
1.2617811e-09
2.0052017e-12
1.261805e-09
-1.9012024e-12
1.2617823e-09
1.8047256e-12
1.2618039e-09
-1.7162577e-12
1.2617834e-09
1.6346388e-12
1.261803e-09
-1.5602143e-12
1.2617842e-09
1.4920595e-12
1.2618023e-09
-1.4304212e-12
1.2617849e-09
1.3745603e-12
1.2618016e-09
-1.324656e-12
1.2617855e-09
1.2801127e-12
1.2618011e-09
-1.2410643e-12
1.261786e-09
1.2070118e-12
1.2618008e-09
-1.17801e-12
1.2617863e-09
1.1539241e-12
1.2618004e-09
-1.1332151e-12
1.2617865e-09
1.1151138e-12
1.2618033e-09
-1.174491e-12
1.0307964e-12
1.3045441e-09
1.0555901e-08
1.3219482e-09
-2.3139446e-10
1.3214883e-09
3.4039105e-11
1.3217658e-09
1.7580121e-12
1.3220655e-09
-1.1173756e-11
1.3222177e-09
6.8614502e-12
1.3223097e-09
-9.8113653e-12
1.3222635e-09
8.5863436e-12
1.3223208e-09
-8.3503432e-12
1.3222735e-09
7.7148561e-12
1.3223205e-09
-7.2843007e-12
1.3222777e-09
6.8094741e-12
1.3223185e-09
-6.3988505e-12
1.3222806e-09
5.9968132e-12
1.3223164e-09
-5.630961e-12
1.322283e-09
5.2814438e-12
1.3223144e-09
-4.9597544e-12
1.322285e-09
4.6544462e-12
1.3223127e-09
-4.3725479e-12
1.3222867e-09
4.1058012e-12
1.3223113e-09
-3.8591873e-12
1.3222883e-09
3.6263539e-12
1.3223099e-09
-3.4109584e-12
1.3222896e-09
3.2080358e-12
1.3223088e-09
-3.0202808e-12
1.3222908e-09
2.8437942e-12
1.3223078e-09
-2.6805522e-12
1.3222917e-09
2.5274849e-12
1.3223069e-09
-2.386032e-12
1.3222926e-09
2.2537706e-12
1.3223062e-09
-2.1317427e-12
1.3222933e-09
2.0180311e-12
1.3223055e-09
-1.9133856e-12
1.322294e-09
1.8162849e-12
1.322305e-09
-1.7272666e-12
1.3222945e-09
1.6451211e-12
1.3223045e-09
-1.5702331e-12
1.3222949e-09
1.501639e-12
1.3223041e-09
-1.4396161e-12
1.3222953e-09
1.3833944e-12
1.3223038e-09
-1.3331768e-12
1.3222956e-09
1.2883425e-12
1.3223036e-09
-1.249044e-12
1.3222958e-09
1.2147595e-12
1.3223034e-09
-1.1855559e-12
1.322296e-09
1.1612906e-12
1.3223031e-09
-1.1403213e-12
1.3222961e-09
1.12208e-12
1.3223056e-09
-1.1839279e-12
1.0342048e-12
1.3633632e-09
1.0538788e-08
1.3795026e-09
-2.4753388e-10
1.3796834e-09
3.3858356e-11
1.3797762e-09
1.6651574e-12
1.3800539e-09
-1.1451404e-11
1.3802381e-09
6.6771949e-12
1.3802714e-09
-9.8445767e-12
1.3802752e-09
8.5824763e-12
1.3802828e-09
-8.3578927e-12
1.3802812e-09
7.716467e-12
1.3802849e-09
-7.2880351e-12
1.3802825e-09
6.8118774e-12
1.3802853e-09
-6.4016688e-12
1.380283e-09
5.9991415e-12
1.3802854e-09
-5.6333516e-12
1.3802833e-09
5.283545e-12
1.3802854e-09
-4.9618424e-12
1.3802835e-09
4.6563162e-12
1.3802853e-09
-4.3743859e-12
1.3802837e-09
4.1074625e-12
1.3802853e-09
-3.8608112e-12
1.3802838e-09
3.6278315e-12
1.3802853e-09
-3.4123974e-12
1.3802839e-09
3.2093532e-12
1.3802852e-09
-3.0215605e-12
1.380284e-09
2.8449726e-12
1.3802852e-09
-2.681695e-12
1.3802841e-09
2.5285434e-12
1.3802851e-09
-2.3870576e-12
1.3802842e-09
2.2547262e-12
1.3802851e-09
-2.1326686e-12
1.3802842e-09
2.018899e-12
1.3802851e-09
-1.914227e-12
1.3802843e-09
1.8170786e-12
1.3802851e-09
-1.7280373e-12
1.3802843e-09
1.6458524e-12
1.380285e-09
-1.5709446e-12
1.3802844e-09
1.5023182e-12
1.380285e-09
-1.4402781e-12
1.3802844e-09
1.3840292e-12
1.380285e-09
-1.333796e-12
1.3802844e-09
1.2889369e-12
1.380285e-09
-1.2496211e-12
1.3802844e-09
1.2153082e-12
1.380285e-09
-1.1860764e-12
1.3802845e-09
1.1617758e-12
1.3802848e-09
-1.1406738e-12
1.3802845e-09
1.1224086e-12
1.3802868e-09
-1.186237e-12
1.0315381e-12
1.4199086e-09
1.0465129e-08
1.4345564e-09
-2.6218171e-10
1.4354435e-09
3.2971293e-11
1.4352853e-09
1.823329e-12
1.435528e-09
-1.1694084e-11
1.4357378e-09
6.4673495e-12
1.4357132e-09
-9.8199593e-12
1.4357651e-09
8.5305996e-12
1.4357246e-09
-8.3173929e-12
1.4357669e-09
7.6741236e-12
1.435729e-09
-7.2501091e-12
1.4357655e-09
6.7753999e-12
1.4357317e-09
-6.3679233e-12
1.4357637e-09
5.9672168e-12
1.4357339e-09
-5.6035696e-12
1.4357619e-09
5.255477e-12
1.4357357e-09
-4.9355928e-12
1.4357604e-09
4.6315975e-12
1.4357373e-09
-4.3512414e-12
1.4357591e-09
4.0856685e-12
1.4357386e-09
-3.8403854e-12
1.4357579e-09
3.6085924e-12
1.4357398e-09
-3.3943478e-12
1.4357568e-09
3.1923434e-12
1.4357409e-09
-3.0055837e-12
1.4357559e-09
2.8299046e-12
1.4357418e-09
-2.6675224e-12
1.4357551e-09
2.5151623e-12
1.4357425e-09
-2.3744505e-12
1.4357545e-09
2.2428057e-12
1.4357432e-09
-2.1214146e-12
1.4357539e-09
2.0082374e-12
1.4357438e-09
-1.9041362e-12
1.4357534e-09
1.8074953e-12
1.4357443e-09
-1.7189389e-12
1.4357529e-09
1.6371846e-12
1.4357447e-09
-1.5626843e-12
1.4357526e-09
1.4944178e-12
1.435745e-09
-1.4327146e-12
1.4357523e-09
1.37676e-12
1.4357453e-09
-1.3267978e-12
1.435752e-09
1.2821703e-12
1.4357455e-09
-1.2430618e-12
1.4357519e-09
1.2089171e-12
1.4357456e-09
-1.1798245e-12
1.4357518e-09
1.1556282e-12
1.4357456e-09
-1.1345189e-12
1.4357517e-09
1.1163414e-12
1.4357471e-09
-1.1816485e-12
1.0230848e-12
1.4743185e-09
1.0337061e-08
1.4871485e-09
-2.7501168e-10
1.488625e-09
3.149478e-11
1.4882751e-09
2.1732769e-12
1.4884829e-09
-1.1901952e-11
1.4887154e-09
6.2348573e-12
1.4886349e-09
-9.7394666e-12
1.488733e-09
8.4325705e-12
1.4886462e-09
-8.2306699e-12
1.4887308e-09
7.5895539e-12
1.4886528e-09
-7.1721352e-12
1.4887267e-09
6.7015609e-12
1.4886578e-09
-6.2990344e-12
1.4887226e-09
5.9023749e-12
1.4886619e-09
-5.5428663e-12
1.488719e-09
5.1984153e-12
1.4886655e-09
-4.8821082e-12
1.4887158e-09
4.5813261e-12
1.4886686e-09
-4.3040863e-12
1.4887129e-09
4.0413332e-12
1.4886713e-09
-3.798768e-12
1.4887105e-09
3.5694437e-12
1.4886737e-09
-3.3575678e-12
1.4887083e-09
3.1577202e-12
1.4886758e-09
-2.9730218e-12
1.4887064e-09
2.7992225e-12
1.4886775e-09
-2.63863e-12
1.4887048e-09
2.4879034e-12
1.4886791e-09
-2.3487408e-12
1.4887034e-09
2.2185099e-12
1.4886804e-09
-2.098454e-12
1.4887022e-09
1.9864945e-12
1.4886816e-09
-1.8835376e-12
1.4887011e-09
1.7879379e-12
1.4886825e-09
-1.7003545e-12
1.4887002e-09
1.6194821e-12
1.4886834e-09
-1.5458e-12
1.4886995e-09
1.4782704e-12
1.488684e-09
-1.4172441e-12
1.4886989e-09
1.3618927e-12
1.4886846e-09
-1.3124769e-12
1.4886984e-09
1.2683277e-12
1.488685e-09
-1.2296423e-12
1.4886981e-09
1.1958547e-12
1.4886853e-09
-1.1670626e-12
1.4886978e-09
1.143105e-12
1.4886854e-09
-1.1221118e-12
1.4886976e-09
1.104129e-12
1.4886864e-09
-1.1704066e-12
1.0091347e-12
1.5265866e-09
1.0156724e-08
1.5372706e-09
-2.8569568e-10
1.5392048e-09
2.9560537e-11
1.5387612e-09
2.6168511e-12
1.5389201e-09
-1.2060844e-11
1.5391719e-09
5.9831064e-12
1.5390368e-09
-9.6044356e-12
1.5391789e-09
8.2904993e-12
1.5390478e-09
-8.0995242e-12
1.5391727e-09
7.4645712e-12
1.5390564e-09
-7.0557641e-12
1.539166e-09
6.5919322e-12
1.5390634e-09
-6.1964659e-12
1.5391598e-09
5.8059942e-12
1.5390695e-09
-5.4525325e-12
1.5391543e-09
5.1135732e-12
1.5390747e-09
-4.8025262e-12
1.5391495e-09
4.5065709e-12
1.5390793e-09
-4.2339237e-12
1.5391453e-09
3.9753992e-12
1.5390833e-09
-3.7368444e-12
1.5391416e-09
3.5112178e-12
1.5390868e-09
-3.30284e-12
1.5391383e-09
3.1062199e-12
1.5390899e-09
-2.9245676e-12
1.5391355e-09
2.7535789e-12
1.5390925e-09
-2.5956326e-12
1.5391331e-09
2.4473466e-12
1.5390948e-09
-2.3104753e-12
1.539131e-09
2.1823556e-12
1.5390968e-09
-2.0642753e-12
1.5391292e-09
1.9541326e-12
1.5390985e-09
-1.8528692e-12
1.5391276e-09
1.7588224e-12
1.5390999e-09
-1.6726792e-12
1.5391263e-09
1.5931214e-12
1.5391011e-09
-1.5206505e-12
1.5391252e-09