/*--------------------------------*- C++ -*----------------------------------*\
| =========                 |                                                 |
| \\      /  F ield         | OpenFOAM: The Open Source CFD Toolbox           |
|  \\    /   O peration     | Version:  2312                                  |
|   \\  /    A nd           | Website:  www.openfoam.com                      |
|    \\/     M anipulation  |                                                 |
\*---------------------------------------------------------------------------*/
FoamFile
{
    version     2.0;
    format      ascii;
    arch        "LSB;label=32;scalar=64";
    class       volSymmTensorField;
    location    "5";
    object      sigma;
}
// * * * * * * * * * * * * * * * * * * * * * * * * * * * * * * * * * * * * * //

dimensions      [0 2 -2 0 0 0 0];

internalField   nonuniform List<symmTensor> 
4000
(
(-0.39096234 -0.20774969 0 -0.070833842 0 0)
(-0.66804531 -0.14915066 0 -3.0316599e-05 0 0)
(-0.59380056 -0.14066744 0 3.5465143e-06 0 0)
(-0.63279131 -0.14530144 0 -2.9519752e-05 0 0)
(-0.60116692 -0.14148561 0 3.2038168e-05 0 0)
(-0.63086283 -0.14508162 0 -2.9358754e-05 0 0)
(-0.60379411 -0.14180325 0 2.8157596e-05 0 0)
(-0.6292468 -0.14488813 0 -2.6262828e-05 0 0)
(-0.60547937 -0.1420089 0 2.4703294e-05 0 0)
(-0.62775519 -0.14470904 0 -2.314501e-05 0 0)
(-0.60689242 -0.14218145 0 2.1711785e-05 0 0)
(-0.62642515 -0.14454921 0 -2.036569e-05 0 0)
(-0.60812737 -0.14233211 0 1.9100297e-05 0 0)
(-0.62525268 -0.1444082 0 -1.7923427e-05 0 0)
(-0.60921355 -0.1424645 0 1.6813482e-05 0 0)
(-0.62422108 -0.14428404 0 -1.5782591e-05 0 0)
(-0.61017033 -0.142581 0 1.4810644e-05 0 0)
(-0.6233132 -0.14417471 0 -1.3907905e-05 0 0)
(-0.6110138 -0.14268361 0 1.3057654e-05 0 0)
(-0.62251358 -0.14407837 0 -1.2267867e-05 0 0)
(-0.61175799 -0.14277407 0 1.1524889e-05 0 0)
(-0.62180857 -0.1439934 0 -1.0834813e-05 0 0)
(-0.6124153 -0.1428539 0 1.0186488e-05 0 0)
(-0.62118613 -0.14391836 0 -9.5845546e-06 0 0)
(-0.61299667 -0.14292444 0 9.0198717e-06 0 0)
(-0.62063564 -0.143852 0 -8.4959803e-06 0 0)
(-0.61351181 -0.1429869 0 8.0053558e-06 0 0)
(-0.62014773 -0.14379319 0 -7.550709e-06 0 0)
(-0.61396933 -0.14304231 0 7.1258212e-06 0 0)
(-0.61971411 -0.14374094 0 -6.7327794e-06 0 0)
(-0.61437689 -0.14309162 0 6.3664264e-06 0 0)
(-0.6193274 -0.14369436 0 -6.0283825e-06 0 0)
(-0.61474132 -0.14313565 0 5.7143591e-06 0 0)
(-0.61898105 -0.14365268 0 -5.4256308e-06 0 0)
(-0.61506872 -0.14317515 0 5.1586233e-06 0 0)
(-0.61866918 -0.14361519 0 -4.9143598e-06 0 0)
(-0.6153646 -0.14321079 0 4.6898576e-06 0 0)
(-0.61838652 -0.14358125 0 -4.4859627e-06 0 0)
(-0.6156339 -0.14324317 0 4.3001864e-06 0 0)
(-0.61812827 -0.14355031 0 -4.1332574e-06 0 0)
(-0.61588117 -0.14327282 0 3.983106e-06 0 0)
(-0.61789008 -0.14352182 0 -3.8503949e-06 0 0)
(-0.61611055 -0.14330025 0 3.7334225e-06 0 0)
(-0.6176679 -0.14349532 0 -3.6328425e-06 0 0)
(-0.61632592 -0.14332593 0 3.5472915e-06 0 0)
(-0.61745794 -0.14347035 0 -3.477607e-06 0 0)
(-0.61653088 -0.14335028 0 3.4229672e-06 0 0)
(-0.61725678 -0.14344651 0 -3.3806679e-06 0 0)
(-0.61673331 -0.14337415 0 3.3910032e-06 0 0)
(-0.6170977 -0.14342769 0 -3.3378819e-06 0 0)
(-0.3558971 -0.1939121 0 -0.066203146 0 0)
(-0.60578953 -0.14212202 0 -0.00024000061 0 0)
(-0.55253684 -0.1357286 0 -3.3795534e-05 0 0)
(-0.58560594 -0.13981105 0 -2.8727422e-05 0 0)
(-0.55776393 -0.13623857 0 3.6394709e-05 0 0)
(-0.58394433 -0.13961845 0 -3.1803151e-05 0 0)
(-0.56008299 -0.13653635 0 3.1777743e-05 0 0)
(-0.58254256 -0.13944064 0 -2.9320887e-05 0 0)
(-0.56157239 -0.13673015 0 2.7744476e-05 0 0)
(-0.58122804 -0.1392724 0 -2.5935129e-05 0 0)
(-0.56281902 -0.13689266 0 2.4354916e-05 0 0)
(-0.5800536 -0.13912191 0 -2.2833904e-05 0 0)
(-0.56390807 -0.1370345 0 2.1420509e-05 0 0)
(-0.57901805 -0.13898911 0 -2.0098013e-05 0 0)
(-0.5648659 -0.13715913 0 1.8855219e-05 0 0)
(-0.5781069 -0.13887217 0 -1.7698077e-05 0 0)
(-0.56570967 -0.1372688 0 1.6609237e-05 0 0)
(-0.57730503 -0.13876919 0 -1.5596237e-05 0 0)
(-0.56645356 -0.1373654 0 1.4643599e-05 0 0)
(-0.57659878 -0.13867845 0 -1.3757461e-05 0 0)
(-0.56710996 -0.13745056 0 1.2924974e-05 0 0)
(-0.57597608 -0.13859842 0 -1.2150787e-05 0 0)
(-0.56768977 -0.13752572 0 1.1424342e-05 0 0)
(-0.57542629 -0.13852774 0 -1.0749104e-05 0 0)
(-0.56820267 -0.13759214 0 1.0116381e-05 0 0)
(-0.57494002 -0.13846523 0 -9.5287486e-06 0 0)
(-0.5686572 -0.13765095 0 8.9790221e-06 0 0)
(-0.57450899 -0.13840982 0 -8.4691191e-06 0 0)
(-0.56906097 -0.13770313 0 7.9930764e-06 0 0)
(-0.57412586 -0.13836059 0 -7.5523288e-06 0 0)
(-0.56942073 -0.13774957 0 7.1419125e-06 0 0)
(-0.57378412 -0.13831671 0 -6.7629097e-06 0 0)
(-0.56974249 -0.13779105 0 6.4111805e-06 0 0)
(-0.57347798 -0.13827743 0 -6.0875546e-06 0 0)
(-0.57003166 -0.13782826 0 5.7885753e-06 0 0)
(-0.57320224 -0.13824209 0 -5.5148994e-06 0 0)
(-0.57029309 -0.13786185 0 5.2636398e-06 0 0)
(-0.57295223 -0.1382101 0 -5.0353457e-06 0 0)
(-0.57053115 -0.13789236 0 4.8276096e-06 0 0)
(-0.57272372 -0.13818091 0 -4.6409291e-06 0 0)
(-0.57074986 -0.13792032 0 4.473311e-06 0 0)
(-0.57251283 -0.13815404 0 -4.3252566e-06 0 0)
(-0.57095289 -0.1379462 0 4.195157e-06 0 0)
(-0.572316 -0.13812903 0 -4.0835992e-06 0 0)
(-0.57114369 -0.13797043 0 3.9893583e-06 0 0)
(-0.57212985 -0.13810546 0 -3.9136042e-06 0 0)
(-0.57132545 -0.13799342 0 3.8556285e-06 0 0)
(-0.57195104 -0.13808291 0 -3.8098041e-06 0 0)
(-0.57150361 -0.13801564 0 3.8800626e-06 0 0)
(-0.57180124 -0.13806403 0 -3.7145865e-06 0 0)
(-0.33414536 -0.18408771 0 -0.061743649 0 0)
(-0.56595222 -0.13700269 0 -0.00012895554 0 0)
(-0.52481632 -0.13230019 0 -5.4560647e-05 0 0)
(-0.55506917 -0.13614956 0 -2.724143e-05 0 0)
(-0.52962724 -0.13272683 0 3.664778e-05 0 0)
(-0.55357698 -0.13596576 0 -3.0732355e-05 0 0)
(-0.53175457 -0.13301195 0 3.1793256e-05 0 0)
(-0.55230363 -0.13579737 0 -2.9049267e-05 0 0)
(-0.53311928 -0.13319803 0 2.7619979e-05 0 0)
(-0.55110212 -0.13563624 0 -2.5770725e-05 0 0)
(-0.53426005 -0.13335397 0 2.4219271e-05 0 0)
(-0.55002756 -0.13549195 0 -2.2699715e-05 0 0)
(-0.53525638 -0.13349006 0 2.1296949e-05 0 0)
(-0.54908001 -0.1353646 0 -1.9981587e-05 0 0)
(-0.5361327 -0.13360961 0 1.8745812e-05 0 0)
(-0.54824632 -0.13525246 0 -1.7595822e-05 0 0)
(-0.53690471 -0.13371483 0 1.6512819e-05 0 0)
(-0.54751265 -0.13515371 0 -1.5506178e-05 0 0)
(-0.53758538 -0.13380751 0 1.4558656e-05 0 0)
(-0.54686649 -0.13506669 0 -1.3678056e-05 0 0)
(-0.53818603 -0.13388921 0 1.2850088e-05 0 0)
(-0.54629678 -0.13498993 0 -1.2080709e-05 0 0)
(-0.53871665 -0.13396132 0 1.1358251e-05 0 0)
(-0.54579377 -0.13492215 0 -1.0687184e-05 0 0)
(-0.53918606 -0.13402505 0 1.005797e-05 0 0)
(-0.54534888 -0.13486219 0 -9.4739549e-06 0 0)
(-0.53960209 -0.13408148 0 8.927308e-06 0 0)
(-0.54495451 -0.13480905 0 -8.4205412e-06 0 0)
(-0.53997169 -0.13413156 0 7.9471951e-06 0 0)
(-0.54460394 -0.13476182 0 -7.5091657e-06 0 0)
(-0.54030103 -0.13417613 0 7.1011065e-06 0 0)
(-0.54429123 -0.13471972 0 -6.7244603e-06 0 0)
(-0.54059563 -0.13421595 0 6.3747907e-06 0 0)
(-0.54401105 -0.13468202 0 -6.0532123e-06 0 0)
(-0.54086042 -0.13425168 0 5.7560371e-06 0 0)
(-0.54375867 -0.13464811 0 -5.4841524e-06 0 0)
(-0.54109984 -0.13428393 0 5.2344874e-06 0 0)
(-0.54352979 -0.1346174 0 -5.0077865e-06 0 0)
(-0.54131791 -0.13431324 0 4.8014934e-06 0 0)
(-0.54332054 -0.13458937 0 -4.6162838e-06 0 0)
(-0.54151829 -0.1343401 0 4.4500447e-06 0 0)
(-0.54312738 -0.13456356 0 -4.3034586e-06 0 0)
(-0.54170437 -0.13436497 0 4.1748347e-06 0 0)
(-0.54294702 -0.13453953 0 -4.0649825e-06 0 0)
(-0.54187928 -0.13438827 0 3.9726656e-06 0 0)
(-0.54277636 -0.13451686 0 -3.8995845e-06 0 0)
(-0.54204601 -0.13441038 0 3.8449094e-06 0 0)
(-0.54261224 -0.13449515 0 -3.8034919e-06 0 0)
(-0.54220915 -0.13443163 0 3.9148085e-06 0 0)
(-0.54247057 -0.13447667 0 -3.8111074e-06 0 0)
(-0.31941872 -0.17553248 0 -0.056858919 0 0)
(-0.52972878 -0.1323222 0 -6.9745737e-05 0 0)
(-0.49757575 -0.1288511 0 -7.9308211e-05 0 0)
(-0.52541114 -0.1324897 0 -2.2739857e-05 0 0)
(-0.50212808 -0.12921484 0 3.3377633e-05 0 0)
(-0.5241104 -0.13231418 0 -2.6408319e-05 0 0)
(-0.50408834 -0.12948738 0 2.8852776e-05 0 0)
(-0.52295051 -0.13215514 0 -2.5969531e-05 0 0)
(-0.50534196 -0.12966581 0 2.4876786e-05 0 0)
(-0.52184817 -0.13200102 0 -2.3143134e-05 0 0)
(-0.50638865 -0.12981521 0 2.1777634e-05 0 0)
(-0.52086124 -0.13186282 0 -2.0399802e-05 0 0)
(-0.50730256 -0.12994555 0 1.914398e-05 0 0)
(-0.51999088 -0.13174082 0 -1.795946e-05 0 0)
(-0.50810639 -0.13006005 0 1.6849769e-05 0 0)
(-0.51922515 -0.13163339 0 -1.5815569e-05 0 0)
(-0.50881458 -0.13016083 0 1.48425e-05 0 0)
(-0.51855133 -0.13153879 0 -1.3937469e-05 0 0)
(-0.50943902 -0.13024959 0 1.3086034e-05 0 0)
(-0.51795791 -0.13145542 0 -1.2294381e-05 0 0)
(-0.50999008 -0.13032785 0 1.1550361e-05 0 0)
(-0.51743473 -0.13138188 0 -1.0858717e-05 0 0)
(-0.51047691 -0.13039692 0 1.0209508e-05 0 0)
(-0.51697282 -0.13131694 0 -9.6062589e-06 0 0)
(-0.51090761 -0.13045797 0 9.040842e-06 0 0)
(-0.51656429 -0.13125948 0 -8.5158634e-06 0 0)
(-0.51128935 -0.13051203 0 8.0246474e-06 0 0)
(-0.51620216 -0.13120856 0 -7.5691255e-06 0 0)
(-0.51162849 -0.13056001 0 7.143788e-06 0 0)
(-0.51588027 -0.1311633 0 -6.7500737e-06 0 0)
(-0.51193072 -0.13060273 0 6.3834195e-06 0 0)
(-0.51559313 -0.13112294 0 -6.0449056e-06 0 0)
(-0.51220107 -0.13064089 0 5.7307449e-06 0 0)
(-0.51533588 -0.1310868 0 -5.4417618e-06 0 0)
(-0.51244408 -0.13067514 0 5.1748087e-06 0 0)
(-0.51510414 -0.13105428 0 -4.9305393e-06 0 0)
(-0.51266382 -0.13070606 0 4.706333e-06 0 0)
(-0.51489399 -0.13102482 0 -4.5027473e-06 0 0)
(-0.51286397 -0.13073417 0 4.3176007e-06 0 0)
(-0.51470186 -0.13099793 0 -4.1514231e-06 0 0)
(-0.5130479 -0.13075995 0 4.0024149e-06 0 0)
(-0.51452449 -0.13097316 0 -3.8711527e-06 0 0)
(-0.51321871 -0.13078382 0 3.7562173e-06 0 0)
(-0.51435888 -0.13095008 0 -3.6583636e-06 0 0)
(-0.51337931 -0.1308062 0 3.5766073e-06 0 0)
(-0.51420215 -0.1309283 0 -3.5128568e-06 0 0)
(-0.51353241 -0.13082745 0 3.4662145e-06 0 0)
(-0.51405131 -0.13090742 0 -3.4310911e-06 0 0)
(-0.5136819 -0.13084776 0 3.584459e-06 0 0)
(-0.51391697 -0.13088926 0 -3.5192437e-06 0 0)
(-0.30593338 -0.16733875 0 -0.052170006 0 0)
(-0.49473077 -0.12768305 0 2.932085e-06 0 0)
(-0.47074789 -0.12535298 0 -9.5988221e-05 0 0)
(-0.49656365 -0.12883209 0 -1.9117374e-05 0 0)
(-0.47527984 -0.12569854 0 2.9554911e-05 0 0)
(-0.49550421 -0.12866608 0 -2.1961168e-05 0 0)
(-0.4771051 -0.12595962 0 2.5678287e-05 0 0)
(-0.49444814 -0.1285157 0 -2.2689053e-05 0 0)
(-0.47825896 -0.12613077 0 2.1931031e-05 0 0)
(-0.4934352 -0.1283682 0 -2.0329487e-05 0 0)
(-0.479221 -0.12627397 0 1.9159837e-05 0 0)
(-0.49252735 -0.1282358 0 -1.7935048e-05 0 0)
(-0.48006078 -0.12639886 0 1.6836394e-05 0 0)
(-0.4917267 -0.1281189 0 -1.5792075e-05 0 0)
(-0.48079941 -0.12650857 0 1.481763e-05 0 0)
(-0.49102233 -0.12801596 0 -1.3907367e-05 0 0)
(-0.48145019 -0.12660513 0 1.3052248e-05 0 0)
(-0.49040255 -0.1279253 0 -1.2255984e-05 0 0)
(-0.48202404 -0.12669018 0 1.1507616e-05 0 0)
(-0.48985676 -0.12784541 0 -1.0811193e-05 0 0)
(-0.48253049 -0.12676517 0 1.015719e-05 0 0)
(-0.4893756 -0.12777494 0 -9.5487873e-06 0 0)
(-0.48297792 -0.12683136 0 8.9780984e-06 0 0)
(-0.48895081 -0.1277127 0 -8.447481e-06 0 0)
(-0.48337377 -0.12688987 0 7.9504317e-06 0 0)
(-0.48857512 -0.12765764 0 -7.4886841e-06 0 0)
(-0.48372463 -0.12694169 0 7.0568522e-06 0 0)
(-0.48824213 -0.12760883 0 -6.656216e-06 0 0)
(-0.48403636 -0.12698768 0 6.2822941e-06 0 0)
(-0.48794615 -0.12756544 0 -5.9360378e-06 0 0)
(-0.48431414 -0.12702862 0 5.613709e-06 0 0)
(-0.48768215 -0.12752675 0 -5.3160209e-06 0 0)
(-0.48456263 -0.1270652 0 5.0398525e-06 0 0)
(-0.48744564 -0.12749211 0 -4.785749e-06 0 0)
(-0.48478598 -0.12709805 0 4.5511047e-06 0 0)
(-0.4872326 -0.12746092 0 -4.3363572e-06 0 0)
(-0.48498794 -0.1271277 0 4.13933e-06 0 0)
(-0.48703941 -0.12743266 0 -3.9604103e-06 0 0)
(-0.48517188 -0.12715467 0 3.7977831e-06 0 0)
(-0.48686281 -0.12740686 0 -3.6518407e-06 0 0)
(-0.48534091 -0.1271794 0 3.5210897e-06 0 0)
(-0.4866998 -0.12738308 0 -3.4059932e-06 0 0)
(-0.48549788 -0.12720232 0 3.3053945e-06 0 0)
(-0.4865476 -0.12736093 0 -3.2199553e-06 0 0)
(-0.48564544 -0.12722381 0 3.1489185e-06 0 0)
(-0.48640358 -0.12734001 0 -3.0942614e-06 0 0)
(-0.48578613 -0.12724423 0 3.0548682e-06 0 0)
(-0.48626492 -0.12731993 0 -3.0249692e-06 0 0)
(-0.4859232 -0.12726365 0 3.208421e-06 0 0)
(-0.48613808 -0.12730217 0 -3.1830492e-06 0 0)
(-0.29286456 -0.15938506 0 -0.047708041 0 0)
(-0.46142491 -0.12313545 0 8.9662811e-05 0 0)
(-0.44448135 -0.12182078 0 -0.00010393101 0 0)
(-0.46852927 -0.12517473 0 -1.6341485e-05 0 0)
(-0.44910964 -0.12217899 0 2.5901475e-05 0 0)
(-0.46773427 -0.12502042 0 -1.8076524e-05 0 0)
(-0.45082741 -0.12242968 0 2.291511e-05 0 0)
(-0.46677711 -0.12487834 0 -1.9816155e-05 0 0)
(-0.45189062 -0.12259384 0 1.9354043e-05 0 0)
(-0.46584642 -0.12473721 0 -1.7865579e-05 0 0)
(-0.45277506 -0.12273106 0 1.6868451e-05 0 0)
(-0.4650112 -0.12461037 0 -1.5776921e-05 0 0)
(-0.45354685 -0.1228507 0 1.4816395e-05 0 0)
(-0.46427454 -0.12449837 0 -1.3894386e-05 0 0)
(-0.45422568 -0.1229558 0 1.3038709e-05 0 0)
(-0.46362651 -0.12439975 0 -1.223663e-05 0 0)
(-0.4548238 -0.1230483 0 1.1485047e-05 0 0)
(-0.46305635 -0.12431289 0 -1.0783753e-05 0 0)
(-0.45535124 -0.12312978 0 1.0125829e-05 0 0)
(-0.46255428 -0.12423635 0 -9.5125743e-06 0 0)
(-0.45581675 -0.12320163 0 8.9375425e-06 0 0)
(-0.46211169 -0.12416883 0 -8.4018513e-06 0 0)
(-0.45622803 -0.12326504 0 7.9000302e-06 0 0)
(-0.46172097 -0.12410919 0 -7.4328649e-06 0 0)
(-0.45659191 -0.1233211 0 6.9957663e-06 0 0)
(-0.46137544 -0.12405643 0 -6.5892633e-06 0 0)
(-0.45691444 -0.12337075 0 6.2094943e-06 0 0)
(-0.46106919 -0.12400966 0 -5.8568133e-06 0 0)
(-0.457201 -0.12341481 0 5.5279589e-06 0 0)
(-0.460797 -0.12396808 0 -5.2231675e-06 0 0)
(-0.45745635 -0.12345405 0 4.9396824e-06 0 0)
(-0.46055423 -0.123931 0 -4.6776607e-06 0 0)
(-0.45768477 -0.12348912 0 4.434776e-06 0 0)
(-0.46033675 -0.12389779 0 -4.2111369e-06 0 0)
(-0.45789008 -0.1235206 0 4.0047846e-06 0 0)
(-0.46014087 -0.12386789 0 -3.8158094e-06 0 0)
(-0.45807572 -0.12354903 0 3.6425653e-06 0 0)
(-0.45996327 -0.1238408 0 -3.4851584e-06 0 0)
(-0.45824479 -0.12357489 0 3.3422109e-06 0 0)
(-0.45980093 -0.12381605 0 -3.2138831e-06 0 0)
(-0.45840014 -0.12359862 0 3.0990445e-06 0 0)
(-0.45965109 -0.12379324 0 -2.9979602e-06 0 0)
(-0.45854438 -0.1236206 0 2.9097785e-06 0 0)
(-0.45951121 -0.12377198 0 -2.8349836e-06 0 0)
(-0.45867998 -0.12364123 0 2.773066e-06 0 0)
(-0.45937887 -0.1237519 0 -2.7259369e-06 0 0)
(-0.45880925 -0.12366084 0 2.6922317e-06 0 0)
(-0.45925142 -0.12373261 0 -2.6660263e-06 0 0)
(-0.45893493 -0.12367943 0 2.8701732e-06 0 0)
(-0.45913201 -0.12371526 0 -2.8772151e-06 0 0)
(-0.28032945 -0.15171141 0 -0.043452208 0 0)
(-0.42979776 -0.11867555 0 0.00019176384 0 0)
(-0.41880101 -0.11825941 0 -0.00010381385 0 0)
(-0.441333 -0.12151648 0 -1.3508581e-05 0 0)
(-0.42363259 -0.11865663 0 2.2438546e-05 0 0)
(-0.44079 -0.12137643 0 -1.4666813e-05 0 0)
(-0.42526445 -0.11889806 0 2.0485444e-05 0 0)
(-0.43992812 -0.12124251 0 -1.7282334e-05 0 0)
(-0.42624521 -0.11905549 0 1.7080249e-05 0 0)
(-0.43907378 -0.12110754 0 -1.5691042e-05 0 0)
(-0.42705813 -0.1191869 0 1.4846192e-05 0 0)
(-0.43830573 -0.12098611 0 -1.3872289e-05 0 0)
(-0.42776717 -0.11930145 0 1.3033644e-05 0 0)
(-0.43762824 -0.12087888 0 -1.221962e-05 0 0)
(-0.4283908 -0.11940207 0 1.1468727e-05 0 0)
(-0.43703229 -0.12078444 0 -1.0762158e-05 0 0)
(-0.42894032 -0.11949063 0 1.0101918e-05 0 0)
(-0.43650797 -0.12070128 0 -9.4844617e-06 0 0)
(-0.42942493 -0.11956864 0 8.9063281e-06 0 0)
(-0.43604631 -0.12062798 0 -8.3664877e-06 0 0)
(-0.42985265 -0.11963743 0 7.861124e-06 0 0)
(-0.43563936 -0.12056333 0 -7.3896126e-06 0 0)
(-0.43023056 -0.11969815 0 6.9485467e-06 0 0)
(-0.43528012 -0.12050622 0 -6.5373848e-06 0 0)
(-0.43056493 -0.11975183 0 6.1531744e-06 0 0)
(-0.43496245 -0.1204557 0 -5.7954272e-06 0 0)
(-0.43086131 -0.11979937 0 5.4615872e-06 0 0)
(-0.4346809 -0.1204109 0 -5.1512254e-06 0 0)
(-0.43112463 -0.11984157 0 4.8621272e-06 0 0)
(-0.43443068 -0.12037108 0 -4.5939236e-06 0 0)
(-0.43135928 -0.11987915 0 4.3447014e-06 0 0)
(-0.43420752 -0.12033556 0 -4.1141465e-06 0 0)
(-0.43156918 -0.11991274 0 3.9006159e-06 0 0)
(-0.43400762 -0.12030375 0 -3.703848e-06 0 0)
(-0.43175784 -0.1199429 0 3.5224403e-06 0 0)
(-0.43382758 -0.1202751 0 -3.3561892e-06 0 0)
(-0.43192841 -0.11997014 0 3.2039035e-06 0 0)
(-0.43366436 -0.12024914 0 -3.0654512e-06 0 0)
(-0.43208376 -0.11999492 0 2.9398294e-06 0 0)
(-0.43351517 -0.12022543 0 -2.8269996e-06 0 0)
(-0.43222649 -0.12001766 0 2.7261415e-06 0 0)
(-0.43337749 -0.12020356 0 -2.6373475e-06 0 0)
(-0.432359 -0.12003875 0 2.5600229e-06 0 0)
(-0.43324898 -0.12018317 0 -2.494489e-06 0 0)
(-0.43248356 -0.12005853 0 2.440436e-06 0 0)
(-0.43312741 -0.12016391 0 -2.3996775e-06 0 0)
(-0.43260229 -0.12007734 0 2.370561e-06 0 0)
(-0.43301033 -0.12014538 0 -2.3471252e-06 0 0)
(-0.4327175 -0.12009514 0 2.5643305e-06 0 0)
(-0.4328982 -0.12012847 0 -2.5993534e-06 0 0)
(-0.26841521 -0.14432914 0 -0.039380065 0 0)
(-0.39983855 -0.11430669 0 0.00030627478 0 0)
(-0.39369972 -0.11467195 0 -9.7258976e-05 0 0)
(-0.4150189 -0.11785936 0 -9.8780068e-06 0 0)
(-0.39886447 -0.11513172 0 1.9248656e-05 0 0)
(-0.41466802 -0.11773398 0 -1.1571352e-05 0 0)
(-0.40042176 -0.11536492 0 1.8262348e-05 0 0)
(-0.41389634 -0.11760805 0 -1.4966901e-05 0 0)
(-0.40132732 -0.11551585 0 1.4996481e-05 0 0)
(-0.41311303 -0.11747908 0 -1.3700143e-05 0 0)
(-0.40207424 -0.11564161 0 1.2993765e-05 0 0)
(-0.41240722 -0.1173629 0 -1.2128119e-05 0 0)
(-0.40272528 -0.1157512 0 1.14008e-05 0 0)
(-0.41178452 -0.1172603 0 -1.0685896e-05 0 0)
(-0.40329789 -0.11584747 0 1.00308e-05 0 0)
(-0.41123678 -0.11716995 0 -9.4118449e-06 0 0)
(-0.40380247 -0.11593219 0 8.8351335e-06 0 0)
(-0.41075492 -0.11709037 0 -8.2945619e-06 0 0)
(-0.40424747 -0.11600683 0 7.7894043e-06 0 0)
(-0.41033065 -0.11702024 0 -7.3168754e-06 0 0)
(-0.40464026 -0.11607264 0 6.8752372e-06 0 0)
(-0.40995669 -0.11695838 0 -6.4625604e-06 0 0)
(-0.40498732 -0.11613074 0 6.0770727e-06 0 0)
(-0.40962659 -0.11690373 0 -5.7172424e-06 0 0)
(-0.40529439 -0.1161821 0 5.3814177e-06 0 0)
(-0.40933469 -0.11685538 0 -5.0683529e-06 0 0)
(-0.40556659 -0.1162276 0 4.7765343e-06 0 0)
(-0.409076 -0.11681251 0 -4.5049506e-06 0 0)
(-0.40580842 -0.11626798 0 4.2522274e-06 0 0)
(-0.40884611 -0.1167744 0 -4.0175451e-06 0 0)
(-0.40602393 -0.11630395 0 3.7996709e-06 0 0)
(-0.40864109 -0.11674041 0 -3.5979407e-06 0 0)
(-0.40621671 -0.1163361 0 3.4112638e-06 0 0)
(-0.40845744 -0.11670995 0 -3.2391051e-06 0 0)
(-0.40638997 -0.11636497 0 3.0805122e-06 0 0)
(-0.40829207 -0.11668253 0 -2.9350644e-06 0 0)
(-0.40654661 -0.11639105 0 2.801939e-06 0 0)
(-0.40814214 -0.11665767 0 -2.6808283e-06 0 0)
(-0.40668927 -0.11641478 0 2.5710318e-06 0 0)
(-0.40800512 -0.11663495 0 -2.4723634e-06 0 0)
(-0.40682033 -0.11643657 0 2.384252e-06 0 0)
(-0.40787868 -0.116614 0 -2.3066577e-06 0 0)
(-0.406942 -0.11645676 0 2.2391894e-06 0 0)
(-0.40776068 -0.11659446 0 -2.1820353e-06 0 0)
(-0.40705636 -0.11647572 0 2.1350351e-06 0 0)
(-0.40764906 -0.116576 0 -2.0998954e-06 0 0)
(-0.40716536 -0.11649376 0 2.0746617e-06 0 0)
(-0.40754157 -0.11655823 0 -2.0534008e-06 0 0)
(-0.40727092 -0.1165108 0 2.2774563e-06 0 0)
(-0.40743656 -0.11654177 0 -2.3378008e-06 0 0)
(-0.2570957 -0.13722625 0 -0.035483388 0 0)
(-0.37151759 -0.11002861 0 0.00043078517 0 0)
(-0.36919239 -0.11106118 0 -8.5487519e-05 0 0)
(-0.38959613 -0.11420437 0 -5.2430612e-06 0 0)
(-0.37481907 -0.11160458 0 1.653724e-05 0 0)
(-0.3893661 -0.11409311 0 -8.709486e-06 0 0)
(-0.37630427 -0.11183027 0 1.6201212e-05 0 0)
(-0.38867791 -0.11397494 0 -1.2822973e-05 0 0)
(-0.37714078 -0.11197493 0 1.305927e-05 0 0)
(-0.38796069 -0.11385181 0 -1.1852385e-05 0 0)
(-0.37782672 -0.11209521 0 1.1273114e-05 0 0)
(-0.38731261 -0.11374075 0 -1.0508716e-05 0 0)
(-0.37842411 -0.11219997 0 9.884408e-06 0 0)
(-0.3867407 -0.11364265 0 -9.2617846e-06 0 0)
(-0.3789495 -0.112292 0 8.6954746e-06 0 0)
(-0.38623765 -0.11355626 0 -8.1580109e-06 0 0)
(-0.37941249 -0.112373 0 7.658745e-06 0 0)
(-0.38579512 -0.11348017 0 -7.1896614e-06 0 0)
(-0.37982083 -0.11244436 0 6.7521757e-06 0 0)
(-0.38540551 -0.11341312 0 -6.3422211e-06 0 0)
(-0.38018128 -0.11250728 0 5.9596838e-06 0 0)
(-0.3850621 -0.11335396 0 -5.6016923e-06 0 0)
(-0.38049977 -0.11256283 0 5.2677546e-06 0 0)
(-0.384759 -0.11330171 0 -4.9556291e-06 0 0)
(-0.38078159 -0.11261194 0 4.6646868e-06 0 0)
(-0.38449098 -0.11325548 0 -4.3931419e-06 0 0)
(-0.38103139 -0.11265544 0 4.1403047e-06 0 0)
(-0.38425347 -0.11321448 0 -3.9047498e-06 0 0)
(-0.38125334 -0.11269406 0 3.6857706e-06 0 0)
(-0.38404241 -0.11317804 0 -3.4822286e-06 0 0)
(-0.38145113 -0.11272845 0 3.2934343e-06 0 0)
(-0.38385419 -0.11314552 0 -3.1184766e-06 0 0)
(-0.38162804 -0.1127592 0 2.9567081e-06 0 0)
(-0.38368561 -0.11311639 0 -2.8074012e-06 0 0)
(-0.38178705 -0.11278682 0 2.6699652e-06 0 0)
(-0.3835338 -0.11309015 0 -2.5438285e-06 0 0)
(-0.38193081 -0.11281177 0 2.4284633e-06 0 0)
(-0.38339618 -0.11306637 0 -2.3234402e-06 0 0)
(-0.38206172 -0.11283448 0 2.2283002e-06 0 0)
(-0.38327043 -0.11304463 0 -2.1427534e-06 0 0)
(-0.38218198 -0.11285533 0 2.0664267e-06 0 0)
(-0.3831544 -0.11302458 0 -1.9991826e-06 0 0)
(-0.38229362 -0.11287466 0 1.9407895e-06 0 0)
(-0.38304612 -0.11300587 0 -1.8913279e-06 0 0)
(-0.38239853 -0.11289282 0 1.850746e-06 0 0)
(-0.38294372 -0.11298819 0 -1.820635e-06 0 0)
(-0.38249852 -0.1129101 0 1.7987462e-06 0 0)
(-0.38284511 -0.11297116 0 -1.7791902e-06 0 0)
(-0.38259517 -0.1129264 0 2.0047507e-06 0 0)
(-0.382747 -0.11295516 0 -2.0887758e-06 0 0)
(-0.2463063 -0.13038653 0 -0.031759614 0 0)
(-0.34480019 -0.10583992 0 0.00056377749 0 0)
(-0.34535717 -0.10743372 0 -6.9158079e-05 0 0)
(-0.36502146 -0.11054899 0 1.2539652e-07 0 0)
(-0.35150349 -0.10807547 0 1.447338e-05 0 0)
(-0.36488008 -0.11045377 0 -6.0444638e-06 0 0)
(-0.35291625 -0.10829415 0 1.4291998e-05 0 0)
(-0.36426919 -0.11034317 0 -1.0835701e-05 0 0)
(-0.35368912 -0.10843276 0 1.1255676e-05 0 0)
(-0.36361349 -0.1102257 0 -1.0135768e-05 0 0)
(-0.35431866 -0.1085477 0 9.6729038e-06 0 0)
(-0.36301905 -0.11011962 0 -9.0034632e-06 0 0)
(-0.35486636 -0.10864778 0 8.4745222e-06 0 0)
(-0.36249427 -0.1100259 0 -7.9379197e-06 0 0)
(-0.35534799 -0.10873569 0 7.4539946e-06 0 0)
(-0.36203269 -0.10994336 0 -6.9924041e-06 0 0)
(-0.35577244 -0.10881307 0 6.5650357e-06 0 0)
(-0.36162665 -0.10987067 0 -6.1624883e-06 0 0)
(-0.35614682 -0.10888123 0 5.7878377e-06 0 0)
(-0.3612692 -0.1098066 0 -5.4361124e-06 0 0)
(-0.35647729 -0.10894135 0 5.1084581e-06 0 0)
(-0.36095415 -0.10975008 0 -4.8013475e-06 0 0)
(-0.35676932 -0.10899441 0 4.5152854e-06 0 0)
(-0.36067608 -0.10970016 0 -4.2475405e-06 0 0)
(-0.35702771 -0.10904133 0 3.9982847e-06 0 0)
(-0.36043022 -0.10965598 0 -3.7653618e-06 0 0)
(-0.35725677 -0.1090829 0 3.5487324e-06 0 0)
(-0.36021235 -0.10961681 0 -3.3466873e-06 0 0)
(-0.35746028 -0.1091198 0 3.159052e-06 0 0)
(-0.36001875 -0.10958198 0 -2.9844692e-06 0 0)
(-0.35764163 -0.10915267 0 2.8226855e-06 0 0)
(-0.35984611 -0.10955091 0 -2.6726213e-06 0 0)
(-0.35780385 -0.10918205 0 2.533986e-06 0 0)
(-0.35969149 -0.10952307 0 -2.4059226e-06 0 0)
(-0.35794965 -0.10920845 0 2.2881316e-06 0 0)
(-0.35955227 -0.10949799 0 -2.1799405e-06 0 0)
(-0.35808145 -0.1092323 0 2.0810595e-06 0 0)
(-0.35942608 -0.10947525 0 -1.9909775e-06 0 0)
(-0.35820147 -0.10925401 0 1.9094304e-06 0 0)
(-0.35931077 -0.10945446 0 -1.8360562e-06 0 0)
(-0.35831173 -0.10927395 0 1.7706411e-06 0 0)
(-0.35920438 -0.10943528 0 -1.7129755e-06 0 0)
(-0.35841406 -0.10929245 0 1.6629528e-06 0 0)
(-0.35910512 -0.10941738 0 -1.6205653e-06 0 0)
(-0.35851023 -0.10930982 0 1.5858387e-06 0 0)
(-0.35901125 -0.10940046 0 -1.5602383e-06 0 0)
(-0.35860186 -0.10932636 0 1.5412488e-06 0 0)
(-0.35892088 -0.10938415 0 -1.5230029e-06 0 0)
(-0.35869027 -0.10934196 0 1.7454456e-06 0 0)
(-0.35882945 -0.10936864 0 -1.851897e-06 0 0)
(-0.23598366 -0.12379534 0 -0.02820582 0 0)
(-0.31964418 -0.10173846 0 0.00070448207 0 0)
(-0.32228201 -0.10379647 0 -4.8738246e-05 0 0)
(-0.34124918 -0.10689082 0 5.8373407e-06 0 0)
(-0.32891979 -0.10454454 0 1.3108753e-05 0 0)
(-0.34120516 -0.1068159 0 -3.5605719e-06 0 0)
(-0.33026118 -0.10475659 0 1.2524998e-05 0 0)
(-0.34066685 -0.10671269 0 -8.9945258e-06 0 0)
(-0.33097547 -0.10488937 0 9.5763985e-06 0 0)
(-0.34006856 -0.10660074 0 -8.5417641e-06 0 0)
(-0.33155283 -0.10499912 0 8.1850076e-06 0 0)
(-0.33952398 -0.10649948 0 -7.6047901e-06 0 0)
(-0.33205444 -0.10509465 0 7.1640203e-06 0 0)
(-0.33904301 -0.10641002 0 -6.707614e-06 0 0)
(-0.33249549 -0.10517856 0 6.3000926e-06 0 0)
(-0.33861994 -0.10633123 0 -5.9091308e-06 0 0)
(-0.33288419 -0.10525241 0 5.548484e-06 0 0)
(-0.33824781 -0.10626184 0 -5.2078491e-06 0 0)
(-0.33322705 -0.10531748 0 4.8915231e-06 0 0)
(-0.33792022 -0.10620068 0 -4.5939702e-06 0 0)
(-0.33352971 -0.10537486 0 4.3172662e-06 0 0)
(-0.3376315 -0.10614672 0 -4.0574851e-06 0 0)
(-0.33379717 -0.10542552 0 3.8158728e-06 0 0)
(-0.33737669 -0.10609906 0 -3.5894055e-06 0 0)
(-0.33403384 -0.10547031 0 3.378857e-06 0 0)
(-0.3371514 -0.10605688 0 -3.1818514e-06 0 0)
(-0.33424363 -0.10550998 0 2.998844e-06 0 0)
(-0.33695177 -0.10601949 0 -2.8279584e-06 0 0)
(-0.33443003 -0.10554522 0 2.6694293e-06 0 0)
(-0.33677439 -0.10598623 0 -2.521771e-06 0 0)
(-0.33459614 -0.1055766 0 2.3850689e-06 0 0)
(-0.33661622 -0.10595656 0 -2.2581456e-06 0 0)
(-0.33474472 -0.10560466 0 2.1409897e-06 0 0)
(-0.33647457 -0.10592997 0 -2.0326699e-06 0 0)
(-0.33487825 -0.10562987 0 1.9331157e-06 0 0)
(-0.33634703 -0.10590602 0 -1.8415979e-06 0 0)
(-0.33499897 -0.10565265 0 1.758014e-06 0 0)
(-0.33623143 -0.1058843 0 -1.6818063e-06 0 0)
(-0.33510888 -0.10567339 0 1.6128642e-06 0 0)
(-0.33612582 -0.10586444 0 -1.550782e-06 0 0)
(-0.33520985 -0.10569244 0 1.4954705e-06 0 0)
(-0.33602839 -0.10584611 0 -1.4466708e-06 0 0)
(-0.33530356 -0.10571012 0 1.4043718e-06 0 0)
(-0.33593749 -0.105829 0 -1.3684952e-06 0 0)
(-0.3353916 -0.10572672 0 1.3391181e-06 0 0)
(-0.33585155 -0.10581282 0 -1.3175728e-06 0 0)
(-0.33547549 -0.10574255 0 1.3011172e-06 0 0)
(-0.33576882 -0.10579722 0 -1.2838678e-06 0 0)
(-0.33555628 -0.10575746 0 1.4992441e-06 0 0)
(-0.33568381 -0.1057822 0 -1.6270959e-06 0 0)
(-0.22607254 -0.11743975 0 -0.02481836 0 0)
(-0.29599998 -0.097721057 0 0.00085286234 0 0)
(-0.30002443 -0.10015449 0 -2.5152116e-05 0 0)
(-0.3182596 -0.10322964 0 1.1599616e-05 0 0)
(-0.30706887 -0.10101181 0 1.2385139e-05 0 0)
(-0.31833751 -0.10317946 0 -1.2555e-06 0 0)
(-0.30834204 -0.10121764 0 1.0884503e-05 0 0)
(-0.31786798 -0.10308345 0 -7.28861e-06 0 0)
(-0.30900258 -0.1013448 0 8.0110362e-06 0 0)
(-0.31732333 -0.10297687 0 -7.0609438e-06 0 0)
(-0.30953162 -0.10144951 0 6.8004177e-06 0 0)
(-0.31682519 -0.10288031 0 -6.3043241e-06 0 0)
(-0.30999046 -0.10154061 0 5.9450095e-06 0 0)
(-0.31638495 -0.10279499 0 -5.5634725e-06 0 0)
(-0.31039384 -0.10162063 0 5.2268258e-06 0 0)
(-0.31599771 -0.10271984 0 -4.9016737e-06 0 0)
(-0.31074935 -0.10169106 0 4.602975e-06 0 0)
(-0.3156571 -0.10265365 0 -4.3200006e-06 0 0)
(-0.31106294 -0.10175311 0 4.0578422e-06 0 0)
(-0.31535726 -0.10259532 0 -3.8107306e-06 0 0)
(-0.31133977 -0.10180783 0 3.5813537e-06 0 0)
(-0.31509303 -0.10254386 0 -3.3656354e-06 0 0)
(-0.31158442 -0.10185615 0 3.1653176e-06 0 0)
(-0.31485983 -0.1024984 0 -2.9772738e-06 0 0)
(-0.3118009 -0.10189887 0 2.8026884e-06 0 0)
(-0.31465367 -0.10245817 0 -2.6391123e-06 0 0)
(-0.3119928 -0.10193671 0 2.4873458e-06 0 0)
(-0.31447099 -0.10242249 0 -2.3454577e-06 0 0)
(-0.31216331 -0.10197032 0 2.2139744e-06 0 0)
(-0.31430867 -0.10239077 0 -2.091369e-06 0 0)
(-0.31231525 -0.10200026 0 1.977973e-06 0 0)
(-0.31416395 -0.10236246 0 -1.8725786e-06 0 0)
(-0.31245116 -0.10202703 0 1.7753799e-06 0 0)
(-0.31403435 -0.1023371 0 -1.6854247e-06 0 0)
(-0.31257331 -0.10205108 0 1.6028123e-06 0 0)
(-0.31391767 -0.10231424 0 -1.5267987e-06 0 0)
(-0.31268372 -0.10207282 0 1.4574209e-06 0 0)
(-0.31381192 -0.10229351 0 -1.3941083e-06 0 0)
(-0.31278425 -0.10209261 0 1.3368648e-06 0 0)
(-0.31371531 -0.10227455 0 -1.2852679e-06 0 0)
(-0.31287659 -0.1021108 0 1.2393213e-06 0 0)
(-0.3136262 -0.10225705 0 -1.1987384e-06 0 0)
(-0.31296229 -0.10212768 0 1.1635762e-06 0 0)
(-0.31354307 -0.10224071 0 -1.1337039e-06 0 0)
(-0.31304279 -0.10214354 0 1.1092264e-06 0 0)
(-0.31346449 -0.10222526 0 -1.0913409e-06 0 0)
(-0.31311948 -0.10215866 0 1.0771248e-06 0 0)
(-0.31338887 -0.10221035 0 -1.060635e-06 0 0)
(-0.3131932 -0.10217291 0 1.2656168e-06 0 0)
(-0.31331003 -0.10219584 0 -1.4140395e-06 0 0)
(-0.21652147 -0.1113082 0 -0.021594415 0 0)
(-0.27380038 -0.093782431 0 0.0010090056 0 0)
(-0.2786187 -0.096513293 0 -1.6670925e-07 0 0)
(-0.29605224 -0.099566207 0 1.7329236e-05 0 0)
(-0.28595242 -0.097477225 0 1.2242795e-05 0 0)
(-0.29627422 -0.099544402 0 8.8748512e-07 0 0)
(-0.28716154 -0.097677336 0 9.3577038e-06 0 0)
(-0.29587002 -0.099455402 0 -5.7069922e-06 0 0)
(-0.28777285 -0.097799076 0 6.5496769e-06 0 0)
(-0.29537559 -0.09935406 0 -5.6842634e-06 0 0)
(-0.28825714 -0.0978989 0 5.5104713e-06 0 0)
(-0.29492071 -0.099262075 0 -5.0940354e-06 0 0)
(-0.28867629 -0.097985697 0 4.8099103e-06 0 0)
(-0.29451839 -0.099180774 0 -4.4983995e-06 0 0)
(-0.28904467 -0.098061932 0 4.2275318e-06 0 0)
(-0.29416447 -0.099109168 0 -3.9637793e-06 0 0)
(-0.28936933 -0.098129034 0 3.722642e-06 0 0)
(-0.29385319 -0.099046102 0 -3.4934326e-06 0 0)
(-0.28965572 -0.098188156 0 3.2816246e-06 0 0)
(-0.29357918 -0.098990518 0 -3.0815352e-06 0 0)
(-0.28990856 -0.098240294 0 2.8961595e-06 0 0)
(-0.29333772 -0.09894148 0 -2.7215102e-06 0 0)
(-0.290132 -0.098286329 0 2.5595908e-06 0 0)
(-0.29312463 -0.098898158 0 -2.4073545e-06 0 0)
(-0.29032972 -0.098327035 0 2.2662141e-06 0 0)
(-0.29293625 -0.098859823 0 -2.1337873e-06 0 0)
(-0.290505 -0.098363098 0 2.0110765e-06 0 0)
(-0.29276934 -0.098825825 0 -1.8962041e-06 0 0)
(-0.29066073 -0.098395124 0 1.7898763e-06 0 0)
(-0.29262104 -0.098795591 0 -1.6906083e-06 0 0)