/*--------------------------------*- C++ -*----------------------------------*\
| =========                 |                                                 |
| \\      /  F ield         | OpenFOAM: The Open Source CFD Toolbox           |
|  \\    /   O peration     | Version:  2312                                  |
|   \\  /    A nd           | Website:  www.openfoam.com                      |
|    \\/     M anipulation  |                                                 |
\*---------------------------------------------------------------------------*/
FoamFile
{
    version     2.0;
    format      ascii;
    arch        "LSB;label=32;scalar=64";
    class       volScalarField;
    location    "5";
    object      T;
}
// * * * * * * * * * * * * * * * * * * * * * * * * * * * * * * * * * * * * * //

dimensions      [0 0 0 1 0 0 0];

internalField   nonuniform List<scalar> 
4000
(
329.27845
328.41717
328.29771
328.22291
328.16713
328.11374
328.06865
328.02221
327.98129
327.9383
327.89952
327.85857
327.82106
327.78146
327.74477
327.70613
327.67002
327.63207
327.59638
327.55895
327.52361
327.48657
327.4515
327.41477
327.37994
327.34344
327.30881
327.2725
327.23803
327.20188
327.16756
327.13154
327.09735
327.06143
327.02737
326.99151
326.95758
326.92177
326.88797
326.85217
326.81852
326.7827
326.74921
326.71334
326.68005
326.64409
326.61104
326.57489
326.54229
326.50531
331.02165
329.28454
328.99584
328.83954
328.74018
328.64803
328.58072
328.50939
328.45459
328.39359
328.34521
328.29035
328.24576
328.19496
328.15285
328.10489
328.06451
328.01863
327.97954
327.93522
327.89715
327.854
327.81677
327.77453
327.738
327.69647
327.66054
327.61958
327.58415
327.54367
327.50867
327.46858
327.43397
327.39417
327.35995
327.32036
327.28652
327.24704
327.21362
327.17417
327.14119
327.10169
327.06919
327.02956
326.99764
326.95772
326.92655
326.88607
326.85622
326.81332
332.28225
330.13986
329.69134
329.45473
329.31204
329.18143
329.09193
328.99587
328.92717
328.84827
328.79026
328.72157
328.66988
328.60793
328.56037
328.50315
328.45848
328.40471
328.3622
328.31101
328.2702
328.22097
328.18156
328.13383
328.0956
328.04905
328.01182
327.96622
327.92982
327.88502
327.84934
327.80518
327.77015
327.72649
327.6921
327.64877
327.61503
327.57189
327.53884
327.49575
327.46343
327.42026
327.38876
327.34535
327.3148
327.27094
327.24163
327.19681
327.1697
327.12105
333.22776
330.97011
330.38027
330.06636
329.88116
329.71281
329.60126
329.48085
329.39826
329.3017
329.23403
329.15168
329.09287
329.01989
328.96685
328.90046
328.85147
328.78989
328.74393
328.68594
328.64238
328.5871
328.54551
328.49232
328.45238
328.40084
328.36229
328.31208
328.2747
328.2256
328.18923
328.14103
328.10557
328.05805
328.02349
327.97644
327.9428
327.89601
327.86333
327.81661
327.78495
327.73812
327.7076
327.66043
327.63124
327.58344
327.55599
327.50685
327.48244
327.42827
333.95747
331.76226
331.05731
330.6715
330.44543
330.24061
330.1074
329.96324
329.86688
329.75304
329.67574
329.58
329.51404
329.43024
329.37169
329.2963
329.24295
329.17369
329.12425
329.05956
329.01321
328.95198
328.90817
328.8496
328.80793
328.75145
328.71157
328.6568
328.61842
328.56507
328.52799
328.47578
328.43988
328.38854
328.3538
328.30305
328.2695
328.21908
328.18676
328.13642
328.10543
328.05494
328.0254
327.97449
327.94666
327.89492
327.8693
327.81588
327.7941
327.73472
334.53318
332.50507
331.71621
331.26649
331.00227
330.76288
330.60872
330.44172
330.33184
330.20129
330.11444
330.00569
329.93261
329.83828
329.77422
329.69003
329.63233
329.55554
329.50262
329.43134
329.38221
329.31511
329.2691
329.20522
329.1618
329.10047
329.05924
328.99998
328.96058
328.90304
328.86523
328.80907
328.77271
328.7176
328.68267
328.62826
328.59479
328.54076
328.5088
328.45487
328.42453
328.37042
328.34185
328.28721
328.26072
328.20508
328.18127
328.12362
328.10435
328.04012
334.99513
333.18983
332.35033
331.84719
331.54867
331.27737
331.10335
330.91476
330.79178
330.64526
330.54906
330.42781
330.34769
330.2432
330.17366
330.08096
330.01892
329.93481
329.87842
329.80073
329.74882
329.676
329.62777
329.55869
329.51353
329.44743
329.40485
329.34118
329.30076
329.23909
329.20055
329.1405
329.10368
329.04484
329.00972
328.95169
328.91829
328.8607
328.8291
328.77162
328.74192
328.68421
328.6566
328.59828
328.5731
328.51361
328.49156
328.42975
328.41286
328.34414
335.37065
333.81076
332.95321
332.40912
332.08135
331.78156
331.58921
331.38063
331.24519
331.08366
330.9784
330.84531
330.7583
330.64411
330.56919
330.46832
330.40198
330.31084
330.251
330.16712
330.11245
330.03406
329.98363
329.9095
329.86261
329.79186
329.74793
329.67995
329.6385
329.57281
329.53352
329.46967
329.43238
329.36988
329.33456
329.27297
329.23965
329.17855
329.1473
329.08631
329.05725
328.99599
328.96932
328.90736
328.88347
328.82019
328.79983
328.73398
328.71929
328.64646
335.67899
334.36493
333.51903
332.94781
332.59691
332.27274
332.06408
331.83747
331.69045
331.51506
331.4012
331.25703
331.1634
331.04005
330.9599
330.85127
330.78075
330.68288
330.61967
330.52983
330.47245
330.3887
330.33612
330.25709
330.2085
330.13324
330.08798
330.01581
329.97334
329.90374
329.8637
329.79614
329.75838
329.69231
329.65679
329.59171
329.55847
329.49391
329.46302
329.39858
329.37014
329.3054
329.27966
329.21413
329.19149
329.12449
329.10576
329.03599
329.02331
328.94674
335.93424
334.85208
334.04299
333.45898
333.09191
332.74818
332.52564
332.2833
332.12583
331.93796
331.8161
331.66176
331.56185
331.43001
331.34484
331.22895
331.15438
331.05016
330.98369
330.88818
330.82818
330.7393
330.68462
330.60089
330.55064
330.47104
330.42447
330.34827
330.30479
330.2314
330.19064
330.11947
330.08125
330.0117
329.976
329.90751
329.87435
329.80642
329.77588
329.70806
329.68025
329.61209
329.58725
329.51823
329.4968
329.42619
329.409
329.33547
329.32459
329.24463
336.14699
335.27419
334.52166
333.93885
333.56312
333.20512
332.97158
332.71615
332.5496
332.35081
332.2217
332.05824
331.9525
331.81292
331.72303
331.60043
331.52202
331.41188
331.34229
331.24145
331.17894
331.0852
331.02851
330.9403
330.88846
330.8047
330.75687
330.6768
330.63235
330.55532
330.51384
330.43921
330.40054
330.32763
330.29175
330.21995
330.18689
330.11568
330.08548
330.01438
329.98718
329.91569
329.89174
329.81932
329.79905
329.72495
329.7092
329.63211
329.6228
329.53978
336.32542
335.63506
334.95304
334.38434
334.0076
333.641
333.39965
333.13403
332.95999
332.75205
332.61659
332.44518
332.33419
332.1877
332.09346
331.96477
331.88279
331.76719
331.69468
331.5889
331.52403
331.42573
331.36715
331.27471
331.22135
331.13367
331.08463
331.00089
330.9555
330.87501
330.83285
330.75489
330.7158
330.63966
330.60362
330.52863
330.49567
330.42128
330.39144
330.31716
330.29055
330.21586
330.19275
330.11705
330.09788
330.02044
330.00602
329.92557
329.91761
329.83184
336.47598
335.93978
335.33663
334.7932
334.4229
334.05347
333.80775
333.53505
333.35533
333.14013
332.99938
332.82132
332.70572
332.55324
332.45511
332.32103
332.23579
332.11528
332.04009
331.92977
331.86272
331.7602
331.69987
331.6035
331.54872
331.45736
331.40719
331.32
331.27372
331.18996
331.14716
331.06604
331.02657
330.94733
330.91117
330.83312
330.80028
330.72284
330.69336
330.61601
330.59
330.5122
330.48992
330.41108
330.39295
330.31232
330.29912
330.21554
330.20871
330.12047
336.60379
336.19428
335.67329
335.16413
334.80713
334.44055
334.19402
333.91747
333.73402
333.51359
333.36872
333.18538
333.06595
332.90849
332.80698
332.66825
332.58015
332.45529
332.37772
332.26331
332.19431
332.08794
332.02603
331.92603
331.86998
331.7752
331.724
331.63359
331.58651
331.49967
331.45629
331.37219
331.33239
331.25021
331.21397
331.13299
331.1003
331.01994
330.99083
330.91055
330.88512
330.80437
330.78288
330.70105
330.6839
330.60027
330.58816
330.50169
330.49579
330.40533
336.71301
336.40489
335.9651
335.49679
335.15905
334.80068
334.55688
334.27974
334.09461
333.87107
333.72337
333.5362
333.41379
333.25239
333.14812
333.00553
332.915
332.78641
332.70678
332.58879
332.5181
332.40828
332.34499
332.2417
332.18452
332.08662
332.0345
331.94113
331.89332
331.80364
331.75975
331.67288
331.63279
331.54785
331.51157
331.42783
331.39532
331.31219
331.28346
331.20041
331.17556
331.09201
331.07127
330.98662
330.97037
330.88394
330.8728
330.78368
330.77853
330.68608
336.80697
336.57794
336.21507
335.79176
335.47812
335.13278
334.89509
334.62057
334.43586
334.21134
334.06216
333.87267
333.7482
333.58397
333.47759
333.33197
333.23951
333.10784
333.02654
332.90548
332.83338
332.72055
332.6561
332.54988
332.49175
332.39106
332.33815
332.2421
332.19367
332.10139
332.05708
331.96763
331.92734
331.83982
331.80355
331.71722
331.68493
331.5992
331.57087
331.4852
331.46092
331.37474
331.35472
331.26743
331.25203
331.163
331.15271
331.0612
331.05663
330.9624
336.8884
336.71949
336.42692
336.05045
335.76447
335.43631
335.20783
334.93897
334.75675
334.53337
334.38409
334.19381
334.06826
333.90232
333.79454
333.64677
333.5529
333.41884
333.33627
333.21268
333.13951
333.02411
332.95877
332.85001
332.79112
332.68796
332.63442
332.53598
332.48706
332.39243
332.34779
332.256
332.21558
332.12569
332.0895
332.00077
331.96873
331.88058
331.85266
331.76457
331.74084
331.65222
331.63289
331.54317
331.52853
331.43713
331.42758
331.33392
331.3298
331.23398
336.95949
336.83511
336.60475
336.27496
336.01889
335.71122
335.49466
335.23424
335.0565
334.8363
334.68834
334.49876
334.37313
334.20663
334.0982
333.94915
333.85446
333.71869
333.63532
333.50977
333.43587
333.31838
333.2524
333.14151
333.08208
332.9768
332.9228
332.82228
332.77299
332.67629
332.63144
332.53754
332.49709
332.40504
332.36899
332.27806
332.24633
332.15596
332.12848
332.03814
332.01498
331.92411
331.90544
331.81349
331.79955
331.70601
331.69709
331.60154
331.59775
331.50051
337.02202
336.92975
336.75285
336.46791
336.24273
335.95798
335.75558
335.50605
335.33463
335.11953
334.97425
334.78683
334.66215
334.4962
334.3879
334.23846
334.14353
334.00677
333.92305
333.79613
333.72188
333.60278
333.53647
333.42387
333.36412
333.2571
333.20281
333.10053
333.05104
332.95254
332.9076
332.81184
332.77146
332.67748
332.64165
332.54874
332.51735
332.42497
332.39795
332.30558
332.28298
332.19007
332.17203
332.07807
332.06477
331.96933
331.96094
331.86375
331.86019
331.76172
337.0774
337.00765
336.87544
336.63226
336.43779
336.17752
335.99098
335.7544
335.59093
335.38268
335.24137
335.05751
334.93477
334.77048
334.66307
334.51412
334.41957
334.28253
334.19895
334.07123
333.99702
333.87681
333.81047
333.69659
333.63678
333.52838
333.47401
333.37031
333.32075
333.22076
333.17586
333.07851
333.0383
332.94263
332.9071
332.81243
332.78145
332.68727
332.66074
332.56656
332.54451
332.44979
332.43235
332.33662
332.32389
332.2268
332.21886
332.12025
332.11686
332.01732
337.12678
337.07236
336.9765
336.77117
336.60627
336.37116
336.20163
335.97962
335.82548
335.62562
335.48947
335.31046
335.19061
335.02903
334.92328
334.77566
334.6821
334.54548
334.46253
334.33461
334.26083
334.14001
334.07397
333.95924
333.89961
333.79024
333.73598
333.63119
333.58176
333.48057
333.43585
333.33717
333.29725
333.20013
333.16499
333.06879
333.03828
332.94254
332.91652
332.82076
332.79927
332.70297
332.6861
332.58883
332.57663
332.47813
332.47056
332.37078
332.3675
332.26704
337.17105
337.12677
337.05971
336.88784
336.75058
336.54054
336.38861
336.18234
336.03863
335.84847
335.71853
335.54552
335.42946
335.27156
335.16821
335.02273
334.93077
334.79524
334.71342
334.58587
334.51292
334.392
334.32657
334.21144
334.15225
334.04229
333.98836
333.88283
333.83369
333.73161
333.68722
333.58749
333.54798
333.44966
333.41501
333.31753
333.28754
333.19047
333.165
333.06789
333.04697
332.94932
332.933
332.83444
332.82271
332.72305
332.71579
332.61506
332.61186
332.51066
337.21095
337.17316
337.1283
336.98535
336.87325
336.68754
336.55327
336.36346
336.23098
336.05155
335.92873
335.76273
335.65127
335.49794
335.39768
335.25511
335.16532
335.03154
334.95133
334.82471
334.75299
334.63245
334.56796
334.45286
334.39438
334.28421
334.23083
334.1249
334.07623
333.97357
333.92967
333.82915
333.79018
333.69093
333.65685
333.55834
333.52894
333.43078
333.4059
333.30768
333.28734
333.18859
333.1728
333.07319
333.06189
332.96131
332.95431
332.85285
332.84971
332.74792
337.24703
337.21329
337.18507
337.0666
336.97685
336.81417
336.69718
336.5241
336.40337
336.23543
336.12044
335.96229
335.85616
335.70817
335.61164
335.47268
335.38562
335.25419
335.17605
335.0509
334.98079
334.86111
334.79788
334.68323
334.62572
334.51573
334.46311
334.35713
334.30912
334.20618
334.16292
334.06191
334.02359
333.92367
333.89026
333.79097
333.76222
333.66323
333.63898
333.53989
333.52013
333.42052
333.40526
333.30485
333.29395
333.19269
333.18591
333.08394
333.08084
332.97863
337.27974
337.24848
337.23235
337.13424
337.06386
336.92252
336.82203
336.66558
336.5568
336.40086
336.29423
336.1446
336.04438
335.90243
335.81019
335.67545
335.59162
335.46311
335.38748
335.26431
335.19617
335.07781
335.01614
334.90236
334.84608
334.73663
334.68499
334.5793
334.53213
334.42921
334.38674
334.28551
334.24799
334.14766
334.11502
334.0152
333.98717
333.88759
333.864
333.7643
333.74514
333.64492
333.63017
333.5292
333.51868
333.41696
333.41039
333.30811
333.30504
333.20259
337.30945
337.2797
337.27207
337.19059
337.13663
337.01469
336.92962
336.78934
336.69244
336.54873
336.45082
336.3102
336.21637
336.08099
335.99353
335.86357
335.78341
335.65834
335.5856
335.46488
335.39906
335.28245
335.22263
335.11011
335.0553
334.94676
334.89631
334.79123
334.74508
334.64248
334.60097
334.49979
334.46318
334.36271
334.33092
334.23084
334.20359
334.10368
334.08079
333.98071
333.96218
333.86158
333.84734
333.74605
333.73589
333.63396
333.62757
333.52518
333.52216
333.41963
337.33643
337.30766
337.30575
337.23765
337.19732
337.09269
337.02173
336.89689
336.81157
336.68007
336.59105
336.45974
336.37265
336.24428
336.162
336.03727
335.96118
335.83998
335.7705
335.65266
335.58947
335.47501
335.41731
335.30642
335.25331
335.14602
335.09697
334.9928
334.94786
334.84586
334.80545
334.7046
334.66901
334.56866
334.53782
334.43773
334.41133
334.31132
334.28918
334.18897
334.17108
334.07035
334.05662
333.95525
333.94544
333.84351
333.8373
333.73499
333.73202
333.62959
337.36091
337.33285
337.33459
337.27714
337.24785
337.15842
337.10014
336.98977
336.91553
336.79603
336.71587
336.59402
336.51389
336.39283
336.31603
336.1969
336.12519
336.00827
335.94235
335.82776
335.76748
335.65553
335.6002
335.49129
335.4401
335.33438
335.28691
335.18396
335.14038
335.03927
335.00009
334.89984
334.86539
334.76541
334.73561
334.63575
334.61026
334.51041
334.48905
334.38895
334.37172
334.27109
334.25789
334.15665
334.14719
334.04548
334.03945
333.93742
333.9345
333.83235
337.38308
337.3556
337.35951
337.31045
337.28992
337.21364
337.16653
337.06953
337.0057
336.89777
336.82634
336.71392
336.64083
336.52727
336.45616
336.3429
336.27584
336.1635
336.10139
335.99039
335.93325
335.82414
335.77139
335.66478
335.6157
335.51185
335.46614
335.36468
335.32262
335.22266
335.18485
335.08544
335.05225
334.95289
334.9242
334.82482
334.8003
334.70085
334.68031
334.58056
334.56401
334.46371
334.45103
334.35016
334.34105
334.23976
334.23391
334.13235
334.1295
334.02779
337.40307
337.37616
337.3812
337.33872
337.32498
337.25993
337.22249
337.13766
337.08346
336.98654
336.92351
336.82037
336.75432
336.6483
336.58301
336.47581
336.41357
336.30605
336.24796
336.14081
336.08703
335.98104
335.93106
335.82702
335.78023
335.67851
335.63472
335.53502
335.49462
335.39605
335.35974
335.26141
335.22957
335.13106
335.10357
335.0049
334.9814
334.88258
334.8629
334.76372
334.74787
334.64813
334.63599
334.53569
334.52694
334.42626
334.42061
334.31969
334.31692
334.21584
337.421
337.39468
337.40017
337.36285
337.35426
337.29868
337.26949
337.19557
337.15012
337.06355
337.00852
336.91436
336.85521
336.75671
336.69726
336.59622
336.5389
336.43639
336.38245
336.27939
336.2291
336.12648
336.07942
335.97819
335.93384
335.83451
335.79277
335.69505
335.65644
335.5595
335.52478
335.42777
335.39736
335.29994
335.27371
335.17598
335.15356
335.05557
335.0368
334.9384
334.92328
334.8243
334.81271
334.7132
334.70481
334.60494
334.59949
334.4994
334.49671
334.39642
337.43696
337.41128
337.41679
337.38354
337.37877
337.33111
337.30882
337.2446
337.20699
337.12999
337.08247
336.99691
336.94443
336.85331
336.79964
336.70477
336.65241
336.55501
336.50532
336.4065
336.35982
336.26076
336.21674
336.11855
336.07676
335.98001
335.94045
335.84492
335.80821
335.7131
335.68008
335.5846
335.5557
335.45958
335.43467
335.33808
335.31678
335.21985
335.202
335.1046
335.09023
334.99222
334.98119
334.88265
334.87464
334.77577
334.77054
334.67143
334.66884
334.56951
337.45102
337.42606
337.43134
337.40137
337.39935
337.35826
337.34166
337.28593
337.25526
337.18703
337.14644
337.06901
337.02291
336.93893
336.89091
336.80215
336.75473
336.6625
336.61708
336.52262
336.4796
336.38426
336.34337
336.24837
336.20923
336.11525
336.07796
335.98482
335.9501
335.85701
335.82577
335.732
335.70468
335.61005
335.58651
335.49128
335.47114
335.37546
335.35857
335.26236
335.24875
335.1519
335.14145
335.04406
335.03644
334.93873
334.93373
334.83578
334.8333
334.73509
337.46324
337.43907
337.44403
337.41674
337.41666
337.381
337.36902
337.32067
337.29604
337.23575
337.20148
337.13166
337.09156
337.01443
336.97186
336.88909
336.84651
336.75943
336.71826
336.62822
336.58889
336.49738
336.45965
336.36799
336.33157
336.24051
336.20556
336.11496
336.0823
335.99141
335.962
335.87013
335.84444
335.75149
335.72936
335.63566
335.61671
335.52248
335.50657
335.41172
335.39891
335.30339
335.29352
335.19747
335.19025
335.09386
335.08911
334.99246
334.9901
334.89316
337.47367
337.4504
337.45502
337.42999
337.43124
337.40006
337.39178
337.34977
337.33034
337.27716
337.24859
337.1858
337.15129
337.08066
337.04328
336.96631
336.92842
336.84643
336.80944
336.72384
336.68818
336.60056
336.56602
336.47779
336.44412
336.35609
336.32354
336.23561
336.20507
336.11651
336.08898
335.99917
335.97515
335.88405
335.86336
335.77137
335.75363
335.661
335.6461
335.55279
335.54077
335.44675
335.43749
335.34292
335.33612
335.24121
335.23671
335.14151
335.13928
335.04377
337.48236
337.46012
337.46444
337.44139
337.44353
337.41604
337.41067
337.3741
337.35907
337.3122
337.28869
337.23234
337.20296
337.13845
337.10595
337.03456
337.00116
336.92415
336.89121
336.81003
336.77797
336.69426
336.66289
336.57815
336.54725
336.46234
336.43222
336.34706
336.31867
336.23257
336.20696
336.11934
336.09702
336.00791
335.98869
335.89854
335.88205
335.79118
335.77729
335.68568
335.67447
335.5821
335.57345
335.48051
335.47414
335.38084
335.37661
335.28301
335.28091
335.18696
337.48939
337.46832
337.47242
337.45115
337.45386
337.42944
337.42634
337.39437
337.38303
337.34171
337.32265
337.27214
337.24742
337.18859
337.16064
337.09454
337.06541
336.99322
336.96417
336.88734
336.85878
336.77899
336.75073
336.66952
336.64136
336.55964
336.53194
336.44964
336.4234
336.33987
336.31619
336.23089
336.21027
336.12328
336.10554
336.01739
336.00214
335.91317
335.9003
335.81052
335.80014
335.70956
335.70153
335.61036
335.60442
335.51287
335.50892
335.41703
335.41507
335.32281
337.49485
337.47509
337.47908
337.45943
337.46252
337.44067
337.43928
337.41121
337.40291
337.36645
337.35123
337.30598
337.28543
337.23185
337.20807
337.14697
337.12182
337.05427
337.02893
336.95634
336.93116
336.85524
336.83001
336.75233
336.72687
336.64836
336.62307
336.54369
336.51961
336.43872
336.41697
336.33408
336.31516
336.23041
336.21414
336.12811
336.1141
336.02716
336.01532
335.9275
335.91793
335.82927
335.82187
335.73258
335.72709
335.6374
335.63374
335.54368
335.54187
335.45142
337.49887
337.48055
337.48452
337.4664
337.46973
337.45004
337.44996
337.42516
337.41933
337.38706
337.37513
337.33456
337.31771
337.26893
337.24894
337.19252
337.17107
337.10793
337.08608
337.01761
336.99565
336.92352
336.90122
336.82704
336.80422
336.72893
336.70601
336.62958
336.60762
336.52945
336.50959
336.42921
336.41197
336.32956
336.31475
336.23094
336.21817
336.13336
336.12255
336.03679
336.02805
335.94141
335.93464
335.84735
335.84231
335.75458
335.75121
335.6631
335.66143
335.57291
337.50162
337.48483
337.48887
337.47218
337.47567
337.45783
337.4587
337.43666
337.4328
337.40414
337.39498
337.35855
337.34492
337.3005
337.28391
337.23183
337.21376
337.15481
337.1362
337.07169
337.05277
336.98435
336.96485
336.89412
336.87385
336.80175
336.78115
336.70768
336.68781
336.61238
336.5944
336.51658
336.501
336.42101
336.40764
336.32613
336.31459
336.23199
336.2222
336.13861
336.13069
336.04617
336.04003
335.95483
335.95024
335.86458
335.8615
335.77543
335.77391
335.68741
337.50329
337.48806
337.49223
337.47691
337.4805
337.46426
337.46582
337.44608
337.44377
337.41817
337.4113
337.3785
337.36764
337.32715
337.31357
337.2655
337.25048
337.19548
337.17985
337.11913
337.10305
337.03822
337.02137
336.95401
336.9362
336.86726
336.84889
336.77838
336.76054
336.68789
336.67173
336.59651
336.58255
336.50504
336.49308
336.41395
336.40361
336.32332
336.31453
336.23319
336.22607
336.14376
336.13823
336.05521
336.05107
335.96756
335.96477
335.88083
335.87946
335.79506
337.50407
337.4904
337.49473
337.4807
337.48436
337.4695
337.47153
337.45372
337.45258
337.42959
337.42457
337.39493
337.38642
337.34944
337.33848
337.29408
337.2818
337.23048
337.21757
337.16045
337.14699
337.08562
337.07127
337.00719
336.99171
336.92587
336.90966
336.84208
336.8262
336.75632
336.74192
336.66935
336.65696
336.58197
336.57139
336.49468
336.48552
336.4076
336.39979
336.32075
336.31443
336.23439
336.22948
336.1487
336.14501
336.06372
336.06123
335.97949
335.97826
335.89605
337.50418
337.49199
337.49649
337.48365
337.48736
337.47371
337.47604
337.45983
337.45954
337.43874
337.43519
337.40827
337.40171
337.36785
337.35915
337.3181
337.30822
337.26033
337.24986
337.19615
337.1851
337.12704
337.115
337.05411
337.04082
336.97801
336.96385
336.89916
336.88516
336.81805
336.80535
336.73543
336.72455
336.65212
336.64286
336.56863
336.56061
336.48509
336.47824
336.40157
336.39602
336.31831
336.314
336.23553
336.23228
336.15327
336.15107
336.07159
336.0705
335.99055
337.50379
337.49295
337.4976
337.48588
337.48961
337.47701
337.47949
337.4646
337.46491
337.44591
337.44348
337.4189
337.41393
337.38282
337.37602
337.338
337.33021
337.2855
337.2772
337.2267
337.21782
337.16293
337.15302
337.09519
337.08396
337.0241
337.01188
336.95002
336.93781
336.87344
336.86235
336.7951
336.78565
336.7158
336.70781
336.63608
336.62916
336.55609
336.55016
336.4759
336.47109
336.39577
336.39204
336.31592
336.3131
336.23642
336.23451
336.15734
336.1564
336.07876
337.50306
337.49341
337.49818
337.48746
337.49118
337.47948
337.48201
337.46819
337.46886
337.45136
337.44974
337.42714
337.42341
337.39471
337.3895
337.3542
337.3482
337.30642
337.30002
337.25254
337.2456
337.19371
337.18576
337.13087
337.12155
337.06454
337.05414
336.99505
336.98453
336.92286
336.9133
336.8487
336.84061
336.77335
336.76656
336.69735
336.69148
336.62088
336.61584
336.54401
336.53993
336.46702
336.46385
336.39012
336.38772
336.31341
336.31177
336.23697
336.23616
336.16087
337.50212
337.49347
337.4983
337.48848
337.49215
337.48122
337.48367
337.47073
337.47154
337.45525
337.45418
337.43325
337.43047
337.40387
337.39992
337.36709
337.36258
337.3235
337.31873
337.27407
337.26885
337.21982
337.21361
337.16154
337.15397
337.09971
337.09101
337.03462
337.02568
336.96668
336.95855
336.89657
336.88976
336.82508
336.81943
336.75275
336.74788
336.67975
336.67556
336.60619
336.6028
336.53232
336.5297
336.45838
336.45638
336.38447
336.3831
336.31069
336.31001
336.23712
337.50103
337.49322
337.49806
337.48901
337.49258
337.48228
337.48456
337.47228
337.47308
337.45775
337.45699
337.43744
337.43534
337.41057
337.40761
337.37698
337.37369
337.33708
337.3337
337.29167
337.28795
337.24161
337.23698
337.18759
337.18162
337.13001
337.12287
337.0691
337.06163
337.00523
336.99844
336.93905
336.93344
336.87132
336.86674
336.80258
336.79865
336.73301
336.72962
336.66271
336.65997
336.59194
336.58984
336.52095
336.51934
336.44986
336.44874
336.37874
336.37819
336.30771
337.49984
337.49272
337.49751
337.4891
337.49252
337.4827
337.48472
337.47292
337.47356
337.45895
337.45831
337.43989
337.43824
337.41504
337.41283
337.38416
337.38185
337.3475
337.34527
337.3057
337.30326
337.25947
337.25622
337.20939
337.20485
337.15578
337.15007
337.09884
337.09273
337.03887
337.03332
336.97649
336.97198
336.9124
336.90881
336.84716
336.84411
336.78094
336.7783
336.71386
336.71174
336.64616
336.64455
336.5781
336.57686
336.5098
336.50894
336.44136
336.44093
336.37288
337.49859
337.49202
337.49669
337.4888
337.49199
337.48251
337.48415
337.47267
337.47301
337.45895
337.45824
337.44075
337.43933
337.41748
337.4158
337.38887
337.38732
337.35505
337.35375
337.31646
337.3151
337.27371
337.27166
337.22726
337.22401
337.17738
337.17297
337.12418
337.11931
337.06794
337.06351
337.00919
337.0057
336.94863
336.94595
336.88679
336.88455
336.82385
336.82191
336.75992
336.75838
336.69525
336.6941
336.63009
336.6292
336.56457
336.56394
336.4988
336.49848
336.43286
337.49727
337.49114
337.49564
337.48814
337.491
337.4817
337.48288
337.47155
337.47147
337.45778
337.45687
337.44011
337.43876
337.41807
337.41671
337.39135
337.39035
337.35997
337.3594
337.32425
337.32378
337.28465
337.28363
337.24155
337.23943
337.19512
337.19188
337.14545
337.14171
337.09274
337.08935
337.03748
337.03491
336.98032
336.97847
336.92177
336.92028
336.86202
336.86073
336.80118
336.80018
336.73949
336.73876
336.67718
336.67661
336.61441
336.614
336.55129
336.55108
336.48789
337.49587
337.49011
337.49438
337.48712
337.48955
337.48027
337.48087
337.46956
337.46895
337.45548
337.45424
337.43805
337.43662
337.41692
337.41573
337.39176
337.39114
337.3625
337.36248
337.32932
337.32956
337.29256
337.29242
337.25253
337.2514
337.20932
337.20712
337.16296
337.16023
337.11359
337.11113
337.06166
337.05993
337.00776
337.00667
336.95239
336.95158
336.89573
336.89505
336.83791
336.8374
336.77913
336.7788
336.71964
336.71937
336.65959
336.65937
336.59908
336.59897
336.53821
337.49439
337.48894
337.49291
337.48573
337.48762
337.47819
337.4781
337.46665
337.46543
337.45205
337.45038
337.43464
337.43302
337.41416
337.413
337.39028
337.38987
337.36283
337.36321
337.3319
337.3327
337.29772
337.29829
337.26049
337.2602
337.22026
337.21897
337.17699
337.17517
337.13079
337.12916
337.08203
337.08104
337.03126
337.03084
336.97894
336.97875
336.92528
336.92514
336.87038
336.87033
336.81445
336.81449
336.75772
336.75773
336.70035
336.70032
336.64244
336.64242
336.58407
337.49281
337.48762
337.49122
337.48394
337.48515
337.4754
337.47452
337.46281
337.46089
337.44749
337.44532
337.42991
337.428
337.40987
337.40862
337.38703
337.38671
337.36115
337.36178
337.33221
337.33342
337.30034
337.30149
337.26568
337.26611
337.2282
337.22771
337.18783
337.1868
337.14461
337.14372
337.09886
337.09853
337.05107
337.05125
337.0017
337.00206
336.95093
336.95128
336.89888
336.89923
336.84572
336.84608
336.79169
336.79195
336.73695
336.73709
336.68159
336.68165
336.6257
337.49111
337.48615
337.48928
337.48171
337.48208
337.47183
337.47007
337.45797
337.4553
337.44178
337.43905
337.42388
337.42162
337.40413
337.40271
337.38214
337.3818
337.35761
337.35836
337.33043
337.33193
337.30066
337.30224
337.26833
337.26936
337.2334
337.2336
337.19573
337.1954
337.15532
337.15507
337.11243
337.11266
337.06749
337.06818
337.02094
337.02177
336.97296
336.97373
336.92365
336.92437
336.87319
336.87385
336.8218
336.82229
336.76963
336.76993
336.71679
336.71693
336.66335
337.48928
337.4845
337.48704
337.47897
337.47834
337.46741
337.46466
337.45207
337.4486
337.43491
337.43159
337.41659
337.41393
337.39699
337.39533
337.3757
337.37527
337.35234
337.35313
337.32674
337.32841
337.29886
337.30077
337.26868
337.27018
337.23609
337.23687
337.20094
337.20121
337.16317
337.16347
337.12298
337.12371
337.08076
337.0819
337.0369
337.03815
336.9916
336.99276
336.94496
336.946
336.89712
336.89803
336.8483
336.84899
336.79865
336.79909
336.74828
336.74849
336.69725
337.4873
337.48265
337.48444
337.47562
337.47381
337.46205
337.45822
337.44505
337.44075
337.42683
337.4229
337.40804
337.40495
337.38851
337.38658
337.3678
337.36721
337.34548
337.34622
337.3213
337.32304
337.29513
337.29726
337.26691
337.26878
337.23649
337.23774
337.20369
337.20446
337.1684
337.16917
337.13076
337.1319
337.09113
337.09264
337.04985
337.05145
337.00713
337.0086
336.96305
336.96436
336.91775
336.91888
336.87143
336.8723
336.82425
336.82481
336.77629
336.77656
336.72764
337.48515
337.48056
337.48137
337.47156
337.46838
337.45562
337.45065
337.43685
337.43171
337.41753
337.413
337.39824
337.39472
337.37874
337.3765
337.35854
337.35774
337.33714
337.33776
337.31423
337.31596
337.28963
337.29189
337.26321
337.26535
337.2348
337.23643
337.20418
337.20538
337.17122
337.17238
337.136
337.13748
337.09882
337.10064
337.06002
337.06191
337.01976
337.02151
336.97816
336.97971
336.93532
336.93664
336.89143
336.89245
336.84666
336.84732
336.80107
336.80139
336.75475
337.48281
337.47816
337.47773
337.46663
337.46192
337.44802
337.44187
337.42739
337.42142
337.40697
337.40187
337.3872
337.38327
337.36772
337.36517
337.34797
337.34694
337.32742
337.32787
337.30567
337.30733
337.28251
337.28482
337.25775
337.26009
337.2312
337.23314
337.20263
337.20416
337.17185
337.17333
337.13892
337.14067
337.10408
337.10613
337.06762
337.06975
337.02974
337.03171
336.99052
336.99226
336.95006
336.95154
336.90854
336.90969
336.86611
336.86686
336.82284
336.82321
336.77881
337.48024
337.47537
337.47336
337.46069
337.45427
337.43914
337.43177
337.41661
337.40984
337.39515
337.3895
337.37493
337.37061
337.35549
337.35264
337.33618
337.3349
337.31641
337.31667
337.29574
337.29728
337.27391
337.27621
337.25069
337.25314
337.22588
337.22803
337.1992
337.20101
337.17049
337.17222
337.13971
337.14168
337.10709
337.10933
337.07289
337.07519
337.03728
337.03942
337.00035
337.00224
336.9622
336.9638
336.92297
336.92422
336.88282
336.88365