/*--------------------------------*- C++ -*----------------------------------*\
| =========                 |                                                 |
| \\      /  F ield         | OpenFOAM: The Open Source CFD Toolbox           |
|  \\    /   O peration     | Version:  2312                                  |
|   \\  /    A nd           | Website:  www.openfoam.com                      |
|    \\/     M anipulation  |                                                 |
\*---------------------------------------------------------------------------*/
FoamFile
{
    version     2.0;
    format      ascii;
    arch        "LSB;label=32;scalar=64";
    class       volSymmTensorField;
    location    "4";
    object      sigma;
}
// * * * * * * * * * * * * * * * * * * * * * * * * * * * * * * * * * * * * * //

dimensions      [0 2 -2 0 0 0 0];

internalField   nonuniform List<symmTensor> 
4000
(
(-3.8351977 -1.7599774 0 -0.75365843 0 0)
(-13.169281 -0.71933986 0 -0.012227965 0 0)
(-4.2951523 -0.37949409 0 -0.0024263562 0 0)
(-4.7239296 -0.3952793 0 0.00026603485 0 0)
(-4.26214 -0.37763404 0 -0.00020841995 0 0)
(-4.1613074 -0.37230713 0 2.4228687e-05 0 0)
(-4.1887585 -0.37400788 0 -6.2693714e-05 0 0)
(-4.0660516 -0.3680156 0 1.2455429e-05 0 0)
(-4.1261295 -0.37104661 0 -3.194959e-05 0 0)
(-4.0536988 -0.3674503 0 2.1141993e-05 0 0)
(-4.1072908 -0.37015428 0 -2.429348e-05 0 0)
(-4.0560935 -0.36757317 0 2.1675896e-05 0 0)
(-4.1010868 -0.36985417 0 -2.1245099e-05 0 0)
(-4.0591488 -0.36772686 0 1.9904639e-05 0 0)
(-4.0979153 -0.36969611 0 -1.8943883e-05 0 0)
(-4.0615402 -0.36784847 0 1.7820742e-05 0 0)
(-4.0955685 -0.36957776 0 -1.68611e-05 0 0)
(-4.0635607 -0.36795128 0 1.5867648e-05 0 0)
(-4.0935816 -0.36947749 0 -1.4981021e-05 0 0)
(-4.0653682 -0.36804285 0 1.410494e-05 0 0)
(-4.0918316 -0.36938933 0 -1.3302824e-05 0 0)
(-4.0669985 -0.36812517 0 1.252742e-05 0 0)
(-4.0902699 -0.36931074 0 -1.1809352e-05 0 0)
(-4.0684668 -0.36819919 0 1.1122753e-05 0 0)
(-4.0888711 -0.36924038 0 -1.0484593e-05 0 0)
(-4.0697865 -0.36826569 0 9.8783877e-06 0 0)
(-4.0876176 -0.36917732 0 -9.3149612e-06 0 0)
(-4.0709707 -0.36832534 0 8.7823444e-06 0 0)
(-4.0864941 -0.36912081 0 -8.2881707e-06 0 0)
(-4.0720329 -0.36837881 0 7.8230322e-06 0 0)
(-4.0854869 -0.36907018 0 -7.3926396e-06 0 0)
(-4.072986 -0.36842674 0 6.9892859e-06 0 0)
(-4.0845826 -0.36902478 0 -6.6173951e-06 0 0)
(-4.0738432 -0.36846976 0 6.2705539e-06 0 0)
(-4.0837683 -0.36898399 0 -5.9522573e-06 0 0)
(-4.0746166 -0.36850845 0 5.6571416e-06 0 0)
(-4.0830318 -0.36894724 0 -5.3880225e-06 0 0)
(-4.0753183 -0.36854341 0 5.140418e-06 0 0)
(-4.0823617 -0.36891395 0 -4.9166369e-06 0 0)
(-4.0759591 -0.36857516 0 4.7129507e-06 0 0)
(-4.0817472 -0.3688836 0 -4.531315e-06 0 0)
(-4.0765495 -0.36860421 0 4.3686557e-06 0 0)
(-4.0811784 -0.36885573 0 -4.2265012e-06 0 0)
(-4.0770993 -0.36863104 0 4.103281e-06 0 0)
(-4.0806474 -0.36882993 0 -3.9981812e-06 0 0)
(-4.0776197 -0.36865619 0 3.9118894e-06 0 0)
(-4.0801421 -0.36880573 0 -3.8592386e-06 0 0)
(-4.0780797 -0.36867851 0 3.750931e-06 0 0)
(-4.0794891 -0.36877587 0 -3.9272773e-06 0 0)
(-4.0779965 -0.36867484 0 3.7671552e-06 0 0)
(-3.4053292 -1.6361711 0 -0.71707637 0 0)
(-10.754801 -0.69903793 0 -0.026647063 0 0)
(-5.0639446 -0.43099154 0 -0.0071922522 0 0)
(-4.3762799 -0.37878158 0 0.00025760562 0 0)
(-3.9609223 -0.36547256 0 -0.00052475756 0 0)
(-3.8394851 -0.35768248 0 9.4358585e-07 0 0)
(-3.8769962 -0.36015702 0 -0.00011929262 0 0)
(-3.7728413 -0.35453864 0 -2.0884517e-05 0 0)
(-3.820787 -0.35714671 0 -4.3463487e-05 0 0)
(-3.7597648 -0.35384214 0 1.4295056e-05 0 0)
(-3.8035672 -0.35625664 0 -2.6822285e-05 0 0)
(-3.7608 -0.35389362 0 2.1741603e-05 0 0)
(-3.798248 -0.35598157 0 -2.278675e-05 0 0)
(-3.7631699 -0.35402198 0 2.117685e-05 0 0)
(-3.7956281 -0.35584062 0 -2.0428526e-05 0 0)
(-3.7651421 -0.35413168 0 1.9164063e-05 0 0)
(-3.7936666 -0.35573246 0 -1.8223016e-05 0 0)
(-3.7668323 -0.35422637 0 1.7105493e-05 0 0)
(-3.7919888 -0.35563936 0 -1.6183328e-05 0 0)
(-3.7683517 -0.35431136 0 1.5215223e-05 0 0)
(-3.7905082 -0.35555715 0 -1.4360241e-05 0 0)
(-3.769724 -0.35438799 0 1.3513331e-05 0 0)
(-3.7891879 -0.35548385 0 -1.2740677e-05 0 0)
(-3.7709595 -0.3544569 0 1.199513e-05 0 0)
(-3.7880073 -0.35541828 0 -1.1306179e-05 0 0)
(-3.7720685 -0.35451873 0 1.0649869e-05 0 0)
(-3.7869509 -0.35535961 0 -1.004111e-05 0 0)
(-3.7730623 -0.35457411 0 9.4654435e-06 0 0)
(-3.7860057 -0.35530713 0 -8.9315821e-06 0 0)
(-3.7739526 -0.35462367 0 8.4294121e-06 0 0)
(-3.7851594 -0.35526018 0 -7.9646752e-06 0 0)
(-3.7747508 -0.35466803 0 7.5295648e-06 0 0)
(-3.7844001 -0.35521814 0 -7.1282197e-06 0 0)
(-3.7754681 -0.35470779 0 6.7543386e-06 0 0)
(-3.7837169 -0.35518042 0 -6.4110435e-06 0 0)
(-3.7761153 -0.35474354 0 6.0931545e-06 0 0)
(-3.783099 -0.35514644 0 -5.8031339e-06 0 0)
(-3.7767025 -0.35477581 0 5.5366934e-06 0 0)
(-3.7825368 -0.35511568 0 -5.2958423e-06 0 0)
(-3.777239 -0.35480512 0 5.0770439e-06 0 0)
(-3.782021 -0.35508765 0 -4.8820682e-06 0 0)
(-3.7777336 -0.35483194 0 4.7079597e-06 0 0)
(-3.7815433 -0.35506189 0 -4.5560889e-06 0 0)
(-3.7781947 -0.3548567 0 4.4262616e-06 0 0)
(-3.7810966 -0.35503803 0 -4.3133733e-06 0 0)
(-3.7786327 -0.35487995 0 4.2277515e-06 0 0)
(-3.7806757 -0.35501597 0 -4.1860396e-06 0 0)
(-3.7790391 -0.35490188 0 4.0064852e-06 0 0)
(-3.780175 -0.3549925 0 -4.5238314e-06 0 0)
(-3.7790677 -0.35490379 0 3.9643787e-06 0 0)
(-3.1747583 -1.538301 0 -0.6647783 0 0)
(-8.9488949 -0.64050976 0 -0.030600054 0 0)
(-5.0288811 -0.44504348 0 -0.010962233 0 0)
(-4.2571621 -0.37339619 0 6.3976235e-07 0 0)
(-3.7717189 -0.3573692 0 -0.00078533066 0 0)
(-3.6340024 -0.34796962 0 -1.8334308e-05 0 0)
(-3.6704819 -0.35065094 0 -0.00015344845 0 0)
(-3.5803711 -0.34543129 0 -4.9523214e-05 0 0)
(-3.6228665 -0.34783401 0 -4.929185e-05 0 0)
(-3.568726 -0.34472072 0 6.2877201e-06 0 0)
(-3.6071447 -0.34696425 0 -2.6314811e-05 0 0)
(-3.5692444 -0.34473801 0 1.9410121e-05 0 0)
(-3.6023114 -0.34670292 0 -2.1631585e-05 0 0)
(-3.5712528 -0.34485292 0 1.9948335e-05 0 0)
(-3.5999936 -0.34657189 0 -1.9439105e-05 0 0)
(-3.5729911 -0.34495579 0 1.8190056e-05 0 0)
(-3.5982611 -0.34647036 0 -1.7365926e-05 0 0)
(-3.5744918 -0.34504543 0 1.6261163e-05 0 0)
(-3.5967725 -0.34638219 0 -1.5414085e-05 0 0)
(-3.5758433 -0.34512614 0 1.4471891e-05 0 0)
(-3.5954571 -0.34630414 0 -1.3669084e-05 0 0)
(-3.5770647 -0.34519899 0 1.2853685e-05 0 0)
(-3.5942846 -0.34623452 0 -1.2121641e-05 0 0)
(-3.5781638 -0.34526451 0 1.1407678e-05 0 0)
(-3.593237 -0.34617228 0 -1.0752691e-05 0 0)
(-3.5791497 -0.34532326 0 1.0125817e-05 0 0)
(-3.5923008 -0.34611665 0 -9.5464131e-06 0 0)
(-3.5800324 -0.34537583 0 8.9973147e-06 0 0)
(-3.5914639 -0.34606694 0 -8.489064e-06 0 0)
(-3.5808222 -0.34542282 0 8.0104546e-06 0 0)
(-3.5907152 -0.34602251 0 -7.5680361e-06 0 0)
(-3.5815298 -0.34546485 0 7.1535401e-06 0 0)
(-3.5900441 -0.34598275 0 -6.7715169e-06 0 0)
(-3.5821653 -0.3455025 0 6.4154729e-06 0 0)
(-3.5894404 -0.34594709 0 -6.0887552e-06 0 0)
(-3.5827384 -0.34553633 0 5.7861206e-06 0 0)
(-3.5888946 -0.34591497 0 -5.5101782e-06 0 0)
(-3.5832581 -0.34556687 0 5.2566319e-06 0 0)
(-3.5883981 -0.3458859 0 -5.0276065e-06 0 0)
(-3.5837329 -0.34559462 0 4.8195854e-06 0 0)
(-3.5879427 -0.34585939 0 -4.6344832e-06 0 0)
(-3.5841706 -0.34562 0 4.4693053e-06 0 0)
(-3.5875206 -0.34583502 0 -4.3256668e-06 0 0)
(-3.5845785 -0.34564345 0 4.2039272e-06 0 0)
(-3.5871259 -0.34581243 0 -4.0965577e-06 0 0)
(-3.5849661 -0.34566547 0 4.0220281e-06 0 0)
(-3.5867545 -0.34579159 0 -3.9876601e-06 0 0)
(-3.5853312 -0.34568672 0 3.7894716e-06 0 0)
(-3.5863243 -0.345771 0 -4.4898044e-06 0 0)
(-3.5854039 -0.34568981 0 4.0273074e-06 0 0)
(-2.9473187 -1.4282496 0 -0.60412459 0 0)
(-7.9150676 -0.61198569 0 -0.034281503 0 0)
(-4.9176285 -0.45496106 0 -0.014660189 0 0)
(-4.1443669 -0.36804436 0 -0.00021382766 0 0)
(-3.6037406 -0.3500329 0 -0.0011120865 0 0)
(-3.4394466 -0.33845205 0 -4.4253361e-05 0 0)
(-3.4708319 -0.34115457 0 -0.00018850537 0 0)
(-3.3920839 -0.33630875 0 -8.1984601e-05 0 0)
(-3.430681 -0.33852426 0 -5.2905656e-05 0 0)
(-3.3822135 -0.335598 0 -4.3554445e-06 0 0)
(-3.4164081 -0.33767779 0 -2.3775522e-05 0 0)
(-3.3823758 -0.33558181 0 1.5110401e-05 0 0)
(-3.4119581 -0.33742797 0 -1.8637756e-05 0 0)
(-3.3840778 -0.33568333 0 1.7014136e-05 0 0)
(-3.4098657 -0.33730565 0 -1.6827367e-05 0 0)
(-3.3856249 -0.33577969 0 1.5693976e-05 0 0)
(-3.408309 -0.33721014 0 -1.506991e-05 0 0)
(-3.3869743 -0.33586451 0 1.4059097e-05 0 0)
(-3.4069673 -0.33712655 0 -1.3363736e-05 0 0)
(-3.3881908 -0.33594104 0 1.251976e-05 0 0)
(-3.4057807 -0.33705242 0 -1.1837404e-05 0 0)
(-3.3892898 -0.33601013 0 1.1118739e-05 0 0)
(-3.404724 -0.33698633 0 -1.0488101e-05 0 0)
(-3.3902779 -0.33607224 0 9.8641782e-06 0 0)
(-3.4037811 -0.33692732 0 -9.2972254e-06 0 0)
(-3.3911633 -0.33612787 0 8.7517538e-06 0 0)
(-3.4029395 -0.33687463 0 -8.2495639e-06 0 0)
(-3.391955 -0.33617759 0 7.7728552e-06 0 0)
(-3.4021882 -0.33682761 0 -7.3322844e-06 0 0)
(-3.3926628 -0.336222 0 6.9173122e-06 0 0)
(-3.4015168 -0.33678561 0 -6.5338975e-06 0 0)
(-3.3932963 -0.33626168 0 6.1747687e-06 0 0)
(-3.4009154 -0.33674806 0 -5.843769e-06 0 0)
(-3.3938649 -0.33629722 0 5.5354086e-06 0 0)
(-3.4003749 -0.33671439 0 -5.252366e-06 0 0)
(-3.3943772 -0.33632915 0 4.9903146e-06 0 0)
(-3.3998867 -0.33668406 0 -4.7512896e-06 0 0)
(-3.3948416 -0.33635798 0 4.5317854e-06 0 0)
(-3.3994428 -0.3366566 0 -4.3334507e-06 0 0)
(-3.3952656 -0.33638417 0 4.1534403e-06 0 0)
(-3.3990359 -0.33663156 0 -3.9933042e-06 0 0)
(-3.3956561 -0.33640815 0 3.8505259e-06 0 0)
(-3.3986592 -0.33660852 0 -3.7265074e-06 0 0)
(-3.3960199 -0.33643031 0 3.6225258e-06 0 0)
(-3.3983068 -0.33658713 0 -3.5280644e-06 0 0)
(-3.3963653 -0.33645113 0 3.4699698e-06 0 0)
(-3.3979766 -0.33656746 0 -3.4457914e-06 0 0)
(-3.3966956 -0.33647174 0 3.2196385e-06 0 0)
(-3.3976071 -0.33654955 0 -4.1173405e-06 0 0)
(-3.3968076 -0.33647628 0 3.6646406e-06 0 0)
(-2.9242309 -1.3911078 0 -0.57035762 0 0)
(-6.9174591 -0.57580177 0 -0.036389819 0 0)
(-4.7245616 -0.46025697 0 -0.018043955 0 0)
(-4.0216063 -0.36292156 0 -0.00051020076 0 0)
(-3.4477636 -0.34303621 0 -0.0014729652 0 0)
(-3.2552583 -0.32909082 0 -6.9568458e-05 0 0)
(-3.27706 -0.33159972 0 -0.00021855159 0 0)
(-3.2079143 -0.3271191 0 -0.00010889101 0 0)
(-3.24367 -0.32920011 0 -5.5218828e-05 0 0)
(-3.2002361 -0.32645593 0 -1.3822386e-05 0 0)
(-3.2310308 -0.32839603 0 -2.1336251e-05 0 0)
(-3.200293 -0.32641785 0 1.1209828e-05 0 0)
(-3.2269592 -0.32815815 0 -1.5807415e-05 0 0)
(-3.2017578 -0.32650846 0 1.4295304e-05 0 0)
(-3.2250541 -0.32804345 0 -1.4357064e-05 0 0)
(-3.2031451 -0.32659928 0 1.3349585e-05 0 0)
(-3.2236441 -0.32795328 0 -1.2898611e-05 0 0)
(-3.2043684 -0.32667993 0 1.1980677e-05 0 0)
(-3.2224269 -0.32787385 0 -1.1425194e-05 0 0)
(-3.205472 -0.32675273 0 1.0675176e-05 0 0)
(-3.2213501 -0.32780331 0 -1.0106089e-05 0 0)
(-3.206468 -0.32681843 0 9.4794376e-06 0 0)
(-3.2203922 -0.32774048 0 -8.9447771e-06 0 0)
(-3.2073624 -0.32687742 0 8.4063639e-06 0 0)
(-3.2195387 -0.32768446 0 -7.9229072e-06 0 0)
(-3.2081628 -0.32693019 0 7.454641e-06 0 0)
(-3.218778 -0.32763451 0 -7.025701e-06 0 0)
(-3.2088776 -0.3269773 0 6.617545e-06 0 0)
(-3.2180997 -0.32758997 0 -6.2411403e-06 0 0)
(-3.209516 -0.32701933 0 5.8863373e-06 0 0)
(-3.2174942 -0.32755024 0 -5.558808e-06 0 0)
(-3.2100869 -0.32705686 0 5.2519467e-06 0 0)
(-3.2169524 -0.32751474 0 -4.9692216e-06 0 0)
(-3.2105988 -0.32709046 0 4.7058072e-06 0 0)
(-3.2164658 -0.32748291 0 -4.4640347e-06 0 0)
(-3.2110597 -0.32712064 0 4.2401726e-06 0 0)
(-3.2160267 -0.32745425 0 -4.0359715e-06 0 0)
(-3.2114771 -0.32714789 0 3.848427e-06 0 0)
(-3.2156278 -0.32742829 0 -3.6789565e-06 0 0)
(-3.2118579 -0.32717264 0 3.5251337e-06 0 0)
(-3.2152624 -0.32740462 0 -3.3883296e-06 0 0)
(-3.2122084 -0.32719532 0 3.2662945e-06 0 0)
(-3.2149245 -0.32738284 0 -3.160367e-06 0 0)
(-3.2125344 -0.32721627 0 3.0723236e-06 0 0)
(-3.2146087 -0.32736258 0 -2.9893056e-06 0 0)
(-3.2128437 -0.32723596 0 2.9453867e-06 0 0)
(-3.2143136 -0.32734398 0 -2.9259068e-06 0 0)
(-3.2131422 -0.32725582 0 2.678417e-06 0 0)
(-3.2139935 -0.32732819 0 -3.7164151e-06 0 0)
(-3.2132796 -0.32726151 0 3.2784176e-06 0 0)
(-2.7735969 -1.2767534 0 -0.49772256 0 0)
(-5.9103052 -0.53754602 0 -0.036920941 0 0)
(-4.4295459 -0.45574179 0 -0.020057759 0 0)
(-3.8385939 -0.35596727 0 -0.00096524681 0 0)
(-3.2981709 -0.33662421 0 -0.0019311218 0 0)
(-3.0839688 -0.32011958 0 -0.00011210913 0 0)
(-3.0921068 -0.32215575 0 -0.00025181784 0 0)
(-3.0288215 -0.31789855 0 -0.00013126694 0 0)
(-3.0620717 -0.3198725 0 -5.6860778e-05 0 0)
(-3.0230844 -0.3173027 0 -2.1767675e-05 0 0)
(-3.0509457 -0.31911838 0 -1.9390275e-05 0 0)
(-3.0231264 -0.3172496 0 8.021462e-06 0 0)
(-3.04723 -0.31889207 0 -1.3483722e-05 0 0)
(-3.0243929 -0.3173307 0 1.2099302e-05 0 0)
(-3.0454847 -0.318784 0 -1.2330582e-05 0 0)
(-3.0256379 -0.31741648 0 1.1440058e-05 0 0)
(-3.0442012 -0.31869867 0 -1.1121252e-05 0 0)
(-3.0267492 -0.31749328 0 1.0279962e-05 0 0)
(-3.0430938 -0.3186231 0 -9.8383702e-06 0 0)
(-3.0277529 -0.3175626 0 9.1645792e-06 0 0)
(-3.0421145 -0.31855596 0 -8.6886336e-06 0 0)
(-3.0286574 -0.31762508 0 8.1372475e-06 0 0)
(-3.0412444 -0.31849623 0 -7.6814515e-06 0 0)
(-3.0294686 -0.31768111 0 7.2133321e-06 0 0)
(-3.0404703 -0.31844304 0 -6.7983767e-06 0 0)
(-3.0301934 -0.31773116 0 6.3936677e-06 0 0)
(-3.0397813 -0.31839569 0 -6.0247418e-06 0 0)
(-3.0308401 -0.31777579 0 5.672997e-06 0 0)
(-3.0391678 -0.31835352 0 -5.3490969e-06 0 0)
(-3.031417 -0.31781557 0 5.0437521e-06 0 0)
(-3.0386206 -0.31831593 0 -4.7618973e-06 0 0)
(-3.0319324 -0.31785107 0 4.4979444e-06 0 0)
(-3.0381314 -0.31828236 0 -4.2546318e-06 0 0)
(-3.0323943 -0.31788283 0 4.0280705e-06 0 0)
(-3.0376924 -0.31825227 0 -3.8199572e-06 0 0)
(-3.0328098 -0.31791135 0 3.6273715e-06 0 0)
(-3.0372965 -0.31822518 0 -3.4515413e-06 0 0)
(-3.0331859 -0.3179371 0 3.290134e-06 0 0)
(-3.0369372 -0.31820066 0 -3.1441388e-06 0 0)
(-3.0335287 -0.3179605 0 3.0116856e-06 0 0)
(-3.0366084 -0.31817829 0 -2.8937919e-06 0 0)
(-3.0338439 -0.31798193 0 2.7885926e-06 0 0)
(-3.0363046 -0.31815769 0 -2.6972298e-06 0 0)
(-3.0341367 -0.31800173 0 2.6218938e-06 0 0)
(-3.0360209 -0.31813853 0 -2.5478255e-06 0 0)
(-3.0344141 -0.31802033 0 2.5151876e-06 0 0)
(-3.0357565 -0.31812095 0 -2.496996e-06 0 0)
(-3.034684 -0.3180394 0 2.2324528e-06 0 0)
(-3.0354786 -0.31810692 0 -3.3670979e-06 0 0)
(-3.0348375 -0.31804609 0 2.9323604e-06 0 0)
(-2.8052324 -1.2674833 0 -0.48401728 0 0)
(-4.9667185 -0.51556985 0 -0.041729178 0 0)
(-4.1734964 -0.45575344 0 -0.022071931 0 0)
(-3.5810462 -0.34702236 0 -0.0018798762 0 0)
(-3.108646 -0.32858315 0 -0.0023933058 0 0)
(-2.9092038 -0.31088195 0 -0.00014899594 0 0)
(-2.9105322 -0.31260743 0 -0.00028053032 0 0)
(-2.8541882 -0.30863553 0 -0.00014709762 0 0)
(-2.8853822 -0.31052519 0 -5.7733245e-05 0 0)
(-2.8506373 -0.30813416 0 -2.8328457e-05 0 0)
(-2.8760154 -0.30984028 0 -1.7756113e-05 0 0)
(-2.8508727 -0.30807705 0 5.3557862e-06 0 0)
(-2.8727097 -0.30962781 0 -1.1510724e-05 0 0)
(-2.8520077 -0.3081509 0 1.0273972e-05 0 0)
(-2.8711202 -0.30952614 0 -1.061249e-05 0 0)
(-2.8531312 -0.30823217 0 9.8378468e-06 0 0)
(-2.869951 -0.30944538 0 -9.6192853e-06 0 0)
(-2.8541424 -0.30830535 0 8.845749e-06 0 0)
(-2.8689428 -0.30937354 0 -8.4989614e-06 0 0)
(-2.8550558 -0.30837132 0 7.8896658e-06 0 0)
(-2.8680518 -0.3093097 0 -7.4927267e-06 0 0)
(-2.8558778 -0.30843069 0 7.0049076e-06 0 0)
(-2.8672612 -0.30925297 0 -6.6160959e-06 0 0)
(-2.8566137 -0.30848384 0 6.2074514e-06 0 0)
(-2.8665589 -0.30920255 0 -5.8505799e-06 0 0)
(-2.8572704 -0.30853125 0 5.499663e-06 0 0)
(-2.8659347 -0.30915771 0 -5.1815331e-06 0 0)
(-2.8578557 -0.30857348 0 4.8774953e-06 0 0)
(-2.8653794 -0.30911783 0 -4.5979674e-06 0 0)
(-2.8583774 -0.30861109 0 4.3344063e-06 0 0)
(-2.8648846 -0.3090823 0 -4.0911028e-06 0 0)
(-2.8588431 -0.30864463 0 3.8633626e-06 0 0)
(-2.8644425 -0.30905058 0 -3.6532859e-06 0 0)
(-2.8592601 -0.30867463 0 3.4578023e-06 0 0)
(-2.8640462 -0.30902216 0 -3.2780538e-06 0 0)
(-2.8596351 -0.30870157 0 3.1118266e-06 0 0)
(-2.863689 -0.30899658 0 -2.9598912e-06 0 0)
(-2.8599742 -0.30872588 0 2.8204985e-06 0 0)
(-2.863365 -0.30897343 0 -2.6942617e-06 0 0)
(-2.8602831 -0.30874797 0 2.5797913e-06 0 0)
(-2.8630688 -0.30895231 0 -2.4777915e-06 0 0)
(-2.8605668 -0.3087682 0 2.3867282e-06 0 0)
(-2.8627954 -0.30893286 0 -2.3075858e-06 0 0)
(-2.8608302 -0.3087869 0 2.2427885e-06 0 0)
(-2.8625403 -0.30891476 0 -2.1762348e-06 0 0)
(-2.8610791 -0.30880444 0 2.1529831e-06 0 0)
(-2.8623031 -0.30889814 0 -2.1343909e-06 0 0)
(-2.8613231 -0.30882268 0 1.8581871e-06 0 0)
(-2.8620615 -0.30888561 0 -3.0527113e-06 0 0)
(-2.861486 -0.30883021 0 2.6201018e-06 0 0)
(-2.7664499 -1.1642292 0 -0.41571107 0 0)
(-3.9742796 -0.47571475 0 -0.042813144 0 0)
(-3.8235374 -0.43813166 0 -0.020857355 0 0)
(-3.3460229 -0.34592837 0 -0.0044808142 0 0)
(-2.9491863 -0.3225593 0 -0.0030594081 0 0)
(-2.747991 -0.30215533 0 -0.00023448352 0 0)
(-2.7396622 -0.30330541 0 -0.00032161682 0 0)
(-2.6851593 -0.29936038 0 -0.00016062869 0 0)
(-2.7143128 -0.30118131 0 -5.763223e-05 0 0)
(-2.6832037 -0.2989577 0 -3.3612877e-05 0 0)
(-2.7063329 -0.30056418 0 -1.6218178e-05 0 0)
(-2.6835994 -0.2989019 0 3.0647971e-06 0 0)
(-2.7033968 -0.30036554 0 -9.7597832e-06 0 0)
(-2.6846259 -0.29896966 0 8.6872577e-06 0 0)
(-2.7019481 -0.30026973 0 -9.0916095e-06 0 0)
(-2.6856405 -0.29904665 0 8.4330611e-06 0 0)
(-2.7008811 -0.30019325 0 -8.2928761e-06 0 0)
(-2.6865604 -0.29911634 0 7.5830597e-06 0 0)
(-2.6999628 -0.30012501 0 -7.3181581e-06 0 0)
(-2.6873917 -0.29917905 0 6.7666374e-06 0 0)
(-2.6991522 -0.30006439 0 -6.4395242e-06 0 0)
(-2.6881385 -0.29923538 0 6.0080448e-06 0 0)
(-2.698434 -0.30001061 0 -5.6786292e-06 0 0)
(-2.6888061 -0.29928572 0 5.3225884e-06 0 0)
(-2.6977969 -0.29996287 0 -5.0171501e-06 0 0)
(-2.6894011 -0.29933057 0 4.7137483e-06 0 0)
(-2.6972313 -0.29992048 0 -4.4405103e-06 0 0)
(-2.6899308 -0.29937047 0 4.1785535e-06 0 0)
(-2.6967286 -0.2998828 0 -3.9381744e-06 0 0)
(-2.6904026 -0.29940598 0 3.7114241e-06 0 0)
(-2.6962811 -0.29984925 0 -3.5020905e-06 0 0)
(-2.6908235 -0.29943764 0 3.3062235e-06 0 0)
(-2.6958816 -0.29981932 0 -3.1254089e-06 0 0)
(-2.6912002 -0.29946594 0 2.9572622e-06 0 0)
(-2.6955236 -0.29979251 0 -2.802474e-06 0 0)
(-2.6915387 -0.29949135 0 2.6594248e-06 0 0)
(-2.6952012 -0.29976839 0 -2.5285109e-06 0 0)
(-2.6918446 -0.29951428 0 2.4084711e-06 0 0)
(-2.6949089 -0.29974655 0 -2.2996125e-06 0 0)
(-2.692123 -0.29953511 0 2.2009473e-06 0 0)
(-2.694642 -0.29972663 0 -2.1129169e-06 0 0)
(-2.6923786 -0.29955419 0 2.034266e-06 0 0)
(-2.6943958 -0.2997083 0 -1.9658672e-06 0 0)
(-2.6926155 -0.29957182 0 1.9102288e-06 0 0)
(-2.6941663 -0.29969121 0 -1.850419e-06 0 0)
(-2.6928391 -0.29958835 0 1.8352116e-06 0 0)
(-2.6939533 -0.29967552 0 -1.8155794e-06 0 0)
(-2.6930596 -0.29960573 0 1.5325719e-06 0 0)
(-2.6937432 -0.29966427 0 -2.7572218e-06 0 0)
(-2.6932267 -0.29961394 0 2.3311231e-06 0 0)
(-2.7966155 -1.1313859 0 -0.38768707 0 0)
(-3.3363989 -0.4707251 0 -0.050328741 0 0)
(-3.5118377 -0.41866236 0 -0.019196314 0 0)
(-3.0590052 -0.33801708 0 -0.0063496829 0 0)
(-2.7651392 -0.31385489 0 -0.0033633197 0 0)
(-2.5785698 -0.29273601 0 -0.00029230217 0 0)
(-2.5686281 -0.29372443 0 -0.00034916438 0 0)
(-2.5209393 -0.29007225 0 -0.00016738065 0 0)
(-2.5480094 -0.29181466 0 -5.6883325e-05 0 0)
(-2.5205249 -0.28976639 0 -3.7665415e-05 0 0)
(-2.5417376 -0.29128541 0 -1.472619e-05 0 0)
(-2.5212559 -0.28972223 0 1.0878221e-06 0 0)
(-2.5392432 -0.29110402 0 -8.1738535e-06 0 0)
(-2.5222435 -0.28978651 0 7.2880361e-06 0 0)
(-2.5379484 -0.29101446 0 -7.7219162e-06 0 0)
(-2.5231725 -0.28985982 0 7.1825295e-06 0 0)
(-2.53698 -0.29094222 0 -7.1020165e-06 0 0)
(-2.5240115 -0.28992619 0 6.454562e-06 0 0)
(-2.5361448 -0.29087752 0 -6.2606581e-06 0 0)
(-2.5247682 -0.28998574 0 5.762462e-06 0 0)
(-2.5354081 -0.29082006 0 -5.4977529e-06 0 0)
(-2.5254465 -0.29003911 0 5.1172377e-06 0 0)
(-2.5347561 -0.29076915 0 -4.8412305e-06 0 0)
(-2.5260519 -0.29008672 0 4.5324958e-06 0 0)
(-2.5341784 -0.29072402 0 -4.2732776e-06 0 0)
(-2.5265908 -0.29012909 0 4.0124933e-06 0 0)
(-2.5336661 -0.29068399 0 -3.7795229e-06 0 0)
(-2.5270701 -0.29016674 0 3.5552391e-06 0 0)
(-2.5332112 -0.29064844 0 -3.3499195e-06 0 0)
(-2.5274968 -0.29020024 0 3.1560809e-06 0 0)
(-2.5328065 -0.29061681 0 -2.9771322e-06 0 0)
(-2.5278772 -0.29023008 0 2.8097367e-06 0 0)
(-2.5324454 -0.29058859 0 -2.6550778e-06 0 0)
(-2.5282174 -0.29025676 0 2.5113385e-06 0 0)
(-2.532122 -0.29056333 0 -2.3788521e-06 0 0)
(-2.528523 -0.2902807 0 2.2564926e-06 0 0)
(-2.5318309 -0.2905406 0 -2.1443576e-06 0 0)
(-2.528799 -0.2903023 0 2.0415916e-06 0 0)
(-2.5315674 -0.29052002 0 -1.9482558e-06 0 0)
(-2.52905 -0.29032192 0 1.8636952e-06 0 0)
(-2.5313268 -0.29050126 0 -1.788137e-06 0 0)
(-2.5292802 -0.2903399 0 1.7205593e-06 0 0)
(-2.5311051 -0.29048399 0 -1.6617548e-06 0 0)
(-2.5294934 -0.29035651 0 1.6142029e-06 0 0)
(-2.5308986 -0.29046788 0 -1.5605888e-06 0 0)
(-2.5296941 -0.29037206 0 1.552262e-06 0 0)
(-2.5307072 -0.29045309 0 -1.5314001e-06 0 0)
(-2.5298932 -0.29038857 0 1.2458006e-06 0 0)
(-2.5305245 -0.29044292 0 -2.4755932e-06 0 0)
(-2.5300611 -0.29039733 0 2.0634173e-06 0 0)
(-2.8570998 -1.0701823 0 -0.34263866 0 0)
(-2.8626518 -0.42167788 0 -0.043688906 0 0)
(-3.1839859 -0.40899249 0 -0.02255629 0 0)
(-2.7632323 -0.32915967 0 -0.0084789076 0 0)
(-2.5952027 -0.30509432 0 -0.0034800677 0 0)
(-2.4245604 -0.28403285 0 -0.00043973999 0 0)
(-2.4091671 -0.2844405 0 -0.00039022574 0 0)
(-2.3626517 -0.28078075 0 -0.00017148912 0 0)
(-2.3875512 -0.28245825 0 -5.3946644e-05 0 0)
(-2.3630188 -0.28056863 0 -3.9979702e-05 0 0)
(-2.3824128 -0.28200832 0 -1.2927401e-05 0 0)
(-2.3639426 -0.28054013 0 -5.1193311e-07 0 0)
(-2.3802755 -0.28184408 0 -6.6936752e-06 0 0)
(-2.3648879 -0.28060195 0 6.057771e-06 0 0)
(-2.3791189 -0.28176054 0 -6.4811283e-06 0 0)
(-2.3657394 -0.2806718 0 6.064627e-06 0 0)
(-2.3782408 -0.28169236 0 -6.0287572e-06 0 0)
(-2.3665043 -0.28073493 0 5.4420817e-06 0 0)
(-2.377482 -0.2816311 0 -5.3101396e-06 0 0)
(-2.3671925 -0.2807914 0 4.8613833e-06 0 0)
(-2.3768131 -0.28157673 0 -4.6526745e-06 0 0)
(-2.3678082 -0.28084188 0 4.3184723e-06 0 0)
(-2.3762217 -0.28152861 0 -4.0906489e-06 0 0)
(-2.3683567 -0.28088684 0 3.8246161e-06 0 0)
(-2.3756983 -0.28148602 0 -3.6070623e-06 0 0)
(-2.3688445 -0.28092681 0 3.3846303e-06 0 0)
(-2.3752346 -0.28144827 0 -3.1878916e-06 0 0)
(-2.369278 -0.2809623 0 2.9974457e-06 0 0)
(-2.3748231 -0.28141476 0 -2.8236234e-06 0 0)
(-2.3696636 -0.28099386 0 2.659309e-06 0 0)
(-2.3744572 -0.28138496 0 -2.50763e-06 0 0)
(-2.3700073 -0.28102197 0 2.3657574e-06 0 0)
(-2.374131 -0.28135839 0 -2.23456e-06 0 0)
(-2.3703146 -0.28104709 0 2.1126931e-06 0 0)
(-2.373839 -0.2813346 0 -2.0002066e-06 0 0)
(-2.3705904 -0.28106962 0 1.8963871e-06 0 0)
(-2.3735763 -0.2813132 0 -1.8010934e-06 0 0)
(-2.3708393 -0.28108996 0 1.7138065e-06 0 0)
(-2.3733386 -0.28129384 0 -1.6343921e-06 0 0)
(-2.3710654 -0.28110842 0 1.5624721e-06 0 0)
(-2.3731219 -0.28127618 0 -1.4980949e-06 0 0)
(-2.3712727 -0.28112533 0 1.4404406e-06 0 0)
(-2.3729224 -0.28125993 0 -1.3902413e-06 0 0)
(-2.3714644 -0.28114096 0 1.3498653e-06 0 0)
(-2.3727366 -0.28124477 0 -1.3019966e-06 0 0)
(-2.3716447 -0.28115558 0 1.2994779e-06 0 0)
(-2.3725646 -0.28123083 0 -1.2774819e-06 0 0)
(-2.3718242 -0.28117122 0 9.9291446e-07 0 0)
(-2.372406 -0.2812216 0 -2.2067086e-06 0 0)
(-2.3719902 -0.2811804 0 1.8170635e-06 0 0)
(-2.914564 -1.0595804 0 -0.32809374 0 0)
(-2.5609415 -0.41801055 0 -0.047865807 0 0)
(-2.9168281 -0.3950001 0 -0.022753917 0 0)
(-2.5290468 -0.31858516 0 -0.0091795242 0 0)
(-2.4283128 -0.29476137 0 -0.0032232377 0 0)
(-2.269853 -0.27485805 0 -0.0005505667 0 0)
(-2.2523141 -0.27492637 0 -0.00040421452 0 0)
(-2.2096181 -0.27146683 0 -0.00016444568 0 0)
(-2.2322097 -0.27308325 0 -4.8394323e-05 0 0)
(-2.2104834 -0.27135772 0 -4.034429e-05 0 0)
(-2.2282381 -0.27272847 0 -1.0694379e-05 0 0)
(-2.211623 -0.2713538 0 -1.7070399e-06 0 0)
(-2.2264589 -0.2725845 0 -5.267047e-06 0 0)
(-2.2125545 -0.27141546 0 4.9897168e-06 0 0)
(-2.2254439 -0.2725076 0 -5.345174e-06 0 0)
(-2.2133443 -0.27148243 0 5.065063e-06 0 0)
(-2.2246543 -0.27244357 0 -5.0566402e-06 0 0)
(-2.2140439 -0.27154251 0 4.5315624e-06 0 0)
(-2.2239677 -0.27238574 0 -4.4526907e-06 0 0)
(-2.2146701 -0.271596 0 4.0505643e-06 0 0)
(-2.2233617 -0.27233439 0 -3.8919421e-06 0 0)
(-2.2152284 -0.27164368 0 3.6001279e-06 0 0)
(-2.2228261 -0.27228899 0 -3.4158076e-06 0 0)
(-2.215725 -0.27168609 0 3.1884628e-06 0 0)
(-2.2223524 -0.27224884 0 -3.0085474e-06 0 0)
(-2.2161661 -0.27172375 0 2.8207256e-06 0 0)
(-2.221933 -0.27221328 0 -2.6566739e-06 0 0)
(-2.2165579 -0.27175717 0 2.4967029e-06 0 0)
(-2.221561 -0.27218173 0 -2.3512627e-06 0 0)
(-2.2169063 -0.27178687 0 2.2135105e-06 0 0)
(-2.2212305 -0.27215369 0 -2.0863845e-06 0 0)
(-2.2172166 -0.27181332 0 1.9674627e-06 0 0)
(-2.2209359 -0.27212869 0 -1.8573833e-06 0 0)
(-2.2174938 -0.27183694 0 1.7551828e-06 0 0)
(-2.2206724 -0.27210631 0 -1.660698e-06 0 0)
(-2.2177426 -0.27185814 0 1.5735509e-06 0 0)
(-2.2204355 -0.27208619 0 -1.4934175e-06 0 0)
(-2.2179669 -0.27187725 0 1.4200542e-06 0 0)
(-2.2202213 -0.27206799 0 -1.3531748e-06 0 0)
(-2.2181706 -0.27189461 0 1.2926277e-06 0 0)
(-2.2200262 -0.27205139 0 -1.2383179e-06 0 0)
(-2.2183571 -0.2719105 0 1.1895974e-06 0 0)
(-2.2198467 -0.27203612 0 -1.1471506e-06 0 0)
(-2.2185294 -0.27192519 0 1.113177e-06 0 0)
(-2.2196797 -0.27202187 0 -1.0706844e-06 0 0)
(-2.2186911 -0.27193891 0 1.0729975e-06 0 0)
(-2.2195252 -0.27200874 0 -1.0501793e-06 0 0)
(-2.2188528 -0.27195368 0 7.6979192e-07 0 0)
(-2.2193877 -0.27200032 0 -1.9497357e-06 0 0)
(-2.2190148 -0.27196319 0 1.5916967e-06 0 0)
(-3.0328603 -0.97250668 0 -0.26710717 0 0)
(-2.2987645 -0.38573192 0 -0.042557233 0 0)
(-2.6701959 -0.37410656 0 -0.021371695 0 0)
(-2.3328742 -0.30567796 0 -0.0090132319 0 0)
(-2.2752744 -0.28419711 0 -0.002871941 0 0)
(-2.1299246 -0.26606718 0 -0.00064142145 0 0)
(-2.1071031 -0.26566292 0 -0.00040357905 0 0)
(-2.0631853 -0.26217308 0 -0.00014903778 0 0)
(-2.0829221 -0.26372485 0 -3.8338417e-05 0 0)
(-2.0633223 -0.26214473 0 -3.8059167e-05 0 0)
(-2.0794113 -0.26345113 0 -7.5247454e-06 0 0)
(-2.0644077 -0.26216585 0 -2.3482953e-06 0 0)
(-2.0778382 -0.26332648 0 -3.8005474e-06 0 0)
(-2.0652766 -0.26222771 0 4.0945283e-06 0 0)
(-2.0769307 -0.26325595 0 -4.2877445e-06 0 0)
(-2.0660001 -0.26229189 0 4.1729714e-06 0 0)
(-2.0762186 -0.26319593 0 -4.1709231e-06 0 0)
(-2.0666375 -0.26234899 0 3.710465e-06 0 0)
(-2.0755977 -0.26314144 0 -3.6761407e-06 0 0)
(-2.067206 -0.26239957 0 3.3184254e-06 0 0)
(-2.0750495 -0.26309304 0 -3.2046277e-06 0 0)
(-2.0677116 -0.26244454 0 2.9517512e-06 0 0)
(-2.0745651 -0.26305026 0 -2.8068237e-06 0 0)
(-2.0681607 -0.26248449 0 2.614628e-06 0 0)
(-2.0741369 -0.26301246 0 -2.4688263e-06 0 0)
(-2.0685592 -0.26251992 0 2.3123287e-06 0 0)
(-2.073758 -0.26297901 0 -2.1778707e-06 0 0)
(-2.0689129 -0.26255136 0 2.0454351e-06 0 0)
(-2.0734222 -0.26294934 0 -1.9256663e-06 0 0)
(-2.0692272 -0.26257928 0 1.8118961e-06 0 0)
(-2.0731239 -0.26292297 0 -1.7069667e-06 0 0)
(-2.0695071 -0.26260414 0 1.6087622e-06 0 0)
(-2.0728581 -0.26289947 0 -1.5177722e-06 0 0)
(-2.0697571 -0.26262634 0 1.433326e-06 0 0)
(-2.0726205 -0.26287845 0 -1.3551157e-06 0 0)
(-2.0699812 -0.26264626 0 1.2830254e-06 0 0)
(-2.0724071 -0.26285955 0 -1.2166023e-06 0 0)
(-2.0701832 -0.26266421 0 1.1558178e-06 0 0)
(-2.0722143 -0.26284245 0 -1.1002789e-06 0 0)
(-2.0703665 -0.2626805 0 1.0500114e-06 0 0)
(-2.0720388 -0.26282687 0 -1.00481e-06 0 0)
(-2.0705341 -0.26269542 0 9.6417269e-07 0 0)
(-2.0718776 -0.26281254 0 -9.2874628e-07 0 0)
(-2.0706889 -0.2627092 0 9.0052076e-07 0 0)
(-2.0717276 -0.26279916 0 -8.6309996e-07 0 0)
(-2.0708337 -0.26272207 0 8.6935968e-07 0 0)
(-2.0715889 -0.26278682 0 -8.4617638e-07 0 0)
(-2.0709792 -0.26273598 0 5.727066e-07 0 0)
(-2.0714699 -0.26277909 0 -1.7038128e-06 0 0)
(-2.0711358 -0.26274571 0 1.3865188e-06 0 0)
(-3.1035826 -0.95993015 0 -0.25165053 0 0)
(-2.1615574 -0.37833754 0 -0.04319416 0 0)
(-2.5038092 -0.36123512 0 -0.020767604 0 0)
(-2.1930012 -0.29686765 0 -0.0091068335 0 0)
(-2.1358696 -0.27435895 0 -0.0026093011 0 0)
(-1.9884133 -0.25658283 0 -0.00060693492 0 0)
(-1.9643871 -0.25614569 0 -0.00035571648 0 0)
(-1.9223924 -0.2528801 0 -0.00012079867 0 0)
(-1.938945 -0.25435892 0 -2.5397236e-05 0 0)
(-1.9213136 -0.25292447 0 -3.3492605e-05 0 0)
(-1.9358181 -0.25417293 0 -3.475864e-06 0 0)
(-1.9222622 -0.25297504 0 -2.4386734e-06 0 0)
(-1.934388 -0.25406923 0 -2.2516294e-06 0 0)
(-1.9230507 -0.25303833 0 3.3771698e-06 0 0)
(-1.9335692 -0.25400534 0 -3.2850778e-06 0 0)
(-1.9237088 -0.25310007 0 3.3822859e-06 0 0)
(-1.9329273 -0.25394936 0 -3.3575719e-06 0 0)
(-1.9242885 -0.25315432 0 2.9697194e-06 0 0)
(-1.9323673 -0.25389818 0 -2.9697332e-06 0 0)
(-1.924804 -0.2532021 0 2.6557943e-06 0 0)
(-1.9318726 -0.25385264 0 -2.58146e-06 0 0)
(-1.9252614 -0.25324447 0 2.3647925e-06 0 0)
(-1.9314354 -0.25381241 0 -2.2554382e-06 0 0)
(-1.9256669 -0.25328205 0 2.0953351e-06 0 0)
(-1.931049 -0.25377687 0 -1.9804948e-06 0 0)
(-1.9260264 -0.25331535 0 1.8524371e-06 0 0)
(-1.9307072 -0.25374543 0 -1.7448461e-06 0 0)
(-1.9263454 -0.25334489 0 1.6373635e-06 0 0)
(-1.9304043 -0.25371756 0 -1.5408926e-06 0 0)
(-1.9266287 -0.25337112 0 1.4488441e-06 0 0)
(-1.9301354 -0.25369279 0 -1.3640541e-06 0 0)
(-1.9268809 -0.25339447 0 1.2846145e-06 0 0)
(-1.9298959 -0.25367073 0 -1.2109469e-06 0 0)
(-1.927106 -0.25341531 0 1.1425871e-06 0 0)
(-1.929682 -0.25365099 0 -1.079149e-06 0 0)
(-1.9273077 -0.25343399 0 1.0207072e-06 0 0)
(-1.92949 -0.25363326 0 -9.6673343e-07 0 0)
(-1.9274894 -0.25345083 0 9.1735739e-07 0 0)
(-1.9293166 -0.25361722 0 -8.7212105e-07 0 0)
(-1.927654 -0.25346612 0 8.3118167e-07 0 0)
(-1.929159 -0.25360262 0 -7.9425824e-07 0 0)
(-1.9278045 -0.2534801 0 7.6096665e-07 0 0)
(-1.9290142 -0.25358918 0 -7.3192437e-07 0 0)
(-1.9279433 -0.25349302 0 7.0888765e-07 0 0)
(-1.9288798 -0.25357663 0 -6.762787e-07 0 0)