/*--------------------------------*- C++ -*----------------------------------*\
| =========                 |                                                 |
| \\      /  F ield         | OpenFOAM: The Open Source CFD Toolbox           |
|  \\    /   O peration     | Version:  2312                                  |
|   \\  /    A nd           | Website:  www.openfoam.com                      |
|    \\/     M anipulation  |                                                 |
\*---------------------------------------------------------------------------*/
FoamFile
{
    version     2.0;
    format      ascii;
    arch        "LSB;label=32;scalar=64";
    class       volScalarField;
    location    "4";
    object      T;
}
// * * * * * * * * * * * * * * * * * * * * * * * * * * * * * * * * * * * * * //

dimensions      [0 0 0 1 0 0 0];

internalField   nonuniform List<scalar> 
4000
(
318.76927
317.84069
317.65683
317.6046
317.54468
317.50366
317.46419
317.42919
317.39542
317.36407
317.33287
317.30339
317.27376
317.24536
317.21685
317.18915
317.16145
317.13423
317.10715
317.08028
317.0537
317.02707
317.0009
316.97446
316.94862
316.92233
316.89677
316.87059
316.84527
316.81917
316.79407
316.76803
316.74312
316.71712
316.69239
316.66641
316.64184
316.61587
316.59147
316.56548
316.54124
316.51521
316.49115
316.46505
316.44118
316.41497
316.39136
316.36493
316.34176
316.31444
320.34425
318.84665
318.3516
318.24327
318.11287
318.03875
317.96936
317.91328
317.86097
317.81586
317.77121
317.7317
317.69179
317.65552
317.61893
317.58476
317.55062
317.51789
317.48563
317.45393
317.42315
317.39221
317.36263
317.33227
317.30369
317.27375
317.24602
317.21641
317.18941
317.16005
317.13369
317.1045
317.07873
317.04966
317.02441
316.99541
316.97067
316.94168
316.91742
316.88839
316.86462
316.83548
316.81223
316.78289
316.76022
316.73054
316.70864
316.67827
316.65772
316.62482
321.31652
319.81371
319.04051
318.87746
318.67845
318.57161
318.47277
318.39573
318.3251
318.26625
318.20831
318.15877
318.1087
318.06456
318.01998
317.97932
317.93881
317.90055
317.86316
317.82662
317.79168
317.75642
317.72348
317.68917
317.65788
317.62429
317.59442
317.56137
317.53271
317.50008
317.47248
317.44014
317.41352
317.38137
317.35563
317.3236
317.29869
317.26668
317.24258
317.2105
317.18721
317.15495
317.13252
317.09993
317.07848
317.04532
317.02513
316.99085
316.97289
316.93469
321.96029
320.70899
319.71351
319.50102
319.23754
319.09929
318.97209
318.87453
318.78614
318.71371
318.64283
318.58333
318.52333
318.47134
318.41897
318.37183
318.32509
318.28131
318.23889
318.19752
318.15852
318.11892
318.08269
318.04442
318.0105
317.97325
317.94128
317.90479
317.87452
317.8386
317.80981
317.77431
317.74687
317.71165
317.68543
317.65037
317.62532
317.59029
317.56636
317.53123
317.50844
317.47306
317.45147
317.41563
317.3954
317.35877
317.34029
317.30213
317.28668
317.2436
322.4059
321.50302
320.35757
320.10573
319.78484
319.61778
319.4642
319.34705
319.24184
319.15622
319.073
319.00374
318.93423
318.8745
318.81463
318.76107
318.70835
318.65907
318.61183
318.56562
318.52272
318.47879
318.4394
318.39719
318.36073
318.31981
318.28584
318.24591
318.21409
318.1749
318.14497
318.10632
318.0781
318.03981
318.01317
317.97508
317.94991
317.91187
317.88814
317.84998
317.8277
317.78922
317.76847
317.72941
317.71039
317.67033
317.65353
317.61157
317.59849
317.55104
322.72453
322.17824
320.9592
320.68202
320.31404
320.12225
319.94527
319.81008
319.6895
319.59138
319.4967
319.41805
319.33965
319.27239
319.20548
319.14564
319.08728
319.03259
318.98078
318.92982
318.88322
318.83501
318.79264
318.7465
318.70766
318.6631
318.62725
318.58389
318.55063
318.50818
318.4772
318.43541
318.4065
318.36515
318.33813
318.29703
318.2718
318.23077
318.20728
318.1661
318.14436
318.10281
318.08291
318.04066
318.02286
317.97942
317.96426
317.91861
317.90771
317.8564
322.95714
322.7258
321.50619
321.21992
320.81827
320.6073
320.41096
320.25999
320.12601
320.01645
319.91151
319.82407
319.7376
319.6632
319.58984
319.52396
319.4604
319.40048
319.34447
319.28886
319.23885
319.18645
319.14132
319.09134
319.05029
319.00216
318.96457
318.91785
318.88327
318.8376
318.80568
318.76079
318.73126
318.68689
318.65957
318.61551
318.59027
318.54628
318.52307
318.47892
318.45775
318.41317
318.39414
318.34877
318.33215
318.28544
318.27184
318.22269
318.21372
318.15907
323.13016
323.14844
321.98977
321.71029
321.2908
321.06736
320.85667
320.69291
320.548
320.42847
320.31479
320.21942
320.12592
320.04491
319.96586
319.89432
319.82614
319.76124
319.70147
319.64142
319.58834
319.5319
319.4843
319.4306
319.38757
319.33596
319.29683
319.24683
319.21108
319.16228
319.12953
319.08162
319.05158
319.00426
318.97672
318.92975
318.90457
318.85769
318.8348
318.78776
318.76717
318.71965
318.70148
318.6531
318.63763
318.58778
318.57564
318.52322
318.51589
318.4584
323.26135
323.45659
322.40496
322.146
321.72565
321.4971
321.27785
321.1049
320.95203
320.82437
320.7038
320.6016
320.50233
320.41544
320.33162
320.25491
320.18279
320.11329
320.05029
319.98607
319.93036
319.8701
319.82036
319.76311
319.71838
319.66345
319.623
319.56983
319.53311
319.48128
319.44786
319.39702
319.3666
319.31643
319.28876
319.23898
319.21392
319.16426
319.14174
319.0919
319.07192
319.02158
319.00427
318.95299
318.93863
318.88582
318.87502
318.8196
318.81363
318.75373
323.3631
323.66682
322.75126
322.52291
322.11815
321.89185
321.67028
321.49222
321.33471
321.20114
321.07578
320.96811
320.86452
320.77266
320.68513
320.6039
320.52864
320.45501
320.38939
320.32138
320.26351
320.19972
320.14824
320.08769
320.04157
319.98351
319.942
319.88585
319.84836
319.79367
319.75974
319.70612
319.67544
319.62255
319.59486
319.54241
319.51755
319.46523
319.44313
319.39063
319.37128
319.31826
319.30179
319.2478
319.23448
319.17892
319.16931
319.11122
319.10633
319.04442
323.44421
323.79866
323.03177
322.84021
322.46517
322.24798
322.03041
321.85155
321.69295
321.55593
321.42811
321.31652
321.21026
321.11448
321.02443
320.93945
320.86196
320.78478
320.71725
320.64588
320.58642
320.51947
320.46668
320.40312
320.35598
320.29505
320.25276
320.19386
320.15583
320.09847
320.06423
320.00801
319.97723
319.92179
319.8942
319.83923
319.81466
319.75984
319.73821
319.68322
319.66453
319.609
319.59336
319.53686
319.52451
319.46646
319.45789
319.39746
319.39339
319.32981
323.51084
323.87241
323.25289
323.10021
322.76543
322.5632
322.35557
322.18019
322.0241
321.88626
321.75842
321.64464
321.53743
321.43896
321.34767
321.25982
321.18109
321.10103
321.03236
320.95817
320.89772
320.82803
320.77443
320.70823
320.66046
320.59696
320.55422
320.49283
320.45452
320.39473
320.3604
320.3018
320.27108
320.2133
320.18594
320.12865
320.10446
320.04734
320.02624
319.96896
319.95094
319.89313
319.87828
319.81951
319.80806
319.74779
319.74012
319.6777
319.67422
319.6093
323.56733
323.90682
323.42287
323.30762
323.01951
322.83672
322.64422
322.47629
322.32615
322.19013
322.06472
321.95055
321.8442
321.74432
321.65316
321.56342
321.48448
321.4023
321.3333
321.2569
321.19611
321.12418
321.0703
321.00186
320.95389
320.88818
320.84535
320.78177
320.74348
320.68154
320.64733
320.58661
320.55614
320.49626
320.46926
320.40989
320.38618
320.32699
320.30648
320.24714
320.22981
320.16996
320.15588
320.09512
320.08447
320.02231
320.01537
319.95133
319.94827
319.88226
323.6165
323.91756
323.55087
323.46888
323.22975
323.06932
322.89598
322.7389
322.59781
322.46613
322.3455
322.23275
322.12902
322.0291
321.93942
321.84883
321.77074
321.68728
321.61878
321.54085
321.48039
321.40678
321.35315
321.28296
321.23522
321.16772
321.12515
321.05975
321.02177
320.95801
320.92416
320.86162
320.83157
320.76988
320.74338
320.6822
320.65907
320.59808
320.57822
320.51708
320.50046
320.43885
320.42552
320.36305
320.35313
320.2894
320.28307
320.21774
320.21496
320.14813
323.66035
323.91657
323.64584
323.59135
323.39999
323.26317
323.11168
322.96808
322.83862
322.71353
322.59981
322.4902
322.39079
322.29215
322.20529
322.11491
322.03874
321.95484
321.88771
321.80893
321.7495
321.6748
321.622
321.55055
321.50352
321.43466
321.39272
321.32591
321.28853
321.2233
321.19007
321.12603
321.09661
321.03341
321.00757
320.94487
320.92242
320.85992
320.84077
320.77814
320.76224
320.69917
320.68656
320.62271
320.61345
320.54849
320.54265
320.47636
320.47378
320.40636
323.7
323.91182
323.71595
323.68258
323.53509
323.42159
323.29321
323.16485
323.04896
322.93229
322.8273
322.72238
322.62881
322.53273
322.44993
322.36082
322.28757
322.2041
322.13916
322.06027
322.00254
321.92738
321.87595
321.80379
321.75792
321.68818
321.64726
321.57945
321.54299
321.47669
321.44431
321.37914
321.35055
321.28618
321.26113
321.19725
321.17559
321.11189
321.09351
321.02971
321.01456
320.95035
320.93843
320.87353
320.86486
320.79901
320.79358
320.72666
320.72422
320.65644
323.73627
323.90806
323.76811
323.74972
323.64045
323.5487
323.44336
323.33107
323.22996
323.12309
323.02825
322.92932
322.84289
322.75052
322.6729
322.58602
322.51665
322.43444
322.37248
322.2942
322.23883
322.16382
322.11432
322.042
321.99774
321.92761
321.88808
321.81972
321.78449
321.71751
321.68625
321.62032
321.59275
321.52756
321.50347
321.43874
321.41797
321.35342
321.33588
321.27123
321.25685
321.19185
321.1806
321.115
321.10687
321.04047
321.03537
320.96814
320.96579
320.8979
323.76959
323.90749
323.80786
323.79908
323.72154
323.64905
323.56556
323.46928
323.38347
323.28724
323.2035
323.11157
323.03331
322.94562
322.87412
322.79037
322.72569
322.64554
322.58726
322.51029
322.45788
322.38365
322.33657
322.26465
322.22242
322.15241
322.11462
322.04617
322.01246
321.94523
321.91532
321.84903
321.82267
321.75705
321.73405
321.66884
321.64907
321.58401
321.56736
321.50222
321.48863
321.42318
321.4126
321.34664
321.33901
321.2724
321.2676
321.20035
321.19808
321.13031
323.80027
323.91063
323.83932
323.83585
323.78353
323.72729
323.66361
323.58253
323.51183
323.42655
323.35441
323.27018
323.20078
323.11854
323.0539
322.97404
322.91474
322.83735
322.78337
322.70836
322.65944
322.58658
322.54239
322.4714
322.43161
322.3622
322.32649
322.25839
322.22648
322.15944
322.13109
322.06485
322.03988
321.97421
321.95244
321.88711
321.86843
321.80323
321.78754
321.72226
321.70949
321.64394
321.63402
321.56805
321.56089
321.4944
321.48987
321.42288
321.4207
321.35329
323.82857
323.9171
323.86541
323.86411
323.83099
323.78781
323.74138
323.67412
323.61778
323.54328
323.48279
323.40658
323.34644
323.2702
323.21292
323.13754
323.08415
323.01014
322.96095
322.88848
322.8435
322.77255
322.73166
322.66211
322.6251
322.55677
322.52344
322.45615
322.42628
322.35984
322.33327
322.26747
322.24405
322.17871
322.15831
322.09324
322.07574
322.01076
321.99608
321.93102
321.91909
321.85379
321.84453
321.77888
321.77219
321.70613
321.70185
321.63542
321.63333
321.56653
323.85466
323.92603
323.88807
323.88682
323.86778
323.83459
323.80263
323.74742
323.70424
323.63993
323.59073
323.52256
323.47176
323.40181
323.35216
323.28172
323.23458
323.16443
323.12041
323.05097
323.0103
322.94175
322.90447
322.83682
322.80289
322.73609
322.70538
322.63932
322.61173
322.54628
322.52168
322.45671
322.435
322.37036
322.35143
322.28698
322.27075
322.20634
322.19273
322.12823
322.11717
322.05246
322.04387
321.97886
321.97264
321.90731
321.9033
321.83768
321.8357
321.76975
323.87873
323.93657
323.90848
323.90602
323.89695
323.87102
323.85077
323.80565
323.77414
323.71913
323.68052
323.62012
323.57843
323.51487
323.4729
323.40765
323.36694
323.30101
323.26238
323.19638
323.16026
323.09452
323.06111
322.99578
322.96515
322.90028
322.87241
322.80797
322.78283
322.71876
322.69628
322.63251
322.61262
322.54905
322.53169
322.46821
322.45332
322.38982
322.37733
322.31372
322.30357
322.23976
322.23186
322.16781
322.16206
322.09775
322.09401
322.02946
322.0276
321.96276
323.90095
323.94796
323.9273
323.92305
323.92081
323.89987
323.88877
323.8518
323.83031
323.78348
323.75451
323.70139
323.66836
323.61105
323.57658
323.51663
323.48235
323.42086
323.38773
323.32546
323.29403
323.23144
323.20205
323.13939
323.11222
323.04964
323.02476
322.9623
322.93974
322.87741
322.85716
322.79494
322.77698
322.71481
322.6991
322.63692
322.62342
322.56116
322.54983
322.48743
322.4782
322.41561
322.40841
322.3456
322.34034
322.27731
322.27387
322.21063
322.20891
322.14541
323.92148
323.95964
323.94488
323.93869
323.94102
323.92328
323.91912
323.88847
323.87532
323.83546
323.81503
323.76853
323.74349
323.69214
323.66482
323.6101
323.5821
323.52516
323.49747
323.43913
323.41243
323.35323
323.32794
323.26824
323.24462
323.18462
323.16282
323.10266
323.08277
323.02249
323.00456
322.94419
322.92822
322.86776
322.85376
322.79319
322.78113
322.72041
322.71027
322.64937
322.64109
322.57999
322.57352
322.51221
322.50745
322.44595
322.44282
322.38113
322.37957
322.31762
323.94048
323.97125
323.96137
323.95336
323.95871
323.94285
323.94379
323.91786
323.91145
323.87736
323.86428
323.82362
323.80578
323.75996
323.73929
323.68961
323.66759
323.61517
323.59278
323.53845
323.51642
323.46077
323.43956
323.38302
323.36297
323.3058
323.28713
323.2295
323.21234
323.15437
323.1388
323.08056
323.06664
323.00816
322.9959
322.93721
322.92662
322.86771
322.85878
322.79964
322.79233
322.73298
322.72724
322.66768
322.66344
322.6037
322.6009
322.54097
322.53956
322.47939
323.95812
323.98259
323.97685
323.96727
323.97461
323.95972
323.9643
323.94175
323.94064
323.91118
323.90425
323.86863
323.8571
323.81628
323.80165
323.75673
323.74028
323.69225
323.67491
323.62458
323.60705
323.55504
323.53782
323.48457
323.46805
323.41388
323.39831
323.34343
323.32899
323.27356
323.26035
323.20448
323.1926
323.13635
323.12584
323.06927
323.06016
323.00329
322.99558
322.93844
322.93211
322.87473
322.86973
322.81214
322.80843
322.75064
322.74819
322.69021
322.68898
322.63077
323.97451
323.99354
323.99133
323.98048
323.98916
323.97465
323.98177
323.96156
323.96449
323.93862
323.93673
323.90533
323.8992
323.86282
323.85355
323.81301
323.80163
323.7578
323.74513
323.69874
323.68545
323.63708
323.6237
323.57381
323.56071
323.50965
323.49711
323.44513
323.43335
323.38063
323.36976
323.31643
323.30658
323.25275
323.24399
323.18974
323.1821
323.12748
323.12098
323.06604
323.06068
323.00547
323.00122
322.94578
322.94261
322.88696
322.88486
322.82901
322.82795
322.77189
323.98978
324.00407
324.00485
323.99301
324.00261
323.98815
323.99699
323.97832
323.98426
323.96111
323.96321
323.93528
323.93367
323.90114
323.89651
323.85994
323.85308
323.81316
323.80477
323.76214
323.75281
323.70802
323.69823
323.65171
323.64186
323.59397
323.58434
323.53534
323.52615
323.47625
323.46766
323.41702
323.40915
323.35789
323.35083
323.29906
323.29287
323.24067
323.23536
323.18279
323.17839
323.12551
323.12201
323.06887
323.06625
323.01289
323.01114
322.95758
322.9567
322.90292
324.00403
324.01416
324.01745
324.00486
324.0151
324.00052
324.01051
323.99282
324.00091
323.97979
323.98497
323.95983
323.9619
323.93265
323.93194
323.8989
323.89598
323.85967
323.85509
323.81603
323.81029
323.76894
323.76248
323.71928
323.71246
323.66775
323.66086
323.61489
323.60815
323.56116
323.55474
323.50688
323.50092
323.45235
323.44693
323.39777
323.39297
323.34331
323.33918
323.2891
323.28564
323.23522
323.23245
323.18175
323.17966
323.12872
323.12732
323.07617
323.07546
323.0241
324.01735
324.02382
324.02916
324.016
324.02671
324.01194
324.02267
324.00559
324.01518
323.99552
324.00301
323.98009
323.98506
323.95857
323.9611
323.93116
323.9316
323.89855
323.89731
323.86156
323.85902
323.82097
323.81752
323.77753
323.7735
323.73191
323.72756
323.68462
323.68018
323.63611
323.63174
323.58672
323.58256
323.53675
323.5329
323.48643
323.48297
323.43594
323.43292
323.38544
323.38289
323.33503
323.33296
323.28479
323.28323
323.2348
323.23375
323.1851
323.18457
323.13572
324.02981
324.03305
324.04002
324.02644
324.03746
324.02251
324.0337
324.01699
324.02758
324.00898
324.01814
323.99696
324.00416
323.97996
323.9851
323.95784
323.96107
323.93095
323.93255
323.89985
323.90011
323.86515
323.86437
323.82747
323.82594
323.78739
323.78535
323.7454
323.74306
323.70191
323.69943
323.65727
323.65478
323.61176
323.60938
323.56564
323.56344
323.51911
323.51714
323.47231
323.47063
323.42539
323.42401
323.37844
323.37738
323.33153
323.33081
323.28474
323.28438
323.23811
324.04146
324.04184
324.05006
324.03617
324.04738
324.03229
324.04373
324.02728
324.03848
324.02066
324.03097
324.01115
324.02001
323.9977
324.00486
323.9799
323.98541
323.95787
323.96185
323.93192
323.93456
323.90248
323.90402
323.87004
323.87072
323.83509
323.83513
323.79807
323.79764
323.75935
323.7586
323.71926
323.71832
323.67808
323.67705
323.63606
323.63503
323.5934
323.59243
323.55028
323.54941
323.50682
323.50609
323.46315
323.46257
323.41934
323.41894
323.37548
323.37528
323.33164
324.05236
324.05018
324.0593
324.04517
324.05646
324.04129
324.05284
324.03659
324.04814
324.03091
324.04196
324.02322
324.03324
324.0125
324.02119
323.9982
324.00548
323.98022
323.98613
323.9587
323.96333
323.93389
323.93742
323.90616
323.90876
323.87589
323.87774
323.84347
323.84473
323.80922
323.81002
323.77344
323.77389
323.7364
323.7366
323.69833
323.69837
323.65944
323.65938
323.61991
323.61978
323.57986
323.57972
323.53942
323.53929
323.4987
323.4986
323.45777
323.45772
323.41671
324.06253
324.05804
324.06774
324.05344
324.06471
324.04952
324.06108
324.04502
324.05671
324.03996
324.05144
324.03358
324.04438
324.02493
324.03472
324.01341
324.02204
323.99878
324.0062
323.98101
323.98726
323.96023
323.96539
323.93666
323.94088
323.91062
323.91403
323.8824
323.88513
323.85229
323.85444
323.82055
323.82223
323.78742
323.78872
323.75312
323.75411
323.71785
323.7186
323.68178
323.68234
323.64505
323.64545
323.60779
323.60806
323.57009
323.57026
323.53205
323.53214
323.49376
324.07196
324.06536
324.07537
324.06095
324.07213
324.05697
324.06846
324.05262
324.06432
324.04799
324.05967
324.04254
324.05382
324.03545
324.04599
324.02612
324.03572
324.0142
324.02277
323.99958
324.00709
323.98224
323.98873
323.96233
323.96788
323.94005
323.94475
323.91563
323.91959
323.8893
323.89262
323.86129
323.86404
323.83181
323.83407
323.80107
323.8029
323.76924
323.77071
323.73649
323.73765
323.70295
323.70384
323.66876
323.6694
323.63401
323.63443
323.59881
323.59901
323.56323
324.0806
324.07208
324.08216
324.06768
324.07869
324.06365
324.075
324.05943
324.07103
324.05512
324.06682
324.05034
324.06184
324.04442
324.0554
324.03677
324.04702
324.02704
324.03643
324.01502
324.02347
324.00061
324.00812
323.98385
323.99045
323.96487
323.97063
323.94384
323.94883
323.92094
323.92523
323.89635
323.9
323.87025
323.87332
323.84281
323.84538
323.81422
323.81632
323.78461
323.7863
323.75412
323.75544
323.72288
323.72384
323.69097
323.6916
323.65851
323.65883
323.62558
324.08832
324.07808
324.08806
324.07361
324.0844
324.06956
324.08072
324.06547
324.0769
324.06141
324.07302
324.05713
324.06867
324.05209
324.06328
324.04575
324.05639
324.03776
324.04769
324.02786
324.03698
324.01589
324.02415
324.00183
324.00923
323.98572
323.99231
323.96769
323.97349
323.94785
323.95292
323.92635
323.93074
323.90334
323.90709
323.87896
323.88213
323.85338
323.85601
323.82672
323.82886
323.79911
323.80078
323.77066
323.7719
323.74148
323.7423
323.71165
323.71206
323.68128
324.0949
324.08325
324.09304
324.0787
324.08927
324.07469
324.08564
324.07077
324.08198
324.06694
324.07837
324.06305
324.0745
324.05867
324.06989
324.05334
324.06415
324.04672
324.05696
324.03854
324.04808
324.02859
324.03737
324.0168
324.02479
324.00317
324.01036
323.98775
323.99417
323.97062
323.9763
323.95189
323.95686
323.93167
323.93596
323.91009
323.91375
323.88728
323.89035
323.86336
323.86587
323.83844
323.84042
323.81263
323.8141
323.78602
323.787
323.75871
323.7592
323.73078
324.10009
324.08747
324.09707
324.08297
324.0933
324.07906
324.08978
324.07535
324.08631
324.07175
324.08293
324.06818
324.07943
324.06431
324.07543
324.05976
324.07058
324.05422
324.06458
324.04742
324.05718
324.03913
324.04822
324.02924
324.0376
324.0177
324.02531
324.00454
324.0114
323.98978
323.9959
323.9735
323.9789
323.95578
323.96049
323.93673
323.94077
323.91645
323.91986
323.89505
323.89785
323.87263
323.87485
323.84928
323.85093
323.8251
323.82619
323.80016
323.8007
323.77454
324.10369
324.09069
324.10015
324.08641
324.09652
324.08271
324.09319
324.07924
324.08992
324.07589
324.08677
324.07261
324.08358
324.06915
324.08005
324.06521
324.07589
324.0605
324.07082
324.05479
324.06461
324.04785
324.05706
324.03953
324.04808
324.02975
324.0376
324.0185
324.02564
324.0058
324.01222
323.99167
323.99737
323.97616
323.98116
323.95937
323.96369
323.94138
323.94504
323.92228
323.9253
323.90216
323.90456
323.88109
323.88288
323.85916
323.86035
323.83644
323.83703
323.81301
324.10571
324.09293
324.10233
324.08907
324.09899
324.08568
324.0959
324.08248
324.09288
324.07939
324.08996
324.07638
324.08703
324.07326
324.08388
324.0698
324.08024
324.06576
324.0759
324.06091
324.07063
324.05504
324.06423
324.04799
324.05658
324.03968
324.04762
324.03005
324.03732
324.01909
324.02567
324.00682
324.0127
323.99326
323.99844
323.97848
323.98298
323.96254
323.96636
323.94551
323.94868
323.92748
323.93
323.9085
323.91039
323.88865
323.8899
323.868
323.86862
323.84661
324.10639
324.09428
324.1037
324.09103
324.10076
324.088
324.09797
324.08513
324.09522
324.08231
324.09253
324.07955
324.08986
324.07673
324.08701
324.07365
324.08379
324.07013
324.08001
324.06595
324.07546
324.06093
324.06998
324.05491
324.06341
324.04778
324.05569
324.0395
324.04678
324.03002
324.03664
324.01934
324.02529
324.00747
324.01274
323.99445
323.99903
323.98032
323.98424
323.96516
323.96841
323.94901
323.9516
323.93193
323.93387
323.91399
323.91528
323.89524
323.89589
323.87575
324.10611
324.09494
324.10438
324.09237
324.10192
324.08976
324.09947
324.08722
324.097
324.08469
324.09456
324.08219
324.09211
324.07963
324.08951
324.07686
324.08662
324.07373
324.08327
324.07007
324.07929
324.06571
324.07451
324.06049
324.0688
324.05433
324.0621
324.04715
324.05433
324.0389
324.04546
324.02957
324.03548
324.01914
324.0244
324.00765
324.01224
323.99512
323.99905
323.9816
323.98487
323.96713
323.96975
323.95177
323.95374
323.93556
323.93687
323.91856
323.91922
323.90082
324.10531
324.09509
324.10452
324.09319
324.10255
324.09102
324.10046
324.08882
324.09828
324.08657
324.09608
324.08432
324.09384
324.08199
324.09146
324.07947
324.08882
324.07665
324.08579
324.07338
324.08223
324.06952
324.07799
324.06493
324.07296
324.05952
324.06705
324.05323
324.06021
324.04599
324.0524
324.03778
324.04357
324.02858
324.03374
324.01839
324.02292
324.00724
324.01113
323.99517
323.99842
323.9822
323.9848
323.96837
323.97033
323.95373
323.95504
323.93831
323.93897
323.92217
324.10428
324.09492
324.10426
324.09359
324.10275
324.09185
324.101
324.08998
324.09911
324.08802
324.09715
324.086
324.09511
324.08388
324.09291
324.08156
324.09045
324.07895
324.08765
324.07597
324.0844
324.07247
324.08056
324.06835
324.07603
324.06353
324.07075
324.05793
324.06465
324.05151
324.05769
324.04421
324.04982
324.03603
324.04105
324.02696
324.03137
324.017
324.0208
324.00618
324.00936
323.99453
323.99708
323.98207
323.98399
323.96882
323.97011
323.95483
323.95548
323.94014
324.10321
324.09456
324.10371
324.09368
324.1026
324.09233
324.10118
324.09078
324.09957
324.08908
324.09783
324.08727
324.09596
324.08532
324.09389
324.08315
324.09157
324.0807
324.08892
324.0779
324.08587
324.07465
324.0823
324.07087
324.07814
324.06648
324.07333
324.06141
324.0678
324.05562
324.06152
324.04907
324.05444
324.04173
324.04654
324.03359
324.03782
324.02464
324.0283
324.01491
324.01797
324.0044
324.00687
323.99314
323.99499
323.98114
323.98238
323.96843
323.96905
323.95505
324.10216
324.09411
324.10297
324.09354
324.10219
324.09252
324.10105
324.09125
324.09969
324.08979
324.09814
324.08817
324.09641
324.08634
324.09445
324.08427
324.0922
324.08191
324.08964
324.07922
324.08669
324.07613
324.0833
324.07256
324.07939
324.06847
324.07491
324.06379
324.06981
324.05849
324.06405
324.05253
324.0576
324.04586
324.05042
324.03848
324.04251
324.03039
324.03387
324.02158
324.0245
324.01206
324.01441
324.00184
324.00362
323.99094
323.99213
323.97938
323.97997
323.96717
324.10112
324.09361
324.1021
324.09323
324.10156
324.09248
324.10068
324.09145
324.09953
324.0902
324.09814
324.08872
324.09651
324.08698
324.0946
324.08495
324.09237
324.08262
324.08982
324.07996
324.08691
324.07693
324.0836
324.07348
324.07983
324.06957
324.07557
324.06517
324.07078
324.06022
324.06542
324.0547
324.05945
324.04858
324.05285
324.04182
324.0456
324.03443
324.0377
324.0264
324.02915
324.01773
324.01995
324.00842
324.0101
323.99848
323.9996
323.98792
323.98849
323.97676
324.1001
324.09309
324.10115
324.0928
324.10079
324.09226
324.10011
324.09143
324.09912
324.09034
324.09785
324.08895
324.09627
324.08724
324.09435
324.0852
324.09209
324.08283
324.08949
324.08013
324.08654
324.07708
324.08322
324.07366
324.07951
324.06985
324.07537
324.0656
324.07078
324.06091
324.0657
324.05572
324.06011
324.05
324.05396
324.04374
324.04725
324.03693
324.03997
324.02955
324.03211
324.0216
324.02367
324.01307
324.01463
324.00397
324.00502
323.9943
323.99482
323.98407
324.09907
324.09257
324.10015
324.09228
324.09991
324.0919
324.09937
324.09122
324.09851
324.09023
324.0973
324.08887
324.0957
324.08713
324.09371
324.085
324.09135
324.08253
324.08863
324.07972
324.08558
324.07659
324.08219
324.07312
324.07845
324.06932
324.07436
324.06515
324.06988
324.0606
324.06499
324.05564
324.05966
324.05024
324.05387
324.04437
324.04759
324.03802
324.04082
324.03117
324.03353
324.02383
324.02574
324.01597
324.01741
324.00759
324.00856
323.9987
323.99919
323.9893
324.09803
324.09203
324.09911
324.09171
324.09895
324.09143
324.09852
324.09085
324.09771
324.08988
324.09648
324.08848
324.0948
324.08663
324.09267
324.08435
324.09014
324.08171
324.08724
324.07873
324.08403
324.07545
324.0805
324.07187
324.07668
324.068
324.07255
324.06384
324.06811
324.05937
324.06333
324.05455
324.05818
324.04936
324.05265
324.04379
324.04672
324.03781
324.04035
324.03141
324.03356
324.02457
324.02631
324.01728
324.01859
324.00953
324.01041
324.00131
324.00175
323.99263
324.09697
324.0915
324.09805
324.09109
324.09793
324.09088
324.09755
324.09032
324.09673
324.08931
324.09541
324.08778
324.09355
324.08573
324.09121
324.08322
324.08843
324.08033
324.08529
324.07712
324.08185
324.07363
324.07814
324.06989
324.07417
324.06591
324.06996
324.06169
324.06549
324.05722
324.06076
324.05248
324.05573
324.04745
324.05039
324.04209
324.04472
324.0364
324.03869
324.03036
324.03229
324.02394
324.0255
324.01713
324.01831
324.00991
324.01071
324.00229
324.00269
323.99425
324.09588
324.09095
324.09696
324.09043
324.09686
324.09024
324.09648
324.08964
324.09557
324.08849
324.09405
324.08672
324.09193
324.08439
324.08927
324.08158
324.08618
324.07838
324.08275
324.07488
324.07903
324.07113
324.07508
324.06718
324.07093
324.06303
324.06659
324.05871
324.06205
324.0542
324.05731
324.04948
324.05235
324.04454
324.04714
324.03934
324.04166
324.03387
324.0359
324.02811
324.02983
324.02204
324.02344
324.01564
324.0167
324.00889
324.0096
324.00177
324.00213
323.99429
324.09475
324.0904
324.09583
324.08973
324.09575
324.08952
324.09531
324.08879
324.0942
324.08739
324.09237
324.08528
324.08987
324.08256
324.08683
324.07936
324.08336
324.07579
324.07956
324.07195
324.07553
324.0679
324.07131
324.0637
324.06693
324.05936
324.06243
324.0549
324.05779
324.05031
324.05301
324.04557
324.04807
324.04067
324.04294
324.03558
324.03761
324.03029
324.03206
324.02476
324.02626
324.01898
324.0202
324.01292
324.01385
324.00656
324.00719
323.9999
324.00021
323.99291
324.09357
324.08983
324.09468
324.08901
324.0946
324.08872
324.09402
324.08775
324.09258
324.08596
324.09031
324.08339
324.08733
324.08019
324.08381
324.07652
324.07989
324.07252
324.07569
324.06829
324.0713
324.06391
324.06678
324.05943
324.06216
324.05487
324.05747
324.05025
324.0527
324.04556
324.04785
324.04077
324.0429
324.03589
324.03783
324.03087
324.03261
324.0257
324.02723
324.02036
324.02166
324.01482
324.01588
324.00905
324.00986
324.00304
324.00358
323.99677
323.99704
323.99021
324.09235
324.08925
324.0935
324.08825
324.09339
324.0878
324.09255
324.08645
324.09065
324.08413
324.0878
324.08097
324.08423
324.07719
324.08015
324.07298
324.07572
324.0685
324.07108
324.06386
324.06631
324.05912
324.06146
324.05435
324.05659
324.04956
324.0517
324.04476
324.04679
324.03995
324.04186
324.0351
324.03688
324.03021
324.03184
324.02524
324.02671
324.02017
324.02146
324.01498
324.01608
324.00964
324.01054
324.00413
324.00481
323.99842
323.99888
323.99248
323.99271
323.98631
324.09106
324.08866
324.09228
324.08746
324.0921
324.08673
324.09087
324.08483
324.08831
324.08181
324.08475
324.07794
324.08048
324.07349
324.07577
324.06868
324.07078
324.06368
324.06567
324.0586
324.0605
324.0535
324.05533
324.04843
324.05019
324.0434
324.0451
324.03842
324.04005
324.03348
324.03503
324.02857
324.03002
324.02366
324.02499
324.01872
324.01993
324.01374
324.0148
324.00868
324.00959
324.00351
324.00426
323.99822
323.99879
323.99277
323.99315
323.98714
323.98733
323.98131
324.08969
324.08808
324.09102
324.08662
324.09068
324.08544
324.08887
324.08278
324.08548
324.0789
324.08104
324.07419
324.07598
324.06899
324.07057
324.06353
324.06501
324.05799
324.0594
324.05246
324.05383
324.047
324.04835
324.04163
324.04296
324.03638
324.03767
324.03123
324.03249
324.02618
324.02738
324.02119
324.02234
324.01626
324.01732
324.01135
324.01232
324.00644
324.00729
324.00149
324.00223
323.99648
323.99709
323.99138
323.99184
323.98617
323.98648
323.98081
323.98097
323.9753
324.08825
324.08753
324.08971
324.08571
324.08908
324.08384
324.08644
324.08017
324.08201
324.07526
324.07657
324.06961
324.07063
324.0636
324.06449
324.05747
324.05833
324.05139
324.05223
324.04541
324.04628
324.0396
324.04048
324.03396
324.03486
324.02849
324.0294
324.02318
324.0241
324.01803
324.01892
324.01299
324.01384
324.00804
324.00885
324.00316
324.0039
323.99831
323.99898
323.99347
323.99405
323.9886
323.98908
323.98369