/*--------------------------------*- C++ -*----------------------------------*\
| =========                 |                                                 |
| \\      /  F ield         | OpenFOAM: The Open Source CFD Toolbox           |
|  \\    /   O peration     | Version:  2312                                  |
|   \\  /    A nd           | Website:  www.openfoam.com                      |
|    \\/     M anipulation  |                                                 |
\*---------------------------------------------------------------------------*/
FoamFile
{
    version     2.0;
    format      ascii;
    arch        "LSB;label=32;scalar=64";
    class       volVectorField;
    location    "4";
    object      U;
}
// * * * * * * * * * * * * * * * * * * * * * * * * * * * * * * * * * * * * * //

dimensions      [0 1 -1 0 0 0 0];

internalField   nonuniform List<vector> 
4000
(
(0.0024232252 0.00050292981 0)
(0.0063806717 -1.9414637e-05 0)
(0.0031597221 -7.2031972e-07 0)
(0.0038588882 -7.4658036e-07 0)
(0.0036068552 9.3797792e-08 0)
(0.0035845268 -1.9730182e-07 0)
(0.0035899024 9.8456284e-08 0)
(0.0035358871 -1.6242994e-07 0)
(0.0035637927 1.1639854e-07 0)
(0.0035312404 -1.2160234e-07 0)
(0.0035555209 1.0722595e-07 0)
(0.0035327485 -1.0156117e-07 0)
(0.0035526182 9.4427719e-08 0)
(0.0035342607 -8.8644406e-08 0)
(0.0035511177 8.3190081e-08 0)
(0.0035353788 -7.8291393e-08 0)
(0.0035500443 7.3651445e-08 0)
(0.0035362888 -6.9407012e-08 0)
(0.0035491646 6.5379763e-08 0)
(0.0035370804 -6.1632836e-08 0)
(0.0035484067 5.8096542e-08 0)
(0.0035377812 -5.4775001e-08 0)
(0.0035477393 5.1650095e-08 0)
(0.0035384063 -4.8704088e-08 0)
(0.0035471447 4.5938671e-08 0)
(0.0035389667 -4.3330486e-08 0)
(0.0035466115 4.0888037e-08 0)
(0.0035394711 -3.858798e-08 0)
(0.0035461313 3.644042e-08 0)
(0.003539926 -3.4423607e-08 0)
(0.0035456978 3.2547285e-08 0)
(0.0035403373 -3.0791706e-08 0)
(0.0035453056 2.9165476e-08 0)
(0.00354071 -2.7650915e-08 0)
(0.0035449498 2.6255383e-08 0)
(0.0035410487 -2.4963277e-08 0)
(0.0035446256 2.3780749e-08 0)
(0.0035413582 -2.2694269e-08 0)
(0.0035443285 2.170892e-08 0)
(0.0035416429 -2.0813277e-08 0)
(0.0035440542 2.0011418e-08 0)
(0.0035419071 -1.9294209e-08 0)
(0.0035437984 1.8664624e-08 0)
(0.003542155 -1.8115357e-08 0)
(0.003543558 1.7653545e-08 0)
(0.0035423915 -1.7256033e-08 0)
(0.0035433254 1.6973169e-08 0)
(0.0035425952 -1.6752132e-08 0)
(0.0035430052 1.6349481e-08 0)
(0.0035425286 -1.8005668e-08 0)
(0.0065607851 0.0014843139 0)
(0.016820737 -2.5670831e-07 0)
(0.0099737226 3.4289014e-05 0)
(0.011038729 -5.1710268e-06 0)
(0.010478807 4.0302347e-06 0)
(0.010383191 -3.1222752e-07 0)
(0.010422007 1.1314746e-06 0)
(0.010261423 -1.3197538e-07 0)
(0.01034514 5.1271349e-07 0)
(0.010249883 -3.1513246e-07 0)
(0.010321439 3.7885691e-07 0)
(0.010254508 -3.3660368e-07 0)
(0.010313361 3.3207365e-07 0)
(0.010258934 -3.11275e-07 0)
(0.010309108 2.9650735e-07 0)
(0.010262215 -2.7875101e-07 0)
(0.010305976 2.6371588e-07 0)
(0.010264912 -2.4805944e-07 0)
(0.010303368 2.3416823e-07 0)
(0.010267277 -2.2049858e-07 0)
(0.010301104 2.0798089e-07 0)
(0.010269381 -1.9595972e-07 0)
(0.010299102 1.8478313e-07 0)
(0.010271263 -1.7416386e-07 0)
(0.010297315 1.6423533e-07 0)
(0.010272952 -1.5485514e-07 0)
(0.010295711 1.4607895e-07 0)
(0.010274471 -1.37821e-07 0)
(0.010294268 1.3010804e-07 0)
(0.010275841 -1.2287795e-07 0)
(0.010292966 1.1614567e-07 0)
(0.010277077 -1.0986021e-07 0)
(0.010291789 1.040312e-07 0)
(0.010278197 -9.8614648e-08 0)
(0.010290722 9.3617074e-08 0)
(0.010279214 -8.9000004e-08 0)
(0.01028975 8.4768169e-08 0)
(0.010280144 -8.0888288e-08 0)
(0.010288858 7.7363837e-08 0)
(0.010281 -7.4166398e-08 0)
(0.010288034 7.12992e-08 0)
(0.010281796 -6.873834e-08 0)
(0.010287264 6.6483115e-08 0)
(0.010282544 -6.4533537e-08 0)
(0.010286537 6.2837053e-08 0)
(0.01028326 -6.1449092e-08 0)
(0.01028584 6.060883e-08 0)
(0.010283914 -5.8381938e-08 0)
(0.010284969 6.2637749e-08 0)
(0.010283883 -5.6076176e-08 0)
(0.013233161 0.002892916 0)
(0.02594199 -1.7601773e-05 0)
(0.016508766 7.5286479e-05 0)
(0.018031129 -9.2405172e-06 0)
(0.017154496 9.6032149e-06 0)
(0.016994532 -3.6956035e-07 0)
(0.017076032 2.5204159e-06 0)
(0.016808282 5.697705e-08 0)
(0.016953476 9.8971305e-07 0)
(0.016793589 -4.9707002e-07 0)
(0.016915192 6.8694547e-07 0)
(0.016802191 -5.9908722e-07 0)
(0.016902136 6.0288019e-07 0)
(0.016809754 -5.6577809e-07 0)
(0.016895114 5.413551e-07 0)
(0.016815306 -5.0890146e-07 0)
(0.016889853 4.823257e-07 0)
(0.016819885 -4.5340667e-07 0)
(0.016885431 4.2833093e-07 0)
(0.016823915 -4.0317326e-07 0)
(0.016881575 3.8037092e-07 0)
(0.016827509 -3.5830649e-07 0)
(0.016878156 3.3787085e-07 0)
(0.016830728 -3.184034e-07 0)
(0.0168751 3.0022318e-07 0)
(0.016833619 -2.830374e-07 0)
(0.016872357 2.6696071e-07 0)
(0.016836218 -2.5183733e-07 0)
(0.01686989 2.377091e-07 0)
(0.01683856 -2.2447268e-07 0)
(0.016867666 2.1214367e-07 0)
(0.016840674 -2.0063996e-07 0)
(0.016865657 1.8996757e-07 0)
(0.016842586 -1.8005603e-07 0)
(0.016863836 1.7090713e-07 0)
(0.016844322 -1.6245907e-07 0)
(0.016862177 1.5471206e-07 0)
(0.016845909 -1.4761206e-07 0)
(0.016860656 1.4115853e-07 0)
(0.01684737 -1.3530536e-07 0)
(0.01685925 1.3005269e-07 0)
(0.016848728 -1.253603e-07 0)
(0.016857935 1.2122323e-07 0)
(0.016850006 -1.1765115e-07 0)
(0.016856693 1.1450269e-07 0)
(0.016851231 -1.1199965e-07 0)
(0.016855503 1.1040136e-07 0)
(0.016852373 -1.0583604e-07 0)
(0.016854079 1.1642582e-07 0)
(0.016852475 -1.0141044e-07 0)
(0.01520903 0.0031079182 0)
(0.034235764 -9.5802321e-05 0)
(0.02284681 0.00013092294 0)
(0.02484625 -1.3933988e-05 0)
(0.023635298 1.7725353e-05 0)
(0.023419295 -3.5548754e-07 0)
(0.023551399 4.3162886e-06 0)
(0.023176587 5.182637e-07 0)
(0.023389016 1.4860142e-06 0)
(0.023162375 -5.9429833e-07 0)
(0.023336941 9.7457216e-07 0)
(0.023175695 -8.3672844e-07 0)
(0.023319092 8.5928365e-07 0)
(0.023186607 -8.0840312e-07 0)
(0.023309269 7.7693252e-07 0)
(0.023194553 -7.3045166e-07 0)
(0.023301786 6.9357186e-07 0)
(0.023201124 -6.5155987e-07 0)
(0.023295448 6.1596961e-07 0)
(0.023206924 -5.7955069e-07 0)
(0.023289899 5.4687898e-07 0)
(0.023212106 -5.1502971e-07 0)
(0.02328497 4.8563948e-07 0)
(0.02321675 -4.5757843e-07 0)
(0.023280561 4.3139681e-07 0)
(0.023220921 -4.0664381e-07 0)
(0.023276605 3.8348534e-07 0)
(0.02322467 -3.6171489e-07 0)
(0.023273048 3.413666e-07 0)
(0.023228045 -3.2232144e-07 0)
(0.023269845 3.0456993e-07 0)
(0.023231088 -2.8802359e-07 0)
(0.023266953 2.7266157e-07 0)
(0.023233838 -2.5840889e-07 0)
(0.023264334 2.4524222e-07 0)
(0.023236336 -2.3309522e-07 0)
(0.02326195 2.2194646e-07 0)
(0.023238616 -2.1173739e-07 0)
(0.023259765 2.0244911e-07 0)
(0.023240714 -1.9403075e-07 0)
(0.023257745 1.8646877e-07 0)
(0.023242665 -1.797159e-07 0)
(0.023255857 1.7375473e-07 0)
(0.0232445 -1.6861819e-07 0)
(0.023254072 1.64035e-07 0)
(0.023246259 -1.6050012e-07 0)
(0.023252365 1.5814165e-07 0)
(0.023247921 -1.5087659e-07 0)
(0.023250388 1.7028855e-07 0)
(0.023248258 -1.4460358e-07 0)
(0.021452295 0.0044344304 0)
(0.042203783 -8.780986e-05 0)
(0.028888528 0.00019470797 0)
(0.031482955 -2.1571448e-05 0)
(0.029920222 2.8311102e-05 0)
(0.029659064 -3.4201731e-07 0)
(0.02984657 6.4498198e-06 0)
(0.029366557 1.2189829e-06 0)
(0.029651595 1.9629615e-06 0)
(0.029356436 -6.0156076e-07 0)
(0.029586602 1.2256163e-06 0)
(0.029375118 -1.0401051e-06 0)
(0.029564144 1.0897899e-06 0)
(0.029389565 -1.0293316e-06 0)
(0.029551493 9.9338341e-07 0)
(0.02940002 -9.342636e-07 0)
(0.0295417 8.8868751e-07 0)
(0.02940869 -8.3427207e-07 0)
(0.029533347 7.8926808e-07 0)
(0.029416361 -7.4225947e-07 0)
(0.029526012 7.0054761e-07 0)
(0.029423223 -6.5956232e-07 0)
(0.029519486 6.2190314e-07 0)
(0.029429375 -5.8585008e-07 0)
(0.029513648 5.522613e-07 0)
(0.029434898 -5.2048732e-07 0)
(0.029508412 4.9077187e-07 0)
(0.02943986 -4.6284478e-07 0)
(0.029503706 4.3674105e-07 0)
(0.029444322 -4.1232244e-07 0)
(0.029499473 3.8955771e-07 0)
(0.029448342 -3.6835123e-07 0)
(0.029495654 3.4865645e-07 0)
(0.029451973 -3.3039424e-07 0)
(0.029492199 3.1351698e-07 0)
(0.029455266 -2.979546e-07 0)
(0.029489056 2.8366496e-07 0)
(0.029458272 -2.7058501e-07 0)
(0.029486177 2.586787e-07 0)
(0.029461036 -2.4789128e-07 0)
(0.029483516 2.3819571e-07 0)
(0.029463604 -2.2953745e-07 0)
(0.029481031 2.2188962e-07 0)
(0.029466019 -2.1530986e-07 0)
(0.029478682 2.0937253e-07 0)
(0.029468332 -2.0493757e-07 0)
(0.029476438 2.0181257e-07 0)
(0.029470537 -1.9173241e-07 0)
(0.029473905 2.2171848e-07 0)
(0.029471194 -1.8372908e-07 0)
(0.024928562 0.0049754349 0)
(0.049116067 -0.00019528155 0)
(0.034776807 0.00026779389 0)
(0.037940804 -2.9514332e-05 0)
(0.03600723 4.1548492e-05 0)
(0.035715154 -4.5905659e-07 0)
(0.035959878 8.8590181e-06 0)
(0.035379138 2.0982244e-06 0)
(0.035740902 2.4012854e-06 0)
(0.035376206 -5.2788359e-07 0)
(0.035663951 1.4389907e-06 0)
(0.035400731 -1.2128278e-06 0)
(0.035637075 1.2955053e-06 0)
(0.035418848 -1.2304262e-06 0)
(0.035621582 1.1918766e-06 0)
(0.035431903 -1.1215584e-06 0)
(0.035609412 1.0686452e-06 0)
(0.03544276 -1.0024766e-06 0)
(0.035598964 9.4904179e-07 0)
(0.035452386 -8.9207458e-07 0)
(0.035589764 8.4208435e-07 0)
(0.035461002 -7.9257855e-07 0)
(0.035581572 7.4729158e-07 0)
(0.035468728 -7.0382033e-07 0)
(0.035574244 6.6338578e-07 0)
(0.03547566 -6.2511378e-07 0)
(0.035567673 5.8933951e-07 0)
(0.035481884 -5.5572504e-07 0)
(0.035561774 5.2430739e-07 0)
(0.035487476 -4.94932e-07 0)
(0.035556471 4.675423e-07 0)
(0.035492509 -4.420403e-07 0)
(0.035551693 4.1835061e-07 0)
(0.035497051 -3.9639457e-07 0)
(0.035547372 3.7609712e-07 0)
(0.035501168 -3.573886e-07 0)
(0.035543444 3.4020348e-07 0)
(0.035504923 -3.2447867e-07 0)
(0.035539849 3.1015851e-07 0)
(0.035508374 -2.9718704e-07 0)
(0.035536528 2.8552341e-07 0)
(0.035511578 -2.7510671e-07 0)
(0.035533428 2.6590103e-07 0)
(0.035514589 -2.5799033e-07 0)
(0.035530499 2.5077564e-07 0)
(0.035517471 -2.4556166e-07 0)
(0.035527704 2.4164248e-07 0)
(0.035520232 -2.2871601e-07 0)
(0.035524616 2.7052811e-07 0)
(0.035521284 -2.1871356e-07 0)
(0.02958179 0.0054801411 0)
(0.055749482 -0.00020518922 0)
(0.040471974 0.0003353322 0)
(0.044138794 -3.6480412e-05 0)
(0.04190067 5.7932207e-05 0)
(0.041590945 -6.737918e-07 0)
(0.041891297 1.1555897e-05 0)
(0.041215755 3.1094577e-06 0)
(0.04165665 2.7867446e-06 0)
(0.041222135 -3.821797e-07 0)
(0.041568774 1.6145981e-06 0)
(0.041252812 -1.3583875e-06 0)
(0.041537664 1.4778662e-06 0)
(0.041274686 -1.4136271e-06 0)
(0.041519326 1.3737859e-06 0)
(0.041290407 -1.2937119e-06 0)
(0.041504727 1.2346043e-06 0)
(0.041303519 -1.1572829e-06 0)
(0.041492123 1.0962923e-06 0)
(0.041315163 -1.0299514e-06 0)
(0.041481 9.7237653e-07 0)
(0.041325591 -9.14923e-07 0)
(0.04147109 8.6260102e-07 0)
(0.041334939 -8.1224803e-07 0)
(0.041462226 7.6549058e-07 0)
(0.041343322 -7.2120963e-07 0)
(0.041454284 6.7984142e-07 0)
(0.041350842 -6.4097857e-07 0)
(0.04144716 6.0465854e-07 0)
(0.041357593 -5.7071444e-07 0)
(0.041440761 5.3906119e-07 0)
(0.041363664 -5.096033e-07 0)
(0.041434999 4.822326e-07 0)
(0.041369139 -4.568758e-07 0)
(0.041429793 4.3342729e-07 0)
(0.041374098 -4.1182243e-07 0)
(0.041425063 3.9197002e-07 0)
(0.041378617 -3.7380963e-07 0)
(0.041420737 3.5726468e-07 0)
(0.041382769 -3.4228154e-07 0)
(0.041416743 3.2880278e-07 0)
(0.041386621 -3.1676338e-07 0)
(0.041413017 3.0611996e-07 0)
(0.041390239 -2.9698154e-07 0)
(0.041409498 2.8856384e-07 0)
(0.041393698 -2.8268166e-07 0)
(0.041406144 2.7792755e-07 0)
(0.041397025 -2.6220377e-07 0)
(0.041402503 3.1663759e-07 0)
(0.041398532 -2.4970305e-07 0)
(0.034185644 0.006433935 0)
(0.061088222 -0.00030573489 0)
(0.046183376 0.00039934739 0)
(0.049880645 -4.4608663e-05 0)
(0.04757566 7.5004525e-05 0)
(0.047280905 -1.3908945e-06 0)
(0.04763875 1.4434336e-05 0)
(0.046877375 4.1800225e-06 0)
(0.047398446 3.1104053e-06 0)
(0.046894561 -1.7196659e-07 0)
(0.047300884 1.7514056e-06 0)
(0.046931592 -1.4783087e-06 0)
(0.047265716 1.6367869e-06 0)
(0.046957276 -1.5792998e-06 0)
(0.047244541 1.5390711e-06 0)
(0.046975711 -1.4507569e-06 0)
(0.047227476 1.386477e-06 0)
(0.046991129 -1.2986309e-06 0)
(0.047212671 1.2309275e-06 0)
(0.047004838 -1.1558173e-06 0)
(0.047199584 1.0913498e-06 0)
(0.047017117 -1.0265373e-06 0)
(0.04718792 9.6777963e-07 0)
(0.047028121 -9.1109304e-07 0)
(0.047177491 8.5854344e-07 0)
(0.047037981 -8.087518e-07 0)
(0.047168153 7.6226145e-07 0)
(0.04704682 -7.1859505e-07 0)
(0.047159783 6.7778966e-07 0)
(0.047054748 -6.3966999e-07 0)
(0.047152272 6.0411833e-07 0)
(0.047061871 -5.7104668e-07 0)
(0.047145513 5.4031146e-07 0)
(0.047068291 -5.1184914e-07 0)
(0.04713941 4.8552097e-07 0)
(0.047074102 -4.6127095e-07 0)
(0.04713387 4.3898011e-07 0)
(0.047079395 -4.1859499e-07 0)
(0.047128804 4.000159e-07 0)
(0.047084256 -3.8319377e-07 0)
(0.04712413 3.6805489e-07 0)
(0.047088762 -3.545308e-07 0)
(0.047119772 3.4257135e-07 0)
(0.047092992 -3.32309e-07 0)
(0.047115658 3.2276862e-07 0)
(0.047097033 -3.1632634e-07 0)
(0.047111739 3.1070126e-07 0)
(0.047100929 -2.922953e-07 0)
(0.047107552 3.5977152e-07 0)
(0.047102939 -2.7669646e-07 0)
(0.038368641 0.0066060835 0)
(0.065897378 -0.00036903237 0)
(0.052002648 0.00048185722 0)
(0.055058338 -5.4352768e-05 0)
(0.053033204 9.0766157e-05 0)
(0.052782795 -2.5205809e-06 0)
(0.053203313 1.750758e-05 0)
(0.052364986 5.2721841e-06 0)
(0.052966033 3.3632086e-06 0)
(0.052393804 9.4979136e-08 0)
(0.052860149 1.8482253e-06 0)
(0.052437283 -1.5734297e-06 0)
(0.052821072 1.7719019e-06 0)
(0.052466797 -1.727319e-06 0)
(0.052797066 1.6873704e-06 0)
(0.052487973 -1.5923631e-06 0)
(0.052777511 1.5238775e-06 0)
(0.052505731 -1.4261697e-06 0)
(0.052760475 1.3525978e-06 0)
(0.052521536 -1.269359e-06 0)
(0.052745397 1.1987076e-06 0)
(0.052535691 -1.127153e-06 0)
(0.052731958 1.0625805e-06 0)
(0.052548369 -1.0001318e-06 0)
(0.052719948 9.4234095e-07 0)
(0.052559721 -8.87555e-07 0)
(0.052709202 8.3643099e-07 0)
(0.052569889 -7.8842089e-07 0)
(0.052699578 7.4356023e-07 0)
(0.052579002 -7.0166853e-07 0)
(0.052690946 6.6259417e-07 0)
(0.052587184 -6.2626024e-07 0)
(0.052683186 5.9248549e-07 0)
(0.052594554 -5.6121988e-07 0)
(0.052676181 5.3228994e-07 0)
(0.052601221 -5.0565203e-07 0)
(0.052669826 4.8115844e-07 0)
(0.052607291 -4.5876413e-07 0)
(0.052664018 4.3834633e-07 0)
(0.052612862 -4.1986342e-07 0)
(0.052658663 4.0322294e-07 0)
(0.052618025 -3.8835532e-07 0)
(0.052653671 3.7520588e-07 0)
(0.052622867 -3.639264e-07 0)
(0.052648962 3.533515e-07 0)
(0.052627489 -3.4645411e-07 0)
(0.052644479 3.3993119e-07 0)
(0.052631953 -3.1900992e-07 0)
(0.052639753 3.9962943e-07 0)
(0.052634508 -2.9970368e-07 0)
(0.04281438 0.0072682018 0)
(0.069696662 -0.00050110039 0)
(0.057695693 0.00055372642 0)
(0.059819031 -5.9984036e-05 0)
(0.058308437 0.00010379149 0)
(0.058086655 -4.2836561e-06 0)
(0.058584081 2.0598364e-05 0)
(0.057678763 6.3051158e-06 0)
(0.058359155 3.5387394e-06 0)
(0.057720089 4.0875288e-07 0)
(0.058246451 1.9044099e-06 0)
(0.057770065 -1.6445909e-06 0)
(0.058203581 1.8830428e-06 0)
(0.057803406 -1.8576843e-06 0)
(0.058176756 1.8184783e-06 0)
(0.057827335 -1.7183499e-06 0)
(0.058154698 1.6465713e-06 0)
(0.057847452 -1.5396993e-06 0)
(0.058135417 1.4610985e-06 0)
(0.057865368 -1.3704019e-06 0)
(0.058118337 1.2942879e-06 0)
(0.057881409 -1.2166322e-06 0)
(0.058103115 1.1468799e-06 0)
(0.057895767 -1.0792573e-06 0)
(0.058089519 1.0167882e-06 0)
(0.057908615 -9.5753662e-07 0)
(0.058077363 9.0227723e-07 0)
(0.057920112 -8.5039115e-07 0)
(0.058066484 8.0191311e-07 0)
(0.05793041 -7.5666011e-07 0)
(0.058056733 7.1444443e-07 0)
(0.05793965 -6.7520382e-07 0)
(0.058047972 6.3871897e-07 0)
(0.057947968 -6.0495609e-07 0)
(0.058040068 5.7370638e-07 0)
(0.05795549 -5.4494063e-07 0)
(0.0580329 5.1848182e-07 0)
(0.057962334 -4.9429677e-07 0)
(0.058026353 4.7223849e-07 0)
(0.057968613 -4.5227389e-07 0)
(0.058020319 4.3429348e-07 0)
(0.057974429 -4.1822654e-07 0)
(0.058014697 4.0401491e-07 0)
(0.057979881 -3.9182605e-07 0)
(0.058009395 3.8031012e-07 0)
(0.05798508 -3.730582e-07 0)
(0.05800435 3.6562289e-07 0)
(0.057990107 -3.4238938e-07 0)
(0.057999096 4.3597442e-07 0)
(0.057993238 -3.1880586e-07 0)
(0.047697705 0.0076027112 0)
(0.073473149 -0.0005376993 0)
(0.063004617 0.00060195831 0)
(0.064294256 -6.6885376e-05 0)
(0.063425952 0.00011289396 0)
(0.0631808 -6.8099628e-06 0)
(0.063781181 2.3501953e-05 0)
(0.062819846 7.2303065e-06 0)
(0.063577675 3.6322869e-06 0)
(0.062873661 7.5977475e-07 0)
(0.063459712 1.9196766e-06 0)
(0.06293011 -1.6924096e-06 0)
(0.063413112 1.970294e-06 0)
(0.062967248 -1.970465e-06 0)
(0.063383481 1.9323748e-06 0)
(0.062993924 -1.8286685e-06 0)
(0.063358919 1.7544884e-06 0)
(0.063016404 -1.639165e-06 0)
(0.063337391 1.5563773e-06 0)
(0.063036432 -1.4589154e-06 0)
(0.063318311 1.3780667e-06 0)
(0.063054357 -1.2949639e-06 0)
(0.063301311 1.2206751e-06 0)
(0.063070391 -1.1484754e-06 0)
(0.063286136 1.0818978e-06 0)
(0.063084726 -1.0187139e-06 0)
(0.063272577 9.5982146e-07 0)
(0.063097546 -9.045304e-07 0)
(0.063260451 8.5287469e-07 0)
(0.063109021 -8.0467103e-07 0)
(0.063249589 7.5969647e-07 0)
(0.063119311 -7.1790557e-07 0)
(0.063239834 6.7904048e-07 0)
(0.06312857 -6.4308607e-07 0)
(0.063231039 6.0979819e-07 0)
(0.063136938 -5.791647e-07 0)
(0.063223065 5.5097965e-07 0)
(0.06314455 -5.2522183e-07 0)
(0.063215785 5.0172131e-07 0)
(0.06315153 -4.8045576e-07 0)
(0.063209079 4.6129644e-07 0)
(0.063157992 -4.4417375e-07 0)
(0.063202833 4.2902874e-07 0)
(0.063164047 -4.1603873e-07 0)
(0.063196945 4.0367963e-07 0)
(0.063169817 -3.9616708e-07 0)
(0.063191346 3.8781682e-07 0)
(0.063175398 -3.6249976e-07 0)
(0.063185575 4.6863374e-07 0)
(0.063179128 -3.3414385e-07 0)
(0.052362657 0.0080389165 0)
(0.076388333 -0.00068247355 0)
(0.068074336 0.0006579628 0)
(0.06861678 -6.7411614e-05 0)
(0.068404423 0.00011913065 0)
(0.068066793 -9.7911867e-06 0)
(0.06879605 2.5946981e-05 0)
(0.067789058 7.985058e-06 0)
(0.068621507 3.6472561e-06 0)
(0.067854679 1.1378918e-06 0)
(0.068499863 1.8941777e-06 0)
(0.067917571 -1.7172272e-06 0)
(0.06844954 2.0338666e-06 0)
(0.067958452 -2.0657965e-06 0)
(0.06841712 2.0291282e-06 0)
(0.067987856 -1.9233702e-06 0)
(0.068390068 1.8476545e-06 0)
(0.068012687 -1.724612e-06 0)
(0.068366305 1.6384742e-06 0)
(0.068034816 -1.5349559e-06 0)
(0.068345239 1.4501035e-06 0)
(0.06805461 -1.3622187e-06 0)
(0.068326477 1.2840385e-06 0)
(0.068072303 -1.2078625e-06 0)
(0.068309738 1.1377462e-06 0)
(0.068088111 -1.0711642e-06 0)
(0.068294792 1.0091401e-06 0)
(0.068102238 -9.5091286e-07 0)
(0.068281434 8.9651802e-07 0)
(0.068114875 -8.4577349e-07 0)
(0.068269475 7.9842058e-07 0)
(0.068126202 -7.5443296e-07 0)
(0.068258739 7.1351569e-07 0)
(0.068136389 -6.756737e-07 0)
(0.068249064 6.406283e-07 0)
(0.068145593 -6.083853e-07 0)
(0.068240296 5.7871027e-07 0)
(0.068153961 -5.5159681e-07 0)
(0.068232294 5.2685159e-07 0)
(0.068161631 -5.0446319e-07 0)
(0.068224926 4.842864e-07 0)
(0.06816873 -4.6625228e-07 0)
(0.068218066 4.5030177e-07 0)
(0.068175378 -4.3661796e-07 0)
(0.068211603 4.2351615e-07 0)
(0.068181707 -4.1583056e-07 0)
(0.068205457 4.0657751e-07 0)
(0.068187832 -3.7942179e-07 0)
(0.068199183 4.9748194e-07 0)
(0.068192179 -3.4589542e-07 0)
(0.057668323 0.0083691577 0)
(0.079339822 -0.00073643817 0)
(0.072924587 0.00070523643 0)
(0.072789863 -7.0574172e-05 0)
(0.0732273 0.00012135666 0)
(0.072759826 -1.2944217e-05 0)
(0.073632963 2.7794541e-05 0)
(0.072587676 8.553011e-06 0)
(0.07349067 3.5952309e-06 0)
(0.072663283 1.5349074e-06 0)
(0.073366864 1.8287515e-06 0)
(0.07273259 -1.718683e-06 0)
(0.073312755 2.0742405e-06 0)
(0.072777133 -2.1437849e-06 0)
(0.073277568 2.1089117e-06 0)
(0.072809231 -2.0025697e-06 0)
(0.07324805 1.9261808e-06 0)
(0.072836389 -1.7961599e-06 0)
(0.073222078 1.7075081e-06 0)
(0.072860594 -1.5986533e-06 0)
(0.073199052 1.5105264e-06 0)
(0.072882232 -1.4185263e-06 0)
(0.073178553 1.3370987e-06 0)
(0.072901559 -1.2575459e-06 0)
(0.073160275 1.1844587e-06 0)
(0.072918816 -1.1150087e-06 0)
(0.073143965 1.050351e-06 0)
(0.072934228 -9.8965296e-07 0)
(0.073129395 9.3295311e-07 0)
(0.072948008 -8.8007166e-07 0)
(0.073116357 8.3071699e-07 0)
(0.072960353 -7.848827e-07 0)
(0.073104659 7.4223766e-07 0)
(0.072971451 -7.028081e-07 0)
(0.07309412 6.6628202e-07 0)
(0.072981475 -6.3268485e-07 0)
(0.073084573 6.017551e-07 0)
(0.072990586 -5.7350009e-07 0)
(0.073075863 5.4770543e-07 0)
(0.072998933 -5.2437221e-07 0)
(0.073067846 5.0333667e-07 0)
(0.073006655 -4.8453287e-07 0)
(0.073060386 4.6790425e-07 0)
(0.073013883 -4.5363348e-07 0)
(0.073053359 4.3989186e-07 0)
(0.073020759 -4.3211306e-07 0)
(0.073046678 4.2198262e-07 0)
(0.073027414 -3.9324335e-07 0)
(0.073039915 5.2243491e-07 0)
(0.073032388 -3.5426532e-07 0)
(0.062416499 0.0085227235 0)
(0.081671684 -0.00088901569 0)
(0.077634201 0.00073859534 0)
(0.076820104 -7.2286317e-05 0)
(0.077885642 0.00012066404 0)
(0.077282231 -1.5908267e-05 0)
(0.078295713 2.89925e-05 0)
(0.0772164 8.9156161e-06 0)
(0.078185194 3.4878357e-06 0)
(0.077299535 1.940228e-06 0)
(0.078060672 1.7230144e-06 0)
(0.077375294 -1.6962956e-06 0)
(0.078002658 2.0919751e-06 0)
(0.077423391 -2.2045913e-06 0)
(0.077964731 2.1719735e-06 0)
(0.077458136 -2.0664661e-06 0)
(0.077932784 1.9902542e-06 0)
(0.077487586 -1.854007e-06 0)
(0.077904641 1.7636655e-06 0)
(0.07751383 -1.6501999e-06 0)
(0.07787969 1.559522e-06 0)
(0.077537278 -1.4640739e-06 0)
(0.077857487 1.3800361e-06 0)
(0.077558207 -1.2977009e-06 0)
(0.077837702 1.222203e-06 0)
(0.077576883 -1.1504089e-06 0)
(0.077820056 1.0836084e-06 0)
(0.077593553 -1.0208968e-06 0)
(0.077804301 9.6231998e-07 0)
(0.07760845 -9.0770041e-07 0)
(0.077790209 8.5671472e-07 0)
(0.077621791 -8.0937731e-07 0)
(0.077777569 7.6532392e-07 0)
(0.07763378 -7.2460219e-07 0)
(0.077766186 6.8686882e-07 0)
(0.077644605 -6.5216857e-07 0)
(0.077755878 6.202142e-07 0)
(0.07765444 -5.9102909e-07 0)
(0.077746477 5.6437771e-07 0)
(0.077663447 -5.4027313e-07 0)
(0.077737827 5.1853671e-07 0)
(0.077671777 -4.9910454e-07 0)
(0.077729782 4.8192285e-07 0)
(0.077679571 -4.6717012e-07 0)
(0.077722206 4.5289227e-07 0)
(0.07768698 -4.4509334e-07 0)
(0.077715003 4.34126e-07 0)
(0.077694148 -4.0406187e-07 0)
(0.077707769 5.4344453e-07 0)
(0.077699754 -3.5947507e-07 0)
(0.068289918 0.0089266804 0)
(0.084271313 -0.00090712148 0)
(0.082236934 0.00077033073 0)
(0.080706246 -7.3838979e-05 0)
(0.082370476 0.00011670105 0)
(0.081645209 -1.9019032e-05 0)
(0.082785774 2.9527479e-05 0)
(0.081676281 9.0836439e-06 0)
(0.08270504 3.3470898e-06 0)
(0.081763554 2.3468409e-06 0)
(0.082581228 1.5769692e-06 0)
(0.081845798 -1.6489048e-06 0)
(0.082519166 2.0879369e-06 0)
(0.081897314 -2.2483382e-06 0)
(0.082478527 2.2186733e-06 0)
(0.081934645 -2.1153211e-06 0)
(0.0824442 2.0401386e-06 0)
(0.081966339 -1.8984188e-06 0)
(0.082413933 1.8072e-06 0)
(0.08199458 -1.6898511e-06 0)
(0.082387103 1.5973327e-06 0)
(0.082019794 -1.4990961e-06 0)
(0.082363238 1.4130751e-06 0)
(0.082042286 -1.3285427e-06 0)
(0.082341983 1.251185e-06 0)
(0.082062345 -1.1775606e-06 0)
(0.082323035 1.1090991e-06 0)
(0.082080241 -1.0448231e-06 0)
(0.082306124 9.8478834e-07 0)
(0.082096227 -9.2881956e-07 0)
(0.082291005 8.7656614e-07 0)
(0.082110538 -8.2806266e-07 0)
(0.082277449 7.829139e-07 0)
(0.082123394 -7.4118892e-07 0)
(0.082265245 7.0251536e-07 0)
(0.082134998 -6.6695819e-07 0)
(0.082254197 6.3420662e-07 0)
(0.082145537 -6.0429794e-07 0)
(0.082244124 5.7697866e-07 0)
(0.082155186 -5.5227491e-07 0)
(0.08223486 5.2999111e-07 0)
(0.082164106 -5.1006788e-07 0)
(0.082226246 4.9245652e-07 0)
(0.082172449 -4.773256e-07 0)
(0.082218138 4.6261578e-07 0)
(0.082180373 -4.5486172e-07 0)
(0.08221043 4.4311026e-07 0)
(0.082188037 -4.1198019e-07 0)
(0.08220274 5.6049688e-07 0)
(0.082194276 -3.6175871e-07 0)
(0.073299203 0.0089874648 0)
(0.086326739 -0.0010664113 0)
(0.086709423 0.00078292888 0)
(0.084453724 -7.5453927e-05 0)
(0.086681997 0.00010972116 0)
(0.085856571 -2.2110879e-05 0)
(0.087104226 2.9512683e-05 0)
(0.085967901 9.074841e-06 0)
(0.087049923 3.1906602e-06 0)
(0.086055689 2.7461441e-06 0)
(0.086928411 1.3904968e-06 0)
(0.086144196 -1.5755539e-06 0)
(0.086862203 2.063067e-06 0)
(0.086198977 -2.2751992e-06 0)
(0.086818886 2.2494357e-06 0)
(0.086238821 -2.1494726e-06 0)
(0.086782239 2.0761601e-06 0)
(0.086272705 -1.9297259e-06 0)
(0.086749906 1.838417e-06 0)
(0.086302888 -1.7179089e-06 0)
(0.086721248 1.6242445e-06 0)
(0.08632982 -1.5238713e-06 0)
(0.086695769 1.436479e-06 0)
(0.086353831 -1.3503224e-06 0)
(0.086673085 1.2716422e-06 0)
(0.086375233 -1.1966894e-06 0)
(0.086652873 1.1270367e-06 0)
(0.086394319 -1.061633e-06 0)
(0.086634842 1.0005498e-06 0)
(0.086411361 -9.4361253e-07 0)
(0.086618727 8.9044586e-07 0)
(0.086426612 -8.4110419e-07 0)
(0.086604282 7.9516561e-07 0)
(0.086440309 -7.5271959e-07 0)
(0.086591282 7.1336765e-07 0)
(0.086452667 -6.7719363e-07 0)
(0.086579517 6.4386517e-07 0)
(0.086463888 -6.1343538e-07 0)
(0.086568795 5.8563305e-07 0)
(0.086474157 -5.6049616e-07 0)
(0.086558936 5.3781665e-07 0)
(0.086483648 -5.175383e-07 0)
(0.086549773 4.9961712e-07 0)
(0.086492521 -4.8420914e-07 0)
(0.08654115 4.691706e-07 0)
(0.086500943 -4.6151979e-07 0)
(0.086532953 4.4905069e-07 0)
(0.086509085 -4.1710914e-07 0)
(0.086524826 5.7360697e-07 0)
(0.086515951 -3.6135414e-07 0)
(0.07867688 0.0091314153 0)
(0.088677375 -0.0010826122 0)
(0.091031332 0.00079566747 0)
(0.088128297 -7.5843445e-05 0)
(0.090830631 9.9980666e-05 0)
(0.089915453 -2.5290713e-05 0)
(0.091251042 2.9028249e-05 0)
(0.090091341 8.9111726e-06 0)
(0.091219146 3.0375573e-06 0)
(0.09017676 3.1257768e-06 0)
(0.091102015 1.1672738e-06 0)
(0.090270578 -1.475829e-06 0)
(0.09103171 2.0185049e-06 0)
(0.090328443 -2.2853566e-06 0)
(0.090985751 2.2647668e-06 0)
(0.090370718 -2.1693131e-06 0)
(0.090946852 2.0987018e-06 0)
(0.090406725 -1.9483092e-06 0)
(0.090912518 1.8576709e-06 0)
(0.090438792 -1.7347225e-06 0)
(0.090882091 1.6405831e-06 0)
(0.090467388 -1.5387102e-06 0)
(0.090855049 1.450541e-06 0)
(0.090492868 -1.3633187e-06 0)
(0.090830984 1.2838386e-06 0)
(0.09051557 -1.2080447e-06 0)
(0.09080955 1.1376578e-06 0)
(0.090535806 -1.0715517e-06 0)
(0.090790435 1.0098175e-06 0)
(0.090553869 -9.5227982e-07 0)
(0.090773357 8.9854452e-07 0)
(0.090570029 -8.4868399e-07 0)
(0.090758054 8.0225269e-07 0)
(0.090584537 -7.5935953e-07 0)
(0.090744285 7.1958288e-07 0)
(0.090597623 -6.8302566e-07 0)
(0.090731829 6.493367e-07 0)
(0.090609502 -6.1858192e-07 0)
(0.09072048 5.9047622e-07 0)
(0.09062037 -5.6507009e-07 0)
(0.090710048 5.4214092e-07 0)
(0.09063041 -5.2163818e-07 0)
(0.090700357 5.0352459e-07 0)
(0.090639793 -4.8793885e-07 0)
(0.09069124 4.7267411e-07 0)
(0.090648693 -4.6517703e-07 0)
(0.090682572 4.5206687e-07 0)
(0.090657293 -4.1956253e-07 0)
(0.090674026 5.828171e-07 0)
(0.090664778 -3.5850104e-07 0)
(0.084268832 0.0092802813 0)
(0.090712601 -0.0012156541 0)
(0.095132435 0.00079106323 0)
(0.09177874 -7.4635575e-05 0)
(0.094825281 8.8382842e-05 0)
(0.093821051 -2.8355277e-05 0)
(0.095226931 2.8203554e-05 0)
(0.094046183 8.6289562e-06 0)
(0.095212067 2.9064454e-06 0)
(0.094127775 3.4688374e-06 0)
(0.095101752 9.1573058e-07 0)
(0.094225002 -1.3510836e-06 0)
(0.095027637 1.955255e-06 0)
(0.094285766 -2.279121e-06 0)
(0.094979076 2.2651942e-06 0)
(0.094330378 -2.1753033e-06 0)
(0.094938001 2.1081883e-06 0)
(0.094368438 -1.9545969e-06 0)
(0.094901736 1.865351e-06 0)
(0.094402323 -1.7406709e-06 0)
(0.094869604 1.6467032e-06 0)
(0.094432524 -1.5439539e-06 0)
(0.094841055 1.4555813e-06 0)
(0.094459421 -1.3678348e-06 0)
(0.094815659 1.2880595e-06 0)
(0.094483374 -1.2118969e-06 0)
(0.094793047 1.1412174e-06 0)
(0.094504718 -1.0748192e-06 0)
(0.094772888 1.0128191e-06 0)
(0.094523765 -9.5503898e-07 0)
(0.094754883 9.0106883e-07 0)
(0.0945408 -8.5099776e-07 0)
(0.094738753 8.0436174e-07 0)
(0.094556088 -7.6128717e-07 0)
(0.094724246 7.2133288e-07 0)
(0.094569875 -6.8461869e-07 0)
(0.094711125 6.5077705e-07 0)
(0.094582385 -6.1988832e-07 0)
(0.094699174 5.9165388e-07 0)
(0.094593828 -5.6613501e-07 0)
(0.094688193 5.4309969e-07 0)
(0.094604395 -5.2250129e-07 0)
(0.094677994 5.0430824e-07 0)
(0.094614268 -4.8864078e-07 0)
(0.094668403 4.732499e-07 0)
(0.094623626 -4.6595104e-07 0)
(0.094659283 4.5228776e-07 0)
(0.094632663 -4.1946015e-07 0)
(0.094650338 5.8819199e-07 0)
(0.094640754 -3.534338e-07 0)
(0.089150885 0.0091682385 0)
(0.093024619 -0.0012204352 0)
(0.098992832 0.0007860739 0)
(0.095428614 -7.2176665e-05 0)
(0.098668372 7.5838976e-05 0)
(0.097570324 -3.1221978e-05 0)
(0.099031973 2.7121502e-05 0)
(0.097831532 8.2566721e-06 0)
(0.099028695 2.8031741e-06 0)
(0.09790922 3.7602875e-06 0)
(0.098927293 6.4931109e-07 0)
(0.098007462 -1.2042189e-06 0)
(0.098849936 1.8742776e-06 0)
(0.098070983 -2.2568276e-06 0)
(0.098798822 2.2512903e-06 0)
(0.098117835 -2.16795e-06 0)
(0.098755653 2.1050777e-06 0)
(0.098157871 -1.9490534e-06 0)
(0.098717534 1.8618787e-06 0)
(0.098193505 -1.7361668e-06 0)
(0.098683763 1.6429857e-06 0)
(0.098225248 -1.5399639e-06 0)
(0.098653767 1.451939e-06 0)
(0.098253506 -1.3641919e-06 0)
(0.098627093 1.2846081e-06 0)
(0.098278662 -1.2085316e-06 0)
(0.09860335 1.137986e-06 0)
(0.09830107 -1.0716926e-06 0)
(0.098582189 1.0097979e-06 0)
(0.09832106 -9.5211856e-07 0)
(0.098563294 8.9823584e-07 0)
(0.098338934 -8.4825265e-07 0)
(0.098546372 8.0169002e-07 0)
(0.098354972 -7.5869015e-07 0)
(0.098531156 7.187958e-07 0)
(0.098369429 -6.8214335e-07 0)
(0.098517399 6.483521e-07 0)
(0.098382544 -6.1751304e-07 0)
(0.098504872 5.8931841e-07 0)
(0.098394536 -5.6384059e-07 0)
(0.098493365 5.40836e-07 0)
(0.098405607 -5.202645e-07 0)
(0.098482682 5.0210195e-07 0)
(0.098415947 -4.8644651e-07 0)
(0.098472639 4.710277e-07 0)
(0.098425743 -4.6396415e-07 0)
(0.098463087 4.4984296e-07 0)
(0.098435195 -4.169226e-07 0)
(0.098453762 5.8981778e-07 0)
(0.098443878 -3.4638147e-07 0)
(0.095254791 0.0093895047 0)
(0.095051956 -0.0013213021 0)
(0.1025926 0.00076134499 0)
(0.099016404 -7.1136132e-05 0)
(0.10234893 6.2804941e-05 0)
(0.10116011 -3.3845404e-05 0)
(0.1026658 2.5846083e-05 0)
(0.10144664 7.8271708e-06 0)
(0.10266966 2.7246377e-06 0)
(0.10152099 3.9918601e-06 0)
(0.1025784 3.8406686e-07 0)
(0.10161792 -1.0392886e-06 0)