/*--------------------------------*- C++ -*----------------------------------*\
| =========                 |                                                 |
| \\      /  F ield         | OpenFOAM: The Open Source CFD Toolbox           |
|  \\    /   O peration     | Version:  2312                                  |
|   \\  /    A nd           | Website:  www.openfoam.com                      |
|    \\/     M anipulation  |                                                 |
\*---------------------------------------------------------------------------*/
FoamFile
{
    version     2.0;
    format      ascii;
    arch        "LSB;label=32;scalar=64";
    class       volScalarField;
    location    "6";
    object      T;
}
// * * * * * * * * * * * * * * * * * * * * * * * * * * * * * * * * * * * * * //

dimensions      [0 0 0 1 0 0 0];

internalField   nonuniform List<scalar> 
4000
(
329.07579
327.96521
327.81304
327.73452
327.67987
327.62641
327.58577
327.54086
327.50528
327.46462
327.43156
327.39347
327.36186
327.32548
327.29479
327.25964
327.22957
327.19533
327.16569
327.13216
327.10284
327.06987
327.0408
327.00827
326.97941
326.94724
326.91855
326.88667
326.85812
326.82648
326.79806
326.76662
326.73831
326.70704
326.67884
326.64769
326.6196
326.58855
326.56057
326.52958
326.50172
326.47077
326.44304
326.4121
326.38451
326.35352
326.32614
326.29501
326.26802
326.23609
331.05206
329.0417
328.6467
328.4684
328.36153
328.25832
328.19341
328.11579
328.06607
328.00119
327.95901
327.90182
327.86401
327.81195
327.7769
327.72851
327.69531
327.64966
327.61778
327.57424
327.54333
327.50146
327.4713
327.43076
327.40121
327.36175
327.3327
327.29412
327.2655
327.22765
327.19941
327.16215
327.13426
327.09748
327.06993
327.03352
327.00629
326.97018
326.94328
326.90737
326.88082
326.84503
326.81886
326.78308
326.75736
326.72146
326.69634
326.65999
326.63605
326.59742
332.35187
330.09101
329.47495
329.19927
329.04084
328.88854
328.79942
328.68946
328.62554
328.53668
328.48533
328.40922
328.36514
328.29755
328.25807
328.19656
328.16017
328.10321
328.06902
328.01556
327.98301
327.93231
327.90101
327.85253
327.82224
327.77555
327.7461
327.70088
327.67215
327.62813
327.60004
327.557
327.5295
327.48725
327.46031
327.41869
327.3923
327.35115
327.32532
327.28451
327.25925
327.21863
327.19401
327.15342
327.12955
327.08874
327.06587
327.02434
327.0034
326.95833
333.25679
331.08677
330.2893
329.92258
329.71456
329.51474
329.40174
329.26024
329.18217
329.06986
329.00927
328.91463
328.86419
328.78137
328.73736
328.66298
328.62332
328.55523
328.51866
328.45544
328.42116
328.36177
328.32927
328.27296
328.24187
328.18806
328.15816
328.10637
328.07749
328.02737
327.9994
327.95064
327.92349
327.87583
327.84948
327.80268
327.7771
327.73097
327.70616
327.6605
327.6365
327.59111
327.568
327.52265
327.50058
327.45492
327.43426
327.3876
327.36959
327.31847
333.91356
332.00552
331.07867
330.63204
330.37823
330.13366
329.99765
329.82595
329.73397
329.59906
329.52928
329.41671
329.35987
329.26226
329.21366
329.12676
329.08374
329.00483
328.96578
328.89305
328.85696
328.7891
328.7553
328.69134
328.65939
328.5986
328.56818
328.50997
328.48087
328.42478
328.39685
328.34248
328.31564
328.26266
328.23683
328.18496
328.16013
328.1091
328.08527
328.03483
328.01205
327.96195
327.94031
327.89026
327.86996
327.81953
327.80101
327.74932
327.73408
327.67738
334.40448
332.82932
331.83079
331.32003
331.02646
330.74127
330.5838
330.38388
330.27853
330.12224
330.04345
329.9138
329.8506
329.73886
329.68564
329.58671
329.54027
329.45094
329.40936
329.32743
329.28947
329.2134
329.17825
329.10687
329.07399
329.00642
328.97542
328.91096
328.88158
328.81966
328.79173
328.73189
328.70528
328.64711
328.62177
328.56492
328.5408
328.48497
328.46207
328.40696
328.38534
328.33063
328.3104
328.25575
328.23714
328.18204
328.16557
328.10902
328.09634
328.03457
334.77974
333.54782
332.53376
331.97825
331.65315
331.33293
331.15635
330.93087
330.81309
330.63703
330.54964
330.40402
330.33464
330.20957
330.15178
330.04148
329.99162
329.89237
329.84821
329.75753
329.71764
329.63372
329.59715
329.51866
329.48477
329.41069
329.37904
329.30855
329.27884
329.2113
329.1833
329.11816
329.09174
329.02854
329.00361
328.94195
328.91847
328.85798
328.83595
328.77628
328.75576
328.69657
328.67768
328.61856
328.60156
328.54194
328.52741
328.46618
328.45582
328.38951
335.07115
334.15706
333.1774
332.59845
332.25196
331.90366
331.71116
331.46348
331.33461
331.14081
331.04547
330.88527
330.81003
330.67266
330.61046
330.48955
330.43634
330.32781
330.28109
330.18216
330.14032
330.04898
330.01096
329.92572
329.89079
329.8105
329.77816
329.70192
329.67182
329.59889
329.57078
329.50056
329.47427
329.40623
329.38167
329.31536
329.29246
329.22748
329.20626
329.1422
329.12271
329.0592
329.04157
328.97814
328.96265
328.89868
328.88595
328.82029
328.81196
328.74162
335.30074
334.65995
333.75422
333.17315
332.81669
332.44837
332.24395
331.97806
331.83991
331.6308
331.52843
331.3553
331.2747
331.12623
331.05991
330.92933
330.87292
330.75584
330.70665
330.60006
330.55632
330.45805
330.41859
330.32702
330.29104
330.20491
330.17186
330.09018
330.05966
329.98163
329.95336
329.8783
329.8521
329.77945
329.7552
329.68446
329.6621
329.59281
329.57234
329.50408
329.48554
329.41789
329.40144
329.33389
329.31981
329.25171
329.24061
329.17082
329.1642
329.09031
335.4838
335.06388
334.25999
333.69635
333.34174
332.96219
332.75051
332.47095
332.32576
332.10413
331.99594
331.81178
331.72652
331.56834
331.49831
331.35912
331.29977
331.17499
331.12347
331.00991
330.96436
330.85974
330.8189
330.72147
330.68448
330.59292
330.55916
330.47241
330.44146
330.35864
330.33019
330.25059
330.22445
330.14744
330.12347
330.04853
330.02665
329.95329
329.9335
329.86126
329.84361
329.77202
329.75666
329.68521
329.67242
329.60044
329.5908
329.5172
329.512
329.43499
335.63173
335.38012
334.69392
334.16398
333.82257
333.4408
333.22695
332.93868
332.78903
332.55798
332.44542
332.25236
332.16331
331.99698
331.9238
331.77719
331.71527
331.58372
331.53012
331.41037
331.36316
331.25282
331.2107
331.10797
331.07002
330.9735
330.93907
330.84765
330.81628
330.72904
330.70041
330.61659
330.59048
330.50942
330.48569
330.40683
330.38539
330.30821
330.28905
330.21307
330.19623
330.12097
330.10659
330.03151
330.01987
329.94429
329.93593
329.85886
329.85479
329.77506
335.75288
335.62175
335.05829
334.57419
334.25596
333.88069
333.66992
333.37807
333.22682
332.98966
332.87443
332.67475
332.58299
332.41019
332.33456
332.18183
332.11779
331.98051
331.92516
331.80005
331.75142
331.63606
331.59282
331.48538
331.44657
331.34561
331.31058
331.21493
331.1832
331.09192
331.06314
330.97545
330.94939
330.86459
330.84109
330.75861
330.73758
330.65687
330.63829
330.55884
330.54275
330.46407
330.4506
330.37215
330.36154
330.28268
330.27539
330.19524
330.19202
330.10993
335.85362
335.80263
335.35803
334.92735
334.64028
334.27938
334.07677
333.78646
333.63662
333.39676
333.2807
333.07684
332.98355
332.8061
332.72882
332.57137
332.50578
332.36388
332.30717
332.17762
332.12784
332.00824
331.96407
331.85257
331.81306
331.70821
331.67268
331.5733
331.54127
331.4464
331.41751
331.32634
331.30034
331.21217
331.1889
331.10312
331.08248
330.99855
330.9805
330.8979
330.88248
330.8007
330.78803
330.70653
330.69682
330.615
330.60861
330.52575
330.52314
330.43902
335.93872
335.93601
335.59989
335.22588
334.97549
334.63556
334.44575
334.16183
334.01637
333.77722
333.66229
333.45672
333.36321
333.18297
333.10495
332.94423
332.87775
332.73241
332.67481
332.54177
332.49121
332.36815
332.32333
332.20844
332.16844
332.06028
332.02441
331.92181
331.88959
331.79158
331.76265
331.66842
331.64252
331.55136
331.52834
331.43963
331.41936
331.33255
331.31501
331.22957
331.21477
331.13021
331.11825
331.03404
331.02509
330.94067
330.93501
330.84982
330.84763
330.76176
336.01174
336.03386
335.79177
335.47384
335.26311
334.94917
334.77603
334.50287
334.36463
334.12946
334.0176
333.81277
333.72042
333.53928
333.46149
333.29901
333.23234
333.08476
333.02681
332.89129
332.84034
332.71468
332.66951
332.55196
332.51169
332.40085
332.36481
332.25955
332.22726
332.12662
332.09773
332.00089
331.97516
331.88141
331.85866
331.7674
331.74752
331.65819
331.64113
331.55321
331.53898
331.45197
331.44064
331.35406
331.34576
331.25911
331.25401
331.16686
331.16495
331.07761
336.07536
336.10621
335.94191
335.67653
335.50596
335.22133
335.0678
334.80909
334.68058
334.45239
334.34548
334.14375
334.05393
333.87374
333.79721
333.63445
333.56837
333.41977
333.36206
333.22507
333.17419
333.04678
333.00161
332.88214
332.84187
332.72901
332.693
332.58565
332.55346
332.45068
332.42197
332.32297
332.29749
332.20159
332.17916
332.08575
332.06627
331.9748
331.95821
331.86817
331.85446
331.76539
331.75461
331.66603
331.65827
331.56976
331.56508
331.47634
331.47458
331.38602
336.13154
336.16108
336.05831
335.8399
335.70793
335.45419
335.32215
335.08077
334.96408
334.74551
334.64526
334.4488
334.36284
334.18538
334.11114
333.94955
333.88485
333.73644
333.67958
333.54214
333.49181
333.36352
333.31874
333.1981
333.15812
333.0439
333.00817
332.89931
332.8674
332.76302
332.73461
332.63395
332.60881
332.5112
332.48916
332.39401
332.37496
332.28175
332.26562
332.17386
332.16064
332.06987
332.05959
331.96938
331.96207
331.87206
331.8677
331.77772
331.77603
331.6865
336.1817
336.20448
336.14829
335.97016
335.87359
335.65075
335.54101
335.31896
335.21565
335.00887
334.91676
334.72751
334.64663
334.47355
334.40257
334.24354
334.181
334.03396
333.97857
333.84169
333.7924
333.6641
333.6201
333.49905
333.4597
333.34477
333.30957
333.19981
333.16837
333.06293
333.03498
332.93315
332.90846
332.80961
332.78803
332.69158
332.673
332.57845
332.56281
332.4697
332.45696
332.36488
332.35503
332.26359
332.25664
332.16552
332.16138
332.07049
332.06882
331.97858
336.22689
336.24065
336.21817
336.07329
336.00784
335.81461
335.72698
335.52534
335.43641
335.24308
335.1603
334.97989
334.90518
334.73793
334.67114
334.51595
334.45632
334.31175
334.25845
334.12308
334.07535
333.94788
333.90507
333.78436
333.74596
333.631
333.59659
333.48651
333.45577
333.34982
333.32249
333.21999
333.19588
333.09623
333.0752
332.97789
332.95983
332.86437
332.84923
332.75519
332.74291
332.6499
332.64046
332.54815
332.54151
332.44965
332.44566
332.3542
332.35252
332.26181
336.26786
336.27237
336.27318
336.1548
336.11563
335.94972
335.88314
335.70217
335.62804
335.44926
335.37665
335.20639
335.13872
334.97857
334.91676
334.76656
334.71054
334.56947
334.51884
334.3859
334.3402
334.21437
334.17316
334.0535
334.01639
333.90204
333.8687
333.7589
333.72908
333.62314
333.59661
333.49394
333.47054
333.37058
333.35019
333.25245
333.23498
333.13903
333.12441
333.02984
333.01802
332.92449
332.91543
332.82263
332.81625
332.724
332.72013
332.62841
332.6267
332.53579
336.30518
336.30133
336.31741
336.21951
336.20167
336.06013
336.01286
335.85207
335.79261
335.62897
335.567
335.40783
335.34787
335.19584
335.13968
334.99546
334.94365
334.80699
334.75958
334.62989
334.5867
334.46326
334.42404
334.30612
334.27063
334.15751
334.12552
334.01657
333.98788
333.88249
333.85694
333.75458
333.73204
333.63221
333.61258
333.51485
333.49803
333.402
333.38795
333.29325
333.2819
333.18823
333.17953
333.08663
333.08048
332.98819
332.98441
332.89274
332.89101
332.80015
336.33928
336.32847
336.35396
336.27143
336.27023
336.14979
336.11964
335.97791
335.93253
335.78409
335.73291
335.5854
335.53358
335.39044
335.34045
335.203
335.15593
335.02446
334.98074
334.85505
334.81478
334.69442
334.65756
334.54201
334.50845
334.39716
334.36677
334.25921
334.23187
334.12754
334.10315
334.00158
333.98003
333.8808
333.86202
333.76472
333.74864
333.65293
333.6395
333.54506
333.53421
333.44077
333.43245
333.33979
333.33387
333.24188
333.23818
333.14685
333.14511
333.05457
336.37048
336.35419
336.38505
336.31379
336.32503
336.22236
336.20687
336.08268
336.05038
335.91676
335.87618
335.74056
335.69707
335.56333
335.51985
335.3898
335.34786
335.22224
335.1826
335.06154
335.02457
334.9079
334.87372
334.76112
334.72978
334.62086
334.59232
334.48667
334.46089
334.3581
334.33503
334.23472
334.2143
334.11608
334.09826
334.00182
333.98655
333.89157
333.8788
333.785
333.77468
333.68184
333.67389
333.58183
333.57615
333.48477
333.48117
333.39046
333.38873
333.29876
336.39907
336.37863
336.41223
336.34909
336.36919
336.28112
336.27779
336.16931
336.1488
336.02927
335.99882
335.87501
335.83981
335.71571
335.67892
335.55671
335.52017
335.4009
335.36564
335.24975
335.21636
335.10391
335.0727
334.96357
334.93469
334.82863
334.80218
334.6989
334.67488
334.57407
334.55249
334.45385
334.4347
334.33792
334.32116
334.22596
334.21158
334.1177
334.10565
334.01286
334.0031
333.91121
333.90366
333.81253
333.80709
333.71663
333.71314
333.62334
333.62164
333.53251
336.42527
336.4018
336.43648
336.37918
336.40523
336.32892
336.3353
336.24058
336.23041
336.12397
336.10292
335.99056
335.9634
335.84898
335.8189
335.70475
335.67376
335.56119
335.53053
335.42021
335.39064
335.28285
335.25483
335.1496
335.12342
335.02065
334.99646
334.89598
334.87389
334.77548
334.75554
334.65897
334.64119
334.54623
334.53064
334.43705
334.42363
334.33121
334.31994
334.2285
334.21934
334.12873
334.12162
334.03172
334.02655
333.9373
333.93395
333.84531
333.84366
333.75563
336.44928
336.42363
336.45844
336.40537
336.43512
336.36811
336.38197
336.29906
336.29769
336.20315
336.19063
336.08914
336.0696
335.96466
335.94114
335.83512
335.8097
335.70405
335.67809
335.57364
335.54804
335.44525
335.42059
335.31963
335.29629
335.1972
335.17544
335.07813
335.0581
334.96246
334.94427
334.85014
334.83386
334.74106
334.72672
334.63509
334.6227
334.53207
334.52163
334.43187
334.42335
334.33433
334.32767
334.2393
334.23443
334.14667
334.14347
334.05627
334.05468
333.968
336.47127
336.44407
336.47849
336.42858
336.46036
336.40061
336.42
336.34702
336.35293
336.269
336.26403
336.17264
336.16015
336.06436
336.04711
335.94914
335.92918
335.83052
335.80927
335.71088
335.68932
335.59177
335.57058
335.47418
335.45381
335.35869
335.33947
335.24565
335.22781
335.13525
335.11892
335.02755
335.01284
334.92253
334.90951
334.82015
334.80886
334.72033
334.71077
334.62297
334.61514
334.52798
334.52183
334.43525
334.43071
334.34468
334.34168
334.25614
334.25464
334.16955
336.4914
336.4631
336.49685
336.44942
336.48203
336.42791
336.45118
336.38645
336.39818
336.32355
336.32509
336.24296
336.23685
336.14969
336.13834
336.04816
336.03347
335.94175
335.92513
335.83288
335.81535
335.7232
335.70552
335.61387
335.59655
335.50564
335.48904
335.39898
335.38339
335.29419
335.2798
335.19145
335.1784
335.09085
335.07922
334.9924
334.98226
334.8961
334.88747
334.8019
334.79478
334.70976
334.70413
334.6196
334.61542
334.53136
334.52857
334.44493
334.44353
334.36025
336.5098
336.4807
336.51366
336.46828
336.5009
336.45117
336.47697
336.419
336.43524
336.36865
336.37565
336.30185
336.30139
336.22227
336.21633
336.13361
336.12389
336.03896
336.02681
335.94065
335.9271
335.84041
335.82621
335.73946
335.72518
335.63866
335.62473
335.53861
335.52533
335.43971
335.4273
335.34222
335.33086
335.24631
335.23611
335.15208
335.14312
335.05957
335.05191
334.96881
334.96245
334.87978
334.87471
334.79244
334.78865
334.70677
334.70423
334.62268
334.6214
334.54016
336.52659
336.49691
336.52898
336.48539
336.51752
336.47122
336.49852
336.44605
336.46564
336.4059
336.41736
336.35096
336.35539
336.28365
336.28258
336.2069
336.20179
336.12339
336.11547
336.0353
336.02557
335.94433
335.93354
335.85174
335.84048
335.75845
335.74717
335.66514
335.65418
335.5723
335.56191
335.48027
335.47064
335.38928
335.38055
335.2995
335.29176
335.21102
335.20435
335.12392
335.11834
335.03822
335.03374
334.95393
334.95056
334.87104
334.86877
334.78951
334.78836
334.70934
336.54186
336.51173
336.54287
336.50092
336.53223
336.4887
336.5167
336.46869
336.49065
336.4367
336.4517
336.39179
336.40036
336.33529
336.33852
336.26938
336.26846
336.19627
336.1923
336.11793
336.11182
336.03594
336.02844
335.95157
335.94325
335.86575
335.85709
335.77924
335.77057
335.69255
335.68416
335.60611
335.5982
335.5202
335.51293
335.43503
335.42852
335.35077
335.3451
335.26752
335.26273
335.18534
335.18147
335.10429
335.10135
335.02437
335.02237
334.94558
334.94457
334.86793
336.55568
336.52521
336.55537
336.51496
336.54529
336.50403
336.53217
336.48779
336.51131
336.46222
336.47993
336.42567
336.43763
336.37856
336.38549
336.32236
336.32519
336.25883
336.25847
336.18964
336.18692
336.11625
336.11186
336.03984
336.03435
335.96138
335.95523
335.88159
335.87517
335.80108
335.79466
335.72028
335.71408
335.63954
335.63374
335.55911
335.55384
335.47919
335.47454
335.39993
335.39596
335.32143
335.31818
335.24376
335.24127
335.16697
335.16527
335.09108
335.09022
335.01612
336.56812
336.53736
336.56651
336.52757
336.55685
336.51754
336.54541
336.50402
336.52846
336.48343
336.50313
336.45373
336.46843
336.41467
336.42473
336.36707
336.37317
336.31223
336.31512
336.25154
336.25192
336.18625
336.18477
336.11748
336.11465
336.04613
336.04241
335.97296
335.96869
335.89856
335.89404
335.82339
335.81886
335.74785
335.74348
335.67222
335.66816
335.59673
335.59308
335.52156
335.51839
335.44684
335.44422
335.37268
335.37065
335.29914
335.29774
335.22627
335.22556
335.15414
336.57919
336.54822
336.57632
336.5388
336.56702
336.52943
336.55679
336.51789
336.54275
336.50113
336.52221
336.47699
336.4938
336.44471
336.45736
336.40462
336.41354
336.35759
336.36334
336.30467
336.30785
336.24694
336.24811
336.18539
336.18504
336.12087
336.11941
336.0541
336.05188
335.98567
335.98298
335.91607
335.91314
335.8457
335.84272
335.77487
335.77199
335.70384
335.70117
335.63281
335.63045
335.56195
335.55995
335.49137
335.4898
335.42118
335.42009
335.35144
335.35088
335.28223
336.58887
336.55777
336.58482
336.54869
336.57587
336.53986
336.56655
336.52978
336.5547
336.51595
336.53791
336.49626
336.51465
336.46966
336.48437
336.43604
336.44731
336.39591
336.40413
336.35002
336.35568
336.29926
336.30283
336.24447
336.24638
336.18641
336.18705
336.12577
336.12547
336.06313
336.06216
335.99896
335.99756
335.93368
335.93203
335.86761
335.86587
335.80103
335.79932
335.73416
335.73257
335.66718
335.6658
335.60024
335.59913
335.53346
335.53267
335.46691
335.4665
335.4007
336.59712
336.56603
336.59205
336.55729
336.58349
336.54896
336.57491
336.53999
336.5647
336.5284
336.55084
336.51224
336.53175
336.49032
336.50663
336.46223
336.47541
336.42813
336.43845
336.38854
336.39635
336.34412
336.34981
336.29557
336.29952
336.24358
336.24613
336.18876
336.19022
336.13165
336.13228
336.07273
336.07276
336.0124
336.01202
335.951
335.95035
335.88881
335.88802
335.82608
335.82524
335.76298
335.76219
335.6997
335.69902
335.63635
335.63585
335.57304
335.57277
335.50988
336.60389
336.57298
336.59805
336.56464
336.58993
336.55682
336.58199
336.54874
336.57306
336.53887
336.56147
336.52551
336.54573
336.50742
336.52491
336.48397
336.49867
336.4551
336.46714
336.42107
336.4307
336.38236
336.38989
336.33953
336.34528
336.29316
336.29742
336.24379
336.24685
336.19194
336.19404
336.13804
336.13939
336.0825
336.08328
336.02563
336.02599
335.96774
335.96781
335.90907
335.90895
335.84982
335.8496
335.79017
335.78992
335.73025
335.73004
335.6702
335.67008
335.61012
336.60911
336.57866
336.60286
336.57081
336.59526
336.56354
336.58793
336.55621
336.58002
336.54768
336.57021
336.53653
336.55715
336.52153
336.53984
336.50197
336.51782
336.47756
336.49098
336.44839
336.45953
336.41477
336.42386
336.37711
336.38441
336.3359
336.34167
336.2916
336.29608
336.24468
336.2481
336.19554
336.19809
336.14457
336.14642
336.09208
336.09338
336.03836
336.03923
335.98366
335.9842
335.92818
335.92849
335.87211
335.87227
335.81561
335.81566
335.75879
335.7588
335.70179
336.61278
336.5831
336.60655
336.57588
336.59955
336.56918
336.59283
336.56254
336.58576
336.55509
336.57735
336.54567
336.56642
336.53317
336.55198
336.5168
336.53347
336.49617
336.51064
336.47121
336.48355
336.44206
336.45244
336.40903
336.41765
336.3725
336.37957
336.33287
336.3386
336.29054
336.29512
336.24587
336.24949
336.19923
336.20205
336.15091
336.15306
336.1012
336.10281
336.05035
336.05151
335.99855
335.99935
335.94599
335.94652
335.89284
335.89315
335.83923
335.83937
335.78528
336.61497
336.58638
336.60921
336.57992
336.60289
336.57385
336.59677
336.56784
336.59045
336.56127
336.58315
336.55323
336.5739
336.54272
336.56178
336.52897
336.54616
336.51149
336.52672
336.49012
336.50339
336.46487
336.47628
336.43595
336.44564
336.40363
336.41178
336.36825
336.37503
336.33014
336.33573
336.28964
336.2942
336.24706
336.25073
336.2027
336.20562
336.15682
336.15909
336.10966
336.11138
336.06141
336.06267
336.01227
336.01314
335.9624
335.96294
335.91193
335.91218
335.861
336.61586
336.58863
336.61095
336.58304
336.60537
336.57763
336.59987
336.57222
336.5942
336.5664
336.5878
336.55945
336.57988
336.55052
336.5696
336.53888
336.55635
336.52401
336.53973
336.50566
336.5196
336.48378
336.49596
336.45845
336.46899
336.42988
336.43891
336.39832
336.40599
336.36407
336.37052
336.32742
336.33278
336.28863
336.29305
336.24799
336.25157
336.20574
336.20859
336.16209
336.16431
336.11726
336.11892
336.07142
336.07259
336.02472
336.02547
335.97732
335.97768
335.92934
336.61573
336.59001
336.61189
336.58534
336.60707
336.5806
336.60219
336.57578
336.59711
336.5706
336.59146
336.56452
336.58458
336.55683
336.57576
336.54687
336.56441
336.53413
336.55011
336.51831
336.53266
336.49927
336.51201
336.47706
336.48824
336.45179
336.46151
336.42366
336.43203
336.3929
336.40004
336.35976
336.36579
336.32448
336.32952
336.28731
336.29146
336.24846
336.25182
336.20815
336.2108
336.16657
336.16859
336.12389
336.12534
336.08026
336.08119
336.03583
336.03628
335.99072
336.61486
336.59069
336.61216
336.58693
336.6081
336.58287
336.60382
336.57861
336.5993
336.57399
336.59425
336.5686
336.58819
336.56187
336.5805
336.55323
336.57065
336.54219
336.55823
336.52843
336.54301
336.5118
336.52488
336.49225
336.50386
336.46985
336.48007
336.44475
336.45366
336.41712
336.42481
336.38717
336.39374
336.35511
336.36066
336.32114
336.32577
336.28548
336.28926
336.24831
336.25133
336.20981
336.21213
336.17014
336.17182
336.12945
336.13054
336.08788
336.08841
336.04555
336.61355
336.59085
336.6119
336.58794
336.60856
336.58451
336.60485
336.58077
336.60082
336.57664
336.59628
336.5718
336.59084
336.56581
336.584
336.55817
336.57531
336.54846
336.56438
336.53637
336.55097
336.52171
336.53495
336.50441
336.51629
336.4845
336.49504
336.46205
336.47133
336.4372
336.4453
336.41012
336.41711
336.38098
336.38694
336.34997
336.35498
336.31726
336.32139
336.28302
336.28634
336.24742
336.24999
336.2106
336.21248
336.17271
336.17394
336.13388
336.13448
336.09422
336.61202
336.59063
336.61123
336.58846
336.60854
336.58561
336.60536
336.58236
336.60177
336.57864
336.59763
336.57422
336.59264
336.56876
336.58642
336.56186
336.57859
336.55316
336.56881
336.54239
336.55685
336.52933
336.54256
336.51391
336.52587
336.4961
336.50682
336.47595
336.48547
336.45355
336.46192
336.42904
336.43632
336.40254
336.4088
336.37422
336.37952
336.34423
336.34863
336.31272
336.31628
336.27983
336.2826
336.2457
336.24774
336.21046
336.2118
336.17424
336.1749
336.13714
336.61041
336.59015
336.61025
336.58858
336.60811
336.58626
336.60541
336.58343
336.60219
336.58004
336.59836
336.57592
336.59368
336.57082
336.58788
336.56443
336.58065
336.55647
336.57172
336.54669
336.56088
336.53491
336.54798
336.52103
336.53294
336.50499
336.51574
336.48681
336.49643
336.46655
336.47507
336.44431
336.45177
336.42019
336.42665
336.39431
336.39981
336.36681
336.37141
336.33781
336.34155
336.30744
336.31038
336.27583
336.278
336.2431
336.24452
336.20935
336.21005
336.17469
336.60878
336.58951
336.60904
336.5884
336.60737
336.58651
336.60507
336.58404
336.60215
336.58089
336.59851
336.57696
336.594
336.57205
336.58843
336.56597
336.58159
336.55851
336.57326
336.54946
336.56326
336.53867
336.55145
336.52601
336.53774
336.51144
336.5221
336.49493
336.50454
336.47653
336.48509
336.45628
336.46383
336.43427
336.44084
336.4106
336.41623
336.38537
336.3901
336.35868
336.36255
336.33065
336.3337
336.30139
336.30364
336.27101
336.27249
336.23959
336.24032
336.20724
336.60717
336.58876
336.60768
336.58797
336.60636
336.58644
336.60438
336.58423
336.60167
336.58123
336.59812
336.57735
336.59364
336.5725
336.58814
336.56655
336.58149
336.55938
336.57354
336.55083
336.56413
336.54076
336.55316
336.52907
336.54052
336.51569
336.52616
336.50059
336.51008
336.48378
336.49228
336.46527
336.47281
336.44513
336.45173
336.42343
336.42912
336.40026
336.40505
336.37568
336.37963
336.34981
336.35292
336.32273
336.32504
336.29454
336.29606
336.26532
336.26607
336.23515
336.60556
336.58793
336.60621
336.58734
336.60515
336.58608
336.6034
336.58404
336.60078
336.58108
336.59719
336.57713
336.59261
336.57218
336.58703
336.5662
336.5804
336.55914
336.57263
336.55088
336.56361
336.54132
336.55324
336.53037
336.54144
336.51795
336.52813
336.50401
336.51329
336.48854
336.49691
336.47155
336.479
336.45306
336.45962
336.43312
336.4388
336.4118
336.41661
336.38915
336.39312
336.36526
336.3684
336.34019
336.34253
336.31404
336.31558
336.28687
336.28764
336.25876
336.60395
336.58704
336.60465
336.58657
336.60378
336.58548
336.60214
336.58349
336.59948
336.58042
336.59573
336.57626
336.59091
336.57108
336.58511
336.56494
336.57835
336.55782
336.57059
336.54969
336.56178
336.54045
336.55183
336.53004
336.54066
336.51837
336.52819
336.50539
336.51438
336.49105
336.4992
336.47536
336.48266
336.45832
336.46477
336.43994
336.44555
336.42028
336.42506
336.39938
336.40333
336.3773
336.38044
336.3541
336.35643
336.32983
336.33138
336.30458
336.30535
336.27839
336.60231
336.58609
336.60303
336.58567
336.60225
336.58464
336.60062
336.58257
336.59778
336.57925
336.5937
336.57474
336.58851
336.5692
336.58236
336.56275
336.57533
336.55545
336.56746
336.54729
336.55871
336.53823
336.54901
336.52819
336.5383
336.51709
336.52649
336.50488
336.51353
336.4915
336.49937
336.47692
336.48401
336.46114
336.46743
336.44415
336.44964
336.42598
336.43067
336.40666
336.41055
336.38623
336.38933
336.36473
336.36705
336.34222
336.34376
336.31875
336.31951
336.29436
336.60063
336.58508
336.60136
336.58465
336.6006
336.58358
336.59882
336.58126
336.59564
336.57753
336.59108
336.57252
336.58537
336.56649
336.57874
336.55962
336.57134
336.55202
336.56323
336.54372
336.55442
336.53471
336.54485
336.5249
336.53445
336.51423
336.52315
336.50263
336.51089
336.49004
336.4976
336.47642
336.48325
336.46173
336.46782
336.44597
336.4513
336.42913
336.4337
336.41124
336.41505
336.39231
336.39535
336.37238
336.37465
336.35148
336.353
336.32966
336.33042
336.30696
336.5989
336.58401
336.59963
336.58352
336.5988
336.58228
336.59672
336.57953
336.593
336.5752
336.5878
336.56955
336.58144
336.5629
336.57422
336.5555
336.56634
336.54752
336.55791
336.53899
336.54894
336.52991
336.53939
336.52023
336.5292
336.50988
336.51829
336.49876
336.50659
336.48683
336.49403
336.47402
336.48055
336.46029
336.46613
336.4456
336.45075
336.42996
336.43438
336.41335
336.41704
336.39578
336.39874
336.37729
336.37951
336.35788
336.35936
336.33759
336.33833
336.31646
336.59711
336.58289
336.59785
336.58228
336.59685
336.58071
336.59427
336.57732
336.58981
336.5722
336.58379
336.56574
336.57664
336.55837
336.56874
336.55037
336.56032
336.54192
336.55149
336.53309
336.54229
336.52388
336.53268
336.51424
336.52261
336.5041
336.51199
336.49337
336.50075
336.48198
336.48879
336.46987
336.47608
336.45696
336.46254
336.44323
336.44816
336.42865
336.4329
336.4132
336.41676
336.39688
336.39974
336.37969
336.38184
336.36166
336.36309
336.34279
336.3435
336.32311
336.59524
336.5817
336.59601
336.58091
336.59471
336.5788
336.59139
336.57453
336.58597
336.56842
336.57895
336.56103
336.57091
336.55283
336.56224
336.54415
336.55321
336.53519
336.54394
336.52601
336.53446
336.51662
336.52475
336.50696
336.51473
336.49697
336.50433
336.48654
336.49345
336.47561
336.48202
336.46409
336.46996
336.45191
336.45721
336.43903
336.44372
336.4254
336.42946
336.41099
336.41441
336.3958
336.39855
336.37982
336.38188
336.36304
336.36442
336.34548
336.34617
336.32716
336.59328
336.58044
336.59409
336.57936
336.5923
336.57646
336.58798
336.57107
336.58136
336.56377
336.57319
336.55531
336.56415
336.54621
336.55466
336.53681
336.54498
336.5273
336.53524
336.51775
336.52546
336.50815
336.5156
336.49843
336.5056
336.48853
336.49536
336.47835
336.48479
336.4678
336.47381
336.4568
336.46232
336.44526
336.45026
336.43313
336.43758
336.42036
336.42422
336.4069
336.41015
336.39274
336.39536
336.37785
336.37983
336.36224
336.36356
336.34589
336.34656
336.32883
336.59122
336.57912
336.59207
336.57759
336.58954
336.5736
336.58392
336.56679
336.57586
336.55813
336.5664
336.54848
336.55627
336.53843
336.54592
336.52829
336.53559
336.51823
336.52538
336.50829
336.51528
336.49847
336.50527
336.48868
336.49525
336.47885
336.48514
336.46887
336.47484
336.45866
336.46425
336.44811
336.45327
336.43714
336.44184
336.42569
336.42987
336.41368
336.41733
336.40109
336.40417
336.38787
336.39036
336.37399
336.37587
336.35944
336.36071
336.34422
336.34486
336.32832
336.58904
336.57774
336.5899
336.5755
336.5863
336.57006
336.57904
336.56155
336.56932
336.55135
336.55845
336.54045
336.54719
336.52941
336.53598
336.51854
336.525
336.50794
336.51432
336.49763
336.50393
336.48759
336.49376
336.47773
336.48373
336.46795
336.47374
336.45816
336.46367
336.44824
336.45343
336.4381
336.44291
336.42765
336.43204
336.41681
336.42074
336.40551
336.40895
336.3937
336.39661
336.38134
336.3837
336.36839
336.37018
336.35484
336.35604
336.34066
336.34126
336.32585
336.58673
336.5763
336.58752
336.57299
336.58244
336.56566
336.57316
336.55518
336.5616
336.54331
336.54922
336.53111
336.53682
336.5191
336.52475
336.50751
336.51316
336.4964
336.50206
336.48577
336.4914
336.47554
336.48111
336.46562
336.47108
336.4559
336.46119
336.44628
336.45135
336.43663
336.44143
336.42687
336.43134
336.41689
336.42099
336.40662
336.41029
336.39596
336.39919
336.38488
336.38761
336.37331
336.37553