/*--------------------------------*- C++ -*----------------------------------*\
| =========                 |                                                 |
| \\      /  F ield         | OpenFOAM: The Open Source CFD Toolbox           |
|  \\    /   O peration     | Version:  2312                                  |
|   \\  /    A nd           | Website:  www.openfoam.com                      |
|    \\/     M anipulation  |                                                 |
\*---------------------------------------------------------------------------*/
FoamFile
{
    version     2.0;
    format      ascii;
    arch        "LSB;label=32;scalar=64";
    class       volVectorField;
    location    "6";
    object      U_0;
}
// * * * * * * * * * * * * * * * * * * * * * * * * * * * * * * * * * * * * * //

dimensions      [0 1 -1 0 0 0 0];

internalField   nonuniform List<vector> 
4000
(
(0.002314034 0.00042290191 0)
(0.0030384081 -6.2384834e-06 0)
(0.0024289259 -3.6724654e-07 0)
(0.0025689586 2.2183378e-07 0)
(0.0024867308 -2.6066696e-07 0)
(0.0025432506 2.3496729e-07 0)
(0.0024909232 -2.2179769e-07 0)
(0.002538409 2.0825335e-07 0)
(0.0024941876 -1.9548104e-07 0)
(0.0025355217 1.8388478e-07 0)
(0.0024967142 -1.7306718e-07 0)
(0.002533124 1.6284892e-07 0)
(0.0024989148 -1.5332415e-07 0)
(0.0025310318 1.4434146e-07 0)
(0.0025008684 -1.3592704e-07 0)
(0.0025291842 1.2801896e-07 0)
(0.0025026035 -1.205968e-07 0)
(0.0025275469 1.1363417e-07 0)
(0.0025041443 -1.0709646e-07 0)
(0.0025260934 1.0097081e-07 0)
(0.0025055135 -9.5220257e-08 0)
(0.0025248012 8.9837935e-08 0)
(0.0025067317 -8.4788228e-08 0)
(0.0025236506 8.0067478e-08 0)
(0.0025078172 -7.5642581e-08 0)
(0.0025226243 7.1511829e-08 0)
(0.0025087865 -6.764498e-08 0)
(0.0025217067 6.4041575e-08 0)
(0.0025096542 -6.0674319e-08 0)
(0.002520884 5.7543549e-08 0)
(0.0025104335 -5.4624885e-08 0)
(0.0025201438 5.1919146e-08 0)
(0.0025111361 -4.9404794e-08 0)
(0.0025194748 4.7082896e-08 0)
(0.0025117727 -4.4934663e-08 0)
(0.0025188669 4.2961239e-08 0)
(0.002512353 -4.1146482e-08 0)
(0.002518311 3.9491495e-08 0)
(0.0025128858 -3.7982688e-08 0)
(0.0025177985 3.6621044e-08 0)
(0.0025133791 -3.5395448e-08 0)
(0.0025173217 3.4306778e-08 0)
(0.0025138405 -3.3346287e-08 0)
(0.0025168734 3.2514853e-08 0)
(0.0025142766 -3.1807705e-08 0)
(0.0025164462 3.1218328e-08 0)
(0.0025146942 -3.0770958e-08 0)
(0.0025160462 3.0430916e-08 0)
(0.0025151751 -2.9970182e-08 0)
(0.0025159521 3.2062743e-08 0)
(0.0061953619 0.0011493125 0)
(0.0085504511 -1.0973444e-06 0)
(0.0071248552 4.8574424e-06 0)
(0.007444625 3.1963551e-07 0)
(0.0072183416 -6.0448594e-07 0)
(0.0073831187 8.1557676e-07 0)
(0.0072294742 -7.5497142e-07 0)
(0.0073698119 7.2653707e-07 0)
(0.0072391332 -6.8640593e-07 0)
(0.0073614399 6.4828126e-07 0)
(0.0072466088 -6.0987408e-07 0)
(0.0073543678 5.7475891e-07 0)
(0.0072531278 -5.4078981e-07 0)
(0.0073481784 5.0936322e-07 0)
(0.0072589181 -4.7955018e-07 0)
(0.0073427093 4.5171776e-07 0)
(0.0072640612 -4.2550233e-07 0)
(0.0073378615 4.0094963e-07 0)
(0.0072686292 -3.7788439e-07 0)
(0.007333557 3.5627004e-07 0)
(0.0072726892 -3.3599049e-07 0)
(0.0073297293 3.1699604e-07 0)
(0.007276302 -2.9919156e-07 0)
(0.0073263204 2.8253191e-07 0)
(0.0072795224 -2.6693247e-07 0)
(0.0073232787 2.523559e-07 0)
(0.0072823988 -2.3872541e-07 0)
(0.0073205581 2.2601097e-07 0)
(0.007284975 -2.1414299e-07 0)
(0.0073181176 2.0309753e-07 0)
(0.0072872898 -1.9281202e-07 0)
(0.0073159202 1.8326744e-07 0)
(0.0072893784 -1.7440811e-07 0)
(0.0073139327 1.6621891e-07 0)
(0.0072912725 -1.586509e-07 0)
(0.007312125 1.516921e-07 0)
(0.0072930008 -1.453001e-07 0)
(0.0073104696 1.3946538e-07 0)
(0.0072945896 -1.3415192e-07 0)
(0.0073089414 1.2935215e-07 0)
(0.0072960629 -1.2503634e-07 0)
(0.0073075173 1.2119825e-07 0)
(0.0072974433 -1.1781415e-07 0)
(0.0073061754 1.1488379e-07 0)
(0.0072987512 -1.1236834e-07 0)
(0.0073048931 1.1031516e-07 0)
(0.0073000043 -1.087754e-07 0)
(0.0073036692 1.0653982e-07 0)
(0.0073013733 -1.1054834e-07 0)
(0.0073032036 1.023104e-07 0)
(0.010105618 0.0018705396 0)
(0.013790242 -4.9552293e-06 0)
(0.011699437 1.2312245e-05 0)
(0.012195315 4.8692225e-07 0)
(0.011824107 -9.326938e-07 0)
(0.012101243 1.4763662e-06 0)
(0.011843568 -1.3590212e-06 0)
(0.012079853 1.3154888e-06 0)
(0.011859945 -1.2471823e-06 0)
(0.012065899 1.1789358e-06 0)
(0.011872538 -1.1090579e-06 0)
(0.012054012 1.0456691e-06 0)
(0.011883523 -9.8368102e-07 0)
(0.012043592 9.2663195e-07 0)
(0.01189328 -8.7235148e-07 0)
(0.012034381 8.217269e-07 0)
(0.011901947 -7.7404546e-07 0)
(0.012026216 7.2935876e-07 0)
(0.011909645 -6.8741979e-07 0)
(0.012018964 6.4807479e-07 0)
(0.011916487 -6.1120289e-07 0)
(0.012012516 5.7662661e-07 0)
(0.011922576 -5.4425398e-07 0)
(0.012006773 5.1392879e-07 0)
(0.011928004 -4.855641e-07 0)
(0.012001647 4.5903167e-07 0)
(0.011932853 -4.342458e-07 0)
(0.011997062 4.1110348e-07 0)
(0.011937197 -3.8952131e-07 0)
(0.011992948 3.6941704e-07 0)
(0.011941101 -3.5071137e-07 0)
(0.011989243 3.3333873e-07 0)
(0.011944624 -3.1722544e-07 0)
(0.011985891 3.0231917e-07 0)
(0.01194782 -2.8855306e-07 0)
(0.01198284 2.7588525e-07 0)
(0.011950738 -2.6425645e-07 0)
(0.011980046 2.5363312e-07 0)
(0.011953421 -2.4396404e-07 0)
(0.011977464 2.3522215e-07 0)
(0.011955912 -2.2736498e-07 0)
(0.011975057 2.2036972e-07 0)
(0.011958247 -2.1420292e-07 0)
(0.011972787 2.0885512e-07 0)
(0.011960461 -2.0424867e-07 0)
(0.011970615 2.0051769e-07 0)
(0.011962585 -1.9763349e-07 0)
(0.011968527 1.9320381e-07 0)
(0.011964857 -2.0330006e-07 0)
(0.011967579 1.8482079e-07 0)
(0.01374795 0.002467968 0)
(0.018812417 -2.3249647e-05 0)
(0.016155838 2.2687531e-05 0)
(0.016820658 5.1398756e-07 0)
(0.016303979 -1.0729554e-06 0)
(0.016697861 2.0970777e-06 0)
(0.016333019 -1.9281955e-06 0)
(0.016668752 1.875354e-06 0)
(0.016356448 -1.7860404e-06 0)
(0.016649103 1.6895918e-06 0)
(0.016374346 -1.589491e-06 0)
(0.016632235 1.4993155e-06 0)
(0.01638996 -1.4101754e-06 0)
(0.016617432 1.3285427e-06 0)
(0.016403829 -1.2506713e-06 0)
(0.016604343 1.1780822e-06 0)
(0.016416148 -1.1097509e-06 0)
(0.016592738 1.0456357e-06 0)
(0.016427089 -9.8555235e-07 0)
(0.016582432 9.2909301e-07 0)
(0.016436814 -8.7627141e-07 0)
(0.016573266 8.2665544e-07 0)
(0.01644547 -7.8027786e-07 0)
(0.016565102 7.3676423e-07 0)
(0.016453185 -6.9612631e-07 0)
(0.016557817 6.5805695e-07 0)
(0.016460078 -6.2254437e-07 0)
(0.016551299 5.8934071e-07 0)
(0.016466253 -5.5841648e-07 0)
(0.016545451 5.2957256e-07 0)
(0.016471803 -5.027683e-07 0)
(0.016540184 4.7784374e-07 0)
(0.016476812 -4.5475266e-07 0)
(0.016535417 4.3336634e-07 0)
(0.016481357 -4.1363726e-07 0)
(0.01653108 3.9546166e-07 0)
(0.016485506 -3.7879396e-07 0)
(0.016527105 3.6355026e-07 0)
(0.016489323 -3.4968932e-07 0)
(0.016523433 3.3714298e-07 0)
(0.016492866 -3.2587665e-07 0)
(0.016520008 3.1583294e-07 0)
(0.016496189 -3.0698604e-07 0)
(0.016516776 2.9930307e-07 0)
(0.016499342 -2.9266971e-07 0)
(0.016513684 2.8734381e-07 0)
(0.016502367 -2.8311972e-07 0)
(0.016510696 2.7626735e-07 0)
(0.016505555 -2.9494579e-07 0)
(0.016509152 2.6395557e-07 0)
(0.01766597 0.0031423594 0)
(0.023614189 -2.9111315e-05 0)
(0.020485597 3.5345555e-05 0)
(0.021320245 3.0917932e-07 0)
(0.020657923 -1.039676e-06 0)
(0.02117288 2.6439222e-06 0)
(0.020697945 -2.4411163e-06 0)
(0.021136387 2.3818085e-06 0)
(0.020728739 -2.2811846e-06 0)
(0.021110939 2.1592343e-06 0)
(0.020752118 -2.0314402e-06 0)
(0.021088942 1.9170871e-06 0)
(0.020772515 -1.8027279e-06 0)
(0.021069614 1.698603e-06 0)
(0.020790631 -1.5989453e-06 0)
(0.02105252 1.5061591e-06 0)
(0.020806721 -1.4188085e-06 0)
(0.021037363 1.3367998e-06 0)
(0.020821012 -1.2600191e-06 0)
(0.021023902 1.1877911e-06 0)
(0.020833713 -1.1202947e-06 0)
(0.021011931 1.056821e-06 0)
(0.020845018 -9.9755805e-07 0)
(0.021001269 9.418933e-07 0)
(0.020855094 -8.8996268e-07 0)
(0.020991754 8.4126478e-07 0)
(0.020864097 -7.9588176e-07 0)
(0.020983242 7.534097e-07 0)
(0.020872161 -7.1388849e-07 0)
(0.020975604 6.7699417e-07 0)
(0.020879409 -6.4273658e-07 0)
(0.020968725 6.1085595e-07 0)
(0.020885951 -5.8134239e-07 0)
(0.020962501 5.5398731e-07 0)
(0.020891886 -5.2876922e-07 0)
(0.020956836 5.0552024e-07 0)
(0.020897305 -4.8421347e-07 0)
(0.020951646 4.6471346e-07 0)
(0.020902289 -4.4699257e-07 0)
(0.02094685 4.3094091e-07 0)
(0.020906916 -4.1653446e-07 0)
(0.020942377 4.0368072e-07 0)
(0.020911255 -3.9236405e-07 0)
(0.020938157 3.8252759e-07 0)
(0.020915373 -3.740136e-07 0)
(0.020934118 3.6724614e-07 0)
(0.020919325 -3.6171957e-07 0)
(0.020930206 3.5242004e-07 0)
(0.020923442 -3.8145051e-07 0)
(0.020927969 3.3647491e-07 0)
(0.020957053 0.0035495426 0)
(0.028163786 -6.1811663e-05 0)
(0.024698153 4.9358451e-05 0)
(0.025692862 2.9049447e-08 0)
(0.024886316 -8.4757994e-07 0)
(0.025525952 3.1147696e-06 0)
(0.024938763 -2.9031787e-06 0)
(0.025482406 2.836656e-06 0)
(0.02497716 -2.7352337e-06 0)
(0.025451092 2.5898624e-06 0)
(0.025006156 -2.4368858e-06 0)
(0.025423853 2.3007553e-06 0)
(0.025031453 -2.1630391e-06 0)
(0.025399891 2.0383876e-06 0)
(0.025053921 -1.9186714e-06 0)
(0.025378695 1.8073574e-06 0)
(0.025073873 -1.7025457e-06 0)
(0.025359899 1.6040958e-06 0)
(0.025091594 -1.5119992e-06 0)
(0.025343207 1.4252767e-06 0)
(0.025107345 -1.3443223e-06 0)
(0.025328363 1.2681106e-06 0)
(0.025121361 -1.1970304e-06 0)
(0.025315141 1.1301975e-06 0)
(0.025133856 -1.0679096e-06 0)
(0.025303343 1.0094441e-06 0)
(0.025145018 -9.5500739e-07 0)
(0.025292789 9.0401852e-07 0)
(0.025155016 -8.5661099e-07 0)
(0.02528332 8.1231965e-07 0)
(0.025164002 -7.7122417e-07 0)
(0.025274792 7.329523e-07 0)
(0.025172112 -6.9754594e-07 0)
(0.025267075 6.6470682e-07 0)
(0.025179469 -6.3445173e-07 0)
(0.025260053 6.0654118e-07 0)
(0.025186186 -5.8097668e-07 0)
(0.02525362 5.5756537e-07 0)
(0.025192364 -5.3630093e-07 0)
(0.025247676 5.170272e-07 0)
(0.025198098 -4.9973681e-07 0)
(0.025242133 4.8429827e-07 0)
(0.025203476 -4.7071143e-07 0)
(0.025236903 4.5889139e-07 0)
(0.025208579 -4.4863509e-07 0)
(0.025231899 4.4056505e-07 0)
(0.025213476 -4.3375762e-07 0)
(0.025227043 4.2203922e-07 0)
(0.025218528 -4.6268874e-07 0)
(0.025224034 4.0234774e-07 0)
(0.024913089 0.0042020094 0)
(0.032524126 -6.6641872e-05 0)
(0.02878918 6.4725158e-05 0)
(0.029936119 -3.5759138e-07 0)
(0.028989108 -5.5419561e-07 0)
(0.029756677 3.5028525e-06 0)
(0.029055912 -3.3215019e-06 0)
(0.029706437 3.2429201e-06 0)
(0.029102075 -3.1519991e-06 0)
(0.029669224 2.9846013e-06 0)
(0.029136777 -2.8088617e-06 0)
(0.029636667 2.6530944e-06 0)
(0.029167057 -2.4937462e-06 0)
(0.029607999 2.3503615e-06 0)
(0.029193946 -2.2121794e-06 0)
(0.029582633 2.0838671e-06 0)
(0.029217824 -1.9630285e-06 0)
(0.02956014 1.8494697e-06 0)
(0.02923903 -1.743328e-06 0)
(0.029540164 1.6432804e-06 0)
(0.029257878 -1.5499871e-06 0)
(0.0295224 1.4620653e-06 0)
(0.029274651 -1.3801504e-06 0)
(0.029506579 1.3030518e-06 0)
(0.029289602 -1.2312669e-06 0)
(0.029492461 1.1638243e-06 0)
(0.029302957 -1.1010851e-06 0)
(0.029479833 1.0422697e-06 0)
(0.029314919 -9.8762937e-07 0)
(0.029468503 9.3654115e-07 0)
(0.02932567 -8.8917374e-07 0)
(0.0294583 8.4502954e-07 0)
(0.029335373 -8.0421752e-07 0)
(0.029449069 7.6633971e-07 0)
(0.029344174 -7.3146346e-07 0)
(0.029440669 6.9926977e-07 0)
(0.029352209 -6.6979841e-07 0)
(0.029432974 6.427929e-07 0)
(0.029359598 -6.1827613e-07 0)
(0.029425865 5.9604068e-07 0)
(0.029366455 -5.7610215e-07 0)
(0.029419236 5.5828575e-07 0)
(0.029372885 -5.4261241e-07 0)
(0.029412983 5.289642e-07 0)
(0.029378987 -5.1709353e-07 0)
(0.029407001 5.0784573e-07 0)
(0.029384842 -4.9976839e-07 0)
(0.02940119 4.8570914e-07 0)
(0.029390833 -5.3878091e-07 0)
(0.029397341 4.6192027e-07 0)
(0.027925743 0.0044536253 0)
(0.036603624 -0.00011501466 0)
(0.032768036 7.9258436e-05 0)
(0.034048373 -5.2728627e-07 0)
(0.032966327 -1.6073332e-07 0)
(0.033864757 3.8027678e-06 0)
(0.033049811 -3.6985477e-06 0)
(0.033808167 3.6009276e-06 0)
(0.033103806 -3.5322238e-06 0)
(0.033765039 3.343857e-06 0)
(0.033144263 -3.1478044e-06 0)
(0.033727121 2.9744473e-06 0)
(0.033179573 -2.7951932e-06 0)
(0.033693703 2.6348356e-06 0)
(0.033210926 -2.4797664e-06 0)
(0.03366413 2.3359678e-06 0)
(0.033238767 -2.2005194e-06 0)
(0.033637904 2.0731714e-06 0)
(0.033263491 -1.9542395e-06 0)
(0.033614614 1.8420257e-06 0)
(0.033285464 -1.7374984e-06 0)
(0.033593903 1.6388852e-06 0)
(0.033305018 -1.5471056e-06 0)
(0.033575458 1.4606356e-06 0)
(0.033322447 -1.3802032e-06 0)
(0.033558999 1.3045667e-06 0)
(0.033338016 -1.234267e-06 0)
(0.033544278 1.1683088e-06 0)
(0.033351961 -1.1070814e-06 0)
(0.033531071 1.0497907e-06 0)
(0.033364492 -9.9671076e-07 0)
(0.033519178 9.4720817e-07 0)
(0.033375801 -9.0147212e-07 0)
(0.033508418 8.5899681e-07 0)
(0.033386059 -8.1991066e-07 0)
(0.033498629 7.8380886e-07 0)
(0.033395422 -7.5077787e-07 0)
(0.033489661 7.2049259e-07 0)
(0.033404033 -6.9301192e-07 0)
(0.033481378 6.6807319e-07 0)
(0.033412023 -6.4572039e-07 0)
(0.033473654 6.2573201e-07 0)
(0.033419514 -6.0815485e-07 0)
(0.033466369 5.9283349e-07 0)
(0.033426622 -5.7947828e-07 0)
(0.033459403 5.6917502e-07 0)
(0.033433441 -5.5984456e-07 0)
(0.033452631 5.4356739e-07 0)
(0.03344037 -6.0949204e-07 0)
(0.033447888 5.152307e-07 0)
(0.03182149 0.0050237029 0)
(0.040532619 -0.000117915 0)
(0.03663064 9.4803503e-05 0)
(0.03802838 -9.8911328e-07 0)
(0.03681771 1.5772249e-07 0)
(0.037849907 3.9781404e-06 0)
(0.036920825 -4.0382522e-06 0)
(0.037787332 3.910144e-06 0)
(0.036982643 -3.8755356e-06 0)
(0.03773828 3.6673023e-06 0)
(0.037028861 -3.4533066e-06 0)
(0.037694986 3.2644318e-06 0)
(0.037069219 -3.0670142e-06 0)
(0.037656802 2.8914651e-06 0)
(0.037105053 -2.7211063e-06 0)
(0.037623005 2.5633557e-06 0)
(0.037136869 -2.4147295e-06 0)
(0.037593033 2.2749325e-06 0)
(0.037165123 -2.1444777e-06 0)
(0.037566417 2.0212749e-06 0)
(0.037190234 -1.9066298e-06 0)
(0.037542749 1.7983597e-06 0)
(0.037212578 -1.6976954e-06 0)
(0.03752167 1.6027619e-06 0)
(0.037232494 -1.5145405e-06 0)
(0.037502863 1.4315051e-06 0)
(0.037250284 -1.3543948e-06 0)
(0.037486041 1.2819876e-06 0)
(0.037266217 -1.2148259e-06 0)
(0.03747095 1.1519359e-06 0)
(0.037280535 -1.0937089e-06 0)
(0.037457362 1.0393695e-06 0)
(0.037293455 -9.891965e-07 0)
(0.037445069 9.4257138e-07 0)
(0.037305174 -8.9969145e-07 0)
(0.037433885 8.6006216e-07 0)
(0.037315871 -8.23823e-07 0)
(0.037423641 7.9057723e-07 0)
(0.037325707 -7.6042484e-07 0)
(0.03741418 7.3304548e-07 0)
(0.037334832 -7.085156e-07 0)
(0.037405358 6.865649e-07 0)
(0.037343387 -6.672697e-07 0)
(0.03739704 6.5043364e-07 0)
(0.037351503 -6.3572845e-07 0)
(0.037389088 6.2449215e-07 0)
(0.037359289 -6.1393627e-07 0)
(0.037381354 5.9559996e-07 0)
(0.037367152 -6.7449058e-07 0)
(0.037375673 5.6225808e-07 0)
(0.034810032 0.005211712 0)
(0.044167585 -0.00017871852 0)
(0.040377085 0.00010854246 0)
(0.041880067 -1.7147494e-06 0)
(0.040544799 3.3575847e-07 0)
(0.041711906 3.9978419e-06 0)
(0.040669237 -4.3485775e-06 0)
(0.041643665 4.1687841e-06 0)
(0.040738834 -4.1823479e-06 0)
(0.041588713 3.954658e-06 0)
(0.040790791 -3.7252516e-06 0)
(0.041540053 3.5228546e-06 0)
(0.04083619 -3.3090537e-06 0)
(0.04149711 3.1200913e-06 0)
(0.040876498 -2.9360537e-06 0)
(0.041459097 2.7658941e-06 0)
(0.040912284 -2.6055287e-06 0)
(0.041425385 2.4546333e-06 0)
(0.040944062 -2.3139278e-06 0)
(0.041395447 2.1809227e-06 0)
(0.040972304 -2.0572796e-06 0)
(0.041368827 1.9403954e-06 0)
(0.040997434 -1.83183e-06 0)
(0.04134512 1.729348e-06 0)
(0.041019833 -1.6341994e-06 0)
(0.041323967 1.544566e-06 0)
(0.04103984 -1.4613978e-06 0)
(0.041305049 1.3832406e-06 0)
(0.041057758 -1.3108e-06 0)
(0.041288077 1.2429181e-06 0)
(0.041073859 -1.1801122e-06 0)
(0.041272796 1.1214611e-06 0)
(0.041088388 -1.0673404e-06 0)
(0.041258973 1.0170164e-06 0)
(0.041101565 -9.7076069e-07 0)
(0.041246398 9.2798728e-07 0)
(0.041113592 -8.8889316e-07 0)
(0.041234879 8.5300856e-07 0)
(0.04112465 -8.2047819e-07 0)
(0.041224243 7.9092297e-07 0)
(0.041134909 -7.6445466e-07 0)
(0.041214326 7.4075327e-07 0)
(0.041144525 -7.1992727e-07 0)
(0.041204977 7.017368e-07 0)
(0.041153647 -6.8581936e-07 0)
(0.04119604 6.737709e-07 0)
(0.041162398 -6.6202856e-07 0)
(0.041187349 6.4181631e-07 0)
(0.041171188 -7.335108e-07 0)
(0.041180697 6.0305101e-07 0)
(0.038586917 0.0056357765 0)
(0.047707052 -0.00018117997 0)
(0.043991676 0.00012295279 0)
(0.045608624 -1.5948885e-06 0)
(0.044151282 6.028016e-07 0)
(0.045450986 3.9252116e-06 0)
(0.04429544 -4.6143566e-06 0)
(0.045376959 4.381408e-06 0)
(0.044372608 -4.4518543e-06 0)
(0.045316129 4.2063735e-06 0)
(0.044430253 -3.9636934e-06 0)
(0.045262136 3.7498411e-06 0)
(0.044480661 -3.5214061e-06 0)
(0.045214464 3.3208087e-06 0)
(0.044525416 -3.1246953e-06 0)
(0.04517226 2.9436678e-06 0)
(0.044565147 -2.7729945e-06 0)
(0.045134831 2.61235e-06 0)
(0.044600428 -2.4626593e-06 0)
(0.045101592 2.3210374e-06 0)
(0.044631781 -2.1895106e-06 0)
(0.045072038 2.0650537e-06 0)
(0.04465968 -1.9495657e-06 0)
(0.045045718 1.8404488e-06 0)
(0.044684545 -1.7392303e-06 0)
(0.045022235 1.6437984e-06 0)
(0.044706755 -1.5553216e-06 0)
(0.045001233 1.472112e-06 0)
(0.044726645 -1.3950447e-06 0)
(0.044982394 1.3227772e-06 0)
(0.044744518 -1.2559577e-06 0)
(0.04496543 1.1935189e-06 0)
(0.044760645 -1.1359377e-06 0)
(0.044950086 1.0823645e-06 0)
(0.044775272 -1.0331493e-06 0)
(0.044936128 9.8761433e-07 0)
(0.044788621 -9.4601704e-07 0)
(0.044923344 9.0781461e-07 0)
(0.044800894 -8.7319891e-07 0)
(0.044911539 8.4173216e-07 0)
(0.044812279 -8.1356334e-07 0)
(0.044900534 7.8832277e-07 0)
(0.044822949 -7.6615287e-07 0)
(0.044890161 7.4676851e-07 0)
(0.044833069 -7.297781e-07 0)
(0.044880248 7.170355e-07 0)
(0.044842778 -7.0415695e-07 0)
(0.044870608 6.8226776e-07 0)
(0.044852484 -7.8636598e-07 0)
(0.044862959 6.3772876e-07 0)
(0.041680088 0.0058106916 0)
(0.050961737 -0.00024861114 0)
(0.047476981 0.00013275233 0)
(0.049212793 -1.4860504e-06 0)
(0.047638811 8.0443722e-07 0)
(0.049066994 3.7359505e-06 0)
(0.047799679 -4.8443814e-06 0)
(0.04898701 4.5471176e-06 0)
(0.047884172 -4.6848253e-06 0)
(0.048920337 4.422711e-06 0)
(0.047947426 -4.1689709e-06 0)
(0.048861066 3.9456483e-06 0)
(0.048002792 -3.7043378e-06 0)
(0.048808715 3.493856e-06 0)
(0.048051947 -3.2872613e-06 0)
(0.048762364 3.0968928e-06 0)
(0.048095582 -2.9173303e-06 0)
(0.048721255 2.748276e-06 0)
(0.048134328 -2.590853e-06 0)
(0.048684751 2.4417913e-06 0)
(0.04816876 -2.3034836e-06 0)
(0.048652292 2.1724882e-06 0)
(0.048199398 -2.0510462e-06 0)
(0.048623388 1.9362013e-06 0)
(0.048226704 -1.8297615e-06 0)
(0.048597599 1.7293248e-06 0)
(0.048251093 -1.6362809e-06 0)
(0.048574535 1.5487112e-06 0)
(0.048272935 -1.467663e-06 0)
(0.048553846 1.3916115e-06 0)
(0.048292562 -1.3213381e-06 0)
(0.048535219 1.2556317e-06 0)
(0.04831027 -1.1950722e-06 0)
(0.04851837 1.1386963e-06 0)
(0.048326331 -1.0869339e-06 0)
(0.048503043 1.0390169e-06 0)
(0.048340988 -9.9526487e-07 0)
(0.048489007 9.5506315e-07 0)
(0.048354463 -9.186521e-07 0)
(0.048476046 8.855362e-07 0)
(0.048366961 -8.5590274e-07 0)
(0.048463965 8.2933316e-07 0)
(0.048378675 -8.0600482e-07 0)
(0.048452577 7.8558642e-07 0)
(0.048389784 -7.6766289e-07 0)
(0.048441699 7.5434075e-07 0)
(0.04840044 -7.403877e-07 0)
(0.048431122 7.1703031e-07 0)
(0.048411049 -8.3292873e-07 0)
(0.04842246 6.664575e-07 0)
(0.045274594 0.0060808327 0)
(0.054165718 -0.00024772691 0)
(0.050837805 0.00014279354 0)
(0.05269063 -1.9458956e-06 0)
(0.051006909 8.0529584e-07 0)
(0.052559762 3.4248374e-06 0)
(0.051182155 -5.0414448e-06 0)
(0.05247365 4.6669633e-06 0)
(0.051273718 -4.8815285e-06 0)
(0.052401172 4.6043003e-06 0)
(0.051342476 -4.3414445e-06 0)
(0.052336692 4.1106954e-06 0)
(0.051402725 -3.8582063e-06 0)
(0.052279728 3.6395861e-06 0)
(0.051456216 -3.4240766e-06 0)
(0.052229289 3.2258804e-06 0)
(0.0515037 -3.0388261e-06 0)
(0.052184555 2.8626878e-06 0)
(0.051545861 -2.698767e-06 0)
(0.05214483 2.5434305e-06 0)
(0.051583327 -2.3994287e-06 0)
(0.05210951 2.2629177e-06 0)
(0.051616664 -2.1364763e-06 0)
(0.052078057 2.0168004e-06 0)
(0.051646376 -1.905976e-06 0)
(0.052049996 1.8013192e-06 0)
(0.051672913 -1.7044393e-06 0)
(0.0520249 1.6131939e-06 0)
(0.051696679 -1.5288016e-06 0)
(0.052002389 1.4495606e-06 0)
(0.051718033 -1.3763855e-06 0)
(0.051982121 1.3079252e-06 0)
(0.051737301 -1.2448633e-06 0)
(0.051963788 1.1861257e-06 0)
(0.051754775 -1.1322228e-06 0)
(0.051947113 1.0822987e-06 0)
(0.05177072 -1.0367358e-06 0)
(0.051931842 9.9484964e-07 0)
(0.05178538 -9.5692942e-07 0)
(0.051917742 9.2242376e-07 0)
(0.051798977 -8.9155851e-07 0)
(0.0519046 8.6386787e-07 0)
(0.051811718 -8.395644e-07 0)
(0.051892213 8.1827049e-07 0)
(0.051823801 -7.9955352e-07 0)
(0.051880384 7.8576265e-07 0)
(0.051835391 -7.7080811e-07 0)
(0.051868885 7.4619633e-07 0)
(0.051846888 -8.7311975e-07 0)
(0.0518592 6.894362e-07 0)
(0.048425805 0.0062347965 0)
(0.057096636 -0.0003171972 0)
(0.054073804 0.00014845272 0)
(0.056044314 -2.1796748e-06 0)
(0.054255976 7.8556475e-07 0)
(0.055929329 3.0491042e-06 0)
(0.054443062 -5.1957546e-06 0)
(0.055836714 4.7443349e-06 0)
(0.054541409 -5.041907e-06 0)
(0.05575848 4.7519026e-06 0)
(0.054615546 -4.4816172e-06 0)
(0.055688879 4.2454849e-06 0)
(0.054680588 -3.9834835e-06 0)
(0.055627383 3.7584407e-06 0)
(0.054738337 -3.5355594e-06 0)
(0.05557293 3.3310249e-06 0)
(0.054789599 -3.1378524e-06 0)
(0.055524635 2.9559364e-06 0)
(0.054835113 -2.7867305e-06 0)
(0.05548175 2.6262669e-06 0)
(0.054875559 -2.4776386e-06 0)
(0.055443619 2.33662e-06 0)
(0.054911546 -2.2061169e-06 0)
(0.055409664 2.0824936e-06 0)
(0.05494362 -1.9681063e-06 0)
(0.055379371 1.8600021e-06 0)
(0.054972266 -1.7600046e-06 0)
(0.05535228 1.6657574e-06 0)
(0.05499792 -1.5786466e-06 0)
(0.055327979 1.4968015e-06 0)
(0.055020972 -1.421267e-06 0)
(0.0553061 1.350559e-06 0)
(0.05504177 -1.285462e-06 0)
(0.055286311 1.2247971e-06 0)
(0.055060632 -1.1691532e-06 0)
(0.055268311 1.1175914e-06 0)
(0.055077844 -1.0705555e-06 0)
(0.055251827 1.0272948e-06 0)
(0.055093667 -9.881467e-07 0)
(0.055236609 9.5250672e-07 0)
(0.055108342 -9.2063869e-07 0)
(0.055222424 8.9203193e-07 0)
(0.055122093 -8.6693376e-07 0)
(0.055209057 8.4492091e-07 0)
(0.055135131 -8.2554928e-07 0)
(0.055196293 8.1139642e-07 0)
(0.055147639 -7.955242e-07 0)
(0.055183892 7.6987307e-07 0)
(0.055160004 -9.0690323e-07 0)
(0.055173182 7.0688898e-07 0)
(0.051849493 0.0063723167 0)
(0.060014661 -0.00031555575 0)
(0.057188111 0.00015480879 0)
(0.059274909 -2.4467829e-06 0)
(0.057385279 6.471984e-07 0)
(0.059175527 2.6024626e-06 0)
(0.057582524 -5.3092012e-06 0)
(0.059076036 4.7798637e-06 0)
(0.057687384 -5.1666058e-06 0)
(0.058992121 4.8662846e-06 0)
(0.057766764 -4.5900943e-06 0)
(0.058917505 4.3506338e-06 0)
(0.057836494 -4.0807251e-06 0)
(0.058851574 3.8509566e-06 0)
(0.05789841 -3.6222086e-06 0)
(0.058793193 3.412801e-06 0)
(0.057953367 -3.2148533e-06 0)
(0.058741414 3.028443e-06 0)
(0.058002162 -2.8551384e-06 0)
(0.058695436 2.690675e-06 0)
(0.058045523 -2.5384646e-06 0)
(0.058654555 2.3939278e-06 0)
(0.058084104 -2.2602805e-06 0)
(0.058618152 2.133577e-06 0)
(0.058118488 -2.0164311e-06 0)
(0.058585675 1.9056379e-06 0)
(0.058149199 -1.8032257e-06 0)
(0.058556631 1.706638e-06 0)
(0.058176701 -1.6174211e-06 0)
(0.058530579 1.5335462e-06 0)
(0.058201412 -1.4561834e-06 0)
(0.058507124 1.3837238e-06 0)
(0.058223708 -1.3170495e-06 0)
(0.05848591 1.2548831e-06 0)
(0.058243928 -1.1978896e-06 0)
(0.058466614 1.1450523e-06 0)
(0.058262379 -1.0968743e-06 0)
(0.058448943 1.052543e-06 0)
(0.05827934 -1.0124425e-06 0)
(0.05843263 9.759188e-07 0)
(0.058295071 -9.4327236e-07 0)
(0.058417425 9.1395066e-07 0)
(0.05830981 -8.8823465e-07 0)
(0.058403098 8.6565694e-07 0)
(0.058323784 -8.4576782e-07 0)
(0.05838942 8.313554e-07 0)
(0.058337189 -8.1465924e-07 0)
(0.058376137 7.8818212e-07 0)
(0.058350403 -9.3428349e-07 0)
(0.058364405 7.1905905e-07 0)
(0.055055523 0.0064969783 0)
(0.062684216 -0.00038257409 0)
(0.060180889 0.00015557301 0)
(0.062385072 -2.8780234e-06 0)
(0.060394551 4.3340003e-07 0)
(0.062298311 2.1012459e-06 0)
(0.060600696 -5.3773331e-06 0)
(0.06219149 4.7759042e-06 0)
(0.060711777 -5.2559494e-06 0)
(0.062101975 4.9483822e-06 0)
(0.060796246 -4.6675803e-06 0)
(0.062022462 4.4268381e-06 0)
(0.060870545 -4.1505799e-06 0)
(0.061952206 3.917747e-06 0)
(0.060936523 -3.6846008e-06 0)
(0.061889994 3.4717536e-06 0)
(0.060995085 -3.2703406e-06 0)
(0.061834818 3.0806915e-06 0)
(0.061047078 -2.9044451e-06 0)
(0.061785823 2.7370845e-06 0)
(0.061093281 -2.5823104e-06 0)
(0.061742261 2.4352233e-06 0)
(0.06113439 -2.2993266e-06 0)
(0.061703471 2.1703909e-06 0)
(0.061171028 -2.0512708e-06 0)
(0.061668865 1.9385301e-06 0)
(0.061203751 -1.834389e-06 0)
(0.061637917 1.736107e-06 0)
(0.061233055 -1.6453814e-06 0)
(0.061610157 1.5600382e-06 0)
(0.061259385 -1.4813651e-06 0)
(0.061585164 1.407639e-06 0)
(0.061283142 -1.3398339e-06 0)
(0.06156256 1.2765823e-06 0)
(0.061304687 -1.2186211e-06 0)
(0.061541999 1.1648621e-06 0)
(0.061324345 -1.1158648e-06 0)
(0.061523172 1.0707601e-06 0)
(0.061342417 -1.0299761e-06 0)
(0.06150579 9.928135e-07 0)
(0.061359177 -9.5960767e-07 0)
(0.061489591 9.2976778e-07 0)
(0.06137488 -9.0360668e-07 0)
(0.061474327 8.8061514e-07 0)
(0.061389766 -8.6034346e-07 0)
(0.061459759 8.4576944e-07 0)
(0.061404048 -8.2835205e-07 0)
(0.061445616 8.0125825e-07 0)
(0.061418087 -9.5530132e-07 0)
(0.061432872 7.262031e-07 0)
(0.058325089 0.0065174983 0)
(0.065369691 -0.00037749925 0)
(0.063056214 0.00015705461 0)
(0.065378008 -3.3572674e-06 0)
(0.063283147 1.428492e-07 0)
(0.065297584 1.544183e-06 0)
(0.063497697 -5.3984218e-06 0)
(0.065182948 4.7338126e-06 0)
(0.063614698 -5.3106495e-06 0)
(0.065087931 4.9991468e-06 0)
(0.063704092 -4.7148709e-06 0)
(0.065003654 4.474877e-06 0)
(0.063782831 -4.1937686e-06 0)
(0.064929194 3.9594981e-06 0)
(0.063852756 -3.7233784e-06 0)
(0.064863259 3.5084907e-06 0)
(0.06391482 -3.3048847e-06 0)
(0.064804781 3.1132215e-06 0)
(0.063969922 -2.9351573e-06 0)
(0.064752855 2.7659746e-06 0)
(0.064018887 -2.6096266e-06 0)
(0.064706687 2.4609324e-06 0)
(0.064062453 -2.3236559e-06 0)
(0.064665577 2.1933145e-06 0)
(0.06410128 -2.0729826e-06 0)
(0.064628901 1.9590168e-06 0)
(0.064135959 -1.8538134e-06 0)
(0.064596102 1.7544671e-06 0)
(0.064167014 -1.6628135e-06 0)
(0.064566682 1.5765488e-06 0)
(0.064194918 -1.4970691e-06 0)
(0.064540195 1.422549e-06 0)
(0.064220095 -1.3540474e-06 0)
(0.064516239 1.290116e-06 0)
(0.064242927 -1.2315582e-06 0)
(0.06449445 1.1772222e-06 0)
(0.06426376 -1.1277197e-06 0)
(0.064474497 1.0821308e-06 0)
(0.064282912 -1.0409248e-06 0)
(0.064456078 1.0033619e-06 0)
(0.064300672 -9.6980973e-07 0)
(0.064438911 9.3964338e-07 0)
(0.064317312 -9.1320533e-07 0)
(0.064422737 8.8994748e-07 0)
(0.064333085 -8.6942538e-07 0)
(0.064407302 8.547831e-07 0)
(0.064348218 -8.3675504e-07 0)
(0.064392326 8.0924809e-07 0)
(0.064363059 -9.7003042e-07 0)
(0.064378585 7.2858648e-07 0)
(0.061560468 0.0066058826 0)
(0.067829977 -0.00043884139 0)
(0.06580622 0.00015341793 0)
(0.068256508 -4.1606996e-06 0)
(0.066051342 -1.921736e-07 0)
(0.068173375 9.2138576e-07 0)
(0.066273669 -5.3742507e-06 0)
(0.06805031 4.6539797e-06 0)
(0.066396247 -5.33187e-06 0)
(0.067949893 5.0194619e-06 0)
(0.066490392 -4.7328978e-06 0)
(0.067860996 4.4955753e-06 0)
(0.06657343 -4.2110882e-06 0)
(0.067782463 3.9769548e-06 0)
(0.066647178 -3.7392443e-06 0)
(0.067712922 3.5236753e-06 0)
(0.066712634 -3.3191086e-06 0)
(0.067651246 3.1266215e-06 0)
(0.066770747 -2.947828e-06 0)
(0.06759648 2.7778678e-06 0)
(0.066822387 -2.6209046e-06 0)
(0.067547788 2.4715197e-06 0)
(0.066868333 -2.3337058e-06 0)
(0.06750443 2.2027614e-06 0)
(0.066909282 -2.0819563e-06 0)
(0.067465749 1.9674672e-06 0)
(0.066945855 -1.8618473e-06 0)
(0.067431157 1.7620482e-06 0)
(0.066978607 -1.6700294e-06 0)
(0.067400129 1.5833741e-06 0)
(0.067008035 -1.503576e-06 0)
(0.067372195 1.4287206e-06 0)
(0.067034588 -1.3599432e-06 0)
(0.06734693 1.2957256e-06 0)
(0.067058667 -1.2369312e-06 0)
(0.06732395 1.1823527e-06 0)
(0.067080638 -1.1326493e-06 0)
(0.067302907 1.086857e-06 0)
(0.067100836 -1.0454825e-06 0)
(0.067283481 1.0077507e-06 0)
(0.067119566 -9.7405877e-07 0)
(0.067265377 9.4375215e-07 0)
(0.067137113 -9.1720022e-07 0)
(0.067248321 8.9381963e-07 0)
(0.067153746 -8.7317597e-07 0)
(0.067232047 8.5855411e-07 0)
(0.067169705 -8.400326e-07 0)
(0.067216265 8.1230894e-07 0)
(0.067185321 -9.7857412e-07 0)
(0.067201544 7.2647906e-07 0)
(0.064651755 0.0065222208 0)
(0.070324224 -0.0004297108 0)
(0.06844129 0.00015061097 0)
(0.071017021 -4.8496173e-06 0)
(0.068699368 -4.8536901e-07 0)
(0.070925458 2.566818e-07 0)
(0.068928711 -5.2947561e-06 0)
(0.070793458 4.540753e-06 0)
(0.069056497 -5.3196864e-06 0)
(0.070687766 5.010627e-06 0)
(0.069155219 -4.7225574e-06 0)
(0.070594413 4.4898469e-06 0)
(0.06924241 -4.2033894e-06 0)
(0.070511948 3.9709167e-06 0)
(0.069319851 -3.7329543e-06 0)
(0.070438925 3.5180179e-06 0)
(0.069388581 -3.3136818e-06 0)
(0.070374162 3.1215228e-06 0)
(0.069449601 -2.9430512e-06 0)
(0.070316654 2.773325e-06 0)
(0.069503823 -2.616672e-06 0)
(0.070265524 2.4674837e-06 0)
(0.069552068 -2.329946e-06 0)
(0.070219997 2.1991756e-06 0)
(0.069595064 -2.0786107e-06 0)
(0.070179379 1.9642772e-06 0)
(0.069633466 -1.8588647e-06 0)
(0.070143056 1.7592045e-06 0)
(0.069667857 -1.6673642e-06 0)
(0.070110476 1.5808322e-06 0)
(0.069698757 -1.5011872e-06 0)
(0.070081143 1.4264402e-06 0)
(0.069726638 -1.3577936e-06 0)
(0.070054614 1.2936705e-06 0)
(0.069751922 -1.234987e-06 0)
(0.070030484 1.1804898e-06 0)
(0.069774992 -1.1308793e-06 0)
(0.070008388 1.0851553e-06 0)
(0.0697962 -1.0438572e-06 0)
(0.06998799 1.0061805e-06 0)
(0.069815867 -9.7254841e-07 0)
(0.069968982 9.4228169e-07 0)
(0.069834291 -9.1577352e-07 0)
(0.069951073 8.9240945e-07 0)
(0.069851754 -8.7176937e-07 0)
(0.069933988 8.5725192e-07 0)
(0.06986851 -8.3835954e-07 0)
(0.069917429 8.1060759e-07 0)
(0.069884875 -9.8106242e-07 0)
(0.069901751 7.2015183e-07 0)
(0.067869722 0.0065688417 0)
(0.072612955 -0.0004823151 0)
(0.070961332 0.00014256339 0)
(0.073652371 -5.585416e-06 0)
(0.07122797 -6.6743161e-07 0)
(0.073553417 -4.3461805e-07 0)
(0.071462873 -5.153293e-06 0)
(0.073412281 4.3976879e-06 0)
(0.071595509 -5.2744152e-06 0)