/*--------------------------------*- C++ -*----------------------------------*\
| =========                 |                                                 |
| \\      /  F ield         | OpenFOAM: The Open Source CFD Toolbox           |
|  \\    /   O peration     | Version:  2312                                  |
|   \\  /    A nd           | Website:  www.openfoam.com                      |
|    \\/     M anipulation  |                                                 |
\*---------------------------------------------------------------------------*/
FoamFile
{
    version     2.0;
    format      ascii;
    arch        "LSB;label=32;scalar=64";
    class       volScalarField;
    location    "2";
    object      p;
}
// * * * * * * * * * * * * * * * * * * * * * * * * * * * * * * * * * * * * * //

dimensions      [0 2 -2 0 0 0 0];

internalField   nonuniform List<scalar> 
4000
(
39.739187
37.729619
35.993553
35.024578
33.875859
33.165159
32.22836
31.58374
30.716089
30.07529
29.234565
28.581393
27.759066
27.090471
26.283699
25.601108
24.807451
24.112661
23.330399
22.624965
21.85265
21.137926
20.374293
19.651473
18.895403
18.165545
17.41604
16.680088
15.936257
15.195049
14.456095
13.710382
12.975592
12.226046
11.494781
10.742005
10.013691
9.2582277
8.5323482
7.7746872
7.050777
6.2913614
5.5689974
4.8082321
4.0870261
3.325285
2.6048757
1.8425073
1.1225519
0.35988435
39.729475
37.729195
35.994947
35.02446
33.875944
33.165148
32.228375
31.583741
30.716094
30.075287
29.234569
28.58139
27.759069
27.090469
26.283702
25.601105
24.807453
24.112659
23.330401
22.624963
21.852651
21.137925
20.374294
19.651472
18.895403
18.165545
17.416041
16.680088
15.936257
15.195049
14.456095
13.710382
12.975592
12.226047
11.494781
10.742006
10.01369
9.2582282
8.5323477
7.7746878
7.0507764
6.291362
5.5689967
4.8082328
4.0870254
3.3252858
2.6048749
1.8425081
1.1225511
0.35988598
39.681611
37.727747
35.99713
35.02419
33.876089
33.165141
32.228394
31.583752
30.716096
30.07529
29.234569
28.581391
27.759068
27.090469
26.283701
25.601106
24.807452
24.112659
23.3304
22.624964
21.852651
21.137925
20.374294
19.651473
18.895403
18.165545
17.416041
16.680088
15.936257
15.195049
14.456095
13.710382
12.975592
12.226046
11.494781
10.742005
10.01369
9.258228
8.5323479
7.7746876
7.0507766
6.2913619
5.5689969
4.8082326
4.0870256
3.3252856
2.6048751
1.8425079
1.1225512
0.35988667
39.64395
37.725378
35.999271
35.023818
33.876234
33.165128
32.228409
31.583763
30.716094
30.075295
29.234568
28.581393
27.759067
27.090471
26.2837
25.601107
24.807451
24.11266
23.330399
22.624964
21.85265
21.137926
20.374293
19.651473
18.895403
18.165545
17.416041
16.680088
15.936257
15.195049
14.456095
13.710382
12.975592
12.226046
11.494781
10.742005
10.013691
9.2582276
8.5323483
7.7746872
7.0507771
6.2913614
5.5689974
4.8082321
4.0870261
3.3252851
2.6048756
1.8425073
1.1225517
0.35988694
39.616319
37.720672
36.001031
35.023364
33.87639
33.165105
32.228424
31.583768
30.716092
30.075298
29.234567
28.581394
27.759065
27.090472
26.283699
25.601108
24.80745
24.112661
23.330399
22.624965
21.85265
21.137926
20.374293
19.651473
18.895403
18.165545
17.41604
16.680088
15.936257
15.195049
14.456095
13.710382
12.975592
12.226046
11.494781
10.742005
10.013691
9.2582273
8.5323486
7.7746868
7.0507774
6.291361
5.5689978
4.8082317
4.0870265
3.3252846
2.604876
1.8425068
1.1225521
0.35988716
39.570613
37.716268
36.002362
35.022992
33.876596
33.165074
32.228437
31.583766
30.71609
30.0753
29.234566
28.581395
27.759064
27.090473
26.283698
25.601109
24.807449
24.112662
23.330398
22.624966
21.85265
21.137926
20.374293
19.651473
18.895403
18.165546
17.41604
16.680088
15.936257
15.195049
14.456095
13.710382
12.975593
12.226046
11.494781
10.742005
10.013691
9.2582271
8.5323489
7.7746865
7.0507777
6.2913607
5.5689981
4.8082314
4.0870268
3.3252843
2.6048763
1.8425064
1.1225525
0.35988739
39.536658
37.714041
36.00245
35.023286
33.876929
33.165049
32.228449
31.58376
30.716088
30.075302
29.234565
28.581396
27.759063
27.090474
26.283697
25.60111
24.807449
24.112663
23.330398
22.624966
21.852649
21.137927
20.374292
19.651474
18.895402
18.165546
17.41604
16.680088
15.936257
15.195049
14.456095
13.710382
12.975593
12.226046
11.494781
10.742004
10.013691
9.2582269
8.5323491
7.7746863
7.0507779
6.2913605
5.5689984
4.8082312
4.0870271
3.325284
2.6048766
1.842506
1.1225528
0.35988761
39.500772
37.713467
36.000559
35.024482
33.877297
33.165015
32.228455
31.583751
30.716085
30.075303
29.234563
28.581397
27.759062
27.090475
26.283696
25.60111
24.807448
24.112663
23.330397
22.624966
21.852649
21.137927
20.374292
19.651474
18.895402
18.165546
17.41604
16.680088
15.936257
15.195049
14.456095
13.710382
12.975593
12.226046
11.494782
10.742004
10.013692
9.2582268
8.5323492
7.7746862
7.0507781
6.2913603
5.5689986
4.8082309
4.0870273
3.3252838
2.6048768
1.8425057
1.122553
0.35988779
39.468196
37.711127
35.999
35.02615
33.877494
33.16496
32.228455
31.583739
30.716083
30.075303
29.234562
28.581397
27.759062
27.090475
26.283695
25.601111
24.807448
24.112663
23.330397
22.624966
21.852649
21.137928
20.374292
19.651474
18.895402
18.165546
17.41604
16.680088
15.936257
15.195049
14.456095
13.710382
12.975593
12.226046
11.494782
10.742004
10.013692
9.2582266
8.5323494
7.774686
7.0507783
6.2913601
5.5689987
4.8082308
4.0870275
3.3252836
2.604877
1.8425055
1.1225533
0.35988796
39.445272
37.706295
35.999849
35.027466
33.877387
33.1649
32.228448
31.583725
30.716079
30.075302
29.234561
28.581397
27.759061
27.090476
26.283695
25.601111
24.807447
24.112663
23.330397
22.624967
21.852648
21.137928
20.374291
19.651474
18.895402
18.165546
17.41604
16.680088
15.936257
15.195049
14.456095
13.710382
12.975593
12.226046
11.494782
10.742004
10.013692
9.2582265
8.5323495
7.7746859
7.0507784
6.29136
5.5689989
4.8082306
4.0870276
3.3252835
2.6048771
1.8425053
1.1225535
0.3598881
39.422363
37.701071
36.000251
35.02771
33.876944
33.164836
32.228427
31.583708
30.716073
30.0753
29.23456
28.581397
27.75906
27.090476
26.283694
25.601112
24.807447
24.112664
23.330396
22.624968
21.852648
21.137928
20.374291
19.651475
18.895402
18.165546
17.41604
16.680088
15.936257
15.195049
14.456095
13.710382
12.975593
12.226046
11.494782
10.742004
10.013692
9.2582264
8.5323496
7.7746858
7.0507785
6.2913599
5.568999
4.8082305
4.0870278
3.3252833
2.6048772
1.8425051
1.1225537
0.35988822
39.391988
37.695641
35.998751
35.027143
33.876327
33.164754
32.228385
31.583685
30.716067
30.075297
29.234559
28.581396
27.759059
27.090476
26.283694
25.601112
24.807447
24.112664
23.330395
22.624968
21.852647
21.137928
20.374291
19.651475
18.895402
18.165546
17.41604
16.680088
15.936257
15.195049
14.456095
13.710382
12.975593
12.226046
11.494782
10.742004
10.013692
9.2582264
8.5323496
7.7746857
7.0507786
6.2913598
5.5689991
4.8082304
4.0870279
3.3252832
2.6048774
1.8425049
1.1225539
0.35988832
39.368677
37.689526
35.9965
35.02634
33.875708
33.164621
32.228317
31.583656
30.716059
30.075293
29.234558
28.581395
27.759057
27.090476
26.283693
25.601112
24.807446
24.112665
23.330395
22.624968
21.852647
21.137928
20.374291
19.651475
18.895401
18.165546
17.41604
16.680088
15.936256
15.195049
14.456095
13.710382
12.975593
12.226046
11.494782
10.742004
10.013692
9.2582263
8.5323497
7.7746856
7.0507787
6.2913597
5.5689992
4.8082303
4.087028
3.3252831
2.6048774
1.8425048
1.1225541
0.3598884
39.344562
37.682405
35.993883
35.025411
33.875115
33.164426
32.228226
31.583621
30.716051
30.075287
29.234558
28.581392
27.759056
27.090476
26.283693
25.601113
24.807445
24.112666
23.330395
22.624968
21.852647
21.137929
20.374291
19.651475
18.895401
18.165547
17.41604
16.680088
15.936256
15.195049
14.456095
13.710382
12.975593
12.226046
11.494782
10.742004
10.013692
9.2582263
8.5323497
7.7746856
7.0507787
6.2913596
5.5689993
4.8082302
4.0870281
3.325283
2.6048775
1.8425047
1.1225543
0.35988847
39.32484
37.675802
35.991174
35.024403
33.874526
33.164193
32.228123
31.583584
30.716039
30.07528
29.234557
28.581388
27.759056
27.090477
26.283692
25.601114
24.807445
24.112666
23.330395
22.624969
21.852647
21.137929
20.374291
19.651475
18.895401
18.165547
17.416039
16.680089
15.936256
15.195049
14.456095
13.710382
12.975593
12.226046
11.494782
10.742004
10.013692
9.2582262
8.5323498
7.7746855
7.0507788
6.2913596
5.5689993
4.8082302
4.0870281
3.325283
2.6048776
1.8425046
1.1225544
0.35988853
39.31403
37.669412
35.988595
35.023222
33.873894
33.163942
32.228016
31.583545
30.716026
30.075273
29.234555
28.581387
27.759055
27.090478
26.283692
25.601114
24.807445
24.112666
23.330395
22.624969
21.852647
21.137929
20.37429
19.651475
18.895401
18.165547
17.416039
16.680089
15.936256
15.195049
14.456095
13.710382
12.975593
12.226046
11.494782
10.742004
10.013692
9.2582262
8.5323498
7.7746855
7.0507788
6.2913595
5.5689994
4.8082301
4.0870282
3.3252829
2.6048776
1.8425045
1.1225546
0.35988857
39.298385
37.662291
35.986257
35.021839
33.873221
33.163686
32.22791
31.583508
30.716012
30.075268
29.234549
28.581389
27.759054
27.090478
26.283692
25.601114
24.807445
24.112666
23.330394
22.624969
21.852647
21.137929
20.37429
19.651475
18.895401
18.165547
17.416039
16.680089
15.936256
15.195049
14.456095
13.710382
12.975593
12.226046
11.494782
10.742004
10.013692
9.2582262
8.5323498
7.7746855
7.0507789
6.2913595
5.5689994
4.8082301
4.0870282
3.3252828
2.6048777
1.8425044
1.1225547
0.3598886
39.289289
37.656486
35.984403
35.020394
33.872566
33.163446
32.227809
31.583472
30.715998
30.075262
29.234545
28.581391
27.759053
27.090478
26.283691
25.601114
24.807444
24.112666
23.330394
22.624969
21.852646
21.137929
20.37429
19.651476
18.895401
18.165547
17.416039
16.680089
15.936256
15.195049
14.456095
13.710382
12.975593
12.226046
11.494782
10.742004
10.013692
9.2582262
8.5323499
7.7746855
7.0507789
6.2913594
5.5689994
4.80823
4.0870283
3.3252828
2.6048777
1.8425043
1.1225549
0.35988862
39.278166
37.649709
35.982574
35.019006
33.871984
33.163236
32.227719
31.583441
30.715985
30.075256
29.234544
28.581391
27.759052
27.090478
26.283691
25.601115
24.807444
24.112667
23.330394
22.624969
21.852646
21.137929
20.37429
19.651476
18.895401
18.165547
17.416039
16.680089
15.936256
15.195049
14.456095
13.710382
12.975593
12.226046
11.494782
10.742004
10.013692
9.2582262
8.5323499
7.7746854
7.0507789
6.2913594
5.5689995
4.80823
4.0870283
3.3252827
2.6048777
1.8425043
1.122555
0.35988864
39.264294
37.643894
35.980773
35.017759
33.87149
33.163062
32.227643
31.583415
30.715973
30.075251
29.234543
28.58139
27.759052
27.090478
26.28369
25.601115
24.807444
24.112667
23.330394
22.624969
21.852646
21.13793
20.37429
19.651476
18.895401
18.165547
17.416039
16.680089
15.936256
15.195049
14.456095
13.710382
12.975593
12.226046
11.494782
10.742004
10.013692
9.2582262
8.5323499
7.7746854
7.0507789
6.2913594
5.5689995
4.80823
4.0870284
3.3252827
2.6048778
1.8425042
1.1225552
0.35988864
39.254778
37.638325
35.9787
35.016644
33.871067
33.162919
32.227579
31.583393
30.715963
30.075248
29.234541
28.58139
27.759051
27.090478
26.28369
25.601115
24.807444
24.112667
23.330394
22.62497
21.852646
21.13793
20.37429
19.651476
18.895401
18.165547
17.416039
16.680089
15.936256
15.195049
14.456095
13.710382
12.975593
12.226046
11.494782
10.742004
10.013692
9.2582262
8.5323499
7.7746854
7.0507789
6.2913594
5.5689995
4.8082299
4.0870284
3.3252827
2.6048778
1.8425042
1.1225553
0.35988864
39.246043
37.633546
35.976629
35.01563
33.870689
33.162797
32.227524
31.583375
30.715953
30.075245
29.234538
28.58139
27.75905
27.090478
26.283689
25.601115
24.807443
24.112667
23.330393
22.62497
21.852646
21.13793
20.37429
19.651476
18.895401
18.165547
17.416039
16.680089
15.936256
15.195049
14.456095
13.710382
12.975593
12.226046
11.494782
10.742004
10.013692
9.2582262
8.5323499
7.7746854
7.050779
6.2913594
5.5689995
4.8082299
4.0870284
3.3252826
2.6048778
1.8425042
1.1225554
0.35988863
39.239524
37.629285
35.974569
35.014722
33.870346
33.16269
32.227475
31.58336
30.715944
30.075243
29.234535
28.581391
27.75905
27.090479
26.283689
25.601115
24.807443
24.112667
23.330393
22.62497
21.852646
21.13793
20.37429
19.651476
18.8954
18.165547
17.416039
16.680089
15.936256
15.19505
14.456095
13.710382
12.975593
12.226046
11.494782
10.742004
10.013692
9.2582262
8.5323499
7.7746854
7.050779
6.2913594
5.5689995
4.8082299
4.0870284
3.3252826
2.6048778
1.8425042
1.1225555
0.35988862
39.232639
37.625499
35.972782
35.013924
33.87004
33.162596
32.227432
31.583347
30.715936
30.075241
29.234531
28.581391
27.759049
27.090479
26.283689
25.601116
24.807443
24.112667
23.330393
22.62497
21.852645
21.13793
20.37429
19.651476
18.8954
18.165547
17.416039
16.680089
15.936256
15.19505
14.456095
13.710382
12.975593
12.226046
11.494782
10.742004
10.013692
9.2582262
8.5323499
7.7746854
7.050779
6.2913594
5.5689995
4.8082299
4.0870284
3.3252826
2.6048778
1.8425042
1.1225556
0.3598886
39.227433
37.622107
35.971091
35.013214
33.869766
33.162514
32.227393
31.583335
30.715928
30.07524
29.234527
28.581392
27.759048
27.09048
26.283689
25.601116
24.807443
24.112668
23.330393
22.62497
21.852645
21.13793
20.374289
19.651476
18.8954
18.165548
17.416039
16.680089
15.936256
15.19505
14.456095
13.710382
12.975593
12.226046
11.494782
10.742004
10.013692
9.2582262
8.5323499
7.7746854
7.050779
6.2913594
5.5689996
4.8082299
4.0870284
3.3252826
2.6048778
1.8425042
1.1225557
0.35988858
39.222199
37.618976
35.969631
35.012583
33.869523
33.162443
32.227359
31.583326
30.71592
30.075239
29.234524
28.581393
27.759047
27.09048
26.283689
25.601116
24.807443
24.112668
23.330393
22.62497
21.852645
21.13793
20.374289
19.651476
18.8954
18.165548
17.416039
16.680089
15.936256
15.19505
14.456095
13.710382
12.975593
12.226046
11.494782
10.742004
10.013692
9.2582262
8.5323499
7.7746854
7.050779
6.2913594
5.5689996
4.8082299
4.0870284
3.3252826
2.6048778
1.8425042
1.1225558
0.35988856
39.218076
37.616297
35.968253
35.012027
33.869309
33.162383
32.227329
31.583318
30.715914
30.075238
29.23452
28.581394
27.759045
27.090481
26.283688
25.601116
24.807443
24.112668
23.330393
22.62497
21.852645
21.13793
20.374289
19.651476
18.8954
18.165548
17.416039
16.680089
15.936256
15.19505
14.456095
13.710382
12.975592
12.226046
11.494782
10.742004
10.013692
9.2582262
8.5323499
7.7746854
7.050779
6.2913594
5.5689996
4.8082299
4.0870284
3.3252826
2.6048778
1.8425042
1.1225559
0.35988854
39.214175
37.613773
35.967099
35.011551
33.869128
33.162335
32.227304
31.583312
30.715908
30.075238
29.234516
28.581396
27.759043
27.090482
26.283688
25.601116
24.807442
24.112668
23.330392
22.62497
21.852645
21.13793
20.374289
19.651476
18.8954
18.165548
17.416039
16.680089
15.936256
15.19505
14.456095
13.710382
12.975592
12.226046
11.494782
10.742004
10.013692
9.2582262
8.5323498
7.7746854
7.050779
6.2913594
5.5689996
4.8082299
4.0870284
3.3252826
2.6048779
1.8425042
1.122556
0.35988851
39.210905
37.61176
35.966049
35.011152
33.868979
33.162299
32.227284
31.583308
30.715903
30.075238
29.234513
28.581397
27.759041
27.090483
26.283688
25.601117
24.807442
24.112668
23.330392
22.624971
21.852645
21.137931
20.374289
19.651477
18.8954
18.165548
17.416038
16.680089
15.936256
15.19505
14.456095
13.710382
12.975592
12.226046
11.494782
10.742004
10.013692
9.2582263
8.5323498
7.7746854
7.0507789
6.2913594
5.5689996
4.8082299
4.0870284
3.3252826
2.6048779
1.8425042
1.1225561
0.35988849
39.208082
37.609798
35.965208
35.010826
33.868859
33.162274
32.227269
31.583305
30.715899
30.075238
29.23451
28.581399
27.759039
27.090484
26.283688
25.601117
24.807442
24.112668
23.330392
22.624971
21.852645
21.137931
20.374289
19.651477
18.8954
18.165548
17.416038
16.680089
15.936256
15.19505
14.456095
13.710382
12.975592
12.226046
11.494782
10.742004
10.013692
9.2582263
8.5323498
7.7746854
7.0507789
6.2913594
5.5689996
4.8082299
4.0870284
3.3252825
2.6048779
1.8425042
1.1225561
0.35988846
39.205424
37.608369
35.964468
35.010567
33.868767
33.162259
32.227259
31.583305
30.715896
30.075239
29.234507
28.581402
27.759036
27.090485
26.283688
25.601117
24.807442
24.112668
23.330392
22.624971
21.852645
21.137931
20.374289
19.651477
18.8954
18.165548
17.416038
16.680089
15.936256
15.19505
14.456095
13.710382
12.975592
12.226046
11.494782
10.742004
10.013692
9.2582263
8.5323498
7.7746855
7.0507789
6.2913594
5.5689996
4.8082299
4.0870284
3.3252825
2.6048779
1.8425042
1.1225562
0.35988844
39.203487
37.606876
35.963898
35.010366
33.868701
33.162253
32.227253
31.583306
30.715894
30.07524
29.234505
28.581404
27.759034
27.090486
26.283688
25.601117
24.807442
24.112668
23.330392
22.624971
21.852645
21.137931
20.374289
19.651477
18.8954
18.165548
17.416038
16.68009
15.936255
15.19505
14.456095
13.710382
12.975592
12.226046
11.494782
10.742004
10.013692
9.2582263
8.5323498
7.7746855
7.0507789
6.2913594
5.5689995
4.8082299
4.0870284
3.3252825
2.6048779
1.8425043
1.1225563
0.35988841
39.201165
37.605897
35.963417
35.010218
33.868655
33.162255
32.227251
31.583309
30.715892
30.075241
29.234502
28.581407
27.75903
27.090487
26.283688
25.601117
24.807442
24.112669
23.330392
22.624971
21.852645
21.137931
20.374289
19.651477
18.8954
18.165548
17.416038
16.68009
15.936255
15.19505
14.456095
13.710382
12.975592
12.226046
11.494782
10.742004
10.013692
9.2582263
8.5323498
7.7746855
7.0507789
6.2913594
5.5689995
4.8082299
4.0870284
3.3252825
2.6048779
1.8425043
1.1225563
0.35988839
39.20002
37.604821
35.963071
35.010116
33.86863
33.162263
32.227252
31.583313
30.715891
30.075243
29.2345
28.58141
27.759027
27.090489
26.283688
25.601118
24.807442
24.112669
23.330392
22.624971
21.852645
21.137931
20.374289
19.651477
18.8954
18.165548
17.416038
16.68009
15.936255
15.19505
14.456095
13.710382
12.975592
12.226046
11.494782
10.742004
10.013692
9.2582263
8.5323498
7.7746855
7.0507789
6.2913594
5.5689995
4.8082299
4.0870284
3.3252825
2.6048778
1.8425043
1.1225563
0.35988838
39.198042
37.604167
35.962808
35.01006
33.868622
33.162278
32.227256
31.583318
30.715891
30.075245
29.234497
28.581413
27.759024
27.09049
26.283688
25.601118
24.807442
24.112669
23.330392
22.624971
21.852645
21.137931
20.374289
19.651477
18.8954
18.165548
17.416038
16.68009
15.936255
15.19505
14.456094
13.710382
12.975592
12.226046
11.494782
10.742004
10.013692
9.2582263
8.5323498
7.7746855
7.0507789
6.2913594
5.5689995
4.8082299
4.0870284
3.3252825
2.6048778
1.8425043
1.1225564
0.35988837
39.197415
37.603493
35.962666
35.010043
33.868632
33.162297
32.227263
31.583324
30.715891
30.075248
29.234495
28.581416
27.759021
27.090492
26.283687
25.601118
24.807442
24.112669
23.330392
22.624971
21.852644
21.137931
20.374289
19.651477
18.8954
18.165548
17.416038
16.68009
15.936255
15.19505
14.456094
13.710382
12.975592
12.226046
11.494782
10.742004
10.013692
9.2582263
8.5323498
7.7746855
7.0507789
6.2913594
5.5689995
4.8082299
4.0870284
3.3252825
2.6048778
1.8425043
1.1225563
0.35988837
39.195954
37.603137
35.962584
35.010059
33.868653
33.16232
32.227272
31.583331
30.715892
30.07525
29.234494
28.58142
27.759017
27.090494
26.283686
25.601119
24.807442
24.112669
23.330392
22.624971
21.852644
21.137931
20.374289
19.651477
18.8954
18.165548
17.416038
16.68009
15.936255
15.19505
14.456094
13.710382
12.975592
12.226046
11.494782
10.742004
10.013692
9.2582263
8.5323498
7.7746855
7.0507789
6.2913594
5.5689995
4.8082299
4.0870284
3.3252825
2.6048778
1.8425044
1.1225563
0.35988838
39.195795
37.602774
35.962581
35.010097
33.868682
33.162342
32.227281
31.583337
30.715894
30.075252
29.234493
28.581422
27.759015
27.090497
26.283683
25.60112
24.807442
24.112669
23.330392
22.624971
21.852644
21.137931
20.374289
19.651477
18.8954
18.165548
17.416038
16.68009
15.936255
15.19505
14.456094
13.710382
12.975592
12.226046
11.494782
10.742004
10.013692
9.2582263
8.5323498
7.7746855
7.0507789
6.2913594
5.5689995
4.8082299
4.0870284
3.3252826
2.6048778
1.8425044
1.1225562
0.35988841
39.194898
37.602664
35.962604
35.010142
33.86871
33.162362
32.22729
31.583341
30.715897
30.075252
29.234496
28.58142
27.759016
27.090498
26.283682
25.60112
24.807441
24.112669
23.330392
22.624971
21.852644
21.137931
20.374289
19.651477
18.8954
18.165548
17.416038
16.68009
15.936255
15.19505
14.456094
13.710382
12.975592
12.226046
11.494781
10.742004
10.013692
9.2582264
8.5323497
7.7746855
7.0507789
6.2913594
5.5689995
4.8082299
4.0870284
3.3252826
2.6048778
1.8425044
1.1225561
0.35988846
39.195143
37.602558
35.962651
35.010168
33.868727
33.162372
32.227295
31.583343
30.715899
30.07525
29.234499
28.581417
27.75902
27.090496
26.283683
25.60112
24.807441
24.112669
23.330391
22.624971
21.852644
21.137931
20.374289
19.651476
18.8954
18.165548
17.416038
16.68009
15.936255
15.19505
14.456094
13.710382
12.975592
12.226046
11.494781
10.742004
10.013692
9.2582264
8.5323497
7.7746856
7.0507788
6.2913595
5.5689995
4.80823
4.0870283
3.3252826
2.6048777
1.8425045
1.122556
0.3598885
39.194707
37.602588
35.962653
35.01016
33.868725
33.162371
32.227295
31.583343
30.715899
30.07525
29.234499
28.581417
27.75902
27.090496
26.283683
25.60112
24.807441
24.112669
23.330391
22.624971
21.852644
21.137931
20.374289
19.651476
18.8954
18.165548
17.416038
16.68009
15.936255
15.19505
14.456094
13.710382
12.975592
12.226046
11.494781
10.742004
10.013692
9.2582264
8.5323497
7.7746856
7.0507788
6.2913595
5.5689995
4.80823
4.0870283
3.3252826
2.6048777
1.8425045
1.122556
0.3598885
39.195384
37.602577
35.962615
35.010118
33.868706
33.162358
32.227289
31.583341
30.715897
30.075251
29.234496
28.58142
27.759016
27.090498
26.283682
25.60112
24.807441
24.112669
23.330392
22.624971
21.852644
21.137931
20.374289
19.651477
18.8954
18.165548
17.416038
16.68009
15.936255
15.19505
14.456094
13.710382
12.975592
12.226046
11.494781
10.742004
10.013692
9.2582264
8.5323497
7.7746855
7.0507789
6.2913594
5.5689995
4.8082299
4.0870284
3.3252826
2.6048778
1.8425044
1.1225561
0.35988846
39.195356
37.602787
35.962566
35.010066
33.868676
33.162337
32.22728
31.583336
30.715894
30.075252
29.234493
28.581422
27.759015
27.090497
26.283683
25.60112
24.807442
24.112669
23.330392
22.624971
21.852644
21.137931
20.374289
19.651477
18.8954
18.165548
17.416038
16.68009
15.936255
15.19505
14.456094
13.710382
12.975592
12.226046
11.494782
10.742004
10.013692
9.2582263
8.5323498
7.7746855
7.0507789
6.2913594
5.5689995
4.8082299
4.0870284
3.3252826
2.6048778
1.8425044
1.1225562
0.35988841
39.19645
37.603059
35.962556
35.010019
33.868645
33.162313
32.22727
31.583331
30.715892
30.07525
29.234494
28.58142
27.759017
27.090494
26.283686
25.601119
24.807442
24.112669
23.330392
22.624971
21.852644
21.137931
20.374289
19.651477
18.8954
18.165548
17.416038
16.68009
15.936255
15.19505
14.456094
13.710382
12.975592
12.226046
11.494782
10.742004
10.013692
9.2582263
8.5323498
7.7746855
7.0507789
6.2913594
5.5689995
4.8082299
4.0870284
3.3252825
2.6048778
1.8425044
1.1225563
0.35988838
39.196894
37.603531
35.962615
35.009992
33.868621
33.162288
32.227261
31.583324
30.715891
30.075248
29.234495
28.581416
27.759021
27.090492
26.283687
25.601118
24.807442
24.112669
23.330392
22.624971
21.852644
21.137931
20.374289
19.651477
18.8954
18.165548
17.416038
16.68009
15.936255
15.19505
14.456094
13.710382
12.975592
12.226046
11.494782
10.742004
10.013692
9.2582263
8.5323498
7.7746855
7.0507789
6.2913594
5.5689995
4.8082299
4.0870284
3.3252825
2.6048778
1.8425043
1.1225563
0.35988837
39.198549
37.604082
35.962749
35.009997
33.868609
33.162266
32.227253
31.583318
30.715891
30.075245
29.234497
28.581413
27.759024
27.09049
26.283688
25.601118
24.807442
24.112669
23.330392
22.624971
21.852645
21.137931
20.374289
19.651477
18.8954
18.165548
17.416038
16.68009
15.936255
15.19505
14.456094
13.710382
12.975592
12.226046
11.494782
10.742004
10.013692
9.2582263
8.5323498
7.7746855
7.0507789
6.2913594
5.5689995
4.8082299
4.0870284
3.3252825
2.6048778
1.8425043
1.1225563
0.35988837
39.199483
37.604901
35.963
35.010042
33.868612
33.16225
32.227248
31.583312
30.715891
30.075243
29.2345
28.58141
27.759027
27.090489
26.283688
25.601118
24.807442
24.112669
23.330392
22.624971
21.852645
21.137931
20.374289
19.651477
18.8954
18.165548
17.416038
16.68009
15.936255
15.19505
14.456095
13.710382
12.975592
12.226046
11.494782
10.742004
10.013692
9.2582263
8.5323498
7.7746855
7.0507789
6.2913594
5.5689995
4.8082299
4.0870284
3.3252825
2.6048778
1.8425043
1.1225563
0.35988838
39.201544
37.605765
35.963335
35.010133
33.868635
33.162239
32.227247
31.583308
30.715892
30.075241
29.234502
28.581407
27.75903
27.090487
26.283688
25.601117
24.807442
24.112668
23.330392
22.624971
21.852645
21.137931
20.374289
19.651477
18.8954
18.165548
17.416038
16.68009
15.936255
15.19505
14.456095
13.710382
12.975592
12.226046
11.494782
10.742004
10.013692
9.2582263
8.5323498
7.7746855
7.0507789
6.2913594
5.5689995
4.8082299
4.0870284
3.3252825
2.6048779
1.8425043
1.1225563
0.35988839
39.203112
37.607033
35.963814
35.010274
33.868678
33.162235
32.227249
31.583306
30.715894
30.07524
29.234504
28.581404
27.759033
27.090486
26.283688
25.601117
24.807442
24.112668
23.330392
22.624971
21.852645
21.137931
20.374289
19.651477
18.8954
18.165548
17.416038
16.68009
15.936255
15.19505
14.456095
13.710382
12.975592
12.226046
11.494782
10.742004
10.013692
9.2582263
8.5323498
7.7746855
7.0507789
6.2913594
5.5689995
4.8082299
4.0870284
3.3252825
2.6048779
1.8425043
1.1225563
0.35988841
39.20541
37.608197
35.964379
35.010467
33.868743
33.16224
32.227254
31.583305
30.715896
30.075239
29.234507
28.581402
27.759036
27.090485
26.283688
25.601117
24.807442
24.112668
23.330392
22.624971
21.852645
21.137931
20.374289
19.651477
18.8954
18.165548
17.416038
16.680089
15.936256
15.19505
14.456095
13.710382
12.975592
12.226046
11.494782
10.742004
10.013692
9.2582263
8.5323498
7.7746855
7.0507789
6.2913594
5.5689996
4.8082299
4.0870284
3.3252825
2.6048779
1.8425042
1.1225562
0.35988844
39.20795
37.609939
35.965102
35.010719
33.868832
33.162253
32.227263
31.583305
30.715899
30.075238
29.23451
28.581399
27.759039
27.090484
26.283688
25.601117
24.807442
24.112668
23.330392
22.624971
21.852645
21.137931
20.374289
19.651477
18.8954
18.165548
17.416038
16.680089
15.936256
15.19505
14.456095
13.710382
12.975592
12.226046
11.494782
10.742004
10.013692
9.2582263
8.5323498
7.7746854
7.0507789
6.2913594
5.5689996
4.8082299
4.0870284
3.3252825
2.6048779
1.8425042
1.1225561
0.35988846
39.210638
37.611562
35.965952
35.01104
33.86895
33.162276
32.227277
31.583307
30.715903
30.075238
29.234513
28.581397
27.759041
27.090483
26.283688
25.601117
24.807442
24.112668
23.330392
22.624971
21.852645
21.137931
20.374289
19.651477
18.8954
18.165548
17.416038
16.680089
15.936256
15.19505
14.456095
13.710382
12.975592
12.226046
11.494782
10.742004
10.013692
9.2582263
8.5323498
7.7746854
7.050779
6.2913594
5.5689996
4.8082299
4.0870284
3.3252825
2.6048779
1.8425042
1.1225561
0.35988849
39.214301
37.61386
35.96696
35.011431
33.869096
33.16231
32.227296
31.583311
30.715908
30.075238
29.234516
28.581396
27.759043
27.090482
26.283688
25.601116
24.807442
24.112668
23.330392
22.62497
21.852645
21.13793
20.374289
19.651476
18.8954
18.165548
17.416039
16.680089
15.936256
15.19505
14.456095
13.710382
12.975592
12.226046
11.494782
10.742004
10.013692
9.2582262
8.5323498
7.7746854
7.050779
6.2913594
5.5689996
4.8082299
4.0870284
3.3252826
2.6048779
1.8425042
1.122556
0.35988851
39.21756
37.616086
35.968135
35.011903
33.869277
33.162357
32.227321
31.583317
30.715914
30.075238
29.23452
28.581394
27.759045
27.090481
26.283688
25.601116
24.807443
24.112668
23.330393
22.62497
21.852645
21.13793
20.374289
19.651476
18.8954
18.165548
17.416039
16.680089
15.936256
15.19505
14.456095
13.710382
12.975592
12.226046
11.494782
10.742004
10.013692
9.2582262
8.5323499
7.7746854
7.050779
6.2913594
5.5689996
4.8082299
4.0870284
3.3252826
2.6048778
1.8425042
1.1225559
0.35988854
39.222545
37.618991
35.969449
35.01245
33.869488
33.162416
32.22735
31.583325
30.71592
30.075239
29.234523
28.581393
27.759047
27.09048
26.283689
25.601116
24.807443
24.112668
23.330393
22.62497
21.852645
21.13793
20.374289
19.651476
18.8954
18.165548
17.416039
16.680089
15.936256
15.19505
14.456095
13.710382
12.975593
12.226046
11.494782
10.742004
10.013692
9.2582262
8.5323499
7.7746854
7.050779
6.2913594
5.5689996
4.8082299
4.0870284
3.3252826
2.6048778
1.8425042
1.1225558
0.35988856
39.226506
37.621826
35.970957
35.013083
33.869733
33.162488
32.227384
31.583335
30.715928
30.07524
29.234527
28.581392
27.759048
27.09048
26.283689
25.601116
24.807443
24.112668
23.330393
22.62497
21.852645
21.13793
20.374289
19.651476
18.8954
18.165548
17.416039
16.680089
15.936256
15.19505
14.456095
13.710382
12.975593
12.226046
11.494782
10.742004
10.013692
9.2582262
8.5323499
7.7746854
7.050779
6.2913594
5.5689996
4.8082299
4.0870284
3.3252826
2.6048778
1.8425042
1.1225557
0.35988858
39.233251
37.625301
35.972582
35.013801
33.870009
33.162571
32.227423
31.583346
30.715936
30.075241
29.234531
28.581391
27.759049
27.090479
26.283689
25.601116
24.807443
24.112667
23.330393
22.62497
21.852645
21.13793
20.37429
19.651476
18.8954
18.165547
17.416039
16.680089
15.936256
15.19505
14.456095
13.710382
12.975593
12.226046
11.494782
10.742004
10.013692
9.2582262
8.5323499
7.7746854
7.050779
6.2913594
5.5689995
4.8082299
4.0870284
3.3252826
2.6048778
1.8425042
1.1225556
0.3598886
39.239316
37.628896
35.974453
35.014616
33.87032
33.162665
32.227466
31.583359
30.715944
30.075243
29.234534
28.58139
27.75905
27.090479
26.283689
25.601115
24.807443
24.112667
23.330393
22.62497
21.852646
21.13793
20.37429
19.651476
18.8954
18.165547
17.416039
16.680089
15.936256
15.19505
14.456095
13.710382
12.975593
12.226046
11.494782
10.742004
10.013692
9.2582262
8.5323499
7.7746854
7.050779
6.2913594
5.5689995
4.8082299
4.0870284
3.3252826
2.6048778
1.8425042
1.1225555
0.35988862
39.249718
37.634001
35.976477
35.015531
33.870658
33.16277
32.227514
31.583374
30.715953
30.075245
29.234537
28.58139
27.75905
27.090478
26.28369
25.601115
24.807443
24.112667
23.330393
22.62497
21.852646
21.13793
20.37429
19.651476
18.895401
18.165547
17.416039
16.680089
15.936256
15.195049
14.456095
13.710382
12.975593
12.226046
11.494782
10.742004
10.013692
9.2582262
8.5323499
7.7746854
7.050779