/*--------------------------------*- C++ -*----------------------------------*\
| =========                 |                                                 |
| \\      /  F ield         | OpenFOAM: The Open Source CFD Toolbox           |
|  \\    /   O peration     | Version:  2312                                  |
|   \\  /    A nd           | Website:  www.openfoam.com                      |
|    \\/     M anipulation  |                                                 |
\*---------------------------------------------------------------------------*/
FoamFile
{
    version     2.0;
    format      ascii;
    arch        "LSB;label=32;scalar=64";
    class       volSymmTensorField;
    location    "2";
    object      sigma_0;
}
// * * * * * * * * * * * * * * * * * * * * * * * * * * * * * * * * * * * * * //

dimensions      [0 2 -2 0 0 0 0];

internalField   nonuniform List<symmTensor> 
4000
(
(-3.8097082 -1.7587428 0 -0.75770177 0 0)
(-13.119584 -0.71804796 0 -0.012359501 0 0)
(-4.256916 -0.37764593 0 -0.0024078704 0 0)
(-4.7424363 -0.39603727 0 0.00026557346 0 0)
(-4.2457086 -0.37685667 0 -0.00020453608 0 0)
(-4.1747561 -0.37293218 0 1.6789199e-05 0 0)
(-4.1609343 -0.37272687 0 -5.686032e-05 0 0)
(-4.0828996 -0.36881451 0 9.6261652e-06 0 0)
(-4.1064528 -0.37014229 0 -2.6210988e-05 0 0)
(-4.0719291 -0.36830472 0 1.6290736e-05 0 0)
(-4.0917732 -0.36942492 0 -1.9850209e-05 0 0)
(-4.0685724 -0.36816909 0 1.6723372e-05 0 0)
(-4.0903407 -0.36933867 0 -1.5601409e-05 0 0)
(-4.0686739 -0.36818954 0 1.355255e-05 0 0)
(-4.0885321 -0.36923932 0 -1.2107165e-05 0 0)
(-4.0705176 -0.36828854 0 1.0721189e-05 0 0)
(-4.0866047 -0.36913814 0 -9.4916883e-06 0 0)
(-4.0723093 -0.3683826 0 8.3241892e-06 0 0)
(-4.0849073 -0.3690494 0 -7.2518621e-06 0 0)
(-4.07386 -0.36846389 0 6.2355671e-06 0 0)
(-4.0834672 -0.36897391 0 -5.2938698e-06 0 0)
(-4.0751757 -0.36853305 0 4.4069439e-06 0 0)
(-4.0822578 -0.36891019 0 -3.5832841e-06 0 0)
(-4.0762784 -0.36859131 0 2.8102213e-06 0 0)
(-4.0812526 -0.36885689 0 -2.092542e-06 0 0)
(-4.0771896 -0.36863984 0 1.4216319e-06 0 0)
(-4.0804309 -0.36881285 0 -7.9679636e-07 0 0)
(-4.0779263 -0.36867958 0 2.1371747e-07 0 0)
(-4.0797769 -0.36877731 0 3.2334879e-07 0 0)
(-4.0785028 -0.36871109 0 -8.1794282e-07 0 0)
(-4.07927 -0.36874947 0 1.2841561e-06 0 0)
(-4.0789462 -0.36873574 0 -1.7047489e-06 0 0)
(-4.0788869 -0.36872789 0 2.0550108e-06 0 0)
(-4.0792684 -0.36875424 0 -2.379374e-06 0 0)
(-4.0786179 -0.36871212 0 2.7056014e-06 0 0)
(-4.0794885 -0.36876756 0 -3.00446e-06 0 0)
(-4.0784435 -0.36870116 0 3.2762035e-06 0 0)
(-4.0796195 -0.36877629 0 -3.5216413e-06 0 0)
(-4.078352 -0.36869449 0 3.7429343e-06 0 0)
(-4.0796739 -0.36878106 0 -3.9412233e-06 0 0)
(-4.0783305 -0.36869144 0 4.1177493e-06 0 0)
(-4.0796646 -0.36878252 0 -4.2738795e-06 0 0)
(-4.0783673 -0.36869143 0 4.4098547e-06 0 0)
(-4.0796017 -0.36878118 0 -4.5295246e-06 0 0)
(-4.078446 -0.36869368 0 4.6274716e-06 0 0)
(-4.0794921 -0.36877736 0 -4.7098797e-06 0 0)
(-4.078572 -0.36869823 0 4.8026043e-06 0 0)
(-4.0794457 -0.36877579 0 -4.7861663e-06 0 0)
(-4.0790364 -0.36871726 0 5.0720311e-06 0 0)
(-4.08006 -0.36880485 0 -5.078266e-06 0 0)
(-3.3409655 -1.6293554 0 -0.72630266 0 0)
(-10.726405 -0.69836261 0 -0.026895044 0 0)
(-5.0261627 -0.42901701 0 -0.007152612 0 0)
(-4.3917825 -0.3794213 0 0.00026294211 0 0)
(-3.946436 -0.36475377 0 -0.00051930362 0 0)
(-3.8540796 -0.35842792 0 -1.6871127e-05 0 0)
(-3.851183 -0.35885142 0 -0.0001104729 0 0)
(-3.7867831 -0.3552625 0 -1.8508614e-05 0 0)
(-3.8026138 -0.35623485 0 -3.6195028e-05 0 0)
(-3.7756304 -0.35465765 0 1.1052553e-05 0 0)
(-3.7901273 -0.35557742 0 -2.4887374e-05 0 0)
(-3.7717617 -0.35445983 0 1.8267188e-05 0 0)
(-3.788633 -0.35548062 0 -1.7772523e-05 0 0)
(-3.7718718 -0.3544859 0 1.4574013e-05 0 0)
(-3.7869949 -0.35537856 0 -1.2979106e-05 0 0)
(-3.7734058 -0.35457853 0 1.1390527e-05 0 0)
(-3.7853996 -0.35528571 0 -1.0062008e-05 0 0)
(-3.7748661 -0.35466377 0 8.7821688e-06 0 0)
(-3.7840156 -0.35520558 0 -7.6318527e-06 0 0)
(-3.7761186 -0.35473675 0 6.5278128e-06 0 0)
(-3.7828499 -0.35513782 0 -5.5145728e-06 0 0)
(-3.7771741 -0.3547985 0 4.5540199e-06 0 0)
(-3.7818781 -0.35508097 0 -3.6657015e-06 0 0)
(-3.7780515 -0.35485018 0 2.833867e-06 0 0)
(-3.7810795 -0.35503383 0 -2.0628444e-06 0 0)
(-3.7787647 -0.35489265 0 1.3355785e-06 0 0)
(-3.7804391 -0.35499561 0 -6.5233805e-07 0 0)
(-3.7793346 -0.35492687 0 6.857691e-09 0 0)
(-3.779929 -0.35496476 0 5.9838031e-07 0 0)
(-3.7797786 -0.35495418 0 -1.1069396e-06 0 0)
(-3.7795585 -0.35494143 0 1.5334864e-06 0 0)
(-3.7800914 -0.35497413 0 -1.9581526e-06 0 0)
(-3.779291 -0.3549241 0 2.3719143e-06 0 0)
(-3.7803176 -0.35498902 0 -2.7506161e-06 0 0)
(-3.7791105 -0.35491175 0 3.100073e-06 0 0)
(-3.7804576 -0.35499906 0 -3.4191254e-06 0 0)
(-3.7790104 -0.35490395 0 3.7093727e-06 0 0)
(-3.780523 -0.35500485 0 -3.9720499e-06 0 0)
(-3.7789791 -0.35490007 0 4.2089237e-06 0 0)
(-3.7805248 -0.35500702 0 -4.4218043e-06 0 0)
(-3.7790056 -0.3548995 0 4.6114439e-06 0 0)
(-3.7804738 -0.35500615 0 -4.779824e-06 0 0)
(-3.7790801 -0.35490172 0 4.9267685e-06 0 0)
(-3.7803791 -0.35500278 0 -5.0600534e-06 0 0)
(-3.7791893 -0.35490601 0 5.162654e-06 0 0)
(-3.7802429 -0.35499702 0 -5.2606935e-06 0 0)
(-3.7793253 -0.35491156 0 5.3943691e-06 0 0)
(-3.7801248 -0.354991 0 -5.2583538e-06 0 0)
(-3.7796895 -0.3549258 0 6.0048662e-06 0 0)
(-3.7805349 -0.3550132 0 -5.6951346e-06 0 0)
(-3.1073572 -1.5225374 0 -0.66431353 0 0)
(-8.9132154 -0.63854566 0 -0.030631675 0 0)
(-4.9823473 -0.44209843 0 -0.010821418 0 0)
(-4.2681202 -0.37379223 0 1.8148371e-05 0 0)
(-3.7578735 -0.35663867 0 -0.00077464115 0 0)
(-3.6486344 -0.34877757 0 -4.6324717e-05 0 0)
(-3.6466435 -0.3493522 0 -0.00014262085 0 0)
(-3.5927948 -0.34611813 0 -4.1791207e-05 0 0)
(-3.605798 -0.34691944 0 -4.1154913e-05 0 0)
(-3.5830539 -0.34550827 0 5.1911484e-06 0 0)
(-3.5948332 -0.34631059 0 -2.6860293e-05 0 0)
(-3.5793474 -0.34529137 0 1.7408492e-05 0 0)
(-3.5933767 -0.34620859 0 -1.764736e-05 0 0)
(-3.5794228 -0.34531816 0 1.380528e-05 0 0)
(-3.5919026 -0.34610867 0 -1.2317338e-05 0 0)
(-3.5807615 -0.34540516 0 1.0750344e-05 0 0)
(-3.5905111 -0.34602214 0 -9.4898258e-06 0 0)
(-3.5820331 -0.34548444 0 8.2585982e-06 0 0)
(-3.589313 -0.34594801 0 -7.1712675e-06 0 0)
(-3.5831195 -0.34555198 0 6.1137613e-06 0 0)
(-3.5883075 -0.34588552 0 -5.1519459e-06 0 0)
(-3.5840317 -0.34560892 0 4.2375032e-06 0 0)
(-3.5874737 -0.34583336 0 -3.4006561e-06 0 0)
(-3.5847845 -0.34565624 0 2.6135207e-06 0 0)
(-3.5867962 -0.34579061 0 -1.8758871e-06 0 0)
(-3.5853915 -0.34569458 0 1.1748903e-06 0 0)
(-3.5862489 -0.34575599 0 -5.074703e-07 0 0)
(-3.5858819 -0.34572608 0 -1.1964109e-07 0 0)
(-3.585834 -0.34572842 0 6.3566994e-07 0 0)
(-3.5862223 -0.34574929 0 -1.0877886e-06 0 0)
(-3.5855365 -0.34570821 0 1.5463608e-06 0 0)
(-3.5864824 -0.34576704 0 -1.974471e-06 0 0)
(-3.5853209 -0.3456932 0 2.3664419e-06 0 0)
(-3.5866549 -0.34577942 0 -2.7244327e-06 0 0)
(-3.5851868 -0.34568314 0 3.0540475e-06 0 0)
(-3.5867522 -0.34578727 0 -3.3557316e-06 0 0)
(-3.5851232 -0.34567733 0 3.6303135e-06 0 0)
(-3.5867838 -0.34579115 0 -3.879423e-06 0 0)
(-3.5851204 -0.3456752 0 4.104126e-06 0 0)
(-3.5867597 -0.34579164 0 -4.3068881e-06 0 0)
(-3.5851684 -0.34567619 0 4.4876208e-06 0 0)
(-3.5866892 -0.3457893 0 -4.6489724e-06 0 0)
(-3.5852589 -0.34567977 0 4.7904027e-06 0 0)
(-3.5865806 -0.34578464 0 -4.9218034e-06 0 0)
(-3.5853801 -0.34568531 0 5.0182796e-06 0 0)
(-3.5864352 -0.34577775 0 -5.1250681e-06 0 0)
(-3.5855219 -0.34569177 0 5.266423e-06 0 0)
(-3.5862949 -0.34576972 0 -5.082925e-06 0 0)
(-3.5858455 -0.3457042 0 6.063434e-06 0 0)
(-3.5865855 -0.34578916 0 -5.9834188e-06 0 0)
(-2.8933619 -1.4207112 0 -0.60821682 0 0)
(-7.9154267 -0.61111433 0 -0.034389404 0 0)
(-4.8917422 -0.45313503 0 -0.014596267 0 0)
(-4.1579235 -0.36859363 0 -0.00020714451 0 0)
(-3.5914624 -0.34934355 0 -0.0010991257 0 0)
(-3.4543756 -0.33934306 0 -8.6249099e-05 0 0)
(-3.4489832 -0.33986964 0 -0.00017521318 0 0)
(-3.4031941 -0.33695694 0 -6.6996346e-05 0 0)
(-3.4145287 -0.33760705 0 -4.4060003e-05 0 0)
(-3.3951945 -0.33635367 0 -2.5635081e-06 0 0)
(-3.4049999 -0.33704856 0 -2.7391963e-05 0 0)
(-3.3917606 -0.33612235 0 1.5130941e-05 0 0)
(-3.4035552 -0.33693959 0 -1.6236476e-05 0 0)
(-3.3918151 -0.33614929 0 1.1846396e-05 0 0)
(-3.4021957 -0.33684141 0 -1.0580818e-05 0 0)
(-3.3929964 -0.33623058 0 9.1515209e-06 0 0)
(-3.4009572 -0.33676078 0 -8.0621943e-06 0 0)
(-3.3941165 -0.33630396 0 6.9797012e-06 0 0)
(-3.399901 -0.33669232 0 -6.0472838e-06 0 0)
(-3.3950706 -0.33636616 0 5.1235853e-06 0 0)
(-3.3990175 -0.33663481 0 -4.3009972e-06 0 0)
(-3.3958682 -0.33641831 0 3.519917e-06 0 0)
(-3.3982908 -0.33658726 0 -2.8072596e-06 0 0)
(-3.3965193 -0.33646098 0 2.1258393e-06 0 0)
(-3.3977016 -0.33654889 0 -1.4928329e-06 0 0)
(-3.397056 -0.33649596 0 8.7605385e-07 0 0)
(-3.3972258 -0.33651675 0 -2.6801477e-07 0 0)
(-3.3974461 -0.33652378 0 -2.5994892e-07 0 0)
(-3.3969023 -0.33649355 0 7.0822491e-07 0 0)
(-3.3977362 -0.33654402 0 -1.1282931e-06 0 0)
(-3.3966468 -0.33647573 0 1.5188255e-06 0 0)
(-3.3979485 -0.33655914 0 -1.8841338e-06 0 0)
(-3.3964761 -0.33646324 0 2.2206111e-06 0 0)
(-3.3980813 -0.3365692 0 -2.5280406e-06 0 0)
(-3.3963781 -0.33645538 0 2.8098718e-06 0 0)
(-3.3981467 -0.336575 0 -3.0679313e-06 0 0)
(-3.3963432 -0.33645151 0 3.3026974e-06 0 0)
(-3.3981534 -0.33657707 0 -3.516017e-06 0 0)
(-3.3963624 -0.33645109 0 3.7083362e-06 0 0)
(-3.3981104 -0.33657598 0 -3.882456e-06 0 0)
(-3.3964269 -0.33645357 0 4.0375732e-06 0 0)
(-3.3980261 -0.33657224 0 -4.1766006e-06 0 0)
(-3.3965292 -0.33645846 0 4.2987764e-06 0 0)
(-3.397908 -0.33656637 0 -4.4156388e-06 0 0)
(-3.3966593 -0.33646522 0 4.4937775e-06 0 0)
(-3.3977567 -0.33655842 0 -4.5981578e-06 0 0)
(-3.3968048 -0.33647255 0 4.7397805e-06 0 0)
(-3.3975994 -0.33654837 0 -4.4551263e-06 0 0)
(-3.3970902 -0.33648325 0 5.723133e-06 0 0)
(-3.3977813 -0.33656462 0 -5.7667591e-06 0 0)
(-2.8484697 -1.3728409 0 -0.56945977 0 0)
(-6.9092961 -0.57326786 0 -0.03615921 0 0)
(-4.685734 -0.45666599 0 -0.017774436 0 0)
(-4.0280526 -0.36294764 0 -0.00045415981 0 0)
(-3.435293 -0.3421914 0 -0.0014382171 0 0)
(-3.2696334 -0.33001352 0 -0.00012462591 0 0)
(-3.2575937 -0.33034389 0 -0.00020223498 0 0)
(-3.2176908 -0.32772077 0 -8.4789253e-05 0 0)
(-3.2283268 -0.32828329 0 -4.5864785e-05 0 0)
(-3.2120314 -0.3271804 0 -9.2297505e-06 0 0)
(-3.2203727 -0.32778692 0 -2.7655356e-05 0 0)
(-3.209071 -0.32694884 0 1.2974441e-05 0 0)
(-3.2190016 -0.32767362 0 -1.4814001e-05 0 0)
(-3.2091241 -0.3269761 0 9.9926808e-06 0 0)
(-3.217751 -0.32757791 0 -8.9351257e-06 0 0)
(-3.2101734 -0.3270521 0 7.6551215e-06 0 0)
(-3.2166419 -0.32750276 0 -6.725635e-06 0 0)
(-3.2111669 -0.32712015 0 5.7865072e-06 0 0)
(-3.2157044 -0.32743943 0 -5.0014074e-06 0 0)
(-3.2120118 -0.32717758 0 4.2144028e-06 0 0)
(-3.2149241 -0.32738654 0 -3.5375272e-06 0 0)
(-3.2127116 -0.32722514 0 2.8825285e-06 0 0)
(-3.214289 -0.32734363 0 -2.2874548e-06 0 0)
(-3.2132881 -0.32726366 0 1.7300502e-06 0 0)
(-3.2137563 -0.32730779 0 -1.1641302e-06 0 0)
(-3.2137441 -0.32729632 0 5.3613728e-07 0 0)
(-3.2133917 -0.3272801 0 -5.8621752e-09 0 0)
(-3.2140623 -0.32731977 0 -4.0470498e-07 0 0)
(-3.2131 -0.32725937 0 7.8970191e-07 0 0)
(-3.2143137 -0.32733777 0 -1.1473591e-06 0 0)
(-3.2128896 -0.32724409 0 1.480027e-06 0 0)
(-3.2144847 -0.32735044 0 -1.786786e-06 0 0)
(-3.2127558 -0.32723389 0 2.0688093e-06 0 0)
(-3.2145846 -0.32735839 0 -2.3273559e-06 0 0)
(-3.2126873 -0.32722802 0 2.5644814e-06 0 0)
(-3.2146237 -0.32736232 0 -2.7813285e-06 0 0)
(-3.2126755 -0.3272259 0 2.9786052e-06 0 0)
(-3.2146103 -0.32736275 0 -3.1578115e-06 0 0)
(-3.2127122 -0.32722701 0 3.3193986e-06 0 0)
(-3.2145522 -0.32736023 0 -3.4659308e-06 0 0)
(-3.2127895 -0.32723083 0 3.5963857e-06 0 0)
(-3.214457 -0.32735522 0 -3.7134445e-06 0 0)
(-3.2129007 -0.32723691 0 3.8166921e-06 0 0)
(-3.2143318 -0.32734826 0 -3.9181494e-06 0 0)
(-3.2130371 -0.32724475 0 3.977615e-06 0 0)
(-3.2141769 -0.32733937 0 -4.0785212e-06 0 0)
(-3.2131856 -0.32725296 0 4.2105143e-06 0 0)
(-3.2140095 -0.3273277 0 -3.8390682e-06 0 0)
(-3.2134411 -0.32726244 0 5.3443518e-06 0 0)
(-3.214104 -0.3273408 0 -5.4762136e-06 0 0)
(-2.7712798 -1.2941355 0 -0.51227886 0 0)
(-5.9367165 -0.53881406 0 -0.037529891 0 0)
(-4.4149185 -0.45487735 0 -0.020170387 0 0)
(-3.8611925 -0.35693693 0 -0.00093712393 0 0)
(-3.2932129 -0.33609205 0 -0.0019042837 0 0)
(-3.0994578 -0.3211785 0 -0.00018880234 0 0)
(-3.0758806 -0.32097549 0 -0.00023450963 0 0)
(-3.0374282 -0.31844975 0 -9.5457893e-05 0 0)
(-3.0473355 -0.31895247 0 -4.6983195e-05 0 0)
(-3.0337312 -0.31799261 0 -1.4458107e-05 0 0)
(-3.0409109 -0.31852528 0 -2.7974854e-05 0 0)
(-3.0313476 -0.31777229 0 1.1219463e-05 0 0)
(-3.0396622 -0.31841014 0 -1.3651748e-05 0 0)
(-3.0314134 -0.31779992 0 8.4670134e-06 0 0)
(-3.0385191 -0.31831738 0 -7.5804446e-06 0 0)
(-3.0323467 -0.31787085 0 6.4358585e-06 0 0)
(-3.037524 -0.31824737 0 -5.6329337e-06 0 0)
(-3.0332289 -0.31793395 0 4.8163094e-06 0 0)
(-3.03669 -0.31818879 0 -4.1646562e-06 0 0)
(-3.0339765 -0.3179868 0 3.5057154e-06 0 0)
(-3.036004 -0.31814059 0 -2.9501232e-06 0 0)
(-3.0345908 -0.31802961 0 2.4131811e-06 0 0)
(-3.0354324 -0.31810143 0 -1.9467617e-06 0 0)
(-3.0351149 -0.31806649 0 1.3666135e-06 0 0)
(-3.0349962 -0.31806825 0 -7.1073397e-07 0 0)
(-3.0354592 -0.31809377 0 2.0373595e-07 0 0)
(-3.0346815 -0.31804455 0 1.731283e-07 0 0)
(-3.0357508 -0.31811508 0 -5.2881216e-07 0 0)
(-3.0344328 -0.31802625 0 8.5745251e-07 0 0)
(-3.0359589 -0.31813054 0 -1.1628871e-06 0 0)
(-3.0342622 -0.31801338 0 1.4446872e-06 0 0)
(-3.036094 -0.31814094 0 -1.7039389e-06 0 0)
(-3.0341604 -0.31800528 0 1.9424566e-06 0 0)
(-3.0361654 -0.31814693 0 -2.1612653e-06 0 0)
(-3.0341172 -0.31800124 0 2.3617046e-06 0 0)
(-3.0361821 -0.31814914 0 -2.5448086e-06 0 0)
(-3.0341251 -0.31800073 0 2.7112921e-06 0 0)
(-3.0361514 -0.31814807 0 -2.8624183e-06 0 0)
(-3.0341766 -0.31800325 0 2.9986265e-06 0 0)
(-3.0360808 -0.31814423 0 -3.1222967e-06 0 0)
(-3.0342645 -0.31800829 0 3.2322175e-06 0 0)
(-3.0359769 -0.31813808 0 -3.3309019e-06 0 0)
(-3.0343828 -0.31801544 0 3.4182841e-06 0 0)
(-3.0358462 -0.31813012 0 -3.5063382e-06 0 0)
(-3.0345238 -0.31802427 0 3.5497409e-06 0 0)
(-3.0356891 -0.3181204 0 -3.6479977e-06 0 0)
(-3.0346744 -0.3180333 0 3.7678226e-06 0 0)
(-3.0355152 -0.31810738 0 -3.3271139e-06 0 0)
(-3.0349052 -0.31804192 0 5.0218507e-06 0 0)
(-3.0355393 -0.31811729 0 -5.1900508e-06 0 0)
(-2.7075365 -1.2335371 0 -0.47388072 0 0)
(-4.951796 -0.50774376 0 -0.039769651 0 0)
(-4.128887 -0.45056231 0 -0.021532482 0 0)
(-3.5887894 -0.34614616 0 -0.0015625922 0 0)
(-3.0970239 -0.32749793 0 -0.0023203827 0 0)
(-2.9224933 -0.31189778 0 -0.00023775696 0 0)
(-2.8961276 -0.31144965 0 -0.00025758299 0 0)
(-2.8626606 -0.30917437 0 -0.00010104304 0 0)
(-2.8715251 -0.30961505 0 -4.7701729e-05 0 0)
(-2.8603363 -0.3087915 0 -1.8452781e-05 0 0)
(-2.8665749 -0.3092616 0 -2.820656e-05 0 0)
(-2.8586002 -0.30859271 0 9.7865437e-06 0 0)
(-2.8655039 -0.30914809 0 -1.2650797e-05 0 0)
(-2.858701 -0.30862119 0 7.1869358e-06 0 0)
(-2.8644753 -0.30905913 0 -6.4323788e-06 0 0)
(-2.8595354 -0.30868736 0 5.4177306e-06 0 0)
(-2.8635843 -0.30899407 0 -4.7200012e-06 0 0)
(-2.8603185 -0.30874575 0 4.0262733e-06 0 0)
(-2.8628447 -0.3089402 0 -3.5035163e-06 0 0)
(-2.8609749 -0.30879373 0 2.9555532e-06 0 0)
(-2.8622389 -0.30889686 0 -2.5380082e-06 0 0)
(-2.8615374 -0.30883349 0 2.1144311e-06 0 0)
(-2.8617252 -0.30885877 0 -1.4782576e-06 0 0)
(-2.8619464 -0.30886661 0 7.8777062e-07 0 0)
(-2.8613916 -0.30883174 0 -3.5729082e-07 0 0)
(-2.8622599 -0.30889058 0 8.6542021e-10 0 0)
(-2.8611027 -0.30880993 0 3.2654338e-07 0 0)
(-2.8625064 -0.30890924 0 -6.2844956e-07 0 0)
(-2.8608965 -0.30879422 0 9.0902197e-07 0 0)
(-2.8626758 -0.30892227 0 -1.1692657e-06 0 0)
(-2.8607609 -0.30878362 0 1.4080478e-06 0 0)
(-2.8627794 -0.30893055 0 -1.6278072e-06 0 0)
(-2.860687 -0.30877748 0 1.8304711e-06 0 0)
(-2.862826 -0.30893472 0 -2.0160444e-06 0 0)
(-2.860666 -0.30877515 0 2.1855736e-06 0 0)
(-2.8628231 -0.30893533 0 -2.3402942e-06 0 0)
(-2.8606909 -0.30877615 0 2.4808384e-06 0 0)
(-2.8627778 -0.30893286 0 -2.6082816e-06 0 0)
(-2.8607548 -0.30877996 0 2.7230789e-06 0 0)
(-2.8626967 -0.30892782 0 -2.8274314e-06 0 0)
(-2.8608513 -0.30878613 0 2.9199298e-06 0 0)
(-2.8625858 -0.30892061 0 -3.0029927e-06 0 0)
(-2.860975 -0.30879426 0 3.0769371e-06 0 0)
(-2.8624511 -0.30891174 0 -3.1532943e-06 0 0)
(-2.8611194 -0.30880397 0 3.1831259e-06 0 0)
(-2.862293 -0.30890127 0 -3.2795411e-06 0 0)
(-2.8612712 -0.30881378 0 3.3857666e-06 0 0)
(-2.8621152 -0.30888715 0 -2.8955579e-06 0 0)
(-2.8614813 -0.30882183 0 4.7299306e-06 0 0)
(-2.8620833 -0.30889395 0 -4.9043787e-06 0 0)
(-2.7507283 -1.1857406 0 -0.43140705 0 0)
(-4.0085072 -0.48183353 0 -0.044695464 0 0)
(-3.8187084 -0.44022712 0 -0.021565731 0 0)
(-3.3701248 -0.34655287 0 -0.004260758 0 0)
(-2.9434624 -0.32215662 0 -0.0030848541 0 0)
(-2.763745 -0.3034152 0 -0.00034677259 0 0)
(-2.7273654 -0.30219026 0 -0.00029197087 0 0)
(-2.693838 -0.29990094 0 -0.00010390622 0 0)
(-2.7012045 -0.30027894 0 -4.7356094e-05 0 0)
(-2.6920231 -0.29958177 0 -2.1283859e-05 0 0)
(-2.6974185 -0.29999728 0 -2.8222468e-05 0 0)
(-2.6908665 -0.29941103 0 8.5831069e-06 0 0)
(-2.6965262 -0.29988787 0 -1.175263e-05 0 0)
(-2.6910024 -0.29944021 0 6.0725146e-06 0 0)
(-2.6956098 -0.29980309 0 -5.4206697e-06 0 0)
(-2.6917499 -0.29950177 0 4.5426972e-06 0 0)
(-2.6948136 -0.29974283 0 -3.9492696e-06 0 0)
(-2.6924414 -0.29955537 0 3.3837601e-06 0 0)
(-2.6941629 -0.29969407 0 -2.9810307e-06 0 0)
(-2.6930259 -0.29959861 0 2.5866226e-06 0 0)
(-2.6935992 -0.29965285 0 -2.2452073e-06 0 0)
(-2.693517 -0.29963718 0 1.4927353e-06 0 0)
(-2.6932153 -0.29962018 0 -8.1322765e-07 0 0)
(-2.6938441 -0.2996641 0 4.57385e-07 0 0)
(-2.6928993 -0.29959556 0 -1.3103984e-07 0 0)
(-2.6941279 -0.2996862 0 -1.7106374e-07 0 0)
(-2.6926555 -0.29957655 0 4.4793076e-07 0 0)
(-2.6943325 -0.29970221 0 -7.0475886e-07 0 0)
(-2.6924872 -0.2995633 0 9.4280867e-07 0 0)
(-2.6944679 -0.29971298 0 -1.1637741e-06 0 0)
(-2.6923823 -0.29955482 0 1.3654621e-06 0 0)
(-2.6945441 -0.29971928 0 -1.5510228e-06 0 0)
(-2.6923328 -0.29955052 0 1.7223423e-06 0 0)
(-2.694569 -0.29972174 0 -1.8787392e-06 0 0)
(-2.6923309 -0.29954979 0 2.0212041e-06 0 0)
(-2.6945494 -0.29972084 0 -2.1511096e-06 0 0)
(-2.6923702 -0.29955217 0 2.2689549e-06 0 0)
(-2.6944918 -0.29971709 0 -2.3756629e-06 0 0)
(-2.6924444 -0.29955718 0 2.4716919e-06 0 0)
(-2.6944021 -0.29971094 0 -2.5590924e-06 0 0)
(-2.6925478 -0.29956438 0 2.6362743e-06 0 0)
(-2.6942859 -0.29970278 0 -2.7056425e-06 0 0)
(-2.6926755 -0.2995734 0 2.7678057e-06 0 0)
(-2.6941484 -0.29969308 0 -2.833571e-06 0 0)
(-2.6928218 -0.29958391 0 2.8518423e-06 0 0)
(-2.6939905 -0.29968195 0 -2.9466186e-06 0 0)
(-2.692974 -0.29959443 0 3.0385796e-06 0 0)
(-2.6938109 -0.29966693 0 -2.5147138e-06 0 0)
(-2.6931663 -0.29960213 0 4.4437529e-06 0 0)
(-2.6937347 -0.29967077 0 -4.6098089e-06 0 0)
(-2.7751177 -1.1269741 0 -0.38941082 0 0)
(-3.3365899 -0.4613135 0 -0.04767528 0 0)
(-3.4819649 -0.41204916 0 -0.017914983 0 0)
(-3.0676734 -0.33618577 0 -0.0057377476 0 0)
(-2.7450015 -0.31258834 0 -0.0033903762 0 0)
(-2.5922809 -0.29393116 0 -0.00038636887 0 0)
(-2.5585253 -0.29267452 0 -0.00030650249 0 0)
(-2.5296078 -0.29059717 0 -0.00010296122 0 0)
(-2.5359747 -0.2909375 0 -4.6333472e-05 0 0)
(-2.5285967 -0.29035752 0 -2.2927293e-05 0 0)
(-2.533351 -0.29072945 0 -2.7935685e-05 0 0)
(-2.5281102 -0.29022507 0 7.6938343e-06 0 0)
(-2.5326991 -0.2906285 0 -1.0876484e-05 0 0)
(-2.5283168 -0.29025646 0 5.1257561e-06 0 0)
(-2.5319095 -0.29054906 0 -4.5138121e-06 0 0)
(-2.5289959 -0.29031393 0 3.8095803e-06 0 0)
(-2.5312078 -0.29049396 0 -3.3161037e-06 0 0)
(-2.5296036 -0.29036232 0 2.8826705e-06 0 0)
(-2.5306214 -0.29044964 0 -2.6535849e-06 0 0)
(-2.5301545 -0.29040462 0 2.2482978e-06 0 0)
(-2.5301432 -0.29041033 0 -1.4856709e-06 0 0)
(-2.5305103 -0.29043603 0 8.0508585e-07 0 0)
(-2.5298188 -0.29038317 0 -5.2099969e-07 0 0)
(-2.530825 -0.29046125 0 2.1357679e-07 0 0)
(-2.5295396 -0.29036075 0 5.145765e-08 0 0)
(-2.5310651 -0.29048051 0 -3.0861011e-07 0 0)
(-2.529337 -0.29034443 0 5.4314432e-07 0 0)
(-2.5312325 -0.29049401 0 -7.5952921e-07 0 0)
(-2.5292019 -0.29033347 0 9.6014687e-07 0 0)
(-2.5313382 -0.29050267 0 -1.1463629e-06 0 0)
(-2.5291238 -0.29032697 0 1.3151625e-06 0 0)
(-2.5313904 -0.29050712 0 -1.4705217e-06 0 0)
(-2.5290954 -0.29032438 0 1.6139612e-06 0 0)
(-2.5313966 -0.29050798 0 -1.7443696e-06 0 0)
(-2.5291098 -0.29032515 0 1.8628293e-06 0 0)
(-2.5313629 -0.29050571 0 -1.9707305e-06 0 0)
(-2.5291612 -0.2903288 0 2.0684415e-06 0 0)
(-2.5312952 -0.29050077 0 -2.1567551e-06 0 0)
(-2.5292437 -0.2903349 0 2.2361496e-06 0 0)
(-2.5311988 -0.29049361 0 -2.3085127e-06 0 0)
(-2.5293523 -0.29034304 0 2.3720639e-06 0 0)
(-2.5310787 -0.29048459 0 -2.4292544e-06 0 0)
(-2.5294825 -0.29035285 0 2.4809624e-06 0 0)
(-2.5309399 -0.29047416 0 -2.5370343e-06 0 0)
(-2.5296295 -0.29036406 0 2.5454507e-06 0 0)
(-2.5307832 -0.29046244 0 -2.6383537e-06 0 0)
(-2.5297812 -0.29037523 0 2.7157841e-06 0 0)
(-2.5306037 -0.29044671 0 -2.170811e-06 0 0)
(-2.5299579 -0.29038275 0 4.1542266e-06 0 0)
(-2.5304925 -0.29044775 0 -4.3075871e-06 0 0)
(-2.8347422 -1.0705847 0 -0.34333092 0 0)
(-2.894444 -0.42718832 0 -0.04505169 0 0)
(-3.1865423 -0.41028972 0 -0.023093302 0 0)
(-2.7940364 -0.33080443 0 -0.0084794089 0 0)
(-2.5781697 -0.30487058 0 -0.0037506168 0 0)
(-2.4365905 -0.28514217 0 -0.00048313032 0 0)
(-2.3996801 -0.28338357 0 -0.00032790079 0 0)
(-2.371517 -0.2813163 0 -0.0001011956 0 0)
(-2.3763471 -0.28160337 0 -4.3714321e-05 0 0)
(-2.3704019 -0.28113035 0 -2.3503283e-05 0 0)
(-2.3745065 -0.28146211 0 -2.7260924e-05 0 0)
(-2.3704152 -0.28103757 0 7.0426975e-06 0 0)
(-2.3740509 -0.2813714 0 -1.0028019e-05 0 0)
(-2.3706685 -0.28107053 0 4.3411649e-06 0 0)
(-2.3733739 -0.28129734 0 -3.7144137e-06 0 0)
(-2.3712772 -0.28112344 0 3.2275475e-06 0 0)
(-2.372759 -0.28124784 0 -2.8288913e-06 0 0)
(-2.3718339 -0.28116824 0 2.5839363e-06 0 0)
(-2.3722033 -0.28120361 0 -2.2328101e-06 0 0)
(-2.3722849 -0.28120731 0 1.3832888e-06 0 0)
(-2.3718596 -0.28117284 0 -8.1266858e-07 0 0)
(-2.3726018 -0.28123437 0 5.2722301e-07 0 0)
(-2.3715473 -0.28114693 0 -2.7057567e-07 0 0)
(-2.3728744 -0.28125693 0 2.4217604e-08 0 0)
(-2.3713104 -0.28112735 0 2.0105353e-07 0 0)
(-2.3730743 -0.28127348 0 -4.1875927e-07 0 0)
(-2.371144 -0.28111354 0 6.1479175e-07 0 0)
(-2.3732092 -0.28128466 0 -7.9491647e-07 0 0)
(-2.371038 -0.28110471 0 9.6233036e-07 0 0)
(-2.3732888 -0.28129134 0 -1.1174531e-06 0 0)
(-2.3709832 -0.28110007 0 1.2569091e-06 0 0)
(-2.3733204 -0.28129407 0 -1.3854269e-06 0 0)
(-2.370973 -0.28109907 0 1.5039845e-06 0 0)
(-2.3733107 -0.28129345 0 -1.6112236e-06 0 0)
(-2.3710012 -0.2811012 0 1.7083635e-06 0 0)
(-2.3732652 -0.28128992 0 -1.7967229e-06 0 0)
(-2.3710624 -0.28110603 0 1.876559e-06 0 0)
(-2.3731893 -0.28128391 0 -1.9485323e-06 0 0)
(-2.3711514 -0.28111312 0 2.0131474e-06 0 0)
(-2.373088 -0.28127584 0 -2.0721273e-06 0 0)
(-2.3712636 -0.28112208 0 2.1235438e-06 0 0)
(-2.3729655 -0.28126606 0 -2.1699298e-06 0 0)
(-2.371395 -0.28113259 0 2.2123328e-06 0 0)
(-2.3728265 -0.28125499 0 -2.2594782e-06 0 0)
(-2.3715415 -0.28114441 0 2.259603e-06 0 0)
(-2.3726719 -0.28124277 0 -2.3502036e-06 0 0)
(-2.3716919 -0.28115616 0 2.413261e-06 0 0)
(-2.3724941 -0.28122648 0 -1.8574579e-06 0 0)
(-2.3718545 -0.28116363 0 3.8591657e-06 0 0)
(-2.3723558 -0.28122492 0 -4.0016123e-06 0 0)
(-2.892389 -1.041476 0 -0.32121413 0 0)
(-2.5635397 -0.41008545 0 -0.045366108 0 0)
(-2.901811 -0.39019325 0 -0.021818695 0 0)
(-2.5418163 -0.3174651 0 -0.0087441002 0 0)
(-2.4095802 -0.29415268 0 -0.0034807378 0 0)
(-2.2803304 -0.27575864 0 -0.00052809351 0 0)
(-2.2438942 -0.27390413 0 -0.00032632972 0 0)
(-2.2179626 -0.27198613 0 -9.2792668e-05 0 0)
(-2.2218166 -0.27226282 0 -3.9590093e-05 0 0)
(-2.2171522 -0.27189046 0 -2.2680556e-05 0 0)
(-2.2207452 -0.27219118 0 -2.6261286e-05 0 0)
(-2.217716 -0.27184501 0 6.8416996e-06 0 0)
(-2.2205389 -0.2721145 0 -9.002039e-06 0 0)
(-2.218047 -0.27188125 0 3.8489166e-06 0 0)
(-2.2199964 -0.27204811 0 -2.9962374e-06 0 0)
(-2.2186036 -0.27193015 0 2.8182828e-06 0 0)
(-2.2194341 -0.27200201 0 -2.5303987e-06 0 0)
(-2.2191334 -0.27197569 0 2.0449902e-06 0 0)
(-2.2189892 -0.27196258 0 -1.3000024e-06 0 0)
(-2.2194583 -0.27200526 0 7.4636568e-07 0 0)
(-2.2186744 -0.27193511 0 -5.2960295e-07 0 0)
(-2.2197623 -0.27203139 0 2.7622258e-07 0 0)
(-2.2184064 -0.2719122 0 -7.7019377e-08 0 0)
(-2.2199938 -0.27205112 0 -1.3537019e-07 0 0)
(-2.2182087 -0.27189534 0 3.2293416e-07 0 0)
(-2.2201585 -0.27206515 0 -5.0404922e-07 0 0)
(-2.218074 -0.27188388 0 6.6480326e-07 0 0)
(-2.220265 -0.27207417 0 -8.1269759e-07 0 0)
(-2.2179933 -0.27187704 0 9.5036562e-07 0 0)
(-2.2203219 -0.272079 0 -1.0775333e-06 0 0)
(-2.2179587 -0.27187411 0 1.1907814e-06 0 0)
(-2.2203358 -0.27208015 0 -1.2954001e-06 0 0)
(-2.2179639 -0.27187457 0 1.3917302e-06 0 0)
(-2.2203126 -0.27207818 0 -1.4782994e-06 0 0)
(-2.2180036 -0.27187796 0 1.5564701e-06 0 0)
(-2.2202575 -0.27207349 0 -1.6274384e-06 0 0)
(-2.2180727 -0.27188384 0 1.691375e-06 0 0)
(-2.2201754 -0.27206652 0 -1.7488171e-06 0 0)
(-2.2181665 -0.27189181 0 1.8003131e-06 0 0)
(-2.2200705 -0.27205764 0 -1.8474012e-06 0 0)
(-2.2182809 -0.27190151 0 1.888005e-06 0 0)
(-2.219947 -0.27204719 0 -1.9247824e-06 0 0)
(-2.2184122 -0.27191262 0 1.9589056e-06 0 0)
(-2.2198089 -0.27203556 0 -1.9978649e-06 0 0)
(-2.2185572 -0.27192496 0 1.991106e-06 0 0)
(-2.2196575 -0.27202293 0 -2.0788098e-06 0 0)
(-2.2187053 -0.27193721 0 2.1280904e-06 0 0)
(-2.2194828 -0.27200624 0 -1.5701879e-06 0 0)
(-2.218855 -0.27194473 0 3.5576614e-06 0 0)
(-2.2193238 -0.27200226 0 -3.6952229e-06 0 0)
(-2.9920973 -0.98123077 0 -0.27311387 0 0)
(-2.3108752 -0.39090752 0 -0.044096403 0 0)
(-2.67005 -0.37489305 0 -0.021717909 0 0)
(-2.3517487 -0.30689761 0 -0.0090355639 0 0)
(-2.2612516 -0.28400025 0 -0.0031672922 0 0)
(-2.1387036 -0.26685146 0 -0.0005860768 0 0)
(-2.0979726 -0.26459626 0 -0.00031671244 0 0)
(-2.0710959 -0.2626976 0 -8.1576631e-05 0 0)
(-2.0729333 -0.26292822 0 -3.3349091e-05 0 0)
(-2.0692662 -0.26265291 0 -2.0540921e-05 0 0)
(-2.0722416 -0.26292137 0 -2.4988333e-05 0 0)
(-2.0701287 -0.26265072 0 7.276255e-06 0 0)
(-2.0722134 -0.26286031 0 -7.8704922e-06 0 0)
(-2.0704781 -0.26268976 0 3.5507822e-06 0 0)
(-2.0717696 -0.26280184 0 -2.4569057e-06 0 0)
(-2.0710079 -0.26273733 0 2.5587029e-06 0 0)
(-2.0712431 -0.26275516 0 -1.8801643e-06 0 0)
(-2.0714249 -0.26277633 0 1.0912913e-06 0 0)
(-2.0709217 -0.26272579 0 -7.1715824e-07 0 0)
(-2.0717328 -0.26280393 0 4.5281505e-07 0 0)
(-2.0706224 -0.2626991 0 -2.8302377e-07 0 0)
(-2.0719926 -0.26282683 0 7.7413834e-08 0 0)
(-2.0703948 -0.26267904 0 8.959561e-08 0 0)
(-2.0721863 -0.26284384 0 -2.6737594e-07 0 0)
(-2.0702316 -0.26266472 0 4.1884977e-07 0 0)
(-2.0723201 -0.26285552 0 -5.6620298e-07 0 0)
(-2.0701246 -0.26265542 0 6.9531294e-07 0 0)
(-2.0724019 -0.26286255 0 -8.143246e-07 0 0)
(-2.070066 -0.26265042 0 9.2520147e-07 0 0)
(-2.0724393 -0.26286567 0 -1.0272685e-06 0 0)
(-2.0700485 -0.26264907 0 1.1171071e-06 0 0)
(-2.0724381 -0.26286537 0 -1.2003394e-06 0 0)
(-2.0700668 -0.26265088 0 1.2767424e-06 0 0)
(-2.0724038 -0.26286216 0 -1.3448448e-06 0 0)
(-2.0701158 -0.2626554 0 1.4061155e-06 0 0)
(-2.072341 -0.26285643 0 -1.461593e-06 0 0)
(-2.0701909 -0.26266222 0 1.5113817e-06 0 0)
(-2.0722542 -0.26284861 0 -1.5558907e-06 0 0)
(-2.070288 -0.26267097 0 1.5957134e-06 0 0)
(-2.0721474 -0.26283902 0 -1.6322032e-06 0 0)
(-2.0704033 -0.26268131 0 1.6631791e-06 0 0)
(-2.072024 -0.262828 0 -1.6914429e-06 0 0)
(-2.0705335 -0.26269294 0 1.7181775e-06 0 0)
(-2.0718878 -0.2628159 0 -1.7496035e-06 0 0)
(-2.0706759 -0.26270571 0 1.7372545e-06 0 0)
(-2.0717403 -0.26280293 0 -1.8214142e-06 0 0)
(-2.070821 -0.26271838 0 1.8578553e-06 0 0)
(-2.07157 -0.26278597 0 -1.3053224e-06 0 0)
(-2.0709588 -0.26272601 0 3.2493142e-06 0 0)
(-2.0713959 -0.26277979 0 -3.3909938e-06 0 0)
(-3.0646348 -0.95518012 0 -0.25236154 0 0)
(-2.1640672 -0.37173026 0 -0.04105043 0 0)
(-2.4903286 -0.35676258 0 -0.0197497 0 0)
(-2.1991858 -0.2958626 0 -0.0086968353 0 0)
(-2.1215393 -0.27364878 0 -0.0027850511 0 0)
(-1.9998114 -0.25750677 0 -0.0005523842 0 0)
(-1.9572551 -0.255188 0 -0.00027445863 0 0)
(-1.9296941 -0.25339426 0 -6.1980391e-05 0 0)
(-1.9297545 -0.25361096 0 -2.6060145e-05 0 0)
(-1.9264158 -0.25340216 0 -1.6336584e-05 0 0)
(-1.9288966 -0.25365229 0 -2.3700247e-05 0 0)
(-1.9275968 -0.25345235 0 8.7525399e-06 0 0)
(-1.929022 -0.2536065 0 -6.5933763e-06 0 0)
(-1.9279429 -0.25349403 0 3.5437575e-06 0 0)
(-1.9286404 -0.25355299 0 -2.0105172e-06 0 0)
(-1.9284621 -0.25354375 0 1.8238419e-06 0 0)
(-1.9282609 -0.25351637 0 -9.158641e-07 0 0)
(-1.9287839 -0.25357387 0 5.8313662e-07 0 0)
(-1.9279555 -0.2534881 0 -4.1331039e-07 0 0)
(-1.9290733 -0.25360059 0 2.0846895e-07 0 0)
(-1.9277004 -0.25346476 0 -8.1456549e-08 0 0)
(-1.9292942 -0.25362064 0 -9.5786196e-08 0 0)
(-1.9275097 -0.25344742 0 2.2875521e-07 0 0)
(-1.9294547 -0.25363512 0 -3.7219847e-07 0 0)
(-1.9273766 -0.25343544 0 4.9055795e-07 0 0)
(-1.9295616 -0.25364463 0 -6.074908e-07 0 0)
(-1.9272938 -0.25342815 0 7.0818474e-07 0 0)
(-1.929622 -0.25364982 0 -8.0121247e-07 0 0)
(-1.9272541 -0.25342484 0 8.8790934e-07 0 0)
(-1.9296426 -0.25365137 0 -9.6740174e-07 0 0)
(-1.9272513 -0.25342494 0 1.0362635e-06 0 0)
(-1.9296287 -0.25364974 0 -1.1003266e-06 0 0)
(-1.9272803 -0.25342797 0 1.1588656e-06 0 0)
(-1.9295854 -0.25364541 0 -1.2104584e-06 0 0)
(-1.9273367 -0.25343351 0 1.256646e-06 0 0)
(-1.9295167 -0.25363876 0 -1.2983024e-06 0 0)
(-1.9274162 -0.25344117 0 1.3354805e-06 0 0)
(-1.9294268 -0.25363018 0 -1.3684721e-06 0 0)
(-1.9275152 -0.2534506 0 1.3979245e-06 0 0)
(-1.9293192 -0.25361999 0 -1.4249919e-06 0 0)
(-1.9276301 -0.25346148 0 1.4473859e-06 0 0)
(-1.9291971 -0.25360848 0 -1.4680893e-06 0 0)
(-1.9277582 -0.25347353 0 1.4882344e-06 0 0)
(-1.9290637 -0.25359601 0 -1.5127674e-06 0 0)
(-1.9278971 -0.25348664 0 1.4959705e-06 0 0)