/*--------------------------------*- C++ -*----------------------------------*\
| =========                 |                                                 |
| \\      /  F ield         | OpenFOAM: The Open Source CFD Toolbox           |
|  \\    /   O peration     | Version:  2312                                  |
|   \\  /    A nd           | Website:  www.openfoam.com                      |
|    \\/     M anipulation  |                                                 |
\*---------------------------------------------------------------------------*/
FoamFile
{
    version     2.0;
    format      ascii;
    arch        "LSB;label=32;scalar=64";
    class       volScalarField;
    location    "2";
    object      T;
}
// * * * * * * * * * * * * * * * * * * * * * * * * * * * * * * * * * * * * * //

dimensions      [0 0 0 1 0 0 0];

internalField   nonuniform List<scalar> 
4000
(
325.20558
324.06072
323.83301
323.76527
323.68945
323.63479
323.5835
323.53707
323.49273
323.4505
323.40941
323.3693
323.33025
323.2914
323.25372
323.21576
323.17903
323.1417
323.10569
323.06883
323.03337
322.99687
322.96185
322.92563
322.89096
322.85497
322.82059
322.7848
322.75067
322.71505
322.68114
322.64568
322.61198
322.57667
322.54316
322.508
322.47469
322.43967
322.40655
322.37165
322.33873
322.30393
322.27123
322.23648
322.20403
322.16927
322.13714
322.1022
322.07065
322.03467
327.13902
325.29352
324.68676
324.54978
324.38976
324.29271
324.20586
324.13349
324.06747
324.00772
323.95138
323.89799
323.84779
323.7982
323.75208
323.70514
323.66188
323.61685
323.57574
323.53211
323.49266
323.45011
323.41197
323.37026
323.33318
323.29215
323.25595
323.2155
323.18005
323.14011
323.10533
323.06587
323.0317
322.99271
322.95911
322.92056
322.88754
322.84941
322.81697
322.7792
322.74737
322.70989
322.67871
322.64139
322.61096
322.57359
322.54412
322.50625
322.47851
322.43763
328.33317
326.47946
325.53325
325.32874
325.08674
324.94785
324.82596
324.72783
324.64037
324.56316
324.49173
324.42511
324.36385
324.30354
324.24905
324.19315
324.14342
324.09069
324.04452
323.99414
323.95072
323.90213
323.86089
323.8137
323.77422
323.72817
323.69015
323.64506
323.60828
323.56405
323.52837
323.48494
323.45027
323.40759
323.37388
323.33194
323.29918
323.25792
323.22613
323.18547
323.15469
323.1145
323.08481
323.04489
323.01644
322.97644
322.94959
322.90875
322.88476
322.83934
329.12272
327.5764
326.36012
326.09461
325.77556
325.59658
325.44094
325.3176
325.20931
325.11489
325.02872
324.94905
324.87695
324.80603
324.74332
324.67855
324.62244
324.56209
324.51093
324.45386
324.40652
324.35194
324.30763
324.25501
324.21315
324.16212
324.12229
324.07261
324.03449
323.98601
323.94941
323.90203
323.86683
323.8205
323.78663
323.74131
323.70876
323.66437
323.63316
323.58961
323.5598
323.5169
323.48861
323.44606
323.41952
323.37686
323.35255
323.30874
323.28835
323.23889
329.67009
328.55094
327.15149
326.83732
326.44969
326.23396
326.04693
325.89956
325.7715
325.66044
325.56015
325.46778
325.38525
325.30396
325.2333
325.15982
325.09753
325.02969
324.97367
324.91001
324.85885
324.79839
324.75108
324.69312
324.64892
324.593
324.55138
324.49717
324.45773
324.40506
324.36754
324.31626
324.2805
324.23056
324.19648
324.14781
324.11539
324.06791
324.03719
323.99074
323.96183
323.91619
323.88922
323.84402
323.81929
323.77394
323.75206
323.70531
323.68825
323.63533
330.06112
329.3791
327.89063
327.54512
327.1013
326.85404
326.63921
326.46977
326.32357
326.19683
326.08337
325.9789
325.88655
325.79529
325.7171
325.63521
325.56703
325.49192
325.43127
325.3612
325.30639
325.24018
325.18999
325.12683
325.08038
325.01968
324.97632
324.91772
324.87697
324.82021
324.78175
324.72668
324.69033
324.63686
324.60251
324.55055
324.5182
324.46764
324.43734
324.38802
324.35989
324.31151
324.28575
324.2379
324.21485
324.16682
324.14721
324.09757
324.08351
324.02771
330.34684
330.05157
328.56282
328.20582
327.72196
327.45022
327.21247
327.02378
326.86169
326.7207
326.59539
326.47971
326.3784
326.27777
326.19264
326.10277
326.02912
325.94708
325.88209
325.8059
325.74764
325.67593
325.62302
325.55485
325.50626
325.44098
325.39595
325.33311
325.2911
325.2304
325.19102
325.13229
325.09532
325.03843
325.00377
324.94861
324.91626
324.8627
324.83272
324.78055
324.75311
324.70202
324.67734
324.62685
324.60533
324.55464
324.5371
324.48469
324.47324
324.41508
330.55949
330.57067
329.15702
328.80823
328.30336
328.01568
327.76107
327.55683
327.38173
327.22841
327.09297
326.96727
326.85811
326.74894
326.65764
326.5604
326.48182
326.39331
326.32438
326.24243
326.18102
326.10412
326.04871
325.97581
325.92524
325.85561
325.80903
325.74217
325.69896
325.63452
325.59426
325.53203
325.49446
325.43429
325.39929
325.34106
325.30864
325.25217
325.22243
325.1675
325.14062
325.08687
325.06314
325.01004
324.9899
324.93661
324.92091
324.86589
324.85659
324.79654
330.72081
330.94953
329.66742
329.34358
328.83816
328.54393
328.27942
328.0641
327.87944
327.7162
327.57271
327.43851
327.32289
327.20624
327.1097
327.00587
326.92304
326.82867
326.7563
326.66907
326.60489
326.52319
326.46556
326.38827
326.33593
326.26225
326.21428
326.14366
326.09936
326.03144
325.99034
325.92485
325.88668
325.82344
325.78808
325.72693
325.6944
325.63515
325.60558
325.54798
325.52157
325.46524
325.44232
325.38669
325.36775
325.31195
325.29783
325.24039
325.23279
325.17124
330.84603
331.20833
330.09318
329.80676
329.32062
329.02927
328.76236
328.54098
328.35069
328.18037
328.03126
327.89037
327.7699
327.64704
327.5464
327.43692
327.35066
327.25115
327.17595
327.08402
327.01753
326.93153
326.87201
326.79075
326.7369
326.65955
326.61036
326.53634
326.49107
326.41996
326.37811
326.30963
326.27091
326.20483
326.16912
326.10526
326.0726
326.01074
325.98127
325.92114
325.89511
325.8363
325.81407
325.75602
325.73809
325.67992
325.66711
325.60748
325.60115
325.53838
330.94585
331.37108
330.43823
330.19676
329.74697
329.46731
329.20551
328.98339
328.79171
328.61744
328.46541
328.31989
328.19638
328.0688
327.96533
327.85132
327.76257
327.65878
327.58144
327.48552
327.41723
327.32751
327.26651
327.18178
327.12671
327.04614
326.99596
326.91892
326.87285
326.79891
326.75643
326.68527
326.64607
326.57744
326.54141
326.47508
326.44228
326.37802
326.34862
326.28613
326.26041
326.19927
326.17761
326.11727
326.10019
326.0398
326.02804
325.96645
325.96101
325.89723
331.02795
331.46265
330.71029
330.51642
330.11568
329.85524
329.60561
329.38803
329.19925
329.02438
328.87226
328.72437
328.59977
328.46911
328.36423
328.24693
328.15671
328.04963
327.97094
327.87182
327.80234
327.70955
327.64753
327.5599
327.50397
327.42067
327.36976
327.29016
327.24349
327.16713
327.12415
327.05068
327.0111
326.94023
326.90395
326.83544
326.80252
326.7361
326.70676
326.64211
326.61664
326.55337
326.53217
326.46972
326.45331
326.3909
326.37993
326.31663
326.31176
326.24711
331.09749
331.50595
330.91956
330.77157
330.42753
330.19211
329.96075
329.7526
329.57088
329.39872
329.2494
329.10147
328.97782
328.84584
328.74102
328.62177
328.53122
328.42191
328.34272
328.24127
328.17125
328.07613
328.0136
327.92371
327.86731
327.78183
327.73051
327.64884
327.60179
327.52346
327.48017
327.40479
327.36496
327.29222
327.25577
327.18539
327.15241
327.08411
327.05483
326.98829
326.96303
326.89784
326.87702
326.81266
326.79677
326.73257
326.72217
326.65738
326.65284
326.58741
331.15809
331.52027
331.07721
330.97015
330.68546
330.47881
330.2705
330.07597
329.90504
329.73875
329.59499
329.44935
329.32867
329.19716
329.09392
328.97414
328.88441
328.77401
328.69522
328.59237
328.52252
328.42586
328.36336
328.27189
328.21545
328.12841
328.07699
327.9938
327.94664
327.86682
327.82342
327.74657
327.70665
327.63243
327.59593
327.52404
327.49107
327.42121
327.39202
327.32386
327.29881
327.23195
327.21145
327.14542
327.12994
327.06417
327.05415
326.98811
326.98371
326.91757
331.21201
331.52009
331.19426
331.1212
330.89419
330.71798
330.53587
330.35821
330.2012
330.04359
329.9079
329.76676
329.65097
329.52169
329.42153
329.30263
329.21489
329.10456
329.02709
328.92382
328.85486
328.75749
328.6956
328.60327
328.54723
328.45927
328.40812
328.32398
328.277
328.19621
328.15292
328.07507
328.03524
327.95997
327.92355
327.85053
327.81768
327.74659
327.71757
327.64808
327.62326
327.55501
327.5348
327.46736
327.4522
327.38511
327.37534
327.30826
327.30388
327.23709
331.26079
331.51534
331.2807
331.234
331.05973
330.91363
330.75919
330.60057
330.45983
330.31319
330.18773
330.05306
329.9439
329.81852
329.72283
329.60621
329.52159
329.41249
329.33723
329.23452
329.16718
329.06996
329.00925
328.91681
328.86165
328.77343
328.72293
328.63842
328.59193
328.5107
328.46778
328.38941
328.34987
328.27399
328.23783
328.16407
328.13147
328.05951
328.03075
327.96027
327.93571
327.86638
327.84645
327.7779
327.76298
327.69485
327.68522
327.61731
327.61289
327.54552
331.30531
331.51176
331.34502
331.31732
331.18873
331.07081
330.94389
330.80535
330.68236
330.5484
330.43483
330.30829
330.20726
330.08726
329.99731
329.88425
329.80379
329.69703
329.62487
329.52368
329.45867
329.36243
329.30349
329.21169
329.15787
329.07005
329.02058
328.93632
328.89062
328.8095
328.76721
328.68883
328.6498
328.57375
328.53804
328.46395
328.43175
328.3593
328.3309
328.25978
328.23557
328.16547
328.14584
328.07647
328.06177
327.99287
327.98333
327.9148
327.91032
327.84247
331.34621
331.5121
331.39399
331.37885
331.28794
331.19506
331.0942
330.97569
330.87103
330.7508
330.65026
330.53314
330.44139
330.32804
330.2449
330.13654
330.06119
329.95779
329.88952
329.79077
329.72875
329.63431
329.57769
329.48725
329.43524
329.34849
329.30043
329.21701
329.17242
329.09197
329.05058
328.97266
328.93439
328.85862
328.82355
328.74956
328.71792
328.64536
328.61746
328.54605
328.52227
328.45175
328.43246
328.36258
328.34812
328.27872
328.26926
328.20032
328.19578
328.12757
331.38378
331.51692
331.43269
331.42496
331.3637
331.29205
331.21477
331.11534
331.02877
330.92265
330.83572
330.72887
330.64723
330.54151
330.46601
330.36333
330.29386
330.19474
330.13105
330.03557
329.97714
329.88527
329.83148
329.74311
329.69333
329.60828
329.56199
329.48001
329.43685
329.35757
329.31736
329.2404
329.20312
329.12808
329.09387
329.02037
328.98947
328.91719
328.88994
328.81861
328.79536
328.72475
328.70588
328.63581
328.62162
328.552
328.54264
328.47351
328.46894
328.40052
331.41838
331.52575
331.46469
331.46057
331.42163
331.3672
331.31037
331.22835
331.15893
331.06671
330.99341
330.89728
330.82617
330.72876
330.66149
330.56525
330.50226
330.40818
330.34965
330.25818
330.20386
330.11525
330.06474
329.97908
329.93193
329.84918
329.80501
329.725
329.68357
329.60598
329.56721
329.49167
329.45562
329.38173
329.34859
329.27599
329.24602
329.1744
329.14794
329.07705
329.05446
328.9841
328.96574
328.8958
328.88194
328.81239
328.80317
328.73408
328.72953
328.66108
331.4502
331.53751
331.49237
331.48931
331.46647
331.42536
331.3856
331.31886
331.26508
331.18604
331.12593
331.04053
330.98004
330.89131
330.83258
330.74331
330.68723
330.59879
330.54584
330.459
330.40921
330.32445
330.27761
330.19524
330.15106
330.07115
330.02941
329.95187
329.91245
329.83702
329.79994
329.72625
329.69166
329.61933
329.58747
329.51615
329.4873
329.41669
329.3912
329.32108
329.2993
329.22952
329.21177
329.14227
329.12882
329.05961
329.05061
328.9818
328.97732
328.90906
331.47951
331.55116
331.51718
331.51366
331.50195
331.47072
331.44465
331.39082
331.35084
331.28388
331.2361
331.16108
331.11095
331.03099
330.98084
330.89886
330.84989
330.76751
330.72044
330.6387
330.59374
330.51334
330.47047
330.39187
330.35095
330.27436
330.23531
330.1607
330.12353
330.05067
330.01553
329.94408
329.91117
329.84078
329.81039
329.7407
329.71315
329.6439
329.61953
329.55053
329.52967
329.46081
329.44378
329.37503
329.36209
329.2935
329.28479
329.21651
329.21214
329.1443
331.5065
331.56575
331.53996
331.53524
331.5309
331.50667
331.49118
331.4479
331.41967
331.36341
331.32682
331.26155
331.22122
331.14984
331.1081
331.03348
330.99165
330.91557
330.87452
330.7982
330.75828
330.68262
330.64392
330.5695
330.53205
330.45918
330.42303
330.35173
330.31704
330.24712
330.21411
330.14526
330.11422
330.04609
330.01736
329.94963
329.92355
329.85598
329.83288
329.76531
329.74551
329.67787
329.66168
329.59398
329.58163
329.51395
329.50561
329.43811
329.43391
329.36675
331.53142
331.58062
331.56113
331.55499
331.55536
331.53585
331.52823
331.49327
331.47474
331.42768
331.40095
331.34457
331.31329
331.25007
331.21634
331.14896
331.11411
331.04441
331.00935
330.93866
330.90384
330.83317
330.79878
330.72883
330.69501
330.62616
330.59309
330.52541
330.49335
330.42668
330.39598
330.33002
330.30103
330.23545
330.20855
330.14306
330.1186
330.053
330.0313
329.96545
329.94684
329.88071
329.86546
329.79909
329.78743
329.72093
329.71303
329.64658
329.6426
329.57638
331.55444
331.59531
331.5809
331.57343
331.57669
331.56022
331.55825
331.52964
331.51886
331.47949
331.46119
331.41271
331.38954
331.3339
331.30762
331.24719
331.219
331.15559
331.12638
331.06137
331.03161
330.96608
330.93602
330.87075
330.84063
330.77603
330.74614
330.68232
330.65303
330.58985
330.56158
330.49875
330.47195
330.40917
330.38423
330.32123
330.29852
330.23514
330.21497
330.15111
330.13379
330.06943
330.05523
329.99044
329.97956
329.91451
329.90712
329.84198
329.83826
329.77324
331.57575
331.60958
331.59938
331.59082
331.59578
331.58119
331.5831
331.55921
331.55441
331.5213
331.51001
331.46837
331.4523
331.40352
331.384
331.33009
331.30813
331.25079
331.22716
331.16777
331.14291
331.08257
331.05678
330.99628
330.96986
330.90966
330.88299
330.8232
330.79674
330.73722
330.7115
330.65198
330.62747
330.56768
330.54481
330.48451
330.46365
330.40271
330.38417
330.32251
330.30659
330.24424
330.23116
330.16822
330.15818
330.09482
330.08801
330.02443
330.02099
329.95745
331.59551
331.62328
331.6166
331.60725
331.61319
331.5997
331.60417
331.58367
331.58335
331.55521
331.54958
331.51374
331.50373
331.46103
331.44751
331.39959
331.38332
331.33171
331.3133
331.25933
331.23916
331.18392
331.16228
331.10656
331.08378
331.02802
331.00456
330.94888
330.9253
330.86955
330.84641
330.79034
330.76819
330.71153
330.6908
330.63337
330.61444
330.55611
330.53928
330.48002
330.46555
330.40542
330.39353
330.33265
330.32353
330.26209
330.25589
330.19413
330.191
330.12918
331.61387
331.63637
331.63262
331.62275
331.62921
331.61637
331.62244
331.60434
331.60724
331.58295
331.58178
331.55073
331.54576
331.50834
331.50002
331.4575
331.44632
331.40003
331.38641
331.3376
331.3218
331.27151
331.2538
331.20278
331.18352
331.13218
331.11188
331.06032
331.03958
330.98765
330.96712
330.91456
330.89479
330.84137
330.82283
330.76837
330.75141
330.69584
330.68076
330.62407
330.6111
330.55337
330.54272
330.4841
330.47593
330.41662
330.41107
330.35133
330.34853
330.28867
331.63094
331.64884
331.64748
331.63731
331.64403
331.63158
331.63859
331.62215
331.62729
331.60593
331.60815
331.58099
331.58011
331.54719
331.54329
331.50554
331.49882
331.45738
331.44805
331.40406
331.39228
331.3467
331.33267
331.28619
331.27027
331.22326
331.206
331.15851
331.14057
331.09244
331.07448
331.02545
331.00807
330.95792
330.94157
330.89016
330.8752
330.82248
330.80917
330.75517
330.74373
330.68854
330.67915
330.62295
330.61575
330.55877
330.55388
330.49638
330.49391
330.43623
331.64684
331.66068
331.66124
331.65095
331.65775
331.64557
331.65305
331.63778
331.6444
331.62522
331.62995
331.60589
331.60825
331.5791
331.57886
331.54527
331.54236
331.50528
331.49974
331.46017
331.45202
331.41085
331.4002
331.35805
331.34526
331.30242
331.28805
331.24452
331.22927
331.18486
331.16942
331.12389
331.10885
331.06198
331.0478
330.99947
330.98648
330.93668
330.92513
330.87391
330.86399
330.81147
330.80333
330.7497
330.74347
330.68896
330.68474
330.62965
330.62752
330.57219
331.66164
331.67191
331.67394
331.66364
331.67042
331.65845
331.66612
331.65167
331.65921
331.64166
331.64817
331.62656
331.6314
331.60537
331.60809
331.57805
331.57836
331.54513
331.54286
331.50731
331.50236
331.46527
331.45768
331.41958
331.40967
331.37079
331.35913
331.31941
331.30671
331.26592
331.25289
331.21078
331.19801
331.15438
331.14231
331.09706
331.086
331.03914
331.02932
330.98093
330.97251
330.92273
330.91583
330.86486
330.8596
330.80769
330.80412
330.75158
330.74979
330.69697
331.67542
331.68254
331.68565
331.6754
331.68206
331.6703
331.67797
331.66414
331.67219
331.65586
331.66358
331.64387
331.65057
331.62708
331.63213
331.60511
331.60807
331.57818
331.5787
331.54673
331.54457
331.51119
331.50632
331.47198
331.46468
331.42951
331.42035
331.38424
331.37393
331.3366
331.32586
331.28705
331.27645
331.23598
331.22594
331.18373
331.17453
331.13061
331.12245
331.07691
331.06994
331.02295
331.01726
330.96902
330.96469
330.91548
330.91255
330.86267
330.8612
330.81101
331.68824
331.69254
331.69638
331.68623
331.69271
331.68116
331.68871
331.67537
331.68366
331.66824
331.67675
331.65852
331.66656
331.64511
331.65197
331.62747
331.63256
331.60556
331.60839
331.57958
331.5798
331.54977
331.54728
331.51637
331.51141
331.47967
331.47279
331.44005
331.43195
331.3979
331.38929
331.35364
331.34508
331.30766
331.29954
331.26029
331.25286
331.21184
331.20526
331.16258
331.15698
331.11279
331.10825
331.06279
331.05934
331.01289
331.01056
330.96342
330.96226
330.91479
331.70014
331.7019
331.70615
331.69612
331.70235
331.69105
331.6984
331.68549
331.69383
331.67913
331.6881
331.67104
331.67999
331.6602
331.6684
331.646
331.65275
331.62822
331.63293
331.60688
331.6091
331.58204
331.5816
331.55379
331.55088
331.52229
331.51745
331.48783
331.48175
331.45075
331.44412
331.41145
331.40479
331.37029
331.36396
331.32758
331.3218
331.28361
331.27852
331.23864
331.23433
331.19295
331.18947
331.14681
331.14419
331.10052
331.09876
331.0544
331.05352
331.00882
331.71111
331.71057
331.71497
331.70507
331.71101
331.69997
331.70709
331.69457
331.70284
331.68874
331.69793
331.6818
331.69136
331.6729
331.68207
331.6614
331.66943
331.64699
331.65319
331.62953
331.63339
331.60895
331.61024
331.5852
331.58407
331.55832
331.55529
331.52852
331.52425
331.49609
331.49124
331.46138
331.45645
331.42472
331.42003
331.3864
331.38215
331.3467
331.34298
331.30585
331.30273
331.2641
331.26161
331.22172
331.21986
331.17898
331.17774
331.13617
331.13556
331.09364
331.72111
331.71848
331.7228
331.71306
331.71869
331.70793
331.7148
331.70268
331.71081
331.69722
331.70648
331.69111
331.70103
331.68366
331.69349
331.67426
331.68322
331.66254
331.66991
331.6483
331.65348
331.63132
331.63405
331.61145
331.61185
331.58864
331.58718
331.563
331.56034
331.53477
331.53153
331.50426
331.5009
331.47176
331.46857
331.43755
331.43468
331.40186
331.39939
331.36491
331.36288
331.32694
331.32535
331.28818
331.28701
331.24888
331.24812
331.20931
331.20894
331.16979
331.73002
331.72552
331.72962
331.72007
331.72538
331.71495
331.72156
331.70985
331.71779
331.70469
331.71391
331.69919
331.70927
331.69281
331.70307
331.68503
331.69466
331.67546
331.6837
331.66383
331.67007
331.64987
331.65378
331.63331
331.635
331.61403
331.61393
331.59207
331.5908
331.56759
331.56576
331.54088
331.53891
331.51219
331.51034
331.48177
331.48014
331.44982
331.44847
331.41654
331.41548
331.38214
331.38135
331.34683
331.34629
331.31084
331.3105
331.27441
331.27425
331.23783
331.73763
331.73158
331.7354
331.7261
331.73112
331.72104
331.7274
331.71612
331.72386
331.71122
331.72033
331.70618
331.71631
331.70062
331.71112
331.69408
331.70416
331.6862
331.69509
331.67669
331.68373
331.66521
331.67007
331.65145
331.65419
331.6352
331.63625
331.61643
331.61638
331.59529
331.59469
331.57198
331.57123
331.54674
331.54606
331.51978
331.51924
331.49128
331.49091
331.46142
331.46121
331.43036
331.43028
331.39832
331.39831
331.36547
331.3655
331.33205
331.33208
331.29831
331.74367
331.73656
331.74011
331.73115
331.7359
331.72624
331.73236
331.72153
331.72906
331.71689
331.72583
331.71223
331.7223
331.70728
331.71788
331.7017
331.71205
331.69515
331.70447
331.68732
331.69496
331.67787
331.68347
331.66643
331.67004
331.65275
331.65476
331.63675
331.63772
331.61851
331.61897
331.59822
331.59852
331.57608
331.5764
331.55225
331.55266
331.52691
331.52739
331.50018
331.50071
331.47224
331.47276
331.44324
331.4437
331.41337
331.41371
331.3828
331.38298
331.35177
331.74797
331.7404
331.74377
331.73525
331.73979
331.73058
331.73648
331.72613
331.73344
331.72175
331.73051
331.71742
331.72737
331.71296
331.72356
331.70811
331.7186
331.70259
331.71219
331.69609
331.70416
331.68827
331.69445
331.67875
331.68304
331.66722
331.67001
331.65358
331.65539
331.63786
331.6392
331.62021
331.6214
331.60081
331.60199
331.5798
331.581
331.5573
331.5585
331.53344
331.53459
331.50836
331.50939
331.48219
331.48304
331.45509
331.45569
331.42721
331.42752
331.39876
331.75053
331.74313
331.74643
331.73845
331.74283
331.73412
331.73982
331.72996
331.73706
331.72587
331.73441
331.72184
331.73162
331.71778
331.72829
331.7135
331.72402
331.70877
331.71853
331.70331
331.71167
331.69679
331.70338
331.68881
331.69365
331.67906
331.68249
331.6674
331.66992
331.65384
331.65591
331.63849
331.64041
331.62149
331.62338
331.60297
331.60484
331.58303
331.58482
331.56177
331.56342
331.53929
331.54074
331.51572
331.51688
331.49118
331.49199
331.46581
331.46623
331.43978
331.7516
331.74487
331.7482
331.74083
331.74509
331.73692
331.74244
331.7331
331.73999
331.7293
331.73762
331.72556
331.73513
331.72183
331.73219
331.718
331.72845
331.71387
331.72368
331.70921
331.71775
331.7037
331.71059
331.69696
331.7022
331.68866
331.69258
331.67865
331.68172
331.6669
331.66956
331.65352
331.65603
331.63861
331.64108
331.62228
331.62468
331.60461
331.60688
331.58566
331.58773
331.56554
331.56732
331.54433
331.54575
331.52214
331.52313
331.4991
331.4996
331.47533
331.75161
331.74582
331.74922
331.7425
331.74668
331.73906
331.7444
331.7356
331.74227
331.73211
331.74019
331.72864
331.73797
331.7252
331.73535
331.72171
331.73204
331.71804
331.72782
331.71398
331.7226
331.70924
331.71633
331.70347
331.70901
331.69633
331.70063
331.68767
331.69117
331.67744
331.68055
331.66572
331.6687
331.65261
331.65552
331.63818
331.64099
331.62249
331.62513
331.6056
331.60798
331.58758
331.58962
331.56851
331.57012
331.54847
331.54958
331.52755
331.52812
331.50587
331.751
331.74619
331.74965
331.74358
331.74767
331.74062
331.74579
331.73753
331.74399
331.73435
331.74218
331.73114
331.74021
331.72795
331.73786
331.72473
331.73487
331.72139
331.73107
331.71777
331.72638
331.7136
331.72079
331.70856
331.7143
331.70234
331.70691
331.69475
331.69857
331.68576
331.68923
331.67543
331.67876
331.66384
331.66709
331.65105
331.65417
331.63709
331.64
331.62201
331.62462
331.60586
331.60808
331.5887
331.59044
331.57059
331.57179
331.5516
331.55222
331.53184
331.75013
331.74617
331.74962
331.74417
331.74818
331.74168
331.74669
331.73896
331.74519
331.73608
331.74364
331.73312
331.7419
331.73014
331.73976
331.72712
331.73702
331.72401
331.73352
331.72068
331.72923
331.71692
331.72414
331.71241
331.71828
331.70688
331.71164
331.70014
331.70419
331.69215
331.69586
331.68297
331.68654
331.67264
331.67613
331.66123
331.66457
331.64876
331.65186
331.63526
331.63802
331.62075
331.62309
331.60528
331.60712
331.5889
331.59017
331.57167
331.57231
331.55364
331.74917
331.74592
331.74928
331.7444
331.7483
331.74234
331.74716
331.73996
331.74595
331.73736
331.74463
331.73463
331.74308
331.73182
331.74111
331.72893
331.73854
331.72596
331.73525
331.72281
331.73123
331.71929
331.72649
331.71515
331.72107
331.71012
331.71499
331.70402
331.70822
331.69683
331.70069
331.68856
331.69229
331.67928
331.68292
331.66903
331.6725
331.65783
331.66104
331.64567
331.64853
331.6326
331.63501
331.61862
331.62051
331.60378
331.60507
331.58811
331.58877
331.57166
331.74822
331.74553
331.74871
331.74434
331.74811
331.74265
331.74727
331.74059
331.74632
331.73825
331.7452
331.7357
331.7438
331.73301
331.74194
331.7302
331.73947
331.72728
331.7363
331.72419
331.73243
331.7208
331.72791
331.71688
331.72279
331.71218
331.7171
331.70655
331.71083
331.69996
331.70391
331.69242
331.69624
331.68399
331.6877
331.6747
331.67823
331.66455
331.66781
331.65355
331.65644
331.64171
331.64414
331.62904
331.63094
331.61555
331.61685
331.60127
331.60193
331.58624
331.74726
331.74505
331.748
331.74408
331.74767
331.74269
331.7471
331.7409
331.74635
331.73878
331.74539
331.73638
331.74408
331.73375
331.74227
331.73094
331.73982
331.72799
331.73669
331.72488
331.73288
331.7215
331.72846
331.71766
331.72351
331.71316
331.71807
331.70785
331.71214
331.70169
331.70567
331.6947
331.69854
331.68694
331.69067
331.67843
331.68197
331.66916
331.67243
331.65914
331.66203
331.64835
331.65078
331.63681
331.6387
331.62451
331.6258
331.61146
331.61212
331.59768
331.74629
331.74453
331.74719
331.74366
331.74706
331.74251
331.74668
331.74095
331.74609
331.739
331.74522
331.73668
331.74394
331.73404
331.7421
331.73116
331.73961
331.7281
331.73642
331.72486
331.73258
331.7214
331.72817
331.71754
331.72328
331.71311
331.71797
331.70798
331.71225
331.70212
331.70608
331.69555
331.69936
331.68831
331.692
331.68041
331.68392
331.67187
331.67509
331.66265
331.6655
331.65276
331.65515
331.64219
331.64404
331.63092
331.63218
331.61895
331.61959
331.60628
331.7453
331.74397
331.74631
331.74312
331.7463
331.74216
331.74607
331.74077
331.74558
331.73892
331.74472
331.73661
331.74339
331.73389
331.74144
331.73085
331.73882
331.72759
331.7355
331.72416
331.73154
331.72051
331.72705
331.71653
331.72212
331.71207
331.71683
331.70702
331.71121
331.70134
331.70523
331.69505
331.69879
331.6882
331.69182
331.68079
331.68422
331.67282
331.67597
331.66428
331.66705
331.65514
331.65746
331.64539
331.64719
331.63501
331.63624
331.62398
331.6246
331.61229
331.74427
331.74337
331.74537
331.74249
331.74544
331.74166
331.74529
331.74038
331.74482
331.73856
331.7439
331.73617
331.74241
331.73328
331.74026
331.73
331.73742
331.72646
331.73389
331.72273
331.72974
331.71882
331.72509
331.71464
331.72004
331.71006
331.71469
331.70499
331.70908
331.69939
331.70319
331.69329
331.69693
331.68671
331.69023
331.67967
331.683
331.67216
331.67522
331.66417
331.66686
331.65566
331.65791
331.64661
331.64835
331.63699
331.63818
331.62678
331.62738
331.61594
331.74318
331.74274
331.74437
331.74178
331.74449
331.74104
331.74437
331.7398
331.74383
331.73791
331.74273
331.73533
331.74098
331.73217
331.73853
331.72856
331.73538
331.72465
331.73155
331.72056
331.72714
331.71632
331.72226
331.71186
331.71703
331.70709
331.71156
331.70192
331.70588
331.69633
331.7
331.69032
331.69384
331.68393
331.68732
331.67716
331.68037
331.67001
331.67295
331.66246
331.66505
331.65447
331.65663
331.64601
331.64768
331.63704
331.63818
331.62753
331.62811
331.61744
331.74205
331.74207
331.74332
331.74101
331.74346
331.7403
331.7433
331.73901
331.74259
331.73694
331.74119
331.73407
331.73906
331.73051
331.7362
331.72647
331.73264
331.72212
331.72844
331.7176
331.7237
331.71296
331.71853
331.70817
331.71307
331.70314
331.70742
331.69782
331.70162
331.69216
331.69569
331.68618
331.68956
331.6799
331.68315
331.67333
331.67641
331.66646
331.66928
331.65926
331.66174
331.6517
331.65377
331.64373
331.64534
331.63532
331.63641
331.62641
331.62696
331.61697
331.74084
331.74136
331.74222
331.74017
331.74236
331.73945
331.74208
331.73801
331.74107
331.73562
331.73923
331.7323
331.73659
331.72824
331.7332
331.72367
331.72914
331.7188
331.72449
331.71378
331.71936
331.70869
331.71387
331.70352
331.70814
331.69821
331.70226
331.69268
331.69631
331.68691
331.69028
331.68091
331.68413
331.67468
331.67779
331.66825
331.67119
331.66159
331.66428
331.65467
331.65704
331.64746
331.64944
331.63991
331.64145
331.63197
331.63301
331.62357
331.6241
331.61468
331.73956
331.74062
331.74106
331.73928
331.74118
331.73847
331.74068
331.73674
331.73921
331.73387
331.73677
331.72996
331.73347
331.72528
331.72944
331.72009
331.7248
331.71462
331.71964
331.70906
331.71408
331.70348
331.70823
331.6979
331.70219
331.69226
331.69607
331.6865
331.68993
331.68059
331.68378
331.67452
331.67758
331.66831
331.67126
331.66197
331.66476
331.65546
331.65803
331.64877
331.65104
331.64186
331.64375
331.63465
331.63612
331.62711
331.62811
331.61916
331.61966
331.61074
331.7382
331.73984
331.73984
331.73832
331.73991
331.73733
331.73905
331.73513
331.73693
331.73159
331.73371
331.72694
331.72963
331.72151
331.72485
331.71562
331.71954
331.70951
331.71382
331.70336
331.70779
331.69727
331.70155
331.69126
331.6952
331.68527
331.68883
331.67926
331.68249
331.67319
331.67621
331.66704
331.66994
331.66082
331.66362
331.65453
331.65718
331.64815
331.65059
331.64164
331.6438
331.63496
331.63677
331.62805
331.62946
331.62085
331.6218
331.61328
331.61376
331.60528
331.73674
331.73904
331.73855
331.7373
331.73851
331.73597
331.7371
331.73308
331.73413
331.72867
331.72995
331.72312
331.72493
331.71684
331.71931
331.71017
331.71328
331.70337
331.70696
331.69662
331.70044
331.69001
331.6938
331.68356
331.68713
331.67723
331.68051
331.67096
331.67398
331.66472
331.66756
331.65848
331.66121
331.65223
331.65487
331.64598
331.6485
331.63969
331.64202
331.63334
331.6354
331.62686
331.62859
331.62021
331.62155
331.61329
331.61421
331.60605
331.60652
331.59841
331.73517
331.73822
331.73719
331.73619
331.73693
331.7343
331.73473
331.73046
331.73065
331.72498
331.72532
331.71837
331.71925
331.71114
331.71272
331.70365
331.70592
331.69614
331.69898
331.68877
331.69196
331.68165
331.68494
331.67477
331.67796
331.6681
331.6711
331.66159
331.66439
331.65518
331.65784
331.64885
331.65142
331.64257
331.64507
331.63635
331.63874
331.63015
331.63236
331.62392
331.62589
331.61763
331.61929
331.61119
331.61248
331.60453
331.60541
331.59757
331.59802
331.59024
331.73347
331.73742
331.73574
331.73497
331.73509
331.73221
331.73179
331.72712
331.72635
331.72034
331.7197
331.71254
331.71247
331.70429
331.70497
331.69594
331.69739
331.68772
331.68982
331.67976
331.68232
331.67214
331.67492
331.66486
331.66766
331.65789
331.66058
331.65115
331.65371
331.64459
331.64706
331.63818
331.64058
331.63188
331.63423
331.62568
331.62795
331.61956
331.62167
331.61346
331.61534
331.60732