/*--------------------------------*- C++ -*----------------------------------*\
| =========                 |                                                 |
| \\      /  F ield         | OpenFOAM: The Open Source CFD Toolbox           |
|  \\    /   O peration     | Version:  2312                                  |
|   \\  /    A nd           | Website:  www.openfoam.com                      |
|    \\/     M anipulation  |                                                 |
\*---------------------------------------------------------------------------*/
FoamFile
{
    version     2.0;
    format      ascii;
    arch        "LSB;label=32;scalar=64";
    class       volScalarField;
    location    "6";
    object      T;
}
// * * * * * * * * * * * * * * * * * * * * * * * * * * * * * * * * * * * * * //

dimensions      [0 0 0 1 0 0 0];

internalField   nonuniform List<scalar> 
4000
(
310.87567
312.18923
312.44461
312.51244
312.59168
312.64361
312.69359
312.73693
312.77877
312.81687
312.85507
312.89049
312.92644
312.96031
312.99467
313.02754
313.06072
313.09291
313.12519
313.15688
313.18845
313.21977
313.25077
313.28182
313.31233
313.34317
313.37328
313.40396
313.43371
313.46428
313.49372
313.5242
313.55336
313.58378
313.61269
313.64307
313.67174
313.70211
313.73055
313.76094
313.78914
313.81958
313.84754
313.87806
313.90575
313.93641
313.96377
313.99471
314.02151
314.05348
308.63821
310.76045
311.45921
311.60705
311.78764
311.88698
311.9803
312.05383
312.12281
312.18062
312.23867
312.28846
312.33974
312.38488
312.43142
312.47355
312.51658
312.55664
312.59698
312.63555
312.67375
312.71123
312.7477
312.78434
312.81937
312.8554
312.88921
312.92476
312.95751
312.9927
313.02452
313.05946
313.09043
313.1252
313.15541
313.19007
313.21955
313.25419
313.28298
313.31766
313.34576
313.38057
313.40795
313.443
313.46958
313.50506
313.53064
313.56694
313.59083
313.63013
307.25669
309.38585
310.48193
310.70786
310.98715
311.13334
311.26935
311.37291
311.46868
311.54616
311.62384
311.688
311.75446
311.81088
311.86947
311.92089
311.97366
312.02163
312.06992
312.1154
312.16016
312.20381
312.2457
312.28797
312.32747
312.3687
312.40616
312.4466
312.48231
312.52215
312.55631
312.59572
312.62848
312.66761
312.69909
312.73804
312.76833
312.80722
312.83636
312.87533
312.90331
312.9425
312.96929
313.00888
313.03434
313.07464
313.09844
313.14009
313.1611
313.20739
306.34281
308.11387
309.52699
309.82355
310.19562
310.38679
310.56393
310.69691
310.81869
310.91562
311.01242
311.09085
311.17213
311.23979
311.31017
311.37087
311.43316
311.48904
311.54513
311.59754
311.64871
311.69856
311.74574
311.79366
311.83751
311.88397
311.925
311.97035
312.00894
312.05346
312.08989
312.13379
312.16829
312.21178
312.24449
312.28774
312.31879
312.36196
312.3914
312.43467
312.46251
312.50608
312.53225
312.57639
312.60071
312.64582
312.66783
312.7148
312.73302
312.7858
305.70946
306.98474
308.61293
308.96579
309.4205
309.65297
309.86843
310.02953
310.17593
310.29177
310.40684
310.49926
310.59476
310.67352
310.75523
310.82513
310.8966
310.96036
311.02395
311.08327
311.14063
311.19667
311.24896
311.30252
311.35058
311.40228
311.44674
311.49701
311.53836
311.58756
311.62616
311.67457
311.71071
311.75858
311.79245
311.84
311.87175
311.9192
311.94889
311.99647
312.02411
312.07206
312.09758
312.14625
312.16941
312.21931
312.23955
312.29175
312.30732
312.36604
305.25725
306.02545
307.75896
308.14821
308.6708
308.93871
309.18825
309.37526
309.54423
309.67799
309.81004
309.91594
310.02476
310.11432
310.2067
310.28562
310.36576
310.43727
310.50798
310.57414
310.63736
310.69954
310.75667
310.81585
310.86789
310.92479
310.97251
311.02767
311.07164
311.12549
311.16615
311.21904
311.25672
311.30895
311.34388
311.39573
311.42809
311.4798
311.50968
311.56154
311.58895
311.64125
311.66609
311.71924
311.74124
311.79585
311.81436
311.87166
311.8848
311.94885
304.92675
305.24701
306.98244
307.38501
307.95623
308.25168
308.52952
308.73923
308.92795
309.07813
309.22544
309.34396
309.46492
309.56475
309.66694
309.75453
309.84268
309.92172
309.99902
310.07184
310.14051
310.20871
310.27034
310.33504
310.39079
310.45282
310.50356
310.56356
310.60995
310.66841
310.71095
310.76828
310.80735
310.8639
310.89979
310.95588
310.98876
311.04469
311.07469
311.13077
311.15789
311.21448
311.23862
311.29618
311.31702
311.37623
311.39309
311.45527
311.46626
311.53502
304.6809
304.64683
306.29607
306.6892
307.28639
307.5998
307.89878
308.12694
308.33185
308.49639
308.65676
308.7867
308.91828
309.02762
309.13852
309.23427
309.32959
309.41579
309.49902
309.57825
309.65185
309.72586
309.79157
309.86163
309.92074
309.98778
310.04125
310.10598
310.15454
310.21752
310.26174
310.32342
310.36372
310.42452
310.46121
310.52147
310.55477
310.61484
310.64487
310.7051
310.73187
310.79266
310.81606
310.87791
310.89762
310.96127
310.97657
311.04335
311.0525
311.12541
304.49449
304.20966
305.70684
306.07092
306.66978
306.99067
307.3025
307.54399
307.76085
307.93711
308.10789
308.24769
308.38807
308.5059
308.62417
308.72737
308.82886
308.92171
309.0101
309.09534
309.17324
309.25278
309.32206
309.39725
309.45929
309.53114
309.587
309.65629
309.70674
309.77409
309.81976
309.88567
309.92701
309.99192
310.02927
310.09358
310.12717
310.19126
310.22122
310.28547
310.31184
310.37669
310.39933
310.46531
310.48392
310.5518
310.56566
310.63672
310.64436
310.72087
304.34968
303.91178
305.21558
305.53606
306.11311
306.43096
306.7467
306.99571
307.21974
307.40461
307.58275
307.73049
307.87756
308.0026
308.12669
308.23645
308.34293
308.44177
308.5344
308.62516
308.70663
308.7913
308.86356
308.94355
309.00806
309.08445
309.1423
309.21592
309.26795
309.33946
309.38631
309.45626
309.49841
309.56728
309.6051
309.6733
309.70704
309.77498
309.80479
309.87289
309.89879
309.96751
309.98939
310.05929
310.07684
310.14868
310.16126
310.2362
310.24264
310.32228
304.23438
303.72535
304.81769
305.08578
305.62085
305.92589
306.23647
306.48685
306.71296
306.90291
307.08508
307.23854
307.38995
307.52068
307.64888
307.76411
307.87426
307.97828
308.07412
308.16977
308.25399
308.34328
308.41787
308.50225
308.56868
308.64927
308.70866
308.78633
308.83955
308.91497
308.96269
309.03645
309.07917
309.15176
309.18987
309.26174
309.29548
309.36707
309.39661
309.46835
309.49372
309.56609
309.58719
309.66075
309.6773
309.75279
309.76424
309.84265
309.84818
309.93051
304.13938
303.62106
304.50411
304.71685
305.19489
305.47875
305.77563
306.02127
306.24428
306.43559
306.61828
306.77501
306.92824
307.06297
307.19339
307.31283
307.42523
307.53347
307.6314
307.73119
307.81727
307.91057
307.98675
308.07504
308.14279
308.22716
308.28761
308.36894
308.42296
308.50197
308.55023
308.6275
308.67052
308.74657
308.78474
308.86003
308.89361
308.96859
308.99775
309.07286
309.09764
309.17337
309.1937
309.27061
309.28623
309.36499
309.37548
309.45691
309.46178
309.5464
304.05904
303.57265
304.26303
304.42261
304.83446
305.09071
305.36643
305.60165
305.81663
306.00552
306.18519
306.34263
306.49509
306.63196
306.76265
306.88493
306.99804
307.10944
307.20825
307.31133
307.39831
307.49494
307.57193
307.66353
307.73197
307.81962
307.8806
307.96518
308.01956
308.10177
308.15022
308.23065
308.27369
308.35286
308.39087
308.46926
308.50251
308.58057
308.60923
308.68741
308.71154
308.79032
308.80986
308.88976
308.90453
308.98617
308.99584
309.07986
309.08425
309.17081
303.98889
303.55749
304.08151
304.19392
304.53624
304.76071
305.00945
305.22936
305.43185
305.61474
305.78801
305.9436
306.09271
306.2298
306.35877
306.48241
306.59469
306.70808
306.80654
306.91198
306.99884
307.09803
307.17502
307.26928
307.33773
307.4281
307.48906
307.57638
307.63068
307.71563
307.76391
307.84709
307.88984
307.97176
308.00937
308.0905
308.12325
308.20403
308.23208
308.31297
308.33639
308.41783
308.4366
308.5191
308.53308
308.61717
308.62618
308.71231
308.71638
308.80452
303.92657
303.55909
303.94681
304.02033
304.29482
304.48569
304.70356
304.90437
305.09065
305.26434
305.42812
305.5794
305.72272
305.85814
305.98345
306.10695
306.21684
306.33102
306.42787
306.53467
306.6204
306.72131
306.79746
306.89367
306.96145
307.05392
307.11429
307.20381
307.25754
307.34475
307.39246
307.47794
307.5201
307.60434
307.64132
307.72478
307.75684
307.83995
307.86726
307.95046
307.9731
308.05682
308.0748
308.15949
308.17274
308.25883
308.26728
308.35509
308.35894
308.44833
303.87012
303.56578
303.84735
303.89107
304.1033
304.26097
304.4461
304.62529
304.79254
304.95439
305.10606
305.25082
305.38613
305.51808
305.6379
305.75978
305.86581
305.97955
306.07357
306.1807
306.26429
306.36605
306.44052
306.53794
306.60434
306.69825
306.75745
306.84858
306.90127
306.99021
307.03696
307.12425
307.1655
307.2516
307.28769
307.37304
307.40422
307.48923
307.51568
307.60076
307.62257
307.70812
307.72531
307.81172
307.8243
307.91193
307.91991
308.00896
308.01265
308.10295
303.81865
303.57112
303.77331
303.79599
303.95399
304.08069
304.23315
304.3895
304.53594
304.68398
304.82147
304.95786
305.08326
305.2101
305.32281
305.44168
305.54246
305.65457
305.74461
305.85105
305.93154
306.03326
306.10525
306.20308
306.26744
306.3621
306.41957
306.51167
306.56286
306.65295
306.69836
306.78692
306.82695
306.91441
306.94937
307.03613
307.06626
307.1527
307.17817
307.26467
307.28557
307.37249
307.38889
307.47656
307.4885
307.57721
307.58478
307.67464
307.67821
307.76906
303.77134
303.57182
303.71689
303.72613
303.83912
303.9384
304.05985
304.19342
304.31827
304.4513
304.5732
304.69977
304.81377
304.93411
305.03832
305.15292
305.24723
305.35659
305.4416
305.54637
305.62286
305.72367
305.7924
305.88988
305.95154
306.04625
306.10144
306.19389
306.24312
306.33378
306.37747
306.46675
306.50525
306.59355
306.62714
306.71481
306.74371
306.8311
306.85546
306.9429
306.96283
307.05065
307.06622
307.15469
307.166
307.25533
307.26254
307.35278
307.35623
307.4473
303.72782
303.56729
303.6722
303.67408
303.75135
303.82752
303.92083
304.03274
304.13622
304.25378
304.35932
304.47511
304.57665
304.6894
304.78403
304.89328
304.9801
305.08571
305.16478
305.26695
305.33864
305.4377
305.5025
305.59885
305.65723
305.75129
305.80369
305.89585
305.94269
306.03331
306.07493
306.16437
306.20106
306.28966
306.32165
306.40972
306.43721
306.52505
306.54818
306.63608
306.65497
306.74319
306.75793
306.84671
306.85741
306.94689
306.95375
307.04396
307.04729
307.1382
303.6877
303.55806
303.63512
303.6341
303.68417
303.74179
303.81057
303.9028
303.98594
304.08825
304.17734
304.28185
304.37035
304.47473
304.55901
304.66205
304.7406
304.8416
304.91398
305.01272
305.07894
305.17548
305.23573
305.33024
305.3848
305.47754
305.5267
305.61793
305.66199
305.75199
305.79121
305.88025
305.91486
306.00323
306.03341
306.12136
306.14728
306.23507
306.25686
306.34472
306.36249
306.45064
306.46451
306.55313
306.56321
306.65241
306.6589
306.74868
306.75188
306.84227
303.65072
303.54538
303.60292
303.60195
303.63212
303.67556
303.72377
303.79884
303.86329
303.95119
304.0243
304.1175
304.1928
304.28838
304.3619
304.45809
304.52784
304.62353
304.68866
304.78328
304.84347
304.9368
304.992
305.08402
305.13431
305.22509
305.27062
305.36032
305.40126
305.49006
305.52659
305.61469
305.64698
305.73458
305.76277
305.85008
305.87429
305.96152
305.98187
306.0692
306.0858
306.1734
306.18635
306.27436
306.2838
306.37228
306.3784
306.46735
306.47039
306.5599
303.6166
303.53046
303.57393
303.57475
303.59085
303.62401
303.65558
303.71625
303.76412
303.83888
303.89696
303.97922
304.04161
304.12826
304.19092
304.27989
304.34056
304.43043
304.48795
304.57787
304.63165
304.72118
304.77096
304.85987
304.90555
304.9938
305.03537
305.12298
305.16052
305.24758
305.28118
305.3678
305.39756
305.48389
305.50991
305.5961
305.61847
305.70466
305.72347
305.8098
305.82516
305.91175
305.92375
306.0107
306.01948
306.10682
306.11255
306.20029
306.20315
306.2914
303.58511
303.51437
303.5472
303.55062
303.55707
303.58322
303.60176
303.65084
303.68445
303.74763
303.792
303.86403
303.91412
303.99202
304.04402
304.12564
304.17719
304.26092
304.31066
304.39546
304.4426
304.52785
304.57194
304.65727
304.69806
304.78327
304.82064
304.90565
304.93957
305.02439
305.05486
305.13952
305.16659
305.25117
305.27489
305.35947
305.3799
305.46458
305.48178
305.56666
305.58072
305.66586
305.67688
305.76235
305.77043
305.85625
305.86155
305.94772
305.95038
306.03702
303.55597
303.49788
303.52226
303.52846
303.52845
303.55014
303.5588
303.5989
303.6206
303.67393
303.70613
303.76887
303.80757
303.87715
303.91897
303.9933
304.03593
304.11337
304.15536
304.23476
304.27519
304.3558
304.39408
304.47541
304.51117
304.59291
304.62592
304.70789
304.73804
304.82016
304.84737
304.92961
304.95387
305.03624
305.05757
305.1401
305.1585
305.24124
305.25678
305.33977
305.3525
305.43578
305.44577
305.52938
305.53674
305.62066
305.62551
305.70976
305.71219
305.79687
303.52898
303.4815
303.49887
303.50767
303.50337
303.52249
303.52388
303.5573
303.56935
303.61454
303.63624
303.69078
303.71921
303.78106
303.81339
303.88071
303.91482
303.98599
304.02043
304.0943
304.12809
304.20382
304.23629
304.31332
304.34399
304.42192
304.45049
304.52905
304.55534
304.63438
304.65824
304.73767
304.75905
304.83881
304.85767
304.93776
304.95408
305.03449
305.04831
305.12904
305.14038
305.22144
305.23038
305.31175
305.31836
305.40004
305.40441
305.48641
305.48861
305.57102
303.50391
303.46551
303.47692
303.48797
303.48082
303.49867
303.49485
303.52351
303.52794
303.56663
303.5795
303.62699
303.64638
303.70125
303.72494
303.78564
303.81179
303.87688
303.90412
303.97245
303.99982
304.07055
304.09732
304.16984
304.19548
304.26933
304.29348
304.36833
304.39074
304.46638
304.48687
304.56314
304.5816
304.65842
304.67477
304.75207
304.76628
304.84401
304.85608
304.9342
304.94415
305.02264
305.0305
305.10932
305.11516
305.1943
305.19816
305.27761
305.27956
305.35939
303.48059
303.45006
303.45638
303.46925
303.46017
303.47758
303.47012
303.49552
303.49412
303.52776
303.53339
303.57498
303.58661
303.63529
303.6513
303.70591
303.72479
303.78407
303.8046
303.86752
303.88878
303.95451
303.97579
304.0437
304.06445
304.13405
304.15386
304.22478
304.24337
304.31535
304.33249
304.40534
304.42089
304.49447
304.50833
304.58253
304.59464
304.66937
304.6797
304.75491
304.76345
304.83907
304.84585
304.92184
304.92689
305.0032
305.00656
305.08318
305.08487
305.16186
303.45886
303.43522
303.4372
303.4515
303.44106
303.45851
303.44856
303.47184
303.46608
303.49592
303.49578
303.53254
303.53766
303.58099
303.59032
303.63941
303.65179
303.70565
303.72005
303.77775
303.79334
303.85414
303.87026
303.93353
303.94962
304.01487
304.03051
304.09736
304.11224
304.18037
304.19425
304.26346
304.27617
304.34626
304.35767
304.42853
304.43856
304.51005
304.51865
304.59069
304.59784
304.67034
304.67604
304.74894
304.7532
304.82645
304.82928
304.90285
304.90428
304.97819
303.43856
303.42099
303.41932
303.43472
303.42329
303.44103
303.4294
303.45137
303.44245
303.4695
303.46487
303.49775
303.49755
303.53633
303.53999
303.58419
303.59087
303.63975
303.64865
303.70144
303.71186
303.76789
303.77921
303.83792
303.84964
303.91053
303.92222
303.98491
303.99626
304.06043
304.07118
304.13659
304.14655
304.213
304.22203
304.28935
304.29736
304.3654
304.37232
304.44098
304.44676
304.51594
304.52058
304.59019
304.59366
304.66364
304.66596
304.73626
304.73743
304.80806
303.41959
303.40739
303.4027
303.41894
303.40676
303.42487
303.41213
303.43334
303.4222
303.44724
303.43922
303.46905
303.46461
303.49957
303.49853
303.53845
303.54027
303.58462
303.58872
303.63692
303.64271
303.6942
303.70117
303.75544
303.76313
303.81972
303.82775
303.88627
303.89431
303.95446
303.96225
304.02377
304.03113
304.0938
304.10056
304.1642
304.17027
304.23472
304.24001
304.30514
304.3096
304.37529
304.37889
304.44505
304.44776
304.5143
304.51612
304.58299
304.58391
304.65109
303.40185
303.39439
303.38729
303.40416
303.39143
303.4099
303.39645
303.41723
303.40458
303.42819
303.41769
303.44514
303.43742
303.46923
303.46438
303.5006
303.49835
303.53867
303.53863
303.58262
303.58436
303.63157
303.63468
303.68468
303.68875
303.74114
303.74581
303.80023
303.8052
303.86134
303.86638
303.92398
303.92889
303.98773
303.99236
304.05224
304.05647
304.11723
304.12097
304.18246
304.18566
304.24774
304.25035
304.31293
304.3149
304.37789
304.37922
304.44254
304.44321
304.50683
303.38525
303.382
303.37302
303.39038
303.37727
303.39604
303.38216
303.40268
303.38906
303.41166
303.39941
303.42501
303.41484
303.44405
303.43621
303.46926
303.4637
303.50044
303.49694
303.5371
303.53536
303.5786
303.57832
303.6243
303.62514
303.6735
303.67516
303.72557
303.72777
303.77995
303.78248
303.83617
303.83884
303.89382
303.89648
303.95256
303.95508
304.01209
304.01439
304.07217
304.07417
304.13259
304.13425
304.19318
304.19446
304.2538
304.25467
304.31435
304.31479
304.37475
303.36973
303.37025
303.35989
303.37762
303.36427
303.38325
303.36915
303.38949
303.37529
303.39714
303.38372
303.40788
303.39593
303.42301
303.41291
303.44324
303.43507
303.46866
303.46234
303.49903
303.4944
303.53398
303.53081
303.573
303.57105
303.61556
303.61457
303.66111
303.66086
303.70917
303.70944
303.75929
303.75993
303.81109
303.81195
303.86424
303.8652
303.91845
303.91941
303.97346
303.97437
304.02907
304.02986
304.0851
304.08572
304.14139
304.14182
304.19782
304.19804
304.2543
303.35525
303.35917
303.34787
303.36588
303.35244
303.37154
303.35736
303.37752
303.36302
303.38427
303.37014
303.39313
303.37997
303.4053
303.39353
303.42156
303.41138
303.44222
303.43366
303.46726
303.46026
303.49649
303.49092
303.52959
303.52527
303.56615
303.56289
303.60573
303.60333
303.64791
303.6462
303.6923
303.69113
303.73855
303.7378
303.78635
303.7859
303.83542
303.83518
303.88551
303.88542
303.93642
303.93641
303.98796
303.98798
304.03996
304.03999
304.0923
304.09232
304.14487
303.34183
303.34883
303.33698
303.3552
303.34177
303.36089
303.34674
303.36668
303.3521
303.37283
303.35832
303.38034
303.36642
303.39027
303.37736
303.40341
303.39176
303.4202
303.40992
303.44076
303.43189
303.46508
303.45755
303.49298
303.4867
303.52419
303.519
303.55835
303.55412
303.59513
303.59171
303.6342
303.63146
303.67524
303.67307
303.71797
303.71627
303.76213
303.76082
303.80749
303.8065
303.85384
303.85311
303.901
303.90049
303.94881
303.94848
303.99712
303.99696
304.04583
303.32952
303.33933
303.32726
303.34559
303.33228
303.35131
303.33727
303.35693
303.34241
303.36263
303.34799
303.36917
303.35483
303.37742
303.36378
303.38813
303.37547
303.40179
303.39027
303.41864
303.40835
303.43878
303.42973
303.46218
303.45433
303.48866
303.48191
303.51797
303.51221
303.54985
303.54498
303.58402
303.57993
303.62022
303.61682
303.6582
303.65541
303.69772
303.69546
303.73857
303.73678
303.78055
303.77918
303.82348
303.82249
303.86721
303.86656
303.91159
303.91127
303.95651
303.3185
303.33081
303.31875
303.33709
303.32396
303.34279
303.32893
303.34822
303.33387
303.35356
303.33898
303.35937
303.34489
303.36636
303.35233
303.37518
303.36189
303.38634
303.37398
303.40015
303.38884
303.41679
303.4066
303.43632
303.42725
303.45866
303.45067
303.48367
303.47668
303.51113
303.50508
303.54084
303.53565
303.57259
303.56817
303.60615
303.60245
303.64133
303.63827
303.67792
303.67545
303.71574
303.71382
303.75463
303.75322
303.79444
303.79351
303.83502
303.83456
303.87626
303.30905
303.32342
303.31151
303.32972
303.31681
303.33532
303.32169
303.34052
303.32641
303.34554
303.33114
303.35078
303.33636
303.3568
303.34265
303.36416
303.35054
303.37334
303.36046
303.38467
303.37267
303.39838
303.38739
303.41462
303.40466
303.43339
303.42446
303.45461
303.44668
303.47814
303.47116
303.50383
303.49774
303.53152
303.52627
303.56101
303.55656
303.59215
303.58843
303.62475
303.62172
303.65866
303.65628
303.69372
303.69196
303.72978
303.72862
303.76672
303.76614
303.80442
303.30152
303.31731
303.30557
303.32348
303.31079
303.32887
303.31549
303.33379
303.31997
303.33849
303.32437
303.34325
303.32903
303.34851
303.33444
303.35473
303.34104
303.36234
303.34922
303.37166
303.35928
303.38296
303.37145
303.39643
303.38586
303.41213
303.40253
303.43005
303.42141
303.45011
303.44241
303.4722
303.46542
303.49621
303.49031
303.522
303.51694
303.54942
303.54516
303.57832
303.57483
303.60856
303.60581
303.64001
303.63796
303.67253
303.67117
303.706
303.70532
303.74031
303.29613
303.31254
303.30091
303.31835
303.30587
303.32341
303.3103
303.32798
303.31449
303.33233
303.31856
303.33668
303.32277
303.34132
303.32748
303.34664
303.33306
303.35299
303.33986
303.36069
303.34817
303.37001
303.35824
303.38116
303.37024
303.39425
303.38423
303.40932
303.40021
303.42633
303.41814
303.44524
303.43796
303.46595
303.45957
303.48838
303.48287
303.5124
303.50773
303.53789
303.53405
303.56474
303.56169
303.59282
303.59054
303.62201
303.62049
303.65219
303.65144
303.68328
303.29286
303.30909
303.29745
303.31425
303.30196
303.31885
303.30603
303.32303
303.30989
303.32702
303.31363
303.33096
303.31744
303.33509
303.32158
303.33968
303.32636
303.34503
303.33206
303.35142
303.33896
303.35911
303.3473
303.36833
303.35727
303.37922
303.36897
303.39183
303.38245
303.4062
303.3977
303.4223
303.4147
303.44009
303.43337
303.45949
303.45366
303.48043
303.47547
303.50281
303.4987
303.52652
303.52325
303.55147
303.54903
303.57755
303.57593
303.60467
303.60385
303.63272
303.29138
303.3068
303.29506
303.31109
303.29898
303.31514
303.30262
303.31887
303.30611
303.32248
303.30951
303.32603
303.31295
303.3297
303.31661
303.33369
303.32074
303.33823
303.32555
303.34356
303.3313
303.34992
303.33821
303.35753
303.3465
303.36656
303.35627
303.37709
303.36761
303.38917
303.38052
303.40281
303.39503
303.41801
303.4111
303.43472
303.42869
303.45288
303.44773
303.47243
303.46815
303.49328
303.48987
303.51535
303.5128
303.53856
303.53685
303.5628
303.56195
303.58802
303.29113
303.30542
303.29357
303.30874
303.2968
303.31218
303.29996
303.31544
303.30306
303.31863
303.30611
303.32181
303.3092
303.32505
303.31244
303.32853
303.31602
303.3324
303.32011
303.33686
303.32493
303.34213
303.33067
303.34842
303.33756
303.35589
303.3457
303.36465
303.3552
303.37476
303.3661
303.38627
303.37844
303.39919
303.39221
303.41351
303.40739
303.42919
303.42395
303.44619
303.44181
303.46444
303.46094
303.48387
303.48125
303.50443
303.50268
303.52602
303.52515
303.54859
303.29154
303.30468
303.29278
303.30706
303.2953
303.30986
303.29797
303.31263
303.30065
303.31541
303.30335
303.31821
303.3061
303.32107
303.30897
303.32409
303.31208
303.32739
303.31557
303.33114
303.31962
303.33551
303.3244
303.3407
303.33012
303.34687
303.3369
303.35413
303.34484
303.36256
303.35401
303.37223
303.36446
303.38316
303.37621
303.39537
303.38926
303.40885
303.40359
303.42355
303.41916
303.43945
303.43593
303.4565
303.45385
303.47463
303.47286
303.49378
303.4929
303.5139
303.29218
303.30434
303.29249
303.30589
303.29436
303.30808
303.29653
303.31037
303.29881
303.31275
303.30116
303.31518
303.30357
303.31766
303.30609
303.32027
303.30879
303.32309
303.31178
303.32624
303.31519
303.32986
303.31918
303.33414
303.32392
303.33922
303.32955
303.34521
303.33617
303.35221
303.34386
303.36029
303.35268
303.3695
303.36266
303.37987
303.37383
303.39139
303.38618
303.40406
303.3997
303.41785
303.41435
303.43273
303.43009
303.44865
303.44689
303.46557
303.46469
303.48344
303.29282
303.3042
303.29254
303.3051
303.29385
303.30673
303.29555
303.30858
303.29745
303.31056
303.29945
303.31263
303.30154
303.31477
303.30373
303.317
303.30607
303.31939
303.30862
303.32203
303.31148
303.32502
303.31481
303.32853
303.31874
303.3327
303.3234
303.33762
303.3289
303.34341
303.33532
303.35013
303.34273
303.35785
303.35119
303.3666
303.36071
303.3764
303.37131
303.38726
303.38299
303.39917
303.39573
303.41211
303.40952
303.42604
303.42431
303.44093
303.44006
303.45674
303.29338
303.30416
303.2928
303.30458
303.29365
303.30573
303.29495
303.30717
303.29648
303.30878
303.29815
303.31051
303.29993
303.31231
303.30181
303.31419
303.30381
303.3162
303.30597
303.31839
303.30837
303.32085
303.31113
303.32371
303.31438
303.32711
303.31823
303.33113
303.32279
303.33589
303.32812
303.34144
303.33433
303.34787
303.34145
303.35523
303.34953
303.36353
303.35859
303.3728
303.36865
303.38303
303.37969
303.39423
303.39171
303.40637
303.40468
303.41942
303.41857
303.43335
303.29385
303.30414
303.29317
303.30423
303.29368
303.30499
303.29462
303.30607
303.29582
303.30734
303.29719
303.30874
303.29868
303.31022
303.30026
303.31178
303.30194
303.31344
303.30375
303.31522
303.30575
303.31722
303.30803
303.31954
303.31069
303.32228
303.31386
303.32555
303.3176
303.32942
303.32202
303.33399
303.32719
303.33931
303.33316
303.34545
303.33999
303.35244
303.3477
303.36031
303.35632
303.36907
303.36585
303.37872
303.37629
303.38925
303.38762
303.40064
303.39983
303.41288
303.29424
303.3041
303.29359
303.30399
303.29385
303.30444
303.29451
303.30521
303.29542
303.30617
303.29651
303.30727
303.29771
303.30845
303.299
303.3097
303.30039
303.31103
303.30188
303.31246
303.30352
303.31405
303.30537
303.31589
303.30754
303.31808
303.31012
303.3207
303.31318
303.32383
303.31681
303.32754
303.32109
303.33192
303.32607
303.33702
303.33181
303.34287
303.33835
303.34952
303.3457
303.35697
303.3539
303.36525
303.36293
303.37435
303.37279
303.38426
303.38348
303.39497
303.29456
303.30404
303.29402
303.3038
303.29411
303.30402
303.29454
303.30453
303.2952
303.30522
303.29603
303.30603
303.29697
303.30693
303.29799
303.30788
303.29909
303.30891
303.30028
303.31001
303.30159
303.31124
303.30307
303.31267
303.30481
303.31438
303.30688
303.31644
303.30936
303.31894
303.31232
303.32193
303.31584
303.3255
303.31997
303.32969
303.32477
303.33456
303.33028
303.34014
303.33653
303.34646
303.34354
303.35353
303.35132
303.36136
303.35988
303.36995
303.3692
303.37929
303.29483
303.30395
303.29442
303.30363
303.29441
303.30369
303.29467
303.30398
303.29512
303.30443
303.29571
303.30498
303.29639
303.3056
303.29715
303.30628
303.29799
303.30701
303.29889
303.30781
303.2999
303.30871
303.30104
303.30978
303.3024
303.31108
303.30404
303.31267
303.30602
303.31462
303.30841
303.317
303.31127
303.31987
303.31467
303.32329
303.31865
303.32731
303.32327
303.33197
303.32856
303.33729
303.33453
303.3433
303.34121
303.35001
303.3486
303.35742
303.35671
303.36553
303.29506
303.30382
303.2948
303.30347
303.29473
303.3034
303.29485
303.30352
303.29512
303.30376
303.29549
303.30407
303.29593
303.30443
303.29644
303.30484
303.29701
303.30529
303.29765
303.30581
303.29837
303.30641
303.29922
303.30715
303.30024
303.30809
303.3015
303.30927
303.30304
303.31075
303.30494
303.3126
303.30724
303.31488
303.31001
303.31764
303.3133
303.32093
303.31714
303.32479
303.32159
303.32924
303.32665
303.33432
303.33236
303.34004
303.33873
303.34642
303.34575
303.35344
303.29524
303.30366
303.29513
303.3033
303.29503
303.30314
303.29505
303.30311
303.29516
303.30315
303.29532
303.30323
303.29554
303.30335
303.2958
303.3035
303.29612
303.30369
303.29651
303.30394
303.29696
303.30427
303.29753
303.30472
303.29825
303.30533
303.29917
303.30616
303.30034
303.30724
303.30181
303.30864
303.30364
303.31042
303.30587
303.31261
303.30855
303.31527
303.31173
303.31844
303.31544
303.32214
303.31972
303.32641
303.32458
303.33127
303.33004
303.33672
303.3361
303.34278
303.29537
303.30347
303.29542
303.3031
303.29531
303.30288
303.29525
303.30273
303.2952
303.30259
303.29517
303.30244
303.29516
303.30232
303.29519
303.30222
303.29527
303.30216
303.2954
303.30216
303.29561
303.30223
303.29592
303.30242
303.29637
303.30275
303.297
303.30326
303.29784
303.304
303.29895
303.30502
303.30036
303.30636
303.30212
303.30807
303.30429
303.31019
303.3069
303.31276
303.30998
303.31582
303.31356
303.31939
303.31768
303.32349
303.32234
303.32814
303.32756
303.33335
303.29547
303.30326
303.29567
303.30289
303.29555
303.30261
303.29541
303.30234
303.29522
303.30201
303.29499
303.30166
303.29476
303.30129
303.29456
303.30095
303.29439
303.30066
303.29429
303.30042
303.29427
303.30026
303.29435
303.3002
303.29455
303.30028
303.29492
303.30052
303.29547
303.30096
303.29626
303.30165
303.29732
303.30262
303.29869
303.30392
303.30041
303.30558
303.30252
303.30764
303.30506
303.31014
303.30805
303.3131
303.31151
303.31654
303.31548
303.32049
303.31995
303.32495
303.29552
303.30302
303.29587
303.30265
303.29574
303.30232
303.29553
303.30192
303.29518
303.30141
303.29475
303.30083
303.2943
303.30023
303.29386
303.29966
303.29347
303.29913
303.29315
303.29867
303.2929
303.29829
303.29276
303.29802
303.29275
303.29787
303.29288
303.29788
303.29318
303.29806
303.29369
303.29847
303.29445
303.29912
303.29548
303.30007
303.29682
303.30134
303.29851
303.30297
303.30058
303.30499
303.30305
303.30742
303.30596
303.3103
303.30931
303.31363
303.31313
303.31744
303.29554
303.30277
303.29602
303.30239
303.29588
303.302
303.29558
303.30144
303.29505
303.30073
303.29441
303.29993
303.29373
303.2991
303.29306
303.2983
303.29245
303.29756
303.29191
303.29689
303.29147
303.29631
303.29113
303.29584
303.29091
303.29549
303.29084
303.29529
303.29092
303.29526
303.2912
303.29542
303.29169
303.29581
303.29243
303.29645
303.29345
303.29739
303.29477
303.29865
303.29644
303.30026
303.29847
303.30224
303.30089
303.30463
303.30372
303.30743
303.30697
303.31067
303.29551
303.3025
303.29613
303.30211
303.29597
303.30161
303.29553
303.30088
303.2948
303.29995
303.29393
303.29891
303.29301
303.29786
303.29213
303.29684
303.29131
303.29589
303.29057
303.29503
303.28993
303.29427
303.28941
303.29362
303.28902
303.2931
303.28876
303.29272
303.28866
303.29249
303.28873
303.29245
303.289
303.29261
303.28949
303.29301
303.29023
303.29367
303.29125
303.29461
303.29257
303.29587
303.29422
303.29747
303.29622
303.29943
303.29859
303.30177
303.30135
303.30451
303.29545
303.30223
303.2962
303.30179
303.29597
303.30115
303.29536
303.3002
303.2944
303.29902
303.29328
303.29775
303.29213
303.29647
303.29103
303.29524
303.29
303.2941
303.28908
303.29307
303.28828
303.29214
303.28759
303.29134
303.28704
303.29067
303.28662
303.29013
303.28636
303.28975
303.28626
303.28953
303.28633
303.2895
303.28662
303.28969
303.28712
303.29011
303.28788
303.29079
303.28891