/*--------------------------------*- C++ -*----------------------------------*\
| =========                 |                                                 |
| \\      /  F ield         | OpenFOAM: The Open Source CFD Toolbox           |
|  \\    /   O peration     | Version:  2312                                  |
|   \\  /    A nd           | Website:  www.openfoam.com                      |
|    \\/     M anipulation  |                                                 |
\*---------------------------------------------------------------------------*/
FoamFile
{
    version     2.0;
    format      ascii;
    arch        "LSB;label=32;scalar=64";
    class       volVectorField;
    location    "6";
    object      U;
}
// * * * * * * * * * * * * * * * * * * * * * * * * * * * * * * * * * * * * * //

dimensions      [0 1 -1 0 0 0 0];

internalField   nonuniform List<vector> 
4000
(
(0.0029376616 0.00066288028 0)
(0.0064326106 -8.2237908e-06 0)
(0.0031528872 1.5082213e-07 0)
(0.0038619969 -6.9088254e-07 0)
(0.0036064256 9.0378319e-08 0)
(0.003584583 -1.949819e-07 0)
(0.0035905149 9.6488892e-08 0)
(0.0035360687 -1.6297735e-07 0)
(0.0035638845 1.1744534e-07 0)
(0.0035310622 -1.2418443e-07 0)
(0.0035558128 1.1072589e-07 0)
(0.0035323986 -1.0562524e-07 0)
(0.0035530508 9.8855247e-08 0)
(0.0035338056 -9.3212037e-08 0)
(0.0035516156 8.7738852e-08 0)
(0.0035348805 -8.2739457e-08 0)
(0.0035505431 7.791404e-08 0)
(0.0035358086 -7.3457593e-08 0)
(0.0035496213 6.9203222e-08 0)
(0.0035366524 -6.524021e-08 0)
(0.0035488024 6.1506829e-08 0)
(0.0035374159 -5.8018672e-08 0)
(0.0035480729 5.4757433e-08 0)
(0.0035381001 -5.1709666e-08 0)
(0.0035474242 4.8871258e-08 0)
(0.00353871 -4.6219928e-08 0)
(0.0035468475 4.3756199e-08 0)
(0.0035392533 -4.1456435e-08 0)
(0.0035463337 3.9323138e-08 0)
(0.0035397383 -3.7333817e-08 0)
(0.0035458739 3.549222e-08 0)
(0.0035401735 -3.3777776e-08 0)
(0.0035454601 3.2195075e-08 0)
(0.0035405663 -3.0725706e-08 0)
(0.0035450853 2.9374683e-08 0)
(0.0035409235 -2.8125844e-08 0)
(0.0035447431 2.6984215e-08 0)
(0.0035412508 -2.5935903e-08 0)
(0.0035444281 2.4985615e-08 0)
(0.0035415535 -2.4121734e-08 0)
(0.0035441355 2.3348335e-08 0)
(0.0035418361 -2.2656334e-08 0)
(0.0035438609 2.20488e-08 0)
(0.0035421032 -2.1518147e-08 0)
(0.0035436014 2.1074067e-08 0)
(0.0035423595 -2.0687126e-08 0)
(0.0035433479 2.0418788e-08 0)
(0.0035425757 -2.0222137e-08 0)
(0.003542983 1.9740751e-08 0)
(0.0035424724 -2.1785957e-08 0)
(0.006899799 0.001499174 0)
(0.016753505 -3.8035427e-06 0)
(0.0099410956 3.2756874e-05 0)
(0.011045293 -5.4136276e-06 0)
(0.010478796 4.0421841e-06 0)
(0.010382892 -3.1266284e-07 0)
(0.010424321 1.1261875e-06 0)
(0.010261442 -1.2707616e-07 0)
(0.010346015 5.2377097e-07 0)
(0.010248759 -3.2703705e-07 0)
(0.01032278 3.9287977e-07 0)
(0.010253069 -3.521378e-07 0)
(0.010314943 3.4837451e-07 0)
(0.010257355 -3.2773658e-07 0)
(0.010310746 3.1284029e-07 0)
(0.010260624 -2.9432815e-07 0)
(0.01030753 2.7857747e-07 0)
(0.01026344 -2.6201345e-07 0)
(0.010304755 2.4732623e-07 0)
(0.010265986 -2.3289508e-07 0)
(0.010302298 2.197559e-07 0)
(0.010268278 -2.0722434e-07 0)
(0.010300116 1.9566827e-07 0)
(0.010270327 -1.847867e-07 0)
(0.010298178 1.7469911e-07 0)
(0.010272151 -1.6525359e-07 0)
(0.010296454 1.5648214e-07 0)
(0.010273778 -1.4829145e-07 0)
(0.010294916 1.4068616e-07 0)
(0.010275233 -1.3359776e-07 0)
(0.010293538 1.2702507e-07 0)
(0.010276541 -1.2091201e-07 0)
(0.010292295 1.1525828e-07 0)
(0.010277724 -1.1001585e-07 0)
(0.010291166 1.0518651e-07 0)
(0.010278801 -1.0072879e-07 0)
(0.010290134 9.6645998e-08 0)
(0.010279791 -9.290273e-08 0)
(0.010289182 8.9503016e-08 0)
(0.010280709 -8.6416844e-08 0)
(0.010288295 8.3649104e-08 0)
(0.010281568 -8.1174902e-08 0)
(0.01028746 7.8992999e-08 0)
(0.010282381 -7.7112049e-08 0)
(0.010286669 7.5459849e-08 0)
(0.010283165 -7.4107673e-08 0)
(0.010285903 7.3397141e-08 0)
(0.010283874 -7.0813166e-08 0)
(0.010284911 7.6116279e-08 0)
(0.010283762 -6.8769004e-08 0)
(0.01176568 0.0025814464 0)
(0.025942562 -1.6704928e-05 0)
(0.016503623 7.74122e-05 0)
(0.018040625 -9.1699734e-06 0)
(0.017155111 9.6588089e-06 0)
(0.016993847 -3.7642081e-07 0)
(0.017080287 2.5091436e-06 0)
(0.016807709 7.1364274e-08 0)
(0.016955569 1.0155783e-06 0)
(0.016791062 -5.2077964e-07 0)
(0.016917965 7.1358245e-07 0)
(0.016799329 -6.2834968e-07 0)
(0.016905137 6.3315609e-07 0)
(0.016806834 -5.9617474e-07 0)
(0.016898063 5.7143348e-07 0)
(0.016812488 -5.3730395e-07 0)
(0.016892565 5.0934409e-07 0)
(0.016817339 -4.7863815e-07 0)
(0.016887815 4.5208734e-07 0)
(0.016821704 -4.2552147e-07 0)
(0.016883618 4.0162001e-07 0)
(0.016825621 -3.7866112e-07 0)
(0.016879898 3.5759398e-07 0)
(0.016829115 -3.3770181e-07 0)
(0.016876595 3.1929473e-07 0)
(0.016832225 -3.0204103e-07 0)
(0.016873659 2.8602597e-07 0)
(0.016834997 -2.7106578e-07 0)
(0.016871037 2.5717252e-07 0)
(0.016837479 -2.4422306e-07 0)
(0.016868685 2.3220996e-07 0)
(0.016839712 -2.2103883e-07 0)
(0.016866562 2.1070029e-07 0)
(0.016841734 -2.0111683e-07 0)
(0.016864634 1.9228166e-07 0)
(0.016843578 -1.8412963e-07 0)
(0.016862868 1.7665671e-07 0)
(0.016845273 -1.6980815e-07 0)
(0.016861237 1.6358201e-07 0)
(0.016846845 -1.5793191e-07 0)
(0.016859717 1.5285934e-07 0)
(0.016848318 -1.4832394e-07 0)
(0.016858286 1.443174e-07 0)
(0.016849714 -1.408718e-07 0)
(0.016856926 1.3778948e-07 0)
(0.016851062 -1.3536243e-07 0)
(0.016855614 1.3400431e-07 0)
(0.016852312 -1.286058e-07 0)
(0.016853992 1.4182296e-07 0)
(0.016852307 -1.2497996e-07 0)
(0.016731491 0.003577184 0)
(0.034200208 -8.322132e-05 0)
(0.022795962 0.00012809389 0)
(0.024857216 -1.4717247e-05 0)
(0.023636732 1.7801007e-05 0)
(0.02341806 -3.8079694e-07 0)
(0.023557935 4.3027482e-06 0)
(0.023174932 5.4637521e-07 0)
(0.023392748 1.531966e-06 0)
(0.023158048 -6.3111509e-07 0)
(0.023341455 1.0138133e-06 0)
(0.023171158 -8.795777e-07 0)
(0.023323708 9.0300488e-07 0)
(0.023182191 -8.520907e-07 0)
(0.02331365 8.2012129e-07 0)
(0.023190412 -7.7083583e-07 0)
(0.023305735 7.3192449e-07 0)
(0.023197437 -6.8720813e-07 0)
(0.023298888 6.4952415e-07 0)
(0.023203738 -6.1110611e-07 0)
(0.023292847 5.7694685e-07 0)
(0.023209377 -5.4390568e-07 0)
(0.023287497 5.1372028e-07 0)
(0.0232144 -4.8515389e-07 0)
(0.023282751 4.5874886e-07 0)
(0.02321887 -4.3398775e-07 0)
(0.023278531 4.1099717e-07 0)
(0.023222855 -3.8952686e-07 0)
(0.023274761 3.6957064e-07 0)
(0.023226425 -3.509804e-07 0)
(0.023271377 3.3371619e-07 0)
(0.023229638 -3.176728e-07 0)
(0.023268322 3.0280864e-07 0)
(0.02323255 -2.8904016e-07 0)
(0.023265544 2.7633261e-07 0)
(0.023235206 -2.6461647e-07 0)
(0.023263 2.5386437e-07 0)
(0.023237648 -2.4401806e-07 0)
(0.023260651 2.3505636e-07 0)
(0.023239913 -2.2692935e-07 0)
(0.023258461 2.1962486e-07 0)
(0.023242036 -2.1309584e-07 0)
(0.023256397 2.0731921e-07 0)
(0.023244049 -2.023676e-07 0)
(0.023254435 1.9786091e-07 0)
(0.023245993 -1.9445319e-07 0)
(0.023252546 1.9245073e-07 0)
(0.023247823 -1.8373533e-07 0)
(0.023250292 2.0797606e-07 0)
(0.02324805 -1.7916664e-07 0)
(0.01985045 0.0039844261 0)
(0.042081421 -0.00010207786 0)
(0.028888777 0.0001968356 0)
(0.031498144 -2.1596261e-05 0)
(0.029922644 2.8515743e-05 0)
(0.029657152 -3.8776861e-07 0)
(0.02985579 6.4371141e-06 0)
(0.029363211 1.2648594e-06 0)
(0.029657375 2.0332101e-06 0)
(0.029349952 -6.5177936e-07 0)
(0.029593114 1.2762131e-06 0)
(0.029368705 -1.0953465e-06 0)
(0.029570522 1.1454393e-06 0)
(0.029383539 -1.0848196e-06 0)
(0.029557391 1.0482851e-06 0)
(0.029394485 -9.8513211e-07 0)
(0.029546945 9.3697558e-07 0)
(0.02940381 -8.7898403e-07 0)
(0.029537895 8.3138799e-07 0)
(0.029412149 -7.8189486e-07 0)
(0.029529918 7.3843441e-07 0)
(0.029419596 -6.9606842e-07 0)
(0.029522859 6.5755668e-07 0)
(0.029426223 -6.2100207e-07 0)
(0.0295166 5.8726847e-07 0)
(0.02943212 -5.5560105e-07 0)
(0.029511031 5.262048e-07 0)
(0.02943738 -4.9874388e-07 0)
(0.029506056 4.7321092e-07 0)
(0.029442092 -4.494262e-07 0)
(0.029501588 4.2732572e-07 0)
(0.029446336 -4.0679202e-07 0)
(0.029497552 3.8775551e-07 0)
(0.029450182 -3.7012738e-07 0)
(0.029493882 3.5384681e-07 0)
(0.029453692 -3.3884169e-07 0)
(0.029490521 3.2506195e-07 0)
(0.029456919 -3.1244777e-07 0)
(0.029487416 3.0095888e-07 0)
(0.029459912 -2.9054338e-07 0)
(0.029484523 2.8117602e-07 0)
(0.029462716 -2.7280257e-07 0)
(0.029481797 2.6538756e-07 0)
(0.029465374 -2.5904888e-07 0)
(0.029479204 2.5318602e-07 0)
(0.029467941 -2.4894133e-07 0)
(0.029476713 2.4627646e-07 0)
(0.029470383 -2.3404968e-07 0)
(0.029473823 2.7151725e-07 0)
(0.029470947 -2.2890519e-07 0)
(0.025786087 0.0053721893 0)
(0.049056602 -0.00017730076 0)
(0.034733639 0.0002615273 0)
(0.037952598 -3.0939091e-05 0)
(0.036010373 4.1756539e-05 0)
(0.035712195 -5.5530481e-07 0)
(0.03597233 8.8554218e-06 0)
(0.035373354 2.1663378e-06 0)
(0.035749072 2.4972267e-06 0)
(0.035367284 -5.9059357e-07 0)
(0.035672641 1.4985392e-06 0)
(0.035392307 -1.2785328e-06 0)
(0.035645306 1.3610416e-06 0)
(0.035411144 -1.2958963e-06 0)
(0.035629049 1.2569129e-06 0)
(0.035424931 -1.1813406e-06 0)
(0.03561599 1.1254826e-06 0)
(0.035436647 -1.0549732e-06 0)
(0.03560466 9.9860774e-07 0)
(0.0354471 -9.3880095e-07 0)
(0.035594679 8.8693411e-07 0)
(0.035456421 -8.3596908e-07 0)
(0.035585852 7.8986672e-07 0)
(0.035464711 -7.4597422e-07 0)
(0.035578024 7.0553106e-07 0)
(0.035472087 -6.6752437e-07 0)
(0.035571058 6.3224897e-07 0)
(0.035478668 -5.9928648e-07 0)
(0.035564831 5.6862691e-07 0)
(0.035484567 -5.4006757e-07 0)
(0.035559238 5.1351629e-07 0)
(0.035489881 -4.8885162e-07 0)
(0.035554183 4.659723e-07 0)
(0.035494698 -4.4479075e-07 0)
(0.035549587 4.252175e-07 0)
(0.035499093 -4.0718248e-07 0)
(0.035545377 3.9061127e-07 0)
(0.035503135 -3.7544582e-07 0)
(0.035541489 3.6162563e-07 0)
(0.035506883 -3.4909919e-07 0)
(0.035537867 3.3782777e-07 0)
(0.035510394 -3.2775007e-07 0)
(0.035534455 3.1882042e-07 0)
(0.035513719 -3.1120367e-07 0)
(0.03553121 3.0405004e-07 0)
(0.035516929 -2.9909995e-07 0)
(0.035528096 2.9572558e-07 0)
(0.035520003 -2.7990076e-07 0)
(0.035524568 3.3219204e-07 0)
(0.035520997 -2.7402721e-07 0)
(0.02820576 0.0051654537 0)
(0.055541175 -0.00022658765 0)
(0.040502925 0.00033555885 0)
(0.04414853 -3.625748e-05 0)
(0.041905133 5.8367104e-05 0)
(0.041586769 -8.1430535e-07 0)
(0.041907553 1.1572042e-05 0)
(0.041206743 3.2062396e-06 0)
(0.041667483 2.9067962e-06 0)
(0.041210586 -4.5544977e-07 0)
(0.041579749 1.6799973e-06 0)
(0.041242306 -1.4322444e-06 0)
(0.041547789 1.5510189e-06 0)
(0.041265272 -1.4871974e-06 0)
(0.041528385 1.4473809e-06 0)
(0.041281974 -1.3609173e-06 0)
(0.041512665 1.2987152e-06 0)
(0.041296142 -1.2164292e-06 0)
(0.041499005 1.1523362e-06 0)
(0.04130876 -1.082933e-06 0)
(0.041486975 1.023481e-06 0)
(0.041319999 -9.6458767e-07 0)
(0.041476338 9.1157051e-07 0)
(0.041329992 -8.6093583e-07 0)
(0.041466903 8.1435195e-07 0)
(0.041338884 -7.7052395e-07 0)
(0.041458503 7.2985352e-07 0)
(0.041346821 -6.9183657e-07 0)
(0.041450993 6.5646457e-07 0)
(0.041353938 -6.2351551e-07 0)
(0.041444243 5.9286832e-07 0)
(0.041360351 -5.6440323e-07 0)
(0.041438143 5.3798473e-07 0)
(0.041366165 -5.1353239e-07 0)
(0.041432595 4.9092492e-07 0)
(0.04137147 -4.7009978e-07 0)
(0.041427513 4.5095506e-07 0)
(0.041376348 -4.3343926e-07 0)
(0.041422822 4.1746874e-07 0)
(0.041380871 -4.0299634e-07 0)
(0.041418451 3.8996769e-07 0)
(0.041385106 -3.7831614e-07 0)
(0.041414337 3.6798685e-07 0)
(0.041389116 -3.591917e-07 0)
(0.041410423 3.508112e-07 0)
(0.041392982 -3.4527699e-07 0)
(0.041406671 3.4112789e-07 0)
(0.041396704 -3.2172374e-07 0)
(0.041402506 3.8987474e-07 0)
(0.041398207 -3.1463568e-07 0)
(0.034656825 0.0066834379 0)
(0.060998319 -0.00029400481 0)
(0.046171239 0.00039568977 0)
(0.049871449 -4.5769625e-05 0)
(0.047579727 7.5290421e-05 0)
(0.047274614 -1.6171114e-06 0)
(0.047659178 1.4485932e-05 0)
(0.046864472 4.3134146e-06 0)
(0.04741213 3.2488204e-06 0)
(0.04688029 -2.52971e-07 0)
(0.047314179 1.81891e-06 0)
(0.046918986 -1.5577419e-06 0)
(0.047277739 1.715154e-06 0)
(0.04694615 -1.6590615e-06 0)
(0.047255197 1.6196883e-06 0)
(0.046965805 -1.5239677e-06 0)
(0.047236793 1.4566852e-06 0)
(0.046982459 -1.3634013e-06 0)
(0.047220776 1.2925916e-06 0)
(0.046997272 -1.2143232e-06 0)
(0.047206671 1.1480911e-06 0)
(0.047010457 -1.0819431e-06 0)
(0.047194198 1.0226756e-06 0)
(0.047022177 -9.6589396e-07 0)
(0.047183131 9.1372987e-07 0)
(0.04703261 -8.6459779e-07 0)
(0.047173275 8.1901101e-07 0)
(0.047041926 -7.7638638e-07 0)
(0.047164458 7.3671322e-07 0)
(0.047050281 -6.9975944e-07 0)
(0.047156532 6.653703e-07 0)
(0.047057813 -6.3343571e-07 0)
(0.047149367 6.0378213e-07 0)
(0.047064642 -5.7634219e-07 0)
(0.047142851 5.5096026e-07 0)
(0.047070873 -5.2758554e-07 0)
(0.047136882 5.0608699e-07 0)
(0.047076602 -4.8642267e-07 0)
(0.047131373 4.6848472e-07 0)
(0.047081913 -4.5223254e-07 0)
(0.047126242 4.3759549e-07 0)
(0.047086884 -4.2450204e-07 0)
(0.047121412 4.1289069e-07 0)
(0.04709159 -4.0301716e-07 0)
(0.04711682 3.9348181e-07 0)
(0.047096123 -3.8748093e-07 0)
(0.04711242 3.8249413e-07 0)
(0.047100502 -3.5961705e-07 0)
(0.04710762 4.4419959e-07 0)
(0.047102579 -3.506575e-07 0)
(0.037485474 0.0063108151 0)
(0.065648688 -0.00040341678 0)
(0.051976602 0.00047892835 0)
(0.055030929 -5.3960194e-05 0)
(0.053038674 9.1166814e-05 0)
(0.052773083 -2.8233439e-06 0)
(0.053227946 1.7600146e-05 0)
(0.052347746 5.4500897e-06 0)
(0.052982678 3.5113349e-06 0)
(0.0523768 1.0150288e-08 0)
(0.052875749 1.9138551e-06 0)
(0.052422599 -1.6557199e-06 0)
(0.052834968 1.8530723e-06 0)
(0.05245397 -1.8114449e-06 0)
(0.052809315 1.7735666e-06 0)
(0.052476586 -1.6702878e-06 0)
(0.052788225 1.5991237e-06 0)
(0.052495738 -1.4956594e-06 0)
(0.052769843 1.4191277e-06 0)
(0.052512759 -1.3327468e-06 0)
(0.052753652 1.2605391e-06 0)
(0.052527902 -1.1878196e-06 0)
(0.05273933 1.1229716e-06 0)
(0.052541364 -1.0606436e-06 0)
(0.052726618 1.0034682e-06 0)
(0.052553351 -9.4955388e-07 0)
(0.052715292 8.9953857e-07 0)
(0.052564058 -8.5275834e-07 0)
(0.052705157 8.0920419e-07 0)
(0.052573664 -7.6863671e-07 0)
(0.052696043 7.3086778e-07 0)
(0.052582326 -6.9580105e-07 0)
(0.052687802 6.6322373e-07 0)
(0.05259018 -6.3308579e-07 0)
(0.052680307 6.0519551e-07 0)
(0.052597347 -5.7951779e-07 0)
(0.052673443 5.5589063e-07 0)
(0.052603935 -5.3428513e-07 0)
(0.052667108 5.1456747e-07 0)
(0.052610042 -4.967066e-07 0)
(0.052661209 4.8061417e-07 0)
(0.052615756 -4.6621522e-07 0)
(0.052655658 4.5344352e-07 0)
(0.052621163 -4.4259431e-07 0)
(0.052650381 4.319851e-07 0)
(0.052626367 -4.2563129e-07 0)
(0.052645327 4.1975294e-07 0)
(0.052631408 -3.9357858e-07 0)
(0.052639898 4.9476394e-07 0)
(0.052634114 -3.8203178e-07 0)
(0.043954683 0.0076608538 0)
(0.06967337 -0.00046336921 0)
(0.057563881 0.00054580699 0)
(0.059761545 -6.2359192e-05 0)
(0.058314581 0.00010363831 0)
(0.058071419 -4.7048398e-06 0)
(0.058612865 2.0745833e-05 0)
(0.057657029 6.5358685e-06 0)
(0.058378802 3.6846748e-06 0)
(0.057700406 3.2430739e-07 0)
(0.058264298 1.9639427e-06 0)
(0.057753349 -1.7270857e-06 0)
(0.058219313 1.9647107e-06 0)
(0.057788899 -1.9445013e-06 0)
(0.058190592 1.9089708e-06 0)
(0.057814456 -1.7998504e-06 0)
(0.058166833 1.7259413e-06 0)
(0.0578361 -1.6131306e-06 0)
(0.058146091 1.5318488e-06 0)
(0.057855328 -1.4381183e-06 0)
(0.058127815 1.3607287e-06 0)
(0.057872431 -1.2821254e-06 0)
(0.058111644 1.2123617e-06 0)
(0.057887636 -1.1450912e-06 0)
(0.058097284 1.0834712e-06 0)
(0.05790118 -1.0253002e-06 0)
(0.058084485 9.713444e-07 0)
(0.057913283 -9.2086445e-07 0)
(0.058073027 8.7385141e-07 0)
(0.057924145 -8.3006497e-07 0)
(0.058062721 7.8928138e-07 0)
(0.05793394 -7.5142328e-07 0)
(0.058053401 7.1623706e-07 0)
(0.057942823 -6.8369379e-07 0)
(0.058044924 6.5356487e-07 0)
(0.057950929 -6.2583342e-07 0)
(0.058037161 6.0030629e-07 0)
(0.05795838 -5.7696934e-07 0)
(0.058029997 5.5566279e-07 0)
(0.057965284 -5.3636647e-07 0)
(0.058023327 5.1897443e-07 0)
(0.057971744 -5.034085e-07 0)
(0.058017053 4.8960077e-07 0)
(0.057977855 -4.7787944e-07 0)
(0.058011089 4.6628472e-07 0)
(0.057983731 -4.5968525e-07 0)
(0.058005379 4.5287355e-07 0)
(0.057989433 -4.2362817e-07 0)
(0.057999329 5.4123915e-07 0)
(0.057992814 -4.0878589e-07 0)
(0.046979017 0.0073002778 0)
(0.073184585 -0.00057992963 0)
(0.062880248 0.00059688059 0)
(0.064228208 -6.8364851e-05 0)
(0.063438082 0.00011280944 0)
(0.063157659 -7.390133e-06 0)
(0.063813123 2.3653259e-05 0)
(0.062793739 7.5151362e-06 0)
(0.063600293 3.7659212e-06 0)
(0.062851409 6.8095396e-07 0)
(0.063479728 1.9692841e-06 0)
(0.062911424 -1.772604e-06 0)
(0.063430638 2.0503927e-06 0)
(0.062951078 -2.0585386e-06 0)
(0.063398902 2.0260865e-06 0)
(0.062979537 -1.9127984e-06 0)
(0.063372503 1.8372213e-06 0)
(0.063003655 -1.7158936e-06 0)
(0.06334942 1.6308029e-06 0)
(0.063025076 -1.5304826e-06 0)
(0.063329072 1.4486886e-06 0)
(0.063044128 -1.3648828e-06 0)
(0.06331106 1.2908603e-06 0)
(0.06306107 -1.2192447e-06 0)
(0.063295059 1.1537436e-06 0)
(0.063076166 -1.0918364e-06 0)
(0.06328079 1.0344274e-06 0)
(0.063089661 -9.8070047e-07 0)
(0.063268013 9.3065085e-07 0)
(0.063101775 -8.8403865e-07 0)
(0.063256517 8.4060604e-07 0)
(0.063112701 -8.0029692e-07 0)
(0.06324612 7.6281715e-07 0)
(0.063122611 -7.2816144e-07 0)
(0.063236663 6.9606399e-07 0)
(0.063131654 -6.6652868e-07 0)
(0.063228003 6.3933056e-07 0)
(0.063139965 -6.1447258e-07 0)
(0.063220012 5.9176832e-07 0)
(0.063147666 -5.7121056e-07 0)
(0.063212574 5.5267502e-07 0)
(0.063154869 -5.3608159e-07 0)
(0.063205579 5.2136276e-07 0)
(0.06316168 -5.0887297e-07 0)
(0.063198931 4.9638648e-07 0)
(0.063168226 -4.8964072e-07 0)
(0.063192567 4.8186781e-07 0)
(0.063174585 -4.4981441e-07 0)
(0.063185903 5.8337081e-07 0)
(0.063178677 -4.3102067e-07 0)
(0.053019304 0.0083328841 0)
(0.076272494 -0.00065076491 0)
(0.067916649 0.00065121589 0)
(0.068552468 -7.0992941e-05 0)
(0.068420652 0.00011852264 0)
(0.068037125 -1.0524777e-05 0)
(0.06883148 2.611678e-05 0)
(0.067758919 8.331622e-06 0)
(0.068647028 3.756348e-06 0)
(0.06782999 1.0695786e-06 0)
(0.068521956 1.9301595e-06 0)
(0.06789697 -1.7929698e-06 0)
(0.068468824 2.1105966e-06 0)
(0.067940628 -2.1539622e-06 0)
(0.068434135 2.1251919e-06 0)
(0.067971938 -2.0093635e-06 0)
(0.068405135 1.9331315e-06 0)
(0.067998496 -1.804105e-06 0)
(0.06837974 1.7161142e-06 0)
(0.068022087 -1.6099565e-06 0)
(0.068357343 1.5245153e-06 0)
(0.068043069 -1.436181e-06 0)
(0.068337507 1.3585429e-06 0)
(0.068061732 -1.2831737e-06 0)
(0.068319878 1.214346e-06 0)
(0.068078368 -1.1492189e-06 0)
(0.068304152 1.0888377e-06 0)
(0.068093244 -1.0323137e-06 0)
(0.068290065 9.7964569e-07 0)
(0.0681066 -9.305986e-07 0)
(0.068277388 8.8488e-07 0)
(0.06811865 -8.4245825e-07 0)
(0.068265923 8.0299864e-07 0)
(0.068129578 -7.6652169e-07 0)
(0.068255493 7.327248e-07 0)
(0.068139551 -7.0163398e-07 0)
(0.068245943 6.7299323e-07 0)
(0.068148716 -6.468234e-07 0)
(0.068237132 6.2291223e-07 0)
(0.068157207 -6.012661e-07 0)
(0.068228931 5.8174294e-07 0)
(0.068165147 -5.6426106e-07 0)
(0.068221221 5.4875607e-07 0)
(0.068172655 -5.3560074e-07 0)
(0.068213893 5.2232074e-07 0)
(0.068179863 -5.1551919e-07 0)
(0.068206879 5.0677307e-07 0)
(0.068186873 -4.7220071e-07 0)
(0.068199613 6.2096128e-07 0)
(0.068191703 -4.4888592e-07 0)
(0.056479562 0.0080591078 0)
(0.079008312 -0.00077949768 0)
(0.072809417 0.00069667168 0)
(0.072729764 -7.4003991e-05 0)
(0.073247342 0.0001207658 0)
(0.072726954 -1.3672634e-05 0)
(0.073671447 2.7967102e-05 0)
(0.072553769 8.9570262e-06 0)
(0.073519008 3.6697035e-06 0)
(0.072636308 1.4820459e-06 0)
(0.073390954 1.848183e-06 0)
(0.072710125 -1.7881347e-06 0)
(0.073333772 2.1461438e-06 0)
(0.072757655 -2.2311446e-06 0)
(0.073296193 2.20667e-06 0)
(0.07279175 -2.0898268e-06 0)
(0.073264642 2.0139044e-06 0)
(0.072820708 -1.8779767e-06 0)
(0.073236972 1.7879608e-06 0)
(0.072846436 -1.6767063e-06 0)
(0.073212555 1.5883545e-06 0)
(0.072869321 -1.4961534e-06 0)
(0.073190921 1.4155308e-06 0)
(0.072889683 -1.3369887e-06 0)
(0.073171686 1.2653813e-06 0)
(0.072907839 -1.1975419e-06 0)
(0.07315452 1.1346647e-06 0)
(0.072924078 -1.0757865e-06 0)
(0.07313914 1.0209147e-06 0)
(0.072938663 -9.6981856e-07 0)
(0.073125297 9.2217385e-07 0)
(0.072951821 -8.7797407e-07 0)
(0.073112775 8.3684554e-07 0)
(0.072963756 -7.9883563e-07 0)
(0.073101385 7.6360589e-07 0)
(0.072974647 -7.3120569e-07 0)
(0.073090955 7.0134844e-07 0)
(0.072984655 -6.7407419e-07 0)
(0.073081334 6.4914505e-07 0)
(0.072993926 -6.2658229e-07 0)
(0.07307238 6.0622592e-07 0)
(0.073002596 -5.8799385e-07 0)
(0.073063963 5.7182656e-07 0)
(0.073010789 -5.5810771e-07 0)
(0.073055965 5.4413572e-07 0)
(0.073018652 -5.3735977e-07 0)
(0.07304831 5.2764512e-07 0)
(0.073026301 -4.908603e-07 0)
(0.073040454 6.5386139e-07 0)
(0.073031891 -4.6256649e-07 0)
(0.062754995 0.0089126387 0)
(0.081558422 -0.00083902348 0)
(0.077522735 0.00073218888 0)
(0.07676676 -7.7254533e-05 0)
(0.077906894 0.00011967576 0)
(0.077246453 -1.6854009e-05 0)
(0.078336625 2.9155731e-05 0)
(0.077179392 9.3827585e-06 0)
(0.078216254 3.520971e-06 0)
(0.077270443 1.9084085e-06 0)
(0.078086693 1.7236948e-06 0)
(0.077351003 -1.7579927e-06 0)
(0.078025396 2.157891e-06 0)
(0.077402246 -2.2905038e-06 0)
(0.07798499 2.2709378e-06 0)
(0.077439054 -2.1545241e-06 0)
(0.077950944 2.0798161e-06 0)
(0.077470365 -1.9377702e-06 0)
(0.077921045 1.8465673e-06 0)
(0.077498189 -1.730945e-06 0)
(0.077894646 1.6403962e-06 0)
(0.077522944 -1.5449787e-06 0)
(0.077871246 1.4619868e-06 0)
(0.077544976 -1.380843e-06 0)
(0.077850432 1.306991e-06 0)
(0.077564625 -1.2369394e-06 0)
(0.077831851 1.1720333e-06 0)
(0.077582206 -1.1112377e-06 0)
(0.077815199 1.0545696e-06 0)
(0.077597997 -1.0018047e-06 0)
(0.077800209 9.5258834e-07 0)
(0.077612247 -9.0694024e-07 0)
(0.077786649 8.6444937e-07 0)
(0.077625171 -8.2519049e-07 0)
(0.077774314 7.8879099e-07 0)
(0.077636965 -7.5532377e-07 0)
(0.07776302 7.2447331e-07 0)
(0.077647803 -6.9629886e-07 0)
(0.077752601 6.7053839e-07 0)
(0.077657841 -6.4722813e-07 0)
(0.077742907 6.2619112e-07 0)
(0.077667227 -6.0734527e-07 0)
(0.077733796 5.906381e-07 0)
(0.077676096 -5.7645627e-07 0)
(0.077725138 5.6189626e-07 0)
(0.077684601 -5.5521775e-07 0)
(0.077716851 5.4455632e-07 0)
(0.077692877 -5.0587588e-07 0)
(0.077708419 6.8196658e-07 0)
(0.077699239 -4.7227324e-07 0)
(0.066611371 0.0085822827 0)
(0.083843202 -0.00098225347 0)
(0.08216443 0.00075604097 0)
(0.080651132 -7.9618846e-05 0)
(0.08239285 0.00011571023 0)
(0.081609277 -2.0001099e-05 0)
(0.082828827 2.9712949e-05 0)
(0.081636695 9.6116525e-06 0)
(0.082738714 3.333309e-06 0)
(0.081732458 2.340378e-06 0)
(0.082609136 1.5574969e-06 0)
(0.081819704 -1.7016904e-06 0)
(0.082543625 2.1470305e-06 0)
(0.081874482 -2.3323679e-06 0)
(0.082500451 2.3185022e-06 0)
(0.081913923 -2.2038185e-06 0)
(0.082463974 2.1311949e-06 0)
(0.08194753 -1.98379e-06 0)
(0.082431898 1.8922034e-06 0)
(0.081977406 -1.7729279e-06 0)
(0.082403562 1.6808724e-06 0)
(0.08200399 -1.5828742e-06 0)
(0.082378432 1.4981132e-06 0)
(0.082027656 -1.4149254e-06 0)
(0.082356072 1.3393536e-06 0)
(0.082048769 -1.2675781e-06 0)
(0.082336106 1.2011022e-06 0)
(0.082067662 -1.1388163e-06 0)
(0.082318208 1.0807526e-06 0)
(0.082084636 -1.0266915e-06 0)
(0.082302095 9.7625192e-07 0)
(0.082099953 -9.2947882e-07 0)
(0.082287518 8.8592678e-07 0)
(0.082113848 -8.456976e-07 0)
(0.082274258 8.0838661e-07 0)
(0.082126526 -7.740903e-07 0)
(0.082262117 7.4246575e-07 0)
(0.082138175 -7.1359166e-07 0)
(0.082250918 6.8718299e-07 0)
(0.082148965 -6.6329139e-07 0)
(0.082240499 6.4172342e-07 0)
(0.082159052 -6.2239808e-07 0)
(0.082230707 6.052711e-07 0)
(0.082168582 -5.9072516e-07 0)
(0.082221404 5.756824e-07 0)
(0.082177716 -5.6916375e-07 0)
(0.082212498 5.5759393e-07 0)
(0.082186604 -5.1733939e-07 0)
(0.082203506 7.0521359e-07 0)
(0.082193745 -4.7823534e-07 0)
(0.07329653 0.0093075006 0)
(0.086198146 -0.0010115892 0)
(0.086658503 0.0007752837 0)
(0.084406536 -8.1308227e-05 0)
(0.086706529 0.00010857064 0)
(0.085819522 -2.324901e-05 0)
(0.08714858 2.9716096e-05 0)
(0.085926251 9.656154e-06 0)
(0.087086141 3.1291388e-06 0)
(0.086022589 2.7694627e-06 0)
(0.086958189 1.3496962e-06 0)
(0.086116309 -1.6185599e-06 0)
(0.086888395 2.1147241e-06 0)
(0.086174428 -2.357093e-06 0)
(0.086842511 2.3498819e-06 0)
(0.086216417 -2.2381181e-06 0)
(0.08680367 2.1683985e-06 0)
(0.086252262 -2.0163825e-06 0)
(0.086769477 1.9251746e-06 0)
(0.086284138 -1.8029492e-06 0)
(0.086739252 1.7100513e-06 0)
(0.086312506 -1.610095e-06 0)
(0.086712437 1.5241465e-06 0)
(0.086337765 -1.4394603e-06 0)
(0.086688569 1.3626793e-06 0)
(0.086360305 -1.2896577e-06 0)
(0.086667251 1.2220594e-06 0)
(0.08638048 -1.1587012e-06 0)
(0.086648138 1.0996331e-06 0)
(0.086398607 -1.04464e-06 0)
(0.08663093 9.933176e-07 0)
(0.086414966 -9.4573543e-07 0)
(0.086615361 9.014167e-07 0)
(0.086429805 -8.6048941e-07 0)
(0.086601197 8.2251959e-07 0)
(0.086443347 -7.876265e-07 0)
(0.086588231 7.5544227e-07 0)
(0.086455788 -7.2606432e-07 0)
(0.086576271 6.9918668e-07 0)
(0.086467311 -6.7487594e-07 0)
(0.086565144 6.5292356e-07 0)
(0.086478082 -6.3325002e-07 0)
(0.086554689 6.1582068e-07 0)
(0.086488257 -6.010074e-07 0)
(0.086544757 5.8558768e-07 0)
(0.086498003 -5.7928191e-07 0)
(0.086535246 5.6685812e-07 0)
(0.086507486 -5.2535112e-07 0)
(0.08652571 7.2357671e-07 0)
(0.086515408 -4.8069336e-07 0)
(0.07753389 0.0089714549 0)
(0.088287699 -0.0011654144 0)
(0.091021105 0.00077886699 0)
(0.0880761 -8.1977799e-05 0)
(0.090856833 9.8871886e-05 0)
(0.089877092 -2.6494706e-05 0)
(0.091296299 2.9267427e-05 0)
(0.090048058 9.538741e-06 0)
(0.091257892 2.9294909e-06 0)
(0.090141513 3.1834528e-06 0)
(0.091133675 1.1034724e-06 0)
(0.090240889 -1.5082166e-06 0)
(0.091059652 2.062333e-06 0)
(0.090302146 -2.3649778e-06 0)
(0.091011112 2.3656489e-06 0)
(0.090346592 -2.2578545e-06 0)
(0.09096998 2.1918218e-06 0)
(0.090384611 -2.035928e-06 0)
(0.090933732 1.945821e-06 0)
(0.090418429 -1.8213366e-06 0)
(0.090901674 1.7282341e-06 0)
(0.09044853 -1.6269267e-06 0)
(0.090873222 1.5403546e-06 0)
(0.090475339 -1.4547004e-06 0)
(0.090847889 1.377207e-06 0)
(0.090499265 -1.3034037e-06 0)
(0.090825258 1.2351194e-06 0)
(0.090520685 -1.1710948e-06 0)
(0.090804964 1.1114039e-06 0)
(0.090539932 -1.055833e-06 0)
(0.09078669 1.0039597e-06 0)
(0.090557304 -9.5587589e-07 0)
(0.090770157 9.110774e-07 0)
(0.090573063 -8.6971691e-07 0)
(0.090755117 8.313343e-07 0)
(0.090587442 -7.960706e-07 0)
(0.090741348 7.6353539e-07 0)
(0.090600653 -7.338442e-07 0)
(0.090728648 7.0667204e-07 0)
(0.090612888 -6.8210015e-07 0)
(0.090716834 6.5990595e-07 0)
(0.090624324 -6.400123e-07 0)
(0.090705735 6.2239476e-07 0)
(0.090635126 -6.0740867e-07 0)
(0.090695191 5.9171739e-07 0)
(0.090645467 -5.8566847e-07 0)
(0.090685091 5.7246007e-07 0)
(0.090655526 -5.3001883e-07 0)
(0.090675029 7.3706433e-07 0)
(0.090664226 -4.7989354e-07 0)
(0.084074023 0.0094393466 0)
(0.090601866 -0.0011650933 0)
(0.095130793 0.00078242026 0)
(0.091722142 -8.0549948e-05 0)
(0.094852831 8.7104404e-05 0)
(0.09377959 -2.9695656e-05 0)
(0.095272449 2.8462268e-05 0)
(0.094001535 9.2866788e-06 0)
(0.095253242 2.7550251e-06 0)
(0.094090245 3.5647297e-06 0)
(0.095135335 8.2631591e-07 0)
(0.094193504 -1.3719383e-06 0)
(0.095057349 1.9910294e-06 0)
(0.094257688 -2.3564109e-06 0)
(0.095006204 2.3663618e-06 0)
(0.094304497 -2.2635e-06 0)
(0.094962857 2.2018814e-06 0)
(0.094344619 -2.042839e-06 0)
(0.094924623 1.9545118e-06 0)
(0.094380319 -1.8284479e-06 0)
(0.094890792 1.7357506e-06 0)
(0.094412099 -1.6336844e-06 0)
(0.094860755 1.5470319e-06 0)
(0.094440407 -1.4609257e-06 0)
(0.094834004 1.3832006e-06 0)
(0.094465676 -1.3090666e-06 0)
(0.0948101 1.2405189e-06 0)
(0.094488301 -1.1762224e-06 0)
(0.094788663 1.1162784e-06 0)
(0.094508634 -1.0604735e-06 0)
(0.094769358 1.0083712e-06 0)
(0.094526986 -9.6008383e-07 0)
(0.094751892 9.1508399e-07 0)
(0.094543634 -8.7354709e-07 0)
(0.094736002 8.3499047e-07 0)
(0.094558825 -7.9957529e-07 0)
(0.094721456 7.6689169e-07 0)
(0.094572782 -7.3707194e-07 0)
(0.09470804 7.097746e-07 0)
(0.094585706 -6.850946e-07 0)
(0.094695561 6.6279704e-07 0)
(0.094597786 -6.4280754e-07 0)
(0.094683837 6.2511248e-07 0)
(0.094609194 -6.1004553e-07 0)
(0.0946727 5.9418703e-07 0)
(0.094620112 -5.8843023e-07 0)
(0.09466203 5.7452032e-07 0)
(0.094630727 -5.3145691e-07 0)
(0.094651461 7.4571571e-07 0)
(0.094640195 -4.7608304e-07 0)
(0.088668273 0.0091965669 0)
(0.092579188 -0.001311841 0)
(0.098985875 0.00076427912 0)
(0.095347331 -7.95094e-05 0)
(0.09869485 7.4286166e-05 0)
(0.097524959 -3.2681626e-05 0)
(0.099077424 2.7385638e-05 0)
(0.09778583 8.9342224e-06 0)
(0.099072035 2.6161045e-06 0)
(0.09786943 3.8969454e-06 0)
(0.098962848 5.3130981e-07 0)
(0.097974159 -1.2124397e-06 0)
(0.09888144 1.9019347e-06 0)
(0.098041098 -2.3317752e-06 0)
(0.098827743 2.3525946e-06 0)
(0.098090173 -2.2555605e-06 0)
(0.098782262 2.1990149e-06 0)
(0.098132325 -2.03756e-06 0)
(0.098742115 1.9516412e-06 0)
(0.098169842 -1.8246684e-06 0)
(0.098706573 1.7329559e-06 0)
(0.098203241 -1.6307073e-06 0)
(0.098675007 1.5444971e-06 0)
(0.098232997 -1.4584381e-06 0)
(0.098646888 1.3809457e-06 0)
(0.098259561 -1.3069167e-06 0)
(0.098621757 1.2385148e-06 0)
(0.098283349 -1.174327e-06 0)
(0.098599217 1.114488e-06 0)
(0.098304729 -1.0587808e-06 0)
(0.098578917 1.0067611e-06 0)
(0.098324027 -9.5855805e-07 0)
(0.09856055 9.1362607e-07 0)
(0.098341533 -8.7216081e-07 0)
(0.098543842 8.3366096e-07 0)
(0.098357507 -7.9830605e-07 0)
(0.098528545 7.6566979e-07 0)
(0.098372183 -7.3589991e-07 0)
(0.098514438 7.08641e-07 0)
(0.098385773 -6.8400081e-07 0)
(0.098501317 6.6173363e-07 0)
(0.098398473 -6.4176853e-07 0)
(0.098488991 6.2410271e-07 0)
(0.098410467 -6.0904415e-07 0)
(0.098477283 5.9312094e-07 0)
(0.09842194 -5.8768341e-07 0)
(0.098466061 5.7316727e-07 0)
(0.098433091 -5.2978557e-07 0)
(0.098455004 7.4959799e-07 0)
(0.098443315 -4.695061e-07 0)
(0.094630317 0.0093964854 0)
(0.094919111 -0.0012922704 0)
(0.10259316 0.00074876635 0)
(0.098934543 -7.7909618e-05 0)
(0.10237709 6.1033716e-05 0)
(0.10111122 -3.5404787e-05 0)
(0.10271106 2.6103383e-05 0)
(0.10140003 8.5095955e-06 0)
(0.10271475 2.5094947e-06 0)
(0.1014791 4.1683955e-06 0)
(0.10261594 2.3477091e-07 0)
(0.10158282 -1.0338055e-06 0)