/*--------------------------------*- C++ -*----------------------------------*\
| =========                 |                                                 |
| \\      /  F ield         | OpenFOAM: The Open Source CFD Toolbox           |
|  \\    /   O peration     | Version:  2312                                  |
|   \\  /    A nd           | Website:  www.openfoam.com                      |
|    \\/     M anipulation  |                                                 |
\*---------------------------------------------------------------------------*/
FoamFile
{
    version     2.0;
    format      ascii;
    arch        "LSB;label=32;scalar=64";
    class       volScalarField;
    location    "5";
    object      p;
}
// * * * * * * * * * * * * * * * * * * * * * * * * * * * * * * * * * * * * * //

dimensions      [0 2 -2 0 0 0 0];

internalField   nonuniform List<scalar> 
4000
(
32.454498
30.959595
30.340274
29.320299
28.888582
27.993536
27.579934
26.730449
26.299266
25.4772
25.024374
24.224547
23.751518
22.971019
22.480066
21.716466
21.209754
20.460942
19.94041
19.204548
18.6719
17.947384
17.404119
16.689543
16.136975
15.431104
14.870396
14.172135
13.604318
12.912691
12.33869
11.652823
11.073466
10.39257
9.8086087
9.1319675
8.5440858
7.8710456
7.2798697
6.6098291
6.0159375
5.348339
4.7522702
4.0865922
3.4888528
2.8246019
2.2256735
1.5623762
0.96272045
0.29991506
32.445714
30.957646
30.340755
29.320291
28.888571
27.993549
27.579928
26.730458
26.299259
25.477207
25.024367
24.224553
23.751512
22.971025
22.480061
21.716471
21.209749
20.460947
19.940405
19.204552
18.671897
17.947388
17.404115
16.689546
16.136972
15.431107
14.870393
14.172137
13.604316
12.912694
12.338687
11.652825
11.073464
10.392572
9.8086068
9.1319692
8.5440841
7.8710472
7.2798682
6.6098306
6.0159361
5.3483404
4.7522689
4.0865935
3.4888515
2.8246032
2.2256722
1.5623775
0.96271913
0.29991729
32.425426
30.956454
30.3416
29.320229
28.888577
27.993556
27.579937
26.730457
26.299261
25.477206
25.024369
24.224552
23.751513
22.971023
22.480062
21.71647
21.20975
20.460946
19.940406
19.204551
18.671897
17.947387
17.404116
16.689546
16.136973
15.431106
14.870394
14.172137
13.604316
12.912693
12.338688
11.652825
11.073464
10.392571
9.8086072
9.1319689
8.5440844
7.8710468
7.2798685
6.6098303
6.0159363
5.3483402
4.7522691
4.0865933
3.4888518
2.824603
2.2256725
1.5623773
0.96271923
0.29991803
32.408715
30.95495
30.34246
29.320136
28.888584
27.993562
27.579948
26.730453
26.299266
25.477202
25.024373
24.224548
23.751517
22.97102
22.480065
21.716467
21.209753
20.460943
19.940409
19.204549
18.6719
17.947385
17.404118
16.689544
16.136975
15.431105
14.870395
14.172135
13.604318
12.912692
12.338689
11.652823
11.073465
10.39257
9.8086083
9.1319679
8.5440854
7.8710459
7.2798694
6.6098294
6.0159372
5.3483393
4.7522699
4.0865925
3.4888526
2.8246022
2.2256732
1.5623765
0.96271989
0.29991813
32.384491
30.952734
30.343257
29.320015
28.888588
27.993568
27.579957
26.730449
26.299271
25.477198
25.024376
24.224545
23.75152
22.971017
22.480068
21.716464
21.209756
20.460941
19.940411
19.204547
18.671902
17.947383
17.40412
16.689542
16.136976
15.431103
14.870397
14.172134
13.604319
12.912691
12.33869
11.652822
11.073466
10.392569
9.8086092
9.1319669
8.5440863
7.871045
7.2798702
6.6098286
6.015938
5.3483386
4.7522707
4.0865918
3.4888533
2.8246015
2.2256739
1.5623757
0.96272053
0.29991817
32.369104
30.951131
30.343946
29.319855
28.888594
27.993574
27.579964
26.730445
26.299274
25.477194
25.024379
24.224542
23.751523
22.971015
22.48007
21.716462
21.209757
20.460939
19.940413
19.204545
18.671903
17.947381
17.404121
16.689541
16.136977
15.431102
14.870398
14.172133
13.60432
12.91269
12.338691
11.652821
11.073467
10.392568
9.80861
9.1319662
8.544087
7.8710444
7.2798709
6.609828
6.0159386
5.348338
4.7522713
4.0865912
3.4888538
2.8246009
2.2256744
1.5623751
0.96272105
0.29991823
32.34968
30.94902
30.344458
29.319713
28.888616
27.993583
27.57997
26.730441
26.299276
25.477192
25.024381
24.22454
23.751525
22.971013
22.480072
21.716461
21.209759
20.460938
19.940414
19.204544
18.671904
17.94738
17.404122
16.68954
16.136978
15.431101
14.870399
14.172132
13.604321
12.912689
12.338692
11.652821
11.073468
10.392568
9.8086106
9.1319656
8.5440876
7.8710438
7.2798714
6.6098275
6.0159391
5.3483375
4.7522717
4.0865907
3.4888543
2.8246005
2.2256749
1.5623746
0.96272152
0.29991829
32.334125
30.948328
30.344457
29.319792
28.888685
27.993599
27.579977
26.730439
26.299278
25.477189
25.024383
24.224538
23.751526
22.971011
22.480073
21.716459
21.20976
20.460937
19.940415
19.204543
18.671905
17.947379
17.404123
16.689539
16.136979
15.4311
14.870399
14.172131
13.604321
12.912688
12.338693
11.65282
11.073468
10.392567
9.8086111
9.1319651
8.5440881
7.8710433
7.2798719
6.6098271
6.0159395
5.3483371
4.7522721
4.0865903
3.4888547
2.8246001
2.2256753
1.5623742
0.96272195
0.29991832
32.321732
30.946977
30.343736
29.320169
28.888787
27.993619
27.579984
26.730436
26.29928
25.477187
25.024385
24.224536
23.751528
22.97101
22.480075
21.716458
21.209762
20.460935
19.940416
19.204542
18.671906
17.947378
17.404124
16.689538
16.13698
15.4311
14.8704
14.172131
13.604322
12.912688
12.338693
11.652819
11.073469
10.392567
9.8086116
9.1319647
8.5440885
7.8710429
7.2798723
6.6098267
6.0159399
5.3483367
4.7522725
4.08659
3.488855
2.8245997
2.2256756
1.5623738
0.96272235
0.29991834
32.304125
30.945297
30.343317
29.32045
28.888838
27.993627
27.579986
26.730432
26.299281
25.477185
25.024386
24.224535
23.751529
22.971009
22.480076
21.716457
21.209763
20.460934
19.940417
19.204541
18.671907
17.947378
17.404125
16.689537
16.136981
15.431099
14.870401
14.17213
13.604322
12.912687
12.338694
11.652819
11.073469
10.392566
9.808612
9.1319643
8.5440889
7.8710426
7.2798726
6.6098263
6.0159402
5.3483364
4.7522728
4.0865897
3.4888553
2.8245994
2.2256759
1.5623735
0.96272274
0.29991835
32.289768
30.942245
30.343739
29.320231
28.88879
27.993611
27.57998
26.730426
26.299281
25.477183
25.024387
24.224533
23.75153
22.971007
22.480077
21.716456
21.209764
20.460933
19.940418
19.20454
18.671908
17.947377
17.404125
16.689537
16.136981
15.431098
14.870401
14.172129
13.604323
12.912687
12.338694
11.652819
11.07347
10.392566
9.8086124
9.1319639
8.5440892
7.8710422
7.2798729
6.609826
6.0159405
5.3483361
4.7522731
4.0865894
3.4888556
2.8245992
2.2256762
1.5623731
0.9627231
0.29991835
32.273893
30.939877
30.344079
29.319604
28.888674
27.99357
27.579965
26.730417
26.29928
25.47718
25.024388
24.224532
23.751531
22.971006
22.480078
21.716455
21.209765
20.460933
19.940419
19.204539
18.671909
17.947376
17.404126
16.689536
16.136982
15.431098
14.870402
14.172129
13.604323
12.912686
12.338694
11.652818
11.07347
10.392566
9.8086127
9.1319636
8.5440895
7.8710419
7.2798732
6.6098257
6.0159408
5.3483358
4.7522734
4.0865891
3.4888559
2.8245989
2.2256764
1.5623729
0.96272344
0.29991833
32.263434
30.937366
30.343682
29.319019
28.888561
27.993524
27.579948
26.730407
26.299278
25.477178
25.024389
24.224531
23.751532
22.971005
22.480079
21.716454
21.209765
20.460932
19.94042
19.204538
18.671909
17.947376
17.404127
16.689535
16.136982
15.431097
14.870402
14.172129
13.604324
12.912686
12.338695
11.652818
11.073471
10.392565
9.808613
9.1319633
8.5440898
7.8710416
7.2798735
6.6098255
6.0159411
5.3483356
4.7522736
4.0865889
3.4888561
2.8245987
2.2256766
1.5623726
0.96272376
0.29991831
32.251342
30.934958
30.342688
29.31876
28.888506
27.99349
27.579934
26.730399
26.299276
25.477175
25.024389
24.22453
23.751533
22.971004
22.480079
21.716453
21.209766
20.460931
19.94042
19.204538
18.67191
17.947375
17.404127
16.689535
16.136983
15.431097
14.870403
14.172128
13.604324
12.912686
12.338695
11.652818
11.073471
10.392565
9.8086133
9.131963
8.5440901
7.8710414
7.2798737
6.6098252
6.0159413
5.3483353
4.7522738
4.0865887
3.4888563
2.8245985
2.2256768
1.5623724
0.96272407
0.29991828
32.242567
30.93209
30.341122
29.318768
28.888487
27.993467
27.579922
26.730391
26.299275
25.477173
25.024389
24.224528
23.751534
22.971004
22.48008
21.716452
21.209767
20.460931
19.940421
19.204537
18.67191
17.947375
17.404128
16.689535
16.136983
15.431097
14.870403
14.172128
13.604325
12.912685
12.338695
11.652817
11.073471
10.392565
9.8086136
9.1319628
8.5440903
7.8710412
7.279874
6.609825
6.0159415
5.3483351
4.752274
4.0865885
3.4888565
2.8245983
2.225677
1.5623722
0.96272436
0.29991825
32.232159
30.929327
30.339409
29.318769
28.88843
27.993436
27.579906
26.730382
26.299272
25.47717
25.024389
24.224527
23.751534
22.971003
22.480081
21.716452
21.209767
20.46093
19.940421
19.204537
18.671911
17.947374
17.404128
16.689534
16.136984
15.431096
14.870403
14.172127
13.604325
12.912685
12.338696
11.652817
11.073471
10.392564
9.8086138
9.1319625
8.5440905
7.871041
7.2798742
6.6098248
6.0159417
5.3483349
4.7522742
4.0865883
3.4888567
2.8245981
2.2256772
1.562372
0.96272463
0.29991821
32.224799
30.926309
30.337983
29.318513
28.888271
27.99338
27.57988
26.730368
26.299268
25.477167
25.024389
24.224526
23.751535
22.971002
22.480081
21.716451
21.209768
20.460929
19.940422
19.204536
18.671911
17.947374
17.404128
16.689534
16.136984
15.431096
14.870404
14.172127
13.604325
12.912685
12.338696
11.652817
11.073472
10.392564
9.808614
9.1319623
8.5440907
7.8710408
7.2798743
6.6098246
6.0159419
5.3483348
4.7522744
4.0865881
3.4888568
2.8245979
2.2256773
1.5623718
0.9627249
0.29991817
32.216324
30.923413
30.337085
29.317986
28.888025
27.993308
27.579847
26.730353
26.299262
25.477164
25.024389
24.224525
23.751535
22.971001
22.480082
21.716451
21.209768
20.460929
19.940422
19.204536
18.671912
17.947373
17.404129
16.689533
16.136984
15.431096
14.870404
14.172127
13.604325
12.912684
12.338696
11.652816
11.073472
10.392564
9.8086142
9.1319621
8.5440909
7.8710406
7.2798745
6.6098245
6.015942
5.3483346
4.7522745
4.086588
3.488857
2.8245978
2.2256775
1.5623717
0.96272515
0.29991812
32.210431
30.920535
30.336383
29.317411
28.887781
27.99324
27.579815
26.73034
26.299257
25.47716
25.024388
24.224524
23.751536
22.971001
22.480082
21.71645
21.209769
20.460929
19.940423
19.204535
18.671912
17.947373
17.404129
16.689533
16.136985
15.431095
14.870404
14.172127
13.604326
12.912684
12.338696
11.652816
11.073472
10.392564
9.8086144
9.131962
8.5440911
7.8710404
7.2798747
6.6098243
6.0159422
5.3483345
4.7522747
4.0865878
3.4888571
2.8245977
2.2256776
1.5623715
0.96272539
0.29991808
32.20364
30.91793
30.335608
29.316961
28.887599
27.993188
27.579791
26.730332
26.299253
25.477158
25.024388
24.224523
23.751536
22.971
22.480083
21.71645
21.209769
20.460928
19.940423
19.204535
18.671912
17.947373
17.404129
16.689533
16.136985
15.431095
14.870404
14.172126
13.604326
12.912684
12.338697
11.652816
11.073472
10.392564
9.8086146
9.1319618
8.5440912
7.8710403
7.2798748
6.6098242
6.0159423
5.3483344
4.7522748
4.0865877
3.4888572
2.8245975
2.2256777
1.5623714
0.96272561
0.29991803
32.198912
30.915562
30.334688
29.316615
28.887468
27.993151
27.579773
26.730329
26.299252
25.477156
25.024388
24.224522
23.751536
22.970999
22.480083
21.716449
21.20977
20.460928
19.940423
19.204535
18.671913
17.947372
17.40413
16.689533
16.136985
15.431095
14.870405
14.172126
13.604326
12.912684
12.338697
11.652816
11.073472
10.392564
9.8086147
9.1319617
8.5440914
7.8710401
7.2798749
6.6098241
6.0159424
5.3483342
4.7522749
4.0865876
3.4888574
2.8245974
2.2256778
1.5623713
0.96272583
0.29991798
32.193536
30.913401
30.333765
29.316312
28.887364
27.993122
27.579757
26.730329
26.299251
25.477155
25.024388
24.224521
23.751537
22.970999
22.480083
21.716449
21.20977
20.460927
19.940424
19.204534
18.671913
17.947372
17.40413
16.689532
16.136985
15.431095
14.870405
14.172126
13.604326
12.912684
12.338697
11.652816
11.073473
10.392563
9.8086149
9.1319615
8.5440915
7.87104
7.2798751
6.6098239
6.0159425
5.3483341
4.752275
4.0865875
3.4888575
2.8245973
2.2256779
1.5623712
0.96272603
0.29991794
32.189745
30.911491
30.332876
29.316028
28.887271
27.993097
27.579742
26.730331
26.299251
25.477154
25.024388
24.22452
23.751537
22.970998
22.480084
21.716448
21.20977
20.460927
19.940424
19.204534
18.671913
17.947372
17.40413
16.689532
16.136986
15.431094
14.870405
14.172126
13.604326
12.912684
12.338697
11.652816
11.073473
10.392563
9.808615
9.1319614
8.5440916
7.8710399
7.2798752
6.6098238
6.0159426
5.348334
4.7522751
4.0865874
3.4888576
2.8245972
2.225678
1.5623711
0.96272622
0.29991789
32.185527
30.909686
30.332079
29.315769
28.887187
27.993074
27.579726
26.730334
26.299252
25.477154
25.024388
24.22452
23.751537
22.970998
22.480084
21.716448
21.20977
20.460927
19.940424
19.204534
18.671914
17.947372
17.40413
16.689532
16.136986
15.431094
14.870405
14.172126
13.604327
12.912683
12.338697
11.652815
11.073473
10.392563
9.8086151
9.1319613
8.5440917
7.8710398
7.2798753
6.6098237
6.0159427
5.3483339
4.7522752
4.0865873
3.4888576
2.8245971
2.2256781
1.562371
0.9627264
0.29991785
32.182489
30.908173
30.331352
29.315536
28.887113
27.993055
27.579711
26.730337
26.299253
25.477154
25.024389
24.224519
23.751537
22.970997
22.480084
21.716447
21.209771
20.460926
19.940425
19.204534
18.671914
17.947371
17.404131
16.689532
16.136986
15.431094
14.870405
14.172126
13.604327
12.912683
12.338697
11.652815
11.073473
10.392563
9.8086152
9.1319612
8.5440918
7.8710397
7.2798754
6.6098236
6.0159428
5.3483338
4.7522753
4.0865872
3.4888577
2.824597
2.2256782
1.562371
0.96272657
0.2999178
32.17922
30.906702
30.330713
29.315334
28.88705
27.993038
27.579696
26.73034
26.299254
25.477154
25.024389
24.224519
23.751538
22.970997
22.480085
21.716447
21.209771
20.460926
19.940425
19.204533
18.671914
17.947371
17.404131
16.689531
16.136986
15.431094
14.870406
14.172125
13.604327
12.912683
12.338698
11.652815
11.073473
10.392563
9.8086153
9.1319611
8.5440919
7.8710396
7.2798755
6.6098235
6.0159429
5.3483337
4.7522754
4.0865871
3.4888578
2.824597
2.2256782
1.5623709
0.96272673
0.29991776
32.176781
30.905557
30.330149
29.315161
28.886998
27.993025
27.579683
26.730341
26.299255
25.477155
25.02439
24.224519
23.751538
22.970997
22.480085
21.716447
21.209771
20.460926
19.940425
19.204533
18.671914
17.947371
17.404131
16.689531
16.136986
15.431094
14.870406
14.172125
13.604327
12.912683
12.338698
11.652815
11.073473
10.392563
9.8086154
9.131961
8.544092
7.8710395
7.2798755
6.6098235
6.015943
5.3483337
4.7522755
4.0865871
3.4888579
2.8245969
2.2256783
1.5623708
0.96272687
0.29991772
32.174289
30.904392
30.329661
29.315015
28.886956
27.993015
27.579673
26.730343
26.299255
25.477157
25.024391
24.224519
23.751538
22.970996
22.480085
21.716447
21.209771
20.460926
19.940425
19.204533
18.671914
17.947371
17.404131
16.689531
16.136986
15.431094
14.870406
14.172125
13.604327
12.912683
12.338698
11.652815
11.073473
10.392563
9.8086155
9.1319609
8.5440921
7.8710394
7.2798756
6.6098234
6.0159431
5.3483336
4.7522755
4.086587
3.4888579
2.8245968
2.2256784
1.5623708
0.962727
0.29991768
32.172301
30.903562
30.329248
29.314896
28.886923
27.993008
27.579664
26.730344
26.299255
25.477159
25.024391
24.224518
23.751538
22.970996
22.480085
21.716446
21.209772
20.460925
19.940425
19.204533
18.671915
17.947371
17.404131
16.689531
16.136986
15.431093
14.870406
14.172125
13.604327
12.912683
12.338698
11.652815
11.073473
10.392563
9.8086156
9.1319608
8.5440922
7.8710394
7.2798757
6.6098233
6.0159431
5.3483335
4.7522756
4.086587
3.488858
2.8245968
2.2256784
1.5623707
0.96272713
0.29991764
32.170461
30.902653
30.328893
29.314799
28.886899
27.993003
27.579658
26.730346
26.299254
25.477161
25.024392
24.224518
23.751539
22.970996
22.480085
21.716446
21.209772
20.460925
19.940426
19.204533
18.671915
17.94737
17.404131
16.689531
16.136987
15.431093
14.870406
14.172125
13.604327
12.912683
12.338698
11.652815
11.073473
10.392563
9.8086157
9.1319608
8.5440922
7.8710393
7.2798757
6.6098233
6.0159432
5.3483335
4.7522756
4.0865869
3.488858
2.8245967
2.2256785
1.5623707
0.96272724
0.29991761
32.168741
30.902053
30.328608
29.314724
28.886882
27.993001
27.579653
26.730347
26.299252
25.477163
25.024393
24.224518
23.751539
22.970995
22.480085
21.716446
21.209772
20.460925
19.940426
19.204532
18.671915
17.94737
17.404132
16.689531
16.136987
15.431093
14.870406
14.172125
13.604327
12.912683
12.338698
11.652815
11.073474
10.392562
9.8086157
9.1319607
8.5440923
7.8710393
7.2798758
6.6098232
6.0159432
5.3483334
4.7522757
4.0865869
3.4888581
2.8245967
2.2256785
1.5623707
0.96272733
0.29991758
32.167439
30.901376
30.32837
29.314669
28.886873
27.993
27.57965
26.730349
26.29925
25.477165
25.024394
24.224518
23.751539
22.970995
22.480086
21.716446
21.209772
20.460925
19.940426
19.204532
18.671915
17.94737
17.404132
16.689531
16.136987
15.431093
14.870406
14.172125
13.604327
12.912683
12.338698
11.652815
11.073474
10.392562
9.8086158
9.1319606
8.5440924
7.8710392
7.2798759
6.6098232
6.0159433
5.3483334
4.7522757
4.0865868
3.4888581
2.8245966
2.2256785
1.5623707
0.96272742
0.29991755
32.165986
30.900962
30.328198
29.314634
28.88687
27.993002
27.579648
26.730352
26.299248
25.477167
25.024395
24.224518
23.751539
22.970995
22.480086
21.716445
21.209772
20.460925
19.940426
19.204532
18.671915
17.94737
17.404132
16.689531
16.136987
15.431093
14.870406
14.172125
13.604328
12.912682
12.338698
11.652815
11.073474
10.392562
9.8086158
9.1319606
8.5440924
7.8710392
7.2798759
6.6098231
6.0159433
5.3483334
4.7522758
4.0865868
3.4888582
2.8245966
2.2256786
1.5623706
0.96272749
0.29991753
32.165073
30.900497
30.328067
29.314617
28.886874
27.993006
27.579648
26.730354
26.299246
25.477169
25.024396
24.224519
23.75154
22.970995
22.480086
21.716445
21.209772
20.460925
19.940426
19.204532
18.671915
17.94737
17.404132
16.689531
16.136987
15.431093
14.870406
14.172125
13.604328
12.912682
12.338698
11.652815
11.073474
10.392562
9.8086159
9.1319606
8.5440924
7.8710391
7.2798759
6.6098231
6.0159433
5.3483333
4.7522758
4.0865867
3.4888582
2.8245966
2.2256786
1.5623706
0.96272754
0.29991752
32.163978
30.900249
30.327994
29.314614
28.886882
27.993012
27.579649
26.730357
26.299245
25.477171
25.024397
24.224519
23.75154
22.970995
22.480086
21.716445
21.209772
20.460924
19.940426
19.204532
18.671915
17.94737
17.404132
16.68953
16.136987
15.431093
14.870406
14.172125
13.604328
12.912682
12.338698
11.652815
11.073474
10.392562
9.8086159
9.1319605
8.5440925
7.8710391
7.279876
6.6098231
6.0159434
5.3483333
4.7522758
4.0865867
3.4888582
2.8245965
2.2256786
1.5623706
0.96272757
0.29991751
32.163393
30.899948
30.327945
29.314623
28.886894
27.993018
27.57965
26.73036
26.299244
25.477171
25.024398
24.224519
23.75154
22.970995
22.480086
21.716445
21.209772
20.460924
19.940426
19.204532
18.671915
17.94737
17.404132
16.68953
16.136987
15.431093
14.870406
14.172125
13.604328
12.912682
12.338698
11.652815
11.073474
10.392562
9.8086159
9.1319605
8.5440925
7.8710391
7.279876
6.609823
6.0159434
5.3483333
4.7522758
4.0865867
3.4888582
2.8245965
2.2256786
1.5623706
0.96272758
0.29991751
32.162679
30.899821
30.327935
29.314639
28.886907
27.993025
27.579652
26.730362
26.299243
25.477172
25.024399
24.22452
23.75154
22.970994
22.480086
21.716445
21.209772
20.460924
19.940426
19.204532
18.671915
17.94737
17.404132
16.68953
16.136987
15.431093
14.870406
14.172124
13.604328
12.912682
12.338698
11.652814
11.073474
10.392562
9.808616
9.1319605
8.5440925
7.871039
7.279876
6.609823
6.0159434
5.3483333
4.7522759
4.0865867
3.4888582
2.8245965
2.2256786
1.5623706
0.96272757
0.29991751
32.162425
30.899623
30.327929
29.314656
28.88692
27.993031
27.579654
26.730364
26.299243
25.477172
25.024399
24.22452
23.75154
22.970994
22.480086
21.716445
21.209772
20.460924
19.940426
19.204532
18.671915
17.94737
17.404132
16.68953
16.136987
15.431093
14.870406
14.172124
13.604328
12.912682
12.338698
11.652814
11.073474
10.392562
9.808616
9.1319605
8.5440925
7.871039
7.279876
6.609823
6.0159434
5.3483333
4.7522759
4.0865867
3.4888582
2.8245965
2.2256786
1.5623706
0.96272753
0.29991753
32.162059
30.899581
30.327943
29.314673
28.88693
27.993036
27.579656
26.730365
26.299243
25.477172
25.0244
24.22452
23.751541
22.970994
22.480086
21.716445
21.209772
20.460924
19.940426
19.204532
18.671915
17.94737
17.404132
16.68953
16.136987
15.431093
14.870406
14.172124
13.604328
12.912682
12.338698
11.652814
11.073474
10.392562
9.808616
9.1319605
8.5440925
7.871039
7.279876
6.609823
6.0159434
5.3483333
4.7522758
4.0865867
3.4888582
2.8245965
2.2256786
1.5623706
0.96272747
0.29991756
32.162082
30.899486
30.327942
29.314682
28.886936
27.993039
27.579657
26.730366
26.299243
25.477173
25.0244
24.22452
23.751541
22.970994
22.480086
21.716445
21.209772
20.460924
19.940426
19.204532
18.671915
17.94737
17.404132
16.68953
16.136987
15.431093
14.870406
14.172124
13.604328
12.912682
12.338698
11.652814
11.073474
10.392562
9.808616
9.1319605
8.5440925
7.871039
7.279876
6.609823
6.0159434
5.3483333
4.7522758
4.0865867
3.4888582
2.8245965
2.2256786
1.5623706
0.96272744
0.29991757
32.16196
30.89953
30.327951
29.314682
28.886936
27.993039
27.579657
26.730366
26.299243
25.477173
25.0244
24.22452
23.751541
22.970994
22.480086
21.716445
21.209772
20.460924
19.940426
19.204532
18.671915
17.94737
17.404132
16.68953
16.136987
15.431093
14.870406
14.172124
13.604328
12.912682
12.338698
11.652814
11.073474
10.392562
9.808616
9.1319605
8.5440925
7.871039
7.279876
6.609823
6.0159434
5.3483333
4.7522758
4.0865867
3.4888582
2.8245965
2.2256786
1.5623706
0.96272744
0.29991757
32.162208
30.899505
30.327939
29.314673
28.88693
27.993036
27.579656
26.730365
26.299243
25.477172
25.0244
24.22452
23.751541
22.970994
22.480086
21.716445
21.209772
20.460924
19.940426
19.204532
18.671915
17.94737
17.404132
16.68953
16.136987
15.431093
14.870406
14.172124
13.604328
12.912682
12.338698
11.652814
11.073474
10.392562
9.808616
9.1319605
8.5440925
7.871039
7.279876
6.609823
6.0159434
5.3483333
4.7522758
4.0865867
3.4888582
2.8245965
2.2256786
1.5623706
0.96272747
0.29991756
32.162317
30.899641
30.327942
29.314659
28.88692
27.993031
27.579654
26.730364
26.299243
25.477172
25.0244
24.22452
23.75154
22.970994
22.480086
21.716445
21.209772
20.460924
19.940426
19.204532
18.671915
17.94737
17.404132
16.68953
16.136987
15.431093
14.870406
14.172124
13.604328
12.912682
12.338698
11.652814
11.073474
10.392562
9.808616
9.1319605
8.5440925
7.871039
7.279876
6.609823
6.0159434
5.3483333
4.7522759
4.0865867
3.4888582
2.8245965
2.2256786
1.5623706
0.96272753
0.29991753
32.162851
30.899723
30.327937
29.314641
28.886907
27.993025
27.579652
26.730362
26.299243
25.477172
25.024399
24.22452
23.75154
22.970994
22.480086
21.716445
21.209772
20.460924
19.940426
19.204532
18.671915
17.94737
17.404132
16.68953
16.136987
15.431093
14.870406
14.172124
13.604328
12.912682
12.338698
11.652814
11.073474
10.392562
9.808616
9.1319605
8.5440925
7.871039
7.279876
6.609823
6.0159434
5.3483333
4.7522759
4.0865867
3.4888582
2.8245965
2.2256786
1.5623706
0.96272757
0.29991751
32.16328
30.899951
30.327965
29.314627
28.886894
27.993018
27.57965
26.73036
26.299244
25.477171
25.024398
24.224519
23.75154
22.970995
22.480086
21.716445
21.209772
20.460924
19.940426
19.204532
18.671915
17.94737
17.404132
16.68953
16.136987
15.431093
14.870406
14.172125
13.604328
12.912682
12.338698
11.652815
11.073474
10.392562
9.8086159
9.1319605
8.5440925
7.8710391
7.279876
6.609823
6.0159434
5.3483333
4.7522758
4.0865867
3.4888582
2.8245965
2.2256786
1.5623706
0.96272758
0.29991751
32.164188
30.90013
30.328003
29.31462
28.886882
27.993011
27.579648
26.730357
26.299245
25.477171
25.024397
24.224519
23.75154
22.970995
22.480086
21.716445
21.209772
20.460924
19.940426
19.204532
18.671915
17.94737
17.404132
16.68953
16.136987
15.431093
14.870406
14.172125
13.604328
12.912682
12.338698
11.652815
11.073474
10.392562
9.8086159
9.1319605
8.5440925
7.8710391
7.279876
6.6098231
6.0159434
5.3483333
4.7522758
4.0865867
3.4888582
2.8245965
2.2256786
1.5623706
0.96272757
0.29991751
32.164945
30.900486
30.328096
29.314624
28.886874
27.993006
27.579648
26.730354
26.299246
25.477169
25.024396
24.224519
23.75154
22.970995
22.480086
21.716445
21.209772
20.460925
19.940426
19.204532
18.671915
17.94737
17.404132
16.689531
16.136987
15.431093
14.870406
14.172125
13.604328
12.912682
12.338698
11.652815
11.073474
10.392562
9.8086159
9.1319606
8.5440924
7.8710391
7.2798759
6.6098231
6.0159433
5.3483333
4.7522758
4.0865867
3.4888582
2.8245966
2.2256786
1.5623706
0.96272754
0.29991752
32.166231
30.900813
30.328216
29.314644
28.886871
27.993002
27.579648
26.730352
26.299248
25.477167
25.024395
24.224518
23.751539
22.970995
22.480086
21.716445
21.209772
20.460925
19.940426
19.204532
18.671915
17.94737
17.404132
16.689531
16.136987
15.431093
14.870406
14.172125
13.604328
12.912682
12.338698
11.652815
11.073474
10.392562
9.8086158
9.1319606
8.5440924
7.8710392
7.2798759
6.6098231
6.0159433
5.3483334
4.7522758
4.0865868
3.4888582
2.8245966
2.2256786
1.5623706
0.96272749
0.29991753
32.167329
30.901359
30.328407
29.314681
28.886874
27.993
27.57965
26.730349
26.29925
25.477165
25.024394
24.224518
23.751539
22.970995
22.480086
21.716446
21.209772
20.460925
19.940426
19.204532
18.671915
17.94737
17.404132
16.689531
16.136987
15.431093
14.870406
14.172125
13.604327
12.912683
12.338698
11.652815
11.073474
10.392562
9.8086158
9.1319606
8.5440924
7.8710392
7.2798759
6.6098232
6.0159433
5.3483334
4.7522757
4.0865868
3.4888581
2.8245966
2.2256785
1.5623707
0.96272742
0.29991755
32.168921
30.901856
30.328633
29.314738
28.886884
27.993001
27.579653
26.730347
26.299252
25.477163
25.024393
24.224518
23.751539
22.970995
22.480085
21.716446
21.209772
20.460925
19.940426
19.204532
18.671915
17.94737
17.404132
16.689531
16.136987
15.431093
14.870406
14.172125
13.604327
12.912683
12.338698
11.652815
11.073474
10.392562
9.8086157
9.1319607
8.5440923
7.8710393
7.2798758
6.6098232
6.0159432
5.3483334
4.7522757
4.0865869
3.4888581
2.8245967
2.2256785
1.5623707
0.96272733
0.29991758
32.170482
30.902631
30.328937
29.314815
28.886901
27.993003
27.579658
26.730345
26.299254
25.477161
25.024392
24.224518
23.751539
22.970996
22.480085
21.716446
21.209772
20.460925
19.940426
19.204533
18.671915
17.94737
17.404131
16.689531
16.136987
15.431093
14.870406
14.172125
13.604327
12.912683
12.338698
11.652815
11.073473
10.392563
9.8086157
9.1319608
8.5440922
7.8710393
7.2798757
6.6098233
6.0159432
5.3483335
4.7522756
4.0865869
3.488858
2.8245967
2.2256785
1.5623707
0.96272724
0.29991761
32.172314
30.903318
30.329282
29.314913
28.886926
27.993008
27.579664
26.730344
26.299255
25.477159
25.024392
24.224518
23.751538
22.970996
22.480085
21.716446
21.209772
20.460925
19.940425
19.204533
18.671915
17.947371
17.404131
16.689531
16.136986
15.431093
14.870406
14.172125
13.604327
12.912683
12.338698
11.652815
11.073473
10.392563
9.8086156
9.1319608
8.5440922
7.8710394
7.2798757
6.6098233
6.0159431
5.3483335
4.7522756
4.086587
3.488858
2.8245968
2.2256784
1.5623707
0.96272713
0.29991764
32.174492
30.904338
30.329708
29.315035
28.886959
27.993015
27.579673
26.730343
26.299255
25.477157
25.024391
24.224518
23.751538
22.970996
22.480085
21.716447
21.209771
20.460926
19.940425
19.204533
18.671914
17.947371
17.404131
16.689531
16.136986
15.431094
14.870406
14.172125
13.604327
12.912683
12.338698
11.652815
11.073473
10.392563
9.8086155
9.1319609
8.5440921
7.8710394
7.2798756
6.6098234
6.0159431
5.3483336
4.7522755
4.086587
3.4888579
2.8245968
2.2256784
1.5623708
0.962727
0.29991768
32.176666
30.90529
30.330192
29.315183
28.887001
27.993025
27.579683
26.730341
26.299255
25.477155
25.02439
24.224519
23.751538
22.970996
22.480085
21.716447
21.209771
20.460926
19.940425
19.204533
18.671914
17.947371
17.404131
16.689531
16.136986
15.431094
14.870406
14.172125
13.604327
12.912683
12.338698
11.652815
11.073473
10.392563
9.8086154
9.131961
8.544092
7.8710395
7.2798755
6.6098235
6.015943
5.3483337
4.7522755
4.0865871
3.4888579
2.8245969
2.2256783
1.5623708
0.96272687
0.29991772
32.17955
30.906595
30.33076
29.315357
28.887054
27.993039
27.579696
26.730339
26.299254
25.477154
25.024389
24.224519
23.751538
22.970997
22.480085
21.716447
21.209771
20.460926
19.940425
19.204533
18.671914
17.947371
17.404131
16.689531
16.136986
15.431094
14.870406
14.172125
13.604327
12.912683
12.338698
11.652815
11.073473
10.392563
9.8086153
9.1319611
8.5440919
7.8710396
7.2798755
6.6098235
6.0159429
5.3483337
4.7522754
4.0865871
3.4888578
2.824597
2.2256782
1.5623709
0.96272673
0.29991776
32.182249
30.907887
30.331403
29.315562
28.887118
27.993055
27.579711
26.730337
26.299253
25.477154
25.024389
24.224519
23.751537
22.970997
22.480084
21.716447
21.209771
20.460926
19.940425
19.204534
18.671914
17.947371
17.404131
16.689532
16.136986
15.431094
14.870405
14.172126
13.604327
12.912683
12.338697
11.652815
11.073473
10.392563
9.8086152
9.1319612
8.5440918
7.8710397
7.2798754
6.6098236
6.0159428
5.3483338
4.7522753
4.0865872
3.4888577
2.824597
2.2256782
1.562371
0.96272657
0.2999178
32.186003
30.909516
30.332123
29.315795
28.887192
27.993075
27.579726
26.730334
26.299252
25.477154
25.024388
24.22452
23.751537
22.970998
22.480084
21.716448
21.20977
20.460927
19.940424
19.204534
18.671914
17.947372
17.40413
16.689532
16.136986
15.431094
14.870405
14.172126
13.604327
12.912683
12.338697
11.652815
11.073473
10.392563
9.8086151
9.1319613
8.5440917
7.8710398
7.2798753
6.6098237
6.0159427
5.3483339
4.7522752
4.0865873
3.4888576
2.8245971
2.2256781
1.562371
0.9627264
0.29991785
32.189371
30.911186
30.332932
29.316058
28.887277
27.993097
27.579742
26.730331
26.299251
25.477154
25.024388
24.22452
23.751537
22.970998
22.480084
21.716448
21.20977
20.460927
19.940424
19.204534
18.671913
17.947372
17.40413
16.689532
16.136986
15.431094
14.870405
14.172126
13.604326
12.912684
12.338697
11.652816
11.073473
10.392563
9.808615
9.1319614
8.5440916
7.8710399
7.2798752
6.6098238
6.0159426
5.348334
4.7522751
4.0865874
3.4888576
2.8245972
2.225678
1.5623711
0.96272622
0.29991789
32.194203
30.91316
30.333805
29.316341
28.88737
27.993123
27.579758
26.730329
26.299251
25.477155
25.024388
24.224521
23.751537
22.970999
22.480083
21.716449
21.20977
20.460927
19.940424
19.204534
18.671913
17.947372
17.40413
16.689532
16.136985
15.431095
14.870405
14.172126