/*--------------------------------*- C++ -*----------------------------------*\
| =========                 |                                                 |
| \\      /  F ield         | OpenFOAM: The Open Source CFD Toolbox           |
|  \\    /   O peration     | Version:  2312                                  |
|   \\  /    A nd           | Website:  www.openfoam.com                      |
|    \\/     M anipulation  |                                                 |
\*---------------------------------------------------------------------------*/
FoamFile
{
    version     2.0;
    format      ascii;
    arch        "LSB;label=32;scalar=64";
    class       surfaceScalarField;
    location    "5";
    object      phi;
}
// * * * * * * * * * * * * * * * * * * * * * * * * * * * * * * * * * * * * * //

dimensions      [0 3 -1 0 0 0 0];

oriented        oriented;

internalField   nonuniform List<scalar> 
7870
(
1.3188628e-10
2.8163637e-09
1.3345925e-10
-1.572959e-12
1.1283294e-10
2.0626298e-11
1.1390966e-10
-1.0767156e-12
1.1436264e-10
-4.5299144e-13
1.1286646e-10
1.4961905e-12
1.1381237e-10
-9.4591014e-13
1.1264398e-10
1.1683863e-12
1.1369847e-10
-1.0544943e-12
1.1266756e-10
1.0309139e-12
1.1363285e-10
-9.6529347e-13
1.1271567e-10
9.1717871e-13
1.1357653e-10
-8.608618e-13
1.1276318e-10
8.1335363e-13
1.13528e-10
-7.6482432e-13
1.1280647e-10
7.215298e-13
1.1348609e-10
-6.7962375e-13
1.1284491e-10
6.4118485e-13
1.1344962e-10
-6.0471557e-13
1.1287876e-10
5.7086619e-13
1.1341774e-10
-5.389808e-13
1.1290848e-10
5.0925202e-13
1.1338981e-10
-4.8132342e-13
1.1293456e-10
4.5524916e-13
1.1336535e-10
-4.307875e-13
1.1295739e-10
4.079549e-13
1.1334395e-10
-3.8656181e-13
1.1297734e-10
3.6661683e-13
1.133253e-10
-3.4796062e-13
1.129947e-10
3.3060151e-13
1.133091e-10
-3.1440194e-13
1.1300973e-10
2.9937107e-13
1.1329512e-10
-2.8538933e-13
1.1302265e-10
2.7246622e-13
1.1328315e-10
-2.6049817e-13
1.1303365e-10
2.4949433e-13
1.1327302e-10
-2.393658e-13
1.130429e-10
2.301209e-13
1.1326458e-10
-2.2168448e-13
1.1305052e-10
2.1406344e-13
1.1325772e-10
-2.0719629e-13
1.1305663e-10
2.0108766e-13
1.1325231e-10
-1.9568533e-13
1.130613e-10
1.9101546e-13
1.1324826e-10
-1.8696543e-13
1.1306462e-10
1.8364309e-13
1.1324603e-10
-1.8140603e-13
1.1306924e-10
1.7678836e-13
1.1325412e-10
-1.8488345e-13
1.7007718e-13
3.5147876e-10
5.4131349e-09
3.8040152e-10
-3.049571e-11
3.300773e-10
7.0950503e-11
3.3071459e-10
-1.713999e-12
3.3097183e-10
-7.102402e-13
3.2855554e-10
3.912485e-12
3.2950537e-10
-1.895746e-12
3.2780189e-10
2.8718693e-12
3.2926925e-10
-2.5218568e-12
3.2779037e-10
2.5097871e-12
3.2917219e-10
-2.347117e-12
3.2784968e-10
2.2396876e-12
3.2908829e-10
-2.0994744e-12
3.2791457e-10
1.9870758e-12
3.2901677e-10
-1.8670331e-12
3.2797577e-10
1.7625314e-12
3.2895585e-10
-1.6597036e-12
3.280308e-10
1.5662336e-12
3.2890316e-10
-1.4770739e-12
3.280795e-10
1.3945237e-12
3.2885718e-10
-1.3166658e-12
3.2812236e-10
1.2440728e-12
3.2881693e-10
-1.1758937e-12
3.2816e-10
1.1121853e-12
3.2878168e-10
-1.0524657e-12
3.2819297e-10
9.9665968e-13
3.2875083e-10
-9.444246e-13
3.2822178e-10
8.9566749e-13
3.2872393e-10
-8.5010938e-13
3.2824686e-10
8.0766926e-13
3.2870057e-10
-7.6810639e-13
3.2826858e-10
7.3135609e-13
3.286804e-10
-6.9720697e-13
3.2828726e-10
6.6560855e-13
3.2866314e-10
-6.3637549e-13
3.2830316e-10
6.0946829e-13
3.2864852e-10
-5.8472622e-13
3.2831653e-10
5.6211802e-13
3.2863635e-10
-5.4150684e-13
3.2832754e-10
5.228667e-13
3.2862643e-10
-5.0608651e-13
3.2833638e-10
4.9114008e-13
3.2861863e-10
-4.7793399e-13
3.2834313e-10
4.6651348e-13
3.2861271e-10
-4.5654744e-13
3.2834781e-10
4.4854631e-13
3.2860936e-10
-4.4295678e-13
3.2835564e-10
4.3051073e-13
3.2862951e-10
-4.5875473e-13
4.1428239e-13
5.5875352e-10
7.8026314e-09
6.1526338e-10
-8.7005552e-11
5.4118952e-10
1.4502434e-10
5.4210113e-10
-2.6255969e-12
5.4161632e-10
-2.2544407e-13
5.3897294e-10
6.5558661e-12
5.3932898e-10
-2.2517865e-12
5.3771642e-10
4.4844258e-12
5.3903191e-10
-3.8373488e-12
5.3765088e-10
3.890817e-12
5.3894156e-10
-3.6378031e-12
5.3769395e-10
3.4873012e-12
5.388594e-10
-3.2649279e-12
5.377504e-10
3.0960674e-12
5.3878996e-10
-2.9065981e-12
5.3780655e-10
2.7459399e-12
5.3873183e-10
-2.5849812e-12
5.3785797e-10
2.4400924e-12
5.3868196e-10
-2.3010617e-12
5.3790379e-10
2.1726873e-12
5.3863856e-10
-2.0514325e-12
5.3794425e-10
1.9383846e-12
5.3860058e-10
-1.832229e-12
5.3797982e-10
1.7329509e-12
5.3856731e-10
-1.6399593e-12
5.3801101e-10
1.5529658e-12
5.385382e-10
-1.4716168e-12
5.3803827e-10
1.3955977e-12
5.385128e-10
-1.324638e-12
5.3806201e-10
1.2584615e-12
5.3849073e-10
-1.1968335e-12
5.3808256e-10
1.139526e-12
5.3847168e-10
-1.0863267e-12
5.3810024e-10
1.0370505e-12
5.3845537e-10
-9.9150597e-13
5.381153e-10
9.49543e-13
5.3844156e-10
-9.1099139e-13
5.3812795e-10
8.7572932e-13
5.3843005e-10
-8.4360938e-13
5.3813839e-10
8.1453074e-13
5.3842068e-10
-7.8837516e-13
5.3814677e-10
7.6504854e-13
5.3841329e-10
-7.4445306e-13
5.3815316e-10
7.2663665e-13
5.384076e-10
-7.1098115e-13
5.3815746e-10
6.9868076e-13
5.3840434e-10
-6.8982995e-13
5.3816669e-10
6.6815976e-13
5.3843492e-10
-7.2698722e-13
6.4363761e-13
7.6592645e-10
9.9849549e-09
8.3828657e-10
-1.5936566e-10
7.4622175e-10
2.3708913e-10
7.4775147e-10
-4.1553087e-12
7.4664152e-10
8.8450284e-13
7.4377045e-10
9.4269424e-12
7.4359799e-10
-2.0793342e-12
7.4209469e-10
5.9877229e-12
7.4326471e-10
-5.0073732e-12
7.4198904e-10
5.1664839e-12
7.4318711e-10
-4.835871e-12
7.4201819e-10
4.6562197e-12
7.4310781e-10
-4.3545498e-12
7.420666e-10
4.1372673e-12
7.4304084e-10
-3.8808417e-12
7.421177e-10
3.6690861e-12
7.429857e-10
-3.4529827e-12
7.421654e-10
3.2603867e-12
7.4293876e-10
-3.0744238e-12
7.4220823e-10
2.9032187e-12
7.4289803e-10
-2.7412315e-12
7.4224616e-10
2.5902548e-12
7.428624e-10
-2.4484731e-12
7.4227956e-10
2.3157996e-12
7.4283119e-10
-2.1915912e-12
7.4230886e-10
2.0752975e-12
7.4280386e-10
-1.966626e-12
7.4233448e-10
1.8649871e-12
7.4278002e-10
-1.7701835e-12
7.4235679e-10
1.6816977e-12
7.4275931e-10
-1.5993541e-12
7.4237611e-10
1.5227238e-12
7.4274142e-10
-1.4516368e-12
7.4239272e-10
1.3857436e-12
7.427261e-10
-1.3248803e-12
7.4240688e-10
1.2687634e-12
7.4271313e-10
-1.2172398e-12
7.4241878e-10
1.1700791e-12
7.4270231e-10
-1.1271446e-12
7.424286e-10
1.088246e-12
7.426935e-10
-1.0532756e-12
7.4243649e-10
1.0220565e-12
7.4268654e-10
-9.9450458e-13
7.4244251e-10
9.7066415e-13
7.426811e-10
-9.4956542e-13
7.4244642e-10
9.3336012e-13
7.4267779e-10
-9.2119975e-13
7.4245637e-10
8.8957392e-13
7.4271632e-10
-9.8693047e-13
8.5806897e-13
9.4482423e-10
1.1988381e-08
1.0522485e-09
-2.667899e-10
9.4550239e-10
3.438352e-10
9.4772752e-10
-6.3804298e-12
9.4602474e-10
2.5872801e-12
9.4292971e-10
1.2521973e-11
9.4230806e-10
-1.4576919e-12
9.4093658e-10
7.3592027e-12
9.4196758e-10
-6.0383794e-12
9.4080436e-10
6.3297088e-12
9.4190865e-10
-5.940172e-12
9.4082189e-10
5.7429779e-12
9.418333e-10
-5.3659591e-12
9.4086273e-10
5.1078322e-12
9.417692e-10
-4.7873091e-12
9.4090882e-10
4.5294657e-12
9.4171724e-10
-4.2614116e-12
9.4095275e-10
4.0248754e-12
9.4167338e-10
-3.7950545e-12
9.4099251e-10
3.5840956e-12
9.4163542e-10
-3.384148e-12
9.4102782e-10
3.1978567e-12
9.4160224e-10
-3.0228937e-12
9.4105896e-10
2.8590853e-12
9.4157317e-10
-2.7058014e-12
9.4108629e-10
2.5621755e-12
9.4154771e-10
-2.4280515e-12
9.4111019e-10
2.3025084e-12
9.415255e-10
-2.1854895e-12
9.4113101e-10
2.0761869e-12
9.415062e-10
-1.9745405e-12
9.4114904e-10
1.8798803e-12
9.4148953e-10
-1.7921236e-12
9.4116455e-10
1.7107249e-12
9.4147525e-10
-1.6355844e-12
9.4117775e-10
1.5662593e-12
9.4146316e-10
-1.5026435e-12
9.4118886e-10
1.4443775e-12
9.4145307e-10
-1.3913587e-12
9.4119803e-10
1.3432911e-12
9.4144485e-10
-1.3000967e-12
9.412054e-10
1.2615001e-12
9.4143835e-10
-1.2274508e-12
9.4121104e-10
1.1979765e-12
9.4143318e-10
-1.1717113e-12
9.4121454e-10
1.1520027e-12
9.4142978e-10
-1.1364369e-12
9.412248e-10
1.094553e-12
9.414742e-10
-1.2363302e-12
1.0560983e-12
1.1453727e-09
1.3791258e-08
1.2541371e-09
-3.7555432e-10
1.138634e-09
4.5933834e-10
1.1420939e-09
-9.8403005e-12
1.1397424e-09
4.9387134e-12
1.1364517e-09
1.5812692e-11
1.1354592e-09
-4.652478e-13
1.1342437e-09
8.5747345e-12
1.1351419e-09
-6.9365909e-12
1.1340968e-09
7.3748544e-12
1.1351069e-09
-6.9502658e-12
1.1341048e-09
6.7450036e-12
1.1350363e-09
-6.2974431e-12
1.1341386e-09
6.0055829e-12
1.1349754e-09
-5.6241239e-12
1.1341797e-09
5.3251317e-12
1.1349268e-09
-5.0084759e-12
1.1342198e-09
4.7318006e-12
1.1348861e-09
-4.4612946e-12
1.1342565e-09
4.213723e-12
1.134851e-09
-3.9786653e-12
1.1342891e-09
3.7597464e-12
1.1348203e-09
-3.5541174e-12
1.1343179e-09
3.3615064e-12
1.1347934e-09
-3.1813533e-12
1.1343432e-09
3.0124306e-12
1.1347699e-09
-2.8547839e-12
1.1343653e-09
2.7071136e-12
1.1347494e-09
-2.5695622e-12
1.1343846e-09
2.4409904e-12
1.1347315e-09
-2.3215021e-12
1.1344013e-09
2.210153e-12
1.1347161e-09
-2.1069874e-12
1.1344156e-09
2.0112369e-12
1.1347029e-09
-1.9228978e-12
1.1344278e-09
1.8413472e-12
1.1346918e-09
-1.7665512e-12
1.1344381e-09
1.6980047e-12
1.1346824e-09
-1.6356598e-12
1.1344466e-09
1.5791014e-12
1.1346748e-09
-1.5282979e-12
1.1344535e-09
1.482862e-12
1.1346688e-09
-1.4427953e-12
1.1344587e-09
1.4080938e-12
1.1346639e-09
-1.3769678e-12
1.1344618e-09
1.3541608e-12
1.1346604e-09
-1.3350801e-12
1.134472e-09
1.2829732e-12
1.1347089e-09
-1.473255e-12
1.2364992e-12
1.2968479e-09
1.544266e-08
1.4466579e-09
-5.2536422e-10
1.326318e-09
5.7967815e-10
1.3307381e-09
-1.4260385e-11
1.3277451e-09
7.9316963e-12
1.3243282e-09
1.9229589e-11
1.3230463e-09
8.1666808e-13
1.3220151e-09
9.6059861e-12
1.3227879e-09
-7.7094275e-12
1.3218656e-09
8.297105e-12
1.3227821e-09
-7.8666958e-12
1.3218666e-09
7.6604645e-12
1.3227172e-09
-7.1480219e-12
1.3218938e-09
6.8289809e-12
1.3226597e-09
-6.3900192e-12
1.3219301e-09
6.0547031e-12
1.3226145e-09
-5.6929157e-12
1.3219664e-09
5.3799062e-12
1.3225771e-09
-5.0719576e-12
1.3219999e-09
4.7909546e-12
1.3225449e-09
-4.5236918e-12
1.3220298e-09
4.2748829e-12
1.3225168e-09
-4.0411525e-12
1.3220562e-09
3.8221237e-12
1.3224922e-09
-3.617354e-12
1.3220794e-09
3.4252195e-12
1.3224706e-09
-3.2460225e-12
1.3220997e-09
3.0780473e-12
1.3224518e-09
-2.9216847e-12
1.3221174e-09
2.7754315e-12
1.3224355e-09
-2.6395966e-12
1.3221327e-09
2.5129351e-12
1.3224213e-09
-2.3956516e-12
1.3221458e-09
2.286734e-12
1.3224093e-09
-2.1863013e-12
1.3221571e-09
2.0935345e-12
1.322399e-09
-2.0084933e-12
1.3221665e-09
1.9305142e-12
1.3223905e-09
-1.8596213e-12
1.3221743e-09
1.7952701e-12
1.3223835e-09
-1.7374893e-12
1.3221806e-09
1.6857697e-12
1.322378e-09
-1.6401812e-12
1.3221854e-09
1.6006713e-12
1.3223734e-09
-1.565015e-12
1.3221881e-09
1.5395115e-12
1.3223698e-09
-1.5168168e-12
1.322198e-09
1.4547831e-12
1.3224208e-09
-1.6960785e-12
1.3985906e-12
1.4863359e-09
1.6904574e-08
1.6277053e-09
-6.6673358e-10
1.5077237e-09
6.9965974e-10
1.5134991e-09
-2.0035756e-11
1.5100767e-09
1.1354048e-11
1.50659e-09
2.2716314e-11
1.505082e-09
2.3246464e-12
1.5042561e-09
1.0431952e-11
1.5049085e-09
-8.3618679e-12
1.5041116e-09
9.0940155e-12
1.504935e-09
-8.690143e-12
1.5041071e-09
8.4884167e-12
1.5048762e-09
-7.9172062e-12
1.5041282e-09
7.5770735e-12
1.5048224e-09
-7.0842242e-12
1.5041598e-09
6.7172902e-12
1.5047808e-09
-6.3139243e-12
1.5041923e-09
5.9683714e-12
1.5047466e-09
-5.6262678e-12
1.5042225e-09
5.3150352e-12
1.5047173e-09
-5.0185067e-12
1.5042497e-09
4.7425782e-12
1.5046918e-09
-4.4833431e-12
1.5042737e-09
4.2403164e-12
1.5046695e-09
-4.0132127e-12
1.5042947e-09
3.7999855e-12
1.50465e-09
-3.6012383e-12
1.5043132e-09
3.4148116e-12
1.5046329e-09
-3.241384e-12
1.5043293e-09
3.0790648e-12
1.5046181e-09
-2.928401e-12
1.5043432e-09
2.7878275e-12
1.5046053e-09
-2.6577368e-12
1.5043551e-09
2.5368573e-12
1.5045943e-09
-2.4254535e-12
1.5043653e-09
2.3224975e-12
1.504585e-09
-2.2281612e-12
1.5043739e-09
2.1416129e-12
1.5045772e-09
-2.0629631e-12
1.504381e-09
1.9915304e-12
1.5045709e-09
-1.9274157e-12
1.5043867e-09
1.86998e-12
1.5045659e-09
-1.8193758e-12
1.5043911e-09
1.7754852e-12
1.5045617e-09
-1.7356498e-12
1.5043934e-09
1.7078428e-12
1.504558e-09
-1.681461e-12
1.5044028e-09
1.6099961e-12
1.5046102e-09
-1.9034419e-12
1.5421096e-12
1.618525e-09
1.8234299e-08
1.7984394e-09
-8.4664798e-10
1.683408e-09
8.1469111e-10
1.6892143e-09
-2.5842097e-11
1.6865331e-09
1.4035244e-11
1.6832047e-09
2.6044687e-11
1.6815619e-09
3.967494e-12
1.6809663e-09
1.1027579e-11
1.6815045e-09
-8.9000652e-12
1.6808344e-09
9.7640488e-12
1.6815661e-09
-9.4217769e-12
1.680826e-09
9.2284804e-12
1.6815138e-09
-8.6049766e-12
1.6808415e-09
8.2493692e-12
1.6814636e-09
-7.7064024e-12
1.6808685e-09
7.3124184e-12
1.6814257e-09
-6.8710895e-12
1.6808973e-09
6.4967516e-12
1.6813948e-09
-6.1238073e-12
1.6809243e-09
5.7855515e-12
1.6813685e-09
-5.4627148e-12
1.6809486e-09
5.1624544e-12
1.6813456e-09
-4.8803274e-12
1.6809702e-09
4.6157436e-12
1.6813256e-09
-4.368604e-12
1.6809891e-09
4.1364235e-12
1.6813081e-09
-3.920141e-12
1.6810057e-09
3.7171345e-12
1.6812927e-09
-3.5284017e-12
1.6810202e-09
3.351648e-12
1.6812794e-09
-3.1876848e-12
1.6810327e-09
3.0346139e-12
1.681268e-09
-2.8930368e-12
1.6810434e-09
2.761413e-12
1.6812581e-09
-2.6401695e-12
1.6810526e-09
2.528062e-12
1.6812498e-09
-2.4253886e-12
1.6810603e-09
2.3311434e-12
1.6812428e-09
-2.245535e-12
1.6810666e-09
2.1677405e-12
1.6812371e-09
-2.0979416e-12
1.6810718e-09
2.035365e-12
1.6812326e-09
-1.9802574e-12
1.6810757e-09
1.9324192e-12
1.6812288e-09
-1.8887733e-12
1.6810776e-09
1.8590425e-12
1.6812251e-09
-1.8289377e-12
1.6810864e-09
1.748686e-12
1.6812772e-09
-2.0942257e-12
1.6670868e-12
1.7909059e-09
1.9391643e-08
1.9606198e-09
-1.0163618e-09
1.853199e-09
9.2211188e-10
1.8574884e-09
-3.0131478e-11
1.8569629e-09
1.4560779e-11
1.8541642e-09
2.8843393e-11
1.8524857e-09
5.6459381e-12
1.8521467e-09
1.1366594e-11
1.8525769e-09
-9.330222e-12
1.8520343e-09
1.0306612e-11
1.8526756e-09
-1.0063045e-11
1.8520232e-09
9.8807959e-12
1.8526299e-09
-9.2116872e-12
1.8520335e-09
8.8457922e-12
1.8525837e-09
-8.2565909e-12
1.8520561e-09
7.839985e-12
1.8525494e-09
-7.3643483e-12
1.8520812e-09
6.9649401e-12
1.8525219e-09
-6.564479e-12
1.852105e-09
6.2023975e-12
1.8524985e-09
-5.8562131e-12
1.8521266e-09
5.534412e-12
1.8524783e-09
-5.2320083e-12
1.8521457e-09
4.9483156e-12
1.8524605e-09
-4.6834411e-12
1.8521625e-09
4.4344547e-12
1.852445e-09
-4.2026542e-12
1.8521772e-09
3.9849471e-12
1.8524315e-09
-3.7826713e-12
1.85219e-09
3.5931209e-12
1.8524197e-09
-3.4173901e-12
1.8522011e-09
3.2532415e-12
1.8524095e-09
-3.1015014e-12
1.8522106e-09
2.9603551e-12
1.8524008e-09
-2.8304054e-12
1.8522187e-09
2.7101878e-12
1.8523934e-09
-2.6001372e-12
1.8522255e-09
2.4990711e-12
1.8523873e-09
-2.4073043e-12
1.8522312e-09
2.3238705e-12
1.8523823e-09
-2.2490394e-12
1.8522357e-09
2.1819008e-12
1.8523783e-09
-2.1228049e-12
1.8522392e-09
2.0714549e-12
1.8523748e-09
-2.0243804e-12
1.8522408e-09
1.9930891e-12
1.8523711e-09
-1.9592699e-12
1.8522488e-09
1.8709838e-12
1.8524221e-09
-2.2675269e-12
1.7737773e-12
1.9162967e-09
2.0423596e-08
2.1129966e-09
-1.2130618e-09
2.0172322e-09
1.0178763e-09
2.0198298e-09
-3.2729065e-11
2.0215656e-09
1.2824994e-11
2.0195222e-09
3.0886753e-11
2.0178731e-09
7.2950774e-12
2.0178036e-09
1.1436021e-11
2.0181284e-09
-9.654956e-12
2.0177119e-09
1.0723093e-11
2.0182641e-09
-1.0615244e-11
2.0176988e-09
1.0446081e-11
2.0182251e-09
-9.7379646e-12
2.0177042e-09
9.366657e-12
2.0181828e-09
-8.7351523e-12
2.0177225e-09
8.3002271e-12
2.0181521e-09
-7.7939525e-12
2.0177439e-09
7.3731379e-12
2.0181279e-09
-6.9484773e-12
2.0177646e-09
6.5657469e-12
2.0181075e-09
-6.1991642e-12
2.0177833e-09
5.8586043e-12
2.0180898e-09
-5.5385288e-12
2.0178e-09
5.2381703e-12
2.0180744e-09
-4.9578527e-12
2.0178147e-09
4.6942041e-12
2.0180609e-09
-4.4488954e-12
2.0178275e-09
4.2183634e-12
2.0180491e-09
-4.0043e-12
2.0178386e-09
3.8035876e-12
2.0180389e-09
-3.6176151e-12
2.0178483e-09
3.4438058e-12
2.01803e-09
-3.2832206e-12
2.0178566e-09
3.1337712e-12
2.0180224e-09
-2.9962444e-12
2.0178637e-09
2.8689559e-12
2.018016e-09
-2.7524847e-12
2.0178696e-09
2.6454717e-12
2.0180107e-09
-2.5483442e-12
2.0178745e-09
2.4599929e-12
2.0180063e-09
-2.3807795e-12
2.0178785e-09
2.3096579e-12
2.0180028e-09
-2.2470882e-12
2.0178816e-09
2.1926627e-12
2.0179998e-09
-2.1425513e-12
2.0178828e-09
2.1100441e-12
2.0179961e-09
-2.0725679e-12
2.01789e-09
1.9770746e-12
2.0180451e-09
-2.4226413e-12
1.8626146e-12
2.0791036e-09
2.1292743e-08
2.2570469e-09
-1.3910051e-09
2.1746932e-09
1.10023e-09
2.1776024e-09
-3.5638224e-11
2.1804503e-09
9.9771055e-12
2.1793219e-09
3.2015111e-11
2.1777349e-09
8.8820485e-12
2.1779393e-09
1.1231644e-11
2.1781594e-09
-9.8750583e-12
2.1778669e-09
1.1015611e-11
2.1783316e-09
-1.1079993e-11
2.1778524e-09
1.0925304e-11
2.1782992e-09
-1.0184795e-11
2.1778533e-09
9.8125746e-12
2.1782609e-09
-9.1427672e-12
2.1778675e-09
8.6936798e-12
2.178234e-09
-8.1604437e-12
2.1778853e-09
7.7218234e-12
2.1782131e-09
-7.2762617e-12
2.1779028e-09
6.8760263e-12
2.1781956e-09
-6.4919711e-12
2.1779188e-09
6.1354134e-12
2.1781805e-09
-5.8002486e-12
2.177933e-09
5.485651e-12
2.1781673e-09
-5.192162e-12
2.1779456e-09
4.9159809e-12
2.1781558e-09
-4.6591559e-12
2.1779565e-09
4.4176624e-12
2.1781458e-09
-4.1935511e-12
2.1779661e-09
3.9833004e-12
2.178137e-09
-3.7885984e-12
2.1779743e-09
3.6065353e-12
2.1781295e-09
-3.4384113e-12
2.1779814e-09
3.2818694e-12
2.178123e-09
-3.1378845e-12
2.1779874e-09
3.0045569e-12
2.1781176e-09
-2.8826132e-12
2.1779925e-09
2.7705212e-12
2.178113e-09
-2.6688239e-12
2.1779967e-09
2.5762717e-12
2.1781093e-09
-2.4933211e-12
2.1780001e-09
2.4187923e-12
2.1781063e-09
-2.3532597e-12
2.1780028e-09
2.2961933e-12
2.1781037e-09
-2.2434432e-12
2.1780037e-09
2.2100439e-12
2.1781001e-09
-2.1690189e-12
2.17801e-09
2.0671948e-12
2.1781464e-09
-2.5590461e-12
1.9341737e-12
2.1994806e-09
2.2041512e-08
2.3910422e-09
-1.5825666e-09
2.3267299e-09
1.1645422e-09
2.3309289e-09
-3.9837155e-11
2.3337116e-09
7.1943907e-12
2.3335935e-09
3.2133189e-11
2.33208e-09
1.0395585e-11
2.3325555e-09
1.0756128e-11
2.3326703e-09
-9.9899068e-12
2.332499e-09
1.1186983e-11
2.3328781e-09
-1.1459192e-11
2.3324838e-09
1.1319622e-11
2.3328525e-09
-1.0553515e-11
2.3324807e-09
1.0184402e-11
2.3328184e-09
-9.4804193e-12
2.3324909e-09
9.0211409e-12
2.3327951e-09
-8.4646318e-12
2.3325052e-09
8.0117246e-12
2.3327775e-09
-7.5485331e-12
2.3325196e-09
7.1338907e-12
2.3327629e-09
-6.7352547e-12
2.3325329e-09
6.3654272e-12
2.3327503e-09
-6.0177224e-12
2.3325447e-09
5.6912856e-12
2.3327394e-09
-5.386867e-12
2.3325551e-09
5.1002595e-12
2.3327299e-09
-4.8338835e-12
2.3325642e-09
4.5832708e-12
2.3327215e-09
-4.3508281e-12
2.3325722e-09
4.1326439e-12
2.3327143e-09
-3.9307042e-12
2.332579e-09
3.7417779e-12
2.332708e-09
-3.5674038e-12
2.3325849e-09
3.4049657e-12
2.3327027e-09
-3.2556267e-12
2.33259e-09
3.1172795e-12
2.3326981e-09
-2.9907986e-12
2.3325942e-09
2.8744854e-12
2.3326944e-09
-2.7689986e-12
2.3325977e-09
2.6729542e-12
2.3326913e-09
-2.586903e-12
2.3326005e-09
2.5095371e-12
2.3326888e-09
-2.4415463e-12
2.3326027e-09
2.3822696e-12
2.3326866e-09
-2.3272826e-12
2.3326033e-09
2.2932935e-12
2.3326832e-09
-2.2488783e-12
2.3326087e-09
2.1416274e-12
2.3327261e-09
-2.6763838e-12
1.9891372e-12
2.3504823e-09
2.263928e-08
2.5196441e-09
-1.7517285e-09
2.4729824e-09
1.2112039e-09
2.4790952e-09
-4.5949888e-11
2.48145e-09
4.8395127e-12
2.4823507e-09
3.1232515e-11
2.4809153e-09
1.1831002e-11
2.4816558e-09
1.0015577e-11
2.4816634e-09
-9.9974377e-12
2.4816089e-09
1.1241424e-11
2.4819041e-09
-1.1754411e-11
2.4815931e-09
1.1630686e-11
2.4818852e-09
-1.0845618e-11
2.4815863e-09
1.0483302e-11
2.4818552e-09
-9.7493287e-12
2.4815927e-09
9.2836656e-12
2.4818356e-09
-8.707561e-12
2.4816035e-09
8.2437987e-12
2.4818212e-09
-7.7662084e-12
2.4816149e-09
7.3402011e-12
2.4818094e-09
-6.9298305e-12
2.4816255e-09
6.5494179e-12
2.4817994e-09
-6.1916798e-12
2.4816349e-09
5.8557666e-12
2.4817907e-09
-5.5426217e-12
2.4816433e-09
5.2476615e-12
2.4817831e-09
-4.9736654e-12
2.4816506e-09
4.7157473e-12
2.4817764e-09
-4.4766595e-12
2.4816569e-09
4.2521214e-12
2.4817707e-09
-4.0444096e-12
2.4816624e-09
3.8499884e-12
2.4817657e-09
-3.67063e-12
2.4816672e-09
3.5034727e-12
2.4817614e-09
-3.3498642e-12
2.4816712e-09
3.2075004e-12
2.4817578e-09
-3.0774013e-12
2.4816746e-09
2.9577105e-12
2.4817548e-09
-2.8492011e-12
2.4816773e-09
2.7503617e-12
2.4817523e-09
-2.6618358e-12
2.4816796e-09
2.5821943e-12
2.4817503e-09
-2.5122416e-12
2.4816814e-09
2.4511798e-12
2.4817485e-09
-2.3943582e-12
2.4816817e-09
2.3600594e-12
2.4817453e-09
-2.3124615e-12
2.4816862e-09
2.2006991e-12
2.4817843e-09
-2.7744481e-12
2.0282675e-12
2.4668474e-09
2.3120682e-08
2.6412574e-09
-1.9261385e-09
2.6140164e-09
1.2384449e-09
2.6212495e-09
-5.3182906e-11
2.6237753e-09
2.3136683e-12
2.625586e-09
2.9421774e-11
2.6242412e-09
1.3175857e-11
2.6252423e-09
9.0144401e-12
2.6251402e-09
-9.8953299e-12
2.6251976e-09
1.1184015e-11
2.6254102e-09
-1.196695e-11
2.6251802e-09
1.1860592e-11
2.6253973e-09
-1.106272e-11
2.6251699e-09
1.0710727e-11
2.6253715e-09
-9.9509262e-12
2.6251726e-09
9.4825433e-12
2.6253556e-09
-8.8904871e-12
2.6251801e-09
8.4192087e-12
2.6253443e-09
-7.9303987e-12
2.6251885e-09
7.4960023e-12
2.6253354e-09
-7.0766884e-12
2.6251965e-09
6.6883223e-12
2.6253278e-09
-6.3230058e-12
2.6252036e-09
5.9799335e-12
2.6253212e-09
-5.6602189e-12
2.62521e-09
5.3589395e-12
2.6253155e-09
-5.0792132e-12
2.6252155e-09
4.8157678e-12
2.6253105e-09
-4.5716848e-12
2.6252203e-09
4.3423413e-12
2.6253062e-09
-4.1302913e-12
2.6252245e-09
3.9317163e-12
2.6253024e-09
-3.7486123e-12
2.625228e-09
3.5778892e-12
2.6252992e-09
-3.4210723e-12
2.6252311e-09
3.2756746e-12
2.6252965e-09
-3.1428566e-12
2.6252336e-09
3.020615e-12
2.6252942e-09
-2.9098333e-12
2.6252357e-09
2.8088822e-12
2.6252924e-09
-2.7184941e-12
2.6252374e-09
2.6371279e-12
2.6252909e-09
-2.5656993e-12
2.6252388e-09
2.5032705e-12
2.6252895e-09
-2.4450142e-12
2.6252389e-09
2.4106634e-12
2.6252865e-09
-2.3601367e-12
2.6252425e-09
2.2447759e-12
2.6253212e-09
-2.8531697e-12
2.0523828e-12
2.6096205e-09
2.3459312e-08
2.7608491e-09
-2.077367e-09
2.7498046e-09
1.2494893e-09
2.7570424e-09
-6.0420637e-11
2.7607445e-09
-1.3885127e-12
2.7632977e-09
2.6868567e-11
2.7620633e-09
1.4410326e-11
2.7633173e-09
7.7604489e-12
2.7631027e-09
-9.6807754e-12
2.763266e-09
1.1020728e-11
2.7633968e-09
-1.2097778e-11
2.7632455e-09
1.2011882e-11
2.7633893e-09
-1.1206521e-11
2.7632316e-09
1.0868416e-11
2.7633675e-09
-1.0086813e-11
2.7632308e-09
9.6192884e-12
2.7633551e-09
-9.0148461e-12
2.763235e-09
8.5393077e-12
2.763347e-09
-8.0423844e-12
2.7632405e-09
7.6025052e-12
2.7633408e-09
-7.1769719e-12
2.7632459e-09
6.7832238e-12
2.7633356e-09
-6.4127231e-12
2.7632508e-09
6.064756e-12
2.7633311e-09
-5.7405743e-12
2.7632551e-09
5.4349623e-12
2.7633272e-09
-5.1513481e-12
2.7632589e-09
4.8841122e-12
2.7633239e-09
-4.6366426e-12
2.7632622e-09
4.4040056e-12
2.7633209e-09
-4.1890153e-12
2.763265e-09
3.9875958e-12
2.7633184e-09
-3.8019534e-12
2.7632675e-09
3.6287904e-12
2.7633162e-09
-3.4697995e-12
2.7632696e-09
3.3223272e-12
2.7633144e-09
-3.1876665e-12
2.7632713e-09
3.0636811e-12
2.7633128e-09
-2.9513586e-12
2.7632727e-09
2.8489628e-12
2.7633116e-09
-2.7573098e-12
2.7632739e-09
2.6747572e-12
2.7633106e-09
-2.6023265e-12
2.7632749e-09
2.5389402e-12
2.7633095e-09
-2.4796448e-12
2.7632747e-09
2.4454773e-12
2.7633069e-09
-2.3923183e-12
2.7632774e-09
2.2742598e-12
2.7633368e-09
-2.9126039e-12
2.062337e-12
2.7254064e-09
2.3682156e-08
2.8749943e-09
-2.2269549e-09
2.8807967e-09
1.2436869e-09
2.8868321e-09
-6.645605e-11
2.8923654e-09
-6.9218473e-12
2.8954807e-09
2.3753291e-11
2.8943871e-09
1.5503884e-11
2.8958763e-09
6.2712757e-12
2.8955487e-09
-9.3532163e-12
2.8958125e-09
1.0756957e-11
2.8958633e-09
-1.2148559e-11
2.8957883e-09
1.2086901e-11
2.8958609e-09
-1.1279153e-11
2.8957711e-09
1.095817e-11
2.8958432e-09
-1.0158855e-11
2.8957669e-09
9.695556e-12
2.8958343e-09
-9.0822675e-12
2.895768e-09
8.6055991e-12
2.8958293e-09
-8.1036059e-12
2.8957707e-09
7.6610616e-12
2.8958257e-09
-7.231963e-12
2.8957736e-09
6.8353334e-12
2.8958228e-09
-6.4619764e-12
2.8957763e-09
6.1113179e-12
2.8958204e-09
-5.7847123e-12
2.8957787e-09
5.4767011e-12
2.8958183e-09
-5.1909885e-12
2.8957808e-09
4.9216521e-12
2.8958165e-09
-4.6723581e-12
2.8957826e-09
4.4378986e-12
2.8958149e-09
-4.2213256e-12
2.8957842e-09
4.0183352e-12
2.8958135e-09
-3.8313269e-12
2.8957855e-09
3.6568192e-12
2.8958124e-09
-3.4966587e-12
2.8957867e-09
3.3480447e-12
2.8958114e-09
-3.2123926e-12
2.8957876e-09
3.087448e-12
2.8958106e-09
-2.9742951e-12
2.8957884e-09
2.8711032e-12
2.8958099e-09
-2.7787657e-12
2.8957891e-09
2.6955505e-12
2.8958093e-09
-2.6225778e-12
2.8957896e-09
2.5586338e-12
2.8958087e-09
-2.498688e-12
2.8957892e-09
2.4649176e-12
2.8958064e-09
-2.409461e-12
2.8957911e-09
2.289585e-12
2.8958314e-09
-2.952919e-12
2.0590029e-12
2.8622148e-09
2.3768191e-08
2.9874524e-09
-2.3521925e-09
3.0068329e-09
1.2243064e-09
3.0116762e-09
-7.1299399e-11
3.0187696e-09
-1.4015214e-11
3.0221871e-09
2.0335824e-11
3.0212466e-09
1.6444371e-11
3.0229223e-09
4.5955742e-12
3.0224804e-09
-8.911321e-12
3.0228377e-09
1.0399606e-11
3.0228098e-09
-1.2120637e-11
3.0228084e-09
1.2088284e-11
3.0228122e-09
-1.1282909e-11
3.0227884e-09
1.0981963e-11
3.0227986e-09
-1.0169091e-11
3.022781e-09
9.7131589e-12
3.0227933e-09
-9.0945343e-12
3.0227791e-09
8.6197287e-12
3.0227912e-09
-8.1156387e-12
3.0227791e-09
7.6731502e-12
3.0227902e-09
-7.2430636e-12
3.0227795e-09
6.8459746e-12
3.0227896e-09
-6.4720172e-12
3.0227801e-09
6.1208036e-12
3.0227891e-09
-5.7937521e-12
3.0227806e-09
5.4852164e-12
3.0227888e-09
-5.1991377e-12
3.0227811e-09
4.9293394e-12
3.0227884e-09
-4.679733e-12
3.0227815e-09
4.444877e-12
3.0227882e-09
-4.2280352e-12
3.0227818e-09
4.0247083e-12
3.0227879e-09
-3.8374691e-12
3.0227821e-09
3.6626779e-12
3.0227878e-09
-3.5023199e-12
3.0227823e-09
3.3534682e-12
3.0227876e-09
-3.2176483e-12
3.0227825e-09
3.0925048e-12
3.0227874e-09
-2.9792092e-12
3.0227827e-09
2.8758496e-12
3.0227873e-09
-2.7833891e-12
3.0227828e-09
2.7000193e-12
3.0227872e-09
-2.6269499e-12
3.022783e-09
2.5628371e-12
3.022787e-09
-2.5026211e-12
3.0227824e-09
2.4694402e-12
3.022785e-09
-2.4120544e-12
3.0227834e-09
2.2912151e-12
3.0228049e-09
-2.974385e-12
2.043258e-12
2.9781346e-09
2.3738306e-08
3.0933784e-09
-2.4674364e-09
3.1276409e-09
1.1900439e-09
3.1322068e-09
-7.5865259e-11
3.1400481e-09
-2.1856515e-11
3.1434529e-09
1.6931046e-11
3.142676e-09
1.7221221e-11
3.1444568e-09
2.8148166e-12
3.1439004e-09
-8.3549214e-12
3.1443429e-09
9.9570796e-12
3.144237e-09
-1.2014734e-11
3.1443061e-09
1.2019153e-11
3.1442433e-09
-1.1220099e-11
3.1442833e-09
1.0941995e-11
3.1442339e-09
-1.0119679e-11
3.1442729e-09
9.6740658e-12
3.144232e-09
-9.0535556e-12
3.1442682e-09
8.58347e-12
3.1442328e-09
-8.080175e-12
3.1442656e-09
7.6403608e-12
3.1442343e-09
-7.2117799e-12
3.1442637e-09
6.8165694e-12
3.1442358e-09
-6.4441896e-12
3.1442622e-09
6.0944847e-12
3.1442373e-09
-5.7688961e-12
3.1442609e-09
5.4616471e-12
3.1442386e-09
-5.1768733e-12
3.1442598e-09
4.9081959e-12
3.1442398e-09
-4.6597358e-12
3.1442588e-09
4.4258607e-12
3.1442408e-09
-4.2100174e-12
3.1442579e-09
4.0075463e-12
3.1442416e-09
-3.8211705e-12
3.1442572e-09
3.6471207e-12
3.1442424e-09
-3.4875028e-12
3.1442565e-09
3.3392861e-12
3.144243e-09
-3.204093e-12
3.144256e-09
3.0794846e-12
3.1442435e-09
-2.9667093e-12
3.1442556e-09
2.8637889e-12
3.1442439e-09
-2.7717472e-12
3.1442552e-09
2.6887136e-12
3.1442443e-09
-2.6159768e-12
3.144255e-09
2.552072e-12
3.1442444e-09
-2.4919555e-12
3.1442543e-09
2.4595365e-12
3.1442428e-09
-2.4006184e-12
3.1442544e-09
2.2796391e-12
3.1442574e-09
-2.9773641e-12
2.0159735e-12
3.1086532e-09
2.3577903e-08
3.1975293e-09
-2.5563124e-09
3.2432823e-09
1.1442909e-09
3.248205e-09
-8.0787978e-11
3.2560224e-09
-2.967393e-11
3.2592494e-09
1.3704091e-11
3.2586722e-09
1.7798374e-11
3.260467e-09
1.0199999e-12
3.2598053e-09
-7.6932168e-12
3.2603269e-09
9.4355209e-12
3.2601445e-09
-1.1832302e-11
3.2602811e-09
1.1882493e-11
3.2601543e-09
-1.1093286e-11
3.2602557e-09
1.0840546e-11
3.260149e-09
-1.0012931e-11
3.2602427e-09
9.5803548e-12
3.2601505e-09
-8.9613631e-12
3.2602353e-09
8.4987003e-12
3.2601541e-09
-7.9990115e-12
3.2602301e-09
7.5643773e-12
3.260158e-09
-7.1397092e-12
3.260226e-09
6.7486241e-12
3.2601617e-09
-6.3799187e-12
3.2602225e-09
6.0337086e-12
3.260165e-09
-5.7114183e-12
3.2602194e-09
5.4071998e-12
3.2601679e-09
-5.1253371e-12
3.2602168e-09
4.8593047e-12
3.2601705e-09
-4.6133927e-12
3.2602145e-09
4.3818245e-12
3.2601727e-09
-4.1681978e-12
3.2602125e-09
3.96773e-12
3.2601746e-09
-3.7832697e-12
3.2602108e-09
3.6109473e-12
3.2601762e-09
-3.4529708e-12
3.2602093e-09
3.3062289e-12
3.2601776e-09
-3.1724259e-12
3.260208e-09
3.0490589e-12
3.2601788e-09
-2.9374412e-12
3.260207e-09
2.8355437e-12
3.2601797e-09
-2.7444414e-12
3.2602062e-09
2.6622166e-12
3.2601805e-09
-2.5902248e-12
3.2602056e-09
2.526892e-12
3.2601809e-09
-2.467233e-12
3.2602047e-09
2.435729e-12
3.2601798e-09
-2.3756988e-12
3.2602041e-09
2.2553692e-12
3.260189e-09
-2.962301e-12
1.9780042e-12
3.2237665e-09
2.3302386e-08
3.2959311e-09
-2.628477e-09
3.353838e-09
1.086384e-09
3.3591868e-09
-8.6136706e-11
3.3665714e-09
-3.7058621e-11
3.3695606e-09
1.071492e-11
3.369221e-09
1.8137956e-11
3.3709432e-09
-7.0213483e-13
3.3701925e-09
-6.9425172e-12
3.3707892e-09
8.8387778e-12
3.3705321e-09
-1.1575247e-11
3.3707334e-09
1.168128e-11
3.3705452e-09
-1.090517e-11
3.3707057e-09
1.068003e-11
3.3705441e-09
-9.8512623e-12
3.3706902e-09
9.4342206e-12
3.3705489e-09
-8.8200805e-12
3.3706802e-09
8.3673944e-12
3.3705552e-09
-7.8740298e-12
3.3706727e-09
7.4469672e-12
3.3705615e-09
-7.0285261e-12
3.3706664e-09
6.6437185e-12
3.3705672e-09
-6.2806984e-12
3.370661e-09
5.9398876e-12
3.3705722e-09
-5.6226547e-12
3.3706563e-09
5.3231392e-12
3.3705767e-09
-5.0457267e-12
3.3706522e-09
4.783801e-12
3.3705806e-09
-4.54178e-12
3.3706486e-09
4.3137904e-12
3.3705839e-09
-4.1035472e-12
3.3706455e-09
3.9061832e-12
3.3705869e-09
-3.7246459e-12
3.3706428e-09
3.5549968e-12
3.3705894e-09
-3.3995245e-12
3.3706405e-09
3.2550626e-12
3.3705915e-09
-3.123381e-12
3.3706386e-09
3.0019323e-12
3.3705933e-09