/*--------------------------------*- C++ -*----------------------------------*\
| =========                 |                                                 |
| \\      /  F ield         | OpenFOAM: The Open Source CFD Toolbox           |
|  \\    /   O peration     | Version:  2312                                  |
|   \\  /    A nd           | Website:  www.openfoam.com                      |
|    \\/     M anipulation  |                                                 |
\*---------------------------------------------------------------------------*/
FoamFile
{
    version     2.0;
    format      ascii;
    arch        "LSB;label=32;scalar=64";
    class       volVectorField;
    location    "5";
    object      U;
}
// * * * * * * * * * * * * * * * * * * * * * * * * * * * * * * * * * * * * * //

dimensions      [0 1 -1 0 0 0 0];

internalField   nonuniform List<vector> 
4000
(
(0.0026416662 0.00052307764 0)
(0.0043001455 -9.9556258e-06 0)
(0.0028672807 -4.3865294e-07 0)
(0.0031120428 6.9843502e-08 0)
(0.0030040079 -2.0738768e-07 0)
(0.0030586154 1.9280555e-07 0)
(0.0029965799 -2.1799858e-07 0)
(0.0030402157 1.8616959e-07 0)
(0.0029989115 -1.7820508e-07 0)
(0.0030354655 1.6616347e-07 0)
(0.003001307 -1.5629754e-07 0)
(0.003032925 1.4670027e-07 0)
(0.0030032278 -1.3815365e-07 0)
(0.0030309847 1.2991013e-07 0)
(0.0030049006 -1.2239739e-07 0)
(0.0030293461 1.1525842e-07 0)
(0.0030063916 -1.0864317e-07 0)
(0.0030279191 1.0242206e-07 0)
(0.0030077163 -9.6614051e-08 0)
(0.0030266639 9.1175623e-08 0)
(0.003008891 -8.608222e-08 0)
(0.003025554 8.1320948e-08 0)
(0.0030099339 -7.6856245e-08 0)
(0.0030245684 7.2686538e-08 0)
(0.0030108623 -6.8775954e-08 0)
(0.0030236899 6.5127358e-08 0)
(0.0030116918 -6.1707721e-08 0)
(0.0030229035 5.8521669e-08 0)
(0.0030124358 -5.5539715e-08 0)
(0.0030221969 5.2767063e-08 0)
(0.0030131057 -5.0177726e-08 0)
(0.0030215592 4.7776896e-08 0)
(0.0030137118 -4.5541862e-08 0)
(0.0030209809 4.3477492e-08 0)
(0.003014263 -4.1564114e-08 0)
(0.0030204534 3.9806111e-08 0)
(0.0030147673 -3.8186645e-08 0)
(0.0030199692 3.6709536e-08 0)
(0.003015232 -3.5360625e-08 0)
(0.0030195213 3.4143151e-08 0)
(0.0030156637 -3.3045489e-08 0)
(0.0030191033 3.2070475e-08 0)
(0.0030160688 -3.1208734e-08 0)
(0.0030187089 3.0462567e-08 0)
(0.0030164522 -2.982922e-08 0)
(0.0030183315 2.9293899e-08 0)
(0.0030168219 -2.8902017e-08 0)
(0.0030179911 2.860623e-08 0)
(0.0030172958 -2.8064918e-08 0)
(0.0030180221 3.0488915e-08 0)
(0.0068108123 0.0013808281 0)
(0.011797202 -6.7988483e-07 0)
(0.0085651876 1.3979062e-05 0)
(0.0089810899 -5.5756355e-07 0)
(0.0087183483 -2.0975592e-07 0)
(0.0088784131 8.7526714e-07 0)
(0.0086980182 -4.9404758e-07 0)
(0.0088258122 6.6616397e-07 0)
(0.0087041215 -5.9277688e-07 0)
(0.0088125985 5.8466538e-07 0)
(0.0087113033 -5.4676362e-07 0)
(0.0088052722 5.205936e-07 0)
(0.0087170147 -4.882906e-07 0)
(0.0087995615 4.6171889e-07 0)
(0.0087219848 -4.3400607e-07 0)
(0.0087947106 4.0956712e-07 0)
(0.0087264157 -3.8572807e-07 0)
(0.0087904786 3.6395627e-07 0)
(0.0087303546 -3.4324575e-07 0)
(0.0087867508 3.2404757e-07 0)
(0.0087338512 -3.0595101e-07 0)
(0.0087834499 2.8907986e-07 0)
(0.0087369597 -2.7323134e-07 0)
(0.0087805148 2.5842982e-07 0)
(0.0087397307 -2.4454868e-07 0)
(0.0087778948 2.3158532e-07 0)
(0.0087422093 -2.194451e-07 0)
(0.0087755473 2.0812025e-07 0)
(0.0087444346 -1.9753289e-07 0)
(0.0087734356 1.876759e-07 0)
(0.0087464404 -1.7848259e-07 0)
(0.0087715279 1.6994755e-07 0)
(0.0087482567 -1.6201295e-07 0)
(0.0087697959 1.5467488e-07 0)
(0.0087499102 -1.4788326e-07 0)
(0.0087682145 1.416353e-07 0)
(0.0087514249 -1.3588795e-07 0)
(0.0087667608 1.3063922e-07 0)
(0.0087528225 -1.2585269e-07 0)
(0.0087654138 1.2152676e-07 0)
(0.0087541234 -1.1763177e-07 0)
(0.0087641541 1.1416584e-07 0)
(0.0087553463 -1.1110374e-07 0)
(0.0087629632 1.0845879e-07 0)
(0.0087565075 -1.061622e-07 0)
(0.0087618196 1.0429908e-07 0)
(0.0087576232 -1.0304983e-07 0)
(0.0087607479 1.0031297e-07 0)
(0.0087589433 -1.0586477e-07 0)
(0.0087606123 9.6786357e-08 0)
(0.010890797 0.0021576101 0)
(0.018773979 -1.4665406e-05 0)
(0.014113554 3.4962523e-05 0)
(0.014691814 -6.9715992e-07 0)
(0.014281634 -1.8865892e-07 0)
(0.014549497 1.7138609e-06 0)
(0.014249197 -7.1825481e-07 0)
(0.014465225 1.2197551e-06 0)
(0.014260152 -1.0574613e-06 0)
(0.01444391 1.0618374e-06 0)
(0.014272553 -9.9241642e-07 0)
(0.014431721 9.490476e-07 0)
(0.01428226 -8.8906832e-07 0)
(0.014422108 8.4220812e-07 0)
(0.014290684 -7.910181e-07 0)
(0.014413915 7.4699679e-07 0)
(0.014298187 -7.0331466e-07 0)
(0.014406759 6.6379538e-07 0)
(0.014304857 -6.2598593e-07 0)
(0.014400451 5.9103357e-07 0)
(0.01431078 -5.5803639e-07 0)
(0.014394861 5.2728074e-07 0)
(0.01431605 -4.9838931e-07 0)
(0.014389886 4.7138965e-07 0)
(0.014320751 -4.4608245e-07 0)
(0.014385442 4.2242799e-07 0)
(0.014324958 -4.002912e-07 0)
(0.014381458 3.7962271e-07 0)
(0.014328736 -3.6031456e-07 0)
(0.014377873 3.4232295e-07 0)
(0.014332144 -3.2555498e-07 0)
(0.014374633 3.0997497e-07 0)
(0.014335231 -2.9550103e-07 0)
(0.01437169 2.821048e-07 0)
(0.014338042 -2.6971411e-07 0)
(0.014369002 2.5830642e-07 0)
(0.014340618 -2.4781887e-07 0)
(0.014366529 2.3823344e-07 0)
(0.014342997 -2.2949637e-07 0)
(0.014364237 2.2159279e-07 0)
(0.014345212 -2.1447913e-07 0)
(0.014362092 2.0814081e-07 0)
(0.014347296 -2.0254124e-07 0)
(0.014360062 1.9769992e-07 0)
(0.014349277 -1.934614e-07 0)
(0.01435811 1.9009071e-07 0)
(0.014351181 -1.8772126e-07 0)
(0.014356255 1.8213453e-07 0)
(0.014353358 -1.9599512e-07 0)
(0.014355819 1.7540549e-07 0)
(0.015427397 0.0030958534 0)
(0.025288238 -4.1480151e-05 0)
(0.01949331 6.2074219e-05 0)
(0.020246856 -1.064386e-06 0)
(0.019694678 5.7469688e-08 0)
(0.020071123 2.6438258e-06 0)
(0.019650105 -7.5931706e-07 0)
(0.019958661 1.7527387e-06 0)
(0.019666893 -1.4830801e-06 0)
(0.019929583 1.5159817e-06 0)
(0.019684918 -1.4175256e-06 0)
(0.019912451 1.3615957e-06 0)
(0.019698825 -1.2740999e-06 0)
(0.01989879 1.2092237e-06 0)
(0.019710867 -1.1348059e-06 0)
(0.01988711 1.0724289e-06 0)
(0.019721587 -1.0094352e-06 0)
(0.019876897 9.529732e-07 0)
(0.019731116 -8.9865181e-07 0)
(0.019867887 8.4855426e-07 0)
(0.019739582 -8.0120405e-07 0)
(0.019859896 7.5706096e-07 0)
(0.019747117 -7.1561144e-07 0)
(0.019852781 6.7683428e-07 0)
(0.019753842 -6.4052358e-07 0)
(0.019846423 6.0653995e-07 0)
(0.019759863 -5.7477338e-07 0)
(0.019840721 5.4507477e-07 0)
(0.019765272 -5.1736362e-07 0)
(0.019835589 4.9150931e-07 0)
(0.01977015 -4.6744127e-07 0)
(0.01983095 4.4505138e-07 0)
(0.01977457 -4.2427419e-07 0)
(0.019826736 4.0502171e-07 0)
(0.019778595 -3.872333e-07 0)
(0.019822887 3.7083751e-07 0)
(0.019782285 -3.5577943e-07 0)
(0.019819346 3.4200091e-07 0)
(0.019785692 -3.2945383e-07 0)
(0.019816062 3.1809002e-07 0)
(0.019788865 -3.0787121e-07 0)
(0.019812989 2.9875266e-07 0)
(0.019791851 -2.9070321e-07 0)
(0.01981008 2.8373815e-07 0)
(0.019794692 -2.775977e-07 0)
(0.019807282 2.7281708e-07 0)
(0.01979742 -2.6932226e-07 0)
(0.0198046 2.6046369e-07 0)
(0.019800464 -2.8593623e-07 0)
(0.019803721 2.5106212e-07 0)
(0.018785627 0.0034845514 0)
(0.031473614 -7.0934599e-05 0)
(0.024718358 9.6193729e-05 0)
(0.025649819 -1.6558839e-06 0)
(0.024957172 5.0493042e-07 0)
(0.025442394 3.6392079e-06 0)
(0.024900663 -6.2761526e-07 0)
(0.025305971 2.2371569e-06 0)
(0.024924485 -1.8535603e-06 0)
(0.025269475 1.9266057e-06 0)
(0.024948511 -1.8048133e-06 0)
(0.025247339 1.7410323e-06 0)
(0.024966803 -1.6275116e-06 0)
(0.025229503 1.5476049e-06 0)
(0.024982615 -1.4511559e-06 0)
(0.025214206 1.3724263e-06 0)
(0.024996685 -1.2914248e-06 0)
(0.025200814 1.2195463e-06 0)
(0.025009193 -1.1499565e-06 0)
(0.025188989 1.0859681e-06 0)
(0.025020309 -1.0253829e-06 0)
(0.025178496 9.6892014e-07 0)
(0.025030207 -9.1589751e-07 0)
(0.025169149 8.6626597e-07 0)
(0.025039043 -8.1981393e-07 0)
(0.025160794 7.7630413e-07 0)
(0.025046956 -7.3566039e-07 0)
(0.0251533 6.9763113e-07 0)
(0.025054066 -6.6217232e-07 0)
(0.025146553 6.2906346e-07 0)
(0.025060478 -5.982638e-07 0)
(0.025140455 5.6959052e-07 0)
(0.025066288 -5.4300033e-07 0)
(0.025134917 5.1834424e-07 0)
(0.025071579 -4.9557741e-07 0)
(0.025129857 4.7457886e-07 0)
(0.025076428 -4.553047e-07 0)
(0.025125204 4.3765661e-07 0)
(0.025080905 -4.2159419e-07 0)
(0.025120889 4.0703631e-07 0)
(0.025085075 -3.9395162e-07 0)
(0.025116851 3.8226479e-07 0)
(0.025088999 -3.7195271e-07 0)
(0.025113028 3.6302742e-07 0)
(0.025092731 -3.5510336e-07 0)
(0.025109353 3.4907732e-07 0)
(0.025096316 -3.4445746e-07 0)
(0.02510581 3.3220108e-07 0)
(0.025100237 -3.7162315e-07 0)
(0.025104369 3.2052978e-07 0)
(0.023760916 0.0045677238 0)
(0.037195718 -0.0001017029 0)
(0.029763162 0.00013335978 0)
(0.030905123 -2.8587337e-06 0)
(0.030068141 1.163534e-06 0)
(0.030663025 4.7041427e-06 0)
(0.030001206 -3.500233e-07 0)
(0.030506824 2.6701205e-06 0)
(0.030033348 -2.174168e-06 0)
(0.030463242 2.2949057e-06 0)
(0.030063674 -2.1569621e-06 0)
(0.030436079 2.0891562e-06 0)
(0.030086488 -1.9512417e-06 0)
(0.030413978 1.8589728e-06 0)
(0.030106185 -1.7416647e-06 0)
(0.030394965 1.6484189e-06 0)
(0.030123709 -1.5506533e-06 0)
(0.030378298 1.4647715e-06 0)
(0.030139288 -1.3810905e-06 0)
(0.030363571 1.3043795e-06 0)
(0.030153139 -1.231616e-06 0)
(0.030350495 1.1638324e-06 0)
(0.030165476 -1.1001686e-06 0)
(0.030338843 1.040549e-06 0)
(0.030176493 -9.847727e-07 0)
(0.030328424 9.3249224e-07 0)
(0.03018636 -8.8368567e-07 0)
(0.030319079 8.3798499e-07 0)
(0.030195226 -7.954012e-07 0)
(0.030310666 7.5561165e-07 0)
(0.030203223 -7.1862086e-07 0)
(0.030303062 6.8416132e-07 0)
(0.030210467 -6.5222442e-07 0)
(0.030296156 6.2259231e-07 0)
(0.030217064 -5.9524595e-07 0)
(0.030289848 5.7000866e-07 0)
(0.030223109 -5.4685562e-07 0)
(0.030284048 5.2564347e-07 0)
(0.030228689 -5.0634595e-07 0)
(0.030278671 4.8884511e-07 0)
(0.030233885 -4.7312172e-07 0)
(0.030273639 4.5906594e-07 0)
(0.030238774 -4.4666848e-07 0)
(0.030268877 4.3593424e-07 0)
(0.030243424 -4.2633916e-07 0)
(0.030264301 4.1921623e-07 0)
(0.030247888 -4.1344768e-07 0)
(0.030259872 3.9776101e-07 0)
(0.030252693 -4.5281762e-07 0)
(0.030257765 3.8367448e-07 0)
(0.026480249 0.0045895861 0)
(0.04255693 -0.00015764622 0)
(0.034669057 0.00017442682 0)
(0.036008806 -4.6565882e-06 0)
(0.035025544 1.9809285e-06 0)
(0.035732422 5.814126e-06 0)
(0.034951891 3.2468679e-08 0)
(0.035560781 3.0454199e-06 0)
(0.034993865 -2.4518233e-06 0)
(0.035510509 2.6224557e-06 0)
(0.035030747 -2.4775347e-06 0)
(0.035478349 2.4083543e-06 0)
(0.03505818 -2.2478724e-06 0)
(0.035451932 2.1455096e-06 0)
(0.035081844 -2.0084712e-06 0)
(0.035429134 1.9023456e-06 0)
(0.035102894 -1.7889703e-06 0)
(0.035409126 1.6903646e-06 0)
(0.035121612 -1.5936754e-06 0)
(0.035391433 1.5053063e-06 0)
(0.035138259 -1.4213356e-06 0)
(0.035375717 1.343145e-06 0)
(0.03515309 -1.2696971e-06 0)
(0.035361707 1.2008846e-06 0)
(0.035166338 -1.1365363e-06 0)
(0.035349178 1.0761799e-06 0)
(0.035178204 -1.0198689e-06 0)
(0.035337939 9.6710372e-07 0)
(0.035188867 -9.179693e-07 0)
(0.035327822 8.7202782e-07 0)
(0.035198484 -8.2934473e-07 0)
(0.035318677 7.8955724e-07 0)
(0.035207195 -7.5270415e-07 0)
(0.035310373 7.1849036e-07 0)
(0.035215126 -6.8693287e-07 0)
(0.03530279 6.5779268e-07 0)
(0.035222393 -6.310723e-07 0)
(0.035295817 6.0657805e-07 0)
(0.035229099 -5.8430446e-07 0)
(0.035289355 5.6409247e-07 0)
(0.035235344 -5.4594041e-07 0)
(0.035283308 5.2969971e-07 0)
(0.035241217 -5.153809e-07 0)
(0.035277589 5.0297608e-07 0)
(0.035246803 -4.9181637e-07 0)
(0.035272094 4.8373079e-07 0)
(0.035252164 -4.7677524e-07 0)
(0.035266763 4.5771532e-07 0)
(0.035257855 -5.2948757e-07 0)
(0.035263904 4.4072979e-07 0)
(0.031665959 0.0057088241 0)
(0.047478939 -0.0001829138 0)
(0.039402121 0.00021299301 0)
(0.040950681 -5.2016785e-06 0)
(0.039830917 3.3677185e-06 0)
(0.040651396 7.0201016e-06 0)
(0.039753548 5.1571521e-07 0)
(0.040467694 3.3599659e-06 0)
(0.039806472 -2.6878229e-06 0)
(0.040410999 2.9092937e-06 0)
(0.039850042 -2.7671979e-06 0)
(0.040373878 2.6988771e-06 0)
(0.039882143 -2.5177166e-06 0)
(0.040343118 2.4073711e-06 0)
(0.039909826 -2.2517542e-06 0)
(0.040316495 2.1343248e-06 0)
(0.039934449 -2.0064964e-06 0)
(0.040293103 1.8964192e-06 0)
(0.039956349 -1.787799e-06 0)
(0.040272403 1.6888237e-06 0)
(0.039975831 -1.5946102e-06 0)
(0.040254008 1.5069202e-06 0)
(0.039993194 -1.4245399e-06 0)
(0.040237606 1.3473262e-06 0)
(0.040008705 -1.2751544e-06 0)
(0.040222935 1.207415e-06 0)
(0.0400226 -1.1442552e-06 0)
(0.040209774 1.0850315e-06 0)
(0.040035086 -1.0299188e-06 0)
(0.040197927 9.7835349e-07 0)
(0.040046346 -9.3047539e-07 0)
(0.04018722 8.8581779e-07 0)
(0.040056545 -8.4447792e-07 0)
(0.040177498 8.0607647e-07 0)
(0.040065831 -7.706755e-07 0)
(0.04016862 7.3796816e-07 0)
(0.040074336 -7.0799154e-07 0)
(0.040160459 6.8049729e-07 0)
(0.040082185 -6.5550656e-07 0)
(0.040152897 6.3281572e-07 0)
(0.040089492 -6.1244535e-07 0)
(0.040145822 5.9420471e-07 0)
(0.040096363 -5.7812966e-07 0)
(0.040139132 5.6419337e-07 0)
(0.040102897 -5.5158102e-07 0)
(0.040132709 5.4266346e-07 0)
(0.040109166 -5.3448869e-07 0)
(0.040126466 5.1218872e-07 0)
(0.040115742 -6.0126418e-07 0)
(0.040122782 4.9165754e-07 0)
(0.034254932 0.0055999332 0)
(0.051941298 -0.00026311179 0)
(0.044044944 0.00024867997 0)
(0.045677792 -6.326569e-06 0)
(0.044475194 4.5941245e-06 0)
(0.045418134 8.1990103e-06 0)
(0.044406266 1.0551298e-06 0)
(0.045227235 3.6006195e-06 0)
(0.044471477 -2.8852533e-06 0)
(0.045164445 3.1539932e-06 0)
(0.044521815 -3.0262341e-06 0)
(0.045122425 2.9602283e-06 0)
(0.044558605 -2.7605271e-06 0)
(0.045087322 2.6441243e-06 0)
(0.044590332 -2.4711638e-06 0)
(0.045056857 2.3439668e-06 0)
(0.044618554 -2.2028781e-06 0)
(0.045030058 2.0825821e-06 0)
(0.04464366 -1.9631281e-06 0)
(0.04500633 1.8546107e-06 0)
(0.044666 -1.7511341e-06 0)
(0.044985235 1.6548679e-06 0)
(0.044685914 -1.5644209e-06 0)
(0.04496642 1.4796134e-06 0)
(0.044703706 -1.4003793e-06 0)
(0.044949591 1.3259644e-06 0)
(0.044719646 -1.256623e-06 0)
(0.044934493 1.1915596e-06 0)
(0.044733969 -1.1310513e-06 0)
(0.044920902 1.0744016e-06 0)
(0.044746886 -1.0218349e-06 0)
(0.04490862 9.7277493e-07 0)
(0.044758585 -9.2738566e-07 0)
(0.044897469 8.8519913e-07 0)
(0.044769234 -8.4632926e-07 0)
(0.044887288 8.1039785e-07 0)
(0.044778988 -7.7748214e-07 0)
(0.044877929 7.4727633e-07 0)
(0.044787988 -7.1983266e-07 0)
(0.044869259 6.9490076e-07 0)
(0.044796364 -6.7252703e-07 0)
(0.044861149 6.5247639e-07 0)
(0.044804239 -6.3481444e-07 0)
(0.044853482 6.1948968e-07 0)
(0.044811727 -6.0554445e-07 0)
(0.044846124 5.959235e-07 0)
(0.04481891 -5.8651012e-07 0)
(0.044838965 5.6116345e-07 0)
(0.044826368 -6.6770609e-07 0)
(0.044834397 5.3639736e-07 0)
(0.039358311 0.0065168158 0)
(0.056033354 -0.00029645316 0)
(0.048601689 0.00029193502 0)
(0.050176592 -9.0053335e-06 0)
(0.048950947 4.9907385e-06 0)
(0.050031976 9.221689e-06 0)
(0.048910262 1.6087423e-06 0)
(0.049839176 3.7571809e-06 0)
(0.048989161 -3.0464884e-06 0)
(0.049770621 3.3560572e-06 0)
(0.049046299 -3.2549219e-06 0)
(0.049723781 3.1922631e-06 0)
(0.04908777 -2.9762275e-06 0)
(0.049684353 2.8555686e-06 0)
(0.049123544 -2.6665399e-06 0)
(0.049650047 2.5310766e-06 0)
(0.049155372 -2.37794e-06 0)
(0.049619839 2.2486724e-06 0)
(0.049183688 -2.1194919e-06 0)
(0.049593077 2.002501e-06 0)
(0.049208891 -1.8907488e-06 0)
(0.049569277 1.7868374e-06 0)
(0.049231362 -1.689196e-06 0)
(0.049548046 1.5976107e-06 0)
(0.04925144 -1.5120818e-06 0)
(0.049529053 1.4317068e-06 0)
(0.049269429 -1.3568568e-06 0)
(0.049512013 1.2865799e-06 0)
(0.049285593 -1.2212638e-06 0)
(0.049496675 1.1600754e-06 0)
(0.04930017 -1.1033311e-06 0)
(0.049482815 1.0503418e-06 0)
(0.049313371 -1.0013445e-06 0)
(0.049470232 9.5578004e-07 0)
(0.049325387 -9.1381931e-07 0)
(0.049458745 8.750109e-07 0)
(0.049336391 -8.3947625e-07 0)
(0.049448188 8.0685074e-07 0)
(0.049346544 -7.7722098e-07 0)
(0.049438407 7.502888e-07 0)
(0.049355991 -7.26129e-07 0)
(0.049429262 7.0446106e-07 0)
(0.049364872 -6.853838e-07 0)
(0.049420616 6.6881568e-07 0)
(0.049373314 -6.53663e-07 0)
(0.049412324 6.4346285e-07 0)
(0.049381413 -6.3280604e-07 0)
(0.04940425 6.0464874e-07 0)
(0.049389745 -7.2845461e-07 0)
(0.049398749 5.7498189e-07 0)
(0.042326284 0.0064331668 0)
(0.059754003 -0.00039071168 0)
(0.053007588 0.0003271115 0)
(0.054518841 -1.1521711e-05 0)
(0.05326696 4.5719514e-06 0)
(0.054494767 1.0004618e-05 0)
(0.053266566 2.1535888e-06 0)
(0.054303529 3.821414e-06 0)
(0.053359845 -3.173421e-06 0)
(0.054229351 3.5153703e-06 0)
(0.053423709 -3.4537911e-06 0)
(0.054177758 3.3950939e-06 0)
(0.053469823 -3.164982e-06 0)
(0.05413404 3.041735e-06 0)
(0.053509628 -2.8379434e-06 0)
(0.054095913 2.6956703e-06 0)
(0.053545046 -2.531708e-06 0)
(0.054062309 2.3947001e-06 0)
(0.053576563 -2.2569015e-06 0)
(0.054032524 2.1325009e-06 0)
(0.053604621 -2.0134596e-06 0)
(0.054006027 1.9028333e-06 0)
(0.053629639 -1.7988688e-06 0)
(0.053982386 1.7013224e-06 0)
(0.053651996 -1.6102653e-06 0)
(0.053961237 1.5246466e-06 0)
(0.053672027 -1.4449604e-06 0)
(0.053942262 1.3700967e-06 0)
(0.053690027 -1.3005601e-06 0)
(0.053925183 1.2353794e-06 0)
(0.053706258 -1.1749679e-06 0)
(0.05390975 1.1185229e-06 0)
(0.053720956 -1.0663585e-06 0)
(0.053895741 1.0178238e-06 0)
(0.053734333 -9.7314994e-07 0)
(0.053882952 9.3181191e-07 0)
(0.053746584 -8.9397829e-07 0)
(0.0538712 8.5922526e-07 0)
(0.053757884 -8.2767617e-07 0)
(0.053860313 7.9898488e-07 0)
(0.053768399 -7.7325638e-07 0)
(0.053850135 7.501645e-07 0)
(0.053778282 -7.2984382e-07 0)
(0.053840515 7.1217799e-07 0)
(0.053787675 -6.9594712e-07 0)
(0.053831292 6.8528596e-07 0)
(0.053796685 -6.7339654e-07 0)
(0.05382231 6.4269434e-07 0)
(0.053805883 -7.8324042e-07 0)
(0.053815839 6.0752781e-07 0)
(0.047471917 0.0071502427 0)
(0.063292823 -0.00041414256 0)
(0.057151033 0.00035452124 0)
(0.058773018 -1.2395784e-05 0)
(0.057427434 3.6408338e-06 0)
(0.058808122 1.0503919e-05 0)
(0.057475861 2.6839622e-06 0)
(0.0586202 3.7944962e-06 0)
(0.057583744 -3.2655575e-06 0)
(0.05854044 3.6328747e-06 0)
(0.05765422 -3.6232552e-06 0)
(0.058484183 3.569041e-06 0)
(0.057704926 -3.3270676e-06 0)
(0.058436226 3.2027926e-06 0)
(0.057748729 -2.9855599e-06 0)
(0.058394314 2.8378886e-06 0)
(0.057787711 -2.6643251e-06 0)
(0.058357344 2.5207891e-06 0)
(0.057822402 -2.3754757e-06 0)
(0.05832456 2.24472e-06 0)
(0.05785329 -2.1193695e-06 0)
(0.058295387 2.0029532e-06 0)
(0.057880837 -1.8935312e-06 0)
(0.058269357 1.7908361e-06 0)
(0.057905455 -1.6950123e-06 0)
(0.058246069 1.6048631e-06 0)
(0.057927511 -1.5210081e-06 0)
(0.058225174 1.4421818e-06 0)
(0.05794733 -1.3690077e-06 0)
(0.058206368 1.3003785e-06 0)
(0.057965202 -1.2368067e-06 0)
(0.058189375 1.1773773e-06 0)
(0.057981385 -1.1224836e-06 0)
(0.05817395 1.0713841e-06 0)
(0.057996113 -1.0243723e-06 0)
(0.058159871 9.8085022e-07 0)
(0.058009599 -9.410354e-07 0)
(0.058146933 9.0444555e-07 0)
(0.058022039 -8.7124218e-07 0)
(0.05813495 8.4103183e-07 0)
(0.058033612 -8.1395074e-07 0)
(0.058123747 7.8962762e-07 0)
(0.058044488 -7.6823464e-07 0)
(0.058113162 7.4961637e-07 0)
(0.058054825 -7.3243924e-07 0)
(0.058103017 7.2142856e-07 0)
(0.05806474 -7.08334e-07 0)
(0.058093136 6.7537272e-07 0)
(0.058074789 -8.3186213e-07 0)
(0.058085667 6.3420785e-07 0)
(0.050686539 0.0070777794 0)
(0.066499113 -0.00051433434 0)
(0.061090952 0.00037831872 0)
(0.06294155 -1.2683102e-05 0)
(0.061436376 2.7603561e-06 0)
(0.062973095 1.0750773e-05 0)
(0.061538705 3.2090264e-06 0)
(0.062789089 3.6834608e-06 0)
(0.061661051 -3.3209722e-06 0)
(0.062703714 3.7099769e-06 0)
(0.061737989 -3.763774e-06 0)
(0.062642893 3.7144848e-06 0)
(0.061793224 -3.4628816e-06 0)
(0.06259077 3.3389837e-06 0)
(0.061840979 -3.1096764e-06 0)
(0.062545126 2.957955e-06 0)
(0.061883481 -2.7760224e-06 0)
(0.062504832 2.6271436e-06 0)
(0.061921309 -2.4754121e-06 0)
(0.062469087 2.3393421e-06 0)
(0.061954993 -2.2086531e-06 0)
(0.062437273 2.0873622e-06 0)
(0.061985036 -1.9733387e-06 0)
(0.062408882 1.8663002e-06 0)
(0.062011886 -1.7664627e-06 0)
(0.062383481 1.6724895e-06 0)
(0.062035943 -1.585126e-06 0)
(0.062360691 1.5029552e-06 0)
(0.062057559 -1.4267203e-06 0)
(0.062340179 1.3551811e-06 0)
(0.062077051 -1.2889502e-06 0)
(0.062321646 1.2270031e-06 0)
(0.0620947 -1.169813e-06 0)
(0.062304824 1.1165503e-06 0)
(0.062110762 -1.0675713e-06 0)
(0.062289469 1.0222074e-06 0)
(0.062125469 -9.8072562e-07 0)
(0.062275361 9.4258683e-07 0)
(0.062139033 -9.0799131e-07 0)
(0.062262295 8.7649968e-07 0)
(0.062151652 -8.4827981e-07 0)
(0.062250081 8.2291663e-07 0)
(0.062163509 -8.006208e-07 0)
(0.062238541 7.8119442e-07 0)
(0.062174777 -7.6320459e-07 0)
(0.062227487 7.5194881e-07 0)
(0.062185585 -7.3769359e-07 0)
(0.062216721 7.0277142e-07 0)
(0.062196471 -8.7417493e-07 0)
(0.062208234 6.5523462e-07 0)
(0.05564309 0.0075934848 0)
(0.06959703 -0.00053808663 0)
(0.064851364 0.00039792502 0)
(0.066981263 -1.3596202e-05 0)
(0.065298845 2.1378966e-06 0)
(0.06699 1.0680571e-05 0)
(0.065455519 3.7249192e-06 0)
(0.066810159 3.4891463e-06 0)
(0.065592001 -3.338489e-06 0)
(0.066719059 3.7482889e-06 0)
(0.065675177 -3.8756725e-06 0)
(0.066653759 3.8320177e-06 0)
(0.065734853 -3.5728364e-06 0)
(0.066597548 3.4506745e-06 0)
(0.065786498 -3.2106477e-06 0)
(0.066548237 3.0561861e-06 0)
(0.065832464 -2.867107e-06 0)
(0.066504675 2.7140472e-06 0)
(0.065873376 -2.556981e-06 0)
(0.066466017 2.4166213e-06 0)
(0.065909811 -2.2815506e-06 0)
(0.066431605 2.1562882e-06 0)
(0.065942308 -2.0385066e-06 0)
(0.066400893 1.9279191e-06 0)
(0.065971354 -1.8248093e-06 0)
(0.066373414 1.7277094e-06 0)
(0.065997378 -1.6374875e-06 0)
(0.066348761 1.552582e-06 0)
(0.066020762 -1.4738539e-06 0)
(0.066326571 1.3999359e-06 0)
(0.066041847 -1.3315393e-06 0)
(0.066306523 1.2675346e-06 0)
(0.066060938 -1.2084744e-06 0)
(0.066288326 1.1534443e-06 0)
(0.066078311 -1.1028632e-06 0)
(0.066271718 1.0559949e-06 0)
(0.066094218 -1.0131555e-06 0)
(0.066256458 9.7375157e-07 0)
(0.066108889 -9.3802201e-07 0)
(0.066242327 9.0548361e-07 0)
(0.066122536 -8.7633558e-07 0)
(0.066229118 8.5012112e-07 0)
(0.066135358 -8.2708944e-07 0)
(0.066216639 8.0699774e-07 0)
(0.066147542 -7.8832941e-07 0)
(0.066204691 7.7692559e-07 0)
(0.066159229 -7.6157093e-07 0)
(0.066193057 7.2499229e-07 0)
(0.066170934 -9.1008595e-07 0)
(0.066183542 6.7085104e-07 0)
(0.059026893 0.0075224444 0)
(0.072419983 -0.00063237509 0)
(0.068514167 0.00040755751 0)
(0.070840383 -1.5771573e-05 0)
(0.069021193 1.432026e-06 0)
(0.070858332 1.0232768e-05 0)
(0.069226405 4.1946676e-06 0)
(0.07068332 3.2004111e-06 0)
(0.069376786 -3.3220394e-06 0)
(0.070586372 3.7476498e-06 0)
(0.069465928 -3.9600633e-06 0)
(0.070516661 3.9220289e-06 0)
(0.069529933 -3.6575424e-06 0)
(0.070456449 3.5382647e-06 0)
(0.069585392 -3.2889326e-06 0)
(0.070403548 3.1329665e-06 0)
(0.069634753 -2.9379667e-06 0)
(0.070356785 2.7818529e-06 0)
(0.069678687 -2.6205222e-06 0)
(0.070315274 2.476876e-06 0)
(0.069717816 -2.3383643e-06 0)
(0.070278317 2.210017e-06 0)
(0.069752719 -2.089305e-06 0)
(0.070245331 1.9759491e-06 0)
(0.069783915 -1.8702943e-06 0)
(0.070215816 1.7707529e-06 0)
(0.069811865 -1.6783097e-06 0)
(0.070189336 1.5912687e-06 0)
(0.069836981 -1.5106039e-06 0)
(0.070165503 1.434829e-06 0)
(0.069859626 -1.3647502e-06 0)
(0.070143971 1.29914e-06 0)
(0.06988013 -1.2386273e-06 0)
(0.070124428 1.1822185e-06 0)
(0.069898789 -1.1303933e-06 0)
(0.070106591 1.0823518e-06 0)
(0.069915872 -1.0384581e-06 0)
(0.070090204 9.9806767e-07 0)
(0.069931627 -9.6145714e-07 0)
(0.070075028 9.2810227e-07 0)
(0.069946281 -8.9823265e-07 0)
(0.070060844 8.7135248e-07 0)
(0.069960048 -8.4774881e-07 0)
(0.070047446 8.2713243e-07 0)
(0.069973129 -8.0791953e-07 0)
(0.070034622 7.964573e-07 0)
(0.069985679 -7.8008035e-07 0)
(0.070022139 7.4215089e-07 0)
(0.069998184 -9.3955018e-07 0)
(0.070011593 6.8132229e-07 0)
(0.06385021 0.0078695288 0)
(0.075212059 -0.00065002721 0)
(0.072099889 0.00041605268 0)
(0.074496839 -1.8506427e-05 0)
(0.072606916 4.0456554e-07 0)
(0.074577641 9.4523348e-06 0)
(0.07285172 4.616157e-06 0)
(0.074408515 2.8180346e-06 0)
(0.073015588 -3.2712122e-06 0)
(0.074305569 3.7097803e-06 0)
(0.073110378 -4.0173624e-06 0)
(0.074231499 3.9853097e-06 0)
(0.073178577 -3.7175339e-06 0)
(0.074167378 3.6023038e-06 0)
(0.073237755 -3.3450269e-06 0)
(0.074110971 3.188772e-06 0)
(0.07329043 -2.9890476e-06 0)
(0.074061084 2.8309838e-06 0)
(0.073337315 -2.6664345e-06 0)
(0.074016789 2.5204844e-06 0)
(0.073379074 -2.3794507e-06 0)
(0.073977347 2.2488868e-06 0)
(0.073416323 -2.1260528e-06 0)
(0.073942141 2.010693e-06 0)
(0.073449618 -1.9032035e-06 0)
(0.07391064 1.8018911e-06 0)
(0.07347945 -1.7078492e-06 0)
(0.073882378 1.619259e-06 0)
(0.073506255 -1.537201e-06 0)
(0.073856941 1.4600795e-06 0)
(0.073530423 -1.388791e-06 0)
(0.07383396 1.3220172e-06 0)
(0.073552306 -1.26046e-06 0)
(0.073813102 1.2030528e-06 0)
(0.073572219 -1.1503329e-06 0)
(0.073794067 1.1014422e-06 0)
(0.07359045 -1.0567902e-06 0)
(0.073776578 1.0156858e-06 0)
(0.073607263 -9.7844146e-07 0)
(0.073760383 9.4449533e-07 0)
(0.073622901 -9.1410592e-07 0)
(0.073745247 8.8674172e-07 0)
(0.073637592 -8.6272613e-07 0)
(0.073730952 8.4172313e-07 0)
(0.073651548 -8.2209842e-07 0)
(0.073717273 8.1065993e-07 0)
(0.07366494 -7.9335274e-07 0)
(0.073703963 7.5437548e-07 0)
(0.073678224 -9.6256626e-07 0)
(0.073692388 6.8692858e-07 0)
(0.067452831 0.0077894096 0)
(0.077785099 -0.00073665024 0)
(0.075614461 0.00041581844 0)
(0.077968548 -2.1711561e-05 0)
(0.076057263 -1.3935126e-06 0)
(0.078147079 8.4287387e-06 0)
(0.076332036 4.9794558e-06 0)
(0.077985471 2.348009e-06 0)
(0.076508448 -3.1850739e-06 0)
(0.077876497 3.6364684e-06 0)
(0.076608598 -4.0481734e-06 0)
(0.077798157 4.0225414e-06 0)
(0.076680865 -3.7535364e-06 0)
(0.077730239 3.6433329e-06 0)
(0.076743667 -3.379539e-06 0)
(0.077670427 3.2241165e-06 0)
(0.076799569 -3.0208711e-06 0)
(0.077617503 2.8619129e-06 0)
(0.076849324 -2.6951755e-06 0)
(0.0775705 2.5478736e-06 0)
(0.07689364 -2.4052161e-06 0)
(0.077528642 2.2732809e-06 0)
(0.076933172 -2.149113e-06 0)
(0.077491278 2.0324941e-06 0)
(0.076968508 -1.9238615e-06 0)
(0.077457845 1.8214318e-06 0)
(0.077000168 -1.7263968e-06 0)
(0.07742785 1.636829e-06 0)
(0.077028616 -1.5539066e-06 0)
(0.077400853 1.4759361e-06 0)
(0.077054267 -1.4038973e-06 0)
(0.077376463 1.3363908e-06 0)
(0.07707749 -1.2741859e-06 0)
(0.077354327 1.2161507e-06 0)
(0.077098623 -1.1628762e-06 0)
(0.077334124 1.1134517e-06 0)
(0.077117971 -1.0683296e-06 0)
(0.077315564 1.0267767e-06 0)
(0.077135814 -9.8913908e-07 0)
(0.077298378 9.548211e-07 0)
(0.077152409 -9.241083e-07 0)
(0.077282316 8.9643721e-07 0)
(0.077167997 -8.7216548e-07 0)
(0.077267147 8.5091083e-07 0)
(0.077182806 -8.310052e-07 0)
(0.077252637 8.1966524e-07 0)
(0.077197018 -8.0153337e-07 0)
(0.077238525 7.6180569e-07 0)
(0.077211057 -9.7917238e-07 0)
(0.07722593 6.8795899e-07 0)
(0.072136685 0.0079814664 0)
(0.080398226 -0.0007474998 0)
(0.078998986 0.00041485277 0)
(0.081305864 -2.3637567e-05 0)
(0.079378302 -3.637717e-06 0)
(0.081567597 7.3041162e-06 0)
(0.079669184 5.3123851e-06 0)
(0.081414159 1.8126333e-06 0)
(0.079855545 -3.0581317e-06 0)
(0.081299087 3.5318117e-06 0)
(0.079960686 -4.0521264e-06 0)
(0.081216549 4.0349277e-06 0)
(0.080036881 -3.7661206e-06 0)
(0.081144957 3.6620604e-06 0)
(0.080103202 -3.3930837e-06 0)
(0.081081848 3.239598e-06 0)
(0.080162232 -3.0339979e-06 0)
(0.081025982 2.8751714e-06 0)
(0.08021477 -2.7072466e-06 0)
(0.080976355 2.5595181e-06 0)
(0.080261565 -2.4161085e-06 0)
(0.080932156 2.2836234e-06 0)
(0.080303309 -2.1588856e-06 0)
(0.0808927 2.0417316e-06 0)
(0.080340622 -1.9326263e-06 0)
(0.080857395 1.8297146e-06 0)
(0.080374055 -1.7342738e-06 0)
(0.08082572 1.6442835e-06 0)
(0.080404095 -1.5610093e-06 0)
(0.080797211 1.4826729e-06 0)
(0.080431181 -1.4103293e-06 0)
(0.080771456 1.3425084e-06 0)
(0.080455705 -1.2800407e-06 0)
(0.08074808 1.2217371e-06 0)
(0.08047802 -1.1682375e-06 0)
(0.080726747 1.1185857e-06 0)
(0.080498451 -1.0732728e-06 0)
(0.080707149 1.031529e-06 0)
(0.080517291 -9.9373118e-07 0)
(0.080689001 9.5925434e-07 0)
(0.080534814 -9.2840857e-07 0)
(0.080672041 9.006027e-07 0)
(0.080551273 -8.7622582e-07 0)
(0.080656025 8.5485104e-07 0)
(0.080566908 -8.3479278e-07 0)
(0.080640709 8.2361898e-07 0)
(0.080581916 -8.0478004e-07 0)
(0.080625821 7.6459141e-07 0)
(0.080596686 -9.8944244e-07 0)
(0.08061222 6.8470631e-07 0)
(0.075881083 0.0078802152 0)
(0.082836441 -0.00082181625 0)
(0.082210228 0.00040260032 0)
(0.084537587 -2.4694164e-05 0)
(0.082574897 -5.9875877e-06 0)
(0.084839188 6.1984554e-06 0)
(0.082865096 5.6234843e-06 0)
(0.084694485 1.2378064e-06 0)
(0.083057059 -2.8883539e-06 0)
(0.084573306 3.3989762e-06 0)
(0.083166744 -4.0293582e-06 0)
(0.084486608 4.0235078e-06 0)
(0.083246701 -3.7560339e-06 0)
(0.084411466 3.659186e-06 0)
(0.083316422 -3.3863647e-06 0)
(0.084345175 3.2358449e-06 0)
(0.083378477 -3.0290477e-06 0)
(0.084286469 2.8713285e-06 0)
(0.083433702 -2.703195e-06 0)
(0.084234308 2.5559297e-06 0)
(0.083482891 -2.4126141e-06 0)
(0.084187848 2.2803726e-06 0)
(0.083526771 -2.1558045e-06 0)
(0.084146372 2.0388157e-06 0)
(0.083565995 -1.929886e-06 0)
(0.084109259 1.8271068e-06 0)
(0.083601138 -1.7318278e-06 0)
(0.084075962 1.6419521e-06 0)
(0.083632717 -1.5588215e-06 0)
(0.084045993 1.4805868e-06 0)
(0.083661189 -1.4083688e-06 0)
(0.084018918 1.3406381e-06 0)
(0.083686968 -1.2782793e-06 0)
(0.083994346 1.2200552e-06 0)
(0.083710426 -1.1666491e-06 0)
(0.083971921 1.1170662e-06 0)
(0.083731902 -1.0718323e-06 0)
(0.083951319 1.0301468e-06 0)
(0.083751707 -9.9241403e-07 0)
(0.083932242 9.5798432e-07 0)
(0.083770126 -9.2718958e-07 0)
(0.083914415 8.9941548e-07 0)
(0.083787427 -8.750793e-07 0)
(0.08389758 8.5371208e-07 0)
(0.083803861 -8.3362631e-07 0)
(0.083881485 8.226794e-07 0)
(0.083819638 -8.0326135e-07 0)
(0.083865849 7.6289162e-07 0)
(0.083835112 -9.9348263e-07 0)
(0.083851262 6.7746284e-07 0)
(0.080333278 0.0079315172 0)
(0.085345623 -0.00082297096 0)
(0.085255708 0.00039110549 0)
(0.087659562 -2.5790857e-05 0)
(0.085639498 -8.5328672e-06 0)
(0.087959883 5.1006256e-06 0)
(0.085920209 5.8637795e-06 0)
(0.087825835 6.3958533e-07 0)
(0.086112922 -2.6820335e-06 0)