/*--------------------------------*- C++ -*----------------------------------*\
| =========                 |                                                 |
| \\      /  F ield         | OpenFOAM: The Open Source CFD Toolbox           |
|  \\    /   O peration     | Version:  2312                                  |
|   \\  /    A nd           | Website:  www.openfoam.com                      |
|    \\/     M anipulation  |                                                 |
\*---------------------------------------------------------------------------*/
FoamFile
{
    version     2.0;
    format      ascii;
    arch        "LSB;label=32;scalar=64";
    class       volVectorField;
    location    "5";
    object      U_0;
}
// * * * * * * * * * * * * * * * * * * * * * * * * * * * * * * * * * * * * * //

dimensions      [0 1 -1 0 0 0 0];

internalField   nonuniform List<vector> 
4000
(
(0.0026023694 0.0005017951 0)
(0.0042994197 -1.1451378e-05 0)
(0.0028668367 -4.9963161e-07 0)
(0.0031124583 7.2363989e-08 0)
(0.0030038617 -2.0802557e-07 0)
(0.0030587378 1.9309496e-07 0)
(0.0029965131 -2.1825139e-07 0)
(0.0030402639 1.8627445e-07 0)
(0.0029988786 -1.7820565e-07 0)
(0.0030354821 1.6608531e-07 0)
(0.003001301 -1.5616825e-07 0)
(0.0030329217 1.4654449e-07 0)
(0.0030032363 -1.3799057e-07 0)
(0.0030309727 1.2975261e-07 0)
(0.0030049138 -1.2225425e-07 0)
(0.0030293329 1.1513407e-07 0)
(0.0030064039 -1.0853942e-07 0)
(0.0030279083 1.0233866e-07 0)
(0.0030077255 -9.6549396e-08 0)
(0.0030266564 9.1127598e-08 0)
(0.0030088969 -8.6048177e-08 0)
(0.0030255496 8.1298447e-08 0)
(0.0030099371 -7.6842794e-08 0)
(0.0030245663 7.2680092e-08 0)
(0.0030108637 -6.8774638e-08 0)
(0.0030236892 6.5129729e-08 0)
(0.0030116921 -6.1712566e-08 0)
(0.0030229037 5.8528099e-08 0)
(0.0030124355 -5.5547048e-08 0)
(0.0030221974 5.2774819e-08 0)
(0.0030131052 -5.018558e-08 0)
(0.0030215598 4.7784629e-08 0)
(0.0030137113 -4.5549358e-08 0)
(0.0030209814 4.3484677e-08 0)
(0.0030142625 -4.1570977e-08 0)
(0.0030204539 3.9812646e-08 0)
(0.0030147669 -3.8192884e-08 0)
(0.0030199696 3.67155e-08 0)
(0.0030152317 -3.5366356e-08 0)
(0.0030195216 3.4148675e-08 0)
(0.0030156635 -3.3050844e-08 0)
(0.0030191035 3.2075684e-08 0)
(0.0030160686 -3.1213827e-08 0)
(0.0030187091 3.0467562e-08 0)
(0.0030164521 -2.9834143e-08 0)
(0.0030183316 2.9298758e-08 0)
(0.0030168219 -2.8906837e-08 0)
(0.0030179912 2.861103e-08 0)
(0.0030172958 -2.8069624e-08 0)
(0.0030180222 3.0494035e-08 0)
(0.0068004458 0.0013746021 0)
(0.011829725 3.200336e-06 0)
(0.0085670497 1.4358861e-05 0)
(0.0089817686 -5.4683805e-07 0)
(0.0087180682 -2.1000573e-07 0)
(0.0088786905 8.7654877e-07 0)
(0.0086978838 -4.9416345e-07 0)
(0.0088259033 6.6619455e-07 0)
(0.0087040686 -5.9245912e-07 0)
(0.0088126142 5.8415542e-07 0)
(0.0087113102 -5.4617064e-07 0)
(0.0088052472 5.1996847e-07 0)
(0.0087170489 -4.8769379e-07 0)
(0.0087995228 4.6117587e-07 0)
(0.0087220235 -4.3353628e-07 0)
(0.0087946744 4.0917564e-07 0)
(0.0087264478 -3.8541372e-07 0)
(0.0087904514 3.6371341e-07 0)
(0.0087303769 -3.4306521e-07 0)
(0.0087867334 3.2392031e-07 0)
(0.0087338645 -3.0586669e-07 0)
(0.0087834405 2.8902996e-07 0)
(0.0087369661 -2.7320734e-07 0)
(0.0087805109 2.5842525e-07 0)
(0.0087397328 -2.4455766e-07 0)
(0.0087778942 2.3160362e-07 0)
(0.008742209 -2.1946916e-07 0)
(0.0087755484 2.0814766e-07 0)
(0.0087444331 -1.9756179e-07 0)
(0.0087734374 1.8770511e-07 0)
(0.0087464386 -1.7851131e-07 0)
(0.0087715297 1.6997532e-07 0)
(0.0087482551 -1.6203954e-07 0)
(0.0087697976 1.5470023e-07 0)
(0.0087499088 -1.4790737e-07 0)
(0.0087682159 1.4165827e-07 0)
(0.0087514237 -1.3590989e-07 0)
(0.0087667619 1.3066027e-07 0)
(0.0087528216 -1.2587296e-07 0)
(0.0087654147 1.2154639e-07 0)
(0.0087541227 -1.1765085e-07 0)
(0.0087641548 1.1418448e-07 0)
(0.0087553459 -1.11122e-07 0)
(0.0087629637 1.0847676e-07 0)
(0.0087565071 -1.0617993e-07 0)
(0.0087618199 1.0431663e-07 0)
(0.008757623 -1.0306729e-07 0)
(0.0087607481 1.0033001e-07 0)
(0.0087589433 -1.0588281e-07 0)
(0.0087606125 9.6803278e-08 0)
(0.011055174 0.0022415032 0)
(0.018736908 -2.0621592e-05 0)
(0.014108421 3.4446071e-05 0)
(0.014693534 -6.9968188e-07 0)
(0.014281209 -1.8624274e-07 0)
(0.014549896 1.7143102e-06 0)
(0.014249034 -7.1760582e-07 0)
(0.014465325 1.2195393e-06 0)
(0.014260109 -1.0566444e-06 0)
(0.014443901 1.0607288e-06 0)
(0.014272591 -9.9122266e-07 0)
(0.014431662 9.4784128e-07 0)
(0.014282328 -8.8795274e-07 0)
(0.014422038 8.4121702e-07 0)
(0.014290749 -7.9017802e-07 0)
(0.014413856 7.4630983e-07 0)
(0.014298237 -7.0277298e-07 0)
(0.014406718 6.6338508e-07 0)
(0.014304889 -6.2568767e-07 0)
(0.014400426 5.9082937e-07 0)
(0.014310798 -5.5790669e-07 0)
(0.014394848 5.272097e-07 0)
(0.014316058 -4.9836163e-07 0)
(0.014389882 4.7139383e-07 0)
(0.014320752 -4.4610828e-07 0)
(0.014385442 4.2246825e-07 0)
(0.014324956 -4.0033994e-07 0)
(0.014381461 3.7967598e-07 0)
(0.014328733 -3.6036935e-07 0)
(0.014377876 3.4237748e-07 0)
(0.014332141 -3.2560799e-07 0)
(0.014374636 3.1002589e-07 0)
(0.014335228 -2.9554953e-07 0)
(0.014371693 2.8215092e-07 0)
(0.014338039 -2.697579e-07 0)
(0.014369004 2.5834816e-07 0)
(0.014340616 -2.4785872e-07 0)
(0.014366531 2.3827171e-07 0)
(0.014342995 -2.2953325e-07 0)
(0.014364239 2.2162856e-07 0)
(0.014345211 -2.1451393e-07 0)
(0.014362093 2.0817484e-07 0)
(0.014347295 -2.0257461e-07 0)
(0.014360062 1.977328e-07 0)
(0.014349277 -1.9349383e-07 0)
(0.01435811 1.9012285e-07 0)
(0.014351181 -1.8775326e-07 0)
(0.014356256 1.8216563e-07 0)
(0.014353358 -1.9602874e-07 0)
(0.014355819 1.7543659e-07 0)
(0.014924676 0.0028899587 0)
(0.025336679 -3.7041923e-05 0)
(0.019498968 6.2920274e-05 0)
(0.020248231 -1.0331946e-06 0)
(0.019694282 6.5359315e-08 0)
(0.020071579 2.6460892e-06 0)
(0.019649946 -7.5763023e-07 0)
(0.019958743 1.7521158e-06 0)
(0.019666882 -1.4815615e-06 0)
(0.019929534 1.5141657e-06 0)
(0.019684997 -1.4156905e-06 0)
(0.019912352 1.3598078e-06 0)
(0.019698928 -1.2724956e-06 0)
(0.01989869 1.2078302e-06 0)
(0.019710958 -1.1336489e-06 0)
(0.019887031 1.071501e-06 0)
(0.019721653 -1.0087177e-06 0)
(0.019876845 9.5244165e-07 0)
(0.019731157 -8.9827532e-07 0)
(0.019867857 8.4830575e-07 0)
(0.019739603 -8.0105488e-07 0)
(0.019859882 7.5698874e-07 0)
(0.019747125 -7.1559486e-07 0)
(0.019852778 6.7685774e-07 0)
(0.019753842 -6.4057341e-07 0)
(0.019846425 6.0660671e-07 0)
(0.019759859 -5.7484937e-07 0)
(0.019840726 5.4515509e-07 0)
(0.019765267 -5.1744453e-07 0)
(0.019835594 4.9158876e-07 0)
(0.019770145 -4.6751779e-07 0)
(0.019830955 4.4512449e-07 0)
(0.019774566 -4.2434356e-07 0)
(0.01982674 4.0508757e-07 0)
(0.019778592 -3.8729578e-07 0)
(0.01982289 3.7089709e-07 0)
(0.019782282 -3.5583636e-07 0)
(0.019819348 3.4205569e-07 0)
(0.019785689 -3.2950666e-07 0)
(0.019816064 3.1814135e-07 0)
(0.019788863 -3.079212e-07 0)
(0.01981299 2.9880163e-07 0)
(0.01979185 -2.9075127e-07 0)
(0.019810081 2.8378556e-07 0)
(0.019794691 -2.7764448e-07 0)
(0.019807283 2.7286349e-07 0)
(0.01979742 -2.6936847e-07 0)
(0.0198046 2.6050843e-07 0)
(0.019800464 -2.8598563e-07 0)
(0.019803721 2.5110732e-07 0)
(0.019512033 0.0038314525 0)
(0.031432562 -7.2444455e-05 0)
(0.024708837 9.5460874e-05 0)
(0.025652401 -1.6705311e-06 0)
(0.024956655 5.1744633e-07 0)
(0.025442894 3.6385768e-06 0)
(0.024900543 -6.2390522e-07 0)
(0.025306011 2.2358874e-06 0)
(0.024924522 -1.8512483e-06 0)
(0.025269376 1.9240484e-06 0)
(0.024948636 -1.8023604e-06 0)
(0.025247199 1.7387176e-06 0)
(0.024966941 -1.6254912e-06 0)
(0.025229375 1.5458872e-06 0)
(0.024982729 -1.4497588e-06 0)
(0.025214111 1.3713279e-06 0)
(0.024996763 -1.2905931e-06 0)
(0.025200753 1.2189451e-06 0)
(0.025009238 -1.1495436e-06 0)
(0.025188956 1.0857078e-06 0)
(0.025020331 -1.0252387e-06 0)
(0.025178483 9.6886433e-07 0)
(0.025030213 -9.1590412e-07 0)
(0.025169147 8.663164e-07 0)
(0.025039041 -8.1989216e-07 0)
(0.025160798 7.7639936e-07 0)
(0.02504695 -7.3576396e-07 0)
(0.025153306 6.9773768e-07 0)
(0.025054059 -6.6227785e-07 0)
(0.02514656 6.2916595e-07 0)
(0.025060472 -5.983618e-07 0)
(0.025140461 5.6968375e-07 0)
(0.025066283 -5.4308855e-07 0)
(0.025134922 5.1842794e-07 0)
(0.025071575 -4.956568e-07 0)
(0.025129861 4.7465465e-07 0)
(0.025076424 -4.553772e-07 0)
(0.025125207 4.3772648e-07 0)
(0.025080902 -4.216617e-07 0)
(0.025120892 4.07102e-07 0)
(0.025085073 -3.9401568e-07 0)
(0.025116853 3.8232763e-07 0)
(0.025088997 -3.7201446e-07 0)
(0.02511303 3.630884e-07 0)
(0.02509273 -3.5516356e-07 0)
(0.025109354 3.491371e-07 0)
(0.025096315 -3.44517e-07 0)
(0.025105811 3.3225852e-07 0)
(0.025100237 -3.7168783e-07 0)
(0.025104369 3.2058843e-07 0)
(0.022718715 0.0040918929 0)
(0.037224922 -0.00010787129 0)
(0.029771117 0.000134048 0)
(0.030907325 -2.8271376e-06 0)
(0.030067824 1.1883144e-06 0)
(0.030663498 4.7059497e-06 0)
(0.030001146 -3.4448809e-07 0)
(0.030506807 2.6683009e-06 0)
(0.030033443 -2.1710325e-06 0)
(0.03046309 2.2916612e-06 0)
(0.030063845 -2.1539723e-06 0)
(0.0304359 2.086406e-06 0)
(0.030086657 -1.9488986e-06 0)
(0.030413825 1.8570178e-06 0)
(0.030106317 -1.7401051e-06 0)
(0.030394856 1.6472157e-06 0)
(0.030123795 -1.5497614e-06 0)
(0.030378232 1.4641433e-06 0)
(0.030139336 -1.3806737e-06 0)
(0.030363537 1.3041311e-06 0)
(0.03015316 -1.2314935e-06 0)
(0.030350483 1.1638039e-06 0)
(0.03016548 -1.100205e-06 0)
(0.030338843 1.0406298e-06 0)
(0.030176489 -9.8488046e-07 0)
(0.030328431 9.3261554e-07 0)
(0.030186352 -8.8381545e-07 0)
(0.030319088 8.3811586e-07 0)
(0.030195217 -7.9552917e-07 0)
(0.030310675 7.557349e-07 0)
(0.030203215 -7.1873811e-07 0)
(0.03030307 6.8427254e-07 0)
(0.03021046 -6.5232954e-07 0)
(0.030296162 6.2269204e-07 0)
(0.030217058 -5.9534062e-07 0)
(0.030289854 5.7009915e-07 0)
(0.030223104 -5.4694231e-07 0)
(0.030284052 5.2572717e-07 0)
(0.030228685 -5.0642696e-07 0)
(0.030278674 4.8892407e-07 0)
(0.030233882 -4.7319884e-07 0)
(0.030273641 4.5914169e-07 0)
(0.030238772 -4.4674299e-07 0)
(0.030268879 4.3600788e-07 0)
(0.030243423 -4.2641191e-07 0)
(0.030264302 4.1928855e-07 0)
(0.030247887 -4.1351971e-07 0)
(0.030259873 3.9783028e-07 0)
(0.030252693 -4.5289705e-07 0)
(0.030257765 3.8374583e-07 0)
(0.027717503 0.0051607289 0)
(0.042543201 -0.00014484136 0)
(0.034658136 0.00017419949 0)
(0.036012142 -4.6937457e-06 0)
(0.035025141 2.0120013e-06 0)
(0.03573288 5.8115026e-06 0)
(0.034951913 4.0769963e-08 0)
(0.035560698 3.0430153e-06 0)
(0.03499402 -2.4479562e-06 0)
(0.035510306 2.618621e-06 0)
(0.035030961 -2.4741144e-06 0)
(0.035478136 2.4052733e-06 0)
(0.035058375 -2.2453033e-06 0)
(0.03545176 2.1434013e-06 0)
(0.035081989 -2.0068198e-06 0)
(0.035429017 1.9010947e-06 0)
(0.035102985 -1.7880627e-06 0)
(0.035409058 1.6897425e-06 0)
(0.03512166 -1.5932786e-06 0)
(0.035391401 1.5050862e-06 0)
(0.035138278 -1.4212453e-06 0)
(0.035375708 1.3431498e-06 0)
(0.035153092 -1.2697661e-06 0)
(0.03536171 1.2009963e-06 0)
(0.035166331 -1.1366727e-06 0)
(0.035349188 1.0763295e-06 0)
(0.035178193 -1.0200227e-06 0)
(0.03533795 9.672565e-07 0)
(0.035188856 -9.1811732e-07 0)
(0.035327832 8.7216953e-07 0)
(0.035198474 -8.2947909e-07 0)
(0.035318686 7.8968449e-07 0)
(0.035207186 -7.5282439e-07 0)
(0.035310381 7.186045e-07 0)
(0.035215119 -6.8704136e-07 0)
(0.035302796 6.5789656e-07 0)
(0.035222387 -6.31172e-07 0)
(0.035295822 6.0667448e-07 0)
(0.035229095 -5.8439795e-07 0)
(0.035289359 5.6418374e-07 0)
(0.03523534 -5.4602967e-07 0)
(0.035283311 5.2978749e-07 0)
(0.035241214 -5.1546734e-07 0)
(0.035277591 5.0306159e-07 0)
(0.035246801 -4.9190087e-07 0)
(0.035272096 4.8381487e-07 0)
(0.035252163 -4.7685899e-07 0)
(0.035266764 4.5779565e-07 0)
(0.035257855 -5.295812e-07 0)
(0.035263904 4.4081311e-07 0)
(0.030403898 0.0051065163 0)
(0.047470855 -0.00020511037 0)
(0.039409863 0.00021281919 0)
(0.040953598 -5.1754433e-06 0)
(0.039830884 3.4222299e-06 0)
(0.040651771 7.0214371e-06 0)
(0.039753647 5.2595182e-07 0)
(0.040467544 3.3572159e-06 0)
(0.039806685 -2.6833137e-06 0)
(0.040410749 2.9049952e-06 0)
(0.039850293 -2.7634668e-06 0)
(0.040373637 2.6955738e-06 0)
(0.039882358 -2.5150148e-06 0)
(0.040342933 2.4051865e-06 0)
(0.039909978 -2.2500727e-06 0)
(0.040316374 2.1330732e-06 0)
(0.039934542 -2.0056082e-06 0)
(0.040293035 1.895828e-06 0)
(0.039956395 -1.7874388e-06 0)
(0.040272374 1.6886421e-06 0)
(0.039975847 -1.5945576e-06 0)
(0.040254002 1.5069607e-06 0)
(0.039993193 -1.4246417e-06 0)
(0.040237612 1.3474675e-06 0)
(0.040008695 -1.2753175e-06 0)
(0.040222947 1.2075884e-06 0)
(0.040022587 -1.1444304e-06 0)
(0.040209787 1.0852036e-06 0)
(0.040035073 -1.0300844e-06 0)
(0.040197939 9.7851135e-07 0)
(0.040046335 -9.3062478e-07 0)
(0.04018723 8.8595917e-07 0)
(0.040056536 -8.446116e-07 0)
(0.040177507 8.0620351e-07 0)
(0.040065823 -7.7079645e-07 0)
(0.040168628 7.3808416e-07 0)
(0.04007433 -7.0810309e-07 0)
(0.040160465 6.8060538e-07 0)
(0.04008218 -6.5561154e-07 0)
(0.040152901 6.3291835e-07 0)
(0.040089488 -6.1254586e-07 0)
(0.040145826 5.9430366e-07 0)
(0.04009636 -5.782272e-07 0)
(0.040139135 5.6428993e-07 0)
(0.040102895 -5.516765e-07 0)
(0.04013271 5.4275854e-07 0)
(0.040109164 -5.3458338e-07 0)
(0.040126467 5.1227932e-07 0)
(0.040115742 -6.0137138e-07 0)
(0.040122782 4.9175204e-07 0)
(0.035548988 0.0061621007 0)
(0.051956779 -0.00023652586 0)
(0.044035777 0.00024896809 0)
(0.045680964 -6.2076719e-06 0)
(0.044475121 4.6646543e-06 0)
(0.045418473 8.1967217e-06 0)
(0.044406452 1.0686805e-06 0)
(0.045227025 3.5976494e-06 0)
(0.044471742 -2.8802488e-06 0)
(0.045164156 3.1493724e-06 0)
(0.044522095 -3.0223098e-06 0)
(0.045122164 2.9568059e-06 0)
(0.044558834 -2.7577768e-06 0)
(0.045087129 2.6419293e-06 0)
(0.044590488 -2.4695025e-06 0)
(0.045056734 2.3427509e-06 0)
(0.044618646 -2.2020345e-06 0)
(0.045029993 2.0820382e-06 0)
(0.044643703 -1.9628145e-06 0)
(0.045006304 1.8544726e-06 0)
(0.044666012 -1.7511212e-06 0)
(0.044985233 1.6549436e-06 0)
(0.044685909 -1.5645536e-06 0)
(0.04496643 1.4797818e-06 0)
(0.044703693 -1.400566e-06 0)
(0.044949606 1.3261585e-06 0)
(0.04471963 -1.2568166e-06 0)
(0.044934508 1.1917482e-06 0)
(0.044733954 -1.131232e-06 0)
(0.044920916 1.0745734e-06 0)
(0.044746873 -1.0219973e-06 0)
(0.044908632 9.7292865e-07 0)
(0.044758574 -9.2753116e-07 0)
(0.044897479 8.853376e-07 0)
(0.044769225 -8.4646134e-07 0)
(0.044887296 8.1052476e-07 0)
(0.044778981 -7.7760443e-07 0)
(0.044877936 7.4739502e-07 0)
(0.044787982 -7.1994813e-07 0)
(0.044869264 6.9501381e-07 0)
(0.04479636 -6.7263789e-07 0)
(0.044861153 6.5258564e-07 0)
(0.044804236 -6.3492223e-07 0)
(0.044853485 6.1959647e-07 0)
(0.044811725 -6.0565008e-07 0)
(0.044846126 5.9602878e-07 0)
(0.044818909 -5.8661495e-07 0)
(0.044838966 5.6126354e-07 0)
(0.044826368 -6.6782614e-07 0)
(0.044834397 5.3650219e-07 0)
(0.038233682 0.0060254703 0)
(0.056005575 -0.00032554823 0)
(0.048611137 0.00029113881 0)
(0.050176882 -9.2159245e-06 0)
(0.048951306 5.0502146e-06 0)
(0.050032214 9.2244742e-06 0)
(0.048910512 1.6240402e-06 0)
(0.049838912 3.7542204e-06 0)
(0.048989467 -3.0411261e-06 0)
(0.049770303 3.3512482e-06 0)
(0.049046599 -3.2509176e-06 0)
(0.049723507 3.1888131e-06 0)
(0.049088006 -2.973499e-06 0)
(0.049684157 2.8534157e-06 0)
(0.049123701 -2.6649362e-06 0)
(0.049649927 2.5299218e-06 0)
(0.04915546 -2.3771573e-06 0)
(0.049619778 2.248185e-06 0)
(0.049183727 -2.1192292e-06 0)
(0.049593056 2.0024073e-06 0)
(0.049208899 -1.8907741e-06 0)
(0.049569278 1.7869456e-06 0)
(0.049231353 -1.6893564e-06 0)
(0.049548059 1.5978025e-06 0)
(0.049251424 -1.5122887e-06 0)
(0.04952907 1.4319184e-06 0)
(0.049269411 -1.3570659e-06 0)
(0.049512031 1.2867823e-06 0)
(0.049285577 -1.2214571e-06 0)
(0.049496691 1.1602589e-06 0)
(0.049300155 -1.1035046e-06 0)
(0.049482829 1.0505061e-06 0)
(0.049313359 -1.0015002e-06 0)
(0.049470244 9.5592855e-07 0)
(0.049325377 -9.1396126e-07 0)
(0.049458755 8.7514753e-07 0)
(0.049336383 -8.3960817e-07 0)
(0.049448195 8.0697898e-07 0)
(0.049346537 -7.7734595e-07 0)
(0.049438413 7.504113e-07 0)
(0.049355986 -7.2624929e-07 0)
(0.049429266 7.0457972e-07 0)
(0.049364868 -6.8550098e-07 0)
(0.04942062 6.6893185e-07 0)
(0.049373312 -6.5377796e-07 0)
(0.049412326 6.4357753e-07 0)
(0.049381411 -6.3292018e-07 0)
(0.049404252 6.0475751e-07 0)
(0.049389745 -7.2858669e-07 0)
(0.04939875 5.7509615e-07 0)
(0.043332653 0.0068717382 0)
(0.059781076 -0.00035903785 0)
(0.053000555 0.00032820358 0)
(0.054519827 -1.1355705e-05 0)
(0.053267241 4.6532871e-06 0)
(0.054494923 1.0003573e-05 0)
(0.053266867 2.171349e-06 0)
(0.054303222 3.8184457e-06 0)
(0.053360182 -3.1678821e-06 0)
(0.054229012 3.5104988e-06 0)
(0.053424022 -3.4497995e-06 0)
(0.054177478 3.3916908e-06 0)
(0.053470061 -3.1623293e-06 0)
(0.054133844 3.0396617e-06 0)
(0.053509781 -2.8364225e-06 0)
(0.054095796 2.6945916e-06 0)
(0.05354513 -2.5309943e-06 0)
(0.054062252 2.3942722e-06 0)
(0.053576597 -2.2566895e-06 0)
(0.054032507 2.1324495e-06 0)
(0.053604625 -2.0135199e-06 0)
(0.054006032 1.9029701e-06 0)
(0.053629627 -1.799053e-06 0)
(0.053982402 1.7015338e-06 0)
(0.053651978 -1.6104889e-06 0)
(0.053961257 1.5248726e-06 0)
(0.053672007 -1.445182e-06 0)
(0.053942282 1.3703104e-06 0)
(0.053690008 -1.3007638e-06 0)
(0.0539252 1.2355727e-06 0)
(0.053706241 -1.1751508e-06 0)
(0.053909765 1.1186964e-06 0)
(0.053720942 -1.0665232e-06 0)
(0.053895753 1.017981e-06 0)
(0.053734322 -9.7330053e-07 0)
(0.053882962 9.3195713e-07 0)
(0.053746574 -8.9411876e-07 0)
(0.053871208 8.5936202e-07 0)
(0.053757877 -8.2780966e-07 0)
(0.05386032 7.9911588e-07 0)
(0.053768393 -7.7338518e-07 0)
(0.05385014 7.5029165e-07 0)
(0.053778277 -7.2996951e-07 0)
(0.053840519 7.1230266e-07 0)
(0.053787672 -6.9607054e-07 0)
(0.053831295 6.8540918e-07 0)
(0.053796684 -6.7351913e-07 0)
(0.053822312 6.4281099e-07 0)
(0.053805882 -7.8338366e-07 0)
(0.053815839 6.0765058e-07 0)
(0.04640045 0.0067617676 0)
(0.063245816 -0.00044860165 0)
(0.057156961 0.00035293144 0)
(0.058772324 -1.2462003e-05 0)
(0.057428226 3.7069503e-06 0)
(0.058808193 1.051312e-05 0)
(0.057476203 2.7034771e-06 0)
(0.058619866 3.7919195e-06 0)
(0.057584103 -3.2599141e-06 0)
(0.05854009 3.6280497e-06 0)
(0.057654539 -3.6193507e-06 0)
(0.058483901 3.5657408e-06 0)
(0.057705162 -3.3245277e-06 0)
(0.058436034 3.2008229e-06 0)
(0.057748878 -2.9841357e-06 0)
(0.058394203 2.8368927e-06 0)
(0.057787789 -2.6636823e-06 0)
(0.058357292 2.5204194e-06 0)
(0.057822431 -2.3753112e-06 0)
(0.058324547 2.2447066e-06 0)
(0.05785329 -2.1194603e-06 0)
(0.058295396 2.0031142e-06 0)
(0.057880821 -1.8937348e-06 0)
(0.058269376 1.7910634e-06 0)
(0.057905433 -1.6952491e-06 0)
(0.058246091 1.6051002e-06 0)
(0.057927489 -1.5212397e-06 0)
(0.058225196 1.4424045e-06 0)
(0.05794731 -1.3692198e-06 0)
(0.058206387 1.3005797e-06 0)
(0.057965184 -1.2369974e-06 0)
(0.058189392 1.1775583e-06 0)
(0.05798137 -1.1226558e-06 0)
(0.058173964 1.0715488e-06 0)
(0.0579961 -1.0245303e-06 0)
(0.058159883 9.8100289e-07 0)
(0.058009589 -9.4118337e-07 0)
(0.058146943 9.0458981e-07 0)
(0.058022031 -8.7138321e-07 0)
(0.058134958 8.4117037e-07 0)
(0.058033606 -8.1408711e-07 0)
(0.058123753 7.8976236e-07 0)
(0.058044483 -7.6836793e-07 0)
(0.058113166 7.4974866e-07 0)
(0.058054822 -7.3257026e-07 0)
(0.05810302 7.2155946e-07 0)
(0.058064738 -7.0846417e-07 0)
(0.058093138 6.7549641e-07 0)
(0.058074788 -8.3201557e-07 0)
(0.058085667 6.3433817e-07 0)
(0.051534753 0.0074104209 0)
(0.066537111 -0.00048098319 0)
(0.061085318 0.00037960908 0)
(0.062941147 -1.2559821e-05 0)
(0.061436979 2.8353313e-06 0)
(0.062973096 1.0757049e-05 0)
(0.061539065 3.2304716e-06 0)
(0.062788735 3.6810843e-06 0)
(0.06166142 -3.3153739e-06 0)
(0.062703361 3.7052819e-06 0)
(0.061738309 -3.7600069e-06 0)
(0.062642614 3.711325e-06 0)
(0.061793455 -3.4604769e-06 0)
(0.062590583 3.3371295e-06 0)
(0.061841123 -3.1083541e-06 0)
(0.06254502 2.9570421e-06 0)
(0.061883554 -2.775448e-06 0)
(0.062504786 2.6268278e-06 0)
(0.061921333 -2.4752904e-06 0)
(0.062469078 2.3393616e-06 0)
(0.061954989 -2.2087695e-06 0)
(0.062437285 2.0875429e-06 0)
(0.061985017 -1.9735579e-06 0)
(0.062408904 1.8665397e-06 0)
(0.062011862 -1.7667096e-06 0)
(0.062383505 1.6727352e-06 0)
(0.062035918 -1.5853652e-06 0)
(0.062360715 1.5031847e-06 0)
(0.062057537 -1.426939e-06 0)
(0.0623402 1.3553886e-06 0)
(0.062077031 -1.2891471e-06 0)
(0.062321664 1.2271903e-06 0)
(0.062094683 -1.1699915e-06 0)
(0.062304839 1.1167212e-06 0)
(0.062110748 -1.0677357e-06 0)
(0.062289482 1.0223665e-06 0)
(0.062125457 -9.8088004e-07 0)
(0.062275371 9.4273757e-07 0)
(0.062139024 -9.0813888e-07 0)
(0.062262303 8.7664481e-07 0)
(0.062151644 -8.4842282e-07 0)
(0.062250087 8.2305803e-07 0)
(0.062163503 -8.0076079e-07 0)
(0.062238545 7.8133343e-07 0)
(0.062174773 -7.6334232e-07 0)
(0.06222749 7.5208651e-07 0)
(0.062185582 -7.3783046e-07 0)
(0.062216722 7.0290132e-07 0)
(0.06219647 -8.7433757e-07 0)
(0.062208235 6.5537152e-07 0)
(0.054845303 0.0073116374 0)
(0.069549293 -0.00057391975 0)
(0.064855507 0.00039594491 0)
(0.066979507 -1.3762419e-05 0)
(0.065299545 2.1718397e-06 0)
(0.066989877 1.0695851e-05 0)
(0.065455873 3.7468428e-06 0)
(0.066809795 3.4872857e-06 0)
(0.065592374 -3.3329525e-06 0)
(0.066718707 3.7437902e-06 0)
(0.065675492 -3.8720741e-06 0)
(0.066653485 3.8290208e-06 0)
(0.065735078 -3.5705764e-06 0)
(0.066597367 3.4489393e-06 0)
(0.065786635 -3.209426e-06 0)
(0.066548137 3.0553523e-06 0)
(0.065832532 -2.8665957e-06 0)
(0.066504634 2.7137797e-06 0)
(0.065873397 -2.5568961e-06 0)
(0.066466013 2.4166684e-06 0)
(0.065909803 -2.2816878e-06 0)
(0.066431621 2.1564844e-06 0)
(0.065942287 -2.0387375e-06 0)
(0.066400918 1.9281677e-06 0)
(0.065971327 -1.8250635e-06 0)
(0.066373441 1.7279612e-06 0)
(0.065997351 -1.6377321e-06 0)
(0.066348786 1.5528166e-06 0)
(0.066020737 -1.4740774e-06 0)
(0.066326594 1.4001483e-06 0)
(0.066041825 -1.331741e-06 0)
(0.066306542 1.2677267e-06 0)
(0.06606092 -1.2086578e-06 0)
(0.066288343 1.1536203e-06 0)
(0.066078296 -1.1030328e-06 0)
(0.066271732 1.0561593e-06 0)
(0.066094206 -1.0133153e-06 0)
(0.06625647 9.7390779e-07 0)
(0.066108879 -9.3817514e-07 0)
(0.066242336 9.0563436e-07 0)
(0.066122528 -8.7648428e-07 0)
(0.066229125 8.5026825e-07 0)
(0.066135352 -8.2723521e-07 0)
(0.066216645 8.0714256e-07 0)
(0.066147537 -7.8847294e-07 0)
(0.066204695 7.7706921e-07 0)
(0.066159226 -7.617136e-07 0)
(0.066193059 7.2512754e-07 0)
(0.066170933 -9.1025673e-07 0)
(0.066183543 6.7099354e-07 0)
(0.05978427 0.0077670988 0)
(0.072474362 -0.00059842923 0)
(0.068510548 0.00040928893 0)
(0.070840268 -1.5602339e-05 0)
(0.069021466 1.4927487e-06 0)
(0.070858141 1.0244899e-05 0)
(0.069226733 4.2175109e-06 0)
(0.070682947 3.1985501e-06 0)
(0.069377156 -3.3167454e-06 0)
(0.070586025 3.74336e-06 0)
(0.069466237 -3.9566547e-06 0)
(0.070516394 3.9192023e-06 0)
(0.069530151 -3.6554284e-06 0)
(0.070456276 3.5366454e-06 0)
(0.069585522 -3.2878063e-06 0)
(0.070403454 3.1322055e-06 0)
(0.069634815 -2.937512e-06 0)
(0.070356748 2.7816271e-06 0)
(0.069678703 -2.6204686e-06 0)
(0.070315274 2.4769455e-06 0)
(0.069717805 -2.3385177e-06 0)
(0.070278336 2.2102247e-06 0)
(0.069752694 -2.0895443e-06 0)
(0.070245358 1.9762039e-06 0)
(0.069783886 -1.8705534e-06 0)
(0.070215845 1.7710086e-06 0)
(0.069811837 -1.6785579e-06 0)
(0.070189364 1.5915066e-06 0)
(0.069836955 -1.5108308e-06 0)
(0.070165528 1.4350447e-06 0)
(0.069859604 -1.3649555e-06 0)
(0.070143992 1.2993358e-06 0)
(0.069880111 -1.2388146e-06 0)
(0.070124446 1.1823986e-06 0)
(0.069898772 -1.1305671e-06 0)
(0.070106606 1.0825205e-06 0)
(0.069915858 -1.0386223e-06 0)
(0.070090216 9.9822837e-07 0)
(0.069931616 -9.6161486e-07 0)
(0.070075038 9.2825767e-07 0)
(0.069946272 -8.9838608e-07 0)
(0.070060852 8.715044e-07 0)
(0.069960042 -8.4789943e-07 0)
(0.070047452 8.2728215e-07 0)
(0.069973124 -8.0806796e-07 0)
(0.070034626 7.9660592e-07 0)
(0.069985676 -7.8022791e-07 0)
(0.070022141 7.4229066e-07 0)
(0.069998183 -9.3972801e-07 0)
(0.070011593 6.814694e-07 0)
(0.0632409 0.0076658838 0)
(0.075163407 -0.00068527222 0)
(0.07210173 0.00041370944 0)
(0.074496387 -1.8625569e-05 0)
(0.072607271 4.3463541e-07 0)
(0.074577355 9.4722268e-06 0)
(0.072852015 4.638351e-06 0)
(0.074408142 2.8163892e-06 0)
(0.073015952 -3.2661526e-06 0)
(0.07430523 3.7057188e-06 0)
(0.073110679 -4.0141486e-06 0)
(0.07423124 3.9826544e-06 0)
(0.073178788 -3.7155603e-06 0)
(0.07416721 3.6007941e-06 0)
(0.07323788 -3.3439885e-06 0)
(0.074110882 3.1880764e-06 0)
(0.073290488 -2.9886427e-06 0)
(0.074061052 2.8307938e-06 0)
(0.073337327 -2.6664067e-06 0)
(0.074016791 2.5205717e-06 0)
(0.07337906 -2.3796164e-06 0)
(0.073977368 2.2491027e-06 0)
(0.073416297 -2.1262978e-06 0)
(0.073942171 2.0109515e-06 0)
(0.073449587 -1.9034653e-06 0)
(0.073910671 1.802149e-06 0)
(0.073479419 -1.7080992e-06 0)
(0.073882407 1.6194987e-06 0)
(0.073506227 -1.5374298e-06 0)
(0.073856967 1.4602973e-06 0)
(0.073530399 -1.3889985e-06 0)
(0.073833983 1.3222155e-06 0)
(0.073552285 -1.26065e-06 0)
(0.073813121 1.2032357e-06 0)
(0.073572201 -1.1505098e-06 0)
(0.073794083 1.101614e-06 0)
(0.073590436 -1.0569577e-06 0)
(0.073776591 1.01585e-06 0)
(0.073607251 -9.7860279e-07 0)
(0.073760393 9.4465442e-07 0)
(0.073622892 -9.1426314e-07 0)
(0.073745256 8.8689749e-07 0)
(0.073637584 -8.6288068e-07 0)
(0.073730958 8.4187681e-07 0)
(0.073651543 -8.2225084e-07 0)
(0.073717277 8.1081264e-07 0)
(0.073664937 -7.9350426e-07 0)
(0.073703966 7.5451888e-07 0)
(0.073678223 -9.6275e-07 0)
(0.073692389 6.8707932e-07 0)
(0.068022171 0.0079583743 0)
(0.077844686 -0.00070327657 0)
(0.075612337 0.00041791916 0)
(0.077969535 -2.1577142e-05 0)
(0.076057295 -1.3321086e-06 0)
(0.078146805 8.4444794e-06 0)
(0.076332303 5.0022971e-06 0)
(0.077985103 2.3461005e-06 0)
(0.076508805 -3.1803347e-06 0)
(0.077876166 3.6326403e-06 0)
(0.076608892 -4.0451493e-06 0)
(0.077797906 4.0200514e-06 0)
(0.07668107 -3.7516951e-06 0)
(0.077730078 3.6419242e-06 0)
(0.076743787 -3.3785806e-06 0)
(0.077670343 3.2234789e-06 0)
(0.076799622 -3.0205096e-06 0)
(0.077617475 2.8617531e-06 0)
(0.076849333 -2.6951688e-06 0)
(0.077570506 2.5479747e-06 0)
(0.076893623 -2.4053909e-06 0)
(0.077528666 2.2735022e-06 0)
(0.076933143 -2.1493611e-06 0)
(0.07749131 2.0327542e-06 0)
(0.076968475 -1.9241241e-06 0)
(0.077457878 1.8216901e-06 0)
(0.077000136 -1.7266472e-06 0)
(0.077427881 1.6370691e-06 0)
(0.077028587 -1.554136e-06 0)
(0.07740088 1.4761547e-06 0)
(0.077054241 -1.4041059e-06 0)
(0.077376487 1.3365903e-06 0)
(0.077077468 -1.2743775e-06 0)
(0.077354347 1.2163354e-06 0)
(0.077098605 -1.1630551e-06 0)
(0.077334142 1.1136258e-06 0)
(0.077117956 -1.0684996e-06 0)
(0.077315578 1.0269434e-06 0)
(0.077135801 -9.8930303e-07 0)
(0.077298389 9.5498292e-07 0)
(0.077152398 -9.2426835e-07 0)
(0.077282325 8.9659588e-07 0)
(0.077167989 -8.7232301e-07 0)
(0.077267154 8.5106754e-07 0)
(0.0771828 -8.3116067e-07 0)
(0.077252641 8.1982111e-07 0)
(0.077197014 -8.0168794e-07 0)
(0.077238527 7.6195188e-07 0)
(0.077211056 -9.7936086e-07 0)
(0.07722593 6.8811237e-07 0)
(0.071666951 0.0078459482 0)
(0.080345115 -0.000781128 0)
(0.078999167 0.000412286 0)
(0.08130577 -2.3776604e-05 0)
(0.079378369 -3.607805e-06 0)
(0.081567223 7.3240572e-06 0)
(0.079669417 5.3334289e-06 0)
(0.081413798 1.8105927e-06 0)
(0.079855894 -3.053683e-06 0)
(0.081298764 3.5282214e-06 0)
(0.079960972 -4.0492834e-06 0)
(0.081216305 4.0325961e-06 0)
(0.080037079 -3.7644011e-06 0)
(0.081144802 3.6607447e-06 0)
(0.080103316 -3.3921972e-06 0)
(0.081081769 3.239012e-06 0)
(0.080162281 -3.0336741e-06 0)
(0.081025957 2.875037e-06 0)
(0.080214775 -2.707257e-06 0)
(0.080976364 2.5596296e-06 0)
(0.080261545 -2.4162893e-06 0)
(0.080932183 2.2838475e-06 0)
(0.080303277 -2.1591347e-06 0)
(0.080892735 2.0419915e-06 0)
(0.080340587 -1.9328881e-06 0)
(0.080857431 1.8299717e-06 0)
(0.08037402 -1.7345231e-06 0)
(0.080825753 1.6445226e-06 0)
(0.080404064 -1.561238e-06 0)
(0.080797241 1.4828912e-06 0)
(0.080431154 -1.4105379e-06 0)
(0.080771481 1.3427082e-06 0)
(0.080455681 -1.2802328e-06 0)
(0.080748102 1.2219225e-06 0)
(0.080478 -1.1684174e-06 0)
(0.080726766 1.1187609e-06 0)
(0.080498434 -1.0734441e-06 0)
(0.080707164 1.0316972e-06 0)
(0.080517277 -9.938968e-07 0)
(0.080689013 9.5941793e-07 0)
(0.080534803 -9.2857051e-07 0)
(0.080672051 9.0076333e-07 0)
(0.080551265 -8.763854e-07 0)
(0.080656033 8.5500984e-07 0)
(0.080566902 -8.3495039e-07 0)
(0.080640714 8.2377708e-07 0)
(0.080581912 -8.0493672e-07 0)
(0.080625824 7.647395e-07 0)
(0.080596684 -9.8963448e-07 0)
(0.080612221 6.8486137e-07 0)
(0.076271853 0.007987385 0)
(0.082898341 -0.00079034657 0)
(0.082210438 0.00040491533 0)
(0.084538804 -2.4518863e-05 0)
(0.082574657 -5.9203411e-06 0)
(0.084838842 6.213838e-06 0)
(0.082865308 5.6444431e-06 0)
(0.08469413 1.2351859e-06 0)
(0.083057399 -2.8842372e-06 0)
(0.08457299 3.3956243e-06 0)
(0.083167022 -4.0266852e-06 0)
(0.08448637 4.0213236e-06 0)
(0.083246893 -3.7544279e-06 0)
(0.084411315 3.6579547e-06 0)
(0.083316532 -3.3855437e-06 0)
(0.084345099 3.2353045e-06 0)
(0.083378522 -3.0287568e-06 0)
(0.084286447 2.8712155e-06 0)
(0.083433705 -2.7032192e-06 0)
(0.08423432 2.5560488e-06 0)
(0.083482869 -2.4127985e-06 0)
(0.084187877 2.2805975e-06 0)
(0.083526737 -2.1560527e-06 0)
(0.084146409 2.0390736e-06 0)
(0.083565957 -1.9301454e-06 0)
(0.084109297 1.8273614e-06 0)
(0.083601102 -1.7320747e-06 0)
(0.084075996 1.6421891e-06 0)
(0.083632684 -1.5590484e-06 0)
(0.084046024 1.4808035e-06 0)
(0.08366116 -1.4085763e-06 0)
(0.084018945 1.3408371e-06 0)
(0.083686943 -1.2784709e-06 0)
(0.083994369 1.2202404e-06 0)
(0.083710405 -1.1668289e-06 0)
(0.08397194 1.1172415e-06 0)
(0.083731885 -1.072004e-06 0)
(0.083951335 1.0303156e-06 0)
(0.083751692 -9.9258035e-07 0)
(0.083932255 9.5814874e-07 0)
(0.083770115 -9.2735246e-07 0)
(0.083914425 8.9957713e-07 0)
(0.083787418 -8.7523999e-07 0)
(0.083897588 8.5387205e-07 0)
(0.083803854 -8.3378511e-07 0)
(0.08388149 8.2283879e-07 0)
(0.083819634 -8.0341922e-07 0)
(0.083865852 7.6304077e-07 0)
(0.08383511 -9.9367702e-07 0)
(0.083851263 6.776186e-07 0)
(0.080020567 0.0078520214 0)
(0.085293481 -0.00085404661 0)
(0.085255647 0.00038846564 0)
(0.08765894 -2.5959112e-05 0)
(0.085639406 -8.5004671e-06 0)
(0.087959463 5.1186629e-06 0)
(0.085920406 5.8829343e-06 0)
(0.087825491 6.3678447e-07 0)