/*--------------------------------*- C++ -*----------------------------------*\
| =========                 |                                                 |
| \\      /  F ield         | OpenFOAM: The Open Source CFD Toolbox           |
|  \\    /   O peration     | Version:  2312                                  |
|   \\  /    A nd           | Website:  www.openfoam.com                      |
|    \\/     M anipulation  |                                                 |
\*---------------------------------------------------------------------------*/
FoamFile
{
    version     2.0;
    format      ascii;
    arch        "LSB;label=32;scalar=64";
    class       volScalarField;
    location    "7";
    object      p;
}
// * * * * * * * * * * * * * * * * * * * * * * * * * * * * * * * * * * * * * //

dimensions      [0 2 -2 0 0 0 0];

internalField   nonuniform List<scalar> 
4000
(
14.378566
13.887255
13.775635
13.323654
13.19147
12.757648
12.606203
12.189784
12.021715
11.620737
11.438153
11.050746
10.855446
10.479943
10.273498
9.9084279
9.692218
9.3362859
9.1115278
8.7635917
8.531357
8.1904103
7.9516445
7.6167987
7.3723371
7.0428065
6.7933884
6.4684769
6.2147578
5.8938476
5.6364104
5.318951
5.058316
4.7438151
4.4804484
4.168464
3.9027857
3.5929179
3.3253091
3.0171939
2.748003
2.4413062
2.1708548
1.8652659
1.5938545
1.2890818
1.0169945
0.71276016
0.44026973
0.13630148
14.377427
13.886814
13.775633
13.323662
13.191463
12.757655
12.606197
12.18979
12.02171
11.620742
11.438148
11.050751
10.855442
10.479947
10.273494
9.9084316
9.6922146
9.3362891
9.1115248
8.7635945
8.5313543
8.1904128
7.9516422
7.6168009
7.3723351
7.0428084
6.7933865
6.4684787
6.2147562
5.8938491
5.636409
5.3189524
5.0583146
4.7438164
4.4804472
4.1684651
3.9027846
3.5929189
3.3253081
3.0171949
2.7480021
2.441307
2.1708539
1.8652667
1.5938536
1.2890826
1.0169938
0.71276094
0.44026894
0.1363025
14.37481
13.886416
13.775649
13.323662
13.191462
12.757655
12.606196
12.18979
12.021709
11.620742
11.438148
11.050751
10.855441
10.479947
10.273494
9.9084317
9.6922145
9.3362892
9.1115247
8.7635946
8.5313542
8.1904129
7.9516421
7.616801
7.372335
7.0428085
6.7933865
6.4684787
6.2147561
5.8938492
5.6364089
5.3189524
5.0583146
4.7438164
4.4804472
4.1684651
3.9027846
3.592919
3.325308
3.0171949
2.748002
2.4413071
2.1708539
1.8652667
1.5938536
1.2890826
1.0169937
0.71276098
0.44026887
0.13630278
14.37182
13.886059
13.775669
13.323659
13.191465
12.757652
12.606199
12.189788
12.021711
11.62074
11.43815
11.050749
10.855443
10.479946
10.273495
9.9084304
9.6922158
9.3362881
9.1115258
8.7635936
8.5313552
8.190412
7.951643
7.6168002
7.3723358
7.0428078
6.7933872
6.4684781
6.2147567
5.8938486
5.6364095
5.3189519
5.0583151
4.7438159
4.4804476
4.1684647
3.902785
3.5929186
3.3253084
3.0171946
2.7480024
2.4413067
2.1708542
1.8652664
1.5938539
1.2890823
1.016994
0.71276069
0.44026913
0.13630272
14.368968
13.885728
13.775687
13.323658
13.191468
12.757649
12.606201
12.189786
12.021714
11.620738
11.438152
11.050748
10.855445
10.479944
10.273496
9.908429
9.692217
9.3362869
9.1115269
8.7635925
8.5313562
8.190411
7.9516438
7.6167993
7.3723365
7.042807
6.7933878
6.4684774
6.2147573
5.893848
5.63641
5.3189514
5.0583156
4.7438155
4.4804481
4.1684643
3.9027854
3.5929182
3.3253088
3.0171942
2.7480027
2.4413064
2.1708545
1.8652661
1.5938542
1.289082
1.0169943
0.7127604
0.44026941
0.13630262
14.366291
13.885413
13.775701
13.323657
13.19147
12.757647
12.606203
12.189784
12.021715
11.620737
11.438153
11.050746
10.855446
10.479943
10.273498
9.9084279
9.6922181
9.3362859
9.1115278
8.7635917
8.531357
8.1904103
7.9516445
7.6167987
7.3723372
7.0428065
6.7933884
6.4684769
6.2147578
5.8938476
5.6364104
5.318951
5.058316
4.7438151
4.4804484
4.168464
3.9027857
3.5929179
3.3253091
3.0171939
2.748003
2.4413061
2.1708548
1.8652659
1.5938545
1.2890818
1.0169945
0.71276015
0.44026964
0.13630255
14.363733
13.885112
13.775711
13.323657
13.191473
12.757645
12.606204
12.189782
12.021717
11.620735
11.438155
11.050745
10.855447
10.479942
10.273499
9.908427
9.692219
9.3362851
9.1115286
8.7635909
8.5313577
8.1904096
7.9516451
7.6167981
7.3723377
7.0428059
6.7933889
6.4684765
6.2147583
5.8938472
5.6364108
5.3189506
5.0583163
4.7438148
4.4804488
4.1684637
3.902786
3.5929176
3.3253093
3.0171937
2.7480032
2.4413059
2.170855
1.8652656
1.5938547
1.2890816
1.0169948
0.71275994
0.44026984
0.13630248
14.361276
13.884827
13.775719
13.323656
13.191475
12.757643
12.606206
12.189781
12.021718
11.620734
11.438156
11.050744
10.855448
10.479941
10.2735
9.9084261
9.6922198
9.3362843
9.1115293
8.7635903
8.5313583
8.1904091
7.9516457
7.6167976
7.3723382
7.0428055
6.7933893
6.468476
6.2147586
5.8938468
5.6364112
5.3189503
5.0583166
4.7438145
4.480449
4.1684634
3.9027863
3.5929174
3.3253096
3.0171934
2.7480035
2.4413057
2.1708552
1.8652654
1.5938549
1.2890814
1.0169949
0.71275975
0.44027003
0.13630242
14.358921
13.884557
13.775726
13.323654
13.191477
12.757641
12.606207
12.18978
12.021719
11.620733
11.438157
11.050743
10.855449
10.47994
10.2735
9.9084253
9.6922205
9.3362836
9.1115299
8.7635897
8.5313589
8.1904085
7.9516462
7.6167971
7.3723386
7.0428051
6.7933897
6.4684757
6.214759
5.8938465
5.6364115
5.31895
5.0583169
4.7438142
4.4804493
4.1684631
3.9027865
3.5929171
3.3253098
3.0171932
2.7480037
2.4413055
2.1708554
1.8652653
1.5938551
1.2890812
1.0169951
0.71275957
0.44027021
0.13630235
14.356668
13.884301
13.775731
13.323653
13.191479
12.75764
12.606208
12.189778
12.02172
11.620732
11.438158
11.050742
10.85545
10.479939
10.273501
9.9084246
9.6922212
9.336283
9.1115305
8.7635891
8.5313594
8.190408
7.9516467
7.6167967
7.372339
7.0428047
6.7933901
6.4684753
6.2147593
5.8938462
5.6364118
5.3189497
5.0583172
4.743814
4.4804495
4.1684629
3.9027867
3.5929169
3.32531
3.017193
2.7480038
2.4413053
2.1708556
1.8652651
1.5938552
1.289081
1.0169953
0.7127594
0.44027038
0.13630228
14.354516
13.88406
13.775735
13.323651
13.19148
12.757639
12.60621
12.189777
12.021721
11.620731
11.438159
11.050741
10.855451
10.479939
10.273502
9.9084239
9.6922218
9.3362824
9.1115311
8.7635886
8.5313599
8.1904076
7.9516471
7.6167963
7.3723394
7.0428043
6.7933904
6.468475
6.2147596
5.8938459
5.636412
5.3189494
5.0583174
4.7438137
4.4804498
4.1684627
3.9027869
3.5929167
3.3253102
3.0171929
2.748004
2.4413052
2.1708558
1.8652649
1.5938554
1.2890809
1.0169954
0.71275925
0.44027054
0.13630221
14.352463
13.88383
13.775737
13.323651
13.19148
12.757638
12.606211
12.189776
12.021722
11.62073
11.43816
11.05074
10.855452
10.479938
10.273502
9.9084233
9.6922224
9.3362819
9.1115316
8.7635881
8.5313603
8.1904071
7.9516475
7.6167959
7.3723398
7.042804
6.7933907
6.4684747
6.2147599
5.8938456
5.6364123
5.3189492
5.0583176
4.7438135
4.48045
4.1684625
3.9027871
3.5929166
3.3253103
3.0171927
2.7480042
2.441305
2.1708559
1.8652648
1.5938555
1.2890807
1.0169956
0.7127591
0.4402707
0.13630214
14.35051
13.88361
13.77574
13.323651
13.19148
12.757637
12.606212
12.189775
12.021723
11.620729
11.43816
11.05074
10.855452
10.479937
10.273503
9.9084228
9.6922229
9.3362814
9.1115321
8.7635877
8.5313607
8.1904068
7.9516478
7.6167955
7.3723401
7.0428037
6.793391
6.4684744
6.2147602
5.8938454
5.6364125
5.318949
5.0583178
4.7438133
4.4804501
4.1684623
3.9027873
3.5929164
3.3253105
3.0171925
2.7480043
2.4413049
2.170856
1.8652646
1.5938557
1.2890806
1.0169957
0.71275897
0.44027084
0.13630208
14.348655
13.883401
13.775744
13.323651
13.19148
12.757636
12.606213
12.189775
12.021724
11.620728
11.438161
11.050739
10.855453
10.479937
10.273504
9.9084222
9.6922234
9.3362809
9.1115325
8.7635873
8.5313611
8.1904064
7.9516482
7.6167952
7.3723404
7.0428034
6.7933913
6.4684742
6.2147604
5.8938451
5.6364127
5.3189488
5.058318
4.7438131
4.4804503
4.1684622
3.9027874
3.5929162
3.3253106
3.0171924
2.7480045
2.4413047
2.1708562
1.8652645
1.5938558
1.2890805
1.0169958
0.71275884
0.44027098
0.13630201
14.346896
13.883216
13.775742
13.32365
13.191478
12.757635
12.606214
12.189774
12.021725
11.620728
11.438162
11.050738
10.855453
10.479936
10.273504
9.9084218
9.6922238
9.3362805
9.1115329
8.7635869
8.5313615
8.1904061
7.9516485
7.6167949
7.3723407
7.0428031
6.7933915
6.468474
6.2147606
5.8938449
5.6364129
5.3189486
5.0583182
4.743813
4.4804505
4.168462
3.9027876
3.5929161
3.3253108
3.0171923
2.7480046
2.4413046
2.1708563
1.8652644
1.5938559
1.2890804
1.0169959
0.71275873
0.4402711
0.13630194
14.345229
13.883088
13.775707
13.323642
13.191475
12.757634
12.606214
12.189773
12.021726
11.620727
11.438162
11.050738
10.855454
10.479936
10.273505
9.9084213
9.6922243
9.3362801
9.1115333
8.7635865
8.5313618
8.1904057
7.9516488
7.6167946
7.3723409
7.0428029
6.7933918
6.4684737
6.2147608
5.8938447
5.6364131
5.3189484
5.0583184
4.7438128
4.4804506
4.1684619
3.9027877
3.592916
3.3253109
3.0171921
2.7480047
2.4413045
2.1708564
1.8652643
1.593856
1.2890803
1.0169961
0.71275862
0.44027122
0.13630187
14.343652
13.883034
13.775617
13.323626
13.191471
12.757632
12.606215
12.189773
12.021726
11.620726
11.438163
11.050737
10.855455
10.479935
10.273505
9.9084209
9.6922247
9.3362797
9.1115336
8.7635862
8.5313621
8.1904055
7.9516491
7.6167944
7.3723412
7.0428027
6.793392
6.4684735
6.214761
5.8938446
5.6364133
5.3189483
5.0583185
4.7438127
4.4804508
4.1684617
3.9027878
3.5929158
3.325311
3.017192
2.7480048
2.4413044
2.1708565
1.8652642
1.5938561
1.2890802
1.0169961
0.71275852
0.44027134
0.13630181
14.342167
13.882985
13.775514
13.323612
13.191467
12.757631
12.606216
12.189772
12.021727
11.620726
11.438163
11.050737
10.855455
10.479935
10.273505
9.9084205
9.692225
9.3362794
9.1115339
8.7635859
8.5313624
8.1904052
7.9516493
7.6167942
7.3723414
7.0428025
6.7933922
6.4684733
6.2147612
5.8938444
5.6364134
5.3189481
5.0583187
4.7438125
4.4804509
4.1684616
3.9027879
3.5929157
3.3253111
3.0171919
2.7480049
2.4413043
2.1708566
1.8652641
1.5938562
1.2890801
1.0169962
0.71275843
0.44027145
0.13630174
14.340778
13.882852
13.775474
13.32361
13.191466
12.75763
12.606217
12.189771
12.021728
11.620725
11.438164
11.050736
10.855455
10.479934
10.273506
9.9084201
9.6922254
9.336279
9.1115342
8.7635856
8.5313627
8.1904049
7.9516496
7.6167939
7.3723416
7.0428023
6.7933923
6.4684732
6.2147614
5.8938442
5.6364136
5.318948
5.0583188
4.7438124
4.480451
4.1684615
3.9027881
3.5929156
3.3253112
3.0171918
2.748005
2.4413042
2.1708567
1.865264
1.5938563
1.28908
1.0169963
0.71275834
0.44027155
0.13630168
14.339482
13.882655
13.775492
13.323616
13.191466
12.75763
12.606217
12.189771
12.021728
11.620725
11.438164
11.050736
10.855456
10.479934
10.273506
9.9084198
9.6922257
9.3362787
9.1115345
8.7635853
8.5313629
8.1904047
7.9516498
7.6167937
7.3723418
7.0428021
6.7933925
6.468473
6.2147615
5.8938441
5.6364137
5.3189478
5.0583189
4.7438123
4.4804511
4.1684614
3.9027882
3.5929155
3.3253113
3.0171917
2.7480051
2.4413041
2.1708568
1.8652639
1.5938564
1.2890799
1.0169964
0.71275826
0.44027164
0.13630162
14.338279
13.88246
13.775521
13.323619
13.191466
12.75763
12.606218
12.189771
12.021729
11.620724
11.438165
11.050735
10.855456
10.479934
10.273507
9.9084195
9.692226
9.3362785
9.1115348
8.7635851
8.5313631
8.1904045
7.95165
7.6167935
7.372342
7.0428019
6.7933927
6.4684729
6.2147617
5.893844
5.6364139
5.3189477
5.058319
4.7438122
4.4804512
4.1684613
3.9027883
3.5929154
3.3253114
3.0171917
2.7480052
2.441304
2.1708569
1.8652638
1.5938564
1.2890798
1.0169965
0.71275819
0.44027173
0.13630156
14.337164
13.882293
13.775542
13.323616
13.191465
12.75763
12.606219
12.18977
12.021729
11.620724
11.438165
11.050735
10.855457
10.479933
10.273507
9.9084192
9.6922263
9.3362782
9.111535
8.7635849
8.5313633
8.1904043
7.9516502
7.6167934
7.3723422
7.0428017
6.7933928
6.4684727
6.2147618
5.8938438
5.636414
5.3189476
5.0583192
4.7438121
4.4804513
4.1684612
3.9027883
3.5929154
3.3253115
3.0171916
2.7480053
2.441304
2.1708569
1.8652638
1.5938565
1.2890798
1.0169965
0.71275812
0.44027182
0.13630151
14.33613
13.882154
13.775555
13.323608
13.191465
12.75763
12.60622
12.18977
12.02173
11.620724
11.438166
11.050735
10.855457
10.479933
10.273507
9.9084189
9.6922265
9.336278
9.1115352
8.7635847
8.5313635
8.1904041
7.9516503
7.6167932
7.3723423
7.0428016
6.793393
6.4684726
6.2147619
5.8938437
5.6364141
5.3189475
5.0583193
4.743812
4.4804514
4.1684611
3.9027884
3.5929153
3.3253116
3.0171915
2.7480053
2.4413039
2.170857
1.8652637
1.5938566
1.2890797
1.0169966
0.71275805
0.44027189
0.13630145
14.335175
13.882034
13.775562
13.323599
13.191465
12.75763
12.60622
12.18977
12.02173
11.620723
11.438166
11.050734
10.855457
10.479933
10.273507
9.9084187
9.6922268
9.3362777
9.1115355
8.7635845
8.5313637
8.1904039
7.9516505
7.616793
7.3723425
7.0428015
6.7933931
6.4684725
6.214762
5.8938436
5.6364142
5.3189474
5.0583193
4.7438119
4.4804515
4.168461
3.9027885
3.5929152
3.3253116
3.0171914
2.7480054
2.4413038
2.1708571
1.8652637
1.5938566
1.2890796
1.0169967
0.71275799
0.44027197
0.1363014
14.334294
13.881928
13.775562
13.323592
13.191465
12.75763
12.606221
12.189769
12.021731
11.620723
11.438166
11.050734
10.855458
10.479932
10.273508
9.9084184
9.692227
9.3362775
9.1115357
8.7635843
8.5313639
8.1904038
7.9516507
7.6167929
7.3723426
7.0428013
6.7933932
6.4684724
6.2147621
5.8938435
5.6364143
5.3189473
5.0583194
4.7438118
4.4804516
4.168461
3.9027886
3.5929151
3.3253117
3.0171914
2.7480054
2.4413038
2.1708571
1.8652636
1.5938567
1.2890796
1.0169967
0.71275794
0.44027203
0.13630135
14.333486
13.881834
13.775554
13.323589
13.191467
12.75763
12.606222
12.189769
12.021731
11.620723
11.438167
11.050734
10.855458
10.479932
10.273508
9.9084182
9.6922272
9.3362774
9.1115358
8.7635841
8.5313641
8.1904036
7.9516508
7.6167928
7.3723427
7.0428012
6.7933933
6.4684722
6.2147622
5.8938434
5.6364144
5.3189472
5.0583195
4.7438117
4.4804516
4.1684609
3.9027886
3.5929151
3.3253118
3.0171913
2.7480055
2.4413037
2.1708572
1.8652635
1.5938567
1.2890795
1.0169968
0.71275789
0.4402721
0.13630131
14.332749
13.881751
13.77554
13.323591
13.191469
12.757631
12.606223
12.189769
12.021731
11.620722
11.438167
11.050733
10.855458
10.479932
10.273508
9.908418
9.6922274
9.3362772
9.111536
8.763584
8.5313642
8.1904035
7.9516509
7.6167926
7.3723428
7.0428011
6.7933934
6.4684722
6.2147623
5.8938433
5.6364145
5.3189472
5.0583196
4.7438117
4.4804517
4.1684608
3.9027887
3.592915
3.3253118
3.0171913
2.7480056
2.4413037
2.1708572
1.8652635
1.5938568
1.2890795
1.0169968
0.71275784
0.44027215
0.13630126
14.33208
13.881677
13.77552
13.323597
13.19147
12.757631
12.606223
12.189769
12.021732
11.620722
11.438167
11.050733
10.855458
10.479932
10.273508
9.9084178
9.6922275
9.336277
9.1115361
8.7635838
8.5313643
8.1904034
7.951651
7.6167925
7.3723429
7.042801
6.7933935
6.4684721
6.2147624
5.8938432
5.6364145
5.3189471
5.0583197
4.7438116
4.4804518
4.1684608
3.9027887
3.592915
3.3253119
3.0171912
2.7480056
2.4413036
2.1708573
1.8652635
1.5938568
1.2890795
1.0169969
0.7127578
0.4402722
0.13630122
14.331477
13.88161
13.775498
13.323605
13.191471
12.757632
12.606224
12.189769
12.021732
11.620722
11.438167
11.050733
10.855458
10.479932
10.273509
9.9084177
9.6922277
9.3362769
9.1115363
8.7635837
8.5313645
8.1904032
7.9516512
7.6167924
7.372343
7.0428009
6.7933936
6.468472
6.2147625
5.8938432
5.6364146
5.318947
5.0583197
4.7438115
4.4804518
4.1684607
3.9027888
3.5929149
3.3253119
3.0171912
2.7480056
2.4413036
2.1708573
1.8652634
1.5938569
1.2890794
1.0169969
0.71275777
0.44027225
0.13630119
14.330938
13.881548
13.775475
13.323616
13.191472
12.757632
12.606224
12.189768
12.021732
11.620722
11.438168
11.050733
10.855459
10.479931
10.273509
9.9084175
9.6922278
9.3362767
9.1115364
8.7635836
8.5313646
8.1904031
7.9516512
7.6167923
7.3723431
7.0428008
6.7933937
6.4684719
6.2147625
5.8938431
5.6364147
5.318947
5.0583198
4.7438115
4.4804519
4.1684607
3.9027888
3.5929149
3.325312
3.0171911
2.7480057
2.4413035
2.1708573
1.8652634
1.5938569
1.2890794
1.0169969
0.71275774
0.44027229
0.13630116
14.330462
13.88149
13.775451
13.323628
13.191472
12.757632
12.606224
12.189768
12.021733
11.620722
11.438168
11.050733
10.855459
10.479931
10.273509
9.9084174
9.692228
9.3362766
9.1115365
8.7635835
8.5313647
8.190403
7.9516513
7.6167923
7.3723432
7.0428008
6.7933938
6.4684718
6.2147626
5.8938431
5.6364147
5.3189469
5.0583198
4.7438115
4.4804519
4.1684606
3.9027889
3.5929148
3.325312
3.0171911
2.7480057
2.4413035
2.1708574
1.8652633
1.5938569
1.2890794
1.016997
0.71275771
0.44027232
0.13630113
14.330048
13.881433
13.775427
13.323641
13.191471
12.757632
12.606225
12.189768
12.021733
11.620721
11.438168
11.050733
10.855459
10.479931
10.273509
9.9084173
9.6922281
9.3362765
9.1115366
8.7635834
8.5313648
8.190403
7.9516514
7.6167922
7.3723433
7.0428007
6.7933938
6.4684718
6.2147627
5.893843
5.6364148
5.3189469
5.0583199
4.7438114
4.480452
4.1684606
3.9027889
3.5929148
3.325312
3.0171911
2.7480058
2.4413035
2.1708574
1.8652633
1.593857
1.2890793
1.016997
0.71275769
0.44027235
0.1363011
14.329694
13.881376
13.775404
13.323654
13.19147
12.757631
12.606225
12.189768
12.021733
11.620721
11.438168
11.050732
10.855459
10.479931
10.273509
9.9084171
9.6922282
9.3362764
9.1115367
8.7635833
8.5313648
8.1904029
7.9516515
7.6167921
7.3723433
7.0428006
6.7933939
6.4684717
6.2147627
5.893843
5.6364148
5.3189468
5.0583199
4.7438114
4.480452
4.1684606
3.902789
3.5929148
3.3253121
3.017191
2.7480058
2.4413034
2.1708574
1.8652633
1.593857
1.2890793
1.016997
0.71275767
0.44027237
0.13630108
14.329402
13.881316
13.775383
13.32366
13.191471
12.757632
12.606225
12.189768
12.021733
11.620721
11.438168
11.050732
10.855459
10.479931
10.273509
9.9084171
9.6922283
9.3362763
9.1115368
8.7635832
8.5313649
8.1904028
7.9516515
7.6167921
7.3723434
7.0428006
6.7933939
6.4684717
6.2147628
5.8938429
5.6364148
5.3189468
5.0583199
4.7438113
4.480452
4.1684605
3.902789
3.5929147
3.3253121
3.017191
2.7480058
2.4413034
2.1708574
1.8652633
1.593857
1.2890793
1.016997
0.71275765
0.44027238
0.13630106
14.32917
13.88125
13.775367
13.323654
13.191477
12.757634
12.606226
12.189768
12.021733
11.620721
11.438168
11.050732
10.855459
10.479931
10.273509
9.908417
9.6922283
9.3362763
9.1115369
8.7635832
8.531365
8.1904028
7.9516516
7.616792
7.3723434
7.0428006
6.793394
6.4684717
6.2147628
5.8938429
5.6364149
5.3189468
5.05832
4.7438113
4.4804521
4.1684605
3.902789
3.5929147
3.3253121
3.017191
2.7480058
2.4413034
2.1708575
1.8652633
1.593857
1.2890793
1.016997
0.71275764
0.44027238
0.13630105
14.329
13.881179
13.775352
13.323641
13.191485
12.757637
12.606227
12.189768
12.021733
11.620721
11.438169
11.050732
10.855459
10.479931
10.273509
9.9084169
9.6922284
9.3362762
9.1115369
8.7635831
8.531365
8.1904027
7.9516516
7.616792
7.3723435
7.0428005
6.793394
6.4684716
6.2147628
5.8938429
5.6364149
5.3189467
5.05832
4.7438113
4.4804521
4.1684605
3.902789
3.5929147
3.3253121
3.017191
2.7480058
2.4413034
2.1708575
1.8652632
1.593857
1.2890793
1.016997
0.71275764
0.44027238
0.13630104
14.328891
13.881102
13.775338
13.323629
13.191492
12.75764
12.606228
12.189768
12.021734
11.620721
11.438169
11.050732
10.855459
10.479931
10.273509
9.9084169
9.6922284
9.3362762
9.1115369
8.7635831
8.531365
8.1904027
7.9516517
7.6167919
7.3723435
7.0428005
6.793394
6.4684716
6.2147628
5.8938428
5.6364149
5.3189467
5.05832
4.7438113
4.4804521
4.1684605
3.902789
3.5929147
3.3253121
3.017191
2.7480058
2.4413034
2.1708575
1.8652632
1.593857
1.2890793
1.016997
0.71275764
0.44027238
0.13630104
14.328839
13.881027
13.775322
13.323621
13.191496
12.757643
12.606229
12.189768
12.021734
11.620721
11.438169
11.050732
10.855459
10.479931
10.273509
9.9084168
9.6922285
9.3362761
9.111537
8.763583
8.5313651
8.1904027
7.9516517
7.6167919
7.3723435
7.0428005
6.793394
6.4684716
6.2147629
5.8938428
5.6364149
5.3189467
5.05832
4.7438113
4.4804521
4.1684605
3.902789
3.5929147
3.3253121
3.017191
2.7480058
2.4413034
2.1708575
1.8652632
1.593857
1.2890793
1.016997
0.71275765
0.44027237
0.13630104
14.328828
13.880963
13.775309
13.323618
13.191497
12.757644
12.606229
12.189768
12.021734
11.620721
11.438169
11.050732
10.85546
10.479931
10.273509
9.9084168
9.6922285
9.3362761
9.111537
8.763583
8.5313651
8.1904026
7.9516517
7.6167919
7.3723435
7.0428005
6.793394
6.4684716
6.2147629
5.8938428
5.6364149
5.3189467
5.05832
4.7438113
4.4804521
4.1684605
3.902789
3.5929147
3.3253121
3.017191
2.7480058
2.4413034
2.1708575
1.8652632
1.593857
1.2890793
1.016997
0.71275766
0.44027235
0.13630104
14.328832
13.880925
13.775301
13.323616
13.191497
12.757645
12.606229
12.189768
12.021734
11.620721
11.438169
11.050732
10.85546
10.479931
10.273509
9.9084168
9.6922285
9.3362761
9.111537
8.763583
8.5313651
8.1904026
7.9516517
7.6167919
7.3723435
7.0428005
6.793394
6.4684716
6.2147629
5.8938428
5.6364149
5.3189467
5.05832
4.7438113
4.4804521
4.1684605
3.902789
3.5929147
3.3253121
3.017191
2.7480058
2.4413034
2.1708575
1.8652632
1.593857
1.2890793
1.016997
0.71275766
0.44027235
0.13630104
14.328832
13.880926
13.775301
13.323616
13.191497
12.757645
12.606229
12.189768
12.021734
11.620721
11.438169
11.050732
10.85546
10.479931
10.273509
9.9084168
9.6922285
9.3362761
9.111537
8.763583
8.5313651
8.1904026
7.9516517
7.6167919
7.3723435
7.0428005
6.793394
6.4684716
6.2147629
5.8938428
5.6364149
5.3189467
5.05832
4.7438113
4.4804521
4.1684605
3.902789
3.5929147
3.3253121
3.017191
2.7480058
2.4413034
2.1708575
1.8652632
1.593857
1.2890793
1.016997
0.71275766
0.44027235
0.13630104
14.328827
13.880963
13.775309
13.323618
13.191497
12.757644
12.606229
12.189768
12.021734
11.620721
11.438169
11.050732
10.85546
10.479931
10.273509
9.9084168
9.6922285
9.3362761
9.111537
8.763583
8.5313651
8.1904026
7.9516517
7.6167919
7.3723435
7.0428005
6.793394
6.4684716
6.2147629
5.8938428
5.6364149
5.3189467
5.05832
4.7438113
4.4804521
4.1684605
3.902789
3.5929147
3.3253121
3.017191
2.7480058
2.4413034
2.1708575
1.8652632
1.593857
1.2890793
1.016997
0.71275766
0.44027235
0.13630104
14.328838
13.881028
13.775322
13.323621
13.191496
12.757643
12.606229
12.189768
12.021734
11.620721
11.438169
11.050732
10.855459
10.479931
10.273509
9.9084168
9.6922285
9.3362761
9.111537
8.763583
8.5313651
8.1904027
7.9516517
7.6167919
7.3723435
7.0428005
6.793394
6.4684716
6.2147629
5.8938428
5.6364149
5.3189467
5.05832
4.7438113
4.4804521
4.1684605
3.902789
3.5929147
3.3253121
3.017191
2.7480058
2.4413034
2.1708575
1.8652632
1.593857
1.2890793
1.016997
0.71275765
0.44027237
0.13630104
14.32889
13.881104
13.775338
13.323629
13.191492
12.75764
12.606228
12.189768
12.021734
11.620721
11.438169
11.050732
10.855459
10.479931
10.273509
9.9084169
9.6922284
9.3362762
9.1115369
8.7635831
8.531365
8.1904027
7.9516517
7.6167919
7.3723435
7.0428005
6.793394
6.4684716
6.2147628
5.8938428
5.6364149
5.3189467
5.05832
4.7438113
4.4804521
4.1684605
3.902789
3.5929147
3.3253121
3.017191
2.7480058
2.4413034
2.1708575
1.8652632
1.593857
1.2890793
1.016997
0.71275764
0.44027238
0.13630104
14.328998
13.88118
13.775352
13.323641
13.191485
12.757637
12.606227
12.189768
12.021733
11.620721
11.438169
11.050732
10.855459
10.479931
10.273509
9.9084169
9.6922284
9.3362762
9.1115369
8.7635831
8.531365
8.1904027
7.9516516
7.616792
7.3723435
7.0428005
6.793394
6.4684716
6.2147628
5.8938429
5.6364149
5.3189467
5.05832
4.7438113
4.4804521
4.1684605
3.902789
3.5929147
3.3253121
3.017191
2.7480058
2.4413034
2.1708575
1.8652632
1.593857
1.2890793
1.016997
0.71275764
0.44027238
0.13630104
14.329168
13.881252
13.775367
13.323654
13.191477
12.757634
12.606226
12.189768
12.021733
11.620721
11.438168
11.050732
10.855459
10.479931
10.273509
9.908417
9.6922283
9.3362763
9.1115369
8.7635832
8.531365
8.1904028
7.9516516
7.616792
7.3723434
7.0428006
6.793394
6.4684717
6.2147628
5.8938429
5.6364149
5.3189468
5.05832
4.7438113
4.4804521
4.1684605
3.902789
3.5929147
3.3253121
3.017191
2.7480058
2.4413034
2.1708575
1.8652633
1.593857
1.2890793
1.016997
0.71275764
0.44027238
0.13630105
14.329399
13.881318
13.775383
13.32366
13.191471
12.757632
12.606225
12.189768
12.021733
11.620721
11.438168
11.050732
10.855459
10.479931
10.273509
9.9084171
9.6922283
9.3362763
9.1115368
8.7635832
8.5313649
8.1904028
7.9516515
7.6167921
7.3723434
7.0428006
6.7933939
6.4684717
6.2147628
5.8938429
5.6364148
5.3189468
5.0583199
4.7438113
4.480452
4.1684605
3.902789
3.5929147
3.3253121
3.017191
2.7480058
2.4413034
2.1708574
1.8652633
1.593857
1.2890793
1.016997
0.71275765
0.44027238
0.13630106
14.329692
13.881379
13.775404
13.323654
13.19147
12.757631
12.606225
12.189768
12.021733
11.620721
11.438168
11.050732
10.855459
10.479931
10.273509
9.9084171
9.6922282
9.3362764
9.1115367
8.7635833
8.5313648
8.1904029
7.9516515
7.6167921
7.3723433
7.0428006
6.7933939
6.4684717
6.2147627
5.893843
5.6364148
5.3189468
5.0583199
4.7438114
4.480452
4.1684606
3.902789
3.5929148
3.3253121
3.017191
2.7480058
2.4413034
2.1708574
1.8652633
1.593857
1.2890793
1.016997
0.71275767
0.44027237
0.13630108
14.330044
13.881437
13.775427
13.323641
13.191471
12.757632
12.606225
12.189768
12.021733
11.620721
11.438168
11.050733
10.855459
10.479931
10.273509
9.9084173
9.6922281
9.3362765
9.1115366
8.7635834
8.5313648
8.190403
7.9516514
7.6167922
7.3723433
7.0428007
6.7933938
6.4684718
6.2147627
5.893843
5.6364148
5.3189469
5.0583199
4.7438114
4.480452
4.1684606
3.9027889
3.5929148
3.325312
3.0171911
2.7480058
2.4413035
2.1708574
1.8652633
1.593857
1.2890793
1.016997
0.71275769
0.44027235
0.1363011
14.330458
13.881493
13.775451
13.323628
13.191472
12.757632
12.606224
12.189768
12.021733
11.620722
11.438168
11.050733
10.855459
10.479931
10.273509
9.9084174
9.692228
9.3362766
9.1115365
8.7635835
8.5313647
8.190403
7.9516513
7.6167923
7.3723432
7.0428008
6.7933938
6.4684718
6.2147626
5.8938431
5.6364147
5.3189469
5.0583198
4.7438115
4.4804519
4.1684606
3.9027889
3.5929148
3.325312
3.0171911
2.7480057
2.4413035
2.1708574
1.8652633
1.5938569
1.2890794
1.016997
0.71275771
0.44027232
0.13630113
14.330934
13.881552
13.775475
13.323616
13.191472
12.757632
12.606224
12.189768
12.021732
11.620722
11.438168
11.050733
10.855459
10.479931
10.273509
9.9084175
9.6922278
9.3362767
9.1115364
8.7635836
8.5313646
8.1904031
7.9516512
7.6167923
7.3723431
7.0428008
6.7933937
6.4684719
6.2147625
5.8938431
5.6364147
5.318947
5.0583198
4.7438115
4.4804519
4.1684607
3.9027888
3.5929149
3.325312
3.0171911
2.7480057
2.4413035
2.1708573
1.8652634
1.5938569
1.2890794
1.0169969
0.71275774
0.44027229
0.13630116
14.331472
13.881614
13.775498
13.323605
13.191471
12.757632
12.606224
12.189769
12.021732
11.620722
11.438167
11.050733
10.855458
10.479932
10.273509
9.9084177
9.6922277
9.3362769
9.1115363
8.7635837
8.5313645
8.1904032
7.9516512
7.6167924
7.372343
7.0428009
6.7933936
6.468472
6.2147625
5.8938432
5.6364146
5.318947
5.0583197
4.7438115
4.4804518
4.1684607
3.9027888
3.5929149
3.3253119
3.0171912
2.7480056
2.4413036
2.1708573
1.8652634
1.5938569
1.2890794
1.0169969
0.71275777
0.44027225
0.13630119
14.332075
13.881681
13.77552
13.323597
13.19147
12.757631
12.606223
12.189769
12.021732
11.620722
11.438167
11.050733
10.855458
10.479932
10.273508
9.9084178
9.6922275
9.336277
9.1115361
8.7635838
8.5313643
8.1904034
7.951651
7.6167925
7.3723429
7.042801
6.7933935
6.4684721
6.2147624
5.8938432
5.6364145
5.3189471
5.0583197
4.7438116
4.4804518
4.1684608
3.9027887
3.592915
3.3253119
3.0171912
2.7480056
2.4413036
2.1708573
1.8652635
1.5938568
1.2890795
1.0169969
0.7127578
0.4402722
0.13630122
14.332744
13.881756
13.77554
13.323591
13.191469
12.757631
12.606223
12.189769
12.021731
11.620722
11.438167
11.050733
10.855458
10.479932
10.273508
9.908418
9.6922274
9.3362772
9.111536
8.763584
8.5313642
8.1904035
7.9516509
7.6167926
7.3723428
7.0428011
6.7933934
6.4684722
6.2147623
5.8938433
5.6364145
5.3189472
5.0583196
4.7438117
4.4804517
4.1684608
3.9027887
3.592915
3.3253118
3.0171913
2.7480056
2.4413037
2.1708572
1.8652635
1.5938568
1.2890795
1.0169968
0.71275784
0.44027215
0.13630126
14.333481
13.88184
13.775554
13.323589
13.191467
12.75763
12.606222
12.189769
12.021731
11.620723
11.438167
11.050734
10.855458
10.479932
10.273508
9.9084182
9.6922272
9.3362774
9.1115358
8.7635841
8.5313641
8.1904036
7.9516508
7.6167928
7.3723427
7.0428012
6.7933933
6.4684722
6.2147622
5.8938434
5.6364144
5.3189472
5.0583195
4.7438117
4.4804516
4.1684609
3.9027886
3.5929151
3.3253118
3.0171913
2.7480055
2.4413037
2.1708572
1.8652635
1.5938567
1.2890795
1.0169968
0.71275789
0.4402721
0.13630131
14.334288
13.881934
13.775562
13.323592
13.191465
12.75763
12.606221
12.189769
12.021731
11.620723
11.438166
11.050734
10.855458
10.479932
10.273508
9.9084184
9.692227
9.3362775
9.1115357
8.7635843
8.5313639
8.1904038
7.9516507
7.6167929
7.3723426
7.0428013
6.7933932
6.4684724
6.2147621
5.8938435
5.6364143
5.3189473
5.0583194
4.7438118
4.4804516
4.168461
3.9027886
3.5929151
3.3253117
3.0171914
2.7480054
2.4413038
2.1708571
1.8652636
1.5938567
1.2890796
1.0169967
0.71275794
0.44027203
0.13630135
14.335168
13.88204
13.775562
13.323599
13.191465
12.75763
12.60622
12.18977
12.02173
11.620723
11.438166
11.050734
10.855457
10.479933
10.273507
9.9084187
9.6922268
9.3362777
9.1115355
8.7635845
8.5313637
8.1904039
7.9516505
7.616793
7.3723425
7.0428015
6.7933931
6.4684725
6.214762
5.8938436
5.6364142
5.3189474
5.0583193
4.7438119
4.4804515
4.168461
3.9027885
3.5929152
3.3253116
3.0171914
2.7480054
2.4413038
2.1708571
1.8652637
1.5938566
1.2890796
1.0169967
0.71275799
0.44027197
0.1363014
14.336124
13.882161
13.775555
13.323608
13.191465
12.75763
12.60622
12.18977
12.02173
11.620724
11.438166
11.050735
10.855457
10.479933
10.273507
9.9084189
9.6922265
9.336278
9.1115352
8.7635847
8.5313635
8.1904041
7.9516503
7.6167932
7.3723423
7.0428016
6.793393
6.4684726
6.2147619
5.8938437
5.6364141
5.3189475
5.0583193
4.743812
4.4804514
4.1684611
3.9027884
3.5929153
3.3253116
3.0171915
2.7480053
2.4413039
2.170857
1.8652637
1.5938566
1.2890797
1.0169966
0.71275805
0.44027189
0.13630145
14.337157
13.8823
13.775542
13.323616
13.191465
12.75763
12.606219
12.18977
12.021729
11.620724
11.438165
11.050735
10.855457
10.479933
10.273507
9.9084192
9.6922263
9.3362782
9.111535
8.7635849
8.5313633
8.1904043
7.9516502
7.6167934
7.3723422
7.0428017
6.7933928
6.4684727
6.2147618
5.8938438
5.636414
5.3189476