/*--------------------------------*- C++ -*----------------------------------*\
| =========                 |                                                 |
| \\      /  F ield         | OpenFOAM: The Open Source CFD Toolbox           |
|  \\    /   O peration     | Version:  2312                                  |
|   \\  /    A nd           | Website:  www.openfoam.com                      |
|    \\/     M anipulation  |                                                 |
\*---------------------------------------------------------------------------*/
FoamFile
{
    version     2.0;
    format      ascii;
    arch        "LSB;label=32;scalar=64";
    class       surfaceScalarField;
    location    "7";
    object      phi_0;
}
// * * * * * * * * * * * * * * * * * * * * * * * * * * * * * * * * * * * * * //

dimensions      [0 3 -1 0 0 0 0];

oriented        oriented;

internalField   nonuniform List<scalar> 
7870
(
5.308566e-11
1.2931643e-09
5.192841e-11
1.1573939e-12
5.1958552e-11
-3.0160582e-14
5.1215354e-11
7.4319833e-13
5.2052878e-11
-8.3752438e-13
5.1284635e-11
7.6824323e-13
5.2023471e-11
-7.388361e-13
5.1334595e-11
6.8887603e-13
5.1982986e-11
-6.4839138e-13
5.1375754e-11
6.0723256e-13
5.1945598e-11
-5.6984408e-13
5.1411272e-11
5.3432542e-13
5.1912551e-11
-5.0127832e-13
5.1442303e-11
4.7024779e-13
5.1883544e-11
-4.4124148e-13
5.1469469e-11
4.1407518e-13
5.1858131e-11
-3.8866201e-13
5.1493247e-11
3.6488386e-13
5.183589e-11
-3.426427e-13
5.1514042e-11
3.2184789e-13
5.1816447e-11
-3.0240523e-13
5.1532206e-11
2.8424179e-13
5.1799476e-11
-2.6727022e-13
5.1548045e-11
2.5143107e-13
5.1784689e-11
-2.3664458e-13
5.1561827e-11
2.2286205e-13
5.1771839e-11
-2.1001137e-13
5.1573786e-11
1.9805257e-13
5.1760707e-11
-1.8692104e-13
5.1584123e-11
1.765839e-13
5.1751107e-11
-1.6698379e-13
5.1593013e-11
1.5809366e-13
5.1742876e-11
-1.4986304e-13
5.1600607e-11
1.422697e-13
5.1735876e-11
-1.3526972e-13
5.1607032e-11
1.2884484e-13
5.1729989e-11
-1.2295737e-13
5.1612397e-11
1.1759236e-13
5.1725115e-11
-1.1271801e-13
5.1616792e-11
1.0832216e-13
5.1721171e-11
-1.043786e-13
5.1620293e-11
1.0087755e-13
5.1718092e-11
-9.7798125e-14
5.1622959e-11
9.5132643e-14
5.1715824e-11
-9.2864736e-14
5.1624832e-11
9.0991245e-14
5.1714335e-11
-8.9502418e-14
5.1626072e-11
8.8262817e-14
5.1714635e-11
-8.8562785e-14
8.5015493e-14
1.4960612e-10
2.4898084e-09
1.5083809e-10
-7.4640257e-14
1.5025919e-10
5.4874184e-13
1.493012e-10
1.7011842e-12
1.5050772e-10
-2.0440381e-12
1.4943335e-10
1.8426126e-12
1.5049371e-10
-1.7992009e-12
1.4951111e-10
1.6714794e-12
1.5043931e-10
-1.5765956e-12
1.4957122e-10
1.4753217e-12
1.503864e-10
-1.3850178e-12
1.4962228e-10
1.2984441e-12
1.5033926e-10
-1.2182627e-12
1.4966674e-10
1.1427743e-12
1.5029783e-10
-1.0723353e-12
1.4970563e-10
1.0062745e-12
1.5026152e-10
-9.4454857e-13
1.4973967e-10
8.8673351e-13
1.5022973e-10
-8.3270818e-13
1.4976943e-10
7.8214966e-13
1.5020195e-10
-7.3492009e-13
1.4979543e-10
6.9076088e-13
1.5017769e-10
-6.4953265e-13
1.498181e-10
6.1102548e-13
1.5015655e-10
-5.7510434e-13
1.4983782e-10
5.4159798e-13
1.5013819e-10
-5.1037881e-13
1.4985493e-10
4.8130671e-13
1.5012227e-10
-4.5426343e-13
1.4986972e-10
4.2913412e-13
1.5010855e-10
-4.0581091e-13
1.4988245e-10
3.8419958e-13
1.5009679e-10
-3.6420322e-13
1.4989331e-10
3.4574453e-13
1.5008678e-10
-3.2873779e-13
1.499025e-10
3.1311965e-13
1.5007836e-10
-2.9881562e-13
1.4991018e-10
2.8577394e-13
1.5007139e-10
-2.7393119e-13
1.4991647e-10
2.6324531e-13
1.5006576e-10
-2.536638e-13
1.4992148e-10
2.4515276e-13
1.5006135e-10
-2.3767038e-13
1.499253e-10
2.3118982e-13
1.5005811e-10
-2.2567766e-13
1.4992798e-10
2.2112366e-13
1.5005597e-10
-2.1749292e-13
1.499298e-10
2.1443355e-13
1.5005731e-10
-2.1607823e-13
2.05827e-13
2.4301294e-10
3.5930458e-09
2.4727234e-10
-4.3340697e-12
2.4583635e-10
1.9847345e-12
2.4509537e-10
2.4421615e-12
2.4623135e-10
-3.1800171e-12
2.4526129e-10
2.8126763e-12
2.4625635e-10
-2.7942675e-12
2.4534199e-10
2.5858453e-12
2.4621013e-10
-2.4447335e-12
2.4539976e-10
2.2856831e-12
2.4616142e-10
-2.1466779e-12
2.4544779e-10
2.0120807e-12
2.4611757e-10
-1.8880423e-12
2.4548942e-10
1.7709254e-12
2.4607894e-10
-1.6618537e-12
2.455258e-10
1.5594098e-12
2.4604506e-10
-1.463808e-12
2.4555763e-10
1.3741628e-12
2.460154e-10
-1.2904809e-12
2.4558546e-10
1.2120922e-12
2.4598947e-10
-1.1389328e-12
2.4560977e-10
1.0704689e-12
2.4596684e-10
-1.0066032e-12
2.4563096e-10
9.4690429e-13
2.4594711e-10
-8.9125769e-13
2.4564939e-10
8.3931331e-13
2.4592997e-10
-7.9094923e-13
2.4566539e-10
7.458804e-13
2.4591511e-10
-7.0398443e-13
2.4567922e-10
6.6502873e-13
2.459023e-10
-6.2889512e-13
2.4569111e-10
5.9539362e-13
2.4589132e-10
-5.6441351e-13
2.4570126e-10
5.3579953e-13
2.4588198e-10
-5.0945069e-13
2.4570986e-10
4.852402e-13
2.4587412e-10
-4.6307827e-13
2.4571703e-10
4.4286161e-13
2.4586761e-10
-4.2451261e-13
2.4572291e-10
4.0794748e-13
2.4586235e-10
-3.9310139e-13
2.4572759e-10
3.7990683e-13
2.4585824e-10
-3.6831214e-13
2.4573116e-10
3.5826352e-13
2.458552e-10
-3.4971833e-13
2.4573367e-10
3.4265726e-13
2.4585318e-10
-3.370078e-13
2.4573545e-10
3.3216586e-13
2.4585569e-10
-3.3631825e-13
3.1785283e-13
3.3413114e-10
4.6051648e-09
3.4108269e-10
-1.1285645e-11
3.389291e-10
4.138327e-12
3.3837371e-10
2.9975586e-12
3.3943656e-10
-4.2428739e-12
3.3856939e-10
3.6798493e-12
3.394985e-10
-3.7233814e-12
3.3865225e-10
3.432103e-12
3.3945993e-10
-3.2524182e-12
3.387075e-10
3.0381163e-12
3.3941537e-10
-2.8545473e-12
3.3875243e-10
2.6750173e-12
3.3937478e-10
-2.5103875e-12
3.387912e-10
2.3545032e-12
3.3933894e-10
-2.2095972e-12
3.3882505e-10
2.0733056e-12
3.393075e-10
-1.9462651e-12
3.3885465e-10
1.8270169e-12
3.3927997e-10
-1.7158063e-12
3.3888053e-10
1.6115385e-12
3.392559e-10
-1.5143067e-12
3.3890313e-10
1.4232445e-12
3.3923488e-10
-1.3383606e-12
3.3892283e-10
1.2589595e-12
3.3921657e-10
-1.184997e-12
3.3893997e-10
1.1159118e-12
3.3920065e-10
-1.0516267e-12
3.3895484e-10
9.916875e-13
3.3918685e-10
-9.3599812e-13
3.3896769e-10
8.8419022e-13
3.3917496e-10
-8.361591e-13
3.3897874e-10
7.916056e-13
3.3916475e-10
-7.5042385e-13
3.3898818e-10
7.1237067e-13
3.3915608e-10
-6.7734443e-13
3.3899617e-10
6.4514748e-13
3.3914878e-10
-6.1568627e-13
3.3900284e-10
5.8880038e-13
3.3914273e-10
-5.6440711e-13
3.390083e-10
5.4237665e-13
3.3913784e-10
-5.2263904e-13
3.3901266e-10
5.0508968e-13
3.3913402e-10
-4.8967272e-13
3.3901598e-10
4.763043e-13
3.391312e-10
-4.649363e-13
3.3901831e-10
4.5554096e-13
3.391293e-10
-4.479909e-13
3.3902003e-10
4.4143262e-13
3.3913269e-10
-4.4897818e-13
4.2146675e-13
4.2278119e-10
5.5286335e-09
4.3221909e-10
-2.0723619e-11
4.2953274e-10
6.8246764e-12
4.2913911e-10
3.3911935e-12
4.3012318e-10
-5.2269485e-12
4.2935765e-10
4.4453864e-12
4.3022006e-10
-4.5857988e-12
4.2944178e-10
4.2103849e-12
4.3018862e-10
-3.9992597e-12
4.2949432e-10
3.7324166e-12
4.3014813e-10
-3.5083541e-12
4.2953611e-10
3.2870331e-12
4.301108e-10
-3.0850744e-12
4.29572e-10
2.8933076e-12
4.3007777e-10
-2.7153721e-12
4.2960329e-10
2.5477849e-12
4.3004878e-10
-2.3917505e-12
4.2963066e-10
2.2451396e-12
4.3002339e-10
-2.1085359e-12
4.2965457e-10
1.9803511e-12
4.3000118e-10
-1.8609115e-12
4.2967546e-10
1.7489666e-12
4.2998179e-10
-1.6446905e-12
4.2969366e-10
1.5470847e-12
4.2996489e-10
-1.4562215e-12
4.297095e-10
1.3712996e-12
4.2995019e-10
-1.2923226e-12
4.2972324e-10
1.2186453e-12
4.2993746e-10
-1.1502266e-12
4.2973511e-10
1.0865457e-12
4.2992648e-10
-1.0275342e-12
4.2974532e-10
9.7277115e-13
4.2991707e-10
-9.2217369e-13
4.2975404e-10
8.7540108e-13
4.2990906e-10
-8.3236551e-13
4.2976142e-10
7.9279116e-13
4.2990232e-10
-7.5659223e-13
4.2976758e-10
7.235456e-13
4.2989674e-10
-6.9357261e-13
4.2977262e-10
6.6649307e-13
4.2989222e-10
-6.4223919e-13
4.2977665e-10
6.2066574e-13
4.2988869e-10
-6.0171838e-13
4.2977972e-10
5.8528002e-13
4.2988608e-10
-5.7130085e-13
4.2978188e-10
5.5974466e-13
4.298843e-10
-5.5041212e-13
4.2978351e-10
5.4222323e-13
4.2988836e-10
-5.5382316e-13
5.1661574e-13
5.0894607e-10
6.3659371e-09
5.2068464e-10
-3.2462201e-11
5.1764618e-10
9.8631319e-12
5.1739403e-10
3.6433457e-12
5.1829123e-10
-6.1241464e-12
5.1762598e-10
5.1106299e-12
5.1842118e-10
-5.3809939e-12
5.1771051e-10
4.9210561e-12
5.1839632e-10
-4.6850787e-12
5.1776016e-10
4.3685776e-12
5.1835982e-10
-4.1080128e-12
5.1779877e-10
3.848084e-12
5.1832574e-10
-3.6120434e-12
5.1783176e-10
3.3872938e-12
5.1829551e-10
-3.1791291e-12
5.1786049e-10
2.9828072e-12
5.1826896e-10
-2.8002216e-12
5.1788561e-10
2.6284954e-12
5.182457e-10
-2.4686328e-12
5.1790755e-10
2.3184988e-12
5.1822536e-10
-2.1787151e-12
5.1792672e-10
2.0476078e-12
5.1820759e-10
-1.9255653e-12
5.1794342e-10
1.811256e-12
5.1819211e-10
-1.7049078e-12
5.1795795e-10
1.6054562e-12
5.1817864e-10
-1.5130169e-12
5.1797055e-10
1.4267363e-12
5.1816698e-10
-1.3466527e-12
5.1798144e-10
1.2720802e-12
5.1815692e-10
-1.2030061e-12
5.1799081e-10
1.1388779e-12
5.1814829e-10
-1.0796512e-12
5.1799881e-10
1.0248806e-12
5.1814095e-10
-9.7450441e-13
5.1800557e-10
9.281632e-13
5.1813477e-10
-8.8578877e-13
5.1801123e-10
8.4709119e-13
5.1812966e-10
-8.1200369e-13
5.1801586e-10
7.8029257e-13
5.1812552e-10
-7.5189835e-13
5.1801955e-10
7.2663266e-13
5.1812228e-10
-7.0444748e-13
5.1802237e-10
6.8519014e-13
5.1811988e-10
-6.6881236e-13
5.1802436e-10
6.5526936e-13
5.1811822e-10
-6.4427369e-13
5.1802588e-10
6.3455581e-13
5.1812274e-10
-6.5067537e-13
6.032464e-13
5.9268413e-10
7.1195026e-09
6.0649018e-10
-4.6268263e-11
6.0326703e-10
1.3086282e-11
6.0313882e-10
3.771556e-12
6.0394078e-10
-6.9261073e-12
6.0337425e-10
5.6771573e-12
6.0410198e-10
-6.1087252e-12
6.0345829e-10
5.5647496e-12
6.0408315e-10
-5.3099383e-12
6.035049e-10
4.9468217e-12
6.0405055e-10
-4.6536551e-12
6.035403e-10
4.3583275e-12
6.0401968e-10
-4.0914249e-12
6.0357038e-10
3.836595e-12
6.0399224e-10
-3.6009857e-12
6.0359656e-10
3.3784888e-12
6.0396812e-10
-3.1717828e-12
6.0361943e-10
2.9771862e-12
6.0394698e-10
-2.7961895e-12
6.0363941e-10
2.6260715e-12
6.039285e-10
-2.4677998e-12
6.0365686e-10
2.319248e-12
6.0391235e-10
-2.181058e-12
6.0367206e-10
2.0515442e-12
6.0389827e-10
-1.9311209e-12
6.0368529e-10
1.8184447e-12
6.0388604e-10
-1.7137679e-12
6.0369676e-10
1.6160168e-12
6.0387543e-10
-1.525329e-12
6.0370667e-10
1.4408446e-12
6.0386628e-10
-1.3626223e-12
6.0371519e-10
1.2899717e-12
6.0385844e-10
-1.2228997e-12
6.0372247e-10
1.1608512e-12
6.0385177e-10
-1.1038009e-12
6.0372863e-10
1.0513022e-12
6.0384615e-10
-1.0033128e-12
6.0373377e-10
9.5947318e-13
6.038415e-10
-9.1973509e-13
6.0373798e-10
8.8380922e-13
6.0383773e-10
-8.5164968e-13
6.0374134e-10
8.2302324e-13
6.0383479e-10
-7.9789229e-13
6.0374391e-10
7.7606688e-13
6.038326e-10
-7.5750306e-13
6.0374572e-10
7.4214731e-13
6.0383106e-10
-7.2960953e-13
6.0374714e-10
7.1847606e-13
6.0383588e-10
-7.3941149e-13
6.8139045e-13
6.7405049e-10
7.7917019e-09
6.8965163e-10
-6.1869369e-11
6.8639178e-10
1.6346133e-11
6.8637015e-10
3.7931875e-12
6.8707216e-10
-7.6281138e-12
6.8660224e-10
6.1470685e-12
6.8726259e-10
-6.7690749e-12
6.8668501e-10
6.1423317e-12
6.8724919e-10
-5.8741179e-12
6.8672844e-10
5.4675751e-12
6.8722039e-10
-5.1456055e-12
6.8676061e-10
4.8181016e-12
6.8719271e-10
-4.523519e-12
6.867878e-10
4.2415026e-12
6.8716802e-10
-3.9812088e-12
6.8681143e-10
3.7350851e-12
6.8714632e-10
-3.5066698e-12
6.8683206e-10
3.2914371e-12
6.8712729e-10
-3.0914142e-12
6.8685009e-10
2.9032677e-12
6.8711064e-10
-2.7283495e-12
6.8686583e-10
2.5640621e-12
6.870961e-10
-2.4113317e-12
6.8687954e-10
2.2681043e-12
6.8708343e-10
-2.1350053e-12
6.8689147e-10
2.0104025e-12
6.8707241e-10
-1.8947041e-12
6.8690181e-10
1.7866091e-12
6.8706285e-10
-1.6863702e-12
6.8691075e-10
1.592948e-12
6.8705461e-10
-1.5064855e-12
6.8691844e-10
1.4261507e-12
6.8704755e-10
-1.3520117e-12
6.86925e-10
1.2834013e-12
6.8704153e-10
-1.2203389e-12
6.8693055e-10
1.1622888e-12
6.8703648e-10
-1.1092412e-12
6.8693518e-10
1.0607656e-12
6.8703229e-10
-1.0168378e-12
6.8693898e-10
9.7711178e-13
6.8702889e-10
-9.4155956e-13
6.8694202e-10
9.0990221e-13
6.8702624e-10
-8.8211582e-13
6.8694433e-10
8.5797226e-13
6.8702426e-10
-8.3743415e-13
6.8694597e-10
8.204391e-13
6.8702285e-10
-8.0648208e-13
6.8694727e-10
7.9405476e-13
6.8702781e-10
-8.199564e-13
7.5114443e-13
7.5308282e-10
8.3848692e-09
7.7018766e-10
-7.8974196e-11
7.6701575e-10
1.9518043e-11
7.6708129e-10
3.7276454e-12
7.6768601e-10
-8.2328279e-12
7.6730969e-10
6.5233834e-12
7.679031e-10
-7.3624875e-12
7.6739058e-10
6.6548605e-12
7.6789455e-10
-6.3780895e-12
7.6743068e-10
5.9314433e-12
7.6786943e-10
-5.5843585e-12
7.6745963e-10
5.2279026e-12
7.6784489e-10
-4.9087752e-12
7.6748394e-10
4.6024479e-12
7.6782293e-10
-4.3201964e-12
7.6750504e-10
4.0529747e-12
7.6780361e-10
-3.8052339e-12
7.6752346e-10
3.5715812e-12
7.6778666e-10
-3.3546167e-12
7.6753955e-10
3.1503809e-12
7.6777184e-10
-2.9606381e-12
7.6755359e-10
2.7823096e-12
7.6775889e-10
-2.6166284e-12
7.6756583e-10
2.4611656e-12
7.677476e-10
-2.3167758e-12
7.6757647e-10
2.1815328e-12
7.6773778e-10
-2.0560162e-12
7.6758569e-10
1.938694e-12
7.6772927e-10
-1.8299462e-12
7.6759367e-10
1.7285517e-12
7.6772193e-10
-1.6347478e-12
7.6760052e-10
1.5475593e-12
7.6771563e-10
-1.4671239e-12
7.6760637e-10
1.3926612e-12
7.6771028e-10
-1.324242e-12
7.6761132e-10
1.261241e-12
7.6770577e-10
-1.2036863e-12
7.6761546e-10
1.1510764e-12
7.6770204e-10
-1.1034152e-12
7.6761885e-10
1.0603e-12
7.6769901e-10
-1.0217241e-12
7.6762155e-10
9.8736292e-13
7.6769664e-10
-9.5720881e-13
7.6762362e-10
9.3099513e-13
7.6769488e-10
-9.08693e-13
7.6762509e-10
8.9023097e-13
7.6769359e-10
-8.7497942e-13
7.6762625e-10
8.6138555e-13
7.6769858e-10
-8.9227821e-13
8.1264687e-13
8.2981104e-10
8.9013084e-09
8.4811764e-10
-9.7280746e-11
8.4513345e-10
2.2502231e-11
8.4526547e-10
3.5956322e-12
8.4578331e-10
-8.7506775e-12
8.4549634e-10
6.8103573e-12
8.4602358e-10
-7.8897264e-12
8.4557488e-10
7.103557e-12
8.4601929e-10
-6.8225007e-12
8.4561155e-10
6.3391923e-12
8.4599775e-10
-5.9705624e-12
8.4563728e-10
5.58837e-12
8.4597629e-10
-5.2477778e-12
8.4565875e-10
4.9199881e-12
8.4595701e-10
-4.6184652e-12
8.4567734e-10
4.3326472e-12
8.4594004e-10
-4.0679308e-12
8.4569357e-10
3.8180496e-12
8.4592515e-10
-3.5861993e-12
8.4570774e-10
3.3677914e-12
8.4591212e-10
-3.1650206e-12
8.4572011e-10
2.9743259e-12
8.4590074e-10
-2.7972622e-12
8.4573088e-10
2.6310248e-12
8.4589082e-10
-2.4767102e-12
8.4574025e-10
2.3320988e-12
8.4588219e-10
-2.197951e-12
8.4574838e-10
2.0725051e-12
8.4587471e-10
-1.9562766e-12
8.4575539e-10
1.8478639e-12
8.4586825e-10
-1.7476054e-12
8.4576143e-10
1.6543839e-12
8.4586271e-10
-1.5684124e-12
8.4576658e-10
1.4887986e-12
8.45858e-10
-1.4156693e-12
8.4577093e-10
1.3483108e-12
8.4585404e-10
-1.286793e-12
8.4577457e-10
1.2305443e-12
8.4585076e-10
-1.1796002e-12
8.4577756e-10
1.1335019e-12
8.458481e-10
-1.0922667e-12
8.4577994e-10
1.0555249e-12
8.4584602e-10
-1.0232873e-12
8.4578176e-10
9.9524893e-13
8.4584446e-10
-9.7139095e-13
8.4578306e-10
9.5163269e-13
8.4584329e-10
-9.3521309e-13
8.4578409e-10
9.2058326e-13
8.458482e-10
-9.563841e-13
8.6606817e-13
9.0426531e-10
9.3432933e-09
9.2345928e-10
-1.1647473e-10
9.2073908e-10
2.5222436e-11
9.2091903e-10
3.4156795e-12
9.213652e-10
-9.1968495e-12
9.2116206e-10
7.0135034e-12
9.2162408e-10
-8.3517491e-12
9.2123785e-10
7.4897871e-12
9.2162351e-10
-7.2081581e-12
9.2127096e-10
6.6917358e-12
9.2160541e-10
-6.3050063e-12
9.212935e-10
5.9002749e-12
9.2158696e-10
-5.541235e-12
9.2131215e-10
5.1947963e-12
9.2157033e-10
-4.8766409e-12
9.2132828e-10
4.5746941e-12
9.2155566e-10
-4.2953122e-12
9.2134235e-10
4.0313633e-12
9.215428e-10
-3.7866485e-12
9.2135463e-10
3.5559585e-12
9.2153154e-10
-3.3419264e-12
9.2136534e-10
3.1405167e-12
9.2152169e-10
-2.9536125e-12
9.2137468e-10
2.7780406e-12
9.2151311e-10
-2.6151449e-12
9.2138279e-10
2.4624179e-12
9.2150565e-10
-2.3208068e-12
9.2138983e-10
2.1883246e-12
9.2149918e-10
-2.0656271e-12
9.2139591e-10
1.9511361e-12
9.214936e-10
-1.8452956e-12
9.2140113e-10
1.7468495e-12
9.2148881e-10
-1.6560901e-12
9.2140559e-10
1.5720159e-12
9.2148474e-10
-1.4948129e-12
9.2140937e-10
1.4236814e-12
9.2148131e-10
-1.3587359e-12
9.2141252e-10
1.2993367e-12
9.2147847e-10
-1.2455528e-12
9.214151e-10
1.1968715e-12
9.2147617e-10
-1.1533358e-12
9.2141716e-10
1.114532e-12
9.2147437e-10
-1.0804907e-12
9.2141875e-10
1.0508697e-12
9.2147302e-10
-1.0256613e-12
9.2141987e-10
1.0047756e-12
9.2147198e-10
-9.8731597e-13
9.2142078e-10
9.7178235e-13
9.2147671e-10
-1.0123169e-12
9.1160554e-13
9.7647705e-10
9.7130663e-09
9.9622832e-10
-1.36226e-10
9.9382686e-10
2.7623892e-11
9.9404182e-10
3.2007186e-12
9.9443264e-10
-9.5876726e-12
9.9430682e-10
7.1393278e-12
9.9470465e-10
-8.7495821e-12
9.9437939e-10
7.8150455e-12
9.9470725e-10
-7.5360103e-12
9.9440886e-10
6.9901223e-12
9.9469246e-10
-6.5886085e-12
9.9442823e-10
6.1645084e-12
9.9467696e-10
-5.7899682e-12
9.9444411e-10
5.4276513e-12
9.9466291e-10
-5.095449e-12
9.9445781e-10
4.7798004e-12
9.9465051e-10
-4.4880174e-12
9.9446975e-10
4.2121254e-12
9.9463963e-10
-3.956528e-12
9.9448018e-10
3.7154138e-12
9.946301e-10
-3.4918534e-12
9.9448927e-10
3.2813512e-12
9.9462178e-10
-3.0861194e-12
9.9449719e-10
2.9026278e-12
9.9461451e-10
-2.7324692e-12
9.9450407e-10
2.5728579e-12
9.9460819e-10
-2.4249292e-12
9.9451004e-10
2.2864789e-12
9.9460272e-10
-2.158305e-12
9.945152e-10
2.0386593e-12
9.9459799e-10
-1.9280929e-12
9.9451963e-10
1.8252166e-12
9.9459394e-10
-1.7304034e-12
9.9452341e-10
1.6425472e-12
9.9459049e-10
-1.5618951e-12
9.9452661e-10
1.4875647e-12
9.9458759e-10
-1.4197168e-12
9.9452928e-10
1.3576465e-12
9.9458518e-10
-1.3014581e-12
9.9453147e-10
1.2505868e-12
9.9458323e-10
-1.2051025e-12
9.9453322e-10
1.1645497e-12
9.9458171e-10
-1.1289797e-12
9.9453456e-10
1.0980143e-12
9.9458056e-10
-1.0716578e-12
9.9453552e-10
1.0498108e-12
9.9457965e-10
-1.0314404e-12
9.9453629e-10
1.0151354e-12
9.9458413e-10
-1.0601519e-12
9.4947884e-13
1.0464766e-09
1.001284e-08
1.0664393e-09
-1.561888e-10
1.0643911e-09
2.9672096e-11
1.0646357e-09
2.9561436e-12
1.0649863e-09
-9.9382909e-12
1.0649307e-09
7.1949428e-12
1.0652653e-09
-9.0842389e-12
1.0649995e-09
8.0809413e-12
1.0652706e-09
-7.8071343e-12
1.0650252e-09
7.2355241e-12
1.065259e-09
-6.8224044e-12
1.0650414e-09
6.3820711e-12
1.0652463e-09
-5.9949023e-12
1.0650546e-09
5.6194287e-12
1.0652348e-09
-5.2757056e-12
1.0650659e-09
4.9487357e-12
1.0652246e-09
-4.646766e-12
1.0650757e-09
4.3610138e-12
1.0652157e-09
-4.0964723e-12
1.0650843e-09
3.8467551e-12
1.0652079e-09
-3.6153612e-12
1.0650919e-09
3.3973571e-12
1.065201e-09
-3.1952776e-12
1.0650984e-09
3.005253e-12
1.065195e-09
-2.8291212e-12
1.0651041e-09
2.663832e-12
1.0651898e-09
-2.5107069e-12
1.065109e-09
2.3673353e-12
1.0651853e-09
-2.2346562e-12
1.0651132e-09
2.1107605e-12
1.0651814e-09
-1.996306e-12
1.0651169e-09
1.8897776e-12
1.0651781e-09
-1.7916291e-12
1.06512e-09
1.7006555e-12
1.0651753e-09
-1.6171654e-12
1.0651226e-09
1.5401986e-12
1.0651729e-09
-1.4699626e-12
1.0651248e-09
1.405691e-12
1.0651709e-09
-1.3475238e-12
1.0651266e-09
1.2948474e-12
1.0651693e-09
-1.2477593e-12
1.0651281e-09
1.2057643e-12
1.065168e-09
-1.1689347e-12
1.0651292e-09
1.1368585e-12
1.0651671e-09
-1.1095522e-12
1.06513e-09
1.0869075e-12
1.0651663e-09
-1.0677566e-12
1.0651306e-09
1.0508115e-12
1.0651705e-09
-1.0999938e-12
9.7992656e-13
1.1142878e-09
1.0244802e-08
1.1341059e-09
-1.7600692e-10
1.132427e-09
3.1351048e-11
1.1327029e-09
2.6801493e-12
1.1330265e-09
-1.0261876e-11
1.1330338e-09
7.187708e-12
1.1333062e-09
-9.3566828e-12
1.133098e-09
8.2891854e-12
1.1333136e-09
-8.0227228e-12
1.1331199e-09
7.4292264e-12
1.133305e-09
-7.0075364e-12
1.133133e-09
6.5540637e-12
1.1332951e-09
-6.1570558e-12
1.1331435e-09
5.7710916e-12
1.1332861e-09
-5.4183095e-12
1.1331525e-09
5.082347e-12
1.1332781e-09
-4.7723499e-12
1.1331603e-09
4.4787744e-12
1.133271e-09
-4.2071796e-12
1.1331671e-09
3.9506401e-12
1.1332648e-09
-3.7130663e-12
1.1331731e-09
3.4891149e-12
1.1332594e-09
-3.2816317e-12
1.1331782e-09
3.0864296e-12
1.1332547e-09
-2.905583e-12
1.1331827e-09
2.7357951e-12
1.1332506e-09
-2.5785674e-12
1.1331866e-09
2.4312974e-12
1.133247e-09
-2.2950612e-12
1.13319e-09
2.1677995e-12
1.133244e-09
-2.0502748e-12
1.1331929e-09
1.9408544e-12
1.1332413e-09
-1.8400719e-12
1.1331954e-09
1.7466303e-12
1.1332391e-09
-1.6608988e-12
1.1331975e-09
1.581845e-12
1.1332372e-09
-1.5097228e-12
1.1331992e-09
1.4437088e-12
1.1332357e-09
-1.3839785e-12
1.1332006e-09
1.3298732e-12
1.1332344e-09
-1.2815177e-12
1.1332018e-09
1.2383802e-12
1.1332334e-09
-1.200554e-12
1.1332027e-09
1.1675954e-12
1.1332326e-09
-1.1395338e-12
1.1332033e-09
1.1162515e-12
1.133232e-09
-1.0964507e-12
1.1332038e-09
1.0789951e-12
1.1332358e-09
-1.131974e-12
1.0032022e-12
1.1799217e-09
1.041113e-08
1.1992409e-09
-1.9532612e-10
1.1979351e-09
3.265685e-11
1.1982454e-09
2.3698365e-12
1.1985534e-09
-1.0569876e-11
1.1986161e-09
7.1250224e-12
1.1988273e-09
-9.5678333e-12
1.1986749e-09
8.4415819e-12
1.1988362e-09
-8.1840739e-12
1.1986928e-09
7.5726176e-12
1.1988305e-09
-7.1452432e-12
1.1987029e-09
6.6816771e-12
1.1988234e-09
-6.2775325e-12
1.1987108e-09
5.8836825e-12
1.1988167e-09
-5.5242347e-12
1.1987175e-09
5.1815513e-12
1.1988108e-09
-4.8656273e-12
1.1987234e-09
4.566215e-12
1.1988056e-09
-4.2894066e-12
1.1987285e-09
4.0277808e-12
1.198801e-09
-3.7856363e-12
1.1987329e-09
3.5572535e-12
1.198797e-09
-3.3457717e-12
1.1987367e-09
3.1467133e-12
1.1987935e-09
-2.9623768e-12
1.1987401e-09
2.7892395e-12
1.1987905e-09
-2.6289743e-12
1.198743e-09
2.4788028e-12
1.1987879e-09
-2.3399321e-12
1.1987455e-09
2.2101661e-12
1.1987856e-09
-2.0903671e-12
1.1987477e-09
1.9787957e-12
1.1987836e-09
-1.8760618e-12
1.1987495e-09
1.780785e-12
1.198782e-09
-1.6933928e-12
1.198751e-09
1.6127875e-12
1.1987806e-09
-1.5392676e-12
1.1987523e-09
1.4719584e-12
1.1987794e-09
-1.4110697e-12
1.1987534e-09
1.355902e-12
1.1987785e-09
-1.3066066e-12
1.1987542e-09
1.2626188e-12
1.1987777e-09
-1.2240522e-12
1.1987549e-09
1.1904342e-12
1.1987772e-09
-1.1618068e-12
1.1987554e-09
1.1380437e-12
1.1987767e-09
-1.1177234e-12
1.1987558e-09
1.0998843e-12
1.19878e-09
-1.1562477e-12
1.0195712e-12
1.2433628e-09
1.0514017e-08
1.2618554e-09
-2.1381869e-10
1.2609337e-09
3.3578605e-11
1.2612636e-09
2.039878e-12
1.2615665e-09
-1.0872733e-11
1.2616775e-09
7.0139769e-12
1.2618285e-09
-9.7187844e-12
1.2617301e-09
8.5399624e-12
1.2618386e-09
-8.2926074e-12
1.2617441e-09
7.6671718e-12
1.2618357e-09
-7.2368536e-12
1.2617512e-09
6.7661835e-12
1.2618312e-09
-6.3575134e-12
1.2617565e-09
5.9583162e-12
1.2618268e-09
-5.5945225e-12
1.261761e-09
5.247329e-12
1.2618229e-09
-4.9275161e-12
1.2617649e-09
4.624199e-12
1.2618195e-09
-4.3439624e-12
1.2617683e-09
4.0789387e-12
1.2618165e-09
-3.8337853e-12
1.2617713e-09
3.6024448e-12
1.2618139e-09
-3.3883287e-12
1.2617739e-09
3.1866986e-12
1.2618116e-09
-3.0000612e-12
1.2617761e-09
2.8246918e-12
1.2618096e-09
-2.6624229e-12
1.261778e-09
2.5103191e-12
1.2618078e-09
-2.3697098e-12
1.2617797e-09
2.238277e-12
1.2618063e-09
-2.1169766e-12
1.2617811e-09
2.0039743e-12
1.261805e-09
-1.8999519e-12
1.2617824e-09
1.8034548e-12
1.2618039e-09
-1.7149658e-12
1.2617834e-09
1.6333292e-12
1.261803e-09
-1.5588861e-12
1.2617843e-09
1.4907161e-12
1.2618022e-09
-1.429062e-12
1.261785e-09
1.373188e-12
1.2618016e-09
-1.323271e-12
1.2617855e-09
1.2787169e-12
1.2618011e-09
-1.2396587e-12
1.261786e-09
1.2055982e-12
1.2618007e-09
-1.1765896e-12
1.2617863e-09
1.1524985e-12
1.2618004e-09
-1.1317889e-12
1.2617866e-09
1.11369e-12
1.2618033e-09
-1.1729923e-12
1.0293079e-12
1.3045404e-09
1.0555727e-08
1.321947e-09
-2.3122526e-10
1.3214882e-09
3.403739e-11
1.3217657e-09
1.7623665e-12
1.3220655e-09
-1.117251e-11
1.3222177e-09
6.8617467e-12
1.3223097e-09
-9.810769e-12
1.3222635e-09
8.5861422e-12
1.3223208e-09
-8.3498828e-12
1.3222735e-09
7.7144258e-12
1.3223205e-09
-7.2837846e-12
1.3222777e-09
6.8089254e-12
1.3223185e-09
-6.3982504e-12
1.3222806e-09
5.9961715e-12
1.3223164e-09
-5.6302762e-12
1.322283e-09
5.2807175e-12
1.3223144e-09
-4.958988e-12
1.322285e-09
4.6536403e-12
1.3223127e-09
-4.3717037e-12
1.3222868e-09
4.1049196e-12
1.3223112e-09
-3.8582693e-12
1.3222883e-09
3.6254005e-12
1.3223099e-09
-3.4099707e-12
1.3222896e-09
3.2070146e-12
1.3223088e-09
-3.0192276e-12
1.3222908e-09
2.8427095e-12
1.3223078e-09
-2.6794379e-12
1.3222918e-09
2.5263414e-12
1.3223069e-09
-2.3848611e-12
1.3222926e-09
2.2525732e-12
1.3223062e-09
-2.1305199e-12
1.3222933e-09
2.0167847e-12
1.3223055e-09
-1.9121157e-12
1.322294e-09
1.8149944e-12
1.322305e-09
-1.7259548e-12
1.3222945e-09
1.6437912e-12
1.3223045e-09
-1.5688844e-12
1.3222949e-09
1.5002747e-12
1.3223041e-09
-1.4382358e-12
1.3222953e-09
1.3820007e-12
1.3223038e-09
-1.3317702e-12
1.3222956e-09
1.2869249e-12
1.3223035e-09
-1.2476164e-12
1.3222958e-09
1.2133238e-12
1.3223033e-09
-1.1841133e-12
1.322296e-09
1.1598428e-12
1.3223031e-09
-1.138873e-12
1.3222961e-09
1.1206344e-12
1.3223055e-09
-1.1824043e-12
1.0326935e-12
1.3633624e-09
1.0538614e-08
1.3795009e-09
-2.4736371e-10
1.379683e-09
3.3855253e-11
1.3797761e-09
1.6693321e-12
1.3800539e-09
-1.1450317e-11
1.3802381e-09
6.6774856e-12
1.3802714e-09
-9.8440072e-12
1.3802752e-09
8.5822796e-12
1.3802828e-09
-8.3574327e-12
1.3802812e-09
7.7160306e-12
1.3802849e-09
-7.2875095e-12
1.3802825e-09
6.8113173e-12
1.3802853e-09
-6.401056e-12
1.380283e-09
5.9984868e-12
1.3802854e-09
-5.6326534e-12
1.3802833e-09
5.2828059e-12
1.3802854e-09
-4.9610633e-12
1.3802835e-09
4.6554982e-12
1.3802853e-09
-4.37353e-12
1.3802837e-09
4.1065695e-12
1.3802853e-09
-3.8598822e-12
1.3802838e-09
3.6268674e-12
1.3802852e-09
-3.4113992e-12
1.3802839e-09
3.2083216e-12
1.3802852e-09
-3.020497e-12
1.380284e-09
2.8438776e-12
1.3802852e-09
-2.6805703e-12
1.3802841e-09
2.5273894e-12
1.3802851e-09
-2.385876e-12
1.3802842e-09
2.253518e-12
1.3802851e-09
-2.1314347e-12
1.3802843e-09
2.0176414e-12
1.3802851e-09
-1.9129458e-12
1.3802843e-09
1.8157764e-12
1.3802851e-09
-1.7267136e-12
1.3802843e-09
1.6445105e-12
1.380285e-09
-1.5695837e-12
1.3802844e-09
1.5009415e-12
1.380285e-09
-1.4388853e-12
1.3802844e-09
1.3826228e-12
1.380285e-09
-1.3323764e-12
1.3802844e-09
1.2875063e-12
1.380285e-09
-1.2481803e-12
1.3802845e-09
1.2138593e-12
1.380285e-09
-1.1846204e-12
1.3802845e-09
1.1603148e-12
1.3802848e-09
-1.1392124e-12
1.3802845e-09
1.12095e-12
1.3802868e-09
-1.1846982e-12
1.0300135e-12
1.4199097e-09
1.0464955e-08
1.4345541e-09
-2.6200811e-10
1.4354427e-09
3.2966564e-11
1.435285e-09
1.8270737e-12
1.4355279e-09
-1.1693205e-11
1.4357378e-09
6.4675966e-12
1.4357132e-09
-9.8194265e-12
1.4357651e-09
8.5304004e-12
1.4357246e-09
-8.3169339e-12
1.4357669e-09
7.6736802e-12
1.435729e-09
-7.2495751e-12
1.4357655e-09
6.7748298e-12
1.4357317e-09
-6.3673001e-12
1.4357637e-09
5.9665521e-12
1.4357339e-09
-5.6028619e-12
1.435762e-09
5.2547292e-12
1.4357357e-09
-4.9348059e-12
1.4357604e-09
4.6307726e-12
1.4357373e-09
-4.3503794e-12
1.4357591e-09
4.0847701e-12
1.4357386e-09
-3.8394516e-12
1.4357579e-09
3.6076239e-12
1.4357398e-09
-3.3933457e-12
1.4357568e-09
3.1913081e-12
1.4357409e-09
-3.0045167e-12
1.4357559e-09
2.8288062e-12
1.4357418e-09
-2.6663943e-12
1.4357551e-09
2.5140051e-12
1.4357425e-09
-2.3732656e-12
1.4357545e-09
2.2415942e-12
1.4357432e-09
-2.1201773e-12
1.4357539e-09
2.0069763e-12
1.4357438e-09
-1.9028513e-12
1.4357534e-09
1.8061894e-12
1.4357443e-09
-1.7176115e-12
1.4357529e-09
1.6358387e-12
1.4357447e-09
-1.5613195e-12
1.4357526e-09
1.4930369e-12
1.435745e-09
-1.4313176e-12
1.4357523e-09
1.3753493e-12
1.4357453e-09
-1.3253739e-12
1.435752e-09
1.2807354e-12
1.4357455e-09
-1.2416166e-12
1.4357519e-09
1.2074638e-12
1.4357456e-09
-1.178364e-12
1.4357518e-09
1.1541628e-12
1.4357456e-09
-1.1330533e-12
1.4357517e-09
1.1148788e-12
1.4357471e-09
-1.1801041e-12
1.0215563e-12
1.4743199e-09
1.0336885e-08
1.4871456e-09
-2.7483379e-10
1.488624e-09
3.1488223e-11
1.4882747e-09
2.176389e-12
1.4884828e-09
-1.1901332e-11
1.4887153e-09
6.2350293e-12
1.4886349e-09
-9.7389804e-12
1.4887329e-09
8.4323635e-12
1.4886462e-09
-8.2302138e-12
1.4887308e-09
7.5891038e-12
1.4886528e-09
-7.1715951e-12
1.4887267e-09
6.7009834e-12
1.4886578e-09
-6.2984044e-12
1.4887226e-09
5.9017042e-12
1.4886619e-09
-5.5421537e-12
1.488719e-09
5.197664e-12
1.4886655e-09
-4.8813189e-12
1.4887158e-09
4.5805e-12
1.4886686e-09
-4.3032241e-12
1.4887129e-09
4.0404355e-12
1.4886713e-09
-3.7978357e-12
1.4887105e-09
3.5684772e-12
1.4886737e-09
-3.3565683e-12
1.4887083e-09
3.1566879e-12
1.4886758e-09
-2.9719581e-12
1.4887064e-09
2.7981277e-12
1.4886775e-09
-2.6375056e-12
1.4887048e-09
2.4867501e-12
1.4886791e-09
-2.3475598e-12
1.4887034e-09
2.2173024e-12
1.4886804e-09
-2.0972208e-12
1.4887022e-09
1.9852375e-12
1.4886816e-09
-1.8822568e-12
1.4887011e-09
1.7866361e-12
1.4886825e-09
-1.6990313e-12
1.4887002e-09
1.6181403e-12
1.4886834e-09
-1.5444393e-12
1.4886995e-09
1.4768936e-12
1.488684e-09
-1.4158513e-12
1.4886989e-09
1.3604862e-12
1.4886846e-09
-1.3110573e-12
1.4886984e-09
1.266897e-12
1.488685e-09
-1.2282013e-12
1.4886981e-09
1.1944056e-12
1.4886853e-09
-1.1656064e-12
1.4886978e-09
1.141644e-12
1.4886854e-09
-1.1206508e-12
1.4886976e-09
1.1026711e-12
1.4886864e-09
-1.168866e-12
1.0076115e-12
1.5265872e-09
1.0156548e-08
1.5372675e-09
-2.8551407e-10
1.5392037e-09
2.9552043e-11
1.5387608e-09
2.619297e-12
1.5389199e-09
-1.2060521e-11
1.5391718e-09
5.9831821e-12
1.5390368e-09
-9.6040048e-12
1.5391789e-09
8.2902812e-12
1.5390478e-09
-8.0990743e-12
1.5391727e-09
7.4641165e-12
1.5390564e-09
-7.0552213e-12
1.539166e-09
6.591351e-12
1.5390634e-09
-6.1958334e-12
1.5391598e-09
5.8053222e-12
1.5390695e-09
-5.4518201e-12
1.5391543e-09
5.1128236e-12
1.5390747e-09
-4.8017401e-12
1.5391495e-09
4.5057493e-12
1.5390793e-09
-4.2330672e-12
1.5391453e-09
3.9745083e-12
1.5390833e-09
-3.7359197e-12
1.5391416e-09
3.5102597e-12
1.5390868e-09
-3.3018494e-12
1.5391383e-09
3.1051971e-12
1.5390899e-09
-2.9235136e-12
1.5391355e-09
2.7524943e-12
1.5390925e-09
-2.5945186e-12
1.5391331e-09
2.446204e-12
1.5390948e-09
-2.3093051e-12
1.539131e-09
2.1811592e-12
1.5390968e-09
-2.0630533e-12
1.5391292e-09
1.952887e-12
1.5390985e-09
-1.8516001e-12
1.5391276e-09
1.7575323e-12
1.5390999e-09
-1.6713679e-12
1.5391263e-09
1.5917916e-12
1.5391011e-09
-1.519302e-12
1.5391252e-09
1.4528544e-12