/*--------------------------------*- C++ -*----------------------------------*\
| =========                 |                                                 |
| \\      /  F ield         | OpenFOAM: The Open Source CFD Toolbox           |
|  \\    /   O peration     | Version:  2312                                  |
|   \\  /    A nd           | Website:  www.openfoam.com                      |
|    \\/     M anipulation  |                                                 |
\*---------------------------------------------------------------------------*/
FoamFile
{
    version     2.0;
    format      ascii;
    arch        "LSB;label=32;scalar=64";
    class       volSymmTensorField;
    location    "7";
    object      sigma;
}
// * * * * * * * * * * * * * * * * * * * * * * * * * * * * * * * * * * * * * //

dimensions      [0 2 -2 0 0 0 0];

internalField   nonuniform List<symmTensor> 
4000
(
(-0.3910701 -0.20776999 0 -0.070832959 0 0)
(-0.6680518 -0.14915118 0 -3.0891341e-05 0 0)
(-0.59380337 -0.14066796 0 3.497084e-06 0 0)
(-0.6327889 -0.14530113 0 -2.9519658e-05 0 0)
(-0.60116985 -0.14148598 0 3.2037344e-05 0 0)
(-0.63086011 -0.14508127 0 -2.9358361e-05 0 0)
(-0.60379682 -0.1418036 0 2.8156707e-05 0 0)
(-0.62924413 -0.14488779 0 -2.6261927e-05 0 0)
(-0.60548196 -0.14200924 0 2.470218e-05 0 0)
(-0.62775259 -0.1447087 0 -2.3143767e-05 0 0)
(-0.60689495 -0.14218179 0 2.1710397e-05 0 0)
(-0.62642259 -0.14454887 0 -2.0364165e-05 0 0)
(-0.60812986 -0.14233245 0 1.9098649e-05 0 0)
(-0.62525017 -0.14440787 0 -1.7921657e-05 0 0)
(-0.609216 -0.14246483 0 1.6811604e-05 0 0)
(-0.62421863 -0.14428372 0 -1.5780608e-05 0 0)
(-0.61017271 -0.14258132 0 1.4808565e-05 0 0)
(-0.62331084 -0.1441744 0 -1.3905733e-05 0 0)
(-0.61101609 -0.14268392 0 1.3055393e-05 0 0)
(-0.62251133 -0.14407807 0 -1.226552e-05 0 0)
(-0.61176017 -0.14277436 0 1.1522458e-05 0 0)
(-0.62180643 -0.14399311 0 -1.08323e-05 0 0)
(-0.61241737 -0.14285418 0 1.0183892e-05 0 0)
(-0.6211841 -0.14391809 0 -9.581877e-06 0 0)
(-0.61299862 -0.14292471 0 9.0171146e-06 0 0)
(-0.62063373 -0.14385174 0 -8.4931427e-06 0 0)
(-0.61351364 -0.14298714 0 8.0024421e-06 0 0)
(-0.62014595 -0.14379295 0 -7.5477175e-06 0 0)
(-0.61397104 -0.14304254 0 7.1227576e-06 0 0)
(-0.61971246 -0.14374071 0 -6.7296427e-06 0 0)
(-0.61437847 -0.14309183 0 6.3632223e-06 0 0)
(-0.61932588 -0.14369416 0 -6.0251116e-06 0 0)
(-0.61474276 -0.14313585 0 5.7110263e-06 0 0)
(-0.61897967 -0.14365249 0 -5.4222383e-06 0 0)
(-0.61507003 -0.14317533 0 5.1551749e-06 0 0)
(-0.61866795 -0.14361502 0 -4.9108591e-06 0 0)
(-0.61536575 -0.14321095 0 4.6863079e-06 0 0)
(-0.61838543 -0.1435811 0 -4.4823678e-06 0 0)
(-0.6156349 -0.1432433 0 4.29655e-06 0 0)
(-0.61812734 -0.14355018 0 -4.1295826e-06 0 0)
(-0.61588201 -0.14327294 0 3.9793974e-06 0 0)
(-0.6178893 -0.14352171 0 -3.8466544e-06 0 0)
(-0.61611124 -0.14330035 0 3.7296559e-06 0 0)
(-0.61766728 -0.14349523 0 -3.6290504e-06 0 0)
(-0.61632645 -0.14332601 0 3.5434803e-06 0 0)
(-0.61745749 -0.14347029 0 -3.4737766e-06 0 0)
(-0.61653124 -0.14335033 0 3.4191238e-06 0 0)
(-0.61725649 -0.14344646 0 -3.3768133e-06 0 0)
(-0.61673351 -0.14337418 0 3.3871115e-06 0 0)
(-0.61709752 -0.14342766 0 -3.3339429e-06 0 0)
(-0.35588586 -0.19391695 0 -0.066202123 0 0)
(-0.60577917 -0.14212225 0 -0.00024075422 0 0)
(-0.55253896 -0.13572903 0 -3.384043e-05 0 0)
(-0.58560388 -0.13981076 0 -2.8726385e-05 0 0)
(-0.5577666 -0.13623893 0 3.6393063e-05 0 0)
(-0.58394182 -0.1396181 0 -3.1802906e-05 0 0)
(-0.56008554 -0.1365367 0 3.1776623e-05 0 0)
(-0.58254003 -0.13944029 0 -2.9319982e-05 0 0)
(-0.56157487 -0.1367305 0 2.7743212e-05 0 0)
(-0.58122554 -0.13927205 0 -2.5933747e-05 0 0)
(-0.56282147 -0.13689301 0 2.4353336e-05 0 0)
(-0.58005114 -0.13912157 0 -2.2832165e-05 0 0)
(-0.56391046 -0.13703484 0 2.1418624e-05 0 0)
(-0.57901565 -0.13898877 0 -2.0095988e-05 0 0)
(-0.56486823 -0.13715946 0 1.8853074e-05 0 0)
(-0.57810458 -0.13887184 0 -1.7695815e-05 0 0)
(-0.56571192 -0.13726912 0 1.6606869e-05 0 0)
(-0.5773028 -0.13876888 0 -1.5593765e-05 0 0)
(-0.56645572 -0.13736571 0 1.4641028e-05 0 0)
(-0.57659665 -0.13867815 0 -1.3754794e-05 0 0)
(-0.56711202 -0.13745085 0 1.2922209e-05 0 0)
(-0.57597406 -0.13859813 0 -1.2147927e-05 0 0)
(-0.56769173 -0.137526 0 1.1421386e-05 0 0)
(-0.57542437 -0.13852747 0 -1.0746053e-05 0 0)
(-0.56820452 -0.1375924 0 1.0113237e-05 0 0)
(-0.57493821 -0.13846497 0 -9.5255109e-06 0 0)
(-0.56865894 -0.1376512 0 8.9756957e-06 0 0)
(-0.5745073 -0.13840958 0 -8.4657016e-06 0 0)
(-0.56906259 -0.13770336 0 7.9895758e-06 0 0)
(-0.57412429 -0.13836037 0 -7.5487428e-06 0 0)
(-0.56942222 -0.13774978 0 7.1382491e-06 0 0)
(-0.57378269 -0.1383165 0 -6.7591689e-06 0 0)
(-0.56974386 -0.13779124 0 6.4073681e-06 0 0)
(-0.57347668 -0.13827724 0 -6.083674e-06 0 0)
(-0.57003289 -0.13782844 0 5.7846296e-06 0 0)
(-0.57320107 -0.13824192 0 -5.5108947e-06 0 0)
(-0.57029417 -0.13786201 0 5.2595776e-06 0 0)
(-0.57295121 -0.13820995 0 -5.0312327e-06 0 0)
(-0.57053209 -0.1378925 0 4.8234476e-06 0 0)
(-0.57272284 -0.13818078 0 -4.6367236e-06 0 0)
(-0.57075065 -0.13792044 0 4.4690659e-06 0 0)
(-0.57251211 -0.13815393 0 -4.3209743e-06 0 0)
(-0.57095354 -0.1379463 0 4.1908441e-06 0 0)
(-0.57231543 -0.13812895 0 -4.0792555e-06 0 0)
(-0.57114418 -0.13797051 0 3.9849917e-06 0 0)
(-0.57212943 -0.1381054 0 -3.9092123e-06 0 0)
(-0.57132578 -0.13799347 0 3.8512197e-06 0 0)
(-0.57195078 -0.13808286 0 -3.8053805e-06 0 0)
(-0.57150379 -0.13801567 0 3.8755287e-06 0 0)
(-0.5718011 -0.138064 0 -3.710078e-06 0 0)
(-0.33406001 -0.1840819 0 -0.061742619 0 0)
(-0.56593767 -0.13700236 0 -0.00012957422 0 0)
(-0.52481876 -0.13230054 0 -5.4570651e-05 0 0)
(-0.5550674 -0.13614927 0 -2.7238668e-05 0 0)
(-0.52962973 -0.13272719 0 3.6645443e-05 0 0)
(-0.55357462 -0.13596541 0 -3.0732245e-05 0 0)
(-0.53175701 -0.13301231 0 3.1791929e-05 0 0)
(-0.55230119 -0.13579702 0 -2.9048394e-05 0 0)
(-0.53312168 -0.13319838 0 2.7618642e-05 0 0)
(-0.55109969 -0.13563589 0 -2.5769318e-05 0 0)
(-0.53426241 -0.13335432 0 2.421765e-05 0 0)
(-0.55002519 -0.13549161 0 -2.2697947e-05 0 0)
(-0.53525869 -0.1334904 0 2.1295041e-05 0 0)
(-0.54907771 -0.13536426 0 -1.9979546e-05 0 0)
(-0.53613493 -0.13360994 0 1.8743659e-05 0 0)
(-0.5482441 -0.13525214 0 -1.7593555e-05 0 0)
(-0.53690685 -0.13371515 0 1.651045e-05 0 0)
(-0.54751052 -0.1351534 0 -1.5503706e-05 0 0)
(-0.53758744 -0.13380781 0 1.4556082e-05 0 0)
(-0.54686446 -0.13506639 0 -1.3675386e-05 0 0)
(-0.538188 -0.13388951 0 1.2847314e-05 0 0)
(-0.54629485 -0.13498965 0 -1.2077838e-05 0 0)
(-0.53871852 -0.1339616 0 1.1355277e-05 0 0)
(-0.54579194 -0.13492188 0 -1.0684112e-05 0 0)
(-0.53918783 -0.13402532 0 1.00548e-05 0 0)
(-0.54534715 -0.13486193 0 -9.4706871e-06 0 0)
(-0.53960375 -0.13408174 0 8.9239482e-06 0 0)
(-0.54495289 -0.1348088 0 -8.4170863e-06 0 0)
(-0.53997324 -0.1341318 0 7.9436549e-06 0 0)
(-0.54460245 -0.1347616 0 -7.5055369e-06 0 0)
(-0.54030246 -0.13417635 0 7.0973986e-06 0 0)
(-0.54428986 -0.13471951 0 -6.720673e-06 0 0)
(-0.54059694 -0.13421615 0 6.37093e-06 0 0)
(-0.54400981 -0.13468184 0 -6.0492828e-06 0 0)
(-0.5408616 -0.13425186 0 5.7520402e-06 0 0)
(-0.54375755 -0.13464794 0 -5.4800966e-06 0 0)
(-0.54110088 -0.13428409 0 5.2303716e-06 0 0)
(-0.54352881 -0.13461725 0 -5.0036202e-06 0 0)
(-0.54131881 -0.13431338 0 4.797276e-06 0 0)
(-0.54331971 -0.13458924 0 -4.6120226e-06 0 0)
(-0.54151905 -0.13434022 0 4.445742e-06 0 0)
(-0.54312669 -0.13456345 0 -4.2991177e-06 0 0)
(-0.54170498 -0.13436507 0 4.1704617e-06 0 0)
(-0.54294648 -0.13453944 0 -4.0605765e-06 0 0)
(-0.54187975 -0.13438835 0 3.968235e-06 0 0)
(-0.54277596 -0.1345168 0 -3.8951245e-06 0 0)
(-0.54204632 -0.13441043 0 3.8404297e-06 0 0)
(-0.54261199 -0.13449511 0 -3.7989902e-06 0 0)
(-0.54220932 -0.13443166 0 3.9101579e-06 0 0)
(-0.54247045 -0.13447664 0 -3.8063194e-06 0 0)
(-0.31933237 -0.17552311 0 -0.056858101 0 0)
(-0.52971968 -0.13232137 0 -6.9923314e-05 0 0)
(-0.49757889 -0.12885142 0 -7.9264538e-05 0 0)
(-0.52540954 -0.1324894 0 -2.2735575e-05 0 0)
(-0.50213048 -0.12921521 0 3.3374515e-05 0 0)
(-0.52410812 -0.13231383 0 -2.640832e-05 0 0)
(-0.50409069 -0.12948775 0 2.8851229e-05 0 0)
(-0.52294816 -0.13215478 0 -2.5968692e-05 0 0)
(-0.50534428 -0.12966617 0 2.4875399e-05 0 0)
(-0.52184583 -0.13200066 0 -2.3141764e-05 0 0)
(-0.50639092 -0.12981556 0 2.1776068e-05 0 0)
(-0.52085895 -0.13186247 0 -2.0398138e-05 0 0)
(-0.50730476 -0.12994589 0 1.9142208e-05 0 0)
(-0.51998868 -0.13174049 0 -1.7957587e-05 0 0)
(-0.50810852 -0.13006038 0 1.684781e-05 0 0)
(-0.51922303 -0.13163307 0 -1.5813514e-05 0 0)
(-0.50881662 -0.13016114 0 1.4840358e-05 0 0)
(-0.5185493 -0.13153847 0 -1.3935234e-05 0 0)
(-0.50944098 -0.1302499 0 1.3083704e-05 0 0)
(-0.51795597 -0.13145512 0 -1.2291959e-05 0 0)
(-0.50999196 -0.13032814 0 1.1547837e-05 0 0)
(-0.51743288 -0.13138159 0 -1.08561e-05 0 0)
(-0.5104787 -0.1303972 0 1.0206789e-05 0 0)
(-0.51697107 -0.13131666 0 -9.6034456e-06 0 0)
(-0.5109093 -0.13045824 0 9.0379321e-06 0 0)
(-0.51656264 -0.13125923 0 -8.5128598e-06 0 0)
(-0.51129094 -0.13051228 0 8.0215551e-06 0 0)
(-0.51620061 -0.13120832 0 -7.5659429e-06 0 0)
(-0.51162998 -0.13056025 0 7.1405248e-06 0 0)
(-0.51587883 -0.13116307 0 -6.7467272e-06 0 0)
(-0.51193209 -0.13060294 0 6.3799988e-06 0 0)
(-0.51559182 -0.13112273 0 -6.0414114e-06 0 0)
(-0.51220232 -0.13064108 0 5.7271816e-06 0 0)
(-0.51533469 -0.13108662 0 -5.4381361e-06 0 0)
(-0.51244521 -0.13067532 0 5.1711191e-06 0 0)
(-0.51510307 -0.13105411 0 -4.9267971e-06 0 0)
(-0.51266481 -0.13070622 0 4.7025335e-06 0 0)
(-0.51489305 -0.13102467 0 -4.4989028e-06 0 0)
(-0.51286483 -0.13073431 0 4.3137073e-06 0 0)
(-0.51470106 -0.1309978 0 -4.1474902e-06 0 0)
(-0.51304863 -0.13076007 0 3.9984424e-06 0 0)
(-0.51452383 -0.13097305 0 -3.8671447e-06 0 0)
(-0.5132193 -0.13078392 0 3.7521786e-06 0 0)
(-0.51435836 -0.13094999 0 -3.6542931e-06 0 0)
(-0.51337975 -0.13080628 0 3.5725126e-06 0 0)
(-0.51420177 -0.13092824 0 -3.508732e-06 0 0)
(-0.51353272 -0.1308275 0 3.4620692e-06 0 0)
(-0.51405108 -0.13090738 0 -3.426922e-06 0 0)
(-0.51368205 -0.13084779 0 3.5800978e-06 0 0)
(-0.51391687 -0.13088924 0 -3.5146349e-06 0 0)
(-0.3058984 -0.16733071 0 -0.052169492 0 0)
(-0.49472992 -0.12768204 0 3.123057e-06 0 0)
(-0.47075155 -0.1253533 0 -9.5906357e-05 0 0)
(-0.49656204 -0.12883178 0 -1.9112767e-05 0 0)
(-0.47528218 -0.12569893 0 2.9550779e-05 0 0)
(-0.49550197 -0.12866572 0 -2.1961215e-05 0 0)
(-0.47710738 -0.12595999 0 2.5676471e-05 0 0)
(-0.49444586 -0.12851534 0 -2.2688204e-05 0 0)
(-0.47826118 -0.12613113 0 2.1929582e-05 0 0)
(-0.49343296 -0.12836785 0 -2.0328162e-05 0 0)
(-0.47922316 -0.12627432 0 1.9158348e-05 0 0)
(-0.49252518 -0.12823545 0 -1.7933519e-05 0 0)
(-0.48006287 -0.1263992 0 1.6834794e-05 0 0)
(-0.4917246 -0.12811856 0 -1.5790408e-05 0 0)
(-0.48080143 -0.1265089 0 1.4815901e-05 0 0)
(-0.49102031 -0.12801563 0 -1.3905559e-05 0 0)
(-0.48145214 -0.12660545 0 1.3050365e-05 0 0)
(-0.49040061 -0.12792499 0 -1.2254014e-05 0 0)
(-0.48202592 -0.12669049 0 1.1505557e-05 0 0)
(-0.4898549 -0.12784511 0 -1.0809044e-05 0 0)
(-0.48253228 -0.12676547 0 1.0154943e-05 0 0)
(-0.48937382 -0.12777465 0 -9.54645e-06 0 0)
(-0.48297963 -0.12683165 0 8.975662e-06 0 0)
(-0.48894912 -0.12771243 0 -8.4449549e-06 0 0)
(-0.48337539 -0.12689014 0 7.9478127e-06 0 0)
(-0.48857354 -0.12765738 0 -7.4859774e-06 0 0)
(-0.48372616 -0.12694194 0 7.054062e-06 0 0)
(-0.48824065 -0.12760858 0 -6.6533423e-06 0 0)
(-0.48403778 -0.12698791 0 6.2793457e-06 0 0)
(-0.48794478 -0.12756522 0 -5.9330135e-06 0 0)
(-0.48431546 -0.12702883 0 5.6106165e-06 0 0)
(-0.48768089 -0.12752655 0 -5.3128626e-06 0 0)
(-0.48456383 -0.1270654 0 5.0366306e-06 0 0)
(-0.48744449 -0.12749192 0 -4.7824722e-06 0 0)
(-0.48478706 -0.12709822 0 4.5477686e-06 0 0)
(-0.48723157 -0.12746075 0 -4.3329755e-06 0 0)
(-0.48498889 -0.12712786 0 4.1358949e-06 0 0)
(-0.48703852 -0.12743251 0 -3.9569362e-06 0 0)
(-0.48517271 -0.12715481 0 3.7942633e-06 0 0)
(-0.48686205 -0.12740673 0 -3.6482862e-06 0 0)
(-0.48534161 -0.12717952 0 3.5174982e-06 0 0)
(-0.48669917 -0.12738298 0 -3.4023698e-06 0 0)
(-0.48549844 -0.12720242 0 3.3017422e-06 0 0)
(-0.4865471 -0.12736084 0 -3.2162734e-06 0 0)
(-0.48564587 -0.12722388 0 3.1452134e-06 0 0)
(-0.48640322 -0.12733995 0 -3.0905271e-06 0 0)
(-0.48578642 -0.12724428 0 3.0511136e-06 0 0)
(-0.48626469 -0.12731989 0 -3.0211913e-06 0 0)
(-0.48592336 -0.12726369 0 3.2044194e-06 0 0)
(-0.48613798 -0.12730215 0 -3.1787053e-06 0 0)
(-0.2928932 -0.15938136 0 -0.047708293 0 0)
(-0.46142982 -0.12313466 0 8.9961704e-05 0 0)
(-0.44448506 -0.12182115 0 -0.00010384537 0 0)
(-0.46852748 -0.12517441 0 -1.6338818e-05 0 0)
(-0.44911193 -0.12217938 0 2.589606e-05 0 0)
(-0.46773207 -0.12502005 0 -1.8076619e-05 0 0)
(-0.45082961 -0.12243005 0 2.2913029e-05 0 0)
(-0.46677492 -0.12487798 0 -1.9815308e-05 0 0)
(-0.45189274 -0.1225942 0 1.9352561e-05 0 0)
(-0.46584429 -0.12473686 0 -1.7864327e-05 0 0)
(-0.45277711 -0.12273141 0 1.6867064e-05 0 0)
(-0.46500914 -0.12461003 0 -1.5775546e-05 0 0)
(-0.45354883 -0.12285104 0 1.4814974e-05 0 0)
(-0.46427255 -0.12449804 0 -1.3892922e-05 0 0)
(-0.4542276 -0.12295613 0 1.3037196e-05 0 0)
(-0.46362459 -0.12439943 0 -1.2235048e-05 0 0)
(-0.45482565 -0.12304862 0 1.1483396e-05 0 0)
(-0.4630545 -0.12431258 0 -1.0782017e-05 0 0)
(-0.45535303 -0.12313009 0 1.0124007e-05 0 0)
(-0.4625525 -0.12423605 0 -9.5106631e-06 0 0)
(-0.45581846 -0.12320192 0 8.9355357e-06 0 0)
(-0.46210999 -0.12416854 0 -8.3997564e-06 0 0)
(-0.45622967 -0.12326532 0 7.8978401e-06 0 0)
(-0.46171936 -0.12410892 0 -7.4305895e-06 0 0)
(-0.45659347 -0.12332137 0 6.993403e-06 0 0)
(-0.46137392 -0.12405618 0 -6.5868182e-06 0 0)
(-0.45691591 -0.123371 0 6.2069716e-06 0 0)
(-0.46106777 -0.12400942 0 -5.854214e-06 0 0)
(-0.45720236 -0.12341505 0 5.5252912e-06 0 0)
(-0.46079568 -0.12396786 0 -5.2204312e-06 0 0)
(-0.45745761 -0.12345427 0 4.9368839e-06 0 0)
(-0.46055302 -0.1239308 0 -4.6748036e-06 0 0)
(-0.45768593 -0.12348931 0 4.4318608e-06 0 0)
(-0.46033565 -0.1238976 0 -4.2081735e-06 0 0)
(-0.45789112 -0.12352078 0 4.0017668e-06 0 0)
(-0.46013989 -0.12386772 0 -3.812752e-06 0 0)
(-0.45807664 -0.12354919 0 3.6394586e-06 0 0)
(-0.45996241 -0.12384065 0 -3.4820177e-06 0 0)
(-0.45824558 -0.12357503 0 3.3390279e-06 0 0)
(-0.45980019 -0.12381593 0 -3.2106694e-06 0 0)
(-0.45840081 -0.12359873 0 3.0957964e-06 0 0)
(-0.45965048 -0.12379314 0 -2.9946834e-06 0 0)
(-0.45854493 -0.1236207 0 2.9064746e-06 0 0)
(-0.45951073 -0.1237719 0 -2.8316525e-06 0 0)
(-0.45868039 -0.1236413 0 2.7697126e-06 0 0)
(-0.45937852 -0.12375184 0 -2.7225559e-06 0 0)
(-0.45880953 -0.12366089 0 2.6888308e-06 0 0)
(-0.45925121 -0.12373257 0 -2.6626041e-06 0 0)
(-0.45893508 -0.12367946 0 2.8665033e-06 0 0)
(-0.45913192 -0.12371524 0 -2.8731335e-06 0 0)
(-0.28039964 -0.15171229 0 -0.043453037 0 0)
(-0.42980355 -0.11867522 0 0.00019194759 0 0)
(-0.41880417 -0.11825983 0 -0.00010375562 0 0)
(-0.44133103 -0.12151615 0 -1.3510139e-05 0 0)
(-0.42363478 -0.11865702 0 2.2431902e-05 0 0)
(-0.44078784 -0.12137607 0 -1.4667056e-05 0 0)
(-0.42526655 -0.11889843 0 2.0483198e-05 0 0)
(-0.43992602 -0.12124215 0 -1.7281566e-05 0 0)
(-0.42624722 -0.11905584 0 1.7078809e-05 0 0)
(-0.43907176 -0.12110719 0 -1.5689918e-05 0 0)
(-0.42706007 -0.11918724 0 1.4844946e-05 0 0)
(-0.43830378 -0.12098577 0 -1.3871087e-05 0 0)
(-0.42776905 -0.11930178 0 1.3032406e-05 0 0)
(-0.43762635 -0.12087855 0 -1.2218349e-05 0 0)
(-0.42839263 -0.1194024 0 1.1467411e-05 0 0)
(-0.43703046 -0.12078412 0 -1.0760774e-05 0 0)
(-0.42894209 -0.11949094 0 1.0100465e-05 0 0)
(-0.43650621 -0.12070097 0 -9.4829247e-06 0 0)
(-0.42942664 -0.11956895 0 8.9047066e-06 0 0)
(-0.43604461 -0.12062768 0 -8.3647779e-06 0 0)
(-0.42985429 -0.11963772 0 7.8593229e-06 0 0)
(-0.43563773 -0.12056304 0 -7.3877259e-06 0 0)
(-0.43023213 -0.11969843 0 6.9465707e-06 0 0)
(-0.43527857 -0.12050595 0 -6.5353281e-06 0 0)
(-0.43056642 -0.11975209 0 6.1510366e-06 0 0)
(-0.43496099 -0.12045544 0 -5.7932138e-06 0 0)
(-0.43086271 -0.11979962 0 5.4593031e-06 0 0)
(-0.43467953 -0.12041066 0 -5.1488717e-06 0 0)
(-0.43112594 -0.1198418 0 4.8597118e-06 0 0)
(-0.43442941 -0.12037086 0 -4.5914465e-06 0 0)
(-0.43136049 -0.11987937 0 4.3421685e-06 0 0)
(-0.43420635 -0.12033536 0 -4.1115615e-06 0 0)
(-0.43157029 -0.11991293 0 3.8979785e-06 0 0)
(-0.43400656 -0.12030356 0 -3.7011681e-06 0 0)
(-0.43175883 -0.11994307 0 3.5197111e-06 0 0)
(-0.43382664 -0.12027494 0 -3.3534251e-06 0 0)
(-0.43192929 -0.1199703 0 3.2010944e-06 0 0)
(-0.43366353 -0.12024899 0 -3.0626122e-06 0 0)
(-0.43208452 -0.11999506 0 2.9369516e-06 0 0)
(-0.43351447 -0.1202253 0 -2.8240943e-06 0 0)
(-0.43222713 -0.12001778 0 2.7232046e-06 0 0)
(-0.43337691 -0.12020345 0 -2.6343845e-06 0 0)
(-0.43235952 -0.12003884 0 2.5570344e-06 0 0)
(-0.43324853 -0.12018308 0 -2.4914758e-06 0 0)
(-0.43248395 -0.1200586 0 2.4374011e-06 0 0)
(-0.43312708 -0.12016384 0 -2.396617e-06 0 0)
(-0.43260256 -0.12007739 0 2.3674811e-06 0 0)
(-0.43301013 -0.12014534 0 -2.3440267e-06 0 0)
(-0.43271764 -0.12009517 0 2.5609675e-06 0 0)
(-0.43289812 -0.12012845 0 -2.5955277e-06 0 0)
(-0.26849025 -0.14433291 0 -0.039381103 0 0)
(-0.39984099 -0.11430676 0 0.00030625712 0 0)
(-0.3937018 -0.11467239 0 -9.7242923e-05 0 0)
(-0.41501694 -0.11785902 0 -9.8843735e-06 0 0)
(-0.39886652 -0.11513211 0 1.9241369e-05 0 0)
(-0.41466593 -0.11773362 0 -1.1571876e-05 0 0)
(-0.40042373 -0.11536528 0 1.8260108e-05 0 0)
(-0.41389435 -0.1176077 0 -1.4966315e-05 0 0)
(-0.40132921 -0.1155162 0 1.4995175e-05 0 0)
(-0.41311113 -0.11747874 0 -1.36992e-05 0 0)
(-0.40207606 -0.11564195 0 1.2992693e-05 0 0)
(-0.41240538 -0.11736257 0 -1.2127101e-05 0 0)
(-0.40272706 -0.11575153 0 1.1399741e-05 0 0)
(-0.41178273 -0.11725998 0 -1.0684804e-05 0 0)
(-0.40329962 -0.11584779 0 1.0029658e-05 0 0)
(-0.41123505 -0.11716963 0 -9.4106326e-06 0 0)
(-0.40380415 -0.11593251 0 8.8338517e-06 0 0)
(-0.41075323 -0.11709006 0 -8.2931953e-06 0 0)
(-0.4042491 -0.11600713 0 7.7879562e-06 0 0)
(-0.41032903 -0.11701994 0 -7.3153408e-06 0 0)
(-0.40464183 -0.11607294 0 6.8736178e-06 0 0)
(-0.40995513 -0.11695809 0 -6.4608594e-06 0 0)
(-0.40498882 -0.11613102 0 6.0752907e-06 0 0)
(-0.4096251 -0.11690346 0 -5.7153853e-06 0 0)
(-0.40529582 -0.11618237 0 5.3794881e-06 0 0)
(-0.40933329 -0.11685512 0 -5.0663544e-06 0 0)
(-0.40556793 -0.11622784 0 4.7744733e-06 0 0)
(-0.4090747 -0.11681227 0 -4.5028272e-06 0 0)
(-0.40580968 -0.11626822 0 4.2500494e-06 0 0)
(-0.4088449 -0.11677418 0 -4.0153125e-06 0 0)
(-0.40602509 -0.11630416 0 3.7973888e-06 0 0)
(-0.40863997 -0.1167402 0 -3.5956127e-06 0 0)
(-0.40621776 -0.11633629 0 3.4088893e-06 0 0)
(-0.40845644 -0.11670977 0 -3.236693e-06 0 0)
(-0.40639092 -0.11636514 0 3.078056e-06 0 0)
(-0.40829117 -0.11668236 0 -2.9325773e-06 0 0)
(-0.40654745 -0.11639121 0 2.7994116e-06 0 0)
(-0.40814135 -0.11665752 0 -2.678274e-06 0 0)
(-0.40669 -0.11641492 0 2.5684425e-06 0 0)
(-0.40800445 -0.11663483 0 -2.4697491e-06 0 0)
(-0.40682094 -0.11643668 0 2.3816088e-06 0 0)
(-0.40787813 -0.1166139 0 -2.3039909e-06 0 0)
(-0.4069425 -0.11645686 0 2.2364987e-06 0 0)
(-0.40776024 -0.11659438 0 -2.1793225e-06 0 0)
(-0.40705674 -0.1164758 0 2.1323011e-06 0 0)
(-0.40764874 -0.11657594 0 -2.0971382e-06 0 0)
(-0.40716562 -0.11649381 0 2.0718855e-06 0 0)
(-0.40754137 -0.1165582 0 -2.0506092e-06 0 0)
(-0.40727105 -0.11651082 0 2.2743893e-06 0 0)
(-0.40743649 -0.11654175 0 -2.3342351e-06 0 0)
(-0.257145 -0.13723058 0 -0.035484225 0 0)
(-0.37151486 -0.11002881 0 0.00043061531 0 0)
(-0.36919327 -0.11106157 0 -8.5509125e-05 0 0)
(-0.38959434 -0.11420403 0 -5.2528111e-06 0 0)
(-0.37482098 -0.11160495 0 1.6530272e-05 0 0)
(-0.38936412 -0.11409275 0 -8.7103696e-06 0 0)
(-0.37630611 -0.11183063 0 1.6199163e-05 0 0)
(-0.38867604 -0.1139746 0 -1.2822648e-05 0 0)
(-0.37714255 -0.11197528 0 1.3058172e-05 0 0)
(-0.38795889 -0.11385147 0 -1.1851655e-05 0 0)
(-0.37782844 -0.11209554 0 1.127223e-05 0 0)
(-0.38731087 -0.11374041 0 -1.0507879e-05 0 0)
(-0.37842579 -0.1122003 0 9.883513e-06 0 0)
(-0.386739 -0.11364233 0 -9.2608498e-06 0 0)
(-0.37895114 -0.11229232 0 8.69448e-06 0 0)
(-0.38623599 -0.11355594 0 -8.1569443e-06 0 0)
(-0.37941409 -0.11237331 0 7.6576074e-06 0 0)
(-0.38579351 -0.11347987 0 -7.1884409e-06 0 0)
(-0.37982239 -0.11244466 0 6.7508783e-06 0 0)
(-0.38540396 -0.11341282 0 -6.3408417e-06 0 0)
(-0.38018278 -0.11250757 0 5.9582282e-06 0 0)
(-0.38506062 -0.11335368 0 -5.600161e-06 0 0)
(-0.38050121 -0.1125631 0 5.2661526e-06 0 0)
(-0.38475758 -0.11330144 0 -4.9539589e-06 0 0)
(-0.38078295 -0.1126122 0 4.6629543e-06 0 0)
(-0.38448965 -0.11325522 0 -4.3913479e-06 0 0)
(-0.38103267 -0.11265568 0 4.138457e-06 0 0)
(-0.38425222 -0.11321424 0 -3.9028472e-06 0 0)
(-0.38125453 -0.11269429 0 3.683821e-06 0 0)
(-0.38404125 -0.11317782 0 -3.4802312e-06 0 0)
(-0.38145223 -0.11272867 0 3.2913939e-06 0 0)
(-0.38385313 -0.11314532 0 -3.116396e-06 0 0)
(-0.38162905 -0.11275939 0 2.9545867e-06 0 0)
(-0.38368465 -0.11311621 0 -2.8052467e-06 0 0)
(-0.38178795 -0.11278699 0 2.667772e-06 0 0)
(-0.38353294 -0.11308999 0 -2.5416074e-06 0 0)
(-0.38193161 -0.11281192 0 2.4262068e-06 0 0)
(-0.38339544 -0.11306622 0 -2.3211589e-06 0 0)
(-0.38206241 -0.11283461 0 2.2259882e-06 0 0)
(-0.38326979 -0.11304451 0 -2.1404183e-06 0 0)
(-0.38218256 -0.11285544 0 2.0640657e-06 0 0)
(-0.38315387 -0.11302448 0 -1.9968001e-06 0 0)
(-0.38229409 -0.11287476 0 1.9383848e-06 0 0)
(-0.38304571 -0.11300579 0 -1.8889034e-06 0 0)
(-0.38239889 -0.11289289 0 1.848301e-06 0 0)
(-0.38294342 -0.11298813 0 -1.8181694e-06 0 0)
(-0.38249876 -0.11291015 0 1.7962621e-06 0 0)
(-0.38284492 -0.11297112 0 -1.776694e-06 0 0)
(-0.3825953 -0.11292643 0 2.0019744e-06 0 0)
(-0.38274693 -0.11295515 0 -2.0854765e-06 0 0)
(-0.2463175 -0.13038966 0 -0.031759951 0 0)
(-0.34479314 -0.10583994 0 0.00056356646 0 0)
(-0.34535725 -0.10743403 0 -6.9199082e-05 0 0)
(-0.36501979 -0.11054866 0 1.1445722e-07 0 0)
(-0.35150524 -0.10807583 0 1.4467719e-05 0 0)
(-0.36487821 -0.11045342 0 -6.0456771e-06 0 0)
(-0.35291796 -0.1082945 0 1.4290297e-05 0 0)
(-0.36426743 -0.11034283 0 -1.0835659e-05 0 0)
(-0.35369078 -0.1084331 0 1.1254823e-05 0 0)
(-0.3636118 -0.11022537 0 -1.0135251e-05 0 0)
(-0.35432029 -0.10854803 0 9.6722004e-06 0 0)
(-0.36301739 -0.11011929 0 -9.002786e-06 0 0)
(-0.35486795 -0.10864811 0 8.4737665e-06 0 0)
(-0.36249265 -0.11002557 0 -7.9371151e-06 0 0)
(-0.35534956 -0.10873601 0 7.4531208e-06 0 0)
(-0.36203111 -0.10994304 0 -6.991458e-06 0 0)
(-0.35577397 -0.10881338 0 6.5640185e-06 0 0)
(-0.36162512 -0.10987036 0 -6.1613932e-06 0 0)
(-0.3561483 -0.10888153 0 5.7866725e-06 0 0)
(-0.36126772 -0.10980631 0 -5.4348724e-06 0 0)
(-0.35647872 -0.10894163 0 5.1071525e-06 0 0)
(-0.36095273 -0.1097498 0 -4.7999742e-06 0 0)
(-0.35677068 -0.10899469 0 4.5138532e-06 0 0)
(-0.36067473 -0.10969989 0 -4.246048e-06 0 0)
(-0.35702901 -0.10904159 0 3.9967409e-06 0 0)
(-0.36042895 -0.10965573 0 -3.7637645e-06 0 0)
(-0.35725798 -0.10908314 0 3.5470904e-06 0 0)
(-0.36021116 -0.10961658 0 -3.3449981e-06 0 0)
(-0.35746141 -0.10912003 0 3.157323e-06 0 0)
(-0.36001765 -0.10958176 0 -2.9826993e-06 0 0)
(-0.35764268 -0.10915288 0 2.8208786e-06 0 0)
(-0.3598451 -0.10955071 0 -2.6707796e-06 0 0)
(-0.3578048 -0.10918224 0 2.5321092e-06 0 0)
(-0.35969058 -0.10952289 0 -2.4040164e-06 0 0)
(-0.3579505 -0.10920862 0 2.286192e-06 0 0)
(-0.35955146 -0.10949783 0 -2.1779754e-06 0 0)
(-0.35808221 -0.10923245 0 2.079064e-06 0 0)
(-0.35942537 -0.1094751 0 -1.9889589e-06 0 0)
(-0.35820213 -0.10925414 0 1.9073852e-06 0 0)
(-0.35931016 -0.10945434 0 -1.8339896e-06 0 0)
(-0.35831228 -0.10927406 0 1.7685516e-06 0 0)
(-0.35920388 -0.10943518 0 -1.7108664e-06 0 0)
(-0.35841451 -0.10929254 0 1.6608232e-06 0 0)
(-0.35910472 -0.1094173 0 -1.6184183e-06 0 0)
(-0.35851057 -0.10930989 0 1.5836719e-06 0 0)
(-0.35901097 -0.1094004 0 -1.5580536e-06 0 0)
(-0.3586021 -0.10932641 0 1.5390463e-06 0 0)
(-0.35892071 -0.10938412 0 -1.5207918e-06 0 0)
(-0.3586904 -0.10934198 0 1.7429554e-06 0 0)
(-0.35882939 -0.10936863 0 -1.8488689e-06 0 0)
(-0.2359632 -0.12379656 0 -0.028205578 0 0)
(-0.3196353 -0.10173813 0 0.00070432568 0 0)
(-0.32228186 -0.10379667 0 -4.8777746e-05 0 0)
(-0.34124752 -0.10689049 0 5.8271952e-06 0 0)
(-0.32892137 -0.10454487 0 1.3105137e-05 0 0)
(-0.34120341 -0.10681555 0 -3.5619621e-06 0 0)
(-0.33026276 -0.10475693 0 1.2523746e-05 0 0)
(-0.3406652 -0.10671235 0 -8.994723e-06 0 0)
(-0.33097704 -0.10488971 0 9.5757907e-06 0 0)
(-0.34006695 -0.10660041 0 -8.5414268e-06 0 0)
(-0.33155437 -0.10499945 0 8.1844579e-06 0 0)
(-0.33952241 -0.10649915 0 -7.604241e-06 0 0)
(-0.33205595 -0.10509497 0 7.1633747e-06 0 0)
(-0.33904146 -0.1064097 0 -6.7069118e-06 0 0)
(-0.33249698 -0.10517887 0 6.2993149e-06 0 0)
(-0.33861844 -0.10633092 0 -5.9082838e-06 0 0)
(-0.33288565 -0.10525272 0 5.5475688e-06 0 0)
(-0.33824635 -0.10626153 0 -5.2068642e-06 0 0)
(-0.33322846 -0.10531778 0 4.890477e-06 0 0)
(-0.33791881 -0.10620039 0 -4.5928591e-06 0 0)
(-0.33353107 -0.10537514 0 4.3161015e-06 0 0)
(-0.33763015 -0.10614644 0 -4.0562621e-06 0 0)
(-0.33379847 -0.10542579 0 3.8146034e-06 0 0)
(-0.33737541 -0.1060988 0 -3.5880846e-06 0 0)
(-0.33403507 -0.10547056 0 3.3774956e-06 0 0)
(-0.33715019 -0.10605664 0 -3.1804448e-06 0 0)
(-0.33424479 -0.10551022 0 2.9974014e-06 0 0)
(-0.33695064 -0.10601925 0 -2.8264762e-06 0 0)
(-0.33443111 -0.10554544 0 2.6679139e-06 0 0)
(-0.33677334 -0.10598602 0 -2.5202212e-06 0 0)
(-0.33459713 -0.1055768 0 2.3834877e-06 0 0)
(-0.33661526 -0.10595636 0 -2.2565347e-06 0 0)
(-0.33474562 -0.10560484 0 2.1393486e-06 0 0)
(-0.3364737 -0.10592979 0 -2.0310028e-06 0 0)
(-0.33487906 -0.10563003 0 1.9314203e-06 0 0)
(-0.33634626 -0.10590586 0 -1.8398791e-06 0 0)
(-0.33499968 -0.1056528 0 1.7562696e-06 0 0)
(-0.33623076 -0.10588416 0 -1.6800402e-06 0 0)
(-0.33510951 -0.10567352 0 1.6110755e-06 0 0)
(-0.33612524 -0.10586432 0 -1.5489732e-06 0 0)
(-0.33521037 -0.10569255 0 1.4936419e-06 0 0)
(-0.33602791 -0.10584601 0 -1.4448244e-06 0 0)
(-0.33530398 -0.10571021 0 1.4025067e-06 0 0)
(-0.33593711 -0.10582892 0 -1.366615e-06 0 0)
(-0.33539192 -0.10572679 0 1.337219e-06 0 0)
(-0.33585128 -0.10581276 0 -1.3156586e-06 0 0)
(-0.33547571 -0.10574259 0 1.2991862e-06 0 0)
(-0.33576866 -0.10579718 0 -1.2819316e-06 0 0)
(-0.33555639 -0.10575748 0 1.4970353e-06 0 0)
(-0.33568376 -0.10578219 0 -1.6243411e-06 0 0)
(-0.22603773 -0.11743938 0 -0.024817711 0 0)
(-0.29599191 -0.097720403 0 0.00085280006 0 0)
(-0.30002448 -0.10015462 0 -2.5176317e-05 0 0)
(-0.31825794 -0.10322931 0 1.1591948e-05 0 0)
(-0.30707032 -0.10101214 0 1.2383982e-05 0 0)
(-0.31833587 -0.10317912 0 -1.2567969e-06 0 0)
(-0.30834352 -0.10121798 0 1.0883747e-05 0 0)
(-0.31786642 -0.10308311 0 -7.2889499e-06 0 0)
(-0.30900406 -0.10134513 0 8.0106443e-06 0 0)
(-0.31732181 -0.10297654 0 -7.0607311e-06 0 0)
(-0.30953308 -0.10144984 0 6.7999844e-06 0 0)
(-0.31682369 -0.10287999 0 -6.303866e-06 0 0)
(-0.30999191 -0.10154093 0 5.944445e-06 0 0)
(-0.31638348 -0.10279467 0 -5.562848e-06 0 0)
(-0.31039526 -0.10162094 0 5.226125e-06 0 0)
(-0.31599627 -0.10271953 0 -4.9009105e-06 0 0)
(-0.31075073 -0.10169136 0 4.6021499e-06 0 0)
(-0.31565571 -0.10265335 0 -4.319117e-06 0 0)
(-0.31106428 -0.10175341 0 4.0569081e-06 0 0)
(-0.31535593 -0.10259503 0 -3.809743e-06 0 0)
(-0.31134106 -0.10180812 0 3.5803252e-06 0 0)
(-0.31509175 -0.10254358 0 -3.3645588e-06 0 0)
(-0.31158565 -0.10185642 0 3.1642068e-06 0 0)
(-0.31485862 -0.10249814 0 -2.9761206e-06 0 0)
(-0.31180206 -0.10189912 0 2.8015049e-06 0 0)
(-0.31465252 -0.10245792 0 -2.6378919e-06 0 0)
(-0.3119939 -0.10193695 0 2.486097e-06 0 0)
(-0.31446992 -0.10242226 0 -2.3441768e-06 0 0)
(-0.31216433 -0.10197054 0 2.212666e-06 0 0)
(-0.31430769 -0.10239056 0 -2.0900325e-06 0 0)
(-0.31231619 -0.10200046 0 1.9766098e-06 0 0)
(-0.31416305 -0.10236227 0 -1.8711903e-06 0 0)
(-0.31245202 -0.10202721 0 1.773966e-06 0 0)
(-0.31403353 -0.10233692 0 -1.6839879e-06 0 0)
(-0.31257407 -0.10205124 0 1.6013518e-06 0 0)
(-0.31391694 -0.10231408 0 -1.5253166e-06 0 0)
(-0.3126844 -0.10207297 0 1.4559177e-06 0 0)
(-0.31381128 -0.10229337 0 -1.3925846e-06 0 0)
(-0.31278484 -0.10209274 0 1.3353225e-06 0 0)
(-0.31371477 -0.10227443 0 -1.2837069e-06 0 0)
(-0.31287709 -0.10211091 0 1.2377433e-06 0 0)
(-0.31362575 -0.10225696 0 -1.1971444e-06 0 0)
(-0.31296269 -0.10212777 0 1.1619653e-06 0 0)
(-0.31354271 -0.10224064 0 -1.1320803e-06 0 0)
(-0.31304309 -0.10214361 0 1.1075851e-06 0 0)
(-0.31346424 -0.1022252 0 -1.089687e-06 0 0)
(-0.31311969 -0.1021587 0 1.0754555e-06 0 0)
(-0.31338871 -0.10221032 0 -1.0589637e-06 0 0)
(-0.31319331 -0.10217293 0 1.2636848e-06 0 0)
(-0.31330998 -0.10219582 0 -1.4115585e-06 0 0)
(-0.21649022 -0.11130711 0 -0.021593671 0 0)
(-0.27379481 -0.093781636 0 0.0010090203 0 0)
(-0.27861917 -0.096513413 0 -1.7256247e-07 0 0)
(-0.29605064 -0.099565875 0 1.7325346e-05 0 0)
(-0.28595375 -0.097477546 0 1.2244167e-05 0 0)
(-0.29627269 -0.099544067 0 8.8660382e-07 0 0)
(-0.28716292 -0.097677663 0 9.3574507e-06 0 0)
(-0.29586855 -0.099455071 0 -5.7073499e-06 0 0)
(-0.28777425 -0.097799404 0 6.5494564e-06 0 0)
(-0.29537415 -0.099353733 0 -5.6841124e-06 0 0)
(-0.28825853 -0.097899225 0 5.5101154e-06 0 0)
(-0.29491929 -0.099261752 0 -5.0936335e-06 0 0)
(-0.28867766 -0.097986016 0 4.8094029e-06 0 0)
(-0.294517 -0.099180459 0 -4.4978344e-06 0 0)
(-0.28904601 -0.098062243 0 4.2268957e-06 0 0)
(-0.29416311 -0.099108862 0 -3.9630916e-06 0 0)
(-0.28937064 -0.098129335 0 3.721902e-06 0 0)
(-0.29385187 -0.099045806 0 -3.4926473e-06 0 0)
(-0.28965699 -0.098188445 0 3.2808008e-06 0 0)
(-0.29357792 -0.098990234 0 -3.0806704e-06 0 0)
(-0.28990977 -0.098240572 0 2.895266e-06 0 0)
(-0.29333652 -0.098941209 0 -2.7205793e-06 0 0)
(-0.29013316 -0.098286593 0 2.5586367e-06 0 0)
(-0.29312349 -0.098897902 0 -2.406367e-06 0 0)
(-0.29033082 -0.098327284 0 2.2652051e-06 0 0)
(-0.29293517 -0.098859581 0 -2.1327492e-06 0 0)
(-0.29050603 -0.09836333 0 2.0100165e-06 0 0)
(-0.29276834 -0.0988256 0 -1.8951191e-06 0 0)
(-0.29066169 -0.09839534 0 1.7887683e-06 0 0)