/*--------------------------------*- C++ -*----------------------------------*\
| =========                 |                                                 |
| \\      /  F ield         | OpenFOAM: The Open Source CFD Toolbox           |
|  \\    /   O peration     | Version:  2312                                  |
|   \\  /    A nd           | Website:  www.openfoam.com                      |
|    \\/     M anipulation  |                                                 |
\*---------------------------------------------------------------------------*/
FoamFile
{
    version     2.0;
    format      ascii;
    arch        "LSB;label=32;scalar=64";
    class       volSymmTensorField;
    location    "7";
    object      sigma_0;
}
// * * * * * * * * * * * * * * * * * * * * * * * * * * * * * * * * * * * * * //

dimensions      [0 2 -2 0 0 0 0];

internalField   nonuniform List<symmTensor> 
4000
(
(-0.39089924 -0.20770314 0 -0.070833458 0 0)
(-0.6680496 -0.14914972 0 -3.0599358e-05 0 0)
(-0.59380334 -0.14066789 0 3.4994125e-06 0 0)
(-0.63278877 -0.1453011 0 -2.9519125e-05 0 0)
(-0.60116991 -0.141486 0 3.2037341e-05 0 0)
(-0.63086007 -0.14508126 0 -2.9358332e-05 0 0)
(-0.60379683 -0.1418036 0 2.8156706e-05 0 0)
(-0.62924414 -0.14488779 0 -2.6261928e-05 0 0)
(-0.60548194 -0.14200924 0 2.4702184e-05 0 0)
(-0.6277526 -0.1447087 0 -2.3143771e-05 0 0)
(-0.60689494 -0.14218178 0 2.1710401e-05 0 0)
(-0.62642261 -0.14454887 0 -2.0364168e-05 0 0)
(-0.60812986 -0.14233245 0 1.9098651e-05 0 0)
(-0.62525018 -0.14440787 0 -1.7921659e-05 0 0)
(-0.60921599 -0.14246482 0 1.6811605e-05 0 0)
(-0.62421863 -0.14428372 0 -1.5780609e-05 0 0)
(-0.61017271 -0.14258132 0 1.4808567e-05 0 0)
(-0.62331084 -0.1441744 0 -1.3905734e-05 0 0)
(-0.61101608 -0.14268392 0 1.3055394e-05 0 0)
(-0.62251133 -0.14407807 0 -1.2265522e-05 0 0)
(-0.61176017 -0.14277436 0 1.1522459e-05 0 0)
(-0.62180643 -0.14399311 0 -1.0832301e-05 0 0)
(-0.61241737 -0.14285418 0 1.0183894e-05 0 0)
(-0.6211841 -0.14391809 0 -9.5818786e-06 0 0)
(-0.61299862 -0.14292471 0 9.0171163e-06 0 0)
(-0.62063373 -0.14385175 0 -8.4931444e-06 0 0)
(-0.61351364 -0.14298714 0 8.0024438e-06 0 0)
(-0.62014595 -0.14379295 0 -7.5477193e-06 0 0)
(-0.61397104 -0.14304254 0 7.1227595e-06 0 0)
(-0.61971246 -0.14374071 0 -6.7296445e-06 0 0)
(-0.61437847 -0.14309183 0 6.3632242e-06 0 0)
(-0.61932588 -0.14369416 0 -6.0251135e-06 0 0)
(-0.61474276 -0.14313585 0 5.7110283e-06 0 0)
(-0.61897967 -0.14365249 0 -5.4222402e-06 0 0)
(-0.61507002 -0.14317533 0 5.155177e-06 0 0)
(-0.61866795 -0.14361502 0 -4.9108611e-06 0 0)
(-0.61536575 -0.14321095 0 4.68631e-06 0 0)
(-0.61838543 -0.1435811 0 -4.4823699e-06 0 0)
(-0.6156349 -0.1432433 0 4.2965522e-06 0 0)
(-0.61812734 -0.14355018 0 -4.1295847e-06 0 0)
(-0.61588201 -0.14327294 0 3.9793996e-06 0 0)
(-0.6178893 -0.14352171 0 -3.8466565e-06 0 0)
(-0.61611124 -0.14330035 0 3.7296582e-06 0 0)
(-0.61766728 -0.14349523 0 -3.6290526e-06 0 0)
(-0.61632645 -0.14332601 0 3.5434826e-06 0 0)
(-0.61745749 -0.14347029 0 -3.4737788e-06 0 0)
(-0.61653124 -0.14335033 0 3.4191261e-06 0 0)
(-0.61725649 -0.14344646 0 -3.3768155e-06 0 0)
(-0.61673351 -0.14337418 0 3.3871138e-06 0 0)
(-0.61709752 -0.14342766 0 -3.3339451e-06 0 0)
(-0.35582837 -0.19390352 0 -0.066202903 0 0)
(-0.60578429 -0.14212151 0 -0.00024027481 0 0)
(-0.55253913 -0.13572899 0 -3.3832568e-05 0 0)
(-0.58560387 -0.13981075 0 -2.8724963e-05 0 0)
(-0.55776661 -0.13623894 0 3.6393127e-05 0 0)
(-0.58394182 -0.1396181 0 -3.1802932e-05 0 0)
(-0.56008554 -0.1365367 0 3.1776668e-05 0 0)
(-0.58254004 -0.1394403 0 -2.9320009e-05 0 0)
(-0.56157486 -0.1367305 0 2.7743229e-05 0 0)
(-0.58122555 -0.13927205 0 -2.5933755e-05 0 0)
(-0.56282146 -0.136893 0 2.4353338e-05 0 0)
(-0.58005114 -0.13912157 0 -2.2832165e-05 0 0)
(-0.56391046 -0.13703484 0 2.1418622e-05 0 0)
(-0.57901565 -0.13898877 0 -2.0095986e-05 0 0)
(-0.56486823 -0.13715946 0 1.8853072e-05 0 0)
(-0.57810458 -0.13887184 0 -1.7695814e-05 0 0)
(-0.56571192 -0.13726912 0 1.6606869e-05 0 0)
(-0.5773028 -0.13876888 0 -1.5593766e-05 0 0)
(-0.56645572 -0.13736571 0 1.4641029e-05 0 0)
(-0.57659666 -0.13867815 0 -1.3754795e-05 0 0)
(-0.56711201 -0.13745085 0 1.2922211e-05 0 0)
(-0.57597406 -0.13859813 0 -1.2147929e-05 0 0)
(-0.56769173 -0.137526 0 1.1421388e-05 0 0)
(-0.57542437 -0.13852747 0 -1.0746055e-05 0 0)
(-0.56820451 -0.1375924 0 1.0113239e-05 0 0)
(-0.57493822 -0.13846497 0 -9.525513e-06 0 0)
(-0.56865894 -0.1376512 0 8.9756977e-06 0 0)
(-0.5745073 -0.13840958 0 -8.4657036e-06 0 0)
(-0.56906259 -0.13770336 0 7.9895779e-06 0 0)
(-0.57412429 -0.13836037 0 -7.5487449e-06 0 0)
(-0.56942222 -0.13774978 0 7.1382512e-06 0 0)
(-0.57378269 -0.1383165 0 -6.759171e-06 0 0)
(-0.56974385 -0.13779124 0 6.4073704e-06 0 0)
(-0.57347668 -0.13827724 0 -6.0836762e-06 0 0)
(-0.57003289 -0.13782844 0 5.784632e-06 0 0)
(-0.57320108 -0.13824192 0 -5.5108969e-06 0 0)
(-0.57029417 -0.13786201 0 5.25958e-06 0 0)
(-0.57295121 -0.13820995 0 -5.031235e-06 0 0)
(-0.57053209 -0.1378925 0 4.8234501e-06 0 0)
(-0.57272284 -0.13818078 0 -4.6367259e-06 0 0)
(-0.57075065 -0.13792044 0 4.4690684e-06 0 0)
(-0.57251211 -0.13815393 0 -4.3209767e-06 0 0)
(-0.57095354 -0.1379463 0 4.1908466e-06 0 0)
(-0.57231543 -0.13812895 0 -4.079258e-06 0 0)
(-0.57114418 -0.13797051 0 3.9849943e-06 0 0)
(-0.57212943 -0.1381054 0 -3.9092148e-06 0 0)
(-0.57132578 -0.13799347 0 3.8512223e-06 0 0)
(-0.57195078 -0.13808286 0 -3.8053831e-06 0 0)
(-0.57150379 -0.13801567 0 3.8755314e-06 0 0)
(-0.5718011 -0.138064 0 -3.7100804e-06 0 0)
(-0.33410448 -0.18410682 0 -0.061742836 0 0)
(-0.56594584 -0.13700259 0 -0.00012916945 0 0)
(-0.52481905 -0.13230058 0 -5.4563318e-05 0 0)
(-0.55506746 -0.13614929 0 -2.7237108e-05 0 0)
(-0.52962972 -0.13272719 0 3.6645479e-05 0 0)
(-0.55357463 -0.13596541 0 -3.0732297e-05 0 0)
(-0.531757 -0.13301231 0 3.1791988e-05 0 0)
(-0.5523012 -0.13579702 0 -2.9048428e-05 0 0)
(-0.53312168 -0.13319838 0 2.7618661e-05 0 0)
(-0.55109969 -0.13563589 0 -2.5769326e-05 0 0)
(-0.53426241 -0.13335432 0 2.421765e-05 0 0)
(-0.55002519 -0.13549161 0 -2.2697944e-05 0 0)
(-0.53525869 -0.1334904 0 2.1295037e-05 0 0)
(-0.54907771 -0.13536427 0 -1.9979543e-05 0 0)
(-0.53613493 -0.13360994 0 1.8743656e-05 0 0)
(-0.5482441 -0.13525214 0 -1.7593554e-05 0 0)
(-0.53690685 -0.13371515 0 1.651045e-05 0 0)
(-0.54751052 -0.1351534 0 -1.5503707e-05 0 0)
(-0.53758744 -0.13380781 0 1.4556083e-05 0 0)
(-0.54686446 -0.13506639 0 -1.3675387e-05 0 0)
(-0.538188 -0.1338895 0 1.2847316e-05 0 0)
(-0.54629485 -0.13498965 0 -1.207784e-05 0 0)
(-0.53871852 -0.1339616 0 1.1355279e-05 0 0)
(-0.54579194 -0.13492188 0 -1.0684114e-05 0 0)
(-0.53918783 -0.13402532 0 1.0054802e-05 0 0)
(-0.54534715 -0.13486193 0 -9.4706893e-06 0 0)
(-0.53960375 -0.13408174 0 8.9239502e-06 0 0)
(-0.54495289 -0.13480881 0 -8.4170884e-06 0 0)
(-0.53997324 -0.1341318 0 7.943657e-06 0 0)
(-0.54460245 -0.1347616 0 -7.505539e-06 0 0)
(-0.54030246 -0.13417635 0 7.0974008e-06 0 0)
(-0.54428986 -0.13471951 0 -6.7206752e-06 0 0)
(-0.54059694 -0.13421615 0 6.3709323e-06 0 0)
(-0.54400981 -0.13468184 0 -6.049285e-06 0 0)
(-0.5408616 -0.13425186 0 5.7520426e-06 0 0)
(-0.54375756 -0.13464794 0 -5.4800989e-06 0 0)
(-0.54110088 -0.13428409 0 5.2303741e-06 0 0)
(-0.54352881 -0.13461725 0 -5.0036225e-06 0 0)
(-0.54131881 -0.13431338 0 4.7972785e-06 0 0)
(-0.54331971 -0.13458924 0 -4.6120249e-06 0 0)
(-0.54151905 -0.13434022 0 4.4457446e-06 0 0)
(-0.54312669 -0.13456345 0 -4.2991202e-06 0 0)
(-0.54170498 -0.13436507 0 4.1704643e-06 0 0)
(-0.54294648 -0.13453944 0 -4.060579e-06 0 0)
(-0.54187975 -0.13438835 0 3.9682376e-06 0 0)
(-0.54277596 -0.1345168 0 -3.895127e-06 0 0)
(-0.54204632 -0.13441043 0 3.8404323e-06 0 0)
(-0.54261199 -0.13449511 0 -3.7989928e-06 0 0)
(-0.54220932 -0.13443166 0 3.9101606e-06 0 0)
(-0.54247045 -0.13447664 0 -3.806322e-06 0 0)
(-0.31942259 -0.1755605 0 -0.05685798 0 0)
(-0.52972671 -0.13232243 0 -6.9713619e-05 0 0)
(-0.49757906 -0.12885151 0 -7.9266193e-05 0 0)
(-0.52540958 -0.13248942 0 -2.2734869e-05 0 0)
(-0.50213046 -0.12921521 0 3.3374457e-05 0 0)
(-0.52410813 -0.13231383 0 -2.6408369e-05 0 0)
(-0.50409069 -0.12948775 0 2.8851274e-05 0 0)
(-0.52294816 -0.13215478 0 -2.5968716e-05 0 0)
(-0.50534428 -0.12966617 0 2.487541e-05 0 0)
(-0.52184583 -0.13200066 0 -2.3141767e-05 0 0)
(-0.50639092 -0.12981556 0 2.1776065e-05 0 0)
(-0.52085895 -0.13186247 0 -2.0398134e-05 0 0)
(-0.50730476 -0.12994589 0 1.9142203e-05 0 0)
(-0.51998868 -0.13174049 0 -1.7957584e-05 0 0)
(-0.50810852 -0.13006038 0 1.6847808e-05 0 0)
(-0.51922303 -0.13163307 0 -1.5813513e-05 0 0)
(-0.50881662 -0.13016114 0 1.4840358e-05 0 0)
(-0.5185493 -0.13153848 0 -1.3935235e-05 0 0)
(-0.50944098 -0.1302499 0 1.3083705e-05 0 0)
(-0.51795597 -0.13145512 0 -1.2291961e-05 0 0)
(-0.50999195 -0.13032814 0 1.1547839e-05 0 0)
(-0.51743288 -0.1313816 0 -1.0856102e-05 0 0)
(-0.5104787 -0.1303972 0 1.0206791e-05 0 0)
(-0.51697107 -0.13131666 0 -9.6034476e-06 0 0)
(-0.5109093 -0.13045824 0 9.0379339e-06 0 0)
(-0.51656264 -0.13125923 0 -8.5128618e-06 0 0)
(-0.51129094 -0.13051228 0 8.0215569e-06 0 0)
(-0.51620062 -0.13120832 0 -7.5659449e-06 0 0)
(-0.51162998 -0.13056025 0 7.1405267e-06 0 0)
(-0.51587883 -0.13116307 0 -6.7467291e-06 0 0)
(-0.51193209 -0.13060294 0 6.3800008e-06 0 0)
(-0.51559182 -0.13112273 0 -6.0414134e-06 0 0)
(-0.51220232 -0.13064108 0 5.7271838e-06 0 0)
(-0.51533469 -0.13108662 0 -5.4381381e-06 0 0)
(-0.51244521 -0.13067532 0 5.1711213e-06 0 0)
(-0.51510308 -0.13105411 0 -4.9267991e-06 0 0)
(-0.51266481 -0.13070622 0 4.7025358e-06 0 0)
(-0.51489305 -0.13102467 0 -4.4989049e-06 0 0)
(-0.51286483 -0.13073431 0 4.3137097e-06 0 0)
(-0.51470106 -0.1309978 0 -4.1474924e-06 0 0)
(-0.51304863 -0.13076007 0 3.9984448e-06 0 0)
(-0.51452383 -0.13097305 0 -3.867147e-06 0 0)
(-0.5132193 -0.13078392 0 3.752181e-06 0 0)
(-0.51435836 -0.13094999 0 -3.6542954e-06 0 0)
(-0.51337975 -0.13080628 0 3.572515e-06 0 0)
(-0.51420177 -0.13092824 0 -3.5087343e-06 0 0)
(-0.51353272 -0.1308275 0 3.4620716e-06 0 0)
(-0.51405108 -0.13090738 0 -3.4269244e-06 0 0)
(-0.51368205 -0.13084779 0 3.5801004e-06 0 0)
(-0.51391687 -0.13088924 0 -3.5146374e-06 0 0)
(-0.30598787 -0.1673616 0 -0.052169993 0 0)
(-0.49473317 -0.12768326 0 3.1187496e-06 0 0)
(-0.47075144 -0.12535341 0 -9.5923091e-05 0 0)
(-0.49656202 -0.12883179 0 -1.9113498e-05 0 0)
(-0.47528216 -0.12569892 0 2.9550611e-05 0 0)
(-0.49550198 -0.12866573 0 -2.1961235e-05 0 0)
(-0.47710738 -0.12595999 0 2.5676487e-05 0 0)
(-0.49444586 -0.12851534 0 -2.2688211e-05 0 0)
(-0.47826119 -0.12613113 0 2.1929582e-05 0 0)
(-0.49343296 -0.12836785 0 -2.032816e-05 0 0)
(-0.47922316 -0.12627432 0 1.9158344e-05 0 0)
(-0.49252518 -0.12823545 0 -1.7933516e-05 0 0)
(-0.48006287 -0.1263992 0 1.6834792e-05 0 0)
(-0.4917246 -0.12811856 0 -1.5790407e-05 0 0)
(-0.48080143 -0.1265089 0 1.48159e-05 0 0)
(-0.49102031 -0.12801563 0 -1.3905559e-05 0 0)
(-0.48145214 -0.12660545 0 1.3050366e-05 0 0)
(-0.49040061 -0.12792499 0 -1.2254016e-05 0 0)
(-0.48202592 -0.12669049 0 1.1505559e-05 0 0)
(-0.4898549 -0.12784511 0 -1.0809046e-05 0 0)
(-0.48253228 -0.12676547 0 1.0154945e-05 0 0)
(-0.48937382 -0.12777465 0 -9.5464517e-06 0 0)
(-0.48297963 -0.12683164 0 8.9756636e-06 0 0)
(-0.48894912 -0.12771243 0 -8.4449566e-06 0 0)
(-0.48337539 -0.12689014 0 7.9478143e-06 0 0)
(-0.48857354 -0.12765738 0 -7.4859792e-06 0 0)
(-0.48372616 -0.12694194 0 7.0540636e-06 0 0)
(-0.48824065 -0.12760858 0 -6.653344e-06 0 0)
(-0.48403778 -0.12698791 0 6.2793473e-06 0 0)
(-0.48794478 -0.12756522 0 -5.9330152e-06 0 0)
(-0.48431546 -0.12702883 0 5.6106184e-06 0 0)
(-0.48768089 -0.12752655 0 -5.3128643e-06 0 0)
(-0.48456383 -0.1270654 0 5.0366326e-06 0 0)
(-0.48744449 -0.12749192 0 -4.7824739e-06 0 0)
(-0.48478706 -0.12709822 0 4.5477706e-06 0 0)
(-0.48723157 -0.12746075 0 -4.3329773e-06 0 0)
(-0.48498889 -0.12712786 0 4.135897e-06 0 0)
(-0.48703852 -0.12743251 0 -3.9569381e-06 0 0)
(-0.48517271 -0.12715481 0 3.7942654e-06 0 0)
(-0.48686205 -0.12740673 0 -3.6482882e-06 0 0)
(-0.48534161 -0.12717952 0 3.5175004e-06 0 0)
(-0.48669917 -0.12738298 0 -3.4023718e-06 0 0)
(-0.48549844 -0.12720242 0 3.3017444e-06 0 0)
(-0.4865471 -0.12736084 0 -3.2162755e-06 0 0)
(-0.48564587 -0.12722388 0 3.1452156e-06 0 0)
(-0.48640322 -0.12733995 0 -3.0905293e-06 0 0)
(-0.48578642 -0.12724428 0 3.0511158e-06 0 0)
(-0.48626469 -0.12731989 0 -3.0211934e-06 0 0)
(-0.48592336 -0.12726368 0 3.2044217e-06 0 0)
(-0.48613798 -0.12730215 0 -3.1787077e-06 0 0)
(-0.29294904 -0.15939541 0 -0.047709057 0 0)
(-0.46142857 -0.12313529 0 8.9825097e-05 0 0)
(-0.44448467 -0.12182121 0 -0.00010387501 0 0)
(-0.46852741 -0.1251744 0 -1.6340591e-05 0 0)
(-0.44911192 -0.12217938 0 2.5895843e-05 0 0)
(-0.46773207 -0.12502005 0 -1.8076604e-05 0 0)
(-0.45082961 -0.12243005 0 2.291302e-05 0 0)
(-0.46677491 -0.12487798 0 -1.9815301e-05 0 0)
(-0.45189274 -0.1225942 0 1.9352555e-05 0 0)
(-0.46584428 -0.12473686 0 -1.7864323e-05 0 0)
(-0.45277711 -0.12273141 0 1.6867062e-05 0 0)
(-0.46500914 -0.12461003 0 -1.5775545e-05 0 0)
(-0.45354883 -0.12285104 0 1.4814975e-05 0 0)
(-0.46427255 -0.12449804 0 -1.3892923e-05 0 0)
(-0.45422759 -0.12295613 0 1.3037198e-05 0 0)
(-0.46362459 -0.12439943 0 -1.2235049e-05 0 0)
(-0.45482565 -0.12304862 0 1.1483397e-05 0 0)
(-0.4630545 -0.12431258 0 -1.0782019e-05 0 0)
(-0.45535303 -0.12313009 0 1.0124009e-05 0 0)
(-0.4625525 -0.12423605 0 -9.5106645e-06 0 0)
(-0.45581846 -0.12320192 0 8.9355371e-06 0 0)
(-0.46210999 -0.12416854 0 -8.3997578e-06 0 0)
(-0.45622967 -0.12326532 0 7.8978414e-06 0 0)
(-0.46171936 -0.12410892 0 -7.4305909e-06 0 0)
(-0.45659347 -0.12332137 0 6.9934043e-06 0 0)
(-0.46137392 -0.12405618 0 -6.5868197e-06 0 0)
(-0.45691591 -0.123371 0 6.206973e-06 0 0)
(-0.46106777 -0.12400942 0 -5.8542156e-06 0 0)
(-0.45720236 -0.12341505 0 5.5252927e-06 0 0)
(-0.46079568 -0.12396786 0 -5.2204327e-06 0 0)
(-0.45745761 -0.12345427 0 4.9368855e-06 0 0)
(-0.46055302 -0.1239308 0 -4.6748052e-06 0 0)
(-0.45768592 -0.12348931 0 4.4318626e-06 0 0)
(-0.46033565 -0.1238976 0 -4.2081751e-06 0 0)
(-0.45789112 -0.12352078 0 4.0017686e-06 0 0)
(-0.46013989 -0.12386772 0 -3.8127537e-06 0 0)
(-0.45807663 -0.12354919 0 3.6394604e-06 0 0)
(-0.45996241 -0.12384065 0 -3.4820194e-06 0 0)
(-0.45824558 -0.12357503 0 3.3390298e-06 0 0)
(-0.45980019 -0.12381593 0 -3.2106712e-06 0 0)
(-0.45840081 -0.12359873 0 3.0957983e-06 0 0)
(-0.45965048 -0.12379314 0 -2.9946852e-06 0 0)
(-0.45854493 -0.1236207 0 2.9064765e-06 0 0)
(-0.45951073 -0.1237719 0 -2.8316544e-06 0 0)
(-0.45868039 -0.1236413 0 2.7697145e-06 0 0)
(-0.45937852 -0.12375184 0 -2.7225578e-06 0 0)
(-0.45880953 -0.12366089 0 2.6888328e-06 0 0)
(-0.45925121 -0.12373257 0 -2.6626061e-06 0 0)
(-0.45893508 -0.12367946 0 2.8665055e-06 0 0)
(-0.45913192 -0.12371524 0 -2.8731358e-06 0 0)
(-0.28041027 -0.15170965 0 -0.043453658 0 0)
(-0.429799 -0.11867492 0 0.00019180024 0 0)
(-0.41880366 -0.11825983 0 -0.00010378941 0 0)
(-0.44133097 -0.12151614 0 -1.3511668e-05 0 0)
(-0.42363478 -0.11865702 0 2.2431752e-05 0 0)
(-0.44078783 -0.12137607 0 -1.4667015e-05 0 0)
(-0.42526656 -0.11889843 0 2.0483178e-05 0 0)
(-0.43992602 -0.12124215 0 -1.7281555e-05 0 0)
(-0.42624722 -0.11905584 0 1.7078802e-05 0 0)
(-0.43907176 -0.12110719 0 -1.5689915e-05 0 0)
(-0.42706007 -0.11918724 0 1.4844946e-05 0 0)
(-0.43830378 -0.12098577 0 -1.3871088e-05 0 0)
(-0.42776905 -0.11930178 0 1.3032409e-05 0 0)
(-0.43762635 -0.12087855 0 -1.2218352e-05 0 0)
(-0.42839262 -0.11940239 0 1.1467413e-05 0 0)
(-0.43703046 -0.12078412 0 -1.0760776e-05 0 0)
(-0.42894209 -0.11949094 0 1.0100467e-05 0 0)
(-0.43650621 -0.12070097 0 -9.4829261e-06 0 0)
(-0.42942663 -0.11956895 0 8.904708e-06 0 0)
(-0.43604461 -0.12062768 0 -8.364779e-06 0 0)
(-0.42985429 -0.11963772 0 7.859324e-06 0 0)
(-0.43563773 -0.12056304 0 -7.387727e-06 0 0)
(-0.43023213 -0.11969843 0 6.9465719e-06 0 0)
(-0.43527857 -0.12050595 0 -6.5353293e-06 0 0)
(-0.43056642 -0.11975209 0 6.1510378e-06 0 0)
(-0.43496099 -0.12045544 0 -5.7932151e-06 0 0)
(-0.43086271 -0.11979962 0 5.4593043e-06 0 0)
(-0.43467953 -0.12041066 0 -5.148873e-06 0 0)
(-0.43112594 -0.1198418 0 4.8597131e-06 0 0)
(-0.43442941 -0.12037086 0 -4.5914479e-06 0 0)
(-0.43136049 -0.11987936 0 4.3421699e-06 0 0)
(-0.43420635 -0.12033536 0 -4.111563e-06 0 0)
(-0.43157029 -0.11991293 0 3.8979801e-06 0 0)
(-0.43400656 -0.12030356 0 -3.7011696e-06 0 0)
(-0.43175883 -0.11994307 0 3.5197127e-06 0 0)
(-0.43382664 -0.12027494 0 -3.3534266e-06 0 0)
(-0.43192929 -0.1199703 0 3.2010961e-06 0 0)
(-0.43366353 -0.12024899 0 -3.0626138e-06 0 0)
(-0.43208452 -0.11999506 0 2.9369533e-06 0 0)
(-0.43351447 -0.1202253 0 -2.8240959e-06 0 0)
(-0.43222713 -0.12001778 0 2.7232063e-06 0 0)
(-0.43337691 -0.12020345 0 -2.6343862e-06 0 0)
(-0.43235952 -0.12003884 0 2.5570362e-06 0 0)
(-0.43324853 -0.12018308 0 -2.4914776e-06 0 0)
(-0.43248395 -0.1200586 0 2.4374029e-06 0 0)
(-0.43312708 -0.12016384 0 -2.3966188e-06 0 0)
(-0.43260256 -0.12007739 0 2.3674829e-06 0 0)
(-0.43301013 -0.12014534 0 -2.3440285e-06 0 0)
(-0.43271764 -0.12009517 0 2.5609695e-06 0 0)
(-0.43289812 -0.12012845 0 -2.5955299e-06 0 0)
(-0.26846462 -0.14432039 0 -0.039381292 0 0)
(-0.39983548 -0.11430577 0 0.00030618657 0 0)
(-0.39370139 -0.11467234 0 -9.7271264e-05 0 0)
(-0.41501694 -0.11785901 0 -9.884434e-06 0 0)
(-0.39886653 -0.11513211 0 1.9241377e-05 0 0)
(-0.41466593 -0.11773362 0 -1.1571823e-05 0 0)
(-0.40042374 -0.11536528 0 1.8260089e-05 0 0)
(-0.41389435 -0.1176077 0 -1.4966308e-05 0 0)
(-0.40132921 -0.1155162 0 1.499517e-05 0 0)
(-0.41311113 -0.11747874 0 -1.36992e-05 0 0)
(-0.40207606 -0.11564195 0 1.2992695e-05 0 0)
(-0.41240538 -0.11736257 0 -1.2127104e-05 0 0)
(-0.40272706 -0.11575153 0 1.1399744e-05 0 0)
(-0.41178273 -0.11725998 0 -1.0684806e-05 0 0)
(-0.40329962 -0.11584779 0 1.002966e-05 0 0)
(-0.41123505 -0.11716963 0 -9.4106344e-06 0 0)
(-0.40380415 -0.11593251 0 8.8338534e-06 0 0)
(-0.41075323 -0.11709006 0 -8.2931965e-06 0 0)
(-0.4042491 -0.11600713 0 7.7879574e-06 0 0)
(-0.41032903 -0.11701994 0 -7.3153418e-06 0 0)
(-0.40464183 -0.11607293 0 6.8736188e-06 0 0)
(-0.40995513 -0.11695809 0 -6.4608603e-06 0 0)
(-0.40498882 -0.11613102 0 6.0752917e-06 0 0)
(-0.40962511 -0.11690346 0 -5.7153863e-06 0 0)
(-0.40529582 -0.11618237 0 5.3794892e-06 0 0)
(-0.40933329 -0.11685512 0 -5.0663555e-06 0 0)
(-0.40556793 -0.11622784 0 4.7744744e-06 0 0)
(-0.4090747 -0.11681227 0 -4.5028284e-06 0 0)
(-0.40580968 -0.11626822 0 4.2500506e-06 0 0)
(-0.4088449 -0.11677418 0 -4.0153138e-06 0 0)
(-0.40602509 -0.11630416 0 3.7973901e-06 0 0)
(-0.40863997 -0.1167402 0 -3.595614e-06 0 0)
(-0.40621776 -0.11633629 0 3.4088907e-06 0 0)
(-0.40845644 -0.11670977 0 -3.2366944e-06 0 0)
(-0.40639092 -0.11636514 0 3.0780574e-06 0 0)
(-0.40829117 -0.11668236 0 -2.9325787e-06 0 0)
(-0.40654745 -0.11639121 0 2.799413e-06 0 0)
(-0.40814135 -0.11665752 0 -2.6782754e-06 0 0)
(-0.40669 -0.11641492 0 2.5684439e-06 0 0)
(-0.40800445 -0.11663483 0 -2.4697506e-06 0 0)
(-0.40682094 -0.11643668 0 2.3816103e-06 0 0)
(-0.40787813 -0.1166139 0 -2.3039924e-06 0 0)
(-0.4069425 -0.11645686 0 2.2365003e-06 0 0)
(-0.40776024 -0.11659438 0 -2.179324e-06 0 0)
(-0.40705673 -0.11647579 0 2.1323026e-06 0 0)
(-0.40764874 -0.11657594 0 -2.0971399e-06 0 0)
(-0.40716562 -0.11649381 0 2.0718871e-06 0 0)
(-0.40754137 -0.1165582 0 -2.0506109e-06 0 0)
(-0.40727105 -0.11651082 0 2.2743911e-06 0 0)
(-0.40743649 -0.11654175 0 -2.3342372e-06 0 0)
(-0.25710352 -0.13721655 0 -0.035483912 0 0)
(-0.37151065 -0.11002767 0 0.00043063893 0 0)
(-0.36919315 -0.11106153 0 -8.5526021e-05 0 0)
(-0.38959436 -0.11420404 0 -5.2512954e-06 0 0)
(-0.37482099 -0.11160495 0 1.653043e-05 0 0)
(-0.38936411 -0.11409275 0 -8.7103174e-06 0 0)
(-0.37630611 -0.11183063 0 1.6199153e-05 0 0)
(-0.38867604 -0.1139746 0 -1.2822646e-05 0 0)
(-0.37714255 -0.11197528 0 1.305817e-05 0 0)
(-0.38795889 -0.11385147 0 -1.1851658e-05 0 0)
(-0.37782844 -0.11209554 0 1.1272232e-05 0 0)
(-0.38731087 -0.11374042 0 -1.0507882e-05 0 0)
(-0.37842579 -0.1122003 0 9.8835156e-06 0 0)
(-0.386739 -0.11364233 0 -9.2608518e-06 0 0)
(-0.37895114 -0.11229232 0 8.6944819e-06 0 0)
(-0.38623599 -0.11355594 0 -8.1569457e-06 0 0)
(-0.37941409 -0.11237331 0 7.6576086e-06 0 0)
(-0.38579351 -0.11347987 0 -7.1884418e-06 0 0)
(-0.37982239 -0.11244466 0 6.7508792e-06 0 0)
(-0.38540396 -0.11341282 0 -6.3408425e-06 0 0)
(-0.38018278 -0.11250757 0 5.958229e-06 0 0)
(-0.38506062 -0.11335368 0 -5.6001618e-06 0 0)
(-0.38050121 -0.1125631 0 5.2661536e-06 0 0)
(-0.38475758 -0.11330144 0 -4.9539598e-06 0 0)
(-0.38078295 -0.1126122 0 4.6629553e-06 0 0)
(-0.38448965 -0.11325522 0 -4.3913489e-06 0 0)
(-0.38103267 -0.11265568 0 4.1384581e-06 0 0)
(-0.38425222 -0.11321425 0 -3.9028482e-06 0 0)
(-0.38125453 -0.11269429 0 3.6838221e-06 0 0)
(-0.38404125 -0.11317782 0 -3.4802323e-06 0 0)
(-0.38145223 -0.11272866 0 3.2913951e-06 0 0)
(-0.38385313 -0.11314532 0 -3.1163971e-06 0 0)
(-0.38162905 -0.11275939 0 2.9545879e-06 0 0)
(-0.38368465 -0.11311621 0 -2.8052479e-06 0 0)
(-0.38178795 -0.11278699 0 2.6677733e-06 0 0)
(-0.38353294 -0.11308999 0 -2.5416087e-06 0 0)
(-0.3819316 -0.11281192 0 2.4262081e-06 0 0)
(-0.38339544 -0.11306622 0 -2.3211603e-06 0 0)
(-0.38206241 -0.11283461 0 2.2259895e-06 0 0)
(-0.38326979 -0.11304451 0 -2.1404197e-06 0 0)
(-0.38218256 -0.11285544 0 2.064067e-06 0 0)
(-0.38315387 -0.11302448 0 -1.9968015e-06 0 0)
(-0.38229409 -0.11287476 0 1.9383861e-06 0 0)
(-0.38304571 -0.11300579 0 -1.8889049e-06 0 0)
(-0.38239889 -0.11289289 0 1.8483024e-06 0 0)
(-0.38294342 -0.11298813 0 -1.8181709e-06 0 0)
(-0.38249876 -0.11291015 0 1.7962635e-06 0 0)
(-0.38284492 -0.11297112 0 -1.7766955e-06 0 0)
(-0.3825953 -0.11292643 0 2.001976e-06 0 0)
(-0.38274693 -0.11295515 0 -2.0854785e-06 0 0)
(-0.24628087 -0.13038016 0 -0.031759326 0 0)
(-0.34479147 -0.10583916 0 0.00056364618 0 0)
(-0.34535744 -0.10743402 0 -6.9204297e-05 0 0)
(-0.36501977 -0.11054865 0 1.1669718e-07 0 0)
(-0.35150524 -0.10807583 0 1.4467931e-05 0 0)
(-0.36487821 -0.11045342 0 -6.0456338e-06 0 0)
(-0.35291796 -0.1082945 0 1.4290294e-05 0 0)
(-0.36426743 -0.11034283 0 -1.0835662e-05 0 0)
(-0.35369078 -0.1084331 0 1.1254823e-05 0 0)
(-0.3636118 -0.11022537 0 -1.0135254e-05 0 0)
(-0.35432029 -0.10854803 0 9.6722024e-06 0 0)
(-0.36301739 -0.11011929 0 -9.002788e-06 0 0)
(-0.35486795 -0.10864811 0 8.4737682e-06 0 0)
(-0.36249265 -0.11002558 0 -7.9371163e-06 0 0)
(-0.35534956 -0.10873601 0 7.4531219e-06 0 0)
(-0.36203111 -0.10994305 0 -6.9914589e-06 0 0)
(-0.35577397 -0.10881338 0 6.5640193e-06 0 0)
(-0.36162512 -0.10987036 0 -6.1613939e-06 0 0)
(-0.3561483 -0.10888153 0 5.7866732e-06 0 0)
(-0.36126772 -0.10980631 0 -5.4348731e-06 0 0)
(-0.35647872 -0.10894163 0 5.1071533e-06 0 0)
(-0.36095273 -0.1097498 0 -4.7999749e-06 0 0)
(-0.35677068 -0.10899469 0 4.513854e-06 0 0)
(-0.36067473 -0.10969989 0 -4.2460488e-06 0 0)
(-0.35702901 -0.10904159 0 3.9967418e-06 0 0)
(-0.36042895 -0.10965573 0 -3.7637653e-06 0 0)
(-0.35725798 -0.10908314 0 3.5470914e-06 0 0)
(-0.36021116 -0.10961658 0 -3.344999e-06 0 0)
(-0.35746141 -0.10912003 0 3.157324e-06 0 0)
(-0.36001765 -0.10958176 0 -2.9827002e-06 0 0)
(-0.35764268 -0.10915288 0 2.8208796e-06 0 0)
(-0.3598451 -0.10955071 0 -2.6707806e-06 0 0)
(-0.3578048 -0.10918224 0 2.5321102e-06 0 0)
(-0.35969058 -0.10952289 0 -2.4040175e-06 0 0)
(-0.3579505 -0.10920862 0 2.286193e-06 0 0)
(-0.35955146 -0.10949783 0 -2.1779765e-06 0 0)
(-0.35808221 -0.10923245 0 2.0790651e-06 0 0)
(-0.35942537 -0.10947511 0 -1.9889601e-06 0 0)
(-0.35820213 -0.10925414 0 1.9073864e-06 0 0)
(-0.35931016 -0.10945434 0 -1.8339908e-06 0 0)
(-0.35831228 -0.10927406 0 1.7685528e-06 0 0)
(-0.35920388 -0.10943518 0 -1.7108676e-06 0 0)
(-0.35841451 -0.10929254 0 1.6608244e-06 0 0)
(-0.35910472 -0.1094173 0 -1.6184196e-06 0 0)
(-0.35851057 -0.10930989 0 1.5836731e-06 0 0)
(-0.35901097 -0.1094004 0 -1.5580549e-06 0 0)
(-0.3586021 -0.10932641 0 1.5390476e-06 0 0)
(-0.35892071 -0.10938412 0 -1.5207931e-06 0 0)
(-0.3586904 -0.10934198 0 1.7429568e-06 0 0)
(-0.35882939 -0.10936863 0 -1.8488707e-06 0 0)
(-0.23594415 -0.12379376 0 -0.02820496 0 0)
(-0.31963606 -0.10173795 0 0.00070440738 0 0)
(-0.32228222 -0.10379672 0 -4.8776252e-05 0 0)
(-0.34124747 -0.10689048 0 5.8292891e-06 0 0)
(-0.32892137 -0.10454487 0 1.310529e-05 0 0)
(-0.34120341 -0.10681556 0 -3.5619306e-06 0 0)
(-0.33026276 -0.10475693 0 1.2523744e-05 0 0)
(-0.3406652 -0.10671235 0 -8.9947292e-06 0 0)
(-0.33097704 -0.10488971 0 9.5757914e-06 0 0)
(-0.34006695 -0.10660041 0 -8.5414296e-06 0 0)
(-0.33155437 -0.10499945 0 8.1844591e-06 0 0)
(-0.33952241 -0.10649915 0 -7.6042421e-06 0 0)
(-0.33205595 -0.10509497 0 7.1633755e-06 0 0)
(-0.33904146 -0.1064097 0 -6.7069125e-06 0 0)
(-0.33249698 -0.10517887 0 6.2993154e-06 0 0)
(-0.33861844 -0.10633092 0 -5.9082844e-06 0 0)
(-0.33288565 -0.10525272 0 5.5475693e-06 0 0)
(-0.33824635 -0.10626153 0 -5.2068648e-06 0 0)
(-0.33322846 -0.10531778 0 4.8904775e-06 0 0)
(-0.33791881 -0.10620039 0 -4.5928597e-06 0 0)
(-0.33353107 -0.10537514 0 4.3161022e-06 0 0)
(-0.33763016 -0.10614644 0 -4.0562627e-06 0 0)
(-0.33379847 -0.10542579 0 3.8146041e-06 0 0)
(-0.33737541 -0.1060988 0 -3.5880853e-06 0 0)
(-0.33403507 -0.10547056 0 3.3774964e-06 0 0)
(-0.3371502 -0.10605664 0 -3.1804455e-06 0 0)
(-0.33424478 -0.10551022 0 2.9974022e-06 0 0)
(-0.33695064 -0.10601925 0 -2.826477e-06 0 0)
(-0.33443111 -0.10554544 0 2.6679148e-06 0 0)
(-0.33677334 -0.10598602 0 -2.520222e-06 0 0)
(-0.33459713 -0.1055768 0 2.3834886e-06 0 0)
(-0.33661526 -0.10595636 0 -2.2565356e-06 0 0)
(-0.33474562 -0.10560484 0 2.1393495e-06 0 0)
(-0.3364737 -0.10592979 0 -2.0310038e-06 0 0)
(-0.33487906 -0.10563003 0 1.9314212e-06 0 0)
(-0.33634626 -0.10590586 0 -1.8398801e-06 0 0)
(-0.33499968 -0.1056528 0 1.7562705e-06 0 0)
(-0.33623076 -0.10588416 0 -1.6800413e-06 0 0)
(-0.33510951 -0.10567352 0 1.6110765e-06 0 0)
(-0.33612524 -0.10586432 0 -1.5489743e-06 0 0)
(-0.33521037 -0.10569255 0 1.4936429e-06 0 0)
(-0.33602791 -0.10584601 0 -1.4448255e-06 0 0)
(-0.33530398 -0.10571021 0 1.4025077e-06 0 0)
(-0.33593711 -0.10582892 0 -1.3666162e-06 0 0)
(-0.33539192 -0.10572679 0 1.3372201e-06 0 0)
(-0.33585128 -0.10581276 0 -1.3156597e-06 0 0)
(-0.33547571 -0.10574259 0 1.2991873e-06 0 0)
(-0.33576866 -0.10579718 0 -1.2819327e-06 0 0)
(-0.33555639 -0.10575748 0 1.4970366e-06 0 0)
(-0.33568376 -0.10578219 0 -1.6243428e-06 0 0)
(-0.22603817 -0.11744201 0 -0.024817373 0 0)
(-0.29599404 -0.097720712 0 0.00085284652 0 0)
(-0.30002482 -0.1001547 0 -2.5174867e-05 0 0)
(-0.31825788 -0.10322929 0 1.1593478e-05 0 0)
(-0.30707032 -0.10101214 0 1.2384015e-05 0 0)
(-0.31833587 -0.10317912 0 -1.2567755e-06 0 0)
(-0.30834352 -0.10121797 0 1.0883744e-05 0 0)
(-0.31786642 -0.10308311 0 -7.2889557e-06 0 0)
(-0.30900406 -0.10134513 0 8.0106441e-06 0 0)
(-0.31732181 -0.10297654 0 -7.0607332e-06 0 0)
(-0.30953308 -0.10144984 0 6.7999848e-06 0 0)
(-0.31682369 -0.10287999 0 -6.3038667e-06 0 0)
(-0.30999191 -0.10154093 0 5.9444453e-06 0 0)
(-0.31638348 -0.10279467 0 -5.5628484e-06 0 0)
(-0.31039526 -0.10162094 0 5.2261253e-06 0 0)
(-0.31599627 -0.10271953 0 -4.900911e-06 0 0)
(-0.31075073 -0.10169136 0 4.6021502e-06 0 0)
(-0.31565571 -0.10265336 0 -4.3191175e-06 0 0)
(-0.31106427 -0.10175341 0 4.0569085e-06 0 0)
(-0.31535593 -0.10259503 0 -3.8097436e-06 0 0)
(-0.31134106 -0.10180812 0 3.5803257e-06 0 0)
(-0.31509175 -0.10254359 0 -3.3645594e-06 0 0)
(-0.31158564 -0.10185642 0 3.1642074e-06 0 0)
(-0.31485862 -0.10249814 0 -2.9761211e-06 0 0)
(-0.31180206 -0.10189912 0 2.8015056e-06 0 0)
(-0.31465253 -0.10245792 0 -2.6378924e-06 0 0)
(-0.31199389 -0.10193695 0 2.4860977e-06 0 0)
(-0.31446992 -0.10242227 0 -2.3441774e-06 0 0)
(-0.31216433 -0.10197054 0 2.2126668e-06 0 0)
(-0.31430769 -0.10239056 0 -2.0900332e-06 0 0)
(-0.31231619 -0.10200046 0 1.9766105e-06 0 0)
(-0.31416305 -0.10236227 0 -1.8711911e-06 0 0)
(-0.31245202 -0.10202721 0 1.7739668e-06 0 0)
(-0.31403353 -0.10233692 0 -1.6839888e-06 0 0)
(-0.31257407 -0.10205124 0 1.6013526e-06 0 0)
(-0.31391694 -0.10231408 0 -1.5253175e-06 0 0)
(-0.3126844 -0.10207297 0 1.4559185e-06 0 0)
(-0.31381128 -0.10229337 0 -1.3925856e-06 0 0)
(-0.31278484 -0.10209274 0 1.3353234e-06 0 0)
(-0.31371477 -0.10227443 0 -1.2837079e-06 0 0)
(-0.31287709 -0.10211091 0 1.2377442e-06 0 0)
(-0.31362575 -0.10225696 0 -1.1971454e-06 0 0)
(-0.31296269 -0.10212777 0 1.1619662e-06 0 0)
(-0.31354271 -0.10224064 0 -1.1320813e-06 0 0)
(-0.31304309 -0.10214361 0 1.107586e-06 0 0)
(-0.31346424 -0.1022252 0 -1.089688e-06 0 0)
(-0.31311969 -0.1021587 0 1.0754565e-06 0 0)
(-0.31338871 -0.10221032 0 -1.0589647e-06 0 0)
(-0.31319331 -0.10217293 0 1.2636859e-06 0 0)
(-0.31330998 -0.10219582 0 -1.41156e-06 0 0)
(-0.21650364 -0.1113122 0 -0.021593712 0 0)
(-0.273797 -0.093782152 0 0.0010090235 0 0)
(-0.27861935 -0.096513485 0 -1.7550156e-07 0 0)
(-0.29605062 -0.099565864 0 1.7326302e-05 0 0)
(-0.28595375 -0.097477545 0 1.2244089e-05 0 0)
(-0.29627269 -0.099544068 0 8.866198e-07 0 0)
(-0.28716292 -0.097677662 0 9.3574446e-06 0 0)
(-0.29586855 -0.099455072 0 -5.7073537e-06 0 0)
(-0.28777424 -0.097799403 0 6.5494553e-06 0 0)
(-0.29537415 -0.099353734 0 -5.6841136e-06 0 0)
(-0.28825853 -0.097899225 0 5.5101155e-06 0 0)
(-0.29491929 -0.099261753 0 -5.0936339e-06 0 0)
(-0.28867766 -0.097986015 0 4.8094032e-06 0 0)
(-0.294517 -0.09918046 0 -4.4978347e-06 0 0)
(-0.28904601 -0.098062242 0 4.226896e-06 0 0)
(-0.29416312 -0.099108862 0 -3.963092e-06 0 0)
(-0.28937064 -0.098129335 0 3.7219023e-06 0 0)
(-0.29385187 -0.099045806 0 -3.4926478e-06 0 0)
(-0.28965699 -0.098188445 0 3.2808011e-06 0 0)
(-0.29357792 -0.098990235 0 -3.0806709e-06 0 0)
(-0.28990977 -0.098240571 0 2.8952664e-06 0 0)
(-0.29333652 -0.09894121 0 -2.7205798e-06 0 0)
(-0.29013316 -0.098286592 0 2.5586372e-06 0 0)
(-0.29312349 -0.098897903 0 -2.4063675e-06 0 0)
(-0.29033082 -0.098327283 0 2.2652057e-06 0 0)
(-0.29293518 -0.098859582 0 -2.1327497e-06 0 0)
(-0.29050602 -0.09836333 0 2.0100171e-06 0 0)
(-0.29276834 -0.0988256 0 -1.8951196e-06 0 0)
(-0.29066169 -0.09839534 0 1.788769e-06 0 0)