/*--------------------------------*- C++ -*----------------------------------*\
| =========                 |                                                 |
| \\      /  F ield         | OpenFOAM: The Open Source CFD Toolbox           |
|  \\    /   O peration     | Version:  2312                                  |
|   \\  /    A nd           | Website:  www.openfoam.com                      |
|    \\/     M anipulation  |                                                 |
\*---------------------------------------------------------------------------*/
FoamFile
{
    version     2.0;
    format      ascii;
    arch        "LSB;label=32;scalar=64";
    class       volScalarField;
    location    "7";
    object      T;
}
// * * * * * * * * * * * * * * * * * * * * * * * * * * * * * * * * * * * * * //

dimensions      [0 0 0 1 0 0 0];

internalField   nonuniform List<scalar> 
4000
(
309.26114
310.1616
310.28946
310.37112
310.43269
310.49213
310.54254
310.5948
310.64084
310.68956
310.73335
310.77998
310.82243
310.86767
310.90925
310.95353
310.99449
311.03806
311.07858
311.1216
311.16178
311.20438
311.24428
311.28655
311.32623
311.36823
311.40773
311.44951
311.48884
311.53045
311.56964
311.61111
311.65017
311.69153
311.73046
311.77175
311.81055
311.85178
311.89045
311.93166
311.9702
312.01141
312.0498
312.09105
312.12926
312.1706
312.20858
312.25012
312.28764
312.33013
307.44587
309.258
309.56147
309.72799
309.83434
309.93426
310.00718
310.08559
310.14541
310.21321
310.26626
310.32779
310.37681
310.43421
310.48061
310.5351
310.57967
310.63202
310.67525
310.72598
310.76819
310.81765
310.85904
310.9075
310.94822
310.99588
311.03604
311.08305
311.12272
311.16922
311.20845
311.25453
311.29336
311.33913
311.37758
311.4231
311.46117
311.50654
311.54423
311.58952
311.62681
311.6721
311.70895
311.75434
311.79067
311.83633
311.87194
311.91823
311.95247
312.00153
306.13315
308.36699
308.83626
309.0864
309.23726
309.37737
309.47275
309.57716
309.65076
309.73754
309.79988
309.87622
309.93185
310.00133
310.05258
310.11723
310.16543
310.22654
310.2725
310.33089
310.37515
310.43144
310.47433
310.52896
310.57074
310.62403
310.66487
310.71709
310.75712
310.80848
310.84777
310.89845
310.93706
310.98721
311.02519
311.07495
311.1123
311.16179
311.1985
311.24785
311.28391
311.33326
311.36858
311.41811
311.45255
311.50254
311.53579
311.58681
311.6178
311.67322
305.14853
307.50216
308.11795
308.44858
308.64309
308.82264
308.94033
309.07036
309.15772
309.26323
309.33488
309.42586
309.48813
309.56956
309.6257
309.70042
309.75228
309.82204
309.87077
309.93677
309.9831
310.04616
310.09058
310.15132
310.19419
310.25307
310.29461
310.352
310.3924
310.44859
310.48796
310.54321
310.58163
310.63613
310.67366
310.72762
310.76426
310.81785
310.8536
310.90701
310.94183
310.99523
311.02903
311.08268
311.11526
311.16954
311.20045
311.25617
311.28395
311.34545
304.38864
306.67705
307.41208
307.81761
308.05405
308.27174
308.41132
308.56634
308.66734
308.79119
308.87211
308.97747
309.04638
309.13956
309.20061
309.28522
309.34079
309.41908
309.47061
309.54409
309.59253
309.66227
309.70826
309.77503
309.81901
309.88341
309.92569
309.98819
310.02898
310.08996
310.12943
310.18919
310.22743
310.28626
310.32335
310.38147
310.41743
310.47509
310.5099
310.56731
310.60093
310.65835
310.69065
310.74839
310.77912
310.83766
310.86627
310.92664
310.95129
311.01849
303.78911
305.90341
306.72518
307.19729
307.47283
307.72668
307.88742
308.06649
308.18086
308.32248
308.41258
308.53191
308.60744
308.71208
308.77804
308.87232
308.9316
309.01824
309.07259
309.15342
309.20399
309.28029
309.32787
309.40057
309.44568
309.51552
309.55855
309.62609
309.6673
309.73299
309.77258
309.8368
309.87489
309.93798
309.97465
310.0369
310.07219
310.13386
310.16775
310.22914
310.26157
310.32297
310.35379
310.41557
310.44449
310.50724
310.53358
310.59852
310.62018
310.69266
303.30804
305.19028
306.06415
306.59197
306.90257
307.18985
307.37058
307.57243
307.6997
307.85833
307.9574
308.09019
308.17225
308.28795
308.3588
308.46245
308.52544
308.62019
308.67737
308.76535
308.81808
308.90076
308.94995
309.02845
309.07473
309.14988
309.19369
309.26615
309.30781
309.37812
309.41786
309.48646
309.52442
309.59169
309.62798
309.69427
309.72892
309.79455
309.82755
309.89285
309.92412
309.98944
310.01881
310.08458
310.11172
310.17861
310.20276
310.27215
310.29099
310.36829
302.91697
304.54369
305.43574
306.00629
306.34669
306.66386
306.86298
307.08595
307.22546
307.40012
307.50784
307.65342
307.74183
307.86813
307.94377
308.05643
308.12308
308.22565
308.28565
308.38053
308.43541
308.52429
308.5751
308.65923
308.70667
308.787
308.8316
308.90887
308.951
309.02582
309.06572
309.1386
309.17646
309.24783
309.28375
309.35401
309.38804
309.45755
309.48969
309.55882
309.58897
309.65812
309.6861
309.75577
309.78118
309.85212
309.87415
309.94786
309.96407
310.04575
302.59584
303.96668
304.846
305.44493
305.80875
306.15153
306.36694
306.60902
306.75984
306.94932
307.06522
307.22279
307.3173
307.45361
307.5339
307.65512
307.72535
307.83539
307.89816
307.99966
308.05668
308.15151
308.20393
308.29348
308.3421
308.42743
308.47283
308.55476
308.59736
308.67656
308.71664
308.79368
308.83145
308.90682
308.9424
309.01652
309.04997
309.12326
309.15456
309.22744
309.2565
309.3294
309.35602
309.42949
309.45325
309.52811
309.54812
309.62596
309.63978
309.72538
302.32999
303.45952
304.29989
304.91232
305.29231
305.65573
305.88486
306.14367
306.30462
306.50752
306.63096
306.79958
306.89983
307.04547
307.13018
307.25945
307.33312
307.45023
307.51568
307.62348
307.68256
307.78308
307.83707
307.93182
307.9816
308.07173
308.11793
308.20433
308.24741
308.33084
308.37111
308.45217
308.48987
308.5691
308.60436
308.68223
308.71511
308.79209
308.82258
308.89909
308.9271
309.00364
309.02895
309.10611
309.12828
309.20693
309.22504
309.3068
309.31849
309.40758
302.10839
303.02014
303.80102
304.4124
304.80074
305.1793
305.41917
305.69198
305.86162
306.07632
306.20652
306.38511
306.49063
306.64481
306.73366
306.87038
306.9473
307.071
307.139
307.25272
307.31379
307.41969
307.4752
307.57488
307.62578
307.72048
307.76745
307.85814
307.90169
307.98916
308.02963
308.11456
308.15219
308.23514
308.27009
308.35158
308.38392
308.46444
308.49415
308.57418
308.60118
308.68124
308.70529
308.786
308.80666
308.88893
308.90527
308.99072
309.00054
309.09272
301.9225
302.64458
303.35144
303.94838
304.33709
304.72493
304.9722
305.25601
305.43268
305.65735
305.79337
305.98071
306.09092
306.25277
306.34537
306.48888
306.5688
306.69858
306.76896
306.88818
306.95112
307.06204
307.11898
307.2233
307.27525
307.37427
307.42198
307.51674
307.56072
307.65206
307.6927
307.78132
307.81888
307.90539
307.94004
308.025
308.05681
308.14073
308.1697
308.2531
308.27913
308.36256
308.38542
308.46953
308.48876
308.57447
308.58918
308.67806
308.68627
308.78117
301.76564
302.32751
302.95168
303.52258
303.90391
304.29504
304.54613
304.83771
305.01954
305.25221
305.39297
305.58771
305.70192
305.87048
305.96639
306.11595
306.19856
306.33384
306.40638
306.53063
306.59527
306.71083
306.76909
306.87772
306.93065
307.03372
307.0821
307.18067
307.22506
307.32003
307.36083
307.45294
307.49042
307.58032
307.61466
307.70292
307.73422
307.82138
307.84964
307.93625
307.96136
308.04799
308.06972
308.15705
308.17496
308.2639
308.27712
308.36915
308.37602
308.47329
301.63244
302.06276
302.6008
303.13635
303.50316
303.89169
304.1429
304.43891
304.62386
304.86243
305.0067
305.20741
305.32485
305.49907
305.59775
305.75257
305.8375
305.97765
306.05209
306.18085
306.24701
306.36678
306.42622
306.5388
306.59261
306.6994
306.74839
306.85051
306.89525
306.99362
307.03453
307.12992
307.1673
307.26038
307.29442
307.38579
307.41659
307.50682
307.53438
307.62402
307.64825
307.73791
307.75858
307.84893
307.86561
307.95756
307.96946
308.06435
308.07011
308.16946
301.51859
301.84373
302.29666
302.79004
303.13612
303.5165
303.76414
304.0612
304.24714
304.48942
304.63588
304.84104
304.96083
305.13959
305.24045
305.39968
305.48651
305.63085
305.70688
305.83961
305.90706
306.03059
306.09103
306.20718
306.26173
306.37193
306.42141
306.5268
306.57182
306.67332
306.71431
306.81274
306.84999
306.94604
306.97976
307.07404
307.10434
307.19744
307.22433
307.31682
307.34021
307.43269
307.45237
307.54554
307.56109
307.65581
307.66654
307.764
307.76887
307.87002
301.42061
301.66382
302.0361
302.48302
302.80334
303.17057
303.41113
303.70592
303.89067
304.13445
304.28169
304.48973
304.61094
304.79308
304.89547
305.05821
305.14645
305.29428
305.37154
305.50766
305.57613
305.70294
305.76418
305.88349
305.93863
306.05188
306.10175
306.21008
306.25529
306.35966
306.40065
306.50187
306.53896
306.63774
306.67113
306.7681
306.7979
306.89366
306.91989
307.01502
307.03761
307.13271
307.15146
307.24722
307.26174
307.35898
307.36869
307.46842
307.47261
307.5753
301.33566
301.51671
301.81524
302.21381
302.50468
302.85447
303.08473
303.3741
303.55551
303.79858
303.94518
304.15452
304.27614
304.46047
304.56367
304.72899
304.81813
304.9687
305.04681
305.18572
305.25491
305.38449
305.4463
305.56834
305.6239
305.73981
305.78993
305.90088
305.94618
306.05312
306.09405
306.19779
306.23466
306.33592
306.36895
306.46837
306.49768
306.59586
306.62146
306.719
306.74083
306.83833
306.85621
306.95432
306.96792
307.06741
307.07625
307.17796
307.18162
307.28564
301.26146
301.3966
301.62981
301.98022
302.23931
302.56823
302.78538
303.06643
303.24246
303.48269
303.6272
303.83625
303.95728
304.14259
304.24585
304.41282
304.5023
304.65485
304.73337
304.87444
304.94403
305.07585
305.13799
305.26229
305.31807
305.43626
305.48649
305.5997
305.64498
305.75417
305.79495
305.90093
305.93753
306.04101
306.07364
306.17527
306.20406
306.30444
306.32941
306.42913
306.45024
306.54988
306.56697
306.66718
306.67996
306.78143
306.78954
306.89293
306.89621
307.00134
301.19615
301.29833
301.47533
301.77953
302.00583
302.31135
302.51307
302.78326
302.95202
303.1874
303.32844
303.53566
303.65507
303.84016
303.94272
304.11037
304.19961
304.35337
304.43187
304.57444
304.64409
304.7776
304.83979
304.9659
305.02168
305.14175
305.19191
305.30703
305.35216
305.46327
305.50381
305.61173
305.64798
305.75341
305.7856
305.88918
305.91743
306.01975
306.04411
306.14575
306.16617
306.26772
306.28406
306.38611
306.39817
306.50134
306.50884
306.61364
306.61665
306.72271
301.13827
301.21747
301.34742
301.60862
301.80232
302.08285
302.2674
302.52458
302.68438
302.9131
303.04933
303.25328
303.37004
303.55376
303.65484
303.82223
303.91064
304.06482
304.14284
304.28628
304.35561
304.49026
304.55221
304.67965
304.73521
304.85673
304.90664
305.0233
305.06813
305.18084
305.22103
305.33057
305.36641
305.4735
305.5052
305.61045
305.63815
305.74215
305.76589
305.86921
305.88896
305.99215
306.00781
306.11144
306.12285
306.22745
306.23445
306.34039
306.34321
306.45002
301.08661
301.15032
301.24191
301.46419
301.62652
301.88134
302.04755
302.29004
302.43947
302.6599
302.79013
302.98943
303.1026
303.28381
303.38268
303.54888
303.63587
303.78971
303.86676
304.01041
304.07906
304.2143
304.27571
304.404
304.45909
304.58163
304.63111
304.74892
304.79331
304.90727
304.94698
305.05785
305.09318
305.20163
305.23279
305.33943
305.36655
305.47196
305.49508
305.5998
305.61891
305.72348
305.73851
305.84344
305.85428
305.96004
305.96664
306.07346
306.07617
306.18353
301.04025
301.09388
301.15498
301.34293
301.47591
301.70512
301.85239
302.07897
302.21691
302.4277
302.55085
302.74428
302.85295
303.03063
303.12653
303.29068
303.37564
303.52841
303.60402
303.74725
303.81482
303.9501
304.01067
304.13931
304.19369
304.31683
304.36567
304.48425
304.52804
304.6429
304.68203
304.79388
304.82862
304.93813
304.96869
305.07643
305.10293
305.20947
305.23196
305.33782
305.35631
305.46199
305.47643
305.58239
305.59274
305.69937
305.70565
305.8131
305.81574
305.9235
300.99843
301.04577
301.08326
301.2416
301.34784
301.55222
301.6805
301.89042
302.01606
302.2161
302.33128
302.51777
302.62114
302.79432
302.88659
303.04785
303.13023
303.2812
303.35491
303.4971
303.56322
303.69799
303.7574
303.88593
303.93935
304.06265
304.11065
304.22961
304.27265
304.38804
304.42646
304.53898
304.57303
304.68329
304.71318
304.82174
304.84758
304.95497
304.97682
305.08354
305.10143
305.20793
305.22183
305.32854
305.33845
305.4457
305.45173
305.55957
305.56217
305.67015
300.96055
301.00414
301.02383
301.15719
301.23963
301.42052
301.53026
301.72321
301.83606
302.02454
302.13102
302.30968
302.40703
302.57487
302.66288
302.82049
302.89976
303.04825
303.11963
303.26018
303.32448
303.45822
303.51616
303.64411
303.69631
303.81936
303.86631
303.98528
304.02738
304.14297
304.18054
304.29339
304.32667
304.43737
304.46652
304.5756
304.60074
304.7087
304.7299
304.83719
304.85448
304.96154
304.97493
305.08213
305.09165
305.19925
305.20506
305.31307
305.31565
305.42367
300.92616
300.96763
300.97427
301.08693
301.14871
301.30785
301.39987
301.57597
301.67584
301.85223
301.94949
302.11958
302.21035
302.37211
302.4553
302.60858
302.68425
302.82965
302.89826
303.03662
303.09874
303.23095
303.28713
303.41404
303.46477
303.58716
303.63286
303.75145
303.79246
303.90789
303.94449
304.05735
304.08974
304.20058
304.22892
304.33823
304.36262
304.47086
304.49139
304.59899
304.61568
304.72303
304.73592
304.84334
304.85251
304.96021
304.96585
305.07381
305.07638
305.18427
300.89488
300.93521
300.93258
301.02841
301.07261
301.21202
301.2875
301.44718
301.53418
301.6982
301.78593
301.94693
302.03064
302.18571
302.26362
302.41197
302.4836
302.62534
302.69081
302.82645
302.88607
303.01627
303.0704
303.19584
303.24487
303.3662
303.41045
303.52829
303.56805
303.68298
303.71847
303.83103
303.86243
303.9731
304.00056
304.1098
304.13341
304.24165
304.26147
304.3691
304.3852
304.49256
304.50498
304.61236
304.6212
304.72877
304.73425
304.84195
304.84451
304.9521
300.86642
300.90616
300.89716
300.97952
301.0091
301.13094
301.19125
301.33527
301.40975
301.56139
301.63944
301.79099
301.86732
302.01523
302.08748
302.23038
302.29761
302.43519
302.49717
302.62963
302.68643
302.81418
302.86601
302.98956
303.03666
303.15655
303.19916
303.31591
303.35425
303.46836
303.50261
303.61455
303.64486
303.75507
303.78157
303.89047
303.91323
304.0212
304.0403
304.14769
304.16318
304.2703
304.28225
304.38935
304.39788
304.50506
304.51041
304.61764
304.62018
304.72729
300.84054
300.87996
300.86677
300.93849
300.95617
301.0626
301.10929
301.23862
301.30113
301.44061
301.50902
301.65095
301.71971
301.86011
301.92641
302.06345
302.12596
302.25896
302.31715
302.446
302.49971
302.62461
302.67389
302.79518
302.84015
302.95823
302.99903
303.11434
303.15113
303.26408
303.29698
303.40799
303.43713
303.54658
303.57205
303.68032
303.7022
303.80962
303.82796
303.93485
303.94973
304.05636
304.06784
304.1744
304.18263
304.28922
304.29443
304.40101
304.40352
304.50998
300.81706
300.85626
300.84046
300.90387
300.91205
301.00519
301.03985
301.15561
301.2069
301.3346
301.39359
301.52587
301.587
301.71966
301.77983
301.91069
301.96825
302.0963
302.15046
302.27533
302.32573
302.44742
302.49393
302.61261
302.65525
302.77121
302.81003
302.92358
302.95867
303.07017
303.1016
303.2114
303.23927
303.34768
303.37206
303.47943
303.50037
303.60698
303.62454
303.73068
303.74493
303.85081
303.86183
303.96763
303.97556
304.08134
304.0864
304.19213
304.1946
304.30024
300.79582
300.83481
300.81751
300.87447
300.87523
300.95705
300.98127
301.08469
301.12561
301.24209
301.292
301.41478
301.46833
301.59315
301.64708
301.77154
301.82399
301.9468
301.99674
302.11733
302.16422
302.28237
302.32594
302.4417
302.48184
302.59536
302.63205
302.74356
302.77682
302.88658
302.91645
303.02475
303.05127
303.15839
303.1816
303.28781
303.30777
303.41333
303.43007
303.53521
303.54881
303.65373
303.66427
303.76908
303.77671
303.88148
303.88639
303.99109
303.99351
304.09815
300.77672
300.81545
300.7974
300.84936
300.84443
300.91672
300.93204
301.02438
301.05587
301.16179
301.20309
301.31663
301.36276
301.47976
301.52745
301.64537
301.69261
301.80998
301.85556
301.9716
302.01483
302.12918
302.16966
302.28221
302.31973
302.43053
302.46497
302.57416
302.60549
302.71324
302.74145
302.848
302.87309
302.97865
303.00065
303.10545
303.12438
303.22865
303.24455
303.34847
303.3614
303.46512
303.47517
303.5788
303.5861
303.68967
303.69441
303.79791
303.80027
303.90374
300.75967
300.79806
300.77974
300.82778
300.8186
300.88295
300.89079
300.97329
300.99633
301.09246
301.1257
301.23035
301.26933
301.37861
301.42015
301.53148
301.57348
301.68527
301.72641
301.83772
301.87718
301.98751
302.02478
302.13389
302.16866
302.2765
302.30858
302.4152
302.4445
302.55001
302.57647
302.68103
302.70463
302.8084
302.82913
302.9323
302.95016
303.05291
303.06794
303.17041
303.18266
303.28498
303.29453
303.39676
303.40374
303.50593
303.51049
303.61262
303.6149
303.71704
300.7446
300.78255
300.76425
300.80917
300.79688
300.85464
300.8563
300.93017
300.94574
301.03288
301.05867
301.1549
301.18706
301.28882
301.32435
301.42914
301.46594
301.57207
301.60875
301.71519
301.75081
301.85694
301.89092
301.99639
302.02833
302.133
302.16264
302.26648
302.29367
302.39672
302.42137
302.52372
302.54576
302.64753
302.66693
302.76827
302.78502
302.88605
302.90018
303.001
303.01254
303.11326
303.1223
303.22296
303.22959
303.33022
303.33459
303.43519
303.43738
303.53804
300.73147
300.76885
300.75071
300.79308
300.77856
300.83089
300.82751
300.89387
300.90293
300.9819
301.00091
301.08922
301.11496
301.20949
301.23923
301.33756
301.36927
301.46974
301.50197
301.60346
301.63523
301.73703
301.76767
301.86934
301.89839
301.99971
302.02686
302.12772
302.15275
302.25314
302.27592
302.37586
302.3963
302.49588
302.51392
302.61322
302.62884
302.72794
302.74115
302.84014
302.85096
302.9499
302.9584
303.05733
303.0636
303.16252
303.16666
303.2656
303.26768
303.36671
300.72022
300.75689
300.73895
300.77916
300.76308
300.81092
300.80352
300.86338
300.86685
300.93846
300.95137
301.03231
301.05209
301.1397
301.16393
301.25598
301.28275
301.3776
301.40546
301.50197
301.52991
301.62728
301.65458
301.75233
301.77846
301.87629
301.9009
301.99862
302.02146
302.11901
302.13989
302.23725
302.25606
302.35326
302.36992
302.46699
302.48146
302.57847
302.59073
302.68772
302.6978
302.7948
302.80275
302.89978
302.90567
303.00273
303.00665
303.10376
303.10573
303.20299
300.71081
300.7466
300.72884
300.76714
300.75
300.79411
300.78352
300.83782
300.83654
300.90158
300.90906
300.98321
300.99751
301.07857
301.09762
301.18361
301.20562
301.29496
301.31857
301.4101
301.43427
301.52719
301.55115
301.64491
301.66812
301.76234
301.78439
301.87886
301.89947
301.99405
302.013
302.10764
302.12479
302.21945
302.2347
302.3294
302.34269
302.43745
302.44875
302.54358
302.55291
302.64782
302.6552
302.7502
302.7557
302.85076
302.85443
302.9496
302.95145
303.0468
300.70318
300.73788
300.72024
300.7568
300.73895
300.77994
300.76688
300.8164
300.81115
300.87037
300.87307
300.94101
300.95033
301.02526
301.03947
301.11965
301.13716
301.22112
301.24063
301.32725
301.34774
301.4362
301.45689
301.54659
301.56691
301.65745
301.67696
301.76806
301.78644
301.87793
301.89495
301.98673
302.00221
302.09421
302.10804
302.20023
302.21233
302.3047
302.31503
302.40757
302.41613
302.50882
302.51562
302.60845
302.61354
302.70649
302.7099
302.803
302.80473
302.89804
300.69723
300.73064
300.71305
300.74796
300.72964
300.76798
300.75304
300.79847
300.78995
300.84402
300.84259
300.90488
300.90973
300.97894
300.9887
301.06335
301.07663
301.15539
301.17099
301.2528
301.26973
301.35376
301.37126
301.4569
301.47437
301.56117
301.57817
301.66583
301.682
301.77031
301.7854
301.87422
301.88803
301.97725
301.98966
302.07922
302.09013
302.17999
302.18935
302.27947
302.28725
302.3776
302.38382
302.47437
302.47904
302.56977
302.57291
302.66384
302.66543
302.75659
300.69284
300.72475
300.70714
300.74045
300.72183
300.75789
300.74153
300.78347
300.77228
300.82182
300.81685
300.87404
300.87492
300.93884
300.94453
301.01397
301.02331
301.09709
301.10899
301.18611
301.19964
301.2793
301.29372
301.3753
301.39001
301.47306
301.48759
301.57177
301.58576
301.67082
301.68401
301.76977
301.78194
301.86828
301.87928
301.96611
301.97584
302.06308
302.07146
302.15907
302.16608
302.25399
302.25961
302.34778
302.35203
302.44044
302.4433
302.53195
302.5334
302.62232
300.68983
300.72007
300.70238
300.73412
300.71533
300.74937
300.73198
300.7709
300.75758
300.80316
300.79519
300.8478
300.84518
300.90424
300.90626
300.97081
300.97652
301.04555
301.05398
301.12657
301.13687
301.21226
301.22372
301.3013
301.31334
301.39264
301.40477
301.48544
301.49731
301.57908
301.59039
301.67305
301.68359
301.76699
301.77659
301.86062
301.86916
301.95372
301.96113
302.04613
302.05236
302.13775
302.14278
302.22849
302.2323
302.3183
302.32088
302.40716
302.40847
302.49506
300.68799
300.71646
300.69865
300.72884
300.70996
300.74219
300.72407
300.76038
300.74539
300.78749
300.77702
300.82551
300.81988
300.87447
300.87323
300.93321
300.93561
301.00013
301.00535
301.07358
301.08085
301.15208
301.16074
301.23438
301.24385
301.31944
301.32926
301.40643
301.41623
301.49468
301.50417
301.58369
301.59264
301.67304
301.68128
301.76243
301.76982
301.85161
301.85807
301.9404
301.94586
302.02865
302.03308
302.11626
302.11963
302.20315
302.20545
302.2893
302.29046
302.37465
300.6871
300.71375
300.69581
300.72448
300.70557
300.73615
300.71754
300.75157
300.73528
300.77433
300.76182
300.80663
300.7984
300.84894
300.8448
300.90055
300.89996
300.96022
300.96249
301.02656
301.03101
301.09821
301.10423
301.17402
301.18106
301.25298
301.2606
301.33427
301.34209
301.41723
301.42496
301.50131
301.50872
301.58609
301.59299
301.67124
301.67749
301.75648
301.76199
301.8416
301.8463
301.92643
301.93028
302.01086
302.01381
302.09479
302.09679
302.17814
302.17917
302.26088
300.68692
300.71177
300.69373
300.72091
300.70202
300.73107
300.71216
300.74417
300.72693
300.76329
300.74912
300.79065
300.78024
300.82708
300.82042
300.87225
300.86899
300.92526
300.92485
300.98494
300.98679
301.05013
301.05368
301.11973
301.12447
301.1928
301.19832
301.26855
301.27448
301.34631
301.35235
301.42554
301.43146
301.50579
301.5114
301.58671
301.59187
301.66801
301.6726
301.74945
301.75341
301.83085
301.83411
301.91206
301.91457
301.99297
301.99469
302.07349
302.07437
302.15355
300.68724
300.71039
300.69228
300.71802
300.69921
300.72682
300.70776
300.73796
300.72003
300.75401
300.73855
300.77714
300.76491
300.80839
300.79957
300.84779
300.84217
300.8947
300.89188
300.94821
300.94768
301.0073
301.00857
301.071
301.07361
301.13843
301.14198
301.20882
301.21295
301.28152
301.28595
301.35599
301.36049
301.43178
301.43615
301.50851
301.51261
301.58589
301.5896
301.66365
301.66689
301.74161
301.7443
301.81958
301.82168
301.89745
301.8989
301.97511
301.97585
302.05246
300.68787
300.70944
300.69136
300.7157
300.69702
300.72326
300.70417
300.73274
300.71435
300.74621
300.72975
300.76572
300.752
300.79244
300.78179
300.82668
300.81901
300.86805
300.86308
300.91586
300.91318
300.96926
300.96844
301.02738
301.02802
301.08942
301.09113
301.15465
301.1571
301.22245
301.22537
301.29229
301.29543
301.3637
301.36689
301.43631
301.4394
301.50981
301.51267
301.58392
301.58646
301.65844
301.66059
301.73318
301.73487
301.808
301.80917
301.88276
301.88337
301.95738
300.68867
300.70882
300.69084
300.71385
300.69534
300.72028
300.70127
300.72833
300.70967
300.73963
300.72243
300.75605
300.74115
300.77884
300.76664
300.80848
300.79904
300.84485
300.83798
300.88743
300.88282
300.93553
300.93283
300.98841
300.98723
301.04534
301.04534
301.10564
301.10652
301.16871
301.17021
301.23405
301.23593
301.30119
301.30327
301.36977
301.37189
301.43944
301.44149
301.50995
301.51182
301.58106
301.58267
301.65257
301.65386
301.72433
301.72524
301.79621
301.79668
301.86807
300.68952
300.70842
300.69064
300.71238
300.69411
300.71779
300.69894
300.7246
300.70583
300.73407
300.71636
300.74785
300.73204
300.76722
300.75378
300.79281
300.78188
300.82468
300.81617
300.86248
300.85617
300.90569
300.90128
300.95366
300.95084
301.00576
301.00421
301.06137
301.0608
301.11991
301.12009
301.18091
301.1816
301.24391
301.24494
301.30854
301.30976
301.37447
301.37575
301.44143
301.44267
301.50916
301.51028
301.57748
301.5784
301.64621
301.64686
301.71519
301.71553
301.7843
300.69037
300.70815
300.69068
300.71121
300.69322
300.71571
300.69707
300.72143
300.70267
300.72933
300.71132
300.74088
300.72439
300.7573
300.74286
300.77932
300.76715
300.80715
300.79724
300.84062
300.83283
300.87932
300.87341
300.92273
300.91844
300.9703
300.96733
301.02145
301.01957
301.07568
301.07464
301.1325
301.1321
301.1915
301.19156
301.25231
301.25268
301.31458
301.31514
301.37806
301.3787
301.44248
301.44312
301.50764
301.50819
301.57335
301.57376
301.63945
301.63968
301.70582
300.69117
300.70796
300.69088
300.71027
300.69262
300.71394
300.6956
300.71871
300.70008
300.72529
300.70712
300.73493
300.71797
300.7488
300.73359
300.7677
300.75451
300.79194
300.78085
300.82148
300.81241
300.85606
300.84883
300.89524
300.88963
300.93856
300.93434
300.98552
300.98244
301.03564
301.0335
301.08848
301.08707
301.14363
301.14279
301.20073
301.20032
301.25946
301.25935
301.31953
301.31962
301.3807
301.3809
301.44275
301.44298
301.50549
301.50568
301.56875
301.56886
301.63238
300.6919
300.7078
300.69119
300.7095
300.69224
300.71244
300.69444
300.71635
300.69795
300.72179
300.70362
300.72981
300.71257
300.74151
300.72573
300.75767
300.74369
300.77872
300.76667
300.80473
300.79459
300.83554
300.82718
300.87084
300.86408
300.91021
300.90486
300.95323
300.94908
300.99946
300.99632
301.04851
301.04618
301.09997
301.09831
301.1535
301.15237
301.20879
301.20806
301.26556
301.26513
301.32355
301.32333
301.38255
301.38247
301.44237
301.44235
301.50281
301.50282
301.56374
300.69257
300.70764
300.69157
300.70884
300.69202
300.71113
300.69353
300.71429
300.69619
300.71875
300.70069
300.72539
300.70802
300.73521
300.71906
300.749
300.73442
300.76723
300.75441
300.79008
300.77904
300.81747
300.80815
300.84919
300.84145
300.8849
300.87857
300.92424
300.91914
300.96681
300.96278
301.01225
301.00911
301.06019
301.0578
301.1103
301.10852
301.16228
301.16099
301.21584
301.21494
301.27075
301.27015
301.32677
301.3264
301.38371
301.3835
301.44139
301.4413
301.49965
300.69316
300.70745
300.69197
300.70826
300.69192
300.70997
300.6928
300.71246
300.69472
300.71607
300.69823
300.72153
300.70417
300.72974
300.71338
300.74147
300.72647
300.75722
300.74381
300.77724
300.76549
300.80155
300.79143
300.83
300.82142
300.86233
300.85516
300.89823
300.89232
300.93738
300.93256
300.97941
300.97555
301.024
301.02095
301.07084
301.06847
301.11963
301.11783
301.1701
301.16878
301.22201
301.22107
301.27513
301.27449
301.32926
301.32887
301.38422
301.38404
301.43985
300.69369
300.70724
300.69239
300.70772
300.6919
300.70891
300.69222
300.7108
300.69348
300.71367
300.69613
300.71812
300.7009
300.72496
300.70853
300.73491
300.71965
300.74849
300.73465
300.76599
300.75369
300.78752
300.77676
300.81299
300.80372
300.84221
300.83433
300.87493
300.86832
300.91086
300.90537
300.94969
300.9452
300.99111
300.98748
301.03483
301.03195
301.08056
301.07832
301.12805
301.12635
301.17706
301.17581
301.22736
301.22649
301.27875
301.27821
301.33105
301.33079
301.3841
300.69417
300.70699
300.69278
300.70719
300.69191
300.70792
300.69173
300.70927
300.69241
300.71148
300.69432
300.71508
300.69808
300.72075
300.70437
300.72915
300.71378
300.74083
300.72672
300.75611
300.74341
300.77514
300.76389
300.7979
300.78809
300.82428
300.81582
300.85406
300.84686
300.88699
300.88094
300.92281
300.91778
300.96124
300.95711
301.00199
300.99866
301.04481
301.04217
301.08944
301.0874
301.13564
301.13413
301.18321
301.18214
301.23194
301.23126
301.28164
301.28131
301.33215
300.69458
300.70669
300.69315
300.70665
300.69193
300.70696
300.6913
300.70782
300.69146
300.70947
300.69274
300.71233
300.69565
300.71699
300.70079
300.72407
300.70871
300.73409
300.71985
300.74741
300.73444
300.7642
300.7526
300.78452
300.77429
300.80829
300.79938
300.83536
300.82769
300.86552
300.85899
300.89852
300.89304
300.93412
300.92958
300.97207
300.96836
301.0121
301.00913
301.05399
301.05167
301.0975
301.09575
301.14243
301.14118
301.18856
301.18776
301.23573
301.23534
301.28376
300.69494
300.70634
300.69347
300.70608
300.69194
300.70599
300.6909
300.70641
300.6906
300.70756
300.69133
300.7098
300.69352
300.71361
300.69767
300.71956
300.70432
300.72814
300.71387
300.73972
300.72662
300.75452
300.74269
300.77264
300.76211
300.79404
300.78478
300.81861
300.81058
300.84619
300.8393
300.87657
300.87072
300.90952
300.90463
300.94481
300.94078
300.9822
300.97895
301.02147
301.0189
301.06239
301.06044
301.10476
301.10337
301.14839
301.14749
301.19309
301.19265
301.23871
300.69525
300.70595
300.69373
300.70545
300.6919
300.705
300.69049
300.70502
300.68979
300.70574
300.69005
300.70744
300.69162
300.71053
300.69494
300.7155
300.70048
300.72283
300.70866
300.73289
300.71978
300.74593
300.73399
300.76207
300.75135
300.78132
300.77182
300.80361
300.7953
300.8288
300.82163
300.85673
300.85061
300.8872
300.88204
300.91998
300.9157
300.95486
300.95139
300.99163
300.98887
301.03007
301.02796
301.06999
301.06847
301.11119
301.1102
301.15349
301.15301
301.19674
300.6955
300.7055
300.69392
300.70476
300.6918
300.70397
300.69005
300.70363
300.689
300.70397
300.68886
300.70521
300.6899
300.70768
300.69251
300.71182
300.69711
300.71808
300.7041
300.72681
300.71377
300.73828
300.72633
300.75264
300.74184
300.76994
300.76031
300.79014
300.78167
300.81315
300.80578
300.8388
300.83248
300.86694
300.86158
300.89737
300.8929
300.92987
300.92622
300.96426
300.96135
301.00032
300.99809
301.03787
301.03625
301.07672
301.07567
301.1167
301.11619
301.15765
300.69571
300.705
300.69402
300.70399
300.69162
300.70287
300.68955
300.70221
300.6882
300.70222
300.68772
300.70307
300.68832
300.70502
300.69033
300.70846
300.69413
300.71378
300.70008
300.72135
300.7085
300.73143
300.71957
300.74421
300.73343
300.75975
300.75008
300.77805
300.76949
300.79903
300.79155
300.82259
300.81613
300.84855
300.84306
300.87676
300.87216
300.90701
300.90324
300.93913
300.93611
300.97292
300.9706
301.0082