/*--------------------------------*- C++ -*----------------------------------*\
| =========                 |                                                 |
| \\      /  F ield         | OpenFOAM: The Open Source CFD Toolbox           |
|  \\    /   O peration     | Version:  2312                                  |
|   \\  /    A nd           | Website:  www.openfoam.com                      |
|    \\/     M anipulation  |                                                 |
\*---------------------------------------------------------------------------*/
FoamFile
{
    version     2.0;
    format      ascii;
    arch        "LSB;label=32;scalar=64";
    class       volVectorField;
    location    "7";
    object      U;
}
// * * * * * * * * * * * * * * * * * * * * * * * * * * * * * * * * * * * * * //

dimensions      [0 1 -1 0 0 0 0];

internalField   nonuniform List<vector> 
4000
(
(0.0013490154 0.00023021645 0)
(0.0014475771 -1.2418055e-06 0)
(0.0013498506 -1.5196538e-07 0)
(0.0013956147 1.4809522e-07 0)
(0.0013600219 -1.3728305e-07 0)
(0.0013934345 1.3032945e-07 0)
(0.0013630182 -1.2099485e-07 0)
(0.0013916171 1.1371383e-07 0)
(0.0013649316 -1.0648847e-07 0)
(0.0013899548 9.9907343e-08 0)
(0.0013665334 -9.3676691e-08 0)
(0.0013884722 8.7869283e-08 0)
(0.0013679319 -8.2420755e-08 0)
(0.0013871639 7.7324342e-08 0)
(0.0013691607 -7.2551382e-08 0)
(0.0013860116 6.8085733e-08 0)
(0.0013702422 -6.3905543e-08 0)
(0.0013849966 5.9996129e-08 0)
(0.0013711951 -5.6337892e-08 0)
(0.0013841019 5.2918783e-08 0)
(0.0013720353 -4.9720806e-08 0)
(0.0013833124 4.6734238e-08 0)
(0.0013727771 -4.3942628e-08 0)
(0.0013826148 4.1338134e-08 0)
(0.0013734331 -3.8905846e-08 0)
(0.0013819974 3.6639419e-08 0)
(0.0013740142 -3.4525454e-08 0)
(0.0013814497 3.2558802e-08 0)
(0.0013745304 -3.0727521e-08 0)
(0.0013809625 2.9027422e-08 0)
(0.0013749903 -2.7447949e-08 0)
(0.0013805276 2.5985686e-08 0)
(0.0013754016 -2.463139e-08 0)
(0.0013801377 2.3382267e-08 0)
(0.0013757714 -2.2230317e-08 0)
(0.0013797862 2.117325e-08 0)
(0.0013761058 -2.0204233e-08 0)
(0.0013794672 1.9321394e-08 0)
(0.0013764106 -1.8519004e-08 0)
(0.0013791752 1.7795541e-08 0)
(0.0013766908 -1.7146327e-08 0)
(0.0013789054 1.6570148e-08 0)
(0.0013769512 -1.6063352e-08 0)
(0.0013786532 1.5625032e-08 0)
(0.0013771961 -1.5252628e-08 0)
(0.0013784143 1.4945462e-08 0)
(0.0013774298 -1.47036e-08 0)
(0.001378185 1.452469e-08 0)
(0.0013776626 -1.4383896e-08 0)
(0.0013780089 1.4877597e-08 0)
(0.0037645544 0.00063525577 0)
(0.0041624015 4.2781512e-07 0)
(0.0039241958 4.4642796e-08 0)
(0.0040511218 4.108649e-07 0)
(0.0039478306 -4.7784491e-07 0)
(0.004045207 4.3481543e-07 0)
(0.003956475 -4.2089158e-07 0)
(0.004039936 3.9180469e-07 0)
(0.0039620411 -3.6912236e-07 0)
(0.0040350835 3.4556959e-07 0)
(0.0039667167 -3.2434544e-07 0)
(0.0040307551 3.0410532e-07 0)
(0.0039708007 -2.8530822e-07 0)
(0.0040269359 2.6764056e-07 0)
(0.0039743898 -2.5113587e-07 0)
(0.0040235721 2.3567095e-07 0)
(0.0039775489 -2.2120979e-07 0)
(0.0040206088 2.0767412e-07 0)
(0.0039803323 -1.950178e-07 0)
(0.0040179965 1.831805e-07 0)
(0.003982787 -1.7211663e-07 0)
(0.0040156911 1.6177727e-07 0)
(0.0039849545 -1.5211957e-07 0)
(0.0040136538 1.4310333e-07 0)
(0.0039868714 -1.3468906e-07 0)
(0.0040118502 1.2684358e-07 0)
(0.00398857 -1.1953092e-07 0)
(0.00401025 1.1272361e-07 0)
(0.003990079 -1.0638927e-07 0)
(0.0040088262 1.0050513e-07 0)
(0.003991424 -9.5042285e-08 0)
(0.0040075547 8.9981894e-08 0)
(0.0039926276 -8.5298426e-08 0)
(0.0040064142 8.0976288e-08 0)
(0.00399371 -7.6993196e-08 0)
(0.0040053853 7.3336291e-08 0)
(0.0039946897 -6.998639e-08 0)
(0.0040044508 6.6932943e-08 0)
(0.003995583 -6.4159734e-08 0)
(0.0040035949 6.165819e-08 0)
(0.0039964052 -5.9414934e-08 0)
(0.0040028031 5.7423113e-08 0)
(0.00399717 -5.5672106e-08 0)
(0.004002062 5.4156636e-08 0)
(0.0039978904 -5.2868416e-08 0)
(0.004001359 5.1805705e-08 0)
(0.0039985787 -5.0963009e-08 0)
(0.0040006822 5.0260249e-08 0)
(0.0039992586 -5.0549521e-08 0)
(0.004000135 4.8406416e-08 0)
(0.0061130454 0.0010194905 0)
(0.0067965255 -4.8826976e-07 0)
(0.0064332176 3.7743169e-07 0)
(0.0066395252 6.9472921e-07 0)
(0.0064684507 -8.6624157e-07 0)
(0.0066298474 7.7420101e-07 0)
(0.0064826582 -7.616446e-07 0)
(0.0066210938 7.063596e-07 0)
(0.0064918635 -6.6694622e-07 0)
(0.0066130379 6.2386589e-07 0)
(0.0064996178 -5.8578352e-07 0)
(0.0066058555 5.4912203e-07 0)
(0.0065063941 -5.1523404e-07 0)
(0.0065995189 4.832965e-07 0)
(0.0065123497 -4.5351384e-07 0)
(0.0065939378 4.2557033e-07 0)
(0.0065175921 -3.9946936e-07 0)
(0.0065890213 3.750149e-07 0)
(0.0065222111 -3.5216955e-07 0)
(0.0065846868 3.3078482e-07 0)
(0.0065262849 -3.1081288e-07 0)
(0.0065808613 2.9213507e-07 0)
(0.0065298822 -2.7470073e-07 0)
(0.0065774805 2.5841369e-07 0)
(0.0065330639 -2.4322346e-07 0)
(0.0065744874 2.2905167e-07 0)
(0.0065358835 -2.158497e-07 0)
(0.0065718314 2.0355352e-07 0)
(0.0065383888 -1.9211739e-07 0)
(0.0065694678 1.8148889e-07 0)
(0.006540622 -1.7162587e-07 0)
(0.0065673568 1.6248537e-07 0)
(0.0065426208 -1.5402919e-07 0)
(0.0065654627 1.4622215e-07 0)
(0.006544419 -1.3903022e-07 0)
(0.0065637536 1.3242462e-07 0)
(0.0065460468 -1.2637563e-07 0)
(0.0065622007 1.2085977e-07 0)
(0.0065475318 -1.1585163e-07 0)
(0.0065607777 1.1133217e-07 0)
(0.006548899 -1.072803e-07 0)
(0.0065594608 1.0368071e-07 0)
(0.0065501716 -1.0051658e-07 0)
(0.0065582274 9.7775806e-08 0)
(0.0065513712 -9.5444789e-08 0)
(0.0065570566 9.3519507e-08 0)
(0.006552518 -9.1983025e-08 0)
(0.0065559278 9.0677535e-08 0)
(0.0065536479 -9.158358e-08 0)
(0.0065549927 8.6920699e-08 0)
(0.008414269 0.0013735214 0)
(0.0093562927 -2.3650681e-06 0)
(0.0088766394 9.7604264e-07 0)
(0.009161027 9.1895167e-07 0)
(0.0089217959 -1.2408019e-06 0)
(0.0091474455 1.0878487e-06 0)
(0.0089414935 -1.089292e-06 0)
(0.009135172 1.0062811e-06 0)
(0.0089543335 -9.5235438e-07 0)
(0.0091238899 8.9004454e-07 0)
(0.0089651792 -8.3607244e-07 0)
(0.009113837 7.8357777e-07 0)
(0.008974661 -7.353098e-07 0)
(0.009104969 6.8967554e-07 0)
(0.0089829952 -6.4721342e-07 0)
(0.0090971587 6.0730471e-07 0)
(0.0089903317 -5.7008255e-07 0)
(0.0090902782 5.351619e-07 0)
(0.0089967958 -5.0257933e-07 0)
(0.0090842121 4.7204449e-07 0)
(0.009002497 -4.4355822e-07 0)
(0.0090788583 4.1688999e-07 0)
(0.0090075316 -3.9202186e-07 0)
(0.0090741267 3.6876821e-07 0)
(0.0090119845 -3.4710008e-07 0)
(0.0090699374 3.2686723e-07 0)
(0.0090159311 -3.0803452e-07 0)
(0.0090662199 2.9047999e-07 0)
(0.0090194379 -2.7416568e-07 0)
(0.0090629113 2.589924e-07 0)
(0.009022564 -2.4492177e-07 0)
(0.009059956 2.3187298e-07 0)
(0.0090253624 -2.19809e-07 0)
(0.0090573042 2.0866394e-07 0)
(0.0090278801 -1.9840328e-07 0)
(0.009054911 1.8897335e-07 0)
(0.0090301597 -1.80343e-07 0)
(0.0090527361 1.7246858e-07 0)
(0.0090322396 -1.6532291e-07 0)
(0.0090507429 1.588706e-07 0)
(0.0090341551 -1.5308884e-07 0)
(0.0090488976 1.4794908e-07 0)
(0.0090359384 -1.4343315e-07 0)
(0.009047169 1.395182e-07 0)
(0.00903762 -1.3618894e-07 0)
(0.0090455273 1.3343728e-07 0)
(0.0090392284 -1.3123134e-07 0)
(0.0090439432 1.2932612e-07 0)
(0.0090408101 -1.3121273e-07 0)
(0.0090426036 1.2361056e-07 0)
(0.010660086 0.0016964436 0)
(0.011839411 -5.1379757e-06 0)
(0.011254065 1.7895975e-06 0)
(0.011615772 1.0794472e-06 0)
(0.011307875 -1.5855277e-06 0)
(0.011597985 1.3629821e-06 0)
(0.011332996 -1.3907861e-06 0)
(0.011582152 1.279708e-06 0)
(0.011349463 -1.213983e-06 0)
(0.011567623 1.1335387e-06 0)
(0.011363411 -1.0652489e-06 0)
(0.011554685 9.9815923e-07 0)
(0.01137561 -9.3677667e-07 0)
(0.011543274 8.7857843e-07 0)
(0.011386334 -8.2452629e-07 0)
(0.011533224 7.7365343e-07 0)
(0.011395774 -7.2626028e-07 0)
(0.01152437 6.8175183e-07 0)
(0.011404091 -6.4026237e-07 0)
(0.011516565 6.0134644e-07 0)
(0.011411427 -5.6507107e-07 0)
(0.011509676 5.3108464e-07 0)
(0.011417905 -4.9941533e-07 0)
(0.011503587 4.6978165e-07 0)
(0.011423635 -4.4218647e-07 0)
(0.011498196 4.1640324e-07 0)
(0.011428714 -3.9241829e-07 0)
(0.011493413 3.7004873e-07 0)
(0.011433227 -3.4927056e-07 0)
(0.011489155 3.2993583e-07 0)
(0.01143725 -3.1201478e-07 0)
(0.011485352 2.9538752e-07 0)
(0.011440851 -2.8002188e-07 0)
(0.011481939 2.6582058e-07 0)
(0.011444091 -2.527515e-07 0)
(0.011478859 2.4073572e-07 0)
(0.011447025 -2.297429e-07 0)
(0.011476059 2.1970911e-07 0)
(0.011449703 -2.106071e-07 0)
(0.011473494 2.0238515e-07 0)
(0.011452168 -1.9502005e-07 0)
(0.011471118 1.8847011e-07 0)
(0.011454464 -1.8271675e-07 0)
(0.011468892 1.7772644e-07 0)
(0.01145663 -1.7348273e-07 0)
(0.011466778 1.6997466e-07 0)
(0.011458701 -1.6714918e-07 0)
(0.011464737 1.6468073e-07 0)
(0.011460735 -1.6781952e-07 0)
(0.01146298 1.5707467e-07 0)
(0.012849117 0.0019895903 0)
(0.01424611 -8.6874202e-06 0)
(0.013565415 2.756987e-06 0)
(0.014003781 1.1854973e-06 0)
(0.013626795 -1.899628e-06 0)
(0.013981359 1.601483e-06 0)
(0.013657267 -1.6672087e-06 0)
(0.013961939 1.5279445e-06 0)
(0.013677342 -1.4528774e-06 0)
(0.013944154 1.3553799e-06 0)
(0.013694392 -1.2742571e-06 0)
(0.013928327 1.1937598e-06 0)
(0.013709311 -1.1204704e-06 0)
(0.013914369 1.0507894e-06 0)
(0.013722426 -9.8618907e-07 0)
(0.013902077 9.2530685e-07 0)
(0.013733971 -8.6865161e-07 0)
(0.013891249 8.1539309e-07 0)
(0.013744144 -7.6579097e-07 0)
(0.013881702 7.1922739e-07 0)
(0.013753116 -6.7585658e-07 0)
(0.013873276 6.3519309e-07 0)
(0.013761039 -5.9732769e-07 0)
(0.013865829 5.6187345e-07 0)
(0.013768047 -5.2887807e-07 0)
(0.013859236 4.9803157e-07 0)
(0.013774259 -4.6935201e-07 0)
(0.013853385 4.4259029e-07 0)
(0.013779778 -4.177445e-07 0)
(0.013848177 3.9461401e-07 0)
(0.013784699 -3.7318414e-07 0)
(0.013843525 3.5329301e-07 0)
(0.013789104 -3.3491847e-07 0)
(0.013839351 3.1792973e-07 0)
(0.013793067 -3.0230113e-07 0)
(0.013835583 2.8792696e-07 0)
(0.013796656 -2.7478097e-07 0)
(0.013832159 2.6277774e-07 0)
(0.013799931 -2.5189257e-07 0)
(0.013829021 2.4205655e-07 0)
(0.013802947 -2.3324809e-07 0)
(0.013826115 2.2541165e-07 0)
(0.013805756 -2.1852988e-07 0)
(0.013823392 2.1255788e-07 0)
(0.013808405 -2.074791e-07 0)
(0.013820805 2.0327995e-07 0)
(0.01381094 -1.9988058e-07 0)
(0.013818308 1.9688549e-07 0)
(0.013813425 -2.0147096e-07 0)
(0.013816124 1.8739389e-07 0)
(0.01498403 0.0022544509 0)
(0.016576999 -1.2960113e-05 0)
(0.015810668 3.8144471e-06 0)
(0.01632495 1.2462123e-06 0)
(0.015878683 -2.182827e-06 0)
(0.016297447 1.8063247e-06 0)
(0.015914421 -1.9207174e-06 0)
(0.016274427 1.753321e-06 0)
(0.01593807 -1.6710381e-06 0)
(0.01625339 1.5574998e-06 0)
(0.01595821 -1.464883e-06 0)
(0.016234681 1.3720651e-06 0)
(0.015975839 -1.2879676e-06 0)
(0.016218184 1.2077899e-06 0)
(0.015991338 -1.1335905e-06 0)
(0.016203656 1.063569e-06 0)
(0.016004983 -9.9848003e-07 0)
(0.016190858 9.3723477e-07 0)
(0.016017005 -8.8024386e-07 0)
(0.016179575 8.2670094e-07 0)
(0.016027609 -7.7686691e-07 0)
(0.016169617 7.3011059e-07 0)
(0.016036973 -6.8660055e-07 0)
(0.016160816 6.4583555e-07 0)
(0.016045255 -6.0792016e-07 0)
(0.016153024 5.7245427e-07 0)
(0.016052596 -5.3949721e-07 0)
(0.016146109 5.0872866e-07 0)
(0.016059119 -4.8017641e-07 0)
(0.016139954 4.535834e-07 0)
(0.016064934 -4.2895606e-07 0)
(0.016134456 4.0608775e-07 0)
(0.01607014 -3.8497116e-07 0)
(0.016129522 3.6543992e-07 0)
(0.016074824 -3.4747869e-07 0)
(0.01612507 3.3095343e-07 0)
(0.016079066 -3.1584501e-07 0)
(0.016121023 3.0204542e-07 0)
(0.016082936 -2.8953494e-07 0)
(0.016117313 2.7822656e-07 0)
(0.016086501 -2.6810229e-07 0)
(0.016113879 2.5909199e-07 0)
(0.016089821 -2.5118104e-07 0)
(0.01611066 2.4431248e-07 0)
(0.016092952 -2.3847069e-07 0)
(0.016107603 2.3363931e-07 0)
(0.016095948 -2.297065e-07 0)
(0.016104651 2.2622089e-07 0)
(0.016098882 -2.323772e-07 0)
(0.016102035 2.1482061e-07 0)
(0.017067376 0.0024918773 0)
(0.018832841 -1.788082e-05 0)
(0.017989944 4.9076039e-06 0)
(0.018578973 1.2683662e-06 0)
(0.018063665 -2.4335012e-06 0)
(0.018546137 1.9787305e-06 0)
(0.018104558 -2.1519124e-06 0)
(0.018519522 1.9566727e-06 0)
(0.018131734 -1.8690711e-06 0)
(0.018495247 1.7405214e-06 0)
(0.018154941 -1.6376856e-06 0)
(0.018473673 1.5336105e-06 0)
(0.018175264 -1.439765e-06 0)
(0.018454654 1.3500492e-06 0)
(0.018193131 -1.2671688e-06 0)
(0.018437905 1.1888529e-06 0)
(0.018208861 -1.1161318e-06 0)
(0.01842315 1.0476407e-06 0)
(0.018222721 -9.8396171e-07 0)
(0.018410142 9.2408797e-07 0)
(0.018234945 -8.6840286e-07 0)
(0.018398662 8.1612054e-07 0)
(0.01824574 -7.6749991e-07 0)
(0.018388515 7.2191875e-07 0)
(0.018255289 -6.7954842e-07 0)
(0.018379531 6.3989372e-07 0)
(0.018263752 -6.030632e-07 0)
(0.018371559 5.6866161e-07 0)
(0.018271272 -5.3675275e-07 0)
(0.018364463 5.0702044e-07 0)
(0.018277976 -4.794973e-07 0)
(0.018358125 4.5392989e-07 0)
(0.018283977 -4.3032984e-07 0)
(0.018352437 4.0849368e-07 0)
(0.018289378 -3.8841971e-07 0)
(0.018347304 3.6994441e-07 0)
(0.018294268 -3.5305849e-07 0)
(0.018342638 3.3763044e-07 0)
(0.01829873 -3.236477e-07 0)
(0.018338362 3.1100449e-07 0)
(0.01830284 -2.9968811e-07 0)
(0.018334402 2.896133e-07 0)
(0.018306667 -2.807695e-07 0)
(0.018330692 2.7308714e-07 0)
(0.018310277 -2.6655242e-07 0)
(0.018327167 2.6114608e-07 0)
(0.018313731 -2.567198e-07 0)
(0.018323763 2.5278226e-07 0)
(0.01831711 -2.6058056e-07 0)
(0.01832071 2.3944781e-07 0)
(0.019100663 0.0027025843 0)
(0.021014418 -2.3356408e-05 0)
(0.020103492 5.9896941e-06 0)
(0.020765354 1.258741e-06 0)
(0.020181881 -2.6510353e-06 0)
(0.020727326 2.1194317e-06 0)
(0.020227767 -2.3608196e-06 0)
(0.02069714 2.1382553e-06 0)
(0.020258413 -2.0470425e-06 0)
(0.020669653 1.904561e-06 0)
(0.020284656 -1.7927489e-06 0)
(0.020645241 1.6784862e-06 0)
(0.020307644 -1.5759414e-06 0)
(0.020623723 1.4776448e-06 0)
(0.020327857 -1.3869942e-06 0)
(0.020604774 1.3012263e-06 0)
(0.020345652 -1.221669e-06 0)
(0.020588081 1.1466705e-06 0)
(0.020361331 -1.0769994e-06 0)
(0.020573365 1.0114411e-06 0)
(0.020375161 -9.5051297e-07 0)
(0.020560376 8.9326943e-07 0)
(0.020387373 -8.4006879e-07 0)
(0.020548897 7.9016418e-07 0)
(0.020398175 -7.4380103e-07 0)
(0.020538733 7.0038643e-07 0)
(0.020407749 -6.6008397e-07 0)
(0.020529714 6.2242161e-07 0)
(0.020416257 -5.8750391e-07 0)
(0.020521687 5.5495419e-07 0)
(0.020423842 -5.2483513e-07 0)
(0.020514516 4.9684553e-07 0)
(0.020430631 -4.710191e-07 0)
(0.020508081 4.4711462e-07 0)
(0.02043674 -4.2514655e-07 0)
(0.020502274 4.0492145e-07 0)
(0.020442272 -3.864419e-07 0)
(0.020496996 3.6955263e-07 0)
(0.020447321 -3.5424986e-07 0)
(0.020492157 3.4040882e-07 0)
(0.02045197 -3.2802345e-07 0)
(0.020487678 3.1699314e-07 0)
(0.0204563 -3.0731244e-07 0)
(0.02048348 2.9889889e-07 0)
(0.020460383 -2.9174129e-07 0)
(0.020479493 2.8581735e-07 0)
(0.020464291 -2.8093862e-07 0)
(0.020475642 2.7659063e-07 0)
(0.02046811 -2.8605808e-07 0)
(0.02047215 2.6131032e-07 0)
(0.021084786 0.0028873315 0)
(0.023122566 -2.928559e-05 0)
(0.022151526 7.022517e-06 0)
(0.022883584 1.2242498e-06 0)
(0.022233474 -2.8373849e-06 0)
(0.022840922 2.2295345e-06 0)
(0.022284126 -2.5475435e-06 0)
(0.022807205 2.2983569e-06 0)
(0.022318178 -2.2050529e-06 0)
(0.022776541 2.0497666e-06 0)
(0.022347415 -1.9301877e-06 0)
(0.022749325 1.8068108e-06 0)
(0.022373035 -1.6966024e-06 0)
(0.022725339 1.5906791e-06 0)
(0.022395564 -1.4931604e-06 0)
(0.022704218 1.4007791e-06 0)
(0.022415398 -1.3151744e-06 0)
(0.022685611 1.2344032e-06 0)
(0.022432874 -1.15943e-06 0)
(0.022669208 1.08883e-06 0)
(0.022448288 -1.0232619e-06 0)
(0.022654731 9.6161873e-07 0)
(0.0224619 -9.0436435e-07 0)
(0.022641936 8.5062617e-07 0)
(0.02247394 -8.0072865e-07 0)
(0.022630607 7.5398053e-07 0)
(0.022484611 -7.1060453e-07 0)
(0.022620554 6.7005145e-07 0)
(0.022494093 -6.3246998e-07 0)
(0.022611607 5.974228e-07 0)
(0.022502547 -5.650054e-07 0)
(0.022603614 5.3486885e-07 0)
(0.022510115 -5.0707118e-07 0)
(0.022596442 4.8133351e-07 0)
(0.022516924 -4.5768835e-07 0)
(0.022589969 4.3591245e-07 0)
(0.02252309 -4.1602182e-07 0)
(0.022584086 3.9783753e-07 0)
(0.022528717 -3.8136585e-07 0)
(0.022578693 3.6646318e-07 0)
(0.022533899 -3.5313105e-07 0)
(0.0225737 3.4125366e-07 0)
(0.022538725 -3.3083139e-07 0)
(0.022569022 3.2176893e-07 0)
(0.022543276 -3.140582e-07 0)
(0.022564578 3.0767386e-07 0)
(0.022547632 -3.0238456e-07 0)
(0.022560286 2.9766931e-07 0)
(0.022551885 -3.0879491e-07 0)
(0.022556356 2.8045009e-07 0)
(0.023020383 0.0030468828 0)
(0.025158196 -3.5563401e-05 0)
(0.024134068 7.9763025e-06 0)
(0.02493333 1.1711715e-06 0)
(0.024218586 -2.9968921e-06 0)
(0.024886844 2.3106962e-06 0)
(0.02427371 -2.7123433e-06 0)
(0.024849648 2.4373907e-06 0)
(0.024311094 -2.3433244e-06 0)
(0.024815849 2.1763999e-06 0)
(0.024343276 -2.0502242e-06 0)
(0.024785872 1.9188033e-06 0)
(0.024371487 -1.8019484e-06 0)
(0.024759456 1.6893431e-06 0)
(0.024396296 -1.5858447e-06 0)
(0.024736196 1.4876789e-06 0)
(0.024418137 -1.3968043e-06 0)
(0.024715705 1.3109865e-06 0)
(0.024437382 -1.2313914e-06 0)
(0.024697641 1.1563848e-06 0)
(0.024454356 -1.0867711e-06 0)
(0.024681698 1.0212833e-06 0)
(0.024469345 -9.6049409e-07 0)
(0.024667608 9.0340633e-07 0)
(0.024482604 -8.504265e-07 0)
(0.024655132 8.0076606e-07 0)
(0.024494355 -7.5470937e-07 0)
(0.024644061 7.116311e-07 0)
(0.024504798 -6.7172617e-07 0)
(0.024634208 6.3449753e-07 0)
(0.024514107 -6.0007531e-07 0)
(0.024625406 5.680636e-07 0)
(0.024522441 -5.3854637e-07 0)
(0.024617508 5.112077e-07 0)
(0.02452994 -4.8609952e-07 0)
(0.024610379 4.6296933e-07 0)
(0.02453673 -4.4184769e-07 0)
(0.0246039 4.2253252e-07 0)
(0.024542926 -4.0504105e-07 0)
(0.024597962 3.8921124e-07 0)
(0.024548633 -3.7505299e-07 0)
(0.024592463 3.6243559e-07 0)
(0.024553947 -3.5136585e-07 0)
(0.024587312 3.4173583e-07 0)
(0.024558959 -3.3354099e-07 0)
(0.024582418 3.267529e-07 0)
(0.024563755 -3.2109551e-07 0)
(0.024577692 3.1605696e-07 0)
(0.024568435 -3.2879664e-07 0)
(0.024573326 2.9692621e-07 0)
(0.024908009 0.0031819908 0)
(0.027122307 -4.2084087e-05 0)
(0.026050938 8.8301271e-06 0)
(0.026914464 1.1052685e-06 0)
(0.026137334 -3.1349025e-06 0)
(0.026865025 2.3650091e-06 0)
(0.026196583 -2.8555482e-06 0)
(0.026824405 2.5558429e-06 0)
(0.02623722 -2.4621539e-06 0)
(0.026787522 2.2847927e-06 0)
(0.026272291 -2.1531474e-06 0)
(0.026754833 2.0147447e-06 0)
(0.026303045 -1.892238e-06 0)
(0.026726031 1.7738822e-06 0)
(0.026330092 -1.6652754e-06 0)
(0.02670067 1.5621417e-06 0)
(0.026353904 -1.4667601e-06 0)
(0.02667833 1.3766105e-06 0)
(0.026374885 -1.2930611e-06 0)
(0.026658635 1.2142731e-06 0)
(0.026393391 -1.1411976e-06 0)
(0.026641253 1.0724112e-06 0)
(0.026409734 -1.0085966e-06 0)
(0.02662589 9.4863543e-07 0)
(0.026424189 -8.9301727e-07 0)
(0.026612288 8.4085886e-07 0)
(0.026437001 -7.9250738e-07 0)
(0.026600218 7.4726345e-07 0)
(0.026448385 -7.0536936e-07 0)
(0.026589475 6.6627007e-07 0)
(0.026458535 -6.3013137e-07 0)
(0.026579879 5.9651184e-07 0)
(0.026467621 -5.6552228e-07 0)
(0.026571268 5.36811e-07 0)
(0.026475796 -5.104501e-07 0)
(0.026563496 4.8615888e-07 0)
(0.026483199 -4.6398315e-07 0)
(0.026556432 4.436985e-07 0)
(0.026489955 -4.2533375e-07 0)
(0.026549958 4.0870908e-07 0)
(0.026496176 -3.9384325e-07 0)
(0.026543963 3.8059121e-07 0)
(0.02650197 -3.6896654e-07 0)
(0.026538346 3.5884905e-07 0)
(0.026507434 -3.502381e-07 0)
(0.026533011 3.4310213e-07 0)
(0.026512663 -3.3711956e-07 0)
(0.02652786 3.3180191e-07 0)
(0.026517761 -3.4608353e-07 0)
(0.026523062 3.1080885e-07 0)
(0.026748062 0.0032933996 0)
(0.029015965 -4.8745802e-05 0)
(0.027901824 9.5781539e-06 0)
(0.028826992 1.0313132e-06 0)
(0.027989812 -3.2565365e-06 0)
(0.028775409 2.3948295e-06 0)
(0.028052806 -2.9774984e-06 0)
(0.028731419 2.6542367e-06 0)
(0.02809661 -2.5618832e-06 0)
(0.028691509 2.3753192e-06 0)
(0.028134507 -2.2392868e-06 0)
(0.028656163 2.094954e-06 0)
(0.028167752 -1.9677658e-06 0)
(0.028625025 1.8445754e-06 0)
(0.02819699 -1.7317125e-06 0)
(0.028597607 1.6244125e-06 0)
(0.028222731 -1.5252708e-06 0)
(0.028573456 1.4314912e-06 0)
(0.028245413 -1.3446412e-06 0)
(0.028552164 1.2626854e-06 0)
(0.028265418 -1.1867196e-06 0)
(0.028533372 1.1151703e-06 0)
(0.028283086 -1.0488295e-06 0)
(0.028516764 9.8646212e-07 0)
(0.028298712 -9.2864049e-07 0)
(0.028502059 8.7439062e-07 0)
(0.028312563 -8.2412235e-07 0)
(0.02848901 7.7706547e-07 0)
(0.02832487 -7.3350971e-07 0)
(0.028477396 6.9284464e-07 0)
(0.028335843 -6.5527194e-07 0)
(0.028467022 6.203068e-07 0)
(0.028345665 -5.8808714e-07 0)
(0.028457713 5.5822722e-07 0)
(0.028354503 -5.3081966e-07 0)
(0.028449311 5.0555696e-07 0)
(0.028362506 -4.8250049e-07 0)
(0.028441674 4.6140467e-07 0)
(0.028369809 -4.423102e-07 0)
(0.028434675 4.250204e-07 0)
(0.028376535 -4.0956318e-07 0)
(0.028428194 3.9577984e-07 0)
(0.028382799 -3.8369097e-07 0)
(0.028422122 3.7316469e-07 0)
(0.028388706 -3.6420444e-07 0)
(0.028416355 3.5677558e-07 0)
(0.028394358 -3.5051109e-07 0)
(0.028410787 3.4495837e-07 0)
(0.028399866 -3.6068623e-07 0)
(0.028405563 3.2217512e-07 0)
(0.028540713 0.0033818456 0)
(0.030840204 -5.5448909e-05 0)
(0.029686408 1.0234933e-05 0)
(0.03067097 9.498122e-07 0)
(0.029776087 -3.3669973e-06 0)
(0.030617946 2.4024433e-06 0)
(0.029842433 -3.0785518e-06 0)
(0.030570637 2.733123e-06 0)
(0.029889313 -2.6428921e-06 0)
(0.030527765 2.4483906e-06 0)
(0.029929968 -2.3090065e-06 0)
(0.030489822 2.1597825e-06 0)
(0.029965644 -2.0288567e-06 0)
(0.030456402 1.9017301e-06 0)
(0.029997022 -1.785443e-06 0)
(0.030426976 1.674762e-06 0)
(0.030024648 -1.5725894e-06 0)
(0.030401055 1.4758666e-06 0)
(0.03004899 -1.3863546e-06 0)
(0.030378203 1.3018315e-06 0)
(0.03007046 -1.2235338e-06 0)
(0.030358035 1.1497462e-06 0)
(0.030089421 -1.0813666e-06 0)
(0.03034021 1.0170503e-06 0)
(0.030106192 -9.5745005e-07 0)
(0.030324429 9.0150653e-07 0)
(0.030121056 -8.4969081e-07 0)
(0.030310424 8.011661e-07 0)
(0.030134265 -7.5626867e-07 0)
(0.030297959 7.1433612e-07 0)
(0.030146041 -6.7560547e-07 0)
(0.030286825 6.3955124e-07 0)
(0.030156583 -6.0633822e-07 0)
(0.030276834 5.7554876e-07 0)
(0.030166068 -5.4729593e-07 0)
(0.030267816 5.2124715e-07 0)
(0.030174657 -4.9747937e-07 0)
(0.030259621 4.7572723e-07 0)
(0.030182495 -4.5604335e-07 0)
(0.030252108 4.3821535e-07 0)
(0.030189714 -4.222803e-07 0)
(0.030245153 4.080668e-07 0)
(0.030196436 -3.9560247e-07 0)
(0.030238636 3.8474445e-07 0)
(0.030202776 -3.755004e-07 0)
(0.030232447 3.6783261e-07 0)
(0.030208842 -3.613297e-07 0)
(0.030226472 3.5558545e-07 0)
(0.030214749 -3.726444e-07 0)
(0.030220829 3.3110737e-07 0)
(0.030285847 0.0034480534 0)
(0.032595712 -6.2048117e-05 0)
(0.031404688 1.0791871e-05 0)
(0.032446446 8.5635866e-07 0)
(0.031496211 -3.4715332e-06 0)
(0.032392591 2.3899771e-06 0)
(0.031565515 -3.159133e-06 0)
(0.032342012 2.7930565e-06 0)
(0.031615374 -2.7056048e-06 0)
(0.032296246 2.5044508e-06 0)
(0.031658713 -2.3627045e-06 0)
(0.032255774 2.2096126e-06 0)
(0.031696756 -2.0758651e-06 0)
(0.03222013 1.9456812e-06 0)
(0.031730218 -1.8267792e-06 0)
(0.032188748 1.7134843e-06 0)
(0.03175968 -1.6089912e-06 0)
(0.032161103 1.5099961e-06 0)
(0.031785639 -1.4184441e-06 0)
(0.032136732 1.3319401e-06 0)
(0.031808536 -1.2518545e-06 0)
(0.032115223 1.1763405e-06 0)
(0.031828757 -1.1063973e-06 0)
(0.032096213 1.0405783e-06 0)
(0.031846643 -9.7961357e-07 0)
(0.032079382 9.2236465e-07 0)
(0.031862495 -8.6936147e-07 0)
(0.032064446 8.1970572e-07 0)
(0.031876582 -7.7377856e-07 0)
(0.032051153 7.3086961e-07 0)
(0.03188914 -6.9125008e-07 0)
(0.032039279 6.5435707e-07 0)
(0.031900383 -6.2038144e-07 0)
(0.032028623 5.8887624e-07 0)
(0.031910499 -5.5997443e-07 0)
(0.032019006 5.3332047e-07 0)
(0.031919659 -5.0900653e-07 0)
(0.032010265 4.8674915e-07 0)
(0.031928018 -4.6661265e-07 0)
(0.032002254 4.4837028e-07 0)
(0.031935717 -4.3206813e-07 0)
(0.031994836 4.1752317e-07 0)
(0.031942886 -4.0476993e-07 0)
(0.031987886 3.9365544e-07 0)
(0.031949647 -3.8419161e-07 0)
(0.031981285 3.7633775e-07 0)
(0.031956115 -3.6963998e-07 0)
(0.031974915 3.63747e-07 0)
(0.031962412 -3.8200602e-07 0)
(0.03196886 3.3769232e-07 0)
(0.03198307 0.0034927144 0)
(0.034282106 -6.8255245e-05 0)
(0.033057634 1.1087918e-05 0)
(0.034153418 7.3333434e-07 0)
(0.033150208 -3.5751415e-06 0)
(0.034099289 2.3600382e-06 0)
(0.033222092 -3.2194833e-06 0)
(0.034045499 2.83468e-06 0)
(0.033274832 -2.7504647e-06 0)
(0.033996916 2.5439804e-06 0)
(0.033320777 -2.4008084e-06 0)
(0.033953984 2.2448556e-06 0)
(0.033361119 -2.1091721e-06 0)
(0.03391618 1.9767885e-06 0)
(0.033396607 -1.8560576e-06 0)
(0.033882897 1.7408962e-06 0)
(0.033427851 -1.6347725e-06 0)
(0.033853578 1.5341586e-06 0)
(0.033455382 -1.4411709e-06 0)
(0.033827731 1.3532571e-06 0)
(0.033479665 -1.2719123e-06 0)
(0.033804919 1.1951705e-06 0)
(0.03350111 -1.1241253e-06 0)
(0.033784758 1.0572382e-06 0)
(0.033520078 -9.9531143e-07 0)
(0.033766907 9.3713505e-07 0)
(0.033536891 -8.8329433e-07 0)
(0.033751067 8.3283539e-07 0)
(0.03355183 -7.8618171e-07 0)
(0.033736969 7.4257966e-07 0)
(0.033565149 -7.0233286e-07 0)
(0.033724375 6.6484467e-07 0)
(0.033577073 -6.3033077e-07 0)
(0.033713074 5.9831786e-07 0)
(0.033587801 -5.6895795e-07 0)
(0.033702874 5.4187483e-07 0)
(0.033597516 -5.1717531e-07 0)
(0.033693604 4.9455969e-07 0)
(0.033606382 -4.7410357e-07 0)
(0.033685107 4.5556732e-07 0)
(0.033614547 -4.3900574e-07 0)
(0.033677239 4.2422539e-07 0)
(0.03362215 -4.1126745e-07 0)
(0.033669869 3.9996983e-07 0)
(0.033629321 -3.9034861e-07 0)
(0.033662868 3.823603e-07 0)
(0.033636181 -3.7551115e-07 0)
(0.033656114 3.6951126e-07 0)
(0.033642855 -3.8882668e-07 0)
(0.033649657 3.4202012e-07 0)
(0.033631907 0.0035166137 0)
(0.03589615 -7.3971537e-05 0)
(0.034648355 1.1088067e-05 0)
(0.035792283 5.8129948e-07 0)
(0.034738118 -3.6826559e-06 0)
(0.035737992 2.3140526e-06 0)
(0.034812198 -3.2602039e-06 0)
(0.035681056 2.8585357e-06 0)
(0.034867723 -2.7779877e-06 0)
(0.035629739 2.5674756e-06 0)
(0.034916191 -2.4237786e-06 0)
(0.035584424 2.265947e-06 0)
(0.034958762 -2.129184e-06 0)
(0.035544526 1.9954349e-06 0)
(0.034996211 -1.873636e-06 0)
(0.035509401 1.7573343e-06 0)
(0.035029183 -1.6502487e-06 0)
(0.035478459 1.5486506e-06 0)
(0.035058237 -1.4548132e-06 0)
(0.035451181 1.366044e-06 0)
(0.035083863 -1.2839526e-06 0)
(0.035427107 1.2064669e-06 0)
(0.035106494 -1.1347675e-06 0)
(0.03540583 1.0672341e-06 0)
(0.035126512 -1.0047355e-06 0)
(0.035386992 9.4599862e-07 0)
(0.035144254 -8.9165967e-07 0)
(0.035370275 8.4071577e-07 0)
(0.03516002 -7.936296e-07 0)
(0.035355396 7.4960944e-07 0)
(0.035174076 -7.0898904e-07 0)
(0.035342106 6.7114211e-07 0)
(0.035186659 -6.3630749e-07 0)
(0.035330179 6.039888e-07 0)
(0.035197982 -5.7435585e-07 0)
(0.035319415 5.470144e-07 0)
(0.035208235 -5.2208502e-07 0)
(0.035309631 4.9925382e-07 0)
(0.035217591 -4.7860706e-07 0)
(0.035300664 4.5989387e-07 0)
(0.035226208 -4.4317729e-07 0)
(0.035292361 4.2825478e-07 0)
(0.035234232 -4.1517384e-07 0)
(0.035284582 4.0376435e-07 0)
(0.035241799 -3.9404643e-07 0)
(0.035277195 3.8597392e-07 0)
(0.035249038 -3.7901662e-07 0)
(0.035270067 3.7295049e-07 0)
(0.035256079 -3.9316886e-07 0)
(0.03526322 3.4418356e-07 0)
(0.035231586 0.0035205349 0)
(0.037433747 -7.9765112e-05 0)
(0.036180195 1.1258272e-05 0)
(0.037364184 5.4081847e-07 0)
(0.036260099 -3.7744555e-06 0)
(0.037308724 2.2584909e-06 0)
(0.036335888 -3.2807183e-06 0)
(0.037248655 2.8654882e-06 0)
(0.036394083 -2.7886335e-06 0)
(0.037194685 2.5754855e-06 0)
(0.036444986 -2.4320918e-06 0)
(0.037147066 2.273349e-06 0)
(0.036489708 -2.136328e-06 0)
(0.037105144 2.0020239e-06 0)
(0.036529054 -1.8798917e-06 0)
(0.037068238 1.7631537e-06 0)
(0.036563695 -1.6557523e-06 0)
(0.037035729 1.5537848e-06 0)
(0.036594221 -1.4596639e-06 0)
(0.037007069 1.3705765e-06 0)
(0.036621145 -1.2882339e-06 0)
(0.036981774 1.2104733e-06 0)
(0.036644922 -1.1385524e-06 0)
(0.036959419 1.0707813e-06 0)
(0.036665954 -1.0080882e-06 0)
(0.036939626 9.4914603e-07 0)
(0.036684595 -8.9463695e-07 0)
(0.036922062 8.4351621e-07 0)
(0.03670116 -7.9628189e-07 0)
(0.036906429 7.5210986e-07 0)
(0.036715928 -7.1136117e-07 0)
(0.036892465 6.7338439e-07 0)
(0.036729149 -6.3843945e-07 0)
(0.036879933 6.0601042e-07 0)
(0.036741045 -5.7628343e-07 0)
(0.036868623 5.4884901e-07 0)
(0.036751818 -5.2384036e-07 0)
(0.036858344 5.0093166e-07 0)
(0.036761648 -4.80219e-07 0)
(0.036848922 4.6144204e-07 0)
(0.036770702 -4.4467148e-07 0)
(0.036840198 4.2969708e-07 0)
(0.036779133 -4.1657221e-07 0)
(0.036832025 4.051199e-07 0)
(0.036787084 -3.9536408e-07 0)
(0.036824263 3.8725622e-07 0)
(0.03679469 -3.8023358e-07 0)
(0.036816776 3.7414058e-07 0)
(0.036802084 -3.9510122e-07 0)
(0.036809548 3.4427724e-07 0)
(0.036780762 0.0035052162 0)
(0.03890055 -8.5236518e-05 0)
(0.037649499 1.133154e-05 0)
(0.038868733 5.969573e-07 0)
(0.037716025 -3.8553013e-06 0)
(0.038811413 2.1939454e-06 0)
(0.037793181 -3.2817933e-06 0)
(0.03874826 2.8560815e-06 0)
(0.037853937 -2.7829918e-06 0)
(0.038691727 2.5685496e-06 0)
(0.037907185 -2.4262588e-06 0)
(0.038641885 2.2675403e-06 0)
(0.037953982 -2.1310528e-06 0)
(0.038598014 1.9969769e-06 0)
(0.037995154 -1.8752195e-06 0)
(0.038559391 1.7587253e-06 0)
(0.038031405 -1.6516311e-06 0)
(0.03852537 1.549888e-06 0)
(0.038063349 -1.4560297e-06 0)
(0.038495378 1.3671429e-06 0)
(0.038091524 -1.2850269e-06 0)
(0.038468908 1.207444e-06 0)
(0.038116406 -1.135719e-06 0)
(0.038445513 1.0681047e-06 0)
(0.038138415 -1.005581e-06 0)
(0.0384248 9.4677668e-07 0)
(0.038157922 -8.9241392e-07 0)
(0.038406419 8.4141384e-07 0)
(0.038175257 -7.9430563e-07 0)
(0.03839006 7.5023875e-07 0)
(0.038190712 -7.095984e-07 0)
(0.038375446 6.7171272e-07 0)
(0.038204547 -6.3686041e-07 0)
(0.038362332 6.045097e-07 0)
(0.038216997 -5.7486134e-07 0)
(0.038350496 5.4749354e-07 0)
(0.03822827 -5.2255089e-07 0)
(0.038339738 4.9969796e-07 0)
(0.038238558 -4.7903973e-07 0)
(0.038329878 4.6030826e-07 0)
(0.038248033 -4.4358115e-07 0)
(0.038320748 4.2864202e-07 0)
(0.038256856 -4.155495e-07 0)
(0.038312194 4.0412109e-07 0)
(0.038265177 -3.9438426e-07 0)
(0.038304072 3.8628833e-07 0)
(0.038273136 -3.7924262e-07 0)
(0.038296238 3.7316069e-07 0)
(0.038280871 -3.9469798e-07 0)
(0.038288643 3.4239696e-07 0)
(0.038277838 0.0034714302 0)
(0.040305497 -8.975373e-05 0)
(0.039049405 1.0865719e-05 0)
(0.040305144 6.6969739e-07 0)
(0.039105729 -3.9335375e-06 0)
(0.04024597 2.1194573e-06 0)