/*--------------------------------*- C++ -*----------------------------------*\
| =========                 |                                                 |
| \\      /  F ield         | OpenFOAM: The Open Source CFD Toolbox           |
|  \\    /   O peration     | Version:  2312                                  |
|   \\  /    A nd           | Website:  www.openfoam.com                      |
|    \\/     M anipulation  |                                                 |
\*---------------------------------------------------------------------------*/
FoamFile
{
    version     2.0;
    format      ascii;
    arch        "LSB;label=32;scalar=64";
    class       surfaceScalarField;
    location    "1";
    object      phi;
}
// * * * * * * * * * * * * * * * * * * * * * * * * * * * * * * * * * * * * * //

dimensions      [0 3 -1 0 0 0 0];

oriented        oriented;

internalField   nonuniform List<scalar> 
7870
(
1.6281002e-10
3.298815e-09
1.7685912e-10
-1.4049056e-11
1.3025162e-10
4.6607489e-11
1.3958434e-10
-9.332668e-12
1.350262e-10
4.5581319e-12
1.3438083e-10
6.4538961e-13
1.3332822e-10
1.0526069e-12
1.3322233e-10
1.0589154e-13
1.3298209e-10
2.4023759e-13
1.3282216e-10
1.5991818e-13
1.3303213e-10
-2.0996793e-13
1.3269932e-10
3.3280922e-13
1.3308039e-10
-3.8107565e-13
1.3263393e-10
4.4646361e-13
1.3311899e-10
-4.8506482e-13
1.3259016e-10
5.2884166e-13
1.3314932e-10
-5.5915962e-13
1.3256054e-10
5.887854e-13
1.3317094e-10
-6.1040399e-13
1.3254183e-10
6.2911826e-13
1.3318415e-10
-6.423156e-13
1.3253196e-10
6.5218611e-13
1.3318986e-10
-6.5789535e-13
1.3252933e-10
6.6052865e-13
1.3318928e-10
-6.5994625e-13
1.3253246e-10
6.5681206e-13
1.3318363e-10
-6.5117125e-13
1.3254009e-10
6.4353667e-13
1.3317419e-10
-6.3409659e-13
1.3255097e-10
6.2320863e-13
1.3316203e-10
-6.1105454e-13
1.3256401e-10
5.9800766e-13
1.3314822e-10
-5.8421243e-13
1.3257824e-10
5.6998044e-13
1.331337e-10
-5.5546247e-13
1.3259278e-10
5.4091899e-13
1.3311927e-10
-5.2649388e-13
1.3260687e-10
5.1239556e-13
1.3310563e-10
-4.9875555e-13
1.3261989e-10
4.8573741e-13
1.3309333e-10
-4.7343912e-13
1.3263128e-10
4.6204859e-13
1.3308285e-10
-4.5157254e-13
1.3264062e-10
4.4223034e-13
1.3307446e-10
-4.3384251e-13
1.3264769e-10
4.2677232e-13
1.3307027e-10
-4.2258231e-13
1.326609e-10
4.0937067e-13
1.3309668e-10
-4.3578303e-13
3.921626e-13
4.3395722e-10
6.3264827e-09
4.9731261e-10
-7.7404335e-11
3.9004545e-10
1.5387462e-10
4.0181772e-10
-2.1104848e-11
3.9199108e-10
1.4384758e-11
3.8970318e-10
2.9333158e-12
3.8696646e-10
3.7893296e-12
3.8673655e-10
3.3579031e-13
3.8594009e-10
1.0366858e-12
3.8569006e-10
4.0993931e-13
3.859785e-10
-4.9841651e-13
3.8544799e-10
8.6331992e-13
3.8603554e-10
-9.6862339e-13
3.8533801e-10
1.1439955e-12
3.8608151e-10
-1.2285598e-12
3.8526968e-10
1.3406752e-12
3.8611955e-10
-1.4090182e-12
3.8522616e-10
1.4821795e-12
3.8614716e-10
-1.5313907e-12
3.8520022e-10
1.576063e-12
3.8616347e-10
-1.6055547e-12
3.8518773e-10
1.6279219e-12
3.8616927e-10
-1.6394315e-12
3.8518595e-10
1.6438385e-12
3.8616621e-10
-1.6402009e-12
3.8519251e-10
1.6305022e-12
3.8615594e-10
-1.6145967e-12
3.8520553e-10
1.5939326e-12
3.8614039e-10
-1.5689612e-12
3.8522312e-10
1.5404637e-12
3.8612105e-10
-1.5089812e-12
3.8524366e-10
1.475385e-12
3.8609951e-10
-1.4400685e-12
3.8526576e-10
1.4037239e-12
3.8607712e-10
-1.3668324e-12
3.8528813e-10
1.3299049e-12
3.8605507e-10
-1.2934317e-12
3.8530969e-10
1.257769e-12
3.8603432e-10
-1.2233934e-12
3.8532952e-10
1.1905419e-12
3.8601568e-10
-1.1596016e-12
3.8534677e-10
1.1309547e-12
3.8599981e-10
-1.1046161e-12
3.8536092e-10
1.0811218e-12
3.8598696e-10
-1.0598816e-12
3.8537116e-10
1.0425681e-12
3.8598001e-10
-1.0314332e-12
3.8539383e-10
9.9555537e-13
3.860433e-10
-1.0852524e-12
9.5151959e-13
7.3674433e-10
9.0513634e-09
7.8683008e-10
-1.2748994e-10
6.4125672e-10
2.9944795e-10
6.5681833e-10
-3.6666352e-11
6.4193149e-10
2.9271578e-11
6.3805583e-10
6.8090119e-12
6.3392663e-10
7.9185273e-12
6.337117e-10
5.506986e-13
6.3234487e-10
2.40351e-12
6.3210495e-10
6.4984434e-13
6.3236408e-10
-7.5754937e-13
6.3179407e-10
1.433322e-12
6.3240533e-10
-1.5798796e-12
6.3167068e-10
1.8786486e-12
6.3243617e-10
-1.994039e-12
6.3159988e-10
2.1769797e-12
6.3246436e-10
-2.2734953e-12
6.3155817e-10
2.3883784e-12
6.3248545e-10
-2.4586582e-12
6.3153541e-10
2.5261075e-12
6.3249693e-10
-2.5670598e-12
6.3152625e-10
2.598592e-12
6.3249894e-10
-2.6121103e-12
6.3152752e-10
2.6152427e-12
6.3249283e-10
-2.6055013e-12
6.3153667e-10
2.5866453e-12
6.3248007e-10
-2.5579976e-12
6.3155184e-10
2.5221505e-12
6.3246264e-10
-2.479763e-12
6.3157116e-10
2.4319286e-12
6.3244179e-10
-2.3796192e-12
6.3159301e-10
2.3241586e-12
6.3241916e-10
-2.2662231e-12
6.316161e-10
2.2067726e-12
6.3239597e-10
-2.1467104e-12
6.316392e-10
2.0866703e-12
6.3237338e-10
-2.0276143e-12
6.3166126e-10
1.9698838e-12
6.323523e-10
-1.9144411e-12
6.3168145e-10
1.8613934e-12
6.3233342e-10
-1.8115796e-12
6.3169891e-10
1.7654628e-12
6.3231739e-10
-1.7230927e-12
6.317132e-10
1.6853136e-12
6.323042e-10
-1.6508814e-12
6.3172309e-10
1.6236677e-12
6.3229676e-10
-1.6051004e-12
6.3175029e-10
1.5420217e-12
6.3239114e-10
-1.7261014e-12
1.4701013e-12
9.0620508e-10
1.1606783e-08
1.0594453e-09
-2.8073003e-10
8.8575035e-10
4.7314287e-10
9.0475091e-10
-5.5666807e-11
8.8472751e-10
4.929496e-11
8.7946466e-10
1.2071892e-11
8.7422861e-10
1.3154571e-11
8.7413475e-10
6.4454936e-13
8.7223376e-10
4.3044944e-12
8.7201483e-10
8.6876141e-13
8.7225874e-10
-1.0014717e-12
8.7165295e-10
2.0391118e-12
8.7228921e-10
-2.2161393e-12
8.7152086e-10
2.647008e-12
8.7230589e-10
-2.7790696e-12
8.7144911e-10
3.0337721e-12
8.7232445e-10
-3.1488241e-12
8.7140993e-10
3.3029126e-12
8.7233898e-10
-3.3877043e-12
8.7139072e-10
3.4743777e-12
8.7234562e-10
-3.5219522e-12
8.7138504e-10
3.559163e-12
8.7234377e-10
-3.5708332e-12
8.7138943e-10
3.5695727e-12
8.7233469e-10
-3.5507505e-12
8.7140114e-10
3.5201797e-12
8.723195e-10
-3.4763534e-12
8.7141838e-10
3.42325e-12
8.7230028e-10
-3.3616659e-12
8.714393e-10
3.2928924e-12
8.7227806e-10
-3.2183858e-12
8.7146229e-10
3.1399224e-12
8.7225444e-10
-3.0583814e-12
8.7148621e-10
2.9749949e-12
8.7223062e-10
-2.8911231e-12
8.7150985e-10
2.8074259e-12
8.7220764e-10
-2.7254074e-12
8.7153226e-10
2.6452632e-12
8.7218636e-10
-2.5685429e-12
8.7155266e-10
2.4950936e-12
8.7216738e-10
-2.426304e-12
8.7157015e-10
2.3626934e-12
8.7215127e-10
-2.3042197e-12
8.715845e-10
2.2520876e-12
8.7213789e-10
-2.2042777e-12
8.7159394e-10
2.1676192e-12
8.721295e-10
-2.1406643e-12
8.7162337e-10
2.0481516e-12
8.7224717e-10
-2.3499018e-12
1.9466856e-12
1.1959204e-09
1.3872488e-08
1.3202296e-09
-4.0503911e-10
1.1210745e-09
6.7229795e-10
1.1457255e-09
-8.0317701e-11
1.1203478e-09
7.4672625e-11
1.1139211e-09
1.8498625e-11
1.1079166e-09
1.9159046e-11
1.107998e-09
5.6313487e-13
1.10561e-09
6.692522e-12
1.1054207e-09
1.0580507e-12
1.105662e-09
-1.2428024e-12
1.1050252e-09
2.675942e-12
1.1056863e-09
-2.8772944e-12
1.1048887e-09
3.4445836e-12
1.10569e-09
-3.5802733e-12
1.1048175e-09
3.9062237e-12
1.1056991e-09
-4.0304193e-12
1.1047815e-09
4.2205718e-12
1.1057072e-09
-4.3134005e-12
1.1047661e-09
4.4154884e-12
1.1057089e-09
-4.4648087e-12
1.104764e-09
4.5040901e-12
1.1057033e-09
-4.5101537e-12
1.1047715e-09
4.5014167e-12
1.1056913e-09
-4.4705608e-12
1.1047857e-09
4.4257751e-12
1.1056738e-09
-4.3644779e-12
1.1048049e-09
4.2921875e-12
1.105653e-09
-4.2097787e-12
1.1048272e-09
4.1186126e-12
1.1056295e-09
-4.0207092e-12
1.1048512e-09
3.9182533e-12
1.1056052e-09
-3.8123458e-12
1.1048758e-09
3.7043867e-12
1.1055809e-09
-3.5962428e-12
1.1048998e-09
3.4885212e-12
1.1055577e-09
-3.3833394e-12
1.1049223e-09
3.280639e-12
1.1055364e-09
-3.1826347e-12
1.1049428e-09
3.088747e-12
1.1055175e-09
-3.0010494e-12
1.1049602e-09
2.9200116e-12
1.1055015e-09
-2.8455222e-12
1.1049744e-09
2.7791391e-12
1.105488e-09
-2.7178799e-12
1.1049834e-09
2.6722657e-12
1.1054787e-09
-2.6359426e-12
1.1050135e-09
2.5132676e-12
1.1056131e-09
-2.9495005e-12
2.3767577e-12
1.3642331e-09
1.596988e-08
1.5593201e-09
-6.0012597e-10
1.3509511e-09
8.8066689e-10
1.3799888e-09
-1.0935524e-10
1.3487022e-09
1.0595914e-10
1.3414704e-09
2.5730479e-11
1.3350336e-09
2.5595883e-11
1.3352934e-09
3.03257e-13
1.332478e-09
9.5079362e-12
1.3323248e-09
1.2111979e-12
1.3325738e-09
-1.4917717e-12
1.3319121e-09
3.3376687e-12
1.3325961e-09
-3.5613548e-12
1.3317751e-09
4.2655993e-12
1.3325878e-09
-4.3929299e-12
1.3317056e-09
4.7884152e-12
1.332588e-09
-4.9127639e-12
1.3316732e-09
5.1353805e-12
1.3325897e-09
-5.2298838e-12
1.3316618e-09
5.3433928e-12
1.3325867e-09
-5.3897642e-12
1.3316633e-09
5.4275294e-12
1.3325774e-09
-5.4242753e-12
1.3316738e-09
5.4050338e-12
1.3325627e-09
-5.3594346e-12
1.3316903e-09
5.2980899e-12
1.332543e-09
-5.2171833e-12
1.3317113e-09
5.1239436e-12
1.3325208e-09
-5.0193011e-12
1.3317349e-09
4.9044927e-12
1.3324964e-09
-4.7822255e-12
1.3317596e-09
4.6550407e-12
1.3324714e-09
-4.5241815e-12
1.3317846e-09
4.3912201e-12
1.3324469e-09
-4.2585837e-12
1.3318087e-09
4.1266974e-12
1.3324238e-09
-3.9983735e-12
1.3318313e-09
3.8731472e-12
1.3324026e-09
-3.7540093e-12
1.3318515e-09
3.6398265e-12
1.332384e-09
-3.5334602e-12
1.3318687e-09
3.4353056e-12
1.3323681e-09
-3.3450102e-12
1.3318827e-09
3.2645415e-12
1.3323548e-09
-3.1899888e-12
1.3318911e-09
3.136007e-12
1.3323445e-09
-3.0892931e-12
1.3319209e-09
2.9368265e-12
1.3324902e-09
-3.5188301e-12
2.7570251e-12
1.6027677e-09
1.7828737e-08
1.7943254e-09
-7.9168357e-10
1.5728481e-09
1.1021441e-09
1.6068724e-09
-1.4337935e-10
1.5698522e-09
1.4297924e-10
1.5621596e-09
3.3423156e-11
1.5555696e-09
3.2185835e-11
1.5560082e-09
-1.3532742e-13
1.552838e-09
1.2678161e-11
1.55273e-09
1.3191354e-12
1.552994e-09
-1.7557314e-12
1.552315e-09
4.0166596e-12
1.5530182e-09
-4.2645546e-12
1.5521807e-09
5.103051e-12
1.5529991e-09
-5.2112344e-12
1.552114e-09
5.6735238e-12
1.5529907e-09
-5.7894722e-12
1.5520855e-09
6.0406091e-12
1.5529863e-09
-6.1307412e-12
1.5520781e-09
6.2516615e-12
1.5529788e-09
-6.2905196e-12
1.5520831e-09
6.3232458e-12
1.5529661e-09
-6.3072727e-12
1.5520964e-09
6.274717e-12
1.5529488e-09
-6.2118023e-12
1.5521151e-09
6.1317492e-12
1.5529273e-09
-6.0293792e-12
1.5521375e-09
5.9137008e-12
1.5529039e-09
-5.7856634e-12
1.5521622e-09
5.6462094e-12
1.5528788e-09
-5.4988566e-12
1.5521874e-09
5.3464183e-12
1.5528535e-09
-5.1903273e-12
1.5522126e-09
5.0321919e-12
1.552829e-09
-4.8750508e-12
1.5522366e-09
4.7190749e-12
1.5528061e-09
-4.5678312e-12
1.5522589e-09
4.4203558e-12
1.5527853e-09
-4.2804699e-12
1.5522788e-09
4.1463246e-12
1.5527671e-09
-4.0217085e-12
1.5522956e-09
3.9068136e-12
1.5527517e-09
-3.8010967e-12
1.5523093e-09
3.7069192e-12
1.5527386e-09
-3.6193183e-12
1.5523171e-09
3.5575575e-12
1.5527274e-09
-3.4996616e-12
1.5523456e-09
3.3186911e-12
1.5528795e-09
-4.0527978e-12
3.0859556e-12
1.7693466e-09
1.9521016e-08
2.0030546e-09
-1.0253915e-09
1.7877685e-09
1.3174302e-09
1.82479e-09
-1.8040071e-10
1.7837315e-09
1.8403771e-10
1.7760163e-09
4.1138382e-11
1.7694737e-09
3.8728411e-11
1.7701323e-09
-7.9397087e-13
1.7666869e-09
1.612361e-11
1.7666386e-09
1.3673943e-12
1.7669218e-09
-2.0389665e-12
1.7662349e-09
4.7036103e-12
1.766952e-09
-4.9816831e-12
1.7661061e-09
5.9489546e-12
1.7669233e-09
-6.0283689e-12
1.7660428e-09
6.5539522e-12
1.7669069e-09
-6.6535659e-12
1.7660185e-09
6.9290973e-12
1.7668968e-09
-7.0091079e-12
1.766015e-09
7.1334571e-12
1.7668852e-09
-7.1606324e-12
1.7660234e-09
7.1850107e-12
1.7668692e-09
-7.1530912e-12
1.7660393e-09
7.104609e-12
1.7668497e-09
-7.0222207e-12
1.7660599e-09
6.9215973e-12
1.7668267e-09
-6.7961637e-12
1.7660835e-09
6.6568209e-12
1.7668024e-09
-6.5045377e-12
1.7661089e-09
6.3397203e-12
1.7667769e-09
-6.1668658e-12
1.7661343e-09
5.9889774e-12
1.7667516e-09
-5.8075789e-12
1.7661594e-09
5.6243436e-12
1.7667273e-09
-5.4429716e-12
1.7661831e-09
5.2632424e-12
1.7667049e-09
-5.0895484e-12
1.7662049e-09
4.9202767e-12
1.7666846e-09
-4.7601807e-12
1.7662244e-09
4.6065927e-12
1.766667e-09
-4.4643191e-12
1.7662404e-09
4.333337e-12
1.766652e-09
-4.2126886e-12
1.7662537e-09
4.1052161e-12
1.7666395e-09
-4.0050571e-12
1.7662608e-09
3.9361948e-12
1.7666276e-09
-3.8663974e-12
1.7662875e-09
3.6587991e-12
1.7667819e-09
-4.5472662e-12
3.3635505e-12
1.966306e-09
2.1016334e-08
2.2061603e-09
-1.2652457e-09
1.9921049e-09
1.5314856e-09
2.029284e-09
-2.1757973e-10
1.9899847e-09
2.2333706e-10
1.98298e-09
4.8143125e-11
1.9767033e-09
4.5005023e-11
1.9776689e-09
-1.7595267e-12
1.9740267e-09
1.9765788e-11
1.9740557e-09
1.3383684e-12
1.9743581e-09
-2.3414113e-12
1.9736731e-09
5.3886104e-12
1.9743975e-09
-5.7060875e-12
1.9735519e-09
6.79464e-12
1.9743604e-09
-6.83686e-12
1.9734927e-09
7.4216464e-12
1.9743367e-09
-7.4975542e-12
1.9734725e-09
7.793271e-12
1.9743213e-09
-7.857912e-12
1.9734729e-09
7.9819008e-12
1.9743058e-09
-7.9934813e-12
1.9734843e-09
8.0064205e-12
1.9742871e-09
-7.9558085e-12
1.9735025e-09
7.8891534e-12
1.9742656e-09
-7.7853476e-12
1.9735246e-09
7.6625901e-12
1.9742414e-09
-7.5128828e-12
1.9735491e-09
7.3490163e-12
1.9742165e-09
-7.1719476e-12
1.9735749e-09
6.9813589e-12
1.9741909e-09
-6.7828773e-12
1.9736003e-09
6.5795846e-12
1.9741659e-09
-6.3731614e-12
1.973625e-09
6.1651927e-12
1.9741421e-09
-5.9600815e-12
1.9736482e-09
5.7571624e-12
1.9741203e-09
-5.5616921e-12
1.9736692e-09
5.3713431e-12
1.9741009e-09
-5.1918242e-12
1.973688e-09
5.0195031e-12
1.974084e-09
-4.8603388e-12
1.9737034e-09
4.713948e-12
1.9740697e-09
-4.579036e-12
1.973716e-09
4.458916e-12
1.9740577e-09
-4.3467338e-12
1.9737225e-09
4.2714132e-12
1.9740454e-09
-4.1893592e-12
1.9737467e-09
3.957537e-12
1.9741983e-09
-4.9988666e-12
3.5907328e-12
2.1159387e-09
2.2362021e-08
2.3871104e-09
-1.5364172e-09
2.1876471e-09
1.7309488e-09
2.2188041e-09
-2.4873663e-10
2.1881944e-09
2.5394675e-10
2.1829653e-09
5.3372303e-11
2.1772202e-09
5.0750127e-11
2.1786167e-09
-3.1561157e-12
2.174856e-09
2.3526517e-11
2.1749842e-09
1.2101364e-12
2.1753025e-09
-2.6596983e-12
2.1746304e-09
6.0607295e-12
2.1753545e-09
-6.4302148e-12
2.1745183e-09
7.6308929e-12
2.17531e-09
-7.6286302e-12
2.1744635e-09
8.2681451e-12
2.1752797e-09
-8.3137359e-12
2.1744475e-09
8.6254844e-12
2.1752596e-09
-8.669931e-12
2.1744515e-09
8.7899658e-12
2.1752406e-09
-8.7825969e-12
2.1744657e-09
8.7813686e-12
2.1752194e-09
-8.7095732e-12
2.1744858e-09
8.6227967e-12
2.1751966e-09
-8.4961688e-12
2.1745091e-09
8.350092e-12
2.1751714e-09
-8.1752137e-12
2.1745341e-09
7.9862856e-12
2.1751464e-09
-7.784255e-12
2.17456e-09
7.5678202e-12
2.175121e-09
-7.3439311e-12
2.1745849e-09
7.1156511e-12
2.1750965e-09
-6.8846904e-12
2.174609e-09
6.6526136e-12
2.1750735e-09
-6.4245601e-12
2.1746314e-09
6.1992869e-12
2.1750526e-09
-5.9829659e-12
2.1746516e-09
5.7724199e-12
2.1750341e-09
-5.5743979e-12
2.1746694e-09
5.3842337e-12
2.1750182e-09
-5.2091079e-12
2.1746838e-09
5.0482847e-12
2.1750047e-09
-4.8998568e-12
2.1746958e-09
4.7677393e-12
2.1749934e-09
-4.6443191e-12
2.1747016e-09
4.5632682e-12
2.1749809e-09
-4.4686978e-12
2.1747231e-09
4.2152969e-12
2.1751293e-09
-5.405055e-12
3.7693498e-12
2.2901734e-09
2.3533472e-08
2.5623981e-09
-1.8086418e-09
2.3714288e-09
1.9219181e-09
2.3974283e-09
-2.7473597e-10
2.3794215e-09
2.7195347e-10
2.3761871e-09
5.6606735e-11
2.3710772e-09
5.5860036e-11
2.372997e-09
-5.0759701e-12
2.3691819e-09
2.7341692e-11
2.3694309e-09
9.610957e-13
2.3697564e-09
-2.9852551e-12
2.3691078e-09
6.7093822e-12
2.3698231e-09
-7.145483e-12
2.3690057e-09
8.4482402e-12
2.3697725e-09
-8.3953609e-12
2.3689557e-09
9.0849018e-12
2.3697362e-09
-9.0942147e-12
2.3689437e-09
9.4179707e-12
2.3697118e-09
-9.4380388e-12
2.3689509e-09
9.5508854e-12
2.3696899e-09
-9.5215527e-12
2.3689675e-09
9.5037608e-12
2.3696668e-09
-9.4088986e-12
2.3689891e-09
9.3005235e-12
2.3696428e-09
-9.1499196e-12
2.3690132e-09
8.9797021e-12
2.3696172e-09
-8.7792121e-12
2.3690384e-09
8.5651064e-12
2.3695924e-09
-8.3382769e-12
2.3690639e-09
8.0962621e-12
2.3695675e-09
-7.8474894e-12
2.3690883e-09
7.5948837e-12
2.3695438e-09
-7.3402569e-12
2.3691114e-09
7.0849974e-12
2.3695219e-09
-6.8350036e-12
2.3691327e-09
6.5884296e-12
2.3695021e-09
-6.3523733e-12
2.3691517e-09
6.1227784e-12
2.3694848e-09
-5.9074214e-12
2.3691685e-09
5.7004799e-12
2.3694699e-09
-5.5104793e-12
2.369182e-09
5.3361752e-12
2.3694573e-09
-5.1751534e-12
2.3691931e-09
5.0319338e-12
2.3694468e-09
-4.8980529e-12
2.3691982e-09
4.8119387e-12
2.3694345e-09
-4.7050206e-12
2.3692168e-09
4.4329573e-12
2.3695757e-09
-5.7639113e-12
3.9017222e-12
2.4163805e-09
2.4578717e-08
2.7133674e-09
-2.1056285e-09
2.5484924e-09
2.0867931e-09
2.5700907e-09
-2.9633418e-10
2.564269e-09
2.7777515e-10
2.5627961e-09
5.8079612e-11
2.5583685e-09
6.0287643e-11
2.5608328e-09
-7.5402282e-12
2.5570108e-09
3.1163626e-11
2.557401e-09
5.7096669e-13
2.5577206e-09
-3.3049465e-12
2.5571059e-09
7.3240713e-12
2.5578032e-09
-7.8427307e-12
2.5570143e-09
9.2371216e-12
2.5577474e-09
-9.1284535e-12
2.556969e-09
9.8632996e-12
2.557706e-09
-9.8312143e-12
2.5569608e-09
1.0163211e-11
2.557678e-09
-1.0155219e-11
2.5569709e-09
1.0257971e-11
2.5576537e-09
-1.0204334e-11
2.5569894e-09
1.0168053e-11
2.5576291e-09
-1.0048536e-11
2.5570121e-09
9.9174456e-12
2.5576045e-09
-9.7423346e-12
2.5570366e-09
9.547587e-12
2.5575788e-09
-9.3213799e-12
2.5570616e-09
9.0823242e-12
2.5575545e-09
-8.8312415e-12
2.5570865e-09
8.5642618e-12
2.5575305e-09
-8.2914843e-12
2.5571098e-09
8.0155996e-12
2.5575079e-09
-7.7383579e-12
2.5571318e-09
7.46109e-12
2.5574872e-09
-7.1904603e-12
2.5571518e-09
6.9239019e-12
2.5574688e-09
-6.6694639e-12
2.5571695e-09
6.4220985e-12
2.5574528e-09
-6.1906746e-12
2.5571851e-09
5.9681828e-12
2.5574391e-09
-5.7645346e-12
2.5571973e-09
5.5780083e-12
2.5574275e-09
-5.4053616e-12
2.5572075e-09
5.251897e-12
2.5574181e-09
-5.1085802e-12
2.5572118e-09
5.0181536e-12
2.5574059e-09
-4.8991222e-12
2.5572276e-09
4.6113232e-12
2.5575379e-09
-6.0742391e-12
3.9907933e-12
2.5877181e-09
2.5452624e-08
2.8627938e-09
-2.3807041e-09
2.7176252e-09
2.2319616e-09
2.7370299e-09
-3.1573878e-10
2.7426397e-09
2.7216543e-10
2.7428608e-09
5.7858501e-11
2.7392123e-09
6.3936175e-11
2.7421422e-09
-1.0470205e-11
2.7383503e-09
3.4955534e-11
2.738901e-09
2.0246009e-14
2.7391968e-09
-3.6007289e-12
2.7386256e-09
7.8952899e-12
2.7392951e-09
-8.5122758e-12
2.7385442e-09
9.9880218e-12
2.7392353e-09
-9.8194981e-12
2.7385036e-09
1.0594932e-11
2.7391895e-09
-1.0517069e-11
2.7384989e-09
1.0853811e-11
2.7391585e-09
-1.0814825e-11
2.7385115e-09
1.0905052e-11
2.7391323e-09
-1.0825155e-11
2.7385315e-09
1.0768866e-11
2.7391067e-09
-1.0623798e-11
2.7385548e-09
1.0469409e-11
2.7390819e-09
-1.026951e-11
2.7385793e-09
1.0050235e-11
2.7390566e-09
-9.7986928e-12
2.7386036e-09
9.535356e-12
2.7390332e-09
-9.2609023e-12
2.7386275e-09
8.9699144e-12
2.7390104e-09
-8.6743016e-12
2.7386495e-09
8.3764048e-12
2.7389892e-09
-8.0779861e-12
2.7386701e-09
7.7801691e-12
2.73897e-09
-7.4903813e-12
2.7386885e-09
7.2053445e-12
2.7389531e-09
-6.934038e-12
2.7387048e-09
6.6704353e-12
2.7389385e-09
-6.4244465e-12
2.7387189e-09
6.1877814e-12
2.7389262e-09
-5.9718436e-12
2.73873e-09
5.7742725e-12
2.7389157e-09
-5.5911339e-12
2.7387391e-09
5.4285291e-12
2.7389073e-09
-5.2767367e-12
2.7387428e-09
5.1826652e-12
2.7388958e-09
-5.052201e-12
2.7387555e-09
4.7517026e-12
2.7390165e-09
-6.3353289e-12
4.0396653e-12
2.7075511e-09
2.6206698e-08
2.9945204e-09
-2.6676733e-09
2.8828225e-09
2.3436595e-09
2.8988295e-09
-3.3174576e-10
2.914496e-09
2.56499e-10
2.9164406e-09
5.5913847e-11
2.9136569e-09
6.671993e-11
2.9169238e-09
-1.3737118e-11
2.9131993e-09
3.8680021e-11
2.9139339e-09
-7.1440974e-13
2.9141852e-09
-3.8520336e-12
2.9136668e-09
8.413743e-12
2.9142989e-09
-9.1443906e-12
2.9135953e-09
1.0691664e-11
2.9142359e-09
-1.0460123e-11
2.9135592e-09
1.1271609e-11
2.9141867e-09
-1.114453e-11
2.9135576e-09
1.1482898e-11
2.9141533e-09
-1.1410547e-11
2.9135722e-09
1.1486222e-11
2.9141259e-09
-1.1378861e-11
2.9135932e-09
1.1301575e-11
2.9140997e-09
-1.1130359e-11
2.9136167e-09
1.0952471e-11
2.9140753e-09
-1.0728169e-11
2.9136407e-09
1.0484819e-11
2.9140507e-09
-1.0208647e-11
2.913664e-09
9.9220307e-12
2.9140286e-09
-9.625461e-12
2.9136867e-09
9.3117581e-12
2.9140072e-09
-8.9948179e-12
2.9137071e-09
8.6765505e-12
2.9139876e-09
-8.3585276e-12
2.9137259e-09
8.0418396e-12
2.9139702e-09
-7.7346535e-12
2.9137426e-09
7.4328811e-12
2.913955e-09
-7.1464301e-12
2.9137572e-09
6.8682104e-12
2.913942e-09
-6.6092165e-12
2.9137699e-09
6.3598872e-12
2.9139312e-09
-6.1331283e-12
2.9137795e-09
5.9259977e-12
2.9139218e-09
-5.73351e-12
2.9137876e-09
5.5627863e-12
2.9139146e-09
-5.4037189e-12
2.9137905e-09
5.3067536e-12
2.9139038e-09
-5.1655399e-12
2.9138003e-09
4.8552386e-12
2.914012e-09
-6.5470965e-12
4.0518366e-12
2.8747718e-09
2.6793551e-08
3.1314879e-09
-2.9243893e-09
3.0423811e-09
2.4327664e-09
3.0545702e-09
-3.4393477e-10
3.0798005e-09
2.3126869e-10
3.0835585e-09
5.2155884e-11
3.0817413e-09
6.8537126e-11
3.0851778e-09
-1.7173657e-11
3.0815607e-09
4.2297102e-11
3.0825041e-09
-1.6577983e-12
3.0826878e-09
-4.0357941e-12
3.0822302e-09
8.8713923e-12
3.082815e-09
-9.7291924e-12
3.0821675e-09
1.1339183e-11
3.0827498e-09
-1.1042451e-11
3.0821358e-09
1.1885653e-11
3.0826979e-09
-1.17067e-11
3.0821369e-09
1.2043941e-11
3.082663e-09
-1.1936667e-11
3.082153e-09
1.1996306e-11
3.0826348e-09
-1.1860667e-11
3.0821745e-09
1.1761831e-11
3.0826088e-09
-1.1564604e-11
3.0821977e-09
1.136357e-11
3.082585e-09
-1.1115466e-11
3.0822209e-09
1.084888e-11
3.0825615e-09
-1.0549268e-11
3.0822427e-09
1.0240802e-11
3.0825409e-09
-9.9236774e-12
3.0822638e-09
9.5888689e-12
3.0825213e-09
-9.2523633e-12
3.0822823e-09
8.9155414e-12
3.0825037e-09
-8.5798567e-12
3.0822993e-09
8.2462276e-12
3.0824881e-09
-7.92353e-12
3.0823141e-09
7.606913e-12
3.0824748e-09
-7.3071593e-12
3.0823269e-09
7.0161732e-12
3.0824636e-09
-6.7459445e-12
3.0823379e-09
6.485576e-12
3.0824543e-09
-6.249562e-12
3.0823461e-09
6.0342155e-12
3.0824463e-09
-5.8336712e-12
3.082353e-09
5.6560939e-12
3.0824401e-09
-5.4908303e-12
3.0823552e-09
5.3916187e-12
3.0824304e-09
-5.2407747e-12
3.0823621e-09
4.9235794e-12
3.0825248e-09
-6.7098096e-12
4.0307217e-12
2.9909251e-09
2.7264251e-08
3.2530914e-09
-3.1865554e-09
3.1988829e-09
2.4869748e-09
3.205145e-09
-3.5019682e-10
3.2385819e-09
1.9783185e-10
3.2442666e-09
4.6471164e-11
3.2434798e-09
6.9323934e-11
3.2469017e-09
-2.0595621e-11
3.2434397e-09
4.575915e-11
3.2446113e-09
-2.8293724e-12
3.2447047e-09
-4.1292178e-12
3.2443154e-09
9.2606389e-12
3.2448434e-09
-1.0257215e-11
3.2442604e-09
1.1922208e-11
3.2447769e-09
-1.1558942e-11
3.2442328e-09
1.2429826e-11
3.2447234e-09
-1.219736e-11
3.2442362e-09
1.2531148e-11
3.2446876e-09
-1.2387978e-11
3.2442533e-09
1.2430527e-11
3.2446593e-09
-1.2266587e-11
3.2442749e-09
1.2146194e-11
3.2446337e-09
-1.1923357e-11
3.2442973e-09
1.1699896e-11
3.2446111e-09
-1.1429266e-11
3.2443193e-09
1.1140712e-11
3.2445891e-09
-1.0819135e-11
3.2443394e-09
1.0490542e-11
3.2445705e-09
-1.0154761e-11
3.2443586e-09
9.8007569e-12
3.244553e-09
-9.4467496e-12
3.2443749e-09
9.0935325e-12
3.2445373e-09
-8.7422032e-12
3.2443898e-09
8.393737e-12
3.2445239e-09
-8.0576626e-12
3.2444025e-09
7.7282901e-12
3.2445126e-09
-7.4172497e-12
3.2444134e-09
7.1153832e-12
3.2445031e-09
-6.8356997e-12
3.2444227e-09
6.5660137e-12
3.2444955e-09
-6.322386e-12
3.2444293e-09
6.1004708e-12
3.2444887e-09
-5.893133e-12
3.244435e-09
5.7098365e-12
3.2444838e-09
-5.5396875e-12
3.2444365e-09
5.4389602e-12
3.2444752e-09
-5.2795265e-12
3.2444407e-09
4.9581143e-12
3.2445552e-09
-6.8242675e-12
3.9799678e-12
3.1571233e-09
2.7568752e-08
3.3823932e-09
-3.4118252e-09
3.3508402e-09
2.5185278e-09
3.3514399e-09
-3.5079638e-10
3.3912184e-09
1.5805325e-10
3.3986366e-09
3.9053078e-11
3.3988666e-09
6.9093933e-11
3.4020948e-09
-2.3823859e-11
3.3988508e-09
4.9003086e-11
3.4002528e-09
-4.2313688e-12
3.400236e-09
-4.1124251e-12
3.3999219e-09
9.5747251e-12
3.4003843e-09
-1.0719624e-11
3.3998737e-09
1.2432814e-11
3.4003178e-09
-1.2002972e-11
3.39985e-09
1.2897568e-11
3.4002636e-09
-1.2610871e-11
3.3998555e-09
1.2939206e-11
3.4002276e-09
-1.2760052e-11
3.3998731e-09
1.2784988e-11
3.4001997e-09
-1.2593095e-11
3.3998943e-09
1.2451552e-11
3.4001752e-09
-1.2204251e-11
3.3999155e-09
1.1959616e-11
3.4001541e-09
-1.1667887e-11
3.3999358e-09
1.1358984e-11
3.400134e-09
-1.1017369e-11
3.3999538e-09
1.067076e-11
3.4001175e-09
-1.0318478e-11
3.3999708e-09
9.9474578e-12
3.4001023e-09
-9.5782118e-12
3.3999849e-09
9.210873e-12
3.400089e-09
-8.8462542e-12
3.3999974e-09
8.4852601e-12
3.4000778e-09
-8.1380146e-12
3.400008e-09
7.7980733e-12
3.4000686e-09
-7.4778309e-12
3.4000168e-09
7.167169e-12
3.4000611e-09
-6.8799915e-12
3.4000243e-09
6.6027874e-12
3.4000551e-09
-6.3532481e-12
3.4000294e-09
6.1262088e-12
3.4000497e-09
-5.9134742e-12
3.4000338e-09
5.7258292e-12
3.400046e-09
-5.5519294e-12
3.4000347e-09
5.4502957e-12
3.4000389e-09
-5.2837225e-12
3.4000362e-09
4.9607328e-12
3.4001035e-09
-6.8914925e-12
3.902958e-12
3.2751967e-09
2.7755181e-08
3.4930072e-09
-3.6296355e-09
3.4986542e-09
2.5128807e-09
3.4955298e-09
-3.4767184e-10
3.5382581e-09
1.1532491e-10
3.5468275e-09
3.0483711e-11
3.5478952e-09
6.8026161e-11
3.5507721e-09
-2.6700699e-11
3.5478213e-09
5.1953875e-11
3.5494253e-09
-5.8354543e-12
3.5492831e-09
-3.9702143e-12
3.5490501e-09
9.807799e-12
3.5494384e-09
-1.1107971e-11
3.5490072e-09
1.2864041e-11
3.5493725e-09
-1.2368324e-11
3.5489871e-09
1.328303e-11
3.5493186e-09
-1.2942417e-11
3.5489941e-09
1.3263738e-11
3.5492832e-09
-1.3049073e-11
3.5490119e-09
1.3056283e-11
3.5492563e-09
-1.2837571e-11
3.5490321e-09
1.2675805e-11
3.5492332e-09
-1.2405385e-11
3.5490517e-09
1.2141144e-11
3.5492142e-09
-1.1830396e-11
3.54907e-09
1.1503145e-11
3.5491963e-09
-1.1143642e-11
3.5490857e-09
1.0781359e-11
3.5491822e-09
-1.0415014e-11
3.5491003e-09
1.0029404e-11
3.5491695e-09
-9.6474319e-12
3.5491118e-09
9.268542e-12
3.5491585e-09
-8.8929941e-12
3.5491219e-09
8.5219008e-12
3.5491498e-09
-8.1658952e-12
3.5491301e-09
7.8177239e-12
3.5491428e-09
-7.4904959e-12
3.5491368e-09
7.1731038e-12
3.5491372e-09
-6.8803522e-12
3.5491425e-09
6.5974878e-12
3.549133e-09
-6.343778e-12
3.5491459e-09
6.1133557e-12
3.5491289e-09
-5.8965525e-12
3.549149e-09
5.7057523e-12
3.5491265e-09
-5.5294604e-12
3.5491492e-09
5.4276121e-12
3.5491207e-09
-5.2551841e-12
3.5491484e-09
4.9329739e-12
3.5491699e-09
-6.9129514e-12
3.8031984e-12
3.4338144e-09
2.7782991e-08
3.6108342e-09
-3.8066553e-09
3.6402593e-09
2.4834556e-09
3.6368153e-09
-3.442277e-10
3.6797041e-09
7.243603e-11
3.6887826e-09
2.140525e-11
3.6905122e-09
6.6296608e-11
3.6929376e-09
-2.9126128e-11
3.6903674e-09
5.452401e-11
3.6921193e-09
-7.5872829e-12
3.6918448e-09
-3.6957708e-12
3.6916988e-09
9.9537571e-12
3.6920057e-09
-1.1414817e-11
3.6916602e-09
1.3209514e-11
3.6919418e-09
-1.2649933e-11
3.6916437e-09
1.3581214e-11
3.6918891e-09
-1.3187888e-11
3.6916519e-09
1.3500948e-11
3.691855e-09
-1.3252107e-11
3.6916693e-09
1.3241982e-11
3.6918296e-09
-1.2997891e-11
3.6916882e-09
1.2817191e-11
3.6918086e-09
-1.2525714e-11
3.6917058e-09
1.2243916e-11
3.6917917e-09
-1.1916295e-11
3.6917218e-09
1.1572988e-11
3.6917763e-09
-1.1198146e-11
3.6917348e-09
1.0822859e-11
3.6917649e-09
-1.0445078e-11
3.6917468e-09
1.0047513e-11
3.6917548e-09
-9.6554621e-12
3.6917557e-09
9.2676353e-12
3.6917465e-09
-8.8838158e-12
3.6917632e-09
8.5052025e-12
3.6917401e-09
-8.1428576e-12
3.691769e-09
7.7888376e-12
3.6917354e-09
-7.456858e-12
3.6917735e-09
7.1349644e-12
3.6917319e-09
-6.8387082e-12
3.6917773e-09
6.5520789e-12
3.6917295e-09
-6.2959636e-12
3.6917792e-09
6.0636385e-12
3.6917268e-09
-5.8442126e-12
3.6917809e-09
5.6516777e-12
3.6917256e-09
-5.4741266e-12
3.6917806e-09
5.3726192e-12
3.6917214e-09
-5.1959982e-12
3.6917775e-09
4.8768694e-12
3.6917547e-09
-6.8902142e-12
3.6838037e-12
3.5592347e-09
2.7685381e-08
3.7118405e-09
-3.9592609e-09
3.7767147e-09
2.4185814e-09
3.7744683e-09
-3.419812e-10
3.8152117e-09
3.1692623e-11
3.8244337e-09
1.2183253e-11
3.8266785e-09
6.4051784e-11
3.8286015e-09
-3.104909e-11
3.8264932e-09
5.6632304e-11
3.8283237e-09
-9.417842e-12
3.8279189e-09
-3.2910235e-12
3.8278678e-09
1.0004922e-11
3.8280867e-09
-1.1633701e-11
3.8278324e-09
1.3463772e-11
3.8280259e-09
-1.2843368e-11
3.8278192e-09
1.3787927e-11
3.8279754e-09
-1.3344128e-11
3.8278283e-09
1.3648079e-11
3.8279431e-09
-1.336689e-11
3.8278449e-09
1.3340177e-11
3.8279199e-09
-1.3072889e-11
3.8278621e-09
1.2875006e-11
3.827901e-09
-1.2564639e-11
3.8278773e-09
1.2267572e-11
3.8278869e-09
-1.1925829e-11
3.8278908e-09
1.1569074e-11
3.8278742e-09
-1.1181585e-11
3.8279009e-09
1.0796116e-11
3.8278656e-09
-1.0409744e-11
3.8279101e-09
1.0003042e-11
3.8278583e-09
-9.6037465e-12
3.8279161e-09
9.2098398e-12
3.8278526e-09
-8.820337e-12
3.827921e-09
8.4368434e-12
3.8278489e-09
-8.070739e-12
3.8279243e-09
7.7133548e-12
3.8278464e-09
-7.3789448e-12
3.8279267e-09
7.0547035e-12
3.8278449e-09
-6.7569212e-12
3.8279285e-09
6.4684434e-12
3.8278443e-09
-6.211691e-12
3.8279287e-09
5.9792322e-12
3.827843e-09
-5.7585249e-12
3.8279292e-09
5.5654545e-12
3.8278431e-09
-5.387996e-12
3.8279282e-09
5.2874677e-12
3.8278403e-09
-5.1080647e-12
3.8279231e-09
4.794016e-12
3.8278581e-09
-6.825218e-12
3.5479453e-12
3.7102159e-09
2.7436791e-08
3.8232235e-09
-4.0722684e-09
3.9077556e-09
2.3340493e-09
3.9068712e-09
-3.4109668e-10
3.9446201e-09
-6.0563158e-12
3.9537075e-09
3.0959377e-12
3.956373e-09
6.1386202e-11
3.9577739e-09
-3.2449911e-11
3.9561931e-09
5.8213059e-11
3.9580294e-09
-1.1254133e-11
3.9575034e-09
-2.7650235e-12
3.9575561e-09
9.9521656e-12
3.9576816e-09
-1.1759148e-11
3.9575232e-09
1.3622108e-11
3.9576253e-09
-1.2945471e-11
3.9575133e-09
1.3899943e-11
3.957578e-09
-1.3408747e-11
3.9575231e-09
1.3703001e-11
3.9575483e-09
-1.3392082e-11
3.9575385e-09
1.3349979e-11
3.9575275e-09
-1.3061875e-11
3.9575536e-09
1.2848849e-11
3.9575114e-09
-1.2522419e-11
3.9575662e-09
1.2212781e-11
3.9575e-09
-1.1859626e-11
3.9575768e-09
1.1492245e-11
3.9574903e-09
-1.1095133e-11
3.9575839e-09
1.0702561e-11
3.9574847e-09
-1.0310559e-11
3.95759e-09
9.8976731e-12
3.9574803e-09
-9.4940305e-12
3.9575933e-09
9.0968697e-12
3.9574775e-09
-8.7045242e-12
3.9575954e-09
8.318883e-12
3.9574762e-09
-7.9515469e-12
3.9575963e-09
7.5932701e-12
3.9574761e-09
-7.2587181e-12
3.9575964e-09
6.9344118e-12
3.9574766e-09