/*--------------------------------*- C++ -*----------------------------------*\
| =========                 |                                                 |
| \\      /  F ield         | OpenFOAM: The Open Source CFD Toolbox           |
|  \\    /   O peration     | Version:  2312                                  |
|   \\  /    A nd           | Website:  www.openfoam.com                      |
|    \\/     M anipulation  |                                                 |
\*---------------------------------------------------------------------------*/
FoamFile
{
    version     2.0;
    format      ascii;
    arch        "LSB;label=32;scalar=64";
    class       volSymmTensorField;
    location    "1";
    object      sigma;
}
// * * * * * * * * * * * * * * * * * * * * * * * * * * * * * * * * * * * * * //

dimensions      [0 2 -2 0 0 0 0];

internalField   nonuniform List<symmTensor> 
4000
(
(-3.6597816 -1.7160212 0 -0.75021465 0 0)
(-12.976359 -0.715624 0 -0.012389314 0 0)
(-4.1827295 -0.37399189 0 -0.0023636535 0 0)
(-4.6892699 -0.39393972 0 0.00025435343 0 0)
(-4.2104292 -0.3751074 0 -0.00014460449 0 0)
(-4.2541562 -0.37665499 0 -2.4934588e-05 0 0)
(-4.0882202 -0.36923919 0 -3.6901514e-05 0 0)
(-4.1346173 -0.37129911 0 -6.2257999e-06 0 0)
(-4.0700449 -0.36834506 0 -5.5352736e-06 0 0)
(-4.0987089 -0.3696439 0 -8.6302816e-06 0 0)
(-4.0668908 -0.36816296 0 9.9118779e-06 0 0)
(-4.0959526 -0.36954154 0 -1.4286868e-05 0 0)
(-4.0633069 -0.36797797 0 1.5917095e-05 0 0)
(-4.0975924 -0.36963485 0 -1.8285616e-05 0 0)
(-4.0603113 -0.36782486 0 1.9643659e-05 0 0)
(-4.0993845 -0.36973122 0 -2.1218187e-05 0 0)
(-4.0582357 -0.36771702 0 2.2263465e-05 0 0)
(-4.1007436 -0.36980463 0 -2.3302489e-05 0 0)
(-4.056959 -0.36764875 0 2.4014309e-05 0 0)
(-4.1015616 -0.36985042 0 -2.4639635e-05 0 0)
(-4.0563409 -0.36761339 0 2.5032209e-05 0 0)
(-4.1018467 -0.36986923 0 -2.5324559e-05 0 0)
(-4.0562737 -0.36760576 0 2.5436196e-05 0 0)
(-4.1016506 -0.36986375 0 -2.545845e-05 0 0)
(-4.0566719 -0.3676216 0 2.5337144e-05 0 0)
(-4.1010393 -0.36983732 0 -2.514618e-05 0 0)
(-4.0574533 -0.36765684 0 2.484022e-05 0 0)
(-4.100081 -0.36979339 0 -2.4485294e-05 0 0)
(-4.058552 -0.36770811 0 2.404368e-05 0 0)
(-4.0988438 -0.36973537 0 -2.3572308e-05 0 0)
(-4.0598989 -0.36777192 0 2.30371e-05 0 0)
(-4.0973852 -0.3696662 0 -2.2491352e-05 0 0)
(-4.0614384 -0.36784543 0 2.1903236e-05 0 0)
(-4.0957609 -0.36958874 0 -2.1320046e-05 0 0)
(-4.0631214 -0.36792609 0 2.0714071e-05 0 0)
(-4.0940159 -0.36950529 0 -2.0126553e-05 0 0)
(-4.0649064 -0.36801171 0 1.9533354e-05 0 0)
(-4.0921885 -0.36941787 0 -1.8970016e-05 0 0)
(-4.0667583 -0.36810047 0 1.841547e-05 0 0)
(-4.0903096 -0.36932813 0 -1.7900322e-05 0 0)
(-4.0686506 -0.36819092 0 1.7405583e-05 0 0)
(-4.0884002 -0.36923722 0 -1.6959748e-05 0 0)
(-4.0705616 -0.36828186 0 1.6543141e-05 0 0)
(-4.0864794 -0.3691462 0 -1.6183165e-05 0 0)
(-4.0724769 -0.36837247 0 1.5857506e-05 0 0)
(-4.0845489 -0.3690553 0 -1.5596208e-05 0 0)
(-4.0743914 -0.36846204 0 1.5430035e-05 0 0)
(-4.0827472 -0.36897005 0 -1.5047861e-05 0 0)
(-4.07694 -0.36857669 0 1.5794746e-05 0 0)
(-4.0831589 -0.36898976 0 -1.5108354e-05 0 0)
(-3.3302617 -1.6275563 0 -0.72537591 0 0)
(-10.634913 -0.69656108 0 -0.027106783 0 0)
(-4.9424211 -0.42505238 0 -0.0071103131 0 0)
(-4.3409027 -0.37726112 0 0.00026059681 0 0)
(-3.8963569 -0.36188434 0 -0.0003630849 0 0)
(-3.930683 -0.36246991 0 -9.6068416e-05 0 0)
(-3.790643 -0.35568199 0 -0.00010393494 0 0)
(-3.8317367 -0.35751705 0 -1.4860863e-05 0 0)
(-3.7715347 -0.35460384 0 -2.5643181e-05 0 0)
(-3.7999589 -0.35596354 0 -1.138609e-05 0 0)
(-3.7665868 -0.35425883 0 9.5476631e-06 0 0)
(-3.7973468 -0.35587894 0 -1.750006e-05 0 0)
(-3.7635583 -0.3540796 0 1.8278466e-05 0 0)
(-3.798412 -0.35595447 0 -2.1645088e-05 0 0)
(-3.7613307 -0.35395163 0 2.2562972e-05 0 0)
(-3.7995553 -0.35602607 0 -2.4543231e-05 0 0)
(-3.7599128 -0.35386846 0 2.5377874e-05 0 0)
(-3.8003412 -0.3560757 0 -2.6563601e-05 0 0)
(-3.7591692 -0.35382254 0 2.716439e-05 0 0)
(-3.800693 -0.35610037 0 -2.7815474e-05 0 0)
(-3.7589669 -0.35380682 0 2.8124178e-05 0 0)
(-3.8006204 -0.35610099 0 -2.8384025e-05 0 0)
(-3.7592061 -0.35381591 0 2.8411633e-05 0 0)
(-3.8001688 -0.35608024 0 -2.8369255e-05 0 0)
(-3.7598102 -0.35384557 0 2.8158283e-05 0 0)
(-3.7993965 -0.35604143 0 -2.7886119e-05 0 0)
(-3.7607076 -0.35389182 0 2.7482564e-05 0 0)
(-3.7983607 -0.35598779 0 -2.703595e-05 0 0)
(-3.7618422 -0.35395145 0 2.6496188e-05 0 0)
(-3.79712 -0.35592263 0 -2.5928741e-05 0 0)
(-3.7631567 -0.35402122 0 2.5293566e-05 0 0)
(-3.7957212 -0.35584862 0 -2.4653205e-05 0 0)
(-3.7646051 -0.35409847 0 2.3968609e-05 0 0)
(-3.7942097 -0.35576834 0 -2.3293783e-05 0 0)
(-3.7661487 -0.35418094 0 2.2597378e-05 0 0)
(-3.7926212 -0.35568388 0 -2.192436e-05 0 0)
(-3.7677547 -0.35426672 0 2.1249432e-05 0 0)
(-3.7909858 -0.35559699 0 -2.0609265e-05 0 0)
(-3.7693968 -0.35435422 0 1.998353e-05 0 0)
(-3.7893263 -0.35550905 0 -1.9402165e-05 0 0)
(-3.7710559 -0.35444227 0 1.884746e-05 0 0)
(-3.7876573 -0.355421 0 -1.835017e-05 0 0)
(-3.7727163 -0.35452989 0 1.7886811e-05 0 0)
(-3.7859915 -0.35533366 0 -1.7491768e-05 0 0)
(-3.7743709 -0.35461655 0 1.7130813e-05 0 0)
(-3.7843253 -0.35524705 0 -1.6865416e-05 0 0)
(-3.7760022 -0.35470062 0 1.6726116e-05 0 0)
(-3.7827012 -0.35516111 0 -1.6079028e-05 0 0)
(-3.7779684 -0.35479119 0 1.8201158e-05 0 0)
(-3.7825858 -0.35515405 0 -1.5779854e-05 0 0)
(-3.0095063 -1.4955623 0 -0.66118387 0 0)
(-8.823945 -0.63613293 0 -0.030705399 0 0)
(-4.8932662 -0.43737323 0 -0.010700986 0 0)
(-4.2154914 -0.3714712 0 2.1200185e-05 0 0)
(-3.7024617 -0.35313229 0 -0.00053512609 0 0)
(-3.7183721 -0.35282147 0 -0.00015260108 0 0)
(-3.5934545 -0.34640436 0 -0.00015063715 0 0)
(-3.6349826 -0.34827871 0 -2.0624482e-05 0 0)
(-3.5775652 -0.34537127 0 -4.087812e-05 0 0)
(-3.6061838 -0.34681045 0 -1.3071206e-05 0 0)
(-3.5724875 -0.34496656 0 8.0517106e-06 0 0)
(-3.6034618 -0.34672298 0 -1.8135489e-05 0 0)
(-3.5698362 -0.34479798 0 1.802054e-05 0 0)
(-3.6041847 -0.34678515 0 -2.1865219e-05 0 0)
(-3.5680374 -0.34468731 0 2.2279603e-05 0 0)
(-3.6049865 -0.34684126 0 -2.4419007e-05 0 0)
(-3.5669686 -0.34461973 0 2.4969505e-05 0 0)
(-3.6054772 -0.34687633 0 -2.6176084e-05 0 0)
(-3.5664957 -0.34458742 0 2.6615201e-05 0 0)
(-3.6055956 -0.34688827 0 -2.7236907e-05 0 0)
(-3.5664948 -0.34458334 0 2.7444795e-05 0 0)
(-3.605353 -0.34687818 0 -2.7665766e-05 0 0)
(-3.5668732 -0.34460213 0 2.7625077e-05 0 0)
(-3.6047907 -0.34684868 0 -2.7548324e-05 0 0)
(-3.5675602 -0.3446396 0 2.729148e-05 0 0)
(-3.6039613 -0.34680303 0 -2.69948e-05 0 0)
(-3.5684911 -0.34469187 0 2.6559181e-05 0 0)
(-3.6029155 -0.34674427 0 -2.6097136e-05 0 0)
(-3.5696154 -0.34475585 0 2.5539576e-05 0 0)
(-3.6017058 -0.3466756 0 -2.4964742e-05 0 0)
(-3.570883 -0.34482851 0 2.4319958e-05 0 0)
(-3.6003725 -0.34659948 0 -2.3680097e-05 0 0)
(-3.5722533 -0.34490731 0 2.2993078e-05 0 0)
(-3.5989549 -0.34651834 0 -2.2323425e-05 0 0)
(-3.5736932 -0.34499021 0 2.1630358e-05 0 0)
(-3.5974836 -0.34643406 0 -2.0966133e-05 0 0)
(-3.575175 -0.34507543 0 2.0298749e-05 0 0)
(-3.5959834 -0.34634823 0 -1.9669637e-05 0 0)
(-3.5766769 -0.34516158 0 1.9053911e-05 0 0)
(-3.5944731 -0.34626206 0 -1.8484372e-05 0 0)
(-3.5781836 -0.34524765 0 1.794065e-05 0 0)
(-3.5929637 -0.34617634 0 -1.7457945e-05 0 0)
(-3.5796829 -0.34533278 0 1.7005932e-05 0 0)
(-3.5914643 -0.34609174 0 -1.6626569e-05 0 0)
(-3.5811709 -0.34541666 0 1.627523e-05 0 0)
(-3.58997 -0.34600823 0 -1.6042502e-05 0 0)
(-3.5826309 -0.34549754 0 1.5918199e-05 0 0)
(-3.5884975 -0.34592391 0 -1.5208743e-05 0 0)
(-3.5843323 -0.34557769 0 1.8056485e-05 0 0)
(-3.5881822 -0.34591022 0 -1.5956178e-05 0 0)
(-2.8154959 -1.404154 0 -0.61135807 0 0)
(-7.9016721 -0.61228965 0 -0.034677431 0 0)
(-4.8273489 -0.44994497 0 -0.014586226 0 0)
(-4.1125121 -0.36664909 0 -0.00023592577 0 0)
(-3.5310338 -0.34516156 0 -0.00076424988 0 0)
(-3.5178555 -0.34334343 0 -0.00021868988 0 0)
(-3.4006678 -0.33710508 0 -0.00019766207 0 0)
(-3.4433013 -0.33903076 0 -2.6627954e-05 0 0)
(-3.388583 -0.33613857 0 -5.712286e-05 0 0)
(-3.4175473 -0.33765806 0 -1.461248e-05 0 0)
(-3.3835538 -0.33568058 0 5.7814711e-06 0 0)
(-3.4147566 -0.33756356 0 -1.7867397e-05 0 0)
(-3.3811945 -0.33552274 0 1.6654545e-05 0 0)
(-3.4151954 -0.33761148 0 -2.0819539e-05 0 0)
(-3.3797479 -0.33542952 0 2.0565972e-05 0 0)
(-3.4157239 -0.33765224 0 -2.274912e-05 0 0)
(-3.3789696 -0.33537749 0 2.2892904e-05 0 0)
(-3.4159778 -0.33767311 0 -2.4031802e-05 0 0)
(-3.3787204 -0.33535855 0 2.4227247e-05 0 0)
(-3.4159079 -0.33767275 0 -2.4756285e-05 0 0)
(-3.3788853 -0.33536578 0 2.481469e-05 0 0)
(-3.4155273 -0.3376524 0 -2.4958077e-05 0 0)
(-3.3793776 -0.33539385 0 2.4827166e-05 0 0)
(-3.4148743 -0.33761462 0 -2.469924e-05 0 0)
(-3.3801317 -0.33543865 0 2.4395909e-05 0 0)
(-3.4139975 -0.33756256 0 -2.4076252e-05 0 0)
(-3.3810888 -0.33549646 0 2.3624617e-05 0 0)
(-3.4129426 -0.33749911 0 -2.3163946e-05 0 0)
(-3.382203 -0.3355643 0 2.2617562e-05 0 0)
(-3.4117569 -0.33742732 0 -2.2062589e-05 0 0)
(-3.3834299 -0.33563935 0 2.1445926e-05 0 0)
(-3.4104759 -0.33734946 0 -2.0841937e-05 0 0)
(-3.3847336 -0.33571926 0 2.0195832e-05 0 0)
(-3.4091342 -0.33726775 0 -1.9571149e-05 0 0)
(-3.3860857 -0.33580215 0 1.8926988e-05 0 0)
(-3.407758 -0.33718393 0 -1.8312725e-05 0 0)
(-3.3874625 -0.33588644 0 1.7698071e-05 0 0)
(-3.4063685 -0.33709939 0 -1.7120068e-05 0 0)
(-3.3888458 -0.33597091 0 1.6556994e-05 0 0)
(-3.4049809 -0.33701517 0 -1.6036221e-05 0 0)
(-3.3902236 -0.33605472 0 1.554117e-05 0 0)
(-3.4036036 -0.33693195 0 -1.510403e-05 0 0)
(-3.3915862 -0.33613715 0 1.4693505e-05 0 0)
(-3.4022432 -0.3368502 0 -1.4353134e-05 0 0)
(-3.3929322 -0.33621807 0 1.40318e-05 0 0)
(-3.4008937 -0.33676986 0 -1.3842262e-05 0 0)
(-3.3942456 -0.33629571 0 1.3739087e-05 0 0)
(-3.3995505 -0.33668724 0 -1.2928875e-05 0 0)
(-3.395717 -0.33636605 0 1.6556409e-05 0 0)
(-3.3990583 -0.3366659 0 -1.4401909e-05 0 0)
(-2.7987412 -1.362195 0 -0.56910377 0 0)
(-6.910719 -0.57239904 0 -0.036229083 0 0)
(-4.6181202 -0.4513398 0 -0.017443255 0 0)
(-3.989699 -0.36114887 0 -0.00045719467 0 0)
(-3.3751031 -0.33754228 0 -0.0010089494 0 0)
(-3.3299991 -0.33402115 0 -0.00028269687 0 0)
(-3.2119696 -0.32770547 0 -0.00023332973 0 0)
(-3.2562294 -0.32974797 0 -3.1591716e-05 0 0)
(-3.2042718 -0.32687785 0 -7.0932372e-05 0 0)
(-3.2338252 -0.3284989 0 -1.6263645e-05 0 0)
(-3.1997527 -0.32639658 0 3.759514e-06 0 0)
(-3.2310832 -0.32839819 0 -1.7438099e-05 0 0)
(-3.1976867 -0.32625176 0 1.5299013e-05 0 0)
(-3.2312827 -0.32843239 0 -1.9664185e-05 0 0)
(-3.1965413 -0.32617545 0 1.8827918e-05 0 0)
(-3.2315825 -0.32845888 0 -2.1026727e-05 0 0)
(-3.1960086 -0.32613814 0 2.0803894e-05 0 0)
(-3.23164 -0.32846658 0 -2.1874322e-05 0 0)
(-3.1959463 -0.32613168 0 2.1849791e-05 0 0)
(-3.2314148 -0.32845486 0 -2.2292285e-05 0 0)
(-3.1962473 -0.32614935 0 2.2218017e-05 0 0)
(-3.2309216 -0.32842509 0 -2.2290926e-05 0 0)
(-3.1968311 -0.32618591 0 2.2082678e-05 0 0)
(-3.2301967 -0.32837977 0 -2.1910353e-05 0 0)
(-3.197637 -0.32623735 0 2.1571094e-05 0 0)
(-3.229285 -0.32832197 0 -2.1233988e-05 0 0)
(-3.1986111 -0.32630011 0 2.0774762e-05 0 0)
(-3.2282276 -0.32825438 0 -2.0319827e-05 0 0)
(-3.1997117 -0.32637132 0 1.9791166e-05 0 0)
(-3.2270676 -0.32817993 0 -1.9259519e-05 0 0)
(-3.2008994 -0.32644838 0 1.8676176e-05 0 0)
(-3.2258364 -0.32810072 0 -1.811031e-05 0 0)
(-3.2021422 -0.32652908 0 1.7508651e-05 0 0)
(-3.2245641 -0.32801876 0 -1.6930366e-05 0 0)
(-3.2034156 -0.32661173 0 1.6337724e-05 0 0)
(-3.2232735 -0.32793563 0 -1.5774272e-05 0 0)
(-3.2046992 -0.32669492 0 1.5214025e-05 0 0)
(-3.2219826 -0.32785256 0 -1.4687294e-05 0 0)
(-3.2059781 -0.32677759 0 1.4177415e-05 0 0)
(-3.2207035 -0.32777044 0 -1.3704478e-05 0 0)
(-3.2072427 -0.32685906 0 1.3257915e-05 0 0)
(-3.2194428 -0.32768979 0 -1.286494e-05 0 0)
(-3.2084856 -0.32693873 0 1.2494545e-05 0 0)
(-3.2182046 -0.32761096 0 -1.2189521e-05 0 0)
(-3.2097074 -0.32701664 0 1.1895649e-05 0 0)
(-3.2169828 -0.32753386 0 -1.174249e-05 0 0)
(-3.2108932 -0.32709112 0 1.1643127e-05 0 0)
(-3.21576 -0.32745355 0 -1.0758176e-05 0 0)
(-3.2121773 -0.32715381 0 1.493068e-05 0 0)
(-3.2151556 -0.32742627 0 -1.2757874e-05 0 0)
(-2.6448291 -1.2593144 0 -0.50503807 0 0)
(-6.0794763 -0.5410519 0 -0.036797826 0 0)
(-4.3963238 -0.45315834 0 -0.020305762 0 0)
(-3.8527091 -0.35587143 0 -0.0007963876 0 0)
(-3.2314263 -0.33054975 0 -0.0013240729 0 0)
(-3.1547819 -0.32497234 0 -0.00035479992 0 0)
(-3.0303112 -0.31832587 0 -0.00026169329 0 0)
(-3.0743552 -0.32044696 0 -3.6084626e-05 0 0)
(-3.0249938 -0.31759996 0 -8.2345276e-05 0 0)
(-3.0550416 -0.31933204 0 -1.8051974e-05 0 0)
(-3.0211207 -0.31711644 0 2.0896982e-06 0 0)
(-3.052423 -0.31922661 0 -1.7090352e-05 0 0)
(-3.0193545 -0.3169864 0 1.4201274e-05 0 0)
(-3.0524181 -0.31924759 0 -1.8702658e-05 0 0)
(-3.0184749 -0.31692652 0 1.7386114e-05 0 0)
(-3.0525198 -0.31926062 0 -1.9600693e-05 0 0)
(-3.0181556 -0.31690324 0 1.9066694e-05 0 0)
(-3.0524098 -0.319256 0 -2.0085735e-05 0 0)
(-3.018253 -0.31690852 0 1.9874643e-05 0 0)
(-3.0520538 -0.31923373 0 -2.0247671e-05 0 0)
(-3.0186677 -0.31693588 0 2.0062621e-05 0 0)
(-3.0514681 -0.31919529 0 -2.0077671e-05 0 0)
(-3.0193253 -0.31698023 0 1.9806122e-05 0 0)
(-3.0506865 -0.31914311 0 -1.9596957e-05 0 0)
(-3.0201698 -0.31703766 0 1.9229464e-05 0 0)
(-3.0497508 -0.31908017 0 -1.8877478e-05 0 0)
(-3.0211519 -0.31710479 0 1.8413639e-05 0 0)
(-3.048698 -0.31900899 0 -1.7963719e-05 0 0)
(-3.0222338 -0.31717886 0 1.745171e-05 0 0)
(-3.047567 -0.31893236 0 -1.693897e-05 0 0)
(-3.0233806 -0.31725749 0 1.6385191e-05 0 0)
(-3.0463854 -0.31885218 0 -1.585111e-05 0 0)
(-3.0245641 -0.31733861 0 1.5288148e-05 0 0)
(-3.0451796 -0.3187703 0 -1.4748514e-05 0 0)
(-3.025763 -0.31742073 0 1.4200162e-05 0 0)
(-3.0439693 -0.31868812 0 -1.3678898e-05 0 0)
(-3.0269601 -0.31750258 0 1.3165087e-05 0 0)
(-3.0427692 -0.31860673 0 -1.2680818e-05 0 0)
(-3.0281431 -0.31758326 0 1.2216299e-05 0 0)
(-3.0415894 -0.31852686 0 -1.1783044e-05 0 0)
(-3.0293048 -0.31766224 0 1.1377606e-05 0 0)
(-3.0404343 -0.31844891 0 -1.1020691e-05 0 0)
(-3.0304395 -0.31773905 0 1.0683539e-05 0 0)
(-3.0393062 -0.31837308 0 -1.0406986e-05 0 0)
(-3.0315494 -0.31781386 0 1.0135368e-05 0 0)
(-3.0381991 -0.31829928 0 -1.0010067e-05 0 0)
(-3.0326213 -0.31788514 0 9.9058299e-06 0 0)
(-3.0370872 -0.31822166 0 -8.9627556e-06 0 0)
(-3.033744 -0.31794142 0 1.3502931e-05 0 0)
(-3.036412 -0.31818938 0 -1.1279805e-05 0 0)
(-2.6336065 -1.223471 0 -0.476763 0 0)
(-5.1773259 -0.50622868 0 -0.037577797 0 0)
(-4.0835316 -0.44427496 0 -0.021526206 0 0)
(-3.6356253 -0.34730799 0 -0.0012282662 0 0)
(-3.0719207 -0.32320788 0 -0.0017130795 0 0)
(-2.9834998 -0.31602115 0 -0.00043898613 0 0)
(-2.8565978 -0.30902106 0 -0.00028765378 0 0)
(-2.8979662 -0.31113881 0 -4.0935575e-05 0 0)
(-2.8509503 -0.30830986 0 -9.1448692e-05 0 0)
(-2.8812383 -0.31015547 0 -1.9652859e-05 0 0)
(-2.8476603 -0.30784044 0 7.0789371e-07 0 0)
(-2.8787639 -0.31004749 0 -1.6730418e-05 0 0)
(-2.8461954 -0.30772722 0 1.3268218e-05 0 0)
(-2.8785886 -0.31005603 0 -1.7833662e-05 0 0)
(-2.8455564 -0.30768351 0 1.6130869e-05 0 0)
(-2.8785204 -0.31005643 0 -1.8350421e-05 0 0)
(-2.8454241 -0.30767368 0 1.7553511e-05 0 0)
(-2.8782681 -0.31004033 0 -1.853092e-05 0 0)
(-2.8456586 -0.30769002 0 1.8160971e-05 0 0)
(-2.8778027 -0.31000827 0 -1.8477427e-05 0 0)
(-2.8461678 -0.30772635 0 1.8199048e-05 0 0)
(-2.8771418 -0.30996189 0 -1.8166782e-05 0 0)
(-2.8468836 -0.3077778 0 1.7842912e-05 0 0)
(-2.8763174 -0.30990354 0 -1.7604358e-05 0 0)
(-2.8477547 -0.30784057 0 1.7215135e-05 0 0)
(-2.8753679 -0.30983609 0 -1.685226e-05 0 0)
(-2.8487364 -0.30791147 0 1.6386652e-05 0 0)
(-2.8743264 -0.30976189 0 -1.5942823e-05 0 0)
(-2.8497945 -0.30798786 0 1.544737e-05 0 0)
(-2.8732282 -0.30968357 0 -1.4952559e-05 0 0)
(-2.8508981 -0.30806759 0 1.4426227e-05 0 0)
(-2.8720973 -0.30960285 0 -1.3920917e-05 0 0)
(-2.8520226 -0.30814874 0 1.3392715e-05 0 0)
(-2.8709567 -0.30952141 0 -1.2887599e-05 0 0)
(-2.8531497 -0.30822999 0 1.2378834e-05 0 0)
(-2.8698229 -0.30944049 0 -1.1895079e-05 0 0)
(-2.854265 -0.30831023 0 1.1422556e-05 0 0)
(-2.8687083 -0.30936102 0 -1.0975817e-05 0 0)
(-2.8553586 -0.30838871 0 1.055121e-05 0 0)
(-2.8676206 -0.30928358 0 -1.0152493e-05 0 0)
(-2.8564252 -0.30846504 0 9.7832529e-06 0 0)
(-2.8665627 -0.30920848 0 -9.458107e-06 0 0)
(-2.8574608 -0.30853886 0 9.1498162e-06 0 0)
(-2.8655353 -0.30913576 0 -8.8975311e-06 0 0)
(-2.8584689 -0.30861047 0 8.6455252e-06 0 0)
(-2.8645325 -0.30906533 0 -8.5437345e-06 0 0)
(-2.8594378 -0.30867852 0 8.4313516e-06 0 0)
(-2.8635228 -0.30899073 0 -7.4501173e-06 0 0)
(-2.8604202 -0.30872935 0 1.2208965e-05 0 0)
(-2.8628084 -0.30895442 0 -9.9466914e-06 0 0)
(-2.6001468 -1.1571311 0 -0.42916616 0 0)
(-4.3310307 -0.48137237 0 -0.040312249 0 0)
(-3.817475 -0.44261291 0 -0.023389569 0 0)
(-3.3824039 -0.34023903 0 -0.0025919966 0 0)
(-2.8858763 -0.31541156 0 -0.0022592065 0 0)
(-2.8091711 -0.30701765 0 -0.00054723594 0 0)
(-2.6890075 -0.29978296 0 -0.0003192087 0 0)
(-2.7270472 -0.30184318 0 -4.8074461e-05 0 0)
(-2.6822077 -0.29901748 0 -9.9125892e-05 0 0)
(-2.7125106 -0.30097252 0 -2.0976096e-05 0 0)
(-2.6794195 -0.29857101 0 -4.9513974e-07 0 0)
(-2.7101417 -0.30086159 0 -1.6287885e-05 0 0)
(-2.6782219 -0.29847513 0 1.239948e-05 0 0)
(-2.7098077 -0.30085792 0 -1.6968175e-05 0 0)
(-2.6777888 -0.29844682 0 1.4952728e-05 0 0)
(-2.7095887 -0.30084631 0 -1.7165217e-05 0 0)
(-2.677816 -0.29844968 0 1.6143595e-05 0 0)
(-2.7092145 -0.30081948 0 -1.7085091e-05 0 0)
(-2.6781655 -0.29847631 0 1.6577892e-05 0 0)
(-2.7086584 -0.3007784 0 -1.6847553e-05 0 0)
(-2.6787515 -0.29852089 0 1.6490007e-05 0 0)
(-2.707938 -0.3007248 0 -1.6419479e-05 0 0)
(-2.6795115 -0.29857872 0 1.6053057e-05 0 0)
(-2.7070832 -0.30066097 0 -1.5792178e-05 0 0)
(-2.6803983 -0.29864617 0 1.5387514e-05 0 0)
(-2.7061292 -0.30058965 0 -1.5018407e-05 0 0)
(-2.6813718 -0.29872023 0 1.4554958e-05 0 0)
(-2.7051055 -0.300513 0 -1.4120443e-05 0 0)
(-2.6824012 -0.29879841 0 1.3643125e-05 0 0)
(-2.7040437 -0.30043348 0 -1.3167243e-05 0 0)
(-2.6834595 -0.29887878 0 1.2668588e-05 0 0)
(-2.7029647 -0.30035267 0 -1.2191998e-05 0 0)
(-2.6845251 -0.29895956 0 1.1697643e-05 0 0)
(-2.7018882 -0.30027203 0 -1.1226029e-05 0 0)
(-2.6855825 -0.29903961 0 1.0754922e-05 0 0)
(-2.700828 -0.30019265 0 -1.0306896e-05 0 0)
(-2.68662 -0.29911797 0 9.8731206e-06 0 0)
(-2.6997944 -0.30011533 0 -9.4617683e-06 0 0)
(-2.6876295 -0.29919405 0 9.0745403e-06 0 0)
(-2.6987929 -0.30004051 0 -8.7084602e-06 0 0)
(-2.6886077 -0.29926757 0 8.3729523e-06 0 0)
(-2.697825 -0.29996837 0 -8.0771996e-06 0 0)
(-2.6895519 -0.29933829 0 7.7954932e-06 0 0)
(-2.6968903 -0.29989886 0 -7.5659851e-06 0 0)
(-2.6904665 -0.29940662 0 7.3326102e-06 0 0)
(-2.6959828 -0.29983186 0 -7.2511084e-06 0 0)
(-2.6913421 -0.2994714 0 7.1308091e-06 0 0)
(-2.6950677 -0.29976051 0 -6.1288435e-06 0 0)
(-2.6922013 -0.29951755 0 1.0986538e-05 0 0)
(-2.6943368 -0.29972107 0 -8.7184572e-06 0 0)
(-2.6437834 -1.0988691 0 -0.38284324 0 0)
(-3.5617117 -0.45497601 0 -0.042718803 0 0)
(-3.4722971 -0.41934804 0 -0.021184676 0 0)
(-3.1073869 -0.33576292 0 -0.0050559745 0 0)
(-2.6973491 -0.30751049 0 -0.0028757152 0 0)
(-2.635928 -0.29783307 0 -0.00064818971 0 0)
(-2.5248759 -0.29045479 0 -0.00034681206 0 0)
(-2.5608726 -0.29252283 0 -5.3796677e-05 0 0)
(-2.518252 -0.28970294 0 -0.00010439395 0 0)
(-2.5486118 -0.29177382 0 -2.158415e-05 0 0)
(-2.5162442 -0.28930344 0 -1.4271984e-06 0 0)
(-2.5464777 -0.29166609 0 -1.5675558e-05 0 0)
(-2.5153807 -0.28922863 0 1.1581371e-05 0 0)
(-2.5460536 -0.29165246 0 -1.6056967e-05 0 0)
(-2.5151541 -0.28921591 0 1.3816659e-05 0 0)
(-2.5457197 -0.2916301 0 -1.5997228e-05 0 0)
(-2.5153253 -0.28923095 0 1.4792322e-05 0 0)
(-2.5452477 -0.29159352 0 -1.5698073e-05 0 0)
(-2.5157727 -0.28926719 0 1.5075852e-05 0 0)
(-2.5446195 -0.29154427 0 -1.5305981e-05 0 0)
(-2.5164201 -0.28931928 0 1.4883037e-05 0 0)
(-2.5438545 -0.29148424 0 -1.4782014e-05 0 0)
(-2.5172114 -0.28938277 0 1.4382382e-05 0 0)
(-2.5429808 -0.29141563 0 -1.4105991e-05 0 0)
(-2.5181042 -0.28945423 0 1.3692448e-05 0 0)
(-2.5420307 -0.29134106 0 -1.3322116e-05 0 0)
(-2.5190625 -0.28953085 0 1.2865191e-05 0 0)
(-2.5410307 -0.29126253 0 -1.2443292e-05 0 0)
(-2.5200588 -0.2896103 0 1.1986624e-05 0 0)
(-2.5400087 -0.29118231 0 -1.153187e-05 0 0)
(-2.5210697 -0.28969084 0 1.1062087e-05 0 0)
(-2.5389827 -0.2911018 0 -1.061492e-05 0 0)
(-2.5220764 -0.28977088 0 1.0154309e-05 0 0)
(-2.5379694 -0.2910223 0 -9.7161205e-06 0 0)
(-2.5230661 -0.28984942 0 9.2819855e-06 0 0)
(-2.5369804 -0.29094475 0 -8.8691092e-06 0 0)
(-2.524029 -0.28992567 0 8.4729131e-06 0 0)
(-2.5360237 -0.29086979 0 -8.0959671e-06 0 0)
(-2.5249593 -0.28999916 0 7.744434e-06 0 0)
(-2.5351032 -0.29079773 0 -7.4095154e-06 0 0)
(-2.5258548 -0.29006974 0 7.1062338e-06 0 0)
(-2.5342192 -0.29072868 0 -6.8387873e-06 0 0)
(-2.5267143 -0.29013728 0 6.5822185e-06 0 0)
(-2.5333701 -0.29066244 0 -6.3741011e-06 0 0)
(-2.527543 -0.29020226 0 6.1590278e-06 0 0)
(-2.5325501 -0.2905989 0 -6.0956167e-06 0 0)
(-2.5283331 -0.29026374 0 5.9689011e-06 0 0)
(-2.5317227 -0.29053099 0 -4.9608607e-06 0 0)
(-2.5290838 -0.29030582 0 9.8173255e-06 0 0)
(-2.530992 -0.29048922 0 -7.5878969e-06 0 0)
(-2.6733665 -1.0611907 0 -0.35477227 0 0)
(-2.9999443 -0.42929943 0 -0.043463862 0 0)
(-3.1723143 -0.40787806 0 -0.022864658 0 0)
(-2.8470171 -0.33192387 0 -0.0078644214 0 0)
(-2.523115 -0.30008288 0 -0.0034692027 0 0)
(-2.4730848 -0.28893125 0 -0.00074534898 0 0)
(-2.3679458 -0.28124199 0 -0.00037705478 0 0)
(-2.4010553 -0.28324342 0 -5.7267652e-05 0 0)
(-2.3600946 -0.28040441 0 -0.0001072619 0 0)
(-2.3900547 -0.28257388 0 -2.0992116e-05 0 0)
(-2.358412 -0.28004588 0 -1.9837359e-06 0 0)
(-2.3879285 -0.28246513 0 -1.4835428e-05 0 0)
(-2.3577477 -0.27998999 0 1.0808091e-05 0 0)
(-2.3873748 -0.28244104 0 -1.5090199e-05 0 0)
(-2.3576719 -0.27999139 0 1.2703841e-05 0 0)
(-2.3869287 -0.28240838 0 -1.4834093e-05 0 0)
(-2.3579565 -0.28001755 0 1.3481007e-05 0 0)
(-2.3863724 -0.28236277 0 -1.4353182e-05 0 0)
(-2.3584814 -0.28006251 0 1.3635129e-05 0 0)
(-2.3856867 -0.28230614 0 -1.3833174e-05 0 0)
(-2.3591747 -0.28012129 0 1.3357472e-05 0 0)
(-2.3848898 -0.28224043 0 -1.3233666e-05 0 0)
(-2.3599855 -0.28018972 0 1.280987e-05 0 0)
(-2.3840076 -0.28216775 0 -1.2524419e-05 0 0)
(-2.3608753 -0.28026451 0 1.2108256e-05 0 0)
(-2.3830693 -0.28209057 0 -1.1741423e-05 0 0)
(-2.361812 -0.2803431 0 1.1295505e-05 0 0)
(-2.3820982 -0.28201071 0 -1.0889919e-05 0 0)
(-2.3627713 -0.2804233 0 1.0456387e-05 0 0)
(-2.381119 -0.28193026 0 -1.0024686e-05 0 0)
(-2.3637329 -0.28050359 0 9.5852283e-06 0 0)
(-2.380147 -0.28185045 0 -9.168574e-06 0 0)
(-2.3646808 -0.28058252 0 8.7421935e-06 0 0)
(-2.3791963 -0.28177241 0 -8.3376763e-06 0 0)
(-2.3656044 -0.28065927 0 7.9400688e-06 0 0)
(-2.3782762 -0.28169693 0 -7.5618852e-06 0 0)
(-2.366496 -0.28073319 0 7.2022087e-06 0 0)
(-2.3773928 -0.28162451 0 -6.8588321e-06 0 0)
(-2.3673512 -0.28080393 0 6.541877e-06 0 0)
(-2.3765486 -0.28155535 0 -6.2374247e-06 0 0)
(-2.3681694 -0.28087147 0 5.9651209e-06 0 0)
(-2.3757429 -0.28148946 0 -5.7246689e-06 0 0)
(-2.3689502 -0.28093575 0 5.4921006e-06 0 0)
(-2.3749731 -0.28142655 0 -5.3048011e-06 0 0)
(-2.3696994 -0.28099736 0 5.1077271e-06 0 0)
(-2.3742337 -0.28136648 0 -5.05986e-06 0 0)
(-2.3704113 -0.28105553 0 4.929171e-06 0 0)
(-2.3734874 -0.28130213 0 -3.9273578e-06 0 0)
(-2.3710656 -0.28109403 0 8.6987844e-06 0 0)
(-2.3727693 -0.28125874 0 -6.5565618e-06 0 0)
(-2.7692924 -1.0004914 0 -0.30454587 0 0)
(-2.5885185 -0.40707339 0 -0.043467759 0 0)
(-2.8844623 -0.39111288 0 -0.022695963 0 0)
(-2.5778964 -0.31808221 0 -0.0084074863 0 0)
(-2.3379281 -0.28883485 0 -0.0033452013 0 0)
(-2.3049883 -0.27896673 0 -0.00071036199 0 0)
(-2.2140487 -0.2718356 0 -0.00036884816 0 0)
(-2.2456074 -0.27390387 0 -5.2029042e-05 0 0)
(-2.2066428 -0.27107832 0 -0.00010551048 0 0)
(-2.2362861 -0.27335389 0 -1.8668267e-05 0 0)
(-2.2056057 -0.27078875 0 -1.9592423e-06 0 0)
(-2.2343262 -0.27325346 0 -1.3668856e-05 0 0)
(-2.2052192 -0.27075614 0 1.0119279e-05 0 0)
(-2.233721 -0.27322212 0 -1.4036066e-05 0 0)
(-2.2053071 -0.27077212 0 1.1618773e-05 0 0)
(-2.2332024 -0.27318077 0 -1.3658417e-05 0 0)
(-2.2056976 -0.27080896 0 1.2202533e-05 0 0)
(-2.2325856 -0.27312728 0 -1.3035959e-05 0 0)
(-2.2062874 -0.27086196 0 1.2244338e-05 0 0)
(-2.2318593 -0.27306419 0 -1.2415039e-05 0 0)
(-2.2070146 -0.27092669 0 1.1899589e-05 0 0)
(-2.2310433 -0.2729936 0 -1.1759412e-05 0 0)
(-2.2078345 -0.27099932 0 1.1320148e-05 0 0)
(-2.2301622 -0.27291755 0 -1.103169e-05 0 0)
(-2.2087133 -0.2710768 0 1.0619021e-05 0 0)
(-2.2292428 -0.27283838 0 -1.0260333e-05 0 0)
(-2.2096228 -0.27115677 0 9.8296591e-06 0 0)
(-2.2283054 -0.27275773 0 -9.4435642e-06 0 0)
(-2.2105416 -0.27123722 0 9.0358005e-06 0 0)
(-2.2273716 -0.2726775 0 -8.6294958e-06 0 0)
(-2.2114525 -0.27131684 0 8.2218084e-06 0 0)
(-2.2264544 -0.27259876 0 -7.836637e-06 0 0)
(-2.2123417 -0.27139434 0 7.4448278e-06 0 0)
(-2.2255654 -0.27252247 0 -7.0743081e-06 0 0)
(-2.2132009 -0.27146904 0 6.7130529e-06 0 0)
(-2.224712 -0.27244929 0 -6.3694283e-06 0 0)
(-2.214024 -0.27154043 0 6.0456421e-06 0 0)
(-2.2238986 -0.27237958 0 -5.735326e-06 0 0)
(-2.2148082 -0.2716083 0 5.4518089e-06 0 0)
(-2.2231264 -0.27231343 0 -5.1768359e-06 0 0)
(-2.2155537 -0.2716727 0 4.9345315e-06 0 0)
(-2.222394 -0.27225077 0 -4.7204034e-06 0 0)
(-2.2162613 -0.27173368 0 4.5108677e-06 0 0)
(-2.2216978 -0.27219121 0 -4.3434508e-06 0 0)
(-2.2169371 -0.27179189 0 4.1643005e-06 0 0)
(-2.2210328 -0.27213461 0 -4.1301898e-06 0 0)
(-2.217577 -0.27184675 0 3.9983447e-06 0 0)
(-2.2203615 -0.27207389 0 -3.0132118e-06 0 0)
(-2.2181457 -0.2718821 0 7.6294278e-06 0 0)
(-2.219665 -0.2720295 0 -5.6231506e-06 0 0)
(-2.8023333 -0.97500918 0 -0.28703552 0 0)
(-2.3056001 -0.38906202 0 -0.044169378 0 0)
(-2.6571476 -0.37728054 0 -0.022721115 0 0)
(-2.3926075 -0.30842088 0 -0.008719343 0 0)
(-2.1977132 -0.27962072 0 -0.0032094111 0 0)
(-2.1602737 -0.26971803 0 -0.00066288669 0 0)
(-2.068227 -0.26246792 0 -0.00034730727 0 0)
(-2.0969992 -0.26459927 0 -3.7752791e-05 0 0)
(-2.0592352 -0.26177071 0 -9.925469e-05 0 0)
(-2.088018 -0.26413457 0 -1.4031492e-05 0 0)
(-2.0582135 -0.26154318 0 -1.1935407e-06 0 0)
(-2.0858977 -0.2640373 0 -1.210281e-05 0 0)
(-2.057912 -0.26153036 0 9.5318441e-06 0 0)
(-2.0851673 -0.26399782 0 -1.2885722e-05 0 0)
(-2.0580933 -0.26155902 0 1.0554224e-05 0 0)
(-2.0845664 -0.26394815 0 -1.2465204e-05 0 0)
(-2.0585565 -0.26160533 0 1.0947225e-05 0 0)
(-2.0838966 -0.26388749 0 -1.1738587e-05 0 0)
(-2.0591918 -0.2616654 0 1.0892522e-05 0 0)
(-2.0831408 -0.26381873 0 -1.1041078e-05 0 0)
(-2.0599393 -0.26173524 0 1.0497519e-05 0 0)
(-2.082316 -0.26374401 0 -1.0347461e-05 0 0)
(-2.0607585 -0.26181134 0 9.9008092e-06 0 0)
(-2.0814445 -0.26366529 0 -9.6149995e-06 0 0)
(-2.0616191 -0.26189084 0 9.2113774e-06 0 0)
(-2.0805501 -0.26358473 0 -8.8651322e-06 0 0)
(-2.0624964 -0.26197164 0 8.453766e-06 0 0)
(-2.0796505 -0.26350381 0 -8.0905827e-06 0 0)
(-2.0633717 -0.26205187 0 7.710853e-06 0 0)
(-2.0787644 -0.26342422 0 -7.3318704e-06 0 0)
(-2.0642306 -0.26213043 0 6.9573847e-06 0 0)
(-2.0779026 -0.26334691 0 -6.6049045e-06 0 0)
(-2.0650617 -0.26220618 0 6.2482779e-06 0 0)
(-2.0770744 -0.26327264 0 -5.9122048e-06 0 0)
(-2.0658581 -0.2622786 0 5.5870907e-06 0 0)
(-2.0762854 -0.26320196 0 -5.2778507e-06 0 0)
(-2.0666156 -0.2623473 0 4.9891945e-06 0 0)
(-2.0755388 -0.26313509 0 -4.7114337e-06 0 0)
(-2.0673324 -0.26241217 0 4.4605747e-06 0 0)
(-2.0748347 -0.26307204 0 -4.2147159e-06 0 0)
(-2.0680098 -0.26247337 0 4.0014451e-06 0 0)
(-2.0741707 -0.26301265 0 -3.8126652e-06 0 0)
(-2.0686492 -0.26253104 0 3.6253835e-06 0 0)
(-2.0735429 -0.26295645 0 -3.4775921e-06 0 0)
(-2.069257 -0.26258584 0 3.3161515e-06 0 0)
(-2.0729464 -0.26290328 0 -3.2937142e-06 0 0)
(-2.0698308 -0.26263743 0 3.1639014e-06 0 0)
(-2.0723446 -0.26284624 0 -2.2043908e-06 0 0)
(-2.0703233 -0.26266994 0 6.6075066e-06 0 0)
(-2.0716762 -0.2628014 0 -4.784842e-06 0 0)
(-2.9611907 -0.91133546 0 -0.2352014 0 0)
(-2.1347096 -0.36815832 0 -0.040465721 0 0)
(-2.458053 -0.35816935 0 -0.021034592 0 0)
(-2.2293487 -0.2964462 0 -0.0082512475 0 0)
(-2.056316 -0.26894235 0 -0.0028452953 0 0)
(-2.0155018 -0.25995763 0 -0.00056793596 0 0)
(-1.9265926 -0.25300251 0 -0.00030091275 0 0)
(-1.9530252 -0.25525018 0 -1.7786473e-05 0 0)
(-1.916766 -0.25244513 0 -8.9133925e-05 0 0)
(-1.9446799 -0.25489731 0 -7.4339115e-06 0 0)
(-1.9159182 -0.2522993 0 2.8633583e-07 0 0)
(-1.9424787 -0.25481135 0 -1.0104673e-05 0 0)
(-1.9157229 -0.25230935 0 9.0817223e-06 0 0)
(-1.9416648 -0.2547666 0 -1.1610738e-05 0 0)
(-1.9159934 -0.25235081 0 9.5236966e-06 0 0)
(-1.9410078 -0.25471016 0 -1.1240352e-05 0 0)
(-1.916519 -0.25240603 0 9.7155346e-06 0 0)
(-1.9403034 -0.25464347 0 -1.0451789e-05 0 0)
(-1.9171885 -0.25247243 0 9.5750385e-06 0 0)
(-1.9395319 -0.25456997 0 -9.7031424e-06 0 0)
(-1.9179463 -0.25254663 0 9.143924e-06 0 0)
(-1.9387089 -0.25449192 0 -8.9889132e-06 0 0)
(-1.9187564 -0.25262549 0 8.5427124e-06 0 0)
(-1.9378547 -0.25441121 0 -8.2647169e-06 0 0)
(-1.9195925 -0.25270639 0 7.8754541e-06 0 0)
(-1.936991 -0.25432986 0 -7.5457618e-06 0 0)
(-1.9204334 -0.25278747 0 7.1573777e-06 0 0)
(-1.9361327 -0.25424915 0 -6.8199271e-06 0 0)
(-1.9212629 -0.25286704 0 6.4705275e-06 0 0)
(-1.9352961 -0.25417062 0 -6.121069e-06 0 0)
(-1.9220691 -0.25294417 0 5.7810258e-06 0 0)
(-1.9344898 -0.25409505 0 -5.4621783e-06 0 0)
(-1.9228424 -0.25301789 0 5.141072e-06 0 0)
(-1.9337212 -0.25402305 0 -4.8398667e-06 0 0)
(-1.923578 -0.25308783 0 4.5508006e-06 0 0)
(-1.9329946 -0.25395503 0 -4.2759597e-06 0 0)
(-1.9242726 -0.25315369 0 4.0219497e-06 0 0)
(-1.9323117 -0.25389113 0 -3.7764302e-06 0 0)
(-1.9249257 -0.25321548 0 3.5572818e-06 0 0)
(-1.9316716 -0.25383123 0 -3.3397864e-06 0 0)
(-1.9255392 -0.25327344 0 3.1547757e-06 0 0)
(-1.9310716 -0.25377514 0 -2.9908723e-06 0 0)
(-1.9261151 -0.25332778 0 2.8250854e-06 0 0)
(-1.9305072 -0.25372228 0 -2.6962251e-06 0 0)