/*--------------------------------*- C++ -*----------------------------------*\
| =========                 |                                                 |
| \\      /  F ield         | OpenFOAM: The Open Source CFD Toolbox           |
|  \\    /   O peration     | Version:  2312                                  |
|   \\  /    A nd           | Website:  www.openfoam.com                      |
|    \\/     M anipulation  |                                                 |
\*---------------------------------------------------------------------------*/
FoamFile
{
    version     2.0;
    format      ascii;
    arch        "LSB;label=32;scalar=64";
    class       volScalarField;
    location    "1";
    object      T;
}
// * * * * * * * * * * * * * * * * * * * * * * * * * * * * * * * * * * * * * //

dimensions      [0 0 0 1 0 0 0];

internalField   nonuniform List<scalar> 
4000
(
332.13818
330.77946
330.51935
330.43722
330.35852
330.2939
330.24025
330.1866
330.1416
330.09232
330.05163
330.00546
329.96738
329.92387
329.88788
329.84668
329.81234
329.773
329.7398
329.70182
329.6693
329.63222
329.59999
329.56348
329.53127
329.4951
329.46277
329.42683
329.39431
329.35853
329.32582
329.29017
329.25729
329.22174
329.18873
329.15326
329.12015
329.08474
329.05157
329.0162
328.983
328.94764
328.91444
328.87906
328.8459
328.81045
328.77739
328.74178
328.70905
328.67246
334.43111
332.2297
331.53062
331.35407
331.18882
331.06549
330.975
330.88458
330.81998
330.74265
330.69093
330.62286
330.57893
330.51882
330.48111
330.42791
330.39514
330.3475
330.31821
330.27466
330.24741
330.20661
330.18025
330.14117
330.11491
330.07689
330.05028
330.01293
329.98578
329.9489
329.92119
329.88469
329.85647
329.82028
329.79167
329.75572
329.72681
329.69105
329.66196
329.6263
329.59712
329.56148
329.53231
329.4966
329.46755
329.43165
329.4029
329.36651
329.33874
329.2996
335.84642
333.62414
332.53337
332.26498
332.01533
331.83412
331.70718
331.58049
331.49628
331.39123
331.32833
331.23852
331.18842
331.11168
331.07182
331.00648
330.97481
330.91875
330.89291
330.84371
330.82138
330.77684
330.75607
330.71448
330.69395
330.65416
330.63311
330.59446
330.57255
330.53468
330.51186
330.4746
330.45096
330.4142
330.3899
330.35354
330.32876
330.29269
330.2676
330.2317
330.20648
330.1706
330.1454
330.10941
330.0844
330.0481
330.02357
329.98647
329.96354
329.92231
336.78442
334.9163
333.51306
333.16143
332.8324
332.59569
332.43344
332.27164
332.16806
332.03599
331.96182
331.85065
331.79398
331.70071
331.65807
331.58052
331.54923
331.4846
331.46154
331.4066
331.38859
331.34031
331.32468
331.28065
331.26552
331.2241
331.20834
331.16855
331.15167
331.11298
331.09486
331.05701
331.03777
331.00059
330.98045
330.9438
330.92301
330.88674
330.86553
330.82947
330.80808
330.77205
330.75069
330.71451
330.69341
330.65679
330.63636
330.59865
330.58034
330.53766
337.43383
336.06292
334.45087
334.03188
333.63229
333.34452
333.14929
332.95433
332.83207
332.6742
332.58884
332.45703
332.39342
332.28393
332.23779
332.14805
332.11626
332.04297
332.0218
331.96105
331.9466
331.89459
331.88349
331.83713
331.82692
331.78406
331.77323
331.73253
331.72038
331.68109
331.66743
331.62919
331.61414
331.57672
331.56054
331.52375
331.50676
331.47042
331.45292
331.41682
331.3991
331.36303
331.34535
331.30908
331.29173
331.25493
331.23838
331.20025
331.18621
331.14282
337.89918
337.03984
335.3273
334.86277
334.40569
334.07371
333.84919
333.62405
333.48435
333.3025
333.20633
333.05502
332.98424
332.85908
332.80878
332.70701
332.67379
332.59181
332.57155
332.50493
332.49314
332.43744
332.43011
332.38157
332.37569
332.3316
332.32525
332.28389
332.27611
332.2365
332.22699
332.18861
332.17747
332.14003
332.12757
332.09084
332.07742
332.04118
332.02717
331.99119
331.97693
331.94096
331.92674
331.89054
331.87669
331.83988
331.82696
331.78865
331.77843
331.73508
338.23946
337.8334
336.12458
335.63998
335.14249
334.77556
334.5269
334.27559
334.12041
333.91703
333.8108
333.64158
333.56364
333.42374
333.36871
333.2553
333.21974
333.12917
333.10877
333.0363
333.02618
332.96682
332.96242
332.91183
332.90961
332.86451
332.86211
332.82037
332.81654
332.77689
332.77118
332.73293
332.72541
332.68819
332.67918
332.64271
332.63261
332.59665
332.5859
332.55019
332.53915
332.50345
332.49245
332.45648
332.44588
332.40925
332.39963
332.36144
332.35453
332.31191
338.49328
338.44749
336.82981
336.3504
335.83272
335.44206
335.17579
334.90335
334.73536
334.51358
334.39847
334.21342
334.12862
333.97526
333.91514
333.79075
333.75203
333.65313
333.63157
333.55332
333.54384
333.48089
333.47853
333.42601
333.42671
333.38083
333.38179
333.33994
333.33959
333.30019
333.29791
333.26008
333.25585
333.21911
333.21323
333.17726
333.1702
333.13473
333.12694
333.09171
333.08361
333.04836
333.0403
333.00476
332.9971
332.96089
332.95421
332.91647
332.9123
332.87102
338.68624
338.89673
337.43567
336.98364
336.4675
336.06553
335.78926
335.50163
335.32418
335.08775
334.96534
334.76705
334.67602
334.51087
334.44556
334.31115
334.26864
334.16186
334.1382
334.05435
334.04449
333.97805
333.97677
333.92247
333.92529
333.87882
333.88252
333.84082
333.84346
333.80461
333.80534
333.76822
333.76691
333.73091
333.72787
333.69262
333.68831
333.65353
333.64843
333.61387
333.60842
333.57381
333.56839
333.53349
333.52845
333.49289
333.48876
333.45182
333.44982
333.41038
338.83619
339.20511
337.94147
337.53329
337.03994
336.63928
336.36119
336.06494
335.88197
335.63515
335.50745
335.2989
335.20263
335.02773
334.95744
334.81426
334.76755
334.65354
334.62701
334.53785
334.52667
334.45688
334.45575
334.39978
334.40393
334.35705
334.36282
334.32151
334.32662
334.28858
334.2919
334.25575
334.25703
334.22203
334.2215
334.1872
334.18534
334.15146
334.14875
334.11504
334.11195
334.07819
334.07508
334.04104
334.03826
334.00362
334.00163
333.96584
333.96548
333.92823
338.95606
339.40086
338.35172
337.99776
337.54563
337.15807
336.88639
336.58841
336.40422
336.15163
336.02097
335.8055
335.70528
335.52302
335.44825
335.29785
335.24682
335.12647
335.09647
335.00243
334.9891
334.91615
334.91431
334.85679
334.86146
334.81431
334.8215
334.78077
334.78782
334.75082
334.75631
334.72138
334.72489
334.69112
334.69278
334.65966
334.65994
334.62717
334.62655
334.5939
334.59286
334.56014
334.55902
334.52605
334.52518
334.49171
334.49144
334.45712
334.45794
334.42312
339.05458
339.51303
338.67576
338.38001
337.98283
337.61856
337.36097
337.06806
336.88708
336.63352
336.50246
336.28362
336.18103
335.99401
335.91558
335.75977
335.70457
335.57898
335.54515
335.44682
335.43068
335.35483
335.35148
335.29255
335.29698
335.24968
335.25763
335.21764
335.2261
335.19032
335.19757
335.16407
335.16946
335.13713
335.14068
335.10894
335.11107
335.07959
335.08078
335.04937
335.05007
335.01858
335.01914
334.98744
334.98813
334.95607
334.95713
334.92456
334.92614
334.89389
339.13824
339.56868
338.92551
338.68671
338.35253
338.0195
337.78264
337.50108
337.3276
337.07781
336.94898
336.73041
336.6272
336.43823
336.3572
336.19799
336.13905
336.00953
335.97178
335.86989
335.85044
335.77205
335.76652
335.70633
335.70983
335.66246
335.67056
335.6314
335.64076
335.60636
335.61495
335.58306
335.58998
335.55928
335.56442
335.53424
335.53793
335.50793
335.51064
335.48065
335.48279
335.45271
335.45463
335.4244
335.42631
335.39587
335.39791
335.3673
335.36933
335.33968
339.21097
339.59014
339.11427
338.92706
338.65821
338.36183
338.1508
337.88602
337.72389
337.48236
337.35833
337.14358
337.0416
336.8535
336.77115
336.61068
336.5487
336.41672
336.37519
336.27062
336.24761
336.16711
336.15889
336.09762
336.09957
336.05222
336.05987
336.02161
336.03138
335.99846
336.00799
335.97784
335.98597
335.95705
335.9635
335.93504
335.94003
335.91166
335.9156
335.88719
335.8905
335.86199
335.86497
335.83637
335.8392
335.81055
335.81324
335.78475
335.787
335.75992
339.2758
339.59465
339.2549
339.1116
338.90553
338.64846
338.4666
338.22284
338.07527
337.84595
337.72908
337.52149
337.42257
337.23812
337.15581
336.99629
336.93216
336.7993
336.75439
336.64814
336.62153
336.53946
336.5282
336.46606
336.46598
336.4187
336.4254
336.38808
336.3978
336.3664
336.3765
336.34816
336.3572
336.33018
336.33766
336.31104
336.31708
336.29047
336.29542
336.2687
336.27293
336.24612
336.2499
336.22307
336.22653
336.19981
336.20289
336.17662
336.17889
336.15431
339.33425
339.59354
339.35915
339.25111
339.10161
338.88398
338.73271
338.51291
338.38224
338.16841
338.06072
337.86324
337.76909
337.59087
337.51002
337.35361
337.28836
337.15629
337.1086
337.00178
336.97172
336.8887
336.87423
336.8115
336.80901
336.76188
336.76718
336.7308
336.74005
336.71019
336.7205
336.69403
336.70369
336.67863
336.68691
336.66223
336.66909
336.64434
336.65006
336.62516
336.63006
336.60506
336.60939
336.58443
336.58829
336.56359
336.56684
336.54281
336.54501
336.5228
339.3876
339.59374
339.4369
339.35576
339.25437
339.07413
338.95313
338.75881
338.64645
338.45056
338.35359
338.16869
338.08081
337.91112
337.8331
337.68182
337.61659
337.48693
337.43723
337.33099
337.29787
337.2146
337.19692
337.13393
337.12879
337.0819
337.08546
337.04999
337.05842
337.03006
337.04027
337.01567
337.02567
337.00262
337.01146
336.98878
336.99625
336.97345
336.97972
336.95672
336.96209
336.93898
336.94365
336.92064
336.92469
336.90205
336.90531
336.8835
336.88555
336.86557
339.43638
339.59827
339.49609
339.43447
339.37177
339.22533
339.13273
338.96415
338.87052
338.69415
338.60892
338.43849
338.35809
338.19885
338.1249
337.98058
337.91649
337.7908
337.73997
337.6355
337.59983
337.51706
337.49635
337.43347
337.42559
337.37907
337.38063
337.34606
337.35336
337.32644
337.33626
337.31348
337.32358
337.30255
337.31173
337.29109
337.29898
337.27817
337.28483
337.26377
337.26943
337.24825
337.2531
337.23206
337.23614
337.21557
337.21872
337.19907
337.20093
337.18304
339.48117
339.60796
339.54268
339.49462
339.46136
339.34416
339.27695
339.13321
339.05785
338.90169
338.82869
338.674
338.60192
338.45464
338.3858
338.24998
338.18811
338.06782
338.01677
337.91522
337.87766
337.79617
337.77277
337.71042
337.69984
337.65381
337.65322
337.61954
337.62547
337.59992
337.6091
337.58808
337.59807
337.579
337.58835
337.56974
337.57788
337.55908
337.56596
337.54687
337.55267
337.53345
337.53832
337.51927
337.52326
337.50471
337.50768
337.49009
337.49175
337.4758
339.52224
339.62208
339.58091
339.54189
339.52976
339.43691
339.39136
339.2707
339.21239
339.07632
339.01548
338.87717
338.81392
338.67961
338.61669
338.49059
338.43189
338.31823
338.2679
338.17033
338.13161
338.05218
338.02653
337.96517
337.95206
337.90671
337.90392
337.87111
337.8755
337.85124
337.85957
337.84022
337.84989
337.83273
337.84207
337.82546
337.83371
337.81691
337.82389
337.80676
337.81257
337.7953
337.80009
337.78298
337.78679
337.77021
337.77294
337.75729
337.75877
337.74459
339.55993
339.63943
339.61363
339.5805
339.58256
339.50925
339.48133
339.38141
339.33833
339.22155
339.17234
339.05048
338.99617
338.8754
338.81894
338.70342
338.64869
338.54266
338.49391
338.40127
338.36214
338.28553
338.25816
338.19827
338.18289
338.13843
338.13349
338.10156
338.10431
338.08125
338.08857
338.07078
338.07997
338.06462
338.07381
338.05914
338.06737
338.05252
338.05949
338.04429
338.05003
338.03466
338.03929
338.02406
338.02765
338.01293
338.01542
338.00157
338.00287
337.99032
339.59449
339.65865
339.64259
339.61332
339.62415
339.56609
339.55182
339.46994
339.43995
339.3411
339.3026
339.19674
339.15117
339.04404
338.99431
338.88988
338.8397
338.74204
338.69562
338.60871
338.56993
338.49682
338.46833
338.41038
338.3931
338.34974
338.34279
338.31178
338.31286
338.29091
338.29711
338.28075
338.28932
338.27567
338.28459
338.27176
338.27987
338.26691
338.27378
338.26046
338.26604
338.25251
338.25693
338.24351
338.24683
338.23387
338.23611
338.22393
338.22506
338.214
339.62619
339.67867
339.66886
339.64226
339.65788
339.6114
339.60714
339.54054
339.52131
339.43868
339.40969
339.31895
339.28162
339.18785
339.14486
339.05167
339.00645
338.91761
338.87416
338.79359
338.75585
338.68684
338.65783
338.60227
338.5835
338.54152
338.53274
338.50271
338.50216
338.48125
338.48625
338.4712
338.47904
338.46697
338.4755
338.46441
338.47231
338.46116
338.46785
338.45633
338.46171
338.44994
338.45411
338.44239
338.44545
338.43412
338.43612
338.42546
338.42645
338.41674
339.65529
339.69865
339.69299
339.66846
339.6861
339.64832
339.6509
339.59694
339.58619
339.51784
339.497
339.42019
339.39038
339.30935
339.27288
339.19077
339.15068
339.07088
339.03086
338.95706
338.92096
338.85654
338.8276
338.77485
338.75504
338.71467
338.70434
338.67537
338.67326
338.65334
338.65712
338.64326
338.65029
338.63966
338.64771
338.63824
338.64586
338.6364
338.64288
338.63304
338.6382
338.62808
338.63199
338.62186
338.62466
338.61483
338.61661
338.60733
338.6082
338.59971
339.68202
339.71808
339.7153
339.69258
339.71047
339.67916
339.68604
339.64232
339.63791
339.58185
339.56774
339.50345
339.48029
339.41112
339.38077
339.3093
339.27435
339.20352
339.16724
339.10044
339.06648
339.00701
338.97869
338.92909
338.90872
338.8702
338.85862
338.8308
338.82727
338.80831
338.81088
338.79809
338.80426
338.79493
338.80244
338.79445
338.80172
338.79384
338.80006
338.7918
338.79672
338.78813
338.79179
338.78312
338.78567
338.77722
338.7788
338.77077
338.77153
338.76415
339.70662
339.73665
339.73594
339.71497
339.73202
339.7056
339.7148
339.67926
339.6793
339.63361
339.62483
339.57157
339.55411
339.49573
339.47094
339.40948
339.37948
339.31737
339.28498
339.22521
339.19377
339.13948
339.11224
339.06609
339.04558
339.00915
338.99664
338.97007
338.96531
338.94727
338.94868
338.93687
338.94216
338.93398
338.9409
338.93425
338.94114
338.93469
338.94063
338.93383
338.93849
338.93132
338.93473
338.9274
338.92973
338.92251
338.92393
338.91702
338.91769
338.9113
339.72929
339.75422
339.75503
339.73581
339.75144
339.72878
339.73887
339.70978
339.71273
339.67562
339.67088
339.62712
339.61439
339.56563
339.54578
339.49351
339.46816
339.41431
339.38582
339.33294
339.30428
339.25526
339.2295
339.18699
339.16677
339.13261
339.1195
339.09428
339.08848
339.07138
339.07171
339.06077
339.06518
339.05803
339.06433
339.05887
339.06534
339.06019
339.06583
339.06035
339.06477
339.05888
339.06207
339.05594
339.05807
339.05196
339.05323
339.04733
339.04792
339.04242
339.7502
339.77075
339.77264
339.75518
339.76913
339.74946
339.75946
339.73544
339.74005
339.70993
339.7081
339.67239
339.66345
339.62311
339.60751
339.56353
339.54243
339.49625
339.47154
339.42528
339.39951
339.35573
339.33176
339.293
339.27342
339.24168
339.22829
339.20452
339.19791
339.18173
339.18109
339.17096
339.17451
339.16826
339.17393
339.16952
339.17556
339.17156
339.17689
339.1726
339.17677
339.17203
339.17501
339.16997
339.17193
339.16681
339.16795
339.16294
339.16347
339.15876
339.76952
339.78624
339.78886
339.77313
339.78532
339.76811
339.77743
339.75739
339.76273
339.73824
339.73836
339.70935
339.70335
339.67024
339.6582
339.62155
339.60423
339.56504
339.5439
339.50385
339.48101
339.44233
339.42033
339.38536
339.36671
339.3375
339.32412
339.30189
339.29468
339.27945
339.27797
339.26857
339.27132
339.26584
339.27088
339.26738
339.27298
339.26999
339.27501
339.27177
339.27571
339.27199
339.27478
339.2707
339.27251
339.26826
339.26931
339.26509
339.26556
339.26155
339.78737
339.80073
339.80377
339.78969
339.80017
339.78504
339.79334
339.77645
339.78187
339.76185
339.76317
339.73966
339.73584
339.70884
339.69971
339.66943
339.65539
339.62246
339.60458
339.57028
339.55029
339.51645
339.49655
339.46531
339.44783
339.42119
339.40809
339.38746
339.37986
339.3656
339.36341
339.3547
339.3567
339.3519
339.35633
339.3536
339.35876
339.35664
339.36135
339.35902
339.36274
339.35992
339.36255
339.3593
339.36099
339.35751
339.35847
339.35494
339.35537
339.35198
339.80388
339.81425
339.81746
339.80492
339.81378
339.80045
339.80757
339.79319
339.79826
339.7818
339.78372
339.76466
339.7624
339.74048
339.73365
339.70882
339.69758
339.67015
339.6552
339.62609
339.6088
339.5795
339.56173
339.5341
339.51794
339.49388
339.48127
339.46228
339.4545
339.44122
339.43845
339.4304
339.43173
339.42751
339.43136
339.42928
339.434
339.43262
339.43703
339.43548
339.43899
339.43695
339.43943
339.43692
339.43849
339.43569
339.43658
339.43366
339.43405
339.43121
339.81913
339.82683
339.82999
339.81885
339.82619
339.81444
339.82036
339.80802
339.81248
339.79884
339.80094
339.78545
339.78422
339.76648
339.76142
339.74119
339.73226
339.7096
339.69722
339.67274
339.65794
339.63281
339.61712
339.59291
339.57818
339.55664
339.5447
339.52737
339.51958
339.50729
339.5041
339.49666
339.49741
339.49369
339.49699
339.49545
339.49975
339.49898
339.5031
339.50222
339.50553
339.50415
339.50649
339.50461
339.50609
339.50387
339.5047
339.50231
339.50267
339.50031
339.8332
339.83849
339.84142
339.83151
339.83746
339.82709
339.83186
339.82121
339.82493
339.81353
339.81552
339.80288
339.80228
339.78793
339.7842
339.76778
339.76073
339.74213
339.73197
339.71154
339.699
339.67762
339.66393
339.64291
339.62965
339.61054
339.59939
339.58369
339.57607
339.56476
339.56127
339.55442
339.55467
339.5514
339.55419
339.55309
339.55698
339.55672
339.56056
339.56022
339.56334
339.56252
339.56474
339.5634
339.5648
339.56308
339.56386
339.56193
339.56227
339.56031
339.84613
339.84922
339.85178
339.84292
339.84763
339.83846
339.84219
339.83293
339.8359
339.82628
339.82799
339.8176
339.81734
339.80571
339.80294
339.78965
339.78409
339.76891
339.76061
339.7437
339.73314
339.71512
339.70327
339.68518
339.67337
339.65656
339.64629
339.63219
339.62485
339.61452
339.61086
339.60458
339.60441
339.60151
339.60385
339.60311
339.60662
339.60676
339.61032
339.61043
339.61337
339.61302
339.61512
339.61423
339.61556
339.61426
339.615
339.61347
339.61379
339.61219
339.85795
339.859
339.86107
339.85312
339.85671
339.84859
339.8514
339.84333
339.84557
339.83738
339.83873
339.83013
339.82999
339.82054
339.81843
339.80768
339.80329
339.79095
339.78419
339.77026
339.76144
339.74634
339.73618
339.72073
339.7103
339.69564
339.68629
339.67373
339.66676
339.6574
339.65366
339.64793
339.64743
339.64487
339.6468
339.64634
339.6495
339.64995
339.65325
339.65372
339.65648
339.65651
339.6585
339.65799
339.65926
339.65831
339.65902
339.65781
339.65812
339.65683
339.8686
339.86777
339.8693
339.86211
339.86472
339.85753
339.85954
339.85248
339.85407
339.84706
339.84801
339.84083
339.84069
339.83295
339.8313
339.82259
339.81908
339.80907
339.80357
339.79214
339.7848
339.77223
339.76357
339.75046
339.74135
339.72866
339.72023
339.70911
339.70259
339.69416
339.69045
339.68523
339.68448
339.68222
339.6838
339.68356
339.68639
339.68708
339.69013
339.69087
339.69347
339.69379
339.69568
339.69548
339.69668
339.69604
339.69671
339.69579
339.69608
339.69505
339.87796
339.87545
339.87643
339.86991
339.87169
339.86531
339.86666
339.86048
339.86151
339.85547
339.85603
339.84999
339.84977
339.8434
339.84203
339.83494
339.83211
339.82398
339.81948
339.81014
339.80404
339.79361
339.78628
339.77522
339.76731
339.75639
339.74886
339.73909
339.73306
339.72551
339.7219
339.71718
339.71625
339.71425
339.71553
339.71547
339.71799
339.71886
339.72166
339.72261
339.72504
339.7256
339.72739
339.72743
339.72858
339.72818
339.72882
339.72814
339.72841
339.72761
339.88582
339.88196
339.88244
339.87653
339.87763
339.87199
339.87281
339.86739
339.86796
339.86273
339.86296
339.85784
339.8575
339.8522
339.851
339.84521
339.84287
339.83625
339.83255
339.82491
339.81984
339.81122
339.80501
339.79573
339.7889
339.77955
339.77287
339.76434
339.75883
339.75211
339.74864
339.7444
339.74336
339.74159
339.74261
339.74268
339.74493
339.74592
339.7485
339.74959
339.75186
339.7526
339.75429
339.75452
339.75561
339.75541
339.75602
339.75554
339.7558
339.75518
339.89194
339.88723
339.88732
339.882
339.88259
339.87761
339.87803
339.87328
339.87349
339.86896
339.86891
339.86452
339.86406
339.85963
339.85853
339.85375
339.85177
339.84635
339.84328
339.83702
339.83278
339.82565
339.82041
339.81263
339.80674
339.79877
339.79289
339.78547
339.78047
339.77452
339.77125
339.76746
339.76635
339.7648
339.76561
339.76578
339.76778
339.76884
339.77121
339.77239
339.77451
339.77538
339.77696
339.77735
339.77838
339.77834
339.77892
339.77859
339.77884
339.77838
339.89622
339.89123
339.89112
339.88639
339.88662
339.88224
339.88237
339.87822
339.87817
339.87423
339.87396
339.87019
339.86963
339.86587
339.86483
339.86085
339.85913
339.85466
339.85206
339.8469
339.84334
339.83743
339.83299
339.82646
339.8214
339.81462
339.80945
339.80303
339.79852
339.79328
339.79023
339.78685
339.78572
339.78437
339.78501
339.78525
339.78704
339.78813
339.7903
339.79154
339.79351
339.79446
339.79595
339.79644
339.79741
339.7975
339.79804
339.79785
339.79808
339.79775
339.89872
339.89405
339.8939
339.88976
339.88979
339.88596
339.8859
339.88228
339.88205
339.87862
339.87821
339.87495
339.8743
339.87109
339.87008
339.86672
339.86519
339.86146
339.85923
339.85494
339.85191
339.84698
339.84319
339.8377
339.83335
339.82757
339.82304
339.81749
339.81345
339.80884
339.80603
339.80304
339.80193
339.80074
339.80126
339.80155
339.80314
339.80425
339.80623
339.80749
339.80932
339.81031
339.8117
339.81227
339.81318
339.81336
339.81388
339.81378
339.814
339.81377
339.89977
339.89583
339.89578
339.89224
339.89217
339.88886
339.88869
339.88555
339.88522
339.88223
339.88172
339.87889
339.87819
339.87541
339.87443
339.87155
339.87016
339.867
339.86504
339.86143
339.85881
339.85465
339.85138
339.84674
339.84297
339.83803
339.83406
339.82925
339.82565
339.82161
339.81905
339.8164
339.81534
339.81431
339.81473
339.81505
339.81648
339.81757
339.81939
339.82064
339.82233
339.82333
339.82463
339.82524
339.8261
339.82634
339.82683
339.82681
339.82702
339.82688
339.89981
339.89679
339.8969
339.89394
339.89387
339.89102
339.89082
339.8881
339.88772
339.88512
339.88457
339.88209
339.88137
339.87893
339.87797
339.87547
339.87418
339.87144
339.86969
339.86658
339.86428
339.86072
339.85787
339.85389
339.8506
339.84635
339.84286
339.83869
339.83548
339.83195
339.82962
339.82729
339.82629
339.82541
339.82575
339.8261
339.82739
339.82845
339.83011
339.83133
339.83289
339.83388
339.83509
339.83572
339.83652
339.83681
339.83726
339.83731
339.8375
339.83742
339.89929
339.89716
339.89744
339.89499
339.89498
339.89255
339.89237
339.89001
339.88964
339.88736
339.88682
339.88462
339.8839
339.88174
339.88081
339.87857
339.87736
339.87493
339.87333
339.87059
339.86852
339.8654
339.86287
339.85941
339.85651
339.85281
339.84973
339.84609
339.84324
339.84014
339.83805
339.83599
339.83508
339.83432
339.83462
339.83499
339.83615
339.83717
339.83869
339.83986
339.84129
339.84226
339.84338
339.84401
339.84475
339.84507
339.84549
339.84558
339.84576
339.84573
339.89853
339.89712
339.89754
339.89553
339.89561
339.89353
339.89341
339.89136
339.89104
339.88903
339.88852
339.88655
339.88586
339.88389
339.88299
339.88095
339.87978
339.87757
339.87606
339.87358
339.87167
339.86888
339.86659
339.86351
339.86091
339.85765
339.85491
339.85171
339.84917
339.84644
339.84457
339.84277
339.84195
339.84131
339.84158
339.84195
339.84301
339.84398
339.84537
339.84647
339.84779
339.84872
339.84975
339.85037
339.85106
339.85138
339.85177
339.85189
339.85206
339.85206
339.89769
339.89683
339.89733
339.89566
339.89584
339.89406
339.89402
339.89223
339.89198
339.89019
339.88973
339.88794
339.88728
339.88546
339.88458
339.88265
339.88151
339.87943
339.87797
339.87565
339.87385
339.87126
339.86914
339.86633
339.86397
339.86104
339.85859
339.85573
339.85348
339.85106
339.84941
339.84782
339.8471
339.84656
339.84682
339.84719
339.84817
339.84908
339.85035
339.85139
339.8526
339.85347
339.85442
339.85501
339.85565
339.85597
339.85633
339.85646
339.85662
339.85665
339.89682
339.89637
339.89689
339.89547
339.89577
339.89422
339.89427
339.89268
339.89252
339.89089
339.89051
339.88883
339.88821
339.88646
339.88559
339.88372
339.88259
339.88055
339.87911
339.87686
339.87511
339.87264
339.87063
339.868
339.86582
339.86313
339.86091
339.85834
339.85633
339.85418
339.85272
339.85133
339.85071
339.85026
339.85052
339.85088
339.85179
339.85264
339.85381
339.85477
339.85588
339.85669
339.85756
339.85812
339.8587
339.85901
339.85935
339.85948
339.85963
339.85968
339.89593
339.8958
339.8963
339.89505
339.89545
339.89407
339.89422
339.89278
339.89271
339.89119
339.89087
339.88925
339.88867
339.88693
339.88606
339.88417
339.88302
339.88095
339.8795
339.87724
339.87551
339.87307
339.87113
339.8686
339.86655
339.86403
339.862
339.85965
339.85785
339.85592
339.85465
339.85342
339.85292
339.85253
339.85282
339.85317
339.85401
339.8548
339.85587
339.85676
339.85777
339.85852
339.85931
339.85983
339.86036
339.86066
339.86096
339.8611
339.86123
339.86129
339.89499
339.89515
339.8956
339.89444
339.89493
339.89366
339.89392
339.89257
339.8926
339.89112
339.89086
339.88923
339.88866
339.88687
339.88598
339.884
339.88281
339.88064
339.87915
339.87681
339.87506
339.87259
339.87068
339.86818
339.86622
339.86381
339.86194
339.85975
339.85815
339.8564
339.85531
339.85422
339.85383
339.8535
339.85381
339.85414
339.85494
339.85566
339.85666
339.85746
339.85839
339.85907
339.85979
339.86026
339.86075
339.86102
339.8613
339.86143
339.86155
339.86161
339.894
339.89442
339.89481
339.89368
339.89427
339.89305
339.89341
339.89209
339.8922
339.8907
339.89048
339.88877
339.8882
339.88627
339.88534
339.8832
339.88193
339.8796
339.87803
339.87555
339.87375
339.87119
339.86928
339.86676
339.86487
339.86252
339.86079
339.85873
339.8573
339.8557
339.85477
339.8538
339.85352
339.85325
339.85358
339.85389
339.85466
339.85531
339.85623
339.85695
339.85781
339.85841
339.85907
339.85949
339.85993
339.86018
339.86043
339.86056
339.86067
339.86073
339.89294
339.89362
339.89393
339.8928
339.89348
339.89226
339.89272
339.89136
339.89153
339.88994
339.88973
339.88787
339.88725
339.88512
339.8841
339.88174
339.88036
339.8778
339.87612
339.87344
339.87157
339.86886
339.86693
339.86435
339.86252
339.86019
339.85858
339.85661
339.85535
339.85387
339.8531
339.85223
339.85205
339.85182
339.8522
339.85248
339.85322
339.8538
339.85466
339.8553
339.85608
339.85661
339.85722
339.85759
339.85799
339.85821
339.85844
339.85855
339.85865
339.85871
339.89181
339.89275
339.89298
339.89181
339.89258
339.89131
339.89185
339.8904
339.89059
339.88882
339.88859
339.88648
339.88577
339.88336
339.88221
339.87955
339.87803
339.87518
339.87337
339.87044
339.86847
339.86559
339.86363
339.86095
339.85916
339.85682
339.85533
339.85342
339.85233
339.85094
339.85033
339.84954
339.84948
339.84927
339.84969
339.84994
339.85067
339.85117
339.85198
339.85253
339.85326
339.85371
339.85427
339.85458
339.85495
339.85514
339.85535
339.85544
339.85554
339.8556
339.89058
339.89182
339.89195
339.89072
339.89157
339.89022
339.8908
339.88918
339.88936
339.88732
339.887
339.88455
339.88371
339.88093
339.87961
339.87657
339.87487
339.87168
339.86971
339.86648
339.86441
339.86132
339.85932
339.85653
339.85479
339.85243
339.85105
339.84919
339.84825
339.84695
339.84649
339.84577
339.84581
339.84562
339.84608
339.8463
339.84701
339.84744
339.84821
339.84867
339.84935
339.84973
339.85025
339.8505
339.85085
339.85099
339.85119
339.85127
339.85136
339.85141
339.88926
339.89081
339.89084
339.88952
339.89046
339.88897
339.88956
339.88768
339.88777
339.88536
339.88489
339.88201
339.88097
339.87773
339.8762
339.87272
339.8708
339.86721
339.86507
339.86152
339.85934
339.85601
339.85399
339.85107
339.84938
339.84698
339.84572
339.8439
339.84312
339.84188
339.84158
339.8409
339.84105
339.84087
339.84138
339.84155
339.84226
339.84262
339.84335
339.84373
339.84437
339.84467
339.84515
339.84535
339.84567
339.84578
339.84597
339.84603
339.84611
339.84616
339.88784
339.88974
339.88963
339.88823
339.88924
339.88754
339.88808
339.88585
339.88577
339.88287
339.88217
339.87876
339.87745
339.87368
339.87187
339.86789
339.86574
339.8617
339.85937
339.85547
339.85318
339.84962
339.84758
339.84452
339.8429
339.84047
339.83934
339.83755
339.83692
339.83574
339.83559
339.83495
339.83521
339.83502
339.83558
339.83571
339.83641
339.83669
339.8374
339.83769
339.8383
339.83853
339.83898
339.83912
339.83943
339.8395
339.83968
339.83972
339.8398
339.83983
339.88629
339.8886
339.88833
339.88684
339.88787
339.8859
339.88629
339.88358
339.88323
339.87973
339.87872
339.87466
339.87303
339.86864
339.86652
339.86198
339.85956
339.85505
339.85253
339.84827
339.84588
339.84208
339.84004
339.83686
339.83533
339.83286
339.83188
339.83011
339.82965
339.82851
339.82851
339.8279
339.82826
339.82806
339.82866
339.82874
339.82945
339.82965
339.83034
339.83055
339.83112
339.83128
339.83171
339.8318
339.83209
339.83213
339.8323
339.83232
339.8324
339.83243
339.88461
339.8874
339.88692
339.88533
339.88633
339.88397
339.88409
339.88077
339.88004
339.8758
339.87438
339.86958
339.86756
339.86247
339.86002
339.85486
339.85217
339.84716
339.84447
339.83984
339.83738
339.83334
339.83134
339.82805
339.82662
339.82413
339.82331
339.82157
339.82127
339.82017
339.82031
339.81972
339.82018
339.81995
339.82061
339.82062
339.82135
339.82146
339.82214
339.82226
339.82282
339.82291
339.82333
339.82336
339.82365
339.82365
339.82382
339.82382
339.82389
339.82392
339.88278
339.88616
339.8854
339.88368
339.88454
339.88166
339.88134
339.87726
339.876
339.8709
339.86898
339.86334
339.86088
339.85504
339.85221
339.84642
339.84346
339.83795
339.83509
339.83011
339.82761
339.82337
339.82142
339.81804
339.81675
339.81425
339.81359
339.81188
339.81176
339.81068
339.81097
339.81038
339.81094
339.81068
339.81139
339.81134
339.81207
339.8121
339.81278
339.81282
339.81337
339.81338
339.81379
339.81378
339.81406
339.81402
339.81419
339.81417
339.81425
339.81426
339.88079
339.88492
339.88374
339.88186
339.88241
339.87882
339.87787
339.87286
339.87092
339.86483
339.86233
339.85578
339.85283
339.8462
339.84299
339.83655
339.83332
339.82732
339.82434
339.81903
339.81653
339.8121
339.81026
339.80681
339.80568
339.80318
339.80271
339.80102
339.80108
339.80002
339.80045
339.79985
339.8005
339.80021
339.80096
339.80084
339.80159
339.80154
339.80221
339.80217
339.80272
339.80266