/*--------------------------------*- C++ -*----------------------------------*\
| =========                 |                                                 |
| \\      /  F ield         | OpenFOAM: The Open Source CFD Toolbox           |
|  \\    /   O peration     | Version:  2312                                  |
|   \\  /    A nd           | Website:  www.openfoam.com                      |
|    \\/     M anipulation  |                                                 |
\*---------------------------------------------------------------------------*/
FoamFile
{
    version     2.0;
    format      ascii;
    arch        "LSB;label=32;scalar=64";
    class       volVectorField;
    location    "1";
    object      U;
}
// * * * * * * * * * * * * * * * * * * * * * * * * * * * * * * * * * * * * * //

dimensions      [0 1 -1 0 0 0 0];

internalField   nonuniform List<vector> 
4000
(
(0.0022684172 0.0004624036 0)
(0.0063133969 -2.0319884e-05 0)
(0.0031181446 -9.0129989e-07 0)
(0.0038474066 -5.5715667e-07 0)
(0.0035910088 4.9817226e-08 0)
(0.0036183444 -1.1262398e-07 0)
(0.0035459895 -3.7637299e-08 0)
(0.0035669732 -4.0402003e-09 0)
(0.0035395326 -3.1784518e-08 0)
(0.0035496055 2.2887873e-08 0)
(0.0035398203 -3.6007088e-08 0)
(0.0035478354 4.3880026e-08 0)
(0.0035385704 -5.3644028e-08 0)
(0.0035484533 6.1257486e-08 0)
(0.003537292 -6.8996874e-08 0)
(0.0035492838 7.5150914e-08 0)
(0.0035363148 -8.0927925e-08 0)
(0.0035499892 8.5572105e-08 0)
(0.0035356308 -8.9630501e-08 0)
(0.0035504963 9.2831222e-08 0)
(0.0035352001 -9.5422115e-08 0)
(0.0035507949 9.7325674e-08 0)
(0.0035349904 -9.8676168e-08 0)
(0.0035508972 9.9467103e-08 0)
(0.0035349746 -9.9781875e-08 0)
(0.0035508226 9.9650662e-08 0)
(0.0035351254 -9.9139958e-08 0)
(0.0035505946 9.828677e-08 0)
(0.0035354203 -9.7135919e-08 0)
(0.0035502362 9.5734454e-08 0)
(0.0035358341 -9.412566e-08 0)
(0.0035497686 9.2351075e-08 0)
(0.0035363467 -9.0448298e-08 0)
(0.0035492127 8.8455632e-08 0)
(0.0035369391 -8.6400517e-08 0)
(0.0035485858 8.4323308e-08 0)
(0.0035375946 -8.2245154e-08 0)
(0.0035479037 8.020429e-08 0)
(0.0035382988 -7.8217898e-08 0)
(0.0035471794 7.6321564e-08 0)
(0.0035390398 -7.4521919e-08 0)
(0.0035464227 7.2842656e-08 0)
(0.0035398076 -7.1303343e-08 0)
(0.0035456428 6.992747e-08 0)
(0.0035405937 -6.872771e-08 0)
(0.0035448423 6.766071e-08 0)
(0.0035414011 -6.6935086e-08 0)
(0.0035441156 6.6283441e-08 0)
(0.0035425959 -6.4877118e-08 0)
(0.0035444852 7.1846242e-08 0)
(0.0063088187 0.0014467116 0)
(0.016688667 7.4689589e-07 0)
(0.0098309359 3.3735081e-05 0)
(0.010999373 -5.0967597e-06 0)
(0.010421896 2.9277671e-06 0)
(0.010496216 5.1340434e-07 0)
(0.010283992 7.3222502e-07 0)
(0.010357403 7.3149729e-08 0)
(0.01027052 1.8111423e-07 0)
(0.010308092 9.3444449e-08 0)
(0.01027041 -1.1686053e-07 0)
(0.010304025 1.9367015e-07 0)
(0.010266863 -2.1930007e-07 0)
(0.010305805 2.5815717e-07 0)
(0.010263457 -2.7895828e-07 0)
(0.010307904 3.0437528e-07 0)
(0.010260996 -3.2095789e-07 0)
(0.01030956 3.3787864e-07 0)
(0.01025942 -3.4977467e-07 0)
(0.010310614 3.6031463e-07 0)
(0.010258593 -3.6752774e-07 0)
(0.010311056 3.729758e-07 0)
(0.010258408 -3.7596928e-07 0)
(0.010310933 3.7728302e-07 0)
(0.010258776 -3.7674376e-07 0)
(0.010310312 3.7478992e-07 0)
(0.01025961 -3.7139055e-07 0)
(0.010309265 3.668715e-07 0)
(0.010260841 -3.6133722e-07 0)
(0.010307866 3.5500101e-07 0)
(0.010262392 -3.4794428e-07 0)
(0.010306176 3.4039036e-07 0)
(0.010264202 -3.324107e-07 0)
(0.010304256 3.2419463e-07 0)
(0.010266216 -3.1583229e-07 0)
(0.010302158 3.0746322e-07 0)
(0.010268388 -2.9917714e-07 0)
(0.010299924 2.9107954e-07 0)
(0.010270678 -2.8325024e-07 0)
(0.010297589 2.7576789e-07 0)
(0.010273053 -2.6871318e-07 0)
(0.010295179 2.6219949e-07 0)
(0.010275489 -2.5620753e-07 0)
(0.010292717 2.5085446e-07 0)
(0.010277968 -2.4604761e-07 0)
(0.010290202 2.4207717e-07 0)
(0.010280474 -2.3971048e-07 0)
(0.010287782 2.3181962e-07 0)
(0.010283748 -2.4966512e-07 0)
(0.010288117 2.2259544e-07 0)
(0.013453541 0.0030642755 0)
(0.025694359 -1.5955121e-05 0)
(0.016265495 7.2334338e-05 0)
(0.017962401 -9.5626904e-06 0)
(0.017059089 6.8872127e-06 0)
(0.017189147 1.5219954e-06 0)
(0.01683654 1.8634411e-06 0)
(0.016976061 1.5379703e-07 0)
(0.016823873 5.3274303e-07 0)
(0.016896325 1.7549174e-07 0)
(0.016824305 -2.0757411e-07 0)
(0.016890694 3.7582995e-07 0)
(0.016818652 -4.1798131e-07 0)
(0.016893738 4.9560032e-07 0)
(0.016813267 -5.2945921e-07 0)
(0.016897008 5.7804417e-07 0)
(0.016809502 -6.0585023e-07 0)
(0.016899444 6.3702094e-07 0)
(0.016807244 -6.5713483e-07 0)
(0.016900832 6.7585987e-07 0)
(0.016806253 -6.8779106e-07 0)
(0.01690118 6.9692491e-07 0)
(0.016806338 -7.0132156e-07 0)
(0.016900584 7.0279011e-07 0)
(0.016807343 -7.0078562e-07 0)
(0.016899165 6.9626014e-07 0)
(0.016809114 -6.8908366e-07 0)
(0.016897049 6.7994426e-07 0)
(0.016811528 -6.6897103e-07 0)
(0.016894365 6.5650147e-07 0)
(0.016814455 -6.4278539e-07 0)
(0.016891219 6.282055e-07 0)
(0.016817791 -6.1292086e-07 0)
(0.016887714 5.9721345e-07 0)
(0.016821444 -5.8128234e-07 0)
(0.016883935 5.6534921e-07 0)
(0.016825335 -5.4962664e-07 0)
(0.016879953 5.3426295e-07 0)
(0.016829399 -5.19481e-07 0)
(0.016875827 5.0537034e-07 0)
(0.016833586 -4.9208136e-07 0)
(0.016871593 4.7975594e-07 0)
(0.016837857 -4.6842932e-07 0)
(0.016867286 4.5836606e-07 0)
(0.016842187 -4.4921318e-07 0)
(0.016862902 4.4182658e-07 0)
(0.016846544 -4.3701865e-07 0)
(0.016858605 4.2080408e-07 0)
(0.016851937 -4.6449614e-07 0)
(0.01685848 4.0200716e-07 0)
(0.01421673 0.0028523503 0)
(0.033973455 -0.00010221136 0)
(0.022524397 0.00012820339 0)
(0.024742479 -1.4632397e-05 0)
(0.023502276 1.2629404e-05 0)
(0.023695048 3.0453665e-06 0)
(0.023205783 3.4384905e-06 0)
(0.023422922 2.1133131e-07 0)
(0.023199577 1.0759304e-06 0)
(0.023314694 2.5469166e-07 0)
(0.023201131 -2.9322705e-07 0)
(0.023308249 5.7502366e-07 0)
(0.023193571 -6.2949982e-07 0)
(0.023312625 7.5046076e-07 0)
(0.02318639 -7.9270899e-07 0)
(0.023316937 8.6555511e-07 0)
(0.023181534 -9.0151868e-07 0)
(0.023319949 9.4652317e-07 0)
(0.023178833 -9.7288073e-07 0)
(0.023321429 9.9883806e-07 0)
(0.023177939 -1.0139792e-06 0)
(0.023321423 1.0257073e-06 0)
(0.023178566 -1.0302023e-06 0)
(0.023320079 1.0307671e-06 0)
(0.023180484 -1.0262723e-06 0)
(0.023317588 1.0182682e-06 0)
(0.023183463 -1.0064127e-06 0)
(0.023314135 9.917521e-07 0)
(0.023187326 -9.7459493e-07 0)
(0.023309907 9.5533873e-07 0)
(0.023191882 -9.343547e-07 0)
(0.023305058 9.1215391e-07 0)
(0.023196981 -8.8900451e-07 0)
(0.023299738 8.6528569e-07 0)
(0.023202493 -8.4138669e-07 0)
(0.023294066 8.1751223e-07 0)
(0.023208307 -7.9407807e-07 0)
(0.023288141 7.7116668e-07 0)
(0.023214332 -7.4918187e-07 0)
(0.023282042 7.281125e-07 0)
(0.023220503 -7.0836572e-07 0)
(0.023275819 6.9012624e-07 0)
(0.023226764 -6.7335686e-07 0)
(0.023269519 6.5835627e-07 0)
(0.023233092 -6.4466517e-07 0)
(0.023263127 6.3401633e-07 0)
(0.023239432 -6.2650931e-07 0)
(0.023256796 6.0063615e-07 0)
(0.023246978 -6.7999214e-07 0)
(0.023255761 5.7195433e-07 0)
(0.021715623 0.0047343644 0)
(0.041931347 -7.1831543e-05 0)
(0.028472911 0.00018803175 0)
(0.031344006 -2.280644e-05 0)
(0.02975292 2.0084793e-05 0)
(0.030010778 4.9974145e-06 0)
(0.029394399 5.327861e-06 0)
(0.029697663 2.147658e-07 0)
(0.029397545 1.7937831e-06 0)
(0.029563456 3.2414207e-07 0)
(0.02940068 -3.7414688e-07 0)
(0.029556872 7.8372087e-07 0)
(0.029391466 -8.4726127e-07 0)
(0.029562575 1.0134254e-06 0)
(0.029382728 -1.0591733e-06 0)
(0.029567747 1.1560734e-06 0)
(0.029377039 -1.1967782e-06 0)
(0.029571092 1.2544611e-06 0)
(0.029374173 -1.284613e-06 0)
(0.029572391 1.3164152e-06 0)
(0.029373663 -1.332981e-06 0)
(0.029571741 1.3460484e-06 0)
(0.029375127 -1.3493515e-06 0)
(0.029569361 1.3479479e-06 0)
(0.029378246 -1.3399029e-06 0)
(0.029565511 1.3275285e-06 0)
(0.029382717 -1.3101905e-06 0)
(0.029560442 1.2894699e-06 0)
(0.029388298 -1.2655979e-06 0)
(0.02955441 1.2390154e-06 0)
(0.029394736 -1.210355e-06 0)
(0.029547616 1.1802651e-06 0)
(0.029401833 -1.1490923e-06 0)
(0.029540257 1.1172446e-06 0)
(0.029409418 -1.085256e-06 0)
(0.029532487 1.0533498e-06 0)
(0.029417349 -1.0221272e-06 0)
(0.029524434 9.9162625e-07 0)
(0.02942551 -9.6249171e-07 0)
(0.0295162 9.346185e-07 0)
(0.029433818 -9.0852829e-07 0)
(0.029507843 8.8435792e-07 0)
(0.029442209 -8.621548e-07 0)
(0.029499417 8.4241671e-07 0)
(0.029450657 -8.2423318e-07 0)
(0.029490902 8.1041818e-07 0)
(0.029459095 -7.9993906e-07 0)
(0.029482421 7.6405078e-07 0)
(0.029468829 -8.8582647e-07 0)
(0.029480094 7.2484593e-07 0)
(0.023762046 0.0047267681 0)
(0.04886357 -0.00021314922 0)
(0.034291834 0.0002598965 0)
(0.037784575 -3.2013536e-05 0)
(0.035806573 2.9395235e-05 0)
(0.03613598 7.2855424e-06 0)
(0.035405168 7.4201439e-06 0)
(0.035799798 1.5706231e-07 0)
(0.035417833 2.6661568e-06 0)
(0.035642795 3.8181784e-07 0)
(0.035422897 -4.5507072e-07 0)
(0.035636618 1.0007395e-06 0)
(0.035412356 -1.0716623e-06 0)
(0.035643541 1.2837014e-06 0)
(0.035402369 -1.3285287e-06 0)
(0.035649323 1.4489839e-06 0)
(0.035396161 -1.491152e-06 0)
(0.035652707 1.5602832e-06 0)
(0.035393449 -1.5920708e-06 0)
(0.035653514 1.6283552e-06 0)
(0.035393645 -1.6447108e-06 0)
(0.035651907 1.6578465e-06 0)
(0.035396256 -1.6585928e-06 0)
(0.035648181 1.6541706e-06 0)
(0.035400882 -1.6416605e-06 0)
(0.03564268 1.6241744e-06 0)
(0.03540713 -1.6006422e-06 0)
(0.035635721 1.5731446e-06 0)
(0.035414695 -1.5420667e-06 0)
(0.035627629 1.5078564e-06 0)
(0.035423259 -1.4712343e-06 0)
(0.035618657 1.4329966e-06 0)
(0.035432574 -1.3935353e-06 0)
(0.03560905 1.3533788e-06 0)
(0.03544243 -1.3132523e-06 0)
(0.035598997 1.2733192e-06 0)
(0.035452651 -1.2344032e-06 0)
(0.035588655 1.1964108e-06 0)
(0.0354631 -1.160183e-06 0)
(0.035578141 1.1254304e-06 0)
(0.03547368 -1.0930313e-06 0)
(0.035567525 1.0631669e-06 0)
(0.035484314 -1.0356928e-06 0)
(0.035556868 1.0111384e-06 0)
(0.035494984 -9.8846695e-07 0)
(0.035546138 9.7186194e-07 0)
(0.035505604 -9.5809196e-07 0)
(0.035535419 9.1213957e-07 0)
(0.035517556 -1.0810791e-06 0)
(0.035531478 8.5998268e-07 0)
(0.029547616 0.0057584788 0)
(0.055804356 -0.00018540045 0)
(0.039882831 0.000331325 0)
(0.044027692 -4.4082159e-05 0)
(0.041664046 4.0927124e-05 0)
(0.042073123 9.8246369e-06 0)
(0.041238127 9.619169e-06 0)
(0.041728765 4.5744939e-08 0)
(0.041260321 3.6713164e-06 0)
(0.041552839 4.2635967e-07 0)
(0.041267798 -5.3975823e-07 0)
(0.04154746 1.2247727e-06 0)
(0.041256336 -1.3030335e-06 0)
(0.041555404 1.5605111e-06 0)
(0.041245473 -1.6006344e-06 0)
(0.041561486 1.7438635e-06 0)
(0.041239111 -1.7846298e-06 0)
(0.041564568 1.8639316e-06 0)
(0.041236911 -1.8951686e-06 0)
(0.041564541 1.9345727e-06 0)
(0.041238155 -1.9491359e-06 0)
(0.041561642 1.9611825e-06 0)
(0.041242245 -1.9582841e-06 0)
(0.041556255 1.949882e-06 0)
(0.041248683 -1.9319803e-06 0)
(0.041548805 1.9085591e-06 0)
(0.041256993 -1.8781491e-06 0)
(0.041539685 1.8434856e-06 0)
(0.0412668 -1.8047905e-06 0)
(0.04152929 1.762442e-06 0)
(0.041277721 -1.7175363e-06 0)
(0.041517922 1.6709665e-06 0)
(0.041289458 -1.6231829e-06 0)
(0.041505877 1.5746862e-06 0)
(0.041301762 -1.5263697e-06 0)
(0.041493376 1.478359e-06 0)
(0.041314427 -1.431705e-06 0)
(0.041480603 1.3861972e-06 0)
(0.041327292 -1.3429901e-06 0)
(0.041467692 1.3016147e-06 0)
(0.041340251 -1.2630935e-06 0)
(0.04145472 1.2274936e-06 0)
(0.041353221 -1.1947589e-06 0)
(0.041441747 1.1656726e-06 0)
(0.041366187 -1.1386288e-06 0)
(0.041428735 1.1192245e-06 0)
(0.041379059 -1.1018531e-06 0)
(0.041415723 1.0461435e-06 0)
(0.041393235 -1.2651232e-06 0)
(0.041409895 9.7817423e-07 0)
(0.032798216 0.006238239 0)
(0.061440979 -0.00033747865 0)
(0.045376995 0.00040073208 0)
(0.049996007 -5.2370386e-05 0)
(0.047317927 5.4865914e-05 0)
(0.04782611 1.2530497e-05 0)
(0.046890848 1.1842869e-05 0)
(0.047484262 -1.2810536e-07 0)
(0.046924778 4.7820214e-06 0)
(0.047293657 4.5412995e-07 0)
(0.046935437 -6.3059082e-07 0)
(0.047289306 1.4532265e-06 0)
(0.046923552 -1.5401475e-06 0)
(0.047297992 1.841699e-06 0)
(0.046912238 -1.8737078e-06 0)
(0.047304012 2.0386806e-06 0)
(0.046906126 -2.0752256e-06 0)
(0.04730642 2.1633559e-06 0)
(0.04690482 -2.1922129e-06 0)
(0.047305192 2.2334241e-06 0)
(0.046907477 -2.2447782e-06 0)
(0.047300658 2.2545516e-06 0)
(0.046913379 -2.246787e-06 0)
(0.047293287 2.2334803e-06 0)
(0.046921939 -2.2094481e-06 0)
(0.047283599 2.1795029e-06 0)
(0.046932588 -2.1416592e-06 0)
(0.047272056 2.099191e-06 0)
(0.046944883 -2.0525237e-06 0)
(0.047259127 2.0019048e-06 0)
(0.046958376 -1.9485727e-06 0)
(0.047245165 1.8935148e-06 0)
(0.046972718 -1.8372216e-06 0)
(0.047230512 1.7802856e-06 0)
(0.046987626 -1.7238392e-06 0)
(0.047215421 1.6678644e-06 0)
(0.047002863 -1.6136893e-06 0)
(0.0472001 1.5608753e-06 0)
(0.047018251 -1.5108151e-06 0)
(0.047184695 1.4627481e-06 0)
(0.047033677 -1.4181844e-06 0)
(0.047169288 1.3772007e-06 0)
(0.047049047 -1.3394543e-06 0)
(0.047153941 1.3057365e-06 0)
(0.047064364 -1.2743825e-06 0)
(0.047138604 1.2526248e-06 0)
(0.047079526 -1.231388e-06 0)
(0.047123264 1.1664336e-06 0)
(0.04709593 -1.4368227e-06 0)
(0.047115328 1.0790892e-06 0)
(0.037901095 0.0066933103 0)
(0.066846675 -0.00034070113 0)
(0.050801446 0.00047101671 0)
(0.055469884 -6.2612382e-05 0)
(0.052750099 6.9299086e-05 0)
(0.053394137 1.5137027e-05 0)
(0.052360907 1.4033954e-05 0)
(0.053066451 -3.8325054e-07 0)
(0.052411204 5.9722846e-06 0)
(0.052865355 4.5969514e-07 0)
(0.052425985 -7.2804196e-07 0)
(0.052862028 1.6828592e-06 0)
(0.052414204 -1.7809604e-06 0)
(0.052871102 2.1243897e-06 0)
(0.052402903 -2.1452943e-06 0)
(0.05287666 2.3307284e-06 0)
(0.05239747 -2.3605906e-06 0)
(0.052877995 2.4561526e-06 0)
(0.052397461 -2.480639e-06 0)
(0.05287519 2.5223324e-06 0)
(0.052401898 -2.5290859e-06 0)
(0.052868668 2.5355648e-06 0)
(0.052409953 -2.5220646e-06 0)
(0.052858998 2.5030547e-06 0)
(0.052420933 -2.4721472e-06 0)
(0.052846786 2.4350047e-06 0)
(0.052434188 -2.3892276e-06 0)
(0.052832572 2.3388084e-06 0)
(0.0524492 -2.28395e-06 0)
(0.052816898 2.2246824e-06 0)
(0.05246546 -2.1627719e-06 0)
(0.052800162 2.0992318e-06 0)
(0.052482574 -2.0346004e-06 0)
(0.052782751 1.9693811e-06 0)
(0.052500219 -1.9049055e-06 0)
(0.05276495 1.8410545e-06 0)
(0.052518137 -1.7794247e-06 0)
(0.052746984 1.7193891e-06 0)
(0.052536131 -1.6627213e-06 0)
(0.052729015 1.6084019e-06 0)
(0.052554083 -1.5581168e-06 0)
(0.052711122 1.5117595e-06 0)
(0.052571903 -1.4690716e-06 0)
(0.052693362 1.4311566e-06 0)
(0.052589599 -1.3957294e-06 0)
(0.052675673 1.3715641e-06 0)
(0.052607077 -1.3462808e-06 0)
(0.052657998 1.2728328e-06 0)
(0.052625689 -1.5947086e-06 0)
(0.052647776 1.1632254e-06 0)
(0.041747362 0.0073381658 0)
(0.070983601 -0.00050563659 0)
(0.056313857 0.00055051879 0)
(0.060386613 -7.6610995e-05 0)
(0.05794081 8.039692e-05 0)
(0.058774675 1.7057703e-05 0)
(0.057646268 1.6021381e-05 0)
(0.058475319 -7.7113409e-07 0)
(0.057719554 7.2110368e-06 0)
(0.0582679 4.3508275e-07 0)
(0.057739626 -8.3207875e-07 0)
(0.058265419 1.9099391e-06 0)
(0.057728532 -2.0230383e-06 0)
(0.058274478 2.4055e-06 0)
(0.057717734 -2.4126743e-06 0)
(0.058279143 2.6171321e-06 0)
(0.057713433 -2.6378731e-06 0)
(0.058278995 2.7394649e-06 0)
(0.057715129 -2.7580734e-06 0)
(0.058274228 2.7990394e-06 0)
(0.057721719 -2.8000196e-06 0)
(0.058265372 2.8021693e-06 0)
(0.057732253 -2.7819129e-06 0)
(0.058253091 2.7564807e-06 0)
(0.057745949 -2.7181981e-06 0)
(0.058238089 2.673506e-06 0)
(0.057762057 -2.6194728e-06 0)
(0.058220973 2.5606365e-06 0)
(0.057779999 -2.4974485e-06 0)
(0.058202359 2.429661e-06 0)
(0.057799203 -2.3592515e-06 0)
(0.058182692 2.2872644e-06 0)
(0.057819226 -2.2142665e-06 0)
(0.058162398 2.1408333e-06 0)
(0.057839722 -2.0685702e-06 0)
(0.058141788 1.997143e-06 0)
(0.057860403 -1.9284627e-06 0)
(0.058121109 1.8615954e-06 0)
(0.057881064 -1.7985757e-06 0)
(0.058100522 1.7380045e-06 0)
(0.057901586 -1.6821751e-06 0)
(0.058080109 1.6309554e-06 0)
(0.057921874 -1.5836993e-06 0)
(0.05805992 1.5415148e-06 0)
(0.057941965 -1.5021602e-06 0)
(0.058039879 1.4761242e-06 0)
(0.057961756 -1.4466919e-06 0)
(0.058019876 1.3655776e-06 0)
(0.057982554 -1.7379027e-06 0)
(0.058007231 1.2305602e-06 0)
(0.046965578 0.0076333242 0)
(0.075060026 -0.00051324072 0)
(0.061585301 0.0006106075 0)
(0.064916765 -9.0448983e-05 0)
(0.062937167 8.8019967e-05 0)
(0.063977147 1.8380791e-05 0)
(0.062748964 1.7808244e-05 0)
(0.063711664 -1.3316336e-06 0)
(0.062850158 8.4745973e-06 0)
(0.063501343 3.7289214e-07 0)
(0.062876673 -9.4052242e-07 0)
(0.063499249 2.130894e-06 0)
(0.062866831 -2.2636954e-06 0)
(0.063507835 2.6818971e-06 0)
(0.062857041 -2.6731341e-06 0)
(0.063511166 2.8950638e-06 0)
(0.062854326 -2.9046998e-06 0)
(0.063509113 3.0109502e-06 0)
(0.062858141 -3.0219745e-06 0)
(0.063502003 3.061038e-06 0)
(0.062867247 -3.0551338e-06 0)
(0.063490472 3.0521645e-06 0)
(0.062880585 -3.0245749e-06 0)
(0.063475286 2.9921613e-06 0)
(0.062897263 -2.9460097e-06 0)
(0.06345724 2.8933116e-06 0)
(0.062916459 -2.8307627e-06 0)
(0.063437012 2.7636551e-06 0)
(0.062937519 -2.6921529e-06 0)
(0.063415289 2.6156425e-06 0)
(0.062959818 -2.536787e-06 0)
(0.063392555 2.4565811e-06 0)
(0.062982873 -2.375615e-06 0)
(0.063369275 2.294332e-06 0)
(0.063006304 -2.2145522e-06 0)
(0.063345783 2.1357909e-06 0)
(0.063029812 -2.0602489e-06 0)
(0.063322338 1.9867515e-06 0)
(0.063053179 -1.9177609e-06 0)
(0.063299107 1.8515614e-06 0)
(0.063076287 -1.7906409e-06 0)
(0.063276165 1.7346237e-06 0)
(0.063099053 -1.6829276e-06 0)
(0.063253548 1.6370508e-06 0)
(0.063121525 -1.5941151e-06 0)
(0.063231168 1.5661018e-06 0)
(0.06314362 -1.5325019e-06 0)
(0.06320887 1.4446835e-06 0)
(0.063166557 -1.8654885e-06 0)
(0.0631937 1.2823152e-06 0)
(0.050713924 0.0079833426 0)
(0.07804566 -0.00069745255 0)
(0.066650188 0.00067027707 0)
(0.069295093 -9.5851185e-05 0)
(0.067767473 9.2415385e-05 0)
(0.069005399 1.9194148e-05 0)
(0.067673185 1.9388014e-05 0)
(0.068776311 -2.0730384e-06 0)
(0.067803415 9.74751e-06 0)
(0.068565631 2.6651365e-07 0)
(0.067837455 -1.049936e-06 0)
(0.068563225 2.3420956e-06 0)
(0.067829424 -2.4999362e-06 0)
(0.06857085 2.9503804e-06 0)
(0.067821152 -2.9237957e-06 0)
(0.068572386 3.1616216e-06 0)
(0.067820483 -3.1581711e-06 0)
(0.068568014 3.2677781e-06 0)
(0.067826819 -3.270124e-06 0)
(0.068558187 3.3062938e-06 0)
(0.067838796 -3.2926556e-06 0)
(0.06854366 3.2837667e-06 0)
(0.067855233 -3.2480967e-06 0)
(0.06852529 3.2082542e-06 0)
(0.067875154 -3.1540192e-06 0)
(0.068503972 3.0932427e-06 0)
(0.067897643 -3.0221254e-06 0)
(0.068480446 2.9464847e-06 0)
(0.067921989 -2.8667675e-06 0)
(0.068455467 2.7819388e-06 0)
(0.067947512 -2.6949478e-06 0)
(0.068429555 2.6067527e-06 0)
(0.067973689 -2.5179531e-06 0)
(0.06840321 2.429057e-06 0)
(0.068000123 -2.3421777e-06 0)
(0.068376785 2.2565586e-06 0)
(0.068026493 -2.1747341e-06 0)
(0.068350548 2.0951641e-06 0)
(0.068052583 -2.020575e-06 0)
(0.068324663 1.9488046e-06 0)
(0.068078281 -1.8830541e-06 0)
(0.068299197 1.8228879e-06 0)
(0.068103503 -1.7672329e-06 0)
(0.068274174 1.7176097e-06 0)
(0.068128334 -1.6713008e-06 0)
(0.068249489 1.6419179e-06 0)
(0.068152694 -1.6042247e-06 0)
(0.06822494 1.510657e-06 0)
(0.068177728 -1.9771449e-06 0)
(0.068207181 1.3188121e-06 0)
(0.056663598 0.0084106313 0)
(0.08123611 -0.00070066288 0)
(0.071428312 0.00072089705 0)
(0.073537287 -0.00010304788 0)
(0.072428677 9.2476543e-05 0)
(0.073857312 1.9454585e-05 0)
(0.072424709 2.0768851e-05 0)
(0.073669783 -2.9700549e-06 0)
(0.072579778 1.1022729e-05 0)
(0.073460707 1.1259982e-07 0)
(0.072622382 -1.153767e-06 0)
(0.073457026 2.540631e-06 0)
(0.072616669 -2.7285378e-06 0)
(0.073463173 3.2078016e-06 0)
(0.072610424 -3.1618634e-06 0)
(0.073462466 3.413993e-06 0)
(0.072612249 -3.3960174e-06 0)
(0.073455366 3.5077612e-06 0)
(0.072621499 -3.5000814e-06 0)
(0.073442469 3.5324232e-06 0)
(0.072636677 -3.5102867e-06 0)
(0.073424637 3.4949886e-06 0)
(0.072656499 -3.4509991e-06 0)
(0.073402833 3.4034538e-06 0)
(0.072679885 -3.34093e-06 0)
(0.073378036 3.2718694e-06 0)
(0.072705855 -3.1921865e-06 0)
(0.07335105 3.1084654e-06 0)
(0.072733624 -3.0207912e-06 0)
(0.073322694 2.9276261e-06 0)
(0.072762473 -2.8327602e-06 0)
(0.073293519 2.7370257e-06 0)
(0.072791845 -2.6410091e-06 0)
(0.073264055 2.5450623e-06 0)
(0.07282132 -2.4515146e-06 0)
(0.073234668 2.3594223e-06 0)
(0.072850573 -2.2716138e-06 0)
(0.073205629 2.1862748e-06 0)
(0.072879382 -2.106587e-06 0)
(0.073177105 2.0300353e-06 0)
(0.072907646 -1.9600215e-06 0)
(0.073149145 1.8958141e-06 0)
(0.072935299 -1.8363729e-06 0)
(0.073121752 1.7837052e-06 0)
(0.072962442 -1.7344579e-06 0)
(0.073094807 1.7035414e-06 0)
(0.072989026 -1.6618981e-06 0)
(0.073068069 1.5636055e-06 0)
(0.073016086 -2.0723565e-06 0)
(0.073047684 1.341699e-06 0)
(0.060701985 0.0085726954 0)
(0.083590114 -0.00089618233 0)
(0.076099321 0.0007638814 0)
(0.077676743 -0.00010744601 0)
(0.076918462 8.9079171e-05 0)
(0.078533206 1.9160133e-05 0)
(0.077006395 2.1865532e-05 0)
(0.07839181 -4.0119382e-06 0)
(0.077179431 1.2279076e-05 0)
(0.078186333 -9.961614e-08 0)
(0.077231845 -1.2469346e-06 0)
(0.078180279 2.7228759e-06 0)
(0.077228946 -2.9463251e-06 0)
(0.078184431 3.4509548e-06 0)
(0.077225221 -3.3844783e-06 0)
(0.078181035 3.6493584e-06 0)
(0.077229977 -3.6153986e-06 0)
(0.078170821 3.728174e-06 0)
(0.077242508 -3.7098478e-06 0)
(0.078154516 3.7376616e-06 0)
(0.077261201 -3.7065448e-06 0)
(0.078133104 3.6843214e-06 0)
(0.077284656 -3.6315778e-06 0)
(0.078107636 3.5761908e-06 0)
(0.077311718 -3.5054662e-06 0)
(0.078079184 3.4283479e-06 0)
(0.077341317 -3.3403287e-06 0)
(0.078048606 3.2484809e-06 0)
(0.077372626 -3.153187e-06 0)
(0.078016777 3.0523645e-06 0)
(0.077404878 -2.9501578e-06 0)
(0.077984278 2.8472986e-06 0)
(0.077437486 -2.7443544e-06 0)
(0.077951663 2.641751e-06 0)
(0.077470024 -2.5421115e-06 0)
(0.077919307 2.4441824e-06 0)
(0.077502152 -2.3511248e-06 0)
(0.077887486 2.2607243e-06 0)
(0.077533658 -2.1764108e-06 0)
(0.077856347 2.0951778e-06 0)
(0.077564455 -2.02123e-06 0)
(0.077825932 1.9537449e-06 0)
(0.077594485 -1.8910897e-06 0)
(0.077796224 1.8353333e-06 0)
(0.077623888 -1.7833971e-06 0)
(0.077767083 1.7516133e-06 0)
(0.077652628 -1.7062639e-06 0)
(0.077738225 1.6042161e-06 0)
(0.077681654 -2.1512136e-06 0)
(0.077715209 1.3513987e-06 0)
(0.066838378 0.0088963089 0)
(0.086373332 -0.00087686432 0)
(0.080620627 0.00079811076 0)
(0.081665227 -0.00011305878 0)
(0.08123607 8.2235551e-05 0)
(0.083031848 1.821951e-05 0)
(0.081420691 2.2641367e-05 0)
(0.082942014 -5.1421404e-06 0)
(0.08160277 1.3505831e-05 0)
(0.082742269 -3.7785436e-07 0)
(0.081666316 -1.3215818e-06 0)
(0.082732614 2.8860895e-06 0)
(0.08166666 -3.150041e-06 0)
(0.082734242 3.6768374e-06 0)
(0.081665928 -3.5889791e-06 0)
(0.082727737 3.8651021e-06 0)
(0.081674025 -3.8143202e-06 0)
(0.08271404 3.927139e-06 0)
(0.081690184 -3.8972249e-06 0)
(0.082694023 3.9198733e-06 0)
(0.081712669 -3.8793952e-06 0)
(0.082668776 3.8500957e-06 0)
(0.081739989 -3.7887143e-06 0)
(0.082639451 3.7255159e-06 0)
(0.081770888 -3.6466853e-06 0)
(0.082607193 3.5615657e-06 0)
(0.081804249 -3.4654757e-06 0)
(0.082572916 3.366255e-06 0)
(0.08183918 -3.2638325e-06 0)
(0.082537549 3.1555132e-06 0)
(0.081874885 -3.0464213e-06 0)
(0.082501692 2.9370952e-06 0)
(0.081910755 -2.8280373e-06 0)
(0.082465918 2.7195182e-06 0)
(0.081946348 -2.6143594e-06 0)
(0.082430607 2.5111014e-06 0)
(0.08198133 -2.4131842e-06 0)
(0.08239603 2.3181077e-06 0)
(0.082015493 -2.2297655e-06 0)
(0.082362329 2.1447846e-06 0)
(0.082048766 -2.067561e-06 0)
(0.082329522 1.996935e-06 0)
(0.082081116 -1.9312682e-06 0)
(0.082297562 1.873229e-06 0)
(0.082112704 -1.8191068e-06 0)
(0.082266294 1.786232e-06 0)
(0.082143537 -1.7374592e-06 0)
(0.082235403 1.6326483e-06 0)
(0.08217444 -2.2135192e-06 0)
(0.08220977 1.3498136e-06 0)
(0.071010536 0.0089765018 0)
(0.088396803 -0.0010810335 0)
(0.08508252 0.00081962566 0)
(0.085550044 -0.00011593932 0)
(0.085381853 7.2118526e-05 0)
(0.087354414 1.6579221e-05 0)
(0.085669211 2.3056241e-05 0)
(0.08731955 -6.3054269e-06 0)
(0.085850509 1.4688576e-05 0)
(0.087128077 -7.311058e-07 0)
(0.085926223 -1.3704018e-06 0)
(0.087113604 3.0274989e-06 0)
(0.085930215 -3.3364047e-06 0)
(0.087112205 3.8825341e-06 0)
(0.085932923 -3.7727212e-06 0)
(0.087102188 4.0586883e-06 0)
(0.085944746 -3.9901838e-06 0)
(0.087084678 4.1022e-06 0)
(0.085964844 -4.060585e-06 0)
(0.087060671 4.0776996e-06 0)
(0.085991375 -4.0277636e-06 0)
(0.087031377 3.9911783e-06 0)
(0.086022742 -3.9210503e-06 0)
(0.086998025 3.85022e-06 0)
(0.08605763 -3.7636672e-06 0)
(0.086961847 3.671067e-06 0)
(0.086094844 -3.567408e-06 0)
(0.086923797 3.4609738e-06 0)
(0.086133456 -3.3519812e-06 0)
(0.086884848 3.2370992e-06 0)
(0.08617264 -3.1218571e-06 0)
(0.086845622 3.0066405e-06 0)
(0.086211764 -2.8918928e-06 0)
(0.086806702 2.7779875e-06 0)
(0.086250391 -2.66802e-06 0)
(0.086768472 2.5602036e-06 0)
(0.086288181 -2.4582905e-06 0)
(0.086731193 2.3593712e-06 0)
(0.086324944 -2.2675517e-06 0)
(0.086694987 2.1789464e-06 0)
(0.086360631 -2.0988247e-06 0)
(0.086659854 2.0259099e-06 0)
(0.08639522 -1.9578756e-06 0)
(0.086625723 1.8975082e-06 0)
(0.086428918 -1.8414684e-06 0)
(0.086592414 1.8082161e-06 0)
(0.086461752 -1.7564076e-06 0)
(0.086559577 1.6497484e-06 0)
(0.086494459 -2.2597005e-06 0)
(0.08653137 1.3373284e-06 0)
(0.077272697 0.0091752176 0)
(0.090999466 -0.0010366623 0)
(0.089375764 0.00083933272 0)
(0.089361023 -0.00011828677 0)
(0.089373278 5.9252331e-05 0)
(0.091503616 1.4241372e-05 0)
(0.089753055 2.3101162e-05 0)
(0.091523001 -7.4363107e-06 0)
(0.089924015 1.5811054e-05 0)
(0.091343167 -1.1616715e-06 0)
(0.090012018 -1.3849097e-06 0)
(0.091322816 3.1450785e-06 0)
(0.090020018 -3.5023327e-06 0)
(0.091317917 4.0653666e-06 0)
(0.090026588 -3.9333992e-06 0)
(0.091304036 4.2278456e-06 0)
(0.090042487 -4.1414416e-06 0)
(0.091282411 4.2519199e-06 0)
(0.090066806 -4.1981046e-06 0)
(0.091254178 4.2093582e-06 0)
(0.090097591 -4.1499823e-06 0)
(0.091220648 4.1063047e-06 0)
(0.090133172 -4.0278956e-06 0)
(0.091183144 3.9497594e-06 0)
(0.090172146 -3.8558695e-06 0)
(0.091142956 3.7560956e-06 0)
(0.090213283 -3.6453763e-06 0)
(0.091101085 3.5327578e-06 0)
(0.090255604 -3.4178933e-06 0)
(0.091058544 3.2967665e-06 0)
(0.090298264 -3.1759985e-06 0)
(0.091015962 3.0557295e-06 0)
(0.090340623 -2.936272e-06 0)
(0.090973932 2.8178696e-06 0)
(0.090382236 -2.7037796e-06 0)
(0.090932833 2.5920089e-06 0)
(0.090422778 -2.4865544e-06 0)
(0.090892914 2.3842335e-06 0)
(0.090462071 -2.2896051e-06 0)
(0.090854282 2.1984253e-06 0)
(0.090500087 -2.1161297e-06 0)
(0.090816911 2.0410756e-06 0)
(0.090536837 -1.9708892e-06 0)
(0.090780693 1.9090801e-06 0)
(0.090572549 -1.8516722e-06 0)
(0.090745431 1.8177578e-06 0)
(0.090607304 -1.7632996e-06 0)
(0.090710751 1.6556952e-06 0)
(0.090641713 -2.2898085e-06 0)
(0.090680025 1.3159748e-06 0)
(0.081727452 0.0092525217 0)
(0.092842166 -0.001239677 0)
(0.09343277 0.00084118352 0)
(0.093187125 -0.0001167397 0)
(0.09323203 4.5471874e-05 0)
(0.095486983 1.1602883e-05 0)
(0.093673184 2.2889072e-05 0)
(0.095551071 -8.462246e-06 0)
(0.093825397 1.6854279e-05 0)
(0.095386876 -1.6642354e-06 0)
(0.093924176 -1.3585836e-06 0)
(0.095359837 3.2371716e-06 0)
(0.093936497 -3.6445776e-06 0)
(0.095350988 4.2229735e-06 0)
(0.0939473 -4.0687127e-06 0)
(0.095332911 4.3705042e-06 0)
(0.093967588 -4.2658605e-06 0)
(0.095306915 4.3742409e-06 0)
(0.093996361 -4.3086271e-06 0)
(0.095274252 4.3139888e-06 0)
(0.094031582 -4.2454546e-06 0)
(0.095236347 4.1947735e-06 0)
(0.094071489 -4.1082901e-06 0)
(0.095194589 4.0233298e-06 0)
(0.094114633 -3.9227549e-06 0)
(0.095150342 3.8165971e-06 0)
(0.094159722 -3.6995647e-06 0)
(0.095104633 3.5811e-06 0)
(0.094205756 -3.4611113e-06 0)
(0.095058508 3.3348955e-06 0)
(0.094251871 -3.209503e-06 0)
(0.095012606 3.0848856e-06 0)
(0.094297412 -2.9612474e-06 0)
(0.09496752 2.8389823e-06 0)
(0.094341953 -2.7215816e-06 0)
(0.094923622 2.6067287e-06 0)
(0.094385169 -2.498694e-06 0)
(0.094881147 2.393901e-06 0)
(0.094426908 -2.2970683e-06 0)
(0.094840172 2.2034388e-06 0)
(0.094467168 -2.1193727e-06 0)
(0.094800649 2.0430925e-06 0)
(0.094505976 -1.9714498e-06 0)
(0.094762444 1.9081399e-06 0)
(0.094543612 -1.8496301e-06 0)
(0.09472533 1.8158028e-06 0)
(0.094580182 -1.7591913e-06 0)
(0.094688904 1.6514639e-06 0)
(0.094616211 -2.3045307e-06 0)
(0.094655737 1.2859961e-06 0)
(0.087648338 0.009201439 0)
(0.095381677 -0.0011830269 0)
(0.097177392 0.00083734391 0)
(0.096994448 -0.00011557911 0)
(0.096960003 3.1247873e-05 0)
(0.099302798 8.6779206e-06 0)
(0.097428293 2.2435756e-05 0)
(0.0994022 -9.3457892e-06 0)
(0.097556423 1.7783799e-05 0)
(0.099258312 -2.2267662e-06 0)
(0.097663081 -1.2884871e-06 0)
(0.099224221 3.3012855e-06 0)
(0.097680047 -3.7608915e-06 0)
(0.099211026 4.3529883e-06 0)
(0.097695424 -4.1769277e-06 0)
(0.099188483 4.4848451e-06 0)
(0.097720366 -4.3624593e-06 0)
(0.099157896 4.4682626e-06 0)
(0.097753797 -4.3907881e-06 0)
(0.099120648 4.3902307e-06 0)
(0.097793583 -4.3129403e-06 0)
(0.099078255 4.2557737e-06 0)
(0.097837909 -4.162001e-06 0)
(0.099032187 4.0708076e-06 0)
(0.097885254 -3.9641933e-06 0)
(0.098983853 3.8521792e-06 0)
(0.097934307 -3.7295501e-06 0)
(0.098934316 3.6065023e-06 0)
(0.097984027 -3.4822569e-06 0)
(0.098884646 3.3513938e-06 0)
(0.098033546 -3.2221333e-06 0)
(0.09883548 3.0941494e-06 0)
(0.098082212 -2.9674378e-06 0)
(0.098787412 2.8423104e-06 0)
(0.098129597 -2.7223659e-06 0)
(0.098740798 2.6050992e-06 0)
(0.098175402 -2.4949748e-06 0)
(0.098695853 2.3881781e-06 0)
(0.098219492 -2.2898519e-06 0)
(0.098652638 2.1949102e-06 0)
(0.098261892 -2.1098375e-06 0)
(0.09861107 2.0324762e-06 0)
(0.098302666 -1.959589e-06 0)
(0.098570975 1.895721e-06 0)
(0.098342115 -1.8366862e-06 0)
(0.098532108 1.8025997e-06 0)
(0.098380408 -1.7442831e-06 0)
(0.098494048 1.6372168e-06 0)
(0.09841795 -2.3040979e-06 0)
(0.098458523 1.2494628e-06 0)
(0.092467435 0.0093510259 0)
(0.097251957 -0.0013550454 0)
(0.10069425 0.00081687811 0)
(0.10075504 -0.00011369138 0)
(0.10054093 1.7320285e-05 0)
(0.10294893 5.6604557e-06 0)
(0.10101687 2.1783327e-05 0)
(0.10307583 -1.0066894e-05 0)
(0.10111819 1.8570534e-05 0)
(0.10295658 -2.8289826e-06 0)
(0.10122905 -1.1743627e-06 0)