/*--------------------------------*- C++ -*----------------------------------*\
| =========                 |                                                 |
| \\      /  F ield         | OpenFOAM: The Open Source CFD Toolbox           |
|  \\    /   O peration     | Version:  2312                                  |
|   \\  /    A nd           | Website:  www.openfoam.com                      |
|    \\/     M anipulation  |                                                 |
\*---------------------------------------------------------------------------*/
FoamFile
{
    version     2.0;
    format      ascii;
    arch        "LSB;label=32;scalar=64";
    class       volSymmTensorField;
    location    "6";
    object      sigma_0;
}
// * * * * * * * * * * * * * * * * * * * * * * * * * * * * * * * * * * * * * //

dimensions      [0 2 -2 0 0 0 0];

internalField   nonuniform List<symmTensor> 
4000
(
(-3.9623254 -1.8142939 0 -0.77586259 0 0)
(-13.213715 -0.72091956 0 -0.01262514 0 0)
(-4.2907273 -0.37911296 0 -0.0024485018 0 0)
(-4.7258312 -0.39540025 0 0.00027186962 0 0)
(-4.2657547 -0.37775961 0 -0.00021006883 0 0)
(-4.1598219 -0.37227707 0 2.5060132e-05 0 0)
(-4.1920984 -0.37413665 0 -6.3997157e-05 0 0)
(-4.064037 -0.36794403 0 1.3568558e-05 0 0)
(-4.1285107 -0.37114559 0 -3.3543386e-05 0 0)
(-4.0514909 -0.36735251 0 2.2624275e-05 0 0)
(-4.1093876 -0.37025101 0 -2.5716199e-05 0 0)
(-4.0542287 -0.36748336 0 2.3007726e-05 0 0)
(-4.1028191 -0.3699396 0 -2.2473019e-05 0 0)
(-4.057644 -0.36765026 0 2.1023596e-05 0 0)
(-4.0993088 -0.36976788 0 -1.9966888e-05 0 0)
(-4.0603141 -0.3677841 0 1.8740716e-05 0 0)
(-4.0966896 -0.36963684 0 -1.7701859e-05 0 0)
(-4.0625609 -0.3678981 0 1.6635822e-05 0 0)
(-4.0944954 -0.36952599 0 -1.5696434e-05 0 0)
(-4.0645408 -0.36799884 0 1.47785e-05 0 0)
(-4.0925955 -0.36942971 0 -1.3949524e-05 0 0)
(-4.0662939 -0.36808799 0 1.3156712e-05 0 0)
(-4.0909305 -0.36934535 0 -1.2431486e-05 0 0)
(-4.0678462 -0.36816678 0 1.174415e-05 0 0)
(-4.0894616 -0.36927104 0 -1.1111567e-05 0 0)
(-4.0692238 -0.36823652 0 1.0514464e-05 0 0)
(-4.0881583 -0.36920527 0 -9.9635139e-06 0 0)
(-4.070451 -0.36829846 0 9.4447095e-06 0 0)
(-4.0869958 -0.36914677 0 -8.9657514e-06 0 0)
(-4.0715492 -0.36835371 0 8.5157403e-06 0 0)
(-4.0859536 -0.36909448 0 -8.10069e-06 0 0)
(-4.0725369 -0.36840322 0 7.7118035e-06 0 0)
(-4.0850142 -0.36904752 0 -7.3539738e-06 0 0)
(-4.0734297 -0.36844781 0 7.0199622e-06 0 0)
(-4.0841629 -0.36900513 0 -6.7138343e-06 0 0)
(-4.0742413 -0.36848816 0 6.4295706e-06 0 0)
(-4.0833867 -0.36896665 0 -6.1705932e-06 0 0)
(-4.074984 -0.36852491 0 5.9318677e-06 0 0)
(-4.0826741 -0.3689315 0 -5.7163145e-06 0 0)
(-4.0756684 -0.36855858 0 5.5196992e-06 0 0)
(-4.0820148 -0.36889918 0 -5.34459e-06 0 0)
(-4.0763044 -0.36858966 0 5.1874494e-06 0 0)
(-4.0813993 -0.36886922 0 -5.0502738e-06 0 0)
(-4.0769019 -0.36861862 0 4.9314973e-06 0 0)
(-4.0808209 -0.3688413 0 -4.8299504e-06 0 0)
(-4.0774718 -0.36864601 0 4.7464587e-06 0 0)
(-4.0802653 -0.36881484 0 -4.7015927e-06 0 0)
(-4.0779683 -0.36867005 0 4.5805298e-06 0 0)
(-4.0795144 -0.36878073 0 -4.8010933e-06 0 0)
(-4.0778101 -0.36866282 0 4.6375755e-06 0 0)
(-3.3166374 -1.6301217 0 -0.73466604 0 0)
(-10.798228 -0.70107584 0 -0.027110162 0 0)
(-5.0748524 -0.43153476 0 -0.0072515048 0 0)
(-4.3783961 -0.37889719 0 0.00026554605 0 0)
(-3.9648325 -0.36564669 0 -0.00052941978 0 0)
(-3.8376035 -0.35761841 0 2.0627881e-06 0 0)
(-3.8801385 -0.36030457 0 -0.00012106435 0 0)
(-3.771087 -0.35446067 0 -2.0239994e-05 0 0)
(-3.8229426 -0.35725382 0 -4.5422187e-05 0 0)
(-3.7578456 -0.35374255 0 1.5835633e-05 0 0)
(-3.8053513 -0.35635072 0 -2.8272594e-05 0 0)
(-3.7592381 -0.35380833 0 2.310562e-05 0 0)
(-3.7996866 -0.35606086 0 -2.4036344e-05 0 0)
(-3.7619315 -0.35395189 0 2.2321086e-05 0 0)
(-3.7967812 -0.35590595 0 -2.1490704e-05 0 0)
(-3.7641306 -0.35407351 0 2.0108477e-05 0 0)
(-3.7946013 -0.35578597 0 -1.9095944e-05 0 0)
(-3.7659952 -0.35417812 0 1.7900735e-05 0 0)
(-3.7927647 -0.35568376 0 -1.6930783e-05 0 0)
(-3.7676429 -0.35427072 0 1.5921948e-05 0 0)
(-3.791173 -0.35559495 0 -1.5045296e-05 0 0)
(-3.7691048 -0.35435276 0 1.4184663e-05 0 0)
(-3.7897771 -0.35551712 0 -1.340987e-05 0 0)
(-3.7704018 -0.35442537 0 1.2667731e-05 0 0)
(-3.7885441 -0.35544847 0 -1.1988747e-05 0 0)
(-3.771555 -0.35448975 0 1.1345247e-05 0 0)
(-3.7874486 -0.35538762 0 -1.0752511e-05 0 0)
(-3.7725841 -0.35454704 0 1.0193648e-05 0 0)
(-3.7864701 -0.35533342 0 -9.6777429e-06 0 0)
(-3.7735064 -0.35459821 0 9.1929876e-06 0 0)
(-3.7855918 -0.35528491 0 -8.7456538e-06 0 0)
(-3.7743367 -0.35464413 0 8.3267354e-06 0 0)
(-3.7847994 -0.35524129 0 -7.9410087e-06 0 0)
(-3.7750882 -0.35468552 0 7.5812636e-06 0 0)
(-3.7840807 -0.35520188 0 -7.2513457e-06 0 0)
(-3.7757721 -0.35472301 0 6.9453387e-06 0 0)
(-3.7834248 -0.35516608 0 -6.6664394e-06 0 0)
(-3.7763984 -0.35475717 0 6.4097372e-06 0 0)
(-3.7828223 -0.35513337 0 -6.177969e-06 0 0)
(-3.7769762 -0.35478849 0 5.9670037e-06 0 0)
(-3.7822642 -0.35510328 0 -5.7793762e-06 0 0)
(-3.7775139 -0.35481742 0 5.6115601e-06 0 0)
(-3.7817426 -0.35507536 0 -5.4654133e-06 0 0)
(-3.7780195 -0.35484438 0 5.341366e-06 0 0)
(-3.7812515 -0.3550493 0 -5.2321826e-06 0 0)
(-3.778504 -0.35486994 0 5.1512128e-06 0 0)
(-3.7807855 -0.35502505 0 -5.123817e-06 0 0)
(-3.7789512 -0.35489406 0 4.9108524e-06 0 0)
(-3.7802086 -0.3549983 0 -5.550065e-06 0 0)
(-3.778935 -0.35489349 0 4.9328916e-06 0 0)
(-3.0460676 -1.5006839 0 -0.65605405 0 0)
(-8.949228 -0.63901065 0 -0.030045076 0 0)
(-5.0306379 -0.44479916 0 -0.010903383 0 0)
(-4.2580481 -0.37340706 0 1.8796232e-05 0 0)
(-3.7755853 -0.35756649 0 -0.00079210869 0 0)
(-3.6319038 -0.34788327 0 -1.6750095e-05 0 0)
(-3.6734357 -0.35080649 0 -0.00015546454 0 0)
(-3.57874 -0.3453493 0 -4.9407412e-05 0 0)
(-3.6248882 -0.34794577 0 -5.1425399e-05 0 0)
(-3.5669743 -0.34462067 0 7.6943925e-06 0 0)
(-3.6087544 -0.34705641 0 -2.7624673e-05 0 0)
(-3.5678477 -0.3446555 0 2.0658313e-05 0 0)
(-3.6035855 -0.34677837 0 -2.2766433e-05 0 0)
(-3.5701593 -0.34478665 0 2.0996066e-05 0 0)
(-3.6010097 -0.34663328 0 -2.042417e-05 0 0)
(-3.572099 -0.34490129 0 1.9055097e-05 0 0)
(-3.5990875 -0.34652049 0 -1.8173828e-05 0 0)
(-3.5737476 -0.34500008 0 1.6993674e-05 0 0)
(-3.597466 -0.34642408 0 -1.6107732e-05 0 0)
(-3.5752044 -0.3450875 0 1.512895e-05 0 0)
(-3.59606 -0.34634031 0 -1.4310571e-05 0 0)
(-3.5764977 -0.34516496 0 1.3485088e-05 0 0)
(-3.5948267 -0.34626686 0 -1.275478e-05 0 0)
(-3.5776464 -0.34523358 0 1.2046631e-05 0 0)
(-3.5937365 -0.34620204 0 -1.140379e-05 0 0)
(-3.5786688 -0.3452945 0 1.0790957e-05 0 0)
(-3.592767 -0.34614451 0 -1.0228552e-05 0 0)
(-3.579582 -0.34534877 0 9.6966283e-06 0 0)
(-3.5919004 -0.3460932 0 -9.2065557e-06 0 0)
(-3.5804009 -0.3453973 0 8.7452001e-06 0 0)
(-3.591122 -0.34604724 0 -8.3199944e-06 0 0)
(-3.5811388 -0.34544089 0 7.9212781e-06 0 0)
(-3.5904193 -0.34600588 0 -7.5545169e-06 0 0)
(-3.5818068 -0.3454802 0 7.2121232e-06 0 0)
(-3.5897817 -0.34596848 0 -6.8984153e-06 0 0)
(-3.5824148 -0.34551585 0 6.6072242e-06 0 0)
(-3.5891997 -0.34593448 0 -6.3421113e-06 0 0)
(-3.5829718 -0.34554834 0 6.0979779e-06 0 0)
(-3.5886647 -0.34590339 0 -5.8778747e-06 0 0)
(-3.5834859 -0.34557815 0 5.6775069e-06 0 0)
(-3.5881691 -0.34587477 0 -5.499772e-06 0 0)
(-3.5839642 -0.3456057 0 5.3408958e-06 0 0)
(-3.5877056 -0.3458482 0 -5.2031665e-06 0 0)
(-3.5844142 -0.34563138 0 5.0877631e-06 0 0)
(-3.5872687 -0.34582335 0 -4.9839565e-06 0 0)
(-3.5848457 -0.34565574 0 4.9159051e-06 0 0)
(-3.5868551 -0.34580032 0 -4.8980371e-06 0 0)
(-3.5852513 -0.34567936 0 4.6587877e-06 0 0)
(-3.586358 -0.34577686 0 -5.5227188e-06 0 0)
(-3.5852957 -0.34568032 0 5.0438058e-06 0 0)
(-3.0217087 -1.4725416 0 -0.62977067 0 0)
(-7.9545239 -0.61362616 0 -0.035003247 0 0)
(-4.9402839 -0.4563452 0 -0.0147795 0 0)
(-4.1495797 -0.36827072 0 -0.00020543117 0 0)
(-3.6076507 -0.35028097 0 -0.0011245508 0 0)
(-3.4371395 -0.33834814 0 -4.248015e-05 0 0)
(-3.4735251 -0.34131183 0 -0.0001908084 0 0)
(-3.3905877 -0.336227 0 -8.2565664e-05 0 0)
(-3.4325342 -0.3386356 0 -5.5069644e-05 0 0)
(-3.3806382 -0.33550135 0 -3.2576494e-06 0 0)
(-3.4178462 -0.33776512 0 -2.4774749e-05 0 0)
(-3.3811372 -0.33550425 0 1.609181e-05 0 0)
(-3.4130848 -0.33749821 0 -1.9516896e-05 0 0)
(-3.383112 -0.33562179 0 1.7842203e-05 0 0)
(-3.4107673 -0.33736272 0 -1.7626356e-05 0 0)
(-3.3848316 -0.335729 0 1.6383225e-05 0 0)
(-3.4090503 -0.33725705 0 -1.572849e-05 0 0)
(-3.386303 -0.33582186 0 1.4654086e-05 0 0)
(-3.4075991 -0.3371663 0 -1.393684e-05 0 0)
(-3.3876046 -0.33590407 0 1.3066529e-05 0 0)
(-3.4063394 -0.33708736 0 -1.2379168e-05 0 0)
(-3.3887613 -0.335977 0 1.1657174e-05 0 0)
(-3.4052334 -0.33701808 0 -1.1033922e-05 0 0)
(-3.3897898 -0.33604171 0 1.0419168e-05 0 0)
(-3.4042551 -0.33695687 0 -9.8665628e-06 0 0)
(-3.3907061 -0.33609922 0 9.3359716e-06 0 0)
(-3.4033845 -0.33690248 0 -8.8507914e-06 0 0)
(-3.3915251 -0.33615052 0 8.3905446e-06 0 0)
(-3.4026059 -0.33685393 0 -7.9669755e-06 0 0)
(-3.3922601 -0.33619644 0 7.5677558e-06 0 0)
(-3.4019064 -0.33681039 0 -7.1998722e-06 0 0)
(-3.3929225 -0.33623772 0 6.8547716e-06 0 0)
(-3.4012748 -0.33677118 0 -6.5372772e-06 0 0)
(-3.3935222 -0.33627499 0 6.2408707e-06 0 0)
(-3.4007018 -0.3367357 0 -5.9692406e-06 0 0)
(-3.3940681 -0.33630879 0 5.7171565e-06 0 0)
(-3.4001788 -0.33670343 0 -5.487622e-06 0 0)
(-3.3945681 -0.33633963 0 5.2763375e-06 0 0)
(-3.3996982 -0.3366739 0 -5.0858805e-06 0 0)
(-3.3950294 -0.33636795 0 4.912613e-06 0 0)
(-3.3992531 -0.33664669 0 -4.7591017e-06 0 0)
(-3.3954587 -0.33639414 0 4.6219919e-06 0 0)
(-3.3988369 -0.33662141 0 -4.5033584e-06 0 0)
(-3.3958623 -0.33641857 0 4.4056427e-06 0 0)
(-3.3984447 -0.33659772 0 -4.3137833e-06 0 0)
(-3.3962493 -0.33644177 0 4.2631725e-06 0 0)
(-3.3980747 -0.33657585 0 -4.2568442e-06 0 0)
(-3.3966196 -0.33646492 0 3.9770173e-06 0 0)
(-3.3976469 -0.33655546 0 -5.0859329e-06 0 0)
(-3.3967185 -0.33646775 0 4.6392911e-06 0 0)
(-2.8522841 -1.3578996 0 -0.55418635 0 0)
(-6.9047594 -0.57212984 0 -0.035742213 0 0)
(-4.7292135 -0.45948115 0 -0.017857705 0 0)
(-4.0226519 -0.36279993 0 -0.00047506678 0 0)
(-3.4513841 -0.34327737 0 -0.0014856011 0 0)
(-3.2528207 -0.32896619 0 -6.6972274e-05 0 0)
(-3.2795326 -0.33175655 0 -0.00022107268 0 0)
(-3.2066031 -0.32704048 0 -0.000110297 0 0)
(-3.2453703 -0.3293089 0 -5.7342811e-05 0 0)
(-3.1988374 -0.32636436 0 -1.3052542e-05 0 0)
(-3.2323122 -0.32847762 0 -2.2017989e-05 0 0)
(-3.1991995 -0.32634579 0 1.1931679e-05 0 0)
(-3.2279549 -0.328223 0 -1.6441597e-05 0 0)
(-3.2009033 -0.32645157 0 1.4919102e-05 0 0)
(-3.2258569 -0.32809641 0 -1.4984791e-05 0 0)
(-3.202435 -0.32655205 0 1.3879431e-05 0 0)
(-3.2243141 -0.32799736 0 -1.3423535e-05 0 0)
(-3.203757 -0.32663953 0 1.2453524e-05 0 0)
(-3.2230084 -0.32791187 0 -1.1891857e-05 0 0)
(-3.2049282 -0.32671703 0 1.1124637e-05 0 0)
(-3.2218731 -0.32783736 0 -1.0559593e-05 0 0)
(-3.2059702 -0.32678588 0 9.9350646e-06 0 0)
(-3.2208753 -0.32777189 0 -9.4120702e-06 0 0)
(-3.2068976 -0.32684704 0 8.885079e-06 0 0)
(-3.2199919 -0.32771398 0 -8.4171252e-06 0 0)
(-3.2077247 -0.32690148 0 7.9637975e-06 0 0)
(-3.2192053 -0.32766246 0 -7.5511782e-06 0 0)
(-3.2084645 -0.32695009 0 7.1582975e-06 0 0)
(-3.2185015 -0.32761643 0 -6.7972996e-06 0 0)
(-3.2091286 -0.32699365 0 6.4565082e-06 0 0)
(-3.2178691 -0.32757513 0 -6.14261e-06 0 0)
(-3.2097272 -0.32703283 0 5.8479399e-06 0 0)
(-3.2172982 -0.3275379 0 -5.5768646e-06 0 0)
(-3.2102691 -0.32706821 0 5.3237049e-06 0 0)
(-3.2167803 -0.3275042 0 -5.0917078e-06 0 0)
(-3.2107623 -0.32710033 0 4.8763645e-06 0 0)
(-3.2163077 -0.32747354 0 -4.6802915e-06 0 0)
(-3.2112139 -0.32712964 0 4.4997958e-06 0 0)
(-3.2158737 -0.32744547 0 -4.3371191e-06 0 0)
(-3.2116304 -0.32715657 0 4.1891213e-06 0 0)
(-3.2154718 -0.32741958 0 -4.0581193e-06 0 0)
(-3.2120177 -0.32718149 0 3.9410489e-06 0 0)
(-3.2150964 -0.32739551 0 -3.8398548e-06 0 0)
(-3.2123816 -0.32720475 0 3.757775e-06 0 0)
(-3.2147426 -0.32737293 0 -3.6762023e-06 0 0)
(-3.2127302 -0.32722684 0 3.6404813e-06 0 0)
(-3.21441 -0.32735211 0 -3.6385162e-06 0 0)
(-3.2130678 -0.32724937 0 3.3268072e-06 0 0)
(-3.2140383 -0.32733412 0 -4.6124613e-06 0 0)
(-3.2132037 -0.32725375 0 4.1989966e-06 0 0)
(-2.826249 -1.3274361 0 -0.53121683 0 0)
(-5.9433669 -0.54280365 0 -0.038487222 0 0)
(-4.4638629 -0.45880941 0 -0.020369958 0 0)
(-3.8469289 -0.35648664 0 -0.001005352 0 0)
(-3.3017337 -0.33696824 0 -0.0019590793 0 0)
(-3.0813472 -0.31999082 0 -0.00011061267 0 0)
(-3.0940299 -0.32230029 0 -0.00025453814 0 0)
(-3.0277361 -0.31782932 0 -0.00013382326 0 0)
(-3.0636154 -0.31997713 0 -5.891943e-05 0 0)
(-3.0218505 -0.3172174 0 -2.1321496e-05 0 0)
(-3.0520785 -0.31919358 0 -1.9777839e-05 0 0)
(-3.0221626 -0.31718316 0 8.5190796e-06 0 0)
(-3.0481083 -0.31895159 0 -1.3908038e-05 0 0)
(-3.0236348 -0.31727815 0 1.2556864e-05 0 0)
(-3.0462023 -0.31883322 0 -1.2821275e-05 0 0)
(-3.024998 -0.31737225 0 1.1844306e-05 0 0)
(-3.0448113 -0.31874036 0 -1.1543309e-05 0 0)
(-3.0261877 -0.3174547 0 1.0659462e-05 0 0)
(-3.0436335 -0.31865979 0 -1.0224718e-05 0 0)
(-3.0272443 -0.31752783 0 9.5406719e-06 0 0)
(-3.0426076 -0.31858941 0 -9.0756192e-06 0 0)
(-3.0281854 -0.31759287 0 8.5300299e-06 0 0)
(-3.041705 -0.31852749 0 -8.0886352e-06 0 0)
(-3.029024 -0.31765074 0 7.6330122e-06 0 0)
(-3.0409051 -0.31847264 0 -7.2338061e-06 0 0)
(-3.0297725 -0.31770232 0 6.8434671e-06 0 0)
(-3.0401925 -0.31842381 0 -6.4897644e-06 0 0)
(-3.0304425 -0.31774842 0 6.1518942e-06 0 0)
(-3.0395547 -0.31838014 0 -5.8417342e-06 0 0)
(-3.0310441 -0.31778975 0 5.5487091e-06 0 0)
(-3.0389815 -0.31834093 0 -5.2787066e-06 0 0)
(-3.0315863 -0.31782695 0 5.0252946e-06 0 0)
(-3.0384641 -0.31830557 0 -4.7919833e-06 0 0)
(-3.0320773 -0.31786056 0 4.5742158e-06 0 0)
(-3.0379948 -0.31827356 0 -4.3744654e-06 0 0)
(-3.0325239 -0.31789108 0 4.1891837e-06 0 0)
(-3.0375668 -0.31824441 0 -4.0203203e-06 0 0)
(-3.0329328 -0.31791894 0 3.8649904e-06 0 0)
(-3.0371738 -0.31821772 0 -3.7248625e-06 0 0)
(-3.0333097 -0.31794454 0 3.5974666e-06 0 0)
(-3.0368101 -0.31819311 0 -3.4846552e-06 0 0)
(-3.0336601 -0.31796826 0 3.3838068e-06 0 0)
(-3.0364706 -0.3181702 0 -3.2965832e-06 0 0)
(-3.0339889 -0.31799039 0 3.2268735e-06 0 0)
(-3.0361507 -0.31814868 0 -3.1531656e-06 0 0)
(-3.0343036 -0.3180114 0 3.1293172e-06 0 0)
(-3.0358508 -0.31812886 0 -3.1276076e-06 0 0)
(-3.0346115 -0.31803325 0 2.7901652e-06 0 0)
(-3.0355271 -0.31811285 0 -4.1997429e-06 0 0)
(-3.0347726 -0.31803903 0 3.8011361e-06 0 0)
(-2.7647008 -1.2308514 0 -0.46300103 0 0)
(-4.9025827 -0.50291688 0 -0.038982023 0 0)
(-4.1644835 -0.45248767 0 -0.021350408 0 0)
(-3.5771279 -0.34670964 0 -0.0018764612 0 0)
(-3.111375 -0.32882107 0 -0.0024114622 0 0)
(-2.9064109 -0.31071965 0 -0.00014597741 0 0)
(-2.9120501 -0.31273452 0 -0.00028303253 0 0)
(-2.8532807 -0.30857214 0 -0.00015081477 0 0)
(-2.8868006 -0.31062421 0 -5.960587e-05 0 0)
(-2.8495753 -0.30805602 0 -2.8175402e-05 0 0)
(-2.8770237 -0.30990914 0 -1.78717e-05 0 0)
(-2.8500315 -0.30801632 0 5.663791e-06 0 0)
(-2.8734883 -0.3096824 0 -1.1758446e-05 0 0)
(-2.8513341 -0.30810234 0 1.0597284e-05 0 0)
(-2.8717659 -0.3095721 0 -1.0994519e-05 0 0)
(-2.8525505 -0.30819049 0 1.0142797e-05 0 0)
(-2.8705111 -0.30948512 0 -9.9617914e-06 0 0)
(-2.8536223 -0.30826819 0 9.1528991e-06 0 0)
(-2.8694475 -0.30940924 0 -8.8235714e-06 0 0)
(-2.8545769 -0.3083372 0 8.2089754e-06 0 0)
(-2.8685195 -0.30934277 0 -7.8279659e-06 0 0)
(-2.8554282 -0.30839866 0 7.3481858e-06 0 0)
(-2.8677019 -0.30928421 0 -6.9753489e-06 0 0)
(-2.8561875 -0.30845341 0 6.5794171e-06 0 0)
(-2.8669768 -0.30923227 0 -6.2379319e-06 0 0)
(-2.8568658 -0.30850226 0 5.9004136e-06 0 0)
(-2.8663304 -0.30918599 0 -5.596195e-06 0 0)
(-2.8574732 -0.30854596 0 5.3045389e-06 0 0)
(-2.8657517 -0.30914457 0 -5.0371112e-06 0 0)
(-2.8580188 -0.30858517 0 4.7842657e-06 0 0)
(-2.8652316 -0.30910736 0 -4.5511887e-06 0 0)
(-2.8585106 -0.30862047 0 4.3325118e-06 0 0)
(-2.8647622 -0.30907381 0 -4.130986e-06 0 0)
(-2.8589558 -0.30865238 0 3.9430299e-06 0 0)
(-2.8643365 -0.30904341 0 -3.7704287e-06 0 0)
(-2.8593608 -0.30868136 0 3.6104719e-06 0 0)
(-2.8639483 -0.30901573 0 -3.4645146e-06 0 0)
(-2.8597314 -0.30870782 0 3.3303789e-06 0 0)
(-2.863592 -0.30899037 0 -3.2092201e-06 0 0)
(-2.8600729 -0.30873215 0 3.0991564e-06 0 0)
(-2.8632626 -0.30896697 0 -3.0016183e-06 0 0)
(-2.8603902 -0.30875469 0 2.9143714e-06 0 0)
(-2.8629551 -0.30894519 0 -2.8388545e-06 0 0)
(-2.8606878 -0.30877574 0 2.7793428e-06 0 0)
(-2.8626654 -0.30892471 0 -2.7122132e-06 0 0)
(-2.8609722 -0.30879571 0 2.6982931e-06 0 0)
(-2.8623945 -0.30890584 0 -2.6947688e-06 0 0)
(-2.8612529 -0.30881679 0 2.3392001e-06 0 0)
(-2.862112 -0.3088915 0 -3.8274599e-06 0 0)
(-2.8614304 -0.30882381 0 3.4386335e-06 0 0)
(-2.7807019 -1.183722 0 -0.42662358 0 0)
(-3.9993713 -0.4884369 0 -0.046470642 0 0)
(-3.8373684 -0.44210324 0 -0.021749568 0 0)
(-3.3482964 -0.34703871 0 -0.0047528778 0 0)
(-2.9534452 -0.32301494 0 -0.003107659 0 0)
(-2.7455035 -0.30201217 0 -0.00023628349 0 0)
(-2.7407204 -0.30341871 0 -0.00032448605 0 0)
(-2.6843305 -0.29930433 0 -0.00016583572 0 0)
(-2.7155689 -0.30127421 0 -5.9345225e-05 0 0)
(-2.6822675 -0.29888676 0 -3.376091e-05 0 0)
(-2.7072121 -0.30062656 0 -1.6100495e-05 0 0)
(-2.6828555 -0.29884632 0 3.211323e-06 0 0)
(-2.7040844 -0.30041553 0 -9.8594398e-06 0 0)
(-2.6840211 -0.29892446 0 8.9034501e-06 0 0)
(-2.702532 -0.30031288 0 -9.3866071e-06 0 0)
(-2.6851084 -0.29900701 0 8.6593441e-06 0 0)
(-2.7013993 -0.30023145 0 -8.5727327e-06 0 0)
(-2.6860747 -0.29908023 0 7.8330207e-06 0 0)
(-2.700438 -0.30016001 0 -7.5937798e-06 0 0)
(-2.686938 -0.29914534 0 7.0402799e-06 0 0)
(-2.6995978 -0.30009726 0 -6.7325449e-06 0 0)
(-2.6877088 -0.29920339 0 6.3101849e-06 0 0)
(-2.6988566 -0.30004189 0 -5.9973718e-06 0 0)
(-2.6883969 -0.29925518 0 5.6535877e-06 0 0)
(-2.6981987 -0.29999273 0 -5.3627055e-06 0 0)
(-2.6890121 -0.29930143 0 5.0714321e-06 0 0)
(-2.6976119 -0.29994889 0 -4.8106451e-06 0 0)
(-2.6895632 -0.29934284 0 4.5595193e-06 0 0)
(-2.6970866 -0.29990963 0 -4.3296369e-06 0 0)
(-2.6900583 -0.29938001 0 4.1120724e-06 0 0)
(-2.6966143 -0.29987435 0 -3.911465e-06 0 0)
(-2.6905046 -0.29941348 0 3.7233135e-06 0 0)
(-2.6961882 -0.29984252 0 -3.5497522e-06 0 0)
(-2.6909085 -0.29944375 0 3.3880074e-06 0 0)
(-2.6958018 -0.29981368 0 -3.2392979e-06 0 0)
(-2.691276 -0.29947124 0 3.1016119e-06 0 0)
(-2.6954495 -0.29978742 0 -2.9758124e-06 0 0)
(-2.6916121 -0.29949636 0 2.8603123e-06 0 0)
(-2.6951264 -0.29976335 0 -2.7558407e-06 0 0)
(-2.6919218 -0.29951945 0 2.6610094e-06 0 0)
(-2.6948277 -0.29974113 0 -2.5768921e-06 0 0)
(-2.6922093 -0.29954086 0 2.5015789e-06 0 0)
(-2.694549 -0.29972044 0 -2.4363532e-06 0 0)
(-2.6924789 -0.29956086 0 2.3856511e-06 0 0)
(-2.6942865 -0.29970095 0 -2.3244777e-06 0 0)
(-2.6927361 -0.29957981 0 2.319069e-06 0 0)
(-2.6940413 -0.299683 0 -2.3129033e-06 0 0)
(-2.692992 -0.29960009 0 1.9460169e-06 0 0)
(-2.6937946 -0.29967005 0 -3.4759818e-06 0 0)
(-2.6931792 -0.29960816 0 3.0991925e-06 0 0)
(-2.8256927 -1.1346829 0 -0.38913363 0 0)
(-3.283082 -0.45423391 0 -0.046393218 0 0)
(-3.4826909 -0.41619598 0 -0.019181098 0 0)
(-3.0428243 -0.3371035 0 -0.0064047697 0 0)
(-2.7665139 -0.3139429 0 -0.0033625977 0 0)
(-2.5762393 -0.29258428 0 -0.00029823973 0 0)
(-2.5694677 -0.29382184 0 -0.00035241493 0 0)
(-2.5201961 -0.2900198 0 -0.00017375771 0 0)
(-2.5491471 -0.29189978 0 -5.8258235e-05 0 0)
(-2.5197294 -0.28970246 0 -3.8059504e-05 0 0)
(-2.5425237 -0.291342 0 -1.4392885e-05 0 0)
(-2.5206083 -0.2896715 0 1.1039629e-06 0 0)
(-2.5398615 -0.29115021 0 -8.1517081e-06 0 0)
(-2.5217 -0.28974422 0 7.4204278e-06 0 0)
(-2.5384834 -0.29105543 0 -7.949382e-06 0 0)
(-2.5226816 -0.28982177 0 7.346904e-06 0 0)
(-2.5374638 -0.29097931 0 -7.3333106e-06 0 0)
(-2.523555 -0.28989082 0 6.6591475e-06 0 0)
(-2.536595 -0.29091208 0 -6.4972005e-06 0 0)
(-2.5243366 -0.28995226 0 5.998715e-06 0 0)
(-2.535834 -0.29085286 0 -5.755532e-06 0 0)
(-2.525035 -0.2900071 0 5.3842003e-06 0 0)
(-2.5351617 -0.29080052 0 -5.1246679e-06 0 0)
(-2.5256591 -0.29005607 0 4.8272026e-06 0 0)
(-2.5345645 -0.290754 0 -4.5813638e-06 0 0)
(-2.5262172 -0.29009985 0 4.3312331e-06 0 0)
(-2.5340317 -0.29071249 0 -4.1091702e-06 0 0)
(-2.5267173 -0.29013905 0 3.8941573e-06 0 0)
(-2.5335546 -0.29067531 0 -3.6977905e-06 0 0)
(-2.5271667 -0.29017426 0 3.5116958e-06 0 0)
(-2.5331258 -0.29064188 0 -3.3400961e-06 0 0)
(-2.5275719 -0.29020598 0 3.1791914e-06 0 0)
(-2.5327388 -0.29061171 0 -3.0306241e-06 0 0)
(-2.5279385 -0.29023467 0 2.8922844e-06 0 0)
(-2.532388 -0.29058438 0 -2.7649324e-06 0 0)
(-2.5282719 -0.29026073 0 2.647135e-06 0 0)
(-2.5320684 -0.29055947 0 -2.539354e-06 0 0)
(-2.5285769 -0.29028454 0 2.4404933e-06 0 0)
(-2.5317752 -0.29053665 0 -2.3509325e-06 0 0)
(-2.5288577 -0.29030645 0 2.2696956e-06 0 0)
(-2.5315042 -0.29051557 0 -2.197557e-06 0 0)
(-2.5291184 -0.29032676 0 2.1328815e-06 0 0)
(-2.5312516 -0.29049594 0 -2.0768453e-06 0 0)
(-2.5293627 -0.29034574 0 2.0338693e-06 0 0)
(-2.5310136 -0.29047742 0 -1.9782401e-06 0 0)
(-2.5295954 -0.29036372 0 1.9800722e-06 0 0)
(-2.5307916 -0.29046035 0 -1.9709777e-06 0 0)
(-2.5298285 -0.29038316 0 1.598686e-06 0 0)
(-2.530576 -0.29044858 0 -3.1390711e-06 0 0)
(-2.5300204 -0.29039212 0 2.7807726e-06 0 0)
(-2.8500013 -1.0874967 0 -0.3520941 0 0)
(-2.8717925 -0.43197763 0 -0.04678618 0 0)
(-3.1886084 -0.41344323 0 -0.023701364 0 0)
(-2.765384 -0.33079434 0 -0.0088740012 0 0)
(-2.5988698 -0.30550538 0 -0.0035138723 0 0)
(-2.421952 -0.28387763 0 -0.0004509992 0 0)
(-2.4094494 -0.28450359 0 -0.00039224512 0 0)
(-2.3619454 -0.28073311 0 -0.00017880274 0 0)
(-2.3885487 -0.2825366 0 -5.5135976e-05 0 0)
(-2.3623217 -0.28051171 0 -4.0661728e-05 0 0)
(-2.3830999 -0.28205974 0 -1.2437425e-05 0 0)
(-2.3633623 -0.28049338 0 -6.0426017e-07 0 0)
(-2.3808274 -0.28188695 0 -6.5761504e-06 0 0)
(-2.3643896 -0.28056182 0 6.1278476e-06 0 0)
(-2.3796102 -0.28179973 0 -6.6571203e-06 0 0)
(-2.3652808 -0.28063486 0 6.1820813e-06 0 0)
(-2.3786948 -0.28172864 0 -6.2224857e-06 0 0)
(-2.3660721 -0.28070002 0 5.6111128e-06 0 0)
(-2.3779101 -0.2816654 0 -5.5151356e-06 0 0)
(-2.3667805 -0.28075801 0 5.0666963e-06 0 0)
(-2.3772208 -0.28160953 0 -4.880403e-06 0 0)
(-2.3674138 -0.28080981 0 4.5547303e-06 0 0)
(-2.376611 -0.28156007 0 -4.3426349e-06 0 0)
(-2.3679798 -0.2808561 0 4.0865306e-06 0 0)
(-2.3760689 -0.28151608 0 -3.8809485e-06 0 0)
(-2.3684862 -0.28089751 0 3.6675971e-06 0 0)
(-2.3755852 -0.28147679 0 -3.4802104e-06 0 0)
(-2.3689401 -0.28093462 0 3.2975213e-06 0 0)
(-2.3751519 -0.28144159 0 -3.1312022e-06 0 0)
(-2.369348 -0.28096794 0 2.9733011e-06 0 0)
(-2.3747626 -0.28140994 0 -2.8277259e-06 0 0)
(-2.3697156 -0.28099797 0 2.6912453e-06 0 0)
(-2.3744113 -0.28138138 0 -2.5651093e-06 0 0)
(-2.3700483 -0.28102514 0 2.4477557e-06 0 0)
(-2.3740929 -0.28135549 0 -2.3395732e-06 0 0)
(-2.3703508 -0.28104983 0 2.2396099e-06 0 0)
(-2.3738028 -0.2813319 0 -2.1479997e-06 0 0)
(-2.3706274 -0.28107239 0 2.0640571e-06 0 0)
(-2.3735368 -0.28131027 0 -1.9878733e-06 0 0)
(-2.3708821 -0.28109315 0 1.91882e-06 0 0)
(-2.3732911 -0.28129029 0 -1.8574164e-06 0 0)
(-2.3711184 -0.2811124 0 1.8022675e-06 0 0)
(-2.3730621 -0.28127168 0 -1.7544704e-06 0 0)
(-2.3713397 -0.2811304 0 1.7182998e-06 0 0)
(-2.3728464 -0.2812541 0 -1.6678911e-06 0 0)
(-2.3715502 -0.28114744 0 1.6757643e-06 0 0)
(-2.3726453 -0.28123787 0 -1.6638141e-06 0 0)
(-2.3717624 -0.28116602 0 1.2912206e-06 0 0)
(-2.3724569 -0.2812271 0 -2.8153517e-06 0 0)
(-2.3719553 -0.28117573 0 2.4838774e-06 0 0)
(-2.916753 -1.0499335 0 -0.32477028 0 0)
(-2.5213311 -0.40766118 0 -0.046145533 0 0)
(-2.8984773 -0.3909892 0 -0.022137435 0 0)
(-2.5180166 -0.31640257 0 -0.0088428918 0 0)
(-2.4290177 -0.29452101 0 -0.0031520419 0 0)
(-2.2698652 -0.27485378 0 -0.0005704165 0 0)
(-2.2534608 -0.27503904 0 -0.00040852334 0 0)
(-2.2088671 -0.27141449 0 -0.00017195287 0 0)
(-2.2331077 -0.27315404 0 -4.888146e-05 0 0)
(-2.2098711 -0.27130546 0 -4.1135666e-05 0 0)
(-2.2288524 -0.27277512 0 -1.0047133e-05 0 0)
(-2.2111084 -0.27131024 0 -1.8736747e-06 0 0)
(-2.2269646 -0.27262482 0 -5.0741443e-06 0 0)
(-2.212099 -0.27137704 0 5.0166941e-06 0 0)
(-2.2259029 -0.27254557 0 -5.4832097e-06 0 0)
(-2.2129151 -0.2714463 0 5.1472925e-06 0 0)
(-2.2250842 -0.27247936 0 -5.2217776e-06 0 0)
(-2.2136339 -0.27150789 0 4.6722143e-06 0 0)
(-2.2243761 -0.27241991 0 -4.6319127e-06 0 0)
(-2.2142765 -0.27156265 0 4.2295055e-06 0 0)
(-2.2237521 -0.27236721 0 -4.0934013e-06 0 0)
(-2.2148507 -0.27161157 0 3.8088366e-06 0 0)
(-2.2231992 -0.27232049 0 -3.639131e-06 0 0)
(-2.215364 -0.27165532 0 3.4201389e-06 0 0)
(-2.2227073 -0.27227891 0 -3.2506913e-06 0 0)
(-2.2158233 -0.27169446 0 3.0703623e-06 0 0)
(-2.2222683 -0.27224177 0 -2.9141626e-06 0 0)
(-2.2162351 -0.27172955 0 2.760525e-06 0 0)
(-2.2218751 -0.27220847 0 -2.6212586e-06 0 0)
(-2.2166051 -0.27176107 0 2.4887153e-06 0 0)
(-2.2215217 -0.27217853 0 -2.3665836e-06 0 0)
(-2.2169385 -0.27178948 0 2.2520795e-06 0 0)
(-2.221203 -0.2721515 0 -2.1461551e-06 0 0)
(-2.2172403 -0.27181518 0 2.0476881e-06 0 0)
(-2.2209142 -0.272127 0 -1.9567786e-06 0 0)
(-2.2175146 -0.27183854 0 1.8728658e-06 0 0)
(-2.2206511 -0.27210468 0 -1.795825e-06 0 0)
(-2.2177653 -0.2718599 0 1.7253066e-06 0 0)
(-2.2204099 -0.2720842 0 -1.6611721e-06 0 0)
(-2.2179962 -0.27187956 0 1.6030801e-06 0 0)
(-2.2201872 -0.27206528 0 -1.5513375e-06 0 0)
(-2.2182103 -0.27189779 0 1.5047587e-06 0 0)
(-2.2199797 -0.27204765 0 -1.4643812e-06 0 0)
(-2.2184107 -0.27191484 0 1.4342352e-06 0 0)
(-2.2197843 -0.27203098 0 -1.3887967e-06 0 0)
(-2.2186011 -0.27193097 0 1.4015945e-06 0 0)
(-2.2196021 -0.27201556 0 -1.387141e-06 0 0)
(-2.2187939 -0.27194868 0 1.0186946e-06 0 0)
(-2.2194377 -0.27200564 0 -2.5038503e-06 0 0)
(-2.2189851 -0.27195901 0 2.2084818e-06 0 0)
(-3.0555389 -0.99473028 0 -0.27567736 0 0)
(-2.2978004 -0.39122185 0 -0.044333584 0 0)
(-2.6840549 -0.37788666 0 -0.022194362 0 0)
(-2.3429885 -0.30719645 0 -0.0092382751 0 0)
(-2.279705 -0.28462722 0 -0.0028960862 0 0)
(-2.1265912 -0.26582134 0 -0.00063563617 0 0)
(-2.1066785 -0.26566832 0 -0.00040009678 0 0)
(-2.062642 -0.26213215 0 -0.00015640414 0 0)
(-2.0837496 -0.26378903 0 -3.8604288e-05 0 0)
(-2.0628255 -0.26209923 0 -3.9055548e-05 0 0)
(-2.0799759 -0.26349475 0 -6.773976e-06 0 0)
(-2.0639481 -0.26212519 0 -2.5657163e-06 0 0)
(-2.0783022 -0.26336493 0 -3.5490432e-06 0 0)
(-2.0648523 -0.26219048 0 4.094861e-06 0 0)
(-2.0773592 -0.263293 0 -4.3976659e-06 0 0)
(-2.0655937 -0.26225623 0 4.2295879e-06 0 0)
(-2.0766256 -0.26323137 0 -4.3134594e-06 0 0)
(-2.0662466 -0.2623145 0 3.8283003e-06 0 0)
(-2.0759872 -0.26317552 0 -3.8333036e-06 0 0)
(-2.0668297 -0.26236623 0 3.4742965e-06 0 0)
(-2.0754228 -0.26312586 0 -3.3822658e-06 0 0)
(-2.0673504 -0.26241243 0 3.1351241e-06 0 0)
(-2.0749219 -0.26308176 0 -3.0033937e-06 0 0)
(-2.0678157 -0.26245374 0 2.8179237e-06 0 0)
(-2.074476 -0.26304248 0 -2.6810568e-06 0 0)
(-2.068232 -0.26249072 0 2.5305314e-06 0 0)
(-2.0740779 -0.26300738 0 -2.4025186e-06 0 0)
(-2.0686053 -0.26252388 0 2.2751132e-06 0 0)
(-2.0737214 -0.26297591 0 -2.1603215e-06 0 0)
(-2.0689406 -0.26255367 0 2.0506856e-06 0 0)
(-2.073401 -0.26294761 0 -1.9497723e-06 0 0)
(-2.0692429 -0.26258052 0 1.8551266e-06 0 0)
(-2.073112 -0.26292207 0 -1.7674977e-06 0 0)
(-2.0695163 -0.26260482 0 1.6860992e-06 0 0)
(-2.0728502 -0.2628989 0 -1.6108248e-06 0 0)
(-2.0697648 -0.2626269 0 1.5414171e-06 0 0)
(-2.0726118 -0.26287779 0 -1.4775631e-06 0 0)
(-2.0699919 -0.2626471 0 1.4191755e-06 0 0)
(-2.0723933 -0.26285843 0 -1.365945e-06 0 0)
(-2.070201 -0.26266569 0 1.3177575e-06 0 0)
(-2.0721916 -0.26284053 0 -1.2747517e-06 0 0)
(-2.0703949 -0.26268294 0 1.2359208e-06 0 0)
(-2.0720038 -0.26282384 0 -1.2022577e-06 0 0)
(-2.0705762 -0.26269908 0 1.1774765e-06 0 0)
(-2.0718268 -0.26280806 0 -1.1368137e-06 0 0)
(-2.0707482 -0.26271434 0 1.1535044e-06 0 0)
(-2.0716618 -0.26279342 0 -1.1370959e-06 0 0)
(-2.0709233 -0.26273117 0 7.7667395e-07 0 0)
(-2.0715186 -0.26278423 0 -2.203598e-06 0 0)
(-2.0711104 -0.262742 0 1.9540268e-06 0 0)
(-3.0776384 -0.94294866 0 -0.24576694 0 0)
(-2.1464162 -0.36858567 0 -0.040893504 0 0)
(-2.5016097 -0.35740381 0 -0.019726861 0 0)
(-2.1901601 -0.29479494 0 -0.008594305 0 0)
(-2.1366407 -0.27410418 0 -0.0025311066 0 0)
(-1.9883707 -0.25652919 0 -0.00060384602 0 0)
(-1.96517 -0.25622306 0 -0.00035487381 0 0)
(-1.9217617 -0.25283204 0 -0.00012707194 0 0)
(-1.9396955 -0.25441734 0 -2.4536363e-05 0 0)
(-1.9208602 -0.25288166 0 -3.4369142e-05 0 0)
(-1.9363256 -0.25421329 0 -2.5932215e-06 0 0)
(-1.9218427 -0.25293608 0 -2.6741963e-06 0 0)
(-1.9348192 -0.25410615 0 -1.9542579e-06 0 0)
(-1.9226556 -0.25300187 0 3.3644478e-06 0 0)
(-1.9339743 -0.25404178 0 -3.3735824e-06 0 0)
(-1.923325 -0.25306473 0 3.4205087e-06 0 0)
(-1.933315 -0.2539846 0 -3.4816062e-06 0 0)
(-1.9239166 -0.25311995 0 3.0683643e-06 0 0)
(-1.9327393 -0.2539322 0 -3.1073656e-06 0 0)
(-1.9244452 -0.25316881 0 2.790609e-06 0 0)
(-1.9322292 -0.25388542 0 -2.7369174e-06 0 0)
(-1.9249169 -0.25321242 0 2.5242383e-06 0 0)
(-1.9317758 -0.25384382 0 -2.4265996e-06 0 0)
(-1.9253382 -0.25325142 0 2.2715835e-06 0 0)
(-1.931372 -0.25380675 0 -2.1642198e-06 0 0)
(-1.9257153 -0.25328633 0 2.0407104e-06 0 0)
(-1.9310113 -0.25377361 0 -1.9382872e-06 0 0)
(-1.9260532 -0.25331763 0 1.834662e-06 0 0)
(-1.9306884 -0.2537439 0 -1.7421079e-06 0 0)
(-1.9263568 -0.25334576 0 1.6532442e-06 0 0)
(-1.9303982 -0.25371718 0 -1.5716145e-06 0 0)
(-1.9266304 -0.25337111 0 1.4949791e-06 0 0)
(-1.9301365 -0.25369305 0 -1.4239777e-06 0 0)
(-1.9268779 -0.25339406 0 1.3580599e-06 0 0)
(-1.9298995 -0.25367117 0 -1.2969944e-06 0 0)
(-1.9271028 -0.25341492 0 1.2407426e-06 0 0)
(-1.9296838 -0.25365123 0 -1.1888713e-06 0 0)
(-1.9273083 -0.25343399 0 1.1414853e-06 0 0)
(-1.9294861 -0.25363293 0 -1.0981625e-06 0 0)
(-1.9274974 -0.25345156 0 1.0589581e-06 0 0)
(-1.9293036 -0.25361602 0 -1.0238864e-06 0 0)
(-1.9276727 -0.25346787 0 9.9208957e-07 0 0)
(-1.9291337 -0.25360024 0 -9.6452736e-07 0 0)
(-1.9278367 -0.25348313 0 9.4454824e-07 0 0)
(-1.9289737 -0.25358531 0 -9.085009e-07 0 0)