/*--------------------------------*- C++ -*----------------------------------*\
| =========                 |                                                 |
| \\      /  F ield         | OpenFOAM: The Open Source CFD Toolbox           |
|  \\    /   O peration     | Version:  2312                                  |
|   \\  /    A nd           | Website:  www.openfoam.com                      |
|    \\/     M anipulation  |                                                 |
\*---------------------------------------------------------------------------*/
FoamFile
{
    version     2.0;
    format      ascii;
    arch        "LSB;label=32;scalar=64";
    class       volScalarField;
    location    "6";
    object      T;
}
// * * * * * * * * * * * * * * * * * * * * * * * * * * * * * * * * * * * * * //

dimensions      [0 0 0 1 0 0 0];

internalField   nonuniform List<scalar> 
4000
(
318.76932
317.84096
317.6569
317.60483
317.54469
317.50374
317.46418
317.42925
317.39539
317.36414
317.33283
317.30345
317.27372
317.24542
317.21681
317.1892
317.1614
317.13427
317.10711
317.08032
317.05365
317.02711
317.00085
316.9745
316.94857
316.92236
316.89672
316.87062
316.84523
316.8192
316.79403
316.76805
316.74308
316.71714
316.69235
316.66643
316.64181
316.61589
316.59144
316.56549
316.54121
316.51523
316.49112
316.46506
316.44116
316.41498
316.39134
316.36493
316.34175
316.31444
320.34378
318.84741
318.35181
318.24396
318.11292
318.03898
317.96932
317.91346
317.86088
317.81604
317.7711
317.73188
317.69167
317.65569
317.61881
317.58492
317.55049
317.51803
317.48548
317.45406
317.423
317.39233
317.36249
317.33237
317.30354
317.27385
317.24588
317.2165
317.18928
317.16013
317.13356
317.10458
317.07861
317.04973
317.0243
316.99547
316.97057
316.94173
316.91733
316.88844
316.86454
316.83552
316.81216
316.78292
316.76017
316.73056
316.70859
316.67829
316.65769
316.62481
321.31594
319.8156
319.04089
318.87861
318.67853
318.572
318.47269
318.39601
318.32494
318.26655
318.20814
318.15907
318.10851
318.06484
318.01977
317.97958
317.93859
317.90079
317.86292
317.82683
317.79145
317.75661
317.72324
317.68934
317.65765
317.62446
317.59418
317.56152
317.53249
317.50021
317.47227
317.44027
317.41332
317.38149
317.35545
317.3237
317.29852
317.26677
317.24243
317.21058
317.18708
317.15502
317.13241
317.09999
317.07839
317.04535
317.02506
316.99087
316.97284
316.93468
321.95901
320.71141
319.7141
319.5026
319.23767
319.09985
318.97199
318.87492
318.78591
318.71412
318.64259
318.58375
318.52307
318.47173
318.41868
318.37219
318.32479
318.28163
318.23857
318.19781
318.15819
318.11918
318.08236
318.04467
318.01018
317.97347
317.94096
317.905
317.87421
317.83879
317.80952
317.77448
317.74659
317.7118
317.68518
317.65051
317.62509
317.59041
317.56615
317.53134
317.50826
317.47316
317.45131
317.41571
317.39527
317.35882
317.34019
317.30216
317.28661
317.24359
322.40468
321.50652
320.35834
320.1077
319.78503
319.61852
319.46408
319.34754
319.24156
319.15674
319.0727
319.00426
318.9339
318.87499
318.81427
318.76153
318.70797
318.65948
318.61143
318.56599
318.5223
318.47913
318.43899
318.3975
318.36032
318.32009
318.28544
318.24617
318.2137
318.17513
318.14461
318.10653
318.07776
318.04
318.01285
317.97525
317.94963
317.91203
317.88789
317.85012
317.82748
317.78933
317.76828
317.7295
317.71024
317.67039
317.65341
317.6116
317.59841
317.55102
322.72287
322.18194
320.96011
320.68429
320.31428
320.12317
319.94514
319.81066
319.68916
319.59201
319.49634
319.41868
319.33926
319.27299
319.20506
319.14619
319.08682
319.03308
318.98031
318.93027
318.88273
318.83541
318.79215
318.74688
318.70717
318.66344
318.62677
318.5842
318.55017
318.50846
318.47677
318.43566
318.40609
318.36537
318.33775
318.29723
318.27146
318.23095
318.20697
318.16626
318.14409
318.10294
318.08268
318.04077
318.02267
317.97949
317.96412
317.91864
317.90761
317.85637
322.95541
322.72995
321.5072
321.22239
320.81856
320.6084
320.41083
320.26067
320.12561
320.01717
319.91109
319.8248
319.73715
319.66388
319.58935
319.5246
319.45989
319.40105
319.34393
319.28938
319.23829
319.18692
319.14076
319.09177
319.04974
319.00255
318.96403
318.9182
318.88274
318.83792
318.80518
318.76107
318.73079
318.68715
318.65914
318.61574
318.58988
318.54648
318.52272
318.4791
318.45744
318.41332
318.39388
318.34889
318.33194
318.28552
318.27168
318.22272
318.21361
318.15904
323.12839
323.1524
321.99069
321.71284
321.29112
321.06862
320.85655
320.69367
320.54756
320.42927
320.31433
320.22023
320.12541
320.04568
319.96533
319.89503
319.82557
319.76189
319.70087
319.642
319.58773
319.53244
319.48368
319.43108
319.38696
319.3364
319.29623
319.24722
319.2105
319.16263
319.12898
319.08193
319.05106
319.00454
318.97624
318.93
318.90413
318.85791
318.83441
318.78795
318.76683
318.71981
318.7012
318.65322
318.6374
318.58786
318.57547
318.52325
318.51578
318.45836
323.25955
323.46004
322.40569
322.14854
321.726
321.49852
321.27774
321.10574
320.95155
320.82524
320.70329
320.60248
320.50178
320.41628
320.33103
320.2557
320.18218
320.11401
320.04965
319.98672
319.92969
319.87068
319.81969
319.76364
319.71772
319.66393
319.62234
319.57026
319.53248
319.48167
319.44726
319.39737
319.36603
319.31673
319.28824
319.23925
319.21345
319.16449
319.14132
319.0921
319.07156
319.02174
319.00396
318.95311
318.93839
318.8859
318.87483
318.81963
318.81351
318.75369
323.36144
323.66961
322.75166
322.52536
322.1185
321.89339
321.67018
321.49313
321.33421
321.20207
321.07524
320.96905
320.86393
320.77357
320.6845
320.60474
320.52799
320.45579
320.38872
320.32208
320.26281
320.20036
320.14753
320.08826
320.04087
319.98402
319.94131
319.88631
319.84769
319.79407
319.75911
319.70648
319.67484
319.62287
319.59431
319.54269
319.51705
319.46547
319.44268
319.39083
319.3709
319.31842
319.30146
319.24792
319.23422
319.17899
319.16912
319.11125
319.1062
319.04437
323.44256
323.80071
323.03182
322.84253
322.46551
322.24962
322.03033
321.85252
321.69243
321.55692
321.42753
321.31752
321.20963
321.11544
321.02377
320.94035
320.86128
320.78561
320.71654
320.64663
320.58569
320.52014
320.46594
320.40373
320.35525
320.29559
320.25204
320.19434
320.15513
320.09889
320.06357
320.00839
319.9766
319.92212
319.89362
319.83951
319.81414
319.76009
319.73775
319.68342
319.66412
319.60916
319.59302
319.53697
319.52424
319.46653
319.45769
319.39748
319.39325
319.32976
323.50941
323.874
323.2526
323.10234
322.76571
322.56489
322.3555
322.18122
322.02357
321.88729
321.75782
321.64568
321.53678
321.43996
321.34699
321.26076
321.18038
321.1019
321.03163
320.95896
320.89697
320.82874
320.77368
320.70886
320.6597
320.59753
320.55348
320.49333
320.45381
320.39518
320.35972
320.30219
320.27043
320.21364
320.18534
320.12894
320.10392
320.04759
320.02576
319.96916
319.95052
319.89328
319.87793
319.81962
319.80778
319.74786
319.73991
319.67771
319.67409
319.60924
323.56595
323.90797
323.42231
323.30951
323.01968
322.83842
322.64415
322.47736
322.32561
322.1912
322.0641
321.95162
321.84352
321.74535
321.65245
321.56439
321.48375
321.4032
321.33256
321.25772
321.19535
321.12492
321.06953
321.00252
320.95312
320.88877
320.8446
320.78229
320.74275
320.682
320.64664
320.58701
320.55548
320.4966
320.46865
320.41017
320.38563
320.32723
320.30599
320.24733
320.22939
320.17011
320.15553
320.09522
320.08419
320.02237
320.01517
319.95133
319.94813
319.88219
323.61532
323.91855
323.55009
323.4705
323.22977
323.07097
322.8959
322.74001
322.59727
322.46722
322.34486
322.23384
322.12833
322.03015
321.93869
321.84982
321.77001
321.6882
321.61804
321.54169
321.47963
321.40754
321.35239
321.28364
321.23446
321.16832
321.12439
321.06028
321.02104
320.95847
320.92347
320.86201
320.83092
320.77022
320.74277
320.68248
320.65851
320.59831
320.57772
320.51727
320.50003
320.43899
320.42516
320.36314
320.35285
320.28945
320.28286
320.21774
320.21483
320.14806
323.65918
323.91735
323.64491
323.59267
323.39983
323.26474
323.11157
322.96922
322.83809
322.71464
322.59916
322.4913
322.39008
322.2932
322.20455
322.1159
322.03799
321.95576
321.88696
321.80979
321.74874
321.67557
321.62123
321.55124
321.50276
321.43527
321.39198
321.32644
321.28781
321.22377
321.18938
321.12643
321.09596
321.03374
321.00696
320.94514
320.92187
320.86014
320.84027
320.77831
320.76182
320.6993
320.6862
320.62279
320.61317
320.54852
320.54244
320.47635
320.47364
320.40629
323.69892
323.91258
323.71492
323.68363
323.53472
323.42304
323.29304
323.166
323.04843
322.93341
322.82664
322.72348
322.62809
322.53378
322.44918
322.3618
322.28682
322.20502
322.13842
322.06113
322.0018
321.92816
321.8752
321.80449
321.75718
321.68879
321.64653
321.57998
321.54229
321.47715
321.44364
321.37954
321.34991
321.2865
321.26054
321.19751
321.17504
321.1121
321.09302
321.02986
321.01413
320.95046
320.93808
320.8736
320.86458
320.79904
320.79337
320.72665
320.72408
320.65636
323.73515
323.90878
323.76704
323.75052
323.63986
323.55
323.44312
323.33221
323.22943
323.12421
323.02759
322.9304
322.84217
322.75155
322.67215
322.58699
322.5159
322.43535
322.37174
322.29505
322.2381
322.1646
322.11359
322.04269
321.99702
321.92822
321.88737
321.82025
321.7838
321.71797
321.68559
321.62071
321.59213
321.52788
321.50289
321.43899
321.41744
321.35362
321.3354
321.27137
321.25643
321.19195
321.18025
321.11506
321.10659
321.04049
321.03517
320.96812
320.96566
320.89782
323.76846
323.90826
323.80676
323.79966
323.72075
323.65019
323.56523
323.4704
323.38294
323.28833
323.20284
323.11264
323.03258
322.94662
322.87337
322.79131
322.72494
322.64642
322.58654
322.51112
322.45717
322.38441
322.33587
322.26533
322.22173
322.15301
322.11394
322.04669
322.0118
321.94568
321.91469
321.84941
321.82207
321.75736
321.73349
321.66908
321.64855
321.58419
321.5669
321.50235
321.48823
321.42327
321.41226
321.34668
321.33874
321.27241
321.2674
321.20032
321.19795
321.13023
323.7991
323.91143
323.83823
323.83627
323.78256
323.72825
323.66318
323.58361
323.51129
323.42763
323.35376
323.27121
323.20006
323.11951
323.05315
322.97494
322.914
322.8382
322.78266
322.70917
322.65876
322.58732
322.54172
322.47206
322.43094
322.36279
322.32584
322.2589
322.22586
322.15987
322.1305
322.06522
322.03931
321.9745
321.95191
321.88734
321.86794
321.8034
321.7871
321.72238
321.7091
321.64401
321.63369
321.56808
321.56063
321.4944
321.48968
321.42285
321.42058
321.35322
323.82736
323.91791
323.86435
323.8644
323.82987
323.7886
323.74086
323.67515
323.61723
323.54432
323.48214
323.40757
323.34573
323.27113
323.21218
323.1384
323.08342
323.01095
322.96026
322.88925
322.84285
322.77327
322.73102
322.66275
322.62447
322.55734
322.52282
322.45664
322.4257
322.36026
322.33271
322.26783
322.24352
322.179
322.15781
322.09346
322.07528
322.01092
321.99566
321.93112
321.91872
321.85385
321.84422
321.7789
321.77194
321.70612
321.70167
321.63538
321.63321
321.56646
323.8534
323.92683
323.88704
323.88702
323.86653
323.83522
323.802
323.74837
323.70368
323.64093
323.59009
323.52351
323.47105
323.40269
323.35143
323.28253
323.23386
323.16519
323.11973
323.0517
323.00966
322.94243
322.90386
322.83744
322.80229
322.73663
322.70481
322.63979
322.61118
322.54669
322.52116
322.45705
322.4345
322.37063
322.35097
322.28718
322.27032
322.20648
322.19234
322.12832
322.11682
322.0525
322.04357
321.97888
321.9724
321.9073
321.90313
321.83764
321.83558
321.76969
323.87743
323.93732
323.90747
323.90616
323.8956
323.8715
323.85004
323.80653
323.77357
323.72008
323.67988
323.62102
323.57774
323.5157
323.47218
323.4084
323.36623
323.30172
323.26172
323.19706
323.15965
323.09517
323.06053
322.99637
322.96459
322.9008
322.87187
322.80842
322.78232
322.71915
322.6958
322.63284
322.61217
322.54931
322.53127
322.46841
322.45292
322.38996
322.37697
322.3138
322.30324
322.2398
322.23158
322.16781
322.16184
322.09773
322.09385
322.02942
322.02749
321.9627
323.89962
323.94864
323.92631
323.92314
323.9194
323.90021
323.88795
323.85259
323.82971
323.78436
323.75388
323.70223
323.66769
323.61182
323.57589
323.51732
323.48166
323.42151
323.38709
323.32609
323.29345
323.23204
323.20151
323.13995
323.1117
323.05013
323.02426
322.96273
322.93927
322.87778
322.85672
322.79525
322.77656
322.71505
322.69871
322.6371
322.62306
322.56129
322.5495
322.4875
322.4779
322.41564
322.40816
322.3456
322.34013
322.27729
322.27372
322.2106
322.20881
322.14535
323.92015
323.96025
323.9439
323.93874
323.93957
323.92349
323.91822
323.88916
323.8747
323.83628
323.81441
323.76931
323.74283
323.69285
323.66415
323.61073
323.58143
323.52574
323.49685
323.4397
323.41187
323.35379
323.32743
323.26875
323.24414
323.18508
323.16237
323.10306
323.08234
323.02284
323.00416
322.94448
322.92785
322.868
322.85341
322.79336
322.78081
322.72053
322.70997
322.64944
322.64082
322.58002
322.57328
322.5122
322.50726
322.44593
322.44268
322.3811
322.37947
322.31757
323.93917
323.97179
323.9604
323.95338
323.95725
323.94296
323.94282
323.91845
323.91081
323.87811
323.86367
323.82434
323.80514
323.7606
323.73863
323.69018
323.66694
323.61569
323.59218
323.53897
323.51588
323.46128
323.43909
323.38349
323.36253
323.30623
323.28671
323.22988
323.21195
323.1547
323.13844
323.08084
323.0663
323.00838
322.9956
322.93738
322.92633
322.86782
322.85851
322.7997
322.79208
322.733
322.72702
322.66767
322.66327
322.60367
322.60077
322.54093
322.53947
322.47934
323.95683
323.98306
323.97588
323.96726
323.97315
323.95973
323.96328
323.94224
323.93999
323.91185
323.90366
323.86928
323.85648
323.81687
323.80102
323.75724
323.73965
323.69272
323.67432
323.62504
323.60653
323.55549
323.53737
323.485
323.46764
323.41427
323.39793
323.34378
323.32864
323.27386
323.26003
323.20473
323.19231
323.13656
323.12557
323.06943
323.05991
323.0034
322.99534
322.9385
322.93189
322.87475
322.86954
322.81213
322.80827
322.75062
322.74807
322.69018
322.6889
322.63073
323.97327
323.99394
323.99037
323.98044
323.98771
323.97458
323.98071
323.96195
323.96382
323.93922
323.93614
323.90591
323.89861
323.86335
323.85294
323.81346
323.80102
323.7582
323.74457
323.69913
323.68496
323.63748
323.62327
323.5742
323.56033
323.51
323.49677
323.44544
323.43304
323.3809
323.36948
323.31667
323.30633
323.25295
323.24376
323.18989
323.18188
323.12758
323.12078
323.0661
323.06049
323.00549
323.00105
322.94577
322.94247
322.88694
322.88475
322.82899
322.82789
322.77186
323.98859
324.0044
324.0039
323.99295
324.00119
323.98802
323.99591
323.97862
323.98357
323.96163
323.96264
323.9358
323.9331
323.9016
323.89592
323.86033
323.8525
323.81351
323.80423
323.76248
323.75234
323.70836
323.69783
323.65206
323.64151
323.59429
323.58403
323.53563
323.52587
323.4765
323.46741
323.41724
323.40893
323.35808
323.35064
323.29921
323.29269
323.24076
323.23519
323.18285
323.17823
323.12553
323.12186
323.06886
323.06612
323.01287
323.01104
322.95756
322.95664
322.9029
324.0029
324.01443
324.01651
324.00478
324.01373
324.00033
324.00942
323.99303
324.00021
323.98023
323.9844
323.96029
323.96134
323.93305
323.93138
323.89924
323.89543
323.85996
323.85457
323.81631
323.80984
323.76924
323.76211
323.71958
323.71214
323.66803
323.66057
323.61515
323.6079
323.56139
323.55452
323.50709
323.50073
323.45252
323.44677
323.39791
323.39282
323.34341
323.33903
323.28916
323.28551
323.23524
323.23232
323.18174
323.17955
323.1287
323.12724
323.07615
323.07542
323.02409
324.01628
324.02402
324.02824
324.0159
324.02539
324.01171
324.02159
324.00572
324.01448
323.99589
324.00246
323.98048
323.98453
323.95891
323.96057
323.93144
323.93107
323.89879
323.89681
323.86178
323.85859
323.82121
323.81716
323.77779
323.7732
323.73216
323.72731
323.68485
323.67996
323.63632
323.63155
323.58691
323.5824
323.53691
323.53277
323.48656
323.48285
323.43604
323.43281
323.38549
323.38278
323.33505
323.33286
323.28479
323.28314
323.23479
323.23368
323.18509
323.18453
323.13571
324.02879
324.03319
324.03912
324.02632
324.0362
324.02226
324.03264
324.01706
324.02688
324.00928
324.0176
323.99729
324.00365
323.98025
323.98459
323.95807
323.96057
323.93114
323.93207
323.90003
323.8997
323.86534
323.86403
323.82768
323.82567
323.7876
323.78512
323.7456
323.74287
323.70209
323.69927
323.65743
323.65465
323.61191
323.60928
323.56577
323.56335
323.5192
323.51706
323.47237
323.47054
323.42541
323.42392
323.37844
323.3773
323.33152
323.33076
323.28473
323.28435
323.23811
324.0405
324.04193
324.04919
324.03603
324.04618
324.03202
324.0427
324.02728
324.03779
324.0209
324.03044
324.01142
324.01952
323.99794
324.00438
323.98009
323.98493
323.95802
323.9614
323.93205
323.93418
323.90263
323.90371
323.87021
323.87047
323.83527
323.83492
323.79824
323.79746
323.75951
323.75846
323.71941
323.71821
323.67822
323.67697
323.63618
323.63496
323.5935
323.59237
323.55034
323.54934
323.50685
323.50602
323.46315
323.46251
323.41934
323.4189
323.37549
323.37526
323.33165
324.05145
324.05022
324.05845
324.04503
324.05534
324.04101
324.05185
324.03655
324.04746
324.03109
324.04145
324.02344
324.03278
324.01269
324.02074
323.99835
324.00503
323.98033
323.9857
323.95879
323.96296
323.93401
323.93712
323.9063
323.90852
323.87604
323.87756
323.84361
323.84458
323.80936
323.8099
323.77357
323.77381
323.73653
323.73654
323.69845
323.69833
323.65954
323.65934
323.61997
323.61974
323.57989
323.57967
323.53944
323.53925
323.4987
323.49857
323.45778
323.45771
323.41673
324.06167
324.05804
324.06693
324.05329
324.06366
324.04923
324.06013
324.04494
324.05606
324.04009
324.05096
324.03375
324.04394
324.02508
324.0343
324.01352
324.02162
323.99885
324.0058
323.98107
323.98691
323.96031
323.96511
323.93677
323.94067
323.91074
323.91386
323.88253
323.88499
323.85241
323.85435
323.82067
323.82216
323.78753
323.78868
323.75323
323.75409
323.71794
323.71858
323.68185
323.68232
323.64509
323.64542
323.6078
323.60803
323.5701
323.57024
323.53207
323.53214
323.49379
324.07115
324.06534
324.0746
324.0608
324.07115
324.0567
324.06757
324.05252
324.06369
324.04808
324.05921
324.04268
324.0534
324.03557
324.04559
324.0262
324.03532
324.01425
324.02239
323.99961
324.00676
323.98229
323.98847
323.96241
323.96768
323.94014
323.9446
323.91573
323.91948
323.88941
323.89253
323.8614
323.86399
323.83192
323.83405
323.80117
323.8029
323.76933
323.77072
323.73655
323.73765
323.703
323.70383
323.66878
323.66938
323.63403
323.63442
323.59883
323.59902
323.56327
324.07984
324.07204
324.08144
324.06754
324.0778
324.06339
324.07417
324.05931
324.07044
324.05517
324.06639
324.05044
324.06145
324.0445
324.05502
324.03682
324.04666
324.02706
324.03608
324.01502
324.02316
324.00063
324.00787
323.9839
323.99026
323.96494
323.97049
323.94392
323.94873
323.92103
323.92516
323.89644
323.89996
323.87035
323.87332
323.84291
323.84539
323.81431
323.81634
323.78468
323.78631
323.75417
323.75544
323.7229
323.72383
323.69099
323.69161
323.65854
323.65885
323.62563
324.08762
324.07803
324.0874
324.07348
324.0836
324.06932
324.07996
324.06535
324.07635
324.06144
324.07261
324.0572
324.06831
324.05214
324.06293
324.04578
324.05605
324.03776
324.04736
324.02784
324.03669
324.01589
324.02392
324.00186
324.00906
323.98578
323.99218
323.96775
323.9734
323.94792
323.95286
323.92643
323.93071
323.90343
323.9071
323.87906
323.88216
323.85346
323.85605
323.82679
323.82889
323.79916
323.8008
323.7707
323.77191
323.74151
323.74231
323.71169
323.71209
323.68133
324.09428
324.0832
324.09244
324.07859
324.08855
324.07448
324.08495
324.07065
324.08147
324.06695
324.07798
324.0631
324.07415
324.0587
324.06957
324.05335
324.06384
324.0467
324.05666
324.0385
324.04781
324.02858
324.03716
324.01682
324.02463
324.0032
324.01025
323.9878
323.99409
323.97068
323.97625
323.95196
323.95684
323.93175
323.93598
323.91018
323.91379
323.88736
323.89039
323.86343
323.86591
323.8385
323.84045
323.81267
323.81412
323.78606
323.78702
323.75875
323.75923
323.73084
324.09955
324.08745
324.09653
324.08288
324.09266
324.07888
324.08917
324.07523
324.08584
324.07175
324.08257
324.06821
324.07912
324.06433
324.07513
324.05976
324.07029
324.05419
324.0643
324.04737
324.05693
324.0391
324.04801
324.02924
324.03745
324.01772
324.02521
324.00457
324.01133
323.98982
323.99586
323.97356
323.97889
323.95585
323.96051
323.93681
323.94082
323.91653
323.91991
323.89512
323.8979
323.87269
323.87489
323.84933
323.85096
323.82513
323.82622
323.8002
323.80074
323.7746
324.10324
324.09069
324.09967
324.08635
324.09596
324.08256
324.09264
324.07914
324.0895
324.07587
324.08645
324.07262
324.08329
324.06915
324.07978
324.06519
324.07562
324.06046
324.07056
324.05474
324.06438
324.04781
324.05688
324.03951
324.04794
324.02976
324.03751
324.01853
324.02558
324.00583
324.01218
323.99171
323.99737
323.97623
323.98119
323.95945
323.96374
323.94147
323.9451
323.92236
323.92536
323.90222
323.9046
323.88114
323.88291
323.8592
323.86038
323.83649
323.83708
323.81308
324.10535
324.09296
324.10192
324.08904
324.0985
324.08556
324.09542
324.08239
324.0925
324.07937
324.08966
324.07638
324.08677
324.07326
324.08363
324.06977
324.08
324.06571
324.07567
324.06085
324.07042
324.05499
324.06406
324.04797
324.05646
324.03967
324.04753
324.03006
324.03726
324.01912
324.02564
324.00686
324.0127
323.99332
323.99848
323.97855
323.98303
323.96262
323.96643
323.94559
323.94874
323.92754
323.93005
323.90855
323.91043
323.88869
323.88994
323.86805
323.86867
323.84668
324.10611
324.09435
324.10335
324.09102
324.10035
324.08792
324.09756
324.08505
324.09488
324.08229
324.09226
324.07955
324.08962
324.07672
324.08678
324.07362
324.08357
324.07008
324.07979
324.06589
324.07527
324.06087
324.06982
324.05488
324.0633
324.04777
324.05561
324.03951
324.04673
324.03004
324.03662
324.01938
324.02529
324.00753
324.01277
323.99452
323.99909
323.9804
323.98431
323.96523
323.96848
323.94907
323.95166
323.93198
323.93392
323.91403
323.91532
323.89529
323.89594
323.87582
324.10589
324.09503
324.10409
324.09238
324.10157
324.0897
324.09911
324.08716
324.0967
324.08467
324.09432
324.08218
324.09189
324.07961
324.08931
324.07682
324.08642
324.07367
324.08307
324.07
324.07911
324.06565
324.07436
324.06046
324.0687
324.05431
324.06202
324.04715
324.05428
324.03892
324.04544
324.0296
324.03549
324.01919
324.02443
324.00771
324.0123
323.99519
323.99912
323.98167
323.98494
323.96719
323.96981
323.95182
323.95378
323.93561
323.93692
323.91861
323.91927
323.90089
324.10513
324.0952
324.10428
324.09322
324.10226
324.09099
324.10015
324.08878
324.09802
324.08656
324.09587
324.08431
324.09365
324.08197
324.09128
324.07944
324.08864
324.0766
324.08561
324.07332
324.08207
324.06946
324.07786
324.06489
324.07286
324.0595
324.06698
324.05322
324.06017
324.046
324.05238
324.0378
324.04358
324.02862
324.03378
324.01845
324.02298
324.00731
324.0112
323.99524
323.99849
323.98226
323.98486
323.96843
323.97038
323.95378
323.95508
323.93837
323.93902
323.92224
324.10414
324.09504
324.10406
324.09364
324.10251
324.09184
324.10075
324.08996
324.09889
324.08801
324.09697
324.08599
324.09494
324.08386
324.09275
324.08153
324.0903
324.07891
324.0875
324.07591
324.08425
324.07242
324.08044
324.06831
324.07594
324.06351
324.07069
324.05792
324.06461
324.05151
324.05767
324.04423
324.04983
324.03607
324.04108
324.02701
324.03142
324.01706
324.02086
324.00625
324.00943
323.99459
323.99714
323.98212
323.98403
323.96887
323.97015
323.95489
323.95553
323.94021
324.10309
324.09469
324.10354
324.09375
324.1024
324.09234
324.10097
324.09077
324.09938
324.08908
324.09766
324.08727
324.0958
324.0853
324.09375
324.08312
324.09143
324.08066
324.08879
324.07785
324.08574
324.0746
324.08219
324.07083
324.07806
324.06645
324.07327
324.0614
324.06777
324.05562
324.0615
324.04909
324.05444
324.04176
324.04657
324.03363
324.03788
324.0247
324.02836
324.01497
324.01804
324.00446
324.00692
323.99319
323.99504
323.98118
323.98242
323.96848
323.9691
323.95511
324.10204
324.09424
324.10283
324.09361
324.10202
324.09254
324.10088
324.09125
324.09952
324.0898
324.098
324.08816
324.09628
324.08633
324.09432
324.08425
324.09208
324.08188
324.08952
324.07918
324.08658
324.07608
324.0832
324.07253
324.07931
324.06844
324.07485
324.06378
324.06978
324.05849
324.06404
324.05254
324.0576
324.04589
324.05045
324.03853
324.04256
324.03044
324.03393
324.02164
324.02456
324.01211
324.01447
324.00189
324.00366
323.99099
323.99217
323.97942
323.98002
323.96723
324.10102
324.09374
324.10198
324.09331
324.10142
324.09251
324.10053
324.09147
324.09939
324.09021
324.09802
324.08872
324.09639
324.08697
324.09449
324.08494
324.09227
324.08259
324.08971
324.07992
324.08681
324.07689
324.08351
324.07345
324.07976
324.06955
324.07552
324.06515
324.07074
324.06022
324.0654
324.05471
324.05945
324.0486
324.05287
324.04186
324.04564
324.03448
324.03776
324.02645
324.02921
324.01778
324.02
324.00846
324.01014
323.99852
323.99964
323.98797
323.98853
323.97682
324.10001
324.09322
324.10106
324.09288
324.10068
324.0923
324.09998
324.09146
324.099
324.09035
324.09774
324.08895
324.09617
324.08724
324.09426
324.08519
324.092
324.0828
324.08939
324.08009
324.08645
324.07705
324.08315
324.07364
324.07945
324.06983
324.07532
324.06559
324.07075
324.0609
324.06569
324.05572
324.06011
324.05002
324.05398
324.04378
324.04729
324.03697
324.04002
324.02959
324.03216
324.02164
324.02371
324.01311
324.01467
324.004
324.00505
323.99434
323.99487
323.98412
324.09899
324.09269
324.10007
324.09237
324.09981
324.09195
324.09927
324.09125
324.09841
324.09025
324.0972
324.08888
324.09561
324.08713
324.09363
324.085
324.09127
324.08251
324.08855
324.07969
324.0855
324.07656
324.08212
324.0731
324.0784
324.0693
324.07431
324.06514
324.06984
324.0606
324.06497
324.05565
324.05966
324.05025
324.05388
324.0444
324.04762
324.03805
324.04086
324.03121
324.03358
324.02386
324.02577
324.016
324.01744
324.00762
324.00859
323.99874
323.99922
323.98935
324.09795
324.09215
324.09905
324.09179
324.09886
324.09149
324.09843
324.09088
324.09763
324.08991
324.0964
324.0885
324.09472
324.08664
324.0926
324.08436
324.09007
324.0817
324.08717
324.07871
324.08396
324.07542
324.08044
324.07185
324.07662
324.06799
324.07251
324.06383
324.06807
324.05936
324.06331
324.05455
324.05818
324.04938
324.05266
324.04381
324.04674
324.03784
324.04039
324.03144
324.03359
324.0246
324.02633
324.0173
324.01862
324.00955
324.01043
324.00134
324.00179
323.99268
324.0969
324.09161
324.09799
324.09117
324.09786
324.09093
324.09748
324.09036
324.09666
324.08934
324.09534
324.0878
324.09349
324.08575
324.09114
324.08323
324.08837
324.08033
324.08523
324.07711
324.08179
324.07362
324.07808
324.06988
324.07412
324.0659
324.06992
324.06168
324.06546
324.05722
324.06074
324.05248
324.05572
324.04746
324.0504
324.04211
324.04473
324.03643
324.03871
324.03038
324.03231
324.02396
324.02552
324.01715
324.01833
324.00993
324.01073
324.00231
324.00271
323.99428
324.09581
324.09106
324.09691
324.09051
324.0968
324.0903
324.09642
324.08969
324.09551
324.08852
324.09399
324.08675
324.09187
324.08441
324.08922
324.08159
324.08613
324.07838
324.08269
324.07487
324.07898
324.07112
324.07503
324.06717
324.07088
324.06303
324.06655
324.0587
324.06202
324.05419
324.05729
324.04948
324.05234
324.04454
324.04714
324.03935
324.04167
324.03389
324.03592
324.02813
324.02985
324.02206
324.02345
324.01565
324.0167
324.0089
324.00961
324.00179
324.00215
323.99432
324.09469
324.0905
324.09579
324.08982
324.0957
324.08958
324.09526
324.08884
324.09415
324.08743
324.09231
324.08531
324.08982
324.08259
324.08678
324.07938
324.08331
324.0758
324.07951
324.07195
324.07548
324.0679
324.07126
324.06369
324.06689
324.05935
324.06239
324.05489
324.05775
324.0503
324.05298
324.04557
324.04804
324.04068
324.04293
324.03559
324.03761
324.0303
324.03207
324.02477
324.02627
324.01899
324.0202
324.01292
324.01385
324.00657
324.00719
323.99991
324.00022
323.99293
324.09352
324.08993
324.09465
324.08909
324.09455
324.08878
324.09397
324.0878
324.09253
324.086
324.09026
324.08343
324.08729
324.08022
324.08377
324.07654
324.07985
324.07253
324.07565
324.0683
324.07125
324.06392
324.06673
324.05943
324.06212
324.05487
324.05743
324.05024
324.05266
324.04555
324.04782
324.04077
324.04288
324.03589
324.03781
324.03088
324.03261
324.02571
324.02723
324.02037
324.02166
324.01482
324.01587
324.00905
324.00985
324.00304
324.00358
323.99677
323.99704
323.99023
324.09229
324.08935
324.09347
324.08834
324.09334
324.08787
324.09251
324.08651
324.0906
324.08418
324.08776
324.08102
324.08419
324.07723
324.08012
324.07301
324.07568
324.06852
324.07104
324.06387
324.06626
324.05913
324.06142
324.05435
324.05655
324.04956
324.05166
324.04475
324.04675
324.03994
324.04182
324.0351
324.03685
324.0302
324.03182
324.02524
324.02669
324.02017
324.02145
324.01498
324.01607
324.00964
324.01053
324.00412
324.0048
323.99841
323.99887
323.99248
323.99271
323.98632
324.09101
324.08877
324.09225
324.08755
324.09206
324.0868
324.09082
324.08488
324.08827
324.08186
324.08471
324.07799
324.08045
324.07353
324.07573
324.06872
324.07075
324.06371
324.06563
324.05862
324.06046
324.05351
324.05529
324.04843
324.05015
324.0434
324.04506
324.03842
324.04001
324.03348
324.03499
324.02856
324.02998
324.02365
324.02496
324.01872
324.01991
324.01373
324.01478
324.00867
324.00957
324.0035
324.00424
323.9982
323.99876
323.99275
323.99313
323.98713
323.98732
323.98131
324.08965
324.08818
324.091
324.08671
324.09064
324.08551
324.08883
324.08283
324.08544
324.07895
324.08101
324.07424
324.07595
324.06904
324.07055
324.06358
324.06498
324.05803
324.05937
324.05249
324.05379
324.04702
324.0483
324.04164
324.04291
324.03638
324.03763
324.03123
324.03244
324.02617
324.02734
324.02118
324.02229
324.01625
324.01728
324.01134
324.01228
324.00642
324.00726
324.00147
324.0022
323.99646
323.99706
323.99136
323.99182
323.98615
323.98646
323.9808
323.98096
323.97529
324.0882
324.08763
324.08969
324.0858
324.08904
324.0839
324.0864
324.08023
324.08197
324.07531
324.07654
324.06967
324.07061
324.06365
324.06447
324.05752
324.0583
324.05142
324.0522
324.04544
324.04624
324.03962
324.04044
324.03397
324.03481
324.02849
324.02935
324.02318
324.02404
324.01802
324.01887
324.01297
324.01379
324.00802
324.0088
324.00314
324.00386
323.99829
323.99894
323.99345
323.99401
323.98858
323.98904
323.98366
323.98402