/*--------------------------------*- C++ -*----------------------------------*\
| =========                 |                                                 |
| \\      /  F ield         | OpenFOAM: The Open Source CFD Toolbox           |
|  \\    /   O peration     | Version:  2312                                  |
|   \\  /    A nd           | Website:  www.openfoam.com                      |
|    \\/     M anipulation  |                                                 |
\*---------------------------------------------------------------------------*/
FoamFile
{
    version     2.0;
    format      ascii;
    arch        "LSB;label=32;scalar=64";
    class       surfaceScalarField;
    location    "4";
    object      phi;
}
// * * * * * * * * * * * * * * * * * * * * * * * * * * * * * * * * * * * * * //

dimensions      [0 3 -1 0 0 0 0];

oriented        oriented;

internalField   nonuniform List<scalar> 
7870
(
1.312566e-10
2.8169934e-09
1.3353126e-10
-2.2746617e-12
1.128427e-10
2.0688558e-11
1.1390839e-10
-1.0656885e-12
1.1436629e-10
-4.5790513e-13
1.1286691e-10
1.4993797e-12
1.1381134e-10
-9.4443469e-13
1.1264537e-10
1.1659675e-12
1.1369684e-10
-1.0514658e-12
1.1266911e-10
1.0277211e-12
1.1363167e-10
-9.625629e-13
1.127165e-10
9.1517507e-13
1.1357617e-10
-8.5967479e-13
1.127631e-10
8.1307054e-13
1.1352851e-10
-7.654043e-13
1.1280558e-10
7.2292508e-13
1.1348732e-10
-6.8173602e-13
1.128434e-10
6.4392019e-13
1.1345137e-10
-6.0796956e-13
1.1287682e-10
5.745487e-13
1.1341983e-10
-5.4300718e-13
1.1290628e-10
5.1355424e-13
1.1339212e-10
-4.858429e-13
1.1293218e-10
4.5994146e-13
1.1336779e-10
-4.3561654e-13
1.129549e-10
4.1289474e-13
1.1334649e-10
-3.9159223e-13
1.1297477e-10
3.7172397e-13
1.133279e-10
-3.5313394e-13
1.1299207e-10
3.3583404e-13
1.1331176e-10
-3.1968824e-13
1.1300705e-10
3.0470751e-13
1.1329782e-10
-2.9077276e-13
1.1301993e-10
2.7789435e-13
1.132859e-10
-2.6596853e-13
1.1303089e-10
2.5500492e-13
1.1327581e-10
-2.449142e-13
1.130401e-10
2.3570493e-13
1.132674e-10
-2.2730151e-13
1.1304769e-10
2.1971099e-13
1.1326056e-10
-2.1287153e-13
1.1305378e-10
2.0678783e-13
1.1325518e-10
-2.0140715e-13
1.1305843e-10
1.9675712e-13
1.1325115e-10
-1.9272089e-13
1.1306174e-10
1.8941086e-13
1.1324894e-10
-1.8720444e-13
1.1306645e-10
1.8249041e-13
1.1325735e-10
-1.9090148e-13
1.7577012e-13
3.5044105e-10
5.4148023e-09
3.8088779e-10
-3.2721393e-11
3.3014665e-10
7.1429679e-11
3.3072416e-10
-1.6431947e-12
3.3097746e-10
-7.1122016e-13
3.2855977e-10
3.917073e-12
3.2950206e-10
-1.8867269e-12
3.2780487e-10
2.8631547e-12
3.2926628e-10
-2.5128835e-12
3.2779297e-10
2.50103e-12
3.2917052e-10
-2.3401196e-12
3.278508e-10
2.234896e-12
3.2908799e-10
-2.0968616e-12
3.2791423e-10
1.9868272e-12
3.2901776e-10
-1.8689339e-12
3.2797424e-10
1.7664451e-12
3.2895785e-10
-1.6653399e-12
3.2802841e-10
1.5733559e-12
3.2890586e-10
-1.4854107e-12
3.2807655e-10
1.4038578e-12
3.2886033e-10
-1.3267903e-12
3.2811906e-10
1.2548286e-12
3.2882036e-10
-1.1871436e-12
3.2815647e-10
1.123828e-12
3.2878528e-10
-1.0644197e-12
3.2818931e-10
1.0088672e-12
3.2875456e-10
-9.5684136e-13
3.2821802e-10
9.0826344e-13
3.2872774e-10
-8.6286193e-13
3.2824302e-10
8.2056369e-13
3.2870446e-10
-7.8113104e-13
3.2826466e-10
7.4450334e-13
3.2868436e-10
-7.1046976e-13
3.2828327e-10
6.7898183e-13
3.2866716e-10
-6.4985337e-13
3.2829912e-10
6.2304607e-13
3.286526e-10
-5.9839789e-13
3.2831243e-10
5.7587823e-13
3.2864047e-10
-5.5534899e-13
3.283234e-10
5.3678465e-13
3.286306e-10
-5.2007317e-13
3.283322e-10
5.0518844e-13
3.2862283e-10
-4.9203596e-13
3.2833892e-10
4.8066518e-13
3.2861693e-10
-4.7073011e-13
3.2834358e-10
4.6276527e-13
3.2861362e-10
-4.5725021e-13
3.283516e-10
4.4451037e-13
3.2863454e-10
-4.7383968e-13
4.2838799e-13
5.6300353e-10
7.8000488e-09
6.1571027e-10
-8.5428121e-11
5.4124747e-10
1.4589246e-10
5.421282e-10
-2.5239202e-12
5.4162324e-10
-2.0627447e-13
5.3898136e-10
6.5589493e-12
5.3932366e-10
-2.2290234e-12
5.3772036e-10
4.4664452e-12
5.3902854e-10
-3.8210716e-12
5.376536e-10
3.8759729e-12
5.389402e-10
-3.6267253e-12
5.3769475e-10
3.4803477e-12
5.388595e-10
-3.261616e-12
5.3774969e-10
3.0966384e-12
5.3879129e-10
-2.9105341e-12
5.3780474e-10
2.7529989e-12
5.3873404e-10
-2.5946402e-12
5.3785543e-10
2.4519763e-12
5.3868475e-10
-2.3147306e-12
5.3790079e-10
2.1878122e-12
5.386417e-10
-2.0676976e-12
5.3794098e-10
1.9555571e-12
5.3860394e-10
-1.8501083e-12
5.3797638e-10
1.7513928e-12
5.3857081e-10
-1.6588491e-12
5.3800745e-10
1.5722235e-12
5.3854179e-10
-1.4911823e-12
5.3803463e-10
1.4154302e-12
5.3851647e-10
-1.3447079e-12
5.3805829e-10
1.2787491e-12
5.3849448e-10
-1.2173236e-12
5.3807878e-10
1.160208e-12
5.384755e-10
-1.107191e-12
5.3809639e-10
1.0580896e-12
5.3845925e-10
-1.012711e-12
5.3811139e-10
9.7090662e-13
5.3844549e-10
-9.3250426e-13
5.3812399e-10
8.973827e-13
5.3843403e-10
-8.6539295e-13
5.3813438e-10
8.3643439e-13
5.384247e-10
-8.1038783e-13
5.3814273e-10
7.8715861e-13
5.3841734e-10
-7.6664785e-13
5.381491e-10
7.4891091e-13
5.3841166e-10
-7.3329896e-13
5.3815337e-10
7.2106428e-13
5.3840845e-10
-7.1233155e-13
5.3816286e-10
6.9009511e-13
5.3844018e-10
-7.5115715e-13
6.659833e-13
7.603246e-10
9.9879742e-09
8.3890423e-10
-1.6400774e-10
7.4639803e-10
2.3839863e-10
7.4780054e-10
-3.926428e-12
7.4665037e-10
9.4388747e-13
7.4378272e-10
9.4266021e-12
7.4359143e-10
-2.0377402e-12
7.420991e-10
5.9587703e-12
7.4326142e-10
-4.9834015e-12
7.4199155e-10
5.1458426e-12
7.4318629e-10
-4.8214643e-12
7.4201852e-10
4.6481134e-12
7.431084e-10
-4.3514935e-12
7.4206549e-10
4.1395485e-12
7.4304251e-10
-3.8875524e-12
7.4211563e-10
3.6798816e-12
7.4298808e-10
-3.4670951e-12
7.4216274e-10
3.2773179e-12
7.429416e-10
-3.0935802e-12
7.4220523e-10
2.9241798e-12
7.4290113e-10
-2.7635934e-12
7.4224296e-10
2.6137282e-12
7.4286566e-10
-2.4728119e-12
7.4227622e-10
2.3408292e-12
7.4283455e-10
-2.2171759e-12
7.4230543e-10
2.1013429e-12
7.4280732e-10
-1.9930635e-12
7.4233098e-10
1.8917691e-12
7.4278355e-10
-1.7972775e-12
7.4235322e-10
1.7090804e-12
7.427629e-10
-1.6270091e-12
7.4237247e-10
1.5506378e-12
7.4274508e-10
-1.4797987e-12
7.4238903e-10
1.414143e-12
7.4272982e-10
-1.3535064e-12
7.4240312e-10
1.2976053e-12
7.427169e-10
-1.2462855e-12
7.4241497e-10
1.1993159e-12
7.4270614e-10
-1.156559e-12
7.4242475e-10
1.1178234e-12
7.4269736e-10
-1.0830013e-12
7.4243261e-10
1.0519138e-12
7.4269044e-10
-1.0244768e-12
7.424386e-10
1.0007447e-12
7.42685e-10
-9.7969757e-13
7.4244247e-10
9.6359288e-13
7.4268173e-10
-9.5158663e-13
7.4245275e-10
9.1907324e-13
7.4272171e-10
-1.0201127e-12
8.8844423e-13
9.5137723e-10
1.1984847e-08
1.0528394e-09
-2.6546987e-10
9.4560797e-10
3.4563002e-10
9.4779233e-10
-6.110787e-12
9.4603624e-10
2.6999657e-12
9.4294483e-10
1.2518014e-11
9.4230103e-10
-1.3939478e-12
9.4094101e-10
7.318781e-12
9.4196477e-10
-6.0071616e-12
9.4080641e-10
6.3041983e-12
9.4190851e-10
-5.9235706e-12
9.4082169e-10
5.7349399e-12
9.4183439e-10
-5.3641923e-12
9.4086123e-10
5.1127011e-12
9.4177115e-10
-4.797467e-12
9.4090654e-10
4.5444891e-12
9.4171975e-10
-4.2802953e-12
9.4095004e-10
4.0470252e-12
9.4167621e-10
-3.8197461e-12
9.4098955e-10
3.610841e-12
9.4163843e-10
-3.4124772e-12
9.4102472e-10
3.2274423e-12
9.4160537e-10
-3.0534603e-12
9.4105576e-10
2.8904391e-12
9.4157638e-10
-2.7377962e-12
9.4108302e-10
2.5947082e-12
9.41551e-10
-2.4610511e-12
9.4110685e-10
2.3359231e-12
9.4152886e-10
-2.219287e-12
9.411276e-10
2.110341e-12
9.4150963e-10
-2.0090349e-12
9.4114557e-10
1.9146987e-12
9.4149302e-10
-1.8272547e-12
9.4116101e-10
1.7461547e-12
9.4147881e-10
-1.6713004e-12
9.4117416e-10
1.6022469e-12
9.4146677e-10
-1.5388882e-12
9.4118522e-10
1.4808622e-12
9.4145673e-10
-1.428067e-12
9.4119435e-10
1.3802036e-12
9.4144854e-10
-1.3371957e-12
9.4120169e-10
1.2987631e-12
9.4144207e-10
-1.2648576e-12
9.412073e-10
1.2355193e-12
9.4143691e-10
-1.2093095e-12
9.4121076e-10
1.1897414e-12
9.4143353e-10
-1.1743544e-12
9.4122137e-10
1.1312302e-12
9.4147963e-10
-1.2783678e-12
1.094209e-12
1.1376445e-09
1.3795452e-08
1.2542823e-09
-3.8210769e-10
1.1388392e-09
4.6107312e-10
1.1421808e-09
-9.4524548e-12
1.1397575e-09
5.1233225e-12
1.1364697e-09
1.5805772e-11
1.1354526e-09
-3.7681836e-13
1.1342479e-09
8.5234732e-12
1.1351399e-09
-6.8991772e-12
1.1340982e-09
7.3458362e-12
1.1351075e-09
-6.9327913e-12
1.1341041e-09
6.738309e-12
1.1350379e-09
-6.297954e-12
1.1341367e-09
6.0138125e-12
1.1349775e-09
-5.6382708e-12
1.1341773e-09
5.3447337e-12
1.1349293e-09
-5.0323135e-12
1.1342171e-09
4.7592158e-12
1.1348888e-09
-4.4914595e-12
1.1342536e-09
4.2461072e-12
1.1348539e-09
-4.0127545e-12
1.1342861e-09
3.7951907e-12
1.1348233e-09
-3.5906267e-12
1.1343148e-09
3.3988766e-12
1.1347965e-09
-3.2194361e-12
1.1343401e-09
3.0511183e-12
1.134773e-09
-2.8940075e-12
1.1343621e-09
2.7468183e-12
1.1347526e-09
-2.609718e-12
1.1343813e-09
2.4815685e-12
1.1347348e-09
-2.3624872e-12
1.134398e-09
2.2515256e-12
1.1347195e-09
-2.1487361e-12
1.1344123e-09
2.0533436e-12
1.1347063e-09
-1.9653488e-12
1.1344244e-09
1.8841235e-12
1.1346952e-09
-1.8096365e-12
1.1344347e-09
1.7413768e-12
1.1346859e-09
-1.6792999e-12
1.1344431e-09
1.622985e-12
1.1346783e-09
-1.5724044e-12
1.1344499e-09
1.5271631e-12
1.1346723e-09
-1.4872677e-12
1.1344551e-09
1.4527282e-12
1.1346675e-09
-1.4216572e-12
1.1344582e-09
1.3990353e-12
1.134664e-09
-1.3801447e-12
1.1344688e-09
1.3264273e-12
1.1347143e-09
-1.5239127e-12
1.281974e-12
1.3050893e-09
1.5438613e-08
1.4474013e-09
-5.2441969e-10
1.3264745e-09
5.8199988e-10
1.3308395e-09
-1.3817432e-11
1.3277651e-09
8.1976929e-12
1.3243479e-09
1.9223025e-11
1.3230404e-09
9.3066541e-13
1.3220187e-09
9.5451691e-12
1.3227868e-09
-7.6672616e-12
1.3218665e-09
8.266122e-12
1.3227834e-09
-7.8496883e-12
1.3218654e-09
7.6563031e-12
1.3227191e-09
-7.1516589e-12
1.3218917e-09
6.841177e-12
1.322662e-09
-6.4085299e-12
1.3219276e-09
6.0790759e-12
1.3226171e-09
-5.7217491e-12
1.3219638e-09
5.4125123e-12
1.3225798e-09
-5.1074331e-12
1.3219971e-09
4.8287491e-12
1.3225476e-09
-4.5632661e-12
1.3220269e-09
4.3158783e-12
1.3225196e-09
-4.0832756e-12
1.3220533e-09
3.8651663e-12
1.322495e-09
-3.6611719e-12
1.3220765e-09
3.4697033e-12
1.3224736e-09
-3.2911076e-12
1.3220967e-09
3.1236768e-12
1.3224548e-09
-2.9678321e-12
1.3221143e-09
2.8220649e-12
1.3224385e-09
-2.6867024e-12
1.3221296e-09
2.5604898e-12
1.3224245e-09
-2.4436442e-12
1.3221427e-09
2.3351416e-12
1.3224124e-09
-2.2351096e-12
1.3221538e-09
2.1427193e-12
1.3224022e-09
-2.0580369e-12
1.3221632e-09
1.9803891e-12
1.3223937e-09
-1.9098067e-12
1.322171e-09
1.8457359e-12
1.3223868e-09
-1.7882128e-12
1.3221772e-09
1.7367161e-12
1.3223813e-09
-1.6913248e-12
1.322182e-09
1.6520011e-12
1.3223768e-09
-1.616396e-12
1.3221847e-09
1.5911259e-12
1.3223731e-09
-1.5686179e-12
1.322195e-09
1.5045973e-12
1.3224261e-09
-1.7550492e-12
1.4509976e-12
1.4821395e-09
1.6904724e-08
1.6275689e-09
-6.6984904e-10
1.5079648e-09
7.0160394e-10
1.5136231e-09
-1.9475791e-11
1.5100993e-09
1.172151e-11
1.5066105e-09
2.2711862e-11
1.5050768e-09
2.4642973e-12
1.504259e-09
1.0362985e-11
1.5049083e-09
-8.3165536e-12
1.5041118e-09
9.062589e-12
1.5049369e-09
-8.6748023e-12
1.5041055e-09
8.4877956e-12
1.5048784e-09
-7.9246116e-12
1.5041259e-09
7.5936411e-12
1.5048247e-09
-7.107292e-12
1.5041573e-09
6.7464678e-12
1.5047832e-09
-6.3476633e-12
1.5041898e-09
6.0059856e-12
1.5047491e-09
-5.6668045e-12
1.5042199e-09
5.3579432e-12
1.5047199e-09
-5.0632377e-12
1.504247e-09
4.7887746e-12
1.5046945e-09
-4.5307163e-12
1.504271e-09
4.2886591e-12
1.5046722e-09
-4.0623884e-12
1.504292e-09
3.8498844e-12
1.5046527e-09
-3.6518021e-12
1.5043104e-09
3.4659809e-12
1.5046357e-09
-3.2931366e-12
1.5043264e-09
3.131365e-12
1.5046209e-09
-2.9812373e-12
1.5043403e-09
2.8411717e-12
1.5046082e-09
-2.7115785e-12
1.5043522e-09
2.5911685e-12
1.5045973e-09
-2.4802191e-12
1.5043623e-09
2.3776883e-12
1.504588e-09
-2.2837582e-12
1.5043708e-09
2.197583e-12
1.5045803e-09
-2.1192838e-12
1.5043779e-09
2.0481661e-12
1.504574e-09
-1.9843417e-12
1.5043836e-09
1.9271551e-12
1.504569e-09
-1.8767722e-12
1.5043879e-09
1.8330897e-12
1.5045648e-09
-1.7932988e-12
1.5043902e-09
1.7657768e-12
1.5045611e-09
-1.7395636e-12
1.5044e-09
1.6657383e-12
1.5046153e-09
-1.9703533e-12
1.6009697e-12
1.6252096e-09
1.8227764e-08
1.7992186e-09
-8.4385809e-10
1.6836127e-09
8.1720979e-10
1.6893608e-09
-2.5223868e-11
1.6865714e-09
1.4510887e-11
1.6832274e-09
2.6055836e-11
1.6815582e-09
4.1335234e-12
1.6809688e-09
1.0952427e-11
1.6815052e-09
-8.8529783e-12
1.6808342e-09
9.7335591e-12
1.6815685e-09
-9.4090669e-12
1.6808241e-09
9.2321633e-12
1.6815161e-09
-8.616563e-12
1.6808392e-09
8.2705063e-12
1.681466e-09
-7.7340476e-12
1.6808661e-09
7.3462922e-12
1.681428e-09
-6.9095306e-12
1.6808949e-09
6.5391022e-12
1.6813972e-09
-6.169087e-12
1.6809219e-09
5.8332232e-12
1.6813709e-09
-5.5122328e-12
1.6809462e-09
5.2134693e-12
1.681348e-09
-4.9325611e-12
1.6809677e-09
4.668992e-12
1.6813281e-09
-4.4227406e-12
1.6809866e-09
4.1913385e-12
1.6813106e-09
-3.9757828e-12
1.6810031e-09
3.7734411e-12
1.6812953e-09
-3.5853551e-12
1.6810175e-09
3.4092083e-12
1.6812821e-09
-3.2458424e-12
1.6810299e-09
3.0933356e-12
1.6812707e-09
-2.952313e-12
1.6810406e-09
2.8212099e-12
1.6812609e-09
-2.7004718e-12
1.6810497e-09
2.588835e-12
1.6812526e-09
-2.4866124e-12
1.6810574e-09
2.3927793e-12
1.6812457e-09
-2.3075591e-12
1.6810637e-09
2.2301115e-12
1.68124e-09
-2.1606332e-12
1.6810689e-09
2.0983295e-12
1.6812355e-09
-2.0434657e-12
1.6810728e-09
1.9958552e-12
1.6812317e-09
-1.9522444e-12
1.6810747e-09
1.9228524e-12
1.681228e-09
-1.8928839e-12
1.6810838e-09
1.8099083e-12
1.6812821e-09
-2.1686451e-12
1.7318837e-12
1.7942886e-09
1.9381725e-08
1.9605696e-09
-1.0101391e-09
1.8534254e-09
9.2435393e-10
1.8576236e-09
-2.9422033e-11
1.8570067e-09
1.5127792e-11
1.8541868e-09
2.887572e-11
1.8524829e-09
5.8374397e-12
1.8521487e-09
1.1286583e-11
1.8525783e-09
-9.2826056e-12
1.8520338e-09
1.0278141e-11
1.8526783e-09
-1.0053652e-11
1.8520212e-09
9.8892843e-12
1.8526323e-09
-9.2276376e-12
1.8520313e-09
8.8715067e-12
1.8525859e-09
-8.2886819e-12
1.8520539e-09
7.8783276e-12
1.8525516e-09
-7.4071972e-12
1.852079e-09
7.0116871e-12
1.852524e-09
-6.6141324e-12
1.8521028e-09
6.2544448e-12
1.8525007e-09
-5.9101192e-12
1.8521243e-09
5.5898398e-12
1.8524805e-09
-5.2886936e-12
1.8521434e-09
5.0060582e-12
1.8524628e-09
-4.7421256e-12
1.8521602e-09
4.4939711e-12
1.8524473e-09
-4.262958e-12
1.8521748e-09
4.0459724e-12
1.8524338e-09
-3.8444046e-12
1.8521875e-09
3.6555174e-12
1.8524221e-09
-3.4804423e-12
1.8521986e-09
3.3169105e-12
1.852412e-09
-3.1657786e-12
1.852208e-09
3.0252008e-12
1.8524034e-09
-2.8958041e-12
1.8522161e-09
2.7760993e-12
1.852396e-09
-2.6665412e-12
1.8522229e-09
2.5659227e-12
1.8523899e-09
-2.4745791e-12
1.8522285e-09
2.3915214e-12
1.8523849e-09
-2.3170388e-12
1.852233e-09
2.2501943e-12
1.8523809e-09
-2.1913629e-12
1.8522365e-09
2.1402577e-12
1.8523775e-09
-2.0932068e-12
1.852238e-09
2.0623096e-12
1.8523737e-09
-2.0285811e-12
1.8522464e-09
1.9372236e-12
1.8524267e-09
-2.3489675e-12
1.8439651e-12
1.9176167e-09
2.0412359e-08
2.1134519e-09
-1.2059743e-09
2.0174271e-09
1.0203787e-09
2.0198972e-09
-3.1892072e-11
2.0216084e-09
1.3416563e-11
2.0195427e-09
3.0941359e-11
2.0178707e-09
7.5095145e-12
2.0178053e-09
1.1351907e-11
2.0181304e-09
-9.6077216e-12
2.0177112e-09
1.0697407e-11
2.0182671e-09
-1.0609569e-11
2.0176967e-09
1.0459626e-11
2.0182274e-09
-9.7582616e-12
2.0177021e-09
9.3967959e-12
2.0181848e-09
-8.7714368e-12
2.0177204e-09
8.3427202e-12
2.0181541e-09
-7.8408485e-12
2.0177419e-09
7.4238927e-12
2.0181299e-09
-7.0020999e-12
2.0177626e-09
6.6217557e-12
2.0181095e-09
-6.2570395e-12
2.0177813e-09
5.9180235e-12
2.0180918e-09
-5.5992425e-12
2.0177979e-09
5.2999827e-12
2.0180765e-09
-5.0206594e-12
2.0178125e-09
4.7578942e-12
2.018063e-09
-4.513431e-12
2.0178253e-09
4.2836746e-12
2.0180513e-09
-4.0703773e-12
2.0178364e-09
3.8703809e-12
2.0180411e-09
-3.6851187e-12
2.017846e-09
3.5119751e-12
2.0180323e-09
-3.352048e-12
2.0178543e-09
3.203211e-12
2.0180248e-09
-3.0662811e-12
2.0178613e-09
2.9395439e-12
2.0180184e-09
-2.8236033e-12
2.0178672e-09
2.7170704e-12
2.0180131e-09
-2.6203979e-12
2.0178721e-09
2.5324489e-12
2.0180087e-09
-2.4536094e-12
2.0178761e-09
2.3828007e-12
2.0180052e-09
-2.3205141e-12
2.0178791e-09
2.2663481e-12
2.0180022e-09
-2.2162472e-12
2.0178803e-09
2.1841896e-12
2.0179985e-09
-2.1467467e-12
2.0178878e-09
2.0478553e-12
2.0180494e-09
-2.5105675e-12
1.9376255e-12
2.0785944e-09
2.1282014e-08
2.2566621e-09
-1.3840421e-09
2.1749098e-09
1.102131e-09
2.1776342e-09
-3.461646e-11
2.180503e-09
1.0547764e-11
2.1793433e-09
3.2101089e-11
2.1777336e-09
9.1191942e-12
2.1779411e-09
1.114441e-11
2.178162e-09
-9.8286174e-12
2.1778661e-09
1.0993211e-11
2.1783347e-09
-1.1078176e-11
2.1778504e-09
1.0943942e-11
2.1783014e-09
-1.0209257e-11
2.1778514e-09
9.8468597e-12
2.1782628e-09
-9.1829043e-12
2.1778656e-09
8.7399412e-12
2.1782357e-09
-8.2109819e-12
2.1778835e-09
7.7761665e-12
2.1782148e-09
-7.3334271e-12
2.177901e-09
6.9355665e-12
2.1781973e-09
-6.5533841e-12
2.177917e-09
6.1983915e-12
2.1781823e-09
-5.8645572e-12
2.1779312e-09
5.5510984e-12
2.1781692e-09
-5.258654e-12
2.1779437e-09
4.9834054e-12
2.1781577e-09
-4.7274808e-12
2.1779546e-09
4.4868134e-12
2.1781477e-09
-4.2635224e-12
2.1779641e-09
4.0540363e-12
2.178139e-09
-3.860095e-12
2.1779723e-09
3.6787421e-12
2.1781315e-09
-3.5113219e-12
2.1779793e-09
3.3554321e-12
2.1781251e-09
-3.212084e-12
2.1779853e-09
3.0793424e-12
2.1781197e-09
-2.9579637e-12
2.1779904e-09
2.8463809e-12
2.1781151e-09
-2.7451672e-12
2.1779946e-09
2.6530408e-12
2.1781114e-09
-2.5704866e-12
2.1779979e-09
2.4962872e-12
2.1781085e-09
-2.4310541e-12
2.1780006e-09
2.3742592e-12
2.1781058e-09
-2.3215054e-12
2.1780014e-09
2.288611e-12
2.1781022e-09
-2.2475513e-12
2.178008e-09
2.1420269e-12
2.1781504e-09
-2.6528788e-12
2.0134238e-12
2.1946118e-09
2.2035652e-08
2.3909164e-09
-1.5803466e-09
2.3268811e-09
1.1661663e-09
2.3309309e-09
-3.8666263e-11
2.3337664e-09
7.7122578e-12
2.3336139e-09
3.2253669e-11
2.3320789e-09
1.0654149e-11
2.3325573e-09
1.0665988e-11
2.3326731e-09
-9.944396e-12
2.3324982e-09
1.1168073e-11
2.3328812e-09
-1.1461179e-11
2.332482e-09
1.1343212e-11
2.3328545e-09
-1.0581844e-11
2.3324789e-09
1.0222465e-11
2.3328201e-09
-9.52401e-12
2.3324892e-09
9.0707484e-12
2.3327966e-09
-8.5183811e-12
2.3325036e-09
8.0692189e-12
2.332779e-09
-7.6088028e-12
2.332518e-09
7.1965231e-12
2.3327644e-09
-6.7997658e-12
2.3325313e-09
6.431524e-12
2.3327519e-09
-6.0851847e-12
2.3325431e-09
5.7599245e-12
2.332741e-09
-5.4565982e-12
2.3325535e-09
5.1709688e-12
2.3327315e-09
-4.9055442e-12
2.3325625e-09
4.6558037e-12
2.3327232e-09
-4.4242309e-12
2.3325704e-09
4.2068552e-12
2.332716e-09
-4.0057219e-12
2.3325772e-09
3.8175457e-12
2.3327098e-09
-3.6439164e-12
2.3325831e-09
3.4821655e-12
2.3327045e-09
-3.3334991e-12
2.3325881e-09
3.1957684e-12
2.3327e-09
-3.0698834e-12
2.3325923e-09
2.9541046e-12
2.3326962e-09
-2.8491268e-12
2.3325958e-09
2.7535285e-12
2.3326932e-09
-2.6678935e-12
2.3325986e-09
2.5908708e-12
2.3326907e-09
-2.5231939e-12
2.3326008e-09
2.4641982e-12
2.3326885e-09
-2.4091926e-12
2.3326013e-09
2.3757622e-12
2.332685e-09
-2.331236e-12
2.332607e-09
2.2200101e-12
2.3327296e-09
-2.7755061e-12
2.0720322e-12
2.347754e-09
2.2636148e-08
2.5189975e-09
-1.75159e-09
2.473097e-09
1.2120668e-09
2.4791012e-09
-4.4670516e-11
2.4814927e-09
5.3207838e-12
2.4823694e-09
3.1376901e-11
2.4809138e-09
1.210977e-11
2.4816579e-09
9.921935e-12
2.4816662e-09
-9.9527835e-12
2.4816083e-09
1.1225997e-11
2.4819071e-09
-1.1759994e-11
2.4815914e-09
1.1658966e-11
2.481887e-09
-1.0877434e-11
2.4815847e-09
1.0524721e-11
2.4818566e-09
-9.7959403e-12
2.4815912e-09
9.3361755e-12
2.4818369e-09
-8.7640777e-12
2.4816021e-09
8.3039992e-12
2.4818225e-09
-7.8291384e-12
2.4816135e-09
7.405482e-12
2.4818107e-09
-6.9969958e-12
2.4816241e-09
6.6181884e-12
2.4818008e-09
-6.2618483e-12
2.4816335e-09
5.9271467e-12
2.4817921e-09
-5.6151378e-12
2.4816418e-09
5.3211971e-12
2.4817845e-09
-5.0481985e-12
2.4816491e-09
4.7911937e-12
2.4817779e-09
-4.5530201e-12
2.4816554e-09
4.3293294e-12
2.4817722e-09
-4.1224643e-12
2.4816609e-09
3.9288281e-12
2.4817672e-09
-3.7502507e-12
2.4816656e-09
3.5838112e-12
2.481763e-09
-3.4309064e-12
2.4816696e-09
3.2891856e-12
2.4817594e-09
-3.159709e-12
2.4816729e-09
3.0405744e-12
2.4817564e-09
-2.932596e-12
2.4816757e-09
2.8342199e-12
2.4817539e-09
-2.746127e-12
2.481678e-09
2.6668401e-12
2.481752e-09
-2.5972136e-12
2.4816797e-09
2.5364398e-12
2.4817501e-09
-2.4795842e-12
2.48168e-09
2.4458956e-12
2.4817469e-09
-2.398104e-12
2.4816848e-09
2.2821216e-12
2.4817875e-09
-2.8782103e-12
2.1142074e-12
2.4642487e-09
2.312015e-08
2.6412825e-09
-1.9286238e-09
2.6140832e-09
1.2392661e-09
2.6212897e-09
-5.1876977e-11
2.6237945e-09
2.8159534e-12
2.6255989e-09
2.957245e-11
2.6242374e-09
1.3471256e-11
2.6252443e-09
8.9150792e-12
2.625143e-09
-9.8515555e-12
2.6251972e-09
1.1171862e-11
2.625413e-09
-1.1975827e-11
2.6251788e-09
1.1893226e-11
2.6253989e-09
-1.109759e-11
2.6251686e-09
1.0755052e-11
2.6253727e-09
-1.000011e-11
2.6251714e-09
9.5375045e-12
2.6253567e-09
-8.9493242e-12
2.625179e-09
8.481669e-12
2.6253454e-09
-7.9955441e-12
2.6251874e-09
7.5634867e-12
2.6253365e-09
-7.1460614e-12
2.6251953e-09
6.759318e-12
2.6253289e-09
-6.3954283e-12
2.6252025e-09
6.0535986e-12
2.6253224e-09
-5.7350586e-12
2.6252088e-09
5.4348351e-12
2.6253167e-09
-5.1561468e-12
2.6252142e-09
4.8936504e-12
2.6253118e-09
-4.6505202e-12
2.625219e-09
4.4220573e-12
2.6253074e-09
-4.210889e-12
2.6252231e-09
4.0131286e-12
2.6253037e-09
-3.8308365e-12
2.6252267e-09
3.660857e-12
2.6253006e-09
-3.5047702e-12
2.6252297e-09
3.3600378e-12
2.6252979e-09
-3.2278648e-12
2.6252322e-09
3.1061975e-12
2.6252956e-09
-2.9959652e-12
2.6252343e-09
2.8954914e-12
2.6252938e-09
-2.8055504e-12
2.625236e-09
2.7245477e-12
2.6252923e-09
-2.6534553e-12
2.6252374e-09
2.5913189e-12
2.6252908e-09
-2.5330135e-12
2.6252374e-09
2.4993213e-12
2.6252878e-09
-2.4485137e-12
2.6252412e-09
2.3287194e-12
2.6253239e-09
-2.9608946e-12
2.1407666e-12
2.6107124e-09
2.3457687e-08
2.7606736e-09
-2.0785849e-09
2.7498731e-09
1.2500665e-09
2.7571451e-09
-5.9148946e-11
2.7607411e-09
-7.8002589e-13
2.7633052e-09
2.7008311e-11
2.7620565e-09
1.4719986e-11
2.7633191e-09
7.6524151e-12
2.7631054e-09
-9.6378422e-12
2.7632657e-09
1.1011544e-11
2.7633995e-09
-1.2109605e-11
2.7632443e-09
1.204849e-11
2.7633907e-09
-1.124399e-11
2.7632305e-09
1.091519e-11
2.7633685e-09
-1.0138117e-11
2.7632298e-09
9.6762523e-12
2.763356e-09
-9.0755587e-12
2.7632341e-09
8.603584e-12
2.7633479e-09
-8.1093015e-12
2.7632396e-09
7.6717482e-12
2.7633416e-09
-7.248105e-12
2.763245e-09
6.8559934e-12
2.7633365e-09
-6.4869436e-12
2.7632498e-09
6.1402451e-12
2.7633321e-09
-5.8172709e-12
2.7632541e-09
5.5127456e-12
2.7633282e-09
-5.2302034e-12
2.7632579e-09
4.9639463e-12
2.7633248e-09
-4.7174618e-12
2.7632612e-09
4.4857331e-12
2.7633219e-09
-4.2716533e-12
2.763264e-09
4.0710727e-12
2.7633194e-09
-3.8862679e-12
2.7632664e-09
3.7138694e-12
2.7633173e-09
-3.5556303e-12
2.7632685e-09
3.4088411e-12
2.7633154e-09
-3.2748439e-12
2.7632702e-09
3.151447e-12
2.7633139e-09
-3.0396888e-12
2.7632716e-09
2.9377813e-12
2.7633127e-09
-2.8465864e-12
2.7632728e-09
2.7644037e-12
2.7633117e-09
-2.6923169e-12
2.7632738e-09
2.6292251e-12
2.7633106e-09
-2.5698658e-12
2.7632735e-09
2.5364015e-12
2.7633079e-09
-2.4828721e-12
2.7632764e-09
2.3601995e-12
2.7633391e-09
-3.0235923e-12
2.1525659e-12
2.725624e-09
2.3680313e-08
2.875346e-09
-2.228307e-09
2.8808335e-09
1.244579e-09
2.8869526e-09
-6.5268003e-11
2.8923504e-09
-6.1778186e-12
2.8954842e-09
2.3874453e-11
2.8943774e-09
1.5826794e-11
2.8958785e-09
6.1513566e-12
2.8955513e-09
-9.3107285e-12
2.8958124e-09
1.0750463e-11
2.8958658e-09
-1.2162981e-11
2.8957872e-09
1.2127069e-11
2.895862e-09
-1.1318771e-11
2.8957703e-09
1.1006932e-11
2.895844e-09
-1.0211836e-11
2.8957661e-09
9.7540794e-12
2.895835e-09
-9.1444164e-12
2.8957673e-09
8.671252e-12
2.8958299e-09
-8.1718538e-12
2.89577e-09
7.7316196e-12
2.8958263e-09
-7.3044082e-12
2.8957729e-09
6.9094242e-12
2.8958235e-09
-6.5375364e-12
2.8957756e-09
6.1881667e-12
2.8958211e-09
-5.8627947e-12
2.8957779e-09
5.5558946e-12
2.895819e-09
-5.2712815e-12
2.89578e-09
5.0029475e-12
2.8958172e-09
-4.7546645e-12
2.8957818e-09
4.5211349e-12
2.8958157e-09
-4.3054954e-12
2.8957834e-09
4.1033627e-12
2.8958143e-09
-3.9172122e-12
2.8957847e-09
3.7434849e-12
2.8958132e-09
-3.5840929e-12
2.8957858e-09
3.4361756e-12
2.8958122e-09
-3.301201e-12
2.8957868e-09
3.1768554e-12
2.8958114e-09
-3.0642781e-12
2.8957876e-09
2.9615823e-12
2.8958107e-09
-2.8697108e-12
2.8957882e-09
2.7868697e-12
2.8958102e-09
-2.7142464e-12
2.8957888e-09
2.6505967e-12
2.8958095e-09
-2.5905729e-12
2.8957884e-09
2.5575456e-12
2.8958071e-09
-2.5016289e-12
2.8957903e-09
2.3769921e-12
2.8958332e-09
-3.0664541e-12
2.1504843e-12
2.8639169e-09
2.3764646e-08
2.9874113e-09
-2.3518014e-09
3.0068696e-09
1.2251207e-09
3.0117661e-09
-7.0164516e-11
3.018737e-09
-1.3148794e-11
3.0221852e-09
2.0426289e-11
3.0212331e-09
1.6778859e-11
3.0229247e-09
4.4597607e-12
3.0224828e-09
-8.8688137e-12
3.0228377e-09
1.0395513e-11
3.0228121e-09
-1.2137325e-11
3.0228076e-09
1.2131591e-11
3.022813e-09
-1.1324233e-11
3.0227877e-09
1.1032266e-11
3.0227992e-09
-1.0223313e-11
3.0227804e-09
9.7728079e-12
3.0227937e-09
-9.1576876e-12
3.0227787e-09
8.6863239e-12
3.0227916e-09
-8.1847801e-12
3.0227786e-09
7.7445814e-12
3.0227906e-09
-7.3163735e-12
3.0227791e-09
6.9209336e-12
3.02279e-09
-6.5484567e-12
3.0227796e-09
6.1985454e-12
3.0227896e-09
-5.8727467e-12
3.0227801e-09
5.5653399e-12
3.0227892e-09
-5.280381e-12
3.0227806e-09
5.0116021e-12
3.0227889e-09
-4.7630262e-12
3.022781e-09
4.5291157e-12
3.0227887e-09
-4.3132241e-12
3.0227813e-09
4.1107683e-12
3.0227885e-09
-3.9244014e-12
3.0227816e-09
3.7504015e-12
3.0227883e-09
-3.5908238e-12
3.0227818e-09
3.4426779e-12
3.0227881e-09
-3.3075454e-12
3.022782e-09
3.1830076e-12
3.022788e-09
-3.0702951e-12
3.0227821e-09
2.9674364e-12
3.0227879e-09
-2.8754469e-12
3.0227823e-09
2.7924529e-12
3.0227878e-09
-2.7197363e-12
3.0227825e-09
2.6559154e-12
3.0227875e-09
-2.5956081e-12
3.0227818e-09
2.5632052e-12
3.0227855e-09
-2.5052713e-12
3.0227829e-09
2.3795589e-12
3.0228062e-09
-3.0897381e-12
2.1354082e-12
2.9779128e-09
2.3734984e-08
3.0937702e-09
-2.4676587e-09
3.127684e-09
1.1912068e-09
3.1322415e-09
-7.4721983e-11
3.1400041e-09
-2.0911366e-11
3.1434457e-09
1.6984673e-11
3.1426589e-09
1.7565687e-11
3.1444596e-09
2.6590151e-12
3.1439026e-09
-8.3117877e-12
3.144343e-09
9.9551093e-12
3.1442391e-09
-1.2033418e-11
3.1443055e-09
1.2065164e-11
3.144244e-09
-1.1262702e-11
3.1442828e-09
1.0993401e-11
3.1442342e-09
-1.017472e-11
3.1442726e-09
9.7344164e-12
3.1442322e-09
-9.1172886e-12
3.144268e-09
8.6505789e-12
3.144233e-09
-8.1497763e-12
3.1442653e-09
7.7122262e-12
3.1442345e-09
-7.2855086e-12
3.1442634e-09
6.8919441e-12
3.144236e-09
-6.5210486e-12
3.1442619e-09
6.1726527e-12
3.1442375e-09
-5.8483284e-12
3.1442606e-09
5.5422193e-12
3.1442388e-09
-5.2585784e-12
3.1442595e-09
4.990931e-12
3.14424e-09
-4.7435137e-12
3.1442585e-09
4.5105937e-12
3.144241e-09
-4.2957112e-12
3.1442577e-09
4.0941189e-12
3.1442419e-09
-3.9086245e-12
3.1442569e-09
3.7353718e-12
3.1442426e-09
-3.5765411e-12
3.1442563e-09
3.429035e-12
3.1442433e-09
-3.2945347e-12
3.1442557e-09
3.170535e-12
3.1442438e-09
-3.0583467e-12
3.1442553e-09
2.9559287e-12
3.1442442e-09
-2.86436e-12
3.144255e-09
2.7817018e-12
3.1442445e-09
-2.7093187e-12
3.1442548e-09
2.6457015e-12
3.1442446e-09
-2.5854816e-12
3.144254e-09
2.5538698e-12
3.144243e-09
-2.4943194e-12
3.1442542e-09
2.3683896e-12
3.1442582e-09
-3.093799e-12
2.1082203e-12
3.1096285e-09
2.3573605e-08
3.1975609e-09
-2.5555911e-09
3.2433269e-09
1.1454408e-09
3.2482047e-09
-7.9599791e-11
3.2559774e-09
-2.8684109e-11
3.2592401e-09
1.3721966e-11
3.2586526e-09
1.8153254e-11
3.2604706e-09
8.4096944e-13
3.2598073e-09
-7.6484887e-12
3.2603269e-09
9.4354811e-12
3.2601463e-09
-1.1852757e-11
3.2602807e-09
1.1930768e-11
3.2601547e-09
-1.1136768e-11
3.2602555e-09
1.0892632e-11
3.2601492e-09
-1.0068382e-11
3.2602426e-09
9.6409923e-12
3.2601506e-09
-9.0252589e-12
3.2602352e-09
8.5659002e-12
3.2601541e-09
-8.0686438e-12
3.2602301e-09
7.6362413e-12
3.260158e-09
-7.2134135e-12
3.260226e-09
6.8239641e-12
3.2601617e-09
-6.4567389e-12
3.2602225e-09
6.1118371e-12
3.260165e-09
-5.790815e-12
3.2602194e-09
5.4877402e-12
3.2601679e-09
-5.2070163e-12
3.2602168e-09
4.9420177e-12
3.2601704e-09
-4.6971543e-12
3.2602145e-09
4.4665446e-12
3.2601727e-09
-4.2538831e-12
3.2602125e-09
4.0542962e-12
3.2601746e-09
-3.8707206e-12
3.2602108e-09
3.6991964e-12
3.2601762e-09
-3.5420088e-12
3.2602093e-09
3.395978e-12
3.2601776e-09
-3.2628689e-12
3.260208e-09
3.1401097e-12
3.2601788e-09
-3.0290794e-12
3.260207e-09
2.9276829e-12
3.2601797e-09
-2.8370526e-12
3.2602062e-09
2.7552003e-12
3.2601805e-09
-2.6835612e-12
3.2602056e-09
2.6205098e-12
3.2601809e-09
-2.5607366e-12
3.2602047e-09
2.5300627e-12
3.2601797e-09
-2.4693218e-12
3.2602041e-09
2.343999e-12
3.2601894e-09
-3.0790789e-12
2.0697897e-12
3.22317e-09
2.3298685e-08
3.2963951e-09
-2.6288161e-09
3.3538833e-09
1.0879526e-09
3.3591589e-09
-8.4875464e-11
3.3665292e-09
-3.6054338e-11
3.3695485e-09
1.0702603e-11
3.3692005e-09
1.8501254e-11
3.3709477e-09
-9.0620571e-13
3.3701943e-09
-6.895131e-12
3.3707892e-09
8.8405868e-12
3.3705337e-09
-1.1597251e-11
3.3707331e-09
1.1731393e-11
3.3705455e-09
-1.0949139e-11
3.3707057e-09
1.0732386e-11
3.370544e-09
-9.9067235e-12
3.3706903e-09
9.4947401e-12
3.3705488e-09
-8.88373e-12
3.3706804e-09
8.434269e-12
3.370555e-09
-7.9432697e-12
3.3706729e-09
7.5183987e-12
3.3705612e-09
-7.101767e-12
3.3706666e-09
6.7185771e-12
3.3705669e-09
-6.357025e-12
3.3706612e-09
6.0175144e-12
3.370572e-09
-5.7015456e-12
3.3706565e-09
5.4031707e-12
3.3705764e-09
-5.1268953e-12
3.3706524e-09
4.8660007e-12
3.3705803e-09
-4.6250273e-12
3.3706488e-09
4.3979936e-12
3.3705837e-09
-4.1887136e-12
3.3706457e-09
3.9922272e-12
3.3705866e-09
-3.8115724e-12
3.3706431e-09
3.6427174e-12
3.3705891e-09
-3.488031e-12
3.3706408e-09
3.3442763e-12
3.3705912e-09
-3.2132854e-12
3.3706389e-09
3.0924401e-12
3.370593e-09
-2.9831743e-12
3.3706373e-09