/*--------------------------------*- C++ -*----------------------------------*\
| =========                 |                                                 |
| \\      /  F ield         | OpenFOAM: The Open Source CFD Toolbox           |
|  \\    /   O peration     | Version:  2312                                  |
|   \\  /    A nd           | Website:  www.openfoam.com                      |
|    \\/     M anipulation  |                                                 |
\*---------------------------------------------------------------------------*/
FoamFile
{
    version     2.0;
    format      ascii;
    arch        "LSB;label=32;scalar=64";
    class       surfaceScalarField;
    location    "4";
    object      phi_0;
}
// * * * * * * * * * * * * * * * * * * * * * * * * * * * * * * * * * * * * * //

dimensions      [0 3 -1 0 0 0 0];

oriented        oriented;

internalField   nonuniform List<scalar> 
7870
(
1.3266687e-10
2.8155831e-09
1.336427e-10
-9.7583493e-13
1.1285421e-10
2.0788497e-11
1.1391093e-10
-1.0567321e-12
1.1436458e-10
-4.5364544e-13
1.1286869e-10
1.4958889e-12
1.1380941e-10
-9.4072211e-13
1.1264694e-10
1.1624761e-12
1.1369541e-10
-1.0484685e-12
1.1267025e-10
1.0251594e-12
1.1363078e-10
-9.6053142e-13
1.1271717e-10
9.136109e-13
1.135757e-10
-8.5852977e-13
1.1276343e-10
8.1227503e-13
1.1352831e-10
-7.6488857e-13
1.1280569e-10
7.2262679e-13
1.1348729e-10
-6.8159729e-13
1.1284339e-10
6.4389648e-13
1.1345141e-10
-6.0802279e-13
1.1287676e-10
5.7465208e-13
1.134199e-10
-5.4313959e-13
1.129062e-10
5.1370188e-13
1.133922e-10
-4.8599593e-13
1.129321e-10
4.6009399e-13
1.1336787e-10
-4.3576509e-13
1.1295483e-10
4.1303752e-13
1.1334656e-10
-3.9172878e-13
1.1297471e-10
3.7185432e-13
1.1332796e-10
-3.5325874e-13
1.1299201e-10
3.3595392e-13
1.1331181e-10
-3.1980405e-13
1.1300699e-10
3.0481995e-13
1.1329788e-10
-2.9088254e-13
1.1301988e-10
2.7800201e-13
1.1328595e-10
-2.6607458e-13
1.1303084e-10
2.5510973e-13
1.1327586e-10
-2.450181e-13
1.1304005e-10
2.3580813e-13
1.1326745e-10
-2.2740422e-13
1.1304764e-10
2.1981333e-13
1.1326062e-10
-2.1297361e-13
1.1305373e-10
2.068897e-13
1.1325523e-10
-2.0150889e-13
1.1305838e-10
1.9685876e-13
1.132512e-10
-1.9282242e-13
1.1306169e-10
1.8951232e-13
1.1324899e-10
-1.8730621e-13
1.130664e-10
1.8259034e-13
1.1325741e-10
-1.910068e-13
1.7586962e-13
3.5438671e-10
5.4094464e-09
3.8138077e-10
-2.7969904e-11
3.3017061e-10
7.199867e-11
3.3072513e-10
-1.6112603e-12
3.3097531e-10
-7.0381938e-13
3.2856221e-10
3.9089856e-12
3.2949902e-10
-1.877534e-12
3.2780704e-10
2.854454e-12
3.2926427e-10
-2.505699e-12
3.2779447e-10
2.4949619e-12
3.2916937e-10
-2.3354313e-12
3.2785162e-10
2.2313617e-12
3.2908743e-10
-2.0943395e-12
3.2791458e-10
1.9851291e-12
3.2901757e-10
-1.8678809e-12
3.2797432e-10
1.7658829e-12
3.2895785e-10
-1.6651303e-12
3.2802836e-10
1.573394e-12
3.2890595e-10
-1.48561e-12
3.2807644e-10
1.4041579e-12
3.2886045e-10
-1.3271452e-12
3.2811894e-10
1.2552086e-12
3.2882047e-10
-1.1875285e-12
3.2815636e-10
1.1242062e-12
3.2878538e-10
-1.0647845e-12
3.2818921e-10
1.009216e-12
3.2875465e-10
-9.5717379e-13
3.2821793e-10
9.0858042e-13
3.2872783e-10
-8.6316532e-13
3.2824293e-10
8.2085538e-13
3.2870454e-10
-7.8141313e-13
3.2826458e-10
7.4477765e-13
3.2868444e-10
-7.1073794e-13
3.282832e-10
6.7924525e-13
3.2866723e-10
-6.5011314e-13
3.2829904e-10
6.2330311e-13
3.2865268e-10
-5.9865288e-13
3.2831235e-10
5.7613174e-13
3.2864055e-10
-5.5560142e-13
3.2832333e-10
5.3703631e-13
3.2863068e-10
-5.2032426e-13
3.2833213e-10
5.0543914e-13
3.2862291e-10
-4.9228635e-13
3.2833885e-10
4.8091541e-13
3.2861701e-10
-4.7098004e-13
3.283435e-10
4.6301515e-13
3.286137e-10
-4.5750086e-13
3.2835153e-10
4.4475552e-13
3.2863463e-10
-4.7410348e-13
4.2863427e-13
5.5954703e-10
7.7981494e-09
6.1533416e-10
-8.3757048e-11
5.4127647e-10
1.4605637e-10
5.4214425e-10
-2.4790509e-12
5.4162028e-10
-1.7983865e-13
5.3898395e-10
6.5453083e-12
5.3932061e-10
-2.2141873e-12
5.3772218e-10
4.4528815e-12
5.3902682e-10
-3.8103351e-12
5.3765477e-10
3.8670091e-12
5.3893935e-10
-3.6200094e-12
5.3769531e-10
3.4754071e-12
5.3885917e-10
-3.2581989e-12
5.3774987e-10
3.0944295e-12
5.3879124e-10
-2.9092483e-12
5.3780472e-10
2.7523999e-12
5.3873412e-10
-2.594522e-12
5.3785533e-10
2.4521859e-12
5.3868486e-10
-2.3151461e-12
5.3790067e-10
2.188349e-12
5.3864182e-10
-2.0682945e-12
5.3794086e-10
1.9561745e-12
5.3860405e-10
-1.8507212e-12
5.3797627e-10
1.751987e-12
5.3857091e-10
-1.6594179e-12
5.3800736e-10
1.5727647e-12
5.3854188e-10
-1.491697e-12
5.3803454e-10
1.4159208e-12
5.3851655e-10
-1.3451777e-12
5.3805821e-10
1.2792015e-12
5.3849456e-10
-1.2177618e-12
5.380787e-10
1.1606348e-12
5.3847557e-10
-1.107609e-12
5.3809632e-10
1.0585009e-12
5.3845932e-10
-1.0131172e-12
5.3811132e-10
9.7130904e-13
5.3844557e-10
-9.3290386e-13
5.3812392e-10
8.977803e-13
5.3843411e-10
-8.6578908e-13
5.3813431e-10
8.3682952e-13
5.3842477e-10
-8.1078222e-13
5.3814266e-10
7.8755251e-13
5.3841741e-10
-7.6704136e-13
5.3814902e-10
7.4930427e-13
5.3841174e-10
-7.3369179e-13
5.3815329e-10
7.2145724e-13
5.3840852e-10
-7.1272576e-13
5.381628e-10
6.904789e-13
5.3844027e-10
-7.5157943e-13
6.6637306e-13
7.641498e-10
9.9822496e-09
8.4010668e-10
-1.5971395e-10
7.464847e-10
2.3967837e-10
7.4780531e-10
-3.7996718e-12
7.46649e-10
9.7647022e-13
7.4378429e-10
9.4100152e-12
7.4358855e-10
-2.0184454e-12
7.4210046e-10
5.9409759e-12
7.4326007e-10
-4.9699395e-12
7.4199235e-10
5.1347203e-12
7.4318574e-10
-4.8133947e-12
7.4201883e-10
4.6423226e-12
7.4310826e-10
-4.3476249e-12
7.4206552e-10
4.1371657e-12
7.4304255e-10
-3.8862792e-12
7.4211554e-10
3.6794164e-12
7.429882e-10
-3.4671803e-12
7.4216262e-10
3.2777674e-12
7.4294172e-10
-3.0942486e-12
7.422051e-10
2.9249684e-12
7.4290124e-10
-2.7644327e-12
7.4224284e-10
2.6145746e-12
7.4286576e-10
-2.4736394e-12
7.4227613e-10
2.3416238e-12
7.4283464e-10
-2.2179325e-12
7.4230535e-10
2.1020607e-12
7.428074e-10
-1.9937456e-12
7.423309e-10
1.8924196e-12
7.4278362e-10
-1.7979014e-12
7.4235314e-10
1.7096822e-12
7.4276297e-10
-1.6275932e-12
7.423724e-10
1.5512079e-12
7.4274515e-10
-1.4803582e-12
7.4238896e-10
1.4146943e-12
7.4272989e-10
-1.3540516e-12
7.4240305e-10
1.298146e-12
7.4271697e-10
-1.246823e-12
7.424149e-10
1.1998511e-12
7.4270621e-10
-1.1570924e-12
7.4242468e-10
1.1183557e-12
7.4269743e-10
-1.0835329e-12
7.4243254e-10
1.0524448e-12
7.4269051e-10
-1.0250074e-12
7.4243853e-10
1.0012753e-12
7.4268507e-10
-9.8022736e-13
7.424424e-10
9.6412311e-13
7.426818e-10
-9.5211851e-13
7.4245269e-10
9.1958891e-13
7.427218e-10
-1.020692e-12
8.8897354e-13
9.5218501e-10
1.1978315e-08
1.0520368e-09
-2.5956571e-10
9.4561507e-10
3.4610007e-10
9.4782315e-10
-6.0077614e-12
9.4603379e-10
2.7658303e-12
9.4294666e-10
1.2497142e-11
9.4229855e-10
-1.3703318e-12
9.4094184e-10
7.297679e-12
9.419638e-10
-5.9918948e-12
9.4080686e-10
6.2916637e-12
9.4190824e-10
-5.9147785e-12
9.4082178e-10
5.7287863e-12
9.418344e-10
-5.3602373e-12
9.4086116e-10
5.1104044e-12
9.4177126e-10
-4.796383e-12
9.4090641e-10
4.5442702e-12
9.4171988e-10
-4.28065e-12
9.409499e-10
4.047747e-12
9.4167633e-10
-3.8206775e-12
9.4098943e-10
3.6118768e-12
9.4163854e-10
-3.4135463e-12
9.4102462e-10
3.2285006e-12
9.4160546e-10
-3.0544837e-12
9.4105567e-10
2.8914151e-12
9.4157646e-10
-2.7387225e-12
9.4108294e-10
2.5955859e-12
9.4155108e-10
-2.4618857e-12
9.4110678e-10
2.3367198e-12
9.4152893e-10
-2.2200527e-12
9.4112753e-10
2.1110812e-12
9.4150969e-10
-2.009755e-12
9.411455e-10
1.9154031e-12
9.4149309e-10
-1.8279471e-12
9.4116094e-10
1.746838e-12
9.4147887e-10
-1.671977e-12
9.411741e-10
1.6029186e-12
9.4146683e-10
-1.5395565e-12
9.4118516e-10
1.481528e-12
9.4145679e-10
-1.4287311e-12
9.4119428e-10
1.3808666e-12
9.4144861e-10
-1.3378579e-12
9.4120163e-10
1.2994249e-12
9.4144214e-10
-1.265519e-12
9.4120724e-10
1.2361807e-12
9.4143698e-10
-1.2099699e-12
9.412107e-10
1.1904026e-12
9.414336e-10
-1.1750175e-12
9.4122132e-10
1.1318708e-12
9.4147972e-10
-1.279101e-12
1.0948726e-12
1.1341876e-09
1.3792377e-08
1.2556732e-09
-3.8105131e-10
1.1389883e-09
4.6278503e-10
1.142197e-09
-9.2164899e-12
1.1397583e-09
5.2044864e-12
1.1364702e-09
1.57853e-11
1.1354505e-09
-3.5069885e-13
1.1342482e-09
8.4999996e-12
1.1351393e-09
-6.8829684e-12
1.1340984e-09
7.3325729e-12
1.1351074e-09
-6.9238094e-12
1.134104e-09
6.7321779e-12
1.135038e-09
-6.2941834e-12
1.1341366e-09
6.0117802e-12
1.1349777e-09
-5.6374864e-12
1.1341771e-09
5.3448218e-12
1.1349295e-09
-5.0329641e-12
1.134217e-09
4.7602139e-12
1.134889e-09
-4.4926443e-12
1.1342535e-09
4.2473728e-12
1.134854e-09
-4.0140323e-12
1.134286e-09
3.7964387e-12
1.1348234e-09
-3.5918244e-12
1.1343148e-09
3.4000139e-12
1.1347966e-09
-3.2205139e-12
1.13434e-09
3.0521395e-12
1.1347731e-09
-2.8949798e-12
1.1343621e-09
2.7477483e-12
1.1347526e-09
-2.6106139e-12
1.1343813e-09
2.4824364e-12
1.1347349e-09
-2.3633336e-12
1.1343979e-09
2.252355e-12
1.1347195e-09
-2.1495529e-12
1.1344122e-09
2.0541508e-12
1.1347064e-09
-1.9661491e-12
1.1344244e-09
1.8849187e-12
1.1346952e-09
-1.8104282e-12
1.1344346e-09
1.7421661e-12
1.134686e-09
-1.6800876e-12
1.1344431e-09
1.6237716e-12
1.1346784e-09
-1.5731904e-12
1.1344499e-09
1.5279486e-12
1.1346724e-09
-1.4880529e-12
1.1344551e-09
1.4535135e-12
1.1346675e-09
-1.4224413e-12
1.1344581e-09
1.3998208e-12
1.134664e-09
-1.3809321e-12
1.1344687e-09
1.3271857e-12
1.1347144e-09
-1.5247957e-12
1.2827652e-12
1.3132139e-09
1.5427413e-08
1.4465886e-09
-5.1442603e-10
1.3264535e-09
5.8292013e-10
1.3308862e-09
-1.3649184e-11
1.327764e-09
8.3267063e-12
1.324349e-09
1.9200314e-11
1.3230389e-09
9.5935844e-13
1.3220186e-09
9.5203469e-12
1.3227865e-09
-7.6508871e-12
1.3218664e-09
8.2526818e-12
1.3227835e-09
-7.8409252e-12
1.3218652e-09
7.650468e-12
1.3227193e-09
-7.1482502e-12
1.3218915e-09
6.8395124e-12
1.3226621e-09
-6.4080981e-12
1.3219275e-09
6.0794892e-12
1.3226172e-09
-5.7226924e-12
1.3219637e-09
5.4137703e-12
1.3225799e-09
-5.1088485e-12
1.321997e-09
4.830219e-12
1.3225477e-09
-4.5647271e-12
1.3220269e-09
4.3172916e-12
1.3225197e-09
-4.0846254e-12
1.3220532e-09
3.866445e-12
1.3224951e-09
-3.6623835e-12
1.3220764e-09
3.4708523e-12
1.3224736e-09
-3.2922039e-12
1.3220966e-09
3.1247277e-12
1.3224549e-09
-2.968847e-12
1.3221143e-09
2.8230503e-12
1.3224386e-09
-2.6876655e-12
1.3221295e-09
2.5614353e-12
1.3224245e-09
-2.4445768e-12
1.3221426e-09
2.3360644e-12
1.3224125e-09
-2.2360256e-12
1.3221538e-09
2.1436302e-12
1.3224023e-09
-2.0589445e-12
1.3221632e-09
1.9812943e-12
1.3223938e-09
-1.9107105e-12
1.3221709e-09
1.8466387e-12
1.3223869e-09
-1.7891152e-12
1.3221772e-09
1.7376181e-12
1.3223814e-09
-1.6922267e-12
1.322182e-09
1.6529033e-12
1.3223768e-09
-1.6172966e-12
1.3221846e-09
1.5920287e-12
1.3223732e-09
-1.5695224e-12
1.3221949e-09
1.5054661e-12
1.3224262e-09
-1.7560765e-12
1.4519089e-12
1.4715908e-09
1.6904072e-08
1.6287907e-09
-6.7162591e-10
1.5081704e-09
7.0354042e-10
1.5136616e-09
-1.9140396e-11
1.5101031e-09
1.188528e-11
1.5066102e-09
2.2693158e-11
1.5050758e-09
2.4937803e-12
1.5042586e-09
1.0337572e-11
1.5049083e-09
-8.3005896e-12
1.5041116e-09
9.0493909e-12
1.5049372e-09
-8.6665335e-12
1.5041052e-09
8.482426e-12
1.5048786e-09
-7.9216601e-12
1.5041257e-09
7.5923866e-12
1.5048249e-09
-7.1072223e-12
1.5041572e-09
6.7471946e-12
1.5047834e-09
-6.3488763e-12
1.5041897e-09
6.007475e-12
1.5047492e-09
-5.6684204e-12
1.5042199e-09
5.3595881e-12
1.50472e-09
-5.0648548e-12
1.5042469e-09
4.790329e-12
1.5046945e-09
-4.5321968e-12
1.5042709e-09
4.2900604e-12
1.5046722e-09
-4.0637173e-12
1.5042919e-09
3.8511467e-12
1.5046528e-09
-3.6530094e-12
1.5043103e-09
3.4671409e-12
1.5046358e-09
-3.2942597e-12
1.5043263e-09
3.132458e-12
1.504621e-09
-2.9823078e-12
1.5043402e-09
2.8422243e-12
1.5046082e-09
-2.7126184e-12
1.5043521e-09
2.5921986e-12
1.5045973e-09
-2.4812426e-12
1.5043623e-09
2.3787069e-12
1.5045881e-09
-2.2847737e-12
1.5043708e-09
2.1985962e-12
1.5045804e-09
-2.120296e-12
1.5043778e-09
2.0491775e-12
1.5045741e-09
-1.9853529e-12
1.5043835e-09
1.928166e-12
1.5045691e-09
-1.8777833e-12
1.5043879e-09
1.8341012e-12
1.5045649e-09
-1.7943084e-12
1.5043901e-09
1.7667893e-12
1.5045612e-09
-1.7405774e-12
1.5043999e-09
1.6667097e-12
1.5046154e-09
-1.9715182e-12
1.6019927e-12
1.6410124e-09
1.821131e-08
1.7987789e-09
-8.2939239e-10
1.6836051e-09
8.1871428e-10
1.6894409e-09
-2.4976235e-11
1.686574e-09
1.4752143e-11
1.6832287e-09
2.6038425e-11
1.6815578e-09
4.1647804e-12
1.6809681e-09
1.0927263e-11
1.6815053e-09
-8.8378337e-12
1.6808338e-09
9.7208686e-12
1.6815688e-09
-9.4014537e-12
1.6808238e-09
9.2273403e-12
1.6815163e-09
-8.6141006e-12
1.680839e-09
8.2696594e-12
1.6814661e-09
-7.7343194e-12
1.680866e-09
7.3473014e-12
1.6814281e-09
-6.9109787e-12
1.6808948e-09
6.5407882e-12
1.6813972e-09
-6.1708709e-12
1.6809218e-09
5.8350136e-12
1.6813709e-09
-5.5139801e-12
1.6809461e-09
5.215142e-12
1.6813481e-09
-4.9341524e-12
1.6809677e-09
4.6704984e-12
1.6813281e-09
-4.4241717e-12
1.6809866e-09
4.1927006e-12
1.6813106e-09
-3.9770889e-12
1.6810031e-09
3.7746991e-12
1.6812954e-09
-3.5865762e-12
1.6810175e-09
3.410399e-12
1.6812822e-09
-3.2470109e-12
1.6810299e-09
3.0944864e-12
1.6812707e-09
-2.9534515e-12
1.6810406e-09
2.8223388e-12
1.6812609e-09
-2.7015945e-12
1.6810497e-09
2.5899529e-12
1.6812527e-09
-2.4877276e-12
1.6810574e-09
2.3938924e-12
1.6812457e-09
-2.3086716e-12
1.6810637e-09
2.2312233e-12
1.6812401e-09
-2.1617451e-12
1.6810688e-09
2.0994413e-12
1.6812356e-09
-2.0445779e-12
1.6810727e-09
1.9969679e-12
1.6812318e-09
-1.953355e-12
1.6810746e-09
1.9239668e-12
1.681228e-09
-1.893999e-12
1.6810838e-09
1.8109746e-12
1.6812822e-09
-2.1699402e-12
1.7330094e-12
1.7768932e-09
1.9382667e-08
1.9613227e-09
-1.0138219e-09
1.853646e-09
9.26391e-10
1.8576696e-09
-2.8999881e-11
1.8570154e-09
1.5406343e-11
1.8541872e-09
2.8866636e-11
1.8524827e-09
5.8692572e-12
1.8521479e-09
1.126211e-11
1.8525786e-09
-9.2685033e-12
1.8520333e-09
1.0266111e-11
1.8526786e-09
-1.0046759e-11
1.8520209e-09
9.8850244e-12
1.8526325e-09
-9.2256509e-12
1.8520311e-09
8.8710357e-12
1.8525861e-09
-8.2892568e-12
1.8520538e-09
7.8795783e-12
1.8525517e-09
-7.4088415e-12
1.8520789e-09
7.0135337e-12
1.8525241e-09
-6.6160524e-12
1.8521028e-09
6.2563529e-12
1.8525007e-09
-5.9119725e-12
1.8521243e-09
5.5916102e-12
1.8524805e-09
-5.2903778e-12
1.8521433e-09
5.0076543e-12
1.8524628e-09
-4.743645e-12
1.8521601e-09
4.4954206e-12
1.8524474e-09
-4.2643514e-12
1.8521747e-09
4.0473178e-12
1.8524339e-09
-3.8457136e-12
1.8521875e-09
3.6567964e-12
1.8524222e-09
-3.4816996e-12
1.8521985e-09
3.3181505e-12
1.8524121e-09
-3.1670068e-12
1.852208e-09
3.0264197e-12
1.8524034e-09
-2.8970173e-12
1.8522161e-09
2.777308e-12
1.8523961e-09
-2.6677476e-12
1.8522228e-09
2.5671274e-12
1.85239e-09
-2.4757834e-12
1.8522285e-09
2.3927253e-12
1.852385e-09
-2.3182431e-12
1.852233e-09
2.2513987e-12
1.852381e-09
-2.1925679e-12
1.8522365e-09
2.1414635e-12
1.8523775e-09
-2.0944102e-12
1.852238e-09
2.0635176e-12
1.8523738e-09
-2.029789e-12
1.8522464e-09
1.9383766e-12
1.8524268e-09
-2.3503843e-12
1.845184e-12
1.9399819e-09
2.0390935e-08
2.1136114e-09
-1.1874515e-09
2.0174309e-09
1.0225715e-09
2.0199577e-09
-3.1526686e-11
2.0216124e-09
1.3751654e-11
2.0195446e-09
3.093442e-11
2.0178709e-09
7.5429616e-12
2.0178044e-09
1.1328557e-11
2.0181307e-09
-9.5947653e-12
2.0177107e-09
1.0686086e-11
2.0182674e-09
-1.0603395e-11
2.0176965e-09
1.0455902e-11
2.0182275e-09
-9.7567095e-12
2.0177019e-09
9.3966533e-12
2.0181849e-09
-8.7722686e-12
2.0177204e-09
8.3441687e-12
2.0181542e-09
-7.8426501e-12
2.0177418e-09
7.4258659e-12
2.0181299e-09
-7.0041268e-12
2.0177625e-09
6.6237565e-12
2.0181095e-09
-6.2589775e-12
2.0177813e-09
5.9198731e-12
2.0180919e-09
-5.6010037e-12
2.0177979e-09
5.3016543e-12
2.0180765e-09
-5.0222543e-12
2.0178125e-09
4.7594194e-12
2.018063e-09
-4.5149009e-12
2.0178253e-09
4.2850971e-12
2.0180513e-09
-4.0717643e-12
2.0178364e-09
3.8717386e-12
2.0180411e-09
-3.6864555e-12
2.017846e-09
3.513295e-12
2.0180323e-09
-3.3533568e-12
2.0178542e-09
3.204511e-12
2.0180248e-09
-3.0675759e-12
2.0178613e-09
2.9408346e-12
2.0180184e-09
-2.8248922e-12
2.0178672e-09
2.7183578e-12
2.0180131e-09
-2.6216854e-12
2.0178721e-09
2.5337363e-12
2.0180087e-09
-2.4548976e-12
2.017876e-09
2.3840892e-12
2.0180053e-09
-2.3218034e-12
2.0178791e-09
2.2676383e-12
2.0180022e-09
-2.2175348e-12
2.0178803e-09
2.1854828e-12
2.0179985e-09
-2.1480388e-12
2.0178878e-09
2.0490868e-12
2.0180495e-09
-2.5120966e-12
1.9389278e-12
2.0595634e-09
2.1279621e-08
2.2568135e-09
-1.3847016e-09
2.175088e-09
1.1042971e-09
2.1776561e-09
-3.4094792e-11
2.1805161e-09
1.0891697e-11
2.1793445e-09
3.2105986e-11
2.177734e-09
9.1534617e-12
2.1779402e-09
1.1122362e-11
2.1781622e-09
-9.8167811e-12
2.1778657e-09
1.0982595e-11
2.178335e-09
-1.1072675e-11
2.1778502e-09
1.0940702e-11
2.1783016e-09
-1.0208085e-11
2.1778512e-09
9.8469925e-12
2.1782629e-09
-9.1839456e-12
2.1778655e-09
8.7415457e-12
2.1782358e-09
-8.2129049e-12
2.1778834e-09
7.7782358e-12
2.1782148e-09
-7.3355351e-12
2.177901e-09
6.9376382e-12
2.1781974e-09
-6.555388e-12
2.1779169e-09
6.200304e-12
2.1781823e-09
-5.866381e-12
2.1779311e-09
5.5528327e-12
2.1781692e-09
-5.2603127e-12
2.1779436e-09
4.9849954e-12
2.1781577e-09
-4.7290169e-12
2.1779545e-09
4.4883031e-12
2.1781477e-09
-4.2649778e-12
2.177964e-09
4.0554631e-12
2.1781391e-09
-3.8615019e-12
2.1779722e-09
3.6801329e-12
2.1781316e-09
-3.5127023e-12
2.1779793e-09
3.3568041e-12
2.1781252e-09
-3.2134514e-12
2.1779853e-09
3.0807061e-12
2.1781197e-09
-2.9593262e-12
2.1779903e-09
2.8477422e-12
2.1781152e-09
-2.746529e-12
2.1779945e-09
2.6544027e-12
2.1781115e-09
-2.5718497e-12
2.1779979e-09
2.4976508e-12
2.1781085e-09
-2.4324189e-12
2.1780005e-09
2.3756251e-12
2.1781059e-09
-2.3228685e-12
2.1780014e-09
2.2899806e-12
2.1781023e-09
-2.2489186e-12
2.178008e-09
2.1433284e-12
2.1781504e-09
-2.6545101e-12
2.0147993e-12
2.2152755e-09
2.2012596e-08
2.3912844e-09
-1.5607105e-09
2.3269188e-09
1.1686627e-09
2.3309668e-09
-3.8142797e-11
2.3337772e-09
8.0812981e-12
2.3336168e-09
3.2266392e-11
2.3320796e-09
1.0690701e-11
2.3325565e-09
1.06454e-11
2.3326734e-09
-9.9336161e-12
2.3324978e-09
1.1158106e-11
2.3328815e-09
-1.1456285e-11
2.3324818e-09
1.1340395e-11
2.3328547e-09
-1.0580996e-11
2.3324788e-09
1.0222822e-11
2.3328201e-09
-9.5252167e-12
2.3324892e-09
9.0724711e-12
2.3327967e-09
-8.520394e-12
2.3325036e-09
8.0713578e-12
2.332779e-09
-7.6109695e-12
2.332518e-09
7.1986467e-12
2.3327644e-09
-6.8018193e-12
2.3325312e-09
6.4334852e-12
2.3327519e-09
-6.0870581e-12
2.332543e-09
5.7617096e-12
2.332741e-09
-5.4583095e-12
2.3325534e-09
5.172613e-12
2.3327315e-09
-4.9071362e-12
2.3325625e-09
4.6573507e-12
2.3327233e-09
-4.425745e-12
2.3325704e-09
4.2083418e-12
2.3327161e-09
-4.0071895e-12
2.3325772e-09
3.8189978e-12
2.3327099e-09
-3.645359e-12
2.3325831e-09
3.4836002e-12
2.3327045e-09
-3.3349298e-12
2.3325881e-09
3.197196e-12
2.3327e-09
-3.0713101e-12
2.3325923e-09
2.9555306e-12
2.3326963e-09
-2.8505538e-12
2.3325957e-09
2.7549559e-12
2.3326932e-09
-2.6693225e-12
2.3325986e-09
2.5923006e-12
2.3326908e-09
-2.5246251e-12
2.3326008e-09
2.4656307e-12
2.3326885e-09
-2.4106221e-12
2.3326013e-09
2.3771992e-12
2.332685e-09
-2.3326694e-12
2.332607e-09
2.2213728e-12
2.3327297e-09
-2.777229e-12
2.0734707e-12
2.3294124e-09
2.2631434e-08
2.5186223e-09
-1.7499205e-09
2.4732381e-09
1.2140469e-09
2.4791079e-09
-4.4012619e-11
2.481509e-09
5.6801438e-12
2.482371e-09
3.1404384e-11
2.4809143e-09
1.2147415e-11
2.4816572e-09
9.90257e-12
2.4816665e-09
-9.9429379e-12
2.481608e-09
1.1216623e-11
2.4819073e-09
-1.1755629e-11
2.4815912e-09
1.1656512e-11
2.4818871e-09
-1.0876853e-11
2.4815846e-09
1.0525254e-11
2.4818567e-09
-9.797274e-12
2.4815912e-09
9.337984e-12
2.4818369e-09
-8.766154e-12
2.4816021e-09
8.3061854e-12
2.4818225e-09
-7.831345e-12
2.4816135e-09
7.4076413e-12
2.4818108e-09
-6.9990844e-12
2.4816241e-09
6.6201854e-12
2.4818008e-09
-6.2637594e-12
2.4816335e-09
5.9289715e-12
2.4817921e-09
-5.616891e-12
2.4816418e-09
5.3228853e-12
2.4817845e-09
-5.0498365e-12
2.4816491e-09
4.7927883e-12
2.4817779e-09
-4.5545831e-12
2.4816554e-09
4.330866e-12
2.4817722e-09
-4.1239831e-12
2.4816609e-09
3.9303322e-12
2.4817672e-09
-3.751746e-12
2.4816655e-09
3.5852993e-12
2.481763e-09
-3.4323911e-12
2.4816695e-09
3.2906675e-12
2.4817594e-09
-3.1611908e-12
2.4816729e-09
3.0420559e-12
2.4817564e-09
-2.9340788e-12
2.4816757e-09
2.8357035e-12
2.481754e-09
-2.7476126e-12
2.4816779e-09
2.6683267e-12
2.481752e-09
-2.598702e-12
2.4816797e-09
2.5379296e-12
2.4817502e-09
-2.4810708e-12
2.48168e-09
2.4473907e-12
2.4817469e-09
-2.3995941e-12
2.4816847e-09
2.2835367e-12
2.4817875e-09
-2.8800136e-12
2.1156986e-12
2.4790874e-09
2.3100596e-08
2.6415799e-09
-1.912413e-09
2.6141098e-09
1.2415171e-09
2.6213154e-09
-5.1218278e-11
2.6238022e-09
3.1933639e-12
2.6256011e-09
2.9605514e-11
2.6242377e-09
1.3510766e-11
2.6252437e-09
8.8966004e-12
2.6251433e-09
-9.8425318e-12
2.6251969e-09
1.1163021e-11
2.6254132e-09
-1.1971908e-11
2.6251786e-09
1.1891085e-11
2.625399e-09
-1.1097229e-11
2.6251685e-09
1.0755723e-11
2.6253728e-09
-1.0001538e-11
2.6251714e-09
9.5393722e-12
2.6253567e-09
-8.9514415e-12
2.625179e-09
8.4838838e-12
2.6253454e-09
-7.9977743e-12
2.6251874e-09
7.5656675e-12
2.6253365e-09
-7.1481723e-12
2.6251953e-09
6.761339e-12
2.6253289e-09
-6.3973659e-12
2.6252025e-09
6.0554525e-12
2.6253224e-09
-5.7368436e-12
2.6252087e-09
5.4365573e-12
2.6253167e-09
-5.1578207e-12
2.6252142e-09
4.8952826e-12
2.6253118e-09
-4.6521224e-12
2.625219e-09
4.4236344e-12
2.6253075e-09
-4.2124493e-12
2.6252231e-09
4.014675e-12
2.6253038e-09
-3.832375e-12
2.6252267e-09
3.6623889e-12
2.6253006e-09
-3.5062994e-12
2.6252297e-09
3.3615648e-12
2.6252979e-09
-3.2293921e-12
2.6252322e-09
3.1077249e-12
2.6252956e-09
-2.9974944e-12
2.6252343e-09
2.8970219e-12
2.6252938e-09
-2.8070831e-12
2.625236e-09
2.7260818e-12
2.6252923e-09
-2.6549914e-12
2.6252374e-09
2.5928566e-12
2.6252909e-09
-2.5345479e-12
2.6252374e-09
2.500865e-12
2.6252878e-09
-2.450051e-12
2.6252412e-09
2.3301781e-12
2.625324e-09
-2.9627666e-12
2.1422999e-12
2.5946591e-09
2.3454187e-08
2.7599747e-09
-2.0777286e-09
2.7499226e-09
1.2515692e-09
2.757143e-09
-5.843868e-11
2.7607496e-09
-4.1331953e-13
2.7633048e-09
2.7050355e-11
2.7620563e-09
1.4759272e-11
2.7633187e-09
7.634178e-12
2.7631057e-09
-9.6295065e-12
2.7632655e-09
1.1003201e-11
2.7633997e-09
-1.2106056e-11
2.7632441e-09
1.2046619e-11
2.7633907e-09
-1.1243806e-11
2.7632305e-09
1.0915965e-11
2.7633685e-09
-1.0139614e-11
2.7632298e-09
9.6781571e-12
2.763356e-09
-9.0776984e-12
2.7632341e-09
8.6058115e-12
2.7633479e-09
-8.1115414e-12
2.7632396e-09
7.6739378e-12
2.7633416e-09
-7.2502265e-12
2.763245e-09
6.8580274e-12
2.7633365e-09
-6.4888972e-12
2.7632498e-09
6.1421178e-12
2.7633321e-09
-5.8190775e-12
2.7632541e-09
5.5144918e-12
2.7633282e-09
-5.2319035e-12
2.7632579e-09
4.9656066e-12
2.7633249e-09
-4.7190936e-12
2.7632612e-09
4.4873409e-12
2.763322e-09
-4.2732455e-12
2.763264e-09
4.072652e-12
2.7633194e-09
-3.88784e-12
2.7632664e-09
3.7154356e-12
2.7633173e-09
-3.5571944e-12
2.7632685e-09
3.4104036e-12
2.7633155e-09
-3.2764072e-12
2.7632702e-09
3.1530109e-12
2.7633139e-09
-3.041255e-12
2.7632716e-09
2.939349e-12
2.7633127e-09
-2.8481567e-12
2.7632728e-09
2.7659757e-12
2.7633117e-09
-2.6938911e-12
2.7632737e-09
2.6308012e-12
2.7633106e-09
-2.5714383e-12
2.7632735e-09
2.5379843e-12
2.7633079e-09
-2.4844469e-12
2.7632764e-09
2.3616926e-12
2.7633392e-09
-3.0255208e-12
2.1541312e-12
2.7377871e-09
2.366465e-08
2.8758233e-09
-2.2157649e-09
2.8808231e-09
1.2465694e-09
2.8869712e-09
-6.4586851e-11
2.8923522e-09
-5.7942791e-12
2.8954848e-09
2.3917767e-11
2.894377e-09
1.5867059e-11
2.8958781e-09
6.1330552e-12
2.8955516e-09
-9.3029712e-12
2.8958122e-09
1.0742574e-11
2.8958659e-09
-1.2159752e-11
2.8957871e-09
1.212543e-11
2.895862e-09
-1.1318733e-11
2.8957702e-09
1.1007786e-11
2.895844e-09
-1.0213378e-11
2.8957661e-09
9.7560031e-12
2.895835e-09
-9.1465632e-12
2.8957673e-09
8.6734785e-12
2.8958299e-09
-8.1740908e-12
2.89577e-09
7.7338066e-12
2.8958263e-09
-7.3065294e-12
2.8957729e-09
6.9114608e-12
2.8958235e-09
-6.5394958e-12
2.8957756e-09
6.1900482e-12
2.8958211e-09
-5.864613e-12
2.8957779e-09
5.5576551e-12
2.895819e-09
-5.272998e-12
2.89578e-09
5.0046259e-12
2.8958172e-09
-4.7563161e-12
2.8957818e-09
4.5227639e-12
2.8958157e-09
-4.3071098e-12
2.8957834e-09
4.1049651e-12
2.8958143e-09
-3.9188083e-12
2.8957847e-09
3.7450758e-12
2.8958132e-09
-3.5856824e-12
2.8957858e-09
3.437764e-12
2.8958122e-09
-3.3027908e-12
2.8957868e-09
3.1784462e-12
2.8958114e-09
-3.0658716e-12
2.8957876e-09
2.9631777e-12
2.8958107e-09
-2.8713091e-12
2.8957882e-09
2.7884698e-12
2.8958102e-09
-2.7158491e-12
2.8957888e-09
2.6522014e-12
2.8958095e-09
-2.5921739e-12
2.8957883e-09
2.5591577e-12
2.8958071e-09
-2.5032315e-12
2.8957903e-09
2.3785105e-12
2.8958332e-09
-3.0684269e-12
2.1520712e-12
2.8522045e-09
2.3760696e-08
2.9867077e-09
-2.3502681e-09
3.006846e-09
1.2264312e-09
3.0117494e-09
-6.9490346e-11
3.0187382e-09
-1.2783079e-11
3.0221831e-09
2.0472909e-11
3.0212328e-09
1.6817412e-11
3.0229246e-09
4.4412141e-12
3.0224831e-09
-8.8614829e-12
3.0228376e-09
1.0388095e-11
3.0228122e-09
-1.2134366e-11
3.0228075e-09
1.2130157e-11
3.0228131e-09
-1.1324316e-11
3.0227877e-09
1.1033177e-11
3.0227992e-09
-1.0224885e-11
3.0227804e-09
9.7747355e-12
3.0227937e-09
-9.1598279e-12
3.0227787e-09
8.6885374e-12
3.0227916e-09
-8.1870029e-12
3.0227786e-09
7.7467552e-12
3.0227906e-09
-7.3184839e-12
3.0227791e-09
6.9229626e-12
3.02279e-09
-6.5504118e-12
3.0227796e-09
6.200426e-12
3.0227896e-09
-5.874567e-12
3.0227801e-09
5.5671049e-12
3.0227892e-09
-5.2821044e-12
3.0227806e-09
5.0132892e-12
3.0227889e-09
-4.764688e-12
3.0227809e-09
4.5307562e-12
3.0227887e-09
-4.3148512e-12
3.0227813e-09
4.1123843e-12
3.0227885e-09
-3.9260119e-12
3.0227815e-09
3.7520075e-12
3.0227883e-09
-3.5924291e-12
3.0227818e-09
3.4442826e-12
3.0227881e-09
-3.309152e-12
3.022782e-09
3.1846157e-12
3.022788e-09
-3.0719063e-12
3.0227821e-09
2.9690498e-12
3.0227879e-09
-2.8770635e-12
3.0227823e-09
2.7940717e-12
3.0227878e-09
-2.7213578e-12
3.0227825e-09
2.6575389e-12
3.0227875e-09
-2.5972279e-12
3.0227818e-09
2.5648368e-12
3.0227855e-09
-2.506892e-12
3.0227829e-09
2.3810935e-12
3.0228062e-09
-3.0917425e-12
2.1370066e-12
2.9876813e-09
2.3721264e-08
3.0944109e-09
-2.4569977e-09
3.1276746e-09
1.1931674e-09
3.1322372e-09
-7.4052958e-11
3.1399954e-09
-2.0541227e-11
3.1434447e-09
1.7023546e-11
3.1426589e-09
1.7603236e-11
3.1444596e-09
2.6405565e-12
3.1439029e-09
-8.3048257e-12
3.1443428e-09
9.9481784e-12
3.1442392e-09
-1.2030693e-11
3.1443054e-09
1.2063918e-11
3.144244e-09
-1.1262884e-11
3.1442828e-09
1.0994353e-11
3.1442342e-09
-1.0176306e-11
3.1442726e-09
9.736335e-12
3.1442322e-09
-9.1194105e-12
3.144268e-09
8.6527683e-12
3.144233e-09
-8.1519744e-12
3.1442653e-09
7.7143765e-12
3.1442344e-09
-7.2875983e-12
3.1442635e-09
6.8939557e-12
3.144236e-09
-6.5229898e-12
3.1442619e-09
6.1745226e-12
3.1442375e-09
-5.850141e-12
3.1442606e-09
5.5439793e-12
3.1442388e-09
-5.2602989e-12
3.1442595e-09
4.9926171e-12
3.14424e-09
-4.7451762e-12
3.1442585e-09
4.5122362e-12
3.144241e-09
-4.2973414e-12
3.1442577e-09
4.0957391e-12
3.1442419e-09
-3.91024e-12
3.1442569e-09
3.7369835e-12
3.1442426e-09
-3.5781526e-12
3.1442563e-09
3.4306465e-12
3.1442433e-09
-3.2961485e-12
3.1442557e-09
3.1721507e-12
3.1442438e-09
-3.0599659e-12
3.1442553e-09
2.9575505e-12
3.1442442e-09
-2.8659853e-12
3.144255e-09
2.7833294e-12
3.1442445e-09
-2.7109493e-12
3.1442547e-09
2.6473342e-12
3.1442446e-09
-2.5871105e-12
3.144254e-09
2.555511e-12
3.144243e-09
-2.4959484e-12
3.1442542e-09
2.3699311e-12
3.1442583e-09
-3.0958223e-12
2.1098204e-12
3.1014076e-09
2.3568107e-08
3.1968614e-09
-2.5524516e-09
3.2432665e-09
1.1467623e-09
3.2481561e-09
-7.8942522e-11
3.2559705e-09
-2.8355678e-11
3.2592369e-09
1.3757212e-11
3.2586527e-09
1.8187393e-11
3.2604706e-09
8.2265291e-13
3.2598077e-09
-7.6418774e-12
3.2603268e-09
9.4290555e-12
3.2601464e-09
-1.1850249e-11
3.2602806e-09
1.192969e-11
3.2601547e-09
-1.1137031e-11
3.2602555e-09
1.0893611e-11
3.2601491e-09
-1.0069969e-11
3.2602426e-09
9.6428907e-12
3.2601505e-09
-9.0273517e-12
3.2602352e-09
8.5680554e-12
3.2601541e-09
-8.070807e-12
3.2602301e-09
7.6383583e-12
3.260158e-09
-7.2154729e-12
3.260226e-09
6.8259488e-12
3.2601617e-09
-6.4586566e-12
3.2602225e-09
6.1136869e-12
3.260165e-09
-5.7926104e-12
3.2602195e-09
5.4894857e-12
3.2601679e-09
-5.2087245e-12
3.2602168e-09
4.9436935e-12
3.2601704e-09
-4.698808e-12
3.2602145e-09
4.4681797e-12
3.2601727e-09
-4.255507e-12
3.2602125e-09
4.0559111e-12
3.2601746e-09
-3.8723315e-12
3.2602108e-09
3.7008043e-12
3.2601762e-09
-3.543617e-12
3.2602093e-09
3.3975867e-12
3.2601776e-09
-3.2644805e-12
3.260208e-09
3.1417236e-12
3.2601788e-09
-3.030697e-12
3.260207e-09
2.9293034e-12
3.2601797e-09
-2.8386769e-12
3.2602062e-09
2.7568271e-12
3.2601805e-09
-2.6851911e-12
3.2602056e-09
2.622142e-12
3.2601809e-09
-2.5623648e-12
3.2602047e-09
2.5317039e-12
3.2601797e-09
-2.4709493e-12
3.2602041e-09
2.3455384e-12
3.2601894e-09
-3.0811084e-12
2.0713818e-12
3.2300024e-09
2.3286354e-08
3.2970535e-09
-2.6195027e-09
3.3538812e-09
1.0899347e-09
3.3591388e-09
-8.4200201e-11
3.3665172e-09
-3.5734063e-11
3.3695473e-09
1.072712e-11
3.3692011e-09
1.8533622e-11
3.3709478e-09
-9.2400942e-13
3.3701947e-09
-6.8888598e-12
3.3707891e-09
8.8346889e-12
3.3705338e-09
-1.1594946e-11
3.370733e-09
1.1730473e-11
3.3705455e-09
-1.0949468e-11
3.3707057e-09
1.0733382e-11
3.370544e-09
-9.9083003e-12
3.3706903e-09
9.4966082e-12
3.3705487e-09
-8.8857835e-12
3.3706804e-09
8.4363801e-12
3.370555e-09
-7.9453885e-12
3.3706729e-09
7.520473e-12
3.3705612e-09
-7.1037865e-12
3.3706666e-09
6.7205255e-12
3.3705669e-09
-6.3589098e-12
3.3706612e-09
6.0193347e-12
3.3705719e-09
-5.7033146e-12
3.3706565e-09
5.4048924e-12
3.3705764e-09
-5.1285819e-12
3.3706524e-09
4.8676569e-12
3.3705803e-09
-4.626663e-12
3.3706489e-09
4.3996121e-12
3.3705837e-09
-4.1903219e-12
3.3706458e-09
3.9938275e-12
3.3705866e-09
-3.8131695e-12
3.3706431e-09
3.6443121e-12
3.3705891e-09
-3.4896266e-12
3.3706408e-09
3.345873e-12
3.3705912e-09
-3.2148853e-12
3.3706389e-09
3.0940426e-12
3.370593e-09
-2.9847809e-12
3.3706373e-09