/*--------------------------------*- C++ -*----------------------------------*\
| =========                 |                                                 |
| \\      /  F ield         | OpenFOAM: The Open Source CFD Toolbox           |
|  \\    /   O peration     | Version:  2312                                  |
|   \\  /    A nd           | Website:  www.openfoam.com                      |
|    \\/     M anipulation  |                                                 |
\*---------------------------------------------------------------------------*/
FoamFile
{
    version     2.0;
    format      ascii;
    arch        "LSB;label=32;scalar=64";
    class       volSymmTensorField;
    location    "4";
    object      sigma_0;
}
// * * * * * * * * * * * * * * * * * * * * * * * * * * * * * * * * * * * * * //

dimensions      [0 2 -2 0 0 0 0];

internalField   nonuniform List<symmTensor> 
4000
(
(-2.2804399 -1.0124492 0 -0.40559185 0 0)
(-5.6748902 -0.4419839 0 -0.0029491906 0 0)
(-2.9237008 -0.31327642 0 -0.00086375938 0 0)
(-3.1213933 -0.32250218 0 1.0523555e-05 0 0)
(-2.9352079 -0.31261481 0 2.141308e-05 0 0)
(-3.039006 -0.31855647 0 -5.4494268e-05 0 0)
(-2.9198003 -0.31176987 0 3.4868165e-05 0 0)
(-3.0031251 -0.31660428 0 -4.2981277e-05 0 0)
(-2.9228094 -0.31194033 0 3.8363064e-05 0 0)
(-2.9939782 -0.31609492 0 -3.7569921e-05 0 0)
(-2.9272711 -0.3122001 0 3.5147329e-05 0 0)
(-2.9891541 -0.31581845 0 -3.3458817e-05 0 0)
(-2.9308888 -0.31241272 0 3.1437902e-05 0 0)
(-2.9854597 -0.31560444 0 -2.9769964e-05 0 0)
(-2.9340495 -0.31259835 0 2.8030009e-05 0 0)
(-2.9823272 -0.31542257 0 -2.6499985e-05 0 0)
(-2.9368865 -0.31276449 0 2.498943e-05 0 0)
(-2.9795825 -0.31526322 0 -2.3619324e-05 0 0)
(-2.9394293 -0.31291307 0 2.2296511e-05 0 0)
(-2.9771501 -0.31512206 0 -2.1080907e-05 0 0)
(-2.9417037 -0.31304575 0 1.9918409e-05 0 0)
(-2.974984 -0.31499641 0 -1.8844753e-05 0 0)
(-2.9437376 -0.31316425 0 1.7822951e-05 0 0)
(-2.9730499 -0.3148843 0 -1.687772e-05 0 0)
(-2.9455581 -0.31327017 0 1.5980988e-05 0 0)
(-2.9713194 -0.31478406 0 -1.5151419e-05 0 0)
(-2.9471901 -0.31336498 0 1.4366535e-05 0 0)
(-2.9697676 -0.31469427 0 -1.3641073e-05 0 0)
(-2.9486564 -0.31345001 0 1.2956569e-05 0 0)
(-2.9683722 -0.31461365 0 -1.2324936e-05 0 0)
(-2.9499776 -0.31352646 0 1.1730808e-05 0 0)
(-2.9671134 -0.31454107 0 -1.1183958e-05 0 0)
(-2.9511723 -0.31359541 0 1.0671505e-05 0 0)
(-2.9659731 -0.31447549 0 -1.0201558e-05 0 0)
(-2.9522574 -0.31365784 0 9.7632615e-06 0 0)
(-2.964935 -0.31441597 0 -9.3634232e-06 0 0)
(-2.9532485 -0.31371465 0 8.9928613e-06 0 0)
(-2.9639843 -0.31436166 0 -8.6573612e-06 0 0)
(-2.9541595 -0.31376664 0 8.3491388e-06 0 0)
(-2.9631074 -0.31431179 0 -8.0731805e-06 0 0)
(-2.9550034 -0.31381456 0 7.8229067e-06 0 0)
(-2.9622917 -0.31426566 0 -7.6026845e-06 0 0)
(-2.9557923 -0.31385907 0 7.4068688e-06 0 0)
(-2.9615254 -0.31422259 0 -7.2402052e-06 0 0)
(-2.956536 -0.31390076 0 7.0957111e-06 0 0)
(-2.9607951 -0.31418184 0 -6.9808398e-06 0 0)
(-2.9572464 -0.31394018 0 6.9041085e-06 0 0)
(-2.9601273 -0.31414452 0 -6.7682208e-06 0 0)
(-2.9581157 -0.31398671 0 7.0106525e-06 0 0)
(-2.9601248 -0.31414409 0 -6.8035136e-06 0 0)
(-1.9729107 -0.91941781 0 -0.38052433 0 0)
(-4.8811111 -0.42209925 0 -0.0080916367 0 0)
(-2.9875951 -0.32148681 0 -0.0025873554 0 0)
(-2.8829429 -0.30965716 0 -2.3227636e-05 0 0)
(-2.7206038 -0.30102294 0 -6.1909618e-06 0 0)
(-2.8103417 -0.30651035 0 -7.455511e-05 0 0)
(-2.7107616 -0.30035931 0 1.8759085e-05 0 0)
(-2.7795556 -0.30468069 0 -4.8866019e-05 0 0)
(-2.7114569 -0.30036822 0 3.9141899e-05 0 0)
(-2.7716397 -0.30420865 0 -4.0828768e-05 0 0)
(-2.7150071 -0.30059168 0 3.7820712e-05 0 0)
(-2.767592 -0.30395859 0 -3.6502296e-05 0 0)
(-2.7180356 -0.300786 0 3.4126348e-05 0 0)
(-2.7644607 -0.30376101 0 -3.2492371e-05 0 0)
(-2.7207056 -0.30095774 0 3.050709e-05 0 0)
(-2.7617904 -0.30359162 0 -2.8902485e-05 0 0)
(-2.7231118 -0.30111222 0 2.7223518e-05 0 0)
(-2.7594486 -0.30344294 0 -2.5750664e-05 0 0)
(-2.7252722 -0.30125064 0 2.4298555e-05 0 0)
(-2.7573731 -0.30331115 0 -2.2979992e-05 0 0)
(-2.7272061 -0.30137436 0 2.1710238e-05 0 0)
(-2.7555248 -0.30319383 0 -2.0541903e-05 0 0)
(-2.7289362 -0.30148488 0 1.9428015e-05 0 0)
(-2.7538745 -0.30308913 0 -1.8398341e-05 0 0)
(-2.7304851 -0.30158369 0 1.7421602e-05 0 0)
(-2.7523978 -0.30299552 0 -1.6517697e-05 0 0)
(-2.7318741 -0.30167215 0 1.5663144e-05 0 0)
(-2.7510733 -0.30291167 0 -1.487272e-05 0 0)
(-2.7331225 -0.30175149 0 1.4127678e-05 0 0)
(-2.749882 -0.30283637 0 -1.3439625e-05 0 0)
(-2.7342477 -0.30182284 0 1.2793145e-05 0 0)
(-2.748807 -0.30276857 0 -1.2197634e-05 0 0)
(-2.7352659 -0.30188721 0 1.1640239e-05 0 0)
(-2.7478327 -0.30270728 0 -1.1128712e-05 0 0)
(-2.7361913 -0.30194551 0 1.0652246e-05 0 0)
(-2.7469452 -0.30265164 0 -1.0217348e-05 0 0)
(-2.7370371 -0.30199859 0 9.8148887e-06 0 0)
(-2.7461319 -0.30260086 0 -9.4504188e-06 0 0)
(-2.7378155 -0.30204718 0 9.1162158e-06 0 0)
(-2.745381 -0.3025542 0 -8.817105e-06 0 0)
(-2.7385373 -0.302092 0 8.5466321e-06 0 0)
(-2.7446819 -0.30251101 0 -8.3090303e-06 0 0)
(-2.739213 -0.30213367 0 8.0988405e-06 0 0)
(-2.7440244 -0.30247067 0 -7.9218854e-06 0 0)
(-2.7398513 -0.30217274 0 7.7672603e-06 0 0)
(-2.7433963 -0.30243248 0 -7.6536517e-06 0 0)
(-2.7404583 -0.30220941 0 7.5891514e-06 0 0)
(-2.7428021 -0.30239599 0 -7.3687603e-06 0 0)
(-2.7411517 -0.30224784 0 8.0896545e-06 0 0)
(-2.742675 -0.302388 0 -7.3270652e-06 0 0)
(-1.8545815 -0.87177421 0 -0.35654083 0 0)
(-4.2833537 -0.39531974 0 -0.0097524938 0 0)
(-2.9018699 -0.32092076 0 -0.0039053583 0 0)
(-2.7526713 -0.30254277 0 -0.00012375674 0 0)
(-2.581909 -0.29324435 0 -2.8438821e-05 0 0)
(-2.6618583 -0.29841061 0 -8.5568098e-05 0 0)
(-2.5741051 -0.29267319 0 2.5078602e-06 0 0)
(-2.6350354 -0.29671079 0 -4.9513136e-05 0 0)
(-2.5742162 -0.29261972 0 3.5545933e-05 0 0)
(-2.6278468 -0.29625839 0 -3.9243672e-05 0 0)
(-2.5772771 -0.29282381 0 3.6032102e-05 0 0)
(-2.6242414 -0.29602423 0 -3.5144487e-05 0 0)
(-2.579967 -0.2930074 0 3.2707865e-05 0 0)
(-2.6214536 -0.29583753 0 -3.128516e-05 0 0)
(-2.5823485 -0.29317042 0 2.9293197e-05 0 0)
(-2.6190694 -0.29567662 0 -2.7806949e-05 0 0)
(-2.5844978 -0.29331733 0 2.6159932e-05 0 0)
(-2.6169771 -0.2955352 0 -2.4764275e-05 0 0)
(-2.5864292 -0.29344912 0 2.3355851e-05 0 0)
(-2.6151226 -0.2954098 0 -2.2095778e-05 0 0)
(-2.5881589 -0.29356696 0 2.0870009e-05 0 0)
(-2.6134712 -0.29529815 0 -1.9749969e-05 0 0)
(-2.5897067 -0.29367227 0 1.8676712e-05 0 0)
(-2.6119967 -0.29519851 0 -1.7688435e-05 0 0)
(-2.5910926 -0.29376642 0 1.6748091e-05 0 0)
(-2.6106773 -0.29510941 0 -1.5880144e-05 0 0)
(-2.5923354 -0.29385072 0 1.5057761e-05 0 0)
(-2.6094938 -0.29502958 0 -1.429866e-05 0 0)
(-2.5934525 -0.29392635 0 1.3581836e-05 0 0)
(-2.6084294 -0.29495789 0 -1.2921027e-05 0 0)
(-2.5944597 -0.29399437 0 1.2299149e-05 0 0)
(-2.6074686 -0.29489331 0 -1.172725e-05 0 0)
(-2.5953711 -0.29405575 0 1.1191175e-05 0 0)
(-2.6065977 -0.29483491 0 -1.0700012e-05 0 0)
(-2.5961996 -0.29411137 0 1.0241904e-05 0 0)
(-2.6058042 -0.29478187 0 -9.8244722e-06 0 0)
(-2.5969571 -0.29416203 0 9.4377182e-06 0 0)
(-2.6050766 -0.29473343 0 -9.0881555e-06 0 0)
(-2.5976544 -0.29420844 0 8.7673263e-06 0 0)
(-2.6044047 -0.2946889 0 -8.4809206e-06 0 0)
(-2.5983012 -0.29425126 0 8.2218874e-06 0 0)
(-2.6037788 -0.29464765 0 -7.9952185e-06 0 0)
(-2.5989069 -0.2942911 0 7.7950656e-06 0 0)
(-2.6031898 -0.2946091 0 -7.6285195e-06 0 0)
(-2.5994796 -0.2943285 0 7.4817994e-06 0 0)
(-2.6026266 -0.29457258 0 -7.3834999e-06 0 0)
(-2.6000239 -0.29436355 0 7.3298088e-06 0 0)
(-2.602088 -0.29453714 0 -7.0907656e-06 0 0)
(-2.6006313 -0.29439823 0 8.0764019e-06 0 0)
(-2.601913 -0.2945275 0 -7.5107706e-06 0 0)
(-1.7810862 -0.8319037 0 -0.33233849 0 0)
(-3.8653216 -0.37807992 0 -0.01161451 0 0)
(-2.7983542 -0.3199648 0 -0.005384644 0 0)
(-2.6293894 -0.29567062 0 -0.00022915673 0 0)
(-2.4495118 -0.28561669 0 -6.4778904e-05 0 0)
(-2.5185109 -0.29032846 0 -9.5058401e-05 0 0)
(-2.4403977 -0.2849789 0 -1.8327017e-05 0 0)
(-2.4949705 -0.28874711 0 -4.6426957e-05 0 0)
(-2.4400948 -0.28487036 0 2.8263777e-05 0 0)
(-2.4883983 -0.28831257 0 -3.4216326e-05 0 0)
(-2.4427485 -0.28505544 0 3.1051346e-05 0 0)
(-2.4851435 -0.28809313 0 -3.0757596e-05 0 0)
(-2.4451583 -0.28522865 0 2.8441019e-05 0 0)
(-2.4826308 -0.28791668 0 -2.7388737e-05 0 0)
(-2.4473034 -0.28538316 0 2.5541556e-05 0 0)
(-2.4804762 -0.28776384 0 -2.4315049e-05 0 0)
(-2.4492411 -0.28552261 0 2.2835025e-05 0 0)
(-2.4785842 -0.28762938 0 -2.1640322e-05 0 0)
(-2.4509832 -0.28564778 0 2.0395745e-05 0 0)
(-2.4769073 -0.28751015 0 -1.9303007e-05 0 0)
(-2.4525437 -0.28575976 0 1.8227476e-05 0 0)
(-2.4754143 -0.28740398 0 -1.7251655e-05 0 0)
(-2.4539402 -0.28585984 0 1.6312583e-05 0 0)
(-2.4740816 -0.28730922 0 -1.545016e-05 0 0)
(-2.4551907 -0.28594934 0 1.4628307e-05 0 0)
(-2.4728892 -0.28722448 0 -1.3870488e-05 0 0)
(-2.4563121 -0.28602947 0 1.3152077e-05 0 0)
(-2.4718198 -0.28714855 0 -1.2489196e-05 0 0)
(-2.4573201 -0.28610138 0 1.1863142e-05 0 0)
(-2.470858 -0.28708034 0 -1.1286092e-05 0 0)
(-2.4582289 -0.28616608 0 1.0743039e-05 0 0)
(-2.46999 -0.28701887 0 -1.0243662e-05 0 0)
(-2.4590513 -0.28622449 0 9.7755997e-06 0 0)
(-2.4692032 -0.28696328 0 -9.3467821e-06 0 0)
(-2.459799 -0.28627744 0 8.946874e-06 0 0)
(-2.4684864 -0.28691275 0 -8.5825324e-06 0 0)
(-2.4604826 -0.28632568 0 8.2450414e-06 0 0)
(-2.4678293 -0.28686658 0 -7.9401139e-06 0 0)
(-2.4611117 -0.28636992 0 7.6603735e-06 0 0)
(-2.4672225 -0.28682411 0 -7.4108478e-06 0 0)
(-2.4616954 -0.28641076 0 7.1854241e-06 0 0)
(-2.4666573 -0.28678473 0 -6.9884824e-06 0 0)
(-2.4622421 -0.2864488 0 6.8150701e-06 0 0)
(-2.4661255 -0.2867479 0 -6.6722313e-06 0 0)
(-2.4627589 -0.28648456 0 6.5441803e-06 0 0)
(-2.4656172 -0.28671299 0 -6.4681713e-06 0 0)
(-2.4632496 -0.28651806 0 6.4289307e-06 0 0)
(-2.4651258 -0.28667854 0 -6.1582036e-06 0 0)
(-2.4637821 -0.28654923 0 7.4288914e-06 0 0)
(-2.4649068 -0.28666685 0 -6.9312237e-06 0 0)
(-1.6979904 -0.77778951 0 -0.29836947 0 0)
(-3.4491185 -0.35904512 0 -0.012585173 0 0)
(-2.6582983 -0.31639018 0 -0.0066525376 0 0)
(-2.5057312 -0.2887805 0 -0.00033527297 0 0)
(-2.3233823 -0.27810969 0 -0.00010764651 0 0)
(-2.3800901 -0.28227182 0 -0.00010590364 0 0)
(-2.3099356 -0.27725828 0 -3.6877358e-05 0 0)
(-2.3590802 -0.28079246 0 -4.3313161e-05 0 0)
(-2.3092624 -0.27711041 0 2.146338e-05 0 0)
(-2.3530224 -0.28037456 0 -2.9326547e-05 0 0)
(-2.3115707 -0.27727925 0 2.6305885e-05 0 0)
(-2.3500578 -0.28016818 0 -2.6496942e-05 0 0)
(-2.3137413 -0.27744331 0 2.4326112e-05 0 0)
(-2.3477795 -0.28000108 0 -2.3608043e-05 0 0)
(-2.3156861 -0.27759022 0 2.1909601e-05 0 0)
(-2.3458224 -0.27985568 0 -2.0928405e-05 0 0)
(-2.317444 -0.27772289 0 1.9613058e-05 0 0)
(-2.3441027 -0.27972766 0 -1.8610987e-05 0 0)
(-2.3190247 -0.27784203 0 1.7526462e-05 0 0)
(-2.3425788 -0.27961413 0 -1.6595002e-05 0 0)
(-2.3204407 -0.27794863 0 1.5665759e-05 0 0)
(-2.3412223 -0.27951305 0 -1.4829254e-05 0 0)
(-2.3217079 -0.2780439 0 1.4020636e-05 0 0)
(-2.3400117 -0.27942283 0 -1.327991e-05 0 0)
(-2.3228426 -0.27812911 0 1.2573137e-05 0 0)
(-2.3389287 -0.27934214 0 -1.1921852e-05 0 0)
(-2.3238601 -0.27820541 0 1.1304337e-05 0 0)
(-2.3379576 -0.27926983 0 -1.0734546e-05 0 0)
(-2.3247748 -0.2782739 0 1.0196514e-05 0 0)
(-2.3370844 -0.27920487 0 -9.7004902e-06 0 0)
(-2.3255993 -0.27833552 0 9.2338166e-06 0 0)
(-2.3362964 -0.27914631 0 -8.8045713e-06 0 0)
(-2.3263454 -0.27839118 0 8.4023534e-06 0 0)
(-2.3355823 -0.27909332 0 -8.0337802e-06 0 0)
(-2.3270236 -0.27844165 0 7.6901451e-06 0 0)
(-2.3349319 -0.27904516 0 -7.3770284e-06 0 0)
(-2.3276436 -0.27848766 0 7.0870701e-06 0 0)
(-2.3343358 -0.27900112 0 -6.8250853e-06 0 0)
(-2.3282141 -0.27852986 0 6.584837e-06 0 0)
(-2.3337854 -0.27896058 0 -6.3705843e-06 0 0)
(-2.3287433 -0.27856885 0 6.1772012e-06 0 0)
(-2.3332729 -0.27892298 0 -6.0083171e-06 0 0)
(-2.3292388 -0.27860519 0 5.859936e-06 0 0)
(-2.3327909 -0.27888779 0 -5.7386309e-06 0 0)
(-2.3297072 -0.27863939 0 5.6272105e-06 0 0)
(-2.3323305 -0.27885441 0 -5.5700535e-06 0 0)
(-2.3301513 -0.27867143 0 5.5379441e-06 0 0)
(-2.3318824 -0.27882105 0 -5.2416719e-06 0 0)
(-2.3306215 -0.2786998 0 6.7172895e-06 0 0)
(-2.3316354 -0.27880776 0 -6.2901385e-06 0 0)
(-1.6628748 -0.74756758 0 -0.27859085 0 0)
(-3.0621865 -0.34043037 0 -0.013384034 0 0)
(-2.5036159 -0.31125211 0 -0.0077340085 0 0)
(-2.3793142 -0.2816416 0 -0.00042731861 0 0)
(-2.2012502 -0.27062694 0 -0.00015505842 0 0)
(-2.2461328 -0.27422774 0 -0.0001176082 0 0)
(-2.1827806 -0.26951072 0 -5.2150044e-05 0 0)
(-2.227168 -0.27283987 0 -4.0593527e-05 0 0)
(-2.1818439 -0.26934209 0 1.5898969e-05 0 0)
(-2.2215833 -0.2724411 0 -2.5202378e-05 0 0)
(-2.1838669 -0.26949804 0 2.2427805e-05 0 0)
(-2.2188788 -0.27224728 0 -2.2950659e-05 0 0)
(-2.1858286 -0.26965401 0 2.0925227e-05 0 0)
(-2.2168093 -0.27208904 0 -2.0472278e-05 0 0)
(-2.1875969 -0.26979393 0 1.8898069e-05 0 0)
(-2.2150284 -0.27195068 0 -1.8119892e-05 0 0)
(-2.1891954 -0.26992025 0 1.6940547e-05 0 0)
(-2.2134625 -0.27182876 0 -1.6098275e-05 0 0)
(-2.1906325 -0.27003368 0 1.5146632e-05 0 0)
(-2.2120749 -0.27172062 0 -1.4348634e-05 0 0)
(-2.1919199 -0.27013518 0 1.3541176e-05 0 0)
(-2.21084 -0.27162435 0 -1.281981e-05 0 0)
(-2.193072 -0.27022591 0 1.2119877e-05 0 0)
(-2.2097381 -0.27153842 0 -1.1479683e-05 0 0)
(-2.1941036 -0.27030704 0 1.0868783e-05 0 0)
(-2.2087526 -0.27146158 0 -1.0305495e-05 0 0)
(-2.1950287 -0.27037972 0 9.7720098e-06 0 0)
(-2.207869 -0.2713927 0 -9.2791089e-06 0 0)
(-2.1958602 -0.27044494 0 8.8143549e-06 0 0)
(-2.2070746 -0.27133081 0 -8.3852543e-06 0 0)
(-2.1966097 -0.27050366 0 7.9821399e-06 0 0)
(-2.2063578 -0.27127501 0 -7.6108102e-06 0 0)
(-2.1972879 -0.27055669 0 7.2633577e-06 0 0)
(-2.2057084 -0.27122451 0 -6.9445174e-06 0 0)
(-2.1979044 -0.2706048 0 6.647656e-06 0 0)
(-2.2051169 -0.27117858 0 -6.3767947e-06 0 0)
(-2.1984678 -0.27064868 0 6.126303e-06 0 0)
(-2.2045749 -0.27113658 0 -5.8996869e-06 0 0)
(-2.1989863 -0.27068894 0 5.6921624e-06 0 0)
(-2.2040747 -0.2710979 0 -5.5068674e-06 0 0)
(-2.199467 -0.27072616 0 5.3399175e-06 0 0)
(-2.2036091 -0.27106199 0 -5.1938914e-06 0 0)
(-2.1999169 -0.27076086 0 5.0659591e-06 0 0)
(-2.2031713 -0.27102837 0 -4.9618005e-06 0 0)
(-2.2003423 -0.27079356 0 4.8635069e-06 0 0)
(-2.2027535 -0.27099649 0 -4.8209828e-06 0 0)
(-2.200745 -0.2708242 0 4.7912993e-06 0 0)
(-2.2023446 -0.27096428 0 -4.4733419e-06 0 0)
(-2.2011614 -0.27085019 0 6.0922391e-06 0 0)
(-2.2020803 -0.27094957 0 -5.7104088e-06 0 0)
(-1.621545 -0.70172111 0 -0.24779151 0 0)
(-2.6980546 -0.32338537 0 -0.014145635 0 0)
(-2.3378469 -0.30433649 0 -0.0085004786 0 0)
(-2.2459166 -0.27423822 0 -0.00058616801 0 0)
(-2.0834422 -0.26335995 0 -0.00024021962 0 0)
(-2.1174159 -0.26628263 0 -0.00013817243 0 0)
(-2.0595376 -0.26178199 0 -6.7872186e-05 0 0)
(-2.0994492 -0.26490396 0 -3.872977e-05 0 0)
(-2.0580381 -0.26157492 0 1.1039881e-05 0 0)
(-2.0940925 -0.26451353 0 -2.1691579e-05 0 0)
(-2.0597153 -0.26171486 0 1.9160712e-05 0 0)
(-2.0915741 -0.26432949 0 -1.9927274e-05 0 0)
(-2.0614682 -0.26186241 0 1.8040834e-05 0 0)
(-2.0896825 -0.26417932 0 -1.7804163e-05 0 0)
(-2.0630736 -0.26199553 0 1.633653e-05 0 0)
(-2.0880592 -0.26404768 0 -1.5731049e-05 0 0)
(-2.0645278 -0.26211574 0 1.4666651e-05 0 0)
(-2.0866322 -0.26393161 0 -1.3960901e-05 0 0)
(-2.0658353 -0.26222368 0 1.3121959e-05 0 0)
(-2.0853678 -0.26382868 0 -1.2437762e-05 0 0)
(-2.0670066 -0.26232026 0 1.173384e-05 0 0)
(-2.0842428 -0.26373704 0 -1.1110512e-05 0 0)
(-2.0680548 -0.2624066 0 1.0503056e-05 0 0)
(-2.0832392 -0.26365526 0 -9.9484074e-06 0 0)
(-2.0689933 -0.26248382 0 9.4190963e-06 0 0)
(-2.0823417 -0.26358212 0 -8.9306617e-06 0 0)
(-2.0698349 -0.26255298 0 8.468683e-06 0 0)
(-2.0815371 -0.26351655 0 -8.0411751e-06 0 0)
(-2.0705914 -0.26261508 0 7.6387715e-06 0 0)
(-2.0808139 -0.26345762 0 -7.2665786e-06 0 0)
(-2.0712733 -0.26267098 0 6.917538e-06 0 0)
(-2.0801613 -0.26340448 0 -6.5954491e-06 0 0)
(-2.0718904 -0.26272148 0 6.2945807e-06 0 0)
(-2.0795702 -0.26335638 0 -6.0180148e-06 0 0)
(-2.0724512 -0.26276732 0 5.7609282e-06 0 0)
(-2.0790319 -0.26331262 0 -5.5259713e-06 0 0)
(-2.0729637 -0.26280913 0 5.3090226e-06 0 0)
(-2.0785387 -0.26327258 0 -5.1124359e-06 0 0)
(-2.0734353 -0.26284751 0 4.932693e-06 0 0)
(-2.0780836 -0.26323569 0 -4.771944e-06 0 0)
(-2.0738725 -0.26288301 0 4.6273791e-06 0 0)
(-2.07766 -0.26320143 0 -4.5006519e-06 0 0)
(-2.0742815 -0.26291614 0 4.3899495e-06 0 0)
(-2.0772621 -0.26316934 0 -4.3000523e-06 0 0)
(-2.0746682 -0.26294737 0 4.2127045e-06 0 0)
(-2.0768825 -0.2631389 0 -4.1821584e-06 0 0)
(-2.075034 -0.26297667 0 4.1524886e-06 0 0)
(-2.0765094 -0.26310788 0 -3.8188183e-06 0 0)
(-2.0754032 -0.26300061 0 5.5283658e-06 0 0)
(-2.0762358 -0.26309197 0 -5.1826461e-06 0 0)
(-1.6039563 -0.67647053 0 -0.23149921 0 0)
(-2.3573666 -0.30784705 0 -0.015345363 0 0)
(-2.1830416 -0.29745671 0 -0.009007933 0 0)
(-2.0995372 -0.26568356 0 -0.00076360316 0 0)
(-1.9565513 -0.25542673 0 -0.0003146114 0 0)
(-1.9897326 -0.25821279 0 -0.00015767136 0 0)
(-1.9382532 -0.25398112 0 -8.1013238e-05 0 0)
(-1.9750557 -0.25695003 0 -3.687365e-05 0 0)
(-1.9375003 -0.2537949 0 6.8862174e-06 0 0)
(-1.9703638 -0.25658538 0 -1.8496499e-05 0 0)
(-1.939072 -0.25392765 0 1.6328421e-05 0 0)
(-1.9680923 -0.25641336 0 -1.722188e-05 0 0)
(-1.9406689 -0.2540684 0 1.5498611e-05 0 0)
(-1.9663746 -0.2562714 0 -1.5431857e-05 0 0)
(-1.9421323 -0.25419523 0 1.4066898e-05 0 0)
(-1.9648969 -0.25614636 0 -1.3611145e-05 0 0)
(-1.9434568 -0.25430958 0 1.264982e-05 0 0)
(-1.9635966 -0.25603598 0 -1.2064976e-05 0 0)
(-1.944647 -0.25441223 0 1.1326015e-05 0 0)
(-1.9624444 -0.25593809 0 -1.0742934e-05 0 0)
(-1.945713 -0.25450406 0 1.0130761e-05 0 0)
(-1.9614193 -0.25585094 0 -9.5945456e-06 0 0)
(-1.9466669 -0.25458615 0 9.069035e-06 0 0)
(-1.9605049 -0.25577317 0 -8.5903689e-06 0 0)
(-1.947521 -0.25465958 0 8.1333538e-06 0 0)
(-1.9596873 -0.2557036 0 -7.7113855e-06 0 0)
(-1.948287 -0.25472535 0 7.3127664e-06 0 0)
(-1.9589545 -0.25564124 0 -6.9433106e-06 0 0)
(-1.9489755 -0.25478442 0 6.596152e-06 0 0)
(-1.9582957 -0.25558518 0 -6.2744687e-06 0 0)
(-1.9495962 -0.2548376 0 5.9733378e-06 0 0)
(-1.9577015 -0.25553461 0 -5.6949462e-06 0 0)
(-1.9501578 -0.25488566 0 5.4353484e-06 0 0)
(-1.9571631 -0.25548882 0 -5.1962904e-06 0 0)
(-1.9506682 -0.25492929 0 4.9744359e-06 0 0)
(-1.956673 -0.25544716 0 -4.7713262e-06 0 0)
(-1.9511347 -0.25496911 0 4.5840789e-06 0 0)
(-1.956224 -0.25540902 0 -4.4141145e-06 0 0)
(-1.9515638 -0.25500567 0 4.2589527e-06 0 0)
(-1.9558097 -0.25537387 0 -4.1199424e-06 0 0)
(-1.9519616 -0.2550395 0 3.9951489e-06 0 0)
(-1.9554242 -0.25534121 0 -3.8854736e-06 0 0)
(-1.9523337 -0.25507109 0 3.7899413e-06 0 0)
(-1.9550622 -0.2553106 0 -3.7125e-06 0 0)
(-1.9526854 -0.25510089 0 3.6348457e-06 0 0)
(-1.9547172 -0.25528157 0 -3.6144736e-06 0 0)
(-1.953018 -0.25512889 0 3.583831e-06 0 0)
(-1.9543767 -0.25525177 0 -3.2400778e-06 0 0)
(-1.9533459 -0.25515107 0 4.9971952e-06 0 0)
(-1.9541 -0.25523488 0 -4.6872162e-06 0 0)
(-1.5875549 -0.63369275 0 -0.20274726 0 0)
(-2.051754 -0.29261755 0 -0.016143783 0 0)
(-2.0276986 -0.28707256 0 -0.0085888906 0 0)
(-1.9650013 -0.25988138 0 -0.0015624803 0 0)
(-1.8394656 -0.24821584 0 -0.00050022282 0 0)
(-1.8678674 -0.25028372 0 -0.00019210472 0 0)
(-1.8213836 -0.24622449 0 -9.6786123e-05 0 0)
(-1.854895 -0.24901556 0 -3.5737686e-05 0 0)
(-1.8206745 -0.24601868 0 3.029332e-06 0 0)
(-1.8505515 -0.24866306 0 -1.5625741e-05 0 0)
(-1.8220313 -0.24613932 0 1.3805423e-05 0 0)
(-1.848449 -0.24850008 0 -1.477552e-05 0 0)
(-1.8234612 -0.24627255 0 1.3219185e-05 0 0)
(-1.8468774 -0.24836553 0 -1.3291204e-05 0 0)
(-1.8247899 -0.24639313 0 1.2024689e-05 0 0)
(-1.8455298 -0.24824677 0 -1.1701006e-05 0 0)
(-1.8259953 -0.24650181 0 1.0833594e-05 0 0)
(-1.8443447 -0.24814189 0 -1.0357408e-05 0 0)
(-1.8270785 -0.24659933 0 9.7085616e-06 0 0)
(-1.8432946 -0.24804887 0 -9.2166729e-06 0 0)
(-1.8280487 -0.24668657 0 8.6870597e-06 0 0)
(-1.8423606 -0.24796606 0 -8.2294193e-06 0 0)
(-1.8289168 -0.24676456 0 7.7776258e-06 0 0)
(-1.8415276 -0.24789215 0 -7.3674774e-06 0 0)
(-1.8296942 -0.24683433 0 6.9754919e-06 0 0)
(-1.8407828 -0.24782604 0 -6.6134436e-06 0 0)
(-1.8303914 -0.24689683 0 6.2718121e-06 0 0)
(-1.8401153 -0.24776676 0 -5.9546791e-06 0 0)
(-1.831018 -0.24695297 0 5.6572076e-06 0 0)
(-1.8395152 -0.24771347 0 -5.3810405e-06 0 0)
(-1.831583 -0.24700352 0 5.1229977e-06 0 0)
(-1.838974 -0.24766539 0 -4.8839765e-06 0 0)
(-1.8320941 -0.24704922 0 4.6614932e-06 0 0)
(-1.8384837 -0.24762185 0 -4.4562223e-06 0 0)
(-1.8325587 -0.24709072 0 4.2660469e-06 0 0)
(-1.8380373 -0.24758221 0 -4.0916169e-06 0 0)
(-1.8329833 -0.24712861 0 3.9310669e-06 0 0)
(-1.8376285 -0.24754591 0 -3.7850651e-06 0 0)
(-1.8333739 -0.24716341 0 3.6519828e-06 0 0)
(-1.8372513 -0.24751244 0 -3.5325213e-06 0 0)
(-1.8337359 -0.24719563 0 3.4254584e-06 0 0)
(-1.8369005 -0.24748133 0 -3.3310877e-06 0 0)
(-1.8340745 -0.24722572 0 3.2491204e-06 0 0)
(-1.836571 -0.24745216 0 -3.1827361e-06 0 0)
(-1.8343945 -0.24725414 0 3.1138602e-06 0 0)
(-1.8362574 -0.2474245 0 -3.1021353e-06 0 0)
(-1.834697 -0.24728088 0 3.0701455e-06 0 0)
(-1.8359468 -0.24739593 0 -2.7212944e-06 0 0)
(-1.8349883 -0.24730153 0 4.4893667e-06 0 0)
(-1.8356715 -0.24737824 0 -4.2198497e-06 0 0)
(-1.5843055 -0.61286394 0 -0.18927346 0 0)
(-1.8134225 -0.28045387 0 -0.017210797 0 0)
(-1.8743915 -0.27426099 0 -0.0077316046 0 0)
(-1.8283871 -0.25245647 0 -0.0020229151 0 0)
(-1.7222844 -0.24054739 0 -0.00061797598 0 0)
(-1.749133 -0.24227422 0 -0.0002132758 0 0)
(-1.7075392 -0.23842163 0 -0.00010637309 0 0)
(-1.7383446 -0.24106965 0 -3.3203241e-05 0 0)
(-1.7072842 -0.23823275 0 1.0038336e-07 0 0)
(-1.7345031 -0.24074084 0 -1.2838101e-05 0 0)
(-1.7085458 -0.23834742 0 1.1618681e-05 0 0)
(-1.7326004 -0.24058851 0 -1.2530828e-05 0 0)
(-1.7098456 -0.2384744 0 1.117818e-05 0 0)
(-1.7311718 -0.24046146 0 -1.1348523e-05 0 0)
(-1.7110559 -0.23858916 0 1.0182867e-05 0 0)
(-1.7299454 -0.24034885 0 -9.9730409e-06 0 0)
(-1.7121534 -0.23869241 0 9.1929623e-06 0 0)
(-1.7288662 -0.2402493 0 -8.8140443e-06 0 0)
(-1.7131392 -0.23878499 0 8.2470487e-06 0 0)
(-1.7279098 -0.24016099 0 -7.8374994e-06 0 0)
(-1.7140219 -0.23886781 0 7.3825109e-06 0 0)
(-1.7270591 -0.24008236 0 -6.9959317e-06 0 0)
(-1.7148118 -0.23894185 0 6.6106976e-06 0 0)
(-1.7263004 -0.24001219 0 -6.2625219e-06 0 0)
(-1.7155191 -0.23900808 0 5.9292333e-06 0 0)
(-1.7256221 -0.23994941 0 -5.6213734e-06 0 0)
(-1.7161534 -0.23906743 0 5.3311736e-06 0 0)
(-1.7250142 -0.23989312 0 -5.0613505e-06 0 0)
(-1.7167236 -0.23912074 0 4.8087198e-06 0 0)
(-1.7244679 -0.2398425 0 -4.5737015e-06 0 0)
(-1.7172377 -0.23916876 0 4.3545426e-06 0 0)
(-1.723975 -0.23979682 0 -4.1511085e-06 0 0)
(-1.7177029 -0.23921218 0 3.9621165e-06 0 0)
(-1.7235286 -0.23975544 0 -3.7873799e-06 0 0)
(-1.7181257 -0.23925162 0 3.6257872e-06 0 0)
(-1.7231222 -0.23971775 0 -3.477269e-06 0 0)
(-1.7185121 -0.23928764 0 3.3407998e-06 0 0)
(-1.7227501 -0.23968324 0 -3.2164382e-06 0 0)
(-1.7188675 -0.23932074 0 3.1032593e-06 0 0)
(-1.7224067 -0.2396514 0 -3.0014373e-06 0 0)
(-1.7191969 -0.2393514 0 2.9103347e-06 0 0)
(-1.7220874 -0.23962179 0 -2.8297519e-06 0 0)
(-1.7195049 -0.23938004 0 2.7599635e-06 0 0)
(-1.7217877 -0.23959401 0 -2.7034375e-06 0 0)
(-1.719796 -0.23940712 0 2.6425825e-06 0 0)
(-1.7215026 -0.23956767 0 -2.6381201e-06 0 0)
(-1.7200712 -0.23943263 0 2.6047994e-06 0 0)
(-1.7212195 -0.23954034 0 -2.2552102e-06 0 0)
(-1.7203301 -0.23945195 0 4.0029133e-06 0 0)
(-1.720949 -0.23952203 0 -3.7808216e-06 0 0)
(-1.5770421 -0.57471728 0 -0.16501419 0 0)
(-1.6331412 -0.26407314 0 -0.015547984 0 0)
(-1.7250355 -0.26673532 0 -0.0091218215 0 0)
(-1.6989735 -0.24363669 0 -0.0020285094 0 0)
(-1.6098224 -0.23259126 0 -0.00064041746 0 0)
(-1.6349284 -0.23422251 0 -0.00021194754 0 0)
(-1.5975367 -0.23060007 0 -0.0001076419 0 0)
(-1.6257456 -0.23312335 0 -2.8461919e-05 0 0)
(-1.5975249 -0.23044304 0 -1.766688e-06 0 0)
(-1.622286 -0.23282107 0 -1.0049366e-05 0 0)
(-1.5986671 -0.23055323 0 9.746411e-06 0 0)
(-1.6205516 -0.23267909 0 -1.045782e-05 0 0)
(-1.5998417 -0.23067427 0 9.3481436e-06 0 0)
(-1.619251 -0.23255925 0 -9.5793717e-06 0 0)
(-1.6009422 -0.23078343 0 8.5175923e-06 0 0)
(-1.6181351 -0.23245259 0 -8.4052309e-06 0 0)
(-1.6019407 -0.23088144 0 7.7069053e-06 0 0)
(-1.6171529 -0.23235819 0 -7.4151358e-06 0 0)
(-1.6028372 -0.23096927 0 6.9227444e-06 0 0)
(-1.6162824 -0.23227441 0 -6.5877318e-06 0 0)
(-1.6036398 -0.23104782 0 6.2003704e-06 0 0)
(-1.6155081 -0.23219983 0 -5.8782452e-06 0 0)
(-1.604358 -0.23111804 0 5.5532561e-06 0 0)
(-1.6148176 -0.23213326 0 -5.2612998e-06 0 0)
(-1.6050011 -0.23118086 0 4.9811246e-06 0 0)
(-1.6142003 -0.2320737 0 -4.7224155e-06 0 0)
(-1.605578 -0.23123717 0 4.4787518e-06 0 0)
(-1.6136471 -0.23202028 0 -4.251833e-06 0 0)
(-1.6060965 -0.23128775 0 4.0397746e-06 0 0)
(-1.6131499 -0.23197223 0 -3.8420673e-06 0 0)
(-1.606564 -0.23133333 0 3.6580911e-06 0 0)
(-1.6127014 -0.23192887 0 -3.48692e-06 0 0)
(-1.6069871 -0.23137455 0 3.3282305e-06 0 0)
(-1.6122952 -0.23188958 0 -3.1811713e-06 0 0)
(-1.6073717 -0.23141201 0 3.0454376e-06 0 0)
(-1.6119254 -0.23185378 0 -2.9204014e-06 0 0)
(-1.6077231 -0.23144622 0 2.8057136e-06 0 0)
(-1.6115868 -0.23182099 0 -2.7009557e-06 0 0)
(-1.6080463 -0.23147768 0 2.6057712e-06 0 0)
(-1.6112745 -0.23179072 0 -2.5199184e-06 0 0)
(-1.6083459 -0.23150682 0 2.4432284e-06 0 0)
(-1.610984 -0.23176256 0 -2.3751148e-06 0 0)
(-1.608626 -0.23153407 0 2.3163007e-06 0 0)
(-1.6107114 -0.23173613 0 -2.2686093e-06 0 0)
(-1.6088907 -0.23155984 0 2.215146e-06 0 0)
(-1.6104524 -0.23171107 0 -2.2167055e-06 0 0)
(-1.609141 -0.23158416 0 2.182369e-06 0 0)
(-1.6101946 -0.23168498 0 -1.8359142e-06 0 0)
(-1.6093709 -0.23160231 0 3.53653e-06 0 0)
(-1.6099314 -0.23166621 0 -3.3700159e-06 0 0)
(-1.5717415 -0.54978221 0 -0.14976728 0 0)
(-1.4851865 -0.2536906 0 -0.015699417 0 0)
(-1.5806616 -0.25607181 0 -0.0091353877 0 0)
(-1.5818228 -0.23408838 0 -0.0015364439 0 0)
(-1.5068489 -0.22470407 0 -0.00057161755 0 0)
(-1.5265101 -0.22617002 0 -0.00018150048 0 0)
(-1.4920138 -0.22277551 0 -9.8566122e-05 0 0)
(-1.5173325 -0.22517999 0 -2.0330317e-05 0 0)
(-1.491521 -0.22265111 0 -2.1809597e-06 0 0)
(-1.5139341 -0.22490407 0 -7.0611717e-06 0 0)
(-1.4924249 -0.22275696 0 8.2239203e-06 0 0)
(-1.5122995 -0.22477175 0 -8.5051062e-06 0 0)
(-1.4934616 -0.22287221 0 7.715105e-06 0 0)
(-1.5111067 -0.2246588 0 -7.9563698e-06 0 0)
(-1.4944573 -0.22297596 0 7.0095261e-06 0 0)
(-1.5100909 -0.2245579 0 -6.9762666e-06 0 0)
(-1.4953644 -0.22306894 0 6.3567952e-06 0 0)
(-1.5091979 -0.22446848 0 -6.1423147e-06 0 0)
(-1.496179 -0.22315219 0 5.7186663e-06 0 0)
(-1.5084064 -0.2243891 0 -5.4511148e-06 0 0)
(-1.4969081 -0.22322663 0 5.1253591e-06 0 0)
(-1.5077024 -0.22431841 0 -4.8618525e-06 0 0)
(-1.4975605 -0.22329317 0 4.5915937e-06 0 0)
(-1.5070745 -0.22425531 0 -4.3508179e-06 0 0)
(-1.4981448 -0.22335272 0 4.1188624e-06 0 0)
(-1.5065132 -0.22419885 0 -3.9049025e-06 0 0)
(-1.4986689 -0.22340609 0 3.7034811e-06 0 0)
(-1.5060102 -0.22414821 0 -3.5156203e-06 0 0)
(-1.49914 -0.22345404 0 3.340391e-06 0 0)
(-1.5055582 -0.22410265 0 -3.1766448e-06 0 0)
(-1.4995648 -0.22349727 0 3.024606e-06 0 0)
(-1.5051504 -0.22406152 0 -2.8827968e-06 0 0)
(-1.4999493 -0.22353637 0 2.7516152e-06 0 0)
(-1.5047811 -0.22402424 0 -2.6297405e-06 0 0)
(-1.5002987 -0.2235719 0 2.5174798e-06 0 0)
(-1.5044449 -0.22399027 0 -2.4138063e-06 0 0)
(-1.5006181 -0.22360437 0 2.3188871e-06 0 0)
(-1.5041371 -0.22395914 0 -2.2319582e-06 0 0)
(-1.5009118 -0.22363424 0 2.1530995e-06 0 0)
(-1.5038532 -0.2239304 0 -2.0817635e-06 0 0)
(-1.501184 -0.22366192 0 2.0181374e-06 0 0)
(-1.5035892 -0.22390364 0 -1.9613532e-06 0 0)
(-1.5014385 -0.22368781 0 1.9124685e-06 0 0)
(-1.5033415 -0.22387852 0 -1.8727431e-06 0 0)
(-1.501679 -0.22371232 0 1.8261465e-06 0 0)
(-1.5031064 -0.2238547 0 -1.8326221e-06 0 0)
(-1.5019065 -0.22373549 0 1.7977931e-06 0 0)
(-1.5028718 -0.22382984 0 -1.4579186e-06 0 0)
(-1.5021106 -0.22375259 0 3.0888128e-06 0 0)
(-1.502618 -0.22381074 0 -2.9866492e-06 0 0)
(-1.563986 -0.52469996 0 -0.13561846 0 0)
(-1.3623699 -0.24147819 0 -0.014858796 0 0)
(-1.4508859 -0.24564072 0 -0.0090914072 0 0)
(-1.4732273 -0.22510661 0 -0.0011722323 0 0)
(-1.4068449 -0.21680867 0 -0.000500776 0 0)
(-1.4223709 -0.21815746 0 -0.00014709642 0 0)
(-1.3902212 -0.21495359 0 -8.694572e-05 0 0)
(-1.412854 -0.21724609 0 -1.1463773e-05 0 0)
(-1.3891968 -0.21485977 0 -2.0060833e-06 0 0)
(-1.4094177 -0.21699148 0 -4.118141e-06 0 0)
(-1.3898271 -0.21495963 0 6.9405969e-06 0 0)
(-1.4078397 -0.21686697 0 -6.6788181e-06 0 0)
(-1.3907171 -0.21506858 0 6.2494292e-06 0 0)
(-1.4067345 -0.21676024 0 -6.4634063e-06 0 0)
(-1.3916101 -0.21516692 0 5.6396061e-06 0 0)
(-1.4058076 -0.21666479 0 -5.6694377e-06 0 0)
(-1.3924314 -0.21525499 0 5.1263972e-06 0 0)
(-1.4049958 -0.21658016 0 -4.9803949e-06 0 0)
(-1.3931702 -0.21533382 0 4.6203828e-06 0 0)
(-1.4042768 -0.21650501 0 -4.4140398e-06 0 0)
(-1.3938317 -0.21540429 0 4.1445781e-06 0 0)
(-1.4036374 -0.21643808 0 -3.9345664e-06 0 0)
(-1.3944237 -0.21546729 0 3.7141639e-06 0 0)
(-1.4030671 -0.21637832 0 -3.520149e-06 0 0)
(-1.3949538 -0.21552367 0 3.3320909e-06 0 0)
(-1.4025574 -0.21632485 0 -3.159019e-06 0 0)
(-1.3954294 -0.21557422 0 2.9960511e-06 0 0)
(-1.4021006 -0.21627688 0 -2.8438731e-06 0 0)
(-1.395857 -0.21561964 0 2.7021714e-06 0 0)
(-1.4016901 -0.21623372 0 -2.5694462e-06 0 0)
(-1.3962425 -0.21566059 0 2.4464843e-06 0 0)
(-1.4013198 -0.21619474 0 -2.3314905e-06 0 0)
(-1.3965914 -0.21569764 0 2.2253539e-06 0 0)
(-1.4009844 -0.21615941 0 -2.1264755e-06 0 0)
(-1.3969086 -0.21573132 0 2.0355861e-06 0 0)
(-1.4006792 -0.2161272 0 -1.9514156e-06 0 0)
(-1.3971985 -0.21576211 0 1.8744929e-06 0 0)
(-1.4003996 -0.21609767 0 -1.8038371e-06 0 0)
(-1.3974651 -0.21579044 0 1.7398366e-06 0 0)
(-1.4001419 -0.2160704 0 -1.6817459e-06 0 0)
(-1.3977122 -0.21581671 0 1.6300004e-06 0 0)
(-1.3999022 -0.21604501 0 -1.5835519e-06 0 0)
(-1.3979431 -0.21584129 0 1.5436827e-06 0 0)
(-1.3996774 -0.21602115 0 -1.5111792e-06 0 0)