/*--------------------------------*- C++ -*----------------------------------*\
| =========                 |                                                 |
| \\      /  F ield         | OpenFOAM: The Open Source CFD Toolbox           |
|  \\    /   O peration     | Version:  2312                                  |
|   \\  /    A nd           | Website:  www.openfoam.com                      |
|    \\/     M anipulation  |                                                 |
\*---------------------------------------------------------------------------*/
FoamFile
{
    version     2.0;
    format      ascii;
    arch        "LSB;label=32;scalar=64";
    class       volScalarField;
    location    "4";
    object      T;
}
// * * * * * * * * * * * * * * * * * * * * * * * * * * * * * * * * * * * * * //

dimensions      [0 0 0 1 0 0 0];

internalField   nonuniform List<scalar> 
4000
(
310.51916
311.79561
311.99458
312.07665
312.13478
312.18892
312.23068
312.27482
312.30991
312.34929
312.38127
312.41782
312.44802
312.48267
312.51173
312.54503
312.57331
312.60561
312.63333
312.66487
312.69216
312.7231
312.75007
312.78052
312.80722
312.83729
312.86377
312.89352
312.91982
312.94931
312.97543
313.00471
313.03069
313.05979
313.08563
313.11459
313.1403
313.16915
313.19473
313.2235
313.24895
313.27767
313.30297
313.33168
313.35682
313.38556
313.41049
313.43936
313.4639
313.49353
308.3056
310.50149
311.03919
311.23339
311.35562
311.46591
311.53921
311.61953
311.67283
311.7389
311.78288
311.84046
311.87908
311.93098
311.96618
312.01405
312.04689
312.09177
312.12293
312.16552
312.19541
312.2362
312.2651
312.30445
312.33256
312.37074
312.39819
312.43542
312.4623
312.49875
312.52514
312.56094
312.58688
312.62217
312.64769
312.68255
312.70768
312.74222
312.76696
312.80125
312.82559
312.85974
312.88366
312.91775
312.94118
312.97538
312.99817
313.03278
313.05438
313.09117
306.89654
309.24752
310.09092
310.39433
310.57951
310.74513
310.84979
310.96587
311.03737
311.12985
311.18586
311.26427
311.31136
311.38036
311.42174
311.48405
311.52152
311.57887
311.61352
311.66707
311.6996
311.75016
311.78104
311.82922
311.85877
311.90501
311.93345
311.97811
312.00562
312.04898
312.07565
312.11795
312.14388
312.18531
312.21054
312.25127
312.27584
312.31603
312.33995
312.37975
312.403
312.44255
312.46509
312.50456
312.52629
312.56593
312.5866
312.62691
312.64563
312.68928
305.94048
308.071
309.16148
309.56577
309.81085
310.02978
310.16513
310.316
310.40552
310.52379
310.5918
310.6906
310.7462
310.83196
310.87959
310.95607
310.99823
311.06783
311.10604
311.17036
311.2056
311.26578
311.2987
311.35557
311.38662
311.4408
311.4703
311.52229
311.55046
311.60064
311.62765
311.67636
311.70232
311.74982
311.7748
311.82134
311.84539
311.89118
311.91431
311.95955
311.98175
312.02664
312.04785
312.09263
312.11271
312.15773
312.17633
312.22226
312.2382
312.2883
305.26224
307.00454
308.26603
308.75641
309.05571
309.32435
309.4889
309.67287
309.7799
309.92295
310.00277
310.12125
310.1853
310.28729
310.34117
310.43142
310.4783
310.55982
310.60163
310.67646
310.71446
310.78403
310.81904
310.8844
310.91701
310.97896
311.00957
311.06873
311.09763
311.1545
311.1819
311.2369
311.26293
311.3164
311.34118
311.39342
311.417
311.46829
311.49068
311.54127
311.56247
311.61262
311.63255
311.68257
311.70104
311.75135
311.76795
311.81939
311.83271
311.88875
304.76589
306.07123
307.42085
307.9766
308.32148
308.63435
308.82559
309.04015
309.16375
309.33007
309.42127
309.55841
309.63071
309.74818
309.80823
309.91166
309.96324
310.05621
310.10164
310.1866
310.22738
310.30602
310.34317
310.41675
310.45096
310.52045
310.55221
310.61834
310.64801
310.7114
310.73923
310.80036
310.82652
310.88581
310.91043
310.96825
310.9914
311.04807
311.06978
311.1256
311.14585
311.20115
311.21985
311.27498
311.29193
311.3474
311.3621
311.41887
311.4298
311.49124
304.39428
305.28327
306.64118
307.23741
307.61634
307.96607
308.18033
308.42209
308.56076
308.74832
308.85017
309.0046
309.08477
309.21673
309.28274
309.39859
309.45476
309.55859
309.60759
309.70217
309.74573
309.83303
309.87232
309.95377
309.98961
310.06633
310.09928
310.17212
310.2026
310.27226
310.30057
310.36762
310.39396
310.45888
310.4834
310.54661
310.56939
310.63127
310.65236
310.71326
310.73263
310.79292
310.81047
310.87056
310.88607
310.94652
310.95945
311.02132
311.03014
311.09643
304.1113
304.64234
305.93917
306.54951
306.94868
307.32617
307.55864
307.82331
307.97495
308.18122
308.29263
308.46264
308.55006
308.69526
308.76688
308.8942
308.95475
309.06868
309.12113
309.22473
309.27099
309.36644
309.40784
309.49674
309.53419
309.61777
309.65191
309.73115
309.76245
309.83811
309.86691
309.93963
309.96618
310.0365
310.06095
310.12935
310.15181
310.2187
310.23922
310.30501
310.32356
310.38866
310.40514
310.47
310.48417
310.5494
310.56071
310.62739
310.63439
310.70502
303.89223
304.14048
305.32276
305.92206
306.32639
306.72127
306.9661
307.2486
307.41054
307.63246
307.75198
307.93551
308.02932
308.18628
308.26297
308.40063
308.46522
308.58837
308.64403
308.75592
308.80475
308.90775
308.95116
309.047
309.086
309.17601
309.21132
309.29656
309.32869
309.40999
309.43932
309.51739
309.54417
309.61961
309.64404
309.71736
309.73955
309.81122
309.83122
309.90167
309.91947
309.98915
310.00464
310.07404
310.08698
310.15673
310.1666
310.23775
310.24326
310.31771
303.71991
303.76294
304.79507
305.36179
305.75618
306.15742
306.40807
306.70267
306.87171
307.10579
307.2316
307.42628
307.52537
307.69237
307.77341
307.92011
307.98826
308.11958
308.17814
308.2975
308.34866
308.45851
308.50379
308.60597
308.64643
308.74236
308.77877
308.86957
308.90248
308.98905
309.01886
309.10195
309.12897
309.20921
309.23362
309.31157
309.33352
309.40968
309.42922
309.50406
309.52118
309.59517
309.60977
309.68343
309.69528
309.76925
309.77785
309.8531
309.85743
309.93526
303.58183
303.49038
304.35467
304.87234
305.24305
305.63975
305.8893
306.18991
306.36242
306.60481
306.73478
306.93797
307.041
307.21611
307.30061
307.45488
307.52598
307.66433
307.72535
307.85122
307.90441
308.02033
308.06726
308.17512
308.21688
308.31816
308.35555
308.45141
308.48503
308.57641
308.60668
308.69438
308.72161
308.80628
308.83069
308.91294
308.93466
309.015
309.03412
309.11304
309.12955
309.20755
309.22135
309.29896
309.30984
309.38769
309.39522
309.47417
309.47761
309.5584
303.46885
303.30166
303.99615
304.45405
304.78995
305.172
305.41364
305.71406
305.88619
306.13285
306.26462
306.47348
306.5789
306.76002
306.84694
307.00716
307.08048
307.22456
307.28752
307.41887
307.4737
307.59482
307.6431
307.75591
307.79875
307.90475
307.94297
308.04334
308.07755
308.17326
308.2039
308.29576
308.32316
308.41187
308.43625
308.52241
308.54393
308.62809
308.64681
308.72948
308.74542
308.8271
308.84019
308.9214
308.93145
309.0128
309.01946
309.10168
309.10448
309.18787
303.37443
303.17611
303.71109
304.10427
304.39753
304.75635
304.98381
305.27807
305.44594
305.69277
305.82382
306.0354
306.14152
306.32644
306.41459
306.57906
306.65373
306.80219
306.86645
307.00215
307.05815
307.18355
307.23282
307.34979
307.39344
307.50346
307.54232
307.64659
307.68125
307.78074
307.81166
307.9072
307.9347
308.02699
308.05131
308.14097
308.16226
308.24985
308.26821
308.35424
308.36967
308.45465
308.46711
308.55156
308.56089
308.64536
308.65132
308.73638
308.73875
308.82439
303.2937
303.095
303.48924
303.81787
304.06424
304.39322
304.60119
304.88391
305.0438
305.28681
305.41461
305.62596
305.73099
305.91746
306.00554
306.17249
306.24756
306.39897
306.46383
306.60271
306.65934
306.78802
306.83787
306.95815
307.0023
307.11561
307.15485
307.26237
307.29729
307.39999
307.43104
307.52974
307.55724
307.65264
307.67683
307.76955
307.7906
307.88119
307.89918
307.98817
308.00314
308.09102
308.10293
308.1902
308.19894
308.28609
308.29152
308.379
308.38111
308.46867
303.22337
303.04295
303.31965
303.58793
303.78651
304.08138
304.26579
304.5324
304.68101
304.91653
305.03863
305.24688
305.34904
305.53482
305.62151
305.78913
305.86361
306.0165
306.08118
306.22203
306.2787
306.40962
306.45959
306.58229
306.62657
306.7424
306.78174
306.89183
306.9268
307.03209
307.06311
307.16441
307.19179
307.28979
307.31378
307.40908
307.42983
307.52299
307.54061
307.63212
307.64665
307.737
307.74842
307.83809
307.84634
307.93575
307.94079
308.03026
308.03222
308.1214
303.16099
303.00808
303.19166
303.40651
303.55923
303.81805
303.97632
304.22328
304.35786
304.58268
304.69687
304.89937
304.99692
305.17985
305.26383
305.43036
305.50322
305.65613
305.71984
305.86141
305.91748
306.0496
306.0992
306.2234
306.26742
306.38497
306.42409
306.53605
306.57081
306.67806
306.70885
306.81217
306.8393
306.93935
306.96304
307.06042
307.08083
307.17606
307.19329
307.28687
307.30097
307.39336
307.40434
307.49596
307.50382
307.59504
307.5998
307.69084
307.69275
307.78322
303.10501
302.98212
303.09552
303.26534
303.37625
303.59924
303.73025
303.95519
304.07373
304.28521
304.38959
304.584
304.67537
304.85345
304.93344
305.0972
305.16743
305.31894
305.38086
305.52195
305.57677
305.70904
305.75773
305.88253
305.92585
306.04432
306.08289
306.19598
306.23026
306.33882
306.36918
306.47392
306.50063
306.60219
306.62546
306.7244
306.74438
306.8412
306.85801
306.95318
306.96686
307.06081
307.0714
307.16452
307.17205
307.26465
307.2692
307.36142
307.36332
307.45478
303.05426
302.95978
303.02288
303.1564
303.23098
303.4201
303.52414
303.72587
303.8271
304.02329
304.11638
304.30072
304.38456
304.55603
304.63086
304.79031
304.85694
305.0057
305.06504
305.20448
305.2574
305.38879
305.43604
305.56053
305.60274
305.7213
305.75896
305.87247
305.90599
306.01519
306.04488
306.15044
306.17656
306.27905
306.30178
306.40174
306.42122
306.51913
306.53546
306.63174
306.64498
306.74003
306.75025
306.84441
306.85165
306.94519
306.94961
307.04259
307.04451
307.13664
303.00803
302.93815
302.96696
303.07245
303.11685
303.27532
303.35386
303.53226
303.61573
303.79538
303.87617
304.04892
304.12414
304.28748
304.35617
304.50992
304.57207
304.71685
304.77287
304.90956
304.95995
305.0895
305.13479
305.25809
305.29873
305.41661
305.45301
305.56621
305.59867
305.70785
305.73665
305.84241
305.86775
305.97062
305.99266
306.09312
306.11199
306.21047
306.22627
306.32316
306.33595
306.43162
306.44147
306.53622
306.54321
306.63724
306.64156
306.73493
306.73687
306.82934
302.96575
302.91597
302.92255
303.00726
303.02768
303.15949
303.21488
303.3708
303.43679
303.59934
303.6673
303.82742
303.89323
304.04726
304.10899
304.25588
304.31281
304.45251
304.50453
304.63747
304.68476
304.81154
304.85438
304.97566
305.01433
305.13076
305.16554
305.27773
305.30885
305.41737
305.44504
305.5504
305.57478
305.67745
305.69867
305.79908
305.81724
305.91578
305.93098
306.028
306.0403
306.13612
306.1456
306.24048
306.24723
306.34134
306.34556
306.43893
306.44089
306.53337
302.92701
302.893
302.88589
302.95576
302.95799
303.06741
303.1026
303.23762
303.28702
303.43257
303.48766
303.63454
303.6905
303.83437
303.88855
304.02764
304.07874
304.21244
304.2599
304.3882
304.43188
304.55506
304.59499
304.71349
304.74979
304.86407
304.89689
305.00742
305.03691
305.14415
305.17045
305.27483
305.29805
305.39998
305.42022
305.52007
305.53741
305.63552
305.65003
305.74671
305.75847
305.85398
305.86306
305.95763
305.96415
306.05791
306.06204
306.15504
306.15699
306.24914
302.89147
302.86952
302.85438
302.91401
302.9031
302.99432
303.01254
303.12874
303.16296
303.29214
303.33474
303.46825
303.51424
303.64743
303.69371
303.82431
303.86914
303.99609
304.03854
304.16146
304.20109
304.31995
304.35658
304.4716
304.50519
304.61664
304.64721
304.75545
304.78306
304.88842
304.91314
305.01598
305.03787
305.13853
305.15765
305.25642
305.27284
305.37002
305.38378
305.47964
305.49081
305.58557
305.59422
305.68806
305.6943
305.78733
305.79134
305.88361
305.88554
305.97702
302.85885
302.84603
302.82636
302.87912
302.85921
302.93607
302.94059
303.04032
303.06111
303.17498
303.20585
303.32625
303.36244
303.48475
303.52301
303.64469
303.68298
303.80263
303.83975
303.95667
303.99192
304.10585
304.13886
304.24979
304.28036
304.38841
304.41646
304.52184
304.54733
304.65029
304.67322
304.774
304.79439
304.89327
304.91114
305.00836
305.02374
305.11954
305.13246
305.22705
305.23757
305.33115
305.33933
305.43203
305.43798
305.5299
305.53376
305.62494
305.62683
305.7173
302.82888
302.82302
302.80084
302.84904
302.82338
302.8892
302.88306
302.96877
302.97806
303.07799
303.09816
303.20604
303.23289
303.34442
303.37476
303.48731
303.51898
303.63097
303.66256
303.77304
303.80368
303.91218
303.94133
304.04766
304.07498
304.17911
304.20442
304.30644
304.32961
304.42966
304.45063
304.54888
304.56762
304.66426
304.68075
304.77597
304.7902
304.88419
304.89619
304.9891
304.99891
305.0909
305.09857
305.18974
305.19536
305.2858
305.28948
305.37925
305.38106
305.47019
302.80134
302.80086
302.77727
302.8224
302.79339
302.8509
302.83683
302.91089
302.91066
302.99819
303.00889
303.10507
303.12326
303.22434
303.24707
303.35053
303.37565
303.4798
303.50581
303.60955
303.63546
303.73816
303.76328
303.8646
303.88851
303.9883
304.01069
304.10892
304.12961
304.22632
304.24518
304.34047
304.35743
304.45141
304.46641
304.55921
304.57222
304.66398
304.675
304.76583
304.77488
304.8649
304.87201
304.9613
304.96654
305.05517
305.05863
305.14665
305.14836
305.23583
302.776
302.77981
302.75537
302.79832
302.76767
302.819
302.79932
302.86389
302.85604
302.93279
302.93533
303.02086
303.03119
303.12239
303.13798
303.23255
303.25136
303.34766
303.36817
303.46502
303.48617
303.58283
303.60385
303.69987
303.72024
303.81535
303.83472
303.92879
303.94689
304.03989
304.05653
304.14848
304.16356
304.2545
304.26792
304.35794
304.36964
304.45882
304.46878
304.55719
304.56541
304.65312
304.65962
304.7467
304.75153
304.83802
304.84123
304.9272
304.9288
305.01429
302.75268
302.76
302.735
302.77626
302.74511
302.79188
302.76847
302.82544
302.81173
302.87927
302.87501
302.95098
302.95441
303.03642
303.04546
303.13154
303.14439
303.23298
303.24819
303.33813
303.3546
303.4451
303.46203
303.55253
303.56935
303.65953
303.6758
303.76544
303.78087
303.86986
303.88421
303.9725
303.98562
304.07321
304.08498
304.17189
304.18223
304.26849
304.27734
304.36301
304.37035
304.45545
304.4613
304.54587
304.55024
304.63431
304.63723
304.72087
304.72233
304.80557
302.73119
302.74148
302.71611
302.75593
302.725
302.76837
302.74268
302.79364
302.77561
302.83543
302.82567
302.89323
302.89074
302.96435
302.96755
303.04562
303.05298
303.13414
303.14433
303.22747
303.23944
303.32375
303.33668
303.42157
303.43486
303.51994
303.53313
303.61812
303.63086
303.7156
303.72762
303.812
303.82312
303.90709
303.91716
304.00069
304.00961
304.09269
304.10039
304.18303
304.18947
304.27167
304.27683
304.35862
304.3625
304.4439
304.4465
304.52755
304.52885
304.60958
302.7114
302.72423
302.69866
302.73714
302.70688
302.74764
302.72078
302.76701
302.74598
302.79938
302.78533
302.8456
302.83817
302.90423
302.90233
302.97299
302.97539
303.04949
303.05504
303.13159
303.1393
303.21751
303.2266
303.30587
303.31573
303.39563
303.40578
303.486
303.49606
303.57638
303.58608
303.66635
303.67546
303.75559
303.76395
303.84386
303.85135
303.93101
303.93753
304.01691
304.02241
304.10149
304.10593
304.18471
304.18807
304.26656
304.26883
304.34705
304.34819
304.42616
302.69318
302.70821
302.68262
302.71981
302.69045
302.72914
302.7019
302.74439
302.72142
302.76955
302.7523
302.80632
302.7949
302.85426
302.84802
302.91191
302.90993
302.97743
302.97877
303.04902
303.05279
303.12506
303.13054
303.20425
303.21083
303.28555
303.29276
303.36814
303.3756
303.4514
303.4588
303.53483
303.54195
303.61808
303.62473
303.70086
303.7069
303.78296
303.78828
303.86421
303.86876
303.94452
303.94822
304.02379
304.02662
304.102
304.10392
304.17911
304.18008
304.25508
302.67642
302.69339
302.66795
302.70387
302.67555
302.7125
302.68542
302.72494
302.70087
302.74469
302.72516
302.77388
302.75934
302.81282
302.80299
302.86076
302.85502
302.91642
302.91402
302.97832
302.97852
303.04509
303.04721
303.11551
303.11902
303.18861
303.19303
303.26358
303.26853
303.33976
303.34495
303.41665
303.42183
303.49385
303.49882
303.57104
303.57566
303.64797
303.65211
303.72444
303.72803
303.80031
303.80327
303.87548
303.87776
303.94986
303.95142
304.02341
304.0242
304.09607
302.66104
302.67971
302.65462
302.6893
302.66207
302.69749
302.67094
302.70803
302.6835
302.72378
302.70275
302.747
302.73012
302.77849
302.76578
302.81809
302.80919
302.86499
302.85935
302.91811
302.91512
302.97628
302.97537
303.03845
303.03912
303.10371
303.10552
303.17129
303.17388
303.24055
303.24363
303.31098
303.31429
303.38215
303.3855
303.45372
303.45695
303.52542
303.5284
303.59703
303.59966
303.66836
303.67058
303.73929
303.74102
303.80972
303.81092
303.87957
303.88018
303.94877
302.64698
302.66717
302.6426
302.67607
302.64995
302.68396
302.65814
302.69321
302.66869
302.70604
302.68414
302.72461
302.70608
302.75003
302.73509
302.78256
302.77108
302.82182
302.81344
302.86707
302.86131
302.91738
302.91377
302.97187
302.96997
303.02973
303.02915
303.09025
303.09065
303.15283
303.15392
303.21694
303.21848
303.28217
303.28397
303.34817
303.35007
303.41464
303.4165
303.48135
303.48306
303.54809
303.54958
303.61471
303.61591
303.6811
303.68194
303.74716
303.74759
303.81279
302.63423
302.65575
302.63188
302.66416
302.63913
302.67181
302.64685
302.68015
302.65597
302.69086
302.66859
302.70587
302.68626
302.7264
302.70982
302.75302
302.73951
302.7857
302.77505
302.82398
302.81586
302.8672
302.86123
302.91463
302.91045
302.96559
302.96285
303.01944
303.01784
303.07562
303.07488
303.13364
303.13354
303.19309
303.19344
303.25362
303.25425
303.31492
303.31571
303.37675
303.37758
303.43889
303.43968
303.50118
303.50185
303.56348
303.56397
303.62568
303.62594
303.68767
302.62279
302.64549
302.62244
302.65355
302.6296
302.66097
302.63693
302.66864
302.64502
302.6778
302.65552
302.69008
302.66987
302.70673
302.68901
302.72847
302.71341
302.75553
302.74308
302.78774
302.77767
302.82462
302.81666
302.86565
302.85949
302.91024
302.9056
302.95786
302.95446
303.008
303.0056
303.0602
303.05859
303.11407
303.11307
303.16928
303.16874
303.22552
303.22531
303.28255
303.28254
303.34013
303.34026
303.39811
303.39827
303.45631
303.45646
303.51462
303.51472
303.57293
302.61275
302.63642
302.61427
302.64421
302.6213
302.65139
302.62828
302.65851
302.63558
302.6665
302.6445
302.67672
302.65628
302.69029
302.67187
302.70804
302.69189
302.73039
302.71655
302.75734
302.74571
302.78864
302.77902
302.8239
302.81606
302.86269
302.85639
302.90454
302.89956
302.94902
302.94514
302.99571
302.99275
303.04427
303.04205
303.09436
303.09274
303.1457
303.14455
303.19804
303.19726
303.25115
303.25065
303.30486
303.30456
303.359
303.35884
303.41344
303.41338
303.46807
302.60423
302.62861
302.60738
302.63613
302.6142
302.643
302.6208
302.64962
302.62748
302.65672
302.63519
302.66535
302.64497
302.67651
302.65774
302.69103
302.67416
302.70943
302.69459
302.7319
302.71906
302.75832
302.74736
302.78846
302.77923
302.822
302.81431
302.85857
302.85223
302.8978
302.89263
302.93934
302.93517
302.98286
302.97955
303.02808
303.02548
303.0747
303.07272
303.12251
303.12102
303.17127
303.17019
303.2208
303.22007
303.27095
303.2705
303.32157
303.32136
303.37254
302.59739
302.62209
302.60173
302.62927
302.60824
302.63574
302.61443
302.64189
302.62055
302.64825
302.62732
302.65564
302.63555
302.66491
302.64607
302.67683
302.65957
302.69197
302.67646
302.71063
302.69691
302.73283
302.72085
302.75846
302.74812
302.7873
302.77846
302.81907
302.81159
302.85349
302.84721
302.89024
302.88504
302.92905
302.92478
302.96966
302.9662
303.0118
303.00906
303.05525
303.05312
303.09981
303.09822
303.1453
303.14417
303.19155
303.19083
303.23842
303.23807
303.28579
302.59234
302.61687
302.59728
302.62355
302.60336
302.62956
302.60909
302.63521
302.61469
302.64094
302.62068
302.64734
302.6277
302.65511
302.63644
302.66494
302.64756
302.67741
302.66152
302.69287
302.67856
302.71145
302.69872
302.73313
302.72194
302.7578
302.74806
302.78527
302.77686
302.81529
302.80811
302.84764
302.84156
302.88207
302.87699
302.91835
302.91416
302.95626
302.95286
302.99557
302.99289
303.03611
303.03406
303.0777
303.07622
303.12017
303.11922
303.1634
303.16294
303.20727
302.58908
302.61292
302.59397
302.61891
302.59949
302.62436
302.6047
302.62949
302.60979
302.63464
302.61512
302.64024
302.62116
302.64681
302.62848
302.65496
302.63767
302.66524
302.64921
302.67803
302.66338
302.69353
302.68031
302.7118
302.69999
302.7328
302.72237
302.75641
302.74728
302.78248
302.77455
302.8108
302.804
302.8412
302.83543
302.87346
302.86863
302.90739
302.90343
302.9428
302.93963
302.97952
302.97707
303.01737
303.01559
303.05623
303.05507
303.09594
303.09537
303.13639
302.58743
302.61011
302.59167
302.61524
302.59652
302.62006
302.60117
302.62466
302.60575
302.62926
302.61049
302.63417
302.61573
302.63977
302.62191
302.64657
302.62954
302.65506
302.63909
302.66563
302.65086
302.67852
302.66502
302.69385
302.68164
302.71164
302.70072
302.73185
302.72218
302.75436
302.74587
302.77904
302.77167
302.80574
302.79942
302.83429
302.82895
302.86452
302.86009
302.89627
302.8927
302.92939
302.9266
302.96371
302.96167
302.9991
302.99777
303.03544
303.03478
303.07261
302.58704
302.60826
302.59025
302.61242
302.59434
302.61657
302.59841
302.62061
302.60247
302.62469
302.60667
302.62899
302.61123
302.63379
302.61648
302.63948
302.62286
302.64651
302.63077
302.65525
302.64053
302.66594
302.65235
302.67876
302.66634
302.69377
302.68255
302.71098
302.70093
302.73033
302.72143
302.75173
302.74393
302.77506
302.76832
302.80021
302.79447
302.82703
302.82223
302.85537
302.85147
302.88511
302.88205
302.9161
302.91385
302.94822
302.94674
302.98134
302.98061
303.01538
302.5875
302.60715
302.58953
302.61032
302.59285
302.61379
302.59632
302.61727
302.59988
302.62083
302.60357
302.62459
302.60754
302.62871
302.61202
302.6335
302.61736
302.63933
302.62393
302.64654
302.63202
302.65539
302.64186
302.66606
302.6536
302.67867
302.66731
302.69326
302.68301
302.70982
302.70066
302.72828
302.7202
302.74859
302.74154
302.77064
302.7646
302.79432
302.78924
302.81952
302.81536
302.84611
302.84284
302.87398
302.87156
302.90301
302.90141
302.9331
302.93231
302.96415
302.58839
302.60654
302.58935
302.60879
302.59193
302.6116
302.59482
302.61453
302.59787
302.61761
302.60109
302.62086
302.60453
302.62439
302.60836
302.62842
302.61285
302.63326
302.6183
302.63921
302.62501
302.64652
302.63319
302.65538
302.643
302.66593
302.65456
302.67824
302.6679
302.69233
302.68304
302.70819
302.69993
302.72578
302.71854
302.74503
302.73878
302.76585
302.76057
302.78816
302.78381
302.81184
302.80841
302.83681
302.83426
302.86295
302.86127
302.89018
302.88935
302.91841
302.58941
302.60626
302.58955
302.60772
302.59145
302.6099
302.59379
302.61232
302.59637
302.61493
302.59914
302.61771
302.60211
302.62072
302.60537
302.6241
302.60914
302.62812
302.61368
302.63302
302.61923
302.63904
302.62601
302.64636
302.63419
302.65515
302.64389
302.66549
302.65519
302.67743
302.66811
302.69099
302.68266
302.70615
302.69881
302.72288
302.71652
302.74111
302.73571
302.76078
302.75631
302.78179
302.77825
302.80407
302.80143
302.82753
302.82578
302.85209
302.85122
302.87767
302.5904
302.60615
302.59
302.60698
302.59133
302.60861
302.59317
302.61055
302.59529
302.61271
302.59764
302.61506
302.60017
302.6176
302.60294
302.62043
302.6061
302.62374
302.60986
302.62777
302.61445
302.6327
302.62005
302.63873
302.62685
302.64601
302.63496
302.65465
302.64449
302.66473
302.65548
302.67626
302.66796
302.68928
302.68192
302.70375
302.69735
302.71964
302.71419
302.73691
302.73239
302.75548
302.75188
302.77529
302.7726
302.79626
302.79448
302.81834
302.81745
302.84144
302.59127
302.60611
302.59059
302.60648
302.59145
302.60763
302.59285
302.60913
302.59457
302.61089
302.59651
302.61283
302.59864
302.61494
302.60097
302.61728
302.6036
302.62
302.60671
302.62328
302.61049
302.6273
302.6151
302.63224
302.62072
302.63824
302.62748
302.64542
302.63548
302.65388
302.64479
302.66365
302.65545
302.67476
302.66747
302.68723
302.68086
302.70103
302.69558
302.71613
302.71159
302.73248
302.72886
302.75003
302.74732
302.76872
302.76692
302.78849
302.78759
302.80929
302.59202
302.60607
302.59125
302.60613
302.59175
302.60689
302.59277
302.60801
302.59412
302.60939
302.5957
302.61095
302.59745
302.61267
302.59937
302.61457
302.60154
302.61677
302.60409
302.61942
302.60718
302.62267
302.61095
302.62668
302.61558
302.63159
302.62118
302.63753
302.62787
302.64458
302.63572
302.65281
302.64478
302.66226
302.6551
302.67295
302.66667
302.68488
302.67949
302.69804
302.69354
302.71238
302.70878
302.72787
302.72518
302.74447
302.74267
302.76213
302.76123
302.7808
302.59266
302.60602
302.59191
302.60587
302.59216
302.60631
302.59286
302.60711
302.59388
302.60814
302.59512
302.60936
302.59653
302.61071
302.59808
302.61222
302.59984
302.61397
302.6019
302.61607
302.60439
302.61866
302.60746
302.62188
302.61123
302.62587
302.61585
302.63074
302.62141
302.63659
302.628
302.64348
302.63568
302.65148
302.64449
302.6606
302.65446
302.67088
302.66559
302.68229
302.67787
302.69482
302.69128
302.70845
302.70579
302.72314
302.72137
302.73886
302.73798
302.75558
302.59322
302.60593
302.59256
302.60566
302.59262
302.60586
302.59307
302.60637
302.5938
302.60711
302.59473
302.608
302.59581
302.60901
302.59702
302.61016
302.5984
302.6115
302.60003
302.61312
302.60202
302.61515
302.60448
302.61771
302.60753
302.62091
302.61131
302.62487
302.6159
302.62968
302.6214
302.63542
302.62788
302.64214
302.63537
302.6499
302.64393
302.6587
302.65356
302.66857
302.66426
302.67948
302.67602
302.69143
302.68883
302.7044
302.70266
302.71835
302.71748
302.73327
302.5937
302.60581
302.59317
302.60546
302.59311
302.60549
302.59335
302.60576
302.59383
302.60622
302.59447
302.60681
302.59525
302.60751
302.59614
302.60832
302.59717
302.60929
302.59842
302.6105
302.59996
302.61204
302.6019
302.61402
302.60434
302.61655
302.6074
302.61973
302.61116
302.62366
302.61573
302.6284
302.62116
302.63402
302.62751
302.64058
302.63482
302.6481
302.64312
302.65659
302.65241
302.66606
302.6627
302.6765
302.67398
302.68791
302.68622
302.70026
302.69942
302.71354
302.59412
302.60564
302.59373
302.60527
302.59359
302.60515
302.59367
302.60523
302.59391
302.60544
302.5943
302.60575
302.59478
302.60615
302.59537
302.60664
302.59609
302.60728
302.59699
302.60812
302.59814
302.60923
302.59962
302.61072
302.60154
302.61268
302.60398
302.6152
302.60704
302.61836
302.6108
302.62225
302.61533
302.62693
302.62069
302.63244
302.62691
302.63882
302.63404
302.6461
302.64209
302.65429
302.65106
302.66339
302.66095
302.6734
302.67177
302.6843
302.68349
302.6961
302.59447
302.60543
302.59423
302.60505
302.59404
302.60484
302.59398
302.60474
302.59403
302.60472
302.59416
302.60476
302.59437
302.60488
302.59468
302.60508
302.5951
302.60541
302.59568
302.60591
302.59648
302.60666
302.59757
302.60772
302.59903
302.60919
302.60095
302.61114
302.60341
302.61366
302.60648
302.61682
302.61024
302.62067
302.61473
302.62528
302.62001
302.63068
302.62611
302.63689
302.63305
302.64395
302.64085
302.65185
302.64951
302.6606
302.65904
302.67021
302.66942
302.68066
302.59477
302.60519
302.59467
302.60481
302.59445
302.60452
302.59427
302.60426
302.59412
302.60402
302.59402
302.60381
302.59397
302.60366
302.594
302.60359
302.59415
302.60363
302.59444
302.60384
302.59493
302.60426
302.59567
302.60495
302.59675
302.606
302.59822
302.60747
302.60016
302.60944
302.60264
302.61197
302.60573
302.61512
302.60948
302.61894
302.61393
302.62348
302.61913
302.62877
302.62511
302.63482
302.63187
302.64167
302.63943
302.6493
302.64781
302.65774
302.65699
302.66698
302.59502
302.60492
302.59506
302.60454
302.59481
302.60418
302.59451
302.60376
302.59418
302.60331
302.59384
302.60285
302.59354
302.60245
302.59331
302.60212
302.5932
302.6019
302.59322
302.60184
302.59344
302.60197
302.59388
302.60234
302.59461
302.60303
302.5957
302.60409
302.5972
302.60559
302.59918
302.60759
302.6017
302.61013
302.6048
302.61328
302.60855
302.61708
302.61296
302.62156
302.61808
302.62674
302.62393
302.63264
302.63052
302.63929
302.63786
302.64668
302.64597
302.65484
302.59522
302.60461
302.59539
302.60424
302.5951
302.6038
302.59468
302.60322
302.59415
302.60255
302.59359
302.60186
302.59304
302.60121
302.59257
302.60064
302.59221
302.60018
302.592
302.59987
302.59196
302.59974
302.59213
302.59985
302.59257
302.60023
302.59333
302.60094
302.59446
302.60204
302.59601
302.60358
302.59804
302.60561
302.60059
302.60819
302.60372
302.61134
302.60746
302.61511
302.61183
302.61953
302.61688
302.62461
302.6226
302.63038
302.62903
302.63685
302.63617
302.64403
302.59536
302.60428
302.59566
302.6039
302.59533
302.60336
302.59476
302.6026
302.59403
302.60171
302.59323
302.60079
302.59244
302.5999
302.59174
302.59911
302.59115
302.59843
302.59072
302.5979
302.59045
302.59755
302.5904
302.59742
302.59058
302.59753
302.59106
302.59795
302.59187
302.59872
302.59305
302.59987
302.59467
302.60147
302.59675
302.60355
302.59935
302.60615
302.6025
302.60931
302.60623
302.61306
302.61057
302.61742
302.61553
302.62242
302.62115
302.62807
302.62743
302.63438
302.59546
302.60393
302.59588
302.60352
302.59547
302.60285
302.59473
302.60189
302.59377
302.60077
302.59273
302.59961
302.59172
302.59851
302.59079
302.5975
302.59
302.59662
302.58936
302.5959
302.5889
302.59536
302.58864
302.59502
302.58861
302.59491
302.58885
302.59508
302.58938
302.59556
302.59026
302.59639
302.59152
302.59762
302.5932
302.59928
302.59535
302.60141
302.59799
302.60405
302.60116
302.60722
302.60488
302.61095
302.60918
302.61527
302.61408
302.62019
302.61959
302.62574
302.59552
302.60355
302.59605
302.60309
302.59552
302.60225
302.59456
302.60105
302.59335
302.59969
302.59207
302.59831
302.59083
302.59699
302.5897
302.59579
302.58872
302.59474
302.5879
302.59384
302.58727
302.59313
302.58683
302.59262
302.58662
302.59232
302.58665
302.59229
302.58696
302.59253
302.58758
302.59309
302.58854
302.59401
302.58988
302.59531
302.59164
302.59704
302.59384
302.59923
302.59652
302.6019
302.59971
302.60508
302.60342