/*--------------------------------*- C++ -*----------------------------------*\
| =========                 |                                                 |
| \\      /  F ield         | OpenFOAM: The Open Source CFD Toolbox           |
|  \\    /   O peration     | Version:  2312                                  |
|   \\  /    A nd           | Website:  www.openfoam.com                      |
|    \\/     M anipulation  |                                                 |
\*---------------------------------------------------------------------------*/
FoamFile
{
    version     2.0;
    format      ascii;
    arch        "LSB;label=32;scalar=64";
    class       volVectorField;
    location    "4";
    object      U_0;
}
// * * * * * * * * * * * * * * * * * * * * * * * * * * * * * * * * * * * * * //

dimensions      [0 1 -1 0 0 0 0];

internalField   nonuniform List<vector> 
4000
(
(0.0026710367 0.00051198608 0)
(0.004311557 -1.116837e-05 0)
(0.0028666412 -4.6535291e-07 0)
(0.0031131089 7.4712723e-08 0)
(0.0030034256 -2.0870855e-07 0)
(0.0030590938 1.9297094e-07 0)
(0.0029962872 -2.1779083e-07 0)
(0.0030403804 1.8558109e-07 0)
(0.0029988224 -1.7738044e-07 0)
(0.0030354976 1.6529466e-07 0)
(0.0030013087 -1.5548972e-07 0)
(0.0030329108 1.4602536e-07 0)
(0.0030032449 -1.3765904e-07 0)
(0.0030309741 1.2960519e-07 0)
(0.0030049012 -1.2228157e-07 0)
(0.0030293582 1.1531608e-07 0)
(0.0030063672 -1.0885489e-07 0)
(0.0030279554 1.0276513e-07 0)
(0.0030076701 -9.7066176e-08 0)
(0.0030267185 9.1716238e-08 0)
(0.0030088303 -8.669307e-08 0)
(0.0030256192 8.1986862e-08 0)
(0.003009866 -7.7564656e-08 0)
(0.0030246379 7.3427683e-08 0)
(0.0030107928 -6.9542209e-08 0)
(0.0030237588 6.5913091e-08 0)
(0.0030116244 -6.2508784e-08 0)
(0.0030229692 5.933512e-08 0)
(0.0030123726 -5.6363514e-08 0)
(0.0030222577 5.3599796e-08 0)
(0.003013048 -5.1018462e-08 0)
(0.0030216143 4.8624975e-08 0)
(0.0030136599 -4.6396844e-08 0)
(0.0030210299 4.4339018e-08 0)
(0.0030142172 -4.2431906e-08 0)
(0.0030204964 4.067988e-08 0)
(0.0030147276 -3.9066121e-08 0)
(0.0030200061 3.7594409e-08 0)
(0.0030151984 -3.6250581e-08 0)
(0.003019552 3.5037832e-08 0)
(0.0030156363 -3.3944532e-08 0)
(0.0030191279 3.297349e-08 0)
(0.0030160475 -3.2115323e-08 0)
(0.0030187274 3.1372294e-08 0)
(0.003016437 -3.0741921e-08 0)
(0.0030183438 3.0208529e-08 0)
(0.0030168129 -2.9819453e-08 0)
(0.0030179983 2.9527531e-08 0)
(0.0030172975 -2.8971366e-08 0)
(0.0030180355 3.1482648e-08 0)
(0.0069122559 0.0013968373 0)
(0.011849406 4.3590389e-06 0)
(0.0085667501 1.4346775e-05 0)
(0.0089834586 -5.5217951e-07 0)
(0.0087171665 -2.1062713e-07 0)
(0.0088794695 8.7501954e-07 0)
(0.0086974171 -4.9064913e-07 0)
(0.0088261186 6.6249462e-07 0)
(0.0087039667 -5.8920215e-07 0)
(0.0088126478 5.8131235e-07 0)
(0.0087113081 -5.4404738e-07 0)
(0.0088052638 5.186023e-07 0)
(0.0087170113 -4.8701925e-07 0)
(0.0087995956 4.6117378e-07 0)
(0.0087219167 -4.3411051e-07 0)
(0.0087948154 4.1025689e-07 0)
(0.0087262776 -3.8690893e-07 0)
(0.008790646 3.6554958e-07 0)
(0.0087301634 -3.4516911e-07 0)
(0.0087869601 3.2623563e-07 0)
(0.0087336293 -3.0834396e-07 0)
(0.0087836797 2.9163259e-07 0)
(0.0087367263 -2.7590577e-07 0)
(0.0087807483 2.6119856e-07 0)
(0.0087394998 -2.4738998e-07 0)
(0.0087781211 2.3448435e-07 0)
(0.0087419895 -2.2239058e-07 0)
(0.0087757596 2.1110494e-07 0)
(0.0087442307 -2.0055142e-07 0)
(0.0087736306 1.9072506e-07 0)
(0.0087462549 -1.8155985e-07 0)
(0.0087717038 1.730515e-07 0)
(0.0087480907 -1.6514216e-07 0)
(0.0087699522 1.5782854e-07 0)
(0.0087497641 -1.5106016e-07 0)
(0.0087683508 1.4483463e-07 0)
(0.0087512987 -1.3910843e-07 0)
(0.0087668771 1.3387984e-07 0)
(0.0087527164 -1.2911196e-07 0)
(0.0087655101 1.2480345e-07 0)
(0.0087540374 -1.2092425e-07 0)
(0.0087642303 1.1747266e-07 0)
(0.0087552804 -1.1442303e-07 0)
(0.0087630192 1.1178974e-07 0)
(0.0087564617 -1.09501e-07 0)
(0.0087618551 1.0764589e-07 0)
(0.0087575976 -1.0641543e-07 0)
(0.0087607649 1.0361723e-07 0)
(0.0087589474 -1.0938535e-07 0)
(0.0087606409 1.0010693e-07 0)
(0.01092509 0.0021648926 0)
(0.018780292 -2.1895296e-05 0)
(0.014112705 3.486744e-05 0)
(0.014696248 -6.4475537e-07 0)
(0.014280124 -1.8140666e-07 0)
(0.014550906 1.7112606e-06 0)
(0.014248474 -7.0929072e-07 0)
(0.014465545 1.2117656e-06 0)
(0.014260015 -1.0503425e-06 0)
(0.014443934 1.0554112e-06 0)
(0.014272572 -9.8746547e-07 0)
(0.014431732 9.4560856e-07 0)
(0.014282207 -8.8701449e-07 0)
(0.014422225 8.4152848e-07 0)
(0.014290503 -7.9152135e-07 0)
(0.014414158 7.4855545e-07 0)
(0.014297891 -7.0573824e-07 0)
(0.0144071 6.669387e-07 0)
(0.014304482 -6.2969573e-07 0)
(0.014400851 5.951939e-07 0)
(0.014310365 -5.625415e-07 0)
(0.014395284 5.3205301e-07 0)
(0.014315625 -5.03364e-07 0)
(0.014390307 4.7652098e-07 0)
(0.014320336 -4.5133478e-07 0)
(0.014385845 4.2777725e-07 0)
(0.014324567 -4.0571963e-07 0)
(0.014381834 3.8511891e-07 0)
(0.014328376 -3.658704e-07 0)
(0.014378217 3.4793356e-07 0)
(0.014331817 -3.3121659e-07 0)
(0.014374943 3.156854e-07 0)
(0.014334938 -3.0125808e-07 0)
(0.014371965 2.8790703e-07 0)
(0.014337784 -2.7555948e-07 0)
(0.014369242 2.641934e-07 0)
(0.014340396 -2.5374511e-07 0)
(0.014366734 2.4419694e-07 0)
(0.01434281 -2.3549443e-07 0)
(0.014364406 2.2762295e-07 0)
(0.014345061 -2.205384e-07 0)
(0.014362225 2.1422627e-07 0)
(0.014347181 -2.0864944e-07 0)
(0.014360159 2.0382946e-07 0)
(0.014349198 -1.996034e-07 0)
(0.014358171 1.9624919e-07 0)
(0.014351137 -1.9391262e-07 0)
(0.014356282 1.8818448e-07 0)
(0.014353364 -2.0258209e-07 0)
(0.014355859 1.8153416e-07 0)
(0.015240776 0.0030138531 0)
(0.025378798 -3.0607928e-05 0)
(0.019501299 6.3384347e-05 0)
(0.02025184 -9.919751e-07 0)
(0.01969319 7.8779315e-08 0)
(0.0200727 2.6399321e-06 0)
(0.019649367 -7.4336892e-07 0)
(0.01995894 1.7398015e-06 0)
(0.019666798 -1.4722929e-06 0)
(0.019929589 1.5066326e-06 0)
(0.019684923 -1.4106941e-06 0)
(0.019912519 1.3571658e-06 0)
(0.019698676 -1.2717063e-06 0)
(0.01989904 1.2088292e-06 0)
(0.019710525 -1.1360682e-06 0)
(0.019887538 1.075159e-06 0)
(0.019721089 -1.0133403e-06 0)
(0.019877452 9.5784878e-07 0)
(0.01973052 -9.0427898e-07 0)
(0.01986851 8.5477515e-07 0)
(0.019738943 -8.0787476e-07 0)
(0.019860541 7.6407877e-07 0)
(0.019746475 -7.2289177e-07 0)
(0.019853414 6.8431804e-07 0)
(0.019753222 -6.4816606e-07 0)
(0.019847024 6.1431087e-07 0)
(0.019759281 -5.8265146e-07 0)
(0.01984128 5.5304597e-07 0)
(0.019764736 -5.2541873e-07 0)
(0.019836099 4.9964231e-07 0)
(0.019769665 -4.7564807e-07 0)
(0.01983141 4.5332907e-07 0)
(0.019774136 -4.3262025e-07 0)
(0.019827144 4.1343391e-07 0)
(0.019778213 -3.9570899e-07 0)
(0.019823243 3.7937416e-07 0)
(0.019781955 -3.6437386e-07 0)
(0.019819649 3.5064985e-07 0)
(0.019785414 -3.3815349e-07 0)
(0.019816314 3.2683648e-07 0)
(0.01978864 -3.1666029e-07 0)
(0.019813187 3.0757972e-07 0)
(0.019791679 -2.9956337e-07 0)
(0.019810225 2.9262949e-07 0)
(0.019794573 -2.865049e-07 0)
(0.019807374 2.817514e-07 0)
(0.019797354 -2.7830303e-07 0)
(0.01980464 2.6920002e-07 0)
(0.019800468 -2.9565445e-07 0)
(0.01980377 2.6000586e-07 0)
(0.019183329 0.0036747416 0)
(0.031466429 -7.9131394e-05 0)
(0.024716086 9.6234084e-05 0)
(0.025657062 -1.5139951e-06 0)
(0.024955653 5.494583e-07 0)
(0.025444085 3.631573e-06 0)
(0.024899976 -6.0291054e-07 0)
(0.025306195 2.2189908e-06 0)
(0.024924419 -1.8394408e-06 0)
(0.025269499 1.9148049e-06 0)
(0.024948455 -1.7966748e-06 0)
(0.025247519 1.7362016e-06 0)
(0.024966502 -1.6252859e-06 0)
(0.02522994 1.5479242e-06 0)
(0.02498206 -1.4535083e-06 0)
(0.025214866 1.3765712e-06 0)
(0.024995942 -1.2969723e-06 0)
(0.025201621 1.2262451e-06 0)
(0.02500834 -1.1575335e-06 0)
(0.025189868 1.094235e-06 0)
(0.025019416 -1.0341681e-06 0)
(0.025179389 9.7810451e-07 0)
(0.025029322 -9.2538419e-07 0)
(0.025170017 8.7598802e-07 0)
(0.025038196 -8.2972231e-07 0)
(0.025161614 7.8636539e-07 0)
(0.025046164 -7.4585231e-07 0)
(0.025154059 7.0793844e-07 0)
(0.025053338 -6.7258603e-07 0)
(0.025147247 6.3957694e-07 0)
(0.025059819 -6.0887318e-07 0)
(0.02514108 5.8029222e-07 0)
(0.025065698 -5.5379176e-07 0)
(0.025135472 5.2922227e-07 0)
(0.025071059 -5.065389e-07 0)
(0.025130342 4.8562015e-07 0)
(0.025075978 -4.6642184e-07 0)
(0.025125619 4.4884492e-07 0)
(0.025080525 -4.3284893e-07 0)
(0.025121233 4.1835199e-07 0)
(0.025084766 -4.0532297e-07 0)
(0.025117124 3.9368535e-07 0)
(0.025088761 -3.8341635e-07 0)
(0.02511323 3.7453183e-07 0)
(0.025092566 -3.6662557e-07 0)
(0.025109482 3.6063939e-07 0)
(0.025096222 -3.560765e-07 0)
(0.025105868 3.4346052e-07 0)
(0.025100233 -3.8439883e-07 0)
(0.025104426 3.3217366e-07 0)
(0.023090145 0.0042585825 0)
(0.037268615 -9.5872286e-05 0)
(0.029773702 0.00013499682 0)
(0.030912413 -2.7085968e-06 0)
(0.030066975 1.2359885e-06 0)
(0.030664728 4.6959588e-06 0)
(0.030000587 -3.1660366e-07 0)
(0.030507022 2.6472939e-06 0)
(0.030033267 -2.1572778e-06 0)
(0.030463342 2.2813377e-06 0)
(0.030063494 -2.1481609e-06 0)
(0.030436435 2.0845182e-06 0)
(0.030085973 -1.9496466e-06 0)
(0.030414658 1.8603645e-06 0)
(0.030105366 -1.7453598e-06 0)
(0.030395902 1.654144e-06 0)
(0.030122679 -1.5579334e-06 0)
(0.030379393 1.473324e-06 0)
(0.030138147 -1.3906003e-06 0)
(0.030364734 1.3146392e-06 0)
(0.030151967 -1.2424362e-06 0)
(0.03035166 1.1750844e-06 0)
(0.030164326 -1.1117496e-06 0)
(0.030339967 1.0523881e-06 0)
(0.030175399 -9.9681998e-07 0)
(0.030329482 9.4471296e-07 0)
(0.03018534 -8.9605845e-07 0)
(0.030320058 8.5049395e-07 0)
(0.030194289 -8.0803835e-07 0)
(0.03031156 7.683698e-07 0)
(0.030202373 -7.314967e-07 0)
(0.030303868 6.9715043e-07 0)
(0.030209705 -6.6532432e-07 0)
(0.030296873 6.3579871e-07 0)
(0.030216392 -6.0855533e-07 0)
(0.030290476 5.8341603e-07 0)
(0.030222526 -5.6035637e-07 0)
(0.030284586 5.3923139e-07 0)
(0.030228196 -5.2001543e-07 0)
(0.030279118 5.0258899e-07 0)
(0.030233483 -4.8693377e-07 0)
(0.030273995 4.7293777e-07 0)
(0.030238463 -4.6059284e-07 0)
(0.030269142 4.4990843e-07 0)
(0.030243205 -4.4033169e-07 0)
(0.030264472 4.3326303e-07 0)
(0.030247761 -4.2755773e-07 0)
(0.030259952 4.1138809e-07 0)
(0.030252678 -4.6856291e-07 0)
(0.030257832 3.9788453e-07 0)
(0.02735006 0.0049831878 0)
(0.042558299 -0.00015715497 0)
(0.034665634 0.00017499081 0)
(0.036018417 -4.4529646e-06 0)
(0.035024455 2.0884574e-06 0)
(0.035734205 5.8034247e-06 0)
(0.034951313 7.5679565e-08 0)
(0.035561008 3.0184372e-06 0)
(0.034993701 -2.4329549e-06 0)
(0.035510757 2.6078264e-06 0)
(0.035030373 -2.4686941e-06 0)
(0.035478945 2.4044386e-06 0)
(0.035057393 -2.2472941e-06 0)
(0.035452906 2.1482504e-06 0)
(0.035080716 -2.0136868e-06 0)
(0.035430389 1.9097504e-06 0)
(0.035101544 -1.7980195e-06 0)
(0.035410541 1.7007587e-06 0)
(0.035120155 -1.6050701e-06 0)
(0.035392907 1.5174847e-06 0)
(0.035136784 -1.4340983e-06 0)
(0.035377176 1.3563596e-06 0)
(0.035151656 -1.2832593e-06 0)
(0.035363106 1.2147223e-06 0)
(0.035164978 -1.1506012e-06 0)
(0.035350492 1.0904369e-06 0)
(0.035176938 -1.0342986e-06 0)
(0.035339153 9.8168979e-07 0)
(0.035187704 -9.3270523e-07 0)
(0.03532893 8.8690565e-07 0)
(0.035197428 -8.4436189e-07 0)
(0.035319678 8.0470819e-07 0)
(0.035206248 -7.6798665e-07 0)
(0.035311265 7.3389865e-07 0)
(0.035214289 -7.024632e-07 0)
(0.035303571 6.7343852e-07 0)
(0.035221666 -6.4682849e-07 0)
(0.035296488 6.2243665e-07 0)
(0.035228484 -6.0025915e-07 0)
(0.035289914 5.8013432e-07 0)
(0.03523484 -5.6206235e-07 0)
(0.035283755 5.4589129e-07 0)
(0.035240826 -5.3163398e-07 0)
(0.035277923 5.1928742e-07 0)
(0.035246526 -5.0814523e-07 0)
(0.035272313 5.0012969e-07 0)
(0.035252 -4.9323881e-07 0)
(0.035266868 4.7356858e-07 0)
(0.035257826 -5.4810732e-07 0)
(0.035263979 4.5736627e-07 0)
(0.030831515 0.0052600073 0)
(0.047525629 -0.0001874972 0)
(0.039414864 0.0002145535 0)
(0.040960682 -5.0366932e-06 0)
(0.03983021 3.5015758e-06 0)
(0.040653196 7.008716e-06 0)
(0.039752924 5.6679314e-07 0)
(0.040468029 3.3297351e-06 0)
(0.039806148 -2.6676726e-06 0)
(0.040411471 2.8943075e-06 0)
(0.039849404 -2.7588566e-06 0)
(0.040374777 2.6961301e-06 0)
(0.03988103 -2.5184481e-06 0)
(0.040344434 2.4116532e-06 0)
(0.039908346 -2.2585931e-06 0)
(0.040318103 2.1434461e-06 0)
(0.039932747 -2.0173003e-06 0)
(0.040294865 1.9086031e-06 0)
(0.039954551 -1.8010001e-06 0)
(0.040274209 1.7028235e-06 0)
(0.039974033 -1.6092061e-06 0)
(0.040255781 1.5219799e-06 0)
(0.039991456 -1.4399614e-06 0)
(0.040239298 1.3630378e-06 0)
(0.040007063 -1.2911108e-06 0)
(0.040224521 1.2235815e-06 0)
(0.040021073 -1.1606148e-06 0)
(0.040211239 1.1015673e-06 0)
(0.040033683 -1.0466261e-06 0)
(0.040199265 9.9522322e-07 0)
(0.040045072 -9.4750587e-07 0)
(0.040188429 9.0300201e-07 0)
(0.040055401 -8.6181397e-07 0)
(0.040178576 8.235569e-07 0)
(0.040064818 -7.8829639e-07 0)
(0.040169567 7.5572124e-07 0)
(0.040073456 -7.2587128e-07 0)
(0.040161273 6.9849388e-07 0)
(0.040081438 -6.7361312e-07 0)
(0.040153577 6.5102142e-07 0)
(0.040088879 -6.3074245e-07 0)
(0.040146368 6.1258056e-07 0)
(0.040095885 -5.9657544e-07 0)
(0.040139542 5.8270513e-07 0)
(0.040102555 -5.7010843e-07 0)
(0.04013298 5.6127788e-07 0)
(0.040108961 -5.5316407e-07 0)
(0.0401266 5.3012585e-07 0)
(0.040115695 -6.2264436e-07 0)
(0.040122866 5.1056655e-07 0)
(0.035430246 0.0060502697 0)
(0.051964247 -0.00025163746 0)
(0.04404147 0.00024995917 0)
(0.045690724 -5.8337709e-06 0)
(0.044474969 4.8319422e-06 0)
(0.04542023 8.1969298e-06 0)
(0.04440555 1.1174891e-06 0)
(0.045227774 3.5681057e-06 0)
(0.04447091 -2.8645139e-06 0)
(0.045165217 3.1392424e-06 0)
(0.044520847 -3.0188332e-06 0)
(0.045123684 2.9589835e-06 0)
(0.044557117 -2.7627656e-06 0)
(0.045089022 2.650052e-06 0)
(0.044588467 -2.479658e-06 0)
(0.045058848 2.3547827e-06 0)
(0.044616474 -2.2153764e-06 0)
(0.045032191 2.0964681e-06 0)
(0.0446415 -1.9780296e-06 0)
(0.045008488 1.8703137e-06 0)
(0.04466386 -1.7674378e-06 0)
(0.044987338 1.6716429e-06 0)
(0.044683856 -1.5815694e-06 0)
(0.044968421 1.4970653e-06 0)
(0.044701766 -1.4180935e-06 0)
(0.044951463 1.3439062e-06 0)
(0.044717843 -1.2747783e-06 0)
(0.044936222 1.2099108e-06 0)
(0.044732312 -1.1495954e-06 0)
(0.044922483 1.0931281e-06 0)
(0.04474538 -1.0407431e-06 0)
(0.044910049 9.9185608e-07 0)
(0.044757231 -9.4663821e-07 0)
(0.044898745 9.0461374e-07 0)
(0.044768035 -8.6590195e-07 0)
(0.044888409 8.3011851e-07 0)
(0.044777944 -7.9734493e-07 0)
(0.044878895 7.6726948e-07 0)
(0.044787101 -7.3994889e-07 0)
(0.044870067 7.1512728e-07 0)
(0.044795635 -6.9285554e-07 0)
(0.044861799 6.7289202e-07 0)
(0.04480367 -6.5530786e-07 0)
(0.044853972 6.4005608e-07 0)
(0.044811318 -6.2612364e-07 0)
(0.044846452 6.1660757e-07 0)
(0.044818661 -6.0724657e-07 0)
(0.044839131 5.8103612e-07 0)
(0.044826302 -6.9171049e-07 0)
(0.044834489 5.5740992e-07 0)
(0.038583561 0.0060489616 0)
(0.056059594 -0.00030758499 0)
(0.048614388 0.00029300256 0)
(0.050186656 -8.8300766e-06 0)
(0.048951168 5.2521207e-06 0)
(0.050034248 9.2252751e-06 0)
(0.048909319 1.6789414e-06 0)
(0.049840004 3.722978e-06 0)
(0.048988272 -3.0257025e-06 0)
(0.049771761 3.3420304e-06 0)
(0.049044943 -3.2487707e-06 0)
(0.049725447 3.1927496e-06 0)
(0.049085866 -2.9800714e-06 0)
(0.04968647 2.8631685e-06 0)
(0.049121265 -2.6766575e-06 0)
(0.049652446 2.5435167e-06 0)
(0.049152891 -2.3920351e-06 0)
(0.049622362 2.2641448e-06 0)
(0.049181149 -2.1359669e-06 0)
(0.049595604 2.0197734e-06 0)
(0.049206394 -1.9086227e-06 0)
(0.049571726 1.8051883e-06 0)
(0.049228969 -1.7079316e-06 0)
(0.04955037 1.6166628e-06 0)
(0.049249188 -1.5314136e-06 0)
(0.049531226 1.4512838e-06 0)
(0.049267337 -1.3766676e-06 0)
(0.049514021 1.3066059e-06 0)
(0.04928367 -1.2415035e-06 0)
(0.049498511 1.180517e-06 0)
(0.049298421 -1.1239745e-06 0)
(0.049484476 1.0711764e-06 0)
(0.049311798 -1.0223691e-06 0)
(0.049471716 9.7698344e-07 0)
(0.049323991 -9.3519739e-07 0)
(0.049460051 8.9655165e-07 0)
(0.049335175 -8.6117367e-07 0)
(0.049449313 8.2869107e-07 0)
(0.049345509 -7.9919659e-07 0)
(0.049439351 7.7238496e-07 0)
(0.049355139 -7.48337e-07 0)
(0.049430021 7.2676375e-07 0)
(0.049364204 -7.0777153e-07 0)
(0.049421191 6.9128259e-07 0)
(0.049372832 -6.7613911e-07 0)
(0.049412711 6.6606241e-07 0)
(0.049381116 -6.5544461e-07 0)
(0.049404449 6.2630249e-07 0)
(0.049389656 -7.549269e-07 0)
(0.049398848 5.9791731e-07 0)
(0.043555769 0.0068984662 0)
(0.05978646 -0.00036498736 0)
(0.053009342 0.0003290938 0)
(0.054526663 -1.1049157e-05 0)
(0.053266581 4.8579401e-06 0)
(0.054497332 1.0011281e-05 0)
(0.053265294 2.2315448e-06 0)
(0.054304729 3.7857664e-06 0)
(0.053358564 -3.153106e-06 0)
(0.054230916 3.5023842e-06 0)
(0.053421917 -3.449087e-06 0)
(0.054179872 3.3974267e-06 0)
(0.053467471 -3.1704476e-06 0)
(0.0541366 3.0509648e-06 0)
(0.053506911 -2.8496036e-06 0)
(0.05409874 2.7096265e-06 0)
(0.053542148 -2.5472756e-06 0)
(0.054065239 2.411624e-06 0)
(0.053573629 -2.2748095e-06 0)
(0.054035434 2.1511994e-06 0)
(0.053601751 -2.0327593e-06 0)
(0.054008836 1.9226152e-06 0)
(0.053626898 -1.8190469e-06 0)
(0.053985047 1.7218301e-06 0)
(0.05364942 -1.6310702e-06 0)
(0.053963723 1.5457143e-06 0)
(0.053669633 -1.4662817e-06 0)
(0.053944559 1.391652e-06 0)
(0.053687826 -1.3223493e-06 0)
(0.053927285 1.2573888e-06 0)
(0.053704254 -1.1971982e-06 0)
(0.053911653 1.1409617e-06 0)
(0.053719153 -1.0890048e-06 0)
(0.053897442 1.0406642e-06 0)
(0.053732733 -9.9618051e-07 0)
(0.05388445 9.5501875e-07 0)
(0.053745188 -9.1735523e-07 0)
(0.053872492 8.8275656e-07 0)
(0.053756695 -8.5135403e-07 0)
(0.053861398 8.2279264e-07 0)
(0.053767419 -7.9718496e-07 0)
(0.05385101 7.7419453e-07 0)
(0.053777512 -7.5396553e-07 0)
(0.053841179 7.3638423e-07 0)
(0.053787117 -7.2015832e-07 0)
(0.053831743 7.0963946e-07 0)
(0.053796339 -6.9777147e-07 0)
(0.053822545 6.6596984e-07 0)
(0.05380577 -8.1200672e-07 0)
(0.053815945 6.3219658e-07 0)
(0.046455485 0.006699526 0)
(0.063265326 -0.0004329304 0)
(0.057167798 0.00035517028 0)
(0.058776266 -1.203364e-05 0)
(0.057427672 3.9490474e-06 0)
(0.058811083 1.0526811e-05 0)
(0.057474203 2.7695939e-06 0)
(0.058621852 3.7580972e-06 0)
(0.057582016 -3.2458671e-06 0)
(0.058542477 3.6211545e-06 0)
(0.057651955 -3.6200717e-06 0)
(0.058486773 3.5732525e-06 0)
(0.057702102 -3.3341003e-06 0)
(0.058439251 3.2135605e-06 0)
(0.057745558 -2.9986446e-06 0)
(0.058397585 2.8532275e-06 0)
(0.05778438 -2.6812232e-06 0)
(0.058360694 2.5390177e-06 0)
(0.057819059 -2.394668e-06 0)
(0.058327866 2.2646952e-06 0)
(0.057850037 -2.139946e-06 0)
(0.058298569 2.0240177e-06 0)
(0.057877735 -1.9150036e-06 0)
(0.058272367 1.8126516e-06 0)
(0.057902541 -1.7171424e-06 0)
(0.058248879 1.6272729e-06 0)
(0.057924805 -1.543691e-06 0)
(0.058227772 1.4651163e-06 0)
(0.057944841 -1.3921953e-06 0)
(0.058208745 1.3238035e-06 0)
(0.057962935 -1.2604705e-06 0)
(0.058191529 1.2012653e-06 0)
(0.057979344 -1.1465954e-06 0)
(0.058175877 1.0957041e-06 0)
(0.0579943 -1.0488966e-06 0)
(0.058161568 1.0055631e-06 0)
(0.058008017 -9.6593073e-07 0)
(0.058148399 9.2950561e-07 0)
(0.05802069 -8.9645905e-07 0)
(0.058136182 8.6638696e-07 0)
(0.058032498 -8.3943481e-07 0)
(0.058124743 8.1521909e-07 0)
(0.058043612 -7.9392371e-07 0)
(0.058113919 7.7539449e-07 0)
(0.058054188 -7.5821768e-07 0)
(0.058103533 7.4736819e-07 0)
(0.058064341 -7.3427361e-07 0)
(0.058093409 7.0010593e-07 0)
(0.058074651 -8.6273293e-07 0)
(0.058085779 6.6041424e-07 0)
(0.051519181 0.0074661823 0)
(0.066507434 -0.0004828622 0)
(0.061097059 0.00038117478 0)
(0.062944483 -1.1981546e-05 0)
(0.061436092 3.0764223e-06 0)
(0.062976568 1.0786594e-05 0)
(0.061536573 3.3036153e-06 0)
(0.062791243 3.6466319e-06 0)
(0.061658829 -3.3019533e-06 0)
(0.062706258 3.6996346e-06 0)
(0.061735222 -3.7620993e-06 0)
(0.062645984 3.720532e-06 0)
(0.061789908 -3.4713795e-06 0)
(0.062594276 3.3511605e-06 0)
(0.061837339 -3.1240448e-06 0)
(0.062548854 2.9745271e-06 0)
(0.061879706 -2.7940991e-06 0)
(0.062508614 2.6465236e-06 0)
(0.061917546 -2.4957359e-06 0)
(0.062472801 2.3604419e-06 0)
(0.061951344 -2.230355e-06 0)
(0.062440838 2.1095585e-06 0)
(0.061981563 -1.995955e-06 0)
(0.06241225 1.8892728e-06 0)
(0.062008625 -1.7897668e-06 0)
(0.062386626 1.6960897e-06 0)
(0.062032914 -1.6090176e-06 0)
(0.062363599 1.5271149e-06 0)
(0.062054773 -1.4511509e-06 0)
(0.062342841 1.3798649e-06 0)
(0.062074512 -1.3138892e-06 0)
(0.062324058 1.2521806e-06 0)
(0.062092413 -1.1952291e-06 0)
(0.062306983 1.1421872e-06 0)
(0.062108729 -1.0934254e-06 0)
(0.062291373 1.0482611e-06 0)
(0.062123694 -1.0069728e-06 0)
(0.062277006 9.6900789e-07 0)
(0.062137518 -9.3457836e-07 0)
(0.062263678 9.0323237e-07 0)
(0.0621504 -8.7514863e-07 0)
(0.0622512 8.4989798e-07 0)
(0.062162522 -8.2770501e-07 0)
(0.062239394 8.0837134e-07 0)
(0.062174057 -7.9037683e-07 0)
(0.062228071 7.7930077e-07 0)
(0.062185133 -7.6502099e-07 0)
(0.062217032 7.2879442e-07 0)
(0.062196306 -9.0694705e-07 0)
(0.062208352 6.8277837e-07 0)
(0.054580457 0.0072416152 0)
(0.06953409 -0.00056242566 0)
(0.064861571 0.00039747884 0)
(0.066983622 -1.321773e-05 0)
(0.065297795 2.4099548e-06 0)
(0.066993885 1.0736919e-05 0)
(0.065452817 3.8282038e-06 0)
(0.066812854 3.4525827e-06 0)
(0.065589253 -3.3198604e-06 0)
(0.066722133 3.7394044e-06 0)
(0.065671888 -3.8754089e-06 0)
(0.066657364 3.8398175e-06 0)
(0.065731032 -3.582661e-06 0)
(0.066601546 3.4641105e-06 0)
(0.065782378 -3.2261451e-06 0)
(0.066552432 3.0738343e-06 0)
(0.065828235 -2.8862057e-06 0)
(0.066508899 2.734423e-06 0)
(0.065869184 -2.5782819e-06 0)
(0.066470148 2.4386925e-06 0)
(0.065905757 -2.3042254e-06 0)
(0.066435563 2.1794642e-06 0)
(0.065938455 -2.0621144e-06 0)
(0.06640463 1.9518961e-06 0)
(0.065967738 -1.8491338e-06 0)
(0.066376903 1.7523452e-06 0)
(0.065994018 -1.6624314e-06 0)
(0.066351986 1.5778092e-06 0)
(0.06601767 -1.4993682e-06 0)
(0.066329525 1.4257176e-06 0)
(0.066039029 -1.3575909e-06 0)
(0.066309201 1.2938374e-06 0)
(0.066058398 -1.2350288e-06 0)
(0.066290725 1.1802308e-06 0)
(0.066076053 -1.1298783e-06 0)
(0.066273833 1.0832192e-06 0)
(0.066092246 -1.040583e-06 0)
(0.066258287 1.001361e-06 0)
(0.066107205 -9.6580551e-07 0)
(0.066243866 9.3341913e-07 0)
(0.066121143 -9.0441348e-07 0)
(0.066230364 8.7831584e-07 0)
(0.066134258 -8.5539154e-07 0)
(0.066217591 8.3539533e-07 0)
(0.066146738 -8.1671722e-07 0)
(0.066205345 8.0551111e-07 0)
(0.066158722 -7.9010469e-07 0)
(0.066193409 7.521333e-07 0)
(0.066170742 -9.4454414e-07 0)
(0.066183665 6.9952937e-07 0)
(0.059656195 0.0078086791 0)
(0.072442111 -0.0006020158 0)
(0.06851076 0.00041023109 0)
(0.0708477 -1.4952699e-05 0)
(0.069018028 1.727684e-06 0)
(0.070862619 1.0293966e-05 0)
(0.069223019 4.3048078e-06 0)
(0.070686566 3.1624635e-06 0)
(0.06937349 -3.3040651e-06 0)
(0.070589992 3.7400836e-06 0)
(0.069462106 -3.9611124e-06 0)
(0.070520792 3.9314554e-06 0)
(0.0695256 -3.668539e-06 0)
(0.070460947 3.5527982e-06 0)
(0.069580785 -3.3053988e-06 0)
(0.070408217 3.151531e-06 0)
(0.069630062 -2.9579303e-06 0)
(0.070361458 2.8030685e-06 0)
(0.069674059 -2.642646e-06 0)
(0.07031983 2.4997652e-06 0)
(0.06971335 -2.361859e-06 0)
(0.070282675 2.2340196e-06 0)
(0.069748478 -2.1137505e-06 0)
(0.070249443 2.0007756e-06 0)
(0.069779936 -1.895483e-06 0)
(0.070219655 1.7962666e-06 0)
(0.069808169 -1.7041467e-06 0)
(0.070192886 1.6174024e-06 0)
(0.069833578 -1.5370391e-06 0)
(0.070168756 1.461544e-06 0)
(0.069856524 -1.391748e-06 0)
(0.070146921 1.3264e-06 0)
(0.069877333 -1.2661505e-06 0)
(0.07012707 1.2099834e-06 0)
(0.069896301 -1.1583965e-06 0)
(0.070108923 1.1105726e-06 0)
(0.069913697 -1.0668905e-06 0)
(0.07009222 1.0266887e-06 0)
(0.069929769 -9.9025914e-07 0)
(0.070076726 9.5706162e-07 0)
(0.069944743 -9.2733965e-07 0)
(0.070062221 9.0057977e-07 0)
(0.069958834 -8.770873e-07 0)
(0.070048499 8.5656837e-07 0)
(0.06997224 -8.3734049e-07 0)
(0.070035347 8.2609298e-07 0)
(0.069985115 -8.0963535e-07 0)
(0.070022533 7.7023534e-07 0)
(0.069997964 -9.754691e-07 0)
(0.070011721 7.1093113e-07 0)
(0.063090096 0.0076205881 0)
(0.075172554 -0.0006757414 0)
(0.072094454 0.00041494752 0)
(0.074507489 -1.7955717e-05 0)
(0.072602263 6.934385e-07 0)
(0.074582254 9.5149403e-06 0)
(0.072847583 4.7293943e-06 0)
(0.074412324 2.7776826e-06 0)
(0.073011733 -3.2538807e-06 0)
(0.074309743 3.7034001e-06 0)
(0.073106014 -4.0195964e-06 0)
(0.074236162 3.996223e-06 0)
(0.073173724 -3.7295383e-06 0)
(0.074172381 3.6177702e-06 0)
(0.073232655 -3.3623013e-06 0)
(0.07411612 3.2080942e-06 0)
(0.073285272 -3.0097203e-06 0)
(0.074066213 2.8528852e-06 0)
(0.073332244 -2.689228e-06 0)
(0.074021775 2.5440389e-06 0)
(0.073374189 -2.4036121e-06 0)
(0.073982111 2.2735622e-06 0)
(0.073411689 -2.151181e-06 0)
(0.073946634 2.0362127e-06 0)
(0.073445271 -1.9290982e-06 0)
(0.073914835 1.8281229e-06 0)
(0.07347541 -1.7344174e-06 0)
(0.073886258 1.6461355e-06 0)
(0.073502535 -1.5643912e-06 0)
(0.073860497 1.4875602e-06 0)
(0.073527031 -1.4165654e-06 0)
(0.073837186 1.3500633e-06 0)
(0.073549246 -1.2887789e-06 0)
(0.073815993 1.2316214e-06 0)
(0.073569497 -1.1791481e-06 0)
(0.073796618 1.1304818e-06 0)
(0.07358807 -1.0860484e-06 0)
(0.073778785 1.0451383e-06 0)
(0.073605229 -1.0080805e-06 0)
(0.073762242 9.7429606e-07 0)
(0.073621216 -9.4405859e-07 0)
(0.073746756 9.1681733e-07 0)
(0.07363626 -8.9291598e-07 0)
(0.073732106 8.7201156e-07 0)
(0.073650572 -8.5236683e-07 0)
(0.07371807 8.4115895e-07 0)
(0.07366432 -8.2374089e-07 0)
(0.073704399 7.8322613e-07 0)
(0.073677975 -9.9971207e-07 0)
(0.07369252 7.1726429e-07 0)
(0.068052153 0.0079910636 0)
(0.077844734 -0.00070698569 0)
(0.075600542 0.00041861029 0)
(0.077982821 -2.0882437e-05 0)
(0.07605104 -1.0139138e-06 0)
(0.078152285 8.4883181e-06 0)
(0.076327149 5.099071e-06 0)
(0.077989863 2.3039509e-06 0)
(0.07650403 -3.1683101e-06 0)
(0.077881227 3.6311355e-06 0)
(0.076603688 -4.051465e-06 0)
(0.077803354 4.0347855e-06 0)
(0.076675491 -3.7663889e-06 0)
(0.077735751 3.6595666e-06 0)
(0.076738072 -3.3974648e-06 0)
(0.07767606 3.2440404e-06 0)
(0.076793939 -3.0421e-06 0)
(0.077623091 2.8843477e-06 0)
(0.076843805 -2.7184868e-06 0)
(0.077575922 2.5719411e-06 0)
(0.076888333 -2.4298913e-06 0)
(0.077533817 2.2984748e-06 0)
(0.07692814 -2.1747678e-06 0)
(0.077496157 2.0585492e-06 0)
(0.076963788 -1.9503024e-06 0)
(0.0774624 1.8482199e-06 0)
(0.076995782 -1.7535324e-06 0)
(0.077432063 1.6642823e-06 0)
(0.077024576 -1.5816839e-06 0)
(0.077404716 1.5040125e-06 0)
(0.077050581 -1.4322765e-06 0)
(0.077379968 1.3650491e-06 0)
(0.077074166 -1.303125e-06 0)
(0.077357468 1.2453459e-06 0)
(0.077095665 -1.1923246e-06 0)
(0.077336898 1.14313e-06 0)
(0.077115384 -1.0982321e-06 0)
(0.077317964 1.0568777e-06 0)
(0.077133601 -1.0194311e-06 0)
(0.0773004 9.8527807e-07 0)
(0.077150576 -9.5472046e-07 0)
(0.077283958 9.2717417e-07 0)
(0.077166547 -9.0301899e-07 0)
(0.077268405 8.8186329e-07 0)
(0.077181741 -8.619327e-07 0)
(0.077253507 8.5083775e-07 0)
(0.07719634 -8.3256454e-07 0)
(0.077239003 7.9124387e-07 0)
(0.07721078 -1.0173046e-06 0)
(0.077226065 7.1881921e-07 0)
(0.07162683 0.007809989 0)
(0.080372572 -0.0007723999 0)
(0.078986562 0.00041351459 0)
(0.081317938 -2.3201634e-05 0)
(0.079370757 -3.2586314e-06 0)
(0.081573158 7.3539295e-06 0)
(0.079663512 5.4337244e-06 0)
(0.081419138 1.7639809e-06 0)
(0.079850566 -3.0416084e-06 0)
(0.081304371 3.5274928e-06 0)
(0.07995523 -4.0563158e-06 0)
(0.08122228 4.0483649e-06 0)
(0.080030985 -3.7796566e-06 0)
(0.081150978 3.678904e-06 0)
(0.080097109 -3.411507e-06 0)
(0.081087966 3.2599723e-06 0)
(0.080156129 -3.0556329e-06 0)
(0.081032032 2.8979897e-06 0)
(0.080208802 -2.7309254e-06 0)
(0.080982214 2.5839474e-06 0)
(0.080255832 -2.4411444e-06 0)
(0.080937744 2.3091813e-06 0)
(0.080297876 -2.1849106e-06 0)
(0.080897967 2.0681635e-06 0)
(0.080335527 -1.9594527e-06 0)
(0.080862312 1.856896e-06 0)
(0.080369319 -1.7618115e-06 0)
(0.080830269 1.6721462e-06 0)
(0.080399733 -1.5892042e-06 0)
(0.080801383 1.5111736e-06 0)
(0.080427201 -1.4391397e-06 0)
(0.080775242 1.3716036e-06 0)
(0.080452113 -1.3094227e-06 0)
(0.080751474 1.2513798e-06 0)
(0.080474824 -1.1981385e-06 0)
(0.080729744 1.1487205e-06 0)
(0.080495654 -1.103636e-06 0)
(0.080709743 1.0620937e-06 0)
(0.0805149 -1.0244903e-06 0)
(0.080691188 9.9018054e-07 0)
(0.080532832 -9.5949224e-07 0)
(0.080673817 9.3181221e-07 0)
(0.080549704 -9.0755342e-07 0)
(0.080657387 8.8627719e-07 0)
(0.080565756 -8.6618939e-07 0)
(0.080641652 8.5527341e-07 0)
(0.08058118 -8.3626278e-07 0)
(0.080626341 7.9443715e-07 0)
(0.08059638 -1.0283156e-06 0)
(0.080612359 7.1589143e-07 0)
(0.076321581 0.0080099397 0)
(0.082903723 -0.00079366196 0)
(0.082199515 0.00040574409 0)
(0.084549055 -2.3933141e-05 0)
(0.082565676 -5.5585562e-06 0)
(0.084845286 6.2344163e-06 0)
(0.082858664 5.748996e-06 0)
(0.084700048 1.18311e-06 0)
(0.083051521 -2.8717862e-06 0)
(0.084579139 3.3955964e-06 0)
(0.083160743 -4.0343292e-06 0)
(0.084492872 4.0379838e-06 0)
(0.083240283 -3.7701036e-06 0)
(0.084417995 3.6764841e-06 0)
(0.083309832 -3.405138e-06 0)
(0.084351778 3.2565216e-06 0)
(0.0833719 -3.0509419e-06 0)
(0.08429298 2.8943827e-06 0)
(0.083427284 -2.7270925e-06 0)
(0.084240606 2.5805705e-06 0)
(0.083476732 -2.4378585e-06 0)
(0.08419385 2.3061402e-06 0)
(0.083520936 -2.1820429e-06 0)
(0.084152029 2.0654655e-06 0)
(0.083560523 -1.9569363e-06 0)
(0.08411454 1.8545179e-06 0)
(0.083596053 -1.7596014e-06 0)
(0.084080848 1.6700561e-06 0)
(0.083628032 -1.5872635e-06 0)
(0.084050474 1.5093391e-06 0)
(0.083656914 -1.4374359e-06 0)
(0.084022986 1.3699938e-06 0)
(0.08368311 -1.307926e-06 0)
(0.083997993 1.2499657e-06 0)
(0.083706991 -1.1968211e-06 0)
(0.083975141 1.1474745e-06 0)
(0.083728897 -1.1024717e-06 0)
(0.083954107 1.0609895e-06 0)
(0.083749136 -1.0234532e-06 0)
(0.083934593 9.8919173e-07 0)
(0.083767995 -9.585557e-07 0)
(0.083916325 9.3090773e-07 0)
(0.083785739 -9.0669045e-07 0)
(0.083899045 8.8542069e-07 0)
(0.08380262 -8.6530107e-07 0)
(0.083882501 8.5462287e-07 0)
(0.083818845 -8.3500389e-07 0)
(0.083866412 7.9296505e-07 0)
(0.083834777 -1.0328479e-06 0)
(0.083851403 7.0877657e-07 0)
(0.079969698 0.0078225267 0)
(0.085321183 -0.00084555209 0)
(0.085246144 0.00038980246 0)
(0.087667241 -2.5390673e-05 0)
(0.085629834 -8.108392e-06 0)
(0.087966469 5.1250447e-06 0)
(0.085913056 5.9922382e-06 0)
(0.087831992 5.7802926e-07 0)
(0.086106833 -2.6651402e-06 0)