/*--------------------------------*- C++ -*----------------------------------*\
| =========                 |                                                 |
| \\      /  F ield         | OpenFOAM: The Open Source CFD Toolbox           |
|  \\    /   O peration     | Version:  2312                                  |
|   \\  /    A nd           | Website:  www.openfoam.com                      |
|    \\/     M anipulation  |                                                 |
\*---------------------------------------------------------------------------*/
FoamFile
{
    version     2.0;
    format      ascii;
    arch        "LSB;label=32;scalar=64";
    class       surfaceScalarField;
    location    "10";
    object      phi;
}
// * * * * * * * * * * * * * * * * * * * * * * * * * * * * * * * * * * * * * //

dimensions      [0 3 -1 0 0 0 0];

oriented        oriented;

internalField   nonuniform List<scalar> 
7870
(
1.6855318e-10
3.2930718e-09
1.7930375e-10
-1.0750563e-11
1.3089338e-10
4.8410372e-11
1.4046045e-10
-9.5670557e-12
1.3426773e-10
6.1927164e-12
1.3497391e-10
-7.0617206e-13
1.3316679e-10
1.8071255e-12
1.3352455e-10
-3.5776349e-13
1.3264203e-10
8.8252519e-13
1.3324129e-10
-5.9925868e-13
1.3256032e-10
6.8096409e-13
1.3317673e-10
-6.164091e-13
1.3257149e-10
6.0524712e-13
1.3314246e-10
-5.7097414e-13
1.325967e-10
5.4575747e-13
1.3311225e-10
-5.1555427e-13
1.3262261e-10
4.8964619e-13
1.3308521e-10
-4.6260104e-13
1.3264688e-10
4.3832399e-13
1.3306126e-10
-4.1437862e-13
1.3266895e-10
3.923092e-13
1.3304003e-10
-3.7108175e-13
1.3268873e-10
3.5130159e-13
1.3302123e-10
-3.3250438e-13
1.3270629e-10
3.1494036e-13
1.3300465e-10
-2.9836327e-13
1.3272177e-10
2.8288711e-13
1.3299011e-10
-2.683488e-13
1.3273531e-10
2.5480784e-13
1.3297744e-10
-2.4213582e-13
1.3274707e-10
2.3036912e-13
1.3296647e-10
-2.1939787e-13
1.3275722e-10
2.0924784e-13
1.3295705e-10
-1.9982291e-13
1.327659e-10
1.9114334e-13
1.3294903e-10
-1.8312561e-13
1.3277324e-10
1.757865e-13
1.329423e-10
-1.690547e-13
1.3277935e-10
1.6294446e-13
1.3293675e-10
-1.5739565e-13
1.3278433e-10
1.5242142e-13
1.329323e-10
-1.4797272e-13
1.3278825e-10
1.4405004e-13
1.3292891e-10
-1.4066024e-13
1.3279121e-10
1.3769706e-13
1.3292644e-10
-1.3522807e-13
1.3279252e-10
1.3392088e-13
1.32922e-10
-1.2947926e-13
1.3278443e-10
1.3756563e-13
-1.2525473e-13
4.432557e-10
6.3114411e-09
5.0235366e-10
-6.9848503e-11
3.9276518e-10
1.5799885e-10
4.0412199e-10
-2.0923836e-11
3.9028879e-10
2.0025916e-11
3.9078699e-10
-1.2043517e-12
3.8717156e-10
5.4225541e-12
3.8698339e-10
-1.695873e-13
3.8557246e-10
2.2934532e-12
3.8625829e-10
-1.2850837e-12
3.8528307e-10
1.6561866e-12
3.8613694e-10
-1.4702818e-12
3.8527006e-10
1.4721222e-12
3.8608874e-10
-1.3896606e-12
3.8529996e-10
1.3345358e-12
3.860445e-10
-1.2600989e-12
3.8533527e-10
1.1988807e-12
3.8600441e-10
-1.1317431e-12
3.8536972e-10
1.0730086e-12
3.8596923e-10
-1.0138969e-12
3.8540151e-10
9.6003638e-13
3.8593828e-10
-9.0785547e-13
3.8543014e-10
8.5944283e-13
3.8591098e-10
-8.1334642e-13
3.8545559e-10
7.7032945e-13
3.8588696e-10
-7.2973462e-13
3.8547801e-10
6.918358e-13
3.8586592e-10
-6.5626461e-13
3.8549762e-10
6.2311484e-13
3.8584761e-10
-5.9212606e-13
3.8551465e-10
5.6332692e-13
3.8583176e-10
-5.3650432e-13
3.8552934e-10
5.1166474e-13
3.8581814e-10
-4.8862413e-13
3.855419e-10
4.673826e-13
3.8580656e-10
-4.4778051e-13
3.8555253e-10
4.2981689e-13
3.8579683e-10
-4.1335547e-13
3.8556137e-10
3.9839595e-13
3.857888e-10
-3.8482277e-13
3.8556858e-10
3.726409e-13
3.8578236e-10
-3.6175197e-13
3.8557427e-10
3.5213619e-13
3.8577747e-10
-3.4385765e-13
3.8557867e-10
3.3649838e-13
3.8577406e-10
-3.3061412e-13
3.8558063e-10
3.2734611e-13
3.8576622e-10
-3.1506943e-13
3.8556069e-10
3.4309506e-13
-3.0574748e-13
7.3394555e-10
9.0391206e-09
7.9541012e-10
-1.3131305e-10
6.4651489e-10
3.068941e-10
6.6036528e-10
-3.4774203e-11
6.3940156e-10
4.0989639e-11
6.3952994e-10
-1.3327135e-12
6.3471362e-10
1.0238878e-11
6.3364601e-10
8.9802972e-13
6.3217323e-10
3.7662319e-12
6.3258471e-10
-1.6965664e-12
6.3168631e-10
2.5545875e-12
6.3244598e-10
-2.2299545e-12
6.3163842e-10
2.279686e-12
6.3240501e-10
-2.1562529e-12
6.3165847e-10
2.0810681e-12
6.3236271e-10
-1.9643419e-12
6.3168916e-10
1.8724286e-12
6.3232341e-10
-1.7659956e-12
6.31721e-10
1.675416e-12
6.3228934e-10
-1.5822477e-12
6.3175097e-10
1.4984078e-12
6.3225966e-10
-1.4165481e-12
6.3177813e-10
1.3409719e-12
6.3223364e-10
-1.2688539e-12
6.318023e-10
1.2016637e-12
6.3221082e-10
-1.1382547e-12
6.3182359e-10
1.079071e-12
6.3219088e-10
-1.0235628e-12
6.3184219e-10
9.7181304e-13
6.3217354e-10
-9.2348228e-13
6.3185833e-10
8.7853525e-13
6.3215854e-10
-8.3671275e-13
6.3187226e-10
7.9794882e-13
6.3214566e-10
-7.6202452e-13
6.3188417e-10
7.2887357e-13
6.3213469e-10
-6.9830673e-13
6.3189424e-10
6.7026622e-13
6.3212548e-10
-6.4459053e-13
6.3190264e-10
6.2123227e-13
6.3211787e-10
-6.000529e-13
6.3190949e-10
5.8102479e-13
6.3211176e-10
-5.6402158e-13
6.3191491e-10
5.4898422e-13
6.3210714e-10
-5.360863e-13
6.3191922e-10
5.2441862e-13
6.3210406e-10
-5.1545761e-13
6.3192107e-10
5.1034027e-13
6.3209447e-10
-4.8847451e-13
6.3189096e-10
5.4661233e-13
-4.7591964e-13
9.3369391e-10
1.1567052e-08
1.0700593e-09
-2.6767839e-10
8.9306513e-10
4.8388825e-10
9.0957393e-10
-5.1282981e-11
8.8136093e-10
6.9202647e-11
8.8143031e-10
-1.4020807e-12
8.7555743e-10
1.6111765e-11
8.7372184e-10
2.7336298e-12
8.7225363e-10
5.2344427e-12
8.7240595e-10
-1.848888e-12
8.7159859e-10
3.3619497e-12
8.7226739e-10
-2.8987598e-12
8.7152339e-10
3.0236878e-12
8.7223697e-10
-2.8698374e-12
8.7153537e-10
2.7826622e-12
8.7219715e-10
-2.6261307e-12
8.7156181e-10
2.5077688e-12
8.7215883e-10
-2.363021e-12
8.7159104e-10
2.2432072e-12
8.7212603e-10
-2.1172437e-12
8.716191e-10
2.0053414e-12
8.7209776e-10
-1.8952095e-12
8.7164466e-10
1.7940693e-12
8.7207312e-10
-1.6973193e-12
8.7166742e-10
1.6073605e-12
8.720516e-10
-1.5224332e-12
8.7168746e-10
1.4432111e-12
8.7203283e-10
-1.368936e-12
8.7170496e-10
1.2996858e-12
8.7201653e-10
-1.2350472e-12
8.7172015e-10
1.1749117e-12
8.7200243e-10
-1.1189882e-12
8.7173325e-10
1.067127e-12
8.7199031e-10
-1.0190897e-12
8.7174445e-10
9.7473335e-13
8.7198e-10
-9.338533e-13
8.7175394e-10
8.9632669e-13
8.7197133e-10
-8.6197866e-13
8.7176185e-10
8.3070823e-13
8.7196416e-10
-8.0236311e-13
8.7176831e-10
7.7687966e-13
8.7195839e-10
-7.5410552e-13
8.7177343e-10
7.3394389e-13
8.7195404e-10
-7.1670103e-13
8.7177762e-10
7.0083911e-13
8.7195133e-10
-6.891628e-13
8.7177955e-10
6.821202e-13
8.7194075e-10
-6.4967157e-13
8.7174165e-10
7.4570714e-13
-6.3535922e-13
1.1915523e-09
1.3837124e-08
1.3318296e-09
-4.0795572e-10
1.1309334e-09
6.8478454e-10
1.1518426e-09
-7.2192198e-11
1.1161979e-09
1.0484741e-10
1.1164929e-09
-1.6971253e-12
1.1096762e-09
2.2928465e-11
1.1072103e-09
5.1995141e-12
1.1058145e-09
6.6302873e-12
1.1057238e-09
-1.7582331e-12
1.1050203e-09
4.0655278e-12
1.1056013e-09
-3.4797747e-12
1.1049248e-09
3.7001261e-12
1.1055844e-09
-3.529378e-12
1.1049304e-09
3.4366167e-12
1.1055476e-09
-3.2433178e-12
1.104953e-09
3.1024059e-12
1.1055105e-09
-2.9205668e-12
1.1049796e-09
2.7741323e-12
1.1054792e-09
-2.6168306e-12
1.1050056e-09
2.4788791e-12
1.1054524e-09
-2.3420417e-12
1.1050295e-09
2.217049e-12
1.1054293e-09
-2.0971862e-12
1.1050507e-09
1.9859656e-12
1.1054092e-09
-1.8809196e-12
1.1050694e-09
1.7829913e-12
1.1053917e-09
-1.6912021e-12
1.1050858e-09
1.6056211e-12
1.1053765e-09
-1.5257749e-12
1.1050999e-09
1.4514675e-12
1.1053633e-09
-1.3823963e-12
1.1051122e-09
1.3183123e-12
1.105352e-09
-1.2589778e-12
1.1051226e-09
1.2041602e-12
1.1053424e-09
-1.153657e-12
1.1051315e-09
1.1072694e-12
1.1053343e-09
-1.0648241e-12
1.1051389e-09
1.0261576e-12
1.1053276e-09
-9.9111577e-13
1.1051449e-09
9.5959315e-13
1.1053222e-09
-9.3141562e-13
1.1051497e-09
9.0645052e-13
1.1053182e-09
-8.8515052e-13
1.1051538e-09
8.6524073e-13
1.1053158e-09
-8.5122173e-13
1.1051558e-09
8.4209941e-13
1.1053047e-09
-7.985697e-13
1.1051121e-09
9.3830011e-13
-7.8258105e-13
1.3923463e-09
1.5906403e-08
1.5728758e-09
-5.8848522e-10
1.362551e-09
8.9510938e-10
1.3869567e-09
-9.6597933e-11
1.3438636e-09
1.4794054e-10
1.3447059e-09
-2.5394194e-12
1.3370548e-09
3.0579568e-11
1.3341204e-09
8.1339583e-12
1.3328585e-09
7.8922227e-12
1.3325421e-09
-1.4418624e-12
1.3319523e-09
4.6553167e-12
1.3324485e-09
-3.9760232e-12
1.3318428e-09
4.3058152e-12
1.3324475e-09
-4.1340603e-12
1.3318435e-09
4.0406507e-12
1.3324143e-09
-3.8141e-12
1.3318624e-09
3.654235e-12
1.3323786e-09
-3.4367662e-12
1.3318864e-09
3.2663408e-12
1.3323489e-09
-3.0793423e-12
1.3319104e-09
2.9174476e-12
1.3323239e-09
-2.7556121e-12
1.3319324e-09
2.6085777e-12
1.3323024e-09
-2.467228e-12
1.3319521e-09
2.3363386e-12
1.3322838e-09
-2.2126546e-12
1.3319694e-09
2.0974221e-12
1.3322676e-09
-1.9894339e-12
1.3319845e-09
1.8887474e-12
1.3322535e-09
-1.7948434e-12
1.3319976e-09
1.7074259e-12
1.3322414e-09
-1.6262002e-12
1.3320089e-09
1.5508056e-12
1.3322309e-09
-1.4810235e-12
1.3320186e-09
1.416521e-12
1.332222e-09
-1.3571137e-12
1.3320268e-09
1.3025182e-12
1.3322145e-09
-1.2525761e-12
1.3320336e-09
1.2070541e-12
1.3322083e-09
-1.1658068e-12
1.3320392e-09
1.1286825e-12
1.3322033e-09
-1.0954886e-12
1.3320437e-09
1.0660612e-12
1.3321996e-09
-1.0410029e-12
1.3320476e-09
1.017224e-12
1.3321976e-09
-1.0012385e-12
1.3320498e-09
9.8984622e-13
1.3321864e-09
-9.3512786e-13
1.3320021e-09
1.1225951e-12
-9.1638757e-13
1.6003412e-09
1.7767687e-08
1.8030292e-09
-7.9117321e-10
1.5857433e-09
1.1123953e-09
1.6136499e-09
-1.2450459e-10
1.564553e-09
1.9703749e-10
1.5661456e-09
-4.1320474e-12
1.5577198e-09
3.9005389e-11
1.5544706e-09
1.1383171e-11
1.5533892e-09
8.9736709e-12
1.552865e-09
-9.1770631e-13
1.552396e-09
5.1243629e-12
1.5528102e-09
-4.3902618e-12
1.5522776e-09
4.8384423e-12
1.5528268e-09
-4.6832825e-12
1.5522745e-09
4.5929833e-12
1.5527974e-09
-4.3370706e-12
1.5522901e-09
4.1616063e-12
1.5527635e-09
-3.9101921e-12
1.5523114e-09
3.7184254e-12
1.5527356e-09
-3.5035387e-12
1.5523331e-09
3.3198841e-12
1.5527124e-09
-3.134876e-12
1.5523533e-09
2.9676883e-12
1.5526926e-09
-2.8065609e-12
1.5523713e-09
2.6576596e-12
1.5526755e-09
-2.5168777e-12
1.5523872e-09
2.3857929e-12
1.5526607e-09
-2.2629644e-12
1.552401e-09
2.1484368e-12
1.5526478e-09
-2.0416581e-12
1.552413e-09
1.9422238e-12
1.5526367e-09
-1.849864e-12
1.5524234e-09
1.7640974e-12
1.5526271e-09
-1.6847406e-12
1.5524323e-09
1.6113523e-12
1.5526189e-09
-1.5437803e-12
1.5524398e-09
1.48165e-12
1.5526121e-09
-1.4248296e-12
1.5524461e-09
1.3730105e-12
1.5526064e-09
-1.3260655e-12
1.5524513e-09
1.2837926e-12
1.5526017e-09
-1.2459842e-12
1.5524554e-09
1.2124511e-12
1.5525983e-09
-1.183941e-12
1.552459e-09
1.1565012e-12
1.5525967e-09
-1.1389202e-12
1.5524615e-09
1.1250616e-12
1.5525857e-09
-1.0593531e-12
1.5524112e-09
1.2970657e-12
-1.0360972e-12
1.773199e-09
1.9456113e-08
2.0107951e-09
-1.0287693e-09
1.8005981e-09
1.3225923e-09
1.8276608e-09
-1.5156723e-10
1.7776438e-09
2.4705449e-10
1.7806457e-09
-7.133968e-12
1.7716468e-09
4.8004369e-11
1.7682717e-09
1.4758196e-11
1.7674064e-09
9.8390345e-12
1.7666956e-09
-2.0694036e-13
1.7663522e-09
5.4677989e-12
1.766687e-09
-4.7251136e-12
1.7662291e-09
5.2963608e-12
1.7667225e-09
-5.1766638e-12
1.7662232e-09
5.0922912e-12
1.7666973e-09
-4.8112049e-12
1.7662356e-09
4.6233005e-12
1.7666652e-09
-4.3398313e-12
1.7662543e-09
4.1293888e-12
1.7666393e-09
-3.8885694e-12
1.7662738e-09
3.6853963e-12
1.766618e-09
-3.4791351e-12
1.766292e-09
3.2937374e-12
1.7666e-09
-3.1146014e-12
1.7663083e-09
2.9493879e-12
1.7665845e-09
-2.7930874e-12
1.7663227e-09
2.6476341e-12
1.7665711e-09
-2.5113514e-12
1.7663352e-09
2.3842713e-12
1.7665594e-09
-2.2658214e-12
1.7663461e-09
2.1554831e-12
1.7665493e-09
-2.0530266e-12
1.7663555e-09
1.9578431e-12
1.7665406e-09
-1.869799e-12
1.7663636e-09
1.7883389e-12
1.7665332e-09
-1.7133548e-12
1.7663705e-09
1.6443764e-12
1.7665269e-09
-1.5813083e-12
1.7663762e-09
1.5237628e-12
1.7665218e-09
-1.4716388e-12
1.7663809e-09
1.4246814e-12
1.7665176e-09
-1.3826707e-12
1.7663846e-09
1.3453998e-12
1.7665144e-09
-1.3137494e-12
1.766388e-09
1.2828833e-12
1.7665132e-09
-1.264065e-12
1.7663907e-09
1.247558e-12
1.7665026e-09
-1.1712963e-12
1.7663393e-09
1.4604224e-12
-1.1414232e-12
1.9630244e-09
2.0954714e-08
2.209757e-09
-1.2755019e-09
2.00617e-09
1.5261794e-09
2.0271072e-09
-1.7250444e-10
1.9831566e-09
2.9100509e-10
1.9881869e-09
-1.2164222e-11
1.9788755e-09
5.7315746e-11
1.9755371e-09
1.8096617e-11
1.9749111e-09
1.0464974e-11
1.9740373e-09
6.6690363e-13
1.9738223e-09
5.6828087e-12
1.9740799e-09
-4.982749e-12
1.9736976e-09
5.678641e-12
1.9741349e-09
-5.6139874e-12
1.9736895e-09
5.5377297e-12
1.9741141e-09
-5.2358295e-12
1.9736989e-09
5.038517e-12
1.9740841e-09
-4.7250494e-12
1.9737149e-09
4.4986103e-12
1.9740603e-09
-4.2339316e-12
1.9737321e-09
4.0135198e-12
1.974041e-09
-3.7879931e-12
1.9737484e-09
3.5863623e-12
1.9740248e-09
-3.3910247e-12
1.9737629e-09
3.2112227e-12
1.9740109e-09
-3.0410045e-12
1.9737758e-09
2.8826831e-12
1.9739988e-09
-2.7343452e-12
1.9737871e-09
2.5960134e-12
1.9739883e-09
-2.4671052e-12
1.9737968e-09
2.3469858e-12
1.9739793e-09
-2.2354776e-12
1.9738053e-09
2.1318414e-12
1.9739715e-09
-2.0360048e-12
1.9738125e-09
1.9472952e-12
1.9739649e-09
-1.8656589e-12
1.9738187e-09
1.7905271e-12
1.9739592e-09
-1.7218489e-12
1.9738238e-09
1.6591552e-12
1.9739546e-09
-1.6023778e-12
1.9738281e-09
1.5512071e-12
1.9739508e-09
-1.5054134e-12
1.9738314e-09
1.4647799e-12
1.973948e-09
-1.4303035e-12
1.9738346e-09
1.3962685e-12
1.9739471e-09
-1.3765524e-12
1.9738374e-09
1.3572441e-12
1.9739371e-09
-1.2710486e-12
1.973786e-09
1.611587e-12
-1.2323594e-12
2.1071615e-09
2.2309177e-08
2.3872895e-09
-1.5556299e-09
2.2012649e-09
1.7122041e-09
2.2150971e-09
-1.8633663e-10
2.1815204e-09
3.2458182e-10
2.1885326e-09
-1.9176462e-11
2.1793909e-09
6.6457487e-11
2.176269e-09
2.1218531e-11
2.1759039e-09
1.083e-11
2.1748927e-09
1.6781838e-12
2.1748076e-09
5.7678964e-12
2.1749897e-09
-5.1648382e-12
2.1746833e-09
5.9850074e-12
2.1750645e-09
-5.995235e-12
2.1746733e-09
5.9289104e-12
2.1750481e-09
-5.6106187e-12
2.1746798e-09
5.4068502e-12
2.1750203e-09
-5.0655649e-12
2.1746931e-09
4.8258132e-12
2.1749986e-09
-4.5394358e-12
2.174708e-09
4.3040819e-12
2.1749814e-09
-4.0613204e-12
2.1747223e-09
3.8454462e-12
2.174967e-09
-3.6357321e-12
2.1747351e-09
3.4430721e-12
2.1749547e-09
-3.2605433e-12
2.1747465e-09
3.0908573e-12
2.174944e-09
-2.9318648e-12
2.1747564e-09
2.7835839e-12
2.1749348e-09
-2.6454307e-12
2.1747651e-09
2.5166547e-12
2.1749268e-09
-2.3971404e-12
2.1747726e-09
2.2860181e-12
2.1749199e-09
-2.1832851e-12
2.174779e-09
2.0881514e-12
2.174914e-09
-2.0006248e-12
2.1747845e-09
1.9200375e-12
2.174909e-09
-1.8463897e-12
2.174789e-09
1.7791295e-12
2.1749049e-09
-1.7182276e-12
2.1747928e-09
1.6633182e-12
2.1749015e-09
-1.6141646e-12
2.1747958e-09
1.5705479e-12
2.174899e-09
-1.5335609e-12
2.1747986e-09
1.4966336e-12
2.1748984e-09
-1.4763369e-12
2.1748016e-09
1.4541139e-12
2.1748893e-09
-1.3587404e-12
2.1747512e-09
1.7496728e-12
-1.3091132e-12
2.282801e-09
2.3488001e-08
2.5566798e-09
-1.8295088e-09
2.3842332e-09
1.8846508e-09
2.3950811e-09
-1.9718456e-10
2.3730056e-09
3.4665731e-10
2.3814378e-09
-2.760857e-11
2.3732096e-09
7.4685661e-11
2.3704886e-09
2.3939474e-11
2.3703858e-09
1.0932829e-11
2.3692647e-09
2.7992969e-12
2.3693094e-09
5.7231666e-12
2.369417e-09
-5.2723982e-12
2.3691862e-09
6.2158383e-12
2.3695115e-09
-6.3206194e-12
2.3691746e-09
6.2658767e-12
2.3694995e-09
-5.9355842e-12
2.3691781e-09
5.7282625e-12
2.369474e-09
-5.3614173e-12
2.3691887e-09
5.1110314e-12
2.3694545e-09
-4.8051687e-12
2.3692014e-09
4.5571674e-12
2.3694393e-09
-4.2992197e-12
2.3692136e-09
4.0710869e-12
2.3694267e-09
-3.8488213e-12
2.3692248e-09
3.6450267e-12
2.369416e-09
-3.4517872e-12
2.3692346e-09
3.2722324e-12
2.3694068e-09
-3.1039775e-12
2.3692433e-09
2.9470435e-12
2.3693987e-09
-2.8008512e-12
2.3692508e-09
2.6645381e-12
2.3693918e-09
-2.5380581e-12
2.3692574e-09
2.4204127e-12
2.3693857e-09
-2.311676e-12
2.369263e-09
2.2109413e-12
2.3693806e-09
-2.1182843e-12
2.3692677e-09
2.0329386e-12
2.3693763e-09
-1.9549603e-12
2.3692717e-09
1.8837154e-12
2.3693727e-09
-1.8192176e-12
2.369275e-09
1.7610447e-12
2.3693698e-09
-1.7089555e-12
2.3692776e-09
1.6627365e-12
2.3693676e-09
-1.6235533e-12
2.3692802e-09
1.5840263e-12
2.3693673e-09
-1.5634403e-12
2.3692831e-09
1.538236e-12
2.3693589e-09
-1.4345393e-12
2.3692347e-09
1.8739692e-12
-1.3720608e-12
2.4098641e-09
2.4539762e-08
2.7067816e-09
-2.1264263e-09
2.5605749e-09
2.0308575e-09
2.5697283e-09
-2.0633797e-10
2.5579947e-09
3.5839092e-10
2.5670414e-09
-3.6655299e-11
2.5603976e-09
8.1329473e-11
2.5582127e-09
2.6124397e-11
2.5583588e-09
1.0786718e-11
2.5571557e-09
4.0023989e-12
2.5573295e-09
5.5494222e-12
2.5573626e-09
-5.3055573e-12
2.5572063e-09
6.3721611e-12
2.5574762e-09
-6.5905775e-12
2.5571931e-09
6.5490644e-12
2.5574685e-09
-6.2110554e-12
2.5571937e-09
6.0030425e-12
2.5574453e-09
-5.6129346e-12
2.5572017e-09
5.3545696e-12
2.557428e-09
-5.0314584e-12
2.5572121e-09
4.7730831e-12
2.5574149e-09
-4.5019951e-12
2.5572224e-09
4.2635672e-12
2.5574041e-09
-4.0305605e-12
2.5572318e-09
3.817335e-12
2.557395e-09
-3.6149673e-12
2.5572402e-09
3.4270228e-12
2.5573871e-09
-3.2508815e-12
2.5572476e-09
3.0865766e-12
2.5573802e-09
-2.9335375e-12
2.557254e-09
2.7907962e-12
2.5573743e-09
-2.6583802e-12
2.5572596e-09
2.5351666e-12
2.5573692e-09
-2.4213105e-12
2.5572643e-09
2.3157922e-12
2.5573648e-09
-2.2187584e-12
2.5572684e-09
2.1293468e-12
2.5573611e-09
-2.0476727e-12
2.5572718e-09
1.9730217e-12
2.557358e-09
-1.9054535e-12
2.5572746e-09
1.8444899e-12
2.5573555e-09
-1.7898879e-12
2.5572768e-09
1.7414462e-12
2.5573537e-09
-1.7003792e-12
2.5572791e-09
1.6585579e-12
2.5573536e-09
-1.6379463e-12
2.5572821e-09
1.6097446e-12
2.5573462e-09
-1.4986483e-12
2.5572363e-09
1.9839265e-12
-1.4217085e-12
2.5708348e-09
2.5430552e-08
2.8536979e-09
-2.4092893e-09
2.729977e-09
2.1545783e-09
2.7387246e-09
-2.1508551e-10
2.7364669e-09
3.6064861e-10
2.7457061e-09
-4.5894447e-11
2.7410457e-09
8.5989863e-11
2.7394656e-09
2.7704498e-11
2.7398259e-09
1.0426449e-11
2.7385679e-09
5.2603462e-12
2.7388694e-09
5.2479425e-12
2.7388272e-09
-5.2633379e-12
2.7387436e-09
6.4556907e-12
2.7389588e-09
-6.8057529e-12
2.7387286e-09
6.7792445e-12
2.7389552e-09
-6.4376622e-12
2.7387265e-09
6.2317531e-12
2.7389343e-09
-5.8207002e-12
2.7387319e-09
5.556962e-12
2.7389193e-09
-5.2188405e-12
2.73874e-09
4.9523249e-12
2.7389082e-09
-4.6701217e-12
2.7387484e-09
4.4233291e-12
2.7388992e-09
-4.1813641e-12
2.7387561e-09
3.960383e-12
2.7388916e-09
-3.7504432e-12
2.7387631e-09
3.5555641e-12
2.7388851e-09
-3.3728896e-12
2.7387692e-09
3.2024766e-12
2.7388794e-09
-3.0437647e-12
2.7387745e-09
2.8956885e-12
2.7388745e-09
-2.7583511e-12
2.7387791e-09
2.630512e-12
2.7388702e-09
-2.5124091e-12
2.7387831e-09
2.4029144e-12
2.7388666e-09
-2.302248e-12
2.7387865e-09
2.2094554e-12
2.7388635e-09
-2.1247127e-12
2.7387893e-09
2.047228e-12
2.738861e-09
-1.977109e-12
2.7387917e-09
1.913823e-12
2.7388589e-09
-1.8571273e-12
2.7387935e-09
1.8068391e-12
2.7388573e-09
-1.7641974e-12
2.7387955e-09
1.7203964e-12
2.7388575e-09
-1.6999939e-12
2.7387984e-09
1.6688314e-12
2.7388511e-09
-1.5513032e-12
2.7387559e-09
2.0791424e-12
-1.4586609e-12
2.6946605e-09
2.6197517e-08
2.986443e-09
-2.7010718e-09
2.8945281e-09
2.2464933e-09
2.9018814e-09
-2.2243881e-10
2.9086116e-09
3.5391845e-10
2.9179089e-09
-5.5191789e-11
2.9152484e-09
8.8650336e-11
2.9142671e-09
2.8685883e-11
2.9147888e-09
9.904715e-12
2.9135024e-09
6.5467681e-12
2.9139309e-09
4.8193809e-12
2.9138114e-09
-5.1437794e-12
2.9137983e-09
6.4688093e-12
2.9139594e-09
-6.9669277e-12
2.9137812e-09
6.9574924e-12
2.9139598e-09
-6.6162861e-12
2.9137764e-09
6.4151914e-12
2.9139412e-09
-5.9855134e-12
2.9137792e-09
5.7189353e-12
2.9139284e-09
-5.3680255e-12
2.9137851e-09
5.0955479e-12
2.9139192e-09
-4.8042214e-12
2.9137916e-09
4.5509494e-12
2.913912e-09
-4.3017732e-12
2.9137977e-09
4.074675e-12
2.913906e-09
-3.8586868e-12
2.9138032e-09
3.6582982e-12
2.9139008e-09
-3.4704164e-12
2.9138081e-09
3.2951338e-12
2.9138963e-09
-3.1319002e-12
2.9138124e-09
2.9795626e-12
2.9138923e-09
-2.8382998e-12
2.9138161e-09
2.7067619e-12
2.9138889e-09
-2.5852694e-12
2.9138193e-09
2.4725928e-12
2.913886e-09
-2.3690254e-12
2.913822e-09
2.273526e-12
2.9138836e-09
-2.1863317e-12
2.9138242e-09
2.1065772e-12
2.9138815e-09
-2.0344189e-12
2.9138261e-09
1.969272e-12
2.9138799e-09
-1.910896e-12
2.9138276e-09
1.8591321e-12
2.9138786e-09
-1.8152201e-12
2.9138292e-09
1.7697602e-12
2.913879e-09
-1.7497724e-12
2.9138321e-09
1.715738e-12
2.9138736e-09
-1.5927699e-12
2.9137934e-09
2.1593493e-12
-1.4835923e-12
2.8516031e-09
2.6807539e-08
3.1205834e-09
-2.9700521e-09
3.0536323e-09
2.3134445e-09
3.0589102e-09
-2.2771672e-10
3.0745366e-09
3.3829209e-10
3.0839149e-09
-6.457015e-11
3.0830478e-09
8.9517481e-11
3.0826336e-09
2.9100056e-11
3.0832476e-09
9.2907226e-12
3.0819596e-09
7.8347377e-12
3.0825151e-09
4.2638989e-12
3.0823158e-09
-4.9444921e-12
3.0823702e-09
6.4144806e-12
3.0824782e-09
-7.0749731e-12
3.0823506e-09
7.08514e-12
3.0824823e-09
-6.7480212e-12
3.0823431e-09
6.5543437e-12
3.082466e-09
-6.1083564e-12
3.0823435e-09
5.8413731e-12
3.0824554e-09
-5.4798717e-12
3.0823474e-09
5.2035395e-12
3.0824482e-09
-4.9050396e-12
3.082352e-09
4.6471204e-12
3.0824427e-09
-4.3924373e-12
3.0823565e-09
4.1608183e-12
3.0824381e-09
-3.9402674e-12
3.0823607e-09
3.7357606e-12
3.0824342e-09
-3.5439652e-12
3.0823643e-09
3.3650235e-12
3.0824308e-09
-3.1983928e-12
3.0823675e-09
3.0428445e-12
3.0824279e-09
-2.8986306e-12
3.0823703e-09
2.7643014e-12
3.0824253e-09
-2.6402583e-12
3.0823727e-09
2.5251782e-12
3.0824231e-09
-2.4194264e-12
3.0823748e-09
2.3218811e-12
3.0824213e-09
-2.2328395e-12
3.0823765e-09
2.1513683e-12
3.0824197e-09
-2.0776721e-12
3.0823779e-09
2.0111169e-12
3.0824185e-09
-1.9514666e-12
3.082379e-09
1.8985904e-12
3.0824175e-09
-1.8537071e-12
3.0823803e-09
1.8069125e-12
3.0824181e-09
-1.7875159e-12
3.0823831e-09
1.7507495e-12
3.0824136e-09
-1.6233418e-12
3.0823486e-09
2.2244022e-12
-1.4972241e-12
2.9769854e-09
2.7292178e-08
3.2433607e-09
-3.2364274e-09
3.2084915e-09
2.3483138e-09
3.2102412e-09
-2.2946646e-10
3.2343826e-09
3.1415074e-10
3.2438478e-09
-7.4035291e-11
3.2444755e-09
8.8889786e-11
3.2445758e-09
2.8999718e-11
3.2452024e-09
8.6641012e-12
3.2439425e-09
9.0946975e-12
3.2446218e-09
3.5845969e-12
3.244341e-09
-4.6636967e-12
3.2444594e-09
6.2960904e-12
3.2445152e-09
-7.1308402e-12
3.2444366e-09
7.1637133e-12
3.2445228e-09
-6.834141e-12
3.2444267e-09
6.6503463e-12
3.2445088e-09
-6.1903628e-12
3.2444248e-09
5.925287e-12
3.2445003e-09
-5.55536e-12
3.2444267e-09
5.2771979e-12
3.244495e-09
-4.9734275e-12
3.2444295e-09
4.7126329e-12
3.2444912e-09
-4.4541e-12
3.2444325e-09
4.2195097e-12
3.2444881e-09
-3.9958404e-12
3.2444353e-09
3.7885681e-12
3.2444854e-09
-3.594118e-12
3.2444377e-09
3.4126965e-12
3.2444831e-09
-3.243764e-12
3.2444399e-09
3.0860295e-12
3.2444811e-09
-2.9398139e-12
3.2444418e-09
2.803579e-12
3.2444794e-09
-2.6778035e-12
3.2444435e-09
2.5610799e-12
3.2444779e-09
-2.4538426e-12
3.2444449e-09
2.3548969e-12
3.2444766e-09
-2.2645979e-12
3.2444461e-09
2.1819502e-12
3.2444756e-09
-2.1072054e-12
3.244447e-09
2.039684e-12
3.2444747e-09
-1.9791564e-12
3.2444478e-09
1.9255226e-12
3.244474e-09
-1.8799606e-12
3.2444488e-09
1.8321561e-12
3.2444748e-09
-1.8134986e-12
3.2444513e-09
1.7741884e-12
3.2444713e-09
-1.6433373e-12
3.2444215e-09
2.2742678e-12
-1.5003046e-12
3.135971e-09
2.7617832e-08
3.3696147e-09
-3.4700711e-09
3.3585207e-09
2.3594077e-09
3.3568475e-09
-2.2779322e-10
3.3882761e-09
2.8272212e-10
3.397702e-09
-8.3461178e-11
3.3995326e-09
8.7059262e-11
3.4000804e-09
2.8451911e-11
3.4006532e-09
8.0912328e-12
3.3994599e-09
1.0288048e-11
3.4002489e-09
2.7955995e-12
3.3998871e-09
-4.3019454e-12
3.4000659e-09
6.1173746e-12
3.4000705e-09
-7.1355321e-12
3.4000393e-09
7.1949004e-12
3.4000813e-09
-6.8760556e-12
3.4000271e-09
6.7044582e-12
3.4000696e-09
-6.2327874e-12
3.4000231e-09
5.9717938e-12
3.4000633e-09
-5.5955741e-12
3.4000229e-09
5.3175144e-12
3.4000598e-09
-5.0103261e-12
3.4000241e-09
4.748362e-12
3.4000576e-09
-4.4875866e-12
3.4000256e-09
4.2515234e-12
3.4000559e-09
-4.0261357e-12
3.400027e-09
3.8174101e-12
3.4000544e-09
-3.6215262e-12
3.4000284e-09
3.4387699e-12
3.4000532e-09
-3.2685987e-12
3.4000296e-09
3.1096736e-12
3.4000521e-09
-2.9623786e-12
3.4000306e-09
2.8250992e-12
3.4000512e-09
-2.6983864e-12
3.4000315e-09
2.5807587e-12
3.4000504e-09
-2.4727152e-12
3.4000323e-09
2.3729971e-12
3.4000497e-09
-2.2820138e-12
3.4000329e-09
2.1987152e-12
3.4000491e-09
-2.1233975e-12
3.4000335e-09
2.0553402e-12
3.4000486e-09
-1.9943216e-12
3.4000339e-09
1.940275e-12
3.4000482e-09
-1.8943197e-12
3.4000346e-09
1.8458281e-12
3.4000491e-09
-1.8280301e-12
3.4000369e-09
1.7864092e-12
3.4000466e-09
-1.6530967e-12
3.4000119e-09
2.3090141e-12
-1.4935935e-12
3.262445e-09
2.7817012e-08
3.4822496e-09
-3.6898757e-09
3.5038758e-09
2.3377816e-09
3.5000664e-09
-2.2398379e-10
3.5363952e-09
2.4639324e-10
3.5454485e-09
-9.2514387e-11
3.5482191e-09
8.4288659e-11
3.549124e-09
2.7547002e-11
3.5496049e-09
7.6103597e-12
3.5485261e-09
1.136679e-11
3.5493927e-09
1.928985e-12
3.5489547e-09
-3.863879e-12
3.5491898e-09
5.8822711e-12
3.5491443e-09
-7.090064e-12
3.5491587e-09
7.1805352e-12
3.5491579e-09
-6.8752691e-12
3.5491443e-09
6.7180445e-12
3.5491485e-09
-6.2369773e-12
3.5491381e-09
5.9821006e-12
3.5491443e-09
-5.60168e-12
3.5491362e-09
5.3255599e-12
3.5491426e-09
-5.0167525e-12
3.5491357e-09
4.7552558e-12
3.5491419e-09
-4.4937928e-12
3.5491358e-09
4.2577017e-12
3.5491416e-09
-4.0319493e-12
3.5491359e-09
3.8230382e-12
3.5491413e-09
-3.6269015e-12
3.5491362e-09
3.4439188e-12
3.5491411e-09
-3.2735377e-12
3.5491364e-09
3.1143866e-12
3.5491409e-09
-2.966905e-12
3.5491366e-09
2.8294157e-12
3.5491408e-09
-2.7025354e-12
3.5491368e-09
2.58472e-12
3.5491406e-09
-2.4765283e-12
3.549137e-09
2.3766463e-12
3.5491405e-09
-2.285534e-12
3.5491371e-09
2.2020939e-12
3.5491404e-09
-2.126664e-12
3.5491372e-09
2.0584878e-12
3.5491402e-09
-1.9973529e-12
3.5491373e-09
1.943227e-12
3.5491401e-09
-1.8971559e-12
3.5491377e-09
1.8482961e-12
3.5491411e-09
-1.8314518e-12
3.5491397e-09
1.7877937e-12
3.5491396e-09
-1.6529804e-12
3.5491198e-09
2.3288012e-12
-1.4778479e-12
3.4156393e-09
2.7862998e-08
3.5987718e-09
-3.8730083e-09
3.6441006e-09
2.2924529e-09
3.6401918e-09
-2.2007502e-10
3.6787001e-09
2.0788496e-10
3.6870592e-09
-1.0087348e-10
3.6905281e-09
8.0819744e-11
3.6916865e-09
2.6388627e-11
3.6920666e-09
7.2302796e-12
3.6911487e-09
1.2284704e-11
3.6920475e-09
1.030159e-12
3.6915429e-09
-3.3592893e-12
3.691831e-09
5.5941409e-12
3.6917365e-09
-6.9955296e-12
3.6917945e-09
7.1225142e-12
3.6917526e-09
-6.8333735e-12
3.6917781e-09
6.6925475e-12
3.6917455e-09
-6.204358e-12
3.6917701e-09
5.9574879e-12
3.6917433e-09
-5.5749144e-12
3.6917664e-09
5.3024731e-12
3.6917434e-09
-4.9937892e-12
3.6917644e-09
4.7343262e-12
3.6917442e-09
-4.4736758e-12
3.691763e-09
4.2389462e-12
3.6917452e-09
-4.0141337e-12
3.691762e-09
3.8062597e-12
3.6917461e-09
-3.6110086e-12
3.6917611e-09
3.4288692e-12
3.6917468e-09
-3.2592705e-12
3.6917604e-09
3.1008246e-12
3.6917475e-09
-2.9540177e-12
3.6917598e-09
2.8171244e-12
3.6917481e-09
-2.6908196e-12
3.6917593e-09
2.5735085e-12
3.6917486e-09
-2.4658033e-12
3.6917589e-09
2.3663453e-12
3.691749e-09
-2.2756395e-12
3.6917585e-09
2.1925499e-12
3.6917493e-09
-2.1174522e-12
3.6917582e-09
2.0495596e-12
3.6917496e-09
-1.9886704e-12
3.691758e-09
1.9347866e-12
3.6917497e-09
-1.8888688e-12
3.6917581e-09
1.8399533e-12
3.6917507e-09
-1.8241326e-12
3.6917598e-09
1.7787467e-12
3.6917502e-09
-1.643366e-12
3.6917451e-09
2.3338717e-12
-1.4538121e-12
3.5455319e-09
2.7779091e-08
3.7035778e-09
-4.0310541e-09
3.7790152e-09
2.2170155e-09
3.7763602e-09
-2.1742004e-10
3.8150072e-09
1.6923797e-10
3.8224687e-09
-1.0833498e-10
3.8264358e-09
7.6852672e-11
3.827759e-09
2.5065428e-11
3.8280481e-09
6.9411279e-12
3.8273238e-09
1.3009095e-11
3.8282071e-09
1.4682811e-13
3.8276502e-09
-2.8024455e-12
3.8279894e-09
5.2550233e-12
3.827847e-09
-6.8531608e-12
3.8279468e-09
7.022713e-12
3.8278655e-09
-6.7520564e-12
3.8279285e-09
6.6294543e-12
3.8278606e-09
-6.1364285e-12
3.8279188e-09
5.8992929e-12
3.8278605e-09
-5.5165756e-12
3.8279135e-09
5.2494496e-12
3.8278623e-09
-4.942576e-12
3.82791e-09
4.6866389e-12
3.8278645e-09
-4.428246e-12
3.8279073e-09
4.1962093e-12
3.8278667e-09
-3.9735917e-12
3.8279051e-09
3.7679289e-12
3.8278687e-09
-3.574658e-12
3.8279032e-09
3.3943906e-12
3.8278704e-09
-3.2265284e-12
3.8279016e-09
3.0696839e-12
3.8278719e-09
-2.92438e-12
3.8279002e-09
2.7888584e-12
3.8278732e-09
-2.6638433e-12
3.827899e-09
2.5477023e-12
3.8278743e-09
-2.441094e-12
3.827898e-09
2.3426253e-12
3.8278752e-09
-2.2528411e-12
3.8278972e-09
2.1705751e-12
3.827876e-09
-2.0962369e-12
3.8278966e-09
2.0290151e-12
3.8278766e-09
-1.96872e-12
3.827896e-09
1.9153867e-12
3.827877e-09
-1.8698822e-12
3.8278958e-09
1.8212155e-12
3.8278781e-09
-1.8064657e-12
3.8278971e-09
1.7596921e-12
3.8278784e-09
-1.624646e-12
3.8278877e-09
2.3245432e-12
-1.4222084e-12
3.6883782e-09
2.7552338e-08
3.8138719e-09
-4.1565479e-09
3.9091203e-09
2.1217672e-09
3.9079186e-09
-2.162183e-10
3.9451868e-09
1.3196977e-10
3.9516235e-09
-1.1477165e-10
3.955924e-09
7.2552133e-11
3.9573432e-09
2.3646238e-11
3.9575577e-09
6.7266059e-12
3.9570432e-09
1.3523664e-11
3.9578676e-09
-6.7763223e-13
3.9572753e-09
-2.2100897e-12
3.9576646e-09
4.8657233e-12
3.9574757e-09
-6.6642963e-12
3.9576154e-09
6.8829927e-12
3.9574964e-09
-6.6330754e-12
3.9575956e-09
6.5302894e-12
3.9574939e-09
-6.0347493e-12
3.9575843e-09
5.8089004e-12
3.9574957e-09
-5.4280151e-12
3.9575775e-09
5.1677335e-12
3.9574992e-09
-4.8643017e-12
3.9575725e-09
4.613307e-12
3.9575028e-09
-4.3585602e-12
3.9575685e-09
4.1304881e-12
3.9575062e-09
-3.9112684e-12
3.9575652e-09
3.7089415e-12
3.9575092e-09
-3.5186998e-12
3.9575623e-09
3.3412904e-12
3.9575119e-09
-3.1760789e-12
3.9575599e-09
3.0216951e-12
3.9575142e-09
-2.8786878e-12
3.9575578e-09
2.7452815e-12
3.9575162e-09
-2.6222406e-12
3.957556e-09
2.5079081e-12
3.9575179e-09
-2.4029813e-12
3.9575544e-09
2.3060441e-12
3.9575193e-09
-2.2176745e-12