/*--------------------------------*- C++ -*----------------------------------*\
| =========                 |                                                 |
| \\      /  F ield         | OpenFOAM: The Open Source CFD Toolbox           |
|  \\    /   O peration     | Version:  2312                                  |
|   \\  /    A nd           | Website:  www.openfoam.com                      |
|    \\/     M anipulation  |                                                 |
\*---------------------------------------------------------------------------*/
FoamFile
{
    version     2.0;
    format      ascii;
    arch        "LSB;label=32;scalar=64";
    class       volSymmTensorField;
    location    "9";
    object      sigma_0;
}
// * * * * * * * * * * * * * * * * * * * * * * * * * * * * * * * * * * * * * //

dimensions      [0 2 -2 0 0 0 0];

internalField   nonuniform List<symmTensor> 
4000
(
(-1.4183298 -0.61983136 0 -0.2305208 0 0)
(-2.8603056 -0.30961367 0 -0.00084018842 0 0)
(-1.9744565 -0.25694143 0 -0.00027463884 0 0)
(-2.1390719 -0.26715184 0 -3.2713242e-05 0 0)
(-2.0106947 -0.25868841 0 4.4536684e-05 0 0)
(-2.1015869 -0.26489407 0 -5.3959895e-05 0 0)
(-2.0163597 -0.25904865 0 4.9640582e-05 0 0)
(-2.0938263 -0.26438131 0 -4.7601331e-05 0 0)
(-2.0215427 -0.25940371 0 4.4838565e-05 0 0)
(-2.0891413 -0.26406364 0 -4.23379e-05 0 0)
(-2.0256288 -0.25968661 0 3.9802594e-05 0 0)
(-2.0852058 -0.263795 0 -3.75229e-05 0 0)
(-2.029198 -0.25993389 0 3.5287574e-05 0 0)
(-2.0817662 -0.26355981 0 -3.3252329e-05 0 0)
(-2.0323715 -0.26015352 0 3.1290222e-05 0 0)
(-2.0787305 -0.26335209 0 -2.9487535e-05 0 0)
(-2.0351926 -0.26034854 0 2.7762691e-05 0 0)
(-2.0760425 -0.2631681 0 -2.6171423e-05 0 0)
(-2.0376991 -0.26052164 0 2.4654748e-05 0 0)
(-2.0736587 -0.26300489 0 -2.3252997e-05 0 0)
(-2.039927 -0.26067534 0 2.1920412e-05 0 0)
(-2.0715417 -0.26285996 0 -2.0687874e-05 0 0)
(-2.041909 -0.26081193 0 1.951872e-05 0 0)
(-2.0696592 -0.2627311 0 -1.8437192e-05 0 0)
(-2.0436746 -0.26093346 0 1.7413479e-05 0 0)
(-2.0679823 -0.26261637 0 -1.6466841e-05 0 0)
(-2.0452502 -0.26104178 0 1.5572843e-05 0 0)
(-2.0664853 -0.26251402 0 -1.474691e-05 0 0)
(-2.0466596 -0.26113851 0 1.3968895e-05 0 0)
(-2.0651454 -0.2624225 0 -1.3251242e-05 0 0)
(-2.0479239 -0.26122512 0 1.2577259e-05 0 0)
(-2.063942 -0.26234043 0 -1.1957064e-05 0 0)
(-2.0490622 -0.26130294 0 1.1376763e-05 0 0)
(-2.0628568 -0.26226656 0 -1.0844662e-05 0 0)
(-2.0500918 -0.26137313 0 1.0349143e-05 0 0)
(-2.0618732 -0.26219976 0 -9.8971025e-06 0 0)
(-2.0510282 -0.26143678 0 9.4787886e-06 0 0)
(-2.0609761 -0.26213902 0 -9.1000057e-06 0 0)
(-2.0518855 -0.26149484 0 8.7525417e-06 0 0)
(-2.0601519 -0.26208341 0 -8.4413674e-06 0 0)
(-2.0526768 -0.26154819 0 8.1595635e-06 0 0)
(-2.059388 -0.2620321 0 -7.9114774e-06 0 0)
(-2.053414 -0.26159764 0 7.6912885e-06 0 0)
(-2.0586728 -0.26198431 0 -7.5031847e-06 0 0)
(-2.054108 -0.26164393 0 7.3414184e-06 0 0)
(-2.0579942 -0.26193924 0 -7.212011e-06 0 0)
(-2.0547684 -0.26168765 0 7.1157383e-06 0 0)
(-2.0573559 -0.26189694 0 -6.9996482e-06 0 0)
(-2.0555012 -0.26173494 0 7.1693243e-06 0 0)
(-2.0571567 -0.26188363 0 -6.9765909e-06 0 0)
(-1.2589347 -0.56994715 0 -0.21652118 0 0)
(-2.5230048 -0.29421006 0 -0.0029182691 0 0)
(-1.8938982 -0.25290915 0 -0.00084613147 0 0)
(-1.9752548 -0.25673814 0 -3.4370541e-05 0 0)
(-1.8685792 -0.24928032 0 3.0154488e-05 0 0)
(-1.9443294 -0.25488711 0 -5.9989244e-05 0 0)
(-1.8712749 -0.24945421 0 5.2880573e-05 0 0)
(-1.9376559 -0.25441967 0 -5.1917212e-05 0 0)
(-1.875621 -0.24977631 0 4.9141699e-05 0 0)
(-1.9336821 -0.25412922 0 -4.6523013e-05 0 0)
(-1.8791241 -0.25004003 0 4.3713528e-05 0 0)
(-1.9303031 -0.2538789 0 -4.1265384e-05 0 0)
(-1.8821847 -0.25027085 0 3.8780622e-05 0 0)
(-1.9273417 -0.25365896 0 -3.6561315e-05 0 0)
(-1.8849073 -0.250476 0 3.4395599e-05 0 0)
(-1.9247278 -0.25346467 0 -3.2418223e-05 0 0)
(-1.8873283 -0.2506582 0 3.0520602e-05 0 0)
(-1.9224137 -0.25329259 0 -2.87717e-05 0 0)
(-1.8894797 -0.25081994 0 2.7105019e-05 0 0)
(-1.9203615 -0.25313995 0 -2.5563531e-05 0 0)
(-1.8913923 -0.25096355 0 2.4099714e-05 0 0)
(-1.9185392 -0.2530044 0 -2.2744173e-05 0 0)
(-1.893094 -0.25109119 0 2.1460069e-05 0 0)
(-1.9169186 -0.25288389 0 -2.0270674e-05 0 0)
(-1.8946103 -0.25120476 0 1.9146405e-05 0 0)
(-1.9154748 -0.25277658 0 -1.8105473e-05 0 0)
(-1.8959637 -0.25130598 0 1.7123742e-05 0 0)
(-1.9141859 -0.25268085 0 -1.6215674e-05 0 0)
(-1.8971746 -0.2513964 0 1.5361407e-05 0 0)
(-1.9130319 -0.25259524 0 -1.457254e-05 0 0)
(-1.8982613 -0.25147736 0 1.3832629e-05 0 0)
(-1.9119952 -0.25251845 0 -1.315107e-05 0 0)
(-1.8992401 -0.25155012 0 1.2514179e-05 0 0)
(-1.9110601 -0.25244932 0 -1.1929653e-05 0 0)
(-1.9001259 -0.25161577 0 1.1386054e-05 0 0)
(-1.910212 -0.2523868 0 -1.0889776e-05 0 0)
(-1.900932 -0.25167532 0 1.0431219e-05 0 0)
(-1.9094382 -0.25232993 0 -1.0015791e-05 0 0)
(-1.9016706 -0.25172965 0 9.635417e-06 0 0)
(-1.9087268 -0.25227785 0 -9.2947797e-06 0 0)
(-1.902353 -0.25177961 0 8.9871135e-06 0 0)
(-1.9080669 -0.25222977 0 -8.7165817e-06 0 0)
(-1.9029895 -0.25182594 0 8.4776069e-06 0 0)
(-1.9074484 -0.25218496 0 -8.2746759e-06 0 0)
(-1.9035896 -0.25186934 0 8.1008234e-06 0 0)
(-1.9068607 -0.2521427 0 -7.9679909e-06 0 0)
(-1.9041604 -0.25191024 0 7.8746516e-06 0 0)
(-1.9062984 -0.25210222 0 -7.7104744e-06 0 0)
(-1.9047655 -0.2519512 0 8.2443319e-06 0 0)
(-1.9060407 -0.25208352 0 -7.576169e-06 0 0)
(-1.1833783 -0.54085431 0 -0.20361005 0 0)
(-2.2882873 -0.2792719 0 -0.0034154779 0 0)
(-1.8118402 -0.24842484 0 -0.0012695083 0 0)
(-1.8732346 -0.25010555 0 -5.8688869e-05 0 0)
(-1.7758446 -0.2429424 0 1.4112077e-05 0 0)
(-1.842907 -0.248207 0 -5.9515081e-05 0 0)
(-1.7770969 -0.24303094 0 5.0184577e-05 0 0)
(-1.8366679 -0.24775677 0 -5.0093358e-05 0 0)
(-1.7809261 -0.24333385 0 4.7653305e-05 0 0)
(-1.8331051 -0.24748306 0 -4.5156929e-05 0 0)
(-1.7840764 -0.24358562 0 4.2409524e-05 0 0)
(-1.8300726 -0.24724505 0 -4.0080769e-05 0 0)
(-1.7868276 -0.24380581 0 3.7637735e-05 0 0)
(-1.8274108 -0.24703544 0 -3.5503989e-05 0 0)
(-1.7892748 -0.24400149 0 3.3388025e-05 0 0)
(-1.8250612 -0.24685024 0 -3.1476663e-05 0 0)
(-1.7914512 -0.2441753 0 2.9628467e-05 0 0)
(-1.8229812 -0.24668621 0 -2.7934482e-05 0 0)
(-1.7933856 -0.2443296 0 2.6313225e-05 0 0)
(-1.8211369 -0.24654071 0 -2.4818981e-05 0 0)
(-1.7951054 -0.24446661 0 2.3395797e-05 0 0)
(-1.8194992 -0.24641151 0 -2.2081368e-05 0 0)
(-1.7966357 -0.24458839 0 2.0833238e-05 0 0)
(-1.818043 -0.24629662 0 -1.9679723e-05 0 0)
(-1.7979994 -0.24469676 0 1.8587134e-05 0 0)
(-1.8167456 -0.24619432 0 -1.7577499e-05 0 0)
(-1.7992167 -0.24479336 0 1.6623558e-05 0 0)
(-1.8155873 -0.24610304 0 -1.5742736e-05 0 0)
(-1.800306 -0.24487965 0 1.4912748e-05 0 0)
(-1.8145502 -0.2460214 0 -1.414753e-05 0 0)
(-1.8012837 -0.24495694 0 1.3428735e-05 0 0)
(-1.8136185 -0.24594816 0 -1.2767628e-05 0 0)
(-1.8021645 -0.24502641 0 1.2149009e-05 0 0)
(-1.8127779 -0.2458822 0 -1.1582091e-05 0 0)
(-1.8029616 -0.24508911 0 1.1054212e-05 0 0)
(-1.8120154 -0.24582252 0 -1.0573024e-05 0 0)
(-1.8036872 -0.24514599 0 1.0127917e-05 0 0)
(-1.8113195 -0.24576822 0 -9.7253741e-06 0 0)
(-1.8043523 -0.24519792 0 9.3564753e-06 0 0)
(-1.8106795 -0.24571847 0 -9.0268558e-06 0 0)
(-1.8049668 -0.24524569 0 8.7290472e-06 0 0)
(-1.8100855 -0.24567251 0 -8.4680929e-06 0 0)
(-1.8055403 -0.24529002 0 8.2378999e-06 0 0)
(-1.8095286 -0.24562966 0 -8.0439914e-06 0 0)
(-1.8060812 -0.24533157 0 7.8781379e-06 0 0)
(-1.8089991 -0.24558921 0 -7.7577359e-06 0 0)
(-1.8065959 -0.24537073 0 7.6740472e-06 0 0)
(-1.8084894 -0.24555018 0 -7.5060388e-06 0 0)
(-1.8071338 -0.24540857 0 8.2499005e-06 0 0)
(-1.8082161 -0.24553057 0 -7.7639552e-06 0 0)
(-1.1291505 -0.51080531 0 -0.1863623 0 0)
(-2.1016508 -0.26790613 0 -0.0040216076 0 0)
(-1.7277971 -0.24382012 0 -0.0017322531 0 0)
(-1.7745203 -0.24350865 0 -8.5927722e-05 0 0)
(-1.6851036 -0.23662023 0 -1.095818e-05 0 0)
(-1.7448413 -0.24153679 0 -5.3973746e-05 0 0)
(-1.6850015 -0.23660968 0 4.2649388e-05 0 0)
(-1.7388557 -0.24109773 0 -4.3631388e-05 0 0)
(-1.6883366 -0.23689153 0 4.1910226e-05 0 0)
(-1.7356135 -0.24083976 0 -3.9739887e-05 0 0)
(-1.6911835 -0.23713131 0 3.7312277e-05 0 0)
(-1.7328659 -0.24061371 0 -3.5316592e-05 0 0)
(-1.6936741 -0.23734089 0 3.313072e-05 0 0)
(-1.7304509 -0.24041416 0 -3.1274284e-05 0 0)
(-1.695889 -0.23752711 0 2.9397668e-05 0 0)
(-1.7283188 -0.24023779 0 -2.7721489e-05 0 0)
(-1.697859 -0.23769253 0 2.6089758e-05 0 0)
(-1.7264318 -0.24008159 0 -2.4599927e-05 0 0)
(-1.69961 -0.23783939 0 2.3170939e-05 0 0)
(-1.7247587 -0.23994303 0 -2.1855535e-05 0 0)
(-1.7011669 -0.23796981 0 2.060186e-05 0 0)
(-1.7232734 -0.23981999 0 -1.9444411e-05 0 0)
(-1.7025524 -0.23808573 0 1.8345177e-05 0 0)
(-1.7219527 -0.23971057 0 -1.7329342e-05 0 0)
(-1.7037871 -0.2381889 0 1.6367182e-05 0 0)
(-1.7207763 -0.23961313 0 -1.547804e-05 0 0)
(-1.7048893 -0.23828087 0 1.4638017e-05 0 0)
(-1.7197261 -0.23952618 0 -1.3862322e-05 0 0)
(-1.7058756 -0.23836304 0 1.3131477e-05 0 0)
(-1.7187859 -0.2394484 0 -1.2457607e-05 0 0)
(-1.7067608 -0.23843667 0 1.1824702e-05 0 0)
(-1.7179412 -0.2393786 0 -1.1242548e-05 0 0)
(-1.7075584 -0.23850285 0 1.0697892e-05 0 0)
(-1.7171792 -0.23931572 0 -1.0198739e-05 0 0)
(-1.7082802 -0.23856262 0 9.7340473e-06 0 0)
(-1.7164882 -0.23925881 0 -9.3104806e-06 0 0)
(-1.7089372 -0.23861686 0 8.9187827e-06 0 0)
(-1.7158575 -0.239207 0 -8.5646269e-06 0 0)
(-1.7095394 -0.2386664 0 8.2402234e-06 0 0)
(-1.7152776 -0.23915951 0 -7.9505512e-06 0 0)
(-1.7100959 -0.238712 0 7.6890964e-06 0 0)
(-1.7147395 -0.23911561 0 -7.4603595e-06 0 0)
(-1.7106151 -0.23875435 0 7.259115e-06 0 0)
(-1.7142349 -0.23907465 0 -7.0905789e-06 0 0)
(-1.711105 -0.23879408 0 6.9462906e-06 0 0)
(-1.7137552 -0.23903596 0 -6.8477522e-06 0 0)
(-1.711571 -0.23883155 0 6.7793246e-06 0 0)
(-1.7132912 -0.23899832 0 -6.6014511e-06 0 0)
(-1.7120499 -0.23886646 0 7.5671359e-06 0 0)
(-1.7130029 -0.23897749 0 -7.157669e-06 0 0)
(-1.0921011 -0.48850157 0 -0.17355432 0 0)
(-1.9179322 -0.25642802 0 -0.0045269246 0 0)
(-1.6365365 -0.23845494 0 -0.0021216765 0 0)
(-1.6779085 -0.23692645 0 -0.00012703502 0 0)
(-1.5960611 -0.23027608 0 -3.765202e-05 0 0)
(-1.6497634 -0.23487964 0 -4.8884128e-05 0 0)
(-1.5950972 -0.2301797 0 3.5328436e-05 0 0)
(-1.643985 -0.23444733 0 -3.7189045e-05 0 0)
(-1.5979808 -0.23044131 0 3.6248668e-05 0 0)
(-1.6410021 -0.23420314 0 -3.4332758e-05 0 0)
(-1.6005588 -0.23066995 0 3.2246234e-05 0 0)
(-1.6385002 -0.2339882 0 -3.0567045e-05 0 0)
(-1.6028238 -0.23086976 0 2.8643429e-05 0 0)
(-1.6363002 -0.23379803 0 -2.7059366e-05 0 0)
(-1.6048379 -0.23104724 0 2.5423519e-05 0 0)
(-1.6343577 -0.23362991 0 -2.3979934e-05 0 0)
(-1.6066293 -0.23120489 0 2.2565117e-05 0 0)
(-1.6326387 -0.23348101 0 -2.1277642e-05 0 0)
(-1.6082217 -0.23134487 0 2.0041007e-05 0 0)
(-1.6311149 -0.23334894 0 -1.890306e-05 0 0)
(-1.6096377 -0.23146917 0 1.7818798e-05 0 0)
(-1.6297622 -0.23323165 0 -1.6817224e-05 0 0)
(-1.6108977 -0.23157967 0 1.5866687e-05 0 0)
(-1.6285597 -0.23312735 0 -1.4987625e-05 0 0)
(-1.6120206 -0.23167801 0 1.4155633e-05 0 0)
(-1.6274887 -0.23303446 0 -1.3386229e-05 0 0)
(-1.6130231 -0.23176569 0 1.2659829e-05 0 0)
(-1.6265327 -0.23295156 0 -1.1988622e-05 0 0)
(-1.6139201 -0.23184404 0 1.1356604e-05 0 0)
(-1.625677 -0.23287738 0 -1.0773528e-05 0 0)
(-1.6147251 -0.23191425 0 1.0226185e-05 0 0)
(-1.6249084 -0.23281082 0 -9.722489e-06 0 0)
(-1.6154504 -0.23197738 0 9.2514557e-06 0 0)
(-1.6242152 -0.23275083 0 -8.8196031e-06 0 0)
(-1.6161067 -0.23203439 0 8.4177389e-06 0 0)
(-1.6235866 -0.23269653 0 -8.051329e-06 0 0)
(-1.616704 -0.23208616 0 7.7126395e-06 0 0)
(-1.623013 -0.23264708 0 -7.4063624e-06 0 0)
(-1.6172514 -0.23213346 0 7.1259733e-06 0 0)
(-1.6224857 -0.23260173 0 -6.8756287e-06 0 0)
(-1.6177571 -0.23217701 0 6.6498844e-06 0 0)
(-1.6219966 -0.23255979 0 -6.4525102e-06 0 0)
(-1.6182289 -0.23221748 0 6.2792426e-06 0 0)
(-1.6215382 -0.23252063 0 -6.1346675e-06 0 0)
(-1.6186739 -0.23225548 0 6.0103597e-06 0 0)
(-1.6211025 -0.23248363 0 -5.9308433e-06 0 0)
(-1.619097 -0.23229135 0 5.8725619e-06 0 0)
(-1.6206797 -0.2324474 0 -5.6863735e-06 0 0)
(-1.6195254 -0.23232381 0 6.8101585e-06 0 0)
(-1.6203855 -0.23242574 0 -6.4819871e-06 0 0)
(-1.0467881 -0.45959641 0 -0.15692493 0 0)
(-1.7454871 -0.2450568 0 -0.0047879882 0 0)
(-1.543823 -0.23260392 0 -0.0024149241 0 0)
(-1.5828344 -0.23032122 0 -0.00018503119 0 0)
(-1.508785 -0.2239135 0 -6.6496834e-05 0 0)
(-1.5574443 -0.22822952 0 -4.5665078e-05 0 0)
(-1.5074859 -0.22374433 0 2.9062574e-05 0 0)
(-1.5519361 -0.2278031 0 -3.1717439e-05 0 0)
(-1.5099738 -0.22398633 0 3.1536364e-05 0 0)
(-1.5491767 -0.22757129 0 -2.9762738e-05 0 0)
(-1.5123056 -0.22420428 0 2.799014e-05 0 0)
(-1.5468927 -0.22736682 0 -2.6565978e-05 0 0)
(-1.5143679 -0.22439482 0 2.4866404e-05 0 0)
(-1.5448855 -0.22718556 0 -2.3510074e-05 0 0)
(-1.5162022 -0.224564 0 2.2077943e-05 0 0)
(-1.5431131 -0.22702527 0 -2.0829249e-05 0 0)
(-1.5178336 -0.22471428 0 1.9598008e-05 0 0)
(-1.5415447 -0.22688331 0 -1.8480018e-05 0 0)
(-1.5192839 -0.2248477 0 1.7406189e-05 0 0)
(-1.5401548 -0.22675739 0 -1.6416883e-05 0 0)
(-1.5205735 -0.2249662 0 1.5475971e-05 0 0)
(-1.5389211 -0.22664557 0 -1.4604996e-05 0 0)
(-1.5217212 -0.22507153 0 1.3780228e-05 0 0)
(-1.5378245 -0.22654613 0 -1.3015795e-05 0 0)
(-1.5227439 -0.22516528 0 1.2293855e-05 0 0)
(-1.536848 -0.22645756 0 -1.1624829e-05 0 0)
(-1.523657 -0.22524888 0 1.0994453e-05 0 0)
(-1.5359765 -0.2263785 0 -1.0410853e-05 0 0)
(-1.524474 -0.22532359 0 9.8623238e-06 0 0)
(-1.5351965 -0.22630777 0 -9.35538e-06 0 0)
(-1.5252072 -0.22539054 0 8.8802913e-06 0 0)
(-1.534496 -0.22624428 0 -8.4423798e-06 0 0)
(-1.5258677 -0.22545075 0 8.0334912e-06 0 0)
(-1.5338643 -0.22618706 0 -7.658053e-06 0 0)
(-1.5264653 -0.22550515 0 7.3091892e-06 0 0)
(-1.5332916 -0.22613524 0 -6.990661e-06 0 0)
(-1.5270092 -0.22555454 0 6.6966456e-06 0 0)
(-1.5327692 -0.22608804 0 -6.4304243e-06 0 0)
(-1.5275075 -0.2255997 0 6.187063e-06 0 0)
(-1.5322891 -0.22604474 0 -5.9695276e-06 0 0)
(-1.5279678 -0.22564129 0 5.7737107e-06 0 0)
(-1.5318439 -0.22600468 0 -5.6023318e-06 0 0)
(-1.528397 -0.22567995 0 5.452298e-06 0 0)
(-1.5314267 -0.22596726 0 -5.327225e-06 0 0)
(-1.5288017 -0.22571627 0 5.2190659e-06 0 0)
(-1.5310305 -0.2259319 0 -5.154376e-06 0 0)
(-1.5291865 -0.22575059 0 5.1020298e-06 0 0)
(-1.5306451 -0.22589708 0 -4.9075929e-06 0 0)
(-1.5295704 -0.2257809 0 6.1407616e-06 0 0)
(-1.5303506 -0.22587475 0 -5.8716793e-06 0 0)
(-1.0168101 -0.43951796 0 -0.14556877 0 0)
(-1.5850691 -0.23436962 0 -0.0050950096 0 0)
(-1.4508783 -0.22625756 0 -0.0025921514 0 0)
(-1.4891165 -0.22369448 0 -0.00026818438 0 0)
(-1.4232242 -0.2175357 0 -0.00010079533 0 0)
(-1.4677654 -0.22158529 0 -4.5021656e-05 0 0)
(-1.4221922 -0.21730608 0 2.3250718e-05 0 0)
(-1.4626506 -0.22116355 0 -2.7065139e-05 0 0)
(-1.4243581 -0.21752836 0 2.7518074e-05 0 0)
(-1.460094 -0.22094268 0 -2.5822841e-05 0 0)
(-1.4264637 -0.21773573 0 2.4342517e-05 0 0)
(-1.4580054 -0.22074817 0 -2.3126182e-05 0 0)
(-1.4283412 -0.21791732 0 2.1622295e-05 0 0)
(-1.456173 -0.2205755 0 -2.0460709e-05 0 0)
(-1.4300125 -0.2180785 0 1.9203666e-05 0 0)
(-1.4545551 -0.22042277 0 -1.8122513e-05 0 0)
(-1.4314989 -0.21822166 0 1.7048926e-05 0 0)
(-1.4531237 -0.22028749 0 -1.6076603e-05 0 0)
(-1.4328203 -0.21834877 0 1.5142646e-05 0 0)
(-1.4518553 -0.22016751 0 -1.4281051e-05 0 0)
(-1.4339954 -0.21846165 0 1.3463314e-05 0 0)
(-1.4507296 -0.22006096 0 -1.270453e-05 0 0)
(-1.4350412 -0.218562 0 1.1987831e-05 0 0)
(-1.4497292 -0.21996621 0 -1.1321865e-05 0 0)
(-1.4359732 -0.21865133 0 1.0694484e-05 0 0)
(-1.4488385 -0.21988181 0 -1.0111676e-05 0 0)
(-1.4368052 -0.21873098 0 9.5638015e-06 0 0)
(-1.4480436 -0.21980647 0 -9.0554471e-06 0 0)
(-1.4375497 -0.21880217 0 8.5786441e-06 0 0)
(-1.4473323 -0.21973906 0 -8.1370842e-06 0 0)
(-1.4382179 -0.21886598 0 7.7240636e-06 0 0)
(-1.4466935 -0.21967853 0 -7.3426426e-06 0 0)
(-1.4388197 -0.21892338 0 6.9871294e-06 0 0)
(-1.4461176 -0.21962398 0 -6.660125e-06 0 0)
(-1.4393642 -0.21897524 0 6.3567699e-06 0 0)
(-1.4455956 -0.21957457 0 -6.0793338e-06 0 0)
(-1.4398597 -0.21902235 0 5.823657e-06 0 0)
(-1.4451195 -0.21952955 0 -5.5917852e-06 0 0)
(-1.4403136 -0.21906542 0 5.3801656e-06 0 0)
(-1.444682 -0.21948823 0 -5.1907193e-06 0 0)
(-1.4407328 -0.21910511 0 5.0204953e-06 0 0)
(-1.4442765 -0.21945 0 -4.8712874e-06 0 0)
(-1.4411236 -0.21914202 0 4.7410086e-06 0 0)
(-1.4438966 -0.21941427 0 -4.6323746e-06 0 0)
(-1.441492 -0.21917672 0 4.537751e-06 0 0)
(-1.4435361 -0.21938049 0 -4.4851654e-06 0 0)
(-1.4418421 -0.21920952 0 4.4364325e-06 0 0)
(-1.4431847 -0.2193471 0 -4.2358045e-06 0 0)
(-1.4421865 -0.21923793 0 5.5373437e-06 0 0)
(-1.4428942 -0.21932427 0 -5.3179982e-06 0 0)
(-0.98408155 -0.41682404 0 -0.13295903 0 0)
(-1.4360824 -0.22397854 0 -0.0052832796 0 0)
(-1.3603325 -0.21958198 0 -0.0026530865 0 0)
(-1.3968334 -0.21703261 0 -0.00036852875 0 0)
(-1.3392788 -0.21111761 0 -0.00013524414 0 0)
(-1.3805545 -0.21493304 0 -4.5041512e-05 0 0)
(-1.3391665 -0.2108605 0 1.7962286e-05 0 0)
(-1.3760691 -0.21452666 0 -2.2927746e-05 0 0)
(-1.3411437 -0.21106738 0 2.3942817e-05 0 0)
(-1.3737281 -0.21431686 0 -2.2292354e-05 0 0)
(-1.3430521 -0.21126464 0 2.1086326e-05 0 0)
(-1.3718192 -0.21413192 0 -2.0047887e-05 0 0)
(-1.3447618 -0.21143756 0 1.8721496e-05 0 0)
(-1.3701462 -0.21396756 0 -1.7733451e-05 0 0)
(-1.3462846 -0.21159101 0 1.6632889e-05 0 0)
(-1.3686692 -0.21382213 0 -1.5701922e-05 0 0)
(-1.3476391 -0.21172728 0 1.4769027e-05 0 0)
(-1.3673627 -0.21369334 0 -1.3927292e-05 0 0)
(-1.3488432 -0.21184827 0 1.3118198e-05 0 0)
(-1.3662051 -0.2135791 0 -1.2371046e-05 0 0)
(-1.3499141 -0.21195573 0 1.1663294e-05 0 0)
(-1.3651779 -0.21347765 0 -1.1005018e-05 0 0)
(-1.3508672 -0.21205126 0 1.0384829e-05 0 0)
(-1.3642652 -0.21338743 0 -9.8070532e-06 0 0)
(-1.3517166 -0.2121363 0 9.2641261e-06 0 0)
(-1.3634525 -0.21330707 0 -8.7585228e-06 0 0)
(-1.3524749 -0.21221214 0 8.2843394e-06 0 0)
(-1.3627274 -0.21323533 0 -7.8433513e-06 0 0)
(-1.3531534 -0.21227993 0 7.4306183e-06 0 0)
(-1.3620787 -0.21317112 0 -7.0475862e-06 0 0)
(-1.3537624 -0.2123407 0 6.6900094e-06 0 0)
(-1.3614962 -0.21311348 0 -6.3591466e-06 0 0)
(-1.3543108 -0.21239537 0 6.0513099e-06 0 0)
(-1.360971 -0.21306151 0 -5.7676438e-06 0 0)
(-1.3548071 -0.21244477 0 5.5049316e-06 0 0)
(-1.3604951 -0.21301443 0 -5.2642526e-06 0 0)
(-1.3552586 -0.21248966 0 5.0428024e-06 0 0)
(-1.3600611 -0.21297152 0 -4.8416384e-06 0 0)
(-1.3556721 -0.21253072 0 4.6583326e-06 0 0)
(-1.3596624 -0.21293213 0 -4.4939682e-06 0 0)
(-1.3560539 -0.21256856 0 4.3465307e-06 0 0)
(-1.3592929 -0.21289567 0 -4.217068e-06 0 0)
(-1.3564099 -0.21260376 0 4.1043021e-06 0 0)
(-1.3589469 -0.21286157 0 -4.010182e-06 0 0)
(-1.3567453 -0.21263688 0 3.9274789e-06 0 0)
(-1.3586187 -0.21282934 0 -3.8852228e-06 0 0)
(-1.357064 -0.21266822 0 3.8389965e-06 0 0)
(-1.3582984 -0.21279736 0 -3.6344813e-06 0 0)
(-1.3573733 -0.21269492 0 4.9709372e-06 0 0)
(-1.3580151 -0.21277421 0 -4.7991128e-06 0 0)
(-0.95601149 -0.39351565 0 -0.11929271 0 0)
(-1.300775 -0.21426888 0 -0.0054165144 0 0)
(-1.2723744 -0.21235722 0 -0.0025465961 0 0)
(-1.3064849 -0.21041565 0 -0.00050019842 0 0)
(-1.2575446 -0.20471503 0 -0.00017230461 0 0)
(-1.2959349 -0.2082835 0 -4.5792049e-05 0 0)
(-1.2584755 -0.20440984 0 1.3203755e-05 0 0)
(-1.2921738 -0.20789203 0 -1.9121914e-05 0 0)
(-1.2603445 -0.20460302 0 2.0743747e-05 0 0)
(-1.2900583 -0.20769355 0 -1.906984e-05 0 0)
(-1.2620849 -0.20479089 0 1.8141231e-05 0 0)
(-1.2883183 -0.20751802 0 -1.7249912e-05 0 0)
(-1.2636433 -0.20495553 0 1.6090157e-05 0 0)
(-1.2867918 -0.20736171 0 -1.5257598e-05 0 0)
(-1.265031 -0.20510151 0 1.4299631e-05 0 0)
(-1.2854439 -0.20722337 0 -1.3505008e-05 0 0)
(-1.2662651 -0.20523113 0 1.2699653e-05 0 0)
(-1.2842516 -0.20710083 0 -1.1976679e-05 0 0)
(-1.2673622 -0.20534622 0 1.1280714e-05 0 0)
(-1.2831954 -0.20699215 0 -1.0637638e-05 0 0)
(-1.268338 -0.20544843 0 1.0029542e-05 0 0)
(-1.2822582 -0.20689563 0 -9.4626448e-06 0 0)
(-1.2692065 -0.2055393 0 8.9299143e-06 0 0)
(-1.2814256 -0.2068098 0 -8.4322991e-06 0 0)
(-1.2699805 -0.2056202 0 7.9659116e-06 0 0)
(-1.2806843 -0.20673333 0 -7.5304697e-06 0 0)
(-1.2706715 -0.20569235 0 7.1230765e-06 0 0)
(-1.280023 -0.20666507 0 -6.7432982e-06 0 0)
(-1.2712899 -0.20575685 0 6.3886385e-06 0 0)
(-1.2794313 -0.20660397 0 -6.0587765e-06 0 0)
(-1.2718448 -0.20581468 0 5.751455e-06 0 0)
(-1.2789002 -0.2065491 0 -5.4665142e-06 0 0)
(-1.2723446 -0.20586671 0 5.2018906e-06 0 0)
(-1.2784214 -0.20649964 0 -4.9575803e-06 0 0)
(-1.2727968 -0.20591374 0 4.7317007e-06 0 0)
(-1.2779875 -0.20645481 0 -4.5243904e-06 0 0)
(-1.2732081 -0.20595648 0 4.333947e-06 0 0)
(-1.277592 -0.20641395 0 -4.1606446e-06 0 0)
(-1.2735849 -0.20599558 0 4.0029697e-06 0 0)
(-1.2772287 -0.20637643 0 -3.861338e-06 0 0)
(-1.2739327 -0.20603163 0 3.7344931e-06 0 0)
(-1.276892 -0.20634168 0 -3.6228846e-06 0 0)
(-1.2742568 -0.20606518 0 3.5258836e-06 0 0)
(-1.2765769 -0.20630918 0 -3.4447854e-06 0 0)
(-1.2745623 -0.20609676 0 3.372776e-06 0 0)
(-1.2762781 -0.20627845 0 -3.3394219e-06 0 0)
(-1.2748524 -0.20612668 0 3.2951127e-06 0 0)
(-1.2759863 -0.20624786 0 -3.0888474e-06 0 0)
(-1.2751302 -0.20615184 0 4.4317463e-06 0 0)
(-1.2757123 -0.20622454 0 -4.3093187e-06 0 0)
(-0.9363404 -0.37579473 0 -0.10927108 0 0)
(-1.1783042 -0.20450169 0 -0.0053235715 0 0)
(-1.1844614 -0.20511982 0 -0.0025029019 0 0)
(-1.2214905 -0.20361398 0 -0.00051842886 0 0)
(-1.1786594 -0.19824282 0 -0.00018263311 0 0)
(-1.2142337 -0.20163221 0 -4.2547773e-05 0 0)
(-1.1802656 -0.19795589 0 9.4707354e-06 0 0)
(-1.2110055 -0.20126173 0 -1.5632375e-05 0 0)
(-1.1820006 -0.1981364 0 1.7826642e-05 0 0)
(-1.2090805 -0.20107325 0 -1.6144715e-05 0 0)
(-1.1835806 -0.19831476 0 1.5460654e-05 0 0)
(-1.2074917 -0.20090653 0 -1.4703272e-05 0 0)
(-1.1849989 -0.19847129 0 1.3695605e-05 0 0)
(-1.2060989 -0.20075796 0 -1.3004287e-05 0 0)
(-1.1862626 -0.19861005 0 1.2176096e-05 0 0)
(-1.2048692 -0.20062645 0 -1.150576e-05 0 0)
(-1.1873865 -0.19873325 0 1.0816279e-05 0 0)
(-1.2037817 -0.20050996 0 -1.0201614e-05 0 0)
(-1.1883858 -0.19884262 0 9.608428e-06 0 0)
(-1.2028183 -0.20040664 0 -9.0602417e-06 0 0)
(-1.1892745 -0.19893977 0 8.5426977e-06 0 0)
(-1.2019637 -0.20031489 0 -8.0590916e-06 0 0)
(-1.1900655 -0.19902615 0 7.6058372e-06 0 0)
(-1.2012044 -0.20023328 0 -7.1812713e-06 0 0)
(-1.1907706 -0.19910304 0 6.7844445e-06 0 0)
(-1.2005286 -0.20016059 0 -6.412927e-06 0 0)
(-1.1914 -0.19917163 0 6.0662387e-06 0 0)
(-1.1999257 -0.20009568 0 -5.7422196e-06 0 0)
(-1.1919633 -0.19923295 0 5.440345e-06 0 0)
(-1.1993864 -0.20003759 0 -5.1589107e-06 0 0)
(-1.1924688 -0.19928794 0 4.8972696e-06 0 0)
(-1.1989022 -0.19998541 0 -4.6541481e-06 0 0)
(-1.192924 -0.19933742 0 4.4288026e-06 0 0)
(-1.1984658 -0.19993835 0 -4.2203247e-06 0 0)
(-1.1933359 -0.19938215 0 4.0279195e-06 0 0)
(-1.1980705 -0.19989571 0 -3.8509816e-06 0 0)
(-1.1937106 -0.19942282 0 3.6887093e-06 0 0)
(-1.1977101 -0.19985683 0 -3.5407542e-06 0 0)
(-1.1940536 -0.19946002 0 3.4063504e-06 0 0)
(-1.1973792 -0.19982112 0 -3.2853797e-06 0 0)
(-1.1943703 -0.19949434 0 3.1772038e-06 0 0)
(-1.1970726 -0.19978803 0 -3.0817891e-06 0 0)
(-1.1946654 -0.19952629 0 2.9990303e-06 0 0)
(-1.1967857 -0.19975708 0 -2.9296607e-06 0 0)
(-1.1949435 -0.19955638 0 2.8673028e-06 0 0)
(-1.1965138 -0.1997278 0 -2.8416027e-06 0 0)
(-1.1952075 -0.19958491 0 2.7989344e-06 0 0)
(-1.196248 -0.1996986 0 -2.5928382e-06 0 0)
(-1.195457 -0.19960868 0 3.9178082e-06 0 0)
(-1.1959851 -0.19967523 0 -3.8483535e-06 0 0)
(-0.91839026 -0.35276061 0 -0.095255836 0 0)
(-1.0740516 -0.19564929 0 -0.0051652113 0 0)
(-1.0981451 -0.19798823 0 -0.0025164825 0 0)
(-1.1420535 -0.19664921 0 -0.00042156014 0 0)
(-1.1025999 -0.19166458 0 -0.00015612923 0 0)
(-1.1353827 -0.19495653 0 -2.979494e-05 0 0)
(-1.104504 -0.19148794 0 8.755064e-06 0 0)
(-1.132519 -0.1946312 0 -1.1740576e-05 0 0)
(-1.1061081 -0.19166582 0 1.5373234e-05 0 0)
(-1.1307727 -0.19445512 0 -1.341923e-05 0 0)
(-1.1075465 -0.19183601 0 1.3036371e-05 0 0)
(-1.1293261 -0.19429724 0 -1.2374282e-05 0 0)
(-1.1088381 -0.19198486 0 1.1514653e-05 0 0)
(-1.1280571 -0.19415622 0 -1.0948733e-05 0 0)
(-1.1099885 -0.19211667 0 1.0240072e-05 0 0)
(-1.1269364 -0.19403131 0 -9.6827855e-06 0 0)
(-1.1110115 -0.19223367 0 9.098962e-06 0 0)
(-1.1259452 -0.19392067 0 -8.5831985e-06 0 0)
(-1.111921 -0.19233754 0 8.0835775e-06 0 0)
(-1.1250672 -0.19382253 0 -7.6220763e-06 0 0)
(-1.1127298 -0.1924298 0 7.186954e-06 0 0)
(-1.1242885 -0.19373538 0 -6.7794254e-06 0 0)
(-1.1134499 -0.19251183 0 6.3985169e-06 0 0)
(-1.1235967 -0.19365786 0 -6.0406593e-06 0 0)
(-1.1140916 -0.19258486 0 5.7071592e-06 0 0)
(-1.1229809 -0.1935888 0 -5.3940055e-06 0 0)
(-1.1146646 -0.19265001 0 5.1025876e-06 0 0)
(-1.1224317 -0.19352714 0 -4.8294683e-06 0 0)
(-1.1151773 -0.19270826 0 4.5756576e-06 0 0)
(-1.1219404 -0.19347194 0 -4.3384235e-06 0 0)
(-1.1156374 -0.1927605 0 4.1183794e-06 0 0)
(-1.1214994 -0.19342236 0 -3.9134203e-06 0 0)
(-1.1160518 -0.19280752 0 3.7238421e-06 0 0)
(-1.121102 -0.19337765 0 -3.5480574e-06 0 0)
(-1.1164267 -0.19285003 0 3.386132e-06 0 0)
(-1.120742 -0.19333711 0 -3.2368984e-06 0 0)
(-1.1167677 -0.19288869 0 3.100271e-06 0 0)
(-1.1204139 -0.19330014 0 -2.9754266e-06 0 0)
(-1.11708 -0.19292406 0 2.8621957e-06 0 0)
(-1.1201126 -0.19326618 0 -2.7600479e-06 0 0)
(-1.1173682 -0.1929567 0 2.6688367e-06 0 0)
(-1.1198335 -0.19323471 0 -2.5881512e-06 0 0)
(-1.1176366 -0.1929871 0 2.5182962e-06 0 0)
(-1.1195725 -0.19320525 0 -2.4595333e-06 0 0)
(-1.1178895 -0.19301574 0 2.4059365e-06 0 0)
(-1.1193253 -0.19317738 0 -2.3868082e-06 0 0)
(-1.1181297 -0.19304293 0 2.3457496e-06 0 0)
(-1.1190835 -0.19314954 0 -2.1415983e-06 0 0)
(-1.1183537 -0.19306542 0 3.427895e-06 0 0)
(-1.1188327 -0.19312625 0 -3.4158892e-06 0 0)
(-0.90552057 -0.33895607 0 -0.087701039 0 0)
(-0.98801872 -0.18675484 0 -0.0044954525 0 0)
(-1.0135435 -0.19025787 0 -0.0026235774 0 0)
(-1.0623817 -0.18989813 0 -0.00047852195 0 0)
(-1.0285956 -0.1851965 0 -0.0001617357 0 0)
(-1.05902 -0.18831582 0 -2.6398416e-05 0 0)
(-1.0311522 -0.18502787 0 6.0727253e-06 0 0)
(-1.0566972 -0.1880071 0 -8.7154054e-06 0 0)
(-1.0326854 -0.18519383 0 1.2993949e-05 0 0)
(-1.0551307 -0.18784002 0 -1.0966013e-05 0 0)
(-1.0339967 -0.18535512 0 1.0810182e-05 0 0)
(-1.0538147 -0.18769028 0 -1.0247322e-05 0 0)
(-1.0351711 -0.18549638 0 9.5197075e-06 0 0)
(-1.052659 -0.18755646 0 -9.0695283e-06 0 0)
(-1.036217 -0.18562146 0 8.4696729e-06 0 0)
(-1.0516385 -0.18743792 0 -8.0161493e-06 0 0)
(-1.037147 -0.18573246 0 7.5286343e-06 0 0)
(-1.050736 -0.18733291 0 -7.1035819e-06 0 0)
(-1.0379739 -0.18583101 0 6.6892839e-06 0 0)
(-1.0499366 -0.18723977 0 -6.3072476e-06 0 0)
(-1.0387094 -0.18591855 0 5.94731e-06 0 0)
(-1.0492277 -0.18715706 0 -5.6094944e-06 0 0)
(-1.0393641 -0.18599639 0 5.2945944e-06 0 0)
(-1.048598 -0.18708349 0 -4.9978462e-06 0 0)
(-1.0399477 -0.18606569 0 4.7221359e-06 0 0)
(-1.0480375 -0.18701794 0 -4.4624346e-06 0 0)
(-1.0404687 -0.18612752 0 4.2214624e-06 0 0)
(-1.0475377 -0.18695942 0 -3.9949503e-06 0 0)
(-1.040935 -0.18618281 0 3.7850137e-06 0 0)
(-1.0470906 -0.18690702 0 -3.5882453e-06 0 0)
(-1.0413535 -0.18623239 0 3.4061757e-06 0 0)
(-1.0466893 -0.18685994 0 -3.236149e-06 0 0)
(-1.0417303 -0.18627703 0 3.0792248e-06 0 0)
(-1.0463277 -0.18681748 0 -2.9333605e-06 0 0)
(-1.0420712 -0.1863174 0 2.799261e-06 0 0)
(-1.0460002 -0.18677899 0 -2.6753763e-06 0 0)
(-1.0423813 -0.18635411 0 2.5621568e-06 0 0)
(-1.0457017 -0.18674388 0 -2.4584507e-06 0 0)
(-1.0426652 -0.18638771 0 2.3645376e-06 0 0)
(-1.0454278 -0.18671161 0 -2.2795954e-06 0 0)
(-1.0429272 -0.18641873 0 2.203847e-06 0 0)
(-1.045174 -0.1866817 0 -2.1366092e-06 0 0)
(-1.0431712 -0.18644762 0 2.078487e-06 0 0)
(-1.0449367 -0.18665369 0 -2.0293648e-06 0 0)
(-1.043401 -0.18647485 0 1.9837692e-06 0 0)
(-1.0447122 -0.18662719 0 -1.97028e-06 0 0)
(-1.0436193 -0.18650074 0 1.930978e-06 0 0)
(-1.0444924 -0.18660069 0 -1.7304229e-06 0 0)
(-1.0438202 -0.18652206 0 2.9605435e-06 0 0)
(-1.0442545 -0.18657757 0 -3.010988e-06 0 0)
(-0.88795058 -0.31692708 0 -0.075219218 0 0)
(-0.9095275 -0.1788721 0 -0.004125269 0 0)
(-0.93769282 -0.18274829 0 -0.002451378 0 0)
(-0.98649982 -0.1829114 0 -0.00042309395 0 0)
(-0.95727533 -0.17863469 0 -0.0001376451 0 0)
(-0.98528681 -0.18164253 0 -1.5464273e-05 0 0)
(-0.96019735 -0.1785506 0 5.8777203e-06 0 0)
(-0.9834948 -0.18138038 0 -5.291474e-06 0 0)
(-0.96171538 -0.17871703 0 1.1010059e-05 0 0)
(-0.98212918 -0.1812264 0 -8.6577951e-06 0 0)
(-0.9629305 -0.17887151 0 8.7893505e-06 0 0)
(-0.9809447 -0.18108524 0 -8.290412e-06 0 0)
(-0.9640026 -0.17900579 0 7.6932476e-06 0 0)
(-0.97989651 -0.18095854 0 -7.3458566e-06 0 0)
(-0.96495375 -0.17912443 0 6.8468884e-06 0 0)
(-0.97896912 -0.18084618 0 -6.4882497e-06 0 0)
(-0.96579862 -0.17922967 0 6.088979e-06 0 0)
(-0.97814854 -0.18074662 0 -5.7472643e-06 0 0)
(-0.9665496 -0.17932309 0 5.4109923e-06 0 0)
(-0.97742176 -0.18065832 0 -5.1020012e-06 0 0)
(-0.96721755 -0.17940608 0 4.8108078e-06 0 0)
(-0.97677721 -0.18057989 0 -4.5370616e-06 0 0)
(-0.96781218 -0.17947986 0 4.2825252e-06 0 0)
(-0.97620471 -0.18051013 0 -4.0419241e-06 0 0)
(-0.96834221 -0.17954557 0 3.8190722e-06 0 0)
(-0.97569525 -0.18044798 0 -3.6084707e-06 0 0)
(-0.96881548 -0.17960419 0 3.4136484e-06 0 0)
(-0.97524088 -0.18039247 0 -3.2299391e-06 0 0)
(-0.969239 -0.17965662 0 3.0601471e-06 0 0)
(-0.97483452 -0.18034278 0 -2.900534e-06 0 0)
(-0.96961906 -0.17970364 0 2.7532156e-06 0 0)
(-0.97446986 -0.18029813 0 -2.615258e-06 0 0)
(-0.96996136 -0.17974598 0 2.4882183e-06 0 0)
(-0.97414128 -0.18025785 0 -2.3698172e-06 0 0)
(-0.97027099 -0.17978427 0 2.2611836e-06 0 0)
(-0.97384371 -0.18022133 0 -2.1605612e-06 0 0)
(-0.97055259 -0.1798191 0 2.0687617e-06 0 0)
(-0.97357256 -0.18018801 0 -1.9844481e-06 0 0)
(-0.97081039 -0.17985099 0 1.9082062e-06 0 0)
(-0.97332369 -0.18015738 0 -1.8390407e-06 0 0)
(-0.97104826 -0.17988043 0 1.7774256e-06 0 0)
(-0.97309327 -0.18012898 0 -1.722508e-06 0 0)
(-0.97126978 -0.17990787 0 1.6750878e-06 0 0)