/*--------------------------------*- C++ -*----------------------------------*\
| =========                 |                                                 |
| \\      /  F ield         | OpenFOAM: The Open Source CFD Toolbox           |
|  \\    /   O peration     | Version:  2312                                  |
|   \\  /    A nd           | Website:  www.openfoam.com                      |
|    \\/     M anipulation  |                                                 |
\*---------------------------------------------------------------------------*/
FoamFile
{
    version     2.0;
    format      ascii;
    arch        "LSB;label=32;scalar=64";
    class       volScalarField;
    location    "9";
    object      T;
}
// * * * * * * * * * * * * * * * * * * * * * * * * * * * * * * * * * * * * * //

dimensions      [0 0 0 1 0 0 0];

internalField   nonuniform List<scalar> 
4000
(
309.86571
311.05348
311.21383
311.29514
311.35092
311.40534
311.44608
311.49133
311.52663
311.56731
311.59991
311.63783
311.66886
311.70494
311.73499
311.76974
311.79913
311.8329
311.86181
311.89483
311.92339
311.95581
311.9841
312.01603
312.04411
312.07565
312.10355
312.13477
312.16252
312.19348
312.22109
312.25183
312.27931
312.30989
312.33725
312.36768
312.39493
312.42526
312.45238
312.48264
312.50964
312.53984
312.56672
312.59691
312.62363
312.65385
312.68037
312.71073
312.73686
312.76798
307.74724
309.90002
310.32106
310.50956
310.62164
310.72955
310.7966
310.87703
310.92777
310.99451
311.03714
311.09562
311.13355
311.18651
311.22147
311.27049
311.30345
311.34952
311.38107
311.42487
311.45536
311.49736
311.52704
311.5676
311.59663
311.63603
311.66452
311.70296
311.73098
311.76864
311.79625
311.83326
311.86049
311.89699
311.92386
311.95994
311.98647
312.02223
312.0484
312.08393
312.10973
312.14511
312.17053
312.20587
312.23082
312.26626
312.2906
312.32645
312.34964
312.38767
306.35399
308.77569
309.43405
309.72716
309.89482
310.05551
310.1488
310.26403
310.33025
310.42281
310.47553
310.55438
310.59928
310.66897
310.70891
310.77206
310.80867
310.86693
310.90117
310.95566
310.98813
311.03965
311.07076
311.11989
311.14992
311.19711
311.22622
311.27183
311.30016
311.34448
311.37212
311.41537
311.44237
311.48476
311.51116
311.55286
311.57868
311.61985
311.64508
311.68586
311.71049
311.75103
311.77499
311.81546
311.83866
311.87931
311.90149
311.9428
311.96308
312.00778
305.38386
307.70858
308.56186
308.95277
309.17392
309.38571
309.50487
309.65404
309.73569
309.85349
309.91637
310.01517
310.06713
310.15324
310.19826
310.27529
310.31564
310.38589
310.4229
310.48791
310.52245
310.58333
310.61595
310.67352
310.7046
310.75948
310.78928
310.84196
310.87066
310.92154
310.94926
310.99867
311.02549
311.0737
311.09968
311.14694
311.17209
311.21861
311.24294
311.28892
311.3124
311.35805
311.3806
311.42616
311.44764
311.49344
311.5135
311.56022
311.57768
311.62865
304.67997
306.72415
307.71636
308.19314
308.46367
308.7236
308.8677
309.04937
309.1462
309.28834
309.36132
309.47944
309.53849
309.64052
309.69071
309.78123
309.8254
309.90732
309.9472
310.02248
310.05916
310.12919
310.1634
310.22922
310.26143
310.32384
310.35439
310.414
310.44313
310.50046
310.52832
310.58377
310.61047
310.66441
310.69001
310.74273
310.76727
310.81906
310.84253
310.89364
310.91601
310.9667
310.98789
311.03845
311.05827
311.10914
311.12715
311.17917
311.19395
311.25075
304.15356
305.84114
306.91069
307.45642
307.76987
308.07349
308.24088
308.45292
308.56433
308.7295
308.81238
308.94891
309.01501
309.13228
309.18765
309.29114
309.33919
309.43235
309.47517
309.56035
309.59926
309.67814
309.71401
309.78783
309.82125
309.89096
309.92234
309.9887
310.01832
310.08192
310.10999
310.17134
310.19797
310.2575
310.28279
310.34085
310.36483
310.42177
310.44445
310.50057
310.5219
310.57752
310.5974
310.65287
310.67109
310.72692
310.74298
310.80014
310.81245
310.87456
303.75146
305.07128
306.15761
306.75149
307.09903
307.44034
307.62849
307.86805
307.99305
308.17952
308.27185
308.42559
308.49855
308.63019
308.69068
308.80644
308.85838
308.96223
309.00802
309.10266
309.14385
309.2312
309.26879
309.35029
309.38498
309.46173
309.494
309.56685
309.59704
309.6667
309.69503
309.76209
309.78872
309.85367
309.8787
309.94195
309.96543
310.02738
310.04932
310.11032
310.13067
310.19109
310.20974
310.26998
310.28669
310.34733
310.36154
310.42364
310.43372
310.50065
303.43895
304.41815
305.46804
306.08721
306.45795
306.8295
307.03498
307.29846
307.43559
307.64117
307.74226
307.91173
307.9912
308.13612
308.20154
308.32875
308.38449
308.49837
308.54711
308.65066
308.69413
308.7895
308.82884
308.91763
308.95363
309.03708
309.07028
309.14935
309.18014
309.25562
309.28426
309.35681
309.38348
309.45364
309.47847
309.54672
309.56976
309.63655
309.65781
309.72352
309.74297
309.80802
309.82552
309.89037
309.90565
309.97092
309.98342
310.05022
310.05836
310.12959
303.19293
303.87925
304.85002
305.47159
305.85329
306.24643
306.46493
306.74805
306.89536
307.11745
307.2263
307.40973
307.49516
307.65206
307.72211
307.85977
307.91914
308.04226
308.09385
308.20568
308.25138
308.35424
308.39532
308.49095
308.52827
308.61802
308.65218
308.73713
308.76855
308.84955
308.87854
308.9563
308.98307
309.0582
309.08287
309.15591
309.17856
309.24997
309.27062
309.34085
309.35945
309.42895
309.44537
309.51463
309.52861
309.59828
309.60923
309.68044
309.68692
309.76198
302.99664
303.44619
304.30807
304.91109
305.29104
305.69634
305.92285
306.22073
306.37582
306.61143
306.72674
306.92208
307.01272
307.18011
307.25435
307.40131
307.46403
307.59548
307.64976
307.76912
307.81696
307.92669
307.96944
308.0714
308.11
308.20562
308.24072
308.33116
308.36322
308.44939
308.47875
308.56143
308.58831
308.66814
308.6927
308.77026
308.79257
308.86837
308.88847
308.96298
308.98082
309.05453
309.06997
309.1434
309.15619
309.23001
309.23959
309.31486
309.32
309.39845
302.83811
303.10723
303.84311
304.41007
304.77609
305.18387
305.41293
305.72025
305.88033
306.12614
306.24634
306.45131
306.5462
306.72242
306.80023
306.95522
307.0209
307.15967
307.21637
307.34244
307.39224
307.50815
307.55246
307.66017
307.69997
307.80097
307.83697
307.93246
307.96514
308.0561
308.08583
308.17307
308.20008
308.2843
308.30877
308.39056
308.41258
308.49249
308.51208
308.59063
308.60776
308.68543
308.69999
308.77732
308.78905
308.86672
308.8751
308.95409
308.95817
309.03961
302.70823
302.84815
303.45263
303.97054
304.31189
304.71281
304.93876
305.25002
305.412
305.66446
305.78772
305.99986
306.09787
306.28108
306.36172
306.52334
306.59147
306.73646
306.79523
306.9271
306.97861
307.09996
307.14565
307.25847
307.29936
307.40518
307.44199
307.54205
307.57531
307.67063
307.70069
307.79212
307.81926
307.90751
307.9319
308.01761
308.03935
308.12308
308.14222
308.22449
308.241
308.32233
308.33609
308.41705
308.42783
308.50904
308.51641
308.59874
308.60201
308.68608
302.60026
302.65423
303.13143
303.5921
303.90023
304.28581
304.5032
304.81288
304.97355
305.22899
305.35331
305.57002
305.66984
305.85813
305.94072
306.10747
306.17744
306.32744
306.38784
306.52454
306.57745
306.70342
306.75027
306.8675
306.90931
307.01935
307.05686
307.16098
307.19471
307.29394
307.32429
307.41948
307.44671
307.53862
307.56293
307.6522
307.67368
307.76089
307.77961
307.8653
307.88123
307.96593
307.97898
308.06322
308.07319
308.15759
308.16413
308.24941
308.2521
308.33847
302.50905
302.5112
302.87222
303.27218
303.54113
303.9043
304.10814
304.41104
304.56718
304.82192
304.94523
305.16384
305.26407
305.45542
305.53897
305.70929
305.78039
305.93416
305.99567
306.13617
306.19008
306.31982
306.36753
306.48844
306.53095
306.64459
306.68263
306.79024
306.82434
306.92697
306.95752
307.05604
307.08332
307.17847
307.20267
307.29512
307.31635
307.40668
307.42501
307.51376
307.52918
307.61688
307.62931
307.71649
307.72577
307.813
307.81887
307.90672
307.90902
307.99738
302.43079
302.40627
302.66658
303.00642
303.233
303.56834
303.75446
304.04589
304.19446
304.445
304.56517
304.78305
304.88221
305.07459
305.15805
305.33033
305.40179
305.55801
305.62006
305.76329
305.81777
305.95036
305.9986
306.12242
306.16538
306.28193
306.32031
306.43083
306.46515
306.57066
306.6013
306.70266
306.72991
306.82788
306.85192
306.94714
306.96811
307.06117
307.07912
307.17058
307.18552
307.27587
307.28775
307.37751
307.38621
307.47588
307.48124
307.57126
307.57332
307.66339
302.36261
302.32867
302.50568
302.78918
302.97281
303.27677
303.442
303.71798
303.85627
304.09938
304.21439
304.42902
304.52561
304.71703
304.79929
304.97193
305.04291
305.20029
305.26224
305.40709
305.46166
305.59617
305.64456
305.77049
305.81359
305.93237
305.97086
306.08367
306.11803
306.22586
306.25647
306.36018
306.3873
306.48762
306.51145
306.60902
306.62969
306.72509
306.74267
306.83642
306.85092
306.94354
306.95494
307.04688
307.0551
307.14683
307.15182
307.24363
307.24556
307.33706
302.30242
302.26982
302.38094
302.61406
302.75641
303.02728
303.16959
303.42703
303.55277
303.78562
303.89363
304.10265
304.19525
304.3838
304.46375
304.63519
304.70484
304.86206
304.92324
305.06863
305.12275
305.25826
305.30638
305.43361
305.47653
305.59682
305.63515
305.74962
305.78382
305.89342
305.92383
306.02937
306.05626
306.15845
306.182
306.28146
306.30179
306.3991
306.41629
306.51194
306.52603
306.62051
306.63148
306.72522
306.73305
306.82644
306.83115
306.92438
306.92626
307.01893
302.24867
302.22327
302.28451
302.47444
302.57892
302.81666
302.93517
303.17192
303.28343
303.50368
303.60308
303.80442
303.8917
304.07561
304.15218
304.32093
304.3884
304.54421
304.60394
304.74879
304.80192
304.93749
304.9849
305.11262
305.15501
305.2761
305.31399
305.42948
305.46329
305.57407
305.60412
305.71095
305.73748
305.84105
305.86422
305.96512
305.98506
306.08383
306.10063
306.19775
306.21143
306.30736
306.31795
306.41308
306.42059
306.51524
306.51977
306.61406
306.61594
306.70949
302.20026
302.18449
302.20963
302.36388
302.43507
302.64107
302.73597
302.95085
303.04704
303.2529
303.34243
303.53432
303.61511
303.7928
303.86502
304.02969
304.09415
304.24736
304.30498
304.44824
304.49984
304.63456
304.68082
304.80823
304.84971
304.97088
305.00805
305.12391
305.15711
305.26848
305.29798
305.40557
305.43159
305.53604
305.55873
305.6606
305.68009
305.77988
305.79624
305.89441
305.90768
306.00465
306.01488
306.11099
306.11824
306.21376
306.21816
306.31317
306.31506
306.40923
302.15637
302.15047
302.1507
302.2765
302.31958
302.49628
302.56869
302.76142
302.84184
303.03212
303.11084
303.29189
303.36523
303.53534
303.60233
303.76169
303.82241
303.9719
304.02677
304.16747
304.217
304.35
304.39467
304.52099
304.56121
304.68176
304.71789
304.8335
304.86582
304.97721
305.00596
305.11378
305.13914
305.24397
305.26608
305.36844
305.38739
305.48775
305.50363
305.60242
305.61528
305.71286
305.72275
305.81944
305.82645
305.92247
305.92677
306.02215
306.02407
306.11857
302.1164
302.11941
302.10332
302.20713
302.2274
302.37795
302.42972
302.60083
302.66559
302.83966
302.90706
303.07624
303.14141
303.30284
303.36387
303.51687
303.57316
303.71796
303.76949
303.90674
303.95369
304.08417
304.1268
304.2513
304.28989
304.40916
304.44395
304.55869
304.5899
304.70073
304.72854
304.83605
304.86059
304.96531
304.9867
305.08909
305.10742
305.20791
305.22326
305.32222
305.33465
305.43243
305.44198
305.53885
305.54565
305.64178
305.646
305.74142
305.74338
305.83791
302.07988
302.09032
302.06418
302.15148
302.15395
302.28186
302.31534
302.46599
302.51574
302.67352
302.72943
302.88612
302.94265
303.09458
303.14909
303.29484
303.34615
303.48541
303.53308
303.66608
303.70999
303.8372
303.87741
303.99939
304.03602
304.15336
304.18653
304.2998
304.32965
304.43939
304.46604
304.57274
304.5963
304.70042
304.72098
304.82293
304.84056
304.94073
304.95548
305.05421
305.06616
305.16373
305.17294
305.2696
305.27619
305.37207
305.37622
305.47135
305.47331
305.56759
302.04647
302.06275
302.03088
302.10606
302.09525
302.20408
302.22189
302.35373
302.38952
302.5314
302.57602
302.71997
302.76765
302.90952
302.95713
303.09496
303.14086
303.27388
303.31726
303.44531
303.48579
303.60907
303.64649
303.76533
303.79967
303.9145
303.94577
304.05702
304.08529
304.1934
304.21872
304.3241
304.34653
304.44958
304.46918
304.57025
304.58707
304.6865
304.7006
304.79867
304.81011
304.90708
304.91592
305.01199
305.01836
305.11364
305.1177
305.21223
305.21419
305.30792
302.01586
302.03655
302.0018
302.06823
302.04795
302.14109
302.14593
302.2609
302.28411
302.41087
302.4447
302.57598
302.61485
302.74638
302.78689
302.91634
302.95653
303.08275
303.12151
303.24405
303.28076
303.39953
303.43386
303.54901
303.58077
303.69256
303.72168
303.83041
303.85687
303.96287
303.98667
304.09028
304.11142
304.21296
304.23148
304.33124
304.34717
304.44544
304.45882
304.55585
304.56672
304.66271
304.67115
304.76628
304.77239
304.86674
304.87069
304.96431
304.96624
305.05914
301.98782
302.01172
301.97585
302.03598
302.00936
302.08986
302.08432
302.18452
302.1967
302.30941
302.33321
302.45221
302.48252
302.60367
302.63706
302.75787
302.79219
302.91123
302.94514
303.06171
303.0944
303.20819
303.23917
303.35015
303.37911
303.48737
303.51414
303.61988
303.64435
303.74779
303.7699
303.8713
303.89103
303.99063
304.00796
304.10601
304.12096
304.21768
304.23027
304.32587
304.33613
304.43078
304.43879
304.53262
304.53846
304.63156
304.63537
304.72778
304.72966
304.82143
301.96213
301.98833
301.95235
302.00791
301.97736
302.04786
302.03433
302.12185
302.12463
302.22457
302.23927
302.34661
302.36881
302.47978
302.5062
302.61828
302.6467
302.75833
302.78727
302.89754
302.92604
303.03448
303.06193
303.16833
303.1943
303.29864
303.32287
303.42522
303.44753
303.54802
303.5683
303.6671
303.68527
303.78256
303.7986
303.89456
303.90844
304.00326
304.01499
304.10881
304.11841
304.21139
304.21891
304.31113
304.31667
304.40821
304.41184
304.50277
304.50457
304.59493
301.9386
301.96643
301.93091
301.98304
301.95035
302.01303
301.99361
302.07044
302.06546
302.154
302.16065
302.25714
302.27182
302.37299
302.39273
302.49619
302.51879
302.62292
302.64687
302.75065
302.77488
302.8777
302.90149
303.00301
303.02585
303.12593
303.14748
303.24609
303.26612
303.3633
303.38163
303.47747
303.494
303.58863
303.60328
303.69682
303.70955
303.80213
303.81293
303.90466
303.91355
304.00453
304.01153
304.10184
304.10703
304.19673
304.20017
304.28932
304.29104
304.37971
301.91706
301.94605
301.91127
301.96072
301.92716
301.98377
301.96023
302.02818
302.01699
302.09553
302.09524
302.18179
302.18967
302.28156
302.29503
302.39011
302.40712
302.5038
302.52283
302.62003
302.63999
302.73701
302.75709
302.8535
302.87313
302.96869
302.98747
303.08205
303.0997
303.19327
303.20956
303.30215
303.31694
303.4086
303.42179
303.5126
303.52413
303.61415
303.62398
303.71332
303.72144
303.81015
303.81659
303.90472
303.90952
303.99712
304.00032
304.08745
304.08906
304.17579
301.89738
301.92719
301.89331
301.94052
301.90697
301.95884
301.93261
301.99328
301.97729
302.04718
302.04107
302.11866
302.12052
302.20377
302.21148
302.29854
302.31026
302.39965
302.41394
302.50459
302.52033
302.61148
302.62786
302.71902
302.73541
302.82626
302.84222
302.93255
302.94776
303.03748
303.05167
303.14074
303.15374
303.24216
303.25384
303.34164
303.35191
303.43913
303.44794
303.53461
303.54194
303.6281
303.63395
303.71964
303.72402
303.80928
303.81222
303.89709
303.89857
303.98312
301.87944
301.90984
301.87694
301.92218
301.88921
301.93734
301.90954
301.96427
301.94472
302.00722
301.99636
302.06599
302.06264
302.13796
302.14048
302.21998
302.22679
302.30916
302.31894
302.40315
302.41482
302.50012
302.51287
302.5987
302.61189
302.69789
302.71104
302.79696
302.8097
302.89538
302.90744
302.99279
303.00395
303.08892
303.09905
303.18362
303.19259
303.27677
303.28452
303.3683
303.37479
303.4582
303.46341
303.54645
303.55038
303.63308
303.63573
303.71813
303.71946
303.80161
301.86312
301.89397
301.8621
301.90555
301.87347
301.91861
301.89007
301.93998
301.91792
301.97418
301.95955
302.02217
302.01443
302.08255
302.0805
302.15295
302.15531
302.23098
302.23656
302.31453
302.32235
302.40186
302.41112
302.49163
302.50169
302.58279
302.59316
302.67457
302.68486
302.76636
302.77628
302.85775
302.86707
302.94841
302.95696
303.03812
303.04577
303.12671
303.13338
303.21408
303.21971
303.30016
303.30471
303.3849
303.38836
303.4683
303.47064
303.55037
303.55156
303.6311
301.84835
301.87954
301.84875
301.89051
301.85951
301.90216
301.8735
301.91948
301.89576
301.94677
301.92926
301.9858
301.97443
302.03609
302.0301
302.09607
302.09444
302.16383
302.16556
302.23754
302.24175
302.31564
302.32158
302.39684
302.40389
302.4801
302.48776
302.56461
302.5725
302.64975
302.65755
302.73503
302.74251
302.8201
302.82707
302.90467
302.91099
302.98854
302.99412
303.07157
303.07632
303.15365
303.15753
303.23471
303.23767
303.3147
303.31671
303.39361
303.39463
303.4714
301.83508
301.86653
301.83686
301.877
301.84715
301.88766
301.85931
301.90203
301.87735
301.92396
301.90434
301.95562
301.94135
301.99728
301.98795
302.04802
302.04289
302.10643
302.1047
302.17101
302.1719
302.24038
302.24322
302.31335
302.31754
302.38892
302.394
302.46629
302.47186
302.54481
302.55056
302.62398
302.62966
302.70339
302.70881
302.78274
302.78775
302.8618
302.86627
302.94036
302.94422
303.0183
303.02149
303.09552
303.09798
303.17195
303.17364
303.24754
303.2484
303.32224
301.82328
301.85492
301.82639
301.86495
301.83627
301.87488
301.8471
301.8871
301.86199
301.9049
301.88382
301.93058
301.91406
301.96493
301.95285
302.00759
301.99947
302.0576
302.05281
302.1138
302.1117
302.17502
302.17499
302.24017
302.2417
302.30835
302.31098
302.37877
302.38213
302.45079
302.45457
302.5239
302.52784
302.59767
302.60158
302.67178
302.67549
302.74595
302.74934
302.81997
302.82295
302.89368
302.89618
302.96696
302.96891
303.03971
303.04106
303.11186
303.11255
303.18335
301.81297
301.84469
301.81731
301.85433
301.82677
301.86364
301.8366
301.87427
301.84912
301.8889
301.86689
301.90977
301.89158
301.93801
301.92373
301.97369
301.96305
302.01625
302.00881
302.06484
302.06008
302.11851
302.11591
302.17634
302.17542
302.23748
302.23784
302.30122
302.30249
302.36692
302.36882
302.43409
302.43636
302.50229
302.50474
302.57117
302.57363
302.64045
302.64279
302.70989
302.71202
302.77932
302.78114
302.84859
302.85004
302.91758
302.91859
302.9862
302.98673
303.05437
301.80419
301.83584
301.80958
301.84507
301.81859
301.8538
301.82759
301.86321
301.8383
301.87541
301.85291
301.89246
301.87309
301.91563
301.89965
301.94534
301.93265
301.98136
301.97167
302.02312
302.01604
302.06989
302.06499
302.12091
302.11778
302.17543
302.1737
302.23279
302.23214
302.29242
302.29256
302.35382
302.35452
302.41656
302.41762
302.48029
302.48155
302.54472
302.54604
302.60959
302.61088
302.67473
302.67588
302.73995
302.7409
302.80513
302.80581
302.87016
302.87052
302.93495
301.797
301.82837
301.80316
301.83712
301.81164
301.84527
301.8199
301.85368
301.82921
301.864
301.84135
301.87801
301.85788
301.89703
301.87978
301.92168
301.90736
301.95201
301.94046
301.98771
301.97864
302.02823
302.02132
302.07298
302.06788
302.12132
302.11771
302.17267
302.17026
302.22651
302.22503
302.28235
302.28159
302.3398
302.33956
302.3985
302.39862
302.45815
302.45851
302.51851
302.519
302.57937
302.57989
302.64055
302.64103
302.70191
302.70227
302.76333
302.76353
302.82469
301.79145
301.82225
301.79798
301.83041
301.80585
301.83793
301.81342
301.84549
301.82159
301.85432
301.83177
301.86593
301.84538
301.88156
301.86343
301.90197
301.8864
301.9274
301.91434
301.95775
301.94703
301.99267
301.98404
302.0317
302.02488
302.07433
302.06905
302.12007
302.11606
302.16842
302.16547
302.21897
302.21686
302.27132
302.26987
302.32514
302.32421
302.38015
302.3796
302.43608
302.4358
302.49272
302.49263
302.54989
302.54991
302.60745
302.6075
302.66524
302.66529
302.72317
301.78754
301.81743
301.79396
301.82484
301.80113
301.83169
301.808
301.83848
301.81522
301.84612
301.82386
301.8558
301.83512
301.86868
301.84999
301.88555
301.86908
301.9068
301.89257
301.93248
301.92042
301.96242
301.95234
301.99629
301.98799
302.03369
302.02694
302.0742
302.0688
302.11742
302.11315
302.16296
302.15963
302.21045
302.2079
302.25959
302.25768
302.31009
302.3087
302.3617
302.36072
302.41422
302.41356
302.46745
302.46704
302.52124
302.52101
302.57545
302.57535
302.62996
301.78516
301.81379
301.791
301.82033
301.79738
301.82645
301.80356
301.83252
301.80995
301.83916
301.81732
301.8473
301.8267
301.85795
301.83898
301.87188
301.8548
301.88958
301.87449
301.91122
301.8981
301.93676
301.92551
301.966
301.95646
301.99865
301.99065
302.03436
302.02773
302.0728
302.06736
302.11363
302.10922
302.15653
302.15299
302.20119
302.1984
302.24737
302.24521
302.29481
302.29319
302.34332
302.34214
302.39271
302.3919
302.44281
302.44231
302.49348
302.49325
302.5446
301.7841
301.81119
301.78897
301.81674
301.79451
301.82211
301.79998
301.82749
301.80561
301.83327
301.81195
301.84015
301.8198
301.84899
301.82996
301.8605
301.84306
301.8752
301.85951
301.89337
301.87945
301.91506
301.90288
301.94018
301.92963
301.96853
301.95949
301.99986
301.9922
302.0339
302.02745
302.07034
302.06497
302.10891
302.10449
302.14934
302.14576
302.19139
302.18854
302.23484
302.23262
302.27948
302.27782
302.32513
302.32395
302.37163
302.37089
302.41884
302.41849
302.46664
301.78406
301.80947
301.78774
301.81397
301.79241
301.81857
301.79717
301.82327
301.8021
301.82829
301.80756
301.83414
301.81416
301.8415
301.82258
301.85101
301.83343
301.8632
301.84713
301.87839
301.86392
301.89673
301.88385
301.91821
301.90687
301.94272
301.93284
301.97008
301.96155
302.00007
301.99277
302.03245
302.02627
302.06699
302.06181
302.10344
302.09916
302.14158
302.13812
302.18121
302.17848
302.22214
302.22006
302.2642
302.2627
302.30722
302.30625
302.35107
302.3506
302.39562
301.78469
301.8084
301.78715
301.81188
301.79096
301.81572
301.79502
301.81977
301.79931
301.82411
301.80401
301.82909
301.80957
301.83522
301.81657
301.84309
301.82555
301.85317
301.83694
301.86584
301.85101
301.88128
301.8679
301.89956
301.88763
301.92065
301.9101
301.94443
301.9352
301.97074
301.96274
301.99939
301.99252
302.03018
302.02436
302.06291
302.05804
302.09738
302.09338
302.1334
302.1302
302.1708
302.16833
302.2094
302.20761
302.24908
302.24791
302.28967
302.2891
302.33107
301.78568
301.80782
301.78705
301.81034
301.79005
301.81346
301.79345
301.81689
301.79713
301.82062
301.80116
301.82484
301.80586
301.82996
301.81168
301.83646
301.8191
301.84479
301.82854
301.85531
301.84031
301.86825
301.85457
301.88375
301.87139
301.90181
301.89077
301.92239
301.91262
301.94537
301.9368
301.97061
301.96318
301.99795
301.99159
302.02722
302.02185
302.05825
302.05381
302.09087
302.08728
302.12492
302.12213
302.16025
302.15821
302.19672
302.19539
302.23419
302.23354
302.27256
301.78681
301.80754
301.7873
301.80925
301.78958
301.8117
301.79236
301.81455
301.79547
301.8177
301.7989
301.82127
301.80286
301.82553
301.8077
301.8309
301.81384
301.83776
301.82165
301.84646
301.83145
301.85728
301.84344
301.87035
301.85773
301.88575
301.87437
301.90347
301.89331
301.92346
301.91447
301.9456
301.93774
301.96978
301.96299
301.99586
301.99009
302.0237
302.01888
302.05313
302.04922
302.08404
302.08097
302.11626
302.11401
302.14968
302.1482
302.18417
302.18344
302.21962
301.78792
301.80744
301.7878
301.80848
301.78945
301.81034
301.79167
301.81265
301.79426
301.81528
301.79715
301.81826
301.80046
301.8218
301.80448
301.82621
301.80954
301.83184
301.81598
301.83902
301.82411
301.84801
301.83416
301.85899
301.84625
301.87206
301.86048
301.88726
301.87683
301.90456
301.89527
301.92391
301.91572
301.94521
301.9381
301.96836
301.96227
301.99324
301.98812
302.01972
302.01554
302.04767
302.04438
302.07697
302.07455
302.10751
302.10591
302.13916
302.13837
302.17183
301.78893
301.80743
301.78845
301.80795
301.78958
301.8093
301.7913
301.81112
301.7934
301.81327
301.7958
301.81573
301.79856
301.81865
301.80187
301.82225
301.80603
301.82685
301.81132
301.83274
301.81804
301.84017
301.82642
301.84934
301.83661
301.86038
301.84872
301.87336
301.86278
301.88828
301.87879
301.90512
301.89671
301.92381
301.91646
301.94429
301.93796
301.96644
301.9611
301.99018
301.9858
302.01539
302.01193
302.04196
302.03939
302.06978
302.06808
302.09875
302.09791
302.12878
301.78984
301.80744
301.78917
301.80759
301.78989
301.80851
301.79118
301.80989
301.79285
301.81161
301.7948
301.8136
301.79706
301.81596
301.79977
301.81888
301.80315
301.8226
301.80748
301.8274
301.813
301.83351
301.81996
301.84113
301.82851
301.85041
301.83878
301.86144
301.85082
301.87425
301.86467
301.88884
301.88031
301.90519
301.89768
301.92323
301.91674
301.9429
301.9374
301.96411
301.95958
301.98677
301.98318
302.01079
302.00812
302.03607
302.03431
302.06253
302.06165
302.09006
301.79064
301.80745
301.78992
301.80734
301.79032
301.8079
301.79124
301.80891
301.79252
301.81022
301.79407
301.81178
301.79588
301.81366
301.79806
301.81598
301.80079
301.81896
301.80429
301.82283
301.80881
301.82782
301.81455
301.83412
301.82169
301.84188
301.83036
301.8512
301.84063
301.86215
301.85257
301.87474
301.86616
301.88898
301.8814
301.90483
301.89825
301.92223
301.91663
301.94113
301.9365
301.96145
301.95777
301.9831
301.98036
302.00602
302.0042
302.03011
302.0292
302.05529
301.79134
301.80742
301.79066
301.80714
301.79082
301.80743
301.79144
301.8081
301.79237
301.80905
301.79354
301.81022
301.79495
301.81166
301.79666
301.81347
301.79883
301.81581
301.80163
301.8189
301.80529
301.82293
301.81
301.82809
301.81593
301.83454
301.82321
301.84238
301.83194
301.85169
301.84219
301.86252
301.85397
301.87488
301.8673
301.88875
301.88214
301.9041
301.89846
301.92089
301.91621
301.93905
301.93532
301.95852
301.95574
301.97924
301.97739
302.00113
302.00021
302.02412
301.79197
301.80736
301.79137
301.80697
301.79136
301.80704
301.79172
301.80742
301.79234
301.80804
301.79317
301.80886
301.79421
301.8099
301.7955
301.81125
301.79718
301.81305
301.79939
301.81546
301.80232
301.81868
301.80614
301.82288
301.81103
301.82819
301.81712
301.83475
301.82451
301.84264
301.83327
301.85191
301.84345
301.86259
301.85507
301.87469
301.86811
301.88819
301.88256
301.90306
301.89837
301.91926
301.91551
301.93673
301.93393
301.95541
301.95355
301.97526
301.97433
301.9962
301.79253
301.80726
301.79203
301.80681
301.79191
301.8067
301.79205
301.80684
301.79239
301.80715
301.7929
301.80764
301.7936
301.80832
301.79452
301.80926
301.79576
301.81058
301.79746
301.81243
301.79977
301.81495
301.80284
301.81832
301.80685
301.82267
301.81191
301.82812
301.81813
301.83476
301.8256
301.84267
301.83436
301.85187
301.84445
301.86239
301.85588
301.87423
301.86864
301.88736
301.8827
301.90177
301.89804
301.9174
301.91461
301.93422
301.93236
301.95218
301.95125
301.97122
301.79303
301.80711
301.79264
301.80664
301.79243
301.80639
301.79239
301.8063
301.79247
301.80634
301.7927
301.80651
301.79308
301.80686
301.79366
301.80745
301.79452
301.80835
301.79577
301.8097
301.79754
301.81164
301.79998
301.8143
301.80323
301.81782
301.8074
301.82232
301.81262
301.82788
301.81895
301.83459
301.82647
301.84248
301.83522
301.8516
301.84521
301.86195
301.85645
301.87352
301.86893
301.88631
301.88263
301.90027
301.89751
301.91538
301.91354
301.9316
301.93068
301.94888
301.79346
301.80693
301.79319
301.80644
301.79292
301.80608
301.79271
301.80578
301.79256
301.80555
301.79251
301.80544
301.79259
301.80549
301.79286
301.80574
301.79339
301.80629
301.79425
301.80721
301.79557
301.80865
301.79746
301.81071
301.80006
301.81352
301.80348
301.8172
301.80782
301.82183
301.81318
301.82749
301.81961
301.83424
301.82717
301.84212
301.83588
301.85114
301.84576
301.86131
301.85681
301.87263
301.86902
301.88508
301.88236
301.89863
301.89682
301.91325
301.91235
301.92891
301.79385
301.80671
301.79368
301.80621
301.79336
301.80574
301.79299
301.80524
301.79261
301.80477
301.7923
301.80439
301.79211
301.80415
301.7921
301.80412
301.79232
301.80434
301.79285
301.8049
301.79377
301.8059
301.7952
301.80745
301.79725
301.80966
301.80002
301.81263
301.80362
301.81646
301.80812
301.82122
301.8136
301.82697
301.82011
301.83375
301.82769
301.8416
301.83636
301.85052
301.84613
301.86052
301.857
301.8716
301.86894
301.88373
301.88196
301.89689
301.89601
301.91106
301.79418
301.80646
301.79412
301.80595
301.79374
301.80536
301.7932
301.80466
301.7926
301.80395
301.79204
301.80331
301.7916
301.80282
301.79133
301.80252
301.79127
301.80246
301.79151
301.8027
301.79209
301.80334
301.79313
301.80445
301.79471
301.80615
301.79693
301.80853
301.79988
301.81166
301.80365
301.81564
301.80831
301.82051
301.8139
301.82633
301.82048
301.83314
301.82808
301.84095
301.8367
301.84978
301.84635
301.85962
301.85704
301.87046
301.86873
301.88229
301.88143
301.8951
301.79446
301.80617
301.79451
301.80564
301.79404
301.80491
301.79333
301.80401
301.7925
301.80306
301.7917
301.80219
301.79102
301.80146
301.79051
301.80092
301.79022
301.80061
301.79019
301.80058
301.79049
301.8009
301.79119
301.80166
301.79237
301.80292
301.79412
301.80479
301.79653
301.80733
301.79967
301.81063
301.8036
301.81475
301.8084
301.81973
301.8141
301.82562
301.82074
301.83244
301.82834
301.84021
301.83691
301.84894
301.84645
301.85863
301.85696
301.86925
301.86842
301.88081
301.79469
301.80586
301.79483
301.80528
301.79425
301.80439
301.79334
301.80326
301.79228
301.80209
301.79125
301.80099
301.79035
301.80005
301.78963
301.79929
301.78912
301.79876
301.78887
301.7985
301.78892
301.79856
301.78933
301.799
301.79018
301.7999
301.79153
301.80134
301.79347
301.80338
301.79607
301.8061
301.79939
301.80956
301.80349
301.81381
301.80842
301.81889
301.81422
301.82484
301.82091
301.83168
301.8285
301.83941
301.83701
301.84805
301.84644
301.85759
301.85678
301.86801
301.79487
301.80551
301.79509
301.80485
301.79435
301.80376
301.79322
301.8024
301.79192
301.801
301.79067
301.79969
301.78956
301.79855
301.78865
301.79761
301.78796
301.79689
301.78751
301.79643
301.78735
301.79627
301.78753
301.79645
301.78809
301.79705
301.78911
301.79812
301.79065
301.79973
301.79278
301.80196
301.79557
301.80485
301.79907
301.80847
301.80333
301.81285
301.80838
301.81803
301.81426
301.82403
301.82099