/*--------------------------------*- C++ -*----------------------------------*\
| =========                 |                                                 |
| \\      /  F ield         | OpenFOAM: The Open Source CFD Toolbox           |
|  \\    /   O peration     | Version:  2312                                  |
|   \\  /    A nd           | Website:  www.openfoam.com                      |
|    \\/     M anipulation  |                                                 |
\*---------------------------------------------------------------------------*/
FoamFile
{
    version     2.0;
    format      ascii;
    arch        "LSB;label=32;scalar=64";
    class       volScalarField;
    location    "1";
    object      p;
}
// * * * * * * * * * * * * * * * * * * * * * * * * * * * * * * * * * * * * * //

dimensions      [0 2 -2 0 0 0 0];

internalField   nonuniform List<scalar> 
4000
(
32.445417
30.939352
30.349641
29.295171
28.906715
27.970429
27.604824
26.704195
26.327893
25.447813
25.055408
24.192721
23.784387
22.937546
22.514165
21.682046
21.244463
20.426197
19.97515
19.170022
18.70616
17.913547
17.437465
16.656785
16.169057
15.399736
14.900944
14.142389
13.633144
12.884721
12.365682
11.626708
11.098583
10.368319
9.8318761
9.1095278
8.5655883
7.8503055
7.2997453
6.5906277
6.0343698
5.3304732
4.7694813
4.0698243
3.5050951
2.8086673
2.2412222
1.5469897
0.97786279
0.28477761
32.432229
30.937274
30.350124
29.295172
28.906699
27.970442
27.604816
26.704206
26.327883
25.447823
25.055398
24.19273
23.784379
22.937554
22.514157
21.682054
21.244455
20.426204
19.975143
19.170029
18.706154
17.913553
17.437459
16.656791
16.169051
15.399742
14.900939
14.142394
13.63314
12.884726
12.365678
11.626712
11.098579
10.368323
9.8318724
9.1095313
8.565585
7.8503087
7.2997422
6.5906307
6.0343669
5.330476
4.7694785
4.0698269
3.5050925
2.8086699
2.2412197
1.5469921
0.97786021
0.28478193
32.416751
30.936315
30.350951
29.295116
28.906698
27.970447
27.604825
26.704204
26.327885
25.447822
25.0554
24.192728
23.78438
22.937553
22.514158
21.682053
21.244457
20.426203
19.975144
19.170028
18.706155
17.913552
17.43746
16.65679
16.169052
15.399741
14.90094
14.142393
13.633141
12.884725
12.365678
11.626711
11.09858
10.368322
9.8318731
9.1095306
8.5655856
7.8503081
7.2997428
6.5906301
6.0343675
5.3304755
4.7694791
4.0698264
3.505093
2.8086694
2.2412202
1.5469916
0.97786042
0.28478326
32.394961
30.934471
30.351818
29.295038
28.9067
27.97045
27.604837
26.704199
26.327891
25.447816
25.055406
24.192723
23.784385
22.937548
22.514163
21.682048
21.244461
20.426199
19.975148
19.170024
18.706159
17.913548
17.437463
16.656786
16.169055
15.399738
14.900943
14.14239
13.633143
12.884722
12.365681
11.626708
11.098582
10.36832
9.8318753
9.1095285
8.5655876
7.8503061
7.2997447
6.5906283
6.0343693
5.3304738
4.7694807
4.0698248
3.5050946
2.8086678
2.2412217
1.54699
0.97786173
0.28478333
32.378074
30.933133
30.352619
29.294935
28.9067
27.970455
27.604847
26.704193
26.327897
25.447811
25.055411
24.192719
23.78439
22.937543
22.514167
21.682044
21.244465
20.426195
19.975152
19.17002
18.706162
17.913545
17.437466
16.656783
16.169058
15.399735
14.900945
14.142387
13.633146
12.88472
12.365683
11.626706
11.098584
10.368318
9.8318772
9.1095267
8.5655894
7.8503044
7.2997464
6.5906267
6.0343708
5.3304723
4.7694822
4.0698233
3.505096
2.8086664
2.2412231
1.5469886
0.97786299
0.28478327
32.362451
30.930773
30.353226
29.294814
28.906704
27.970461
27.604853
26.704189
26.3279
25.447807
25.055414
24.192715
23.784393
22.93754
22.51417
21.682041
21.244468
20.426192
19.975155
19.170018
18.706165
17.913543
17.437469
16.656781
16.16906
15.399733
14.900947
14.142385
13.633148
12.884718
12.365685
11.626705
11.098586
10.368317
9.8318787
9.1095252
8.5655908
7.8503031
7.2997476
6.5906255
6.034372
5.3304711
4.7694833
4.0698222
3.5050971
2.8086653
2.2412241
1.5469874
0.97786403
0.28478327
32.340161
30.928999
30.353731
29.29467
28.906716
27.970469
27.604858
26.704185
26.327903
25.447804
25.055417
24.192712
23.784396
22.937537
22.514173
21.682039
21.24447
20.42619
19.975157
19.170016
18.706167
17.913541
17.437471
16.656779
16.169062
15.399731
14.900949
14.142384
13.633149
12.884717
12.365686
11.626703
11.098587
10.368315
9.8318799
9.1095241
8.5655919
7.850302
7.2997487
6.5906245
6.034373
5.3304701
4.7694843
4.0698213
3.505098
2.8086644
2.241225
1.5469864
0.97786495
0.28478327
32.324678
30.927253
30.354036
29.294538
28.906746
27.970476
27.604862
26.70418
26.327905
25.447801
25.05542
24.19271
23.784398
22.937535
22.514175
21.682037
21.244472
20.426188
19.975159
19.170014
18.706168
17.913539
17.437472
16.656778
16.169064
15.399729
14.900951
14.142382
13.633151
12.884715
12.365688
11.626702
11.098588
10.368314
9.831881
9.109523
8.5655929
7.8503011
7.2997496
6.5906236
6.0343739
5.3304693
4.7694851
4.0698205
3.5050988
2.8086637
2.2412258
1.5469856
0.97786581
0.28478323
32.306152
30.925934
30.354099
29.2945
28.906808
27.970485
27.604866
26.704176
26.327907
25.447798
25.055422
24.192708
23.784401
22.937533
22.514177
21.682035
21.244474
20.426186
19.97516
19.170012
18.70617
17.913537
17.437474
16.656776
16.169065
15.399728
14.900952
14.142381
13.633152
12.884714
12.365689
11.626701
11.098589
10.368313
9.8318819
9.1095221
8.5655937
7.8503002
7.2997504
6.5906228
6.0343747
5.3304685
4.7694858
4.0698198
3.5050995
2.8086629
2.2412265
1.5469848
0.97786661
0.28478317
32.292931
30.924344
30.354044
29.294471
28.906865
27.970487
27.604866
26.704171
26.327908
25.447796
25.055423
24.192706
23.784402
22.937531
22.514179
21.682033
21.244476
20.426185
19.975162
19.170011
18.706171
17.913536
17.437475
16.656775
16.169066
15.399727
14.900953
14.14238
13.633153
12.884713
12.36569
11.6267
11.09859
10.368312
9.8318827
9.1095213
8.5655945
7.8502995
7.2997511
6.5906221
6.0343753
5.3304678
4.7694865
4.0698191
3.5051001
2.8086623
2.2412271
1.5469841
0.97786737
0.28478309
32.276781
30.92234
30.354135
29.294263
28.90686
27.970471
27.60486
26.704165
26.327908
25.447793
25.055425
24.192704
23.784404
22.93753
22.51418
21.682032
21.244477
20.426183
19.975163
19.170009
18.706173
17.913535
17.437476
16.656774
16.169067
15.399726
14.900954
14.142379
13.633154
12.884712
12.36569
11.626699
11.098591
10.368312
9.8318835
9.1095206
8.5655952
7.8502988
7.2997518
6.5906214
6.034376
5.3304672
4.7694871
4.0698185
3.5051007
2.8086617
2.2412277
1.5469834
0.97786809
0.284783
32.265536
30.920431
30.353838
29.293976
28.906821
27.970444
27.60485
26.704158
26.327908
25.447791
25.055426
24.192702
23.784405
22.937528
22.514181
21.68203
21.244479
20.426182
19.975164
19.170008
18.706174
17.913534
17.437477
16.656773
16.169068
15.399725
14.900955
14.142378
13.633154
12.884711
12.365691
11.626699
11.098592
10.368311
9.8318841
9.10952
8.5655958
7.8502982
7.2997524
6.5906209
6.0343765
5.3304667
4.7694876
4.069818
3.5051012
2.8086612
2.2412282
1.5469829
0.97786878
0.2847829
32.251806
30.917993
30.353106
29.293695
28.906764
27.970411
27.604837
26.70415
26.327907
25.447788
25.055427
24.192701
23.784406
22.937527
22.514183
21.682029
21.24448
20.426181
19.975165
19.170007
18.706175
17.913533
17.437478
16.656772
16.169069
15.399724
14.900956
14.142377
13.633155
12.884711
12.365692
11.626698
11.098592
10.36831
9.8318847
9.1095194
8.5655964
7.8502977
7.2997529
6.5906204
6.034377
5.3304662
4.7694881
4.0698175
3.5051017
2.8086608
2.2412286
1.5469824
0.97786943
0.28478279
32.242787
30.915713
30.352152
29.293429
28.906706
27.970379
27.604824
26.704142
26.327905
25.447786
25.055428
24.192699
23.784407
22.937526
22.514184
21.682028
21.244481
20.42618
19.975166
19.170006
18.706175
17.913532
17.437479
16.656771
16.16907
15.399724
14.900956
14.142377
13.633156
12.88471
12.365692
11.626697
11.098593
10.36831
9.8318852
9.1095189
8.5655969
7.8502972
7.2997534
6.5906199
6.0343775
5.3304658
4.7694885
4.0698171
3.5051021
2.8086603
2.241229
1.5469819
0.97787004
0.28478268
32.23222
30.912672
30.350713
29.29335
28.906689
27.970357
27.604814
26.704135
26.327904
25.447784
25.055428
24.192698
23.784408
22.937525
22.514185
21.682027
21.244481
20.426179
19.975167
19.170006
18.706176
17.913531
17.43748
16.656771
16.16907
15.399723
14.900957
14.142376
13.633156
12.88471
12.365693
11.626697
11.098593
10.368309
9.8318857
9.1095184
8.5655973
7.8502967
7.2997538
6.5906195
6.0343779
5.3304654
4.7694889
4.0698167
3.5051025
2.8086599
2.2412294
1.5469815
0.97787063
0.28478257
32.223625
30.910177
30.348936
29.293385
28.906667
27.97033
27.604799
26.704127
26.327901
25.447781
25.055428
24.192697
23.784409
22.937524
22.514185
21.682026
21.244482
20.426179
19.975168
19.170005
18.706177
17.913531
17.43748
16.65677
16.169071
15.399722
14.900957
14.142376
13.633157
12.884709
12.365693
11.626696
11.098594
10.368309
9.8318862
9.109518
8.5655978
7.8502963
7.2997542
6.5906191
6.0343783
5.330465
4.7694893
4.0698163
3.5051029
2.8086596
2.2412298
1.5469811
0.97787119
0.28478246
32.217174
30.907133
30.347491
29.293163
28.906525
27.97027
27.604772
26.704113
26.327897
25.447778
25.055428
24.192695
23.78441
22.937523
22.514186
21.682026
21.244483
20.426178
19.975168
19.170004
18.706177
17.91353
17.437481
16.656769
16.169072
15.399722
14.900958
14.142375
13.633157
12.884709
12.365694
11.626696
11.098594
10.368308
9.8318866
9.1095176
8.5655981
7.8502959
7.2997546
6.5906187
6.0343786
5.3304646
4.7694897
4.069816
3.5051032
2.8086592
2.2412301
1.5469807
0.97787172
0.28478235
32.207832
30.904166
30.346656
29.29261
28.906281
27.970191
27.604735
26.704097
26.327891
25.447774
25.055428
24.192694
23.78441
22.937522
22.514187
21.682025
21.244483
20.426177
19.975169
19.170004
18.706178
17.91353
17.437481
16.656769
16.169072
15.399721
14.900958
14.142375
13.633158
12.884708
12.365694
11.626695
11.098595
10.368308
9.8318869
9.1095172
8.5655985
7.8502956
7.2997549
6.5906184
6.0343789
5.3304643
4.76949
4.0698157
3.5051035
2.8086589
2.2412304
1.5469804
0.97787223
0.28478224
32.201431
30.901143
30.345949
29.29205
28.906058
27.970128
27.604703
26.704083
26.327885
25.447771
25.055427
24.192693
23.78441
22.937521
22.514187
21.682024
21.244484
20.426177
19.97517
19.170003
18.706178
17.913529
17.437482
16.656768
16.169072
15.399721
14.900959
14.142374
13.633158
12.884708
12.365695
11.626695
11.098595
10.368308
9.8318873
9.1095169
8.5655988
7.8502953
7.2997552
6.5906181
6.0343792
5.330464
4.7694903
4.0698154
3.5051038
2.8086586
2.2412306
1.5469801
0.97787271
0.28478214
32.194228
30.89859
30.345035
29.291663
28.905901
27.97009
27.604682
26.704072
26.327881
25.447768
25.055426
24.192691
23.784411
22.937521
22.514188
21.682024
21.244485
20.426176
19.97517
19.170003
18.706179
17.913529
17.437482
16.656768
16.169073
15.39972
14.900959
14.142374
13.633159
12.884707
12.365695
11.626695
11.098595
10.368307
9.8318876
9.1095166
8.5655991
7.850295
7.2997555
6.5906178
6.0343795
5.3304638
4.7694905
4.0698151
3.5051041
2.8086584
2.2412309
1.5469799
0.97787317
0.28478204
32.189457
30.89616
30.344006
29.291365
28.905777
27.970066
27.604668
26.704066
26.327879
25.447766
25.055426
24.19269
23.784411
22.93752
22.514188
21.682023
21.244485
20.426176
19.97517
19.170002
18.706179
17.913528
17.437483
16.656768
16.169073
15.39972
14.900959
14.142374
13.633159
12.884707
12.365695
11.626694
11.098596
10.368307
9.8318879
9.1095163
8.5655994
7.8502947
7.2997558
6.5906175
6.0343798
5.3304635
4.7694908
4.0698149
3.5051043
2.8086581
2.2412311
1.5469796
0.9778736
0.28478194
32.1838
30.89406
30.34301
29.291086
28.905664
27.970047
27.604657
26.704063
26.327877
25.447765
25.055426
24.192689
23.784411
22.937519
22.514188
21.682023
21.244485
20.426175
19.975171
19.170002
18.70618
17.913528
17.437483
16.656767
16.169074
15.39972
14.90096
14.142373
13.633159
12.884707
12.365696
11.626694
11.098596
10.368307
9.8318881
9.1095161
8.5655996
7.8502945
7.299756
6.5906173
6.03438
5.3304633
4.769491
4.0698147
3.5051045
2.8086579
2.2412313
1.5469794
0.97787401
0.28478185
32.18003
30.892075
30.342098
29.290818
28.905557
27.970029
27.604648
26.704062
26.327876
25.447764
25.055426
24.192689
23.784411
22.937519
22.514189
21.682022
21.244486
20.426175
19.975171
19.170001
18.70618
17.913528
17.437483
16.656767
16.169074
15.399719
14.90096
14.142373
13.63316
12.884707
12.365696
11.626694
11.098596
10.368307
9.8318884
9.1095158
8.5655999
7.8502942
7.2997562
6.5906171
6.0343802
5.3304631
4.7694912
4.0698145
3.5051047
2.8086577
2.2412315
1.5469792
0.9778744
0.28478177
32.175602
30.89034
30.341281
29.290573
28.905459
27.970012
27.604637
26.704064
26.327876
25.447763
25.055426
24.192688
23.784411
22.937518
22.514189
21.682022
21.244486
20.426175
19.975171
19.170001
18.70618
17.913527
17.437483
16.656767
16.169074
15.399719
14.90096
14.142373
13.63316
12.884706
12.365696
11.626694
11.098596
10.368306
9.8318886
9.1095156
8.5656001
7.850294
7.2997565
6.5906169
6.0343804
5.3304628
4.7694914
4.0698143
3.5051049
2.8086575
2.2412317
1.5469791
0.97787476
0.28478169
32.172629
30.888759
30.340549
29.290356
28.905373
27.969996
27.604625
26.704067
26.327876
25.447763
25.055426
24.192687
23.784412
22.937518
22.514189
21.682021
21.244486
20.426174
19.975172
19.170001
18.706181
17.913527
17.437484
16.656766
16.169074
15.399719
14.900961
14.142372
13.63316
12.884706
12.365696
11.626693
11.098597
10.368306
9.8318888
9.1095154
8.5656003
7.8502938
7.2997566
6.5906167
6.0343806
5.3304627
4.7694916
4.0698141
3.5051051
2.8086573
2.2412319
1.5469789
0.97787511
0.28478161
32.169169
30.88737
30.339901
29.290168
28.9053
27.969984
27.604612
26.704072
26.327877
25.447763
25.055426
24.192687
23.784412
22.937517
22.514189
21.682021
21.244486
20.426174
19.975172
19.170001
18.706181
17.913527
17.437484
16.656766
16.169075
15.399719
14.900961
14.142372
13.63316
12.884706
12.365697
11.626693
11.098597
10.368306
9.831889
9.1095152
8.5656005
7.8502936
7.2997568
6.5906165
6.0343808
5.3304625
4.7694918
4.0698139
3.5051053
2.8086572
2.241232
1.5469788
0.97787542
0.28478155
32.166826
30.886156
30.339336
29.290007
28.905239
27.969975
27.604598
26.704079
26.327878
25.447763
25.055426
24.192686
23.784412
22.937517
22.514189
21.682021
21.244487
20.426174
19.975172
19.17
18.706181
17.913527
17.437484
16.656766
16.169075
15.399719
14.900961
14.142372
13.63316
12.884706
12.365697
11.626693
11.098597
10.368306
9.8318892
9.109515
8.5656006
7.8502935
7.299757
6.5906163
6.034381
5.3304623
4.7694919
4.0698138
3.5051054
2.808657
2.2412322
1.5469786
0.97787572
0.28478148
32.164149
30.885079
30.338845
29.289872
28.905188
27.969969
27.604583
26.704087
26.32788
25.447763
25.055426
24.192686
23.784412
22.937516
22.51419
21.68202
21.244487
20.426173
19.975172
19.17
18.706181
17.913526
17.437484
16.656766
16.169075
15.399718
14.900961
14.142372
13.633161
12.884705
12.365697
11.626693
11.098597
10.368306
9.8318894
9.1095149
8.5656008
7.8502933
7.2997571
6.5906162
6.0343811
5.3304622
4.7694921
4.0698136
3.5051056
2.8086569
2.2412323
1.5469785
0.97787599
0.28478143
32.162293
30.88418
30.33843
29.289763
28.905147
27.969967
27.604567
26.704094
26.327882
25.447764
25.055427
24.192686
23.784412
22.937516
22.51419
21.68202
21.244487
20.426173
19.975173
19.17
18.706181
17.913526
17.437485
16.656766
16.169075
15.399718
14.900961
14.142372
13.633161
12.884705
12.365697
11.626693
11.098597
10.368305
9.8318895
9.1095147
8.5656009
7.8502932
7.2997573
6.5906161
6.0343812
5.3304621
4.7694922
4.0698135
3.5051057
2.8086567
2.2412324
1.5469784
0.97787624
0.28478138
32.160259
30.883361
30.338076
29.289675
28.905115
27.969968
27.604551
26.704102
26.327884
25.447765
25.055427
24.192685
23.784412
22.937516
22.51419
21.68202
21.244487
20.426173
19.975173
19.17
18.706182
17.913526
17.437485
16.656765
16.169075
15.399718
14.900962
14.142372
13.633161
12.884705
12.365697
11.626693
11.098597
10.368305
9.8318896
9.1095146
8.5656011
7.8502931
7.2997574
6.5906159
6.0343814
5.3304619
4.7694923
4.0698134
3.5051058
2.8086566
2.2412325
1.5469784
0.97787646
0.28478133
32.158698
30.882692
30.33779
29.289608
28.905091
27.969972
27.604537
26.704109
26.327886
25.447766
25.055428
24.192685
23.784412
22.937515
22.51419
21.68202
21.244487
20.426173
19.975173
19.17
18.706182
17.913526
17.437485
16.656765
16.169075
15.399718
14.900962
14.142371
13.633161
12.884705
12.365697
11.626693
11.098598
10.368305
9.8318898
9.1095145
8.5656012
7.8502929
7.2997575
6.5906158
6.0343815
5.3304618
4.7694924
4.0698133
3.5051059
2.8086565
2.2412326
1.5469783
0.97787666
0.28478129
32.15719
30.882105
30.337555
29.28956
28.905075
27.969977
27.604524
26.704114
26.327887
25.447768
25.055428
24.192685
23.784412
22.937515
22.51419
21.682019
21.244487
20.426173
19.975173
19.169999
18.706182
17.913526
17.437485
16.656765
16.169076
15.399718
14.900962
14.142371
13.633161
12.884705
12.365697
11.626692
11.098598
10.368305
9.8318899
9.1095144
8.5656013
7.8502928
7.2997576
6.5906157
6.0343816
5.3304617
4.7694925
4.0698132
3.505106
2.8086564
2.2412327
1.5469782
0.97787683
0.28478126
32.15592
30.881621
30.337382
29.289532
28.905067
27.969984
27.604515
26.704119
26.327888
25.447771
25.055429
24.192685
23.784412
22.937515
22.51419
21.682019
21.244487
20.426173
19.975173
19.169999
18.706182
17.913526
17.437485
16.656765
16.169076
15.399718
14.900962
14.142371
13.633161
12.884705
12.365698
11.626692
11.098598
10.368305
9.83189
9.1095143
8.5656014
7.8502927
7.2997577
6.5906156
6.0343817
5.3304616
4.7694926
4.0698131
3.5051061
2.8086563
2.2412328
1.5469782
0.97787697
0.28478124
32.154806
30.881247
30.337256
29.289519
28.905066
27.969993
27.604508
26.704123
26.327889
25.447773
25.05543
24.192685
23.784412
22.937515
22.51419
21.682019
21.244487
20.426172
19.975173
19.169999
18.706182
17.913525
17.437485
16.656765
16.169076
15.399718
14.900962
14.142371
13.633161
12.884705
12.365698
11.626692
11.098598
10.368305
9.83189
9.1095142
8.5656015
7.8502927
7.2997578
6.5906156
6.0343817
5.3304616
4.7694927
4.069813
3.5051062
2.8086563
2.2412328
1.5469781
0.97787709
0.28478122
32.153903
30.88092
30.337179
29.289521
28.905071
27.970002
27.604504
26.704126
26.327888
25.447776
25.055431
24.192685
23.784412
22.937514
22.51419
21.682019
21.244487
20.426172
19.975173
19.169999
18.706182
17.913525
17.437485
16.656765
16.169076
15.399718
14.900962
14.142371
13.633161
12.884705
12.365698
11.626692
11.098598
10.368305
9.8318901
9.1095141
8.5656015
7.8502926
7.2997578
6.5906155
6.0343818
5.3304615
4.7694927
4.069813
3.5051062
2.8086562
2.2412329
1.5469781
0.97787717
0.28478122
32.153105
30.880717
30.337136
29.289532
28.90508
27.970011
27.604502
26.704129
26.327888
25.447779
25.055432
24.192685
23.784412
22.937514
22.51419
21.682019
21.244487
20.426172
19.975173
19.169999
18.706182
17.913525
17.437485
16.656765
16.169076
15.399717
14.900962
14.142371
13.633161
12.884705
12.365698
11.626692
11.098598
10.368305
9.8318902
9.1095141
8.5656016
7.8502926
7.2997579
6.5906155
6.0343818
5.3304615
4.7694928
4.0698129
3.5051063
2.8086562
2.2412329
1.5469781
0.97787721
0.28478122
32.152599
30.880504
30.337123
29.289551
28.905092
27.97002
27.604502
26.704131
26.327887
25.447781
25.055433
24.192686
23.784412
22.937514
22.51419
21.682018
21.244487
20.426172
19.975173
19.169999
18.706182
17.913525
17.437485
16.656765
16.169076
15.399717
14.900962
14.142371
13.633161
12.884705
12.365698
11.626692
11.098598
10.368305
9.8318902
9.1095141
8.5656016
7.8502925
7.2997579
6.5906154
6.0343819
5.3304614
4.7694928
4.0698129
3.5051063
2.8086561
2.2412329
1.546978
0.97787722
0.28478124
32.15211
30.880411
30.337125
29.289569
28.905104
27.970027
27.604502
26.704132
26.327887
25.447782
25.055434
24.192686
23.784412
22.937514
22.51419
21.682018
21.244487
20.426172
19.975173
19.169999
18.706182
17.913525
17.437485
16.656765
16.169076
15.399717
14.900962
14.142371
13.633162
12.884705
12.365698
11.626692
11.098598
10.368305
9.8318902
9.109514
8.5656016
7.8502925
7.2997579
6.5906154
6.0343819
5.3304614
4.7694928
4.0698129
3.5051063
2.8086561
2.2412329
1.546978
0.9778772
0.28478127
32.151976
30.880277
30.337135
29.289586
28.905114
27.970032
27.604504
26.704133
26.327887
25.447782
25.055436
24.192686
23.784412
22.937514
22.514189
21.682018
21.244487
20.426172
19.975173
19.169999
18.706182
17.913525
17.437485
16.656765
16.169076
15.399717
14.900962
14.142371
13.633162
12.884705
12.365698
11.626692
11.098598
10.368305
9.8318902
9.109514
8.5656016
7.8502925
7.2997579
6.5906154
6.0343819
5.3304614
4.7694928
4.0698129
3.5051063
2.8086561
2.2412329
1.546978
0.97787716
0.2847813
32.15174
30.880291
30.337142
29.289595
28.90512
27.970035
27.604504
26.704133
26.327888
25.447781
25.055437
24.192686
23.784412
22.937514
22.514189
21.682018
21.244487
20.426172
19.975173
19.169999
18.706182
17.913525
17.437485
16.656765
16.169076
15.399717
14.900962
14.142371
13.633161
12.884705
12.365698
11.626692
11.098598
10.368305
9.8318902
9.1095141
8.5656016
7.8502925
7.2997579
6.5906154
6.0343819
5.3304614
4.7694928
4.0698129
3.5051063
2.8086562
2.2412329
1.546978
0.97787714
0.28478132
32.151881
30.880231
30.337144
29.289596
28.905121
27.970035
27.604504
26.704133
26.327888
25.447781
25.055437
24.192686
23.784412
22.937514
22.514189
21.682018
21.244487
20.426172
19.975173
19.169999
18.706182
17.913525
17.437485
16.656765
16.169076
15.399717
14.900962
14.142371
13.633161
12.884705
12.365698
11.626692
11.098598
10.368305
9.8318902
9.1095141
8.5656016
7.8502925
7.2997579
6.5906154
6.0343819
5.3304614
4.7694928
4.0698129
3.5051063
2.8086562
2.2412329
1.546978
0.97787714
0.28478132
32.151837
30.880324
30.337141
29.289586
28.905116
27.970033
27.604504
26.704133
26.327887
25.447782
25.055436
24.192686
23.784412
22.937514
22.514189
21.682018
21.244487
20.426172
19.975173
19.169999
18.706182
17.913525
17.437485
16.656765
16.169076
15.399717
14.900962
14.142371
13.633162
12.884705
12.365698
11.626692
11.098598
10.368305
9.8318902
9.109514
8.5656016
7.8502925
7.2997579
6.5906154
6.0343819
5.3304614
4.7694928
4.0698129
3.5051063
2.8086561
2.2412329
1.546978
0.97787717
0.2847813
32.152238
30.880352
30.337135
29.28957
28.905107
27.970028
27.604502
26.704132
26.327887
25.447782
25.055434
24.192686
23.784412
22.937514
22.51419
21.682018
21.244487
20.426172
19.975173
19.169999
18.706182
17.913525
17.437485
16.656765
16.169076
15.399717
14.900962
14.142371
13.633162
12.884705
12.365698
11.626692
11.098598
10.368305
9.8318902
9.109514
8.5656016
7.8502925
7.2997579
6.5906154
6.0343819
5.3304614
4.7694928
4.0698129
3.5051063
2.8086561
2.2412329
1.546978
0.9778772
0.28478127
32.152438
30.880566
30.337139
29.289551
28.905096
27.970021
27.604501
26.704131
26.327887
25.447781
25.055433
24.192686
23.784412
22.937514
22.51419
21.682018
21.244487
20.426172
19.975173
19.169999
18.706182
17.913525
17.437485
16.656765
16.169076
15.399717
14.900962
14.142371
13.633161
12.884705
12.365698
11.626692
11.098598
10.368305
9.8318902
9.1095141
8.5656016
7.8502925
7.2997579
6.5906154
6.0343819
5.3304614
4.7694928
4.0698129
3.5051063
2.8086561
2.2412329
1.546978
0.97787723
0.28478124
32.153205
30.880677
30.337158
29.289535
28.905086
27.970013
27.604502
26.704129
26.327888
25.447779
25.055432
24.192685
23.784412
22.937514
22.51419
21.682019
21.244487
20.426172
19.975173
19.169999
18.706182
17.913525
17.437485
16.656765
16.169076
15.399717
14.900962
14.142371
13.633161
12.884705
12.365698
11.626692
11.098598
10.368305
9.8318902
9.1095141
8.5656016
7.8502926
7.2997579
6.5906155
6.0343818
5.3304615
4.7694928
4.0698129
3.5051062
2.8086562
2.2412329
1.5469781
0.97787722
0.28478122
32.15372
30.880993
30.337206
29.289524
28.905078
27.970004
27.604504
26.704126
26.327888
25.447776
25.055431
24.192685
23.784412
22.937514
22.51419
21.682019
21.244487
20.426172
19.975173
19.169999
18.706182
17.913525
17.437485
16.656765
16.169076
15.399718
14.900962
14.142371
13.633161
12.884705
12.365698
11.626692
11.098598
10.368305
9.8318901
9.1095142
8.5656015
7.8502926
7.2997578
6.5906155
6.0343818
5.3304615
4.7694927
4.069813
3.5051062
2.8086562
2.2412329
1.5469781
0.97787717
0.28478122
32.154892
30.881219
30.337288
29.289524
28.905075
27.969996
27.604508
26.704123
26.327889
25.447773
25.05543
24.192685
23.784412
22.937515
22.51419
21.682019
21.244487
20.426172
19.975173
19.169999
18.706182
17.913525
17.437485
16.656765
16.169076
15.399718
14.900962
14.142371
13.633161
12.884705
12.365698
11.626692
11.098598
10.368305
9.83189
9.1095142
8.5656015
7.8502927
7.2997578
6.5906156
6.0343817
5.3304616
4.7694927
4.069813
3.5051062
2.8086563
2.2412328
1.5469781
0.97787709
0.28478122
32.155708
30.881697
30.33742
29.289538
28.905078
27.969988
27.604515
26.704119
26.327888
25.44777
25.055429
24.192685
23.784412
22.937515
22.51419
21.682019
21.244487
20.426173
19.975173
19.169999
18.706182
17.913526
17.437485
16.656765
16.169076
15.399718
14.900962
14.142371
13.633161
12.884705
12.365698
11.626692
11.098598
10.368305
9.83189
9.1095143
8.5656014
7.8502927
7.2997577
6.5906156
6.0343817
5.3304616
4.7694926
4.0698131
3.5051061
2.8086563
2.2412328
1.5469782
0.97787698
0.28478124
32.157296
30.882087
30.3376
29.28957
28.905088
27.969981
27.604524
26.704114
26.327887
25.447768
25.055428
24.192685
23.784412
22.937515
22.51419
21.682019
21.244487
20.426173
19.975173
19.169999
18.706182
17.913526
17.437485
16.656765
16.169076
15.399718
14.900962
14.142371
13.633161
12.884705
12.365697
11.626692
11.098598
10.368305
9.8318899
9.1095144
8.5656013
7.8502928
7.2997576
6.5906157
6.0343816
5.3304617
4.7694925
4.0698132
3.505106
2.8086564
2.2412327
1.5469782
0.97787683
0.28478126
32.158441
30.882781
30.337841
29.289619
28.905106
27.969976
27.604536
26.704108
26.327886
25.447766
25.055428
24.192685
23.784412
22.937515
22.51419
21.68202
21.244487
20.426173
19.975173
19.17
18.706182
17.913526
17.437485
16.656765
16.169075
15.399718
14.900962
14.142371
13.633161
12.884705
12.365697
11.626693
11.098598
10.368305
9.8318898
9.1095145
8.5656012
7.8502929
7.2997575
6.5906158
6.0343815
5.3304618
4.7694924
4.0698133
3.5051059
2.8086565
2.2412326
1.5469783
0.97787666
0.28478129
32.160329
30.883337
30.338132
29.289688
28.905132
27.969973
27.604551
26.704102
26.327884
25.447764
25.055427
24.192685
23.784412
22.937516
22.51419
21.68202
21.244487
20.426173
19.975173
19.17
18.706182
17.913526
17.437485
16.656765
16.169075
15.399718
14.900962
14.142372
13.633161
12.884705
12.365697
11.626693
11.098597
10.368305
9.8318896
9.1095146
8.5656011
7.8502931
7.2997574
6.5906159
6.0343814
5.3304619
4.7694923
4.0698134
3.5051058
2.8086566
2.2412325
1.5469784
0.97787646
0.28478133
32.162004
30.884277
30.338491
29.289776
28.905165
27.969973
27.604566
26.704094
26.327882
25.447763
25.055427
24.192685
23.784412
22.937516
22.51419
21.68202
21.244487
20.426173
19.975173
19.17
18.706181
17.913526
17.437485
16.656766
16.169075
15.399718
14.900961
14.142372
13.633161
12.884705
12.365697
11.626693
11.098597
10.368305
9.8318895
9.1095147
8.5656009
7.8502932
7.2997573
6.5906161
6.0343812
5.3304621
4.7694922
4.0698135
3.5051057
2.8086567
2.2412324
1.5469784
0.97787624
0.28478138
32.164145
30.885034
30.338905
29.289888
28.905208
27.969975
27.604582
26.704086
26.327879
25.447762
25.055426
24.192686
23.784412
22.937516
22.51419
21.68202
21.244487
20.426173
19.975172
19.17
18.706181
17.913526
17.437484
16.656766
16.169075
15.399718
14.900961
14.142372
13.633161
12.884705
12.365697
11.626693
11.098597
10.368306
9.8318894
9.1095149
8.5656008
7.8502933
7.2997571
6.5906162
6.0343811
5.3304622
4.7694921
4.0698136
3.5051056
2.8086569
2.2412323
1.5469785
0.97787599
0.28478143
32.166512
30.886244
30.339396
29.290021
28.90526
27.969981
27.604598
26.704079
26.327878
25.447762
25.055426
24.192686
23.784412
22.937517
22.514189
21.682021
21.244487
20.426174
19.975172
19.17
18.706181
17.913527
17.437484
16.656766
16.169075
15.399719
14.900961
14.142372
13.63316
12.884706
12.365697
11.626693
11.098597
10.368306
9.8318892
9.109515
8.5656006
7.8502935
7.299757
6.5906163
6.034381
5.3304623
4.7694919
4.0698138
3.5051054
2.808657
2.2412322
1.5469786
0.97787572
0.28478148
32.169096
30.887302
30.339961
29.290183
28.905323
27.969991
27.604612
26.704072
26.327877
25.447762
25.055426
24.192687
23.784412
22.937517
22.514189
21.682021
21.244486
20.426174
19.975172
19.170001
18.706181
17.913527
17.437484
16.656766
16.169075
15.399719
14.900961
14.142372
13.63316
12.884706
12.365697
11.626693
11.098597
10.368306
9.831889
9.1095152
8.5656005
7.8502936
7.2997568
6.5906165
6.0343808
5.3304625
4.7694918
4.0698139
3.5051053
2.8086571
2.241232
1.5469788
0.97787543
0.28478155
32.172261
30.888823
30.340601
29.290368
28.905397
27.970004
27.604625
26.704067
26.327876
25.447762
25.055426
24.192687
23.784412
22.937518
22.514189
21.682021
21.244486
20.426174
19.975172
19.170001
18.706181
17.913527
17.437484
16.656766
16.169074
15.399719
14.900961
14.142372
13.63316
12.884706
12.365696
11.626693
11.098597
10.368306
9.8318888
9.1095154
8.5656003
7.8502938
7.2997566
6.5906167
6.0343806
5.3304627
4.7694916
4.0698141
3.5051051
2.8086573
2.2412319
1.5469789
0.97787511
0.28478161
32.175442
30.89024
30.341329
29.290584
28.905484
27.97002
27.604637
26.704063
26.327876
25.447763
25.055426
24.192688
23.784411
22.937518
22.514189
21.682022
21.244486
20.426175
19.975171
19.170001
18.70618
17.913527
17.437483
16.656767
16.169074
15.399719
14.90096
14.142373
13.63316
12.884706
12.365696
11.626694
11.098596
10.368306
9.8318886
9.1095156
8.5656001
7.850294
7.2997565
6.5906169
6.0343804
5.3304629
4.7694914
4.0698143
3.5051049
2.8086575
2.2412317
1.5469791
0.97787477
0.28478169
32.1796
30.892101
30.342127
29.290822
28.905582
27.970038
27.604648
26.704062
26.327876
25.447763
25.055426
24.192689
23.784411
22.937519
22.514189
21.682022
21.244486
20.426175
19.975171
19.170001
18.70618
17.913528
17.437483
16.656767
16.169074
15.399719
14.90096
14.142373
13.63316
12.884707
12.365696
11.626694
11.098596
10.368307
9.8318884
9.1095158
8.5655999
7.8502942
7.2997562
6.5906171
6.0343802
5.3304631
4.7694912
4.0698145
3.5051047
2.8086577
2.2412315
1.5469792
0.97787441
0.28478177
32.183542
30.893904
30.343031
29.291086
28.905689
27.970056
27.604658
26.704063
26.327877
25.447764
25.055426
24.192689
23.784411
22.937519
22.514188
21.682023
21.244485
20.426175
19.975171
19.170002
18.70618
17.913528
17.437483
16.656767
16.169074
15.39972
14.90096
14.142373