/*--------------------------------*- C++ -*----------------------------------*\
| =========                 |                                                 |
| \\      /  F ield         | OpenFOAM: The Open Source CFD Toolbox           |
|  \\    /   O peration     | Version:  2312                                  |
|   \\  /    A nd           | Website:  www.openfoam.com                      |
|    \\/     M anipulation  |                                                 |
\*---------------------------------------------------------------------------*/
FoamFile
{
    version     2.0;
    format      ascii;
    arch        "LSB;label=32;scalar=64";
    class       surfaceScalarField;
    location    "1";
    object      phi_0;
}
// * * * * * * * * * * * * * * * * * * * * * * * * * * * * * * * * * * * * * //

dimensions      [0 3 -1 0 0 0 0];

oriented        oriented;

internalField   nonuniform List<scalar> 
7870
(
1.3262395e-10
2.8156261e-09
1.3335485e-10
-7.3091283e-13
1.1286947e-10
2.0485377e-11
1.1352232e-10
-6.528571e-13
1.1443324e-10
-9.1092335e-13
1.1272093e-10
1.7123132e-12
1.1395592e-10
-1.2349847e-12
1.1248617e-10
1.4697621e-12
1.138832e-10
-1.397028e-12
1.1248932e-10
1.3938895e-12
1.138258e-10
-1.3364741e-12
1.1252342e-10
1.3023884e-12
1.1377627e-10
-1.2528533e-12
1.1256231e-10
1.2139674e-12
1.1373269e-10
-1.1703801e-12
1.1260138e-10
1.1313007e-12
1.1369255e-10
-1.0911705e-12
1.1263938e-10
1.0531768e-12
1.1365468e-10
-1.0153011e-12
1.1267598e-10
9.7869497e-13
1.1361854e-10
-9.4256106e-13
1.1271115e-10
9.0738757e-13
1.1358398e-10
-8.7283273e-13
1.1274483e-10
8.3914968e-13
1.1355098e-10
-8.0615331e-13
1.1277694e-10
7.7404319e-13
1.1351964e-10
-7.4270156e-13
1.1280734e-10
7.1229694e-13
1.1349009e-10
-6.8274838e-13
1.1283588e-10
6.5421103e-13
1.134625e-10
-6.266238e-13
1.1286237e-10
6.0012712e-13
1.1343705e-10
-5.7467716e-13
1.1288664e-10
5.5040946e-13
1.1341391e-10
-5.272779e-13
1.1290851e-10
5.0540163e-13
1.1339327e-10
-4.8475571e-13
1.1292783e-10
4.6543039e-13
1.1337525e-10
-4.4741479e-13
1.1294445e-10
4.3079996e-13
1.1335999e-10
-4.1554196e-13
1.1295825e-10
4.0173403e-13
1.133476e-10
-3.8935154e-13
1.1296913e-10
3.7847618e-13
1.1333813e-10
-3.6900299e-13
1.1297701e-10
3.6112007e-13
1.1333236e-10
-3.5535018e-13
1.1298641e-10
3.4595211e-13
1.1334758e-10
-3.6117091e-13
3.2829124e-13
3.5311208e-10
5.410764e-09
3.8037354e-10
-2.7992389e-11
3.3002827e-10
7.0830631e-11
3.2974992e-10
-3.7450132e-13
3.3095517e-10
-2.1161836e-12
3.283362e-10
4.331305e-12
3.2970557e-10
-2.6043511e-12
3.2756973e-10
3.6056217e-12
3.2956292e-10
-3.390203e-12
3.2752689e-10
3.429939e-12
3.2946754e-10
-3.2771179e-12
3.2756302e-10
3.2069221e-12
3.2938859e-10
-3.0784182e-12
3.2761464e-10
2.9879254e-12
3.2932241e-10
-2.8781529e-12
3.2767002e-10
2.7836849e-12
3.2926287e-10
-2.684019e-12
3.2772513e-10
2.5909077e-12
3.292071e-10
-2.4972683e-12
3.2777873e-10
2.4070636e-12
3.2915396e-10
-2.3177969e-12
3.2783045e-10
2.2308927e-12
3.2910314e-10
-2.1455238e-12
3.2788009e-10
2.062201e-12
3.2905457e-10
-1.9806361e-12
3.2792746e-10
1.9011471e-12
3.2900842e-10
-1.8236638e-12
3.2797233e-10
1.7483791e-12
3.289649e-10
-1.6753113e-12
3.2801446e-10
1.6046439e-12
3.2892426e-10
-1.5364306e-12
3.2805357e-10
1.470813e-12
3.2888678e-10
-1.4078907e-12
3.2808938e-10
1.3478142e-12
3.2885272e-10
-1.290629e-12
3.2812165e-10
1.2364688e-12
3.2882234e-10
-1.1854426e-12
3.2815017e-10
1.1376015e-12
3.2879583e-10
-1.0930838e-12
3.2817466e-10
1.0519692e-12
3.2877337e-10
-1.0142517e-12
3.2819502e-10
9.80077e-13
3.2875515e-10
-9.4947408e-13
3.2821106e-10
9.2256275e-13
3.2874113e-10
-8.9907243e-13
3.282225e-10
8.7974365e-13
3.2873226e-10
-8.6510774e-13
3.2823775e-10
8.4046295e-13
3.2876968e-10
-8.931053e-13
7.9387169e-13
5.5707371e-10
7.8019402e-09
6.1460393e-10
-8.5522622e-11
5.4107552e-10
1.4435902e-10
5.4063192e-10
6.9111612e-14
5.4145315e-10
-2.9374254e-12
5.3876126e-10
7.0232237e-12
5.3951149e-10
-3.3545776e-12
5.3749085e-10
5.626292e-12
5.3934822e-10
-5.2475606e-12
5.3739212e-10
5.3860631e-12
5.392444e-10
-5.1293878e-12
5.3740957e-10
5.041763e-12
5.391602e-10
-4.8290446e-12
5.3745258e-10
4.6955524e-12
5.3909333e-10
-4.5189034e-12
5.3750374e-10
4.3732722e-12
5.3903484e-10
-4.2151203e-12
5.3755633e-10
4.0694063e-12
5.3898056e-10
-3.9215041e-12
5.3760813e-10
3.7794987e-12
5.3892892e-10
-3.6385961e-12
5.3765841e-10
3.5014035e-12
5.3887953e-10
-3.3666441e-12
5.3770679e-10
3.2349297e-12
5.3883225e-10
-3.1060989e-12
5.3775303e-10
2.9803724e-12
5.3878731e-10
-2.8579517e-12
5.3779685e-10
2.7388353e-12
5.3874493e-10
-2.6233913e-12
5.3783799e-10
2.5115794e-12
5.3870536e-10
-2.4038046e-12
5.3787618e-10
2.2999843e-12
5.3866887e-10
-2.2005847e-12
5.3791112e-10
2.1055622e-12
5.3863573e-10
-2.0152451e-12
5.3794261e-10
1.9295918e-12
5.3860618e-10
-1.8490215e-12
5.3797043e-10
1.7733528e-12
5.3858042e-10
-1.7030734e-12
5.3799429e-10
1.6380919e-12
5.3855856e-10
-1.5785212e-12
5.3801415e-10
1.5244884e-12
5.3854084e-10
-1.4761738e-12
5.3802977e-10
1.4336359e-12
5.3852711e-10
-1.396413e-12
5.3804075e-10
1.3661021e-12
5.3851814e-10
-1.3424995e-12
5.3805796e-10
1.3006384e-12
5.3857474e-10
-1.4098826e-12
1.2226475e-12
7.6786337e-10
9.9823269e-09
8.3879531e-10
-1.5645457e-10
7.4602794e-10
2.3712637e-10
7.4574206e-10
3.5499765e-13
7.4634379e-10
-3.5391686e-12
7.4357147e-10
9.7955666e-12
7.4376584e-10
-3.5489471e-12
7.418749e-10
7.5172715e-12
7.4360369e-10
-6.9763447e-12
7.4173547e-10
7.2543154e-12
7.4349611e-10
-6.8900202e-12
7.4173701e-10
6.8008766e-12
7.434079e-10
-6.4999292e-12
7.4177208e-10
6.3313782e-12
7.4334077e-10
-6.0876035e-12
7.4181916e-10
5.8948846e-12
7.4328353e-10
-5.6794897e-12
7.4186921e-10
5.4837154e-12
7.4323087e-10
-5.2831638e-12
7.419191e-10
5.0912582e-12
7.4318082e-10
-4.9003191e-12
7.4196781e-10
4.7144115e-12
7.4313296e-10
-4.5317956e-12
7.4201479e-10
4.3530991e-12
7.430871e-10
-4.1784156e-12
7.4205974e-10
4.0077372e-12
7.4304352e-10
-3.8417401e-12
7.4210234e-10
3.6800152e-12
7.430024e-10
-3.5234544e-12
7.4214232e-10
3.3716548e-12
7.4296403e-10
-3.2255182e-12
7.4217943e-10
3.0845778e-12
7.4292867e-10
-2.9498279e-12
7.4221333e-10
2.8208985e-12
7.4289657e-10
-2.6984837e-12
7.4224388e-10
2.5822702e-12
7.4286797e-10
-2.4731094e-12
7.4227086e-10
2.3704589e-12
7.4284305e-10
-2.2752683e-12
7.4229397e-10
2.1871672e-12
7.428219e-10
-2.1064475e-12
7.4231321e-10
2.0331793e-12
7.4280476e-10
-1.9677334e-12
7.4232834e-10
1.910058e-12
7.4279139e-10
-1.8594599e-12
7.423388e-10
1.8186874e-12
7.4278214e-10
-1.7858431e-12
7.423568e-10
1.7259841e-12
7.4285299e-10
-1.90608e-12
1.6149882e-12
9.4314491e-10
1.1987432e-08
1.0512814e-09
-2.6459104e-10
9.4523485e-10
3.4317286e-10
9.4519783e-10
3.9202825e-13
9.4559473e-10
-3.936079e-12
9.4274697e-10
1.264335e-11
9.4246496e-10
-3.2669338e-12
9.4072184e-10
9.260432e-12
9.4232868e-10
-8.5831826e-12
9.4055648e-10
9.0265441e-12
9.4222212e-10
-8.5556502e-12
9.4054486e-10
8.4781528e-12
9.4213114e-10
-8.0862079e-12
9.4057266e-10
7.8898632e-12
9.4206422e-10
-7.5791689e-12
9.4061584e-10
7.3432607e-12
9.4200843e-10
-7.0720827e-12
9.4066335e-10
6.828796e-12
9.4195755e-10
-6.5773711e-12
9.4071127e-10
6.3375389e-12
9.4190925e-10
-6.0983074e-12
9.4075828e-10
5.8653817e-12
9.4186308e-10
-5.636595e-12
9.4080372e-10
5.4124525e-12
9.418188e-10
-5.1934986e-12
9.408472e-10
4.9793372e-12
9.417767e-10
-4.7712476e-12
9.4088842e-10
4.568294e-12
9.4173703e-10
-4.3720636e-12
9.4092708e-10
4.1816e-12
9.4170002e-10
-3.9984609e-12
9.4096294e-10
3.8216538e-12
9.4166594e-10
-3.6528402e-12
9.4099565e-10
3.4911849e-12
9.4163504e-10
-3.3378747e-12
9.4102511e-10
3.1922005e-12
9.4160754e-10
-3.055542e-12
9.4105112e-10
2.9268716e-12
9.415836e-10
-2.807748e-12
9.4107335e-10
2.697414e-12
9.4156326e-10
-2.5963557e-12
9.4109186e-10
2.5045784e-12
9.4154682e-10
-2.4226944e-12
9.4110641e-10
2.3504623e-12
9.4153389e-10
-2.2869393e-12
9.4111631e-10
2.236262e-12
9.4152438e-10
-2.1939126e-12
9.4113433e-10
2.1160356e-12
9.4160547e-10
-2.3772256e-12
1.9685967e-12
1.1404774e-09
1.3795205e-08
1.2549517e-09
-3.790654e-10
1.1383877e-09
4.5973689e-10
1.138952e-09
-1.7224462e-13
1.1391649e-09
-4.1490333e-12
1.1362803e-09
1.5527996e-11
1.1356078e-09
-2.5944197e-12
1.1340331e-09
1.0835115e-11
1.135524e-09
-1.0074002e-11
1.1338554e-09
1.0695105e-11
1.1354229e-09
-1.0123135e-11
1.1338331e-09
1.0067934e-11
1.1353303e-09
-9.5833558e-12
1.1338544e-09
9.3658079e-12
1.135264e-09
-8.9888181e-12
1.1338938e-09
8.7134618e-12
1.1352099e-09
-8.3881672e-12
1.1339387e-09
8.0999431e-12
1.1351609e-09
-7.7995563e-12
1.1339846e-09
7.5138819e-12
1.1351145e-09
-7.2282376e-12
1.1340297e-09
6.9501258e-12
1.1350701e-09
-6.6770003e-12
1.1340735e-09
6.409121e-12
1.1350276e-09
-6.1476199e-12
1.1341154e-09
5.8915758e-12
1.1349872e-09
-5.6430941e-12
1.134155e-09
5.4004699e-12
1.1349491e-09
-5.1661554e-12
1.1341922e-09
4.9385201e-12
1.1349136e-09
-4.7199078e-12
1.1342266e-09
4.5086434e-12
1.134881e-09
-4.3072158e-12
1.134258e-09
4.1141955e-12
1.1348514e-09
-3.9313219e-12
1.1342862e-09
3.7574131e-12
1.1348252e-09
-3.594493e-12
1.1343111e-09
3.4409294e-12
1.1348023e-09
-3.2989839e-12
1.1343323e-09
3.167405e-12
1.1347829e-09
-3.0469409e-12
1.13435e-09
2.9374983e-12
1.1347673e-09
-2.8399529e-12
1.1343639e-09
2.7538301e-12
1.1347549e-09
-2.6779311e-12
1.1343732e-09
2.6179654e-12
1.1347452e-09
-2.5658865e-12
1.1343906e-09
2.4705364e-12
1.134833e-09
-2.8196241e-12
2.2817871e-12
1.3006783e-09
1.5442776e-08
1.4462474e-09
-5.2463448e-10
1.3260025e-09
5.7998176e-10
1.3270693e-09
-1.2390089e-12
1.3270027e-09
-4.0824585e-12
1.3241765e-09
1.8354221e-11
1.323193e-09
-1.6109679e-12
1.3218097e-09
1.2218503e-11
1.3231897e-09
-1.1454038e-11
1.3216321e-09
1.2252784e-11
1.3230987e-09
-1.1589723e-11
1.3216017e-09
1.1564952e-11
1.3230055e-09
-1.0987216e-11
1.3216169e-09
1.0754434e-11
1.3229403e-09
-1.0312166e-11
1.3216528e-09
1.0000955e-11
1.322888e-09
-9.6234021e-12
1.3216951e-09
9.2928437e-12
1.3228411e-09
-8.9455684e-12
1.3217388e-09
8.6162247e-12
1.3227967e-09
-8.2861955e-12
1.321782e-09
7.964874e-12
1.3227543e-09
-7.6493966e-12
1.3218238e-09
7.3396257e-12
1.3227137e-09
-7.0374786e-12
1.3218639e-09
6.7413655e-12
1.3226751e-09
-6.4542906e-12
1.3219018e-09
6.1737188e-12
1.3226388e-09
-5.9031018e-12
1.3219373e-09
5.639962e-12
1.322605e-09
-5.3875558e-12
1.3219702e-09
5.1434233e-12
1.322574e-09
-4.9109798e-12
1.3220001e-09
4.6880881e-12
1.3225459e-09
-4.4771487e-12
1.3220269e-09
4.2764048e-12
1.322521e-09
-4.0885824e-12
1.3220506e-09
3.9113511e-12
1.3224994e-09
-3.7478061e-12
1.3220707e-09
3.596111e-12
1.322481e-09
-3.4572615e-12
1.3220874e-09
3.3310897e-12
1.3224662e-09
-3.2187658e-12
1.3221005e-09
3.119506e-12
1.3224545e-09
-3.0318617e-12
1.3221092e-09
2.9632458e-12
1.3224446e-09
-2.9013308e-12
1.3221257e-09
2.7895009e-12
1.3225363e-09
-3.2302786e-12
2.554054e-12
1.4796091e-09
1.6911417e-08
1.6301778e-09
-6.7520315e-10
1.5078296e-09
7.0232989e-10
1.5093997e-09
-2.8091297e-12
1.5090255e-09
-3.7082709e-12
1.5064345e-09
2.0945241e-11
1.505219e-09
-3.9540901e-13
1.5040527e-09
1.3384812e-11
1.5053266e-09
-1.2727886e-11
1.5038866e-09
1.3692772e-11
1.5052498e-09
-1.2952863e-11
1.5038504e-09
1.2964363e-11
1.5051571e-09
-1.2293986e-11
1.5038603e-09
1.2051307e-11
1.5050933e-09
-1.1545161e-11
1.5038927e-09
1.120156e-11
1.5050431e-09
-1.077381e-11
1.5039323e-09
1.0403569e-11
1.5049984e-09
-1.0011615e-11
1.5039737e-09
9.640906e-12
1.5049561e-09
-9.2686629e-12
1.5040148e-09
8.9062548e-12
1.5049159e-09
-8.5505653e-12
1.5040546e-09
8.2009385e-12
1.5048773e-09
-7.8601858e-12
1.5040927e-09
7.5259397e-12
1.5048408e-09
-7.202312e-12
1.5041288e-09
6.8856978e-12
1.5048064e-09
-6.5806852e-12
1.5041624e-09
6.2838728e-12
1.5047744e-09
-5.9995199e-12
1.5041936e-09
5.7242533e-12
1.5047451e-09
-5.4625486e-12
1.5042218e-09
5.2114578e-12
1.5047187e-09
-4.9740598e-12
1.5042471e-09
4.7479847e-12
1.5046953e-09
-4.5367527e-12
1.5042694e-09
4.3372423e-12
1.504675e-09
-4.1534404e-12
1.5042883e-09
3.9828346e-12
1.5046577e-09
-3.8267335e-12
1.5043039e-09
3.6848747e-12
1.5046439e-09
-3.5587178e-12
1.5043163e-09
3.4471453e-12
1.5046329e-09
-3.3484724e-12
1.5043242e-09
3.271894e-12
1.504623e-09
-3.2001297e-12
1.5043394e-09
3.0731076e-12
1.504716e-09
-3.6068466e-12
2.7857768e-12
1.6320495e-09
1.8227618e-08
1.8002744e-09
-8.4342807e-10
1.6837922e-09
8.1881215e-10
1.6859528e-09
-4.9697288e-12
1.6852228e-09
-2.9783185e-12
1.6830887e-09
2.3079322e-11
1.6816966e-09
9.9675881e-13
1.6807663e-09
1.4315132e-11
1.6819357e-09
-1.3897272e-11
1.6806191e-09
1.5009434e-11
1.6818763e-09
-1.4210061e-11
1.680579e-09
1.426163e-11
1.6817852e-09
-1.3500146e-11
1.6805842e-09
1.3252333e-11
1.6817231e-09
-1.2684104e-11
1.6806132e-09
1.2311452e-11
1.6816752e-09
-1.1835764e-11
1.6806502e-09
1.1428541e-11
1.6816329e-09
-1.0994293e-11
1.6806891e-09
1.0584624e-11
1.681593e-09
-1.0172498e-11
1.6807279e-09
9.7712842e-12
1.681555e-09
-9.3776851e-12
1.6807656e-09
8.9903749e-12
1.6815187e-09
-8.6132462e-12
1.6808016e-09
8.2430351e-12
1.6814842e-09
-7.8849702e-12
1.6808355e-09
7.5343817e-12
1.6814519e-09
-7.1970835e-12
1.6808672e-09
6.8686025e-12
1.681422e-09
-6.5542891e-12
1.6808964e-09
6.2497996e-12
1.6813946e-09
-5.9607239e-12
1.6809228e-09
5.6832193e-12
1.6813699e-09
-5.4211312e-12
1.6809465e-09
5.171399e-12
1.6813481e-09
-4.9383555e-12
1.6809673e-09
4.7180275e-12
1.6813292e-09
-4.5154048e-12
1.6809848e-09
4.3272277e-12
1.6813132e-09
-4.1550757e-12
1.6809994e-09
3.998646e-12
1.6813004e-09
-3.8596981e-12
1.6810108e-09
3.736713e-12
1.6812901e-09
-3.6277915e-12
1.6810181e-09
3.543941e-12
1.6812804e-09
-3.4624773e-12
1.6810318e-09
3.3217877e-12
1.6813724e-09
-3.9475266e-12
2.9779829e-12
1.7897987e-09
1.9386069e-08
1.9633624e-09
-1.0169918e-09
1.8538507e-09
9.2832388e-10
1.8561639e-09
-7.2829376e-12
1.8554133e-09
-2.2277197e-12
1.8541124e-09
2.4380201e-11
1.8526221e-09
2.4870526e-12
1.8519516e-09
1.498572e-11
1.8530184e-09
-1.4964114e-11
1.8518302e-09
1.6197658e-11
1.8529789e-09
-1.5358739e-11
1.8517878e-09
1.5452759e-11
1.85289e-09
-1.4602406e-11
1.8517886e-09
1.4353778e-11
1.8528301e-09
-1.3725578e-11
1.8518144e-09
1.3327155e-11
1.8527846e-09
-1.2805983e-11
1.8518486e-09
1.236456e-11
1.8527448e-09
-1.189054e-11
1.851885e-09
1.1444472e-11
1.8527074e-09
-1.0994943e-11
1.8519213e-09
1.0557365e-11
1.8526719e-09
-1.0128316e-11
1.8519566e-09
9.7056994e-12
1.8526379e-09
-9.2945582e-12
1.8519903e-09
8.89066e-12
1.8526059e-09
-8.5005355e-12
1.852022e-09
8.1182215e-12
1.8525758e-09
-7.7508552e-12
1.8520515e-09
7.3928662e-12
1.852548e-09
-7.0507397e-12
1.8520787e-09
6.7190676e-12
1.8525226e-09
-6.4046573e-12
1.8521031e-09
6.1026975e-12
1.8524998e-09
-5.8177737e-12
1.852125e-09
5.5461383e-12
1.8524797e-09
-5.2930021e-12
1.8521442e-09
5.0534764e-12
1.8524624e-09
-4.8335737e-12
1.8521604e-09
4.6292159e-12
1.8524476e-09
-4.4423176e-12
1.8521738e-09
4.272526e-12
1.8524359e-09
-4.1218699e-12
1.8521842e-09
3.9884276e-12
1.8524265e-09
-3.8701087e-12
1.8521908e-09
3.7797194e-12
1.8524171e-09
-3.6888111e-12
1.8522028e-09
3.5360934e-12
1.8525063e-09
-4.2510575e-12
3.1321577e-12
1.9350757e-09
2.0399243e-08
2.1136268e-09
-1.195543e-09
2.017963e-09
1.0239877e-09
2.0205327e-09
-9.8526563e-12
2.0197259e-09
-1.4209773e-12
2.0195499e-09
2.4556231e-11
2.0180058e-09
4.0311619e-12
2.0176104e-09
1.5381189e-11
2.0185745e-09
-1.5928187e-11
2.0175193e-09
1.7252861e-11
2.0185573e-09
-1.6396723e-11
2.0174762e-09
1.6533848e-11
2.0184717e-09
-1.5597866e-11
2.0174732e-09
1.5352204e-11
2.0184142e-09
-1.4666568e-11
2.0174958e-09
1.4245543e-11
2.0183714e-09
-1.368156e-11
2.0175272e-09
1.3208783e-11
2.0183344e-09
-1.2697707e-11
2.0175609e-09
1.2217911e-11
2.0182996e-09
-1.1733629e-11
2.0175947e-09
1.1262293e-11
2.0182668e-09
-1.080042e-11
2.0176275e-09
1.0345008e-11
2.0182353e-09
-9.9024119e-12
2.0176586e-09
9.4673489e-12
2.0182057e-09
-9.0475881e-12
2.0176879e-09
8.6359524e-12
2.018178e-09
-8.2409398e-12
2.0177151e-09
7.8557654e-12
2.0181525e-09
-7.4880958e-12
2.0177401e-09
7.1314501e-12
2.0181293e-09
-6.7938584e-12
2.0177625e-09
6.4694904e-12
2.0181084e-09
-6.1637382e-12
2.0177825e-09
5.8721153e-12
2.0180901e-09
-5.6006891e-12
2.0178e-09
5.3436295e-12
2.0180745e-09
-5.1080606e-12
2.0178146e-09
4.8890373e-12
2.0180611e-09
-4.6887412e-12
2.0178267e-09
4.5068508e-12
2.0180505e-09
-4.3456545e-12
2.0178362e-09
4.2027725e-12
2.018042e-09
-4.0759514e-12
2.017842e-09
3.9797437e-12
2.018033e-09
-3.8798209e-12
2.0178523e-09
3.7168165e-12
2.0181178e-09
-4.5166099e-12
3.250175e-12
2.0769143e-09
2.1270579e-08
2.2575766e-09
-1.3762053e-09
2.1758124e-09
1.105752e-09
2.179534e-09
-1.3574305e-11
2.1784552e-09
-3.4215687e-13
2.1794617e-09
2.3549744e-11
2.1778729e-09
5.6199856e-12
2.1777523e-09
1.5501833e-11
2.178608e-09
-1.6783917e-11
2.1776881e-09
1.817279e-11
2.1786126e-09
-1.7321171e-11
2.1776446e-09
1.7501791e-11
2.1785306e-09
-1.6483794e-11
2.1776382e-09
1.6244598e-11
2.1784759e-09
-1.5504337e-11
2.1776576e-09
1.5063878e-11
2.178436e-09
-1.445995e-11
2.177686e-09
1.3958779e-11
2.1784018e-09
-1.3413497e-11
2.1777169e-09
1.290282e-11
2.1783698e-09
-1.2386586e-11
2.1777478e-09
1.1884266e-11
2.1783398e-09
-1.1392347e-11
2.1777779e-09
1.0906862e-11
2.178311e-09
-1.0435492e-11
2.1778065e-09
9.9718766e-12
2.178284e-09
-9.5251776e-12
2.1778332e-09
9.0867952e-12
2.1782589e-09
-8.6666408e-12
2.1778579e-09
8.2567451e-12
2.1782358e-09
-7.8659497e-12
2.1778806e-09
7.4866466e-12
2.1782149e-09
-7.1281563e-12
2.1779008e-09
6.7835883e-12
2.1781961e-09
-6.4590724e-12
2.1779188e-09
6.1494283e-12
2.1781797e-09
-5.8616186e-12
2.1779345e-09
5.5888382e-12
2.1781657e-09
-5.3393031e-12
2.1779476e-09
5.1071523e-12
2.1781538e-09
-4.8948983e-12
2.1779584e-09
4.7022493e-12
2.1781444e-09
-4.5316987e-12
2.1779667e-09
4.3804327e-12
2.1781368e-09
-4.2460591e-12
2.1779718e-09
4.1447918e-12
2.1781284e-09
-4.0363751e-12
2.1779803e-09
3.8648249e-12
2.1782075e-09
-4.7438066e-12
3.3341611e-12
2.2185234e-09
2.2000305e-08
2.3910434e-09
-1.5487253e-09
2.3279836e-09
1.1688117e-09
2.3329186e-09
-1.8509297e-11
2.3315921e-09
9.8430564e-13
2.3338409e-09
2.1301034e-11
2.3322195e-09
7.2413255e-12
2.3323759e-09
1.53455e-11
2.3331181e-09
-1.7526146e-11
2.3323359e-09
1.8955087e-11
2.3331445e-09
-1.8129784e-11
2.3322927e-09
1.835363e-11
2.3330667e-09
-1.725783e-11
2.332283e-09
1.7028308e-11
2.3330152e-09
-1.6236577e-11
2.3322993e-09
1.5779812e-11
2.3329783e-09
-1.5139012e-11
2.3323246e-09
1.4612494e-11
2.3329472e-09
-1.4036057e-11
2.3323525e-09
1.3497461e-11
2.3329182e-09
-1.2952248e-11
2.3323806e-09
1.2421883e-11
2.3328911e-09
-1.1902862e-11
2.3324078e-09
1.1390147e-11
2.3328652e-09
-1.0892874e-11
2.3324335e-09
1.0403565e-11
2.3328409e-09
-9.9326361e-12
2.3324575e-09
9.470221e-12
2.3328185e-09
-9.0276268e-12
2.3324796e-09
8.5956176e-12
2.3327979e-09
-8.1842139e-12
2.3324998e-09
7.7847219e-12
2.3327794e-09
-7.4077085e-12
2.3325177e-09
7.0452075e-12
2.3327628e-09
-6.7041316e-12
2.3325336e-09
6.3785803e-12
2.3327484e-09
-6.0763525e-12
2.3325475e-09
5.7896755e-12
2.3327361e-09
-5.5279233e-12
2.332559e-09
5.2842949e-12
2.3327256e-09
-5.0615425e-12
2.3325684e-09
4.8595071e-12
2.3327175e-09
-4.6808604e-12
2.3325757e-09
4.5223126e-12
2.332711e-09
-4.38136e-12
2.33258e-09
4.2757649e-12
2.3327031e-09
-4.159542e-12
2.3325868e-09
3.9812056e-12
2.3327756e-09
-4.9326047e-12
3.3864601e-12
2.3463755e-09
2.260218e-08
2.5202427e-09
-1.7225925e-09
2.474586e-09
1.2144684e-09
2.4807851e-09
-2.4708358e-11
2.4793022e-09
2.4671558e-12
2.4827033e-09
1.7900023e-11
2.4810498e-09
8.8948149e-12
2.4814821e-09
1.4913253e-11
2.4821045e-09
-1.8148603e-11
2.481462e-09
1.9597645e-11
2.4821529e-09
-1.8820717e-11
2.4814199e-09
1.908668e-11
2.4820802e-09
-1.7918166e-11
2.4814076e-09
1.7700962e-11
2.4820324e-09
-1.686139e-11
2.4814208e-09
1.6391367e-11
2.4819988e-09
-1.5717025e-11
2.481443e-09
1.5168305e-11
2.4819709e-09
-1.4563908e-11
2.4814678e-09
1.4000534e-11
2.481945e-09
-1.3429462e-11
2.4814927e-09
1.2874155e-11
2.481921e-09
-1.2331118e-11
2.4815169e-09
1.1794225e-11
2.4818981e-09
-1.1274023e-11
2.4815397e-09
1.0761943e-11
2.4818768e-09
-1.0269769e-11
2.4815608e-09
9.7861878e-12
2.4818571e-09
-9.3239075e-12
2.4815802e-09
8.8725112e-12
2.4818391e-09
-8.4431439e-12
2.4815979e-09
8.0260099e-12
2.4818231e-09
-7.6329561e-12
2.4816134e-09
7.2549321e-12
2.4818088e-09
-6.8995246e-12
2.4816271e-09
6.5601978e-12
2.4817964e-09
-6.2456005e-12
2.4816391e-09
5.946987e-12
2.481786e-09
-5.6748317e-12
2.4816489e-09
5.4213684e-12
2.481777e-09
-5.1896542e-12
2.4816568e-09
4.9796638e-12
2.4817702e-09
-4.7941728e-12
2.481663e-09
4.6294655e-12
2.4817646e-09
-4.4829454e-12
2.4816666e-09
4.3737881e-12
2.4817575e-09
-4.2505078e-12
2.4816717e-09
4.0670716e-12
2.4818224e-09
-5.0833314e-12
3.4095112e-12
2.4876431e-09
2.3062787e-08
2.6419667e-09
-1.8769161e-09
2.6156943e-09
1.2407407e-09
2.6229693e-09
-3.1983333e-11
2.6216648e-09
3.7716364e-12
2.6260781e-09
1.3486751e-11
2.624383e-09
1.0589936e-11
2.6250825e-09
1.4213766e-11
2.6255737e-09
-1.8639741e-11
2.6250698e-09
2.0101584e-11
2.62564e-09
-1.9390898e-11
2.6250272e-09
1.9699478e-11
2.6255718e-09
-1.8462824e-11
2.6250119e-09
1.8260922e-11
2.6255277e-09
-1.7377175e-11
2.6250219e-09
1.6897084e-11
2.6254976e-09
-1.6192653e-11
2.6250409e-09
1.5625012e-11
2.625473e-09
-1.4996032e-11
2.6250624e-09
1.4411138e-11
2.6254504e-09
-1.381749e-11
2.625084e-09
1.3240502e-11
2.6254296e-09
-1.2676683e-11
2.6251051e-09
1.2118765e-11
2.6254098e-09
-1.1578788e-11
2.6251247e-09
1.1047095e-11
2.6253915e-09
-1.0536631e-11
2.6251429e-09
1.0034864e-11
2.6253748e-09
-9.5558344e-12
2.6251594e-09
9.0878958e-12
2.6253595e-09
-8.6432808e-12
2.6251743e-09
8.2111816e-12
2.625346e-09
-7.8046334e-12
2.6251874e-09
7.4135204e-12
2.625334e-09
-7.0461308e-12
2.6251989e-09
6.6952895e-12
2.6253237e-09
-6.3704019e-12
2.6252089e-09
6.0617881e-12
2.6253152e-09
-5.7810672e-12
2.625217e-09
5.5195086e-12
2.6253077e-09
-5.2803627e-12
2.6252235e-09
5.0638576e-12
2.6253022e-09
-4.8728329e-12
2.6252285e-09
4.7031184e-12
2.6252976e-09
-4.5520466e-12
2.6252314e-09
4.4400527e-12
2.6252915e-09
-4.3106102e-12
2.6252348e-09
4.1237308e-12
2.625348e-09
-5.1965591e-12
3.4058426e-12
2.6034981e-09
2.3407539e-08
2.76086e-09
-2.034278e-09
2.7516031e-09
1.2499977e-09
2.7588172e-09
-3.9197469e-11
2.7585972e-09
3.9916198e-12
2.7639004e-09
8.1835939e-12
2.7621962e-09
1.2294155e-11
2.7631679e-09
1.3242126e-11
2.7635207e-09
-1.8992617e-11
2.7631563e-09
2.0466083e-11
2.7636042e-09
-1.9838836e-11
2.7631134e-09
2.0190349e-11
2.7635413e-09
-1.8890746e-11
2.7630955e-09
1.8706685e-11
2.7635012e-09
-1.7782887e-11
2.7631025e-09
1.7295843e-11
2.7634749e-09
-1.6565049e-11
2.763118e-09
1.5981853e-11
2.7634538e-09
-1.5331808e-11
2.7631361e-09
1.4728823e-11
2.7634346e-09
-1.4116019e-11
2.7631544e-09
1.3520754e-11
2.7634172e-09
-1.2939514e-11
2.7631721e-09
1.2363917e-11
2.7634007e-09
-1.1807394e-11
2.7631885e-09
1.1259274e-11
2.7633856e-09
-1.0733744e-11
2.7632035e-09
1.0216899e-11
2.7633718e-09
-9.72407e-12
2.7632171e-09
9.2425226e-12
2.7633593e-09
-8.7854767e-12
2.7632294e-09
8.3411334e-12
2.7633485e-09
-7.9237169e-12
2.7632399e-09
7.5220692e-12
2.7633388e-09
-7.1450362e-12
2.7632492e-09
6.7849232e-12
2.7633307e-09
-6.4518846e-12
2.7632571e-09
6.1353266e-12
2.763324e-09
-5.8479193e-12
2.7632635e-09
5.579967e-12
2.7633181e-09
-5.3349809e-12
2.7632685e-09
5.1134419e-12
2.7633139e-09
-4.9181636e-12
2.7632724e-09
4.7445962e-12
2.7633103e-09
-4.5900105e-12
2.7632745e-09
4.4759354e-12
2.7633051e-09
-4.3412498e-12
2.7632764e-09
4.1524671e-12
2.763353e-09
-5.2731557e-12
3.3779615e-12
2.7424512e-09
2.3613337e-08
2.8756276e-09
-2.1674544e-09
2.8827997e-09
1.2428255e-09
2.8886877e-09
-4.508541e-11
2.8901688e-09
2.5104838e-12
2.8961772e-09
2.1752542e-12
2.8944908e-09
1.3980483e-11
2.8957393e-09
1.1993679e-11
2.8959463e-09
-1.9199577e-11
2.8957215e-09
2.0690867e-11
2.8960462e-09
-2.01635e-11
2.8956785e-09
2.055805e-11
2.8959889e-09
-1.9201167e-11
2.8956583e-09
1.9037342e-11
2.8959533e-09
-1.8077899e-11
2.8956621e-09
1.7587047e-11
2.8959308e-09
-1.6833783e-11
2.8956742e-09
1.6238504e-11
2.8959134e-09
-1.5571095e-11
2.8956887e-09
1.4953542e-11
2.8958978e-09
-1.4325147e-11
2.8957034e-09
1.371515e-11
2.8958839e-09
-1.3119975e-11
2.8957177e-09
1.2530114e-11
2.8958707e-09
-1.1960431e-11
2.8957307e-09
1.139929e-11
2.8958588e-09
-1.0861839e-11
2.8957426e-09
1.0333105e-11
2.8958481e-09
-9.8295875e-12
2.8957532e-09
9.3374513e-12
2.8958385e-09
-8.8708293e-12
2.8957626e-09
8.4170647e-12
2.8958303e-09
-7.9914361e-12
2.8957706e-09
7.5817947e-12
2.8958231e-09
-7.1975564e-12
2.8957775e-09
6.8305226e-12
2.8958171e-09
-6.4914729e-12
2.8957834e-09
6.1689665e-12
2.8958123e-09
-5.8767493e-12
2.895788e-09
5.6041857e-12
2.895808e-09
-5.354919e-12
2.8957916e-09
5.1298123e-12
2.8958051e-09
-4.9316058e-12
2.8957943e-09
4.7553535e-12
2.8958026e-09
-4.5982776e-12
2.8957957e-09
4.4828246e-12
2.8957984e-09
-4.3439358e-12
2.8957961e-09
4.1547349e-12
2.8958371e-09
-5.3141543e-12
3.3283721e-12
2.8521157e-09
2.3709472e-08
2.9865635e-09
-2.3019022e-09
3.0087869e-09
1.2206021e-09
3.0137409e-09
-5.0039417e-11
3.0167212e-09
-4.6985671e-13
3.0229981e-09
-4.1016101e-12
3.0213033e-09
1.5675352e-11
3.0228113e-09
1.048564e-11
3.022856e-09
-1.9244232e-11
3.0227674e-09
2.0779485e-11
3.0229669e-09
-2.0362953e-11
3.0227226e-09
2.0802372e-11
3.0229151e-09
-1.9393724e-11
3.0227e-09
1.9252434e-11
3.0228842e-09
-1.8262034e-11
3.0227007e-09
1.7770531e-11
3.0228658e-09
-1.6998904e-11
3.0227092e-09
1.639511e-11
3.0228522e-09
-1.5714146e-11
3.0227201e-09
1.5085709e-11
3.0228403e-09
-1.44454e-11
3.0227311e-09
1.3824329e-11
3.0228299e-09
-1.3218803e-11
3.0227418e-09
1.2618264e-11
3.0228202e-09
-1.2038845e-11
3.0227514e-09
1.1468069e-11
3.0228117e-09
-1.0922099e-11
3.02276e-09
1.0384756e-11
3.0228041e-09
-9.8736339e-12
3.0227675e-09
9.3739822e-12
3.0227974e-09
-8.9007091e-12
3.0227741e-09
8.4403522e-12
3.0227919e-09
-8.0092178e-12
3.0227795e-09
7.5942172e-12
3.0227871e-09
-7.2051642e-12
3.0227841e-09
6.8335049e-12
3.0227832e-09
-6.4906203e-12
3.0227879e-09
6.1642633e-12
3.0227803e-09
-5.8691307e-12
3.0227908e-09
5.59367e-12
3.0227776e-09
-5.341728e-12
3.0227929e-09
5.1145417e-12
3.022776e-09
-4.914679e-12
3.0227944e-09
4.7368942e-12
3.0227745e-09
-4.5783599e-12
3.0227951e-09
4.4622588e-12
3.0227713e-09
-4.3201911e-12
3.0227942e-09
4.1319174e-12
3.0228008e-09
-5.3208162e-12
3.2594755e-12
2.9859213e-09
2.36718e-08
3.0931387e-09
-2.4091196e-09
3.1294704e-09
1.1842703e-09
3.1344501e-09
-5.5019101e-11
3.1382367e-09
-4.2564728e-12
3.1443454e-09
-1.0210287e-11
3.1426246e-09
1.7396098e-11
3.1443765e-09
8.733864e-12
3.1442462e-09
-1.9113969e-11
3.1442914e-09
2.073432e-11
3.1443652e-09
-2.0436795e-11
3.1442446e-09
2.0922987e-11
3.1443197e-09
-1.9468761e-11
3.1442202e-09
1.9351916e-11
3.1442939e-09
-1.8335702e-11
3.1442178e-09
1.7846603e-11
3.1442798e-09
-1.7060941e-11
3.1442227e-09
1.6452243e-11
3.1442703e-09
-1.5761715e-11
3.1442298e-09
1.5126128e-11
3.1442621e-09
-1.4477705e-11
3.1442371e-09
1.3849325e-11
3.1442555e-09
-1.3237125e-11
3.1442442e-09
1.262952e-11
3.1442493e-09
-1.2043921e-11
3.1442503e-09
1.146709e-11
3.144244e-09
-1.0915865e-11
3.1442555e-09
1.0373239e-11
3.1442396e-09
-9.8577292e-12
3.1442599e-09
9.3536849e-12
3.1442359e-09
-8.8766866e-12
3.1442636e-09
8.4126367e-12
3.1442331e-09
-7.9786974e-12
3.1442664e-09
7.5609201e-12
3.1442307e-09
-7.1695197e-12
3.1442686e-09
6.7956152e-12
3.144229e-09
-6.451042e-12
3.1442704e-09
6.1228364e-12
3.144228e-09
-5.8266548e-12
3.1442716e-09
5.5500761e-12
3.1442268e-09
-5.2970066e-12
3.1442722e-09
5.0691922e-12
3.1442265e-09
-4.8689779e-12
3.1442726e-09
4.6908117e-12
3.144226e-09
-4.5318209e-12
3.1442725e-09
4.4157377e-12
3.144224e-09
-4.2716099e-12
3.1442703e-09
4.0855458e-12
3.144244e-09
-5.2944981e-12
3.1736065e-12
3.0976815e-09
2.3522369e-08
3.1960746e-09
-2.5075127e-09
3.2449381e-09
1.1354068e-09
3.2503028e-09
-6.0383827e-11
3.2545033e-09
-8.4569481e-12
3.2601606e-09
-1.5867567e-11
3.2584459e-09
1.9110747e-11
3.2604283e-09
6.7515556e-12
3.2601164e-09
-1.8802088e-11
3.2602937e-09
2.0557104e-11
3.2602421e-09
-2.0385187e-11
3.2602448e-09
2.0920261e-11
3.2602032e-09
-1.942713e-11
3.2602188e-09
1.9336253e-11
3.2601829e-09
-1.8299738e-11
3.2602134e-09
1.7816048e-11
3.2601734e-09
-1.7020886e-11
3.2602146e-09
1.6410958e-11
3.2601679e-09
-1.5714936e-11
3.2602179e-09
1.5076063e-11
3.2601636e-09
-1.4423402e-11
3.2602214e-09
1.3791554e-11
3.2601607e-09
-1.3176417e-11
3.2602247e-09
1.2565496e-11
3.260158e-09
-1.1977262e-11
3.2602272e-09
1.1397888e-11
3.2601563e-09
-1.0844912e-11
3.2602291e-09
1.0300378e-11
3.260155e-09
-9.783623e-12
3.2602304e-09
9.2783239e-12
3.2601543e-09
-8.8005632e-12
3.2602312e-09
8.3356857e-12
3.2601542e-09
-7.9016607e-12
3.2602313e-09
7.483755e-12
3.2601542e-09
-7.0923896e-12
3.2602313e-09
6.7185283e-12
3.2601547e-09
-6.374425e-12
3.260231e-09
6.046457e-12
3.2601555e-09
-5.751088e-12
3.2602305e-09
5.4750733e-12
3.2601559e-09
-5.2224556e-12
3.2602296e-09
4.9954688e-12
3.2601568e-09
-4.7961332e-12
3.2602289e-09
4.6187052e-12
3.2601573e-09
-4.4602555e-12
3.2602282e-09
4.3448806e-12
3.2601563e-09
-4.1997581e-12
3.2602248e-09
4.0170376e-12
3.2601671e-09
-5.2367259e-12
3.072944e-12
3.2276123e-09
2.3243007e-08
3.2959722e-09
-2.5758727e-09
3.3554981e-09
1.0758809e-09
3.3610644e-09
-6.5950137e-11
3.3654128e-09
-1.2805374e-11
3.3704371e-09
-2.089186e-11
3.3687821e-09
2.0765819e-11
3.3709621e-09
4.5715642e-12
3.3704663e-09
-1.830624e-11
3.3707737e-09
2.0249701e-11
3.3705974e-09
-2.0208928e-11
3.3707227e-09
2.0794987e-11
3.3705657e-09
-1.9270126e-11
3.3706955e-09
1.9206506e-11
3.3705512e-09
-1.8155507e-11
3.3706871e-09
1.7680178e-11
3.3705464e-09
-1.6880195e-11
3.3706846e-09
1.6272736e-11
3.3705451e-09
-1.5575431e-11
3.370684e-09
1.4937148e-11
3.3705448e-09
-1.4284212e-11
3.3706836e-09
1.3652799e-11
3.3705457e-09
-1.3038515e-11
3.3706832e-09
1.2428006e-11
3.3705467e-09
-1.1840782e-11
3.370682e-09
1.1262531e-11
3.3705482e-09
-1.0711114e-11
3.3706806e-09
1.0168052e-11
3.3705502e-09
-9.6532959e-12
3.3706787e-09
9.1498896e-12
3.3705524e-09
-8.674292e-12
3.3706766e-09
8.2114894e-12
3.370555e-09
-7.7800566e-12
3.3706742e-09
7.3645804e-12
3.3705574e-09
-6.9756863e-12
3.3706718e-09
6.6042184e-12
3.37056e-09
-6.2626847e-12
3.3706696e-09
5.9369106e-12
3.3705626e-09