/*--------------------------------*- C++ -*----------------------------------*\
| =========                 |                                                 |
| \\      /  F ield         | OpenFOAM: The Open Source CFD Toolbox           |
|  \\    /   O peration     | Version:  2312                                  |
|   \\  /    A nd           | Website:  www.openfoam.com                      |
|    \\/     M anipulation  |                                                 |
\*---------------------------------------------------------------------------*/
FoamFile
{
    version     2.0;
    format      ascii;
    arch        "LSB;label=32;scalar=64";
    class       volScalarField;
    location    "1";
    object      T;
}
// * * * * * * * * * * * * * * * * * * * * * * * * * * * * * * * * * * * * * //

dimensions      [0 0 0 1 0 0 0];

internalField   nonuniform List<scalar> 
4000
(
310.51925
311.79774
311.99438
312.07873
312.1347
312.19037
312.23053
312.27626
312.30983
312.35031
312.3803
312.41675
312.4439
312.47697
312.50188
312.53235
312.55579
312.58451
312.60721
312.63491
312.65743
312.68458
312.70725
312.73413
312.75709
312.78383
312.80712
312.83376
312.85735
312.8839
312.90776
312.93421
312.95828
312.98465
313.00888
313.03515
313.0595
313.08571
313.11014
313.1363
313.16077
313.18691
313.2114
313.23754
313.26201
313.28819
313.3126
313.33888
313.36308
313.39001
308.30582
310.50779
311.03856
311.23958
311.3554
311.47021
311.53874
311.6238
311.67259
311.74199
311.78011
311.83748
311.86713
311.9144
311.93735
311.97682
311.99531
312.02951
312.04575
312.07683
312.09248
312.1219
312.13796
312.16655
312.18347
312.21162
312.22951
312.25737
312.27618
312.30378
312.32337
312.35069
312.37091
312.39797
312.41867
312.44548
312.46654
312.49314
312.51443
312.5409
312.56232
312.58873
312.61019
312.63661
312.65801
312.68454
312.70577
312.7326
312.75321
312.78187
306.89681
309.25772
310.08981
310.40448
310.57912
310.75213
310.84899
310.97282
311.037
311.13504
311.18167
311.25996
311.29266
311.35428
311.37586
311.4245
311.43856
311.47833
311.48851
311.52296
311.53201
311.56362
311.57324
311.60342
311.61442
311.64385
311.65644
311.68539
311.69949
311.72802
311.74341
311.77151
311.78795
311.81562
311.83286
311.86014
311.87797
311.90492
311.92313
311.94986
311.96829
311.99492
312.0134
312.04007
312.05847
312.08531
312.10342
312.13075
312.14785
312.17794
305.9404
308.08446
309.1598
309.57959
309.81028
310.03924
310.16397
310.32538
310.40504
310.53106
310.5867
310.68572
310.72227
310.79836
310.81947
310.87747
310.88794
310.93338
310.93813
310.97592
310.97884
311.01248
311.01599
311.04754
311.05284
311.08332
311.09078
311.12059
311.13013
311.15939
311.17072
311.19942
311.21221
311.24035
311.25426
311.28188
311.29659
311.3238
311.33903
311.36596
311.38148
311.40828
311.42388
311.45073
311.4662
311.49329
311.50838
311.53614
311.54988
311.58098
305.26207
307.02101
308.26369
308.77348
309.05493
309.33593
309.48736
309.68436
309.77933
309.93221
309.99729
310.1166
310.15791
310.24847
310.27024
310.33775
310.34569
310.39689
310.39709
310.43816
310.43558
310.47106
310.4689
310.50154
310.50146
310.53268
310.53525
310.56563
310.5708
310.60052
310.60797
310.63705
310.64635
310.67479
310.6855
310.71334
310.72507
310.75241
310.76481
310.79183
310.80457
310.83145
310.84429
310.87123
310.88392
310.91116
310.92338
310.95143
310.96205
310.99367
304.76528
306.08958
307.41776
307.99634
308.32047
308.64766
308.82364
309.05335
309.16307
309.34113
309.41591
309.55472
309.60167
309.70653
309.73016
309.80729
309.8139
309.87097
309.86762
309.91194
309.90461
309.94173
309.93446
309.96788
309.96282
309.99442
309.99239
310.02299
310.02403
310.05391
310.05768
310.08687
310.09288
310.12139
310.12911
310.15696
310.1659
310.19323
310.20295
310.22993
310.24007
310.26691
310.27715
310.30407
310.31415
310.34141
310.35095
310.37913
310.38693
310.41856
304.39342
305.30294
306.63728
307.2591
307.61508
307.98066
308.17797
308.43654
308.55993
308.76089
308.84533
309.00244
309.05575
309.17451
309.20118
309.28792
309.29451
309.3575
309.35176
309.39926
309.3881
309.42664
309.4149
309.44879
309.4392
309.47081
309.46453
309.49496
309.49216
309.52183
309.52217
309.55117
309.55411
309.58243
309.58736
309.61504
309.62138
309.64853
309.65577
309.68257
309.69028
309.71695
309.72478
309.75155
309.75921
309.78635
309.79344
309.82154
309.82688
309.85804
304.10991
304.66239
305.93444
306.5723
306.94717
307.34157
307.55586
307.83852
307.97394
308.19491
308.28858
308.46234
308.5225
308.65443
308.68522
308.78141
308.78927
308.8582
308.85129
308.90193
308.88791
308.9277
308.91222
308.94626
308.93268
308.96391
308.95376
308.98363
308.97728
309.00637
309.00354
309.03201
309.03212
309.05998
309.06235
309.08962
309.09358
309.12037
309.12534
309.1518
309.15729
309.18365
309.18928
309.21576
309.22121
309.24807
309.25296
309.28076
309.28403
309.31429
303.89037
304.16059
305.31731
305.94498
306.32466
306.73698
306.96292
307.26409
307.40931
307.64679
307.74886
307.93715
308.00432
308.14838
308.18416
308.28945
308.2998
308.37462
308.36776
308.42151
308.40567
308.44656
308.42813
308.46204
308.44504
308.47553
308.46194
308.49085
308.48128
308.50941
308.50367
308.53128
308.52879
308.55591
308.55593
308.58258
308.58437
308.61061
308.61351
308.63948
308.64296
308.66886
308.67251
308.69854
308.70204
308.72843
308.73141
308.75866
308.76025
308.78926
303.71753
303.78262
304.78904
305.38386
305.75429
306.17297
306.40452
306.71796
306.87021
307.12024
307.22942
307.42972
307.50367
307.65846
307.69985
307.81365
307.82756
307.90812
307.9025
307.95932
307.94271
307.98459
307.96404
307.9976
307.97779
308.00722
307.99063
308.01822
308.00575
308.03256
308.02417
308.05059
308.04573
308.07183
308.06972
308.0955
308.09534
308.12084
308.1219
308.14721
308.1489
308.17419
308.17609
308.2015
308.2033
308.22905
308.2304
308.25687
308.25716
308.28465
303.57893
303.50924
304.3482
304.89265
305.24108
305.65467
305.88544
306.20453
306.36064
306.61886
306.73348
306.94287
307.02301
307.18681
307.23406
307.35557
307.37388
307.45992
307.45662
307.51645
307.50012
307.54291
307.52111
307.55413
307.53216
307.56027
307.54113
307.56708
307.55204
307.57719
307.5664
307.59131
307.5843
307.60911
307.60508
307.62977
307.62786
307.65242
307.65185
307.67634
307.67647
307.70098
307.70137
307.72602
307.72636
307.75129
307.75131
307.77676
307.7761
307.80187
303.46551
303.31923
303.98935
304.47191
304.78793
305.18587
305.40954
305.7276
305.88416
306.14599
306.26406
306.47935
306.56472
306.73547
306.78853
306.91667
306.93999
307.0311
307.03105
307.09379
307.07873
307.12239
307.10018
307.13257
307.10909
307.13567
307.11446
307.13849
307.12122
307.14441
307.13147
307.15458
307.14561
307.16886
307.1631
307.18648
307.18301
307.20646
307.20445
307.22796
307.22674
307.25034
307.24944
307.27317
307.27232
307.29625
307.29523
307.31946
307.31815
307.34209
303.37065
303.19185
303.70409
304.11923
304.39546
304.76878
304.97955
305.29017
305.44369
305.70454
305.82385
306.04167
306.13098
306.30643
306.36487
306.49834
306.52697
306.62258
306.62654
306.69204
306.67912
306.72365
306.70185
306.73356
306.70923
306.73414
306.71135
306.73324
306.71408
306.73505
306.7202
306.74124
306.73051
306.75196
306.74463
306.76649
306.76164
306.7838
306.78055
306.80293
306.80056
306.8231
306.82115
306.84382
306.84201
306.86479
306.86299
306.88584
306.88412
306.90618
303.28959
303.10848
303.48217
303.8297
304.06205
304.40388
304.59687
304.89426
305.0414
305.29685
305.41507
305.63204
305.72378
305.90148
305.96456
306.10186
306.1358
306.23519
306.24367
306.31171
306.3017
306.34707
306.32645
306.35749
306.33295
306.35615
306.33225
306.35187
306.33115
306.34969
306.33316
306.35191
306.33958
306.359
306.35026
306.37041
306.36433
306.38505
306.38072
306.40183
306.39851
306.41986
306.41706
306.43854
306.436
306.45751
306.45515
306.4765
306.47457
306.49476
303.21899
303.05383
303.31269
303.59659
303.78414
304.09
304.26152
304.54077
304.67855
304.92453
305.03941
305.25223
305.34472
305.52216
305.58889
305.72836
305.76731
305.8696
305.88288
305.95314
305.94664
305.99284
305.97408
306.00451
305.98038
306.00187
305.97734
305.99463
305.97267
305.98865
305.97066
305.98693
305.97315
305.99037
305.98033
305.99859
305.99142
306.01054
306.00529
306.025
306.02091
306.04096
306.0375
306.05768
306.05461
306.07474
306.07204
306.0918
306.08981
306.10816
303.15646
303.01616
303.18493
303.41208
303.55667
303.82445
303.97219
304.2295
304.35547
304.58844
304.69786
304.90349
304.99502
305.16972
305.23891
305.37877
305.42217
305.52635
305.54446
305.61655
305.61398
305.66096
305.64465
305.67455
305.65139
305.67126
305.64656
305.66151
305.63865
305.652
305.63275
305.64641
305.63132
305.64617
305.63495
305.65118
305.64301
305.66041
305.65437
305.67257
305.66785
305.6865
305.68256
305.70135
305.69794
305.7166
305.71373
305.73186
305.72991
305.74651
303.10045
302.98738
303.08917
303.26798
303.37355
303.6033
303.72639
303.95917
304.07152
304.28862
304.39076
304.58651
304.67542
304.84503
304.91535
305.05383
305.1009
305.20585
305.22859
305.30199
305.3036
305.35126
305.33786
305.36734
305.34566
305.36403
305.3396
305.3523
305.32886
305.33956
305.31926
305.33022
305.31395
305.32632
305.31399
305.32807
305.319
305.33456
305.32783
305.34443
305.33921
305.35638
305.3521
305.36945
305.36583
305.38298
305.38008
305.39658
305.39473
305.40966
303.04981
302.96228
303.01702
303.15635
303.22824
303.42179
303.52067
303.72756
303.82521
304.02433
304.11774
304.30135
304.38613
304.54855
304.61865
304.754
304.80378
304.90833
304.93527
305.0094
305.01523
305.06343
305.05328
305.08243
305.06267
305.07972
305.05596
305.06654
305.04283
305.05094
305.0298
305.03804
305.0207
305.03049
305.01714
305.02896
305.01906
305.03268
305.02535
305.04027
305.03466
305.05029
305.04579
305.06164
305.05796
305.07358
305.07073
305.08563
305.08393
305.09731
303.00382
302.93807
302.96172
303.06997
303.11421
303.27469
303.3509
303.53171
303.6143
303.79409
303.87776
304.04752
304.12688
304.28027
304.34886
304.47944
304.5309
304.63385
304.66439
304.73859
304.7485
304.79704
304.79034
304.81923
304.80175
304.81767
304.79496
304.80361
304.77994
304.78556
304.76377
304.76931
304.75101
304.75819
304.74388
304.75336
304.74268
304.75429
304.74643
304.7596
304.75368
304.76774
304.76311
304.77744
304.77378
304.78788
304.78516
304.79852
304.79698
304.80891
302.96191
302.91353
302.91805
303.00264
303.02533
303.15666
303.21256
303.3681
303.43592
303.59584
303.66919
303.82393
303.89686
304.03979
304.10567
304.23003
304.28207
304.38226
304.41567
304.48924
304.50293
304.55156
304.54835
304.57705
304.5621
304.57709
304.55576
304.5627
304.53935
304.54266
304.52042
304.52333
304.50418
304.50874
304.49353
304.50062
304.4892
304.49874
304.49039
304.50177
304.49561
304.50806
304.50338
304.5162
304.51262
304.52523
304.52268
304.53458
304.53319
304.54379
302.92367
302.88846
302.88223
302.94928
302.9561
303.06254
303.10103
303.2329
303.28684
303.42702
303.48992
303.62903
303.69483
303.82623
303.88839
304.00531
304.05689
304.15323
304.1887
304.2609
304.27794
304.32633
304.32655
304.35506
304.34281
304.35708
304.3374
304.34288
304.32012
304.32132
304.29882
304.29923
304.27934
304.28132
304.26524
304.26993
304.25779
304.26523
304.25642
304.26599
304.25962
304.27046
304.26577
304.2771
304.27365
304.28482
304.28246
304.29298
304.29175
304.30112
302.88875
302.86317
302.85168
302.90597
302.90186
302.98764
303.01184
303.12221
303.16356
303.28476
303.33748
303.46085
303.51914
303.63838
303.696
303.80454
303.85468
303.94621
303.98288
304.053
304.07284
304.12065
304.12409
304.15239
304.14292
304.15664
304.13883
304.14311
304.12119
304.12051
304.09796
304.09601
304.07549
304.07495
304.05806
304.06036
304.04752
304.05285
304.04359
304.05133
304.04478
304.05402
304.04936
304.05922
304.05592
304.06572
304.06356
304.0728
304.07171
304.07996
302.85685
302.83817
302.82471
302.86979
302.8588
302.92784
302.94083
303.03219
303.06258
303.166
303.20915
303.31715
303.36785
303.47465
303.52717
303.62666
303.67452
303.76044
303.79747
303.86484
303.88688
303.93372
303.94009
303.96811
303.96139
303.97471
303.95892
303.96227
303.9414
303.93911
303.91669
303.91258
303.89155
303.88859
303.87094
303.87088
303.85735
303.86058
303.85086
303.8568
303.85006
303.85773
303.8531
303.86155
303.85841
303.86692
303.86493
303.87299
303.87203
303.87926
302.82771
302.81392
302.80034
302.83868
302.82393
302.87967
302.88434
302.9593
302.98046
303.06767
303.1021
303.19547
303.23877
303.33326
303.38034
303.47041
303.5153
303.59499
303.63158
303.69561
303.71919
303.76468
303.77361
303.80122
303.79715
303.8102
303.79652
303.79919
303.77955
303.77593
303.7538
303.74775
303.72632
303.72109
303.70272
303.70037
303.68616
303.68731
303.67714
303.68129
303.67436
303.6805
303.67589
303.683
303.67999
303.6873
303.68548
303.69246
303.6916
303.6979
302.80108
302.79082
302.77798
302.81127
302.79503
302.84035
302.8392
302.90033
302.91404
302.98679
303.01354
303.0933
303.12962
303.2122
303.25373
303.33429
303.3757
303.44873
303.4842
303.54436
303.56885
303.61261
303.62366
303.65073
303.64913
303.66198
303.65045
303.65265
303.6344
303.62971
303.60806
303.6003
303.57859
303.57124
303.55221
303.54766
303.53278
303.53189
303.52126
303.52366
303.51653
303.52119
303.51658
303.52242
303.51953
303.52571
303.52403
303.53003
303.52927
303.53473
302.77673
302.76909
302.75735
302.78667
302.77047
302.80771
302.80282
302.85249
302.86043
302.92056
302.94075
303.00813
303.03806
303.10939
303.14547
303.21666
303.25427
303.32041
303.35417
303.41008
303.43485
303.47653
303.48924
303.5156
303.51623
303.52893
303.51951
303.52146
303.5047
303.49922
303.47819
303.46895
303.44709
303.43779
303.41817
303.41152
303.39597
303.39313
303.38202
303.38273
303.37536
303.3786
303.37397
303.37861
303.37582
303.38097
303.37941
303.38452
303.38383
303.38854
302.75446
302.74886
302.7383
302.76432
302.74914
302.78009
302.77312
302.81346
302.81713
302.86647
302.88123
302.93757
302.9618
303.02274
303.05362
303.11582
303.14945
303.20866
303.24026
303.29163
303.31614
303.35544
303.36933
303.3948
303.39739
303.40993
303.40256
303.40442
303.38921
303.38318
303.3629
303.35245
303.33055
303.31948
303.29933
303.29071
303.27453
303.26981
303.2582
303.25729
303.24967
303.25156
303.24688
303.2504
303.24767
303.25188
303.25041
303.25471
303.25408
303.25811
302.73408
302.73015
302.72073
302.7439
302.73026
302.75632
302.74848
302.78133
302.78203
302.82228
302.83269
302.87939
302.89866
302.9502
302.97625
303.03
303.05965
303.11206
303.14117
303.18785
303.21161
303.24828
303.26291
303.2873
303.29154
303.3039
303.29845
303.30034
303.28673
303.28037
303.26095
303.24951
303.22768
303.21505
303.19445
303.184
303.16719
303.1607
303.14859
303.14613
303.13823
303.13885
303.13409
303.13657
303.13387
303.13723
303.13582
303.13941
303.13882
303.14224
302.71544
302.71293
302.7046
302.72522
302.71337
302.73555
302.7277
302.75457
302.75338
302.7861
302.79315
302.83155
302.84664
302.8898
302.9115
302.95746
302.98325
303.02914
303.05555
303.09751
303.12013
303.154
303.16893
303.19209
303.19764
303.20978
303.20609
303.20811
303.19609
303.18959
303.17111
303.15892
303.13725
303.12327
303.10227
303.09015
303.07276
303.0646
303.05198
303.04807
303.03987
303.0393
303.03442
303.03595
303.03325
303.03583
303.03447
303.03741
303.03685
303.03973
302.6984
302.69715
302.68984
302.70816
302.69813
302.71719
302.70988
302.73202
302.72976
302.75634
302.76088
302.79227
302.80391
302.83975
302.85761
302.89651
302.91868
302.95842
302.98206
303.01938
303.04056
303.0715
303.08637
303.10815
303.1147
303.12655
303.12443
303.12663
303.11616
303.10968
303.09221
303.07946
303.05806
303.04291
303.0216
303.00796
302.99002
302.98032
302.9672
302.96193
302.95342
302.95174
302.94673
302.94738
302.94466
302.94655
302.9452
302.94757
302.94703
302.94943
302.68283
302.68272
302.67641
302.69265
302.68435
302.70085
302.69441
302.71279
302.71008
302.73169
302.73446
302.75999
302.76887
302.7984
302.81295
302.84559
302.86441
302.89849
302.91938
302.95223
302.97175
302.99974
303.01421
303.03449
303.04175
303.05322
303.05248
303.05489
303.04589
303.03956
303.02312
303.01
302.98894
302.97281
302.95126
302.93627
302.91783
302.90671
302.89312
302.88659
302.87775
302.87506
302.86989
302.86975
302.86699
302.86824
302.86691
302.86877
302.86824
302.87021
302.66865
302.6696
302.66425
302.67861
302.67191
302.68626
302.68084
302.69623
302.6935
302.71113
302.71271
302.73342
302.74013
302.76432
302.77607
302.80322
302.81905
302.84799
302.86624
302.89486
302.9126
302.93766
302.95147
302.97017
302.97784
302.98887
302.98929
302.99191
302.98429
302.9782
302.96279
302.94947
302.92879
302.91188
302.89015
302.87398
302.85508
302.84269
302.82863
302.82096
302.8118
302.80818
302.80284
302.80199
302.79917
302.79987
302.79852
302.79993
302.79941
302.801
302.65578
302.65771
302.65331
302.66599
302.66072
302.67325
302.66886
302.68185
302.67939
302.69383
302.69468
302.71146
302.71652
302.73623
302.74567
302.76809
302.78128
302.80565
302.82141
302.84611
302.86203
302.88424
302.8972
302.91427
302.92211
302.93261
302.93399
302.93679
302.93043
302.92464
302.91024
302.89684
302.8766
302.85905
302.83721
302.82002
302.80072
302.7872
302.77271
302.76402
302.75454
302.75009
302.74458
302.74309
302.7402
302.7404
302.73904
302.74006
302.73954
302.7408
302.64417
302.64703
302.64354
302.65473
302.65072
302.66166
302.65827
302.66931
302.66727
302.67917
302.67962
302.69322
302.69707
302.71307
302.72063
302.73903
302.74995
302.77029
302.78378
302.80491
302.81903
302.83851
302.85049
302.86591
302.87371
302.88361
302.88575
302.88869
302.88346
302.878
302.86456
302.85117
302.8314
302.81336
302.79148
302.77342
302.75378
302.73927
302.72439
302.71479
302.70502
302.69984
302.69415
302.6921
302.68913
302.68891
302.68752
302.68819
302.68766
302.68864
302.63382
302.63754
302.63492
302.6448
302.64185
302.65142
302.64891
302.65835
302.6568
302.66667
302.66695
302.67801
302.68097
302.69395
302.70001
302.71503
302.72401
302.74088
302.75232
302.77024
302.78262
302.79956
302.81046
302.82427
302.83184
302.8411
302.84381
302.84683
302.84258
302.83745
302.82492
302.81161
302.7923
302.77391
302.75203
302.73326
302.71334
302.69799
302.68277
302.67238
302.66234
302.65652
302.65068
302.64813
302.64509
302.64449
302.64308
302.64345
302.64292
302.64364
302.62475
302.62923
302.62741
302.63612
302.63407
302.64242
302.64069
302.64879
302.64772
302.65596
302.65623
302.66525
302.66759
302.67811
302.68299
302.69521
302.70258
302.71646
302.72611
302.74119
302.75194
302.76653
302.77633
302.78856
302.79578
302.80436
302.80746
302.8105
302.80709
302.80225
302.79054
302.77736
302.75851
302.73987
302.71804
302.69869
302.67856
302.6625
302.647
302.63595
302.62568
302.61931
302.61333
302.61036
302.60726
302.60633
302.6049
302.60501
302.60447
302.60498
302.61704
302.62212
302.62099
302.62865
302.62733
302.6346
302.63351
302.64046
302.63984
302.64677
302.6471
302.65449
302.65642
302.66495
302.66892
302.67882
302.68487
302.69624
302.70433
302.71692
302.72618
302.73863
302.74733
302.75807
302.76483
302.77271
302.77604
302.77905
302.77631
302.77173
302.76073
302.74769
302.72929
302.71048
302.68874
302.66895
302.64868
302.63205
302.61634
302.60473
302.59429
302.58746
302.58137
302.57805
302.57489
302.57369
302.57224
302.57213
302.57159
302.57191
302.61077
302.61619
302.61561
302.62232
302.62157
302.62787
302.62729
302.63326
302.63303
302.63886
302.63931
302.64539
302.64704
302.65397
302.65724
302.66527
302.67023
302.6795
302.68626
302.69672
302.70462
302.71516
302.72279
302.73213
302.73838
302.74553
302.74897
302.75187
302.74966
302.74527
302.73487
302.72198
302.70398
302.68507
302.66346
302.64334
302.623
302.60594
302.59008
302.57805
302.56747
302.56029
302.55411
302.55051
302.5473
302.54589
302.54441
302.54413
302.54358
302.54374
302.606
302.61143
302.61124
302.61705
302.61673
302.62215
302.62196
302.62707
302.62715
302.63208
302.63265
302.63768
302.63914
302.64479
302.64753
302.65402
302.65811
302.66565
302.67128
302.67992
302.68663
302.69547
302.70209
302.71014
302.71582
302.72227
302.72569
302.72841
302.72658
302.7223
302.71239
302.69962
302.68198
302.66302
302.64157
302.62124
302.6009
302.58353
302.5676
302.55526
302.54461
302.53716
302.53093
302.52711
302.52388
302.52229
302.52081
302.52038
302.51983
302.51986
302.60267
302.60777
302.60779
302.61275
302.61272
302.61735
302.61744
302.62179
302.62212
302.62628
302.62696
302.63113
302.63247
302.63709
302.63942
302.64468
302.64807
302.65419
302.65888
302.66597
302.67162
302.67899
302.68468
302.69155
302.69666
302.7024
302.7057
302.70819
302.70658
302.70234
302.69279
302.6801
302.66277
302.64381
302.62254
302.60209
302.58182
302.56427
302.54836
302.53582
302.52516
302.51752
302.51129
302.50731
302.50408
302.50235
302.50087
302.50032
302.49977
302.4997
302.60064
302.60508
302.60517
302.60932
302.60947
302.61338
302.61366
302.61734
302.61784
302.62135
302.6221
302.62558
302.62683
302.63062
302.63262
302.63689
302.63972
302.64468
302.64859
302.65439
302.65913
302.66521
302.67005
302.67586
302.6804
302.68546
302.68855
302.69074
302.68923
302.68493
302.67562
302.66296
302.64589
302.62696
302.60589
302.58542
302.56529
302.54768
302.53185
302.51922
302.50862
302.50089
302.49469
302.49061
302.4874
302.48558
302.48411
302.48347
302.48293
302.48277
302.59959
302.6032
302.60325
302.60665
302.60689
302.61014
302.61053
302.61362
302.61422
302.61718
302.61798
302.62087
302.62205
302.62517
302.62692
302.63038
302.63277
302.63678
302.64005
302.64477
302.64874
302.65371
302.65779
302.66265
302.66662
302.67103
302.67384
302.67566
302.67411
302.66967
302.66047
302.6478
302.63093
302.61204
302.5912
302.5708
302.55088
302.53332
302.51766
302.50505
302.49457
302.48682
302.48069
302.47658
302.47341
302.47153
302.47008
302.46938
302.46885
302.46863
302.59921
302.60195
302.6019
302.60461
302.60488
302.60753
302.60798
302.61054
302.61121
302.61367
302.61449
302.61689
302.618
302.62057
302.62212
302.62493
302.62695
302.6302
302.63294
302.63678
302.64007
302.6441
302.6475
302.65152
302.65495
302.65872
302.66119
302.66259
302.66088
302.65619
302.647
302.63426
302.61754
302.59872
302.57813
302.55787
302.53823
302.52083
302.50542
302.49293
302.48263
302.47494
302.46893
302.46483
302.46173
302.45983
302.45841
302.45767
302.45715
302.45688
302.59918
302.60115
302.601
302.60309
302.60334
302.60547
302.60593
302.60802
302.6087
302.61074
302.61156
302.61354
302.61458
302.6167
302.61807
302.62035
302.62208
302.6247
302.62701
302.63011
302.63283
302.63607
302.63886
302.64213
302.64505
302.6482
302.65027
302.65118
302.6492
302.64418
302.63489
302.62202
302.6054
302.58667
302.56636
302.54633
302.52704
302.5099
302.49482
302.48254
302.47248
302.46493
302.45908
302.45503
302.45202
302.45013
302.44876
302.44799
302.44749
302.44719
302.59928
302.60064
302.60041
302.60198
302.60219
302.60386
302.60431
302.60599
302.60665
302.60831
302.6091
302.61072
302.6117
302.61343
302.61465
302.6165
302.61798
302.6201
302.62204
302.62453
302.62677
302.62932
302.63158
302.63419
302.63661
302.63916
302.64078
302.64114
302.63878
302.63336
302.62387
302.61083
302.59428
302.57566
302.55565
302.53592
302.51706
302.50027
302.48559
302.47361
302.46386
302.4565
302.45085
302.4469
302.444
302.44215
302.44082
302.44006
302.43957
302.43925
302.59938
302.60031
302.60004
302.60117
302.60134
302.60261
302.60303
302.60435
302.60498
302.60631
302.60705
302.60837
302.60926
302.61067
302.61175
302.61324
302.61452
302.61622
302.61785
302.61983
302.62165
302.62363
302.62542
302.62744
302.62938
302.63133
302.63244
302.63221
302.62938
302.62347
302.6137
302.60046
302.58395
302.56546
302.54579
302.52644
302.50807
302.49172
302.47752
302.46591
302.45653
302.44942
302.44401
302.4402
302.43742
302.43563
302.43437
302.43361
302.43315
302.43282
302.59944
302.60007
302.59981
302.60059
302.60072
302.60166
302.60203
302.60304
302.60362
302.60466
302.60535
302.6064
302.60721
302.60833
302.60929
302.61047
302.61158
302.61293
302.61431
302.61586
302.61731
302.61878
302.62015
302.62164
302.6231
302.62446
302.62502
302.62414
302.62075
302.6143
302.60418
302.59071
302.57423
302.55591
302.53663
302.51773
302.49991
302.48409
302.47043
302.45927
302.4503
302.4435
302.43834
302.43471
302.43208
302.43036
302.42917
302.42844
302.428
302.42768
302.59944
302.59989
302.59966
302.60016
302.60027
302.60093
302.60126
302.602
302.60253
302.60332
302.60394
302.60475
302.60548
302.60636
302.60719
302.60811
302.60906
302.61012
302.61127
302.61245
302.61359
302.61462
302.6156
302.61659
302.61759
302.61834
302.6183
302.61672
302.61271
302.60566
302.59515
302.58144
302.565
302.54689
302.52803
302.50965
302.49245
302.47724
302.46418
302.45353
302.44501
302.43856
302.4337
302.43026
302.42779
302.42616
302.42505
302.42435
302.42395
302.42363
302.5994
302.59972
302.59955
302.59984
302.59993
302.60037
302.60066
302.60118
302.60164
302.60222
302.60276
302.60336
302.604
302.60466
302.60539
302.60608
302.60689
302.60769
302.60864
302.6095
302.61034
302.61098
302.6116
302.61213
302.61264
302.61278
302.61209
302.60977
302.60507
302.59739
302.58646
302.57253
302.55613
302.53828
302.51991
302.50212
302.48561
302.47107
302.45866
302.44857
302.44055
302.43448
302.42993
302.4267
302.42441
302.42288
302.42186
302.4212
302.42083
302.42052
302.59933
302.59957
302.59945
302.59959
302.59968
302.59993
302.60018
302.60052
302.60092
302.6013
302.60178
302.60219
302.60273
302.6032
302.60381
302.60431
302.60498
302.60557
302.60632
302.60689
302.60747
302.60774
302.60801
302.60808
302.6081
302.6076
302.60622
302.60312
302.5977
302.58937
302.57802
302.56388
302.54757
302.53004
302.51221
302.49508
302.47931
302.4655
302.45379
302.44431
302.43681
302.43114
302.42692
302.42393
302.42181
302.4204
302.41946
302.41885
302.41851
302.41822
302.59924
302.59942
302.59936
302.59938
302.59947
302.59958
302.5998
302.59998
302.60032
302.60053
302.60093
302.60117
302.60162
302.60192
302.60242
302.60274
302.60329
302.60367
302.60425
302.60454
302.60486
302.60479
302.60471
302.60432
302.60382
302.60265
302.60054
302.59664
302.59048
302.58151
302.56974
302.55543
302.53927
302.52212
302.50489
302.48849
302.47352
302.46049
302.44951
302.44067
302.43371
302.42847
302.42458
302.42184
302.4199
302.41861
302.41775
302.4172
302.41688
302.41662
302.59913
302.59927
302.59925
302.59919
302.5993
302.59928
302.59949
302.59952
302.5998
302.59986
302.60018
302.60027
302.60063
302.60076
302.60116
302.60132
302.60175
302.60194
302.60233
302.60237
302.60242
302.60202
302.60157
302.60071
302.59967
302.59781
302.59495
302.59022
302.58331
302.57372
302.56158
302.54717
302.5312
302.51451
302.49794
302.48233
302.4682
302.456
302.44578
302.4376
302.43119
302.42639
302.42284
302.42035
302.41859
302.41742
302.41665
302.41615
302.41587
302.41563
302.599
302.59911
302.59914
302.59901
302.59913
302.59902
302.5992
302.59911
302.59934
302.59926
302.59949
302.59944
302.59971
302.59969
302.59999
302.6
302.6003
302.60032
302.60052
302.6003
302.60008
302.59934
302.59851
302.59716
302.59554
302.59297
302.58932
302.58378
302.57614
302.56597
302.55351
302.53907
302.52337
302.50721
302.49138
302.47661
302.46336
302.45202
302.44258
302.43507
302.42921
302.42485
302.42164
302.41939
302.41782
302.41678
302.41608
302.41564
302.41539
302.41518
302.59886
302.59895
302.59901
302.59883
302.59897
302.59878
302.59893
302.59873
302.59889
302.59868
302.59883
302.59864
302.59882
302.59867
302.59886
302.59873
302.59891
302.59874
302.59876
302.59827
302.59777
302.59666
302.59544
302.59357
302.59134
302.58804
302.5836
302.57726
302.56891
302.55823
302.54553
302.53115
302.51581
302.50026
302.48521
302.47134
302.45901
302.44853
302.43988
302.43304
302.42774
302.42382
302.42094
302.41894
302.41753
302.41661
302.416
302.41561
302.41539
302.4152
302.5987
302.59878
302.59887
302.59865
302.59879
302.59853
302.59865
302.59834
302.59843
302.5981
302.59816
302.59784
302.59792
302.59765
302.59774
302.59748
302.59753
302.59717
302.59698
302.59622
302.59541
302.59393
302.59227
302.58986
302.58699
302.58295
302.57772
302.57062
302.56164
302.55053
302.53767
302.52345
302.50855
302.49368
302.47948
302.46654
302.45514
302.44556
302.43768
302.43152
302.42675
302.42326
302.42069
302.41893
302.41769
302.41688
302.41635
302.41601
302.41581
302.41565
302.59852
302.59861
302.59872
302.59845
302.5986
302.59826
302.59833
302.59792
302.59794
302.59748
302.59746
302.59701
302.597
302.5966
302.59659
302.5962
302.59611
302.59556
302.59514
302.5941
302.59295
302.59107
302.58894
302.58597
302.58243
302.57766
302.57167
302.56386
302.55431
302.54288
302.52997
302.51601
302.50165
302.48754
302.47423
302.46225
302.45179
302.44309
302.43598
302.43047
302.42622
302.42314
302.42088
302.41934
302.41826
302.41757
302.4171
302.41681
302.41664
302.4165
302.59833
302.59843
302.59855
302.59825
302.59838
302.59796
302.59797
302.59744
302.59738
302.59679
302.59667
302.59611
302.596
302.59549
302.59538
302.59485
302.59462
302.59386
302.5932
302.59184
302.59034
302.58803
302.5854
302.58184
302.57764
302.57215
302.56544
302.557
302.54698
302.53534
302.5225
302.50891
302.49516
302.48188
302.46949
302.4585
302.44898
302.44114
302.43478
302.4299
302.42615
302.42346
302.42148
302.42016
302.41922
302.41863
302.41822
302.41798
302.41783
302.41772
302.59811
302.59825
302.59836
302.59801
302.59811
302.5976
302.59753
302.59688
302.59672
302.59601
302.59579
302.59511
302.59492
302.59429
302.59408
302.59341
302.59301
302.59204
302.5911
302.58942
302.58752
302.58477
302.58161
302.57746
302.57259
302.56642
302.55904
302.55007
302.5397
302.52797
302.51531
302.50221
302.48915
302.47675
302.46532
302.45532
302.44672
302.43973
302.43409
302.42981
302.42652
302.4242
302.42249
302.42136
302.42055
302.42005
302.4197
302.4195
302.41938
302.41928
302.59788
302.59807
302.59816
302.59775
302.59779
302.59716
302.597
302.59621
302.59594
302.5951
302.59478
302.59399
302.59371
302.59298
302.59266
302.59185
302.59126
302.59005
302.58882
302.58678
302.58447
302.58125
302.57755
302.57281
302.5673
302.5605
302.55254
302.54315
302.53254
302.52086
302.5085
302.49598
302.48369
302.47222
302.46176
302.45274
302.44504
302.43887
302.4339
302.43019
302.42733
302.42535
302.42387
302.42293