/*--------------------------------*- C++ -*----------------------------------*\
| =========                 |                                                 |
| \\      /  F ield         | OpenFOAM: The Open Source CFD Toolbox           |
|  \\    /   O peration     | Version:  2312                                  |
|   \\  /    A nd           | Website:  www.openfoam.com                      |
|    \\/     M anipulation  |                                                 |
\*---------------------------------------------------------------------------*/
FoamFile
{
    version     2.0;
    format      ascii;
    arch        "LSB;label=32;scalar=64";
    class       volVectorField;
    location    "1";
    object      U;
}
// * * * * * * * * * * * * * * * * * * * * * * * * * * * * * * * * * * * * * //

dimensions      [0 1 -1 0 0 0 0];

internalField   nonuniform List<vector> 
4000
(
(0.0025623355 0.00050382237 0)
(0.0042908409 -1.0053425e-05 0)
(0.0028684132 -5.0503693e-07 0)
(0.0031061755 8.0152547e-08 0)
(0.002995654 -2.3178291e-07 0)
(0.0030639564 2.3853571e-07 0)
(0.0029910467 -2.6169831e-07 0)
(0.0030451946 2.3317741e-07 0)
(0.0029942501 -2.2665523e-07 0)
(0.0030407607 2.1717432e-07 0)
(0.0029961189 -2.1011256e-07 0)
(0.0030384271 2.0232027e-07 0)
(0.0029977456 -1.9563547e-07 0)
(0.0030365905 1.8866526e-07 0)
(0.0029993023 -1.8225718e-07 0)
(0.0030349903 1.7585126e-07 0)
(0.0030007717 -1.697455e-07 0)
(0.0030335376 1.6373914e-07 0)
(0.0030021491 -1.5792425e-07 0)
(0.0030321924 1.5223312e-07 0)
(0.0030034423 -1.4668655e-07 0)
(0.003030932 1.4126894e-07 0)
(0.0030046631 -1.3598009e-07 0)
(0.0030297411 1.3082038e-07 0)
(0.003005821 -1.2578294e-07 0)
(0.0030286089 1.2088073e-07 0)
(0.003006925 -1.1610691e-07 0)
(0.0030275277 1.1147451e-07 0)
(0.0030079811 -1.069764e-07 0)
(0.0030264919 1.0263389e-07 0)
(0.0030089943 -9.8436172e-08 0)
(0.0030254974 9.4405737e-08 0)
(0.0030099685 -9.053266e-08 0)
(0.0030245402 8.6839013e-08 0)
(0.0030109067 -8.3316952e-08 0)
(0.0030236176 7.9985548e-08 0)
(0.0030118123 -7.6838937e-08 0)
(0.0030227263 7.3897697e-08 0)
(0.0030126886 -7.1147946e-08 0)
(0.0030218628 6.8612531e-08 0)
(0.0030135383 -6.6286796e-08 0)
(0.0030210239 6.4179695e-08 0)
(0.0030143659 -6.2289926e-08 0)
(0.0030202053 6.062861e-08 0)
(0.0030151741 -5.9199347e-08 0)
(0.0030194017 5.7990789e-08 0)
(0.0030159694 -5.708294e-08 0)
(0.003018646 5.6330507e-08 0)
(0.0030169634 -5.5305236e-08 0)
(0.0030186403 6.0054842e-08 0)
(0.0066878542 0.0013445184 0)
(0.011802778 -3.6035869e-06 0)
(0.0085686536 1.3986812e-05 0)
(0.0089683109 -2.5857924e-07 0)
(0.0086893154 -4.9502664e-07 0)
(0.0088965947 9.8410832e-07 0)
(0.0086795851 -6.5350983e-07 0)
(0.0088425938 8.3182527e-07 0)
(0.0086880644 -7.853104e-07 0)
(0.0088304839 7.8903507e-07 0)
(0.0086937832 -7.5486455e-07 0)
(0.0088235783 7.3692741e-07 0)
(0.0086988292 -7.0794715e-07 0)
(0.0088179702 6.8634262e-07 0)
(0.0087036592 -6.6124256e-07 0)
(0.0088130328 6.3920356e-07 0)
(0.008708227 -6.1629908e-07 0)
(0.008808526 5.947939e-07 0)
(0.0087125201 -5.7328178e-07 0)
(0.0088043386 5.5256517e-07 0)
(0.0087165586 -5.3211159e-07 0)
(0.0088004071 5.1223313e-07 0)
(0.0087203747 -4.9270617e-07 0)
(0.0087966906 4.7369801e-07 0)
(0.0087239941 -4.5509096e-07 0)
(0.0087931595 4.3699626e-07 0)
(0.0087274402 -4.1933765e-07 0)
(0.0087897934 4.0222349e-07 0)
(0.00873073 -3.8560177e-07 0)
(0.0087865769 3.6954893e-07 0)
(0.0087338767 -3.5404291e-07 0)
(0.0087834977 3.3914956e-07 0)
(0.0087368922 -3.2485496e-07 0)
(0.0087805443 3.1122271e-07 0)
(0.0087397862 -2.9823589e-07 0)
(0.0087777074 2.8595509e-07 0)
(0.0087425696 -2.7436792e-07 0)
(0.0087749761 2.635125e-07 0)
(0.0087452541 -2.5341211e-07 0)
(0.0087723376 2.4408994e-07 0)
(0.0087478497 -2.3552712e-07 0)
(0.0087697801 2.2778553e-07 0)
(0.0087503724 -2.2084652e-07 0)
(0.0087672894 2.1475698e-07 0)
(0.0087528334 -2.0944482e-07 0)
(0.008764845 2.0504818e-07 0)
(0.0087552453 -2.0184944e-07 0)
(0.0087624812 1.9637566e-07 0)
(0.0087580293 -2.0688491e-07 0)
(0.0087619624 1.8663354e-07 0)
(0.011241118 0.0022855015 0)
(0.018753014 -9.7862154e-06 0)
(0.014110779 3.4629806e-05 0)
(0.01467359 -1.5699855e-07 0)
(0.014230238 -8.5182688e-07 0)
(0.014582631 1.8637141e-06 0)
(0.014216295 -1.0077447e-06 0)
(0.014495504 1.52049e-06 0)
(0.014230962 -1.4224325e-06 0)
(0.014476121 1.4495211e-06 0)
(0.014240961 -1.3822694e-06 0)
(0.014464494 1.3551726e-06 0)
(0.014249731 -1.2991106e-06 0)
(0.014454885 1.2616358e-06 0)
(0.014258103 -1.2144316e-06 0)
(0.014446371 1.1746511e-06 0)
(0.01426602 -1.1321718e-06 0)
(0.014438574 1.0928137e-06 0)
(0.014273468 -1.0530977e-06 0)
(0.014431314 1.0149741e-06 0)
(0.01428048 -9.7721102e-07 0)
(0.014424491 9.4052283e-07 0)
(0.014287109 -9.0451065e-07 0)
(0.014418038 8.6938628e-07 0)
(0.014293396 -8.3501838e-07 0)
(0.014411909 8.0155273e-07 0)
(0.01429938 -7.6896336e-07 0)
(0.014406072 7.3729984e-07 0)
(0.014305084 -7.0658722e-07 0)
(0.014400501 6.7689908e-07 0)
(0.014310533 -6.4825161e-07 0)
(0.014395177 6.2069894e-07 0)
(0.014315745 -5.9428932e-07 0)
(0.014390079 5.6907614e-07 0)
(0.014320738 -5.450888e-07 0)
(0.014385192 5.2235961e-07 0)
(0.01432553 -5.0096402e-07 0)
(0.014380495 4.8090566e-07 0)
(0.014330143 -4.6222894e-07 0)
(0.014375967 4.4498619e-07 0)
(0.014334596 -4.2917946e-07 0)
(0.014371584 4.1483817e-07 0)
(0.014338917 -4.0200496e-07 0)
(0.014367321 3.9071376e-07 0)
(0.01434313 -3.8084997e-07 0)
(0.01436314 3.7279676e-07 0)
(0.014347253 -3.6662618e-07 0)
(0.014359058 3.5569247e-07 0)
(0.014351862 -3.8168422e-07 0)
(0.014357744 3.3572089e-07 0)
(0.014809325 0.0028623269 0)
(0.025300858 -5.2579186e-05 0)
(0.019500792 6.2216081e-05 0)
(0.020224497 1.4295808e-07 0)
(0.019619374 -1.1053996e-06 0)
(0.020121305 2.7928553e-06 0)
(0.019600994 -1.171985e-06 0)
(0.020004336 2.1840918e-06 0)
(0.019622631 -2.0299169e-06 0)
(0.019978058 2.0971559e-06 0)
(0.019637339 -1.9940798e-06 0)
(0.019961533 1.9633724e-06 0)
(0.01965016 -1.8781062e-06 0)
(0.019947663 1.8271443e-06 0)
(0.019662366 -1.7572222e-06 0)
(0.019935304 1.7006648e-06 0)
(0.019673909 -1.638584e-06 0)
(0.019923951 1.5817862e-06 0)
(0.019684774 -1.5240047e-06 0)
(0.019913362 1.468665e-06 0)
(0.019695011 -1.4137959e-06 0)
(0.019903401 1.3604036e-06 0)
(0.019704693 -1.3080078e-06 0)
(0.019893979 1.2568221e-06 0)
(0.019713874 -1.2068262e-06 0)
(0.019885033 1.1580336e-06 0)
(0.019722604 -1.1105617e-06 0)
(0.01987652 1.0643871e-06 0)
(0.019730919 -1.0196825e-06 0)
(0.019868407 9.7636681e-07 0)
(0.019738848 -9.3466074e-07 0)
(0.019860665 8.9447078e-07 0)
(0.01974642 -8.5602804e-07 0)
(0.019853267 8.1926617e-07 0)
(0.019753659 -7.8434616e-07 0)
(0.019846188 7.5122679e-07 0)
(0.019760593 -7.2008237e-07 0)
(0.019839399 6.9080413e-07 0)
(0.019767255 -6.6365962e-07 0)
(0.019832867 6.3853756e-07 0)
(0.019773672 -6.1549807e-07 0)
(0.019826556 5.9461211e-07 0)
(0.019779889 -5.7593698e-07 0)
(0.019820428 5.594918e-07 0)
(0.019785941 -5.4505877e-07 0)
(0.019814425 5.3334759e-07 0)
(0.019791859 -5.2415662e-07 0)
(0.019808535 5.0726341e-07 0)
(0.01979832 -5.5479202e-07 0)
(0.019806134 4.7634551e-07 0)
(0.019547958 0.0038171745 0)
(0.031487008 -5.2135109e-05 0)
(0.024713841 9.6375737e-05 0)
(0.025623672 3.7791153e-08 0)
(0.024856308 -1.29778e-06 0)
(0.025511504 3.7344435e-06 0)
(0.024833564 -1.1500146e-06 0)
(0.025369016 2.7911552e-06 0)
(0.024863145 -2.5856925e-06 0)
(0.025336194 2.704934e-06 0)
(0.024882997 -2.5658696e-06 0)
(0.02531459 2.536821e-06 0)
(0.02490019 -2.4214957e-06 0)
(0.025296204 2.3599285e-06 0)
(0.024916525 -2.267542e-06 0)
(0.025279733 2.1958562e-06 0)
(0.024931969 -2.1148848e-06 0)
(0.025264559 2.0418022e-06 0)
(0.024946515 -1.9667622e-06 0)
(0.025250386 1.8951422e-06 0)
(0.02496023 -1.8238739e-06 0)
(0.025237042 1.7545689e-06 0)
(0.024973202 -1.6865886e-06 0)
(0.025224421 1.6200661e-06 0)
(0.024985498 -1.5551044e-06 0)
(0.025212444 1.4916448e-06 0)
(0.024997182 -1.4300162e-06 0)
(0.025201059 1.3699438e-06 0)
(0.025008295 -1.3118504e-06 0)
(0.025190222 1.2555263e-06 0)
(0.025018878 -1.2013424e-06 0)
(0.025179899 1.149073e-06 0)
(0.025028966 -1.0991379e-06 0)
(0.025170053 1.0513475e-06 0)
(0.025038589 -1.0060075e-06 0)
(0.025160652 9.6293187e-07 0)
(0.025047789 -9.2251523e-07 0)
(0.025151656 8.8450085e-07 0)
(0.025056607 -8.492369e-07 0)
(0.025143018 8.1660251e-07 0)
(0.025065084 -7.8672842e-07 0)
(0.02513469 7.5956927e-07 0)
(0.02507328 -7.3533248e-07 0)
(0.025126618 7.1395194e-07 0)
(0.025081245 -6.9518131e-07 0)
(0.025118727 6.8017243e-07 0)
(0.025089023 -6.678309e-07 0)
(0.025110961 6.4478177e-07 0)
(0.025097362 -7.1804402e-07 0)
(0.025107233 6.0270564e-07 0)
(0.022774606 0.0042082269 0)
(0.037186063 -0.00012910324 0)
(0.029773539 0.00013267657 0)
(0.030876327 1.3726132e-07 0)
(0.029939156 -1.4114122e-06 0)
(0.030752726 4.6999279e-06 0)
(0.029914321 -9.7541897e-07 0)
(0.030589176 3.3397248e-06 0)
(0.029952937 -3.0961941e-06 0)
(0.030550129 3.2741486e-06 0)
(0.029978338 -3.1003677e-06 0)
(0.030523285 3.0772056e-06 0)
(0.030000205 -2.9312168e-06 0)
(0.030500144 2.861571e-06 0)
(0.030020938 -2.7470159e-06 0)
(0.030479311 2.6616598e-06 0)
(0.030040541 -2.5624626e-06 0)
(0.030460069 2.4741004e-06 0)
(0.030059015 -2.3825573e-06 0)
(0.030442074 2.295464e-06 0)
(0.030076439 -2.2086331e-06 0)
(0.030425123 2.1241514e-06 0)
(0.03009292 -2.0412324e-06 0)
(0.030409091 1.9600461e-06 0)
(0.030108536 -1.8808317e-06 0)
(0.030393888 1.8033564e-06 0)
(0.030123359 -1.7281267e-06 0)
(0.03037945 1.6547853e-06 0)
(0.030137442 -1.5839346e-06 0)
(0.03036573 1.5151459e-06 0)
(0.03015083 -1.4490653e-06 0)
(0.030352682 1.3852529e-06 0)
(0.030163568 -1.3243752e-06 0)
(0.030340262 1.2660672e-06 0)
(0.030175695 -1.2107947e-06 0)
(0.030328428 1.158277e-06 0)
(0.030187262 -1.1090198e-06 0)
(0.030317128 1.0626031e-06 0)
(0.030198326 -1.0197023e-06 0)
(0.030306303 9.7993403e-07 0)
(0.030208938 -9.4349084e-07 0)
(0.030295888 9.1041915e-07 0)
(0.030219178 -8.8091164e-07 0)
(0.030285814 8.5488134e-07 0)
(0.03022911 -8.3192152e-07 0)
(0.030275983 8.1369071e-07 0)
(0.030238795 -7.9824867e-07 0)
(0.030266298 7.6933245e-07 0)
(0.030249025 -8.7122712e-07 0)
(0.030261045 7.1444291e-07 0)
(0.027249879 0.0049316863 0)
(0.042635318 -0.00012689745 0)
(0.03466638 0.00017430491 0)
(0.035980723 -5.0036636e-07 0)
(0.034865772 -1.4689188e-06 0)
(0.035844623 5.6659402e-06 0)
(0.034843607 -6.8063633e-07 0)
(0.035664412 3.8284716e-06 0)
(0.034892479 -3.5681881e-06 0)
(0.035619418 3.8069951e-06 0)
(0.034923809 -3.6012173e-06 0)
(0.035587187 3.5870296e-06 0)
(0.034950623 -3.4101263e-06 0)
(0.035559076 3.334492e-06 0)
(0.034976006 -3.198097e-06 0)
(0.035533652 3.1003135e-06 0)
(0.035000005 -2.9835305e-06 0)
(0.035510118 2.8807931e-06 0)
(0.03502263 -2.7734474e-06 0)
(0.035488083 2.671637e-06 0)
(0.035043976 -2.5697999e-06 0)
(0.035467319 2.4707851e-06 0)
(0.035064163 -2.3736641e-06 0)
(0.035447688 2.2784167e-06 0)
(0.035083278 -2.1855137e-06 0)
(0.035429085 2.0945798e-06 0)
(0.035101407 -2.0064445e-06 0)
(0.035411441 1.920353e-06 0)
(0.035118605 -1.8372844e-06 0)
(0.035394698 1.7565965e-06 0)
(0.035134927 -1.6791504e-06 0)
(0.035378804 1.6042985e-06 0)
(0.035150428 -1.5329779e-06 0)
(0.035363705 1.4646243e-06 0)
(0.035165154 -1.3999063e-06 0)
(0.03534935 1.3383215e-06 0)
(0.035179172 -1.2806862e-06 0)
(0.035335671 1.2263546e-06 0)
(0.035192549 -1.1761112e-06 0)
(0.035322597 1.1295491e-06 0)
(0.035205352 -1.0869517e-06 0)
(0.035310045 1.0481963e-06 0)
(0.03521768 -1.0136858e-06 0)
(0.035297928 9.8318901e-07 0)
(0.035229616 -9.5629337e-07 0)
(0.035286126 9.3522809e-07 0)
(0.035241237 -9.1648041e-07 0)
(0.035274497 8.8173297e-07 0)
(0.035253359 -1.0140222e-06 0)
(0.035267559 8.1267424e-07 0)
(0.030871999 0.0054072861 0)
(0.047548999 -0.00022366033 0)
(0.039409437 0.00021381195 0)
(0.04094208 -8.2871179e-07 0)
(0.03963139 -1.4494302e-06 0)
(0.040787149 6.5857874e-06 0)
(0.039621699 -3.0036648e-07 0)
(0.040594332 4.2486117e-06 0)
(0.039682195 -4.0045489e-06 0)
(0.040543647 4.3021617e-06 0)
(0.039719816 -4.0684503e-06 0)
(0.040505901 4.0656384e-06 0)
(0.039751833 -3.8577706e-06 0)
(0.040472623 3.7780734e-06 0)
(0.039782094 -3.6202386e-06 0)
(0.040442398 3.5112156e-06 0)
(0.039810706 -3.3774853e-06 0)
(0.040414364 3.2612264e-06 0)
(0.039837688 -3.1387816e-06 0)
(0.040388093 3.022963e-06 0)
(0.039863147 -2.9069529e-06 0)
(0.040363333 2.794085e-06 0)
(0.039887216 -2.6833423e-06 0)
(0.040339934 2.5746707e-06 0)
(0.039909992 -2.468786e-06 0)
(0.04031778 2.3650251e-06 0)
(0.039931566 -2.26449e-06 0)
(0.040296794 2.1662771e-06 0)
(0.039952006 -2.0716216e-06 0)
(0.040276912 1.9795581e-06 0)
(0.039971371 -1.8913271e-06 0)
(0.040258072 1.8059688e-06 0)
(0.039989726 -1.7247599e-06 0)
(0.040240211 1.6468762e-06 0)
(0.040007129 -1.5731964e-06 0)
(0.040223264 1.503084e-06 0)
(0.040023657 -1.4374947e-06 0)
(0.040207153 1.3755557e-06 0)
(0.040039395 -1.3184943e-06 0)
(0.040191786 1.2655249e-06 0)
(0.040054427 -1.2170136e-06 0)
(0.040177064 1.1729699e-06 0)
(0.04006887 -1.1337579e-06 0)
(0.040162882 1.0991062e-06 0)
(0.040082829 -1.0684194e-06 0)
(0.040149095 1.0445201e-06 0)
(0.0400964 -1.0225994e-06 0)
(0.040135515 9.8265804e-07 0)
(0.040110404 -1.1461413e-06 0)
(0.040126764 8.9711734e-07 0)
(0.035043462 0.0058304456 0)
(0.052211893 -0.0002259452 0)
(0.043977598 0.00025431134 0)
(0.045752453 -7.7205518e-07 0)
(0.04423534 -9.8509748e-07 0)
(0.045581058 7.4595869e-06 0)
(0.044249425 1.6463399e-07 0)
(0.045378747 4.5965361e-06 0)
(0.044322542 -4.405377e-06 0)
(0.045322455 4.7572918e-06 0)
(0.044366741 -4.5010743e-06 0)
(0.045279063 4.5110945e-06 0)
(0.044404192 -4.2727684e-06 0)
(0.045240437 4.1906277e-06 0)
(0.044439546 -4.0119426e-06 0)
(0.04520522 3.8928007e-06 0)
(0.044472969 -3.7428838e-06 0)
(0.045172498 3.614018e-06 0)
(0.044504493 -3.4772582e-06 0)
(0.045141812 3.3482487e-06 0)
(0.044534236 -3.2186565e-06 0)
(0.045112892 3.0926566e-06 0)
(0.044562343 -2.9691411e-06 0)
(0.045085578 2.8477332e-06 0)
(0.044588918 -2.7294992e-06 0)
(0.045059742 2.6135613e-06 0)
(0.044614062 -2.5014437e-06 0)
(0.045035302 2.3917108e-06 0)
(0.044637847 -2.2860898e-06 0)
(0.045012184 2.1833248e-06 0)
(0.044660342 -2.0849231e-06 0)
(0.044990319 1.9896554e-06 0)
(0.044681624 -1.8991371e-06 0)
(0.044969631 1.8122783e-06 0)
(0.044701758 -1.7302066e-06 0)
(0.044950043 1.6520005e-06 0)
(0.044720841 -1.5790014e-06 0)
(0.044931461 1.5100458e-06 0)
(0.044738972 -1.4464888e-06 0)
(0.044913777 1.3875138e-06 0)
(0.044756252 -1.3335899e-06 0)
(0.044896871 1.2845174e-06 0)
(0.044772822 -1.2409192e-06 0)
(0.044880616 1.2023248e-06 0)
(0.044788806 -1.1681729e-06 0)
(0.044864844 1.1419083e-06 0)
(0.044804325 -1.1166385e-06 0)
(0.044849322 1.0716789e-06 0)
(0.044820191 -1.266409e-06 0)
(0.044838661 9.6851197e-07 0)
(0.038970426 0.0063578256 0)
(0.056320341 -0.00033536123 0)
(0.04840212 0.00029210799 0)
(0.050400563 -1.8397876e-06 0)
(0.048668204 -9.2598859e-07 0)
(0.050224998 8.0363904e-06 0)
(0.048726886 6.5570787e-07 0)
(0.050017262 4.8571899e-06 0)
(0.048813901 -4.7721548e-06 0)
(0.04995549 5.1704832e-06 0)
(0.048864952 -4.8979026e-06 0)
(0.04990633 4.9220423e-06 0)
(0.048908047 -4.6537329e-06 0)
(0.049862185 4.5707876e-06 0)
(0.048948684 -4.3718691e-06 0)
(0.049821801 4.2437589e-06 0)
(0.048987098 -4.078415e-06 0)
(0.04978422 3.937847e-06 0)
(0.049023331 -3.7875775e-06 0)
(0.049748962 3.6461737e-06 0)
(0.049057511 -3.5039803e-06 0)
(0.049715738 3.3656437e-06 0)
(0.049089792 -3.2300168e-06 0)
(0.04968438 3.0966354e-06 0)
(0.049120285 -2.9668904e-06 0)
(0.049654752 2.8395342e-06 0)
(0.049149098 -2.7164241e-06 0)
(0.049626764 2.595938e-06 0)
(0.049176313 -2.4801014e-06 0)
(0.049600334 2.3672644e-06 0)
(0.049202007 -2.2593836e-06 0)
(0.049575382 2.1548503e-06 0)
(0.049226266 -2.0556829e-06 0)
(0.049551823 1.9604714e-06 0)
(0.049249172 -1.870577e-06 0)
(0.049529563 1.78493e-06 0)
(0.049270833 -1.7050164e-06 0)
(0.049508492 1.6294054e-06 0)
(0.049291371 -1.559986e-06 0)
(0.049488482 1.4954631e-06 0)
(0.049310903 -1.4363993e-06 0)
(0.04946939 1.3827812e-06 0)
(0.049329595 -1.3351522e-06 0)
(0.04945107 1.2929942e-06 0)
(0.049347595 -1.2555501e-06 0)
(0.049433327 1.2268802e-06 0)
(0.049365047 -1.1985384e-06 0)
(0.049415886 1.1494255e-06 0)
(0.049382744 -1.374736e-06 0)
(0.049403245 1.0265955e-06 0)
(0.042896238 0.0065282991 0)
(0.060231734 -0.00034438056 0)
(0.052655894 0.00033024988 0)
(0.054897268 -3.6948757e-06 0)
(0.052936877 -8.8939115e-07 0)
(0.054720346 8.2701479e-06 0)
(0.05305495 1.1625648e-06 0)
(0.054509671 5.0251299e-06 0)
(0.053156657 -5.1063155e-06 0)
(0.0544424 5.5394393e-06 0)
(0.053214787 -5.2586061e-06 0)
(0.054387356 5.2968761e-06 0)
(0.053263722 -4.9998138e-06 0)
(0.054337547 4.917279e-06 0)
(0.053309822 -4.6989959e-06 0)
(0.054291839 4.5629579e-06 0)
(0.053353389 -4.3830985e-06 0)
(0.05424925 4.231789e-06 0)
(0.053394478 -4.0689089e-06 0)
(0.054209279 3.9160208e-06 0)
(0.053433225 -3.7618823e-06 0)
(0.054171629 3.6120382e-06 0)
(0.053469795 -3.4652861e-06 0)
(0.054136121 3.3207292e-06 0)
(0.053504305 -3.1801987e-06 0)
(0.05410261 3.0421912e-06 0)
(0.053536871 -2.9090436e-06 0)
(0.054071002 2.7785064e-06 0)
(0.053567578 -2.6531752e-06 0)
(0.054041204 2.5310634e-06 0)
(0.053596518 -2.4144126e-06 0)
(0.054013126 2.3013156e-06 0)
(0.05362379 -2.1941663e-06 0)
(0.053986667 2.0912469e-06 0)
(0.053649485 -1.9941894e-06 0)
(0.053961721 1.9016013e-06 0)
(0.053673736 -1.8154024e-06 0)
(0.053938156 1.7338302e-06 0)
(0.053696678 -1.6589004e-06 0)
(0.053915826 1.5892946e-06 0)
(0.053718453 -1.5256761e-06 0)
(0.053894564 1.467801e-06 0)
(0.053739248 -1.4165014e-06 0)
(0.0538742 1.3710185e-06 0)
(0.053759239 -1.3306739e-06 0)
(0.053854513 1.3001399e-06 0)
(0.053778596 -1.2685926e-06 0)
(0.053835187 1.2155251e-06 0)
(0.053798087 -1.4702309e-06 0)
(0.053820521 1.0726384e-06 0)
(0.047178752 0.0071036626 0)
(0.063706794 -0.00044958467 0)
(0.056708556 0.00035474847 0)
(0.059263787 -3.5499939e-06 0)
(0.057053685 -3.6605409e-07 0)
(0.059069245 8.1837943e-06 0)
(0.057234938 1.7057086e-06 0)
(0.058855949 5.1044512e-06 0)
(0.057351285 -5.4042704e-06 0)
(0.058782895 5.8640711e-06 0)
(0.057416607 -5.5819445e-06 0)
(0.058721829 5.6348104e-06 0)
(0.057471546 -5.3099601e-06 0)
(0.058666214 5.2291801e-06 0)
(0.057523261 -4.9923707e-06 0)
(0.058615043 4.8495131e-06 0)
(0.057572121 -4.6560172e-06 0)
(0.058567313 4.4949189e-06 0)
(0.057618193 -4.3203303e-06 0)
(0.058522513 4.1568377e-06 0)
(0.05766162 -3.9918758e-06 0)
(0.058480332 3.8314252e-06 0)
(0.057702573 -3.6742835e-06 0)
(0.058440588 3.5194292e-06 0)
(0.057741177 -3.3690715e-06 0)
(0.058403126 3.2212826e-06 0)
(0.057777553 -3.0787619e-06 0)
(0.058367844 2.9390628e-06 0)
(0.0578118 -2.8050893e-06 0)
(0.05833464 2.6744207e-06 0)
(0.057844016 -2.5497864e-06 0)
(0.058303412 2.428861e-06 0)
(0.057874315 -2.3144779e-06 0)
(0.058274045 2.2045613e-06 0)
(0.057902805 -2.1009767e-06 0)
(0.058246414 2.0021925e-06 0)
(0.057929634 -1.9102569e-06 0)
(0.058220369 1.8231222e-06 0)
(0.057954965 -1.7434054e-06 0)
(0.058195739 1.6692261e-06 0)
(0.057978957 -1.6013439e-06 0)
(0.058172333 1.5397661e-06 0)
(0.058001827 -1.4851891e-06 0)
(0.058149959 1.4368123e-06 0)
(0.058023772 -1.3937532e-06 0)
(0.058128366 1.3612659e-06 0)
(0.058044997 -1.326932e-06 0)
(0.058107201 1.2708974e-06 0)
(0.058066232 -1.5532713e-06 0)
(0.058090487 1.1065132e-06 0)
(0.050855889 0.00703817 0)
(0.067040585 -0.00046713117 0)
(0.060611348 0.0003827746 0)
(0.063476636 -5.9187189e-06 0)
(0.061019772 -1.6284163e-07 0)
(0.063270671 7.6233685e-06 0)
(0.061266946 2.2527737e-06 0)
(0.063055724 5.0929622e-06 0)
(0.061398096 -5.6642575e-06 0)
(0.062976633 6.1439419e-06 0)
(0.061470731 -5.8670475e-06 0)
(0.062909427 5.9347663e-06 0)
(0.061531821 -5.5834438e-06 0)
(0.06284789 5.505513e-06 0)
(0.061589289 -5.2512126e-06 0)
(0.062791135 5.1025591e-06 0)
(0.061643565 -4.8964658e-06 0)
(0.062738155 4.7266019e-06 0)
(0.061694725 -4.5413136e-06 0)
(0.062688428 4.3682213e-06 0)
(0.061742921 -4.1931555e-06 0)
(0.062641635 4.0230333e-06 0)
(0.06178833 -3.8566184e-06 0)
(0.062597589 3.6923669e-06 0)
(0.061831083 -3.5329932e-06 0)
(0.062556127 3.3762992e-06 0)
(0.061871314 -3.2254839e-06 0)
(0.06251714 3.0774123e-06 0)
(0.061909123 -2.9356053e-06 0)
(0.062480513 2.7972852e-06 0)
(0.061944626 -2.665456e-06 0)
(0.06244613 2.5374937e-06 0)
(0.061977952 -2.4166161e-06 0)
(0.062413861 2.3004191e-06 0)
(0.062009222 -2.1910405e-06 0)
(0.062383563 2.0866104e-06 0)
(0.062038612 -1.9896363e-06 0)
(0.062355061 1.8977175e-06 0)
(0.0620663 -1.81358e-06 0)
(0.062328166 1.7353409e-06 0)
(0.062092473 -1.6638487e-06 0)
(0.062302657 1.5988713e-06 0)
(0.062117374 -1.5414096e-06 0)
(0.062278316 1.490393e-06 0)
(0.062141228 -1.4450628e-06 0)
(0.062254866 1.4112246e-06 0)
(0.062164271 -1.37401e-06 0)
(0.062231917 1.315158e-06 0)
(0.062187198 -1.6231443e-06 0)
(0.062213152 1.1298312e-06 0)
(0.055487606 0.0076566569 0)
(0.070069551 -0.00056159919 0)
(0.064363572 0.0003997714 0)
(0.067542241 -7.6687905e-06 0)
(0.064842666 3.7341536e-07 0)
(0.067325538 6.7060992e-06 0)
(0.065151597 2.8139801e-06 0)
(0.067108743 4.9872038e-06 0)
(0.065297416 -5.8873062e-06 0)
(0.067023273 6.3767252e-06 0)
(0.065377461 -6.113985e-06 0)
(0.066949836 6.1956448e-06 0)
(0.06544484 -5.8196726e-06 0)
(0.066882281 5.7454671e-06 0)
(0.065508181 -5.4748521e-06 0)
(0.066819848 5.3214277e-06 0)
(0.065567973 -5.1037733e-06 0)
(0.066761527 4.9261391e-06 0)
(0.065624306 -4.7311609e-06 0)
(0.066706798 4.5494342e-06 0)
(0.065677339 -4.3655278e-06 0)
(0.066655334 4.1867397e-06 0)
(0.065727257 -4.0118595e-06 0)
(0.066606943 3.8392019e-06 0)
(0.065774198 -3.6718835e-06 0)
(0.066561452 3.5072562e-06 0)
(0.065818298 -3.3488795e-06 0)
(0.066518743 3.1934376e-06 0)
(0.065859679 -3.0447389e-06 0)
(0.066478692 2.8995619e-06 0)
(0.065898463 -2.7614067e-06 0)
(0.066441167 2.6272201e-06 0)
(0.065934796 -2.5006699e-06 0)
(0.06640602 2.3789772e-06 0)
(0.065968822 -2.2644929e-06 0)
(0.066373086 2.1552377e-06 0)
(0.066000732 -2.0538127e-06 0)
(0.066342169 1.9575345e-06 0)
(0.066030736 -1.8697752e-06 0)
(0.066313053 1.7880223e-06 0)
(0.066059041 -1.7132188e-06 0)
(0.06628549 1.6454544e-06 0)
(0.066085922 -1.5855267e-06 0)
(0.066259236 1.5323413e-06 0)
(0.06611163 -1.4849276e-06 0)
(0.066233986 1.4495982e-06 0)
(0.066136436 -1.4100522e-06 0)
(0.066209315 1.3494309e-06 0)
(0.066160991 -1.6805761e-06 0)
(0.066188513 1.1424446e-06 0)
(0.058856944 0.007387091 0)
(0.072997975 -0.00058600738 0)
(0.067989462 0.00041067281 0)
(0.071439264 -9.0212966e-06 0)
(0.068527313 1.2652863e-06 0)
(0.071233909 5.4938173e-06 0)
(0.068889704 3.4207104e-06 0)
(0.071015061 4.8031532e-06 0)
(0.069049773 -6.0636654e-06 0)
(0.070922621 6.5655451e-06 0)
(0.069137167 -6.3205048e-06 0)
(0.070842797 6.4173417e-06 0)
(0.069210907 -6.0177866e-06 0)
(0.070769128 5.9484948e-06 0)
(0.069280207 -5.6626724e-06 0)
(0.070700933 5.5055567e-06 0)
(0.069345591 -5.2774822e-06 0)
(0.070637205 5.0931883e-06 0)
(0.069407158 -4.8896315e-06 0)
(0.070577419 4.7003773e-06 0)
(0.069465073 -4.5084107e-06 0)
(0.070521244 4.3219975e-06 0)
(0.06951953 -4.1398913e-06 0)
(0.070468484 3.9598241e-06 0)
(0.069570671 -3.785451e-06 0)
(0.070418956 3.6138687e-06 0)
(0.069618648 -3.4491178e-06 0)
(0.070372534 3.2871708e-06 0)
(0.069663586 -3.1324656e-06 0)
(0.070329077 2.9814313e-06 0)
(0.069705627 -2.8378034e-06 0)
(0.070288438 2.6982593e-06 0)
(0.069744936 -2.5668325e-06 0)
(0.070250449 2.4404166e-06 0)
(0.069781673 -2.321618e-06 0)
(0.070214923 2.2081251e-06 0)
(0.069816059 -2.1030009e-06 0)
(0.070181641 2.0032086e-06 0)
(0.069848324 -1.912194e-06 0)
(0.070150361 1.8274775e-06 0)
(0.069878705 -1.7500702e-06 0)
(0.070120804 1.6798242e-06 0)
(0.069907503 -1.6178442e-06 0)
(0.0700927 1.5627497e-06 0)
(0.069935001 -1.5137353e-06 0)
(0.070065713 1.4775694e-06 0)
(0.069961503 -1.4356243e-06 0)
(0.070039391 1.3732933e-06 0)
(0.069987624 -1.7249723e-06 0)
(0.070016582 1.1461927e-06 0)
(0.063642905 0.0079880636 0)
(0.075751371 -0.00066213614 0)
(0.071536064 0.00041505609 0)
(0.075141737 -1.1269675e-05 0)
(0.072070667 1.540213e-06 0)
(0.074993345 3.8543037e-06 0)
(0.072480781 3.9921862e-06 0)
(0.074774064 4.5130276e-06 0)
(0.072655319 -6.2019112e-06 0)
(0.074674281 6.7055566e-06 0)
(0.072750092 -6.4880348e-06 0)
(0.074587994 6.5985191e-06 0)
(0.072830279 -6.177706e-06 0)
(0.074508154 6.1139285e-06 0)
(0.072905609 -5.8143429e-06 0)
(0.074434146 5.6545206e-06 0)
(0.072976641 -5.4172117e-06 0)
(0.074364966 5.227303e-06 0)
(0.073043482 -5.0162845e-06 0)
(0.074300094 4.8205521e-06 0)
(0.073106305 -4.6219248e-06 0)
(0.074239192 4.4289899e-06 0)
(0.073165309 -4.2405307e-06 0)
(0.074182062 4.0541491e-06 0)
(0.073220648 -3.8738929e-06 0)
(0.074128508 3.696415e-06 0)
(0.073272478 -3.5260814e-06 0)
(0.074078393 3.3587295e-06 0)
(0.073320946 -3.1990317e-06 0)
(0.074031564 3.0429951e-06 0)
(0.073366206 -2.8948295e-06 0)
(0.073987853 2.7508003e-06 0)
(0.073408442 -2.6153749e-06 0)
(0.073947074 2.4850777e-06 0)
(0.073447838 -2.3626885e-06 0)
(0.073909015 2.2458354e-06 0)
(0.073484637 -2.1376233e-06 0)
(0.073873431 2.0347539e-06 0)
(0.0735191 -1.9413419e-06 0)
(0.07384005 1.8542285e-06 0)
(0.073551489 -1.7745126e-06 0)
(0.073808567 1.7024419e-06 0)
(0.073582137 -1.6388406e-06 0)
(0.073778682 1.582336e-06 0)
(0.073611355 -1.5318991e-06 0)
(0.073750029 1.4947032e-06 0)
(0.073639485 -1.4510191e-06 0)
(0.07372213 1.3880468e-06 0)
(0.073667098 -1.7573504e-06 0)
(0.073697358 1.140829e-06 0)
(0.066878375 0.0076329335 0)
(0.078405584 -0.00069028621 0)
(0.075012318 0.00041837082 0)
(0.078657156 -1.5354229e-05 0)
(0.075477612 8.0588981e-07 0)
(0.078603439 1.8068597e-06 0)
(0.075925065 4.5164217e-06 0)
(0.078385485 4.1189108e-06 0)
(0.076114362 -6.2971535e-06 0)
(0.078277966 6.7982992e-06 0)
(0.076216528 -6.6151958e-06 0)
(0.078185164 6.7391473e-06 0)
(0.076303219 -6.2988802e-06 0)
(0.078099121 6.2415151e-06 0)
(0.07638463 -5.9295155e-06 0)
(0.078019267 5.7680591e-06 0)
(0.076461341 -5.5227884e-06 0)
(0.077944615 5.3284495e-06 0)
(0.07653347 -5.1111837e-06 0)
(0.077874648 4.9101742e-06 0)
(0.076601201 -4.7057222e-06 0)
(0.077809024 4.5074025e-06 0)
(0.076664741 -4.3139394e-06 0)
(0.077747542 4.1223228e-06 0)
(0.07672425 -3.9371391e-06 0)
(0.077689992 3.7548317e-06 0)
(0.076779903 -3.5801917e-06 0)
(0.077636229 3.4083579e-06 0)
(0.076831852 -3.2446126e-06 0)
(0.077586078 3.0846482e-06 0)
(0.076880275 -2.9328444e-06 0)
(0.077539354 2.785253e-06 0)
(0.076925378 -2.646663e-06 0)
(0.077495847 2.513293e-06 0)
(0.076967366 -2.3881455e-06 0)
(0.077455322 2.2685402e-06 0)
(0.077006512 -2.1580281e-06 0)
(0.077417504 2.0529742e-06 0)
(0.077043099 -1.957517e-06 0)
(0.077382098 1.8685793e-06 0)
(0.077077423 -1.7873008e-06 0)
(0.077348764 1.7136998e-06 0)
(0.077109844 -1.6489007e-06 0)
(0.077317174 1.5912409e-06 0)
(0.077140707 -1.5398912e-06 0)
(0.077286931 1.5023633e-06 0)
(0.077170388 -1.4568814e-06 0)
(0.077257532 1.3932149e-06 0)
(0.077199423 -1.7771896e-06 0)
(0.077230853 1.1283407e-06 0)
(0.071544119 0.0080853604 0)
(0.080987388 -0.00075785657 0)
(0.078353026 0.00041368567 0)
(0.082039318 -1.7202529e-05 0)
(0.078761414 1.619213e-08 0)
(0.082067665 -2.2423115e-07 0)
(0.079224255 5.0976204e-06 0)
(0.081849574 3.6556613e-06 0)
(0.0794274 -6.3341565e-06 0)
(0.081733464 6.8478734e-06 0)
(0.079536769 -6.700502e-06 0)
(0.081634055 6.8393532e-06 0)
(0.079629978 -6.3811198e-06 0)
(0.081541788 6.3310177e-06 0)
(0.079717488 -6.0081155e-06 0)
(0.081456082 5.8460548e-06 0)
(0.079799883 -5.5941189e-06 0)
(0.081375961 5.3964561e-06 0)
(0.079877294 -5.1741514e-06 0)
(0.081300915 4.9689934e-06 0)
(0.079949913 -4.7602374e-06 0)
(0.081230597 4.5577204e-06 0)
(0.080017955 -4.3601778e-06 0)
(0.081164801 4.16451e-06 0)
(0.080081593 -3.9756524e-06 0)
(0.081103305 3.7896417e-06 0)
(0.080141008 -3.6115291e-06 0)
(0.081045948 3.4363914e-06 0)
(0.08019638 -3.2696636e-06 0)
(0.08099254 3.1066663e-06 0)
(0.080247899 -2.9522055e-06 0)
(0.080942872 2.8019632e-06 0)
(0.080295795 -2.6611226e-06 0)
(0.080896714 2.5255592e-06 0)
(0.080340299 -2.3983933e-06 0)
(0.0808538 2.2769497e-06 0)
(0.080381709 -2.1647551e-06 0)
(0.080813832 2.0579516e-06 0)
(0.080420342 -1.9613485e-06 0)
(0.080776479 1.8711576e-06 0)
(0.08045652 -1.7885967e-06 0)
(0.080741373 1.7141523e-06 0)
(0.080490635 -1.6485859e-06 0)
(0.080708158 1.5902855e-06 0)
(0.080523061 -1.5381819e-06 0)
(0.080676405 1.5000741e-06 0)
(0.080554217 -1.4535411e-06 0)
(0.080645589 1.3902453e-06 0)
(0.080584595 -1.7857427e-06 0)
(0.080617065 1.1083257e-06 0)
(0.075020262 0.0077349201 0)
(0.083513947 -0.00077607342 0)
(0.081516221 0.0004028063 0)
(0.085308845 -1.8055185e-05 0)
(0.081924673 -8.8375609e-07 0)
(0.085384872 -2.2333356e-06 0)
(0.082378512 5.7021679e-06 0)
(0.085165833 3.1123559e-06 0)
(0.082594613 -6.3143283e-06 0)
(0.085040447 6.8529092e-06 0)
(0.082711044 -6.7444412e-06 0)
(0.084934403 6.8986658e-06 0)
(0.082810777 -6.4245142e-06 0)
(0.084835935 6.3823503e-06 0)
(0.082904389 -6.0501652e-06 0)
(0.0847444 5.8885259e-06 0)
(0.082992454 -5.6313479e-06 0)
(0.084658839 5.4315938e-06 0)
(0.083075114 -5.2055663e-06 0)
(0.08457875 4.9975353e-06 0)
(0.083152578 -4.785357e-06 0)
(0.084503787 4.5798578e-06 0)
(0.083225067 -4.3796754e-06 0)
(0.084433736 4.1810984e-06 0)
(0.083292767 -3.9895698e-06 0)
(0.08436836 3.8009898e-06 0)
(0.083355881 -3.6207453e-06 0)
(0.084307486 3.4432626e-06 0)
(0.083414595 -3.2745367e-06 0)
(0.0842509 3.109633e-06 0)
(0.083469128 -2.9534394e-06 0)
(0.084198373 2.8015036e-06 0)
(0.083519735 -2.6592634e-06 0)
(0.084149647 2.5223296e-06 0)
(0.083566668 -2.3939994e-06 0)
(0.08410443 2.2713287e-06 0)
(0.08361026 -2.1582578e-06 0)
(0.084062394 2.0506245e-06 0)
(0.08365085 -1.9531984e-06 0)
(0.084023182 1.8623352e-06 0)
(0.083688797 -1.7792609e-06 0)
(0.083986391 1.7042438e-06 0)
(0.08372452 -1.638332e-06 0)
(0.083951635 1.5796314e-06 0)
(0.083758428 -1.5272992e-06 0)
(0.083918453 1.4893439e-06 0)
(0.083790975 -1.4416908e-06 0)
(0.083886302 1.3785917e-06 0)
(0.08382262 -1.7825217e-06 0)
(0.083856009 1.082858e-06 0)
(0.07960406 0.0080351729 0)
(0.086008225 -0.0008325912 0)
(0.084532516 0.00038748182 0)
(0.08845575 -1.9338518e-05 0)
(0.084957753 -2.2835425e-06 0)
(0.088552104 -4.186093e-06 0)
(0.085387944 6.2927817e-06 0)
(0.088333651 2.4859185e-06 0)