/*--------------------------------*- C++ -*----------------------------------*\
| =========                 |                                                 |
| \\      /  F ield         | OpenFOAM: The Open Source CFD Toolbox           |
|  \\    /   O peration     | Version:  2312                                  |
|   \\  /    A nd           | Website:  www.openfoam.com                      |
|    \\/     M anipulation  |                                                 |
\*---------------------------------------------------------------------------*/
FoamFile
{
    version     2.0;
    format      ascii;
    arch        "LSB;label=32;scalar=64";
    class       volScalarField;
    location    "5";
    object      T;
}
// * * * * * * * * * * * * * * * * * * * * * * * * * * * * * * * * * * * * * //

dimensions      [0 0 0 1 0 0 0];

internalField   nonuniform List<scalar> 
4000
(
310.87525
312.18974
312.44464
312.51253
312.59172
312.64364
312.69359
312.73694
312.77875
312.81688
312.85505
312.89051
312.92642
312.96033
312.99466
313.02756
313.06072
313.09293
313.12519
313.1569
313.18845
313.2198
313.25077
313.28184
313.31233
313.34319
313.37327
313.40398
313.4337
313.46429
313.49371
313.52421
313.55335
313.58379
313.61268
313.64308
313.67173
313.70212
313.73054
313.76094
313.78913
313.81958
313.84753
313.87806
313.90574
313.93641
313.96377
313.9947
314.0215
314.05348
308.63709
310.76214
311.45933
311.6073
311.78776
311.88707
311.98032
312.05388
312.12275
312.18065
312.23861
312.2885
312.3397
312.38494
312.43139
312.47362
312.51657
312.55672
312.59697
312.63562
312.67374
312.7113
312.74768
312.78441
312.81936
312.85546
312.88918
312.92481
312.95748
312.99274
313.02449
313.05949
313.0904
313.12523
313.15537
313.19009
313.21952
313.2542
313.28295
313.31767
313.34573
313.38057
313.40792
313.443
313.46956
313.50506
313.53062
313.56693
313.59081
313.63011
307.25466
309.38879
310.48216
310.70826
310.98735
311.13349
311.26939
311.37299
311.46858
311.54621
311.62374
311.68806
311.75438
311.81097
311.86942
311.921
311.97363
312.02175
312.0699
312.11553
312.16015
312.20393
312.24568
312.28808
312.32744
312.36879
312.40612
312.44668
312.48226
312.52222
312.55626
312.59578
312.62843
312.66765
312.69904
312.73808
312.76827
312.80726
312.83631
312.87535
312.90326
312.94251
312.96924
313.00889
313.0343
313.07464
313.09839
313.14007
313.16107
313.20736
306.34093
308.11861
309.52737
309.82408
310.19588
310.387
310.564
310.69702
310.81856
310.91569
311.01228
311.09094
311.17202
311.23992
311.3101
311.37102
311.43312
311.48921
311.5451
311.59771
311.64869
311.69872
311.74571
311.79381
311.83747
311.8841
311.92496
311.97047
312.00888
312.05355
312.08982
312.13387
312.16822
312.21185
312.24442
312.2878
312.31872
312.362
312.39133
312.4347
312.46244
312.5061
312.53218
312.57639
312.60064
312.64581
312.66777
312.71478
312.73297
312.78576
305.70739
306.98987
308.61333
308.96642
309.42083
309.65325
309.86853
310.02968
310.17578
310.29186
310.40666
310.49938
310.59461
310.67368
310.75513
310.82532
310.89654
310.96057
311.02391
311.08349
311.1406
311.19688
311.24892
311.30271
311.35054
311.40244
311.44668
311.49715
311.53829
311.58768
311.62609
311.67467
311.71063
311.75866
311.79236
311.84007
311.87166
311.91925
311.9488
311.9965
312.02403
312.07209
312.0975
312.14625
312.16933
312.2193
312.23947
312.29172
312.30726
312.36599
305.25504
306.03094
307.75948
308.14892
308.67116
308.93906
309.18839
309.37546
309.54405
309.6781
309.80983
309.91607
310.02459
310.1145
310.20659
310.28584
310.36569
310.43752
310.50794
310.57439
310.63732
310.69978
310.75663
310.81607
310.86784
310.92499
310.97244
311.02785
311.07156
311.12564
311.16606
311.21917
311.25662
311.30905
311.34378
311.39581
311.42799
311.47987
311.50958
311.56158
311.58884
311.64127
311.66599
311.71925
311.74115
311.79584
311.81428
311.87163
311.88473
311.94879
304.9246
305.25225
306.98285
307.38576
307.95662
308.2521
308.52971
308.73948
308.92776
309.07827
309.22521
309.34411
309.46472
309.56495
309.6668
309.75478
309.84259
309.922
309.99896
310.07213
310.14047
310.20899
310.27029
310.3353
310.39073
310.45306
310.50349
310.56376
310.60986
310.66858
310.71085
310.76842
310.80724
310.86402
310.89967
310.95597
310.98865
311.04476
311.07457
311.13082
311.15778
311.21451
311.23851
311.29618
311.31692
311.37622
311.39299
311.45523
311.46617
311.53496
304.67881
304.65145
306.29645
306.68997
307.2868
307.6003
307.89901
308.12725
308.33165
308.49656
308.6565
308.78687
308.91805
309.02785
309.13835
309.23454
309.32949
309.4161
309.49896
309.57858
309.6518
309.72618
309.79152
309.86193
309.92068
309.98804
310.04117
310.1062
310.15444
310.21771
310.26163
310.32358
310.3636
310.42465
310.46109
310.52158
310.55465
310.61492
310.64474
310.70515
310.73174
310.79269
310.81593
310.87791
310.8975
310.96125
310.97646
311.04331
311.05241
311.12533
304.49245
304.21316
305.70696
306.07169
306.6702
306.99124
307.30278
307.54435
307.76065
307.93731
308.10761
308.24787
308.38781
308.50613
308.62398
308.72767
308.82874
308.92204
309.01002
309.0957
309.17319
309.25313
309.32201
309.39757
309.45923
309.53144
309.58692
309.65654
309.70665
309.77431
309.81964
309.88585
309.92688
309.99207
310.02913
310.09369
310.12703
310.19134
310.22109
310.28553
310.3117
310.37672
310.3992
310.46532
310.4838
310.55178
310.56555
310.63667
310.64425
310.72079
304.34792
303.91426
305.21552
305.53683
306.11355
306.43159
306.74702
306.99613
307.21955
307.40483
307.58246
307.73068
307.87728
308.00284
308.12648
308.23676
308.3428
308.44212
308.53432
308.62554
308.70658
308.79167
308.86351
308.9439
309.008
309.08477
309.14222
309.2162
309.26785
309.3397
309.38619
309.45645
309.49828
309.56743
309.60496
309.67342
309.7069
309.77507
309.80465
309.87295
309.89865
309.96754
309.98925
310.05929
310.07671
310.14865
310.16114
310.23614
310.24253
310.32219
304.2327
303.72667
304.81737
305.08653
305.6213
305.92657
306.23683
306.48732
306.71278
306.90317
307.08478
307.23875
307.38965
307.52094
307.64865
307.76442
307.87411
307.97865
308.07403
308.17016
308.25393
308.34367
308.41781
308.50263
308.56862
308.64961
308.70859
308.78663
308.83945
308.91522
308.96257
309.03666
309.07904
309.15193
309.18972
309.26187
309.29534
309.36717
309.39646
309.46841
309.49358
309.56612
309.58705
309.66075
309.67717
309.75275
309.76411
309.84259
309.84806
309.93041
304.13802
303.62175
304.50364
304.71757
305.19533
305.47947
305.77601
306.02177
306.24412
306.43587
306.61797
306.77523
306.92793
307.06322
307.19314
307.31315
307.42506
307.53384
307.63129
307.73159
307.8172
307.91098
307.9867
308.07543
308.14273
308.22752
308.28754
308.36926
308.42287
308.50223
308.55012
308.62772
308.67039
308.74674
308.78459
308.86016
308.89346
308.96868
308.99759
309.07292
309.09749
309.1734
309.19355
309.2706
309.28609
309.36496
309.37535
309.45685
309.46166
309.5463
304.05778
303.57272
304.26242
304.42326
304.83486
305.09144
305.36681
305.60218
305.81649
306.00583
306.18489
306.34287
306.49477
306.63222
306.76239
306.88525
306.99787
307.10982
307.20814
307.31174
307.39824
307.49536
307.57188
307.66394
307.73192
307.82
307.88054
307.96551
308.01948
308.10205
308.15011
308.23088
308.27356
308.35304
308.39072
308.46939
308.50236
308.58066
308.60908
308.68747
308.71139
308.79034
308.80971
308.88976
308.90439
308.98613
308.99572
309.07978
309.08413
309.1707
303.98785
303.55736
304.08088
304.19447
304.53659
304.76143
305.00981
305.22991
305.43172
305.61508
305.78772
305.94384
306.09238
306.23007
306.3585
306.48273
306.5945
306.70846
306.80642
306.91239
306.99876
307.09845
307.17496
307.26969
307.33768
307.42849
307.489
307.57672
307.6306
307.71592
307.7638
307.84732
307.88972
307.97194
308.00923
308.09064
308.1231
308.20413
308.23193
308.31303
308.33623
308.41786
308.43645
308.51909
308.53294
308.61713
308.62605
308.71224
308.71626
308.80441
303.92558
303.55878
303.94615
304.02076
304.29509
304.48639
304.70388
304.90493
305.09053
305.26469
305.42784
305.57966
305.72239
305.85841
305.98317
306.10726
306.21665
306.3314
306.42775
306.53508
306.62032
306.72174
306.7974
306.89409
306.9614
307.05431
307.11423
307.20415
307.25747
307.34505
307.39237
307.47818
307.51998
307.60453
307.64118
307.72492
307.75669
307.84005
307.86711
307.95052
307.97295
308.05684
308.07466
308.15947
308.1726
308.25878
308.26715
308.35501
308.35882
308.44822
303.86919
303.5655
303.84673
303.89139
304.10346
304.26162
304.44636
304.62583
304.79242
304.95475
305.10578
305.25109
305.3858
305.51834
305.63761
305.76009
305.8656
305.97991
306.07344
306.1811
306.26421
306.36647
306.44047
306.53835
306.60429
306.69864
306.7574
306.84893
306.90121
306.99052
307.03688
307.12449
307.16539
307.25179
307.28756
307.37317
307.40408
307.48933
307.51553
307.60081
307.62242
307.70813
307.72516
307.81171
307.82416
307.91188
307.91978
308.00888
308.01253
308.10283
303.81767
303.57083
303.77273
303.79621
303.95403
304.08128
304.23334
304.39002
304.53581
304.68435
304.8212
304.95813
305.08294
305.21036
305.32252
305.44198
305.54224
305.65492
305.74447
305.85144
305.93145
306.03367
306.10519
306.20349
306.26739
306.36248
306.41952
306.51202
306.56281
306.65326
306.69829
306.78717
306.82685
306.9146
306.94925
307.03627
307.06612
307.15279
307.17802
307.26472
307.28542
307.3725
307.38874
307.47654
307.48836
307.57715
307.58466
307.67455
307.67809
307.76895
303.77034
303.57161
303.71635
303.72626
303.83905
303.93891
304.05995
304.1939
304.31814
304.45167
304.57293
304.70004
304.81345
304.93437
305.03804
305.15321
305.24701
305.35694
305.44146
305.54675
305.62277
305.72407
305.79235
305.89028
305.9515
306.04663
306.1014
306.19424
306.24307
306.33408
306.3774
306.467
306.50516
306.59374
306.62703
306.71495
306.74358
306.83119
306.85531
306.94295
306.96268
307.05065
307.06608
307.15466
307.16587
307.25527
307.26241
307.35269
307.35611
307.44718
303.72673
303.56706
303.6717
303.67416
303.75118
303.82795
303.92084
304.03318
304.13607
304.25413
304.35907
304.47538
304.57634
304.68965
304.78375
304.89355
304.97988
305.08604
305.16464
305.26732
305.33855
305.43809
305.50244
305.59924
305.65719
305.75165
305.80366
305.89619
305.94264
306.03361
306.07487
306.16462
306.20098
306.28985
306.32155
306.40986
306.43709
306.52513
306.54805
306.63612
306.65482
306.74319
306.75779
306.84667
306.85728
306.94683
306.95362
307.04387
307.04717
307.13809
303.68655
303.55785
303.63466
303.63413
303.68391
303.74213
303.81051
303.9032
303.98577
304.08859
304.17709
304.28212
304.37005
304.47497
304.55873
304.66231
304.74038
304.84191
304.91383
305.01308
305.07885
305.17585
305.23567
305.33061
305.38476
305.47789
305.52667
305.61826
305.66196
305.75228
305.79116
305.8805
305.91479
306.00341
306.03332
306.12149
306.14717
306.23514
306.25673
306.34475
306.36235
306.45063
306.46437
306.55308
306.56307
306.65234
306.65878
306.74859
306.75176
306.84215
303.64947
303.54511
303.60247
303.60197
303.63179
303.67583
303.72363
303.79919
303.8631
303.95151
304.02405
304.11776
304.19251
304.28861
304.36162
304.45834
304.52762
304.62382
304.68851
304.78361
304.84338
304.93715
304.99195
305.08437
305.13427
305.22543
305.27059
305.36063
305.40123
305.49034
305.52655
305.61493
305.64692
305.73476
305.76268
305.8502
305.87418
305.96159
305.98175
306.06922
306.08566
306.17338
306.18621
306.27431
306.28367
306.3722
306.37828
306.46726
306.47027
306.55978
303.6153
303.53015
303.57349
303.57477
303.59047
303.62423
303.65538
303.71656
303.76391
303.83918
303.89672
303.97948
304.04133
304.12849
304.19065
304.28013
304.34035
304.4307
304.4878
304.57818
304.63156
304.72151
304.7709
304.8602
304.90551
304.99411
305.03534
305.12328
305.16049
305.24784
305.28115
305.36803
305.39751
305.48406
305.50984
305.59621
305.61837
305.70472
305.72335
305.80981
305.82503
305.91172
305.92362
306.01064
306.01934
306.10674
306.11242
306.2002
306.20303
306.29129
303.58375
303.514
303.54676
303.55065
303.55667
303.58339
303.60151
303.6511
303.68422
303.74791
303.79176
303.86427
303.91385
303.99224
304.04376
304.12586
304.17698
304.26117
304.31052
304.39575
304.44251
304.52816
304.57188
304.65758
304.69802
304.78356
304.82061
304.90593
304.93955
305.02464
305.05484
305.13973
305.16655
305.25133
305.27482
305.35957
305.3798
305.46463
305.48167
305.56666
305.58059
305.66583
305.67674
305.76228
305.7703
305.85616
305.86142
305.94762
305.95026
306.0369
303.55459
303.49746
303.52181
303.5285
303.52804
303.55027
303.55851
303.59912
303.62036
303.67418
303.70589
303.7691
303.80732
303.87735
303.91872
303.9935
304.03573
304.11361
304.15522
304.23503
304.27511
304.35609
304.39403
304.4757
304.51113
304.59318
304.62589
304.70815
304.73801
304.82039
304.84735
304.92981
304.95384
305.0364
305.05751
305.1402
305.15842
305.24129
305.25667
305.33977
305.35237
305.43574
305.44564
305.5293
305.5366
305.62057
305.62538
305.70965
305.71206
305.79676
303.52758
303.48102
303.4984
303.50771
303.50297
303.5226
303.52357
303.55749
303.5691
303.61477
303.63601
303.691
303.71897
303.78125
303.81316
303.88089
303.91462
303.98621
304.0203
304.09455
304.12801
304.2041
304.23624
304.31358
304.34395
304.42217
304.45046
304.52929
304.55531
304.6346
304.65822
304.73786
304.75902
304.83896
304.85762
304.93785
304.954
305.03453
305.0482
305.12903
305.14026
305.22139
305.23024
305.31167
305.31823
305.39995
305.40428
305.48631
305.48848
305.5709
303.50252
303.46499
303.47645
303.48802
303.48043
303.49876
303.49453
303.52366
303.52768
303.56683
303.57927
303.62719
303.64615
303.70142
303.72471
303.78581
303.8116
303.87707
303.90399
303.97269
303.99974
304.0708
304.09727
304.17008
304.19544
304.26955
304.29345
304.36855
304.39072
304.46658
304.48685
304.56332
304.58158
304.65855
304.67473
304.75215
304.76621
304.84404
304.85598
304.93419
304.94403
305.02258
305.03037
305.10924
305.11502
305.19419
305.19803
305.2775
305.27943
305.35927
303.47922
303.44951
303.45589
303.4693
303.45979
303.47766
303.4698
303.49564
303.49385
303.52794
303.53317
303.57517
303.58639
303.63546
303.65109
303.70606
303.7246
303.78425
303.80447
303.86773
303.88871
303.95474
303.97574
304.04392
304.06441
304.13425
304.15383
304.22497
304.24335
304.31553
304.33248
304.4055
304.42087
304.49459
304.50829
304.58261
304.59457
304.6694
304.67961
304.75489
304.76333
304.83901
304.84572
304.92175
304.92675
305.00309
305.00642
305.08307
305.08474
305.16174
303.4575
303.43464
303.4367
303.45155
303.4407
303.45858
303.44824
303.47194
303.46582
303.49608
303.49556
303.5327
303.53745
303.58113
303.59012
303.63955
303.65161
303.7058
303.71992
303.77794
303.79327
303.85435
303.87021
303.93373
303.94958
304.01505
304.03048
304.09752
304.11221
304.18053
304.19424
304.2636
304.27615
304.34637
304.35764
304.42859
304.4385
304.51007
304.51856
304.59066
304.59772
304.67027
304.67591
304.74884
304.75306
304.82633
304.82915
304.90273
304.90415
304.97806
303.43724
303.42041
303.41882
303.43477
303.42295
303.44109
303.42909
303.45146
303.44219
303.46963
303.46466
303.4979
303.49736
303.53646
303.5398
303.58431
303.59071
303.63989
303.64853
303.70161
303.71179
303.76808
303.77917
303.8381
303.8496
303.91069
303.92219
303.98506
303.99623
304.06057
304.07116
304.13672
304.14654
304.2131
304.222
304.28941
304.2973
304.36542
304.37223
304.44095
304.44665
304.51587
304.52045
304.59008
304.59352
304.66352
304.66582
304.73614
304.7373
304.80794
303.41831
303.4068
303.4022
303.41898
303.40645
303.42493
303.41184
303.43341
303.42194
303.44736
303.43902
303.46918
303.46443
303.4997
303.49835
303.53855
303.54011
303.58474
303.5886
303.63707
303.64264
303.69437
303.70113
303.7556
303.76309
303.81986
303.8277
303.8864
303.89427
303.95458
303.96223
304.02388
304.03111
304.09388
304.10053
304.16425
304.17022
304.23473
304.23993
304.3051
304.30949
304.37522
304.37876
304.44494
304.44762
304.51418
304.51598
304.58287
304.58377
304.65097
303.40062
303.39382
303.3868
303.40419
303.39114
303.40996
303.39617
303.41729
303.40433
303.42829
303.4175
303.44526
303.43726
303.46934
303.46422
303.50069
303.4982
303.53877
303.53852
303.58275
303.5843
303.63173
303.63464
303.68483
303.68871
303.74126
303.74577
303.80033
303.80517
303.86144
303.86636
303.92407
303.92888
303.9878
303.99233
304.05228
304.05642
304.11723
304.1209
304.18242
304.18555
304.24766
304.25022
304.31282
304.31476
304.37777
304.37908
304.44241
304.44307
304.5067
303.38408
303.38146
303.37255
303.39041
303.377
303.3961
303.3819
303.40273
303.38882
303.41174
303.39923
303.42512
303.41468
303.44415
303.43606
303.46934
303.46356
303.50053
303.49684
303.53721
303.53531
303.57874
303.57829
303.62443
303.62511
303.6736
303.67511
303.72565
303.72773
303.78003
303.78245
303.83625
303.83882
303.89388
303.89645
303.95259
303.95504
304.01208
304.01432
304.07212
304.07407
304.1325
304.13412
304.19306
304.19431
304.25367
304.25452
304.31422
304.31465
304.37462
303.36863
303.36974
303.35944
303.37765
303.36403
303.38332
303.36891
303.38954
303.37507
303.39721
303.38355
303.40797
303.39579
303.4231
303.41277
303.44331
303.43493
303.46873
303.46224
303.49913
303.49434
303.5341
303.53078
303.57311
303.57101
303.61565
303.61453
303.66118
303.66082
303.70923
303.70941
303.75935
303.7599
303.81114
303.81192
303.86426
303.86515
303.91843
303.91934
303.97341
303.97427
304.02898
304.02973
304.08498
304.08558
304.14126
304.14167
304.19768
304.1979
304.25417
303.35424
303.3587
303.34745
303.36591
303.35222
303.37161
303.35714
303.37756
303.36282
303.38433
303.36998
303.39322
303.37984
303.40538
303.39341
303.42163
303.41126
303.44228
303.43357
303.46735
303.46021
303.4966
303.49089
303.52969
303.52524
303.56623
303.56284
303.60579
303.60329
303.64796
303.64617
303.69235
303.69111
303.73859
303.73777
303.78637
303.78586
303.8354
303.83511
303.88546
303.88532
303.93633
303.93628
303.98784
303.98784
304.03982
304.03984
304.09216
304.09217
304.14474
303.34091
303.34841
303.33659
303.35523
303.34158
303.36096
303.34654
303.36672
303.35191
303.37288
303.35817
303.38042
303.3663
303.39034
303.37724
303.40347
303.39165
303.42025
303.40984
303.44083
303.43184
303.46517
303.45753
303.49307
303.48667
303.52425
303.51896
303.55839
303.55407
303.59517
303.59167
303.63424
303.63143
303.67527
303.67304
303.71798
303.71623
303.76211
303.76075
303.80744
303.8064
303.85375
303.85299
303.90088
303.90034
303.94867
303.94832
303.99698
303.99681
304.04569
303.3287
303.33897
303.32691
303.34563
303.33211
303.35138
303.3371
303.35696
303.34224
303.36267
303.34786
303.36923
303.35472
303.37748
303.36367
303.38817
303.37536
303.40183
303.39018
303.4187
303.4083
303.43886
303.42971
303.46226
303.4543
303.48871
303.48186
303.518
303.51217
303.54987
303.54494
303.58404
303.57991
303.62024
303.6168
303.6582
303.65537
303.69769
303.6954
303.73851
303.73669
303.78046
303.77906
303.82336
303.82234
303.86707
303.86641
303.91145
303.91112
303.95638
303.3178
303.33052
303.31845
303.33713
303.32381
303.34286
303.32877
303.34825
303.33371
303.3536
303.33886
303.35943
303.3448
303.36641
303.35224
303.37522
303.36179
303.38638
303.3739
303.4002
303.38879
303.41686
303.40657
303.43638
303.42722
303.45871
303.45063
303.48369
303.47664
303.51115
303.50504
303.54086
303.53562
303.5726
303.56815
303.60615
303.60241
303.6413
303.63821
303.67786
303.67537
303.71565
303.71371
303.75451
303.75308
303.7943
303.79336
303.83488
303.83441
303.87613
303.30849
303.3232
303.31125
303.32977
303.31668
303.33539
303.32155
303.34055
303.32627
303.34557
303.33103
303.35083
303.33627
303.35685
303.34256
303.36419
303.35046
303.37336
303.36039
303.38471
303.37263
303.39844
303.38737
303.41468
303.40464
303.43343
303.42442
303.45462
303.44663
303.47815
303.47112
303.50384
303.49771
303.53152
303.52624
303.561
303.55651
303.59212
303.58837
303.62469
303.62164
303.65857
303.65617
303.6936
303.69182
303.72964
303.72847
303.76658
303.76599
303.80428
303.30109
303.31715
303.30534
303.32353
303.31068
303.32893
303.31537
303.33382
303.31984
303.33852
303.32426
303.3433
303.32895
303.34856
303.33436
303.35476
303.34096
303.36236
303.34915
303.37169
303.35924
303.38301
303.37143
303.39647
303.38584
303.41216
303.40249
303.43005
303.42137
303.4501
303.44237
303.4722
303.46539
303.49621
303.49028
303.52198
303.5169
303.54938
303.5451
303.57826
303.57475
303.60847
303.6057
303.63989
303.63783
303.67239
303.67102
303.70586
303.70517
303.74017
303.29583
303.31245
303.30071
303.3184
303.30576
303.32346
303.31019
303.32801
303.31438
303.33236
303.31847
303.33672
303.3227
303.34136
303.32741
303.34666
303.33299
303.35301
303.3398
303.36072
303.34814
303.37005
303.35823
303.3812
303.37022
303.39427
303.38419
303.40931
303.40016
303.42632
303.4181
303.44523
303.43793
303.46595
303.45954
303.48836
303.48283
303.51236
303.50768
303.53783
303.53397
303.56465
303.56158
303.5927
303.59041
303.62187
303.62035
303.65206
303.65129
303.68315
303.29266
303.30904
303.29729
303.3143
303.30187
303.31891
303.30594
303.32306
303.30979
303.32704
303.31355
303.331
303.31738
303.33512
303.32153
303.3397
303.3263
303.34504
303.33201
303.35144
303.33893
303.35915
303.34728
303.36836
303.35725
303.37923
303.36893
303.39183
303.38241
303.40619
303.39766
303.42229
303.41466
303.44007
303.43334
303.45947
303.45362
303.48039
303.47541
303.50274
303.49862
303.52643
303.52315
303.55136
303.5489
303.57742
303.57579
303.60453
303.60371
303.63259
303.29125
303.30679
303.29493
303.31114
303.2989
303.31519
303.30253
303.3189
303.30602
303.3225
303.30944
303.32607
303.3129
303.32973
303.31656
303.3337
303.32068
303.33823
303.3255
303.34357
303.33127
303.34995
303.3382
303.35756
303.34648
303.36657
303.35624
303.37708
303.36756
303.38915
303.38048
303.4028
303.395
303.41799
303.41107
303.43469
303.42865
303.45284
303.44768
303.47237
303.46807
303.49319
303.48977
303.51524
303.51267
303.53843
303.53671
303.56267
303.56181
303.58789
303.29104
303.30544
303.29346
303.30879
303.29673
303.31222
303.29989
303.31546
303.30298
303.31865
303.30605
303.32184
303.30915
303.32508
303.3124
303.32854
303.31597
303.3324
303.32007
303.33687
303.3249
303.34216
303.33066
303.34844
303.33754
303.35589
303.34567
303.36463
303.35516
303.37474
303.36606
303.38625
303.37841
303.39918
303.39218
303.41349
303.40736
303.42915
303.42389
303.44613
303.44174
303.46435
303.46084
303.48377
303.48113
303.5043
303.50254
303.52589
303.52501
303.54846
303.29148
303.30472
303.29269
303.3071
303.29524
303.3099
303.2979
303.31265
303.30059
303.31544
303.3033
303.31824
303.30606
303.3211
303.30893
303.3241
303.31204
303.3274
303.31553
303.33115
303.31959
303.33553
303.32439
303.34072
303.3301
303.34687
303.33686
303.35411
303.3448
303.36254
303.35397
303.37221
303.36443
303.38314
303.37618
303.39535
303.38922
303.40881
303.40354
303.42349
303.41909
303.43937
303.43584
303.45639
303.45373
303.47451
303.47273
303.49366
303.49276
303.51378
303.29214
303.30438
303.29241
303.30592
303.2943
303.30811
303.29647
303.3104
303.29876
303.31277
303.30111
303.3152
303.30354
303.31769
303.30606
303.32029
303.30876
303.3231
303.31175
303.32625
303.31517
303.32988
303.31917
303.33416
303.32391
303.33922
303.32952
303.34519
303.33613
303.35219
303.34382
303.36027
303.35264
303.36948
303.36263
303.37984
303.37379
303.39135
303.38613
303.404
303.39963
303.41777
303.41426
303.43263
303.42998
303.44853
303.44676
303.46545
303.46456
303.48332
303.29279
303.30425
303.29248
303.30513
303.2938
303.30677
303.29551
303.3086
303.2974
303.31058
303.29941
303.31265
303.30151
303.31479
303.3037
303.31701
303.30603
303.3194
303.30859
303.32203
303.31146
303.32504
303.3148
303.32855
303.31872
303.33269
303.32337
303.33761
303.32886
303.34338
303.33529
303.35011
303.3427
303.35782
303.35116
303.36657
303.36067
303.37636
303.37126
303.38721
303.38292
303.3991
303.39565
303.41201
303.40941
303.42592
303.42418
303.44081
303.43993
303.45662
303.29335
303.30421
303.29275
303.30461
303.29361
303.30576
303.2949
303.30719
303.29644
303.3088
303.29812
303.31053
303.29991
303.31233
303.30179
303.3142
303.30378
303.3162
303.30594
303.31839
303.30836
303.32086
303.31113
303.32373
303.31437
303.32711
303.31821
303.33112
303.32275
303.33586
303.32809
303.34142
303.3343
303.34785
303.34142
303.3552
303.34949
303.36349
303.35855
303.37274
303.36858
303.38296
303.37961
303.39413
303.3916
303.40625
303.40456
303.4193
303.41845
303.43324
303.29382
303.30419
303.29313
303.30426
303.29364
303.30502
303.29459
303.30609
303.29579
303.30736
303.29717
303.30876
303.29866
303.31024
303.30024
303.31179
303.30192
303.31344
303.30373
303.31523
303.30574
303.31724
303.30802
303.31955
303.31068
303.32228
303.31383
303.32553
303.31757
303.3294
303.32199
303.33396
303.32716
303.33929
303.33313
303.34542
303.33995
303.35241
303.34766
303.36026
303.35626
303.369
303.36577
303.37863
303.37619
303.38914
303.38751
303.40053
303.39971
303.41278
303.29421
303.30415
303.29355
303.30401
303.29382
303.30447
303.29448
303.30523
303.29539
303.30619
303.29648
303.30729
303.29769
303.30846
303.29899
303.30971
303.30037
303.31103
303.30186
303.31246
303.3035
303.31406
303.30536
303.3159
303.30753
303.31808
303.31009
303.32068
303.31315
303.3238
303.31678
303.32752
303.32106
303.3319
303.32605
303.33699
303.33178
303.34283
303.33831
303.34947
303.34565
303.35691
303.35382
303.36517
303.36283
303.37425
303.37268
303.38415
303.38337
303.39487
303.29454
303.30409
303.29399
303.30383
303.29408
303.30405
303.29451
303.30455
303.29518
303.30524
303.29601
303.30605
303.29695
303.30694
303.29797
303.30789
303.29908
303.30891
303.30027
303.31001
303.30158
303.31125
303.30307
303.31268
303.3048
303.31438
303.30686
303.31643
303.30933
303.31892
303.3123
303.32191
303.31581
303.32548
303.31994
303.32967
303.32474
303.33453
303.33024
303.3401
303.33647
303.3464
303.34347
303.35345
303.35123
303.36126
303.35977
303.36984
303.3691
303.37919
303.29482
303.30399
303.2944
303.30366
303.29439
303.30371
303.29465
303.304
303.2951
303.30445
303.29569
303.305
303.29638
303.30562
303.29714
303.30629
303.29797
303.30702
303.29888
303.30782
303.29989
303.30872
303.30104
303.30979
303.3024
303.31107
303.30402
303.31265
303.30599
303.3146
303.30838
303.31698
303.31125
303.31985
303.31464
303.32327
303.31862
303.32728
303.32323
303.33192
303.3285
303.33723
303.33446
303.34322
303.34112
303.34991
303.34851
303.35732
303.35661
303.36544
303.29505
303.30386
303.29478
303.30349
303.29471
303.30342
303.29483
303.30354
303.2951
303.30377
303.29547
303.30408
303.29592
303.30444
303.29643
303.30484
303.297
303.30529
303.29764
303.30581
303.29837
303.30642
303.29922
303.30716
303.30023
303.30808
303.30148
303.30925
303.30302
303.31074
303.30491
303.31259
303.30722
303.31487
303.30999
303.31762
303.31327
303.3209
303.31711
303.32474
303.32154
303.32918
303.32659
303.33425
303.33228
303.33996
303.33863
303.34632
303.34566
303.35335
303.29523
303.3037
303.29511
303.30332
303.29501
303.30316
303.29504
303.30313
303.29514
303.30317
303.29531
303.30325
303.29553
303.30336
303.29579
303.3035
303.29611
303.30369
303.29649
303.30394
303.29696
303.30428
303.29753
303.30472
303.29825
303.30533
303.29916
303.30614
303.30032
303.30723
303.30179
303.30863
303.30362
303.3104
303.30584
303.31259
303.30852
303.31524
303.3117
303.31839
303.3154
303.32208
303.31966
303.32634
303.3245
303.33118
303.32995
303.33663
303.33601
303.3427
303.29536
303.3035
303.29541
303.30312
303.29529
303.3029
303.29524
303.30274
303.29519
303.3026
303.29516
303.30246
303.29516
303.30233
303.29518
303.30222
303.29526
303.30216
303.29539
303.30216
303.29561
303.30224
303.29592
303.30242
303.29637
303.30274
303.29699
303.30325
303.29782
303.30399
303.29893
303.305
303.30034
303.30634
303.3021
303.30805
303.30426
303.31016
303.30686
303.31272
303.30993
303.31576
303.3135
303.31931
303.3176
303.3234
303.32225
303.32805
303.32747
303.33326
303.29546
303.30329
303.29566
303.30291
303.29554
303.30263
303.29541
303.30235
303.29521
303.30203
303.29499
303.30167
303.29476
303.3013
303.29455
303.30096
303.29439
303.30066
303.29429
303.30042
303.29427
303.30026
303.29435
303.3002
303.29455
303.30027
303.2949
303.30051
303.29546
303.30095
303.29624
303.30164
303.2973
303.3026
303.29867
303.3039
303.30038
303.30555
303.30249
303.3076
303.30501
303.31008
303.30799
303.31303
303.31144
303.31646
303.3154
303.32041
303.31987
303.32487
303.29552
303.30305
303.29586
303.30267
303.29574
303.30234
303.29552
303.30193
303.29517
303.30142
303.29475
303.30084
303.29429
303.30024
303.29385
303.29966
303.29346
303.29914
303.29314
303.29868
303.2929
303.2983
303.29276
303.29802
303.29274
303.29787
303.29287
303.29787
303.29317
303.29805
303.29368
303.29846
303.29443
303.29911
303.29546
303.30005
303.29679
303.30131
303.29847
303.30293
303.30053
303.30493
303.30299
303.30736
303.30589
303.31022
303.30923
303.31355
303.31305
303.31736
303.29553
303.30279
303.29601
303.30241
303.29588
303.30201
303.29557
303.30145
303.29505
303.30074
303.2944
303.29993
303.29372
303.29911
303.29306
303.2983
303.29244
303.29756
303.29191
303.29689
303.29147
303.29631
303.29113
303.29584
303.29091
303.29549
303.29083
303.29528
303.29091
303.29525
303.29119
303.29541
303.29168
303.29579
303.29241
303.29643
303.29342
303.29736
303.29474
303.29861
303.2964
303.30021
303.29841
303.30218
303.30082
303.30455
303.30364
303.30735
303.30689
303.31059
303.29551
303.30252
303.29613
303.30212
303.29597
303.30163
303.29552
303.30089
303.2948
303.29995
303.29392
303.29892
303.29301
303.29786
303.29212
303.29684
303.2913
303.29589
303.29056
303.29503
303.28993
303.29427
303.28941
303.29362
303.28901
303.2931
303.28875
303.29271
303.28865
303.29249
303.28872
303.29244
303.28899
303.2926
303.28947
303.29299
303.29021
303.29364
303.29122
303.29457
303.29253
303.29582
303.29417
303.29741
303.29616
303.29936
303.29852
303.3017
303.30128
303.30444
303.29545
303.30225
303.29619
303.30181
303.29597
303.30117
303.29536
303.30021
303.29439
303.29903
303.29327
303.29775
303.29213
303.29647
303.29102
303.29524
303.29
303.29411
303.28908
303.29307
303.28827
303.29215
303.28759
303.29134
303.28703
303.29066
303.28662
303.29012
303.28635
303.28974
303.28624
303.28952
303.28632
303.28949
303.2866
303.28967
303.2871
303.29008
303.28785
303.29075
303.28887
303.29171
303.29019
303.29297