/*--------------------------------*- C++ -*----------------------------------*\
| =========                 |                                                 |
| \\      /  F ield         | OpenFOAM: The Open Source CFD Toolbox           |
|  \\    /   O peration     | Version:  2312                                  |
|   \\  /    A nd           | Website:  www.openfoam.com                      |
|    \\/     M anipulation  |                                                 |
\*---------------------------------------------------------------------------*/
FoamFile
{
    version     2.0;
    format      ascii;
    arch        "LSB;label=32;scalar=64";
    class       surfaceScalarField;
    location    "2";
    object      phi_0;
}
// * * * * * * * * * * * * * * * * * * * * * * * * * * * * * * * * * * * * * //

dimensions      [0 3 -1 0 0 0 0];

oriented        oriented;

internalField   nonuniform List<scalar> 
7870
(
5.3045007e-11
1.293205e-09
5.1924786e-11
1.1202209e-12
5.1957662e-11
-3.2876465e-14
5.1213064e-11
7.4459766e-13
5.2054455e-11
-8.4139076e-13
5.1282596e-11
7.7185926e-13
5.2025546e-11
-7.4295078e-13
5.1332208e-11
6.9333804e-13
5.198557e-11
-6.5336204e-13
5.1372916e-11
6.1265427e-13
5.1948649e-11
-5.757324e-13
5.1407994e-11
5.4065552e-13
5.1916037e-11
-5.0804376e-13
5.1438607e-11
4.7743054e-13
5.1887437e-11
-4.4883026e-13
5.1465385e-11
4.2205232e-13
5.18624e-11
-3.970145e-13
5.1488806e-11
3.7359362e-13
5.1840502e-11
-3.5169577e-13
5.1509276e-11
3.3122602e-13
5.182137e-11
-3.1209388e-13
5.1527148e-11
2.9422295e-13
5.1804676e-11
-2.7752892e-13
5.1542727e-11
2.6195002e-13
5.1790135e-11
-2.474086e-13
5.155628e-11
2.3385493e-13
5.1777498e-11
-2.2121795e-13
5.156804e-11
2.0945789e-13
5.176655e-11
-1.9851025e-13
5.1578207e-11
1.8834337e-13
5.1757106e-11
-1.7889941e-13
5.1586953e-11
1.7015305e-13
5.1749006e-11
-1.6205318e-13
5.1594427e-11
1.5457925e-13
5.1742113e-11
-1.4768704e-13
5.1600754e-11
1.413596e-13
5.1736313e-11
-1.3555945e-13
5.1606041e-11
1.3027231e-13
5.1731508e-11
-1.2546722e-13
5.1610376e-11
1.2113205e-13
5.1727618e-11
-1.172419e-13
5.1613831e-11
1.1378658e-13
5.1724578e-11
-1.1074676e-13
5.1616464e-11
1.0811401e-13
5.1722337e-11
-1.0587345e-13
5.1618316e-11
1.0402165e-13
5.1720866e-11
-1.0255033e-13
5.1619567e-11
1.0129931e-13
5.172134e-11
-1.0177301e-13
9.783355e-14
1.4953338e-10
2.4899216e-09
1.5083179e-10
-1.7818811e-13
1.50255e-10
5.4390714e-13
1.4929632e-10
1.703277e-12
1.5051001e-10
-2.0550835e-12
1.4943016e-10
1.8517118e-12
1.5049668e-10
-1.8094705e-12
1.4950759e-10
1.6824323e-12
1.5044307e-10
-1.5888437e-12
1.4956707e-10
1.4886571e-12
1.5039085e-10
-1.3995115e-12
1.4961748e-10
1.3140202e-12
1.5034435e-10
-1.2349115e-12
1.4966133e-10
1.160448e-12
1.5030351e-10
-1.0910074e-12
1.4969966e-10
1.0259003e-12
1.5026774e-10
-9.650962e-13
1.4973318e-10
9.0815758e-13
1.5023646e-10
-8.5497448e-13
1.4976247e-10
8.0521241e-13
1.5020912e-10
-7.5874377e-13
1.4978805e-10
7.1530026e-13
1.5018527e-10
-6.7475132e-13
1.4981034e-10
6.3687988e-13
1.5016449e-10
-6.0155778e-13
1.4982973e-10
5.6860945e-13
1.5014643e-10
-5.3791181e-13
1.4984656e-10
5.0932326e-13
1.5013078e-10
-4.8272797e-13
1.4986111e-10
4.5801194e-13
1.5011728e-10
-4.3506837e-13
1.4987363e-10
4.1380505e-13
1.501057e-10
-3.9412584e-13
1.4988432e-10
3.7595538e-13
1.5009584e-10
-3.592093e-13
1.4989338e-10
3.4382559e-13
1.5008755e-10
-3.2973212e-13
1.4990095e-10
3.168771e-13
1.5008068e-10
-3.0520074e-13
1.4990715e-10
2.946598e-13
1.5007511e-10
-2.8520606e-13
1.499121e-10
2.7680367e-13
1.5007077e-10
-2.6941557e-13
1.4991587e-10
2.6301228e-13
1.5006756e-10
-2.5756453e-13
1.4991852e-10
2.5306173e-13
1.5006544e-10
-2.4946945e-13
1.4992037e-10
2.463705e-13
1.5006719e-10
-2.4859171e-13
2.3719688e-13
2.4295151e-10
3.5932201e-09
2.4726669e-10
-4.4933678e-12
2.4582858e-10
1.9820193e-12
2.4508859e-10
2.4432607e-12
2.4623361e-10
-3.2000999e-12
2.4525795e-10
2.8273694e-12
2.4625913e-10
-2.8106472e-12
2.4533855e-10
2.6030104e-12
2.4621372e-10
-2.4640081e-12
2.4539574e-10
2.3066296e-12
2.461657e-10
-2.1694625e-12
2.4544316e-10
2.0365586e-12
2.4612246e-10
-1.9142085e-12
2.4548421e-10
1.7986988e-12
2.4608439e-10
-1.6911951e-12
2.4552005e-10
1.5902459e-12
2.4605104e-10
-1.4960899e-12
2.4555138e-10
1.407817e-12
2.4602186e-10
-1.3254544e-12
2.4557877e-10
1.2483111e-12
2.4599636e-10
-1.1763422e-12
2.4560267e-10
1.1089959e-12
2.4597411e-10
-1.0461912e-12
2.456235e-10
9.8748324e-13
2.4595472e-10
-9.3277089e-13
2.4564163e-10
8.8169457e-13
2.4593786e-10
-8.3414243e-13
2.4565736e-10
7.8982404e-13
2.4592326e-10
-7.4862392e-13
2.4567096e-10
7.1030787e-13
2.4591066e-10
-6.7476254e-13
2.4568266e-10
6.4179817e-13
2.4589984e-10
-6.1130815e-13
2.4569266e-10
5.8313743e-13
2.4589064e-10
-5.5719002e-13
2.4570113e-10
5.3333873e-13
2.458829e-10
-5.114999e-13
2.457082e-10
4.9156803e-13
2.4587648e-10
-4.7347332e-13
2.4571401e-10
4.5712815e-13
2.4587128e-10
-4.4247636e-13
2.4571864e-10
4.2944576e-13
2.4586721e-10
-4.1799357e-13
2.4572217e-10
4.0806054e-13
2.4586421e-10
-3.9961136e-13
2.4572465e-10
3.9262654e-13
2.4586221e-10
-3.8702962e-13
2.4572648e-10
3.8210251e-13
2.458653e-10
-3.8741752e-13
3.6689284e-13
3.3410334e-10
4.6053668e-09
3.410799e-10
-1.146993e-11
3.389181e-10
4.1438176e-12
3.3836499e-10
2.9963686e-12
3.3943885e-10
-4.2739593e-12
3.3856595e-10
3.7002679e-12
3.3950108e-10
-3.7457769e-12
3.3864891e-10
3.4551824e-12
3.3946335e-10
-3.2784455e-12
3.3870363e-10
3.0663513e-12
3.3941945e-10
-2.8852861e-12
3.3874798e-10
2.7080287e-12
3.3937945e-10
-2.5456797e-12
3.3878619e-10
2.3919574e-12
3.3934416e-10
-2.2491646e-12
3.3881953e-10
2.1148828e-12
3.3931323e-10
-1.9897884e-12
3.3884866e-10
1.8723834e-12
3.3928615e-10
-1.7629465e-12
3.3887412e-10
1.6603494e-12
3.3926249e-10
-1.5647159e-12
3.3889633e-10
1.4751505e-12
3.3924183e-10
-1.391689e-12
3.389157e-10
1.3136128e-12
3.3922383e-10
-1.2409005e-12
3.3893255e-10
1.1729736e-12
3.3920818e-10
-1.1097728e-12
3.3894717e-10
1.0508326e-12
3.3919462e-10
-9.9607029e-13
3.3895982e-10
9.451116e-13
3.3918292e-10
-8.9786215e-13
3.3897069e-10
8.540195e-13
3.3917287e-10
-8.1348704e-13
3.3897999e-10
7.7601845e-13
3.3916432e-10
-7.4152206e-13
3.3898786e-10
7.0979691e-13
3.3915712e-10
-6.8076054e-13
3.3899445e-10
6.5424695e-13
3.3915116e-10
-6.3018653e-13
3.3899984e-10
6.0844211e-13
3.3914633e-10
-5.8895743e-13
3.3900415e-10
5.7161975e-13
3.3914254e-10
-5.5638703e-13
3.3900744e-10
5.431663e-13
3.3913975e-10
-5.3192048e-13
3.3900975e-10
5.2262175e-13
3.3913785e-10
-5.1513056e-13
3.3901153e-10
5.084294e-13
3.3914197e-10
-5.1786253e-13
4.8729599e-13
4.227859e-10
5.5288309e-09
4.322201e-10
-2.0904128e-11
4.295189e-10
6.8450107e-12
4.2912839e-10
3.3868769e-12
4.3012557e-10
-5.2711363e-12
4.2935415e-10
4.4716882e-12
4.3022244e-10
-4.6140716e-12
4.2943856e-10
4.2390671e-12
4.3019186e-10
-4.0317465e-12
4.2949061e-10
3.7675997e-12
4.3015202e-10
-3.5466891e-12
4.2953186e-10
3.3281875e-12
4.3011526e-10
-3.1290768e-12
4.2956722e-10
2.9399976e-12
4.3008275e-10
-2.7646948e-12
4.2959802e-10
2.5996048e-12
4.3005423e-10
-2.4459917e-12
4.2962494e-10
2.3016689e-12
4.3002927e-10
-2.167269e-12
4.2964846e-10
2.0411554e-12
4.3000744e-10
-1.923699e-12
4.2966899e-10
1.8136071e-12
4.2998839e-10
-1.7110932e-12
4.2968688e-10
1.6151244e-12
4.2997179e-10
-1.5258072e-12
4.2970245e-10
1.4423136e-12
4.2995735e-10
-1.3646748e-12
4.2971595e-10
1.2922262e-12
4.2994483e-10
-1.2249487e-12
4.2972763e-10
1.1623094e-12
4.2993403e-10
-1.1042574e-12
4.2973768e-10
1.0503637e-12
4.2992476e-10
-1.0005607e-12
4.2974628e-10
9.5450017e-13
4.2991686e-10
-9.1211046e-13
4.2975355e-10
8.7310841e-13
4.2991022e-10
-8.3742519e-13
4.2975964e-10
8.0482788e-13
4.2990471e-10
-7.7525703e-13
4.2976463e-10
7.4852055e-13
4.2990024e-10
-7.2457041e-13
4.2976861e-10
7.0324896e-13
4.2989674e-10
-6.8452121e-13
4.2977165e-10
6.6825646e-13
4.2989415e-10
-6.5442017e-13
4.297738e-10
6.4297608e-13
4.2989237e-10
-6.3370077e-13
4.297755e-10
6.2530285e-13
4.2989725e-10
-6.3961722e-13
5.9829056e-13
5.0896741e-10
6.3661135e-09
5.2068917e-10
-3.2625892e-11
5.1762996e-10
9.9042204e-12
5.1738127e-10
3.6355682e-12
5.1829377e-10
-6.1836416e-12
5.1762247e-10
5.1429928e-12
5.1842336e-10
-5.4149616e-12
5.1770741e-10
4.9550162e-12
5.1839938e-10
-4.7237129e-12
5.1775663e-10
4.4103511e-12
5.183635e-10
-4.1535651e-12
5.1779472e-10
3.8969684e-12
5.1832996e-10
-3.6643154e-12
5.1782721e-10
3.4427487e-12
5.1830022e-10
-3.2377084e-12
5.1785549e-10
3.0443427e-12
5.1827412e-10
-2.8646268e-12
5.1788018e-10
2.6956063e-12
5.1825127e-10
-2.5383524e-12
5.1790176e-10
2.3906646e-12
5.1823129e-10
-2.2532253e-12
5.1792059e-10
2.124303e-12
5.1821384e-10
-2.00434e-12
5.17937e-10
1.8919574e-12
5.1819863e-10
-1.7874303e-12
5.1795128e-10
1.6896564e-12
5.181854e-10
-1.5987899e-12
5.1796368e-10
1.5139488e-12
5.1817393e-10
-1.4352031e-12
5.1797439e-10
1.3618474e-12
5.1816403e-10
-1.2938949e-12
5.1798361e-10
1.2307787e-12
5.1815553e-10
-1.1724778e-12
5.179915e-10
1.118533e-12
5.1814829e-10
-1.0689062e-12
5.1799817e-10
1.0232257e-12
5.181422e-10
-9.8144717e-13
5.1800376e-10
9.432655e-13
5.1813714e-10
-9.0864021e-13
5.1800834e-10
8.7732055e-13
5.1813304e-10
-8.4927316e-13
5.18012e-10
8.2429247e-13
5.1812983e-10
-8.0235594e-13
5.180148e-10
7.8329214e-13
5.1812745e-10
-7.6707269e-13
5.1801678e-10
7.5365252e-13
5.1812578e-10
-7.4270443e-13
5.1801838e-10
7.327058e-13
5.181312e-10
-7.5243595e-13
6.9975992e-13
5.9270323e-10
7.1196602e-09
6.0649733e-10
-4.6419988e-11
6.0324902e-10
1.3152521e-11
6.0312417e-10
3.7604194e-12
6.0394353e-10
-7.0030035e-12
6.0337077e-10
5.7157606e-12
6.0410396e-10
-6.1481583e-12
6.0345533e-10
5.6036494e-12
6.0408601e-10
-5.3543885e-12
6.0350155e-10
4.9948097e-12
6.0405401e-10
-4.7060242e-12
6.0353647e-10
4.4145064e-12
6.0402366e-10
-4.1515013e-12
6.0356609e-10
3.900318e-12
6.0399668e-10
-3.6682956e-12
6.0359183e-10
3.449184e-12
6.0397298e-10
-3.2457683e-12
6.0361432e-10
3.054267e-12
6.0395222e-10
-2.8762574e-12
6.0363395e-10
2.7089341e-12
6.0393407e-10
-2.5533431e-12
6.0365109e-10
2.4072836e-12
6.0391822e-10
-2.2714674e-12
6.0366603e-10
2.1441471e-12
6.039044e-10
-2.0257986e-12
6.0367902e-10
1.9150282e-12
6.0389237e-10
-1.8121396e-12
6.036903e-10
1.7160196e-12
6.0388195e-10
-1.6268487e-12
6.0370006e-10
1.5437387e-12
6.0387294e-10
-1.4667844e-12
6.0370845e-10
1.3952734e-12
6.0386522e-10
-1.3292443e-12
6.0371563e-10
1.2681216e-12
6.0385863e-10
-1.211912e-12
6.0372171e-10
1.1601507e-12
6.0385309e-10
-1.1128266e-12
6.0372679e-10
1.0695594e-12
6.0384849e-10
-1.0303346e-12
6.0373097e-10
9.9483987e-13
6.0384476e-10
-9.6306278e-13
6.037343e-10
9.3474737e-13
6.0384183e-10
-9.0988807e-13
6.0373686e-10
8.8827039e-13
6.0383966e-10
-8.6987512e-13
6.0373866e-10
8.546482e-13
6.038381e-10
-8.4214083e-13
6.0374015e-10
8.3065192e-13
6.0384385e-10
-8.5613496e-13
7.9168606e-13
6.7405489e-10
7.7918553e-09
6.896604e-10
-6.2025492e-11
6.8637278e-10
1.6440138e-11
6.8635423e-10
3.7789689e-12
6.8707514e-10
-7.7239146e-12
6.8659885e-10
6.1920529e-12
6.8726438e-10
-6.8136882e-12
6.8668221e-10
6.1858197e-12
6.8725185e-10
-5.9240329e-12
6.8672528e-10
5.5213837e-12
6.8722362e-10
-5.2043696e-12
6.8675701e-10
4.881117e-12
6.8719642e-10
-4.5909105e-12
6.8678377e-10
4.3129716e-12
6.8717217e-10
-4.0566966e-12
6.86807e-10
3.8143564e-12
6.8715086e-10
-3.5896229e-12
6.8682728e-10
3.377846e-12
6.8713218e-10
-3.1811611e-12
6.8684498e-10
2.9961306e-12
6.8711585e-10
-2.8242039e-12
6.8686044e-10
2.6626907e-12
6.8710158e-10
-2.5126047e-12
6.8687391e-10
2.3718142e-12
6.8708913e-10
-2.2410222e-12
6.8688563e-10
2.1185321e-12
6.8707831e-10
-2.0048174e-12
6.868958e-10
1.8985258e-12
6.8706892e-10
-1.799965e-12
6.869046e-10
1.7080578e-12
6.8706081e-10
-1.6229938e-12
6.8691217e-10
1.5439105e-12
6.8705384e-10
-1.4709177e-12
6.8691864e-10
1.4033198e-12
6.8704791e-10
-1.3411772e-12
6.8692413e-10
1.2839294e-12
6.8704291e-10
-1.2316062e-12
6.8692872e-10
1.1837497e-12
6.8703876e-10
-1.1403775e-12
6.8693249e-10
1.1011143e-12
6.8703539e-10
-1.0659729e-12
6.869355e-10
1.0346458e-12
6.8703276e-10
-1.0071482e-12
6.8693781e-10
9.8322107e-13
6.8703079e-10
-9.6285704e-13
6.8693944e-10
9.4599232e-13
6.8702934e-10
-9.320414e-13
6.8694081e-10
9.1918284e-13
6.8703526e-10
-9.5058537e-13
8.7412669e-13
7.5306988e-10
8.3850355e-09
7.7019738e-10
-7.9152994e-11
7.6699674e-10
1.9640777e-11
7.6706516e-10
3.7105449e-12
7.6768919e-10
-8.3479434e-12
7.6730645e-10
6.5747939e-12
7.6790469e-10
-7.4119301e-12
7.6738794e-10
6.7025735e-12
7.67897e-10
-6.4330983e-12
7.6742773e-10
5.9906607e-12
7.6787243e-10
-5.6490748e-12
7.6745628e-10
5.297275e-12
7.6784833e-10
-4.982969e-12
7.6748019e-10
4.6811162e-12
7.6782678e-10
-4.4032835e-12
7.6750092e-10
4.1402118e-12
7.6780781e-10
-3.8965139e-12
7.6751901e-10
3.6666477e-12
7.677912e-10
-3.453344e-12
7.6753481e-10
3.2525174e-12
7.6777666e-10
-3.0660506e-12
7.675486e-10
2.8907526e-12
7.6776395e-10
-2.7279622e-12
7.6756061e-10
2.5751559e-12
7.6775287e-10
-2.4332831e-12
7.6757107e-10
2.3003383e-12
7.6774323e-10
-2.1769811e-12
7.6758014e-10
2.0616153e-12
7.6773486e-10
-1.9546889e-12
7.6758799e-10
1.8549327e-12
7.6772764e-10
-1.762642e-12
7.6759474e-10
1.6768022e-12
7.6772143e-10
-1.5976025e-12
7.6760052e-10
1.5242258e-12
7.6771614e-10
-1.4567936e-12
7.6760542e-10
1.3946488e-12
7.6771168e-10
-1.3378675e-12
7.6760951e-10
1.2859138e-12
7.6770798e-10
-1.2388422e-12
7.6761288e-10
1.1962134e-12
7.6770498e-10
-1.1580698e-12
7.6761557e-10
1.1240519e-12
7.6770262e-10
-1.0941982e-12
7.6761764e-10
1.0682045e-12
7.6770086e-10
-1.0460774e-12
7.6761911e-10
1.0277429e-12
7.6769953e-10
-1.0124669e-12
7.6762035e-10
9.9836659e-13
7.6770547e-10
-1.0357083e-12
9.4718982e-13
8.2978603e-10
8.9014994e-09
8.4812824e-10
-9.7495212e-11
8.451156e-10
2.2653422e-11
8.4525025e-10
3.5758932e-12
8.4578662e-10
-8.8843101e-12
8.4549332e-10
6.8680902e-12
8.4602497e-10
-7.9435848e-12
8.4557243e-10
7.1551216e-12
8.4602154e-10
-6.8822128e-12
8.4560881e-10
6.4033901e-12
8.4600051e-10
-6.0407683e-12
8.4563418e-10
5.6635991e-12
8.4597945e-10
-5.3282391e-12
8.4565528e-10
5.005286e-12
8.4596055e-10
-4.7085486e-12
8.4567355e-10
4.4272143e-12
8.459439e-10
-4.1668708e-12
8.4568948e-10
3.9210761e-12
8.4592931e-10
-3.6931799e-12
8.4570338e-10
3.4784463e-12
8.4591654e-10
-3.2792089e-12
8.4571552e-10
3.0917749e-12
8.4590538e-10
-2.9178235e-12
8.457261e-10
2.7544389e-12
8.4589565e-10
-2.602829e-12
8.457353e-10
2.4606798e-12
8.4588717e-10
-2.3288471e-12
8.4574329e-10
2.2054913e-12
8.4587981e-10
-2.09121e-12
8.457502e-10
1.9845419e-12
8.4587346e-10
-1.8858958e-12
8.4575615e-10
1.7941051e-12
8.45868e-10
-1.7094455e-12
8.4576124e-10
1.6309784e-12
8.4586334e-10
-1.5588917e-12
8.4576556e-10
1.4924324e-12
8.4585942e-10
-1.4317274e-12
8.4576917e-10
1.3761631e-12
8.4585616e-10
-1.3258343e-12
8.4577213e-10
1.2802389e-12
8.4585351e-10
-1.2394509e-12
8.4577451e-10
1.2030593e-12
8.4585144e-10
-1.1711285e-12
8.4577633e-10
1.1433091e-12
8.4584988e-10
-1.1196229e-12
8.4577764e-10
1.0999855e-12
8.4584867e-10
-1.0835053e-12
8.4577875e-10
1.0682957e-12
8.4585451e-10
-1.1114701e-12
1.0110221e-12
9.0423636e-10
9.3435131e-09
9.2347119e-10
-1.1673004e-10
9.2072367e-10
2.5400935e-11
9.2090551e-10
3.3940545e-12
9.213685e-10
-9.3472989e-12
9.2115931e-10
7.0772856e-12
9.2162528e-10
-8.409562e-12
9.2123558e-10
7.5448211e-12
9.2162554e-10
-7.2721649e-12
9.2126846e-10
6.7604696e-12
9.2160791e-10
-6.3802204e-12
9.2129067e-10
5.980841e-12
9.2158984e-10
-5.6274078e-12
9.2130899e-10
5.2861321e-12
9.2157354e-10
-4.9730947e-12
9.2132482e-10
4.6759317e-12
9.2155917e-10
-4.4012202e-12
9.2133862e-10
4.1416266e-12
9.2154657e-10
-3.9011294e-12
9.2135067e-10
3.6743498e-12
9.2153554e-10
-3.4640813e-12
9.2136118e-10
3.266136e-12
9.215259e-10
-3.0825409e-12
9.2137034e-10
2.9099938e-12
9.2151748e-10
-2.7499681e-12
9.2137832e-10
2.5998459e-12
9.2151015e-10
-2.4606857e-12
9.2138524e-10
2.3304084e-12
9.2150379e-10
-2.2097661e-12
9.2139122e-10
2.0971094e-12
9.2149829e-10
-1.9929652e-12
9.2139638e-10
1.8960181e-12
9.2149357e-10
-1.8066335e-12
9.2140079e-10
1.7237543e-12
9.2148954e-10
-1.6476385e-12
9.2140453e-10
1.5774388e-12
9.2148614e-10
-1.5133361e-12
9.2140766e-10
1.4546408e-12
9.2148332e-10
-1.4014907e-12
9.2141023e-10
1.3533216e-12
9.2148103e-10
-1.3102417e-12
9.2141229e-10
1.2717897e-12
9.2147922e-10
-1.238057e-12
9.2141388e-10
1.2086495e-12
9.2147787e-10
-1.1836059e-12
9.2141502e-10
1.1628307e-12
9.2147679e-10
-1.1452699e-12
9.21416e-10
1.1290861e-12
9.214824e-10
-1.1778797e-12
1.0658038e-12
9.764506e-10
9.7133125e-09
9.9624198e-10
-1.3652142e-10
9.9381528e-10
2.7827637e-11
9.9403039e-10
3.1789434e-12
9.9443582e-10
-9.7527324e-12
9.9430438e-10
7.2087313e-12
9.9470567e-10
-8.810858e-12
9.9437733e-10
7.8731593e-12
9.9470906e-10
-7.6038872e-12
9.9440659e-10
7.062933e-12
9.9469471e-10
-6.6683315e-12
9.9442567e-10
6.2498736e-12
9.9467954e-10
-5.8812771e-12
9.9444126e-10
5.5244129e-12
9.9466579e-10
-5.1976254e-12
9.944547e-10
4.8870264e-12
9.9465366e-10
-4.6001787e-12
9.9446641e-10
4.3288789e-12
9.9464301e-10
-4.0777321e-12
9.9447662e-10
3.8407353e-12
9.9463368e-10
-3.6211406e-12
9.9448554e-10
3.4142802e-12
9.9462553e-10
-3.222529e-12
9.9449331e-10
3.0422105e-12
9.9461841e-10
-2.8750647e-12
9.9450007e-10
2.7181798e-12
9.9461221e-10
-2.5728178e-12
9.9450595e-10
2.4366685e-12
9.9460682e-10
-2.3106405e-12
9.9451103e-10
2.1929026e-12
9.9460216e-10
-2.0841015e-12
9.945154e-10
1.9827779e-12
9.9459816e-10
-1.8893899e-12
9.9451915e-10
1.8027655e-12
9.9459474e-10
-1.7232341e-12
9.9452232e-10
1.6498586e-12
9.9459186e-10
-1.5828747e-12
9.9452498e-10
1.52152e-12
9.9458947e-10
-1.4659763e-12
9.9452717e-10
1.4156204e-12
9.9458752e-10
-1.370595e-12
9.9452892e-10
1.3303906e-12
9.9458599e-10
-1.2951263e-12
9.9453027e-10
1.2643652e-12
9.9458483e-10
-1.2381632e-12
9.9453125e-10
1.2164133e-12
9.9458388e-10
-1.1978976e-12
9.9453209e-10
1.1808757e-12
9.9458919e-10
-1.234984e-12
1.1117435e-12
1.0464548e-09
1.0013108e-08
1.0664548e-09
-1.5652147e-10
1.0643847e-09
2.9897751e-11
1.0646265e-09
2.9371747e-12
1.0649893e-09
-1.0115494e-11
1.0649286e-09
7.2694161e-12
1.0652662e-09
-9.1484718e-12
1.0649976e-09
8.1417395e-12
1.0652722e-09
-7.8784423e-12
1.0650232e-09
7.311939e-12
1.0652609e-09
-6.9061209e-12
1.0650391e-09
6.471681e-12
1.0652486e-09
-6.0907536e-12
1.065052e-09
5.7209853e-12
1.0652374e-09
-5.3829377e-12
1.0650631e-09
5.0612484e-12
1.0652274e-09
-4.7644448e-12
1.0650728e-09
4.4834896e-12
1.0652187e-09
-4.2236008e-12
1.0650812e-09
3.9781786e-12
1.065211e-09
-3.7509246e-12
1.0650886e-09
3.536713e-12
1.0652043e-09
-3.3382603e-12
1.065095e-09
3.1515333e-12
1.0651984e-09
-2.9785346e-12
1.0651006e-09
2.8160723e-12
1.0651933e-09
-2.6656102e-12
1.0651054e-09
2.5246175e-12
1.0651889e-09
-2.3941578e-12
1.0651096e-09
2.2722276e-12
1.0651851e-09
-2.1595928e-12
1.0651132e-09
2.054658e-12
1.0651818e-09
-1.9579726e-12
1.0651163e-09
1.8682562e-12
1.065179e-09
-1.7859104e-12
1.0651189e-09
1.7099123e-12
1.0651766e-09
-1.640553e-12
1.0651211e-09
1.5770013e-12
1.0651746e-09
-1.5194833e-12
1.0651229e-09
1.4673194e-12
1.065173e-09
-1.420688e-12
1.0651244e-09
1.3790336e-12
1.0651717e-09
-1.3425031e-12
1.0651255e-09
1.3106187e-12
1.0651708e-09
-1.2834537e-12
1.0651263e-09
1.2608899e-12
1.06517e-09
-1.2415468e-12
1.065127e-09
1.223823e-12
1.0651749e-09
-1.2828663e-12
1.1490747e-12
1.1142692e-09
1.0245088e-08
1.134123e-09
-1.7637525e-10
1.1324268e-09
3.1593981e-11
1.1326961e-09
2.6678212e-12
1.1330292e-09
-1.0448559e-11
1.133032e-09
7.2666023e-12
1.1333069e-09
-9.4233631e-12
1.1330963e-09
8.3522683e-12
1.1333149e-09
-8.0970103e-12
1.1331181e-09
7.5087607e-12
1.1333067e-09
-7.0947162e-12
1.133131e-09
6.6473486e-12
1.1332971e-09
-6.2568399e-12
1.1331413e-09
5.8767956e-12
1.1332883e-09
-5.5299125e-12
1.1331501e-09
5.1994264e-12
1.1332804e-09
-4.8947922e-12
1.1331577e-09
4.6061861e-12
1.1332736e-09
-4.3394147e-12
1.1331644e-09
4.0873182e-12
1.1332675e-09
-3.8540302e-12
1.1331702e-09
3.6339955e-12
1.1332622e-09
-3.43026e-12
1.1331753e-09
3.2384566e-12
1.1332576e-09
-3.0608412e-12
1.1331797e-09
2.8939603e-12
1.1332536e-09
-2.7394723e-12
1.1331836e-09
2.5946411e-12
1.1332501e-09
-2.4606813e-12
1.1331869e-09
2.3354278e-12
1.1332471e-09
-2.219763e-12
1.1331898e-09
2.1119639e-12
1.1332445e-09
-2.0126707e-12
1.1331922e-09
1.9205014e-12
1.1332422e-09
-1.835928e-12
1.1331943e-09
1.7578481e-12
1.1332404e-09
-1.6866077e-12
1.133196e-09
1.621311e-12
1.1332388e-09
-1.5622282e-12
1.1331975e-09
1.5086275e-12
1.1332375e-09
-1.4607218e-12
1.1331986e-09
1.417913e-12
1.1332365e-09
-1.3803759e-12
1.1331995e-09
1.3475937e-12
1.1332357e-09
-1.3196578e-12
1.1332002e-09
1.2964381e-12
1.133235e-09
-1.2763967e-12
1.1332008e-09
1.2581056e-12
1.1332395e-09
-1.3216419e-12
1.1780512e-12
1.179904e-09
1.0411434e-08
1.1992589e-09
-1.9573016e-10
1.1979407e-09
3.2912186e-11
1.1982412e-09
2.367322e-12
1.1985557e-09
-1.0763063e-11
1.1986147e-09
7.207618e-12
1.1988278e-09
-9.636445e-12
1.1986735e-09
8.5065481e-12
1.1988374e-09
-8.2608781e-12
1.1986913e-09
7.6547753e-12
1.198832e-09
-7.2353433e-12
1.1987013e-09
6.7780541e-12
1.1988251e-09
-6.3806257e-12
1.198709e-09
5.992872e-12
1.1988186e-09
-5.639509e-12
1.1987155e-09
5.3024622e-12
1.1988128e-09
-4.9920631e-12
1.1987212e-09
4.6977599e-12
1.1988077e-09
-4.4259141e-12
1.1987262e-09
4.16885e-12
1.1988033e-09
-3.9311089e-12
1.1987305e-09
3.7067408e-12
1.1987994e-09
-3.4991024e-12
1.1987343e-09
3.3035205e-12
1.198796e-09
-3.1224912e-12
1.1987376e-09
2.9523205e-12
1.198793e-09
-2.7948529e-12
1.1987405e-09
2.647163e-12
1.1987904e-09
-2.5106093e-12
1.1987429e-09
2.3828792e-12
1.1987881e-09
-2.2649668e-12
1.1987451e-09
2.1550329e-12
1.1987862e-09
-2.0538033e-12
1.1987469e-09
1.9598036e-12
1.1987845e-09
-1.8735744e-12
1.1987485e-09
1.7939403e-12
1.1987831e-09
-1.7213e-12
1.1987498e-09
1.6546995e-12
1.198782e-09
-1.5944511e-12
1.1987508e-09
1.5397751e-12
1.198781e-09
-1.4909185e-12
1.1987517e-09
1.4472444e-12
1.1987803e-09
-1.4089537e-12
1.1987524e-09
1.3754945e-12
1.1987797e-09
-1.3469751e-12
1.1987529e-09
1.3232545e-12
1.1987791e-09
-1.3026449e-12
1.1987533e-09
1.2839195e-12
1.1987831e-09
-1.3514567e-12
1.1989437e-12
1.2433477e-09
1.0514337e-08
1.2618742e-09
-2.1425663e-10
1.2609404e-09
3.384595e-11
1.2612622e-09
2.0455232e-12
1.2615685e-09
-1.1069302e-11
1.2616765e-09
7.0995432e-12
1.2618288e-09
-9.7887673e-12
1.261729e-09
8.6064274e-12
1.2618395e-09
-8.3714473e-12
1.2617429e-09
7.7514516e-12
1.2618368e-09
-7.3293187e-12
1.2617498e-09
6.8650594e-12
1.2618325e-09
-6.4632799e-12
1.261755e-09
6.0703171e-12
1.2618283e-09
-5.7127558e-12
1.2617594e-09
5.3713233e-12
1.2618245e-09
-5.0571624e-12
1.2617632e-09
4.7590617e-12
1.2618212e-09
-4.4838952e-12
1.2617665e-09
4.2235227e-12
1.2618183e-09
-3.9828618e-12
1.2617694e-09
3.7556078e-12
1.2618157e-09
-3.5454059e-12
1.2617719e-09
3.3473073e-12
1.2618135e-09
-3.1640315e-12
1.2617741e-09
2.991669e-12
1.2618115e-09
-2.8322366e-12
1.261776e-09
2.6826403e-12
1.2618098e-09
-2.544373e-12
1.2617777e-09
2.4149901e-12
1.2618083e-09
-2.29559e-12
1.2617791e-09
2.1842292e-12
1.261807e-09
-2.0817157e-12
1.2617803e-09
1.9864916e-12
1.2618059e-09
-1.8991619e-12
1.2617814e-09
1.8184866e-12
1.261805e-09
-1.7449145e-12
1.2617823e-09
1.677439e-12
1.2618042e-09
-1.6164129e-12
1.261783e-09
1.5610142e-12
1.2618036e-09
-1.5115212e-12
1.2617836e-09
1.4672626e-12
1.2618031e-09
-1.4284647e-12
1.261784e-09
1.3945436e-12
1.2618027e-09
-1.3656242e-12
1.2617844e-09
1.3415542e-12
1.2618022e-09
-1.3205068e-12
1.2617847e-09
1.301477e-12
1.2618057e-09
-1.3724838e-12
1.212037e-12
1.3045389e-09
1.0556048e-08
1.3219689e-09
-2.3168657e-10
1.3214834e-09
3.4331356e-11
1.321765e-09
1.7639744e-12
1.3220668e-09
-1.1371077e-11
1.322217e-09
6.9493069e-12
1.3223099e-09
-9.881659e-12
1.3222626e-09
8.6537016e-12
1.3223215e-09
-8.4302769e-12
1.3222726e-09
7.8003164e-12
1.3223213e-09
-7.3780513e-12
1.3222767e-09
6.9096977e-12
1.3223194e-09
-6.5060451e-12
1.3222795e-09
6.1103003e-12
1.3223175e-09
-5.7507464e-12
1.3222817e-09
5.4070376e-12
1.3223156e-09
-5.091052e-12
1.3222837e-09
4.7909954e-12
1.322314e-09
-4.5142049e-12
1.3222854e-09
4.2521323e-12
1.3223126e-09
-4.0100356e-12
1.3222869e-09
3.7812996e-12
1.3223113e-09
-3.56983e-12
1.3222882e-09
3.3704379e-12
1.3223102e-09
-3.1860455e-12
1.3222893e-09
3.0125552e-12
1.3223092e-09
-2.8521414e-12
1.3222903e-09
2.7015621e-12
1.3223083e-09
-2.5624336e-12
1.3222911e-09
2.4321962e-12
1.3223076e-09
-2.3120445e-12
1.3222919e-09
2.1999446e-12
1.3223069e-09
-2.096779e-12
1.3222925e-09
2.0009178e-12
1.3223064e-09
-1.913026e-12
1.3222931e-09
1.8318074e-12
1.3223059e-09
-1.7577569e-12
1.3222935e-09
1.6898228e-12
1.3223055e-09
-1.6283953e-12
1.3222939e-09
1.572615e-12
1.3223052e-09
-1.5227908e-12
1.3222942e-09
1.478221e-12
1.3223049e-09
-1.4391552e-12
1.3222945e-09
1.4049813e-12
1.3223047e-09
-1.3758398e-12
1.3222947e-09
1.3515682e-12
1.3223044e-09
-1.3302138e-12
1.3222948e-09
1.3110067e-12
1.3223073e-09
-1.3849218e-12
1.2176269e-12
1.3633782e-09
1.053892e-08
1.3795248e-09
-2.4783316e-10
1.3796616e-09
3.4194577e-11
1.3797753e-09
1.6502472e-12
1.3800544e-09
-1.1650136e-11
1.3802376e-09
6.7660779e-12
1.3802714e-09
-9.9154116e-12
1.3802746e-09
8.6505166e-12
1.3802832e-09
-8.4389011e-12
1.3802805e-09
7.8030128e-12
1.3802855e-09
-7.3830093e-12
1.3802818e-09
6.9133767e-12
1.380286e-09
-6.5102274e-12
1.3802822e-09
6.1140533e-12
1.3802861e-09
-5.7546317e-12
1.3802824e-09
5.410687e-12
1.3802861e-09
-5.0947456e-12
1.3802826e-09
4.7945141e-12
1.3802862e-09
-4.5177365e-12
1.3802828e-09
4.255519e-12
1.3802862e-09
-4.0134185e-12
1.3802829e-09
3.7845573e-12
1.3802861e-09
-3.5730711e-12
1.380283e-09
3.3735684e-12
1.3802861e-09
-3.1891506e-12
1.3802831e-09
3.0155616e-12
1.3802861e-09
-2.8551154e-12
1.3802832e-09
2.7044461e-12
1.380286e-09
-2.5652799e-12
1.3802833e-09
2.4349604e-12
1.380286e-09
-2.3147684e-12
1.3802834e-09
2.2025936e-12
1.380286e-09
-2.0993868e-12
1.3802834e-09
2.0034571e-12
1.3802859e-09
-1.9155235e-12
1.3802835e-09
1.8342431e-12
1.3802859e-09
-1.7601528e-12
1.3802835e-09
1.6921627e-12
1.3802858e-09
-1.6306975e-12
1.3802836e-09
1.5748672e-12
1.3802858e-09
-1.5250066e-12
1.3802836e-09
1.4803899e-12
1.3802858e-09
-1.4412874e-12
1.3802837e-09
1.4070637e-12
1.3802857e-09
-1.3778734e-12
1.3802837e-09
1.3535443e-12
1.3802855e-09
-1.3320126e-12
1.3802838e-09
1.3127511e-12
1.3802879e-09
-1.3889921e-12
1.2160181e-12
1.4199306e-09
1.0465239e-08
1.4345747e-09
-2.6247725e-10
1.4354161e-09
3.3353207e-11
1.4352874e-09
1.7789609e-12
1.4355283e-09
-1.189108e-11
1.4357377e-09
6.5567186e-12
1.4357131e-09
-9.8908393e-12
1.4357647e-09
8.5989362e-12
1.4357248e-09
-8.3989807e-12
1.4357666e-09
7.7612356e-12
1.4357293e-09
-7.3457333e-12
1.4357651e-09
6.8775642e-12
1.4357321e-09
-6.4771924e-12
1.4357633e-09
6.0828625e-12
1.4357342e-09
-5.7256158e-12
1.4357615e-09
5.3834039e-12
1.4357361e-09
-5.0693037e-12
1.43576e-09
4.7706146e-12
1.4357377e-09
-4.4954251e-12
1.4357586e-09
4.2345622e-12
1.435739e-09
-3.9938364e-12
1.4357574e-09
3.7661587e-12
1.4357402e-09
-3.5558602e-12
1.4357564e-09
3.3573872e-12
1.4357413e-09
-3.1739944e-12
1.4357555e-09
3.0012988e-12
1.4357421e-09
-2.8417348e-12
1.4357547e-09
2.6918368e-12
1.4357429e-09
-2.5534258e-12
1.4357541e-09
2.423769e-12
1.4357435e-09
-2.3042219e-12
1.4357535e-09
2.1926141e-12
1.4357441e-09
-2.0899545e-12
1.435753e-09
1.9945045e-12
1.4357445e-09
-1.9070308e-12
1.4357526e-09
1.8261534e-12
1.4357449e-09
-1.752446e-12
1.4357523e-09
1.684789e-12
1.4357452e-09
-1.623637e-12
1.435752e-09
1.5680753e-12
1.4357455e-09
-1.5184633e-12
1.4357518e-09
1.4740552e-12
1.4357457e-09
-1.4351397e-12
1.4357517e-09
1.4010624e-12
1.4357458e-09
-1.3719905e-12
1.4357516e-09
1.3477434e-12
1.4357457e-09
-1.3261637e-12
1.4357515e-09
1.3069669e-12
1.4357475e-09
-1.3849378e-12
1.2075222e-12
1.4743404e-09
1.0337149e-08
1.4871615e-09
-2.7529837e-10
1.4885995e-09
3.1915143e-11
1.4882811e-09
2.0973802e-12
1.4884832e-09
-1.209314e-11
1.4887156e-09
6.3242744e-12
1.4886347e-09
-9.8099131e-12
1.4887328e-09
8.5008178e-12
1.4886462e-09
-8.3123442e-12
1.4887307e-09
7.6767121e-12
1.4886528e-09
-7.2678365e-12
1.4887266e-09
6.8037792e-12
1.4886578e-09
-6.408361e-12
1.4887226e-09
6.0180639e-12
1.4886619e-09
-5.6649502e-12
1.4887189e-09
5.3263641e-12
1.4886655e-09
-5.0158297e-12
1.4887157e-09
4.7203343e-12
1.4886686e-09
-4.4482446e-12
1.488713e-09
4.1901779e-12
1.4886713e-09
-3.9521495e-12
1.4887105e-09
3.7269132e-12
1.4886736e-09
-3.5189587e-12
1.4887084e-09
3.3226121e-12
1.4886756e-09
-3.1412532e-12
1.4887065e-09
2.9704054e-12
1.4886774e-09
-2.8126013e-12
1.4887049e-09
2.6643026e-12
1.4886789e-09
-2.5274091e-12
1.4887036e-09
2.3991315e-12
1.4886802e-09
-2.2808878e-12
1.4887024e-09
2.1704631e-12
1.4886813e-09
-2.0689167e-12
1.4887014e-09
1.9744742e-12
1.4886823e-09
-1.8879425e-12
1.4887005e-09
1.8079152e-12
1.4886831e-09
-1.7349973e-12
1.4886998e-09
1.6680474e-12
1.4886837e-09
-1.607546e-12
1.4886992e-09
1.552561e-12
1.4886842e-09
-1.5034714e-12
1.4886988e-09
1.4595177e-12
1.4886846e-09
-1.4210043e-12
1.4886984e-09
1.3872626e-12
1.4886849e-09
-1.358471e-12
1.4886982e-09
1.3344412e-12
1.488685e-09
-1.3129405e-12
1.488698e-09
1.2939229e-12
1.4886861e-09
-1.3730206e-12
1.1924554e-12
1.5266094e-09
1.0156789e-08
1.537279e-09
-2.8596793e-10
1.5391809e-09
3.0013193e-11
1.5387707e-09
2.5075484e-12
1.5389202e-09
-1.2242552e-11
1.5391724e-09
6.0720693e-12
1.5390365e-09
-9.6740325e-12
1.539179e-09
8.3582681e-12
1.5390475e-09
-8.1807983e-12
1.5391729e-09
7.5512571e-12
1.5390561e-09
-7.1509725e-12
1.5391663e-09
6.6935967e-12
1.5390631e-09
-6.3051999e-12
1.5391601e-09
5.9210394e-12
1.5390691e-09
-5.5739294e-12
1.5391547e-09
5.240785e-12
1.5390743e-09
-4.9354655e-12
1.5391499e-09
4.6447466e-12
1.5390789e-09
-4.377203e-12
1.5391457e-09
4.1233144e-12
1.5390828e-09
-3.8892498e-12
1.5391421e-09
3.6676609e-12
1.5390863e-09
-3.463157e-12
1.5391389e-09
3.2699877e-12
1.5390893e-09
-3.0916284e-12
1.5391361e-09
2.9235428e-12
1.5390919e-09
-2.7683399e-12
1.5391337e-09
2.6224346e-12
1.5390941e-09
-2.4877883e-12
1.5391317e-09
2.3615766e-12
1.5390961e-09
-2.2452672e-12
1.5391299e-09
2.1366178e-12
1.5390977e-09
-2.0367267e-12
1.5391284e-09
1.9437973e-12
1.5390991e-09
-1.85867e-12
1.5391271e-09
1.7799219e-12
1.5391003e-09
-1.7081833e-12
1.539126e-09
1.6422996e-12
1.5391013e-09