/*--------------------------------*- C++ -*----------------------------------*\
| =========                 |                                                 |
| \\      /  F ield         | OpenFOAM: The Open Source CFD Toolbox           |
|  \\    /   O peration     | Version:  2312                                  |
|   \\  /    A nd           | Website:  www.openfoam.com                      |
|    \\/     M anipulation  |                                                 |
\*---------------------------------------------------------------------------*/
FoamFile
{
    version     2.0;
    format      ascii;
    arch        "LSB;label=32;scalar=64";
    class       volSymmTensorField;
    location    "2";
    object      sigma_0;
}
// * * * * * * * * * * * * * * * * * * * * * * * * * * * * * * * * * * * * * //

dimensions      [0 2 -2 0 0 0 0];

internalField   nonuniform List<symmTensor> 
4000
(
(-0.39057342 -0.20765475 0 -0.070834079 0 0)
(-0.66838652 -0.14918683 0 -2.9945884e-05 0 0)
(-0.59343494 -0.14062446 0 3.5765282e-06 0 0)
(-0.63306763 -0.14533305 0 -2.9582258e-05 0 0)
(-0.60085055 -0.14144836 0 3.2189592e-05 0 0)
(-0.63118351 -0.14511848 0 -2.950302e-05 0 0)
(-0.60347443 -0.14176566 0 2.8322403e-05 0 0)
(-0.62956931 -0.14492529 0 -2.6442812e-05 0 0)
(-0.60516447 -0.14197187 0 2.4903606e-05 0 0)
(-0.62807287 -0.14474575 0 -2.3363826e-05 0 0)
(-0.60658299 -0.14214504 0 2.1949228e-05 0 0)
(-0.62673633 -0.14458527 0 -2.0621154e-05 0 0)
(-0.6078244 -0.14229644 0 1.9373109e-05 0 0)
(-0.62555618 -0.14444347 0 -1.8213227e-05 0 0)
(-0.60891818 -0.14242969 0 1.7119411e-05 0 0)
(-0.62451579 -0.14431838 0 -1.6104296e-05 0 0)
(-0.6098837 -0.14254718 0 1.5147206e-05 0 0)
(-0.62359806 -0.14420799 0 -1.4258939e-05 0 0)
(-0.61073704 -0.14265092 0 1.3422217e-05 0 0)
(-0.62278754 -0.14411046 0 -1.2645548e-05 0 0)
(-0.61149222 -0.14274263 0 1.1914743e-05 0 0)
(-0.62207059 -0.14402417 0 -1.1236415e-05 0 0)
(-0.61216159 -0.14282384 0 1.0598906e-05 0 0)
(-0.62143519 -0.14394769 0 -1.0007363e-05 0 0)
(-0.61275606 -0.14289589 0 9.4521662e-06 0 0)
(-0.62087078 -0.14387977 0 -8.9373482e-06 0 0)
(-0.6132853 -0.14295996 0 8.4549314e-06 0 0)
(-0.62036802 -0.14381928 0 -8.0081033e-06 0 0)
(-0.61375785 -0.1430171 0 7.5902155e-06 0 0)
(-0.61991868 -0.14376525 0 -7.2038181e-06 0 0)
(-0.61418133 -0.14306824 0 6.8433476e-06 0 0)
(-0.61951544 -0.14371679 0 -6.5108674e-06 0 0)
(-0.61456247 -0.1431142 0 6.2017111e-06 0 0)
(-0.61915181 -0.14367314 0 -5.9175678e-06 0 0)
(-0.61490734 -0.14315571 0 5.6545195e-06 0 0)
(-0.61882199 -0.1436336 0 -5.4139714e-06 0 0)
(-0.61522134 -0.14319344 0 5.1926334e-06 0 0)
(-0.61852078 -0.14359754 0 -4.9916954e-06 0 0)
(-0.61550936 -0.14322797 0 4.8083984e-06 0 0)
(-0.61824345 -0.1435644 0 -4.6437792e-06 0 0)
(-0.61577586 -0.14325984 0 4.4955287e-06 0 0)
(-0.61798572 -0.14353367 0 -4.3645888e-06 0 0)
(-0.6160249 -0.14328954 0 4.2490445e-06 0 0)
(-0.61774363 -0.14350488 0 -4.1498091e-06 0 0)
(-0.61626029 -0.14331753 0 4.0653218e-06 0 0)
(-0.61751347 -0.14347759 0 -3.9967024e-06 0 0)
(-0.61648552 -0.14334421 0 3.9429711e-06 0 0)
(-0.61729191 -0.14345139 0 -3.9010101e-06 0 0)
(-0.61670931 -0.14337053 0 3.9177029e-06 0 0)
(-0.61711855 -0.14343093 0 -3.8616155e-06 0 0)
(-0.35554972 -0.19382955 0 -0.066203773 0 0)
(-0.60614756 -0.14216039 0 -0.00023889324 0 0)
(-0.55218801 -0.13568525 0 -3.3830826e-05 0 0)
(-0.58586978 -0.13984315 0 -2.8737753e-05 0 0)
(-0.55745983 -0.13620029 0 3.6639475e-05 0 0)
(-0.58425188 -0.13965615 0 -3.1975119e-05 0 0)
(-0.55977774 -0.13649804 0 3.1973894e-05 0 0)
(-0.58285069 -0.13947849 0 -2.9526401e-05 0 0)
(-0.56127214 -0.13669247 0 2.7975703e-05 0 0)
(-0.58153117 -0.13930974 0 -2.6186551e-05 0 0)
(-0.56252428 -0.13685565 0 2.462833e-05 0 0)
(-0.58035021 -0.13915856 0 -2.3127851e-05 0 0)
(-0.56361978 -0.13699827 0 2.1734534e-05 0 0)
(-0.579307 -0.13902492 0 -2.0431527e-05 0 0)
(-0.56458516 -0.13712381 0 1.9207311e-05 0 0)
(-0.57838714 -0.138907 0 -1.8068264e-05 0 0)
(-0.56543758 -0.13723453 0 1.6996491e-05 0 0)
(-0.57757554 -0.1388029 0 -1.6000059e-05 0 0)
(-0.5661912 -0.13733231 0 1.5062923e-05 0 0)
(-0.57685856 -0.13871092 0 -1.4191765e-05 0 0)
(-0.56685838 -0.13741878 0 1.3373188e-05 0 0)
(-0.57622415 -0.1386295 0 -1.2612377e-05 0 0)
(-0.56744999 -0.13749538 0 1.1898251e-05 0 0)
(-0.57566172 -0.13855733 0 -1.1234804e-05 0 0)
(-0.56797564 -0.13756336 0 1.0612849e-05 0 0)
(-0.57516192 -0.1384932 0 -1.0035478e-05 0 0)
(-0.56844384 -0.13762384 0 9.4950321e-06 0 0)
(-0.57471653 -0.13843607 0 -8.9939346e-06 0 0)
(-0.56886211 -0.1376778 0 8.5257722e-06 0 0)
(-0.57431825 -0.13838501 0 -8.0924737e-06 0 0)
(-0.56923717 -0.13772611 0 7.6886497e-06 0 0)
(-0.57396065 -0.13833921 0 -7.3158564e-06 0 0)
(-0.56957495 -0.13776955 0 6.9695569e-06 0 0)
(-0.57363799 -0.13829792 0 -6.6510223e-06 0 0)
(-0.5698808 -0.13780882 0 6.3564389e-06 0 0)
(-0.57334514 -0.13826049 0 -6.0868723e-06 0 0)
(-0.57015948 -0.13784452 0 5.8391178e-06 0 0)
(-0.57307749 -0.13822635 0 -5.6140865e-06 0 0)
(-0.57041532 -0.13787722 0 5.409101e-06 0 0)
(-0.57283088 -0.13819495 0 -5.2249775e-06 0 0)
(-0.57065224 -0.13790742 0 5.0594928e-06 0 0)
(-0.57260151 -0.13816581 0 -4.9134357e-06 0 0)
(-0.57087386 -0.13793559 0 4.7850012e-06 0 0)
(-0.57238587 -0.1381385 0 -4.6750454e-06 0 0)
(-0.57108355 -0.13796214 0 4.5821712e-06 0 0)
(-0.57218065 -0.13811259 0 -4.5079094e-06 0 0)
(-0.57128442 -0.13798748 0 4.4513832e-06 0 0)
(-0.57198256 -0.13808766 0 -4.4059161e-06 0 0)
(-0.57148238 -0.1380121 0 4.4930137e-06 0 0)
(-0.57181772 -0.13806694 0 -4.3102521e-06 0 0)
(-0.33383212 -0.18401387 0 -0.061744165 0 0)
(-0.56632394 -0.13704248 0 -0.00012722198 0 0)
(-0.52448223 -0.1322568 0 -5.4646139e-05 0 0)
(-0.55532327 -0.13618199 0 -2.7209291e-05 0 0)
(-0.52933407 -0.13268797 0 3.6957488e-05 0 0)
(-0.55387338 -0.13600394 0 -3.0908226e-05 0 0)
(-0.53146125 -0.13297325 0 3.1994762e-05 0 0)
(-0.55260002 -0.13583559 0 -2.9254851e-05 0 0)
(-0.53283093 -0.13315999 0 2.7853611e-05 0 0)
(-0.55139348 -0.13567393 0 -2.6024075e-05 0 0)
(-0.53397711 -0.13331663 0 2.4495327e-05 0 0)
(-0.55031246 -0.13552892 0 -2.2996493e-05 0 0)
(-0.53497977 -0.13345352 0 2.1614137e-05 0 0)
(-0.54935735 -0.13540069 0 -2.0318555e-05 0 0)
(-0.53586349 -0.13357403 0 1.9101587e-05 0 0)
(-0.54851508 -0.13528753 0 -1.7969961e-05 0 0)
(-0.53664396 -0.13368033 0 1.6904197e-05 0 0)
(-0.54777185 -0.13518762 0 -1.5914351e-05 0 0)
(-0.53733414 -0.13377422 0 1.4982452e-05 0 0)
(-0.54711517 -0.13509932 0 -1.4117016e-05 0 0)
(-0.53794531 -0.13385728 0 1.3303037e-05 0 0)
(-0.54653403 -0.13502115 0 -1.2547175e-05 0 0)
(-0.5384874 -0.13393086 0 1.1837076e-05 0 0)
(-0.54601871 -0.13495183 0 -1.11779e-05 0 0)
(-0.53896919 -0.13399619 0 1.0559462e-05 0 0)
(-0.54556067 -0.13489022 0 -9.9857729e-06 0 0)
(-0.53939845 -0.13405432 0 9.4483882e-06 0 0)
(-0.54515239 -0.13483532 0 -8.9504614e-06 0 0)
(-0.53978207 -0.13410621 0 8.4849536e-06 0 0)
(-0.54478719 -0.13478623 0 -8.0543849e-06 0 0)
(-0.54012617 -0.13415269 0 7.6528609e-06 0 0)
(-0.54445918 -0.13474218 0 -7.2824191e-06 0 0)
(-0.54043618 -0.13419449 0 6.9381145e-06 0 0)
(-0.54416311 -0.13470246 0 -6.6216133e-06 0 0)
(-0.54071698 -0.13423229 0 6.3287681e-06 0 0)
(-0.54389429 -0.13466644 0 -6.0609782e-06 0 0)
(-0.54097295 -0.13426668 0 5.8147624e-06 0 0)
(-0.5436485 -0.13463355 0 -5.5913195e-06 0 0)
(-0.54120803 -0.13429819 0 5.3877445e-06 0 0)
(-0.54342193 -0.1346033 0 -5.2051127e-06 0 0)
(-0.54142583 -0.1343273 0 5.0410126e-06 0 0)
(-0.5432111 -0.13457521 0 -4.8964906e-06 0 0)
(-0.54162965 -0.13435447 0 4.769606e-06 0 0)
(-0.54301279 -0.13454886 0 -4.6615127e-06 0 0)
(-0.54182259 -0.1343801 0 4.570762e-06 0 0)
(-0.54282394 -0.13452386 0 -4.4995453e-06 0 0)
(-0.54200754 -0.13440456 0 4.4467798e-06 0 0)
(-0.54264141 -0.13449977 0 -4.4063157e-06 0 0)
(-0.54218947 -0.13442819 0 4.5412473e-06 0 0)
(-0.5424846 -0.13447937 0 -4.4321564e-06 0 0)
(-0.31912176 -0.1754617 0 -0.056859578 0 0)
(-0.53011036 -0.1323631 0 -6.7291132e-05 0 0)
(-0.4972574 -0.12880797 0 -7.9456013e-05 0 0)
(-0.52565615 -0.1325224 0 -2.2657531e-05 0 0)
(-0.50184553 -0.12917546 0 3.3751814e-05 0 0)
(-0.52439612 -0.13235277 0 -2.657386e-05 0 0)
(-0.5038064 -0.12944835 0 2.9043661e-05 0 0)
(-0.5232358 -0.13219368 0 -2.6156864e-05 0 0)
(-0.50506492 -0.12962747 0 2.5092816e-05 0 0)
(-0.52212847 -0.13203899 0 -2.3376363e-05 0 0)
(-0.50611688 -0.1297776 0 2.20325e-05 0 0)
(-0.52113518 -0.13190004 0 -2.0673691e-05 0 0)
(-0.50703697 -0.12990878 0 1.9436886e-05 0 0)
(-0.52025742 -0.13177713 0 -1.8270661e-05 0 0)
(-0.50784803 -0.13002427 0 1.7178382e-05 0 0)
(-0.51948328 -0.13166865 0 -1.6161157e-05 0 0)
(-0.50856448 -0.13012616 0 1.520399e-05 0 0)
(-0.5188001 -0.13157285 0 -1.4314449e-05 0 0)
(-0.50919819 -0.13021618 0 1.3477381e-05 0 0)
(-0.51819642 -0.13148816 0 -1.2699673e-05 0 0)
(-0.50975948 -0.13029582 0 1.1968475e-05 0 0)
(-0.51766211 -0.13141317 0 -1.1289222e-05 0 0)
(-0.51025746 -0.13036641 0 1.06513e-05 0 0)
(-0.51718823 -0.13134666 0 -1.0058913e-05 0 0)
(-0.51070015 -0.13042909 0 9.5032991e-06 0 0)
(-0.51676696 -0.13128752 0 -8.9877167e-06 0 0)
(-0.51109469 -0.13048488 0 8.5048904e-06 0 0)
(-0.51639138 -0.13123481 0 -8.0573758e-06 0 0)
(-0.51144737 -0.1305347 0 7.6391006e-06 0 0)
(-0.51605536 -0.13118766 0 -7.2521096e-06 0 0)
(-0.5117638 -0.13057934 0 6.8913108e-06 0 0)
(-0.51575349 -0.13114533 0 -6.5583605e-06 0 0)
(-0.51204897 -0.13061951 0 6.2489779e-06 0 0)
(-0.51548096 -0.13110715 0 -5.9645212e-06 0 0)
(-0.51230735 -0.13065585 0 5.7013983e-06 0 0)
(-0.51523345 -0.1310725 0 -5.4607645e-06 0 0)
(-0.51254295 -0.13068893 0 5.2395967e-06 0 0)
(-0.5150071 -0.13104086 0 -5.0388973e-06 0 0)
(-0.51275938 -0.13071925 0 4.8561451e-06 0 0)
(-0.5147984 -0.13101173 0 -4.6922611e-06 0 0)
(-0.51295995 -0.13074729 0 4.5451587e-06 0 0)
(-0.51460416 -0.13098467 0 -4.4157732e-06 0 0)
(-0.5131477 -0.13077347 0 4.3024485e-06 0 0)
(-0.51442141 -0.13095927 0 -4.2062802e-06 0 0)
(-0.51332549 -0.13079818 0 4.1260915e-06 0 0)
(-0.51424733 -0.13093515 0 -4.0643291e-06 0 0)
(-0.51349598 -0.13082179 0 4.0197901e-06 0 0)
(-0.51407893 -0.13091188 0 -3.9857427e-06 0 0)
(-0.51366326 -0.13084445 0 4.1694343e-06 0 0)
(-0.51392936 -0.13089174 0 -4.1065787e-06 0 0)
(-0.30563745 -0.16726619 0 -0.052171565 0 0)
(-0.49511841 -0.12772485 0 6.0554482e-06 0 0)
(-0.47044482 -0.1253102 0 -9.6199476e-05 0 0)
(-0.49680035 -0.12886511 0 -1.8997539e-05 0 0)
(-0.47500785 -0.12565871 0 2.9992724e-05 0 0)
(-0.49577948 -0.12870501 0 -2.2113422e-05 0 0)
(-0.47683422 -0.12592032 0 2.5855461e-05 0 0)
(-0.49472266 -0.1285545 0 -2.2856015e-05 0 0)
(-0.47799283 -0.12609219 0 2.2126942e-05 0 0)
(-0.49370481 -0.12840642 0 -2.0539924e-05 0 0)
(-0.47895999 -0.12623613 0 1.9390569e-05 0 0)
(-0.49279074 -0.12827323 0 -1.8182853e-05 0 0)
(-0.47980579 -0.12636189 0 1.7101599e-05 0 0)
(-0.49198282 -0.12815539 0 -1.6073837e-05 0 0)
(-0.48055146 -0.12647262 0 1.5115206e-05 0 0)
(-0.49127023 -0.12805136 0 -1.4220291e-05 0 0)
(-0.48121029 -0.12657033 0 1.337956e-05 0 0)
(-0.49064132 -0.12795948 0 -1.2597263e-05 0 0)
(-0.48179315 -0.12665668 0 1.1861847e-05 0 0)
(-0.49008553 -0.12787823 0 -1.117796e-05 0 0)
(-0.48230953 -0.12673309 0 1.0535478e-05 0 0)
(-0.48959354 -0.12780628 0 -9.9381779e-06 0 0)
(-0.48276776 -0.12680082 0 9.3775892e-06 0 0)
(-0.48915715 -0.12774244 0 -8.8566655e-06 0 0)
(-0.48317522 -0.12686099 0 8.368352e-06 0 0)
(-0.48876914 -0.12768566 0 -7.9149535e-06 0 0)
(-0.48353844 -0.12691456 0 7.4905616e-06 0 0)
(-0.48842315 -0.12763504 0 -7.0970022e-06 0 0)
(-0.48386321 -0.12696241 0 6.7293059e-06 0 0)
(-0.48811355 -0.12758975 0 -6.3889574e-06 0 0)
(-0.48415466 -0.1270053 0 6.0717565e-06 0 0)
(-0.48783538 -0.12754906 0 -5.7789257e-06 0 0)
(-0.48441738 -0.12704392 0 5.5069121e-06 0 0)
(-0.48758419 -0.12751235 0 -5.2567323e-06 0 0)
(-0.48465548 -0.12707886 0 5.0253909e-06 0 0)
(-0.48735603 -0.12747903 0 -4.8137746e-06 0 0)
(-0.48487261 -0.12711069 0 4.6193509e-06 0 0)
(-0.48714734 -0.12744858 0 -4.4429049e-06 0 0)
(-0.48507213 -0.12713987 0 4.282326e-06 0 0)
(-0.4869549 -0.12742053 0 -4.1383537e-06 0 0)
(-0.48525705 -0.12716687 0 4.0092469e-06 0 0)
(-0.48677577 -0.12739447 0 -3.8957887e-06 0 0)
(-0.48543018 -0.1271921 0 3.796627e-06 0 0)
(-0.48660722 -0.12736999 0 -3.712727e-06 0 0)
(-0.48559413 -0.12721592 0 3.6431794e-06 0 0)
(-0.48644667 -0.12734673 0 -3.5904988e-06 0 0)
(-0.48575138 -0.12723869 0 3.5532114e-06 0 0)
(-0.48629126 -0.12732427 0 -3.5243257e-06 0 0)
(-0.48590534 -0.12726045 0 3.7428873e-06 0 0)
(-0.48614928 -0.12730446 0 -3.7274256e-06 0 0)
(-0.29255511 -0.15930816 0 -0.047710335 0 0)
(-0.46181443 -0.12317781 0 9.3407054e-05 0 0)
(-0.44419349 -0.12177839 0 -0.00010419103 0 0)
(-0.46875785 -0.12520815 0 -1.6205881e-05 0 0)
(-0.44884807 -0.12213879 0 2.6401833e-05 0 0)
(-0.46799925 -0.12505963 0 -1.8216355e-05 0 0)
(-0.45056738 -0.12239017 0 2.3079504e-05 0 0)
(-0.46704103 -0.12491735 0 -1.9965019e-05 0 0)
(-0.45163518 -0.12255507 0 1.9532122e-05 0 0)
(-0.46610553 -0.1247756 0 -1.8055792e-05 0 0)
(-0.45252459 -0.12269306 0 1.7077757e-05 0 0)
(-0.46526421 -0.12464795 0 -1.6001529e-05 0 0)
(-0.45330223 -0.1228136 0 1.5056952e-05 0 0)
(-0.46452046 -0.12453499 0 -1.4149919e-05 0 0)
(-0.45398791 -0.12291974 0 1.3308624e-05 0 0)
(-0.4638644 -0.12443525 0 -1.2520415e-05 0 0)
(-0.45459385 -0.12301343 0 1.1781864e-05 0 0)
(-0.46328533 -0.12434714 0 -1.1093159e-05 0 0)
(-0.45513005 -0.12309623 0 1.0446927e-05 0 0)
(-0.46277354 -0.12426921 0 -9.844934e-06 0 0)
(-0.45560519 -0.12316952 0 9.2802667e-06 0 0)
(-0.46232043 -0.12420017 0 -8.7545138e-06 0 0)
(-0.45602693 -0.12323451 0 8.2617426e-06 0 0)
(-0.46191848 -0.12413891 0 -7.8032173e-06 0 0)
(-0.45640203 -0.12329225 0 7.3739121e-06 0 0)
(-0.46156103 -0.12408441 0 -6.9748147e-06 0 0)
(-0.45673648 -0.12334368 0 6.6016496e-06 0 0)
(-0.46124223 -0.1240358 0 -6.2552085e-06 0 0)
(-0.45703559 -0.12338963 0 5.9318435e-06 0 0)
(-0.46095693 -0.1239923 0 -5.6322253e-06 0 0)
(-0.45730409 -0.12343083 0 5.3532295e-06 0 0)
(-0.46070053 -0.12395321 0 -5.0954306e-06 0 0)
(-0.45754617 -0.12346794 0 4.856154e-06 0 0)
(-0.46046898 -0.12391792 0 -4.6358944e-06 0 0)
(-0.4577656 -0.12350154 0 4.4323822e-06 0 0)
(-0.46025861 -0.12388588 0 -4.2460821e-06 0 0)
(-0.45796576 -0.12353214 0 4.0750598e-06 0 0)
(-0.46006618 -0.12385658 0 -3.9197498e-06 0 0)
(-0.4581497 -0.12356023 0 3.7785428e-06 0 0)
(-0.4598887 -0.12382959 0 -3.6518815e-06 0 0)
(-0.45832022 -0.12358622 0 3.5384485e-06 0 0)
(-0.45972349 -0.1238045 0 -3.4387705e-06 0 0)
(-0.45847987 -0.12361051 0 3.3518551e-06 0 0)
(-0.45956804 -0.12378092 0 -3.2784336e-06 0 0)
(-0.45863108 -0.12363346 0 3.2178961e-06 0 0)
(-0.45941995 -0.1237585 0 -3.1726637e-06 0 0)
(-0.45877611 -0.12365542 0 3.1409659e-06 0 0)
(-0.45927656 -0.12373683 0 -3.1156014e-06 0 0)
(-0.45891781 -0.12367632 0 3.3582154e-06 0 0)
(-0.45914219 -0.12371739 0 -3.3811439e-06 0 0)
(-0.27999798 -0.15163024 0 -0.043454804 0 0)
(-0.43018509 -0.11871821 0 0.00019607573 0 0)
(-0.4185313 -0.11821751 0 -0.00010406778 0 0)
(-0.44155114 -0.1215503 0 -1.33891e-05 0 0)
(-0.42338096 -0.11861612 0 2.2990018e-05 0 0)
(-0.44104468 -0.12141586 0 -1.4795803e-05 0 0)
(-0.4250151 -0.11885841 0 2.0637592e-05 0 0)
(-0.44018156 -0.12128166 0 -1.7415151e-05 0 0)
(-0.42600032 -0.11901659 0 1.724242e-05 0 0)
(-0.43932249 -0.12114605 0 -1.5863213e-05 0 0)
(-0.42681805 -0.1191488 0 1.5036339e-05 0 0)
(-0.43854848 -0.12102378 0 -1.4076124e-05 0 0)
(-0.42753279 -0.11926427 0 1.3252098e-05 0 0)
(-0.43786405 -0.12091556 0 -1.2451613e-05 0 0)
(-0.42816308 -0.11936596 0 1.1713796e-05 0 0)
(-0.43726027 -0.12081998 0 -1.1019759e-05 0 0)
(-0.4287202 -0.11945573 0 1.0371322e-05 0 0)
(-0.43672729 -0.12073553 0 -9.7652105e-06 0 0)
(-0.4292133 -0.11953509 0 9.1976307e-06 0 0)
(-0.43625618 -0.12066082 0 -8.6679057e-06 0 0)
(-0.42965036 -0.11960536 0 8.1718666e-06 0 0)
(-0.43583903 -0.12059463 0 -7.7092476e-06 0 0)
(-0.43003837 -0.11966767 0 7.2762894e-06 0 0)
(-0.43546892 -0.12053587 0 -6.872822e-06 0 0)
(-0.43038357 -0.11972305 0 6.4955617e-06 0 0)
(-0.43513974 -0.12048359 0 -6.1443757e-06 0 0)
(-0.43069143 -0.1197724 0 5.8163915e-06 0 0)
(-0.43484611 -0.12043694 0 -5.5115208e-06 0 0)
(-0.43096683 -0.1198165 0 5.2272553e-06 0 0)
(-0.43458327 -0.12039518 0 -4.9635696e-06 0 0)
(-0.4312141 -0.11985606 0 4.7182678e-06 0 0)
(-0.43434703 -0.12035764 0 -4.4913685e-06 0 0)
(-0.43143709 -0.1198917 0 4.2809598e-06 0 0)
(-0.43413363 -0.12032374 0 -4.087086e-06 0 0)
(-0.43163927 -0.11992398 0 3.9081072e-06 0 0)
(-0.43393974 -0.12029294 0 -3.7441224e-06 0 0)
(-0.43182372 -0.1199534 0 3.5937174e-06 0 0)
(-0.43376234 -0.12026478 0 -3.4570232e-06 0 0)
(-0.43199326 -0.1199804 0 3.3328657e-06 0 0)
(-0.43359872 -0.12023882 0 -3.2214283e-06 0 0)
(-0.43215044 -0.12000541 0 3.1217567e-06 0 0)
(-0.43344639 -0.12021467 0 -3.0341514e-06 0 0)
(-0.43229763 -0.12002879 0 2.9579268e-06 0 0)
(-0.43330305 -0.12019197 0 -2.8936e-06 0 0)
(-0.43243703 -0.12005089 0 2.8408028e-06 0 0)
(-0.4331665 -0.12017038 0 -2.8018279e-06 0 0)
(-0.43257076 -0.12007204 0 2.7745635e-06 0 0)
(-0.43303426 -0.12014949 0 -2.7517587e-06 0 0)
(-0.43270113 -0.12009213 0 3.0095713e-06 0 0)
(-0.43290747 -0.12013044 0 -3.0654533e-06 0 0)
(-0.26806097 -0.14424546 0 -0.03938262 0 0)
(-0.4002191 -0.11434942 0 0.00031107218 0 0)
(-0.39345557 -0.114631 0 -9.7414341e-05 0 0)
(-0.41522123 -0.11789323 0 -9.807566e-06 0 0)
(-0.39862179 -0.11509097 0 1.9826018e-05 0 0)
(-0.41491215 -0.11777354 0 -1.1691676e-05 0 0)
(-0.4001829 -0.1153252 0 1.8401844e-05 0 0)
(-0.41413934 -0.11764727 0 -1.5085049e-05 0 0)
(-0.40109287 -0.1154769 0 1.5143791e-05 0 0)
(-0.41335141 -0.11751764 0 -1.3855511e-05 0 0)
(-0.40184446 -0.11560348 0 1.316599e-05 0 0)
(-0.41263978 -0.1174006 0 -1.2312503e-05 0 0)
(-0.40250104 -0.11571401 0 1.1598524e-05 0 0)
(-0.41201031 -0.11729698 0 -1.08958e-05 0 0)
(-0.40308012 -0.11581138 0 1.0252537e-05 0 0)
(-0.41145495 -0.11720546 0 -9.6448561e-06 0 0)
(-0.40359207 -0.11589734 0 9.0787846e-06 0 0)
(-0.41096466 -0.11712457 0 -8.5483922e-06 0 0)
(-0.4040453 -0.11597335 0 8.0527168e-06 0 0)
(-0.41053123 -0.11705301 0 -7.5892335e-06 0 0)
(-0.4044471 -0.11604066 0 7.1559442e-06 0 0)
(-0.41014741 -0.11698958 0 -6.7511864e-06 0 0)
(-0.40480391 -0.11610037 0 6.3729245e-06 0 0)
(-0.4098068 -0.11693326 0 -6.0199118e-06 0 0)
(-0.40512142 -0.11615346 0 5.6902496e-06 0 0)
(-0.40950381 -0.11688314 0 -5.3829645e-06 0 0)
(-0.40540466 -0.11620077 0 5.0963057e-06 0 0)
(-0.40923349 -0.1168384 0 -4.8295229e-06 0 0)
(-0.4056581 -0.11624307 0 4.5810217e-06 0 0)
(-0.40899149 -0.11679834 0 -4.3502541e-06 0 0)
(-0.4058857 -0.11628102 0 4.1357731e-06 0 0)
(-0.40877392 -0.11676231 0 -3.9371789e-06 0 0)
(-0.40609101 -0.11631523 0 3.7531744e-06 0 0)
(-0.40857737 -0.11672977 0 -3.5834647e-06 0 0)
(-0.40627719 -0.11634622 0 3.4269206e-06 0 0)
(-0.40839874 -0.11670019 0 -3.283366e-06 0 0)
(-0.40644708 -0.11637448 0 3.1518071e-06 0 0)
(-0.4082353 -0.11667313 0 -3.0321441e-06 0 0)
(-0.40660326 -0.11640043 0 2.923555e-06 0 0)
(-0.40808452 -0.11664818 0 -2.8260243e-06 0 0)
(-0.40674809 -0.11642447 0 2.7388924e-06 0 0)
(-0.40794414 -0.11662496 0 -2.6622827e-06 0 0)
(-0.40688371 -0.11644695 0 2.5957506e-06 0 0)
(-0.40781203 -0.11660312 0 -2.5396371e-06 0 0)
(-0.40701218 -0.11646822 0 2.4937553e-06 0 0)
(-0.40768619 -0.11658234 0 -2.4602622e-06 0 0)
(-0.40713541 -0.11648859 0 2.4366875e-06 0 0)
(-0.4075643 -0.11656223 0 -2.4158286e-06 0 0)
(-0.40725532 -0.11650789 0 2.6816123e-06 0 0)
(-0.40744499 -0.1165436 0 -2.7670819e-06 0 0)
(-0.256724 -0.13714224 0 -0.035485771 0 0)
(-0.3718863 -0.11007115 0 0.0004359417 0 0)
(-0.36897856 -0.11102155 0 -8.5459551e-05 0 0)
(-0.3897804 -0.11423812 0 -5.2256397e-06 0 0)
(-0.3745844 -0.11156362 0 1.7108949e-05 0 0)
(-0.38959938 -0.1141327 0 -8.8235099e-06 0 0)
(-0.37607574 -0.11179055 0 1.6327184e-05 0 0)
(-0.38891047 -0.11401416 0 -1.2927588e-05 0 0)
(-0.37691669 -0.111936 0 1.3192375e-05 0 0)
(-0.38818876 -0.11389034 0 -1.1991799e-05 0 0)
(-0.37760717 -0.11205711 0 1.142823e-05 0 0)
(-0.38753501 -0.1137784 0 -1.0674526e-05 0 0)
(-0.37820993 -0.11216285 0 1.0062306e-05 0 0)
(-0.3869565 -0.11367926 0 -9.4505592e-06 0 0)
(-0.37874159 -0.11225599 0 8.8948791e-06 0 0)
(-0.38644605 -0.11359168 0 -8.367488e-06 0 0)
(-0.37921172 -0.11233825 0 7.8777444e-06 0 0)
(-0.38599536 -0.11351426 0 -7.4177325e-06 0 0)
(-0.37962801 -0.112411 0 6.9887031e-06 0 0)
(-0.38559689 -0.11344575 0 -6.5867807e-06 0 0)
(-0.37999716 -0.11247544 0 6.211662e-06 0 0)
(-0.38524396 -0.11338502 0 -5.8606702e-06 0 0)
(-0.38032505 -0.11253262 0 5.5331209e-06 0 0)
(-0.38493073 -0.11333108 0 -5.2269869e-06 0 0)
(-0.38061689 -0.11258346 0 4.941462e-06 0 0)
(-0.38465204 -0.11328306 0 -4.6749634e-06 0 0)
(-0.3808773 -0.1126288 0 4.4266287e-06 0 0)
(-0.38440336 -0.11324018 0 -4.1952286e-06 0 0)
(-0.38111037 -0.11266934 0 3.9798977e-06 0 0)
(-0.38418068 -0.11320178 0 -3.7797089e-06 0 0)
(-0.38131973 -0.11270573 0 3.5938139e-06 0 0)
(-0.38398046 -0.11316723 0 -3.4215091e-06 0 0)
(-0.38150863 -0.11273854 0 3.2619934e-06 0 0)
(-0.38379954 -0.11313601 0 -3.114724e-06 0 0)
(-0.38167996 -0.11276827 0 2.978984e-06 0 0)
(-0.38363509 -0.11310762 0 -2.8543949e-06 0 0)
(-0.38183634 -0.1127954 0 2.7403035e-06 0 0)
(-0.3834846 -0.11308165 0 -2.6364408e-06 0 0)
(-0.38198012 -0.11282031 0 2.5422692e-06 0 0)
(-0.38334576 -0.11305768 0 -2.4576245e-06 0 0)
(-0.38211346 -0.11284341 0 2.3820811e-06 0 0)
(-0.38321648 -0.11303537 0 -2.3156275e-06 0 0)
(-0.38223835 -0.11286501 0 2.2580085e-06 0 0)
(-0.38309481 -0.11301438 0 -2.2094223e-06 0 0)
(-0.38235664 -0.11288546 0 2.1698121e-06 0 0)
(-0.38297892 -0.11299439 0 -2.1411908e-06 0 0)
(-0.38247013 -0.11290505 0 2.1207389e-06 0 0)
(-0.38286666 -0.11297504 0 -2.1013341e-06 0 0)
(-0.38258034 -0.1129236 0 2.3688405e-06 0 0)
(-0.38275468 -0.11295685 0 -2.4817668e-06 0 0)
(-0.2459254 -0.13030396 0 -0.031761872 0 0)
(-0.3451526 -0.10588203 0 0.00056911953 0 0)
(-0.34517022 -0.10739526 0 -6.8899588e-05 0 0)
(-0.36519184 -0.11058289 0 1.29701e-07 0 0)
(-0.35127663 -0.10803435 0 1.5014365e-05 0 0)
(-0.36510248 -0.11049332 0 -6.1532424e-06 0 0)
(-0.35269795 -0.10825451 0 1.4403717e-05 0 0)
(-0.3644913 -0.11038231 0 -1.092782e-05 0 0)
(-0.35347534 -0.10839393 0 1.1375088e-05 0 0)
(-0.36383127 -0.11026414 0 -1.0259957e-05 0 0)
(-0.3541093 -0.10850971 0 9.8115964e-06 0 0)
(-0.3632313 -0.11015715 0 -9.1514514e-06 0 0)
(-0.35466219 -0.10861078 0 8.633375e-06 0 0)
(-0.36270013 -0.11006237 0 -8.1063984e-06 0 0)
(-0.35514989 -0.10869983 0 7.6319408e-06 0 0)
(-0.36223138 -0.10997862 0 -7.1792742e-06 0 0)
(-0.35558123 -0.10877848 0 6.7603526e-06 0 0)
(-0.36181746 -0.10990458 0 -6.3658221e-06 0 0)
(-0.35596327 -0.10884806 0 5.9986461e-06 0 0)
(-0.36145144 -0.10983904 0 -5.6539904e-06 0 0)
(-0.35630211 -0.1089097 0 5.3328676e-06 0 0)
(-0.36112722 -0.10978093 0 -5.0318861e-06 0 0)
(-0.35660317 -0.10896442 0 4.7514161e-06 0 0)
(-0.36083941 -0.10972931 0 -4.4888833e-06 0 0)
(-0.35687119 -0.10901308 0 4.2443386e-06 0 0)
(-0.3605833 -0.10968333 0 -4.0157726e-06 0 0)
(-0.35711041 -0.10905649 0 3.8030254e-06 0 0)
(-0.36035473 -0.10964228 0 -3.6045308e-06 0 0)
(-0.35732456 -0.10909531 0 3.4200039e-06 0 0)
(-0.36015002 -0.10960549 0 -3.2482505e-06 0 0)
(-0.35751697 -0.10913018 0 3.0889039e-06 0 0)
(-0.35996591 -0.10957238 0 -2.9410451e-06 0 0)
(-0.35769062 -0.10916162 0 2.8042719e-06 0 0)
(-0.35979953 -0.10954245 0 -2.677865e-06 0 0)
(-0.35784815 -0.10919013 0 2.5614423e-06 0 0)
(-0.35964828 -0.10951523 0 -2.454481e-06 0 0)
(-0.35799196 -0.10921614 0 2.356604e-06 0 0)
(-0.35950984 -0.10949031 0 -2.267418e-06 0 0)
(-0.35812421 -0.10924005 0 2.1866169e-06 0 0)
(-0.3593821 -0.10946731 0 -2.1139256e-06 0 0)
(-0.35824687 -0.10926222 0 2.0491095e-06 0 0)
(-0.35926315 -0.10944589 0 -1.9920522e-06 0 0)
(-0.35836176 -0.10928297 0 1.9426465e-06 0 0)
(-0.3591512 -0.10942573 0 -1.900971e-06 0 0)
(-0.3584706 -0.10930261 0 1.8670627e-06 0 0)
(-0.35904456 -0.10940653 0 -1.8427791e-06 0 0)
(-0.35857501 -0.10932144 0 1.8249857e-06 0 0)
(-0.35894128 -0.10938792 0 -1.8066245e-06 0 0)
(-0.35867622 -0.10933926 0 2.0704343e-06 0 0)
(-0.35883645 -0.1093702 0 -2.2091561e-06 0 0)
(-0.23560128 -0.12371507 0 -0.028208144 0 0)
(-0.31997654 -0.10177992 0 0.0007097727 0 0)
(-0.32211583 -0.10375893 0 -4.8195099e-05 0 0)
(-0.34141106 -0.10692515 0 5.889084e-06 0 0)
(-0.32870111 -0.10450333 0 1.3607328e-05 0 0)
(-0.34141681 -0.1068553 0 -3.6628305e-06 0 0)
(-0.33005308 -0.10471711 0 1.2622283e-05 0 0)
(-0.34087849 -0.10675166 0 -9.0750444e-06 0 0)
(-0.33077197 -0.10485071 0 9.6825389e-06 0 0)
(-0.34027604 -0.106639 0 -8.6513842e-06 0 0)
(-0.3313536 -0.10496132 0 8.307887e-06 0 0)
(-0.33972611 -0.10653682 0 -7.735643e-06 0 0)
(-0.33186023 -0.10505786 0 7.3045459e-06 0 0)
(-0.33923895 -0.10644628 0 -6.8565681e-06 0 0)
(-0.33230713 -0.10514292 0 6.4573933e-06 0 0)
(-0.33880896 -0.10636627 0 -6.074258e-06 0 0)
(-0.33270246 -0.10521806 0 5.7210263e-06 0 0)
(-0.33842923 -0.10629551 0 -5.3874032e-06 0 0)
(-0.33305269 -0.10528455 0 5.0776117e-06 0 0)
(-0.3380934 -0.10623287 0 -4.7862146e-06 0 0)
(-0.3333634 -0.10534347 0 4.5151953e-06 0 0)
(-0.33779587 -0.10617731 0 -4.2607192e-06 0 0)
(-0.33363951 -0.10539579 0 4.0239419e-06 0 0)
(-0.33753171 -0.10612794 0 -3.8019515e-06 0 0)
(-0.3338854 -0.10544233 0 3.595445e-06 0 0)
(-0.3372966 -0.10608396 0 -3.4021489e-06 0 0)
(-0.33410491 -0.10548385 0 3.222438e-06 0 0)
(-0.33708674 -0.10604467 0 -3.0545378e-06 0 0)
(-0.33430146 -0.10552101 0 2.8986103e-06 0 0)
(-0.33689875 -0.10600946 0 -2.753295e-06 0 0)
(-0.33447811 -0.10555438 0 2.6185984e-06 0 0)
(-0.33672965 -0.10597776 0 -2.493466e-06 0 0)
(-0.33463756 -0.10558449 0 2.3778094e-06 0 0)
(-0.3365768 -0.10594909 0 -2.2707958e-06 0 0)
(-0.33478225 -0.10561181 0 2.172308e-06 0 0)
(-0.33643783 -0.10592302 0 -2.0817281e-06 0 0)
(-0.33491436 -0.10563673 0 1.998899e-06 0 0)
(-0.33631062 -0.10589913 0 -1.9233454e-06 0 0)
(-0.33503587 -0.10565965 0 1.8549449e-06 0 0)
(-0.33619322 -0.10587707 0 -1.7933452e-06 0 0)
(-0.33514858 -0.10568091 0 1.7384609e-06 0 0)
(-0.3360839 -0.10585653 0 -1.6900987e-06 0 0)
(-0.33525417 -0.10570082 0 1.6482653e-06 0 0)
(-0.335981 -0.10583718 0 -1.6129423e-06 0 0)
(-0.33535418 -0.10571967 0 1.5842279e-06 0 0)
(-0.335883 -0.10581874 0 -1.5638159e-06 0 0)
(-0.33545014 -0.10573775 0 1.5483044e-06 0 0)
(-0.33578809 -0.10580087 0 -1.5306592e-06 0 0)
(-0.33554298 -0.10575486 0 1.7861252e-06 0 0)
(-0.3356902 -0.10578363 0 -1.9492933e-06 0 0)
(-0.22569416 -0.11736207 0 -0.024820935 0 0)
(-0.29631003 -0.097761831 0 0.00085781706 0 0)
(-0.29987451 -0.10011771 0 -2.4194601e-05 0 0)
(-0.31841622 -0.10326446 0 1.1745451e-05 0 0)
(-0.30685894 -0.10097063 0 1.2837439e-05 0 0)
(-0.31853849 -0.10321863 0 -1.3494551e-06 0 0)
(-0.30814417 -0.10117839 0 1.096758e-05 0 0)
(-0.31806914 -0.10312218 0 -7.358245e-06 0 0)
(-0.30880932 -0.10130639 0 8.1042717e-06 0 0)
(-0.31752052 -0.10301487 0 -7.1565636e-06 0 0)
(-0.3093425 -0.10141198 0 6.9080232e-06 0 0)
(-0.31701721 -0.10291738 0 -6.4186585e-06 0 0)
(-0.30980618 -0.1015041 0 6.0678581e-06 0 0)
(-0.31657101 -0.10283097 0 -5.6936058e-06 0 0)
(-0.31021517 -0.10158528 0 5.3642263e-06 0 0)
(-0.3161771 -0.10275458 0 -5.0458523e-06 0 0)
(-0.31057704 -0.10165701 0 4.7535768e-06 0 0)
(-0.31582917 -0.10268703 0 -4.4766567e-06 0 0)
(-0.3108977 -0.10172049 0 4.2201322e-06 0 0)
(-0.31552144 -0.1026272 0 -3.9783078e-06 0 0)
(-0.31118224 -0.10177677 0 3.7538065e-06 0 0)
(-0.31524875 -0.10257413 0 -3.5426124e-06 0 0)
(-0.31143516 -0.10182674 0 3.3464083e-06 0 0)
(-0.31500662 -0.10252695 0 -3.162148e-06 0 0)
(-0.31166045 -0.10187122 0 2.9909697e-06 0 0)
(-0.31479107 -0.10248492 0 -2.8304951e-06 0 0)
(-0.31186162 -0.10191091 0 2.6814725e-06 0 0)
(-0.31459863 -0.10244736 0 -2.5420422e-06 0 0)
(-0.3120418 -0.10194643 0 2.4126847e-06 0 0)
(-0.31442622 -0.10241368 0 -2.2919702e-06 0 0)
(-0.31220376 -0.10197835 0 2.1801771e-06 0 0)
(-0.3142711 -0.10238336 0 -2.0761918e-06 0 0)
(-0.31235 -0.10200716 0 1.9801563e-06 0 0)
(-0.31413087 -0.10235593 0 -1.891186e-06 0 0)
(-0.31248272 -0.1020333 0 1.8093614e-06 0 0)
(-0.31400336 -0.10233096 0 -1.7340204e-06 0 0)
(-0.31260392 -0.10205717 0 1.6651698e-06 0 0)
(-0.31388661 -0.10230808 0 -1.6022916e-06 0 0)
(-0.31271541 -0.10207912 0 1.5454018e-06 0 0)
(-0.31377886 -0.10228696 0 -1.4941042e-06 0 0)
(-0.31281885 -0.10209949 0 1.4484257e-06 0 0)
(-0.31367852 -0.10226726 0 -1.4081232e-06 0 0)
(-0.31291575 -0.10211857 0 1.3732826e-06 0 0)
(-0.31358407 -0.10224871 0 -1.3438115e-06 0 0)
(-0.31300754 -0.10213665 0 1.3198411e-06 0 0)
(-0.31349412 -0.10223103 0 -1.3028983e-06 0 0)
(-0.3130956 -0.102154 0 1.2893716e-06 0 0)
(-0.31340702 -0.10221388 0 -1.2722005e-06 0 0)
(-0.31318065 -0.10217042 0 1.5153924e-06 0 0)
(-0.31331586 -0.10219715 0 -1.7019021e-06 0 0)
(-0.21614917 -0.11123237 0 -0.021597147 0 0)
(-0.27408955 -0.093822709 0 0.0010135848 0 0)
(-0.27848093 -0.096476838 0 1.3471408e-06 0 0)
(-0.29620412 -0.099601425 0 1.7565856e-05 0 0)
(-0.28575149 -0.097436173 0 1.2636844e-05 0 0)
(-0.29646451 -0.099583244 0 7.9910621e-07 0 0)
(-0.28697388 -0.097638404 0 9.4256137e-06 0 0)
(-0.29606069 -0.099493807 0 -5.7667936e-06 0 0)
(-0.28758979 -0.097760999 0 6.6301848e-06 0 0)
(-0.29556249 -0.099391726 0 -5.7664342e-06 0 0)
(-0.28807809 -0.097861711 0 5.6032694e-06 0 0)
(-0.29510265 -0.0992988 0 -5.192416e-06 0 0)
(-0.28850188 -0.097949534 0 4.9156721e-06 0 0)
(-0.29469459 -0.0992164 0 -4.6103571e-06 0 0)
(-0.28887563 -0.098026941 0 4.345715e-06 0 0)
(-0.29433428 -0.099143549 0 -4.0877392e-06 0 0)
(-0.28920639 -0.098095352 0 3.8520719e-06 0 0)
(-0.29401599 -0.099079105 0 -3.6280027e-06 0 0)
(-0.28949953 -0.09815591 0 3.4209638e-06 0 0)
(-0.29373442 -0.099022022 0 -3.225335e-06 0 0)
(-0.28975972 -0.098209603 0 3.0440597e-06 0 0)
(-0.29348488 -0.098971372 0 -2.8731947e-06 0 0)
(-0.28999106 -0.098257298 0 2.7147005e-06 0 0)
(-0.29326326 -0.098926339 0 -2.5655931e-06 0 0)
(-0.29019717 -0.098299759 0 2.4272567e-06 0 0)
(-0.29306595 -0.098886203 0 -2.2973606e-06 0 0)
(-0.29038125 -0.098337659 0 2.1768711e-06 0 0)
(-0.29288975 -0.098850328 0 -2.0639641e-06 0 0)
(-0.29054617 -0.098371596 0 1.9593152e-06 0 0)
(-0.29273186 -0.098818149 0 -1.86152e-06 0 0)