/*--------------------------------*- C++ -*----------------------------------*\
| =========                 |                                                 |
| \\      /  F ield         | OpenFOAM: The Open Source CFD Toolbox           |
|  \\    /   O peration     | Version:  2312                                  |
|   \\  /    A nd           | Website:  www.openfoam.com                      |
|    \\/     M anipulation  |                                                 |
\*---------------------------------------------------------------------------*/
FoamFile
{
    version     2.0;
    format      ascii;
    arch        "LSB;label=32;scalar=64";
    class       volVectorField;
    location    "2";
    object      U_0;
}
// * * * * * * * * * * * * * * * * * * * * * * * * * * * * * * * * * * * * * //

dimensions      [0 1 -1 0 0 0 0];

internalField   nonuniform List<vector> 
4000
(
(0.0013473335 0.00023021751 0)
(0.0014478706 -1.2428851e-06 0)
(0.0013494715 -1.5230754e-07 0)
(0.0013958892 1.4854732e-07 0)
(0.0013596999 -1.3767311e-07 0)
(0.0013937528 1.3086769e-07 0)
(0.0013626926 -1.2161842e-07 0)
(0.0013919384 1.1442393e-07 0)
(0.0013646114 -1.0727367e-07 0)
(0.0013902715 1.0076867e-07 0)
(0.0013662194 -9.4611223e-08 0)
(0.0013887824 8.8875257e-08 0)
(0.0013676252 -8.3496299e-08 0)
(0.0013874664 7.8466906e-08 0)
(0.0013688624 -7.3759137e-08 0)
(0.0013863053 6.9355872e-08 0)
(0.0013699534 -6.5236094e-08 0)
(0.0013852804 6.1384186e-08 0)
(0.0013709168 -5.7781387e-08 0)
(0.0013843747 5.4414747e-08 0)
(0.0013717686 -5.1267077e-08 0)
(0.0013835731 4.8327874e-08 0)
(0.001372523 -4.558139e-08 0)
(0.0013828624 4.3019194e-08 0)
(0.0013731926 -4.0626917e-08 0)
(0.0013822309 3.8397826e-08 0)
(0.0013737883 -3.631892e-08 0)
(0.0013816682 3.4384854e-08 0)
(0.0013743199 -3.2583897e-08 0)
(0.0013811651 3.0911848e-08 0)
(0.0013747961 -2.9358277e-08 0)
(0.0013807135 2.7919865e-08 0)
(0.0013752246 -2.6587402e-08 0)
(0.001380306 2.5358216e-08 0)
(0.0013756123 -2.4224404e-08 0)
(0.0013799363 2.3183754e-08 0)
(0.0013759653 -2.2229588e-08 0)
(0.0013795983 2.1360009e-08 0)
(0.0013762892 -2.0569526e-08 0)
(0.0013792869 1.9856512e-08 0)
(0.0013765891 -1.9216636e-08 0)
(0.0013789972 1.8648522e-08 0)
(0.0013768696 -1.814885e-08 0)
(0.0013787247 1.7716518e-08 0)
(0.001377135 -1.7349347e-08 0)
(0.0013784652 1.7046461e-08 0)
(0.0013773894 -1.6808592e-08 0)
(0.0013782152 1.6633076e-08 0)
(0.0013776443 -1.6489178e-08 0)
(0.0013780256 1.7072758e-08 0)
(0.0037609898 0.00063527139 0)
(0.0041633883 4.1267841e-07 0)
(0.0039230118 4.3946953e-08 0)
(0.0040519948 4.1152837e-07 0)
(0.0039468091 -4.8019479e-07 0)
(0.0040462194 4.368997e-07 0)
(0.0039554447 -4.2325966e-07 0)
(0.0040409522 3.9435467e-07 0)
(0.0039610295 -3.7196858e-07 0)
(0.0040360834 3.4867233e-07 0)
(0.0039657261 -3.2771668e-07 0)
(0.0040317334 3.0772941e-07 0)
(0.0039698342 -2.8918182e-07 0)
(0.0040278885 2.7175315e-07 0)
(0.0039734509 -2.5548084e-07 0)
(0.0040244956 2.4023826e-07 0)
(0.0039766411 -2.2599181e-07 0)
(0.0040214998 2.1266057e-07 0)
(0.0039794588 -2.0020048e-07 0)
(0.0040188515 1.885491e-07 0)
(0.0039819512 -1.7766262e-07 0)
(0.0040165069 1.6749046e-07 0)
(0.0039841595 -1.5799127e-07 0)
(0.0040144273 1.4912368e-07 0)
(0.0039861203 -1.408493e-07 0)
(0.0040125784 1.3313444e-07 0)
(0.0039878658 -1.2594364e-07 0)
(0.00401093 1.1924964e-07 0)
(0.0039894244 -1.130201e-07 0)
(0.0040094553 1.0723298e-07 0)
(0.0039908214 -1.0185905e-07 0)
(0.0040081305 9.6880428e-08 0)
(0.0039920795 -9.2271339e-08 0)
(0.0040069343 8.8017096e-08 0)
(0.0039932186 -8.4095268e-08 0)
(0.0040058477 8.0493675e-08 0)
(0.0039942569 -7.7193323e-08 0)
(0.0040048536 7.4184046e-08 0)
(0.0039952107 -7.145014e-08 0)
(0.0040039365 6.898309e-08 0)
(0.0039960947 -6.6770156e-08 0)
(0.0040030822 6.4804304e-08 0)
(0.0039969227 -6.3075818e-08 0)
(0.0040022774 6.1579104e-08 0)
(0.0039977074 -6.0306649e-08 0)
(0.0040015098 5.9256769e-08 0)
(0.0039984606 -5.8424531e-08 0)
(0.0040007677 5.7715171e-08 0)
(0.0039992085 -5.8122615e-08 0)
(0.0040001731 5.5743931e-08 0)
(0.006108597 0.0010195231 0)
(0.0067983163 -5.1856865e-07 0)
(0.0064311986 3.7692631e-07 0)
(0.0066410396 6.9533967e-07 0)
(0.0064666864 -8.7123329e-07 0)
(0.0066316007 7.781103e-07 0)
(0.0064808789 -7.6603977e-07 0)
(0.0066228487 7.110113e-07 0)
(0.0064901178 -6.7215834e-07 0)
(0.0066147632 6.2953661e-07 0)
(0.0064979091 -5.9194942e-07 0)
(0.0066075424 5.5574774e-07 0)
(0.0065047278 -5.2231644e-07 0)
(0.0066011606 4.9081463e-07 0)
(0.0065107319 -4.6145652e-07 0)
(0.0065955284 4.3391828e-07 0)
(0.0065160288 -4.0820899e-07 0)
(0.0065905547 3.8412684e-07 0)
(0.006520708 -3.6163923e-07 0)
(0.0065861572 3.4059268e-07 0)
(0.0065248476 -3.2094379e-07 0)
(0.0065822633 3.025697e-07 0)
(0.0065285163 -2.8542354e-07 0)
(0.0065788087 2.6940609e-07 0)
(0.0065317744 -2.5446982e-07 0)
(0.0065757366 2.4053447e-07 0)
(0.0065346754 -2.2755349e-07 0)
(0.006572997 2.1546203e-07 0)
(0.0065372667 -2.0421551e-07 0)
(0.0065705451 1.9376173e-07 0)
(0.0065395903 -1.8405922e-07 0)
(0.0065683417 1.7506578e-07 0)
(0.0065416834 -1.6674355e-07 0)
(0.0065663514 1.5905805e-07 0)
(0.0065435796 -1.5197602e-07 0)
(0.0065645427 1.454692e-07 0)
(0.0065453086 -1.3950893e-07 0)
(0.006562887 1.340716e-07 0)
(0.0065468977 -1.2913341e-07 0)
(0.0065613587 1.246747e-07 0)
(0.0065483716 -1.2067644e-07 0)
(0.0065599341 1.1712244e-07 0)
(0.0065497529 -1.1399784e-07 0)
(0.0065585911 1.1128937e-07 0)
(0.0065510629 -1.0898521e-07 0)
(0.0065573092 1.0708142e-07 0)
(0.0065523214 -1.055607e-07 0)
(0.006556068 1.0423583e-07 0)
(0.0065535673 -1.054208e-07 0)
(0.0065550472 1.0023881e-07 0)
(0.0084096156 0.0013735714 0)
(0.0093590134 -2.4084572e-06 0)
(0.0088737643 9.770446e-07 0)
(0.0091632233 9.1897602e-07 0)
(0.0089192461 -1.2491423e-06 0)
(0.0091499859 1.0936724e-06 0)
(0.0089389215 -1.095747e-06 0)
(0.0091377091 1.012996e-06 0)
(0.0089518108 -9.5990944e-07 0)
(0.0091263829 8.9824887e-07 0)
(0.0089627107 -8.4500039e-07 0)
(0.0091162736 7.9316768e-07 0)
(0.0089722546 -7.4556179e-07 0)
(0.0091073396 7.0055639e-07 0)
(0.0089806597 -6.5870836e-07 0)
(0.0090994544 6.1938437e-07 0)
(0.0089880757 -5.8272826e-07 0)
(0.0090924904 5.4834424e-07 0)
(0.0089946276 -5.1627783e-07 0)
(0.0090863326 4.8622976e-07 0)
(0.0090004248 -4.5820899e-07 0)
(0.0090808791 4.3197729e-07 0)
(0.0090055631 -4.0752388e-07 0)
(0.0090760401 3.8465698e-07 0)
(0.0090101273 -3.6335372e-07 0)
(0.0090717361 3.4345944e-07 0)
(0.009014192 -3.249435e-07 0)
(0.0090678971 3.0768129e-07 0)
(0.0090178236 -2.9163826e-07 0)
(0.0090644607 2.7671395e-07 0)
(0.0090210806 -2.6287241e-07 0)
(0.0090613717 2.5003227e-07 0)
(0.0090240154 -2.381589e-07 0)
(0.0090585807 2.2718588e-07 0)
(0.0090266747 -2.1708116e-07 0)
(0.0090560436 2.0779032e-07 0)
(0.0090291005 -1.9928517e-07 0)
(0.0090537205 1.9152079e-07 0)
(0.0090313306 -1.8447354e-07 0)
(0.0090515753 1.7810618e-07 0)
(0.0090333997 -1.7239943e-07 0)
(0.0090495749 1.6732263e-07 0)
(0.0090353397 -1.6286147e-07 0)
(0.0090476885 1.5899074e-07 0)
(0.0090371803 -1.5569818e-07 0)
(0.0090458869 1.5297554e-07 0)
(0.0090389495 -1.5078857e-07 0)
(0.0090441409 1.4884563e-07 0)
(0.0090406972 -1.5123047e-07 0)
(0.0090426729 1.4278239e-07 0)
(0.010655475 0.0016965025 0)
(0.011843164 -5.1894681e-06 0)
(0.01125032 1.7939125e-06 0)
(0.011618688 1.0784867e-06 0)
(0.011304498 -1.5978956e-06 0)
(0.011601358 1.3707528e-06 0)
(0.011329588 -1.3992442e-06 0)
(0.011585514 1.2883626e-06 0)
(0.011346121 -1.2237622e-06 0)
(0.011570925 1.1441393e-06 0)
(0.011360142 -1.0767941e-06 0)
(0.011557912 1.0105559e-06 0)
(0.011372424 -9.5003053e-07 0)
(0.011546412 8.9264301e-07 0)
(0.011383242 -8.3938427e-07 0)
(0.011536262 7.8926491e-07 0)
(0.011392788 -7.4260186e-07 0)
(0.011527297 6.987842e-07 0)
(0.011401223 -6.5795988e-07 0)
(0.011519369 6.1966976e-07 0)
(0.011408687 -5.8399343e-07 0)
(0.011512347 5.5056734e-07 0)
(0.011415303 -5.1943071e-07 0)
(0.011506116 4.902926e-07 0)
(0.011421181 -4.6316523e-07 0)
(0.011500573 4.3781484e-07 0)
(0.011426417 -4.1423535e-07 0)
(0.011495628 3.9223875e-07 0)
(0.011431095 -3.7180681e-07 0)
(0.0114912 3.527886e-07 0)
(0.011435292 -3.3515913e-07 0)
(0.01148722 3.1879665e-07 0)
(0.011439074 -3.0367286e-07 0)
(0.011483623 2.896888e-07 0)
(0.011442501 -2.768167e-07 0)
(0.011480352 2.64976e-07 0)
(0.011445629 -2.5414099e-07 0)
(0.011477357 2.4424506e-07 0)
(0.011448505 -2.3526633e-07 0)
(0.01147459 2.271498e-07 0)
(0.011451173 -2.1987812e-07 0)
(0.01147201 2.1340612e-07 0)
(0.011453676 -2.0772067e-07 0)
(0.011469576 2.0278432e-07 0)
(0.011456051 -1.9858514e-07 0)
(0.011467251 1.9511209e-07 0)
(0.011458335 -1.9230651e-07 0)
(0.011464996 1.8977979e-07 0)
(0.011460587 -1.93678e-07 0)
(0.011463065 1.8174116e-07 0)
(0.012844294 0.0019896487 0)
(0.014250948 -8.741318e-06 0)
(0.013560787 2.766682e-06 0)
(0.014007456 1.183389e-06 0)
(0.013622552 -1.9167475e-06 0)
(0.013985607 1.6112444e-06 0)
(0.013652983 -1.6776019e-06 0)
(0.013966167 1.5384157e-06 0)
(0.013673142 -1.4647613e-06 0)
(0.013948305 1.3682404e-06 0)
(0.013690283 -1.2882749e-06 0)
(0.013932382 1.2088059e-06 0)
(0.013705307 -1.1365584e-06 0)
(0.013918313 1.0678586e-06 0)
(0.013718542 -1.0042203e-06 0)
(0.013905894 9.4424956e-07 0)
(0.013730221 -8.8847878e-07 0)
(0.013894925 8.3605508e-07 0)
(0.013740542 -7.8725739e-07 0)
(0.013885223 7.4144906e-07 0)
(0.013749676 -6.9880171e-07 0)
(0.013876629 6.5881343e-07 0)
(0.013757774 -6.2159042e-07 0)
(0.013869002 5.8673216e-07 0)
(0.013764969 -5.542999e-07 0)
(0.013862216 5.2397299e-07 0)
(0.013771378 -4.9578027e-07 0)
(0.013856162 4.6946492e-07 0)
(0.013777106 -4.4503391e-07 0)
(0.013850741 4.2228146e-07 0)
(0.013782245 -4.0119989e-07 0)
(0.013845866 3.8162357e-07 0)
(0.013786877 -3.6353699e-07 0)
(0.013841461 3.4680584e-07 0)
(0.013791076 -3.3141097e-07 0)
(0.013837454 3.172433e-07 0)
(0.013794907 -3.0428341e-07 0)
(0.013833784 2.9244189e-07 0)
(0.013798431 -2.8170161e-07 0)
(0.013830394 2.7198894e-07 0)
(0.013801701 -2.6328961e-07 0)
(0.013827231 2.5554318e-07 0)
(0.013804769 -2.487399e-07 0)
(0.013824248 2.4282962e-07 0)
(0.01380768 -2.3780153e-07 0)
(0.013821397 2.3364194e-07 0)
(0.01381048 -2.3026059e-07 0)
(0.013818632 2.2718389e-07 0)
(0.013813238 -2.3281835e-07 0)
(0.013816224 2.1718472e-07 0)
(0.014978466 0.0022545066 0)
(0.016582932 -1.3013429e-05 0)
(0.015805144 3.8314713e-06 0)
(0.01632943 1.2430072e-06 0)
(0.015873534 -2.2054248e-06 0)
(0.016302611 1.818138e-06 0)
(0.015909223 -1.9329746e-06 0)
(0.016279559 1.7654947e-06 0)
(0.015932973 -1.6849155e-06 0)
(0.016258427 1.5724936e-06 0)
(0.015953225 -1.481239e-06 0)
(0.016239601 1.3896145e-06 0)
(0.015970982 -1.3067337e-06 0)
(0.016222967 1.2276971e-06 0)
(0.015986628 -1.1546189e-06 0)
(0.016208285 1.0856569e-06 0)
(0.016000436 -1.0215969e-06 0)
(0.016195315 9.6132096e-07 0)
(0.016012639 -9.0526507e-07 0)
(0.016183843 8.5259795e-07 0)
(0.01602344 -8.0360367e-07 0)
(0.01617368 7.5762904e-07 0)
(0.016033016 -7.1486319e-07 0)
(0.01616466 6.7478692e-07 0)
(0.016041526 -6.3752266e-07 0)
(0.016156633 6.0265578e-07 0)
(0.016049108 -5.7026064e-07 0)
(0.016149471 5.4000559e-07 0)
(0.016055884 -5.1193062e-07 0)
(0.016143057 4.8577085e-07 0)
(0.016061965 -4.6154311e-07 0)
(0.016137289 4.3903486e-07 0)
(0.016067446 -4.1824757e-07 0)
(0.016132074 3.9900935e-07 0)
(0.016072415 -3.8131409e-07 0)
(0.016127332 3.650229e-07 0)
(0.016076951 -3.5012571e-07 0)
(0.016122988 3.3650843e-07 0)
(0.016081122 -3.2416125e-07 0)
(0.016118974 3.1299046e-07 0)
(0.016084995 -3.0298832e-07 0)
(0.016115229 2.9407805e-07 0)
(0.016088627 -2.8625443e-07 0)
(0.016111696 2.7945317e-07 0)
(0.016092075 -2.736662e-07 0)
(0.01610832 2.6887709e-07 0)
(0.016095392 -2.6495793e-07 0)
(0.016105044 2.6136662e-07 0)
(0.016098654 -2.6888046e-07 0)
(0.016102149 2.4938008e-07 0)
(0.017060536 0.002491931 0)
(0.018839853 -1.7934176e-05 0)
(0.017983494 4.9335079e-06 0)
(0.018584327 1.264177e-06 0)
(0.018057574 -2.4621866e-06 0)
(0.018552256 1.9926556e-06 0)
(0.018098409 -2.1659473e-06 0)
(0.018525594 1.9704345e-06 0)
(0.018125705 -1.8848295e-06 0)
(0.018501206 1.7575216e-06 0)
(0.018149046 -1.6562443e-06 0)
(0.018479492 1.5535157e-06 0)
(0.01816952 -1.4610518e-06 0)
(0.01846031 1.3726261e-06 0)
(0.018187562 -1.2910159e-06 0)
(0.018443377 1.2138974e-06 0)
(0.018203487 -1.142341e-06 0)
(0.018428417 1.0749442e-06 0)
(0.018217562 -1.0123218e-06 0)
(0.018415185 9.5343542e-07 0)
(0.01823002 -8.9869778e-07 0)
(0.018403461 8.4729539e-07 0)
(0.018241068 -7.9951319e-07 0)
(0.018393054 7.547057e-07 0)
(0.018250886 -7.1306755e-07 0)
(0.018383792 6.7408446e-07 0)
(0.018259634 -6.3788415e-07 0)
(0.018375527 6.0405652e-07 0)
(0.018267455 -5.7268167e-07 0)
(0.018368124 5.4343251e-07 0)
(0.018274473 -5.1635513e-07 0)
(0.018361466 4.9118735e-07 0)
(0.0182808 -4.6795333e-07 0)
(0.018355447 4.4644141e-07 0)
(0.018286537 -4.2666197e-07 0)
(0.018349971 4.0844416e-07 0)
(0.018291774 -3.9179058e-07 0)
(0.018344955 3.7656183e-07 0)
(0.018296592 -3.6275801e-07 0)
(0.018340319 3.5026471e-07 0)
(0.018301064 -3.3908118e-07 0)
(0.018335994 3.2911366e-07 0)
(0.01830526 -3.2036363e-07 0)
(0.018331913 3.1275245e-07 0)
(0.018309243 -3.062753e-07 0)
(0.018328013 3.0091258e-07 0)
(0.018313074 -2.9649287e-07 0)
(0.018324228 2.9242394e-07 0)
(0.018316839 -3.0189611e-07 0)
(0.01832084 2.7842073e-07 0)
(0.019092256 0.0027026386 0)
(0.021022493 -2.3413347e-05 0)
(0.020096072 6.0255345e-06 0)
(0.020771678 1.2535765e-06 0)
(0.020174808 -2.6861504e-06 0)
(0.020734438 2.1355068e-06 0)
(0.020220634 -2.3765264e-06 0)
(0.020704185 2.153487e-06 0)
(0.02025142 -2.0645618e-06 0)
(0.020676565 1.9234339e-06 0)
(0.020277817 -1.8133669e-06 0)
(0.020651989 1.7005919e-06 0)
(0.020300984 -1.5995828e-06 0)
(0.020630281 1.5027144e-06 0)
(0.020321401 -1.4134729e-06 0)
(0.020611117 1.32903e-06 0)
(0.020339423 -1.2507625e-06 0)
(0.020594186 1.1769736e-06 0)
(0.020355353 -1.1084715e-06 0)
(0.020579207 1.0440031e-06 0)
(0.020369456 -9.8412185e-07 0)
(0.020565936 9.2784794e-07 0)
(0.020381962 -8.755718e-07 0)
(0.020554153 8.2651815e-07 0)
(0.020393078 -7.8096081e-07 0)
(0.020543666 7.3828309e-07 0)
(0.020402984 -6.986729e-07 0)
(0.020534307 6.6163885e-07 0)
(0.02041184 -6.273059e-07 0)
(0.020525923 5.9528299e-07 0)
(0.020419789 -5.6565049e-07 0)
(0.020518381 5.3809567e-07 0)
(0.020426956 -5.1266739e-07 0)
(0.020511562 4.8911362e-07 0)
(0.020433456 -4.6746421e-07 0)
(0.020505358 4.4751653e-07 0)
(0.020439389 -4.2928765e-07 0)
(0.020499674 4.1261178e-07 0)
(0.020444849 -3.9750052e-07 0)
(0.02049442 3.8381804e-07 0)
(0.020449917 -3.7157369e-07 0)
(0.020489518 3.6065629e-07 0)
(0.020454673 -3.5107437e-07 0)
(0.020484892 3.427339e-07 0)
(0.020459188 -3.3563474e-07 0)
(0.020480471 3.2975404e-07 0)
(0.020463531 -3.2487279e-07 0)
(0.020476181 3.2036865e-07 0)
(0.020467794 -3.3182929e-07 0)
(0.020472295 3.0432527e-07 0)
(0.021074799 0.0028873902 0)
(0.023131695 -2.9350206e-05 0)
(0.022143096 7.0686963e-06 0)
(0.022890976 1.2181158e-06 0)
(0.022225382 -2.8788906e-06 0)
(0.022849059 2.2477479e-06 0)
(0.02227598 -2.5647946e-06 0)
(0.022815254 2.3149353e-06 0)
(0.022310191 -2.2242065e-06 0)
(0.022784435 2.0703727e-06 0)
(0.022339605 -1.9527145e-06 0)
(0.022757032 1.830954e-06 0)
(0.022365431 -1.7224241e-06 0)
(0.022732827 1.6180556e-06 0)
(0.022388193 -1.5220737e-06 0)
(0.022711458 1.4311341e-06 0)
(0.022408289 -1.3469349e-06 0)
(0.022692578 1.2674785e-06 0)
(0.022426053 -1.1937769e-06 0)
(0.022675874 1.1243598e-06 0)
(0.02244178 -1.0599287e-06 0)
(0.022661072 9.9933637e-07 0)
(0.022455729 -9.4308466e-07 0)
(0.022647928 8.9026666e-07 0)
(0.022468128 -8.4124136e-07 0)
(0.02263623 7.952885e-07 0)
(0.022479179 -7.5265982e-07 0)
(0.022625788 7.1278265e-07 0)
(0.022489061 -6.7583079e-07 0)
(0.022616433 6.4134899e-07 0)
(0.022497931 -6.0945387e-07 0)
(0.022608016 5.7978159e-07 0)
(0.02250593 -5.5240967e-07 0)
(0.022600405 5.2704523e-07 0)
(0.022513185 -5.0373944e-07 0)
(0.02259348 4.8225687e-07 0)
(0.022519808 -4.6263123e-07 0)
(0.022587134 4.4467101e-07 0)
(0.022525903 -4.2840089e-07 0)
(0.022581269 4.13664e-07 0)
(0.022531562 -4.0047903e-07 0)
(0.022575795 3.8871752e-07 0)
(0.022536873 -3.7839673e-07 0)
(0.022570629 3.6940786e-07 0)
(0.022541915 -3.6175535e-07 0)
(0.022565692 3.554128e-07 0)
(0.022546765 -3.5010967e-07 0)
(0.022560901 3.4521281e-07 0)
(0.022551522 -3.5864427e-07 0)
(0.022556516 3.271303e-07 0)
(0.023009008 0.0030469485 0)
(0.02516838 -3.5638797e-05 0)
(0.02412462 8.0325593e-06 0)
(0.024941868 1.1641473e-06 0)
(0.024209438 -3.0443831e-06 0)
(0.024896036 2.3309784e-06 0)
(0.024264522 -2.7309946e-06 0)
(0.024858727 2.4551897e-06 0)
(0.024302087 -2.3639791e-06 0)
(0.024824753 2.1985931e-06 0)
(0.02433447 -2.0745021e-06 0)
(0.024794562 1.9448137e-06 0)
(0.024362913 -1.8297683e-06 0)
(0.024767898 1.7188327e-06 0)
(0.024387987 -1.6169878e-06 0)
(0.024744357 1.5203695e-06 0)
(0.024410125 -1.4310046e-06 0)
(0.024723555 1.3465964e-06 0)
(0.024429697 -1.2683659e-06 0)
(0.02470515 1.1946259e-06 0)
(0.024447026 -1.1262307e-06 0)
(0.024688839 1.061866e-06 0)
(0.024462397 -1.002149e-06 0)
(0.024674354 9.4604291e-07 0)
(0.024476062 -8.9399403e-07 0)
(0.024661461 8.4517982e-07 0)
(0.024488243 -7.9991923e-07 0)
(0.02464995 7.5755846e-07 0)
(0.024499136 -7.1832205e-07 0)
(0.024639636 6.8169109e-07 0)
(0.024508915 -6.4782157e-07 0)
(0.024630356 6.1629951e-07 0)
(0.024517735 -5.8723117e-07 0)
(0.024621964 5.602837e-07 0)
(0.024525736 -5.3553124e-07 0)
(0.024614326 5.1270717e-07 0)
(0.024533041 -4.9186242e-07 0)
(0.024607327 4.7277943e-07 0)
(0.024539764 -4.5549671e-07 0)
(0.024600857 4.3983631e-07 0)
(0.024546007 -4.2582899e-07 0)
(0.024594818 4.1332922e-07 0)
(0.024551865 -4.0236257e-07 0)
(0.024589118 3.9280487e-07 0)
(0.024557428 -3.8466632e-07 0)
(0.024583671 3.7791699e-07 0)
(0.02456278 -3.7223304e-07 0)
(0.024578386 3.6698951e-07 0)
(0.024568025 -3.8233889e-07 0)
(0.024573501 3.4688196e-07 0)
(0.024895476 0.0031820643 0)
(0.027133537 -4.2170916e-05 0)
(0.026040492 8.8950567e-06 0)
(0.026924201 1.0975844e-06 0)
(0.026127099 -3.1877345e-06 0)
(0.026875299 2.387233e-06 0)
(0.026186331 -2.8754398e-06 0)
(0.026834539 2.5747333e-06 0)
(0.026227169 -2.4841708e-06 0)
(0.026797458 2.3084228e-06 0)
(0.026262465 -2.1790131e-06 0)
(0.026764528 2.0424459e-06 0)
(0.026293481 -1.9218675e-06 0)
(0.026735448 1.805284e-06 0)
(0.026320826 -1.6984355e-06 0)
(0.026709772 1.5969436e-06 0)
(0.026344971 -1.503166e-06 0)
(0.026687082 1.4145104e-06 0)
(0.026366318 -1.3324081e-06 0)
(0.026667005 1.2549606e-06 0)
(0.026385222 -1.1831755e-06 0)
(0.02664921 1.1155757e-06 0)
(0.026401992 -1.0528949e-06 0)
(0.026633406 9.9396867e-07 0)
(0.026416903 -9.3933291e-07 0)
(0.026619336 8.8806489e-07 0)
(0.026430195 -8.4055121e-07 0)
(0.026606774 7.9605971e-07 0)
(0.026442083 -7.5486726e-07 0)
(0.026595517 7.163932e-07 0)
(0.026452757 -6.8083271e-07 0)
(0.026585387 6.4772272e-07 0)
(0.026462385 -6.1720087e-07 0)
(0.026576225 5.8889515e-07 0)
(0.02647112 -5.6290328e-07 0)
(0.026567886 5.3892719e-07 0)
(0.026479097 -5.170364e-07 0)
(0.026560242 4.9698888e-07 0)
(0.026486438 -4.7883786e-07 0)
(0.026553176 4.6238531e-07 0)
(0.026493257 -4.4767248e-07 0)
(0.02654658 4.3453734e-07 0)
(0.026499656 -4.2301522e-07 0)
(0.026540355 4.1296775e-07 0)
(0.026505732 -4.0441038e-07 0)
(0.026534405 3.9730936e-07 0)
(0.026511579 -3.9128585e-07 0)
(0.026528632 3.8573961e-07 0)
(0.026517303 -4.0291726e-07 0)
(0.026523251 3.6365214e-07 0)
(0.02673454 0.0032934804 0)
(0.029028219 -4.8842517e-05 0)
(0.027890421 9.6484482e-06 0)
(0.028837963 1.0236797e-06 0)
(0.027978462 -3.313893e-06 0)
(0.028786785 2.4188382e-06 0)
(0.028041469 -2.9984637e-06 0)
(0.028742628 2.674088e-06 0)
(0.028085495 -2.5851182e-06 0)
(0.028702497 2.4002303e-06 0)
(0.028123643 -2.2665706e-06 0)
(0.028666883 2.1241637e-06 0)
(0.028157179 -1.9990097e-06 0)
(0.028635434 1.8776821e-06 0)
(0.028186748 -1.7666708e-06 0)
(0.028607666 1.6610954e-06 0)
(0.02821286 -1.5636399e-06 0)
(0.028583125 1.4714278e-06 0)
(0.028235949 -1.3860978e-06 0)
(0.028561408 1.3055465e-06 0)
(0.028256397 -1.2309341e-06 0)
(0.028542158 1.1606261e-06 0)
(0.028274539 -1.0954718e-06 0)
(0.02852506 1.034185e-06 0)
(0.028290671 -9.7738946e-07 0)
(0.028509837 9.2406681e-07 0)
(0.028305053 -8.7467189e-07 0)
(0.028496243 8.2839663e-07 0)
(0.028317918 -7.8556982e-07 0)
(0.02848406 7.4555142e-07 0)
(0.028329471 -7.0857736e-07 0)
(0.028473096 6.7413792e-07 0)
(0.028339893 -6.4240064e-07 0)
(0.028463177 6.1295635e-07 0)
(0.028349349 -5.8592697e-07 0)
(0.028454149 5.609857e-07 0)
(0.028357986 -5.3822027e-07 0)
(0.028445873 5.1736441e-07 0)
(0.028365935 -4.9848605e-07 0)
(0.028438221 4.8136767e-07 0)
(0.028373319 -4.6606339e-07 0)
(0.028431078 4.5239542e-07 0)
(0.028380249 -4.4040786e-07 0)
(0.028424335 4.2994775e-07 0)
(0.028386831 -4.210369e-07 0)
(0.028417891 4.1363784e-07 0)
(0.028393163 -4.0731732e-07 0)
(0.028411639 4.015153e-07 0)
(0.028399359 -4.2040817e-07 0)
(0.028405766 3.7750838e-07 0)
(0.028526247 0.0033819321 0)
(0.03085346 -5.5555362e-05 0)
(0.029674077 1.030683e-05 0)
(0.030683202 9.4374484e-07 0)
(0.029763602 -3.4278541e-06 0)
(0.03063044 2.4280864e-06 0)
(0.029829996 -3.1004053e-06 0)
(0.030582937 2.753806e-06 0)
(0.029877119 -2.6671959e-06 0)
(0.03053982 2.4744238e-06 0)
(0.029918051 -2.3375344e-06 0)
(0.030501581 2.1903134e-06 0)
(0.029954047 -2.0615145e-06 0)
(0.030467817 1.9363285e-06 0)
(0.029985792 -1.8219735e-06 0)
(0.030438004 1.7130882e-06 0)
(0.030013826 -1.6126736e-06 0)
(0.030411654 1.5175813e-06 0)
(0.030038618 -1.4296512e-06 0)
(0.030388334 1.3465868e-06 0)
(0.030060576 -1.2696957e-06 0)
(0.030367661 1.1971952e-06 0)
(0.030080059 -1.1300469e-06 0)
(0.030349297 1.0668485e-06 0)
(0.030097386 -1.0083109e-06 0)
(0.030332944 9.5332485e-07 0)
(0.030112836 -9.0241106e-07 0)
(0.03031834 8.5469066e-07 0)
(0.030126657 -8.1054393e-07 0)
(0.030305251 7.6927514e-07 0)
(0.03013907 -7.3115895e-07 0)
(0.030293469 6.9564137e-07 0)
(0.03015027 -6.6292137e-07 0)
(0.03028281 6.3255448e-07 0)
(0.030160432 -6.0468637e-07 0)
(0.030273107 5.7896189e-07 0)
(0.030169715 -5.5548755e-07 0)
(0.03026421 5.3397537e-07 0)
(0.030178261 -5.1450817e-07 0)
(0.030255984 4.968505e-07 0)
(0.030186199 -4.8106701e-07 0)
(0.030248305 4.6696514e-07 0)
(0.03019365 -4.5459891e-07 0)
(0.030241055 4.4380257e-07 0)
(0.030200726 -4.3460331e-07 0)
(0.030234126 4.2695973e-07 0)
(0.030207535 -4.2038467e-07 0)
(0.030227405 4.1437048e-07 0)
(0.030214193 -4.3483818e-07 0)
(0.030221046 3.8853982e-07 0)
(0.030270394 0.0034481499 0)
(0.032610006 -6.2178257e-05 0)
(0.031391377 1.0874979e-05 0)
(0.032459968 8.5429172e-07 0)
(0.031482575 -3.5348792e-06 0)
(0.032406216 2.4169994e-06 0)
(0.031551964 -3.1817134e-06 0)
(0.032355416 2.8144345e-06 0)
(0.031602088 -2.7308256e-06 0)
(0.03230938 2.5314414e-06 0)
(0.031645731 -2.3922971e-06 0)
(0.032268583 2.2412722e-06 0)
(0.031684126 -2.1097309e-06 0)
(0.032232563 1.9815528e-06 0)
(0.03171799 -1.8646515e-06 0)
(0.032200756 1.7532116e-06 0)
(0.031747899 -1.6505358e-06 0)
(0.032172641 1.5532232e-06 0)
(0.031774351 -1.4633049e-06 0)
(0.032147757 1.3783042e-06 0)
(0.031797782 -1.2996693e-06 0)
(0.032125695 1.2254794e-06 0)
(0.031818574 -1.1568034e-06 0)
(0.032106096 1.0921322e-06 0)
(0.031837067 -1.032259e-06 0)
(0.032088642 9.7599062e-07 0)
(0.031853558 -9.23912e-07 0)
(0.032073052 8.7507789e-07 0)
(0.031868313 -8.2991761e-07 0)
(0.032059077 7.8768365e-07 0)
(0.031881566 -7.4868962e-07 0)
(0.032046497 7.1234095e-07 0)
(0.031893525 -6.7886518e-07 0)
(0.032035114 6.4778555e-07 0)
(0.031904378 -6.1927112e-07 0)
(0.032024751 5.929421e-07 0)
(0.031914293 -5.6892261e-07 0)
(0.032015248 5.4690351e-07 0)
(0.031923421 -5.2698198e-07 0)
(0.032006461 5.0890564e-07 0)
(0.031931902 -4.9275182e-07 0)
(0.031998256 4.7831441e-07 0)
(0.031939862 -4.6565575e-07 0)
(0.031990511 4.5459721e-07 0)
(0.031947422 -4.4517235e-07 0)
(0.031983108 4.3733603e-07 0)
(0.031954696 -4.3055001e-07 0)
(0.031975927 4.2436999e-07 0)
(0.031961807 -4.4625844e-07 0)
(0.031969091 3.96826e-07 0)
(0.031966528 0.0034928204 0)
(0.03429771 -6.8426655e-05 0)
(0.033043076 1.1200334e-05 0)
(0.03416825 7.3873549e-07 0)
(0.033135413 -3.639533e-06 0)
(0.034114057 2.3882801e-06 0)
(0.033207422 -3.2425907e-06 0)
(0.034060016 2.8566263e-06 0)
(0.033260447 -2.7764435e-06 0)
(0.034011137 2.5717635e-06 0)
(0.033306722 -2.4312828e-06 0)
(0.033967851 2.2774481e-06 0)
(0.033347448 -2.1440358e-06 0)
(0.033929637 2.0137105e-06 0)
(0.033383373 -1.8950355e-06 0)
(0.03389589 1.7817767e-06 0)
(0.033415105 -1.677519e-06 0)
(0.03386606 1.5786287e-06 0)
(0.033443172 -1.4873158e-06 0)
(0.033839654 1.4009398e-06 0)
(0.033468036 -1.3210799e-06 0)
(0.033816241 1.2456905e-06 0)
(0.033490102 -1.1759405e-06 0)
(0.03379544 1.1102232e-06 0)
(0.03350973 -1.0494097e-06 0)
(0.033776913 9.9223065e-07 0)
(0.033527235 -9.3933037e-07 0)
(0.033760363 8.8970417e-07 0)
(0.033542899 -8.4382829e-07 0)
(0.033745526 8.0090862e-07 0)
(0.03355697 -7.6129409e-07 0)
(0.033732168 7.2435308e-07 0)
(0.03356967 -6.9034223e-07 0)
(0.03372008 6.5875523e-07 0)
(0.033581196 -6.2978325e-07 0)
(0.033709073 6.0302265e-07 0)
(0.033591727 -5.7861512e-07 0)
(0.033698979 5.5623365e-07 0)
(0.033601423 -5.3598941e-07 0)
(0.033689645 5.1761506e-07 0)
(0.033610432 -5.0119769e-07 0)
(0.033680929 4.8651884e-07 0)
(0.033618889 -4.7365025e-07 0)
(0.0336727 4.6240258e-07 0)
(0.033626921 -4.5281445e-07 0)
(0.033664834 4.4483693e-07 0)
(0.03363465 -4.3788306e-07 0)
(0.033657206 4.3157928e-07 0)
(0.033642201 -4.5471433e-07 0)
(0.033649901 4.0246844e-07 0)
(0.033614175 0.0035167187 0)
(0.035913772 -7.4121505e-05 0)
(0.034631968 1.1185669e-05 0)
(0.035808329 5.8369816e-07 0)
(0.034722146 -3.7487917e-06 0)
(0.035753901 2.3429552e-06 0)
(0.034796403 -3.283733e-06 0)
(0.03569669 2.8809044e-06 0)
(0.034852235 -2.8045682e-06 0)
(0.035645051 2.5958802e-06 0)
(0.03490106 -2.4549482e-06 0)
(0.035599351 2.2992724e-06 0)
(0.034944047 -2.1648319e-06 0)
(0.035559009 2.0331807e-06 0)
(0.03498197 -1.9134809e-06 0)
(0.035523382 1.7991173e-06 0)
(0.035015471 -1.6939337e-06 0)
(0.035491886 1.5940895e-06 0)
(0.035045104 -1.5019575e-06 0)
(0.035464005 1.4147513e-06 0)
(0.035071358 -1.33417e-06 0)
(0.035439281 1.2580563e-06 0)
(0.03509466 -1.1876712e-06 0)
(0.035417312 1.1213224e-06 0)
(0.03511539 -1.0599515e-06 0)
(0.035397743 1.0022219e-06 0)
(0.035133881 -9.4883357e-07 0)
(0.035380261 8.987286e-07 0)
(0.035150428 -8.5242597e-07 0)
(0.035364587 8.0909005e-07 0)
(0.035165294 -7.6910426e-07 0)
(0.035350473 7.3180458e-07 0)
(0.035178713 -6.9747283e-07 0)
(0.035337699 6.6557687e-07 0)
(0.035190893 -6.3632882e-07 0)
(0.035326067 6.0930576e-07 0)
(0.035202022 -5.8466507e-07 0)
(0.035315399 5.6206271e-07 0)
(0.035212271 -5.4162275e-07 0)
(0.035305532 5.2306441e-07 0)
(0.035221794 -5.0648636e-07 0)
(0.035296318 4.9165944e-07 0)
(0.035230734 -4.7866269e-07 0)
(0.035287618 4.672962e-07 0)
(0.035239226 -4.5760456e-07 0)
(0.035279303 4.4953532e-07 0)
(0.035247397 -4.4245754e-07 0)
(0.03527124 4.3607476e-07 0)
(0.035255376 -4.6027641e-07 0)
(0.035263476 4.0555483e-07 0)
(0.035212661 0.0035206376 0)
(0.037453556 -7.9878665e-05 0)
(0.03616174 1.1332679e-05 0)
(0.037381406 5.3255177e-07 0)
(0.03624295 -3.8421289e-06 0)
(0.03732577 2.2876526e-06 0)
(0.036318968 -3.3045275e-06 0)
(0.037265405 2.8881411e-06 0)
(0.036377491 -2.8156548e-06 0)
(0.037211087 2.6043406e-06 0)
(0.036428779 -2.4637678e-06 0)
(0.037163053 2.3072055e-06 0)
(0.036473951 -2.1725439e-06 0)
(0.037120652 2.0403644e-06 0)
(0.036513807 -1.9203609e-06 0)
(0.037083206 1.8055846e-06 0)
(0.036549018 -1.7001107e-06 0)
(0.0370501 1.5999166e-06 0)
(0.036580167 -1.507521e-06 0)
(0.037020789 1.4200117e-06 0)
(0.036607766 -1.3391947e-06 0)
(0.036994796 1.2628173e-06 0)
(0.036632266 -1.1922222e-06 0)
(0.036971697 1.1256426e-06 0)
(0.036654062 -1.0640849e-06 0)
(0.03695112 1.006154e-06 0)
(0.036673507 -9.5259942e-07 0)
(0.036932735 9.0231795e-07 0)
(0.036690909 -8.5586797e-07 0)
(0.036916249 8.1237873e-07 0)
(0.036706546 -7.722632e-07 0)
(0.036901402 7.3482932e-07 0)
(0.036720662 -7.003838e-07 0)
(0.036887964 6.6837217e-07 0)
(0.036733476 -6.390255e-07 0)
(0.036875726 6.1190267e-07 0)
(0.036745186 -5.8717622e-07 0)
(0.0368645 5.6448898e-07 0)
(0.03675597 -5.4397713e-07 0)
(0.036854117 5.2534867e-07 0)
(0.036765992 -5.0871044e-07 0)
(0.03684442 4.9382406e-07 0)
(0.036775402 -4.8077676e-07 0)
(0.036835264 4.6936062e-07 0)
(0.036784339 -4.5962455e-07 0)
(0.036826512 4.5151271e-07 0)
(0.036792938 -4.4435411e-07 0)
(0.036818027 4.3793201e-07 0)
(0.036801333 -4.6300597e-07 0)
(0.036809817 4.0619527e-07 0)
(0.03676072 0.0035053124 0)
(0.038921769 -8.5389684e-05 0)
(0.037629454 1.1450009e-05 0)
(0.038887264 5.8575897e-07 0)
(0.037697732 -3.9218727e-06 0)
(0.038829598 2.2235799e-06 0)
(0.037775143 -3.305642e-06 0)
(0.038766121 2.8789073e-06 0)
(0.037836249 -2.810286e-06 0)
(0.038709214 2.5976827e-06 0)
(0.037889909 -2.4582499e-06 0)
(0.038658927 2.301724e-06 0)
(0.037937187 -2.1676184e-06 0)
(0.038614541 2.0356813e-06 0)
(0.037978907 -1.9160698e-06 0)
(0.038575339 1.8015491e-06 0)
(0.038015768 -1.6963948e-06 0)
(0.038540679 1.5964341e-06 0)
(0.03804838 -1.5043108e-06 0)
(0.03850999 1.417008e-06 0)
(0.038077278 -1.3364243e-06 0)
(0.038482772 1.2602273e-06 0)
(0.038102933 -1.1898312e-06 0)
(0.038458582 1.1234086e-06 0)
(0.038125759 -1.0620208e-06 0)
(0.038437031 1.0042253e-06 0)
(0.038146125 -9.5081558e-07 0)
(0.038417773 9.0065067e-07 0)
(0.038164354 -8.5432287e-07 0)
(0.038400503 8.109322e-07 0)
(0.038180735 -7.7091952e-07 0)
(0.038384948 7.3357014e-07 0)
(0.038195525 -6.992109e-07 0)
(0.038370868 6.6726923e-07 0)
(0.038208952 -6.3799334e-07 0)
(0.038358043 6.1092912e-07 0)
(0.038221223 -5.8626192e-07 0)
(0.038346279 5.6362236e-07 0)
(0.038232526 -5.4315731e-07 0)
(0.038335396 5.2456533e-07 0)
(0.03824303 -5.0796313e-07 0)
(0.038325232 4.9310499e-07 0)
(0.038252893 -4.8008391e-07 0)
(0.038315634 4.6868418e-07 0)
(0.038262262 -4.5895992e-07 0)
(0.03830646 4.5085228e-07 0)
(0.038271276 -4.4365644e-07 0)
(0.038297567 4.3723751e-07 0)
(0.038280072 -4.6298994e-07 0)
(0.038288924 4.0448228e-07 0)
(0.038256777 0.0034715183 0)
(0.040327679 -8.9926718e-05 0)
(0.039028132 1.1016821e-05 0)
(0.040325024 6.5138301e-07 0)
(0.039086305 -3.9983953e-06 0)