/*--------------------------------*- C++ -*----------------------------------*\
| =========                 |                                                 |
| \\      /  F ield         | OpenFOAM: The Open Source CFD Toolbox           |
|  \\    /   O peration     | Version:  2312                                  |
|   \\  /    A nd           | Website:  www.openfoam.com                      |
|    \\/     M anipulation  |                                                 |
\*---------------------------------------------------------------------------*/
FoamFile
{
    version     2.0;
    format      ascii;
    arch        "LSB;label=32;scalar=64";
    class       surfaceScalarField;
    location    "8";
    object      phi_0;
}
// * * * * * * * * * * * * * * * * * * * * * * * * * * * * * * * * * * * * * //

dimensions      [0 3 -1 0 0 0 0];

oriented        oriented;

internalField   nonuniform List<scalar> 
7870
(
1.8366763e-10
3.2779574e-09
1.7964084e-10
4.0268083e-12
1.3085493e-10
4.8785909e-11
1.4047947e-10
-9.6245267e-12
1.3425737e-10
6.2220897e-12
1.3497519e-10
-7.178081e-13
1.3316883e-10
1.8063513e-12
1.3352682e-10
-3.5799303e-13
1.3263823e-10
8.8858232e-13
1.3324364e-10
-6.0540725e-13
1.325577e-10
6.8592884e-13
1.3317842e-10
-6.2070524e-13
1.3257005e-10
6.0835933e-13
1.3314326e-10
-5.7320009e-13
1.3259629e-10
5.4696411e-13
1.3311229e-10
-5.1598188e-13
1.3262296e-10
4.8933252e-13
1.3308471e-10
-4.6174172e-13
1.3264769e-10
4.3702218e-13
1.3306046e-10
-4.1277169e-13
1.3266996e-10
3.9049657e-13
1.330391e-10
-3.6913576e-13
1.326898e-10
3.4929813e-13
1.3302026e-10
-3.3046319e-13
1.3270734e-10
3.129117e-13
1.3300367e-10
-2.9633569e-13
1.3272278e-10
2.8088953e-13
1.3298913e-10
-2.6635816e-13
1.3273629e-10
2.5283782e-13
1.3297645e-10
-2.4016464e-13
1.3274805e-10
2.2840105e-13
1.3296547e-10
-2.1741842e-13
1.3275821e-10
2.0725651e-13
1.3295602e-10
-1.9781349e-13
1.3276691e-10
1.8911371e-13
1.3294799e-10
-1.8107613e-13
1.3277427e-10
1.7371512e-13
1.3294124e-10
-1.669658e-13
1.327804e-10
1.6083668e-13
1.3293568e-10
-1.5527505e-13
1.3278539e-10
1.5028727e-13
1.3293122e-10
-1.45831e-13
1.3278932e-10
1.419005e-13
1.3292783e-10
-1.3850727e-13
1.3279229e-10
1.3554163e-13
1.3292536e-10
-1.3307317e-13
1.3279361e-10
1.3175526e-13
1.3292097e-10
-1.2736642e-13
1.3278568e-10
1.3529694e-13
-1.2317807e-13
4.6640605e-10
6.2731763e-09
5.0163662e-10
-3.1203732e-11
3.924692e-10
1.5795332e-10
4.0414316e-10
-2.1298461e-11
3.9025355e-10
2.011168e-11
3.9078405e-10
-1.2482855e-12
3.8717447e-10
5.4159026e-12
3.8698736e-10
-1.7087352e-13
3.8556462e-10
2.3112911e-12
3.8626129e-10
-1.3020643e-12
3.8527889e-10
1.6683012e-12
3.861389e-10
-1.4806777e-12
3.8526813e-10
1.4791044e-12
3.8608949e-10
-1.3945275e-12
3.8529965e-10
1.336798e-12
3.8604424e-10
-1.2605344e-12
3.8533603e-10
1.1975365e-12
3.8600346e-10
-1.1291485e-12
3.8537106e-10
1.0694162e-12
3.8596795e-10
-1.0096468e-12
3.8540308e-10
9.5535812e-13
3.8593686e-10
-9.0292361e-13
3.8543174e-10
8.5441616e-13
3.8590954e-10
-8.0827525e-13
3.8545714e-10
7.6530748e-13
3.8588553e-10
-7.2474064e-13
3.854795e-10
6.8691614e-13
3.858645e-10
-6.513714e-13
3.8549906e-10
6.1826504e-13
3.8584616e-10
-5.8727387e-13
3.8551609e-10
5.5847415e-13
3.8583029e-10
-5.3162047e-13
3.8553079e-10
5.0674607e-13
3.8581664e-10
-4.8365773e-13
3.8554339e-10
4.6236457e-13
3.8580502e-10
-4.4271193e-13
3.8555404e-10
4.2469588e-13
3.8579527e-10
-4.0819158e-13
3.8556292e-10
3.9318941e-13
3.8578723e-10
-3.7958646e-13
3.8557014e-10
3.6737622e-13
3.8578078e-10
-3.5647144e-13
3.8557584e-10
3.4684167e-13
3.857759e-10
-3.3855743e-13
3.8558024e-10
3.311982e-13
3.8577248e-10
-3.2531502e-13
3.8558221e-10
3.2202599e-13
3.8576475e-10
-3.0990313e-13
3.8556264e-10
3.3740633e-13
-3.006568e-13
6.9645692e-10
9.0383444e-09
7.9208258e-10
-1.2682936e-10
6.4645406e-10
3.0358184e-10
6.6045017e-10
-3.5294544e-11
6.3932882e-10
4.1233006e-11
6.3951913e-10
-1.4385841e-12
6.34716e-10
1.0219002e-11
6.3365015e-10
8.9499489e-13
6.3216306e-10
3.7983343e-12
6.3258668e-10
-1.7256551e-12
6.3168211e-10
2.5728352e-12
6.32447e-10
-2.2455328e-12
6.3163694e-10
2.2891492e-12
6.3240506e-10
-2.1626107e-12
6.3165862e-10
2.0832298e-12
6.3236199e-10
-1.963867e-12
6.3169025e-10
1.8692799e-12
6.3232221e-10
-1.7610862e-12
6.317225e-10
1.6691207e-12
6.3228796e-10
-1.5750952e-12
6.3175259e-10
1.4907261e-12
6.3225825e-10
-1.4085923e-12
6.3177971e-10
1.3329494e-12
6.3223225e-10
-1.2608323e-12
6.318038e-10
1.1937507e-12
6.3220945e-10
-1.1304158e-12
6.3182501e-10
1.0713493e-12
6.3218952e-10
-1.015888e-12
6.3184358e-10
9.6419362e-13
6.3217215e-10
-9.1585312e-13
6.3185973e-10
8.7089103e-13
6.3215712e-10
-8.2901131e-13
6.3187368e-10
7.9018319e-13
6.321442e-10
-7.5417796e-13
6.3188562e-10
7.2094284e-13
6.321332e-10
-6.9029484e-13
6.3189572e-10
6.6217469e-13
6.3212397e-10
-6.3643386e-13
6.3190414e-10
6.1301531e-13
6.3211635e-10
-5.917943e-13
6.31911e-10
5.7273034e-13
6.3211024e-10
-5.5570882e-13
6.3191642e-10
5.4065861e-13
6.3210562e-10
-5.2775787e-13
6.3192072e-10
5.1610069e-13
6.3210255e-10
-5.0714286e-13
6.3192258e-10
5.0199992e-13
6.320931e-10
-4.8042226e-13
6.3189301e-10
5.3749718e-13
-4.6796232e-13
9.5625051e-10
1.1543719e-08
1.0709022e-09
-2.41481e-10
8.9240659e-10
4.8207742e-10
9.0960751e-10
-5.2495434e-11
8.8125512e-10
6.9585372e-11
8.8140838e-10
-1.5918259e-12
8.7555855e-10
1.6068799e-11
8.7372492e-10
2.7286435e-12
8.722419e-10
5.2813097e-12
8.7240646e-10
-1.89019e-12
8.7159466e-10
3.3846006e-12
8.722673e-10
-2.9181368e-12
8.7152243e-10
3.0339994e-12
8.7223631e-10
-2.876441e-12
8.7153596e-10
2.7835665e-12
8.7219604e-10
-2.6239092e-12
8.7156316e-10
2.5021586e-12
8.7215746e-10
-2.3553599e-12
8.7159264e-10
2.233939e-12
8.7212461e-10
-2.1070615e-12
8.716207e-10
1.9946341e-12
8.7209638e-10
-1.8842834e-12
8.7164617e-10
1.7831525e-12
8.720718e-10
-1.6864768e-12
8.7166885e-10
1.5966968e-12
8.720503e-10
-1.5118907e-12
8.7168883e-10
1.4328212e-12
8.7203153e-10
-1.3586036e-12
8.7170631e-10
1.2894087e-12
8.7201518e-10
-1.2247421e-12
8.7172151e-10
1.1645674e-12
8.7200104e-10
-1.1085536e-12
8.7173463e-10
1.0565945e-12
8.7198889e-10
-1.0084412e-12
8.7174586e-10
9.6396921e-13
8.7197855e-10
-9.229801e-13
8.7175537e-10
8.8535151e-13
8.7196986e-10
-8.5092187e-13
8.717633e-10
8.1958056e-13
8.719627e-10
-7.9118909e-13
8.7176976e-10
7.6567e-13
8.7195693e-10
-7.4288242e-13
8.7177488e-10
7.2271631e-13
8.719526e-10
-7.0547977e-13
8.7177905e-10
6.8964633e-13
8.7194989e-10
-6.7797718e-13
8.7178098e-10
6.7091309e-13
8.7193946e-10
-6.3890697e-13
8.7174375e-10
7.3320661e-13
-6.2470091e-13
1.1769818e-09
1.3828362e-08
1.3256825e-09
-3.9018168e-10
1.1304113e-09
6.7734867e-10
1.1519744e-09
-7.4058511e-11
1.1160404e-09
1.055193e-10
1.1164514e-09
-2.0028077e-12
1.1096744e-09
2.2845793e-11
1.107211e-09
5.1920926e-12
1.1058017e-09
6.6904958e-12
1.1057227e-09
-1.8110924e-12
1.1050168e-09
4.0904487e-12
1.1056e-09
-3.5013184e-12
1.1049244e-09
3.7095966e-12
1.105583e-09
-3.5350383e-12
1.1049313e-09
3.4352379e-12
1.1055462e-09
-3.2386885e-12
1.1049545e-09
3.0938632e-12
1.105509e-09
-2.9098972e-12
1.1049812e-09
2.7617808e-12
1.1054777e-09
-2.6036263e-12
1.1050071e-09
2.46523e-12
1.1054511e-09
-2.3282796e-12
1.1050309e-09
2.2033951e-12
1.1054281e-09
-2.0836896e-12
1.1050521e-09
1.9727121e-12
1.105408e-09
-1.8678251e-12
1.1050707e-09
1.7700687e-12
1.1053904e-09
-1.6783338e-12
1.1050871e-09
1.5927926e-12
1.1053752e-09
-1.5128898e-12
1.1051012e-09
1.4385099e-12
1.105362e-09
-1.3693106e-12
1.1051135e-09
1.3050928e-12
1.1053507e-09
-1.2456084e-12
1.105124e-09
1.190647e-12
1.105341e-09
-1.140012e-12
1.1051329e-09
1.093507e-12
1.1053329e-09
-1.0509711e-12
1.1051403e-09
1.0122317e-12
1.1053262e-09
-9.7714691e-13
1.1051463e-09
9.4559738e-13
1.1053208e-09
-9.17419e-13
1.1051511e-09
8.9246535e-13
1.1053168e-09
-8.7118714e-13
1.1051551e-09
8.5133111e-13
1.1053145e-09
-8.3732506e-13
1.1051572e-09
8.2819531e-13
1.1053035e-09
-7.8527401e-13
1.1051143e-09
9.2249757e-13
-7.6942177e-13
1.3849148e-09
1.5905072e-08
1.5727036e-09
-5.7797039e-10
1.3615993e-09
8.884529e-10
1.3869593e-09
-9.9418401e-11
1.3436775e-09
1.4880107e-10
1.3446483e-09
-2.9736358e-12
1.3370503e-09
3.0443768e-11
1.3341174e-09
8.1250537e-12
1.3328452e-09
7.9625735e-12
1.3325392e-09
-1.5050524e-12
1.3319494e-09
4.6802741e-12
1.3324461e-09
-3.9980541e-12
1.3318428e-09
4.3128782e-12
1.3324456e-09
-4.137776e-12
1.3318447e-09
4.0361877e-12
1.3324126e-09
-3.8066343e-12
1.331864e-09
3.6425012e-12
1.3323771e-09
-3.4230176e-12
1.331888e-09
3.2509465e-12
1.3323476e-09
-3.0632409e-12
1.3319118e-09
2.901026e-12
1.3323227e-09
-2.7392056e-12
1.3319337e-09
2.5923806e-12
1.3323013e-09
-2.4512622e-12
1.3319533e-09
2.3206638e-12
1.3322826e-09
-2.1971574e-12
1.3319706e-09
2.0820971e-12
1.3322664e-09
-1.9741428e-12
1.3319857e-09
1.8734671e-12
1.3322523e-09
-1.7794674e-12
1.3319989e-09
1.6919383e-12
1.3322401e-09
-1.6105442e-12
1.3320102e-09
1.534981e-12
1.3322296e-09
-1.4650187e-12
1.3320199e-09
1.4003502e-12
1.3322207e-09
-1.3407959e-12
1.3320281e-09
1.2860762e-12
1.3322132e-09
-1.2360436e-12
1.332035e-09
1.1904558e-12
1.332207e-09
-1.1491783e-12
1.3320406e-09
1.1120443e-12
1.332202e-09
-1.0788703e-12
1.332045e-09
1.0494774e-12
1.3321983e-09
-1.0244627e-12
1.3320488e-09
1.0007693e-12
1.3321963e-09
-9.8480445e-13
1.3320511e-09
9.7342881e-13
1.3321853e-09
-9.1948955e-13
1.3320042e-09
1.1036117e-12
-9.0095516e-13
1.5963112e-09
1.7770386e-08
1.7969643e-09
-7.7862343e-10
1.584757e-09
1.1006602e-09
1.6136296e-09
-1.2829094e-10
1.5642941e-09
1.9813652e-10
1.5660553e-09
-4.7348216e-12
1.5577075e-09
3.8791598e-11
1.5544622e-09
1.1370378e-11
1.5533757e-09
9.048945e-12
1.5528605e-09
-9.8981316e-13
1.5523935e-09
5.1472336e-12
1.5528068e-09
-4.4112757e-12
1.5522779e-09
4.8417923e-12
1.5528245e-09
-4.684336e-12
1.5522757e-09
4.5849116e-12
1.5527957e-09
-4.3265894e-12
1.5522916e-09
4.1466321e-12
1.5527621e-09
-3.8934613e-12
1.5523128e-09
3.7001542e-12
1.5527344e-09
-3.4847544e-12
1.5523345e-09
3.3009173e-12
1.5527113e-09
-3.116051e-12
1.5523545e-09
2.9491569e-12
1.5526916e-09
-2.7883137e-12
1.5523725e-09
2.639726e-12
1.5526744e-09
-2.4991176e-12
1.5523883e-09
2.3681841e-12
1.5526595e-09
-2.2453534e-12
1.5524022e-09
2.1307954e-12
1.5526466e-09
-2.0238754e-12
1.5524142e-09
1.9242873e-12
1.5526354e-09
-1.8317203e-12
1.5524246e-09
1.7457542e-12
1.5526258e-09
-1.6661937e-12
1.5524335e-09
1.5926255e-12
1.5526176e-09
-1.5249007e-12
1.5524411e-09
1.4626493e-12
1.5526108e-09
-1.4057486e-12
1.5524474e-09
1.3538806e-12
1.5526051e-09
-1.3069271e-12
1.5524525e-09
1.2646703e-12
1.5526005e-09
-1.2269101e-12
1.5524566e-09
1.1934414e-12
1.5525971e-09
-1.1650026e-12
1.5524602e-09
1.1376857e-12
1.5525955e-09
-1.1201345e-12
1.5524626e-09
1.1063264e-12
1.5525847e-09
-1.0415669e-12
1.5524133e-09
1.2750557e-12
-1.018637e-12
1.7636855e-09
1.9468326e-08
2.0099858e-09
-1.0249237e-09
1.7991358e-09
1.3115102e-09
1.8272086e-09
-1.563637e-10
1.7773196e-09
2.4802546e-10
1.7805346e-09
-7.9497377e-12
1.7716306e-09
4.769553e-11
1.7682576e-09
1.47434e-11
1.7673933e-09
9.9131778e-12
1.7666898e-09
-2.8632434e-13
1.7663501e-09
5.4869023e-12
1.7666828e-09
-4.7439049e-12
1.7662295e-09
5.2950651e-12
1.7667199e-09
-5.1746611e-12
1.7662244e-09
5.0803764e-12
1.7666956e-09
-4.797762e-12
1.766237e-09
4.6052175e-12
1.7666639e-09
-4.3203466e-12
1.7662556e-09
4.1084967e-12
1.7666382e-09
-3.8673716e-12
1.766275e-09
3.6641407e-12
1.7666171e-09
-3.4581264e-12
1.7662931e-09
3.2730775e-12
1.766599e-09
-3.0942488e-12
1.7663094e-09
2.9293437e-12
1.7665835e-09
-2.7731885e-12
1.7663238e-09
2.6278472e-12
1.7665699e-09
-2.4915124e-12
1.7663364e-09
2.3643533e-12
1.7665582e-09
-2.2457132e-12
1.7663473e-09
2.1351806e-12
1.7665481e-09
-2.0324824e-12
1.7663568e-09
1.937076e-12
1.7665394e-09
-1.8488137e-12
1.7663648e-09
1.7671698e-12
1.766532e-09
-1.692038e-12
1.7663717e-09
1.6229522e-12
1.7665257e-09
-1.5598245e-12
1.7663774e-09
1.5022566e-12
1.7665206e-09
-1.4501549e-12
1.766382e-09
1.4032474e-12
1.7665164e-09
-1.3613204e-12
1.7663857e-09
1.3241494e-12
1.7665133e-09
-1.2926033e-12
1.7663891e-09
1.261902e-12
1.7665121e-09
-1.2431238e-12
1.7663917e-09
1.2267097e-12
1.7665017e-09
-1.1515621e-12
1.7663412e-09
1.4355686e-12
-1.1221899e-12
1.9488911e-09
2.0981059e-08
2.2028665e-09
-1.278899e-09
2.0041383e-09
1.5102384e-09
2.026382e-09
-1.7860736e-10
1.9827254e-09
2.9168199e-10
1.9880242e-09
-1.3248541e-11
1.9788457e-09
5.687407e-11
1.9755162e-09
1.807284e-11
1.9748985e-09
1.0530896e-11
1.9740306e-09
5.8160204e-13
1.9738204e-09
5.6970173e-12
1.9740751e-09
-4.9985368e-12
1.973698e-09
5.6721595e-12
1.9741322e-09
-5.6088546e-12
1.9736906e-09
5.5219957e-12
1.9741125e-09
-5.2196708e-12
1.9737002e-09
5.0175936e-12
1.974083e-09
-4.703128e-12
1.9737161e-09
4.4754048e-12
1.9740593e-09
-4.2106131e-12
1.9737332e-09
3.9902349e-12
1.9740401e-09
-3.7650261e-12
1.9737494e-09
3.5637623e-12
1.9740239e-09
-3.3687233e-12
1.973764e-09
3.1891962e-12
1.9740099e-09
-3.0190746e-12
1.9737769e-09
2.8608102e-12
1.9739977e-09
-2.7123626e-12
1.9737882e-09
2.5738994e-12
1.9739872e-09
-2.4447544e-12
1.973798e-09
2.3244047e-12
1.9739781e-09
-2.2126288e-12
1.9738065e-09
2.108756e-12
1.9739703e-09
-2.0126978e-12
1.9738137e-09
1.9238122e-12
1.9739637e-09
-1.8420446e-12
1.9738198e-09
1.7668301e-12
1.9739581e-09
-1.6981231e-12
1.9738249e-09
1.6354429e-12
1.9739535e-09
-1.5787269e-12
1.9738291e-09
1.5276468e-12
1.9739498e-09
-1.4819782e-12
1.9738324e-09
1.4414852e-12
1.973947e-09
-1.4071503e-12
1.9738356e-09
1.3733252e-12
1.9739461e-09
-1.3536605e-12
1.9738383e-09
1.334495e-12
1.9739363e-09
-1.2495703e-12
1.9737878e-09
1.5840962e-12
-1.2116105e-12
2.0952059e-09
2.2347478e-08
2.3850612e-09
-1.5687542e-09
2.1985016e-09
1.696798e-09
2.2138379e-09
-1.9394358e-10
2.1809559e-09
3.2456388e-10
2.1883223e-09
-2.0614833e-11
2.1793537e-09
6.5842557e-11
2.1762444e-09
2.1182153e-11
2.1758923e-09
1.0882989e-11
2.1748857e-09
1.5882118e-12
2.1748058e-09
5.7769138e-12
2.1749845e-09
-5.1772275e-12
2.1746835e-09
5.9731913e-12
2.1750618e-09
-5.9871652e-12
2.1746742e-09
5.9095903e-12
2.1750467e-09
-5.5921256e-12
2.1746809e-09
5.3834417e-12
2.1750193e-09
-5.041568e-12
2.1746941e-09
4.8006173e-12
2.1749978e-09
-4.5142835e-12
2.174709e-09
4.2790095e-12
2.1749806e-09
-4.0365959e-12
2.1747233e-09
3.821069e-12
2.1749661e-09
-3.6116142e-12
2.1747361e-09
3.4191719e-12
2.1749537e-09
-3.2366749e-12
2.1747475e-09
3.0669818e-12
2.174943e-09
-2.9078189e-12
2.1747575e-09
2.7593561e-12
2.1749337e-09
-2.6209253e-12
2.1747662e-09
2.4918922e-12
2.1749257e-09
-2.372095e-12
2.1747737e-09
2.2607342e-12
2.1749188e-09
-2.1577887e-12
2.1747801e-09
2.0624985e-12
2.1749129e-09
-1.9748688e-12
2.1747855e-09
1.894234e-12
2.174908e-09
-1.8205977e-12
2.17479e-09
1.7533951e-12
2.1749039e-09
-1.6926007e-12
2.1747937e-09
1.6378287e-12
2.1749006e-09
-1.5888465e-12
2.1747967e-09
1.5454147e-12
2.1748981e-09
-1.5086093e-12
2.1747995e-09
1.4719393e-12
2.1748976e-09
-1.4517054e-12
2.1748024e-09
1.429681e-12
2.1748885e-09
-1.3357239e-12
2.1747528e-09
1.719772e-12
-1.2871041e-12
2.2655194e-09
2.3543584e-08
2.549617e-09
-1.8528518e-09
2.3813094e-09
1.8651055e-09
2.3938089e-09
-2.0644305e-10
2.3723767e-09
3.4599607e-10
2.3811857e-09
-2.9423803e-11
2.3731596e-09
7.3868642e-11
2.3704593e-09
2.3882402e-11
2.3703747e-09
1.0967554e-11
2.3692578e-09
2.7052211e-12
2.3693074e-09
5.727197e-12
2.3694117e-09
-5.2814435e-12
2.369186e-09
6.1988251e-12
2.3695089e-09
-6.3100145e-12
2.3691752e-09
6.2433413e-12
2.3694983e-09
-5.9152159e-12
2.369179e-09
5.7027605e-12
2.3694731e-09
-5.3357115e-12
2.3691896e-09
5.0841528e-12
2.3694538e-09
-4.778443e-12
2.3692023e-09
4.5305174e-12
2.3694386e-09
-4.2729071e-12
2.3692146e-09
4.0450663e-12
2.3694259e-09
-3.8229961e-12
2.3692257e-09
3.6193437e-12
2.3694151e-09
-3.4260627e-12
2.3692357e-09
3.2464331e-12
2.3694058e-09
-3.0779504e-12
2.3692443e-09
2.9207903e-12
2.3693977e-09
-2.7742901e-12
2.3692519e-09
2.6377043e-12
2.3693907e-09
-2.5109393e-12
2.3692584e-09
2.3930665e-12
2.3693847e-09
-2.2841391e-12
2.3692639e-09
2.1832797e-12
2.3693796e-09
-2.0905583e-12
2.3692687e-09
2.0052102e-12
2.3693754e-09
-1.9272919e-12
2.3692726e-09
1.856156e-12
2.3693718e-09
-1.7918172e-12
2.3692758e-09
1.733833e-12
2.3693689e-09
-1.6819649e-12
2.3692784e-09
1.6359776e-12
2.3693668e-09
-1.5970181e-12
2.3692809e-09
1.5577968e-12
2.3693665e-09
-1.5372848e-12
2.3692838e-09
1.5123392e-12
2.3693583e-09
-1.4101917e-12
2.3692362e-09
1.8419013e-12
-1.3490405e-12
2.4001954e-09
2.4605014e-08
2.7035616e-09
-2.156218e-09
2.5573247e-09
2.0113424e-09
2.5681384e-09
-2.1725678e-10
2.5572769e-09
3.5685755e-10
2.566769e-09
-3.8915867e-11
2.5603398e-09
8.0297807e-11
2.5581842e-09
2.6037998e-11
2.558349e-09
1.0802742e-11
2.5571497e-09
3.9045091e-12
2.5573273e-09
5.5496047e-12
2.5573574e-09
-5.3115243e-12
2.5572058e-09
6.3503738e-12
2.5574738e-09
-6.5779368e-12
2.5571934e-09
6.5237707e-12
2.5574675e-09
-6.1892886e-12
2.5571944e-09
5.975835e-12
2.5574446e-09
-5.585859e-12
2.5572024e-09
5.3262802e-12
2.5574274e-09
-5.0033799e-12
2.5572129e-09
4.7450275e-12
2.5574142e-09
-4.4742296e-12
2.5572232e-09
4.2360109e-12
2.5574033e-09
-4.0031177e-12
2.5572327e-09
3.7899494e-12
2.5573941e-09
-3.5874647e-12
2.5572412e-09
3.3993808e-12
2.5573862e-09
-3.2229625e-12
2.5572485e-09
3.058398e-12
2.5573793e-09
-2.9050337e-12
2.557255e-09
2.7620178e-12
2.5573733e-09
-2.6293287e-12
2.5572605e-09
2.5059121e-12
2.5573683e-09
-2.3918996e-12
2.5572652e-09
2.2862994e-12
2.5573639e-09
-2.18925e-12
2.5572693e-09
2.0998892e-12
2.5573603e-09
-2.0183306e-12
2.5572726e-09
1.9438452e-12
2.5573573e-09
-1.8764917e-12
2.5572753e-09
1.8157713e-12
2.5573548e-09
-1.761442e-12
2.5572775e-09
1.71328e-12
2.557353e-09
-1.6724795e-12
2.5572798e-09
1.6310117e-12
2.557353e-09
-1.6104848e-12
2.5572827e-09
1.5826045e-12
2.5573457e-09
-1.4731758e-12
2.5572376e-09
1.9499467e-12
-1.3979167e-12
2.5642631e-09
2.5502376e-08
2.8464374e-09
-2.4383923e-09
2.7266603e-09
2.1311196e-09
2.7370874e-09
-2.2768382e-10
2.7357152e-09
3.582297e-10
2.7454587e-09
-4.865941e-11
2.7409839e-09
8.4772618e-11
2.7394381e-09
2.7583864e-11
2.7398164e-09
1.0424347e-11
2.7385628e-09
5.1581315e-12
2.7388667e-09
5.2456496e-12
2.7388221e-09
-5.2668377e-12
2.7387428e-09
6.4296335e-12
2.7389566e-09
-6.791648e-12
2.7387287e-09
6.7516535e-12
2.7389544e-09
-6.414956e-12
2.738727e-09
6.2031884e-12
2.7389337e-09
-5.7925473e-12
2.7387325e-09
5.5274848e-12
2.7389187e-09
-5.1895847e-12
2.7387408e-09
4.9229971e-12
2.7389075e-09
-4.6410097e-12
2.7387492e-09
4.3943235e-12
2.7388985e-09
-4.1523822e-12
2.738757e-09
3.9313705e-12
2.7388908e-09
-3.7212438e-12
2.738764e-09
3.5261689e-12
2.7388842e-09
-3.3431812e-12
2.7387701e-09
3.1724883e-12
2.7388785e-09
-3.0134493e-12
2.7387754e-09
2.8651107e-12
2.7388736e-09
-2.7275265e-12
2.73878e-09
2.5995215e-12
2.7388694e-09
-2.4813081e-12
2.7387839e-09
2.3717842e-12
2.7388658e-09
-2.271159e-12
2.7387872e-09
2.1784773e-12
2.7388628e-09
-2.0939103e-12
2.73879e-09
2.0166516e-12
2.7388603e-09
-1.9468054e-12
2.7387923e-09
1.8838186e-12
2.7388583e-09
-1.8274476e-12
2.7387941e-09
1.7774871e-12
2.7388568e-09
-1.7351541e-12
2.738796e-09
1.691753e-12
2.738857e-09
-1.671445e-12
2.7387989e-09
1.6406673e-12
2.7388507e-09
-1.5249098e-12
2.7387571e-09
2.0435146e-12
-1.4343249e-12
2.6933944e-09
2.6270606e-08
2.9832842e-09
-2.728282e-09
2.8913376e-09
2.2230661e-09
2.9001398e-09
-2.3648601e-10
2.9078522e-09
3.5051726e-10
2.9176815e-09
-5.8488618e-11
2.9151779e-09
8.7276133e-11
2.914243e-09
2.8518763e-11
2.9147795e-09
9.8878465e-12
2.9134987e-09
6.4389524e-12
2.9139279e-09
4.8164211e-12
2.9138066e-09
-5.1455001e-12
2.9137971e-09
6.4391055e-12
2.9139574e-09
-6.9518768e-12
2.913781e-09
6.9280558e-12
2.9139591e-09
-6.5930343e-12
2.9137767e-09
6.3855647e-12
2.9139407e-09
-5.9565161e-12
2.9137797e-09
5.6884421e-12
2.9139279e-09
-5.3377254e-12
2.9137858e-09
5.0650487e-12
2.9139187e-09
-4.7738466e-12
2.9137924e-09
4.5205691e-12
2.9139113e-09
-4.2713266e-12
2.9137986e-09
4.0441157e-12
2.9139052e-09
-3.8278813e-12
2.9138041e-09
3.627254e-12
2.9139e-09
-3.439038e-12
2.913809e-09
3.263471e-12
2.9138954e-09
-3.0999239e-12
2.9138132e-09
2.947351e-12
2.9138915e-09
-2.8058812e-12
2.9138168e-09
2.6742259e-12
2.9138882e-09
-2.5526788e-12
2.9138199e-09
2.4400337e-12
2.9138854e-09
-2.3365706e-12
2.9138226e-09
2.2412466e-12
2.913883e-09
-2.1542914e-12
2.9138248e-09
2.0748252e-12
2.913881e-09
-2.0029985e-12
2.9138266e-09
1.9382064e-12
2.9138794e-09
-1.8802063e-12
2.913828e-09
1.8288166e-12
2.9138781e-09
-1.7852542e-12
2.9138297e-09
1.740238e-12
2.9138786e-09
-1.7203532e-12
2.9138325e-09
1.6867664e-12
2.9138732e-09
-1.5656562e-12
2.9137944e-09
2.1223427e-12
-1.4589258e-12
2.8468025e-09
2.6885429e-08
3.1145767e-09
-2.9960562e-09
3.0507361e-09
2.2869067e-09
3.0572514e-09
-2.4300126e-10
3.0737732e-09
3.3399548e-10
3.0837068e-09
-6.8422203e-11
3.0829733e-09
8.8009598e-11
3.0826129e-09
2.8879099e-11
3.0832377e-09
9.263094e-12
3.0819572e-09
7.7193865e-12
3.0825115e-09
4.2621254e-12
3.0823113e-09
-4.9452845e-12
3.0823687e-09
6.3817066e-12
3.0824763e-09
-7.0594491e-12
3.0823501e-09
7.0542391e-12
3.0824817e-09
-6.724549e-12
3.0823434e-09
6.523883e-12
3.0824656e-09
-6.0786899e-12
3.082344e-09
5.8099886e-12
3.0824549e-09
-5.448625e-12
3.082348e-09
5.1719467e-12
3.0824476e-09
-4.873474e-12
3.0823528e-09
4.6154373e-12
3.082442e-09
-4.3606064e-12
3.0823573e-09
4.1288039e-12
3.0824374e-09
-3.9079631e-12
3.0823615e-09
3.7031904e-12
3.0824335e-09
-3.5110573e-12
3.0823651e-09
3.3318428e-12
3.0824301e-09
-3.1649279e-12
3.0823682e-09
3.0091847e-12
3.0824272e-09
-2.8648154e-12
3.082371e-09
2.7304272e-12
3.0824247e-09
-2.6063931e-12
3.0823733e-09
2.4914112e-12
3.0824226e-09
-2.3858308e-12
3.0823753e-09
2.2885281e-12
3.0824208e-09
-2.1997902e-12
3.0823769e-09
2.1186697e-12
3.0824193e-09
-2.0453627e-12
3.0823783e-09
1.9792165e-12
3.0824181e-09
-1.919991e-12
3.0823794e-09
1.8675331e-12
3.0824171e-09
-1.8230377e-12
3.0823807e-09
1.7767272e-12
3.0824177e-09
-1.7574404e-12
3.0823833e-09
1.7211823e-12
3.0824134e-09
-1.5957036e-12
3.0823494e-09
2.1862885e-12
-1.4724255e-12
2.9817046e-09
2.7365349e-08
3.2412405e-09
-3.2555921e-09
3.2057271e-09
2.3224201e-09
3.2084972e-09
-2.4577126e-10
3.2336092e-09
3.0888344e-10
3.2436402e-09
-7.845322e-11
3.24439e-09
8.7259805e-11
3.2445546e-09
2.8714527e-11
3.2451906e-09
8.6270445e-12
3.2439409e-09
8.9691346e-12
3.2446173e-09
3.5856252e-12
3.2443367e-09
-4.6645846e-12
3.2444576e-09
6.2607124e-12
3.2445135e-09
-7.1152421e-12
3.2444361e-09
7.1316452e-12
3.2445222e-09
-6.8106979e-12
3.2444269e-09
6.6192151e-12
3.2445084e-09
-6.1601518e-12
3.2444253e-09
5.8930985e-12
3.2444999e-09
-5.5232417e-12
3.2444273e-09
5.2445778e-12
3.2444945e-09
-4.9407421e-12
3.2444302e-09
4.6797259e-12
3.2444906e-09
-4.4209784e-12
3.2444332e-09
4.1861498e-12
3.2444874e-09
-3.9621652e-12
3.244436e-09
3.7546179e-12
3.2444848e-09
-3.5598439e-12
3.2444384e-09
3.3781768e-12
3.2444825e-09
-3.2090034e-12
3.2444405e-09
3.0511262e-12
3.2444805e-09
-2.9048167e-12
3.2444424e-09
2.7685887e-12
3.2444789e-09
-2.6428915e-12
3.2444439e-09
2.5263363e-12
3.2444775e-09
-2.4193396e-12
3.2444453e-09
2.3207041e-12
3.2444763e-09
-2.2307724e-12
3.2444464e-09
2.148536e-12
3.2444753e-09
-2.0742357e-12
3.2444473e-09
2.0071745e-12
3.2444744e-09
-1.9471171e-12
3.244448e-09
1.8939423e-12
3.2444738e-09
-1.8488032e-12
3.244449e-09
1.801519e-12
3.2444745e-09
-1.7829764e-12
3.2444515e-09
1.7442316e-12
3.2444712e-09
-1.6153644e-12
3.2444221e-09
2.2353187e-12
-1.4755566e-12
3.1290359e-09
2.7697938e-08
3.3645971e-09
-3.4911532e-09
3.3561066e-09
2.3309106e-09
3.3552579e-09
-2.4492252e-10
3.3875121e-09
2.7662924e-10
3.3974829e-09
-8.8424056e-11
3.3994394e-09
8.5303268e-11
3.4000572e-09
2.8096795e-11
3.4006395e-09
8.0446418e-12
3.3994593e-09
1.0149346e-11
3.4002436e-09
2.8013116e-12
3.3998831e-09
-4.3039977e-12
3.400064e-09
6.079803e-12
3.4000689e-09
-7.1201451e-12
3.4000386e-09
7.1618911e-12
3.4000808e-09
-6.8528141e-12
3.4000272e-09
6.6727696e-12
3.4000692e-09
-6.202116e-12
3.4000235e-09
5.9388664e-12
3.4000629e-09
-5.5626477e-12
3.4000235e-09
5.2839337e-12
3.4000594e-09
-4.9766007e-12
3.4000248e-09
4.7143258e-12
3.4000571e-09
-4.453288e-12
3.4000262e-09
4.2169506e-12
3.4000553e-09
-3.9912417e-12
3.4000277e-09
3.7822495e-12
3.4000539e-09
-3.5860722e-12
3.4000289e-09
3.4031118e-12
3.4000527e-09
-3.2327552e-12
3.4000301e-09
3.0737492e-12
3.4000517e-09
-2.9264289e-12
3.400031e-09
2.7892274e-12
3.4000508e-09
-2.6626651e-12
3.4000319e-09
2.5452772e-12
3.4000501e-09
-2.4375432e-12
3.4000326e-09
2.3382014e-12
3.4000494e-09
-2.2476466e-12
3.4000332e-09
2.1648166e-12
3.4000489e-09
-2.0899947e-12
3.4000337e-09
2.0224446e-12
3.4000485e-09
-1.9619375e-12
3.400034e-09
1.908386e-12
3.4000481e-09
-1.8628848e-12
3.4000347e-09
1.8149448e-12
3.400049e-09
-1.7972651e-12
3.4000369e-09
1.7562621e-12
3.4000466e-09
-1.6249724e-12
3.4000124e-09
2.2694989e-12
-1.4690627e-12
3.270161e-09
2.7889402e-08
3.4816041e-09
-3.7025962e-09
3.5016162e-09
2.3108985e-09
3.4983734e-09
-2.4167979e-10
3.5356149e-09
2.3938778e-10
3.5452036e-09
-9.8012769e-11
3.5481142e-09
8.2392624e-11
3.5490953e-09
2.7115781e-11
3.549589e-09
7.5508175e-12
3.5485263e-09
1.1212076e-11
3.5493864e-09
1.9411615e-12
3.5489508e-09
-3.8682791e-12
3.5491877e-09
5.8428109e-12
3.5491427e-09
-7.0750879e-12
3.5491579e-09
7.1467348e-12
3.5491574e-09
-6.8523467e-12
3.5491443e-09
6.6858713e-12
3.5491482e-09
-6.2059083e-12
3.5491385e-09
5.9484896e-12
3.5491439e-09
-5.5680123e-12
3.5491367e-09
5.291097e-12
3.5491422e-09
-4.9820849e-12
3.5491363e-09
4.7202076e-12
3.5491415e-09
-4.4584556e-12
3.5491363e-09
4.2220744e-12
3.5491411e-09
-3.9960137e-12
3.5491365e-09
3.7868617e-12
3.5491409e-09
-3.5904763e-12
3.5491366e-09
3.4073431e-12
3.5491407e-09
-3.2368413e-12
3.5491368e-09
3.0776781e-12
3.5491406e-09
-2.9302443e-12
3.5491369e-09
2.7929063e-12
3.5491405e-09
-2.6662494e-12
3.549137e-09
2.5487442e-12
3.5491404e-09
-2.4409284e-12
3.5491371e-09
2.3414855e-12
3.5491403e-09
-2.2508587e-12
3.5491372e-09
2.1679398e-12
3.5491403e-09
-2.0930521e-12
3.5491373e-09
2.0254248e-12
3.5491402e-09
-1.9648375e-12
3.5491373e-09
1.9112379e-12
3.5491401e-09
-1.8656476e-12
3.5491377e-09
1.8173652e-12
3.5491411e-09
-1.800641e-12
3.5491397e-09
1.7576476e-12
3.5491396e-09
-1.6248805e-12
3.5491201e-09
2.2889846e-12
-1.4536851e-12
3.4169475e-09
2.793408e-08
3.5958046e-09
-3.8814532e-09
3.6419618e-09
2.2647412e-09
3.6384928e-09
-2.3821074e-10
3.6778679e-09
2.0001265e-10
3.6867616e-09
-1.069065e-10
3.690409e-09
7.8745244e-11
3.6916516e-09
2.5873214e-11
3.6920491e-09
7.1532215e-12
3.691149e-09
1.2112187e-11
3.6920403e-09
1.0499028e-12
3.6915392e-09
-3.3671809e-12
3.691829e-09
5.5530389e-12
3.691735e-09
-6.9810621e-12
3.6917937e-09
7.0880314e-12
3.6917522e-09
-6.8108403e-12
3.6917781e-09
6.6599443e-12
3.6917452e-09
-6.1729461e-12
3.6917704e-09
5.9232541e-12
3.691743e-09
-5.5405858e-12
3.6917669e-09
5.2672266e-12
3.6917431e-09
-4.9583018e-12
3.6917649e-09
4.6984094e-12
3.6917439e-09
-4.4374656e-12
3.6917635e-09
4.2024491e-12
3.6917448e-09
-3.9773591e-12
3.6917624e-09
3.7692841e-12
3.6917457e-09
-3.5738412e-12
3.6917614e-09
3.3916138e-12
3.6917466e-09
-3.2219656e-12
3.6917607e-09
3.0635805e-12
3.6917473e-09
-2.9168964e-12
3.69176e-09
2.7802278e-12
3.6917479e-09
-2.6542173e-12
3.6917594e-09
2.5372837e-12
3.6917485e-09
-2.4300168e-12
3.6917589e-09
2.3310555e-12
3.691749e-09
-2.2408867e-12
3.6917585e-09
2.1583649e-12
3.6917493e-09
-2.0838498e-12
3.6917582e-09
2.0165421e-12
3.6917496e-09
-1.9562307e-12
3.691758e-09
1.9028989e-12
3.6917498e-09
-1.8574836e-12
3.691758e-09
1.8091659e-12
3.6917508e-09
-1.7934653e-12
3.6917597e-09
1.7487844e-12
3.6917503e-09
-1.6154582e-12
3.6917452e-09
2.2940125e-12
-1.4301524e-12
3.5551836e-09
2.7840521e-08
3.702621e-09
-4.0288905e-09
3.7767217e-09
2.1906404e-09
3.7745937e-09
-2.3608268e-10
3.8141529e-09
1.6045347e-10
3.8221314e-09
-1.1488504e-10
3.8263045e-09
7.4572118e-11
3.8277182e-09
2.4459558e-11
3.8280296e-09
6.8417906e-12
3.8273237e-09
1.2818062e-11
3.8281991e-09
1.7448196e-13
3.8276468e-09
-2.8148427e-12
3.8279873e-09
5.2125081e-12
3.8278455e-09
-6.8392241e-12
3.8279459e-09
6.987635e-12
3.8278651e-09
-6.7299556e-12
3.8279285e-09
6.5964744e-12
3.8278604e-09
-6.1047353e-12
3.8279191e-09
5.8645143e-12
3.8278602e-09
-5.4816893e-12
3.8279139e-09
5.2135451e-12
3.827862e-09
-4.9064194e-12
3.8279104e-09
4.6500259e-12
3.8278642e-09
-4.391356e-12
3.8279076e-09
4.1590533e-12
3.8278665e-09
-3.9362034e-12
3.8279053e-09
3.7303916e-12
3.8278685e-09
-3.5369944e-12
3.8279034e-09
3.3567078e-12
3.8278703e-09
-3.1888706e-12
3.8279017e-09
3.0321609e-12
3.8278718e-09
-2.8870538e-12
3.8279002e-09
2.7518277e-12
3.8278732e-09
-2.6271739e-12
3.827899e-09
2.5114728e-12
3.8278744e-09
-2.4053593e-12
3.827898e-09
2.3074387e-12
3.8278753e-09
-2.2182363e-12
3.8278971e-09
2.136578e-12
3.8278761e-09
-2.0628561e-12
3.8278964e-09
1.9962484e-12
3.8278767e-09
-1.9365552e-12
3.8278958e-09
1.8837938e-12
3.8278772e-09
-1.8388084e-12
3.8278956e-09
1.7907541e-12
3.8278782e-09
-1.7761228e-12
3.8278969e-09
1.7300875e-12
3.8278786e-09
-1.5970898e-12
3.8278877e-09
2.2848924e-12
-1.399172e-12
3.6884291e-09
2.7613717e-08
3.8098921e-09
-4.1503535e-09
3.9069577e-09
2.0935748e-09
3.9063104e-09
-2.3543533e-10
3.9443292e-09
1.2243466e-10
3.9512546e-09
-1.2181041e-10
3.9557831e-09
7.0043582e-11
3.9572965e-09
2.2946163e-11
3.9575384e-09
6.5998961e-12
3.9570425e-09
1.3313933e-11
3.9578591e-09
-6.4214822e-13
3.9572722e-09
-2.2278824e-12
3.9576626e-09
4.8220451e-12
3.9574743e-09
-6.6508826e-12
3.9576146e-09
6.8474041e-12
3.9574961e-09
-6.6114424e-12
3.9575956e-09
6.4969998e-12
3.9574937e-09
-6.0028558e-12
3.9575845e-09
5.7736804e-12
3.9574956e-09
-5.3927035e-12
3.9575778e-09
5.1313264e-12
3.957499e-09
-4.8276567e-12
3.9575728e-09
4.5761985e-12
3.9575027e-09
-4.3212098e-12
3.9575688e-09
4.0929069e-12
3.9575061e-09
-3.8735122e-12
3.9575654e-09
3.6710965e-12
3.9575092e-09
-3.4807995e-12
3.9575624e-09
3.3034426e-12
3.9575119e-09
-3.138331e-12
3.9575599e-09
2.9841544e-12
3.9575142e-09
-2.8414145e-12
3.9575577e-09
2.70837e-12
3.9575163e-09
-2.5857515e-12
3.9575558e-09
2.4719147e-12
3.957518e-09
-2.3675321e-12
3.9575542e-09
2.2711868e-12
3.9575195e-09
-2.1834365e-12
3.9575529e-09
2.1030877e-12