/*--------------------------------*- C++ -*----------------------------------*\
| =========                 |                                                 |
| \\      /  F ield         | OpenFOAM: The Open Source CFD Toolbox           |
|  \\    /   O peration     | Version:  2312                                  |
|   \\  /    A nd           | Website:  www.openfoam.com                      |
|    \\/     M anipulation  |                                                 |
\*---------------------------------------------------------------------------*/
FoamFile
{
    version     2.0;
    format      ascii;
    arch        "LSB;label=32;scalar=64";
    class       surfaceScalarField;
    location    "4";
    object      phi;
}
// * * * * * * * * * * * * * * * * * * * * * * * * * * * * * * * * * * * * * //

dimensions      [0 3 -1 0 0 0 0];

oriented        oriented;

internalField   nonuniform List<scalar> 
7870
(
1.6679964e-10
3.2948254e-09
1.7923905e-10
-1.2439406e-11
1.3086507e-10
4.8373987e-11
1.4048584e-10
-9.6207713e-12
1.3429149e-10
6.1943521e-12
1.3496625e-10
-6.7476127e-13
1.3316057e-10
1.8056834e-12
1.3352095e-10
-3.6038542e-13
1.3264642e-10
8.7452205e-13
1.3323476e-10
-5.8833639e-13
1.3256704e-10
6.6771761e-13
1.3316748e-10
-6.0044125e-13
1.325808e-10
5.8668406e-13
1.3313113e-10
-5.5032679e-13
1.3260805e-10
5.2307853e-13
1.3309993e-10
-4.9187863e-13
1.3263497e-10
4.6496739e-13
1.3307246e-10
-4.374902e-13
1.326596e-10
4.1285558e-13
1.3304842e-10
-3.8881586e-13
1.3268172e-10
3.6670539e-13
1.3302725e-10
-3.455373e-13
1.3270142e-10
3.258292e-13
1.3300854e-10
-3.0711902e-13
1.3271892e-10
2.8962387e-13
1.3299201e-10
-2.7309228e-13
1.3273438e-10
2.5763105e-13
1.3297745e-10
-2.4307464e-13
1.3274797e-10
2.2948652e-13
1.329647e-10
-2.1673974e-13
1.3275983e-10
2.048782e-13
1.3295362e-10
-1.937952e-13
1.327701e-10
1.8352393e-13
1.3294407e-10
-1.739717e-13
1.3277891e-10
1.6516446e-13
1.3293593e-10
-1.5702118e-13
1.3278636e-10
1.4956263e-13
1.3292908e-10
-1.4271871e-13
1.3279258e-10
1.3650605e-13
1.3292344e-10
-1.3086505e-13
1.3279763e-10
1.2580963e-13
1.3291892e-10
-1.2129021e-13
1.3280161e-10
1.1731206e-13
1.3291548e-10
-1.1386504e-13
1.328046e-10
1.1087784e-13
1.32913e-10
-1.0839934e-13
1.3280611e-10
1.0688951e-13
1.3290926e-10
-1.0315034e-13
1.3279987e-10
1.0938822e-13
-9.8745042e-14
4.4090951e-10
6.3155409e-09
5.0296723e-10
-7.4497103e-11
3.9288906e-10
1.5845216e-10
4.042062e-10
-2.09379e-11
3.903426e-10
2.0057954e-11
3.9076579e-10
-1.0979573e-12
3.8714244e-10
5.4290214e-12
3.869759e-10
-1.938558e-13
3.8557858e-10
2.2718403e-12
3.862492e-10
-1.2589632e-12
3.8529204e-10
1.6248758e-12
3.8612276e-10
-1.4311468e-12
3.8528331e-10
1.4261368e-12
3.8607115e-10
-1.3381592e-12
3.8531671e-10
1.2775231e-12
3.8602591e-10
-1.2010737e-12
3.8535353e-10
1.1373463e-12
3.8598553e-10
-1.0694781e-12
3.8538841e-10
1.0099718e-12
3.8595042e-10
-9.508234e-13
3.8542018e-10
8.9694668e-13
3.8591964e-10
-8.450046e-13
3.8544866e-10
7.9680566e-13
3.8589249e-10
-7.5095026e-13
3.8547402e-10
7.081009e-13
3.8586853e-10
-6.6760827e-13
3.8549644e-10
6.2972442e-13
3.8584744e-10
-5.9408389e-13
3.8551614e-10
5.6079088e-13
3.8582899e-10
-5.2959193e-13
3.8553333e-10
5.005357e-13
3.8581296e-10
-4.7341682e-13
3.8554822e-10
4.4826203e-13
3.8579914e-10
-4.2489401e-13
3.8556098e-10
4.0332839e-13
3.8578737e-10
-3.8340954e-13
3.8557178e-10
3.651477e-13
3.8577747e-10
-3.4840729e-13
3.8558078e-10
3.3319506e-13
3.8576931e-10
-3.1939518e-13
3.8558811e-10
3.070146e-13
3.8576277e-10
-2.9595377e-13
3.8559388e-10
2.8620567e-13
3.8575779e-10
-2.7777986e-13
3.8559828e-10
2.7039208e-13
3.8575432e-10
-2.6444683e-13
3.8560055e-10
2.6066394e-13
3.8574793e-10
-2.5053123e-13
3.8558517e-10
2.721495e-13
-2.3988312e-13
7.3699043e-10
9.0401754e-09
7.9654279e-10
-1.3404944e-10
6.4653596e-10
3.0845899e-10
6.6047899e-10
-3.4880925e-11
6.3947527e-10
4.1061667e-11
6.3949115e-10
-1.1138416e-12
6.3465905e-10
1.0261108e-11
6.3363584e-10
8.2934809e-13
6.3217934e-10
3.7283283e-12
6.3257656e-10
-1.6561838e-12
6.3169395e-10
2.5074881e-12
6.3243136e-10
-2.1685538e-12
6.3165071e-10
2.2067912e-12
6.3238666e-10
-2.0740959e-12
6.3167479e-10
1.9893978e-12
6.3234407e-10
-1.87034e-12
6.3170695e-10
1.7744603e-12
6.3230496e-10
-1.6674752e-12
6.3173904e-10
1.5758828e-12
6.3227121e-10
-1.4829883e-12
6.317689e-10
1.3992589e-12
6.3224181e-10
-1.3179149e-12
6.3179589e-10
1.2427186e-12
6.3221594e-10
-1.1710044e-12
6.3181999e-10
1.104057e-12
6.3219315e-10
-1.0407753e-12
6.3184131e-10
9.8156555e-13
6.3217312e-10
-9.2589554e-13
6.3186004e-10
8.7386723e-13
6.3215561e-10
-8.2515641e-13
6.3187638e-10
7.7976216e-13
6.321404e-10
-7.3743643e-13
6.3189052e-10
6.981482e-13
6.3212731e-10
-6.6168598e-13
6.3190263e-10
6.2800997e-13
6.3211615e-10
-5.9693359e-13
6.3191288e-10
5.6841868e-13
6.3210677e-10
-5.4230095e-13
6.3192142e-10
5.1854598e-13
6.3209904e-10
-4.9701221e-13
6.3192838e-10
4.776751e-13
6.3209283e-10
-4.6040667e-13
6.3193387e-10
4.4517002e-13
6.3208812e-10
-4.3203123e-13
6.3193814e-10
4.2037051e-13
6.3208496e-10
-4.1126201e-13
6.3194033e-10
4.0528681e-13
6.3207735e-10
-3.8754731e-13
6.3191707e-10
4.3242529e-13
-3.7130495e-13
9.2947386e-10
1.1572327e-08
1.0709128e-09
-2.754884e-10
8.9317043e-10
4.8620142e-10
9.0977353e-10
-5.148402e-11
8.8145562e-10
6.9379582e-11
8.813683e-10
-1.0265318e-12
8.7547794e-10
1.6151451e-11
8.7370798e-10
2.5993063e-12
8.722604e-10
5.1758928e-12
8.7239912e-10
-1.7949048e-12
8.7160492e-10
3.3016877e-12
8.7225251e-10
-2.8161378e-12
8.7153461e-10
2.9247031e-12
8.7221809e-10
-2.7575652e-12
8.7155106e-10
2.6564305e-12
8.7217871e-10
-2.4979794e-12
8.7157892e-10
2.3742535e-12
8.7214101e-10
-2.2295669e-12
8.7160826e-10
2.1086345e-12
8.7210872e-10
-1.9834484e-12
8.7163614e-10
1.8718348e-12
8.7208077e-10
-1.7625414e-12
8.7166155e-10
1.6619318e-12
8.7205627e-10
-1.5657231e-12
8.7168429e-10
1.4760352e-12
8.7203473e-10
-1.3912115e-12
8.7170442e-10
1.3118717e-12
8.7201582e-10
-1.2372963e-12
8.7172209e-10
1.1675929e-12
8.7199931e-10
-1.1023721e-12
8.717375e-10
1.0415758e-12
8.7198498e-10
-9.8492499e-13
8.7175081e-10
9.3232106e-13
8.7197266e-10
-8.8353053e-13
8.7176222e-10
8.3844886e-13
8.7196215e-10
-7.9686966e-13
8.7177187e-10
7.5869905e-13
8.7195333e-10
-7.237533e-13
8.7177992e-10
6.9195117e-13
8.7194604e-10
-6.6313305e-13
8.7178648e-10
6.3723928e-13
8.7194019e-10
-6.1411622e-13
8.7179166e-10
5.9369849e-13
8.7193575e-10
-5.7612137e-13
8.7179578e-10
5.6034107e-13
8.7193291e-10
-5.4838977e-13
8.7179802e-10
5.4017365e-13
8.7192466e-10
-5.1419128e-13
8.7176879e-10
5.8829979e-13
-4.9285816e-13
1.1958354e-09
1.3838116e-08
1.3336336e-09
-4.1328651e-10
1.1309028e-09
6.8893219e-10
1.15205e-09
-7.263116e-11
1.1162948e-09
1.0513477e-10
1.1163981e-09
-1.129833e-12
1.1095744e-09
2.2975123e-11
1.1071933e-09
4.9803883e-12
1.1058224e-09
6.5468047e-12
1.105719e-09
-1.6914769e-12
1.1050252e-09
3.9954054e-12
1.1055865e-09
-3.3773487e-12
1.1049348e-09
3.5763812e-12
1.1055653e-09
-3.3880258e-12
1.1049452e-09
3.2764552e-12
1.1055296e-09
-3.0823598e-12
1.1049692e-09
2.9347201e-12
1.1054935e-09
-2.7539135e-12
1.1049958e-09
2.6063294e-12
1.1054628e-09
-2.4504282e-12
1.1050217e-09
2.3129392e-12
1.1054364e-09
-2.1772582e-12
1.1050454e-09
2.0528952e-12
1.1054134e-09
-1.9336584e-12
1.1050667e-09
1.8226729e-12
1.1053932e-09
-1.7176481e-12
1.1050856e-09
1.619457e-12
1.1053755e-09
-1.5271838e-12
1.1051021e-09
1.4409398e-12
1.10536e-09
-1.3602832e-12
1.1051165e-09
1.2850847e-12
1.1053466e-09
-1.215052e-12
1.105129e-09
1.1500041e-12
1.1053351e-09
-1.0897026e-12
1.1051396e-09
1.0339652e-12
1.1053253e-09
-9.8258105e-13
1.1051486e-09
9.3538992e-13
1.1053171e-09
-8.9220154e-13
1.1051562e-09
8.5287948e-13
1.1053103e-09
-8.1725686e-13
1.1051623e-09
7.8523274e-13
1.1053048e-09
-7.5663329e-13
1.1051671e-09
7.3136523e-13
1.1053007e-09
-7.0964047e-13
1.1051711e-09
6.8992303e-13
1.1052982e-09
-6.7545971e-13
1.1051734e-09
6.6490555e-13
1.1052896e-09
-6.3041684e-13
1.1051398e-09
7.3815727e-13
-6.0353692e-13
1.3905737e-09
1.5909167e-08
1.5736578e-09
-5.9637057e-10
1.3624022e-09
9.0018785e-10
1.3872628e-09
-9.7491809e-11
1.3439791e-09
1.4841849e-10
1.3445738e-09
-1.7245863e-12
1.3369349e-09
3.0614062e-11
1.3341037e-09
7.811546e-12
1.3328675e-09
7.7829852e-12
1.3325399e-09
-1.3638888e-12
1.3319557e-09
4.5796012e-12
1.3324342e-09
-3.8557615e-12
1.3318513e-09
4.1592688e-12
1.3324285e-09
-3.9652253e-12
1.3318572e-09
3.8477533e-12
1.332397e-09
-3.6221822e-12
1.3318776e-09
3.4542034e-12
1.3323626e-09
-3.239003e-12
1.3319016e-09
3.0674025e-12
1.3323336e-09
-2.8824737e-12
1.3319254e-09
2.7211589e-12
1.3323089e-09
-2.56075e-12
1.3319474e-09
2.4143658e-12
1.3322874e-09
-2.2736563e-12
1.3319672e-09
2.1428942e-12
1.3322686e-09
-2.0190887e-12
1.3319847e-09
1.9033978e-12
1.3322522e-09
-1.7947028e-12
1.332e-09
1.6931163e-12
1.3322379e-09
-1.5981554e-12
1.3320134e-09
1.5096084e-12
1.3322255e-09
-1.4271844e-12
1.3320249e-09
1.3506088e-12
1.3322149e-09
-1.2796532e-12
1.3320348e-09
1.214047e-12
1.3322058e-09
-1.1535885e-12
1.3320431e-09
1.098043e-12
1.3321982e-09
-1.0472249e-12
1.3320501e-09
1.0009362e-12
1.3321919e-09
-9.590122e-13
1.3320558e-09
9.2130591e-13
1.3321868e-09
-8.8762815e-13
1.3320603e-09
8.5786023e-13
1.3321829e-09
-8.3229152e-13
1.332064e-09
8.0884732e-13
1.3321808e-09
-7.9220687e-13
1.3320665e-09
7.7920041e-13
1.3321723e-09
-7.3623382e-13
1.3320298e-09
8.8063101e-13
-7.0257274e-13
1.6021117e-09
1.7768681e-08
1.8048594e-09
-7.9911828e-10
1.5854e-09
1.1196473e-09
1.6139774e-09
-1.2606919e-10
1.564653e-09
1.9774284e-10
1.5659585e-09
-3.030075e-12
1.5575857e-09
3.8986863e-11
1.5544606e-09
1.0936635e-11
1.5533989e-09
8.8445957e-12
1.5528666e-09
-8.3151e-13
1.5523977e-09
5.0484775e-12
1.5527967e-09
-4.254791e-12
1.5522843e-09
4.6717401e-12
1.5528082e-09
-4.4891173e-12
1.5522868e-09
4.3690751e-12
1.5527812e-09
-4.1164782e-12
1.5523039e-09
3.9314236e-12
1.5527486e-09
-3.6836777e-12
1.5523254e-09
3.49065e-12
1.5527214e-09
-3.2784829e-12
1.5523471e-09
3.0954293e-12
1.5526984e-09
-2.9120394e-12
1.5523673e-09
2.7454288e-12
1.5526785e-09
-2.5848778e-12
1.5523855e-09
2.435925e-12
1.5526613e-09
-2.2948235e-12
1.5524016e-09
2.1630424e-12
1.5526462e-09
-2.0392551e-12
1.5524157e-09
1.9235728e-12
1.552633e-09
-1.8154828e-12
1.552428e-09
1.7146805e-12
1.5526217e-09
-1.6208911e-12
1.5524385e-09
1.5337365e-12
1.5526119e-09
-1.453012e-12
1.5524476e-09
1.3783506e-12
1.5526036e-09
-1.3095718e-12
1.5524553e-09
1.24636e-12
1.5525966e-09
-1.1885446e-12
1.5524617e-09
1.1358611e-12
1.5525908e-09
-1.0881556e-12
1.5524669e-09
1.0452311e-12
1.5525861e-09
-1.0068877e-12
1.552471e-09
9.7298495e-13
1.5525826e-09
-9.4388514e-13
1.5524745e-09
9.1694909e-13
1.5525808e-09
-8.9846317e-13
1.5524771e-09
8.8289443e-13
1.5525725e-09
-8.3170412e-13
1.5524386e-09
1.0145868e-12
-7.8961273e-13
1.7884769e-09
1.9441829e-08
2.0120863e-09
-1.0227277e-09
1.8001376e-09
1.331596e-09
1.8280485e-09
-1.5398009e-10
1.7777456e-09
2.4804577e-10
1.7804094e-09
-5.6939185e-12
1.7715059e-09
4.7890363e-11
1.7682746e-09
1.4167907e-11
1.7674156e-09
9.7035915e-12
1.7667016e-09
-1.1752856e-13
1.7663519e-09
5.3982476e-12
1.7666749e-09
-4.5777827e-12
1.7662338e-09
5.1127853e-12
1.7667045e-09
-4.9598165e-12
1.7662341e-09
4.8395387e-12
1.7666822e-09
-4.5645593e-12
1.7662482e-09
4.3654255e-12
1.7666516e-09
-4.0870962e-12
1.766267e-09
3.8751918e-12
1.7666262e-09
-3.6376729e-12
1.7662867e-09
3.4350002e-12
1.7666051e-09
-3.2304544e-12
1.766305e-09
3.0454641e-12
1.7665869e-09
-2.8667657e-12
1.7663216e-09
2.7012591e-12
1.7665712e-09
-2.5443967e-12
1.7663362e-09
2.3979788e-12
1.7665574e-09
-2.2604675e-12
1.766349e-09
2.1319716e-12
1.7665455e-09
-2.0119576e-12
1.7663602e-09
1.9000212e-12
1.7665352e-09
-1.7959154e-12
1.7663698e-09
1.6991528e-12
1.7665263e-09
-1.6095631e-12
1.766378e-09
1.5266779e-12
1.7665188e-09
-1.4503479e-12
1.766385e-09
1.3801729e-12
1.7665124e-09
-1.3160053e-12
1.7663908e-09
1.2575114e-12
1.7665072e-09
-1.2045551e-12
1.7663955e-09
1.1568872e-12
1.7665029e-09
-1.1143007e-12
1.7663993e-09
1.0766382e-12
1.7664997e-09
-1.0443262e-12
1.7664025e-09
1.014154e-12
1.7664982e-09
-9.9414497e-13
1.7664052e-09
9.7592292e-13
1.7664904e-09
-9.169356e-13
1.7663659e-09
1.1390926e-12
-8.646194e-13
1.9570357e-09
2.0946418e-08
2.2113938e-09
-1.2770858e-09
2.006323e-09
1.5366668e-09
2.0274657e-09
-1.7512275e-10
1.9832336e-09
2.9227792e-10
1.9879051e-09
-1.0365484e-11
1.9787343e-09
5.7061182e-11
1.9755595e-09
1.7342637e-11
1.9749187e-09
1.0344466e-11
1.9740487e-09
7.5244899e-13
1.9738198e-09
5.6271587e-12
1.9740695e-09
-4.8274884e-12
1.9737002e-09
5.4820301e-12
1.9741179e-09
-5.3774628e-12
1.9736988e-09
5.2586227e-12
1.9741002e-09
-4.9659625e-12
1.9737101e-09
4.7555648e-12
1.9740717e-09
-4.4487017e-12
1.9737264e-09
4.2204498e-12
1.9740483e-09
-3.9595511e-12
1.9737439e-09
3.7394089e-12
1.9740291e-09
-3.5155978e-12
1.9737604e-09
3.3141156e-12
1.9740126e-09
-3.1190129e-12
1.9737753e-09
2.9386272e-12
1.9739985e-09
-2.7675746e-12
1.9737884e-09
2.6080032e-12
1.9739861e-09
-2.4581623e-12
1.9737999e-09
2.3181574e-12
1.9739754e-09
-2.1874432e-12
1.9738099e-09
2.0655109e-12
1.9739662e-09
-1.9521516e-12
1.9738186e-09
1.8467646e-12
1.9739582e-09
-1.749224e-12
1.9738259e-09
1.6589565e-12
1.9739514e-09
-1.5758528e-12
1.9738322e-09
1.499426e-12
1.9739457e-09
-1.4295584e-12
1.9738374e-09
1.3658457e-12
1.973941e-09
-1.3081757e-12
1.9738417e-09
1.2562455e-12
1.9739372e-09
-1.2098447e-12
1.973845e-09
1.168804e-12
1.9739343e-09
-1.1336023e-12
1.973848e-09
1.1004667e-12
1.9739331e-09
-1.0792434e-12
1.9738507e-09
1.058306e-12
1.9739259e-09
-9.9207668e-13
1.9738116e-09
1.2533954e-12
-9.277765e-13
2.1115697e-09
2.2296474e-08
2.3893953e-09
-1.5549114e-09
2.202335e-09
1.7237271e-09
2.2156432e-09
-1.8843092e-10
2.1815895e-09
3.2633159e-10
2.1882421e-09
-1.7018068e-11
2.1792571e-09
6.604616e-11
2.1763139e-09
2.0285845e-11
2.1759075e-09
1.0750784e-11
2.1749097e-09
1.7502802e-12
2.1748026e-09
5.7342769e-12
2.1749812e-09
-5.0060957e-12
2.1746837e-09
5.7795328e-12
2.1750485e-09
-5.7422625e-12
2.174681e-09
5.6261098e-12
2.1750355e-09
-5.3204532e-12
2.1746896e-09
5.1014861e-12
2.1750091e-09
-4.7682114e-12
2.1747034e-09
4.5261293e-12
2.1749878e-09
-4.2438978e-12
2.1747187e-09
4.008458e-12
2.1749705e-09
-3.7673245e-12
2.1747333e-09
3.551267e-12
2.1749558e-09
-3.3415373e-12
2.1747465e-09
3.147971e-12
2.1749432e-09
-2.964321e-12
2.1747581e-09
2.7930965e-12
2.1749323e-09
-2.6323337e-12
2.1747683e-09
2.4821358e-12
2.1749228e-09
-2.3419534e-12
2.1747772e-09
2.2111704e-12
2.1749147e-09
-2.0896253e-12
2.1747848e-09
1.9766025e-12
2.1749076e-09
-1.8720284e-12
2.1747914e-09
1.7752238e-12
2.1749016e-09
-1.6861265e-12
2.1747969e-09
1.6041621e-12
2.1748966e-09
-1.5292492e-12
2.1748015e-09
1.4609122e-12
2.1748924e-09
-1.399068e-12
2.1748053e-09
1.3433594e-12
2.174889e-09
-1.2935759e-12
2.1748083e-09
1.2495417e-12
2.1748865e-09
-1.211774e-12
2.174811e-09
1.175962e-12
2.1748855e-09
-1.1538158e-12
2.1748137e-09
1.1301373e-12
2.1748789e-09
-1.0573133e-12
2.1747754e-09
1.3569024e-12
-9.7943327e-13
2.2738912e-09
2.3484207e-08
2.5597623e-09
-1.8407825e-09
2.3857936e-09
1.8976958e-09
2.3955089e-09
-1.981462e-10
2.3730562e-09
3.4878423e-10
2.3812035e-09
-2.5165307e-11
2.373098e-09
7.415156e-11
2.3705564e-09
2.2827508e-11
2.3703842e-09
1.0922902e-11
2.3692878e-09
2.84672e-12
2.3693021e-09
5.7200128e-12
2.3694108e-09
-5.114786e-12
2.3691844e-09
6.0058665e-12
2.3694966e-09
-6.0544557e-12
2.3691807e-09
5.9420948e-12
2.3694882e-09
-5.6280171e-12
2.3691866e-09
5.4031238e-12
2.369464e-09
-5.045604e-12
2.3691979e-09
4.7922087e-12
2.3694448e-09
-4.490747e-12
2.369211e-09
4.242197e-12
2.3694294e-09
-3.9857198e-12
2.3692237e-09
3.757019e-12
2.3694166e-09
-3.5344586e-12
2.3692351e-09
3.3294208e-12
2.3694056e-09
-3.1347743e-12
2.3692453e-09
2.953402e-12
2.3693961e-09
-2.7831269e-12
2.3692542e-09
2.6240533e-12
2.3693878e-09
-2.4756329e-12
2.3692619e-09
2.3371436e-12
2.3693807e-09
-2.2084775e-12
2.3692685e-09
2.0888056e-12
2.3693746e-09
-1.9781124e-12
2.3692742e-09
1.8756139e-12
2.3693694e-09
-1.7813004e-12
2.369279e-09
1.6945114e-12
2.369365e-09
-1.6152055e-12
2.3692831e-09
1.5428378e-12
2.3693614e-09
-1.4773578e-12
2.3692864e-09
1.4183543e-12
2.3693584e-09
-1.3656198e-12
2.369289e-09
1.318977e-12
2.3693562e-09
-1.2789668e-12
2.3692913e-09
1.2407758e-12
2.3693555e-09
-1.217979e-12
2.3692941e-09
1.1915736e-12
2.3693496e-09
-1.1128655e-12
2.3692574e-09
1.449166e-12
-1.0200664e-12
2.4159729e-09
2.452986e-08
2.7094979e-09
-2.1343075e-09
2.5618997e-09
2.045294e-09
2.5699041e-09
-2.061506e-10
2.5580137e-09
3.6067466e-10
2.5668452e-09
-3.3996816e-11
2.5602996e-09
8.0697151e-11
2.5583009e-09
2.4826148e-11
2.5583502e-09
1.0873637e-11
2.5571847e-09
4.0121905e-12
2.5573198e-09
5.5849563e-12
2.5573587e-09
-5.1536839e-12
2.5572025e-09
6.1620283e-12
2.5574625e-09
-6.3143754e-12
2.5571976e-09
6.2069433e-12
2.5574585e-09
-5.8888804e-12
2.5572009e-09
5.6606777e-12
2.5574365e-09
-5.2811132e-12
2.5572097e-09
5.0189176e-12
2.5574194e-09
-4.7003682e-12
2.5572207e-09
4.4408985e-12
2.557406e-09
-4.1710756e-12
2.5572314e-09
3.9316655e-12
2.557395e-09
-3.6980751e-12
2.5572411e-09
3.483272e-12
2.5573856e-09
-3.279226e-12
2.5572498e-09
3.0892052e-12
2.5573775e-09
-2.9108191e-12
2.5572573e-09
2.7441788e-12
2.5573705e-09
-2.5887414e-12
2.5572639e-09
2.4436814e-12
2.5573644e-09
-2.3089499e-12
2.5572696e-09
2.1836077e-12
2.5573592e-09
-2.0677015e-12
2.5572744e-09
1.9603453e-12
2.5573547e-09
-1.861586e-12
2.5572786e-09
1.7706797e-12
2.557351e-09
-1.6876278e-12
2.557282e-09
1.6118187e-12
2.5573479e-09
-1.5432369e-12
2.5572848e-09
1.481419e-12
2.5573454e-09
-1.4261626e-12
2.557287e-09
1.3772944e-12
2.5573434e-09
-1.3353629e-12
2.5572891e-09
1.295098e-12
2.557343e-09
-1.2719017e-12
2.5572918e-09
1.242826e-12
2.5573379e-09
-1.158984e-12
2.5572572e-09
1.5298696e-12
-1.0502474e-12
2.5707658e-09
2.5420719e-08
2.8557909e-09
-2.4193326e-09
2.7310884e-09
2.1699965e-09
2.7385797e-09
-2.1364184e-10
2.7364364e-09
3.6281795e-10
2.7455321e-09
-4.3092522e-11
2.7409658e-09
8.5263393e-11
2.7395718e-09
2.6220153e-11
2.7398083e-09
1.0637096e-11
2.7386023e-09
5.2182002e-12
2.7388577e-09
5.329634e-12
2.7388256e-09
-5.1215967e-12
2.7387381e-09
6.2495436e-12
2.7389461e-09
-6.5224301e-12
2.7387318e-09
6.4212885e-12
2.7389464e-09
-6.103511e-12
2.7387325e-09
5.8745975e-12
2.7389266e-09
-5.4752137e-12
2.7387388e-09
5.206715e-12
2.7389117e-09
-4.873244e-12
2.7387476e-09
4.6050349e-12
2.7389004e-09
-4.323867e-12
2.7387563e-09
4.0756696e-12
2.7388911e-09
-3.8328402e-12
2.7387644e-09
3.6099641e-12
2.7388833e-09
-3.3980998e-12
2.7387716e-09
3.2009139e-12
2.7388766e-09
-3.015801e-12
2.7387779e-09
2.8428872e-12
2.7388708e-09
-2.6816369e-12
2.7387833e-09
2.5311276e-12
2.7388657e-09
-2.3913711e-12
2.738788e-09
2.2613244e-12
2.7388614e-09
-2.1410984e-12
2.738792e-09
2.02971e-12
2.7388577e-09
-1.9272647e-12
2.7387955e-09
1.8329393e-12
2.7388546e-09
-1.7467797e-12
2.7387983e-09
1.6681112e-12
2.738852e-09
-1.596955e-12
2.7388007e-09
1.5327975e-12
2.7388499e-09
-1.475444e-12
2.7388025e-09
1.4247289e-12
2.7388483e-09
-1.3811939e-12
2.7388043e-09
1.3391649e-12
2.7388482e-09
-1.3157985e-12
2.7388068e-09
1.2841514e-12
2.7388438e-09
-1.1959463e-12
2.7387749e-09
1.5988148e-12
-1.0706158e-12
2.7034819e-09
2.6178862e-08
2.9878305e-09
-2.7036812e-09
2.8949623e-09
2.2628647e-09
2.9014919e-09
-2.2017151e-10
2.9085752e-09
3.557347e-10
2.9177539e-09
-5.2271302e-11
2.915181e-09
8.7836317e-11
2.9143827e-09
2.7018458e-11
2.9147604e-09
1.0259362e-11
2.913541e-09
6.4376429e-12
2.9139173e-09
4.953361e-12
2.913812e-09
-5.0163065e-12
2.9137911e-09
6.2704288e-12
2.9139478e-09
-6.6791083e-12
2.9137831e-09
6.5860177e-12
2.9139522e-09
-6.2726117e-12
2.9137812e-09
6.0455584e-12
2.9139346e-09
-5.6286035e-12
2.9137851e-09
5.356263e-12
2.9139219e-09
-5.0100469e-12
2.9137916e-09
4.7352512e-12
2.9139125e-09
-4.4447281e-12
2.9137985e-09
4.1896401e-12
2.913905e-09
-3.9393411e-12
2.9138049e-09
3.7100587e-12
2.9138988e-09
-3.4919326e-12
2.9138106e-09
3.2890406e-12
2.9138934e-09
-3.0985606e-12
2.9138156e-09
2.9206442e-12
2.9138888e-09
-2.7547628e-12
2.91382e-09
2.599905e-12
2.9138848e-09
-2.4561446e-12
2.9138237e-09
2.3223421e-12
2.9138813e-09
-2.1986728e-12
2.913827e-09
2.0840631e-12
2.9138784e-09
-1.9786776e-12
2.9138297e-09
1.8816193e-12
2.9138759e-09
-1.7929791e-12
2.913832e-09
1.7120236e-12
2.9138738e-09
-1.6388115e-12
2.9138339e-09
1.5727815e-12
2.9138722e-09
-1.5137488e-12
2.9138353e-09
1.4615595e-12
2.9138709e-09
-1.4167342e-12
2.9138368e-09
1.3732528e-12
2.9138709e-09
-1.3499236e-12
2.9138392e-09
1.3158449e-12
2.9138673e-09
-1.2240532e-12
2.9138102e-09
1.6559086e-12
-1.0818548e-12
2.8623289e-09
2.6778158e-08
3.1228825e-09
-2.9642347e-09
3.0541293e-09
2.3316179e-09
3.0584488e-09
-2.2449105e-10
3.0744716e-09
3.3971196e-10
3.0837486e-09
-6.1548302e-11
3.0829925e-09
8.8592359e-11
3.0827526e-09
2.7258388e-11
3.0832079e-09
9.803981e-12
3.0820018e-09
7.6438066e-12
3.0824996e-09
4.4555074e-12
3.0823184e-09
-4.8351226e-12
3.0823617e-09
6.2272126e-12
3.0824675e-09
-6.7849472e-12
3.0823513e-09
6.7022684e-12
3.0824758e-09
-6.3971009e-12
3.0823469e-09
6.1744388e-12
3.0824605e-09
-5.7421807e-12
3.0823483e-09
5.4683998e-12
3.0824499e-09
-5.1116144e-12
3.0823528e-09
4.832341e-12
3.0824425e-09
-4.534429e-12
3.0823578e-09
4.2743093e-12
3.0824368e-09
-4.0182778e-12
3.0823626e-09
3.7842217e-12
3.082432e-09
-3.5613573e-12
3.0823669e-09
3.3541868e-12
3.082428e-09
-3.1596683e-12
3.0823706e-09
2.9779922e-12
3.0824245e-09
-2.8086341e-12
3.0823739e-09
2.6505047e-12
3.0824215e-09
-2.5037377e-12
3.0823767e-09
2.3671073e-12
3.0824189e-09
-2.2408514e-12
3.0823792e-09
2.1238137e-12
3.0824167e-09
-2.0162175e-12
3.0823812e-09
1.9170979e-12
3.0824148e-09
-1.8265906e-12
3.082383e-09
1.7439086e-12
3.0824133e-09
-1.669148e-12
3.0823844e-09
1.6017033e-12
3.082412e-09
-1.5414012e-12
3.0823855e-09
1.4881026e-12
3.082411e-09
-1.4422944e-12
3.0823866e-09
1.397672e-12
3.0824113e-09
-1.3745649e-12
3.0823889e-09
1.3382335e-12
3.0824085e-09
-1.2436254e-12
3.0823632e-09
1.7011531e-12
-1.0846727e-12
2.9947874e-09
2.7244996e-08
3.245279e-09
-3.2147263e-09
3.208255e-09
2.368642e-09
3.2095558e-09
-2.257918e-10
3.2342756e-09
3.1499208e-10
3.2436827e-09
-7.0955353e-11
3.2444314e-09
8.7843573e-11
3.244687e-09
2.7002856e-11
3.2451521e-09
9.3388895e-12
3.243989e-09
8.8068984e-12
3.2446043e-09
3.8402077e-12
3.2443454e-09
-4.5762317e-12
3.2444498e-09
6.1228107e-12
3.2445054e-09
-6.8405758e-12
3.2444363e-09
6.7713875e-12
3.2445173e-09
-6.4780996e-12
3.2444295e-09
6.2622906e-12
3.2445043e-09
-5.817019e-12
3.2444286e-09
5.5441128e-12
3.2444959e-09
-5.1789249e-12
3.244431e-09
4.8972215e-12
3.2444904e-09
-4.5938539e-12
3.2444342e-09
4.3305121e-12
3.2444864e-09
-4.0704454e-12
3.2444374e-09
3.8332055e-12
3.2444832e-09
-3.6070866e-12
3.2444403e-09
3.3970278e-12
3.2444804e-09
-3.1997641e-12
3.2444429e-09
3.0155386e-12
3.2444781e-09
-2.843827e-12
3.2444451e-09
2.6834746e-12
3.244476e-09
-2.5346719e-12
3.244447e-09
2.3961176e-12
3.2444743e-09
-2.2681094e-12
3.2444487e-09
2.149417e-12
3.2444728e-09
-2.0403205e-12
3.2444501e-09
1.9397947e-12
3.2444715e-09
-1.8480183e-12
3.2444512e-09
1.7641565e-12
3.2444704e-09
-1.6883423e-12
3.2444522e-09
1.6199295e-12
3.2444696e-09
-1.5587581e-12
3.244453e-09
1.5047061e-12
3.2444689e-09
-1.4582157e-12
3.2444538e-09
1.4127608e-12
3.2444693e-09
-1.3900391e-12
3.2444558e-09
1.3516699e-12
3.2444672e-09
-1.255e-12
3.2444337e-09
1.734634e-12
-1.0797855e-12
3.1396793e-09
2.7566941e-08
3.3703898e-09
-3.4454367e-09
3.3581928e-09
2.3808389e-09
3.3562406e-09
-2.2383961e-10
3.3881667e-09
2.83066e-10
3.3975397e-09
-8.0328306e-11
3.3994989e-09
8.5884368e-11
3.4001744e-09
2.6327332e-11
3.4005951e-09
8.9181585e-12
3.3995141e-09
9.8878688e-12
3.400229e-09
3.1253455e-12
3.3998933e-09
-4.2405116e-12
3.4000555e-09
5.9605773e-12
3.4000616e-09
-6.8466791e-12
3.4000381e-09
6.7949351e-12
3.4000769e-09
-6.5168902e-12
3.4000289e-09
6.3103208e-12
3.4000662e-09
-5.8543364e-12
3.4000258e-09
5.5845152e-12
3.4000599e-09
-5.2130727e-12
3.4000262e-09
4.9309126e-12
3.4000564e-09
-4.6239812e-12
3.4000277e-09
4.3591686e-12
3.400054e-09
-4.0967169e-12
3.4000293e-09
3.8578342e-12
3.4000522e-09
-3.6299005e-12
3.4000309e-09
3.4183014e-12
3.4000507e-09
-3.2195458e-12
3.4000323e-09
3.0339447e-12
3.4000494e-09
-2.8609687e-12
3.4000335e-09
2.699411e-12
3.4000483e-09
-2.5495141e-12
3.4000345e-09
2.4099135e-12
3.4000474e-09
-2.2809624e-12
3.4000354e-09
2.1613663e-12
3.4000465e-09
-2.0514596e-12
3.4000362e-09
1.950164e-12
3.4000459e-09
-1.857699e-12
3.4000368e-09
1.773189e-12
3.4000453e-09
-1.6968018e-12
3.4000374e-09
1.6278552e-12
3.4000448e-09
-1.5662037e-12
3.4000378e-09
1.5117439e-12
3.4000444e-09
-1.4648642e-12
3.4000383e-09
1.4188808e-12
3.4000449e-09
-1.3966871e-12
3.4000401e-09
1.3565265e-12
3.4000436e-09
-1.2585273e-12
3.4000217e-09
1.7565121e-12
-1.0679045e-12
3.2826826e-09
2.7745884e-08
3.4854423e-09
-3.6481964e-09
3.503539e-09
2.3627422e-09
3.4995852e-09
-2.1988578e-10
3.5362967e-09
2.4635451e-10
3.5453177e-09
-8.9349387e-11
3.5482002e-09
8.3001933e-11
3.5491949e-09
2.5332591e-11
3.5495439e-09
8.56911e-12
3.5485907e-09
1.0841062e-11
3.5493695e-09
2.3465709e-12
3.5489624e-09
-3.833357e-12
3.549179e-09
5.7440019e-12
3.5491363e-09
-6.8039992e-12
3.5491566e-09
6.774666e-12
3.5491546e-09
-6.5148784e-12
3.549145e-09
6.3198741e-12
3.5491461e-09
-5.855463e-12
3.5491398e-09
5.5908268e-12
3.549142e-09
-5.2152435e-12
3.5491384e-09
4.9345185e-12
3.5491403e-09
-4.6258647e-12
3.5491382e-09
4.3612678e-12
3.5491395e-09
-4.0980292e-12
3.5491383e-09
3.8589905e-12
3.5491391e-09
-3.6306329e-12
3.5491386e-09
3.4187955e-12
3.5491388e-09
-3.2197589e-12
3.5491388e-09
3.033917e-12
3.5491386e-09
-2.8607284e-12
3.549139e-09
2.6989495e-12
3.5491384e-09
-2.5488685e-12
3.5491392e-09
2.4090709e-12
3.5491382e-09
-2.2799596e-12
3.5491394e-09
2.160187e-12
3.5491381e-09
-2.0501373e-12
3.5491395e-09
1.9486882e-12
3.5491379e-09
-1.8560968e-12
3.5491397e-09
1.7714534e-12
3.5491378e-09
-1.6949585e-12
3.5491398e-09
1.6258988e-12
3.5491377e-09
-1.5641441e-12
3.5491399e-09
1.5096108e-12
3.5491376e-09
-1.4626266e-12
3.5491401e-09
1.4164121e-12
3.5491383e-09
-1.3948686e-12
3.5491416e-09
1.3531916e-12
3.5491377e-09
-1.2545682e-12
3.5491272e-09
1.7670135e-12
-1.0497247e-12
3.4175561e-09
2.7789953e-08
3.6011761e-09
-3.8318164e-09
3.6443614e-09
2.3195569e-09
3.6400771e-09
-2.1560148e-10
3.6786538e-09
2.0777785e-10
3.6869613e-09
-9.7656913e-11
3.6905201e-09
7.9443171e-11
3.691732e-09
2.4120692e-11
3.6920078e-09
8.2932304e-12
3.6912217e-09
1.1627179e-11
3.6920195e-09
1.5487402e-12
3.6915516e-09
-3.3654226e-12
3.6918199e-09
5.4757377e-12
3.6917294e-09
-6.7134667e-12
3.6917916e-09
6.7124057e-12
3.6917504e-09
-6.4736049e-12
3.6917778e-09
6.2923861e-12
3.6917442e-09
-5.8218278e-12
3.6917707e-09
5.5643473e-12
3.6917422e-09
-5.1866983e-12
3.6917675e-09
4.9092094e-12
3.6917422e-09
-4.6006194e-12
3.6917656e-09
4.3378541e-12
3.691743e-09
-4.07537e-12
3.6917643e-09
3.8376046e-12
3.6917439e-09
-3.6101625e-12
3.6917633e-09
3.39934e-12
3.6917448e-09
-3.2011876e-12
3.6917625e-09
3.0161981e-12
3.6917456e-09
-2.84381e-12
3.6917617e-09
2.6827584e-12
3.6917463e-09
-2.5333702e-12
3.6917611e-09
2.3941945e-12
3.6917468e-09
-2.2656776e-12
3.6917606e-09
2.1464297e-12
3.6917473e-09
-2.0368808e-12
3.6917602e-09
1.9358729e-12
3.6917478e-09
-1.8436971e-12
3.6917598e-09
1.7594171e-12
3.6917481e-09
-1.6832635e-12
3.6917595e-09
1.6144967e-12
3.6917484e-09
-1.5530029e-12
3.6917593e-09
1.4987184e-12
3.6917485e-09
-1.451905e-12
3.6917592e-09
1.4057488e-12
3.6917493e-09
-1.3849592e-12
3.6917604e-09
1.3420641e-12
3.6917493e-09
-1.2434906e-12
3.6917499e-09
1.7664221e-12
-1.0259164e-12
3.5700122e-09
2.7681565e-08
3.7066828e-09
-3.968487e-09
3.7791307e-09
2.2471091e-09
3.7763579e-09
-2.1282869e-10
3.8149729e-09
1.6916285e-10
3.8224043e-09
-1.050883e-10
3.8264378e-09
7.5409662e-11
3.8277835e-09
2.2774999e-11
3.8279967e-09
8.0799513e-12
3.8274007e-09
1.2223251e-11
3.8281739e-09
7.7553247e-13
3.8276595e-09
-2.851066e-12
3.8279781e-09
5.1571816e-12
3.8278408e-09
-6.5761506e-12
3.8279432e-09
6.6100195e-12
3.8278643e-09
-6.3947196e-12
3.8279273e-09
6.2293577e-12
3.8278604e-09
-5.754941e-12
3.8279184e-09
5.5064364e-12
3.8278604e-09
-5.1287577e-12
3.8279134e-09
4.8562064e-12
3.8278622e-09
-4.549408e-12
3.82791e-09
4.2900151e-12
3.8278644e-09
-4.0297684e-12
3.8279074e-09
3.794644e-12
3.8278666e-09
-3.5694032e-12
3.8279052e-09
3.3607974e-12
3.8278686e-09
-3.1646478e-12
3.8279033e-09
2.9815598e-12
3.8278704e-09
-2.8109448e-12
3.8279016e-09
2.6515318e-12
3.8278719e-09
-2.5036785e-12
3.8279002e-09
2.3659118e-12
3.8278733e-09
-2.2387143e-12
3.827899e-09
2.1206657e-12
3.8278744e-09
-2.012236e-12
3.827898e-09
1.9122412e-12
3.8278753e-09
-1.8210022e-12
3.8278972e-09
1.7375636e-12
3.8278761e-09
-1.6621828e-12
3.8278965e-09
1.5940995e-12
3.8278767e-09
-1.5332165e-12
3.8278959e-09
1.4794901e-12
3.8278771e-09
-1.4331137e-12
3.8278956e-09
1.3872956e-12
3.827878e-09
-1.3673458e-12
3.8278965e-09
1.3235501e-12
3.8278787e-09
-1.2256681e-12
3.82789e-09
1.7550713e-12
-9.9711815e-13
3.6872296e-09
2.7455961e-08
3.8111731e-09
-4.0924305e-09
3.9088814e-09
2.1494008e-09
3.9079721e-09
-2.1191935e-10
3.945174e-09
1.3196088e-10
3.9515859e-09
-1.1150013e-10
3.9559326e-09
7.1062913e-11
3.9573483e-09
2.1359274e-11
3.9575156e-09
7.9126791e-12
3.9571188e-09
1.2620055e-11
3.9578294e-09
6.4890668e-14
3.9572849e-09
-2.306506e-12
3.9576533e-09
4.7887149e-12
3.9574705e-09
-6.3933097e-12
3.9576111e-09
6.4693879e-12
3.9574964e-09
-6.2799561e-12
3.9575934e-09
6.1323364e-12
3.9574948e-09
-5.6563763e-12
3.9575828e-09
5.418498e-12
3.9574968e-09
-5.0427886e-12
3.9575763e-09
4.7767692e-12
3.9575003e-09
-4.4734313e-12
3.9575714e-09
4.2188718e-12
3.9575039e-09
-3.9622847e-12
3.9575675e-09
3.7311058e-12
3.9575074e-09
-3.5092969e-12
3.9575641e-09
3.3040562e-12
3.9575104e-09
-3.1109794e-12
3.9575612e-09
2.9307972e-12
3.9575131e-09
-2.7628857e-12
3.9575587e-09
2.605984e-12
3.9575155e-09
-2.4604718e-12
3.9575565e-09
2.3248682e-12
3.9575175e-09
-2.1996843e-12
3.9575547e-09
2.0834812e-12
3.9575192e-09
-1.9767634e-12
3.9575531e-09
1.8783298e-12
3.9575206e-09
-1.7885269e-12
3.9575518e-09
1.7063875e-12
3.9575218e-09