/*--------------------------------*- C++ -*----------------------------------*\
| =========                 |                                                 |
| \\      /  F ield         | OpenFOAM: The Open Source CFD Toolbox           |
|  \\    /   O peration     | Version:  2312                                  |
|   \\  /    A nd           | Website:  www.openfoam.com                      |
|    \\/     M anipulation  |                                                 |
\*---------------------------------------------------------------------------*/
FoamFile
{
    version     2.0;
    format      ascii;
    arch        "LSB;label=32;scalar=64";
    class       volScalarField;
    location    "4";
    object      T;
}
// * * * * * * * * * * * * * * * * * * * * * * * * * * * * * * * * * * * * * //

dimensions      [0 0 0 1 0 0 0];

internalField   nonuniform List<scalar> 
4000
(
325.20527
324.06219
323.8332
323.76584
323.689
323.63537
323.58363
323.53735
323.4926
323.4508
323.40919
323.36967
323.32999
323.2918
323.25347
323.21613
323.17881
323.14204
323.10549
323.06914
323.03319
322.99715
322.96169
322.92588
322.89083
322.85519
322.82049
322.78498
322.75057
322.71516
322.68102
322.64567
322.61177
322.57647
322.54279
322.5075
322.47403
322.43875
322.40548
322.37017
322.33711
322.30175
322.2689
322.23345
322.20085
322.16524
322.13298
322.09706
322.0654
322.02827
327.13897
325.29804
324.68735
324.55148
324.38844
324.29442
324.20625
324.13433
324.06709
324.0086
323.95073
323.8991
323.84703
323.79937
323.75136
323.70624
323.66123
323.61786
323.57514
323.53303
323.49213
323.45094
323.4115
323.371
323.33279
323.2928
323.25563
323.21603
323.17976
323.14045
323.10497
323.06586
323.0311
322.99212
322.95802
322.9191
322.88563
322.84671
322.81384
322.77485
322.74259
322.70344
322.67184
322.63241
322.60157
322.56166
322.53182
322.49099
322.46295
322.41865
328.33269
326.48605
325.5342
325.33153
325.08456
324.95066
324.82662
324.7292
324.63974
324.5646
324.49067
324.42692
324.36261
324.30545
324.24787
324.19496
324.14234
324.09235
324.04354
323.99565
323.94985
323.90349
323.86013
323.81491
323.77359
323.72924
323.68964
323.64594
323.60783
323.5646
323.52782
323.48493
323.44933
323.40667
323.37216
323.3296
323.29614
323.25358
323.22112
323.17844
323.14701
323.10406
323.07372
323.03031
323.00123
322.95703
322.9296
322.88388
322.85941
322.80835
329.12308
327.58579
326.36139
326.0984
325.77259
325.6004
325.44184
325.31946
325.20845
325.11686
325.02729
324.95151
324.87525
324.80864
324.74171
324.68101
324.62097
324.56435
324.5096
324.4559
324.40533
324.35378
324.3066
324.25666
324.2123
324.16357
324.12161
324.07379
324.03391
323.98676
323.94871
323.90204
323.86565
323.81929
323.78442
323.73821
323.70479
323.65858
323.62656
323.58019
323.5496
323.50286
323.47379
323.42641
323.39909
323.35062
323.32559
323.27503
323.25403
323.19677
329.67017
328.56109
327.15291
326.84198
326.44599
326.2387
326.04803
325.90182
325.77045
325.66287
325.55839
325.47082
325.38313
325.30719
325.23128
325.16287
325.0957
325.03249
324.97202
324.91255
324.85739
324.80067
324.74981
324.69515
324.64789
324.59478
324.55056
324.49863
324.45705
324.40599
324.36675
324.3163
324.27917
324.22912
324.19393
324.14409
324.11074
324.0609
324.02935
323.9793
323.94958
323.89906
323.87128
323.81995
323.79439
323.74168
323.71902
323.66372
323.646
323.58322
330.06136
329.39038
327.89221
327.55047
327.09697
326.85959
326.64048
326.47234
326.32236
326.19964
326.08134
325.98244
325.88405
325.79906
325.71473
325.63878
325.56489
325.4952
325.42934
325.36417
325.30468
325.24284
325.18852
325.12918
325.07919
325.02174
324.97541
324.91939
324.87624
324.82128
324.78095
324.72674
324.68896
324.63524
324.59981
324.54635
324.51314
324.45968
324.42865
324.37495
324.34611
324.29186
324.26537
324.21014
324.18633
324.12947
324.10911
324.04923
324.03452
323.96694
330.34693
330.06283
328.56427
328.21167
327.71713
327.45644
327.21383
327.02655
326.86036
326.72381
326.59314
326.48365
326.37558
326.28199
326.18996
326.10676
326.02671
325.95075
325.87994
325.80921
325.74573
325.67889
325.62139
325.55746
325.50495
325.44323
325.39498
325.33493
325.29037
325.23156
325.19027
325.13236
325.09402
325.03669
325.00109
324.94406
324.91105
324.85404
324.82356
324.76627
324.73835
324.68043
324.65523
324.5962
324.5741
324.51322
324.49505
324.43084
324.41879
324.34711
330.55935
330.58182
329.15837
328.81434
328.29818
328.02241
327.76246
327.55967
327.38033
327.23171
327.09056
326.9715
326.85503
326.75349
326.6547
326.5647
326.47919
326.39728
326.32205
326.24601
326.17898
326.10731
326.04697
325.9786
325.92386
325.85799
325.80804
325.74407
325.69828
325.63573
325.59363
325.53209
325.49333
325.43247
325.3968
325.33628
325.30354
325.24306
325.21318
325.15239
325.12542
325.06393
325.04002
324.97731
324.95687
324.89214
324.87602
324.80779
324.79802
324.72289
330.7204
330.96017
329.66841
329.34976
328.83282
328.55097
328.28076
328.06689
327.878
327.71959
327.57021
327.44294
327.3196
327.21101
327.10657
327.01038
326.92025
326.83283
326.75384
326.67282
326.60275
326.52652
326.46376
326.39115
326.33453
326.26469
326.21331
326.14557
326.09878
326.03261
325.98988
325.92485
325.88581
325.82153
325.78591
325.72202
325.68964
325.6258
325.59659
325.53243
325.50641
325.4415
325.41887
325.35264
325.33379
325.26545
325.25121
325.17932
325.17144
325.09346
330.84532
331.21826
330.09378
329.81286
329.31529
329.0364
328.76357
328.54361
328.34925
328.18375
328.02871
327.89488
327.76646
327.65192
327.54313
327.44154
327.34776
327.2554
327.17341
327.08786
327.01534
326.9349
326.8702
326.79365
326.73552
326.66195
326.60947
326.53818
326.49062
326.42104
326.37789
326.30954
326.27038
326.20284
326.16739
326.1003
326.06836
326.00133
325.97283
325.90547
325.88044
325.81228
325.7909
325.72139
325.70403
325.63235
325.61979
325.54467
325.53827
325.45798
330.9449
331.38007
330.43831
330.20267
329.74181
329.47425
329.20654
328.98576
328.79028
328.6207
328.46285
328.32437
328.19286
328.07366
327.96198
327.85592
327.7596
327.66302
327.57887
327.48933
327.41505
327.33084
327.26473
327.18461
327.12541
327.04843
326.99518
326.92061
326.87259
326.79982
326.75648
326.68503
326.64593
326.57536
326.54021
326.47011
326.43872
326.3687
326.34098
326.27062
326.24659
326.17542
326.15525
326.08271
326.06674
325.99206
325.98097
325.90306
325.89779
325.81563
331.0267
331.47055
330.70989
330.52204
330.1108
329.86173
329.60643
329.39007
329.19786
329.02742
328.86974
328.7287
328.59623
328.47385
328.36085
328.25141
328.15374
328.05376
327.96839
327.87552
327.8002
327.71276
327.64584
327.56257
327.50278
327.42276
327.36915
327.29161
327.24344
327.16779
327.12451
327.05023
327.01139
326.93803
326.90335
326.83048
326.79975
326.72698
326.70009
326.62699
326.60397
326.53007
326.51105
326.4358
326.4211
326.34379
326.33394
326.2537
326.24927
326.16565
331.09606
331.51274
330.91863
330.77679
330.423
330.19792
329.96134
329.75425
329.56953
329.40146
329.24694
329.10555
328.97431
328.85034
328.73767
328.62603
328.52829
328.42583
328.34023
328.24476
328.16921
328.07913
328.01203
327.92615
327.86628
327.78365
327.73009
327.64999
327.602
327.52381
327.48085
327.40406
327.3657
327.28985
327.25579
327.18046
327.15048
327.07525
327.04926
326.97372
326.95171
326.87539
326.85749
326.77987
326.76632
326.68677
326.67796
326.59585
326.59201
326.50726
331.15643
331.52587
331.07582
330.97483
330.68131
330.48376
330.27086
330.07719
329.90373
329.7411
329.59262
329.45309
329.32525
329.20133
329.09065
328.97809
328.88157
328.77763
328.69284
328.59558
328.52061
328.42858
328.36196
328.27402
328.21462
328.12989
328.07681
327.99457
327.94713
327.8668
327.82445
327.74552
327.70785
327.62986
327.59658
327.51911
327.49001
327.41265
327.38762
327.30996
327.28898
327.21059
327.19375
327.11414
327.10162
327.02026
327.0123
326.92876
326.92532
326.83977
331.21027
331.5246
331.19244
331.12522
330.89045
330.72194
330.53599
330.35897
330.19993
330.04548
329.90563
329.77006
329.64767
329.52544
329.41838
329.30618
329.21217
329.1078
329.02484
328.92666
328.85312
328.75984
328.6944
328.60502
328.54664
328.46034
328.40821
328.32432
328.27779
328.19575
328.15431
328.07364
328.0369
327.95715
327.92482
327.84558
327.81747
327.73835
327.71433
327.63494
327.61499
327.53491
327.51907
327.43787
327.42627
327.34354
327.33626
327.25172
327.24855
327.1625
331.25896
331.51873
331.27854
331.23723
331.05641
330.91657
330.75909
330.60086
330.45859
330.31457
330.18557
330.05585
329.94078
329.82178
329.71985
329.60929
329.51903
329.41528
329.33516
329.23694
329.16564
329.07189
329.00829
328.91813
328.86132
328.77404
328.7233
328.63829
328.59303
328.50977
328.46953
328.38756
328.35197
328.27088
328.23968
328.15908
328.13206
328.05158
328.02864
327.9479
327.92899
327.84763
327.83276
327.7504
327.73961
327.65593
327.64922
327.56409
327.5611
327.47483
331.30349
331.51409
331.3426
331.31967
331.18583
331.07272
330.94361
330.80515
330.68115
330.54922
330.4328
330.31051
330.20433
330.08997
329.99453
329.8868
329.80143
329.69932
329.623
329.52562
329.45735
329.36388
329.30278
329.21252
329.15783
329.07016
329.02127
328.93567
328.89205
328.80806
328.76932
328.68652
328.65232
328.57032
328.54042
328.45888
328.43309
328.35165
328.32986
328.2482
328.23033
328.14811
328.13417
328.05108
328.04103
327.95683
327.95057
327.86524
327.86239
327.77618
331.34442
331.51338
331.39141
331.38026
331.28543
331.19598
331.09377
330.97501
330.86986
330.75105
330.64836
330.53474
330.43869
330.33015
330.24235
330.13854
330.05904
329.95955
329.88787
329.79218
329.72767
329.63524
329.57725
329.48756
329.4355
329.34807
329.30144
329.21582
329.17419
329.08999
329.05302
328.96988
328.93728
328.85485
328.82641
328.74438
328.71992
328.63797
328.61738
328.53523
328.51843
328.43578
328.42273
328.33934
328.32996
328.24567
328.23981
328.15464
328.1519
328.06605
331.3821
331.51723
331.43004
331.42541
331.36157
331.29207
331.21423
331.11417
331.02764
330.92233
330.83397
330.72983
330.64477
330.54299
330.4637
330.36473
330.29195
330.19593
330.12964
330.03643
329.97632
329.88566
329.83133
329.74287
329.69391
329.6073
329.56334
329.47825
329.43895
329.35506
329.32013
329.23713
329.20635
329.12396
329.09713
329.01506
328.99204
328.91003
328.8907
328.8085
328.79278
328.71014
328.69797
328.61471
328.60596
328.52198
328.51647
328.43181
328.42918
328.34398
331.41686
331.52516
331.4621
331.4601
331.41986
331.3664
331.30979
331.2267
331.15786
331.06582
330.99183
330.89758
330.82398
330.72961
330.65945
330.56605
330.50062
330.40881
330.3485
330.25848
330.20331
330.11508
330.06489
329.97828
329.93284
329.84764
329.8067
329.72268
329.686
329.60293
329.57029
329.48793
329.45915
329.37726
329.35219
329.27054
329.24906
329.16743
329.14943
329.0676
329.05299
328.97079
328.95948
328.87676
328.86863
328.78534
328.78016
328.69636
328.69385
328.60959
331.4489
331.53613
331.48994
331.48798
331.46504
331.42386
331.38503
331.31675
331.26411
331.18461
331.12453
331.0402
330.97811
330.89153
330.83081
330.74353
330.68585
330.59885
330.54496
330.45874
330.40894
330.32372
330.27806
330.19387
330.15229
330.06905
330.03142
329.94901
329.91519
329.83344
329.8033
329.72205
329.69545
329.61452
329.59134
329.51056
329.4907
329.40989
329.39326
329.31225
329.29877
329.21742
329.20698
329.1252
329.11766
329.03543
329.03059
328.94797
328.94559
328.86256
331.47847
331.54908
331.51501
331.51157
331.50087
331.4686
331.44416
331.38829
331.35001
331.28193
331.2349
331.16015
331.10931
331.0306
330.97937
330.89851
330.8488
330.76702
330.71983
330.63789
330.59376
330.51205
330.47122
330.38995
330.3525
330.27171
330.23764
330.1573
330.12657
330.04661
330.01914
329.93945
329.91517
329.83565
329.81446
329.73498
329.71682
329.63725
329.62204
329.54225
329.52992
329.44982
329.44025
329.3598
329.35285
329.27203
329.26754
329.1864
329.18417
329.10267
331.50575
331.56307
331.53814
331.53249
331.53018
331.50403
331.49085
331.44498
331.41902
331.36101
331.32585
331.26006
331.21989
331.14889
331.10692
331.0326
330.99084
330.91458
330.87419
330.79689
330.75858
330.6808
330.64497
330.56704
330.53391
330.456
330.42567
330.34784
330.32035
330.2426
330.21793
330.14024
330.11838
330.04068
330.02157
329.94379
329.9274
329.84946
329.83572
329.75754
329.74637
329.6679
329.65921
329.58043
329.57409
329.495
329.49088
329.41151
329.40945
329.32975
331.53098
331.57742
331.55974
331.5517
331.55501
331.53278
331.52812
331.49002
331.47432
331.42488
331.40023
331.34258
331.31225
331.2486
331.21545
331.1476
331.11358
331.04294
331.0093
330.93687
330.90441
330.83086
330.80012
330.72588
330.69717
330.6225
330.59601
330.52107
330.49691
330.42176
330.39999
330.32466
330.3053
330.2298
330.21283
330.13713
330.12254
330.0466
330.03435
329.95814
329.94816
329.87165
329.86386
329.78707
329.78136
329.7043
329.70056
329.62325
329.62137
329.54374
331.55432
331.59169
331.58
331.56973
331.57675
331.55682
331.55843
331.52612
331.51871
331.47636
331.46074
331.41029
331.38882
331.33198
331.30703
331.2454
331.21876
331.15371
331.12661
331.05916
331.03246
330.96333
330.93764
330.86734
330.84306
330.77193
330.74932
330.67757
330.6568
330.58457
330.56574
330.49312
330.47629
330.40332
330.38853
330.31524
330.30248
330.22887
330.21813
330.1442
330.13543
330.06119
330.05432
329.9798
329.97474
329.89997
329.89663
329.82163
329.81995
329.74464
331.57598
331.60562
331.59901
331.58681
331.59628
331.57754
331.58362
331.55548
331.55457
331.51791
331.50986
331.4656
331.4519
331.40123
331.38371
331.32795
331.30817
331.24855
331.22767
331.16518
331.14404
331.07942
331.05867
330.99247
330.97255
330.90517
330.8864
330.8181
330.80069
330.73166
330.71576
330.64613
330.63184
330.5617
330.54908
330.47849
330.46757
330.39657
330.38734
330.31599
330.30842
330.23673
330.23077
330.15879
330.15438
330.08216
330.07924
330.00677
330.0053
329.93255
331.59611
331.61908
331.61681
331.60305
331.61415
331.59589
331.60508
331.57981
331.58387
331.55163
331.54976
331.5107
331.50364
331.45844
331.4475
331.39716
331.38362
331.32918
331.31407
331.25644
331.24055
331.18045
331.16441
331.1024
331.0867
331.0232
331.00818
330.9435
330.92939
330.86375
330.85075
330.78433
330.77255
330.70546
330.695
330.62736
330.61825
330.55012
330.54239
330.47384
330.46747
330.39856
330.39353
330.32431
330.32056
330.25108
330.24859
330.17887
330.17762
330.10762
331.61487
331.63203
331.63343
331.61845
331.63067
331.61248
331.62378
331.6004
331.60815
331.57926
331.5823
331.54751
331.546
331.50554
331.5003
331.45485
331.44688
331.39728
331.38742
331.33446
331.32343
331.26776
331.25616
331.19834
331.18665
331.1271
331.11566
331.05471
331.04379
330.9817
330.9715
330.90845
330.89912
330.83528
330.82691
330.76241
330.75508
330.69002
330.68376
330.61822
330.61303
330.54709
330.54297
330.4767
330.47361
330.40706
330.405
330.3382
330.33716
330.27009
331.63238
331.64443
331.64891
331.63301
331.64602
331.62768
331.64038
331.61822
331.6286
331.6022
331.60902
331.57768
331.58067
331.54426
331.54385
331.50275
331.49962
331.45448
331.44931
331.40075
331.39414
331.34275
331.33524
331.28154
331.27358
331.21798
331.20992
331.15275
331.14485
331.08639
331.07886
331.01931
331.01232
330.95186
330.94552
330.8843
330.87869
330.81684
330.81201
330.74963
330.7456
330.68278
330.67955
330.61637
330.61394
330.55046
330.54884
330.4851
330.48428
330.42028
331.64874
331.65631
331.66329
331.64671
331.66028
331.64171
331.65532
331.63391
331.64612
331.62154
331.63118
331.60257
331.60912
331.57612
331.57968
331.54241
331.5434
331.5023
331.50121
331.45676
331.45408
331.40677
331.40296
331.35326
331.34871
331.29701
331.29206
331.23867
331.23359
331.17879
331.17377
331.11777
331.113
331.056
331.05158
330.99374
330.98977
330.93124
330.92778
330.86867
330.86575
330.80616
330.8038
330.74383
330.74204
330.68174
330.68054
330.61997
330.61936
330.55854
331.66405
331.66765
331.67663
331.65954
331.67348
331.65471
331.66887
331.64792
331.66135
331.63808
331.64975
331.6233
331.63258
331.60241
331.60915
331.5752
331.57962
331.54213
331.54453
331.50385
331.5046
331.46113
331.46059
331.41472
331.41325
331.36532
331.36322
331.31354
331.31104
331.25987
331.25718
331.20475
331.20203
331.14852
331.1459
331.0915
331.08907
331.03392
331.03175
330.97598
330.97411
330.91784
330.9163
330.85961
330.85843
330.8014
330.8006
330.74328
330.74288
330.68532
331.67837
331.67846
331.68896
331.6715
331.68566
331.66673
331.68118
331.66056
331.67473
331.65243
331.6655
331.64074
331.65204
331.6242
331.63343
331.60233
331.60951
331.57523
331.58053
331.5433
331.54696
331.50706
331.50937
331.46711
331.46835
331.42404
331.42447
331.3784
331.37824
331.33064
331.33007
331.28116
331.28032
331.2303
331.22933
331.17837
331.17736
331.12562
331.12465
331.07225
331.07137
331.01843
331.01768
330.9643
330.96371
330.90997
330.90956
330.85554
330.85533
330.80107
331.69175
331.68871
331.7003
331.68256
331.69682
331.67779
331.69237
331.672
331.68658
331.66502
331.67899
331.65557
331.66829
331.64239
331.65348
331.62481
331.63416
331.6027
331.61036
331.57623
331.58232
331.54569
331.55042
331.51155
331.51513
331.47427
331.47691
331.43431
331.4362
331.39207
331.39338
331.34793
331.34879
331.3022
331.30272
331.25517
331.25546
331.2071
331.20723
331.15819
331.15822
331.10862
331.10859
331.05854
331.05848
331.00805
331.008
330.95728
330.95725
330.90631
331.70424
331.69838
331.71067
331.69273
331.70695
331.6879
331.70247
331.68236
331.69711
331.67615
331.69063
331.6683
331.68196
331.65767
331.67009
331.64351
331.6545
331.62551
331.63502
331.60366
331.61172
331.57808
331.58481
331.54908
331.55463
331.51701
331.52155
331.48224
331.48592
331.44512
331.44807
331.40596
331.40832
331.36507
331.36693
331.32271
331.32417
331.27913
331.28026
331.23454
331.23539
331.18909
331.18972
331.14295
331.14339
331.09625
331.09653
331.04909
331.04923
331.00158
331.71582
331.70738
331.72003
331.70196
331.71604
331.69706
331.71153
331.69171
331.70644
331.68601
331.70073
331.67931
331.69353
331.6706
331.68391
331.65912
331.67128
331.64447
331.65537
331.62648
331.63607
331.60516
331.61348
331.58065
331.58781
331.55321
331.55933
331.52313
331.52832
331.49068
331.49505
331.45614
331.45979
331.41977
331.42279
331.38181
331.38429
331.34249
331.3445
331.30201
331.3036
331.26054
331.26175
331.21822
331.2191
331.17519
331.17576
331.13156
331.13184
331.08744
331.72643
331.71564
331.72836
331.71023
331.7241
331.70527
331.71955
331.70008
331.71467
331.69477
331.7095
331.68889
331.70337
331.68161
331.69545
331.67221
331.68516
331.66025
331.67214
331.64546
331.65619
331.62773
331.63729
331.6071
331.61555
331.58374
331.59114
331.55784
331.56427
331.52962
331.53517
331.4993
331.50404
331.4671
331.47111
331.43324
331.4366
331.39793
331.40069
331.36134
331.36357
331.32365
331.32538
331.28499
331.28626
331.24549
331.24633
331.20528
331.2057
331.16446
331.73591
331.72302
331.7356
331.71751
331.7311
331.71252
331.72657
331.7075
331.72187
331.7025
331.7171
331.69724
331.71175
331.69103
331.70512
331.68324
331.69664
331.67341
331.68595
331.66124
331.67277
331.64652
331.65699
331.62921
331.63862
331.60938
331.61777
331.58717
331.59458
331.56273
331.56922
331.53623
331.54185
331.50784
331.51267
331.47776
331.48185
331.44617
331.44957
331.41323
331.416
331.3791
331.38127
331.34392
331.34552
331.3078
331.30886
331.27087
331.2714
331.23323
331.74399
331.72937
331.7417
331.72377
331.73706
331.71883
331.73259
331.71401
331.72809
331.70929
331.72364
331.7045
331.71888
331.69911
331.71322
331.69256
331.70616
331.68442
331.69731
331.67435
331.68639
331.66212
331.6732
331.64761
331.65771
331.63083
331.63994
331.61184
331.61999
331.59073
331.59795
331.56764
331.57397
331.5427
331.54818
331.51607
331.52075
331.48791
331.49183
331.45836
331.46157
331.42757
331.4301
331.39565
331.39753
331.36273
331.36397
331.32891
331.32953
331.29431
331.75034
331.73455
331.74663
331.729
331.74199
331.7242
331.73766
331.71963
331.73338
331.7152
331.72922
331.71081
331.72492
331.70604
331.72
331.70045
331.71403
331.69363
331.70664
331.68526
331.69754
331.67506
331.6865
331.66289
331.67342
331.64868
331.65829
331.63246
331.64114
331.61428
331.62203
331.59421
331.60105
331.57236
331.57832
331.54885
331.55397
331.52381
331.52814
331.49738
331.50093
331.46967
331.47248
331.4408
331.4429
331.41087
331.41227
331.38
331.3807
331.34828
331.75475
331.7385
331.7504
331.73323
331.74593
331.72867
331.74182
331.7244
331.7378
331.72027
331.73392
331.71623
331.73
331.71197
331.72565
331.70712
331.72052
331.70134
331.71428
331.69431
331.70663
331.68577
331.69734
331.67552
331.68627
331.66348
331.67336
331.64962
331.65861
331.63396
331.64205
331.61653
331.62372
331.59741
331.60372
331.57669
331.58214
331.55447
331.55909
331.53088
331.53469
331.506
331.50903
331.47995
331.48221
331.45282
331.45432
331.4247
331.42545
331.39568
331.7572
331.74123
331.75305
331.73649
331.74893
331.7323
331.74513
331.72837
331.74141
331.72457
331.73781
331.72086
331.73421
331.71702
331.73032
331.71276
331.72585
331.70778
331.7205
331.70181
331.714
331.69458
331.70611
331.6859
331.69668
331.67565
331.68563
331.66378
331.67292
331.65027
331.65854
331.63513
331.64252
331.6184
331.62492
331.60015
331.60581
331.58046
331.58527
331.55943
331.56341
331.53713
331.5403
331.51366
331.51603
331.4891
331.49068
331.46354
331.46433
331.43706
331.758
331.74289
331.7547
331.73888
331.75108
331.73515
331.74765
331.73161
331.74425
331.72814
331.74095
331.72475
331.73765
331.72127
331.73413
331.71748
331.73017
331.71313
331.7255
331.70798
331.7199
331.70179
331.71313
331.69437
331.70502
331.68558
331.6955
331.67536
331.68449
331.66367
331.67197
331.65049
331.65794
331.63583
331.64243
331.61974
331.62549
331.60229
331.6072
331.58354
331.58762
331.56357
331.56682
331.54245
331.54488
331.52024
331.52187
331.49703
331.49785
331.4729
331.75762
331.74367
331.75551
331.74051
331.75248
331.7373
331.74946
331.73416
331.74641
331.73105
331.7434
331.72797
331.74038
331.72481
331.73718
331.7214
331.73361
331.71753
331.72947
331.71302
331.72455
331.70763
331.71864
331.7012
331.7116
331.69359
331.7033
331.68472
331.6937
331.67453
331.68274
331.663
331.67039
331.65011
331.65669
331.6359
331.64165
331.62041
331.62533
331.60369
331.60779
331.58579
331.58907
331.56679
331.56925
331.54672
331.54836
331.52567
331.52649
331.50369
331.7566
331.74384
331.75565
331.74149
331.75322
331.73882
331.75064
331.73611
331.74795
331.73335
331.74524
331.73057
331.74248
331.7277
331.73954
331.72459
331.73627
331.7211
331.73252
331.71705
331.72812
331.71228
331.72287
331.7066
331.71664
331.69992
331.70933
331.69213
331.70086
331.68318
331.69118
331.67302
331.68026
331.66163
331.66808
331.64903
331.65469
331.63524
331.64009
331.62029
331.62435
331.60424
331.60749
331.58712
331.58956
331.56898
331.57061
331.54988
331.5507
331.52988
331.7553
331.74361
331.75529
331.74197
331.75343
331.73983
331.75128
331.73753
331.74895
331.73511
331.74653
331.73262
331.744
331.72999
331.74128
331.72712
331.73824
331.7239
331.73477
331.7202
331.73072
331.71586
331.72596
331.71076
331.72034
331.70477
331.71379
331.69783
331.70622
331.68987
331.69758
331.68084
331.68783
331.6707
331.67695
331.65946
331.66495
331.64712
331.65185
331.63372
331.63768
331.61929
331.62246
331.60384
331.60623
331.58743
331.58903
331.57009
331.57089
331.55188
331.75394
331.74315
331.75458
331.74206
331.75322
331.74039
331.75146
331.73848
331.74947
331.73639
331.74732
331.73415
331.745
331.73173
331.74244
331.72904
331.73956
331.726
331.73627
331.72252
331.73246
331.71849
331.72803
331.71378
331.72285
331.70832
331.71686
331.70202
331.70999
331.69484
331.70218
331.68671
331.69338
331.67759
331.68358
331.66749
331.67276
331.65639
331.66094
331.64432
331.64813
331.63128
331.63435
331.61731
331.61962
331.60243
331.60398
331.58667
331.58744
331.57007
331.75261
331.74257
331.75363
331.74186
331.75267
331.7406
331.75127
331.73903
331.74958
331.73724
331.74767
331.73522
331.74552
331.73296
331.74308
331.73039
331.74028
331.72745
331.73708
331.72409
331.7334
331.72023
331.72916
331.71578
331.72428
331.71067
331.71869
331.70485
331.71234
331.69825
331.70517
331.69082
331.69713
331.68253
331.6882
331.67336
331.67836
331.6633
331.66762
331.65236
331.65598
331.64054
331.64346
331.62785
331.63006
331.61432
331.61579
331.59996
331.6007
331.58481
331.7513
331.74193
331.75253
331.74145
331.75186
331.74053
331.75077
331.73926
331.74934
331.73771
331.74762
331.73587
331.74559
331.73371
331.7432
331.73118
331.74042
331.72826
331.73723
331.72493
331.73359
331.72113
331.72943
331.71681
331.72471
331.71192
331.71938
331.70641
331.71339
331.70024
331.70669
331.69335
331.69924
331.68571
331.69101
331.6773
331.68199
331.6681
331.67215
331.6581
331.66151
331.64732
331.65007
331.63575
331.63782
331.62339
331.62478
331.61027
331.61097
331.59641
331.75
331.74127
331.75132
331.7409
331.75087
331.74023
331.75003
331.73921
331.7488
331.73784
331.74722
331.73611
331.74525
331.73398
331.74284
331.73142
331.74
331.72844
331.73673
331.72505
331.73303
331.72122
331.72885
331.71692
331.72419
331.71213
331.71899
331.70681
331.71323
331.70092
331.70687
331.69443
331.69987
331.68728
331.69219
331.67947
331.68381
331.67097
331.67473
331.66177
331.66494
331.65186
331.65442
331.64124
331.64318
331.62991
331.63121
331.61788
331.61854
331.60517
331.74869
331.74059
331.75005
331.74023
331.74975
331.73976
331.74909
331.73891
331.74801
331.73767
331.74649
331.73597
331.74449
331.73378
331.74198
331.73111
331.739
331.72799
331.73558
331.72445
331.73173
331.72049
331.72745
331.71613
331.72274
331.71133
331.71758
331.70609
331.71194
331.70037
331.7058
331.69414
331.69912
331.68737
331.69186
331.68002
331.684
331.67208
331.67554
331.66353
331.66644
331.65436
331.65671
331.64456
331.64634
331.63412
331.63531
331.62304
331.62364
331.61133
331.74737
331.73991
331.74874
331.73949
331.74853
331.73915
331.74799
331.73842
331.74698
331.73721
331.74543
331.73544
331.74331
331.7331
331.74062
331.73023
331.73741
331.72687
331.73375
331.7231
331.72967
331.71895
331.72521
331.71443
331.72038
331.70954
331.71516
331.70429
331.70956
331.69864
331.70354
331.69258
331.69707
331.68606
331.69012
331.67907
331.68267
331.67157
331.67471
331.66355
331.6662
331.655
331.65714
331.64589
331.64751
331.63621
331.6373
331.62597
331.62651
331.61515
331.74601
331.73922
331.74739
331.73869
331.74723
331.73843
331.74675
331.73773
331.74572
331.73645
331.74404
331.73451
331.74169
331.73191
331.73871
331.72873
331.73519
331.72507
331.73121
331.72099
331.72684
331.71656
331.72213
331.71181
331.7171
331.70677
331.71176
331.70143
331.70612
331.69578
331.70014
331.68979
331.6938
331.68344
331.68707
331.67671
331.67994
331.66955
331.67237
331.66197
331.66434
331.65392
331.65585
331.6454
331.64686
331.63638
331.63736
331.62685
331.62735
331.61682
331.74462
331.73852
331.746
331.73785
331.74587
331.73761
331.74539
331.73685
331.74423
331.73538
331.74229
331.73314
331.73959
331.73017
331.73622
331.72658
331.73229
331.72251
331.72791
331.71806
331.72318
331.71329
331.71816
331.70826
331.71289
331.703
331.70737
331.69751
331.70162
331.6918
331.69563
331.68583
331.68935
331.67958
331.68277
331.67302
331.67587
331.66613
331.66862
331.65889
331.661
331.65127
331.65297
331.64324
331.64453
331.63478
331.63565
331.62588
331.62632
331.61653
331.74318
331.73781
331.74457
331.73696
331.74446
331.73669
331.7439
331.73576
331.74248
331.73396
331.74014
331.73127
331.73695
331.7278
331.73307
331.72371
331.72864
331.71916
331.7238
331.71425
331.71866
331.7091
331.71328
331.70374
331.70771
331.69822
331.70198
331.69254
331.69609
331.68671
331.69002
331.68071
331.68376
331.6745
331.67728
331.66807
331.67055
331.66138
331.66355
331.65441
331.65625
331.64714
331.64863
331.63953
331.64066
331.63155
331.63231
331.6232
331.62358
331.61445
331.74168
331.73708
331.7431
331.73602
331.74299
331.73565
331.74224
331.73441
331.7404
331.73212
331.7375
331.72883
331.73369
331.72474
331.72919
331.72004
331.72418
331.71492
331.71882
331.70953
331.71321
331.70394
331.70744
331.69822
331.70155
331.6924
331.69558
331.68651
331.68951
331.68054
331.68335
331.67447
331.67706
331.66826
331.67063
331.66191
331.66403
331.65537
331.65723
331.64863
331.65021
331.64164
331.64292
331.63438
331.63536
331.62682
331.62748
331.61894
331.61927
331.61073
331.74012
331.73633
331.7416
331.73505
331.74145
331.73447
331.74038
331.73274
331.73793
331.72976
331.73428
331.72572
331.72971
331.72087
331.72449
331.71548
331.71882
331.70975
331.71288
331.70381
331.70678
331.69776
331.7006
331.69165
331.69437
331.68554
331.68813
331.67941
331.68188
331.67328
331.6756
331.66711
331.66927
331.66089
331.66287
331.65459
331.65637
331.64817
331.64973
331.6416
331.64293
331.63486
331.63594
331.6279
331.62873
331.62071
331.62126
331.61325
331.61353
331.6055
331.73847
331.73558
331.74004
331.73404
331.7398
331.7331
331.73822
331.73065
331.73494
331.72678
331.73037
331.72181
331.7249
331.71611
331.71886
331.70994
331.71248
331.70354
331.70593
331.69703
331.69931
331.69051
331.6927
331.68402
331.68614
331.67759
331.67964
331.67123
331.6732
331.66493
331.6668
331.65867
331.66042
331.65242
331.65402
331.64614
331.6476
331.63981
331.6411
331.6334
331.6345
331.62686
331.62776
331.62018
331.62086
331.6133
331.61376
331.60622
331.60645
331.59889
331.73673
331.73483
331.73843
331.73296
331.73799
331.73144
331.73566
331.72801
331.73131
331.72303
331.72562
331.71699
331.71913
331.71032
331.71219
331.70333
331.70506
331.69622
331.69788
331.68914
331.69075
331.68214
331.68373
331.67527
331.67683
331.66855
331.67008
331.66196
331.66346
331.65551
331.65694
331.64915
331.65051
331.64286
331.64413
331.63661
331.63776
331.63036
331.63139
331.62408
331.62496
331.61774
331.61846
331.61129
331.61184
331.6047
331.60508
331.59795
331.59814
331.59101
331.73488
331.73411
331.73676
331.73178
331.73594
331.72938
331.73255
331.72466
331.72687
331.71835
331.71988
331.7111
331.71227
331.70339
331.70439
331.69553
331.69648
331.68773
331.68867
331.68007
331.68104
331.67262
331.67362
331.66539
331.66643
331.65839
331.65945
331.6516
331.65266
331.64501
331.64605
331.63857
331.63957
331.63226
331.63321
331.62603
331.62691
331.61987
331.62065
331.61371
331.61439
331.60754
331.6081
331.60131
331.60174
331.59499
331.59528