/*--------------------------------*- C++ -*----------------------------------*\
| =========                 |                                                 |
| \\      /  F ield         | OpenFOAM: The Open Source CFD Toolbox           |
|  \\    /   O peration     | Version:  2312                                  |
|   \\  /    A nd           | Website:  www.openfoam.com                      |
|    \\/     M anipulation  |                                                 |
\*---------------------------------------------------------------------------*/
FoamFile
{
    version     2.0;
    format      ascii;
    arch        "LSB;label=32;scalar=64";
    class       volScalarField;
    location    "7";
    object      p;
}
// * * * * * * * * * * * * * * * * * * * * * * * * * * * * * * * * * * * * * //

dimensions      [0 2 -2 0 0 0 0];

internalField   nonuniform List<scalar> 
4000
(
39.836859
37.743881
35.995631
35.029887
33.868629
33.175161
32.217504
31.596688
30.703922
30.088602
29.220954
28.59596
27.743389
27.106726
26.266325
25.618595
24.78892
24.131177
23.311046
22.644355
21.832684
21.15805
20.353846
19.6722
18.87456
18.186751
17.394864
16.70166
15.914798
15.216889
14.434403
13.73241
12.953717
12.248197
11.472771
10.764228
9.9915896
9.280486
8.510195
7.7969536
7.028603
6.3136172
5.5468261
4.8304653
4.0648742
3.3474885
2.5827548
1.8646818
1.1004762
0.38204244
39.792741
37.74329
35.997152
35.029777
33.868716
33.175145
32.21752
31.59669
30.703929
30.088598
29.220959
28.595956
27.743393
27.106722
26.266328
25.618591
24.788923
24.131174
23.311049
22.644352
21.832686
21.158048
20.353848
19.672198
18.874562
18.186749
17.394866
16.701658
15.9148
15.216888
14.434405
13.732409
12.953718
12.248196
11.472772
10.764227
9.9915907
9.2804849
8.5101961
7.7969526
7.0286039
6.3136163
5.5468271
4.8304644
4.0648751
3.3474876
2.5827557
1.8646809
1.1004771
0.38204079
39.773925
37.74424
35.999336
35.029486
33.868862
33.175131
32.217541
31.596705
30.70393
30.088602
29.220958
28.595958
27.743392
27.106723
26.266327
25.618592
24.788922
24.131175
23.311048
22.644353
21.832686
21.158049
20.353848
19.672199
18.874562
18.18675
17.394865
16.701659
15.914799
15.216888
14.434405
13.732409
12.953718
12.248196
11.472771
10.764227
9.9915904
9.2804852
8.5101958
7.7969528
7.0286037
6.3136165
5.5468268
4.8304646
4.0648749
3.3474878
2.5827555
1.8646812
1.100477
0.38204022
39.731449
37.740129
36.001474
35.029116
33.869013
33.175108
32.217561
31.596721
30.703929
30.088608
29.220955
28.595961
27.743389
27.106726
26.266325
25.618595
24.78892
24.131177
23.311046
22.644355
21.832684
21.15805
20.353846
19.6722
18.874561
18.186751
17.394864
16.70166
15.914798
15.216889
14.434404
13.73241
12.953717
12.248197
11.472771
10.764228
9.9915897
9.2804859
8.5101951
7.7969535
7.028603
6.3136172
5.5468262
4.8304652
4.0648743
3.3474884
2.5827549
1.8646818
1.1004765
0.3820401
39.679975
37.736559
36.003292
35.028644
33.869177
33.175073
32.21758
31.596733
30.703927
30.088612
29.220952
28.595964
27.743387
27.106728
26.266323
25.618596
24.788919
24.131179
23.311045
22.644356
21.832683
21.158051
20.353845
19.672201
18.874559
18.186752
17.394863
16.701661
15.914797
15.21689
14.434403
13.732411
12.953716
12.248198
11.47277
10.764229
9.991589
9.2804866
8.5101945
7.7969541
7.0286024
6.3136177
5.5468256
4.8304658
4.0648737
3.3474889
2.5827544
1.8646824
1.100476
0.38204003
39.653222
37.732703
36.004477
35.028335
33.8694
33.175028
32.217598
31.596741
30.703924
30.088615
29.220949
28.595965
27.743385
27.10673
26.266321
25.618598
24.788917
24.13118
23.311043
22.644358
21.832682
21.158052
20.353844
19.672202
18.874559
18.186753
17.394862
16.701662
15.914797
15.216891
14.434402
13.732411
12.953716
12.248198
11.472769
10.764229
9.9915885
9.2804871
8.510194
7.7969546
7.028602
6.3136182
5.5468252
4.8304662
4.0648733
3.3474893
2.582754
1.8646828
1.1004756
0.38203994
39.61317
37.730787
36.004477
35.028757
33.869729
33.174984
32.217618
31.596745
30.703921
30.088618
29.220947
28.595967
27.743384
27.106731
26.26632
25.618599
24.788916
24.131181
23.311042
22.644358
21.832681
21.158053
20.353843
19.672203
18.874558
18.186754
17.394862
16.701662
15.914796
15.216891
14.434402
13.732412
12.953715
12.248199
11.472769
10.76423
9.9915881
9.2804874
8.5101936
7.7969549
7.0286016
6.3136185
5.5468249
4.8304665
4.064873
3.3474897
2.5827537
1.8646832
1.1004753
0.38203987
39.578013
37.730217
36.002813
35.030146
33.870053
33.174939
32.217638
31.596745
30.703918
30.088619
29.220945
28.595968
27.743382
27.106732
26.266319
25.6186
24.788915
24.131182
23.311041
22.644359
21.83268
21.158054
20.353843
19.672203
18.874557
18.186754
17.394861
16.701663
15.914795
15.216892
14.434401
13.732412
12.953715
12.248199
11.472769
10.76423
9.9915878
9.2804878
8.5101933
7.7969553
7.0286013
6.3136188
5.5468246
4.8304668
4.0648727
3.3474899
2.5827534
1.8646835
1.1004749
0.38203981
39.547853
37.728471
36.001768
35.031849
33.870127
33.174904
32.217658
31.596742
30.703915
30.088619
29.220943
28.595969
27.743381
27.106733
26.266318
25.618601
24.788914
24.131183
23.311041
22.64436
21.832679
21.158055
20.353842
19.672204
18.874557
18.186755
17.394861
16.701663
15.914795
15.216892
14.434401
13.732413
12.953715
12.248199
11.472768
10.764231
9.9915875
9.2804881
8.510193
7.7969555
7.0286011
6.3136191
5.5468243
4.8304671
4.0648725
3.3474902
2.5827532
1.8646838
1.1004746
0.38203976
39.518744
37.723958
36.002474
35.032984
33.869859
33.174904
32.217676
31.596734
30.70391
30.088619
29.220941
28.595969
27.74338
27.106734
26.266317
25.618602
24.788914
24.131183
23.31104
22.644361
21.832679
21.158055
20.353841
19.672205
18.874556
18.186755
17.39486
16.701664
15.914795
15.216893
14.4344
13.732413
12.953714
12.2482
11.472768
10.764231
9.9915872
9.2804883
8.5101927
7.7969558
7.0286008
6.3136193
5.5468241
4.8304673
4.0648722
3.3474904
2.582753
1.8646841
1.1004743
0.38203973
39.492567
37.719695
36.002777
35.033091
33.869339
33.174908
32.217674
31.596717
30.703903
30.088617
29.220939
28.59597
27.743379
27.106734
26.266316
25.618602
24.788913
24.131184
23.311039
22.644361
21.832678
21.158056
20.353841
19.672205
18.874556
18.186756
17.39486
16.701664
15.914794
15.216893
14.4344
13.732413
12.953714
12.2482
11.472768
10.764231
9.9915869
9.2804886
8.5101925
7.796956
7.0286006
6.3136195
5.5468239
4.8304675
4.064872
3.3474906
2.5827528
1.8646843
1.1004741
0.38203971
39.467278
37.714488
36.001247
35.032464
33.868742
33.174855
32.217639
31.596688
30.703892
30.088613
29.220936
28.59597
27.743377
27.106735
26.266315
25.618603
24.788912
24.131185
23.311039
22.644362
21.832678
21.158056
20.353841
19.672205
18.874555
18.186756
17.394859
16.701664
15.914794
15.216893
14.4344
13.732414
12.953714
12.2482
11.472767
10.764231
9.9915867
9.2804888
8.5101923
7.7969562
7.0286004
6.3136197
5.5468237
4.8304677
4.0648719
3.3474908
2.5827526
1.8646845
1.1004738
0.3820397
39.444282
37.70876
35.998969
35.031561
33.868172
33.174721
32.217571
31.596649
30.703878
30.088606
29.220932
28.595969
27.743376
27.106735
26.266315
25.618603
24.788912
24.131185
23.311038
22.644362
21.832677
21.158057
20.35384
19.672206
18.874555
18.186757
17.394859
16.701665
15.914794
15.216894
14.434399
13.732414
12.953713
12.2482
11.472767
10.764232
9.9915865
9.280489
8.5101921
7.7969564
7.0286002
6.3136199
5.5468236
4.8304678
4.0648717
3.347491
2.5827525
1.8646847
1.1004736
0.38203969
39.42481
37.702012
35.996278
35.030585
33.867622
33.174519
32.21748
31.596601
30.703863
30.088599
29.220927
28.595968
27.743375
27.106735
26.266314
25.618604
24.788911
24.131186
23.311038
22.644363
21.832677
21.158057
20.35384
19.672206
18.874555
18.186757
17.394859
16.701665
15.914793
15.216894
14.434399
13.732414
12.953713
12.248201
11.472767
10.764232
9.9915864
9.2804891
8.510192
7.7969565
7.0286001
6.31362
5.5468234
4.830468
4.0648716
3.3474911
2.5827523
1.8646849
1.1004733
0.38203969
39.404657
37.695308
35.9935
35.029504
33.867046
33.174278
32.217379
31.596549
30.703848
30.08859
29.220922
28.595967
27.743373
27.106736
26.266313
25.618604
24.788911
24.131186
23.311038
22.644363
21.832676
21.158057
20.35384
19.672206
18.874554
18.186757
17.394859
16.701665
15.914793
15.216894
14.434399
13.732414
12.953713
12.248201
11.472767
10.764232
9.9915862
9.2804893
8.5101918
7.7969567
7.0285999
6.3136202
5.5468233
4.8304681
4.0648714
3.3474912
2.5827522
1.864685
1.1004731
0.38203969
39.38819
37.688248
35.99071
35.028285
33.866427
33.17402
32.217275
31.596495
30.703834
30.088582
29.220917
28.595965
27.743372
27.106736
26.266313
25.618605
24.78891
24.131186
23.311037
22.644363
21.832676
21.158058
20.353839
19.672207
18.874554
18.186757
17.394858
16.701665
15.914793
15.216894
14.434399
13.732414
12.953713
12.248201
11.472767
10.764232
9.991586
9.2804894
8.5101917
7.7969568
7.0285998
6.3136203
5.5468231
4.8304682
4.0648713
3.3474914
2.5827521
1.8646851
1.1004729
0.3820397
39.376966
37.6822
35.988444
35.026888
33.86577
33.173763
32.217174
31.596441
30.703823
30.088575
29.220912
28.595964
27.743371
27.106736
26.266312
25.618605
24.78891
24.131187
23.311037
22.644364
21.832676
21.158058
20.353839
19.672207
18.874554
18.186758
17.394858
16.701665
15.914793
15.216894
14.434399
13.732415
12.953713
12.248201
11.472767
10.764232
9.9915859
9.2804896
8.5101915
7.7969569
7.0285997
6.3136204
5.546823
4.8304683
4.0648712
3.3474915
2.582752
1.8646853
1.1004727
0.38203971
39.364155
37.675487
35.986406
35.025393
33.865141
33.173528
32.21708
31.596392
30.703812
30.088569
29.220909
28.595963
27.743369
27.106736
26.266312
25.618605
24.788909
24.131187
23.311037
22.644364
21.832676
21.158058
20.353839
19.672207
18.874554
18.186758
17.394858
16.701666
15.914793
15.216895
14.434399
13.732415
12.953713
12.248201
11.472766
10.764232
9.9915858
9.2804897
8.5101914
7.796957
7.0285996
6.3136205
5.5468229
4.8304684
4.0648711
3.3474916
2.5827519
1.8646854
1.1004725
0.38203972
39.352001
37.66945
35.984615
35.023974
33.864585
33.173326
32.216996
31.596349
30.703803
30.088563
29.220907
28.595962
27.743368
27.106736
26.266311
25.618605
24.788909
24.131187
23.311036
22.644364
21.832675
21.158058
20.353839
19.672207
18.874554
18.186758
17.394858
16.701666
15.914792
15.216895
14.434398
13.732415
12.953712
12.248201
11.472766
10.764232
9.9915857
9.2804898
8.5101913
7.7969571
7.0285995
6.3136206
5.5468228
4.8304685
4.064871
3.3474917
2.5827518
1.8646854
1.1004723
0.38203974
39.343126
37.663343
35.982604
35.022708
33.864115
33.173161
32.216924
31.596313
30.703794
30.088558
29.220907
28.595961
27.743368
27.106736
26.266311
25.618606
24.788909
24.131187
23.311036
22.644364
21.832675
21.158059
20.353838
19.672208
18.874553
18.186758
17.394858
16.701666
15.914792
15.216895
14.434398
13.732415
12.953712
12.248201
11.472766
10.764233
9.9915856
9.2804899
8.5101912
7.7969572
7.0285994
6.3136207
5.5468227
4.8304686
4.0648709
3.3474917
2.5827518
1.8646855
1.1004721
0.38203975
39.331221
37.658068
35.980636
35.021616
33.863713
33.173025
32.216863
31.596283
30.703787
30.088552
29.220907
28.595961
27.743367
27.106736
26.26631
25.618606
24.788908
24.131188
23.311036
22.644365
21.832675
21.158059
20.353838
19.672208
18.874553
18.186758
17.394857
16.701666
15.914792
15.216895
14.434398
13.732415
12.953712
12.248202
11.472766
10.764233
9.9915855
9.28049
8.5101911
7.7969573
7.0285993
6.3136208
5.5468227
4.8304687
4.0648708
3.3474918
2.5827517
1.8646856
1.100472
0.38203977
39.322718
37.653198
35.978564
35.020644
33.863357
33.172911
32.216811
31.596258
30.703781
30.088545
29.220908
28.595961
27.743366
27.106736
26.26631
25.618606
24.788908
24.131188
23.311035
22.644365
21.832675
21.158059
20.353838
19.672208
18.874553
18.186758
17.394857
16.701666
15.914792
15.216895
14.434398
13.732415
12.953712
12.248202
11.472766
10.764233
9.9915854
9.2804901
8.5101911
7.7969574
7.0285992
6.3136208
5.5468226
4.8304688
4.0648708
3.3474919
2.5827516
1.8646857
1.1004718
0.38203979
39.312665
37.648975
35.976678
35.019771
33.863034
33.172812
32.216765
31.596237
30.703777
30.088538
29.22091
28.595961
27.743366
27.106736
26.266309
25.618606
24.788908
24.131188
23.311035
22.644365
21.832674
21.158059
20.353838
19.672208
18.874553
18.186759
17.394857
16.701666
15.914792
15.216895
14.434398
13.732415
12.953712
12.248202
11.472766
10.764233
9.9915853
9.2804902
8.510191
7.7969575
7.0285992
6.3136209
5.5468225
4.8304688
4.0648707
3.347492
2.5827516
1.8646857
1.1004717
0.38203981
39.306912
37.645224
35.974811
35.018977
33.862742
33.172724
32.216724
31.596218
30.703773
30.08853
29.220912
28.595961
27.743366
27.106736
26.266309
25.618606
24.788907
24.131188
23.311035
22.644365
21.832674
21.158059
20.353838
19.672208
18.874553
18.186759
17.394857
16.701667
15.914792
15.216895
14.434398
13.732415
12.953712
12.248202
11.472766
10.764233
9.9915852
9.2804902
8.5101909
7.7969576
7.0285991
6.313621
5.5468225
4.8304689
4.0648706
3.347492
2.5827515
1.8646858
1.1004715
0.38203983
39.300235
37.641693
35.973191
35.018273
33.862478
33.172648
32.216686
31.596201
30.70377
30.088523
29.220913
28.595961
27.743366
27.106736
26.266309
25.618606
24.788907
24.131188
23.311035
22.644365
21.832674
21.158059
20.353837
19.672208
18.874553
18.186759
17.394857
16.701667
15.914792
15.216896
14.434398
13.732416
12.953712
12.248202
11.472766
10.764233
9.9915852
9.2804903
8.5101908
7.7969576
7.028599
6.313621
5.5468224
4.8304689
4.0648706
3.3474921
2.5827515
1.8646858
1.1004714
0.38203985
39.295814
37.638767
35.971654
35.017645
33.862245
33.172582
32.216653
31.596186
30.703768
30.088516
29.220914
28.595961
27.743366
27.106736
26.266309
25.618606
24.788907
24.131188
23.311035
22.644365
21.832674
21.15806
20.353837
19.672208
18.874553
18.186759
17.394857
16.701667
15.914792
15.216896
14.434398
13.732416
12.953712
12.248202
11.472766
10.764233
9.9915851
9.2804904
8.5101908
7.7969577
7.028599
6.3136211
5.5468223
4.830469
4.0648705
3.3474921
2.5827514
1.8646858
1.1004713
0.38203987
39.290635
37.635884
35.970368
35.017108
33.862042
33.172527
32.216625
31.596174
30.703765
30.08851
29.220915
28.595961
27.743366
27.106737
26.266308
25.618607
24.788907
24.131189
23.311034
22.644365
21.832674
21.15806
20.353837
19.672209
18.874552
18.186759
17.394857
16.701667
15.914792
15.216896
14.434398
13.732416
12.953712
12.248202
11.472766
10.764233
9.991585
9.2804904
8.5101907
7.7969577
7.0285989
6.3136211
5.5468223
4.830469
4.0648705
3.3474922
2.5827514
1.8646859
1.1004711
0.38203989
39.287012
37.633744
35.969188
35.016645
33.86187
33.172484
32.216601
31.596164
30.703763
30.088505
29.220915
28.59596
27.743367
27.106737
26.266308
25.618607
24.788907
24.131189
23.311034
22.644366
21.832674
21.15806
20.353837
19.672209
18.874552
18.186759
17.394857
16.701667
15.914791
15.216896
14.434397
13.732416
12.953712
12.248202
11.472766
10.764233
9.991585
9.2804905
8.5101907
7.7969578
7.0285989
6.3136212
5.5468222
4.8304691
4.0648705
3.3474922
2.5827513
1.8646859
1.100471
0.3820399
39.283198
37.631459
35.968233
35.016265
33.86173
33.172453
32.216583
31.596156
30.703762
30.0885
29.220916
28.595959
27.743368
27.106737
26.266308
25.618607
24.788906
24.131189
23.311034
22.644366
21.832674
21.15806
20.353837
19.672209
18.874552
18.186759
17.394857
16.701667
15.914791
15.216896
14.434397
13.732416
12.953712
12.248202
11.472765
10.764233
9.9915849
9.2804905
8.5101906
7.7969578
7.0285988
6.3136212
5.5468222
4.8304691
4.0648704
3.3474923
2.5827513
1.8646859
1.1004709
0.38203992
39.280201
37.630001
35.967392
35.015954
33.861619
33.172433
32.216569
31.596151
30.703761
30.088497
29.220917
28.595957
27.74337
27.106738
26.266308
25.618607
24.788906
24.131189
23.311034
22.644366
21.832673
21.15806
20.353837
19.672209
18.874552
18.186759
17.394857
16.701667
15.914791
15.216896
14.434397
13.732416
12.953712
12.248202
11.472765
10.764233
9.9915849
9.2804906
8.5101906
7.7969579
7.0285988
6.3136213
5.5468222
4.8304692
4.0648704
3.3474923
2.5827513
1.8646859
1.1004708
0.38203994
39.277545
37.628233
35.966733
35.015714
33.861535
33.172423
32.21656
31.596148
30.703761
30.088494
29.220918
28.595956
27.743371
27.106738
26.266308
25.618607
24.788906
24.131189
23.311034
22.644366
21.832673
21.15806
20.353837
19.672209
18.874552
18.186759
17.394856
16.701667
15.914791
15.216896
14.434397
13.732416
12.953711
12.248202
11.472765
10.764233
9.9915848
9.2804906
8.5101906
7.7969579
7.0285988
6.3136213
5.5468221
4.8304692
4.0648703
3.3474923
2.5827512
1.864686
1.1004708
0.38203995
39.27495
37.627315
35.966185
35.015529
33.861475
33.172421
32.216555
31.596147
30.703762
30.088492
29.220919
28.595954
27.743372
27.106739
26.266308
25.618607
24.788906
24.131189
23.311034
22.644366
21.832673
21.15806
20.353837
19.672209
18.874552
18.186759
17.394856
16.701667
15.914791
15.216896
14.434397
13.732416
12.953711
12.248202
11.472765
10.764233
9.9915848
9.2804906
8.5101905
7.7969579
7.0285987
6.3136213
5.5468221
4.8304692
4.0648703
3.3474924
2.5827512
1.864686
1.1004707
0.38203996
39.273357
37.625982
35.965764
35.015397
33.861435
33.172426
32.216554
31.596148
30.703763
30.08849
29.22092
28.595952
27.743373
27.106739
26.266308
25.618607
24.788906
24.131189
23.311034
22.644366
21.832673
21.15806
20.353837
19.672209
18.874552
18.186759
17.394856
16.701667
15.914791
15.216896
14.434397
13.732416
12.953711
12.248202
11.472765
10.764233
9.9915848
9.2804907
8.5101905
7.796958
7.0285987
6.3136214
5.5468221
4.8304693
4.0648703
3.3474924
2.5827512
1.864686
1.1004706
0.38203997
39.271011
37.62539
35.965447
35.015309
33.861415
33.172437
32.216556
31.59615
30.703765
30.088489
29.220921
28.595951
27.743373
27.10674
26.266309
25.618608
24.788906
24.131189
23.311033
22.644366
21.832673
21.15806
20.353837
19.672209
18.874552
18.186759
17.394856
16.701667
15.914791
15.216896
14.434397
13.732416
12.953711
12.248202
11.472765
10.764233
9.9915847
9.2804907
8.5101905
7.796958
7.0285987
6.3136214
5.5468221
4.8304693
4.0648703
3.3474924
2.5827512
1.864686
1.1004706
0.38203998
39.270038
37.624481
35.96524
35.015269
33.861413
33.172455
32.216561
31.596153
30.703767
30.088488
29.220922
28.59595
27.743373
27.10674
26.266309
25.618608
24.788906
24.131189
23.311033
22.644366
21.832673
21.15806
20.353837
19.672209
18.874552
18.186759
17.394856
16.701667
15.914791
15.216896
14.434397
13.732416
12.953711
12.248202
11.472765
10.764233
9.9915847
9.2804907
8.5101904
7.796958
7.0285987
6.3136214
5.546822
4.8304693
4.0648703
3.3474924
2.5827512
1.864686
1.1004706
0.38203998
39.268181
37.624205
35.96513
35.015266
33.861427
33.172476
32.216569
31.596158
30.703769
30.088488
29.220923
28.595949
27.743374
27.10674
26.266309
25.618608
24.788906
24.131189
23.311033
22.644366
21.832673
21.15806
20.353836
19.672209
18.874552
18.18676
17.394856
16.701667
15.914791
15.216896
14.434397
13.732416
12.953711
12.248202
11.472765
10.764233
9.9915847
9.2804907
8.5101904
7.796958
7.0285986
6.3136214
5.546822
4.8304693
4.0648702
3.3474925
2.5827512
1.864686
1.1004705
0.38203998
39.267697
37.623643
35.965098
35.015298
33.861454
33.172501
32.216579
31.596163
30.703772
30.088489
29.220924
28.595949
27.743373
27.10674
26.26631
25.618608
24.788906
24.131189
23.311033
22.644366
21.832673
21.15806
20.353836
19.672209
18.874552
18.18676
17.394856
16.701667
15.914791
15.216896
14.434397
13.732416
12.953711
12.248202
11.472765
10.764233
9.9915847
9.2804907
8.5101904
7.796958
7.0285986
6.3136214
5.546822
4.8304693
4.0648702
3.3474925
2.5827512
1.864686
1.1004706
0.38203997
39.266447
37.623614
35.965129
35.015346
33.861486
33.172526
32.216589
31.596168
30.703775
30.08849
29.220925
28.595949
27.743373
27.106741
26.26631
25.618608
24.788906
24.131189
23.311033
22.644366
21.832673
21.15806
20.353836
19.672209
18.874552
18.18676
17.394856
16.701667
15.914791
15.216896
14.434397
13.732416
12.953711
12.248202
11.472765
10.764233
9.9915847
9.2804908
8.5101904
7.796958
7.0285986
6.3136214
5.546822
4.8304693
4.0648702
3.3474925
2.5827512
1.864686
1.1004706
0.38203996
39.266452
37.623305
35.965181
35.015402
33.861518
33.172548
32.216599
31.596173
30.703777
30.08849
29.220926
28.595949
27.743373
27.106741
26.26631
25.618609
24.788906
24.131189
23.311033
22.644366
21.832673
21.15806
20.353836
19.672209
18.874552
18.18676
17.394856
16.701667
15.914791
15.216896
14.434397
13.732416
12.953711
12.248202
11.472765
10.764233
9.9915847
9.2804908
8.5101904
7.796958
7.0285986
6.3136214
5.546822
4.8304693
4.0648702
3.3474924
2.5827512
1.864686
1.1004706
0.38203993
39.26566
37.6235
35.965249
35.01544
33.861539
33.172561
32.216604
31.596175
30.703778
30.088491
29.220926
28.595949
27.743374
27.106741
26.26631
25.618609
24.788906
24.131189
23.311033
22.644366
21.832673
21.15806
20.353836
19.672209
18.874552
18.18676
17.394856
16.701667
15.914791
15.216896
14.434397
13.732416
12.953711
12.248202
11.472765
10.764233
9.9915847
9.2804907
8.5101904
7.796958
7.0285986
6.3136214
5.546822
4.8304693
4.0648703
3.3474924
2.5827512
1.864686
1.1004707
0.38203992
39.266093
37.623347
35.965256
35.015445
33.861542
33.172561
32.216604
31.596175
30.703777
30.088491
29.220926
28.595949
27.743374
27.106741
26.26631
25.618609
24.788906
24.131189
23.311033
22.644366
21.832673
21.15806
20.353836
19.672209
18.874552
18.18676
17.394856
16.701667
15.914791
15.216896
14.434397
13.732416
12.953711
12.248202
11.472765
10.764233
9.9915847
9.2804907
8.5101904
7.796958
7.0285986
6.3136214
5.546822
4.8304693
4.0648703
3.3474924
2.5827512
1.864686
1.1004707
0.38203992
39.265772
37.623598
35.965246
35.015415
33.861527
33.17255
32.216599
31.596172
30.703776
30.08849
29.220925
28.595949
27.743373
27.106741
26.26631
25.618609
24.788906
24.131189
23.311033
22.644366
21.832673
21.15806
20.353836
19.672209
18.874552
18.18676
17.394856
16.701667
15.914791
15.216896
14.434397
13.732416
12.953711
12.248202
11.472765
10.764233
9.9915847
9.2804908
8.5101904
7.796958
7.0285986
6.3136214
5.546822
4.8304693
4.0648702
3.3474924
2.5827512
1.864686
1.1004706
0.38203993
39.266637
37.623609
35.965205
35.015374
33.861501
33.17253
32.216591
31.596168
30.703774
30.088489
29.220925
28.595949
27.743373
27.106741
26.26631
25.618608
24.788906
24.131189
23.311033
22.644366
21.832673
21.15806
20.353836
19.672209
18.874552
18.18676
17.394856
16.701667
15.914791
15.216896
14.434397
13.732416
12.953711
12.248202
11.472765
10.764233
9.9915847
9.2804908
8.5101904
7.796958
7.0285986
6.3136214
5.546822
4.8304693
4.0648702
3.3474925
2.5827512
1.864686
1.1004706
0.38203996
39.266736
37.624106
35.965234
35.015337
33.861476
33.172508
32.216581
31.596162
30.703772
30.088488
29.220924
28.595949
27.743373
27.10674
26.26631
25.618608
24.788906
24.131189
23.311033
22.644366
21.832673
21.15806
20.353836
19.672209
18.874552
18.18676
17.394856
16.701667
15.914791
15.216896
14.434397
13.732416
12.953711
12.248202
11.472765
10.764233
9.9915847
9.2804907
8.5101904
7.796958
7.0285986
6.3136214
5.546822
4.8304693
4.0648702
3.3474925
2.5827512
1.864686
1.1004706
0.38203997
39.268128
37.624371
35.965284
35.015324
33.861457
33.172485
32.216572
31.596157
30.703769
30.088488
29.220923
28.595949
27.743373
27.10674
26.266309
25.618608
24.788906
24.131189
23.311033
22.644366
21.832673
21.15806
20.353836
19.672209
18.874552
18.18676
17.394856
16.701667
15.914791
15.216896
14.434397
13.732416
12.953711
12.248202
11.472765
10.764233
9.9915847
9.2804907
8.5101904
7.796958
7.0285986
6.3136214
5.546822
4.8304693
4.0648702
3.3474925
2.5827512
1.864686
1.1004705
0.38203998
39.268746
37.625112
35.965459
35.015339
33.861451
33.172466
32.216565
31.596153
30.703766
30.088488
29.220922
28.595949
27.743373
27.10674
26.266309
25.618608
24.788906
24.131189
23.311033
22.644366
21.832673
21.15806
20.353837
19.672209
18.874552
18.186759
17.394856
16.701667
15.914791
15.216896
14.434397
13.732416
12.953711
12.248202
11.472765
10.764233
9.9915847
9.2804907
8.5101904
7.796958
7.0285987
6.3136214
5.546822
4.8304693
4.0648703
3.3474924
2.5827512
1.864686
1.1004706
0.38203998
39.270787
37.625718
35.965683
35.015398
33.861461
33.172452
32.216561
31.59615
30.703764
30.088488
29.220921
28.59595
27.743373
27.10674
26.266309
25.618608
24.788906
24.131189
23.311033
22.644366
21.832673
21.15806
20.353837
19.672209
18.874552
18.186759
17.394856
16.701667
15.914791
15.216896
14.434397
13.732416
12.953711
12.248202
11.472765
10.764233
9.9915847
9.2804907
8.5101905
7.796958
7.0285987
6.3136214
5.5468221
4.8304693
4.0648703
3.3474924
2.5827512
1.864686
1.1004706
0.38203998
39.271799
37.62683
35.966074
35.015499
33.861489
33.172444
32.216561
31.596148
30.703763
30.088489
29.22092
28.595952
27.743372
27.106739
26.266308
25.618607
24.788906
24.131189
23.311034
22.644366
21.832673
21.15806
20.353837
19.672209
18.874552
18.186759
17.394856
16.701667
15.914791
15.216896
14.434397
13.732416
12.953711
12.248202
11.472765
10.764233
9.9915848
9.2804907
8.5101905
7.796958
7.0285987
6.3136214
5.5468221
4.8304693
4.0648703
3.3474924
2.5827512
1.864686
1.1004706
0.38203997
39.274324
37.627742
35.966503
35.015651
33.861537
33.172441
32.216563
31.596148
30.703762
30.088491
29.220919
28.595954
27.743372
27.106739
26.266308
25.618607
24.788906
24.131189
23.311034
22.644366
21.832673
21.15806
20.353837
19.672209
18.874552
18.186759
17.394856
16.701667
15.914791
15.216896
14.434397
13.732416
12.953711
12.248202
11.472765
10.764233
9.9915848
9.2804906
8.5101905
7.7969579
7.0285987
6.3136213
5.5468221
4.8304692
4.0648703
3.3474924
2.5827512
1.864686
1.1004707
0.38203996
39.276018
37.62938
35.967134
35.01585
33.861605
33.172446
32.216569
31.596149
30.703762
30.088493
29.220918
28.595955
27.743371
27.106738
26.266308
25.618607
24.788906
24.131189
23.311034
22.644366
21.832673
21.15806
20.353837
19.672209
18.874552
18.186759
17.394856
16.701667
15.914791
15.216896
14.434397
13.732416
12.953711
12.248202
11.472765
10.764233
9.9915848
9.2804906
8.5101906
7.7969579
7.0285988
6.3136213
5.5468221
4.8304692
4.0648703
3.3474923
2.5827512
1.864686
1.1004708
0.38203995
39.278713
37.630536
35.967802
35.016112
33.861698
33.17246
32.21658
31.596152
30.703762
30.088496
29.220917
28.595957
27.743369
27.106738
26.266308
25.618607
24.788906
24.131189
23.311034
22.644366
21.832673
21.15806
20.353837
19.672209
18.874552
18.186759
17.394857
16.701667
15.914791
15.216896
14.434397
13.732416
12.953712
12.248202
11.472765
10.764233
9.9915849
9.2804906
8.5101906
7.7969579
7.0285988
6.3136213
5.5468222
4.8304692
4.0648704
3.3474923
2.5827513
1.8646859
1.1004708
0.38203994
39.281757
37.632744
35.968698
35.016433
33.861817
33.172483
32.216595
31.596158
30.703763
30.0885
29.220916
28.595959
27.743368
27.106737
26.266308
25.618607
24.788906
24.131189
23.311034
22.644366
21.832674
21.15806
20.353837
19.672209
18.874552
18.186759
17.394857
16.701667
15.914791
15.216896
14.434397
13.732416
12.953712
12.248202
11.472765
10.764233
9.9915849
9.2804905
8.5101906
7.7969578
7.0285988
6.3136212
5.5468222
4.8304691
4.0648704
3.3474923
2.5827513
1.8646859
1.1004709
0.38203992
39.284906
37.634429
35.969683
35.016834
33.861966
33.172517
32.216615
31.596166
30.703764
30.088504
29.220915
28.59596
27.743367
27.106737
26.266308
25.618607
24.788907
24.131189
23.311034
22.644366
21.832674
21.15806
20.353837
19.672209
18.874552
18.186759
17.394857
16.701667
15.914791
15.216896
14.434397
13.732416
12.953712
12.248202
11.472766
10.764233
9.991585
9.2804905
8.5101907
7.7969578
7.0285989
6.3136212
5.5468222
4.8304691
4.0648705
3.3474922
2.5827513
1.8646859
1.100471
0.3820399
39.289301
37.63726
35.970879
35.017302
33.862143
33.172562
32.21664
31.596176
30.703766
30.08851
29.220915
28.595961
27.743366
27.106737
26.266308
25.618607
24.788907
24.131189
23.311034
22.644365
21.832674
21.15806
20.353837
19.672209
18.874552
18.186759
17.394857
16.701667
15.914792
15.216896
14.434398
13.732416
12.953712
12.248202
11.472766
10.764233
9.991585
9.2804904
8.5101907
7.7969577
7.0285989
6.3136211
5.5468223
4.830469
4.0648705
3.3474922
2.5827514
1.8646859
1.1004711
0.38203989
39.293043
37.639606
35.972218
35.017861
33.862353
33.172618
32.216669
31.596189
30.703769
30.088516
29.220914
28.595961
27.743366
27.106736
26.266308
25.618606
24.788907
24.131188
23.311035
22.644365
21.832674
21.15806
20.353837
19.672208
18.874553
18.186759
17.394857
16.701667
15.914792
15.216896
14.434398
13.732416
12.953712
12.248202
11.472766
10.764233
9.9915851
9.2804904
8.5101908
7.7969577
7.028599
6.3136211
5.5468223
4.830469
4.0648705
3.3474921
2.5827514
1.8646858
1.1004713
0.38203987
39.299077
37.643174
35.973735
35.018491
33.862592
33.172686
32.216703
31.596204
30.703772
30.088523
29.220913
28.595961
27.743365
27.106736
26.266309
25.618606
24.788907
24.131188
23.311035
22.644365
21.832674
21.158059
20.353837
19.672208
18.874553
18.186759
17.394857
16.701667
15.914792
15.216896
14.434398
13.732416
12.953712
12.248202
11.472766
10.764233
9.9915852
9.2804903
8.5101908
7.7969576
7.028599
6.313621
5.5468224
4.8304689
4.0648706
3.3474921
2.5827515
1.8646858
1.1004714
0.38203985
39.303402
37.646233
35.975421
35.019215
33.862863
33.172765
32.216742
31.596221
30.703775
30.088531
29.220912
28.595961
27.743365
27.106736
26.266309
25.618606
24.788907
24.131188
23.311035
22.644365
21.832674
21.158059
20.353838
19.672208
18.874553
18.186759
17.394857
16.701667
15.914792
15.216895
14.434398
13.732415
12.953712
12.248202
11.472766
10.764233
9.9915852
9.2804902
8.5101909
7.7969576
7.0285991
6.313621
5.5468225
4.8304689
4.0648706
3.347492
2.5827515
1.8646858
1.1004715
0.38203983
39.311355
37.65048
35.977204
35.020006
33.863162
33.172857
32.216785
31.596241
30.703779
30.088538
29.22091
28.595961
27.743366
27.106736
26.266309
25.618606
24.788908
24.131188
23.311035
22.644365
21.832674
21.158059
20.353838
19.672208
18.874553
18.186759
17.394857
16.701666
15.914792
15.216895
14.434398
13.732415
12.953712
12.248202
11.472766
10.764233
9.9915853
9.2804902
8.510191
7.7969575
7.0285992
6.3136209
5.5468225
4.8304688
4.0648707
3.347492
2.5827516
1.8646857
1.1004717
0.38203981
39.316995
37.654154
35.979146
35.02089
33.863493
33.172961
32.216834
31.596264
30.703784
30.088545
29.220908
28.595961
27.743366
27.106736
26.26631
25.618606
24.788908
24.131188
23.311035
22.644365
21.832675
21.158059
20.353838
19.672208
18.874553
18.186758
17.394857
16.701666
15.914792
15.216895
14.434398
13.732415
12.953712