/*--------------------------------*- C++ -*----------------------------------*\
| =========                 |                                                 |
| \\      /  F ield         | OpenFOAM: The Open Source CFD Toolbox           |
|  \\    /   O peration     | Version:  2312                                  |
|   \\  /    A nd           | Website:  www.openfoam.com                      |
|    \\/     M anipulation  |                                                 |
\*---------------------------------------------------------------------------*/
FoamFile
{
    version     2.0;
    format      ascii;
    arch        "LSB;label=32;scalar=64";
    class       volScalarField;
    location    "10";
    object      p;
}
// * * * * * * * * * * * * * * * * * * * * * * * * * * * * * * * * * * * * * //

dimensions      [0 2 -2 0 0 0 0];

internalField   nonuniform List<scalar> 
4000
(
14.378559
13.887267
13.775635
13.323655
13.191469
12.757649
12.606202
12.189785
12.021715
11.620737
11.438153
11.050746
10.855446
10.479943
10.273497
9.9084279
9.6922177
9.3362859
9.1115274
8.7635917
8.5313566
8.1904103
7.9516441
7.6167987
7.3723368
7.0428065
6.793388
6.468477
6.2147575
5.8938477
5.6364101
5.3189511
5.0583156
4.7438153
4.4804481
4.1684642
3.9027854
3.5929181
3.3253088
3.0171942
2.7480027
2.4413064
2.1708545
1.8652661
1.5938542
1.2890821
1.0169943
0.71276042
0.44026945
0.13630175
14.37742
13.886826
13.775633
13.323663
13.191461
12.757656
12.606195
12.189791
12.021709
11.620742
11.438148
11.050751
10.855441
10.479947
10.273493
9.9084315
9.6922143
9.3362891
9.1115244
8.7635945
8.5313539
8.1904128
7.9516418
7.6168009
7.3723347
7.0428085
6.7933862
6.4684787
6.2147558
5.8938493
5.6364086
5.3189525
5.0583143
4.7438165
4.4804469
4.1684653
3.9027843
3.5929191
3.3253078
3.0171951
2.7480018
2.4413073
2.1708536
1.865267
1.5938533
1.2890829
1.0169935
0.7127612
0.44026866
0.13630277
14.374803
13.886427
13.775649
13.323663
13.191461
12.757656
12.606195
12.189791
12.021709
11.620742
11.438148
11.050751
10.855441
10.479947
10.273493
9.9084316
9.6922142
9.3362892
9.1115243
8.7635946
8.5313538
8.1904129
7.9516417
7.616801
7.3723346
7.0428085
6.7933861
6.4684788
6.2147558
5.8938493
5.6364086
5.3189526
5.0583143
4.7438166
4.4804469
4.1684653
3.9027843
3.5929192
3.3253077
3.0171951
2.7480017
2.4413073
2.1708536
1.865267
1.5938533
1.2890829
1.0169934
0.71276124
0.4402686
0.13630305
14.371813
13.88607
13.775669
13.323661
13.191463
12.757653
12.606197
12.189789
12.021711
11.62074
11.438149
11.050749
10.855443
10.479946
10.273495
9.9084303
9.6922155
9.336288
9.1115254
8.7635935
8.5313548
8.190412
7.9516426
7.6168002
7.3723354
7.0428078
6.7933868
6.4684782
6.2147564
5.8938487
5.6364091
5.3189521
5.0583148
4.7438161
4.4804473
4.1684649
3.9027847
3.5929188
3.3253081
3.0171948
2.7480021
2.441307
2.1708539
1.8652667
1.5938536
1.2890826
1.0169937
0.71276095
0.44026885
0.13630299
14.368962
13.885739
13.775687
13.323659
13.191466
12.75765
12.6062
12.189786
12.021713
11.620738
11.438151
11.050748
10.855444
10.479944
10.273496
9.9084289
9.6922167
9.3362868
9.1115266
8.7635925
8.5313558
8.190411
7.9516434
7.6167993
7.3723362
7.0428071
6.7933875
6.4684775
6.214757
5.8938482
5.6364097
5.3189515
5.0583153
4.7438157
4.4804478
4.1684645
3.9027851
3.5929184
3.3253085
3.0171944
2.7480024
2.4413066
2.1708542
1.8652664
1.5938539
1.2890823
1.016994
0.71276066
0.44026913
0.13630289
14.366286
13.885423
13.775701
13.323659
13.191469
12.757648
12.606202
12.189784
12.021715
11.620737
11.438153
11.050746
10.855446
10.479943
10.273497
9.9084278
9.6922178
9.3362858
9.1115275
8.7635916
8.5313566
8.1904103
7.9516442
7.6167987
7.3723368
7.0428065
6.793388
6.468477
6.2147575
5.8938477
5.6364101
5.3189511
5.0583157
4.7438153
4.4804481
4.1684642
3.9027854
3.5929181
3.3253088
3.0171941
2.7480027
2.4413064
2.1708545
1.8652661
1.5938542
1.289082
1.0169943
0.71276042
0.44026936
0.13630282
14.363728
13.885122
13.775711
13.323658
13.191471
12.757646
12.606203
12.189783
12.021716
11.620735
11.438154
11.050745
10.855447
10.479942
10.273498
9.9084269
9.6922187
9.336285
9.1115282
8.7635909
8.5313573
8.1904096
7.9516448
7.6167981
7.3723373
7.042806
6.7933885
6.4684765
6.2147579
5.8938473
5.6364105
5.3189508
5.058316
4.743815
4.4804485
4.1684639
3.9027857
3.5929178
3.325309
3.0171939
2.7480029
2.4413061
2.1708547
1.8652659
1.5938544
1.2890818
1.0169945
0.7127602
0.44026956
0.13630275
14.36127
13.884836
13.775719
13.323657
13.191474
12.757644
12.606205
12.189781
12.021717
11.620734
11.438155
11.050744
10.855448
10.479941
10.273499
9.908426
9.6922195
9.3362843
9.1115289
8.7635902
8.5313579
8.190409
7.9516453
7.6167976
7.3723378
7.0428055
6.7933889
6.4684761
6.2147583
5.8938469
5.6364108
5.3189504
5.0583163
4.7438147
4.4804487
4.1684636
3.902786
3.5929176
3.3253093
3.0171937
2.7480032
2.4413059
2.1708549
1.8652657
1.5938546
1.2890816
1.0169947
0.71276001
0.44026975
0.13630269
14.358915
13.884566
13.775726
13.323656
13.191476
12.757642
12.606206
12.18978
12.021719
11.620733
11.438156
11.050743
10.855449
10.47994
10.2735
9.9084253
9.6922202
9.3362836
9.1115296
8.7635896
8.5313585
8.1904085
7.9516458
7.6167971
7.3723383
7.0428051
6.7933893
6.4684758
6.2147587
5.8938466
5.6364112
5.3189501
5.0583166
4.7438144
4.480449
4.1684633
3.9027862
3.5929173
3.3253095
3.0171935
2.7480034
2.4413057
2.1708551
1.8652655
1.5938548
1.2890815
1.0169948
0.71275983
0.44026993
0.13630262
14.356662
13.88431
13.775731
13.323654
13.191477
12.757641
12.606207
12.189779
12.02172
11.620732
11.438157
11.050742
10.85545
10.479939
10.273501
9.9084245
9.6922209
9.3362829
9.1115302
8.7635891
8.531359
8.190408
7.9516463
7.6167967
7.3723387
7.0428047
6.7933897
6.4684754
6.214759
5.8938463
5.6364115
5.3189499
5.0583169
4.7438141
4.4804492
4.1684631
3.9027864
3.5929171
3.3253097
3.0171933
2.7480035
2.4413056
2.1708553
1.8652653
1.5938549
1.2890813
1.016995
0.71275966
0.4402701
0.13630255
14.35451
13.884068
13.775735
13.323653
13.191478
12.75764
12.606209
12.189778
12.021721
11.620731
11.438158
11.050741
10.855451
10.479939
10.273502
9.9084239
9.6922215
9.3362824
9.1115307
8.7635885
8.5313595
8.1904076
7.9516467
7.6167963
7.3723391
7.0428044
6.79339
6.4684751
6.2147593
5.893846
5.6364117
5.3189496
5.0583171
4.7438139
4.4804494
4.1684629
3.9027866
3.5929169
3.3253099
3.0171931
2.7480037
2.4413054
2.1708555
1.8652652
1.5938551
1.2890811
1.0169952
0.71275951
0.44027027
0.13630248
14.352459
13.883838
13.775737
13.323652
13.191479
12.757639
12.60621
12.189777
12.021722
11.62073
11.438159
11.05074
10.855451
10.479938
10.273502
9.9084233
9.6922221
9.3362818
9.1115312
8.7635881
8.5313599
8.1904071
7.9516471
7.6167959
7.3723394
7.042804
6.7933904
6.4684748
6.2147596
5.8938457
5.636412
5.3189494
5.0583173
4.7438137
4.4804496
4.1684627
3.9027868
3.5929168
3.32531
3.0171929
2.7480039
2.4413052
2.1708556
1.865265
1.5938552
1.289081
1.0169953
0.71275936
0.44027042
0.13630242
14.350507
13.883618
13.77574
13.323652
13.191479
12.757638
12.606211
12.189776
12.021723
11.620729
11.43816
11.05074
10.855452
10.479937
10.273503
9.9084227
9.6922226
9.3362813
9.1115317
8.7635876
8.5313604
8.1904067
7.9516475
7.6167956
7.3723397
7.0428037
6.7933906
6.4684745
6.2147598
5.8938455
5.6364122
5.3189491
5.0583175
4.7438135
4.4804498
4.1684625
3.902787
3.5929166
3.3253102
3.0171928
2.748004
2.4413051
2.1708557
1.8652649
1.5938554
1.2890809
1.0169954
0.71275923
0.44027056
0.13630235
14.348652
13.883409
13.775744
13.323653
13.191478
12.757637
12.606212
12.189775
12.021723
11.620729
11.438161
11.050739
10.855453
10.479937
10.273503
9.9084222
9.6922231
9.3362809
9.1115321
8.7635872
8.5313607
8.1904064
7.9516478
7.6167952
7.37234
7.0428034
6.7933909
6.4684743
6.2147601
5.8938453
5.6364124
5.3189489
5.0583177
4.7438133
4.48045
4.1684624
3.9027871
3.5929165
3.3253104
3.0171926
2.7480042
2.441305
2.1708559
1.8652648
1.5938555
1.2890807
1.0169955
0.71275911
0.4402707
0.13630228
14.346894
13.883223
13.775742
13.323651
13.191477
12.757636
12.606213
12.189774
12.021724
11.620728
11.438161
11.050738
10.855453
10.479936
10.273504
9.9084217
9.6922235
9.3362804
9.1115325
8.7635868
8.5313611
8.190406
7.9516481
7.6167949
7.3723403
7.0428032
6.7933912
6.468474
6.2147603
5.8938451
5.6364126
5.3189488
5.0583179
4.7438131
4.4804502
4.1684622
3.9027873
3.5929163
3.3253105
3.0171925
2.7480043
2.4413048
2.170856
1.8652646
1.5938556
1.2890806
1.0169957
0.71275899
0.44027082
0.13630221
14.345227
13.883094
13.775707
13.323643
13.191474
12.757635
12.606213
12.189774
12.021725
11.620727
11.438162
11.050738
10.855454
10.479936
10.273504
9.9084212
9.692224
9.33628
9.1115329
8.7635865
8.5313614
8.1904057
7.9516484
7.6167947
7.3723406
7.0428029
6.7933914
6.4684738
6.2147605
5.8938449
5.6364128
5.3189486
5.0583181
4.743813
4.4804503
4.1684621
3.9027874
3.5929162
3.3253106
3.0171924
2.7480044
2.4413047
2.1708561
1.8652645
1.5938557
1.2890805
1.0169958
0.71275888
0.44027095
0.13630214
14.343649
13.88304
13.775617
13.323627
13.191469
12.757633
12.606214
12.189773
12.021726
11.620727
11.438163
11.050737
10.855454
10.479935
10.273505
9.9084208
9.6922244
9.3362797
9.1115333
8.7635862
8.5313617
8.1904054
7.9516487
7.6167944
7.3723408
7.0428027
6.7933916
6.4684736
6.2147607
5.8938447
5.636413
5.3189484
5.0583182
4.7438128
4.4804505
4.1684619
3.9027875
3.5929161
3.3253107
3.0171923
2.7480045
2.4413046
2.1708562
1.8652644
1.5938558
1.2890804
1.0169959
0.71275878
0.44027106
0.13630208
14.342165
13.882991
13.775514
13.323613
13.191466
12.757632
12.606215
12.189772
12.021726
11.620726
11.438163
11.050737
10.855455
10.479935
10.273505
9.9084204
9.6922247
9.3362793
9.1115336
8.7635859
8.531362
8.1904052
7.9516489
7.6167942
7.372341
7.0428025
6.7933918
6.4684734
6.2147609
5.8938445
5.6364131
5.3189483
5.0583184
4.7438127
4.4804506
4.1684618
3.9027876
3.5929159
3.3253108
3.0171922
2.7480046
2.4413045
2.1708563
1.8652643
1.5938559
1.2890803
1.016996
0.71275869
0.44027117
0.13630201
14.340776
13.882857
13.775474
13.323611
13.191464
12.757632
12.606215
12.189772
12.021727
11.620725
11.438164
11.050736
10.855455
10.479934
10.273506
9.90842
9.6922251
9.336279
9.1115339
8.7635856
8.5313623
8.1904049
7.9516492
7.6167939
7.3723412
7.0428023
6.793392
6.4684733
6.214761
5.8938444
5.6364133
5.3189481
5.0583185
4.7438126
4.4804507
4.1684617
3.9027878
3.5929158
3.3253109
3.0171921
2.7480047
2.4413044
2.1708564
1.8652642
1.593856
1.2890802
1.016996
0.7127586
0.44027127
0.13630195
14.339481
13.88266
13.775492
13.323617
13.191464
12.757631
12.606216
12.189771
12.021728
11.620725
11.438164
11.050736
10.855456
10.479934
10.273506
9.9084197
9.6922254
9.3362787
9.1115342
8.7635853
8.5313625
8.1904047
7.9516494
7.6167937
7.3723414
7.0428021
6.7933922
6.4684731
6.2147612
5.8938442
5.6364134
5.318948
5.0583186
4.7438125
4.4804508
4.1684616
3.9027879
3.5929157
3.325311
3.017192
2.7480048
2.4413043
2.1708565
1.8652642
1.5938561
1.2890802
1.0169961
0.71275852
0.44027136
0.13630189
14.338278
13.882464
13.775521
13.32362
13.191464
12.757631
12.606217
12.189771
12.021728
11.620725
11.438164
11.050735
10.855456
10.479934
10.273506
9.9084194
9.6922257
9.3362784
9.1115344
8.7635851
8.5313628
8.1904045
7.9516496
7.6167935
7.3723416
7.042802
6.7933923
6.4684729
6.2147613
5.8938441
5.6364135
5.3189479
5.0583187
4.7438124
4.4804509
4.1684615
3.902788
3.5929156
3.3253111
3.0171919
2.7480049
2.4413043
2.1708566
1.8652641
1.5938562
1.2890801
1.0169962
0.71275845
0.44027145
0.13630183
14.337164
13.882298
13.775542
13.323617
13.191464
12.757631
12.606218
12.189771
12.021729
11.620724
11.438165
11.050735
10.855456
10.479933
10.273507
9.9084191
9.692226
9.3362782
9.1115347
8.7635848
8.531363
8.1904043
7.9516498
7.6167934
7.3723418
7.0428018
6.7933925
6.4684728
6.2147614
5.8938439
5.6364137
5.3189478
5.0583188
4.7438123
4.480451
4.1684614
3.902788
3.5929156
3.3253112
3.0171918
2.748005
2.4413042
2.1708566
1.865264
1.5938562
1.28908
1.0169963
0.71275838
0.44027154
0.13630178
14.33613
13.882158
13.775555
13.323609
13.191463
12.757631
12.606219
12.18977
12.021729
11.620724
11.438165
11.050735
10.855457
10.479933
10.273507
9.9084188
9.6922262
9.3362779
9.1115349
8.7635846
8.5313632
8.1904041
7.95165
7.6167932
7.3723419
7.0428016
6.7933926
6.4684727
6.2147616
5.8938438
5.6364138
5.3189477
5.0583189
4.7438122
4.4804511
4.1684613
3.9027881
3.5929155
3.3253113
3.0171917
2.748005
2.4413041
2.1708567
1.865264
1.5938563
1.28908
1.0169963
0.71275831
0.44027161
0.13630172
14.335175
13.882038
13.775562
13.3236
13.191463
12.757631
12.606219
12.18977
12.02173
11.620723
11.438166
11.050734
10.855457
10.479933
10.273507
9.9084186
9.6922264
9.3362777
9.1115351
8.7635844
8.5313634
8.1904039
7.9516501
7.6167931
7.3723421
7.0428015
6.7933927
6.4684725
6.2147617
5.8938437
5.6364139
5.3189476
5.058319
4.7438121
4.4804512
4.1684612
3.9027882
3.5929154
3.3253113
3.0171917
2.7480051
2.4413041
2.1708568
1.8652639
1.5938563
1.2890799
1.0169964
0.71275825
0.44027169
0.13630167
14.334295
13.881931
13.775562
13.323593
13.191464
12.757631
12.60622
12.18977
12.02173
11.620723
11.438166
11.050734
10.855457
10.479932
10.273507
9.9084183
9.6922267
9.3362775
9.1115353
8.7635842
8.5313635
8.1904038
7.9516503
7.6167929
7.3723422
7.0428014
6.7933929
6.4684724
6.2147618
5.8938436
5.636414
5.3189475
5.0583191
4.743812
4.4804513
4.1684612
3.9027883
3.5929153
3.3253114
3.0171916
2.7480052
2.441304
2.1708568
1.8652638
1.5938564
1.2890798
1.0169964
0.7127582
0.44027175
0.13630162
14.333488
13.881837
13.775554
13.32359
13.191465
12.757631
12.606221
12.18977
12.02173
11.620723
11.438166
11.050734
10.855458
10.479932
10.273508
9.9084181
9.6922269
9.3362773
9.1115355
8.7635841
8.5313637
8.1904036
7.9516504
7.6167928
7.3723423
7.0428013
6.793393
6.4684723
6.2147619
5.8938435
5.6364141
5.3189474
5.0583192
4.7438119
4.4804513
4.1684611
3.9027883
3.5929153
3.3253115
3.0171915
2.7480052
2.4413039
2.1708569
1.8652638
1.5938565
1.2890798
1.0169965
0.71275815
0.44027182
0.13630158
14.332751
13.881753
13.775539
13.323592
13.191467
12.757632
12.606222
12.189769
12.021731
11.620723
11.438167
11.050733
10.855458
10.479932
10.273508
9.9084179
9.6922271
9.3362771
9.1115357
8.7635839
8.5313638
8.1904035
7.9516506
7.6167927
7.3723425
7.0428012
6.7933931
6.4684722
6.214762
5.8938434
5.6364141
5.3189473
5.0583193
4.7438118
4.4804514
4.168461
3.9027884
3.5929152
3.3253115
3.0171915
2.7480053
2.4413039
2.1708569
1.8652637
1.5938565
1.2890797
1.0169965
0.71275811
0.44027187
0.13630154
14.332082
13.881679
13.77552
13.323598
13.191469
12.757633
12.606222
12.189769
12.021731
11.620722
11.438167
11.050733
10.855458
10.479932
10.273508
9.9084177
9.6922272
9.336277
9.1115358
8.7635838
8.531364
8.1904033
7.9516507
7.6167925
7.3723426
7.0428011
6.7933932
6.4684721
6.2147621
5.8938434
5.6364142
5.3189472
5.0583193
4.7438118
4.4804515
4.168461
3.9027884
3.5929152
3.3253116
3.0171914
2.7480053
2.4413038
2.170857
1.8652637
1.5938565
1.2890797
1.0169966
0.71275807
0.44027192
0.1363015
14.331479
13.881611
13.775498
13.323606
13.19147
12.757633
12.606223
12.189769
12.021731
11.620722
11.438167
11.050733
10.855458
10.479931
10.273508
9.9084176
9.6922274
9.3362768
9.1115359
8.7635837
8.5313641
8.1904032
7.9516508
7.6167924
7.3723427
7.042801
6.7933932
6.4684721
6.2147621
5.8938433
5.6364143
5.3189472
5.0583194
4.7438117
4.4804515
4.1684609
3.9027885
3.5929151
3.3253116
3.0171914
2.7480053
2.4413038
2.170857
1.8652637
1.5938566
1.2890797
1.0169966
0.71275803
0.44027197
0.13630146
14.330941
13.88155
13.775475
13.323617
13.191471
12.757633
12.606223
12.189769
12.021732
11.620722
11.438167
11.050733
10.855458
10.479931
10.273508
9.9084174
9.6922275
9.3362767
9.1115361
8.7635835
8.5313642
8.1904031
7.9516509
7.6167924
7.3723427
7.0428009
6.7933933
6.468472
6.2147622
5.8938432
5.6364143
5.3189471
5.0583195
4.7438117
4.4804516
4.1684609
3.9027885
3.5929151
3.3253117
3.0171914
2.7480054
2.4413038
2.170857
1.8652636
1.5938566
1.2890796
1.0169966
0.712758
0.44027201
0.13630143
14.330465
13.881491
13.775451
13.323629
13.19147
12.757633
12.606223
12.189769
12.021732
11.620722
11.438167
11.050733
10.855459
10.479931
10.273509
9.9084173
9.6922277
9.3362766
9.1115362
8.7635834
8.5313643
8.190403
7.951651
7.6167923
7.3723428
7.0428008
6.7933934
6.4684719
6.2147623
5.8938432
5.6364144
5.3189471
5.0583195
4.7438116
4.4804516
4.1684608
3.9027886
3.592915
3.3253117
3.0171913
2.7480054
2.4413037
2.1708571
1.8652636
1.5938566
1.2890796
1.0169967
0.71275797
0.44027204
0.1363014
14.330051
13.881434
13.775427
13.323642
13.191469
12.757633
12.606223
12.189768
12.021732
11.620722
11.438168
11.050732
10.855459
10.479931
10.273509
9.9084172
9.6922278
9.3362765
9.1115363
8.7635833
8.5313644
8.1904029
7.951651
7.6167922
7.3723429
7.0428008
6.7933935
6.4684719
6.2147623
5.8938431
5.6364144
5.318947
5.0583195
4.7438116
4.4804517
4.1684608
3.9027886
3.592915
3.3253117
3.0171913
2.7480055
2.4413037
2.1708571
1.8652636
1.5938567
1.2890796
1.0169967
0.71275795
0.44027207
0.13630137
14.329698
13.881377
13.775404
13.323655
13.191468
12.757632
12.606224
12.189768
12.021732
11.620721
11.438168
11.050732
10.855459
10.479931
10.273509
9.9084171
9.6922279
9.3362764
9.1115364
8.7635833
8.5313645
8.1904029
7.9516511
7.6167921
7.3723429
7.0428007
6.7933935
6.4684718
6.2147624
5.8938431
5.6364145
5.318947
5.0583196
4.7438115
4.4804517
4.1684608
3.9027887
3.592915
3.3253118
3.0171913
2.7480055
2.4413037
2.1708571
1.8652635
1.5938567
1.2890796
1.0169967
0.71275793
0.44027209
0.13630135
14.329406
13.881316
13.775383
13.323661
13.19147
12.757633
12.606224
12.189768
12.021732
11.620721
11.438168
11.050732
10.855459
10.479931
10.273509
9.908417
9.692228
9.3362763
9.1115364
8.7635832
8.5313645
8.1904028
7.9516512
7.6167921
7.372343
7.0428006
6.7933936
6.4684718
6.2147624
5.893843
5.6364145
5.3189469
5.0583196
4.7438115
4.4804517
4.1684607
3.9027887
3.592915
3.3253118
3.0171912
2.7480055
2.4413037
2.1708571
1.8652635
1.5938567
1.2890795
1.0169967
0.71275791
0.4402721
0.13630134
14.329175
13.88125
13.775367
13.323655
13.191476
12.757635
12.606225
12.189768
12.021733
11.620721
11.438168
11.050732
10.855459
10.479931
10.273509
9.9084169
9.692228
9.3362762
9.1115365
8.7635831
8.5313646
8.1904028
7.9516512
7.616792
7.372343
7.0428006
6.7933936
6.4684717
6.2147624
5.893843
5.6364146
5.3189469
5.0583196
4.7438115
4.4804518
4.1684607
3.9027887
3.5929149
3.3253118
3.0171912
2.7480055
2.4413036
2.1708572
1.8652635
1.5938567
1.2890795
1.0169967
0.71275791
0.4402721
0.13630132
14.329005
13.881178
13.775352
13.323643
13.191484
12.757638
12.606226
12.189768
12.021733
11.620721
11.438168
11.050732
10.855459
10.479931
10.273509
9.9084168
9.6922281
9.3362762
9.1115366
8.7635831
8.5313646
8.1904027
7.9516513
7.616792
7.3723431
7.0428006
6.7933936
6.4684717
6.2147625
5.893843
5.6364146
5.3189469
5.0583197
4.7438115
4.4804518
4.1684607
3.9027887
3.5929149
3.3253118
3.0171912
2.7480055
2.4413036
2.1708572
1.8652635
1.5938567
1.2890795
1.0169967
0.7127579
0.4402721
0.13630132
14.328897
13.881101
13.775338
13.32363
13.191491
12.757641
12.606227
12.189769
12.021733
11.620721
11.438168
11.050732
10.855459
10.479931
10.273509
9.9084168
9.6922281
9.3362761
9.1115366
8.763583
8.5313647
8.1904027
7.9516513
7.616792
7.3723431
7.0428005
6.7933937
6.4684717
6.2147625
5.893843
5.6364146
5.3189469
5.0583197
4.7438115
4.4804518
4.1684607
3.9027887
3.5929149
3.3253118
3.0171912
2.7480055
2.4413036
2.1708572
1.8652635
1.5938567
1.2890795
1.0169968
0.7127579
0.4402721
0.13630131
14.328845
13.881025
13.775322
13.323622
13.191494
12.757644
12.606227
12.189769
12.021733
11.620721
11.438168
11.050732
10.855459
10.479931
10.273509
9.9084167
9.6922282
9.3362761
9.1115366
8.763583
8.5313647
8.1904027
7.9516513
7.6167919
7.3723431
7.0428005
6.7933937
6.4684717
6.2147625
5.8938429
5.6364146
5.3189469
5.0583197
4.7438114
4.4804518
4.1684607
3.9027887
3.5929149
3.3253118
3.0171912
2.7480056
2.4413036
2.1708572
1.8652635
1.5938567
1.2890795
1.0169967
0.71275791
0.44027209
0.13630131
14.328834
13.880961
13.775309
13.323619
13.191496
12.757645
12.606228
12.189769
12.021733
11.620721
11.438168
11.050732
10.855459
10.47993
10.273509
9.9084167
9.6922282
9.336276
9.1115367
8.763583
8.5313647
8.1904026
7.9516513
7.6167919
7.3723431
7.0428005
6.7933937
6.4684717
6.2147625
5.8938429
5.6364146
5.3189469
5.0583197
4.7438114
4.4804518
4.1684607
3.9027887
3.5929149
3.3253118
3.0171912
2.7480056
2.4413036
2.1708572
1.8652635
1.5938567
1.2890795
1.0169967
0.71275792
0.44027207
0.13630131
14.328839
13.880923
13.7753
13.323617
13.191496
12.757646
12.606228
12.189768
12.021733
11.620721
11.438168
11.050732
10.855459
10.47993
10.273509
9.9084167
9.6922282
9.336276
9.1115367
8.763583
8.5313647
8.1904026
7.9516513
7.6167919
7.3723432
7.0428005
6.7933937
6.4684717
6.2147625
5.8938429
5.6364146
5.3189468
5.0583197
4.7438114
4.4804518
4.1684607
3.9027887
3.5929149
3.3253118
3.0171912
2.7480055
2.4413036
2.1708572
1.8652635
1.5938567
1.2890795
1.0169967
0.71275792
0.44027207
0.13630131
14.328839
13.880923
13.7753
13.323617
13.191496
12.757646
12.606228
12.189768
12.021733
11.620721
11.438168
11.050732
10.855459
10.47993
10.273509
9.9084167
9.6922282
9.336276
9.1115367
8.763583
8.5313647
8.1904026
7.9516513
7.6167919
7.3723432
7.0428005
6.7933937
6.4684717
6.2147625
5.8938429
5.6364146
5.3189468
5.0583197
4.7438114
4.4804518
4.1684607
3.9027887
3.5929149
3.3253118
3.0171912
2.7480055
2.4413036
2.1708572
1.8652635
1.5938567
1.2890795
1.0169967
0.71275792
0.44027207
0.13630131
14.328834
13.88096
13.775309
13.323619
13.191496
12.757645
12.606228
12.189769
12.021733
11.620721
11.438168
11.050732
10.855459
10.47993
10.273509
9.9084167
9.6922282
9.336276
9.1115367
8.763583
8.5313647
8.1904026
7.9516513
7.6167919
7.3723431
7.0428005
6.7933937
6.4684717
6.2147625
5.8938429
5.6364146
5.3189469
5.0583197
4.7438114
4.4804518
4.1684607
3.9027887
3.5929149
3.3253118
3.0171912
2.7480056
2.4413036
2.1708572
1.8652635
1.5938567
1.2890795
1.0169967
0.71275792
0.44027207
0.13630131
14.328846
13.881024
13.775322
13.323622
13.191494
12.757644
12.606227
12.189769
12.021733
11.620721
11.438168
11.050732
10.855459
10.479931
10.273509
9.9084167
9.6922282
9.3362761
9.1115366
8.763583
8.5313647
8.1904027
7.9516513
7.6167919
7.3723431
7.0428005
6.7933937
6.4684717
6.2147625
5.8938429
5.6364146
5.3189469
5.0583197
4.7438114
4.4804518
4.1684607
3.9027887
3.5929149
3.3253118
3.0171912
2.7480056
2.4413036
2.1708572
1.8652635
1.5938567
1.2890795
1.0169967
0.71275791
0.44027209
0.13630131
14.328898
13.8811
13.775338
13.32363
13.191491
12.757641
12.606227
12.189769
12.021733
11.620721
11.438168
11.050732
10.855459
10.479931
10.273509
9.9084168
9.6922281
9.3362761
9.1115366
8.763583
8.5313647
8.1904027
7.9516513
7.616792
7.3723431
7.0428005
6.7933937
6.4684717
6.2147625
5.893843
5.6364146
5.3189469
5.0583197
4.7438115
4.4804518
4.1684607
3.9027887
3.5929149
3.3253118
3.0171912
2.7480055
2.4413036
2.1708572
1.8652635
1.5938567
1.2890795
1.0169968
0.7127579
0.4402721
0.13630131
14.329007
13.881176
13.775352
13.323643
13.191484
12.757638
12.606226
12.189768
12.021733
11.620721
11.438168
11.050732
10.855459
10.479931
10.273509
9.9084168
9.6922281
9.3362762
9.1115366
8.7635831
8.5313646
8.1904027
7.9516513
7.616792
7.3723431
7.0428006
6.7933936
6.4684717
6.2147625
5.893843
5.6364146
5.3189469
5.0583197
4.7438115
4.4804518
4.1684607
3.9027887
3.5929149
3.3253118
3.0171912
2.7480055
2.4413036
2.1708572
1.8652635
1.5938567
1.2890795
1.0169967
0.7127579
0.4402721
0.13630132
14.329177
13.881248
13.775367
13.323655
13.191476
12.757635
12.606225
12.189768
12.021733
11.620721
11.438168
11.050732
10.855459
10.479931
10.273509
9.9084169
9.692228
9.3362762
9.1115365
8.7635831
8.5313646
8.1904028
7.9516512
7.616792
7.372343
7.0428006
6.7933936
6.4684717
6.2147624
5.893843
5.6364146
5.3189469
5.0583196
4.7438115
4.4804518
4.1684607
3.9027887
3.5929149
3.3253118
3.0171912
2.7480055
2.4413036
2.1708572
1.8652635
1.5938567
1.2890795
1.0169967
0.71275791
0.4402721
0.13630132
14.329408
13.881314
13.775383
13.323661
13.19147
12.757633
12.606224
12.189768
12.021732
11.620721
11.438168
11.050732
10.855459
10.479931
10.273509
9.908417
9.692228
9.3362763
9.1115364
8.7635832
8.5313645
8.1904028
7.9516512
7.6167921
7.372343
7.0428006
6.7933936
6.4684718
6.2147624
5.893843
5.6364145
5.3189469
5.0583196
4.7438115
4.4804517
4.1684607
3.9027887
3.592915
3.3253118
3.0171912
2.7480055
2.4413037
2.1708571
1.8652635
1.5938567
1.2890795
1.0169967
0.71275791
0.4402721
0.13630134
14.329701
13.881374
13.775404
13.323655
13.191468
12.757632
12.606224
12.189768
12.021732
11.620721
11.438168
11.050732
10.855459
10.479931
10.273509
9.9084171
9.6922279
9.3362764
9.1115364
8.7635833
8.5313645
8.1904029
7.9516511
7.6167921
7.3723429
7.0428007
6.7933935
6.4684718
6.2147624
5.8938431
5.6364145
5.318947
5.0583196
4.7438115
4.4804517
4.1684608
3.9027887
3.592915
3.3253118
3.0171913
2.7480055
2.4413037
2.1708571
1.8652635
1.5938567
1.2890796
1.0169967
0.71275793
0.44027209
0.13630135
14.330054
13.881431
13.775427
13.323642
13.191469
12.757633
12.606223
12.189768
12.021732
11.620722
11.438168
11.050732
10.855459
10.479931
10.273509
9.9084172
9.6922278
9.3362765
9.1115363
8.7635833
8.5313644
8.1904029
7.951651
7.6167922
7.3723429
7.0428008
6.7933935
6.4684719
6.2147623
5.8938431
5.6364144
5.318947
5.0583195
4.7438116
4.4804517
4.1684608
3.9027886
3.592915
3.3253117
3.0171913
2.7480055
2.4413037
2.1708571
1.8652636
1.5938567
1.2890796
1.0169967
0.71275795
0.44027207
0.13630137
14.330469
13.881488
13.775451
13.323629
13.19147
12.757633
12.606223
12.189769
12.021732
11.620722
11.438167
11.050733
10.855459
10.479931
10.273509
9.9084173
9.6922277
9.3362766
9.1115362
8.7635834
8.5313643
8.190403
7.951651
7.6167923
7.3723428
7.0428008
6.7933934
6.4684719
6.2147623
5.8938432
5.6364144
5.3189471
5.0583195
4.7438116
4.4804516
4.1684608
3.9027886
3.592915
3.3253117
3.0171913
2.7480054
2.4413037
2.1708571
1.8652636
1.5938566
1.2890796
1.0169967
0.71275797
0.44027204
0.1363014
14.330945
13.881546
13.775475
13.323617
13.191471
12.757633
12.606223
12.189769
12.021732
11.620722
11.438167
11.050733
10.855458
10.479931
10.273508
9.9084174
9.6922275
9.3362767
9.1115361
8.7635835
8.5313642
8.1904031
7.9516509
7.6167924
7.3723427
7.0428009
6.7933933
6.468472
6.2147622
5.8938432
5.6364143
5.3189471
5.0583195
4.7438117
4.4804516
4.1684609
3.9027885
3.5929151
3.3253117
3.0171914
2.7480054
2.4413038
2.170857
1.8652636
1.5938566
1.2890796
1.0169966
0.712758
0.44027201
0.13630143
14.331483
13.881607
13.775498
13.323606
13.19147
12.757633
12.606223
12.189769
12.021731
11.620722
11.438167
11.050733
10.855458
10.479931
10.273508
9.9084176
9.6922274
9.3362768
9.1115359
8.7635837
8.5313641
8.1904032
7.9516508
7.6167924
7.3723427
7.042801
6.7933932
6.4684721
6.2147621
5.8938433
5.6364143
5.3189472
5.0583194
4.7438117
4.4804515
4.1684609
3.9027885
3.5929151
3.3253116
3.0171914
2.7480053
2.4413038
2.170857
1.8652637
1.5938566
1.2890797
1.0169966
0.71275803
0.44027197
0.13630146
14.332086
13.881674
13.77552
13.323598
13.191469
12.757633
12.606222
12.189769
12.021731
11.620722
11.438167
11.050733
10.855458
10.479932
10.273508
9.9084177
9.6922272
9.336277
9.1115358
8.7635838
8.531364
8.1904033
7.9516507
7.6167925
7.3723426
7.0428011
6.7933932
6.4684721
6.2147621
5.8938434
5.6364142
5.3189472
5.0583193
4.7438118
4.4804515
4.168461
3.9027884
3.5929152
3.3253116
3.0171914
2.7480053
2.4413038
2.170857
1.8652637
1.5938565
1.2890797
1.0169966
0.71275807
0.44027192
0.1363015
14.332756
13.881748
13.775539
13.323592
13.191467
12.757632
12.606222
12.189769
12.021731
11.620723
11.438167
11.050733
10.855458
10.479932
10.273508
9.9084179
9.6922271
9.3362771
9.1115357
8.7635839
8.5313638
8.1904035
7.9516506
7.6167927
7.3723425
7.0428012
6.7933931
6.4684722
6.214762
5.8938434
5.6364141
5.3189473
5.0583193
4.7438118
4.4804514
4.168461
3.9027884
3.5929152
3.3253115
3.0171915
2.7480053
2.4413039
2.1708569
1.8652637
1.5938565
1.2890797
1.0169965
0.71275811
0.44027187
0.13630154
14.333493
13.881832
13.775554
13.32359
13.191465
12.757631
12.606221
12.18977
12.02173
11.620723
11.438166
11.050734
10.855458
10.479932
10.273508
9.9084181
9.6922269
9.3362773
9.1115355
8.7635841
8.5313637
8.1904036
7.9516504
7.6167928
7.3723423
7.0428013
6.793393
6.4684723
6.2147619
5.8938435
5.6364141
5.3189474
5.0583192
4.7438119
4.4804513
4.1684611
3.9027883
3.5929153
3.3253115
3.0171915
2.7480052
2.4413039
2.1708569
1.8652638
1.5938565
1.2890798
1.0169965
0.71275815
0.44027182
0.13630158
14.334301
13.881926
13.775562
13.323593
13.191464
12.757631
12.60622
12.18977
12.02173
11.620723
11.438166
11.050734
10.855457
10.479932
10.273507
9.9084183
9.6922267
9.3362775
9.1115353
8.7635842
8.5313635
8.1904038
7.9516503
7.6167929
7.3723422
7.0428014
6.7933929
6.4684724
6.2147618
5.8938436
5.636414
5.3189475
5.0583191
4.743812
4.4804513
4.1684612
3.9027883
3.5929153
3.3253114
3.0171916
2.7480052
2.441304
2.1708568
1.8652638
1.5938564
1.2890798
1.0169964
0.7127582
0.44027175
0.13630162
14.335181
13.882031
13.775562
13.3236
13.191463
12.757631
12.606219
12.18977
12.02173
11.620723
11.438166
11.050734
10.855457
10.479933
10.273507
9.9084186
9.6922264
9.3362777
9.1115351
8.7635844
8.5313634
8.1904039
7.9516501
7.6167931
7.3723421
7.0428015
6.7933927
6.4684725
6.2147617
5.8938437
5.6364139
5.3189476
5.058319
4.7438121
4.4804512
4.1684612
3.9027882
3.5929154
3.3253113
3.0171917
2.7480051
2.4413041
2.1708568
1.8652639
1.5938563
1.2890799
1.0169964
0.71275825
0.44027169
0.13630167
14.336137
13.882151
13.775555
13.323609
13.191463
12.757631
12.606219
12.18977
12.021729
11.620724
11.438165
11.050735
10.855457
10.479933
10.273507
9.9084188
9.6922262
9.3362779
9.1115349
8.7635846
8.5313632
8.1904041
7.95165
7.6167932
7.3723419
7.0428016
6.7933926
6.4684727
6.2147616
5.8938438
5.6364138
5.3189477
5.0583189
4.7438122
4.4804511
4.1684613
3.9027881
3.5929155
3.3253113
3.0171917
2.748005
2.4413041
2.1708567
1.865264
1.5938563
1.28908
1.0169963
0.71275831
0.44027161
0.13630172
14.337171
13.882291
13.775542
13.323617
13.191464
12.757631
12.606218
12.189771
12.021729
11.620724
11.438165
11.050735
10.855456
10.479933
10.273507
9.9084191
9.692226
9.3362782
9.1115347
8.7635848