/*--------------------------------*- C++ -*----------------------------------*\
| =========                 |                                                 |
| \\      /  F ield         | OpenFOAM: The Open Source CFD Toolbox           |
|  \\    /   O peration     | Version:  2312                                  |
|   \\  /    A nd           | Website:  www.openfoam.com                      |
|    \\/     M anipulation  |                                                 |
\*---------------------------------------------------------------------------*/
FoamFile
{
    version     2.0;
    format      ascii;
    arch        "LSB;label=32;scalar=64";
    class       surfaceScalarField;
    location    "10";
    object      phi_0;
}
// * * * * * * * * * * * * * * * * * * * * * * * * * * * * * * * * * * * * * //

dimensions      [0 3 -1 0 0 0 0];

oriented        oriented;

internalField   nonuniform List<scalar> 
7870
(
5.3053902e-11
1.2931956e-09
5.1928432e-11
1.1258864e-12
5.1958496e-11
-3.0024874e-14
5.1215351e-11
7.4314875e-13
5.2052875e-11
-8.3752581e-13
5.1284635e-11
7.682415e-13
5.2023471e-11
-7.388366e-13
5.1334595e-11
6.8887599e-13
5.1982986e-11
-6.4839099e-13
5.1375754e-11
6.0723189e-13
5.1945597e-11
-5.6984307e-13
5.1411273e-11
5.3432426e-13
5.191255e-11
-5.012769e-13
5.1442304e-11
4.7024632e-13
5.1883544e-11
-4.4123984e-13
5.146947e-11
4.1407351e-13
5.185813e-11
-3.8866023e-13
5.1493248e-11
3.6488205e-13
5.1835889e-11
-3.426408e-13
5.1514043e-11
3.2184594e-13
5.1816446e-11
-3.0240321e-13
5.1532207e-11
2.842397e-13
5.1799475e-11
-2.6726806e-13
5.1548046e-11
2.5142885e-13
5.1784688e-11
-2.3664229e-13
5.1561828e-11
2.2285969e-13
5.1771837e-11
-2.1000895e-13
5.1573787e-11
1.9805009e-13
5.1760706e-11
-1.869185e-13
5.1584124e-11
1.765813e-13
5.1751106e-11
-1.6698115e-13
5.1593015e-11
1.5809096e-13
5.1742875e-11
-1.498603e-13
5.1600608e-11
1.422669e-13
5.1735875e-11
-1.3526689e-13
5.1607033e-11
1.2884196e-13
5.1729987e-11
-1.2295446e-13
5.1612398e-11
1.1758941e-13
5.1725113e-11
-1.1271503e-13
5.1616794e-11
1.0831914e-13
5.1721169e-11
-1.0437557e-13
5.1620295e-11
1.0087448e-13
5.171809e-11
-9.7795048e-14
5.1622961e-11
9.5129535e-14
5.1715822e-11
-9.2861624e-14
5.1624834e-11
9.0988109e-14
5.1714333e-11
-8.949928e-14
5.1626074e-11
8.8259669e-14
5.1714633e-11
-8.8559605e-14
8.5012367e-14
1.4954814e-10
2.489898e-09
1.5083738e-10
-1.6374756e-13
1.5025901e-10
5.4831889e-13
1.493012e-10
1.7009676e-12
1.5050772e-10
-2.0440467e-12
1.4943334e-10
1.8426155e-12
1.5049371e-10
-1.7992067e-12
1.4951111e-10
1.6714817e-12
1.5043931e-10
-1.5765954e-12
1.4957122e-10
1.4753199e-12
1.503864e-10
-1.3850146e-12
1.4962228e-10
1.2984405e-12
1.5033926e-10
-1.2182585e-12
1.4966674e-10
1.1427701e-12
1.5029783e-10
-1.0723308e-12
1.4970563e-10
1.0062702e-12
1.5026152e-10
-9.4454407e-13
1.4973967e-10
8.8672903e-13
1.5022973e-10
-8.3270352e-13
1.4976943e-10
7.821449e-13
1.5020194e-10
-7.3491516e-13
1.4979543e-10
6.9075579e-13
1.5017769e-10
-6.4952738e-13
1.498181e-10
6.1102003e-13
1.5015655e-10
-5.7509874e-13
1.4983782e-10
5.4159219e-13
1.5013818e-10
-5.1037287e-13
1.4985493e-10
4.8130061e-13
1.5012227e-10
-4.542572e-13
1.4986973e-10
4.2912773e-13
1.5010855e-10
-4.0580442e-13
1.4988245e-10
3.8419293e-13
1.5009678e-10
-3.6419649e-13
1.4989331e-10
3.4573765e-13
1.5008678e-10
-3.2873084e-13
1.4990251e-10
3.1311257e-13
1.5007836e-10
-2.9880848e-13
1.4991018e-10
2.8576668e-13
1.5007139e-10
-2.7392388e-13
1.4991647e-10
2.632379e-13
1.5006575e-10
-2.5365635e-13
1.4992148e-10
2.4514522e-13
1.5006135e-10
-2.3766283e-13
1.499253e-10
2.3118218e-13
1.5005811e-10
-2.2567001e-13
1.4992798e-10
2.2111596e-13
1.5005596e-10
-2.1748521e-13
1.499298e-10
2.1442582e-13
1.5005731e-10
-2.1607039e-13
2.0581929e-13
2.4295942e-10
3.5931884e-09
2.4727136e-10
-4.4756437e-12
2.4583613e-10
1.9835452e-12
2.4509537e-10
2.4417258e-12
2.4623135e-10
-3.1800283e-12
2.4526128e-10
2.8126873e-12
2.4625636e-10
-2.7942792e-12
2.4534199e-10
2.5858498e-12
2.4621013e-10
-2.4447328e-12
2.4539977e-10
2.2856793e-12
2.4616142e-10
-2.1466718e-12
2.4544779e-10
2.012074e-12
2.4611757e-10
-1.8880349e-12
2.4548942e-10
1.7709183e-12
2.4607893e-10
-1.6618464e-12
2.455258e-10
1.5594029e-12
2.4604506e-10
-1.463801e-12
2.4555763e-10
1.3741558e-12
2.460154e-10
-1.2904737e-12
2.4558546e-10
1.2120848e-12
2.4598947e-10
-1.1389251e-12
2.4560977e-10
1.070461e-12
2.4596683e-10
-1.0065949e-12
2.4563096e-10
9.4689575e-13
2.4594711e-10
-8.9124889e-13
2.456494e-10
8.3930423e-13
2.4592996e-10
-7.9093991e-13
2.4566539e-10
7.4587082e-13
2.4591511e-10
-7.0397465e-13
2.4567922e-10
6.650187e-13
2.459023e-10
-6.2888493e-13
2.4569111e-10
5.9538319e-13
2.4589132e-10
-5.6440294e-13
2.4570127e-10
5.3578873e-13
2.4588197e-10
-5.0943978e-13
2.4570986e-10
4.8522908e-13
2.4587412e-10
-4.6306706e-13
2.4571703e-10
4.4285021e-13
2.4586761e-10
-4.2450115e-13
2.4572291e-10
4.0793584e-13
2.4586235e-10
-3.9308971e-13
2.457276e-10
3.7989499e-13
2.4585823e-10
-3.6830028e-13
2.4573116e-10
3.5825153e-13
2.458552e-10
-3.4970633e-13
2.4573367e-10
3.4264516e-13
2.4585318e-10
-3.3699571e-13
2.4573545e-10
3.3215373e-13
2.4585569e-10
-3.3630589e-13
3.1784068e-13
3.3410119e-10
4.6053369e-09
3.4108264e-10
-1.1456852e-11
3.3892893e-10
4.1372537e-12
3.3837372e-10
2.9969383e-12
3.3943657e-10
-4.2428746e-12
3.3856939e-10
3.6798662e-12
3.394985e-10
-3.723395e-12
3.3865225e-10
3.4321071e-12
3.3945993e-10
-3.2524153e-12
3.387075e-10
3.0381098e-12
3.3941537e-10
-2.8545381e-12
3.3875243e-10
2.6750077e-12
3.3937478e-10
-2.5103772e-12
3.387912e-10
2.3544936e-12
3.3933894e-10
-2.2095874e-12
3.3882505e-10
2.0732964e-12
3.393075e-10
-1.9462557e-12
3.3885465e-10
1.8270076e-12
3.3927997e-10
-1.7157967e-12
3.3888053e-10
1.6115286e-12
3.392559e-10
-1.5142964e-12
3.3890313e-10
1.4232338e-12
3.3923488e-10
-1.3383495e-12
3.3892283e-10
1.258948e-12
3.3921657e-10
-1.1849851e-12
3.3893997e-10
1.1158996e-12
3.3920065e-10
-1.0516141e-12
3.3895484e-10
9.9167459e-13
3.3918685e-10
-9.3598495e-13
3.3896769e-10
8.8417672e-13
3.3917495e-10
-8.3614537e-13
3.3897875e-10
7.9159155e-13
3.3916475e-10
-7.5040962e-13
3.3898819e-10
7.1235614e-13
3.3915608e-10
-6.7732974e-13
3.3899617e-10
6.4513251e-13
3.3914878e-10
-6.1567118e-13
3.3900284e-10
5.8878504e-13
3.3914273e-10
-5.6439168e-13
3.3900831e-10
5.4236098e-13
3.3913784e-10
-5.2262331e-13
3.3901266e-10
5.0507374e-13
3.3913402e-10
-4.8965675e-13
3.3901598e-10
4.7628817e-13
3.3913119e-10
-4.6492014e-13
3.3901832e-10
4.5552468e-13
3.3912929e-10
-4.4797463e-13
3.3902003e-10
4.414163e-13
3.3913269e-10
-4.4896148e-13
4.2145034e-13
4.2277939e-10
5.5288076e-09
4.3222075e-10
-2.0898294e-11
4.2953266e-10
6.8253296e-12
4.2913914e-10
3.390462e-12
4.3012319e-10
-5.2269287e-12
4.2935765e-10
4.4454054e-12
4.3022006e-10
-4.5858098e-12
4.2944179e-10
4.2103862e-12
4.3018862e-10
-3.9992533e-12
4.2949433e-10
3.732407e-12
4.3014813e-10
-3.5083419e-12
4.2953612e-10
3.2870211e-12
4.301108e-10
-3.0850619e-12
4.29572e-10
2.8932959e-12
4.3007777e-10
-2.7153604e-12
4.2960329e-10
2.5477737e-12
4.3004878e-10
-2.3917391e-12
4.2963066e-10
2.2451281e-12
4.3002338e-10
-2.108524e-12
4.2965457e-10
1.9803388e-12
4.3000118e-10
-1.8608986e-12
4.2967546e-10
1.7489532e-12
4.2998178e-10
-1.6446767e-12
4.2969366e-10
1.5470703e-12
4.2996488e-10
-1.4562068e-12
4.297095e-10
1.3712843e-12
4.2995019e-10
-1.292307e-12
4.2972324e-10
1.2186292e-12
4.2993746e-10
-1.1502102e-12
4.2973511e-10
1.0865288e-12
4.2992648e-10
-1.0275171e-12
4.2974532e-10
9.7275367e-13
4.2991707e-10
-9.2215597e-13
4.2975404e-10
8.7538299e-13
4.2990906e-10
-8.3234723e-13
4.2976142e-10
7.9277254e-13
4.2990232e-10
-7.5657345e-13
4.2976758e-10
7.2352651e-13
4.2989674e-10
-6.9355339e-13
4.2977263e-10
6.6647358e-13
4.2989222e-10
-6.4221961e-13
4.2977665e-10
6.2064592e-13
4.2988869e-10
-6.016985e-13
4.2977972e-10
5.8525995e-13
4.2988608e-10
-5.7128075e-13
4.2978188e-10
5.597244e-13
4.298843e-10
-5.5039187e-13
4.2978351e-10
5.4220294e-13
4.2988835e-10
-5.5380231e-13
5.1659524e-13
5.0896492e-10
6.3660931e-09
5.2068772e-10
-3.2621389e-11
5.1764614e-10
9.866889e-12
5.1739405e-10
3.6425462e-12
5.1829123e-10
-6.1241052e-12
5.1762599e-10
5.1106485e-12
5.1842118e-10
-5.3809997e-12
5.1771051e-10
4.9210536e-12
5.1839632e-10
-4.6850687e-12
5.1776017e-10
4.3685653e-12
5.1835982e-10
-4.1079983e-12
5.1779877e-10
3.84807e-12
5.1832574e-10
-3.6120291e-12
5.1783176e-10
3.3872805e-12
5.1829551e-10
-3.1791157e-12
5.1786049e-10
2.9827943e-12
5.1826896e-10
-2.8002083e-12
5.1788561e-10
2.6284819e-12
5.182457e-10
-2.4686187e-12
5.1790756e-10
2.3184842e-12
5.1822536e-10
-2.1786999e-12
5.1792672e-10
2.047592e-12
5.1820759e-10
-1.9255488e-12
5.1794342e-10
1.811239e-12
5.181921e-10
-1.7048902e-12
5.1795795e-10
1.6054381e-12
5.1817864e-10
-1.5129984e-12
5.1797055e-10
1.4267172e-12
5.1816698e-10
-1.3466333e-12
5.1798145e-10
1.2720603e-12
5.1815691e-10
-1.2029858e-12
5.1799081e-10
1.1388572e-12
5.1814829e-10
-1.0796302e-12
5.1799881e-10
1.0248592e-12
5.1814094e-10
-9.7448273e-13
5.1800558e-10
9.2814114e-13
5.1813477e-10
-8.857665e-13
5.1801123e-10
8.4706857e-13
5.1812965e-10
-8.1198091e-13
5.1801586e-10
7.8026947e-13
5.1812551e-10
-7.5187513e-13
5.1801955e-10
7.2660917e-13
5.1812228e-10
-7.0442391e-13
5.1802237e-10
6.8516635e-13
5.1811988e-10
-6.6878852e-13
5.1802436e-10
6.5524536e-13
5.1811821e-10
-6.4424968e-13
5.1802589e-10
6.3453177e-13
5.1812273e-10
-6.5065058e-13
6.0322201e-13
5.9270993e-10
7.1196334e-09
6.0649354e-10
-4.6405189e-11
6.0326696e-10
1.3093466e-11
6.0313884e-10
3.7706679e-12
6.0394078e-10
-6.9260522e-12
6.0337425e-10
5.6771757e-12
6.0410198e-10
-6.1087254e-12
6.0345829e-10
5.5647439e-12
6.0408315e-10
-5.3099252e-12
6.035049e-10
4.9468072e-12
6.0405055e-10
-4.6536388e-12
6.035403e-10
4.3583121e-12
6.0401968e-10
-4.0914093e-12
6.0357038e-10
3.8365803e-12
6.0399224e-10
-3.6009709e-12
6.0359656e-10
3.3784743e-12
6.0396812e-10
-3.1717678e-12
6.0361943e-10
2.9771709e-12
6.0394698e-10
-2.7961734e-12
6.0363941e-10
2.6260548e-12
6.039285e-10
-2.4677823e-12
6.0365686e-10
2.3192298e-12
6.0391235e-10
-2.1810392e-12
6.0367206e-10
2.0515246e-12
6.0389827e-10
-1.9311007e-12
6.0368529e-10
1.8184239e-12
6.0388604e-10
-1.7137466e-12
6.0369676e-10
1.6159949e-12
6.0387543e-10
-1.5253067e-12
6.0370667e-10
1.4408217e-12
6.0386628e-10
-1.362599e-12
6.0371519e-10
1.289948e-12
6.0385844e-10
-1.2228756e-12
6.0372247e-10
1.1608266e-12
6.0385176e-10
-1.103776e-12
6.0372863e-10
1.0512769e-12
6.0384615e-10
-1.0032872e-12
6.0373377e-10
9.5944725e-13
6.038415e-10
-9.1970896e-13
6.0373798e-10
8.8378275e-13
6.0383773e-10
-8.5162305e-13
6.0374135e-10
8.2299632e-13
6.0383479e-10
-7.9786526e-13
6.0374391e-10
7.7603961e-13
6.038326e-10
-7.5747572e-13
6.0374573e-10
7.4211979e-13
6.0383106e-10
-7.2958201e-13
6.0374714e-10
7.1844852e-13
6.0383587e-10
-7.3938297e-13
6.813624e-13
6.740707e-10
7.7918128e-09
6.8965402e-10
-6.1988516e-11
6.8639163e-10
1.6355859e-11
6.8637016e-10
3.7921462e-12
6.8707216e-10
-7.6280571e-12
6.8660225e-10
6.1470889e-12
6.8726259e-10
-6.7690707e-12
6.8668501e-10
6.1423239e-12
6.8724919e-10
-5.8741026e-12
6.8672844e-10
5.4675591e-12
6.8722039e-10
-5.1455877e-12
6.8676062e-10
4.818085e-12
6.8719271e-10
-4.5235021e-12
6.867878e-10
4.2414867e-12
6.8716802e-10
-3.9811926e-12
6.8681143e-10
3.7350691e-12
6.8714631e-10
-3.5066531e-12
6.8683207e-10
3.2914199e-12
6.8712729e-10
-3.0913961e-12
6.8685009e-10
2.9032489e-12
6.8711064e-10
-2.7283299e-12
6.8686583e-10
2.5640417e-12
6.870961e-10
-2.4113106e-12
6.8687954e-10
2.2680823e-12
6.8708343e-10
-2.1349828e-12
6.8689147e-10
2.0103792e-12
6.870724e-10
-1.8946803e-12
6.8690181e-10
1.7865846e-12
6.8706285e-10
-1.6863453e-12
6.8691075e-10
1.5929224e-12
6.8705461e-10
-1.5064595e-12
6.8691844e-10
1.4261241e-12
6.8704755e-10
-1.3519847e-12
6.86925e-10
1.2833739e-12
6.8704153e-10
-1.2203111e-12
6.8693055e-10
1.1622605e-12
6.8703648e-10
-1.1092126e-12
6.8693519e-10
1.0607366e-12
6.8703229e-10
-1.0168085e-12
6.8693899e-10
9.7708216e-13
6.8702889e-10
-9.4152975e-13
6.8694202e-10
9.0987208e-13
6.8702624e-10
-8.8208557e-13
6.8694434e-10
8.5794174e-13
6.8702426e-10
-8.3740355e-13
6.8694597e-10
8.2040831e-13
6.8702284e-10
-8.0645127e-13
6.8694727e-10
7.9402395e-13
6.8702781e-10
-8.1992442e-13
7.5111295e-13
7.5309058e-10
8.3849721e-09
7.7018839e-10
-7.9086213e-11
7.6701553e-10
1.9528727e-11
7.670813e-10
3.7263881e-12
7.6768601e-10
-8.2327778e-12
7.673097e-10
6.5234085e-12
7.6790311e-10
-7.3624803e-12
7.6739058e-10
6.6548518e-12
7.6789455e-10
-6.3780727e-12
7.6743068e-10
5.931426e-12
7.6786943e-10
-5.5843394e-12
7.6745963e-10
5.2278847e-12
7.6784489e-10
-4.908757e-12
7.6748394e-10
4.6024306e-12
7.6782293e-10
-4.3201787e-12
7.6750504e-10
4.0529571e-12
7.678036e-10
-3.8052156e-12
7.6752346e-10
3.5715623e-12
7.6778666e-10
-3.3545969e-12
7.6753955e-10
3.1503603e-12
7.6777184e-10
-2.9606165e-12
7.6755359e-10
2.7822871e-12
7.6775889e-10
-2.6166052e-12
7.6756583e-10
2.4611414e-12
7.677476e-10
-2.316751e-12
7.6757647e-10
2.1815072e-12
7.6773778e-10
-2.05599e-12
7.675857e-10
1.9386671e-12
7.6772927e-10
-1.8299187e-12
7.6759367e-10
1.7285236e-12
7.6772193e-10
-1.6347192e-12
7.6760052e-10
1.5475301e-12
7.6771563e-10
-1.4670942e-12
7.6760637e-10
1.3926311e-12
7.6771027e-10
-1.3242114e-12
7.6761132e-10
1.26121e-12
7.6770577e-10
-1.2036549e-12
7.6761546e-10
1.1510445e-12
7.6770203e-10
-1.103383e-12
7.6761885e-10
1.0602675e-12
7.6769901e-10
-1.0216914e-12
7.6762155e-10
9.8732984e-13
7.6769664e-10
-9.5717557e-13
7.6762362e-10
9.3096161e-13
7.6769488e-10
-9.086594e-13
7.6762509e-10
8.9019716e-13
7.6769358e-10
-8.749456e-13
7.6762626e-10
8.6135172e-13
7.6769857e-10
-8.9224301e-13
8.1261221e-13
8.2980667e-10
8.9014152e-09
8.4811684e-10
-9.7396234e-11
8.4513322e-10
2.2512362e-11
8.4526547e-10
3.5941361e-12
8.4578332e-10
-8.7506319e-12
8.4549634e-10
6.810388e-12
8.4602358e-10
-7.8897172e-12
8.4557489e-10
7.1035481e-12
8.460193e-10
-6.8224828e-12
8.4561155e-10
6.3391739e-12
8.4599775e-10
-5.9705419e-12
8.4563728e-10
5.5883508e-12
8.4597629e-10
-5.2477583e-12
8.4565875e-10
4.9199694e-12
8.4595701e-10
-4.6184461e-12
8.4567734e-10
4.3326282e-12
8.4594004e-10
-4.0679109e-12
8.4569357e-10
3.8180291e-12
8.4592515e-10
-3.5861778e-12
8.4570774e-10
3.367769e-12
8.4591212e-10
-3.1649972e-12
8.4572011e-10
2.9743016e-12
8.4590074e-10
-2.797237e-12
8.4573088e-10
2.6309987e-12
8.4589082e-10
-2.4766834e-12
8.4574025e-10
2.332071e-12
8.4588218e-10
-2.1979226e-12
8.4574838e-10
2.072476e-12
8.458747e-10
-1.9562469e-12
8.4575539e-10
1.8478335e-12
8.4586825e-10
-1.7475745e-12
8.4576143e-10
1.6543523e-12
8.4586271e-10
-1.5683803e-12
8.4576658e-10
1.488766e-12
8.45858e-10
-1.4156362e-12
8.4577094e-10
1.3482772e-12
8.4585404e-10
-1.286759e-12
8.4577457e-10
1.2305099e-12
8.4585076e-10
-1.1795654e-12
8.4577756e-10
1.1334667e-12
8.458481e-10
-1.0922313e-12
8.4577994e-10
1.0554892e-12
8.4584601e-10
-1.0232514e-12
8.4578176e-10
9.9521268e-13
8.4584446e-10
-9.7135459e-13
8.4578306e-10
9.5159611e-13
8.4584329e-10
-9.3517651e-13
8.457841e-10
9.2054668e-13
8.458482e-10
-9.5634596e-13
8.660306e-13
9.0425387e-10
9.3434112e-09
9.2345766e-10
-1.1659993e-10
9.2073888e-10
2.5231155e-11
9.2091905e-10
3.4139681e-12
9.2136521e-10
-9.1967965e-12
9.2116206e-10
7.0135387e-12
9.2162408e-10
-8.3517382e-12
9.2123785e-10
7.489778e-12
9.2162351e-10
-7.208139e-12
9.2127096e-10
6.6917163e-12
9.2160541e-10
-6.3049846e-12
9.212935e-10
5.9002544e-12
9.2158696e-10
-5.5412141e-12
9.2131215e-10
5.1947763e-12
9.2157033e-10
-4.8766205e-12
9.2132828e-10
4.5746738e-12
9.2155566e-10
-4.2952909e-12
9.2134235e-10
4.0313414e-12
9.215428e-10
-3.7866254e-12
9.2135463e-10
3.5559345e-12
9.2153153e-10
-3.3419014e-12
9.2136535e-10
3.1404906e-12
9.2152169e-10
-2.9535856e-12
9.2137468e-10
2.7780126e-12
9.2151311e-10
-2.6151162e-12
9.213828e-10
2.4623883e-12
9.2150565e-10
-2.3207765e-12
9.2138983e-10
2.1882935e-12
9.2149918e-10
-2.0655954e-12
9.2139591e-10
1.9511037e-12
9.214936e-10
-1.8452625e-12
9.2140113e-10
1.7468159e-12
9.2148881e-10
-1.6560559e-12
9.214056e-10
1.5719811e-12
9.2148474e-10
-1.4947775e-12
9.2140937e-10
1.4236455e-12
9.2148131e-10
-1.3586996e-12
9.2141252e-10
1.2992999e-12
9.2147847e-10
-1.2455156e-12
9.214151e-10
1.1968339e-12
9.2147617e-10
-1.1532979e-12
9.2141716e-10
1.1144937e-12
9.2147436e-10
-1.0804523e-12
9.2141875e-10
1.050831e-12
9.2147301e-10
-1.0256225e-12
9.2141987e-10
1.0047365e-12
9.2147197e-10
-9.872769e-13
9.2142078e-10
9.717433e-13
9.2147671e-10
-1.0122761e-12
9.1156534e-13
9.7646512e-10
9.713196e-09
9.9622673e-10
-1.3636151e-10
9.9382672e-10
2.7631158e-11
9.9404185e-10
3.1988406e-12
9.9443265e-10
-9.5875975e-12
9.9430682e-10
7.1393656e-12
9.9470465e-10
-8.7495693e-12
9.9437939e-10
7.8150359e-12
9.9470725e-10
-7.5359901e-12
9.9440886e-10
6.9901016e-12
9.9469246e-10
-6.5885855e-12
9.9442823e-10
6.1644867e-12
9.9467696e-10
-5.7899462e-12
9.9444411e-10
5.4276302e-12
9.9466291e-10
-5.0954274e-12
9.9445781e-10
4.7797788e-12
9.9465051e-10
-4.4879949e-12
9.9446975e-10
4.2121022e-12
9.9463963e-10
-3.9565036e-12
9.9448018e-10
3.7153884e-12
9.946301e-10
-3.4918268e-12
9.9448927e-10
3.2813236e-12
9.9462177e-10
-3.0860909e-12
9.9449719e-10
2.9025983e-12
9.9461451e-10
-2.7324389e-12
9.9450407e-10
2.5728266e-12
9.9460819e-10
-2.4248973e-12
9.9451004e-10
2.2864461e-12
9.9460272e-10
-2.1582715e-12
9.945152e-10
2.038625e-12
9.9459799e-10
-1.928058e-12
9.9451963e-10
1.825181e-12
9.9459394e-10
-1.7303672e-12
9.9452341e-10
1.6425104e-12
9.9459049e-10
-1.5618576e-12
9.9452661e-10
1.4875268e-12
9.9458759e-10
-1.4196784e-12
9.9452928e-10
1.3576077e-12
9.9458518e-10
-1.3014188e-12
9.9453147e-10
1.2505471e-12
9.9458323e-10
-1.2050625e-12
9.9453322e-10
1.1645093e-12
9.945817e-10
-1.1289391e-12
9.9453456e-10
1.0979734e-12
9.9458056e-10
-1.0716167e-12
9.9453552e-10
1.0497695e-12
9.9457965e-10
-1.0313991e-12
9.9453629e-10
1.0150941e-12
9.9458413e-10
-1.0601088e-12
9.4943627e-13
1.0464688e-09
1.0012977e-08
1.0664383e-09
-1.5633109e-10
1.064391e-09
2.9678442e-11
1.0646357e-09
2.9541377e-12
1.0649863e-09
-9.9381843e-12
1.0649307e-09
7.1949805e-12
1.0652653e-09
-9.0842242e-12
1.0649995e-09
8.0809309e-12
1.0652706e-09
-7.8071129e-12
1.0650252e-09
7.2355023e-12
1.065259e-09
-6.8223803e-12
1.0650414e-09
6.3820484e-12
1.0652463e-09
-5.9948792e-12
1.0650546e-09
5.6194066e-12
1.0652348e-09
-5.2756829e-12
1.0650659e-09
4.9487131e-12
1.0652246e-09
-4.6467423e-12
1.0650757e-09
4.3609894e-12
1.0652157e-09
-4.0964467e-12
1.0650843e-09
3.8467285e-12
1.0652079e-09
-3.6153334e-12
1.0650919e-09
3.3973282e-12
1.065201e-09
-3.1952477e-12
1.0650984e-09
3.0052221e-12
1.065195e-09
-2.8290895e-12
1.0651041e-09
2.6637992e-12
1.0651898e-09
-2.5106734e-12
1.065109e-09
2.3673008e-12
1.0651853e-09
-2.2346211e-12
1.0651132e-09
2.1107245e-12
1.0651814e-09
-1.9962695e-12
1.0651169e-09
1.8897403e-12
1.0651781e-09
-1.7915912e-12
1.06512e-09
1.700617e-12
1.0651753e-09
-1.6171262e-12
1.0651226e-09
1.5401589e-12
1.0651729e-09
-1.4699224e-12
1.0651248e-09
1.4056503e-12
1.0651709e-09
-1.3474827e-12
1.0651266e-09
1.2948059e-12
1.0651693e-09
-1.2477174e-12
1.0651281e-09
1.205722e-12
1.065168e-09
-1.1688922e-12
1.0651292e-09
1.1368156e-12
1.0651671e-09
-1.1095093e-12
1.06513e-09
1.0868643e-12
1.0651663e-09
-1.0677134e-12
1.0651306e-09
1.0507683e-12
1.0651705e-09
-1.0999486e-12
9.7988192e-13
1.1142857e-09
1.0244942e-08
1.1341056e-09
-1.7615107e-10
1.1324269e-09
3.1357163e-11
1.132703e-09
2.6780188e-12
1.1330265e-09
-1.0261737e-11
1.1330338e-09
7.1877435e-12
1.1333062e-09
-9.3566665e-12
1.133098e-09
8.2891738e-12
1.1333136e-09
-8.0227002e-12
1.1331199e-09
7.4292035e-12
1.133305e-09
-7.0075114e-12
1.133133e-09
6.55404e-12
1.1332951e-09
-6.1570318e-12
1.1331435e-09
5.7710685e-12
1.1332861e-09
-5.418286e-12
1.1331525e-09
5.0823235e-12
1.1332781e-09
-4.7723253e-12
1.1331603e-09
4.4787491e-12
1.133271e-09
-4.207153e-12
1.1331671e-09
3.9506124e-12
1.1332648e-09
-3.7130374e-12
1.1331731e-09
3.4890849e-12
1.1332594e-09
-3.2816007e-12
1.1331782e-09
3.0863974e-12
1.1332547e-09
-2.90555e-12
1.1331827e-09
2.735761e-12
1.1332506e-09
-2.5785327e-12
1.1331866e-09
2.4312617e-12
1.133247e-09
-2.2950247e-12
1.13319e-09
2.1677622e-12
1.133244e-09
-2.0502368e-12
1.1331929e-09
1.9408157e-12
1.1332413e-09
-1.8400325e-12
1.1331954e-09
1.7465903e-12
1.1332391e-09
-1.6608581e-12
1.1331975e-09
1.5818039e-12
1.1332372e-09
-1.509681e-12
1.1331992e-09
1.4436666e-12
1.1332357e-09
-1.3839358e-12
1.1332006e-09
1.3298301e-12
1.1332344e-09
-1.2814741e-12
1.1332018e-09
1.2383363e-12
1.1332334e-09
-1.2005099e-12
1.1332027e-09
1.167551e-12
1.1332326e-09
-1.1394892e-12
1.1332033e-09
1.1162066e-12
1.133232e-09
-1.0964058e-12
1.1332038e-09
1.0789503e-12
1.1332358e-09
-1.1319269e-12
1.0031558e-12
1.1799239e-09
1.0411268e-08
1.199241e-09
-1.9546821e-10
1.197935e-09
3.266321e-11
1.1982455e-09
2.3675418e-12
1.1985534e-09
-1.0569711e-11
1.1986161e-09
7.125054e-12
1.1988273e-09
-9.5678159e-12
1.1986749e-09
8.4415691e-12
1.1988362e-09
-8.1840505e-12
1.1986928e-09
7.5725938e-12
1.1988305e-09
-7.1452174e-12
1.1987029e-09
6.6816526e-12
1.1988234e-09
-6.2775078e-12
1.1987108e-09
5.8836588e-12
1.1988167e-09
-5.5242104e-12
1.1987175e-09
5.181527e-12
1.1988108e-09
-4.865602e-12
1.1987234e-09
4.5661888e-12
1.1988056e-09
-4.2893791e-12
1.1987285e-09
4.0277522e-12
1.198801e-09
-3.7856065e-12
1.1987329e-09
3.5572225e-12
1.198797e-09
-3.3457397e-12
1.1987367e-09
3.1466802e-12
1.1987935e-09
-2.9623428e-12
1.1987401e-09
2.7892044e-12
1.1987905e-09
-2.6289384e-12
1.198743e-09
2.478766e-12
1.1987879e-09
-2.3398946e-12
1.1987455e-09
2.2101277e-12
1.1987856e-09
-2.0903279e-12
1.1987477e-09
1.9787559e-12
1.1987836e-09
-1.8760212e-12
1.1987495e-09
1.7807438e-12
1.198782e-09
-1.6933509e-12
1.198751e-09
1.6127451e-12
1.1987806e-09
-1.5392246e-12
1.1987523e-09
1.4719148e-12
1.1987794e-09
-1.4110257e-12
1.1987534e-09
1.3558575e-12
1.1987785e-09
-1.3065617e-12
1.1987543e-09
1.2625736e-12
1.1987777e-09
-1.2240067e-12
1.1987549e-09
1.1903884e-12
1.1987772e-09
-1.1617608e-12
1.1987554e-09
1.1379974e-12
1.1987767e-09
-1.1176772e-12
1.1987558e-09
1.0998382e-12
1.19878e-09
-1.1561992e-12
1.0195233e-12
1.2433667e-09
1.0514151e-08
1.2618556e-09
-2.1395707e-10
1.2609334e-09
3.358532e-11
1.2612636e-09
2.0373516e-12
1.2615665e-09
-1.0872553e-11
1.2616775e-09
7.0140029e-12
1.2618285e-09
-9.7187669e-12
1.2617301e-09
8.5399483e-12
1.2618386e-09
-8.2925833e-12
1.2617441e-09
7.6671472e-12
1.2618357e-09
-7.2368271e-12
1.2617512e-09
6.7661585e-12
1.2618312e-09
-6.3574882e-12
1.2617565e-09
5.9582918e-12
1.2618268e-09
-5.5944977e-12
1.261761e-09
5.2473041e-12
1.2618229e-09
-4.9274901e-12
1.261765e-09
4.6241722e-12
1.2618195e-09
-4.3439342e-12
1.2617683e-09
4.0789094e-12
1.2618165e-09
-3.8337548e-12
1.2617713e-09
3.6024131e-12
1.2618139e-09
-3.388296e-12
1.2617739e-09
3.1866647e-12
1.2618116e-09
-3.0000264e-12
1.2617761e-09
2.8246559e-12
1.2618096e-09
-2.6623862e-12
1.261778e-09
2.5102815e-12
1.2618078e-09
-2.3696714e-12
1.2617797e-09
2.2382377e-12
1.2618063e-09
-2.1169365e-12
1.2617811e-09
2.0039335e-12
1.261805e-09
-1.8999103e-12
1.2617824e-09
1.8034126e-12
1.2618039e-09
-1.7149229e-12
1.2617834e-09
1.6332858e-12
1.261803e-09
-1.5588421e-12
1.2617843e-09
1.4906716e-12
1.2618022e-09
-1.429017e-12
1.261785e-09
1.3731426e-12
1.2618016e-09
-1.3232251e-12
1.2617855e-09
1.2786706e-12
1.2618011e-09
-1.2396121e-12
1.261786e-09
1.2055512e-12
1.2618007e-09
-1.1765425e-12
1.2617863e-09
1.1524512e-12
1.2618004e-09
-1.1317416e-12
1.2617866e-09
1.1136428e-12
1.2618033e-09
-1.1729426e-12
1.0292589e-12
1.3045435e-09
1.0555858e-08
1.3219468e-09
-2.3136037e-10
1.3214879e-09
3.4044261e-11
1.3217657e-09
1.7595341e-12
1.3220655e-09
-1.1172326e-11
1.3222177e-09
6.8617656e-12
1.3223097e-09
-9.8107523e-12
1.3222635e-09
8.5861268e-12
1.3223208e-09
-8.3498584e-12
1.3222735e-09
7.7144007e-12
1.3223205e-09
-7.2837577e-12
1.3222777e-09
6.8088999e-12
1.3223185e-09
-6.3982248e-12
1.3222806e-09
5.9961467e-12
1.3223164e-09
-5.630251e-12
1.322283e-09
5.2806921e-12
1.3223144e-09
-4.9589615e-12
1.322285e-09
4.653613e-12
1.3223127e-09
-4.3716751e-12
1.3222868e-09
4.1048898e-12
1.3223112e-09
-3.8582383e-12
1.3222883e-09
3.6253683e-12
1.3223099e-09
-3.4099374e-12
1.3222896e-09
3.2069801e-12
1.3223088e-09
-3.0191923e-12
1.3222908e-09
2.842673e-12
1.3223078e-09
-2.6794007e-12
1.3222918e-09
2.5263031e-12
1.3223069e-09
-2.3848221e-12
1.3222926e-09
2.2525333e-12
1.3223062e-09
-2.1304792e-12
1.3222933e-09
2.0167433e-12
1.3223055e-09
-1.9120735e-12
1.322294e-09
1.8149515e-12
1.322305e-09
-1.7259112e-12
1.3222945e-09
1.6437471e-12
1.3223045e-09
-1.5688396e-12
1.3222949e-09
1.5002294e-12
1.3223041e-09
-1.43819e-12
1.3222953e-09
1.3819545e-12
1.3223038e-09
-1.3317235e-12
1.3222956e-09
1.2868779e-12
1.3223035e-09
-1.247569e-12
1.3222958e-09
1.2132761e-12
1.3223033e-09
-1.1840654e-12
1.322296e-09
1.1597947e-12
1.3223031e-09
-1.1388249e-12
1.3222961e-09
1.1205864e-12
1.3223055e-09
-1.1823538e-12
1.0326436e-12
1.3633635e-09
1.0538744e-08
1.3795004e-09
-2.4749719e-10
1.3796826e-09
3.386198e-11
1.379776e-09
1.66614e-12
1.3800538e-09
-1.145014e-11
1.3802381e-09
6.6774957e-12
1.3802714e-09
-9.8439921e-12
1.3802752e-09
8.582263e-12
1.3802828e-09
-8.3574081e-12
1.3802812e-09
7.716005e-12
1.3802849e-09
-7.2874824e-12
1.3802825e-09
6.8112915e-12
1.3802853e-09
-6.4010302e-12
1.380283e-09
5.9984617e-12
1.3802854e-09
-5.632628e-12
1.3802833e-09
5.2827802e-12
1.3802854e-09
-4.9610365e-12
1.3802835e-09
4.6554705e-12
1.3802853e-09
-4.3735011e-12
1.3802837e-09
4.1065394e-12
1.3802853e-09
-3.8598508e-12
1.3802838e-09
3.6268348e-12
1.3802852e-09
-3.4113656e-12
1.3802839e-09
3.2082868e-12
1.3802852e-09
-3.0204612e-12
1.380284e-09
2.8438408e-12
1.3802852e-09
-2.6805326e-12
1.3802841e-09
2.5273508e-12
1.3802851e-09
-2.3858366e-12
1.3802842e-09
2.2534777e-12
1.3802851e-09
-2.1313936e-12
1.3802843e-09
2.0175995e-12
1.3802851e-09
-1.9129031e-12
1.3802843e-09
1.8157331e-12
1.3802851e-09
-1.7266696e-12
1.3802843e-09
1.6444659e-12
1.380285e-09
-1.5695385e-12
1.3802844e-09
1.5008957e-12
1.380285e-09
-1.438839e-12
1.3802844e-09
1.3825761e-12
1.380285e-09
-1.3323293e-12
1.3802844e-09
1.2874587e-12
1.380285e-09
-1.2481324e-12
1.3802845e-09
1.2138111e-12
1.380285e-09
-1.1845721e-12
1.3802845e-09
1.1602662e-12
1.3802848e-09
-1.1391638e-12
1.3802845e-09
1.1209016e-12
1.3802868e-09
-1.1846472e-12
1.029963e-12
1.4199088e-09
1.0465085e-08
1.4345533e-09
-2.621417e-10
1.4354424e-09
3.2972915e-11
1.435285e-09
1.8235344e-12
1.4355279e-09
-1.1693043e-11
1.4357378e-09
6.4675966e-12
1.4357132e-09
-9.8194134e-12
1.4357651e-09
8.5303826e-12
1.4357246e-09
-8.3169093e-12
1.4357669e-09
7.6736543e-12
1.435729e-09
-7.2495479e-12
1.4357655e-09
6.7748038e-12
1.4357317e-09
-6.3672742e-12
1.4357637e-09
5.9665268e-12
1.4357339e-09
-5.6028363e-12
1.435762e-09
5.2547033e-12
1.4357357e-09
-4.934779e-12
1.4357604e-09
4.6307448e-12
1.4357373e-09
-4.3503503e-12
1.4357591e-09
4.0847399e-12
1.4357386e-09
-3.8394201e-12
1.4357579e-09
3.6075912e-12
1.4357398e-09
-3.3933119e-12
1.4357568e-09
3.1912732e-12
1.4357409e-09
-3.0044808e-12
1.4357559e-09
2.8287693e-12
1.4357418e-09
-2.6663565e-12
1.4357551e-09
2.5139663e-12
1.4357425e-09
-2.373226e-12
1.4357545e-09
2.2415537e-12
1.4357432e-09
-2.1201361e-12
1.4357539e-09
2.0069343e-12
1.4357438e-09
-1.9028085e-12
1.4357534e-09
1.8061459e-12
1.4357443e-09
-1.7175673e-12
1.4357529e-09
1.6357939e-12
1.4357447e-09
-1.5612741e-12
1.4357526e-09
1.492991e-12
1.435745e-09
-1.4312712e-12
1.4357523e-09
1.3753024e-12
1.4357453e-09
-1.3253266e-12
1.435752e-09
1.2806876e-12
1.4357455e-09
-1.2415685e-12
1.4357519e-09
1.2074154e-12
1.4357456e-09
-1.1783155e-12
1.4357518e-09
1.154114e-12
1.4357456e-09
-1.1330046e-12
1.4357517e-09
1.1148302e-12
1.4357471e-09
-1.1800528e-12
1.0215056e-12
1.4743179e-09
1.0337017e-08
1.4871449e-09
-2.749687e-10
1.4886237e-09
3.1494135e-11
1.4882746e-09
2.1725744e-12
1.4884828e-09
-1.1901185e-11
1.4887153e-09
6.2350196e-12
1.4886349e-09
-9.7389694e-12
1.4887329e-09
8.4323446e-12
1.4886462e-09
-8.2301893e-12
1.4887308e-09
7.5890778e-12
1.4886528e-09
-7.1715678e-12
1.4887267e-09
6.7009573e-12
1.4886578e-09
-6.2983785e-12
1.4887226e-09
5.9016789e-12
1.4886619e-09
-5.5421281e-12
1.488719e-09
5.1976381e-12
1.4886655e-09
-4.8812921e-12
1.4887158e-09
4.5804722e-12
1.4886686e-09
-4.303195e-12
1.4887129e-09
4.0404053e-12
1.4886713e-09
-3.7978043e-12
1.4887105e-09
3.5684446e-12
1.4886737e-09
-3.3565346e-12
1.4887083e-09
3.1566531e-12
1.4886758e-09
-2.9719223e-12
1.4887064e-09
2.7980908e-12
1.4886775e-09
-2.6374679e-12
1.4887048e-09
2.4867114e-12
1.4886791e-09
-2.3475203e-12
1.4887034e-09
2.217262e-12
1.4886804e-09
-2.0971796e-12
1.4887022e-09
1.9851955e-12
1.4886816e-09
-1.8822141e-12
1.4887011e-09
1.7865927e-12
1.4886825e-09
-1.6989872e-12
1.4887002e-09
1.6180956e-12
1.4886834e-09
-1.544394e-12
1.4886995e-09
1.4768478e-12
1.488684e-09
-1.4158049e-12
1.4886989e-09
1.3604394e-12
1.4886846e-09
-1.31101e-12
1.4886984e-09
1.2668493e-12
1.488685e-09
-1.2281533e-12
1.4886981e-09
1.1943574e-12
1.4886853e-09
-1.1655579e-12
1.4886978e-09
1.1415953e-12
1.4886854e-09
-1.1206021e-12
1.4886976e-09
1.1026225e-12
1.4886864e-09
-1.1688149e-12
1.0075608e-12
1.5265851e-09
1.0156682e-08
1.537267e-09
-2.8565062e-10
1.5392034e-09
2.955766e-11
1.5387607e-09
2.6152979e-12
1.5389199e-09
-1.2060389e-11
1.5391718e-09
5.9831644e-12
1.5390368e-09
-9.6039955e-12
1.5391789e-09
8.2902616e-12
1.5390478e-09
-8.09905e-12
1.5391727e-09
7.4640906e-12
1.5390564e-09
-7.0551943e-12
1.539166e-09
6.5913251e-12
1.5390634e-09
-6.1958076e-12
1.5391598e-09
5.8052971e-12
1.5390695e-09
-5.4517947e-12
1.5391543e-09
5.1127979e-12
1.5390747e-09
-4.8017134e-12
1.5391495e-09
4.5057217e-12
1.5390793e-09
-4.2330384e-12
1.5391453e-09
3.9744783e-12
1.5390833e-09
-3.7358885e-12
1.5391416e-09
3.5102273e-12
1.5390868e-09
-3.3018159e-12
1.5391383e-09
3.1051625e-12
1.5390899e-09
-2.9234781e-12
1.5391355e-09
2.7524578e-12
1.5390925e-09
-2.5944812e-12
1.5391331e-09
2.4461656e-12
1.5390948e-09
-2.309266e-12
1.539131e-09
2.1811191e-12
1.5390968e-09
-2.0630125e-12
1.5391292e-09
1.9528454e-12
1.5390985e-09
-1.8515577e-12
1.5391276e-09
1.7574893e-12
1.5390999e-09
-1.6713241e-12
1.5391263e-09
1.5917472e-12
1.5391011e-09
-1.5192571e-12
1.5391252e-09
1.452809e-12
1.5391022e-09