/*--------------------------------*- C++ -*----------------------------------*\
| =========                 |                                                 |
| \\      /  F ield         | OpenFOAM: The Open Source CFD Toolbox           |
|  \\    /   O peration     | Version:  2312                                  |
|   \\  /    A nd           | Website:  www.openfoam.com                      |
|    \\/     M anipulation  |                                                 |
\*---------------------------------------------------------------------------*/
FoamFile
{
    version     2.0;
    format      ascii;
    arch        "LSB;label=32;scalar=64";
    class       volScalarField;
    location    "10";
    object      T;
}
// * * * * * * * * * * * * * * * * * * * * * * * * * * * * * * * * * * * * * //

dimensions      [0 0 0 1 0 0 0];

internalField   nonuniform List<scalar> 
4000
(
329.27847
328.41686
328.29779
328.22263
328.16723
328.11348
328.06879
328.02196
327.98145
327.93806
327.89969
327.85834
327.82124
327.78124
327.74496
327.70591
327.67021
327.63186
327.59657
327.55876
327.52378
327.4864
327.45167
327.41461
327.38009
327.3433
327.30895
327.27237
327.23817
327.20176
327.16769
327.13142
327.09748
327.06132
327.02749
326.99141
326.9577
326.92167
326.88808
326.85208
326.81861
326.78261
326.74927
326.71325
326.68007
326.64398
326.61101
326.57474
326.54218
326.50508
331.02172
329.28361
328.99606
328.8387
328.74049
328.64724
328.58112
328.50864
328.45505
328.39287
328.34571
328.28965
328.24631
328.19429
328.15341
328.10424
328.06508
328.01802
327.9801
327.93465
327.89768
327.85349
327.81726
327.77407
327.73846
327.69606
327.66096
327.6192
327.58456
327.54331
327.50907
327.46823
327.43436
327.39384
327.36032
327.32004
327.28687
327.24675
327.21393
327.1739
327.14145
327.10144
327.06939
327.02929
326.99772
326.9574
326.92647
326.88561
326.85589
326.81263
332.28238
330.13831
329.6917
329.45332
329.31257
329.18012
329.09259
328.99462
328.92793
328.84707
328.7911
328.72041
328.67079
328.60681
328.56131
328.50208
328.45942
328.4037
328.36312
328.31008
328.27108
328.22012
328.18238
328.13307
328.09635
328.04837
328.01252
327.96559
327.93049
327.88442
327.84999
327.8046
327.7708
327.72592
327.69272
327.64824
327.61561
327.5714
327.53936
327.49531
327.46387
327.41984
327.38908
327.34492
327.31495
327.27041
327.2415
327.19607
327.16917
327.11993
333.22796
330.96793
330.38078
330.06439
329.8819
329.71097
329.60219
329.4791
329.39933
329.30003
329.23522
329.15007
329.09413
329.01833
328.96816
328.89897
328.85279
328.78848
328.74522
328.68464
328.6436
328.58593
328.54664
328.49127
328.45342
328.39989
328.36326
328.31121
328.27563
328.22477
328.19014
328.14022
328.10647
328.05727
328.02435
327.97571
327.9436
327.89534
327.86405
327.81599
327.78556
327.73754
327.70805
327.65983
327.63145
327.58271
327.55582
327.50584
327.48172
327.42675
333.95775
331.75948
331.05796
330.66896
330.44639
330.23825
330.10859
329.961
329.86825
329.7509
329.67726
329.57793
329.51566
329.42825
329.37337
329.29438
329.24464
329.17189
329.1259
329.0579
329.01477
328.95048
328.90961
328.84826
328.80925
328.75025
328.71281
328.65569
328.61961
328.56401
328.52915
328.47475
328.44102
328.38755
328.3549
328.30212
328.27052
328.21822
328.18768
328.13565
328.10621
328.05421
328.02598
327.97374
327.94693
327.89402
327.86911
327.81464
327.79321
327.73284
334.53356
332.50168
331.71701
331.2634
331.00344
330.76
330.61017
330.43899
330.33351
330.19867
330.11629
330.00317
329.93458
329.83585
329.77626
329.6877
329.63438
329.55335
329.50461
329.42934
329.38409
329.31331
329.27083
329.2036
329.1634
329.09902
329.06073
328.99863
328.96202
328.90175
328.86664
328.80781
328.7741
328.7164
328.68399
328.62713
328.59602
328.53974
328.50991
328.45395
328.42547
328.36955
328.34255
328.28633
328.26106
328.20404
328.18106
328.12217
328.10333
328.03792
334.99564
333.18585
332.3513
331.84355
331.55006
331.27398
331.10507
330.91155
330.79376
330.64218
330.55124
330.42484
330.35002
330.24034
330.17606
330.07823
330.02132
329.93226
329.88075
329.7984
329.75101
329.67389
329.62978
329.55681
329.5154
329.44574
329.4066
329.3396
329.30245
329.23758
329.20221
329.13903
329.1053
329.04344
329.01126
328.95038
328.91973
328.85952
328.83039
328.77055
328.74301
328.68322
328.65742
328.59729
328.57351
328.51244
328.49135
328.42813
328.41173
328.34168
335.37129
333.80621
332.95435
332.40495
332.08298
331.77766
331.59121
331.37694
331.24749
331.08012
330.98093
330.84189
330.76098
330.64083
330.57194
330.4652
330.40473
330.30793
330.25365
330.16446
330.11493
330.03167
329.98592
329.90737
329.86472
329.78994
329.74992
329.67816
329.64043
329.57109
329.53542
329.46799
329.43422
329.36829
329.33631
329.27149
329.24127
329.17721
329.14875
329.08511
329.05848
328.99489
328.97026
328.90627
328.88396
328.81892
328.79964
328.73222
328.71809
328.64379
335.6798
334.35982
333.52035
332.94311
332.59877
332.26836
332.06635
331.8333
331.69305
331.51107
331.40406
331.25318
331.16642
331.03637
330.963
330.84778
330.78383
330.67963
330.62263
330.52687
330.47522
330.38606
330.33867
330.25473
330.21085
330.1311
330.0902
330.01381
329.9755
329.9018
329.86583
329.79427
329.76044
329.69053
329.65875
329.59007
329.56027
329.49244
329.46463
329.39727
329.37152
329.30421
329.2807
329.21295
329.19204
329.12314
329.10559
329.03414
329.02206
328.94392
335.93523
334.84644
334.04452
333.45378
333.09401
332.74331
332.5282
332.27868
332.12875
331.93353
331.81929
331.6575
331.56521
331.42594
331.34828
331.2251
331.15778
331.04659
330.98694
330.88494
330.83121
330.73641
330.68741
330.59832
330.55322
330.4687
330.42691
330.34607
330.30718
330.22927
330.19298
330.11741
330.08352
330.00976
329.97814
329.90573
329.87632
329.80483
329.77763
329.70665
329.68174
329.61082
329.58839
329.51699
329.49742
329.42479
329.40886
329.33356
329.32332
329.2417
336.14819
335.26804
334.5234
333.93317
333.56547
333.1998
332.97443
332.71109
332.55283
332.34596
332.22522
332.05357
331.95621
331.80847
331.7268
331.59623
331.52573
331.408
331.34582
331.23795
331.18222
331.08208
331.03152
330.93753
330.89124
330.80217
330.75952
330.67441
330.63495
330.553
330.5164
330.43697
330.40301
330.32553
330.29406
330.21804
330.189
330.11397
330.08737
330.01288
329.98878
329.91436
329.89296
329.81804
329.79974
329.72352
329.7091
329.63017
329.62153
329.5368
336.32686
335.62843
334.95502
334.3782
334.01023
333.63523
333.4028
333.12854
332.96355
332.74678
332.62045
332.44013
332.33822
332.18288
332.09755
331.96024
331.88679
331.76303
331.69848
331.58515
331.52754
331.42241
331.37036
331.27176
331.22434
331.13096
331.08749
330.99832
330.9583
330.87251
330.83561
330.75249
330.71845
330.63741
330.60609
330.5266
330.49792
330.41949
330.39344
330.31558
330.29226
330.21447
330.19406
330.11575
330.09864
330.019
330.00597
329.92363
329.91638
329.82886
336.47766
335.93271
335.33886
334.78662
334.42581
334.04727
333.81121
333.52915
333.35921
333.13447
333.00357
332.81589
332.71009
332.54808
332.45951
332.31619
332.24008
332.11085
332.04414
331.92581
331.86644
331.7567
331.70328
331.60038
331.5519
331.45449
331.41024
331.31726
331.27673
331.18729
331.15011
331.06349
331.02939
330.94496
330.91379
330.83098
330.80265
330.72096
330.69546
330.61437
330.59178
330.51078
330.4913
330.40977
330.39377
330.3109
330.29913
330.21363
330.20753
330.11752
336.60575
336.1868
335.6758
335.15714
334.81033
334.43396
334.1978
333.91119
333.73823
333.50756
333.37325
333.17961
333.07065
332.903
332.81169
332.66313
332.5847
332.45063
332.38199
332.25916
332.19823
332.08428
332.02961
331.92276
331.87333
331.77218
331.72724
331.63069
331.5897
331.49685
331.45942
331.3695
331.33537
331.24773
331.21671
331.13077
331.10278
331.018
330.99302
330.90887
330.88698
330.80293
330.78432
330.69974
330.68477
330.59887
330.58823
330.49982
330.49467
330.40245
336.71526
336.39704
335.96791
335.48943
335.16257
334.79372
334.56098
334.2731
334.09916
333.86469
333.72822
333.53009
333.4188
333.2466
333.15312
333.00015
332.91981
332.78153
332.71127
332.58446
332.52219
332.40448
332.34873
332.2383
332.18803
332.08347
332.03791
331.93809
331.8967
331.80068
331.76305
331.67006
331.63592
331.54528
331.51443
331.42554
331.39789
331.3102
331.28573
331.1987
331.17747
331.09056
331.07275
330.98533
330.9713
330.88258
330.87293
330.78189
330.77749
330.6833
336.80955
336.56976
336.21821
335.78406
335.48198
335.12548
334.89953
334.61359
334.44075
334.20464
334.06735
333.86626
333.75353
333.57791
333.48287
333.32636
333.24456
333.10278
333.03122
332.901
332.83764
332.71663
332.65999
332.54637
332.49541
332.38778
332.34172
332.23892
332.19721
332.0983
332.06053
331.96471
331.93059
331.83717
331.80651
331.71488
331.68758
331.59718
331.57319
331.48348
331.46288
331.37329
331.35625
331.26617
331.25299
331.1617
331.1529
331.0595
331.05568
330.95975
336.89133
336.71103
336.43041
336.04245
335.76868
335.4287
335.21262
334.93168
334.76198
334.52636
334.38962
334.18711
334.07389
333.896
333.80009
333.64095
333.55817
333.41361
333.34113
333.20809
333.14391
333.0201
332.96278
332.8464
332.79492
332.68457
332.63815
332.53267
332.49075
332.38922
332.35138
332.25298
332.21894
332.12298
332.09254
331.99839
331.97143
331.87854
331.85503
331.76284
331.74284
331.65079
331.63445
331.54195
331.52953
331.4359
331.42783
331.33232
331.32895
331.23148
336.96279
336.82641
336.60862
336.2667
336.02347
335.70334
335.49982
335.22667
335.06209
334.82903
334.6942
334.49181
334.37907
334.20009
334.10401
333.94315
333.85994
333.71333
333.64033
333.50508
333.4404
333.31428
333.25654
333.13783
333.08601
332.97331
332.92667
332.81886
332.77684
332.67298
332.63516
332.53445
332.50055
332.40228
332.3721
332.27566
332.24908
332.15391
332.13088
332.03642
332.01699
331.92271
331.90701
331.81231
331.80058
331.70485
331.69739
331.60005
331.597
331.49818
337.02571
336.92085
336.75713
336.45943
336.2477
335.94986
335.76112
335.49824
335.34058
335.11201
334.98044
334.77966
334.66838
334.48947
334.39395
334.23231
334.14921
334.00131
333.92821
333.79137
333.72651
333.59863
333.54071
333.42012
333.36817
333.25352
333.20682
333.09702
333.05502
332.94914
332.91144
332.80869
332.77499
332.67469
332.64481
332.54633
332.52013
332.42292
332.40037
332.30388
332.285
332.18871
332.1736
332.07696
332.06582
331.96826
331.9613
331.86238
331.85954
331.75956
337.08151
336.99859
336.88014
336.6236
336.44318
336.1692
335.99691
335.74638
335.59724
335.37495
335.24789
335.05014
334.94129
334.76358
334.66936
334.50784
334.42542
334.27698
334.20423
334.06643
334.00175
333.87262
333.81481
333.69279
333.64093
333.52474
333.47814
333.36671
333.32486
333.21729
333.1798
333.07531
333.0419
332.93983
332.91029
332.81003
332.78425
332.68524
332.66317
332.56489
332.54654
332.44847
332.43392
332.33557
332.32495
332.22581
332.21926
332.119
332.11632
332.01534
337.13132
337.0632
336.98166
336.76238
336.61208
336.36268
336.20795
335.97142
335.83216
335.61771
335.49632
335.30292
335.19741
335.02199
334.92979
334.76928
334.68812
334.53987
334.46793
334.32978
334.26564
334.13581
334.07839
333.9554
333.90387
333.78653
333.74023
333.62752
333.58598
333.47703
333.43987
333.33395
333.30089
333.19734
333.1682
333.06642
333.04109
332.94054
332.91895
332.81913
332.80129
332.70171
332.68766
332.58785
332.5777
332.47723
332.471
332.36965
332.36705
332.26525
337.17606
337.11755
337.06534
336.87895
336.75683
336.53194
336.39533
336.17399
336.04568
335.8404
335.72571
335.53784
335.43654
335.26441
335.17493
335.01628
334.93693
334.78961
334.71892
334.58104
334.51781
334.38779
334.33106
334.20758
334.1566
334.03853
333.99272
333.8791
333.83801
333.72803
333.69131
333.58425
333.55165
333.44689
333.41822
333.31519
333.29034
333.18851
333.16742
333.06631
333.04896
332.94812
332.93455
332.83353
332.82378
332.72224
332.71627
332.61405
332.61151
332.50905
337.21644
337.16392
337.13442
336.97641
336.87995
336.67884
336.56041
336.35499
336.2384
336.04336
335.93622
335.75493
335.65861
335.49071
335.4046
335.24862
335.17162
335.0259
334.95691
334.8199
334.75793
334.62826
334.57251
334.44899
334.39881
334.28041
334.23528
334.12112
334.08064
333.96996
333.93381
333.82593
333.79387
333.6882
333.66006
333.55605
333.53172
333.42888
333.4083
333.30616
333.2893
333.18745
333.17432
333.07236
333.06296
332.96059
332.95483
332.85197
332.84945
332.74649
337.25302
337.20408
337.1917
337.05765
336.98402
336.80542
336.70474
336.51555
336.41116
336.22715
336.12826
335.95442
335.86375
335.70089
335.61875
335.46617
335.39204
335.24857
335.1817
335.04613
334.98578
334.85696
334.80249
334.67936
334.63023
334.5119
334.46765
334.35332
334.31361
334.20256
334.1671
334.0587
334.02728
333.92099
333.89345
333.78874
333.76498
333.66139
333.64134
333.53844
333.52206
333.41946
333.40675
333.30409
333.29501
333.19205
333.18645
333.08317
333.08066
332.97737
337.28626
337.23935
337.23951
337.12532
337.0715
336.91375
336.83001
336.65699
336.56496
336.39251
336.30236
336.13667
336.05222
335.89511
335.81747
335.66895
335.59815
335.45754
335.39319
335.25959
335.2012
335.0737
335.02079
334.89851
334.85065
334.73279
334.68962
334.57546
334.53668
334.42559
334.39095
334.28235
334.25167
334.14504
334.11817
334.01304
333.98989
333.88582
333.86632
333.76292
333.74703
333.64393
333.63162
333.52851
333.51972
333.41641
333.41096
333.30745
333.30494
333.2015
337.3165
337.27069
337.27976
337.18173
337.14475
337.00594
336.93802
336.78072
336.70096
336.54035
336.45924
336.30223
336.22443
336.07366
336.00097
335.85709
335.79003
335.65282
335.59136
335.46023
335.40412
335.2784
335.22732
335.10628
335.05993
334.94291
334.90101
334.78738
334.74968
334.63888
334.60518
334.49668
334.46683
334.36016
334.33403
334.22875
334.20627
334.10198
334.08307
333.97941
333.96402
333.86067
333.84875
333.74544
333.73692
333.63349
333.62815
333.52463
333.52212
333.41869
337.34404
337.29881
337.31399
337.22889
337.20591
337.08398
337.03054
336.88827
336.82044
336.67168
336.59976
336.45176
336.38094
336.23696
336.16959
336.03084
335.96788
335.83454
335.77629
335.64809
335.59455
335.47102
335.42203
335.30263
335.258
335.14218
335.10172
334.98896
334.95249
334.84229
334.80966
334.70155
334.67263
334.56619
334.54089
334.43573
334.41395
334.30971
334.29141
334.18775
334.17287
334.06951
334.05799
333.95471
333.94644
333.84311
333.83789
333.73454
333.73205
333.6288
337.3691
337.32419
337.34338
337.26851
337.25692
337.14978
337.10936
336.98118
336.92475
336.78764
336.72486
336.58606
336.52238
336.38555
336.32376
336.19053
336.13197
336.00291
335.94817
335.82329
335.77257
335.65161
335.60494
335.48753
335.44483
335.33055
335.29171
335.18013
335.14504
335.03573
335.00429
334.89686
334.86896
334.76304
334.73861
334.63384
334.61283
334.50888
334.49122
334.38782
334.37346
334.27034
334.25921
334.15619
334.14817
334.04516
334.04005
333.93706
333.93459
333.8317
337.39184
337.34717
337.36884
337.30198
337.29945
337.20509
337.17615
337.06099
337.01525
336.88942
336.83559
336.70599
336.64952
336.52004
336.46401
336.33662
336.28268
336.15824
336.10723
335.98602
335.93835
335.82031
335.77615
335.66107
335.62047
335.50805
335.47098
335.36088
335.32729
335.21918
335.18902
335.08255
335.05576
334.95061
334.92714
334.82301
334.8028
334.69941
334.68242
334.57951
334.56568
334.46304
334.45231
334.34977
334.34201
334.23951
334.23452
334.13208
334.12963
334.02727
337.41242
337.36799
337.39106
337.33042
337.33497
337.25149
337.23249
337.12919
337.09331
336.97823
336.93301
336.81249
336.76318
336.64114
336.59097
336.46961
336.42045
336.3009
336.2538
336.13655
336.09212
335.9773
335.93583
335.82337
335.78502
335.67474
335.63958
335.53125
335.49929
335.39263
335.36387
335.25861
335.23301
335.12889
335.10644
335.00319
334.98384
334.88123
334.86495
334.76275
334.74949
334.64754
334.63721
334.53537
334.52787
334.42609
334.42123
334.31951
334.3171
334.21543
337.43095
337.38679
337.41055
337.35473
337.36468
337.29037
337.27985
337.18719
337.16028
337.0553
337.01825
336.90654
336.86424
336.74962
336.70531
336.59012
336.54582
336.43135
336.3883
336.27524
336.23417
336.12282
336.08418
335.97461
335.93865
335.83077
335.79764
335.69133
335.6611
335.55615
335.52886
335.42507
335.40074
335.29788
335.2765
335.17437
335.15592
335.05432
335.03877
334.93752
334.92484
334.82379
334.81389
334.71294
334.70571
334.60483
334.60011
334.49928
334.49694
334.39611
337.4475
337.40369
337.42767
337.37563
337.3896
337.32293
337.31952
337.2363
337.21741
337.12182
337.0924
336.98916
336.9536
336.8463
336.80777
336.69877
336.65935
336.5501
336.51116
336.40248
336.36488
336.25721
336.2215
336.11503
336.08157
335.97632
335.94532
335.84125
335.81285
335.70983
335.68411
335.582
335.559
335.45763
335.43737
335.33658
335.31907
335.2187
335.20391
335.10382
335.09173
334.99179
334.98232
334.88246
334.87552
334.77571
334.77115
334.67138
334.6691
334.5693
337.46214
337.41877
337.44268
337.39366
337.41055
337.35021
337.35267
337.27773
337.26593
337.17893
337.15655
337.06133
337.0322
336.93201
336.8991
336.79626
336.76169
336.6577
336.6229
336.51871
336.48464
336.3808
336.34811
336.24492
336.21404
336.11162
336.08283
335.98121
335.9547
335.85383
335.82973
335.72951
335.70789
335.60822
335.58913
335.48988
335.47335
335.3744
335.36041
335.26166
335.25019
335.15154
335.14253
335.04394
335.03729
334.93873
334.93434
334.83579
334.83358
334.73496
337.47492
337.43209
337.4558
337.40923
337.4282
337.37308
337.3803
337.31257
337.30692
337.22773
337.21176
337.12406
337.10095
337.00761
336.98011
336.88331
336.85347
336.75475
336.72405
336.62443
336.5939
336.49402
336.46438
336.36462
336.33636
336.23694
336.21041
336.11142
336.08686
335.98831
335.96589
335.86775
335.84756
335.74977
335.7319
335.63437
335.61884
335.52151
335.50834
335.41111
335.40028
335.3031
335.29456
335.1974
335.19107
335.09391
335.08971
334.99252
334.99041
334.89311
337.48586
337.44371
337.46717
337.42267
337.44308
337.39227
337.40329
337.34177
337.34141
337.26923
337.259
337.17828
337.16076
337.07393
337.05156
336.96064
336.93538
336.84187
336.8152
336.72016
336.69315
336.59729
336.57071
336.47449
336.44889
336.35259
336.32836
336.23215
336.20957
336.11351
336.09279
335.99691
335.97818
335.88244
335.8658
335.77018
335.75568
335.66013
335.64779
335.55226
335.54208
335.44654
335.43848
335.34291
335.33691
335.2413
335.23731
335.14162
335.13961
335.04378
337.49502
337.45369
337.47692
337.43424
337.45562
337.40838
337.42238
337.36618
337.37029
337.30435
337.29921
337.22491
337.21251
337.13181
337.11426
337.02898
337.00811
336.9197
336.89694
336.80646
336.7829
336.6911
336.66754
336.57494
336.55198
336.45892
336.437
336.34368
336.32311
336.22968
336.21069
336.11719
336.09995
336.00642
335.99104
335.89746
335.88402
335.79039
335.77891
335.68522
335.67572
335.58195
335.5744
335.48055
335.47491
335.38098
335.3772
335.28316
335.28126
335.18703
337.50244
337.46212
337.48517
337.44414
337.46616
337.42189
337.4382
337.38654
337.39436
337.33393
337.33325
337.26478
337.257
337.18203
337.16895
337.08906
337.07233
336.98887
336.96986
336.88387
336.86367
336.77592
336.75534
336.66639
336.64605
336.55629
336.53667
336.44635
336.42778
336.33708
336.31983
336.22885
336.2131
336.1219
336.10779
336.01641
336.00402
335.91247
335.90186
335.81015
335.80133
335.70947
335.70243
335.61044
335.60516
335.51304
335.5095
335.41722
335.41543
335.32293
337.5082
337.46907
337.49202
337.45255
337.47496
337.4332
337.45125
337.40346
337.41432
337.35873
337.36188
337.29868
337.29503
337.22537
337.21637
337.14158
337.12872
337.05001
337.03458
336.95297
336.93599
336.85226
336.83457
336.74928
336.73151
336.64509
336.62774
336.54048
336.52391
336.43603
336.42051
336.33215
336.3179
336.22914
336.21631
336.12723
336.11591
336.02654
336.0168
335.9272
335.91907
335.82924
335.82273
335.73271
335.7278
335.63761
335.63431
335.54391
335.54224
335.45159
337.51242
337.47467
337.49758
337.45961
337.48225
337.44265
337.46199
337.41747
337.43078
337.37941
337.3858
337.32733
337.32731
337.26252
337.25723
337.1872
337.17792
337.10376
337.09167
337.01432
337.00042
336.92062
336.90572
336.82407
336.8088
336.72574
336.71061
336.62646
336.61184
336.52685
336.51305
336.42738
336.41461
336.3284
336.31683
336.23015
336.21989
336.13283
336.12396
336.03656
336.02913
335.94144
335.93545
335.84752
335.84299
335.75482
335.75177
335.66336
335.66181
335.57312
337.51524
337.47901
337.50196
337.46545
337.48821
337.45049
337.47074
337.42901
337.44425
337.39653
337.40563
337.35137
337.3545
337.29414
337.29216
337.22658
337.22057
337.15071
337.14174
337.06848
337.05747
336.98153
336.96928
336.89122
336.87835
336.79865
336.78566
336.70465
336.69194
336.60989
336.59776
336.51486
336.50354
336.41994
336.40962
336.32543
336.31623
336.23155
336.22355
336.13845
336.13171
336.04625
336.0408
335.95503
335.95089
335.86484
335.86204
335.77571
335.77429
335.68765
337.51686
337.48226
337.50528
337.47019
337.49301
337.45694
337.47782
337.43847
337.45517
337.4106
337.42191
337.37136
337.37718
337.32084
337.32177
337.2603
337.25724
337.19144
337.18533
337.11598
337.10769
337.03547
337.02573
336.9512
336.94062
336.86424
336.85332
336.77545
336.76458
336.68549
336.67499
336.59489
336.585
336.50407
336.49498
336.41334
336.40518
336.32295
336.31581
336.23308
336.22703
336.14388
336.13897
336.05544
336.0517
335.96785
335.96531
335.88113
335.87984
335.79533
337.51747
337.48454
337.50766
337.47396
337.49677
337.46219
337.48345
337.44612
337.46391
337.42204
337.43511
337.38783
337.39589
337.34317
337.34662
337.28892
337.28849
337.22649
337.22299
337.15736
337.15156
337.08294
337.07554
337.00446
336.99604
336.92294
336.91399
336.83923
336.83014
336.75401
336.74509
336.66782
336.65932
336.58109
336.57319
336.49416
336.48701
336.40729
336.401
336.32071
336.31534
336.23456
336.23018
336.14897
336.14562
336.06403
336.06175
335.97981
335.97864
335.89635
337.51728
337.48601
337.50922
337.47686
337.49961
337.46638
337.48782
337.45223
337.47076
337.43121
337.44562
337.40119
337.41109
337.3616
337.36721
337.31296
337.31484
337.25637
337.25521
337.1931
337.18959
337.12441
337.11919
337.05144
337.04506
336.97517
336.96809
336.89641
336.88901
336.81583
336.80842
336.73399
336.72681
336.65132
336.64458
336.56818
336.56202
336.48485
336.47939
336.40157
336.39688
336.31852
336.31466
336.23582
336.23286
336.1536
336.15157
336.07192
336.07089
335.99087
337.51651
337.48681
337.51007
337.479
337.50164
337.46963
337.4911
337.45699
337.47597
337.43839
337.45379
337.41183
337.4232
337.37658
337.38399
337.33288
337.33676
337.28156
337.28247
337.22368
337.22224
337.16035
337.15712
337.0926
337.0881
337.02134
337.01601
336.94736
336.94155
336.87131
336.86533
336.79373
336.78783
336.71507
336.70944
336.6357
336.63049
336.55591
336.55124
336.47595
336.47191
336.39601
336.39266
336.31624
336.31365
336.23677
336.235
336.15769
336.15679
336.0791
337.51532
337.48707
337.51031
337.48048
337.50295
337.47206
337.49339
337.46056
337.47973
337.44383
337.45989
337.42008
337.43256
337.38849
337.39737
337.34909
337.35467
337.30249
337.30522
337.24953
337.24994
337.19118
337.18977
337.12834
337.12557
337.06186
337.05815
336.99248
336.98816
336.92081
336.91619
336.8474
336.84271
336.77269
336.76811
336.69704
336.69274
336.62076
336.61686
336.54411
336.5407
336.46729
336.46444
336.39046
336.38825
336.31377
336.31225
336.23733
336.23655
336.16123
337.51385
337.48689
337.51005
337.48137
337.50361
337.47373
337.4948
337.46306
337.4822
337.44771
337.46416
337.42618
337.43947
337.39764
337.40769
337.36197
337.36897
337.31956
337.32386
337.27107
337.27311
337.21731
337.21753
337.15908
337.15789
337.09712
337.0949
337.03213
337.0292
336.9647
336.96134
336.89534
336.89178
336.82448
336.82091
336.75249
336.74906
336.67969
336.67652
336.60633
336.60352
336.53262
336.53025
336.45874
336.45689
336.38485
336.38356
336.31106
336.3104
336.23749
337.51219
337.48639
337.50937
337.48175
337.50369
337.47471
337.49539
337.46458
337.4835
337.45019
337.46676
337.43037
337.44418
337.40433
337.41526
337.37185
337.37999
337.33313
337.33876
337.28868
337.29214
337.23913
337.2408
337.18518
337.18542
337.1275
337.12664
337.06669
337.06504
337.00333
337.00114
336.93788
336.93538
336.87078
336.86815
336.80238
336.79977
336.73299
336.73052
336.66288
336.66065
336.59227
336.59036
336.52134
336.51982
336.45024
336.44919
336.37912
336.37858
336.30809
337.51042
337.48563
337.50834
337.48169
337.50324
337.47504
337.49522
337.46518
337.48369
337.45138
337.46786
337.43281
337.44691
337.40879
337.42035
337.379
337.38806
337.34352
337.35026
337.30269
337.30737
337.257
337.25994
337.20703
337.20854
337.15335
337.15372
337.09652
337.09603
337.03703
337.03593
336.97536
336.97385
336.9119
336.91015
336.847
336.84516
336.78097
336.77915
336.71407
336.71238
336.64651
336.64504
336.5785
336.57732
336.5102
336.50936
336.44175
336.44132
336.37328
337.50856
337.48466
337.50702
337.48124
337.50228
337.47476
337.4943
337.46489
337.48285
337.45136
337.46755
337.43366
337.44781
337.41122
337.42318
337.38369
337.39343
337.35104
337.35866
337.31344
337.31914
337.27126
337.27529
337.22496
337.22758
337.17502
337.1765
337.12194
337.1225
337.06616
337.06604
337.00811
337.0075
336.94817
336.94723
336.88667
336.88554
336.82392
336.82271
336.76016
336.75898
336.69562
336.69456
336.63051
336.62963
336.56498
336.56435
336.49919
336.49886
336.43327
337.50664
337.48354
337.50545
337.48042
337.50085
337.47387
337.49265
337.46373
337.481
337.45018
337.46591
337.43301
337.44704
337.41178
337.42394
337.38614
337.39636
337.35592
337.36424
337.32119
337.32774
337.2822
337.28716
337.23928
337.24288
337.19284
337.19528
337.14328
337.14479
337.09102
337.09179
337.03644
337.03665
336.97989
336.97968
336.92169
336.92121
336.86212
336.86148
336.80144
336.80073
336.73987
336.73918
336.67761
336.67702
336.61483
336.61439
336.55169
336.55145
336.48832
337.50464
337.48228
337.50365
337.47925
337.49894
337.47237
337.49025
337.4617
337.47814
337.44787
337.46301
337.43095
337.44469
337.41062
337.42281
337.38652
337.39704
337.35841
337.36724
337.32623
337.33345
337.29011
337.29585
337.2503
337.25473
337.2071
337.21039
337.16086
337.1632
337.11193
337.11349
337.06066
337.0616
337.00736
337.00783
336.95234
336.95245
336.89587
336.89574
336.83819
336.83792
336.77953
336.77919
336.72008
336.71975
336.66001
336.65975
336.59949
336.59935
336.53865
337.50257
337.4809
337.50163
337.47774
337.49653
337.47021
337.48707
337.45878
337.47427
337.44444
337.45886
337.42754
337.44086
337.40785
337.41992
337.38501
337.39567
337.3587
337.36789
337.32877
337.33652
337.29526
337.30163
337.25829
337.26342
337.2181
337.22212
337.17497
337.17803
337.12918
337.13144
337.08105
337.08265
337.03087
337.03194
336.97892
336.97957
336.92544
336.92578
336.87069
336.87081
336.81486
336.81485
336.75817
336.75809
336.70078
336.70068
336.64285
336.64279
336.58452
337.50042
337.47941
337.4994
337.47584
337.49358
337.46737
337.48307
337.45492
337.46938
337.43989
337.45351
337.42282
337.43561
337.40356
337.41537
337.38174
337.3924
337.35697
337.36639
337.32904
337.33717
337.29787
337.30475
337.26351
337.26921
337.2261
337.23074
337.18587
337.18956
337.14305
337.14592
337.09791
337.10009
337.05071
337.05231
337.00169
337.00283
336.95111
336.95188
336.89919
336.89967
336.84614
336.84642
336.79214
336.79228
336.73738
336.73744
336.68201
336.68202
336.62617
337.49817
337.47779
337.49691
337.47353
337.49003
337.46378
337.47819
337.45009
337.46341
337.43421
337.44694
337.41682
337.42899
337.39783
337.40929
337.37682
337.38738
337.35339
337.3629
337.32723
337.33562
337.29817
337.30542
337.26619
337.27235
337.23136
337.2365
337.19384
337.19805
337.15381
337.1572
337.1115
337.11417
337.06713
337.0692
337.02094
337.0225
336.97315
336.97429
336.92398
336.92478
336.87362
336.87415
336.82226
336.82259
336.77007
336.77026
336.71721
336.71729
336.66383
337.4958
337.47604
337.49414
337.47073
337.48581
337.45935
337.47236
337.44422
337.45635
337.42738
337.43916
337.40957
337.42105
337.39071
337.40173
337.37037
337.38073
337.34809
337.3576
337.3235
337.33204
337.29635
337.30387
337.26655
337.27306
337.23411
337.23965
337.19911
337.20375
337.1617
337.16553
337.12207
337.12517
337.0804
337.08287
337.03692
337.03884
336.99181
336.99327
336.94529
336.94637
336.89755
336.89831
336.84876
336.84927
336.79909
336.7994
336.74871
336.74885
336.69774
337.4933
337.47412
337.491
337.46735
337.48081
337.454
337.46549
337.43725
337.44813
337.41937
337.43016
337.40107
337.41183
337.38227
337.39279
337.36248
337.37255
337.34121
337.35061
337.31801
337.3266
337.2926
337.30029
337.2648
337.27156
337.23456
337.24041
337.20192
337.2069
337.16697
337.17115
337.12987
337.13332
337.09077
337.09357
337.04987
337.0521
337.00734
337.00908
336.96339
336.9647
336.91818
336.91914
336.87189
336.87256
336.82469
336.8251
336.77673
336.77693
336.72815
337.49066
337.47199
337.48743
337.46329
337.47491
337.44762
337.4575
337.42912
337.43871
337.41015
337.41994
337.39135
337.40134
337.37254
337.38253
337.35323
337.36295
337.33285
337.34207
337.31091
337.31947
337.28708
337.29484
337.26111
337.26804
337.23291
337.23899
337.20247
337.20771
337.16984
337.17429
337.13512
337.13886
337.09847
337.10154
337.06003
337.06252
337.01999
337.02195
336.9785
336.98002
336.93575
336.93688
336.8919
336.89269
336.8471
336.8476
336.80152
336.80176
336.75528
337.48784
337.4696
337.4833
337.4584
337.46799
337.44009
337.44831
337.41976
337.42805
337.3997
337.40849
337.3804
337.38963
337.36159
337.37101
337.3427
337.35202
337.32312
337.33211
337.30233
337.31078
337.27994
337.28771
337.25567
337.26268
337.22936
337.23558
337.20097
337.2064
337.17051
337.17518
337.13805
337.142
337.10372
337.10701
337.06763
337.07033
337.02996
337.03212
336.99086
336.99254
336.95049
336.95175
336.909
336.9099
336.86656
336.86713
336.8233
336.82357
336.77936
337.48481
337.46685
337.47847
337.45254
337.4599
337.43131
337.43781
337.4091
337.41611
337.388
337.3958
337.36826
337.37671
337.34945
337.35828
337.33095
337.33985
337.31212
337.32081
337.29239
337.30067
337.27133
337.27903
337.24862
337.25564
337.22408
337.23037
337.1976
337.20315
337.16918
337.17399
337.13886
337.14297
337.10672
337.11018
337.07289
337.07574
337.0375
337.0398
337.00069
337.0025
336.96262
336.96399
336.92343