/*--------------------------------*- C++ -*----------------------------------*\
| =========                 |                                                 |
| \\      /  F ield         | OpenFOAM: The Open Source CFD Toolbox           |
|  \\    /   O peration     | Version:  2312                                  |
|   \\  /    A nd           | Website:  www.openfoam.com                      |
|    \\/     M anipulation  |                                                 |
\*---------------------------------------------------------------------------*/
FoamFile
{
    version     2.0;
    format      ascii;
    arch        "LSB;label=32;scalar=64";
    class       volScalarField;
    location    "10";
    object      p;
}
// * * * * * * * * * * * * * * * * * * * * * * * * * * * * * * * * * * * * * //

dimensions      [0 2 -2 0 0 0 0];

internalField   nonuniform List<scalar> 
4000
(
32.455936
30.963091
30.339655
29.322681
28.886581
27.995436
27.578035
26.732014
26.297832
25.478352
25.023394
24.225304
23.750908
22.971467
22.47972
21.716704
21.209573
20.461058
19.940315
19.204607
18.671837
17.94743
17.404054
16.689601
16.136892
15.431186
14.870287
14.172243
13.604185
12.912825
12.338534
11.652977
11.073293
10.392741
9.8084219
9.1321517
8.5438893
7.8712392
7.2796664
6.6100295
6.0157298
5.348544
4.7520598
4.0868004
3.4886409
2.8248122
2.2254611
1.5625879
0.96250821
0.3001276
32.446989
30.961298
30.340133
29.322671
28.88657
27.99545
27.57803
26.732023
26.297825
25.47836
25.023387
24.225311
23.750902
22.971472
22.479715
21.716709
21.209568
20.461063
19.94031
19.204611
18.671833
17.947434
17.40405
16.689604
16.136889
15.431189
14.870285
14.172245
13.604182
12.912827
12.338532
11.652979
11.073291
10.392743
9.8084201
9.1321534
8.5438876
7.8712408
7.2796649
6.6100309
6.0157283
5.3485454
4.7520584
4.0868017
3.4886396
2.8248135
2.2254598
1.5625891
0.96250691
0.3001298
32.424724
30.959881
30.340967
29.322609
28.886576
27.995457
27.578038
26.732022
26.297827
25.478358
25.023389
24.22531
23.750903
22.971471
22.479716
21.716708
21.209569
20.461062
19.940311
19.20461
18.671834
17.947433
17.404051
16.689604
16.136889
15.431188
14.870285
14.172245
13.604183
12.912827
12.338532
11.652979
11.073291
10.392743
9.8084205
9.1321531
8.5438879
7.8712405
7.2796652
6.6100307
6.0157286
5.3485452
4.7520587
4.0868015
3.4886399
2.8248132
2.22546
1.5625889
0.96250701
0.30013053
32.407542
30.958547
30.341844
29.322517
28.886583
27.995462
27.57805
26.732018
26.297832
25.478354
25.023393
24.225306
23.750907
22.971468
22.479719
21.716705
21.209572
20.461059
19.940314
19.204608
18.671836
17.947431
17.404053
16.689602
16.136891
15.431186
14.870287
14.172243
13.604184
12.912825
12.338534
11.652978
11.073292
10.392742
9.8084216
9.1321521
8.5438889
7.8712395
7.2796661
6.6100298
6.0157295
5.3485443
4.7520595
4.0868007
3.4886407
2.8248125
2.2254608
1.5625881
0.96250766
0.30013063
32.38473
30.956278
30.342647
29.3224
28.886588
27.995468
27.578058
26.732014
26.297836
25.47835
25.023396
24.225303
23.75091
22.971465
22.479722
21.716702
21.209574
20.461057
19.940316
19.204606
18.671838
17.947429
17.404055
16.6896
16.136893
15.431185
14.870288
14.172242
13.604185
12.912824
12.338535
11.652977
11.073293
10.392741
9.8084225
9.1321512
8.5438898
7.8712387
7.2796669
6.610029
6.0157302
5.3485436
4.7520602
4.0868
3.4886414
2.8248118
2.2254615
1.5625874
0.96250828
0.30013066
32.370397
30.954994
30.343391
29.322245
28.886595
27.995475
27.578065
26.73201
26.297839
25.478347
25.023399
24.2253
23.750913
22.971463
22.479724
21.7167
21.209576
20.461055
19.940318
19.204604
18.67184
17.947428
17.404056
16.689599
16.136894
15.431184
14.870289
14.172241
13.604186
12.912823
12.338536
11.652976
11.073294
10.39274
9.8084233
9.1321505
8.5438905
7.871238
7.2796676
6.6100284
6.0157308
5.348543
4.7520608
4.0867994
3.4886419
2.8248113
2.225462
1.5625868
0.9625088
0.30013072
32.354981
30.952994
30.343928
29.322099
28.886617
27.995484
27.578071
26.732007
26.297841
25.478344
25.023401
24.225298
23.750914
22.971461
22.479726
21.716698
21.209578
20.461053
19.940319
19.204603
18.671841
17.947427
17.404057
16.689598
16.136895
15.431183
14.87029
14.17224
13.604187
12.912822
12.338537
11.652975
11.073295
10.392739
9.8084239
9.1321499
8.543891
7.8712375
7.2796681
6.6100279
6.0157313
5.3485425
4.7520613
4.0867989
3.4886424
2.8248108
2.2254624
1.5625863
0.96250926
0.30013077
32.33759
30.952004
30.343936
29.322158
28.886683
27.9955
27.578078
26.732004
26.297843
25.478342
25.023403
24.225296
23.750916
22.971459
22.479727
21.716697
21.209579
20.461052
19.94032
19.204602
18.671842
17.947426
17.404058
16.689597
16.136896
15.431182
14.870291
14.17224
13.604188
12.912822
12.338537
11.652975
11.073295
10.392739
9.8084244
9.1321494
8.5438915
7.871237
7.2796685
6.6100274
6.0157318
5.3485421
4.7520617
4.0867985
3.4886427
2.8248104
2.2254628
1.5625859
0.96250969
0.30013081
32.320682
30.950141
30.343139
29.322525
28.886783
27.995519
27.578084
26.732001
26.297845
25.478339
25.023404
24.225294
23.750918
22.971458
22.479729
21.716696
21.20958
20.461051
19.940321
19.204601
18.671843
17.947425
17.404059
16.689596
16.136897
15.431181
14.870292
14.172239
13.604189
12.912821
12.338538
11.652974
11.073296
10.392738
9.8084249
9.1321489
8.543892
7.8712366
7.2796689
6.610027
6.0157321
5.3485417
4.752062
4.0867982
3.4886431
2.8248101
2.2254631
1.5625855
0.96251009
0.30013083
32.301661
30.948545
30.342652
29.322829
28.886835
27.995527
27.578086
26.731997
26.297846
25.478337
25.023406
24.225293
23.750919
22.971457
22.47973
21.716695
21.209581
20.46105
19.940322
19.2046
18.671844
17.947424
17.40406
16.689595
16.136897
15.431181
14.870292
14.172238
13.604189
12.912821
12.338538
11.652974
11.073296
10.392738
9.8084253
9.1321485
8.5438923
7.8712362
7.2796693
6.6100267
6.0157325
5.3485414
4.7520624
4.0867979
3.4886434
2.8248098
2.2254634
1.5625851
0.96251046
0.30013083
32.29043
30.945897
30.343003
29.322639
28.886788
27.995511
27.57808
26.731991
26.297846
25.478335
25.023407
24.225291
23.75092
22.971455
22.479731
21.716694
21.209582
20.461049
19.940323
19.204599
18.671845
17.947423
17.404061
16.689595
16.136898
15.43118
14.870293
14.172238
13.60419
12.91282
12.338539
11.652973
11.073297
10.392737
9.8084257
9.1321482
8.5438927
7.8712359
7.2796696
6.6100264
6.0157328
5.3485411
4.7520626
4.0867976
3.4886437
2.8248095
2.2254637
1.5625848
0.96251082
0.30013083
32.276174
30.943694
30.343395
29.322024
28.886673
27.995471
27.578066
26.731982
26.297845
25.478333
25.023408
24.22529
23.750921
22.971454
22.479732
21.716693
21.209583
20.461048
19.940324
19.204598
18.671845
17.947423
17.404061
16.689594
16.136898
15.43118
14.870293
14.172237
13.60419
12.91282
12.338539
11.652973
11.073297
10.392737
9.808426
9.1321478
8.543893
7.8712356
7.2796699
6.6100261
6.015733
5.3485408
4.7520629
4.0867973
3.4886439
2.8248092
2.2254639
1.5625846
0.96251116
0.30013081
32.265637
30.941188
30.343059
29.321438
28.886563
27.995426
27.578048
26.731973
26.297843
25.47833
25.023408
24.225289
23.750922
22.971453
22.479733
21.716692
21.209584
20.461048
19.940325
19.204598
18.671846
17.947422
17.404062
16.689594
16.136899
15.431179
14.870294
14.172237
13.60419
12.912819
12.338539
11.652972
11.073297
10.392737
9.8084263
9.1321475
8.5438933
7.8712353
7.2796702
6.6100258
6.0157333
5.3485406
4.7520631
4.0867971
3.4886442
2.824809
2.2254642
1.5625843
0.96251147
0.30013079
32.253076
30.938666
30.342118
29.321172
28.886509
27.995393
27.578035
26.731964
26.297841
25.478328
25.023409
24.225287
23.750923
22.971453
22.479733
21.716691
21.209585
20.461047
19.940325
19.204597
18.671846
17.947421
17.404062
16.689593
16.136899
15.431179
14.870294
14.172236
13.604191
12.912819
12.33854
11.652972
11.073298
10.392736
9.8084266
9.1321473
8.5438935
7.8712351
7.2796704
6.6100256
6.0157335
5.3485404
4.7520634
4.0867969
3.4886444
2.8248088
2.2254644
1.5625841
0.96251178
0.30013076
32.244348
30.935817
30.340547
29.321172
28.886489
27.99537
27.578023
26.731957
26.29784
25.478326
25.023409
24.225286
23.750924
22.971452
22.479734
21.71669
21.209585
20.461046
19.940326
19.204597
18.671847
17.947421
17.404063
16.689593
16.1369
15.431178
14.870295
14.172236
13.604191
12.912819
12.33854
11.652972
11.073298
10.392736
9.8084268
9.132147
8.5438938
7.8712348
7.2796706
6.6100254
6.0157337
5.3485402
4.7520635
4.0867967
3.4886446
2.8248086
2.2254645
1.5625839
0.96251207
0.30013073
32.234169
30.932997
30.338845
29.321172
28.886429
27.995337
27.578007
26.731947
26.297837
25.478323
25.023409
24.225285
23.750924
22.971451
22.479735
21.71669
21.209586
20.461046
19.940326
19.204596
18.671847
17.94742
17.404063
16.689592
16.1369
15.431178
14.870295
14.172236
13.604191
12.912818
12.33854
11.652971
11.073298
10.392736
9.8084271
9.1321468
8.543894
7.8712346
7.2796708
6.6100252
6.0157339
5.34854
4.7520637
4.0867965
3.4886447
2.8248084
2.2254647
1.5625837
0.96251234
0.30013069
32.226901
30.930033
30.337392
29.320917
28.886267
27.99528
27.57798
26.731934
26.297832
25.47832
25.023409
24.225284
23.750925
22.97145
22.479735
21.716689
21.209587
20.461045
19.940327
19.204596
18.671848
17.94742
17.404064
16.689592
16.136901
15.431178
14.870295
14.172235
13.604192
12.912818
12.338541
11.652971
11.073298
10.392736
9.8084273
9.1321466
8.5438942
7.8712345
7.279671
6.610025
6.0157341
5.3485398
4.7520639
4.0867964
3.4886449
2.8248083
2.2254648
1.5625835
0.9625126
0.30013065
32.218547
30.927035
30.336492
29.320388
28.886017
27.995206
27.577946
26.731918
26.297827
25.478316
25.023408
24.225283
23.750925
22.971449
22.479736
21.716688
21.209587
20.461045
19.940327
19.204595
18.671848
17.94742
17.404064
16.689592
16.136901
15.431177
14.870296
14.172235
13.604192
12.912818
12.338541
11.652971
11.073299
10.392735
9.8084275
9.1321464
8.5438944
7.8712343
7.2796712
6.6100249
6.0157342
5.3485397
4.752064
4.0867962
3.488645
2.8248081
2.225465
1.5625834
0.96251285
0.3001306
32.212528
30.924195
30.335769
29.319804
28.885768
27.995137
27.577913
26.731905
26.297822
25.478313
25.023408
24.225282
23.750925
22.971449
22.479736
21.716688
21.209587
20.461044
19.940328
19.204595
18.671849
17.947419
17.404064
16.689591
16.136901
15.431177
14.870296
14.172235
13.604192
12.912818
12.338541
11.652971
11.073299
10.392735
9.8084276
9.1321462
8.5438945
7.8712341
7.2796713
6.6100247
6.0157344
5.3485395
4.7520642
4.0867961
3.4886452
2.824808
2.2254651
1.5625832
0.96251308
0.30013056
32.205861
30.921483
30.334999
29.319344
28.885582
27.995085
27.577889
26.731898
26.297818
25.478311
25.023407
24.225281
23.750926
22.971448
22.479737
21.716687
21.209588
20.461044
19.940328
19.204594
18.671849
17.947419
17.404065
16.689591
16.136901
15.431177
14.870296
14.172235
13.604192
12.912817
12.338541
11.652971
11.073299
10.392735
9.8084278
9.1321461
8.5438947
7.871234
7.2796715
6.6100246
6.0157345
5.3485394
4.7520643
4.086796
3.4886453
2.8248079
2.2254652
1.5625831
0.96251331
0.30013051
32.200957
30.919174
30.334057
29.318989
28.885449
27.995048
27.577871
26.731895
26.297817
25.478309
25.023407
24.22528
23.750926
22.971447
22.479737
21.716687
21.209588
20.461043
19.940328
19.204594
18.671849
17.947419
17.404065
16.689591
16.136902
15.431176
14.870296
14.172235
13.604193
12.912817
12.338541
11.65297
11.073299
10.392735
9.808428
9.1321459
8.5438948
7.8712338
7.2796716
6.6100244
6.0157346
5.3485393
4.7520644
4.0867958
3.4886454
2.8248078
2.2254653
1.562583
0.96251352
0.30013047
32.195741
30.916908
30.333131
29.318681
28.885343
27.995018
27.577856
26.731896
26.297816
25.478308
25.023407
24.225279
23.750926
22.971447
22.479737
21.716687
21.209589
20.461043
19.940329
19.204594
18.67185
17.947418
17.404065
16.689591
16.136902
15.431176
14.870296
14.172234
13.604193
12.912817
12.338542
11.65297
11.073299
10.392735
9.8084281
9.1321458
8.5438949
7.8712337
7.2796717
6.6100243
6.0157348
5.3485392
4.7520645
4.0867957
3.4886455
2.8248077
2.2254654
1.5625829
0.96251372
0.30013042
32.191757
30.915067
30.33222
29.318391
28.885249
27.994992
27.577841
26.731898
26.297816
25.478307
25.023408
24.225278
23.750926
22.971446
22.479738
21.716686
21.209589
20.461043
19.940329
19.204593
18.67185
17.947418
17.404065
16.68959
16.136902
15.431176
14.870297
14.172234
13.604193
12.912817
12.338542
11.65297
11.0733
10.392735
9.8084282
9.1321457
8.5438951
7.8712336
7.2796718
6.6100242
6.0157349
5.3485391
4.7520646
4.0867956
3.4886456
2.8248076
2.2254655
1.5625828
0.96251391
0.30013037
32.187741
30.913152
30.331421
29.318127
28.885163
27.99497
27.577825
26.731901
26.297817
25.478307
25.023408
24.225278
23.750927
22.971446
22.479738
21.716686
21.209589
20.461042
19.940329
19.204593
18.67185
17.947418
17.404066
16.68959
16.136902
15.431176
14.870297
14.172234
13.604193
12.912817
12.338542
11.65297
11.0733
10.392735
9.8084284
9.1321456
8.5438952
7.8712335
7.2796719
6.6100241
6.015735
5.348539
4.7520647
4.0867956
3.4886457
2.8248075
2.2254656
1.5625827
0.96251408
0.30013033
32.184493
30.911711
30.330676
29.317889
28.885088
27.99495
27.577809
26.731904
26.297818
25.478307
25.023408
24.225277
23.750927
22.971446
22.479738
21.716685
21.209589
20.461042
19.940329
19.204593
18.67185
17.947418
17.404066
16.68959
16.136903
15.431176
14.870297
14.172234
13.604193
12.912816
12.338542
11.65297
11.0733
10.392734
9.8084285
9.1321455
8.5438953
7.8712334
7.279672
6.610024
6.015735
5.3485389
4.7520648
4.0867955
3.4886458
2.8248074
2.2254657
1.5625827
0.96251425
0.30013028
32.181455
30.910125
30.330036
29.317684
28.885024
27.994933
27.577794
26.731906
26.297819
25.478307
25.023409
24.225277
23.750927
22.971445
22.479738
21.716685
21.20959
20.461042
19.94033
19.204593
18.671851
17.947417
17.404066
16.68959
16.136903
15.431176
14.870297
14.172234
13.604193
12.912816
12.338542
11.65297
11.0733
10.392734
9.8084286
9.1321454
8.5438954
7.8712333
7.2796721
6.6100239
6.0157351
5.3485388
4.7520649
4.0867954
3.4886459
2.8248073
2.2254657
1.5625826
0.96251441
0.30013024
32.178782
30.909056
30.329455
29.317506
28.884971
27.99492
27.577781
26.731908
26.29782
25.478308
25.023409
24.225277
23.750927
22.971445
22.479739
21.716685
21.20959
20.461042
19.94033
19.204593
18.671851
17.947417
17.404066
16.68959
16.136903
15.431175
14.870297
14.172234
13.604194
12.912816
12.338542
11.65297
11.0733
10.392734
9.8084287
9.1321453
8.5438955
7.8712332
7.2796722
6.6100239
6.0157352
5.3485387
4.752065
4.0867953
3.4886459
2.8248072
2.2254658
1.5625825
0.96251455
0.3001302
32.176546
30.907774
30.328965
29.317359
28.884928
27.99491
27.577771
26.731909
26.29782
25.47831
25.02341
24.225277
23.750928
22.971444
22.479739
21.716685
21.20959
20.461041
19.94033
19.204592
18.671851
17.947417
17.404066
16.689589
16.136903
15.431175
14.870297
14.172233
13.604194
12.912816
12.338542
11.65297
11.0733
10.392734
9.8084288
9.1321452
8.5438955
7.8712331
7.2796723
6.6100238
6.0157353
5.3485387
4.752065
4.0867953
3.488646
2.8248072
2.2254659
1.5625825
0.96251468
0.30013016
32.174285
30.907021
30.328537
29.317235
28.884895
27.994903
27.577763
26.73191
26.29782
25.478312
25.023411
24.225277
23.750928
22.971444
22.479739
21.716684
21.20959
20.461041
19.94033
19.204592
18.671851
17.947417
17.404066
16.689589
16.136903
15.431175
14.870298
14.172233
13.604194
12.912816
12.338542
11.652969
11.0733
10.392734
9.8084288
9.1321451
8.5438956
7.8712331
7.2796723
6.6100237
6.0157353
5.3485386
4.7520651
4.0867952
3.488646
2.8248071
2.2254659
1.5625825
0.9625148
0.30013013
32.172768
30.906
30.32818
29.317137
28.88487
27.994898
27.577756
26.731912
26.297819
25.478314
25.023412
24.225277
23.750928
22.971444
22.479739
21.716684
21.20959
20.461041
19.94033
19.204592
18.671851
17.947417
17.404067
16.689589
16.136903
15.431175
14.870298
14.172233
13.604194
12.912816
12.338543
11.652969
11.0733
10.392734
9.8084289
9.132145
8.5438957
7.871233
7.2796724
6.6100237
6.0157354
5.3485386
4.7520651
4.0867951
3.4886461
2.8248071
2.225466
1.5625824
0.96251491
0.3001301
32.170734
30.905463
30.327879
29.317059
28.884853
27.994895
27.577751
26.731914
26.297817
25.478316
25.023413
24.225277
23.750928
22.971444
22.479739
21.716684
21.209591
20.461041
19.940331
19.204592
18.671851
17.947417
17.404067
16.689589
16.136903
15.431175
14.870298
14.172233
13.604194
12.912816
12.338543
11.652969
11.0733
10.392734
9.808429
9.132145
8.5438957
7.8712329
7.2796725
6.6100236
6.0157354
5.3485385
4.7520652
4.0867951
3.4886461
2.824807
2.225466
1.5625824
0.96251501
0.30013007
32.169749
30.904683
30.327641
29.317004
28.884844
27.994895
27.577748
26.731916
26.297815
25.478318
25.023413
24.225277
23.750929
22.971443
22.479739
21.716684
21.209591
20.461041
19.940331
19.204592
18.671851
17.947417
17.404067
16.689589
16.136903
15.431175
14.870298
14.172233
13.604194
12.912816
12.338543
11.652969
11.0733
10.392734
9.808429
9.1321449
8.5438958
7.8712329
7.2796725
6.6100236
6.0157355
5.3485385
4.7520652
4.0867951
3.4886462
2.824807
2.225466
1.5625824
0.96251509
0.30013004
32.168007
30.904331
30.327456
29.316966
28.884841
27.994897
27.577747
26.731918
26.297813
25.47832
25.023414
24.225277
23.750929
22.971443
22.479739
21.716683
21.209591
20.46104
19.940331
19.204592
18.671852
17.947416
17.404067
16.689589
16.136903
15.431175
14.870298
14.172233
13.604194
12.912816
12.338543
11.652969
11.0733
10.392734
9.8084291
9.1321449
8.5438958
7.8712329
7.2796726
6.6100235
6.0157355
5.3485384
4.7520653
4.086795
3.4886462
2.8248069
2.2254661
1.5625823
0.96251516
0.30013002
32.167356
30.903767
30.327328
29.31695
28.884845
27.994901
27.577746
26.731921
26.297811
25.478322
25.023415
24.225277
23.750929
22.971443
22.47974
21.716683
21.209591
20.46104
19.940331
19.204591
18.671852
17.947416
17.404067
16.689589
16.136904
15.431175
14.870298
14.172233
13.604194
12.912816
12.338543
11.652969
11.0733
10.392734
9.8084291
9.1321448
8.5438959
7.8712328
7.2796726
6.6100235
6.0157356
5.3485384
4.7520653
4.086795
3.4886462
2.8248069
2.2254661
1.5625823
0.96251521
0.30013001
32.166026
30.903595
30.327244
29.316947
28.884854
27.994907
27.577747
26.731923
26.29781
25.478324
25.023416
24.225277
23.750929
22.971443
22.47974
21.716683
21.209591
20.46104
19.940331
19.204591
18.671852
17.947416
17.404067
16.689589
16.136904
15.431175
14.870298
14.172233
13.604194
12.912816
12.338543
11.652969
11.073301
10.392734
9.8084292
9.1321448
8.5438959
7.8712328
7.2796726
6.6100235
6.0157356
5.3485384
4.7520653
4.086795
3.4886463
2.8248069
2.2254661
1.5625823
0.96251524
0.30013
32.165701
30.903193
30.327199
29.316957
28.884866
27.994914
27.577749
26.731926
26.297809
25.478324
25.023417
24.225278
23.75093
22.971443
22.47974
21.716683
21.209591
20.46104
19.940331
19.204591
18.671852
17.947416
17.404067
16.689589
16.136904
15.431175
14.870298
14.172233
13.604194
12.912816
12.338543
11.652969
11.073301
10.392734
9.8084292
9.1321448
8.5438959
7.8712328
7.2796726
6.6100234
6.0157356
5.3485383
4.7520653
4.0867949
3.4886463
2.8248069
2.2254661
1.5625823
0.96251525
0.30012999
32.164755
30.903144
30.32718
29.316972
28.88488
27.994921
27.577751
26.731928
26.297808
25.478325
25.023418
24.225278
23.75093
22.971443
22.47974
21.716683
21.209591
20.46104
19.940331
19.204591
18.671852
17.947416
17.404067
16.689589
16.136904
15.431174
14.870298
14.172233
13.604194
12.912816
12.338543
11.652969
11.073301
10.392734
9.8084292
9.1321447
8.543896
7.8712327
7.2796727
6.6100234
6.0157356
5.3485383
4.7520654
4.0867949
3.4886463
2.8248069
2.2254661
1.5625823
0.96251524
0.30013
32.164767
30.902842
30.327178
29.316991
28.884893
27.994927
27.577753
26.73193
26.297808
25.478325
25.023419
24.225278
23.75093
22.971443
22.47974
21.716683
21.209591
20.46104
19.940331
19.204591
18.671852
17.947416
17.404067
16.689589
16.136904
15.431174
14.870298
14.172233
13.604194
12.912816
12.338543
11.652969
11.073301
10.392734
9.8084292
9.1321447
8.543896
7.8712327
7.2796727
6.6100234
6.0157356
5.3485383
4.7520654
4.0867949
3.4886463
2.8248069
2.2254661
1.5625823
0.9625152
0.30013002
32.164161
30.902882
30.327183
29.317006
28.884904
27.994932
27.577755
26.731931
26.297808
25.478325
25.023419
24.225279
23.75093
22.971443
22.47974
21.716683
21.209591
20.46104
19.940331
19.204591
18.671852
17.947416
17.404067
16.689589
16.136904
15.431174
14.870298
14.172233
13.604194
12.912816
12.338543
11.652969
11.073301
10.392734
9.8084292
9.1321447
8.543896
7.8712327
7.2796727
6.6100234
6.0157356
5.3485383
4.7520654
4.0867949
3.4886463
2.8248069
2.2254661
1.5625823
0.96251515
0.30013004
32.164454
30.902683
30.327185
29.317017
28.88491
27.994935
27.577756
26.731932
26.297808
25.478325
25.023419
24.225279
23.75093
22.971443
22.47974
21.716683
21.209591
20.46104
19.940331
19.204591
18.671852
17.947416
17.404067
16.689589
16.136904
15.431174
14.870298
14.172233
13.604194
12.912816
12.338543
11.652969
11.073301
10.392734
9.8084292
9.1321447
8.543896
7.8712327
7.2796727
6.6100234
6.0157356
5.3485383
4.7520653
4.086795
3.4886463
2.8248069
2.2254661
1.5625824
0.96251511
0.30013006
32.16409
30.902808
30.327184
29.317016
28.88491
27.994935
27.577756
26.731932
26.297808
25.478325
25.023419
24.225279
23.75093
22.971443
22.47974
21.716683
21.209591
20.46104
19.940331
19.204591
18.671852
17.947416
17.404067
16.689589
16.136904
15.431174
14.870298
14.172233
13.604194
12.912816
12.338543
11.652969
11.073301
10.392734
9.8084292
9.1321447
8.543896
7.8712327
7.2796727
6.6100234
6.0157356
5.3485383
4.7520653
4.086795
3.4886463
2.8248069
2.2254661
1.5625824
0.96251511
0.30013006
32.164611
30.902679
30.327176
29.317007
28.884904
27.994932
27.577755
26.731931
26.297808
25.478325
25.023419
24.225279
23.75093
22.971443
22.47974
21.716683
21.209591
20.46104
19.940331
19.204591
18.671852
17.947416
17.404067
16.689589
16.136904
15.431174
14.870298
14.172233
13.604194
12.912816
12.338543
11.652969
11.073301
10.392734
9.8084292
9.1321447
8.543896
7.8712327
7.2796727
6.6100234
6.0157356
5.3485383
4.7520654
4.0867949
3.4886463
2.8248069
2.2254661
1.5625823
0.96251515
0.30013004
32.164477
30.902897
30.327168
29.316991
28.884894
27.994927
27.577753
26.73193
26.297808
25.478325
25.023419
24.225278
23.75093
22.971443
22.47974
21.716683
21.209591
20.46104
19.940331
19.204591
18.671852
17.947416
17.404067
16.689589
16.136904
15.431174
14.870298
14.172233
13.604194
12.912816
12.338543
11.652969
11.073301
10.392734
9.8084292
9.1321447
8.543896
7.8712327
7.2796727
6.6100234
6.0157356
5.3485383
4.7520654
4.0867949
3.4886463
2.8248069
2.2254661
1.5625823
0.9625152
0.30013002
32.165284
30.902875
30.327165
29.316974
28.884881
27.994921
27.57775
26.731928
26.297808
25.478325
25.023418
24.225278
23.75093
22.971443
22.47974
21.716683
21.209591
20.46104
19.940331
19.204591
18.671852
17.947416
17.404067
16.689589
16.136904
15.431174
14.870298
14.172233
13.604194
12.912816
12.338543
11.652969
11.073301
10.392734
9.8084292
9.1321447
8.543896
7.8712327
7.2796727
6.6100234
6.0157356
5.3485383
4.7520654
4.0867949
3.4886463
2.8248069
2.2254661
1.5625823
0.96251524
0.30013
32.165472
30.903185
30.327182
29.316958
28.884868
27.994914
27.577748
26.731926
26.297808
25.478324
25.023417
24.225278
23.75093
22.971443
22.47974
21.716683
21.209591
20.46104
19.940331
19.204591
18.671852
17.947416
17.404067
16.689589
16.136904
15.431175
14.870298
14.172233
13.604194
12.912816
12.338543
11.652969
11.073301
10.392734
9.8084292
9.1321448
8.5438959
7.8712328
7.2796726
6.6100234
6.0157356
5.3485383
4.7520653
4.0867949
3.4886463
2.8248069
2.2254661
1.5625823
0.96251525
0.30012999
32.166649
30.903261
30.327224
29.316951
28.884856
27.994908
27.577747
26.731923
26.29781
25.478324
25.023416
24.225277
23.750929
22.971443
22.47974
21.716683
21.209591
20.46104
19.940331
19.204591
18.671852
17.947416
17.404067
16.689589
16.136904
15.431175
14.870298
14.172233
13.604194
12.912816
12.338543
11.652969
11.073301
10.392734
9.8084292
9.1321448
8.5438959
7.8712328
7.2796726
6.6100235
6.0157356
5.3485384
4.7520653
4.086795
3.4886463
2.8248069
2.2254661
1.5625823
0.96251524
0.30013
32.167163
30.903696
30.327305
29.316954
28.884847
27.994902
27.577746
26.73192
26.297811
25.478322
25.023415
24.225277
23.750929
22.971443
22.47974
21.716683
21.209591
20.46104
19.940331
19.204591
18.671852
17.947416
17.404067
16.689589
16.136904
15.431175
14.870298
14.172233
13.604194
12.912816
12.338543
11.652969
11.0733
10.392734
9.8084291
9.1321448
8.5438959
7.8712328
7.2796726
6.6100235
6.0157356
5.3485384
4.7520653
4.086795
3.4886462
2.8248069
2.2254661
1.5625823
0.96251521
0.30013001
32.168752
30.903929
30.32743
29.316974
28.884844
27.994898
27.577747
26.731918
26.297813
25.47832
25.023414
24.225277
23.750929
22.971443
22.479739
21.716683
21.209591
20.46104
19.940331
19.204592
18.671852
17.947416
17.404067
16.689589
16.136903
15.431175
14.870298
14.172233
13.604194
12.912816
12.338543
11.652969
11.0733
10.392734
9.8084291
9.1321449
8.5438958
7.8712329
7.2796726
6.6100235
6.0157355
5.3485384
4.7520653
4.086795
3.4886462
2.8248069
2.2254661
1.5625823
0.96251516
0.30013002
32.169577
30.904552
30.327612
29.31701
28.884847
27.994896
27.577748
26.731916
26.297815
25.478318
25.023413
24.225277
23.750929
22.971443
22.479739
21.716684
21.209591
20.461041
19.940331
19.204592
18.671851
17.947417
17.404067
16.689589
16.136903
15.431175
14.870298
14.172233
13.604194
12.912816
12.338543
11.652969
11.0733
10.392734
9.808429
9.1321449
8.5438958
7.8712329
7.2796725
6.6100236
6.0157355
5.3485385
4.7520652
4.0867951
3.4886462
2.824807
2.225466
1.5625824
0.96251509
0.30013004
32.171554
30.904971
30.327848
29.317069
28.884858
27.994897
27.577752
26.731914
26.297817
25.478316
25.023413
24.225277
23.750928
22.971444
22.479739
21.716684
21.209591
20.461041
19.940331
19.204592
18.671851
17.947417
17.404067
16.689589
16.136903
15.431175
14.870298
14.172233
13.604194
12.912816
12.338543
11.652969
11.0733
10.392734
9.808429
9.132145
8.5438957
7.8712329
7.2796725
6.6100236
6.0157354
5.3485385
4.7520652
4.0867951
3.4886461
2.824807
2.225466
1.5625824
0.96251501
0.30013007
32.172763
30.905831
30.328147
29.317147
28.884875
27.9949
27.577756
26.731912
26.297819
25.478314
25.023412
24.225277
23.750928
22.971444
22.479739
21.716684
21.20959
20.461041
19.94033
19.204592
18.671851
17.947417
17.404067
16.689589
16.136903
15.431175
14.870298
14.172233
13.604194
12.912816
12.338543
11.652969
11.0733
10.392734
9.8084289
9.132145
8.5438957
7.871233
7.2796724
6.6100237
6.0157354
5.3485386
4.7520651
4.0867951
3.4886461
2.8248071
2.225466
1.5625824
0.96251491
0.3001301
32.174967
30.906424
30.328501
29.317249
28.8849
27.994905
27.577763
26.73191
26.297819
25.478312
25.023411
24.225277
23.750928
22.971444
22.479739
21.716684
21.20959
20.461041
19.94033
19.204592
18.671851
17.947417
17.404066
16.689589
16.136903
15.431175
14.870298
14.172233
13.604194
12.912816
12.338542
11.652969
11.0733
10.392734
9.8084288
9.1321451
8.5438956
7.8712331
7.2796723
6.6100237
6.0157353
5.3485386
4.7520651
4.0867952
3.488646
2.8248071
2.2254659
1.5625825
0.9625148
0.30013013
32.176844
30.907545
30.328924
29.317371
28.884934
27.994912
27.577771
26.731909
26.29782
25.47831
25.02341
24.225277
23.750928
22.971444
22.479739
21.716685
21.20959
20.461041
19.94033
19.204592
18.671851
17.947417
17.404066
16.689589
16.136903
15.431175
14.870297
14.172233
13.604194
12.912816
12.338542
11.65297
11.0733
10.392734
9.8084288
9.1321452
8.5438955
7.8712331
7.2796723
6.6100238
6.0157353
5.3485387
4.752065
4.0867953
3.488646
2.8248072
2.2254659
1.5625825
0.96251468
0.30013016
32.179344
30.908391
30.329417
29.317523
28.884978
27.994923
27.577782
26.731908
26.29782
25.478308
25.023409
24.225277
23.750927
22.971445
22.479739
21.716685
21.20959
20.461042
19.94033
19.204593
18.671851
17.947417
17.404066
16.68959
16.136903
15.431175
14.870297
14.172234
13.604194
12.912816
12.338542
11.65297
11.0733
10.392734
9.8084287
9.1321453
8.5438955
7.8712332
7.2796722
6.6100239
6.0157352
5.3485387
4.752065
4.0867953
3.4886459
2.8248072
2.2254658
1.5625825
0.96251455
0.3001302
32.181977
30.909803
30.329982
29.317698
28.885031
27.994936
27.577795
26.731906
26.297819
25.478307
25.023409
24.225277
23.750927
22.971445
22.479738
21.716685
21.20959
20.461042
19.94033
19.204593
18.671851
17.947417
17.404066
16.68959
16.136903
15.431176
14.870297
14.172234
13.604193
12.912816
12.338542
11.65297
11.0733
10.392734
9.8084286
9.1321454
8.5438954
7.8712333
7.2796721
6.6100239
6.0157351
5.3485388
4.7520649
4.0867954
3.4886459
2.8248073
2.2254657
1.5625826
0.96251441
0.30013024
32.18498
30.91099
30.330637
29.317908
28.885096
27.994953
27.57781
26.731904
26.297818
25.478307
25.023408
24.225277
23.750927
22.971446
22.479738
21.716685
21.209589
20.461042
19.940329
19.204593
18.67185
17.947418
17.404066
16.68959
16.136903
15.431176
14.870297
14.172234
13.604193
12.912816
12.338542
11.65297
11.0733
10.392734
9.8084285
9.1321455
8.5438953
7.8712334
7.279672
6.610024
6.015735
5.3485389
4.7520648
4.0867955
3.4886458
2.8248074
2.2254657
1.5625827
0.96251425
0.30013028
32.188499
30.912727
30.331355
29.318143
28.885171
27.994973
27.577825
26.731901
26.297817
25.478307
25.023408
24.225278
23.750927
22.971446
22.479738
21.716686
21.209589
20.461042
19.940329
19.204593
18.67185
17.947418
17.404066
16.68959
16.136902
15.431176
14.870297
14.172234
13.604193
12.912817
12.338542
11.65297
11.0733
10.392735
9.8084284
9.1321456
8.5438952
7.8712335
7.2796719
6.6100241
6.015735
5.348539
4.7520647
4.0867956
3.4886457
2.8248075
2.2254656
1.5625827
0.96251408
0.30013033
32.192156
30.914296
30.332179
29.318412
28.885257
27.994996
27.577841
26.731898
26.297816
25.478307
25.023408
24.225278
23.750926
22.971446
22.479738
21.716686
21.209589
20.461043
19.940329
19.204593
18.67185
17.947418
17.404065
16.68959
16.136902
15.431176
14.870297
14.172234
13.604193
12.912817
12.338542
11.65297
11.0733
10.392735
9.8084282
9.1321457
8.5438951
7.8712336
7.2796718
6.6100242
6.0157349
5.3485391
4.7520646
4.0867956
3.4886456
2.8248076
2.2254655
1.5625828
0.96251391
0.30013037
32.19677
30.916373
30.33305
29.318698
28.885351
27.995021
27.577857
26.731896
26.297816
25.478308
25.023407
24.225279
23.750926
22.971447
22.479737
21.716687
21.209589
20.461043
19.940329
19.204594
18.67185
17.947418
17.404065
16.689591
16.136902
15.431176
14.870296
14.172234
13.604193
12.912817
12.338542
11.65297
11.073299
10.392735
9.8084281