/*--------------------------------*- C++ -*----------------------------------*\
| =========                 |                                                 |
| \\      /  F ield         | OpenFOAM: The Open Source CFD Toolbox           |
|  \\    /   O peration     | Version:  2312                                  |
|   \\  /    A nd           | Website:  www.openfoam.com                      |
|    \\/     M anipulation  |                                                 |
\*---------------------------------------------------------------------------*/
FoamFile
{
    version     2.0;
    format      ascii;
    arch        "LSB;label=32;scalar=64";
    class       surfaceScalarField;
    location    "10";
    object      phi_0;
}
// * * * * * * * * * * * * * * * * * * * * * * * * * * * * * * * * * * * * * //

dimensions      [0 3 -1 0 0 0 0];

oriented        oriented;

internalField   nonuniform List<scalar> 
7870
(
1.3030362e-10
2.8179464e-09
1.3356325e-10
-3.259623e-12
1.1283832e-10
2.0724934e-11
1.1393658e-10
-1.0982598e-12
1.1435218e-10
-4.155901e-13
1.1287792e-10
1.4742623e-12
1.1380211e-10
-9.2419149e-13
1.1265186e-10
1.1502498e-12
1.1369129e-10
-1.0394376e-12
1.12673e-10
1.0182952e-12
1.1362848e-10
-9.5547926e-13
1.1271891e-10
9.0957091e-13
1.1357415e-10
-8.5524376e-13
1.1276484e-10
8.093098e-13
1.1352687e-10
-7.6203415e-13
1.1280719e-10
7.1967892e-13
1.1348564e-10
-6.7844596e-13
1.1284518e-10
6.4045643e-13
1.1344944e-10
-6.0425303e-13
1.1287891e-10
5.705274e-13
1.1341757e-10
-5.3865618e-13
1.129087e-10
5.0886352e-13
1.1338952e-10
-4.8081645e-13
1.1293493e-10
4.5459007e-13
1.1336489e-10
-4.2995762e-13
1.1295794e-10
4.0694786e-13
1.1334332e-10
-3.8537955e-13
1.1297805e-10
3.6526748e-13
1.1332451e-10
-3.4645599e-13
1.1299555e-10
3.2895579e-13
1.1330818e-10
-3.1263011e-13
1.1301069e-10
2.974884e-13
1.132941e-10
-2.8341029e-13
1.130237e-10
2.7040462e-13
1.1328206e-10
-2.583663e-13
1.1303476e-10
2.4730353e-13
1.1327189e-10
-2.3712572e-13
1.1304405e-10
2.2784027e-13
1.1326342e-10
-2.1937048e-13
1.1305169e-10
2.117225e-13
1.1325653e-10
-2.0483353e-13
1.1305782e-10
1.9870767e-13
1.1325111e-10
-1.9329176e-13
1.130625e-10
1.8861106e-13
1.1324705e-10
-1.8455382e-13
1.1306583e-10
1.8122588e-13
1.132448e-10
-1.7897609e-13
1.1307041e-10
1.7439846e-13
1.1325277e-10
-1.8236201e-13
1.6769448e-13
3.5003298e-10
5.4161634e-09
3.8137391e-10
-3.4600536e-11
3.3021109e-10
7.1887763e-11
3.3077295e-10
-1.6601073e-12
3.309613e-10
-6.0393722e-13
3.2857175e-10
3.8638149e-12
3.2949059e-10
-1.8430361e-12
3.278119e-10
2.8289356e-12
3.2925939e-10
-2.4869267e-12
3.2779727e-10
2.4804145e-12
3.2916661e-10
-2.324814e-12
3.2785361e-10
2.2225674e-12
3.2908548e-10
-2.0871176e-12
3.2791642e-10
1.9783732e-12
3.2901559e-10
-1.8612072e-12
3.2797646e-10
1.758812e-12
3.2895547e-10
-1.6574523e-12
3.28031e-10
1.5649231e-12
3.2890302e-10
-1.4762769e-12
3.2807964e-10
1.3939151e-12
3.2885698e-10
-1.3159999e-12
3.2812267e-10
1.2431774e-12
3.288165e-10
-1.174654e-12
3.2816056e-10
1.1105323e-12
3.2878097e-10
-1.0503674e-12
3.2819381e-10
9.9410901e-13
3.2874987e-10
-9.4143495e-13
3.2822287e-10
8.9226366e-13
3.2872274e-10
-8.4632514e-13
3.2824815e-10
8.0354173e-13
3.286992e-10
-7.636745e-13
3.2827003e-10
7.2665806e-13
3.286789e-10
-6.9227893e-13
3.2828882e-10
6.6048429e-13
3.2866153e-10
-6.3108494e-13
3.283048e-10
6.0403885e-13
3.2864685e-10
-5.7918097e-13
3.2831822e-10
5.5647786e-13
3.2863463e-10
-5.3578869e-13
3.2832927e-10
5.1708587e-13
3.2862469e-10
-5.0025488e-13
3.2833813e-10
4.8526861e-13
3.2861687e-10
-4.7203109e-13
3.283449e-10
4.6058531e-13
3.2861095e-10
-4.5060411e-13
3.2834959e-10
4.4258785e-13
3.2860758e-10
-4.3696812e-13
3.2835733e-10
4.2464443e-13
3.2862741e-10
-4.524376e-13
4.0838262e-13
5.6513597e-10
7.7992774e-09
6.1549899e-10
-8.4963538e-11
5.4125219e-10
1.4613457e-10
5.4219578e-10
-2.6036821e-12
5.4161277e-10
-2.0928125e-14
5.3898707e-10
6.4895176e-12
5.3931565e-10
-2.1716169e-12
5.3772388e-10
4.4207086e-12
5.3902356e-10
-3.7866111e-12
5.3765598e-10
3.8479983e-12
5.3893738e-10
-3.6062151e-12
5.376966e-10
3.4633488e-12
5.3885762e-10
-3.2481445e-12
5.3775141e-10
3.0845877e-12
5.3878944e-10
-2.8992356e-12
5.3780675e-10
2.7415039e-12
5.387318e-10
-2.58251e-12
5.3785792e-10
2.4388051e-12
5.3868198e-10
-2.3003366e-12
5.3790384e-10
2.172059e-12
5.386384e-10
-2.0505599e-12
5.3794454e-10
1.937033e-12
5.3860014e-10
-1.830252e-12
5.3798041e-10
1.7302646e-12
5.3856658e-10
-1.6365362e-12
5.3801188e-10
1.5488097e-12
5.385372e-10
-1.4667624e-12
5.3803938e-10
1.3900919e-12
5.3851159e-10
-1.3185409e-12
5.380633e-10
1.2518348e-12
5.3848936e-10
-1.1897412e-12
5.3808399e-10
1.1320287e-12
5.384702e-10
-1.0784817e-12
5.3810177e-10
1.0289102e-12
5.384538e-10
-9.8311664e-13
5.3811689e-10
9.4094645e-13
5.3843994e-10
-9.0222268e-13
5.3812959e-10
8.6682002e-13
5.3842839e-10
-8.3458484e-13
5.3814006e-10
8.054139e-13
5.3841899e-10
-7.7918359e-13
5.3814846e-10
7.5579869e-13
5.3841159e-10
-7.3515727e-13
5.3815487e-10
7.1730352e-13
5.3840589e-10
-7.0162855e-13
5.3815918e-10
6.8930256e-13
5.3840262e-10
-6.8040514e-13
5.3816829e-10
6.5897113e-13
5.3843272e-10
-7.1687153e-13
6.3429868e-13
7.5612602e-10
9.9914014e-09
8.4030668e-10
-1.6914418e-10
7.4666002e-10
2.3978124e-10
7.4787946e-10
-3.8231163e-12
7.4664673e-10
1.211805e-12
7.4378254e-10
9.3537107e-12
7.4358676e-10
-1.9758347e-12
7.4209957e-10
5.9078971e-12
7.4325807e-10
-4.9451108e-12
7.4199236e-10
5.1137034e-12
7.4318429e-10
-4.798141e-12
7.4201966e-10
4.6279769e-12
7.4310695e-10
-4.3354373e-12
7.4206689e-10
4.124647e-12
7.4304084e-10
-3.8731885e-12
7.4211751e-10
3.6648406e-12
7.4298592e-10
-3.4509226e-12
7.4216519e-10
3.2595321e-12
7.4293887e-10
-3.0740111e-12
7.4220824e-10
2.9026856e-12
7.4289786e-10
-2.7401799e-12
7.4224648e-10
2.5884162e-12
7.4286192e-10
-2.4456946e-12
7.4228019e-10
2.3119999e-12
7.4283041e-10
-2.1867614e-12
7.4230976e-10
2.0694613e-12
7.4280284e-10
-1.9598461e-12
7.423356e-10
1.8573359e-12
7.4277881e-10
-1.7617495e-12
7.4235807e-10
1.6725674e-12
7.4275795e-10
-1.5896163e-12
7.4237752e-10
1.5124605e-12
7.4273996e-10
-1.4409247e-12
7.4239422e-10
1.374652e-12
7.4272457e-10
-1.3134701e-12
7.4240843e-10
1.2570889e-12
7.4271155e-10
-1.2053465e-12
7.4242037e-10
1.1580077e-12
7.4270071e-10
-1.1149275e-12
7.4243021e-10
1.0759126e-12
7.4269187e-10
-1.0408479e-12
7.4243812e-10
1.0095558e-12
7.4268491e-10
-9.8194639e-13
7.4244415e-10
9.5805865e-13
7.4267946e-10
-9.3693942e-13
7.4244807e-10
9.2069675e-13
7.4267614e-10
-9.0847721e-13
7.4245789e-10
8.772219e-13
7.4271407e-10
-9.7305185e-13
8.4538424e-13
9.6510708e-10
1.1974544e-08
1.0535058e-09
-2.5754284e-10
9.4569924e-10
3.4758776e-10
9.4789665e-10
-6.0205142e-12
9.4603603e-10
3.0724291e-12
9.4293909e-10
1.245065e-11
9.4229942e-10
-1.3361606e-12
9.40939e-10
7.2683177e-12
9.4196272e-10
-5.9688379e-12
9.4080602e-10
6.2703998e-12
9.4190708e-10
-5.8991952e-12
9.4082234e-10
5.7127106e-12
9.4183321e-10
-5.3463005e-12
9.4086245e-10
5.0953998e-12
9.4176959e-10
-4.7803214e-12
9.4090837e-10
4.5260589e-12
9.4171762e-10
-4.2601701e-12
9.4095247e-10
4.0246767e-12
9.416735e-10
-3.7950448e-12
9.4099254e-10
3.5836552e-12
9.4163521e-10
-3.3828567e-12
9.4102819e-10
3.1954374e-12
9.416017e-10
-3.0192074e-12
9.4105964e-10
2.8540668e-12
9.4157235e-10
-2.6994709e-12
9.4108723e-10
2.5545825e-12
9.4154667e-10
-2.4192906e-12
9.4111133e-10
2.292679e-12
9.4152429e-10
-2.174709e-12
9.4113229e-10
2.0645657e-12
9.4150486e-10
-1.9621906e-12
9.4115042e-10
1.866903e-12
9.4148811e-10
-1.7786133e-12
9.4116599e-10
1.6967655e-12
9.4147377e-10
-1.6212493e-12
9.4117925e-10
1.5516138e-12
9.4146164e-10
-1.4877415e-12
9.4119038e-10
1.4292672e-12
9.4145154e-10
-1.3760783e-12
9.4119957e-10
1.3278752e-12
9.414433e-10
-1.2845712e-12
9.4120696e-10
1.24589e-12
9.4143679e-10
-1.211774e-12
9.412126e-10
1.1822443e-12
9.4143162e-10
-1.1559604e-12
9.4121612e-10
1.1362012e-12
9.4142821e-10
-1.1205687e-12
9.4122623e-10
1.0792029e-12
9.4147194e-10
-1.2187598e-12
1.0401955e-12
1.1250626e-09
1.3797732e-08
1.2559011e-09
-3.8838133e-10
1.1392802e-09
4.6420871e-10
1.1423091e-09
-9.0494181e-12
1.1397617e-09
5.6197641e-12
1.1364599e-09
1.5752464e-11
1.1354538e-09
-3.2999957e-13
1.134244e-09
8.4780892e-12
1.1351388e-09
-6.8636766e-12
1.134097e-09
7.312221e-12
1.1351064e-09
-6.9085368e-12
1.1341045e-09
6.7146053e-12
1.1350368e-09
-6.278647e-12
1.1341379e-09
5.9943289e-12
1.134976e-09
-5.618459e-12
1.1341791e-09
5.3229584e-12
1.1349272e-09
-5.0082528e-12
1.1342196e-09
4.7323159e-12
1.1348862e-09
-4.4616515e-12
1.1342565e-09
4.2132796e-12
1.1348507e-09
-3.9770085e-12
1.1342895e-09
3.7566102e-12
1.1348197e-09
-3.5493926e-12
1.1343186e-09
3.3551535e-12
1.1347926e-09
-3.1734284e-12
1.1343441e-09
3.0030122e-12
1.1347689e-09
-2.844e-12
1.1343664e-09
2.6950904e-12
1.1347482e-09
-2.5564446e-12
1.1343858e-09
2.4269109e-12
1.1347302e-09
-2.3065937e-12
1.1344026e-09
2.194534e-12
1.1347148e-09
-2.0907674e-12
1.134417e-09
1.9945122e-12
1.1347015e-09
-1.9057522e-12
1.1344293e-09
1.8238547e-12
1.1346903e-09
-1.7487726e-12
1.1344396e-09
1.6799943e-12
1.134681e-09
-1.6174602e-12
1.1344481e-09
1.5607515e-12
1.1346733e-09
-1.509826e-12
1.1344549e-09
1.4642967e-12
1.1346673e-09
-1.4241562e-12
1.1344602e-09
1.3893927e-12
1.1346625e-09
-1.358252e-12
1.1344633e-09
1.3353798e-12
1.1346589e-09
-1.3162308e-12
1.1344734e-09
1.2647968e-12
1.1347067e-09
-1.4520965e-12
1.2175374e-12
1.3231185e-09
1.5422863e-08
1.4484526e-09
-5.1371541e-10
1.3265486e-09
5.8611272e-10
1.3309772e-09
-1.3477972e-11
1.3277587e-09
8.8382872e-12
1.3243338e-09
1.9177385e-11
1.3230436e-09
9.6012716e-13
1.3220134e-09
9.5083621e-12
1.3227864e-09
-7.6366888e-12
1.3218647e-09
8.233892e-12
1.3227824e-09
-7.8262427e-12
1.3218656e-09
7.6313917e-12
1.3227181e-09
-7.1311047e-12
1.3218928e-09
6.8195569e-12
1.3226604e-09
-6.3860518e-12
1.3219295e-09
6.0539291e-12
1.3226149e-09
-5.6937314e-12
1.3219662e-09
5.3810584e-12
1.3225771e-09
-5.0725472e-12
1.322e-09
4.7903459e-12
1.3225445e-09
-4.5215017e-12
1.3220303e-09
4.2708714e-12
1.3225161e-09
-4.0352512e-12
1.322057e-09
3.8143246e-12
1.3224913e-09
-3.6077523e-12
1.3220804e-09
3.4139238e-12
1.3224696e-09
-3.2331936e-12
1.3221008e-09
3.0638365e-12
1.3224506e-09
-2.9062619e-12
1.3221186e-09
2.758949e-12
1.3224342e-09
-2.6222054e-12
1.322134e-09
2.4947679e-12
1.32242e-09
-2.3768304e-12
1.3221472e-09
2.2673652e-12
1.3224079e-09
-2.1664771e-12
1.3221584e-09
2.0733356e-12
1.3223976e-09
-1.9879858e-12
1.3221679e-09
1.9097571e-12
1.3223891e-09
-1.8386604e-12
1.3221757e-09
1.7741475e-12
1.3223821e-09
-1.7162354e-12
1.322182e-09
1.6644157e-12
1.3223766e-09
-1.6187478e-12
1.3221868e-09
1.5791707e-12
1.322372e-09
-1.5435055e-12
1.3221895e-09
1.5179206e-12
1.3223684e-09
-1.495162e-12
1.3221993e-09
1.4339585e-12
1.3224186e-09
-1.6714652e-12
1.3767535e-12
1.4626052e-09
1.6908508e-08
1.6280123e-09
-6.7912245e-10
1.5083028e-09
7.0582222e-10
1.5138047e-09
-1.8979896e-11
1.51009e-09
1.2553051e-11
1.5065971e-09
2.2670285e-11
1.5050829e-09
2.4742404e-12
1.5042532e-09
1.0338154e-11
1.5049085e-09
-8.2920422e-12
1.5041098e-09
9.0325595e-12
1.504936e-09
-8.6524148e-12
1.5041057e-09
8.4617084e-12
1.5048774e-09
-7.9027914e-12
1.5041271e-09
7.5698238e-12
1.5048231e-09
-7.0820783e-12
1.5041592e-09
6.7178905e-12
1.5047811e-09
-6.3156573e-12
1.5041922e-09
5.9699831e-12
1.5047465e-09
-5.6268893e-12
1.5042228e-09
5.3140592e-12
1.5047169e-09
-5.0155967e-12
1.5042502e-09
4.73753e-12
1.5046911e-09
-4.4761349e-12
1.5042745e-09
4.2309747e-12
1.5046686e-09
-4.0018722e-12
1.5042957e-09
3.786784e-12
1.5046489e-09
-3.5863668e-12
1.5043143e-09
3.3984442e-12
1.5046318e-09
-3.2237125e-12
1.5043304e-09
3.0602579e-12
1.5046169e-09
-2.9086248e-12
1.5043444e-09
2.7672264e-12
1.504604e-09
-2.6364423e-12
1.5043564e-09
2.5149839e-12
1.504593e-09
-2.4030992e-12
1.5043666e-09
2.2997485e-12
1.5045837e-09
-2.205087e-12
1.5043752e-09
2.1182762e-12
1.5045759e-09
-2.0394116e-12
1.5043823e-09
1.9678089e-12
1.5045696e-09
-1.9035556e-12
1.504388e-09
1.8460148e-12
1.5045646e-09
-1.7953267e-12
1.5043924e-09
1.7513647e-12
1.5045604e-09
-1.7115277e-12
1.5043947e-09
1.6836217e-12
1.5045567e-09
-1.6571863e-12
1.504404e-09
1.5867077e-12
1.504608e-09
-1.8755341e-12
1.5175996e-12
1.6439777e-09
1.821278e-08
1.800358e-09
-8.355028e-10
1.6836052e-09
8.2257509e-10
1.6895916e-09
-2.4966318e-11
1.6865481e-09
1.5596557e-11
1.683213e-09
2.6005358e-11
1.6815657e-09
4.1215809e-12
1.6809621e-09
1.0941732e-11
1.6815055e-09
-8.835442e-12
1.6808321e-09
9.7059997e-12
1.6815674e-09
-9.3877729e-12
1.6808244e-09
9.2047265e-12
1.681515e-09
-8.5933605e-12
1.6808404e-09
8.2443655e-12
1.6814643e-09
-7.7060021e-12
1.680868e-09
7.3142196e-12
1.6814259e-09
-6.8735165e-12
1.6808973e-09
6.4985803e-12
1.6813946e-09
-6.1242235e-12
1.6809247e-09
5.7839916e-12
1.681368e-09
-5.458899e-12
1.6809493e-09
5.15622e-12
1.6813449e-09
-4.8717014e-12
1.680971e-09
4.604787e-12
1.6813247e-09
-4.3554894e-12
1.6809901e-09
4.1213151e-12
1.681307e-09
-3.9032568e-12
1.6810068e-09
3.6986679e-12
1.6812916e-09
-3.5085628e-12
1.6810213e-09
3.3306189e-12
1.6812783e-09
-3.1656431e-12
1.6810338e-09
3.011713e-12
1.6812668e-09
-2.8694153e-12
1.6810446e-09
2.7371911e-12
1.6812569e-09
-2.6154493e-12
1.6810538e-09
2.5029334e-12
1.6812486e-09
-2.3999233e-12
1.6810615e-09
2.3054065e-12
1.6812416e-09
-2.2195755e-12
1.6810678e-09
2.1416047e-12
1.6812359e-09
-2.0716616e-12
1.681073e-09
2.0089763e-12
1.6812314e-09
-1.9537813e-12
1.6810769e-09
1.9058683e-12
1.6812276e-09
-1.8622288e-12
1.6810789e-09
1.8323804e-12
1.6812239e-09
-1.8022379e-12
1.6810875e-09
1.7231242e-12
1.6812752e-09
-2.0632079e-12
1.640121e-12
1.7745849e-09
1.9386445e-08
1.9608536e-09
-1.0217714e-09
1.8537891e-09
9.2963963e-10
1.8579091e-09
-2.9086352e-11
1.8570052e-09
1.6500454e-11
1.8541809e-09
2.8829694e-11
1.8524944e-09
5.8080957e-12
1.8521425e-09
1.1293587e-11
1.852579e-09
-9.2719615e-12
1.8520317e-09
1.0253288e-11
1.8526772e-09
-1.0033198e-11
1.8520216e-09
9.8602648e-12
1.8526311e-09
-9.2028622e-12
1.8520326e-09
8.8429041e-12
1.8525843e-09
-8.2577057e-12
1.8520558e-09
7.842714e-12
1.8525495e-09
-7.3671832e-12
1.8520813e-09
6.9667113e-12
1.8525215e-09
-6.5644425e-12
1.8521055e-09
6.2000432e-12
1.8524979e-09
-5.8513226e-12
1.8521273e-09
5.5268661e-12
1.8524775e-09
-5.2218818e-12
1.8521465e-09
4.9357021e-12
1.8524596e-09
-4.6685473e-12
1.8521634e-09
4.417468e-12
1.852444e-09
-4.1838154e-12
1.8521782e-09
3.9644653e-12
1.8524304e-09
-3.7607708e-12
1.852191e-09
3.569994e-12
1.8524186e-09
-3.3932227e-12
1.8522021e-09
3.2281936e-12
1.8524084e-09
-3.0757159e-12
1.8522117e-09
2.9339563e-12
1.8523997e-09
-2.8034974e-12
1.8522198e-09
2.6828629e-12
1.8523923e-09
-2.5724682e-12
1.8522266e-09
2.4711245e-12
1.8523862e-09
-2.3791295e-12
1.8522323e-09
2.2955151e-12
1.8523811e-09
-2.2205353e-12
1.8522368e-09
2.1532854e-12
1.8523771e-09
-2.0940992e-12
1.8522403e-09
2.0426718e-12
1.8523737e-09
-1.9956122e-12
1.8522419e-09
1.9641837e-12
1.85237e-09
-1.9303479e-12
1.8522498e-09
1.8433444e-12
1.8524202e-09
-2.2336057e-12
1.7445841e-12
1.9421441e-09
2.0392551e-08
2.1160474e-09
-1.1956748e-09
2.0176887e-09
1.0279983e-09
2.0201904e-09
-3.1587996e-11
2.0216292e-09
1.5061622e-11
2.019544e-09
3.0914976e-11
2.0178856e-09
7.466484e-12
2.0177995e-09
1.1379672e-11
2.0181313e-09
-9.6037499e-12
2.0177093e-09
1.0675249e-11
2.0182657e-09
-1.0589624e-11
2.0176973e-09
1.0428726e-11
2.0182261e-09
-9.7317153e-12
2.0177034e-09
9.3655984e-12
2.0181832e-09
-8.7374549e-12
2.0177223e-09
8.3035517e-12
2.018152e-09
-7.7968823e-12
2.0177442e-09
7.3745726e-12
2.0181275e-09
-6.9477523e-12
2.0177651e-09
6.56241e-12
2.0181069e-09
-6.193059e-12
2.0177841e-09
5.8496542e-12
2.018089e-09
-5.5268528e-12
2.0178008e-09
5.2238914e-12
2.0180735e-09
-4.9412068e-12
2.0178156e-09
4.6753981e-12
2.0180599e-09
-4.4281879e-12
2.0178284e-09
4.1959757e-12
2.0180481e-09
-3.9804666e-12
2.0178396e-09
3.7785082e-12
2.0180379e-09
-3.5914805e-12
2.0178493e-09
3.4167802e-12
2.018029e-09
-3.2554492e-12
2.0178576e-09
3.1053804e-12
2.0180214e-09
-2.9673389e-12
2.0178647e-09
2.8396295e-12
2.018015e-09
-2.7228097e-12
2.0178706e-09
2.6155156e-12
2.0180097e-09
-2.5181561e-12
2.0178755e-09
2.4296211e-12
2.0180053e-09
-2.3502557e-12
2.0178795e-09
2.2790208e-12
2.0180018e-09
-2.2163582e-12
2.0178826e-09
2.1618533e-12
2.0179988e-09
-2.1117656e-12
2.0178838e-09
2.0791008e-12
2.0179951e-09
-2.0416337e-12
2.0178909e-09
1.9475591e-12
2.0180434e-09
-2.3860427e-12
1.8314309e-12
2.0646135e-09
2.1276188e-08
2.2571288e-09
-1.38819e-09
2.1754055e-09
1.1097216e-09
2.1778505e-09
-3.4033005e-11
2.1805441e-09
1.2368009e-11
2.1793492e-09
3.2109872e-11
2.1777504e-09
9.0652699e-12
2.1779354e-09
1.1194638e-11
2.1781628e-09
-9.8311253e-12
2.1778645e-09
1.0973585e-11
2.1783332e-09
-1.1058354e-11
2.1778511e-09
1.0910861e-11
2.1783001e-09
-1.0180755e-11
2.1778527e-09
9.812965e-12
2.1782612e-09
-9.1458781e-12
2.1778675e-09
8.6972478e-12
2.1782338e-09
-8.163158e-12
2.1778857e-09
7.7226609e-12
2.1782126e-09
-7.2746407e-12
2.1779034e-09
6.871553e-12
2.1781949e-09
-6.4845482e-12
2.1779195e-09
6.1250038e-12
2.1781797e-09
-5.7870104e-12
2.1779339e-09
5.4697326e-12
2.1781665e-09
-5.1738231e-12
2.1779464e-09
4.8954436e-12
2.1781549e-09
-4.6366919e-12
2.1779574e-09
4.3935018e-12
2.1781449e-09
-4.1679345e-12
2.177967e-09
3.9564321e-12
2.1781361e-09
-3.7606714e-12
2.1779752e-09
3.577716e-12
2.1781286e-09
-3.408845e-12
2.1779823e-09
3.2516833e-12
2.1781221e-09
-3.1071825e-12
2.1779883e-09
2.9734331e-12
2.1781167e-09
-2.8511389e-12
2.1779934e-09
2.7387642e-12
2.1781121e-09
-2.6368323e-12
2.1779976e-09
2.5440945e-12
2.1781084e-09
-2.4609891e-12
2.178001e-09
2.3863456e-12
2.1781054e-09
-2.3207178e-12
2.1780037e-09
2.2635704e-12
2.1781028e-09
-2.2108527e-12
2.1780046e-09
2.1772753e-12
2.1780992e-09
-2.1362887e-12
2.1780108e-09
2.0360088e-12
2.1781448e-09
-2.5200131e-12
1.9012422e-12
2.2176845e-09
2.2006753e-08
2.3938501e-09
-1.5643556e-09
2.3272229e-09
1.1763489e-09
2.3310874e-09
-3.7897481e-11
2.333826e-09
9.6294028e-12
2.333623e-09
3.231285e-11
2.3320978e-09
1.059042e-11
2.3325525e-09
1.0739979e-11
2.3326743e-09
-9.9529006e-12
2.3324969e-09
1.1150908e-11
2.3328796e-09
-1.1441004e-11
2.3324827e-09
1.130771e-11
2.3328532e-09
-1.055122e-11
2.3324804e-09
1.0185821e-11
2.3328184e-09
-9.4839448e-12
2.3324911e-09
9.024611e-12
2.3327947e-09
-8.4668449e-12
2.3325057e-09
8.0117389e-12
2.3327769e-09
-7.545848e-12
2.3325203e-09
7.1281685e-12
2.3327622e-09
-6.7264519e-12
2.3325336e-09
6.3535421e-12
2.3327496e-09
-6.0029462e-12
2.3325455e-09
5.6737872e-12
2.3327386e-09
-5.3669245e-12
2.3325559e-09
5.078106e-12
2.332729e-09
-4.8097991e-12
2.3325651e-09
4.5574911e-12
2.3327207e-09
-4.3235964e-12
2.332573e-09
4.1041666e-12
2.3327135e-09
-3.9011739e-12
2.3325798e-09
3.7113613e-12
2.3327072e-09
-3.5362445e-12
2.3325857e-09
3.3731906e-12
2.3327019e-09
-3.2233379e-12
2.3325908e-09
3.0845707e-12
2.3326974e-09
-2.9577393e-12
2.332595e-09
2.8411431e-12
2.3326936e-09
-2.7354201e-12
2.3325985e-09
2.6391888e-12
2.3326905e-09
-2.5529806e-12
2.3326013e-09
2.4754988e-12
2.332688e-09
-2.4074108e-12
2.3326035e-09
2.348052e-12
2.3326858e-09
-2.2931057e-12
2.3326041e-09
2.2589181e-12
2.3326824e-09
-2.2145738e-12
2.3326094e-09
2.1089811e-12
2.3327246e-09
-2.6351748e-12
1.9547044e-12
2.3372698e-09
2.2617734e-08
2.5189788e-09
-1.7460645e-09
2.4735556e-09
1.2217721e-09
2.4792044e-09
-4.3546222e-11
2.4815654e-09
7.2683626e-12
2.48238e-09
3.1498224e-11
2.4809336e-09
1.2036807e-11
2.4816536e-09
1.0020001e-11
2.4816676e-09
-9.9668987e-12
2.4816074e-09
1.1211146e-11
2.4819054e-09
-1.1739026e-11
2.4815923e-09
1.1620836e-11
2.4818856e-09
-1.0844573e-11
2.4815861e-09
1.0485326e-11
2.4818551e-09
-9.752895e-12
2.4815929e-09
9.2867286e-12
2.4818351e-09
-8.7090287e-12
2.4816041e-09
8.2428089e-12
2.4818206e-09
-7.762337e-12
2.4816156e-09
7.3331623e-12
2.4818087e-09
-6.9196281e-12
2.4816262e-09
6.5360805e-12
2.4817987e-09
-6.175425e-12
2.4816357e-09
5.8367793e-12
2.4817899e-09
-5.5211926e-12
2.481644e-09
5.2240311e-12
2.4817823e-09
-4.9481179e-12
2.4816513e-09
4.6885206e-12
2.4817757e-09
-4.4479964e-12
2.4816577e-09
4.2222282e-12
2.48177e-09
-4.0134764e-12
2.4816631e-09
3.818181e-12
2.481765e-09
-3.6380886e-12
2.4816678e-09
3.4703232e-12
2.4817607e-09
-3.3162055e-12
2.4816719e-09
3.1734254e-12
2.4817571e-09
-3.0429771e-12
2.4816752e-09
2.9230043e-12
2.4817541e-09
-2.8142578e-12
2.481678e-09
2.7152307e-12
2.4817516e-09
-2.6265459e-12
2.4816803e-09
2.5467878e-12
2.4817496e-09
-2.4767359e-12
2.4816821e-09
2.4155912e-12
2.4817478e-09
-2.3588182e-12
2.4816824e-09
2.3243008e-12
2.4817447e-09
-2.2768087e-12
2.4816868e-09
2.1668058e-12
2.481783e-09
-2.7313341e-12
1.9925819e-12
2.481127e-09
2.3084857e-08
2.6437843e-09
-1.9087218e-09
2.6144204e-09
1.2511359e-09
2.621314e-09
-5.0439783e-11
2.6238755e-09
4.7068963e-12
2.6256104e-09
2.9763333e-11
2.6242588e-09
1.3388348e-11
2.6252411e-09
9.0377419e-12
2.6251448e-09
-9.8706421e-12
2.6251967e-09
1.1159319e-11
2.6254112e-09
-1.1953611e-11
2.6251797e-09
1.185234e-11
2.6253976e-09
-1.1062425e-11
2.6251699e-09
1.0712965e-11
2.6253713e-09
-9.9541979e-12
2.625173e-09
9.4849392e-12
2.625355e-09
-8.8910155e-12
2.6251808e-09
8.4170846e-12
2.6253437e-09
-7.9252674e-12
2.6251892e-09
7.4876247e-12
2.6253347e-09
-7.0651077e-12
2.6251972e-09
6.6735926e-12
2.6253271e-09
-6.3053642e-12
2.6252043e-09
5.9595767e-12
2.6253206e-09
-5.6374448e-12
2.6252106e-09
5.3339925e-12
2.6253149e-09
-5.0523775e-12
2.6252161e-09
4.7872813e-12
2.6253099e-09
-4.541787e-12
2.6252209e-09
4.3112366e-12
2.6253056e-09
-4.0981653e-12
2.625225e-09
3.8987326e-12
2.6253019e-09
-3.7149067e-12
2.6252286e-09
3.5435857e-12
2.6252987e-09
-3.3862661e-12
2.6252316e-09
3.2404574e-12
2.6252959e-09
-3.1072924e-12
2.6252342e-09
2.9847705e-12
2.6252937e-09
-2.8737515e-12
2.6252363e-09
2.7726124e-12
2.6252918e-09
-2.6820639e-12
2.625238e-09
2.6005805e-12
2.6252903e-09
-2.5290508e-12
2.6252394e-09
2.4665388e-12
2.6252889e-09
-2.4083384e-12
2.6252394e-09
2.3737498e-12
2.625286e-09
-2.323365e-12
2.625243e-09
2.2098517e-12
2.6253201e-09
-2.8084324e-12
2.0156928e-12
2.5998654e-09
2.3433241e-08
2.7596497e-09
-2.0685061e-09
2.7501667e-09
1.2606189e-09
2.7570842e-09
-5.7357248e-11
2.7608297e-09
9.6145518e-13
2.7633191e-09
2.7273891e-11
2.7620802e-09
1.4627236e-11
2.7633172e-09
7.8007643e-12
2.7631077e-09
-9.6611125e-12
2.7632656e-09
1.1001378e-11
2.7633977e-09
-1.2085741e-11
2.7632453e-09
1.2004773e-11
2.7633894e-09
-1.120652e-11
2.7632318e-09
1.0870526e-11
2.7633671e-09
-1.0089511e-11
2.7632313e-09
9.6208134e-12
2.7633545e-09
-9.0142968e-12
2.7632357e-09
8.5359712e-12
2.7633464e-09
-8.0359675e-12
2.7632412e-09
7.5928092e-12
2.7633401e-09
-7.1640724e-12
2.7632465e-09
6.7671948e-12
2.763335e-09
-6.3938151e-12
2.7632514e-09
6.0431733e-12
2.7633306e-09
-5.7166174e-12
2.7632557e-09
5.4088762e-12
2.7633267e-09
-5.1234137e-12
2.7632594e-09
4.8545651e-12
2.7633234e-09
-4.6057166e-12
2.7632627e-09
4.3719017e-12
2.7633204e-09
-4.1559133e-12
2.7632655e-09
3.9536561e-12
2.7633179e-09
-3.7673065e-12
2.7632679e-09
3.5935578e-12
2.7633158e-09
-3.4340722e-12
2.76327e-09
3.2861952e-12
2.7633139e-09
-3.1511907e-12
2.7632718e-09
3.0269272e-12
2.7633124e-09
-2.9143677e-12
2.7632732e-09
2.811784e-12
2.7633111e-09
-2.7199694e-12
2.7632744e-09
2.6372992e-12
2.7633101e-09
-2.5647658e-12
2.7632753e-09
2.5012962e-12
2.7633091e-09
-2.4420633e-12
2.7632752e-09
2.40764e-12
2.7633065e-09
-2.3546596e-12
2.7632778e-09
2.2385229e-12
2.7633359e-09
-2.8665335e-12
2.0248898e-12
2.7358464e-09
2.3645645e-08
2.8771305e-09
-2.2097902e-09
2.8810437e-09
1.2567057e-09
2.8868502e-09
-6.3163763e-11
2.8924381e-09
-4.6264099e-12
2.8954989e-09
2.4213077e-11
2.8944034e-09
1.5722716e-11
2.8958772e-09
6.3269712e-12
2.8955538e-09
-9.337713e-12
2.8958125e-09
1.0742693e-11
2.8958639e-09
-1.2137199e-11
2.8957882e-09
1.2080478e-11
2.8958608e-09
-1.1279079e-11
2.8957715e-09
1.0959857e-11
2.8958427e-09
-1.0160768e-11
2.8957675e-09
9.6960632e-12
2.8958337e-09
-9.0805585e-12
2.8957687e-09
8.601022e-12
2.8958286e-09
-8.0959225e-12
2.8957713e-09
7.650107e-12
2.8958251e-09
-7.2178378e-12
2.8957742e-09
6.8181268e-12
2.8958223e-09
-6.4419467e-12
2.8957768e-09
6.0886733e-12
2.8958199e-09
-5.7597513e-12
2.8957791e-09
5.449667e-12
2.8958179e-09
-5.1621559e-12
2.8957812e-09
4.8912524e-12
2.8958161e-09
-4.6406177e-12
2.895783e-09
4.405014e-12
2.8958145e-09
-4.1874694e-12
2.8957845e-09
3.9836638e-12
2.8958132e-09
-3.795965e-12
2.8957859e-09
3.6208852e-12
2.895812e-09
-3.4602391e-12
2.895787e-09
3.3112276e-12
2.895811e-09
-3.1752356e-12
2.895788e-09
3.0500158e-12
2.8958102e-09
-2.9366267e-12
2.8957888e-09
2.8332472e-12
2.8958095e-09
-2.7407472e-12
2.8957894e-09
2.6574143e-12
2.895809e-09
-2.5843375e-12
2.89579e-09
2.5203105e-12
2.8958083e-09
-2.4604331e-12
2.8957896e-09
2.4263902e-12
2.8958061e-09
-2.3711489e-12
2.8957913e-09
2.2532548e-12
2.8958306e-09
-2.9058124e-12
2.0210431e-12
2.8546917e-09
2.3739203e-08
2.9856391e-09
-2.3407376e-09
3.0069497e-09
1.2353951e-09
3.0116572e-09
-6.7871196e-11
3.0188279e-09
-1.1797109e-11
3.0222052e-09
2.0835788e-11
3.0212643e-09
1.6663597e-11
3.0229247e-09
4.6665588e-12
3.0224858e-09
-8.8988106e-12
3.0228381e-09
1.0390389e-11
3.0228102e-09
-1.2109366e-11
3.0228085e-09
1.2082178e-11
3.0228119e-09
-1.1282455e-11
3.0227888e-09
1.0983007e-11
3.0227981e-09
-1.0170069e-11
3.0227816e-09
9.7125617e-12
3.0227927e-09
-9.0916358e-12
3.0227797e-09
8.6139293e-12
3.0227906e-09
-8.106748e-12
3.0227796e-09
7.6610309e-12
3.0227896e-09
-7.2278348e-12
3.02278e-09
6.8277362e-12
3.0227891e-09
-6.4510301e-12
3.0227805e-09
6.0972767e-12
3.0227887e-09
-5.7679787e-12
3.022781e-09
5.4574355e-12
3.0227884e-09
-5.1696154e-12
3.0227814e-09
4.8983014e-12
3.0227882e-09
-4.6473969e-12
3.0227817e-09
4.4114336e-12
3.0227879e-09
-4.1936492e-12
3.0227821e-09
3.9895317e-12
3.0227877e-09
-3.8016201e-12
3.0227823e-09
3.6262715e-12
3.0227875e-09
-3.4654381e-12
3.0227826e-09
3.3161967e-12
3.0227874e-09
-3.1800415e-12
3.0227828e-09
3.0546261e-12
3.0227872e-09
-2.9410955e-12
3.0227829e-09
2.8375492e-12
3.0227871e-09
-2.7449258e-12
3.0227831e-09
2.6614385e-12
3.022787e-09
-2.5882639e-12
3.0227832e-09
2.5240687e-12
3.0227867e-09
-2.463926e-12
3.0227827e-09
2.4304579e-12
3.0227848e-09
-2.3733229e-12
3.0227836e-09
2.2545111e-12
3.0228043e-09
-2.9265436e-12
2.0050264e-12
2.9840302e-09
2.3703423e-08
3.0950621e-09
-2.4517695e-09
3.1277383e-09
1.2027189e-09
3.1321651e-09
-7.2297937e-11
3.1400973e-09
-1.9729331e-11
3.143471e-09
1.7462082e-11
3.1426959e-09
1.7438684e-11
3.1444604e-09
2.9021138e-12
3.1439061e-09
-8.3445344e-12
3.1443436e-09
9.9529119e-12
3.1442373e-09
-1.2003095e-11
3.1443064e-09
1.2013055e-11
3.144243e-09
-1.1219032e-11
3.1442837e-09
1.0942243e-11
3.1442333e-09
-1.0119632e-11
3.1442735e-09
9.672333e-12
3.1442314e-09
-9.0494846e-12
3.1442688e-09
8.5765075e-12
3.1442322e-09
-8.0701706e-12
3.1442661e-09
7.6271993e-12
3.1442338e-09
-7.1955929e-12
3.1442641e-09
6.797464e-12
3.1442355e-09
-6.4224246e-12
3.1442625e-09
6.0702672e-12
3.144237e-09
-5.742511e-12
3.1442611e-09
5.4333276e-12
3.1442384e-09
-5.1468748e-12
3.14426e-09
4.8767375e-12
3.1442396e-09
-4.627025e-12
3.1442589e-09
4.3920821e-12
3.1442406e-09
-4.1753271e-12
3.1442581e-09
3.9720913e-12
3.1442415e-09
-3.7850625e-12
3.1442573e-09
3.610471e-12
3.1442423e-09
-3.4503886e-12
3.1442567e-09
3.3017909e-12
3.1442429e-09
-3.1662675e-12
3.1442561e-09
3.0413912e-12
3.1442434e-09
-2.9283827e-12
3.1442557e-09
2.8252769e-12
3.1442438e-09
-2.7330722e-12
3.1442553e-09
2.6499217e-12
3.1442442e-09
-2.5770789e-12
3.1442551e-09
2.5130928e-12
3.1442443e-09
-2.4530536e-12
3.1442544e-09
2.4203348e-12
3.1442428e-09
-2.3617012e-12
3.1442545e-09
2.2427806e-12
3.144257e-09
-2.929092e-12
1.9777059e-12
3.1033156e-09
2.3548357e-08
3.1953044e-09
-2.5437583e-09
3.2431966e-09
1.1548266e-09
3.2481349e-09
-7.7236183e-11
3.2560609e-09
-2.7655321e-11
3.2592672e-09
1.425574e-11
3.2586939e-09
1.801196e-11
3.2604711e-09
1.1249678e-12
3.259811e-09
-7.6844961e-12
3.2603276e-09
9.4363312e-12
3.2601446e-09
-1.182003e-11
3.2602815e-09
1.1876134e-11
3.2601539e-09
-1.109146e-11
3.2602562e-09
1.0839909e-11
3.2601484e-09
-1.0011828e-11
3.2602433e-09
9.5775038e-12
3.26015e-09
-8.9561779e-12
3.2602358e-09
8.4906686e-12
3.2601536e-09
-7.988015e-12
3.2602305e-09
7.5503192e-12
3.2601577e-09
-7.1227278e-12
3.2602263e-09
6.7288305e-12
3.2601614e-09
-6.3575661e-12
3.2602227e-09
6.0089999e-12
3.2601648e-09
-5.6846279e-12
3.2602196e-09
5.3785533e-12
3.2601678e-09
-5.0950784e-12
3.2602169e-09
4.827645e-12
3.2601704e-09
-4.5805286e-12
3.2602145e-09
4.3479339e-12
3.2601726e-09
-4.1334279e-12
3.2602125e-09
3.9322226e-12
3.2601746e-09
-3.7471295e-12
3.2602108e-09
3.5742821e-12
3.2601762e-09
-3.4158526e-12
3.2602093e-09
3.268739e-12
3.2601776e-09
-3.1346116e-12
3.260208e-09
3.0109812e-12
3.2601788e-09
-2.8991327e-12
3.260207e-09
2.7970516e-12
3.2601797e-09
-2.705787e-12
3.2602062e-09
2.623446e-12
3.2601805e-09
-2.5513478e-12
3.2602056e-09
2.4879352e-12
3.2601809e-09
-2.4283567e-12
3.2602047e-09
2.3965425e-12
3.2601799e-09
-2.3368283e-12
3.2602041e-09
2.2185739e-12
3.2601889e-09
-2.913903e-12
1.9399307e-12
3.2256508e-09
2.3270957e-08
3.2972247e-09
-2.6153321e-09
3.3538286e-09
1.0982227e-09
3.3591205e-09
-8.2528152e-11
3.3666035e-09
-3.5138314e-11
3.369578e-09
1.1281312e-11
3.369244e-09
1.8345907e-11
3.3709473e-09
-5.783242e-13
3.3701981e-09
-6.9353073e-12
3.37079e-09
8.8444887e-12
3.3705321e-09
-1.1562183e-11
3.3707338e-09
1.1674465e-11
3.3705448e-09
-1.0902499e-11
3.3707063e-09
1.0678476e-11
3.3705435e-09
-9.8491164e-12
3.3706907e-09
9.430311e-12
3.3705484e-09
-8.8138734e-12
3.3706807e-09
8.3584151e-12
3.3705549e-09
-7.8621853e-12
3.370673e-09
7.4321751e-12
3.3705612e-09
-7.0109272e-12
3.3706666e-09
6.6234251e-12
3.370567e-09
-6.2579552e-12
3.3706611e-09
5.9148918e-12
3.3705721e-09
-5.595668e-12
3.3706563e-09
5.2943789e-12
3.3705767e-09
-5.0154236e-12
3.3706522e-09
4.7521581e-12
3.3705806e-09
-4.5089827e-12
3.3706485e-09
4.2800093e-12
3.370584e-09
-4.0689203e-12
3.3706454e-09
3.8708468e-12
3.370587e-09
-3.688698e-12
3.3706427e-09
3.5185411e-12
3.3705895e-09
-3.3626284e-12
3.3706404e-09
3.2178048e-12
3.3705916e-09
-3.0858054e-12
3.3706385e-09
2.9640985e-12
3.3705934e-09
-2.854021e-12