/*--------------------------------*- C++ -*----------------------------------*\
| =========                 |                                                 |
| \\      /  F ield         | OpenFOAM: The Open Source CFD Toolbox           |
|  \\    /   O peration     | Version:  2312                                  |
|   \\  /    A nd           | Website:  www.openfoam.com                      |
|    \\/     M anipulation  |                                                 |
\*---------------------------------------------------------------------------*/
FoamFile
{
    version     2.0;
    format      ascii;
    arch        "LSB;label=32;scalar=64";
    class       volSymmTensorField;
    location    "10";
    object      sigma_0;
}
// * * * * * * * * * * * * * * * * * * * * * * * * * * * * * * * * * * * * * //

dimensions      [0 2 -2 0 0 0 0];

internalField   nonuniform List<symmTensor> 
4000
(
(-2.2449812 -1.0056261 0 -0.40647733 0 0)
(-5.6699547 -0.44165551 0 -0.0029325549 0 0)
(-2.9246802 -0.31336733 0 -0.00086423807 0 0)
(-3.1203649 -0.32243831 0 1.1203993e-05 0 0)
(-2.9361223 -0.31268187 0 2.064346e-05 0 0)
(-3.0380742 -0.31849686 0 -5.4115533e-05 0 0)
(-2.9203636 -0.31180918 0 3.464589e-05 0 0)
(-3.0026404 -0.31657188 0 -4.28154e-05 0 0)
(-2.9231463 -0.31196344 0 3.8257135e-05 0 0)
(-2.9936809 -0.31607539 0 -3.7487719e-05 0 0)
(-2.9275058 -0.31221544 0 3.508724e-05 0 0)
(-2.9889346 -0.31580477 0 -3.3400752e-05 0 0)
(-2.9310857 -0.31242477 0 3.1380113e-05 0 0)
(-2.9852676 -0.31559312 0 -2.9703062e-05 0 0)
(-2.9342344 -0.31260912 0 2.7951683e-05 0 0)
(-2.9821412 -0.31541198 0 -2.6406636e-05 0 0)
(-2.9370715 -0.31277499 0 2.4880264e-05 0 0)
(-2.9793941 -0.31525266 0 -2.3493294e-05 0 0)
(-2.9396187 -0.31292372 0 2.2154002e-05 0 0)
(-2.9769572 -0.31511128 0 -2.0922005e-05 0 0)
(-2.9418974 -0.31305664 0 1.9744124e-05 0 0)
(-2.9747878 -0.31498541 0 -1.8655664e-05 0 0)
(-2.9439335 -0.31317531 0 1.7620329e-05 0 0)
(-2.9728532 -0.31487319 0 -1.6662321e-05 0 0)
(-2.9457531 -0.31328126 0 1.5754138e-05 0 0)
(-2.9711255 -0.31477301 0 -1.4913889e-05 0 0)
(-2.9473809 -0.31337593 0 1.4119586e-05 0 0)
(-2.9695795 -0.31468345 0 -1.3385406e-05 0 0)
(-2.94884 -0.31346065 0 1.2693322e-05 0 0)
(-2.968193 -0.31460323 0 -1.2054698e-05 0 0)
(-2.9501511 -0.31353663 0 1.1454569e-05 0 0)
(-2.9669454 -0.31453118 0 -1.0902187e-05 0 0)
(-2.9513336 -0.31360499 0 1.0385039e-05 0 0)
(-2.9658184 -0.31446624 0 -9.9107481e-06 0 0)
(-2.9524048 -0.31366672 0 9.4688089e-06 0 0)
(-2.9647951 -0.31440747 0 -9.0655779e-06 0 0)
(-2.9533804 -0.31372275 0 8.6922052e-06 0 0)
(-2.9638604 -0.31435398 0 -8.354063e-06 0 0)
(-2.9542751 -0.31377389 0 8.043684e-06 0 0)
(-2.9630002 -0.31430499 0 -7.7656748e-06 0 0)
(-2.955102 -0.31382091 0 7.5137581e-06 0 0)
(-2.9622019 -0.31425976 0 -7.2919504e-06 0 0)
(-2.9558733 -0.3138645 0 7.0949055e-06 0 0)
(-2.9614534 -0.31421763 0 -6.9269749e-06 0 0)
(-2.9565992 -0.31390525 0 6.781628e-06 0 0)
(-2.9607413 -0.31417785 0 -6.6657793e-06 0 0)
(-2.9572916 -0.31394371 0 6.5873697e-06 0 0)
(-2.9600895 -0.3141414 0 -6.454492e-06 0 0)
(-2.9581322 -0.31398876 0 6.6837621e-06 0 0)
(-2.960073 -0.31414019 0 -6.4789594e-06 0 0)
(-1.9787367 -0.92529114 0 -0.38431889 0 0)
(-4.8782881 -0.42200138 0 -0.0081465089 0 0)
(-2.9877303 -0.32152087 0 -0.0025847397 0 0)
(-2.8820383 -0.30960151 0 -2.1969214e-05 0 0)
(-2.721239 -0.30107445 0 -7.1078214e-06 0 0)
(-2.8096301 -0.30646359 0 -7.4286367e-05 0 0)
(-2.7111521 -0.30038745 0 1.871849e-05 0 0)
(-2.7791896 -0.30465585 0 -4.8768266e-05 0 0)
(-2.7117132 -0.30038603 0 3.9098036e-05 0 0)
(-2.7713985 -0.30419262 0 -4.0772414e-05 0 0)
(-2.7152056 -0.30060483 0 3.7782087e-05 0 0)
(-2.7673962 -0.3039461 0 -3.6448046e-05 0 0)
(-2.7182173 -0.30079752 0 3.4070589e-05 0 0)
(-2.7642783 -0.30374974 0 -3.2420068e-05 0 0)
(-2.7208841 -0.30096878 0 3.0420297e-05 0 0)
(-2.7616088 -0.30358056 0 -2.8796462e-05 0 0)
(-2.7232929 -0.30112332 0 2.7098962e-05 0 0)
(-2.7592638 -0.3034317 0 -2.5606442e-05 0 0)
(-2.7254572 -0.30126198 0 2.4135769e-05 0 0)
(-2.757185 -0.30329967 0 -2.2798816e-05 0 0)
(-2.7273937 -0.30138591 0 2.1512111e-05 0 0)
(-2.7553354 -0.30318219 0 -2.0327496e-05 0 0)
(-2.7291239 -0.30149653 0 1.9198895e-05 0 0)
(-2.7536865 -0.30307748 0 -1.8155341e-05 0 0)
(-2.7306701 -0.30159526 0 1.7166264e-05 0 0)
(-2.752214 -0.30298404 0 -1.6250844e-05 0 0)
(-2.7320535 -0.30168347 0 1.5386205e-05 0 0)
(-2.7508966 -0.30290052 0 -1.4586429e-05 0 0)
(-2.7332936 -0.30176241 0 1.38333e-05 0 0)
(-2.7497149 -0.3028257 0 -1.3137766e-05 0 0)
(-2.7344085 -0.30183321 0 1.248489e-05 0 0)
(-2.7486513 -0.3027585 0 -1.1883457e-05 0 0)
(-2.7354144 -0.30189691 0 1.1321048e-05 0 0)
(-2.7476901 -0.30269793 0 -1.0804854e-05 0 0)
(-2.7363262 -0.30195446 0 1.0324475e-05 0 0)
(-2.7468169 -0.30264309 0 -9.8859022e-06 0 0)
(-2.7371573 -0.3020067 0 9.4803896e-06 0 0)
(-2.7460187 -0.30259316 0 -9.1130191e-06 0 0)
(-2.7379202 -0.30205442 0 8.7764292e-06 0 0)
(-2.7452836 -0.3025474 0 -8.4750167e-06 0 0)
(-2.738626 -0.30209832 0 8.2026643e-06 0 0)
(-2.7446007 -0.30250515 0 -7.9632158e-06 0 0)
(-2.7392853 -0.30213904 0 7.7515414e-06 0 0)
(-2.7439598 -0.30246577 0 -7.5729397e-06 0 0)
(-2.7399071 -0.30217714 0 7.4173058e-06 0 0)
(-2.7433487 -0.30242856 0 -7.3020329e-06 0 0)
(-2.7404976 -0.30221286 0 7.2344594e-06 0 0)
(-2.7427706 -0.30239305 0 -7.021845e-06 0 0)
(-2.7411677 -0.30225008 0 7.7065304e-06 0 0)
(-2.7426372 -0.30238463 0 -6.9647301e-06 0 0)
(-1.8432757 -0.86212337 0 -0.34935242 0 0)
(-4.2810521 -0.39436627 0 -0.0094667305 0 0)
(-2.9025981 -0.32089931 0 -0.0038794662 0 0)
(-2.7519167 -0.30249469 0 -0.00012222002 0 0)
(-2.5823775 -0.29328663 0 -2.9394355e-05 0 0)
(-2.6612676 -0.29837143 0 -8.5435458e-05 0 0)
(-2.5744039 -0.29269513 0 2.6199288e-06 0 0)
(-2.6347325 -0.2966901 0 -4.9468176e-05 0 0)
(-2.5744284 -0.29263465 0 3.5551873e-05 0 0)
(-2.6276372 -0.29624426 0 -3.9208956e-05 0 0)
(-2.5774543 -0.29283582 0 3.6012361e-05 0 0)
(-2.624061 -0.29601236 0 -3.5096933e-05 0 0)
(-2.5801377 -0.29301867 0 3.265936e-05 0 0)
(-2.6212794 -0.29582625 0 -3.1216161e-05 0 0)
(-2.5825204 -0.29318164 0 2.9209448e-05 0 0)
(-2.6188936 -0.29566527 0 -2.7702841e-05 0 0)
(-2.5846735 -0.29332878 0 2.6037359e-05 0 0)
(-2.6167978 -0.29552359 0 -2.4621962e-05 0 0)
(-2.5866086 -0.29346084 0 2.319539e-05 0 0)
(-2.6149407 -0.29539796 0 -2.1917267e-05 0 0)
(-2.5883401 -0.29357887 0 2.0675126e-05 0 0)
(-2.6132889 -0.29528621 0 -1.9539287e-05 0 0)
(-2.589887 -0.29368421 0 1.8451932e-05 0 0)
(-2.6118167 -0.29518662 0 -1.7450274e-05 0 0)
(-2.5912694 -0.29377822 0 1.6498174e-05 0 0)
(-2.6105023 -0.29509775 0 -1.5619172e-05 0 0)
(-2.5925061 -0.29386221 0 1.4787217e-05 0 0)
(-2.6093264 -0.29501831 0 -1.4019158e-05 0 0)
(-2.5936149 -0.29393737 0 1.3294679e-05 0 0)
(-2.6082715 -0.29494716 0 -1.2626706e-05 0 0)
(-2.5946116 -0.29400479 0 1.199878e-05 0 0)
(-2.6073221 -0.29488323 0 -1.1421196e-05 0 0)
(-2.5955111 -0.29406547 0 1.0880373e-05 0 0)
(-2.6064639 -0.29482559 0 -1.0384708e-05 0 0)
(-2.5963265 -0.2941203 0 9.9228778e-06 0 0)
(-2.605684 -0.29477337 0 -9.5018693e-06 0 0)
(-2.59707 -0.2941701 0 9.1121841e-06 0 0)
(-2.604971 -0.29472582 0 -8.7597582e-06 0 0)
(-2.5977525 -0.2942156 0 8.4366008e-06 0 0)
(-2.6043141 -0.29468221 0 -8.1478725e-06 0 0)
(-2.5983842 -0.29425749 0 7.8869532e-06 0 0)
(-2.6037035 -0.2946419 0 -7.658355e-06 0 0)
(-2.5989745 -0.29429637 0 7.456637e-06 0 0)
(-2.6031301 -0.29460432 0 -7.2882332e-06 0 0)
(-2.5995315 -0.2943328 0 7.1404403e-06 0 0)
(-2.6025829 -0.29456878 0 -7.0398639e-06 0 0)
(-2.6000603 -0.29436689 0 6.9825973e-06 0 0)
(-2.6020599 -0.29453436 0 -6.7528515e-06 0 0)
(-2.6006469 -0.29440047 0 7.6896109e-06 0 0)
(-2.6018825 -0.29452443 0 -7.1312111e-06 0 0)
(-1.7972915 -0.83231371 0 -0.32961758 0 0)
(-3.8689131 -0.3780505 0 -0.011462602 0 0)
(-2.7995686 -0.31998936 0 -0.0053620732 0 0)
(-2.6287294 -0.29563026 0 -0.00022751599 0 0)
(-2.4498321 -0.28565011 0 -6.5637734e-05 0 0)
(-2.5180014 -0.29029465 0 -9.507849e-05 0 0)
(-2.4406352 -0.28499631 0 -1.8023513e-05 0 0)
(-2.4947093 -0.28872918 0 -4.6448832e-05 0 0)
(-2.4402796 -0.28488352 0 2.8329634e-05 0 0)
(-2.4882083 -0.28829948 0 -3.4208318e-05 0 0)
(-2.4429132 -0.28506695 0 3.105357e-05 0 0)
(-2.4849719 -0.2880814 0 -3.0718939e-05 0 0)
(-2.4453227 -0.28524 0 2.8402505e-05 0 0)
(-2.4824613 -0.28790516 0 -2.7326526e-05 0 0)
(-2.4474711 -0.28539471 0 2.546558e-05 0 0)
(-2.480304 -0.28775211 0 -2.4219008e-05 0 0)
(-2.449413 -0.28553446 0 2.2722098e-05 0 0)
(-2.4784087 -0.28761738 0 -2.1509187e-05 0 0)
(-2.4511581 -0.2856599 0 2.0248408e-05 0 0)
(-2.47673 -0.28749795 0 -1.9139532e-05 0 0)
(-2.4527196 -0.285772 0 1.8049631e-05 0 0)
(-2.4752375 -0.28739173 0 -1.7059935e-05 0 0)
(-2.4541145 -0.28587204 0 1.6108642e-05 0 0)
(-2.4739078 -0.2872971 0 -1.5234607e-05 0 0)
(-2.4553608 -0.28596132 0 1.4402662e-05 0 0)
(-2.4727209 -0.28721266 0 -1.3635329e-05 0 0)
(-2.4564758 -0.28604108 0 1.2908761e-05 0 0)
(-2.4716593 -0.28713719 0 -1.2238213e-05 0 0)
(-2.4574752 -0.28611246 0 1.1605668e-05 0 0)
(-2.4707071 -0.28706957 0 -1.1022501e-05 0 0)
(-2.4583737 -0.28617651 0 1.0474326e-05 0 0)
(-2.4698502 -0.2870088 0 -9.9700905e-06 0 0)
(-2.4591845 -0.28623417 0 9.4979972e-06 0 0)
(-2.4690758 -0.28695399 0 -9.0653098e-06 0 0)
(-2.4599196 -0.2862863 0 8.6622204e-06 0 0)
(-2.4683722 -0.28690432 0 -8.2947722e-06 0 0)
(-2.4605897 -0.28633367 0 7.9547434e-06 0 0)
(-2.4677289 -0.28685905 0 -7.6472907e-06 0 0)
(-2.4612049 -0.28637698 0 7.3654958e-06 0 0)
(-2.4671363 -0.28681751 0 -7.1138762e-06 0 0)
(-2.4617743 -0.28641688 0 6.886739e-06 0 0)
(-2.4665856 -0.28677909 0 -6.6880067e-06 0 0)
(-2.4623063 -0.28645395 0 6.513115e-06 0 0)
(-2.4660686 -0.28674324 0 -6.3684278e-06 0 0)
(-2.4628084 -0.28648873 0 6.2394425e-06 0 0)
(-2.4655753 -0.28670932 0 -6.1608184e-06 0 0)
(-2.4632844 -0.28652126 0 6.1177713e-06 0 0)
(-2.465099 -0.28667592 0 -5.8591159e-06 0 0)
(-2.4637983 -0.28655144 0 7.0667571e-06 0 0)
(-2.4648813 -0.28666408 0 -6.5687991e-06 0 0)
(-1.7069409 -0.77791478 0 -0.29724114 0 0)
(-3.4472499 -0.35829423 0 -0.012422776 0 0)
(-2.6588939 -0.31631701 0 -0.0066266372 0 0)
(-2.5053946 -0.28876038 0 -0.0003354296 0 0)
(-2.323588 -0.27813735 0 -0.00010904271 0 0)
(-2.3796376 -0.28224262 0 -0.00010615064 0 0)
(-2.3101245 -0.27727252 0 -3.645683e-05 0 0)
(-2.3588456 -0.28077633 0 -4.3387113e-05 0 0)
(-2.309428 -0.27712254 0 2.1567615e-05 0 0)
(-2.3528447 -0.28036198 0 -2.9334097e-05 0 0)
(-2.3117275 -0.27729064 0 2.6320715e-05 0 0)
(-2.3498918 -0.28015633 0 -2.646165e-05 0 0)
(-2.3139015 -0.27745493 0 2.4293614e-05 0 0)
(-2.3476133 -0.2799892 0 -2.3550122e-05 0 0)
(-2.3158507 -0.27760217 0 2.1839743e-05 0 0)
(-2.345653 -0.27984353 0 -2.0839477e-05 0 0)
(-2.3176126 -0.27773516 0 1.9509224e-05 0 0)
(-2.3439306 -0.27971525 0 -1.8490818e-05 0 0)
(-2.3191956 -0.27785452 0 1.7392196e-05 0 0)
(-2.3424057 -0.27960158 0 -1.6446666e-05 0 0)
(-2.3206118 -0.27796118 0 1.5505096e-05 0 0)
(-2.3410505 -0.27950052 0 -1.4656701e-05 0 0)
(-2.3218767 -0.27805635 0 1.383772e-05 0 0)
(-2.3398435 -0.2794105 0 -1.3087164e-05 0 0)
(-2.3230068 -0.27814127 0 1.2371916e-05 0 0)
(-2.3387665 -0.27933018 0 -1.1712646e-05 0 0)
(-2.3240175 -0.27821714 0 1.1088329e-05 0 0)
(-2.3378034 -0.27925838 0 -1.0512143e-05 0 0)
(-2.3249235 -0.27828504 0 9.9687185e-06 0 0)
(-2.3369398 -0.27919405 0 -9.4676033e-06 0 0)
(-2.3257379 -0.27834598 0 8.9966766e-06 0 0)
(-2.3361627 -0.27913623 0 -8.5633789e-06 0 0)
(-2.3264727 -0.27840085 0 8.1577978e-06 0 0)
(-2.3354605 -0.27908406 0 -7.7859759e-06 0 0)
(-2.3271388 -0.27845047 0 7.4396634e-06 0 0)
(-2.3348227 -0.27903677 0 -7.1239092e-06 0 0)
(-2.3277459 -0.27849559 0 6.8317843e-06 0 0)
(-2.3342397 -0.27899365 0 -6.5676236e-06 0 0)
(-2.3283032 -0.27853685 0 6.3255881e-06 0 0)
(-2.3337029 -0.27895406 0 -6.1094966e-06 0 0)
(-2.3288188 -0.27857489 0 5.9145854e-06 0 0)
(-2.3332042 -0.27891743 0 -5.7440959e-06 0 0)
(-2.3293003 -0.27861025 0 5.5943582e-06 0 0)
(-2.3327363 -0.27888322 0 -5.4713046e-06 0 0)
(-2.3297548 -0.27864346 0 5.359154e-06 0 0)
(-2.3322901 -0.27885084 0 -5.2991956e-06 0 0)
(-2.330185 -0.27867454 0 5.2634606e-06 0 0)
(-2.3318564 -0.27881856 0 -4.9816323e-06 0 0)
(-2.3306385 -0.27870198 0 6.3834852e-06 0 0)
(-2.3316135 -0.27880524 0 -5.9494889e-06 0 0)
(-1.6585557 -0.74496141 0 -0.27746387 0 0)
(-3.0582465 -0.34069926 0 -0.013499582 0 0)
(-2.5012248 -0.31121943 0 -0.0077618235 0 0)
(-2.3782451 -0.28160342 0 -0.00043046583 0 0)
(-2.2013601 -0.2706455 0 -0.00015682859 0 0)
(-2.2457098 -0.27419953 0 -0.00011780305 0 0)
(-2.1829332 -0.26952207 0 -5.1572173e-05 0 0)
(-2.2269502 -0.27282453 0 -4.0670895e-05 0 0)
(-2.1819964 -0.2693536 0 1.603299e-05 0 0)
(-2.2214137 -0.27242863 0 -2.5211988e-05 0 0)
(-2.1840185 -0.26950956 0 2.244801e-05 0 0)
(-2.2187167 -0.27223515 0 -2.2913519e-05 0 0)
(-2.1859857 -0.269666 0 2.089498e-05 0 0)
(-2.2166458 -0.27207675 0 -2.0415814e-05 0 0)
(-2.1877587 -0.26980631 0 1.8831869e-05 0 0)
(-2.2148619 -0.27193811 0 -1.8035862e-05 0 0)
(-2.1893607 -0.26993293 0 1.6843571e-05 0 0)
(-2.2132939 -0.27181596 0 -1.5986762e-05 0 0)
(-2.1907994 -0.27004653 0 1.5022939e-05 0 0)
(-2.211906 -0.27170775 0 -1.4212733e-05 0 0)
(-2.1920862 -0.27014802 0 1.339474e-05 0 0)
(-2.2106732 -0.27161157 0 -1.2663223e-05 0 0)
(-2.1932354 -0.27023857 0 1.1954524e-05 0 0)
(-2.2095755 -0.27152591 0 -1.130604e-05 0 0)
(-2.1942619 -0.27031936 0 1.0688032e-05 0 0)
(-2.2085963 -0.27144949 0 -1.0118067e-05 0 0)
(-2.19518 -0.27039153 0 9.5789094e-06 0 0)
(-2.2077208 -0.27138118 0 -9.0806893e-06 0 0)
(-2.1960028 -0.27045614 0 8.6114481e-06 0 0)
(-2.2069359 -0.27131997 0 -8.1781146e-06 0 0)
(-2.1967424 -0.27051412 0 7.7714537e-06 0 0)
(-2.2062298 -0.27126494 0 -7.3967426e-06 0 0)
(-2.1974096 -0.27056635 0 7.0464649e-06 0 0)
(-2.2055919 -0.27121528 0 -6.7248912e-06 0 0)
(-2.1980144 -0.27061359 0 6.4257552e-06 0 0)
(-2.2050125 -0.27117024 0 -6.1526469e-06 0 0)
(-2.1985656 -0.27065655 0 5.900285e-06 0 0)
(-2.2044832 -0.27112917 0 -5.6717881e-06 0 0)
(-2.1990714 -0.27069587 0 5.4626925e-06 0 0)
(-2.2039958 -0.27109145 0 -5.2757816e-06 0 0)
(-2.1995392 -0.27073212 0 5.1074598e-06 0 0)
(-2.2035433 -0.27105652 0 -4.9600026e-06 0 0)
(-2.199976 -0.27076584 0 4.8308279e-06 0 0)
(-2.2031189 -0.27102388 0 -4.7250428e-06 0 0)
(-2.200388 -0.27079754 0 4.6262218e-06 0 0)
(-2.2027146 -0.270993 0 -4.5807824e-06 0 0)
(-2.2007777 -0.27082722 0 4.5478206e-06 0 0)
(-2.2023195 -0.27096188 0 -4.2463092e-06 0 0)
(-2.2011788 -0.27085234 0 5.7834921e-06 0 0)
(-2.2020613 -0.27094727 0 -5.3903569e-06 0 0)
(-1.6114051 -0.71070084 0 -0.25739313 0 0)
(-2.6905643 -0.32349459 0 -0.014600174 0 0)
(-2.3340864 -0.3043825 0 -0.0085901659 0 0)
(-2.2451884 -0.27426839 0 -0.0005980027 0 0)
(-2.0836717 -0.26339687 0 -0.00024538992 0 0)
(-2.1170939 -0.26626264 0 -0.00013883764 0 0)
(-2.0596952 -0.26179438 0 -6.7395932e-05 0 0)
(-2.0992559 -0.26489004 0 -3.8864707e-05 0 0)
(-2.0581871 -0.26158664 0 1.1169338e-05 0 0)
(-2.0939306 -0.26450111 0 -2.1705838e-05 0 0)
(-2.0598641 -0.26172673 0 1.9179142e-05 0 0)
(-2.0914152 -0.26431701 0 -1.9887094e-05 0 0)
(-2.0616226 -0.26187481 0 1.8010741e-05 0 0)
(-2.0895215 -0.26416661 0 -1.7748016e-05 0 0)
(-2.0632325 -0.26200833 0 1.6272806e-05 0 0)
(-2.0878957 -0.2640347 0 -1.5650797e-05 0 0)
(-2.0646895 -0.26212879 0 1.4575322e-05 0 0)
(-2.0864673 -0.26391847 0 -1.3856692e-05 0 0)
(-2.0659979 -0.26223684 0 1.3007314e-05 0 0)
(-2.0852034 -0.26381552 0 -1.2312571e-05 0 0)
(-2.0671679 -0.26233335 0 1.1599701e-05 0 0)
(-2.0840811 -0.26372405 0 -1.0967752e-05 0 0)
(-2.0682126 -0.26241944 0 1.0352923e-05 0 0)
(-2.0830823 -0.2636426 0 -9.7913205e-06 0 0)
(-2.0691457 -0.26249625 0 9.2560786e-06 0 0)
(-2.0821914 -0.26356994 0 -8.7620891e-06 0 0)
(-2.0699802 -0.26256486 0 8.2954011e-06 0 0)
(-2.081395 -0.26350498 0 -7.8634868e-06 0 0)
(-2.070728 -0.26262629 0 7.457359e-06 0 0)
(-2.0806811 -0.26344677 0 -7.0816555e-06 0 0)
(-2.0714002 -0.26268143 0 6.7296579e-06 0 0)
(-2.080039 -0.26339443 0 -6.4047479e-06 0 0)
(-2.0720066 -0.26273111 0 6.1014996e-06 0 0)
(-2.0794589 -0.26334719 0 -5.8226289e-06 0 0)
(-2.0725562 -0.26277606 0 5.5636e-06 0 0)
(-2.0789322 -0.26330433 0 -5.3267212e-06 0 0)
(-2.073057 -0.26281694 0 5.1081476e-06 0 0)
(-2.0784511 -0.26326523 0 -4.9099277e-06 0 0)
(-2.0735165 -0.26285438 0 4.7287949e-06 0 0)
(-2.0780083 -0.26322931 0 -4.5666207e-06 0 0)
(-2.0739414 -0.2628889 0 4.4208195e-06 0 0)
(-2.0775972 -0.26319603 0 -4.2928159e-06 0 0)
(-2.0743379 -0.26292104 0 4.1809755e-06 0 0)
(-2.0772118 -0.26316493 0 -4.0895745e-06 0 0)
(-2.074712 -0.26295127 0 4.0018829e-06 0 0)
(-2.0768451 -0.26313549 0 -3.9683401e-06 0 0)
(-2.0750654 -0.2629796 0 3.9358197e-06 0 0)
(-2.0764852 -0.26310558 0 -3.6201164e-06 0 0)
(-2.0754208 -0.26300273 0 5.2425298e-06 0 0)
(-2.0762194 -0.26308989 0 -4.882255e-06 0 0)
(-1.5719243 -0.67003515 0 -0.23086024 0 0)
(-2.3499682 -0.30811636 0 -0.015614745 0 0)
(-2.1764865 -0.29732373 0 -0.0090861975 0 0)
(-2.0969272 -0.26556076 0 -0.00075689563 0 0)
(-1.9562759 -0.25541675 0 -0.00031476227 0 0)
(-1.9892905 -0.25818043 0 -0.00015676712 0 0)
(-1.9383198 -0.25398681 0 -7.9919179e-05 0 0)
(-1.9748358 -0.25693396 0 -3.6865184e-05 0 0)
(-1.9376269 -0.25380574 0 7.0697314e-06 0 0)
(-1.9701987 -0.25657228 0 -1.849262e-05 0 0)
(-1.9392149 -0.25393972 0 1.6349418e-05 0 0)
(-1.9679349 -0.2564004 0 -1.7175593e-05 0 0)
(-1.9408204 -0.2540812 0 1.546875e-05 0 0)
(-1.9662163 -0.25625827 0 -1.5375399e-05 0 0)
(-1.9422881 -0.25420842 0 1.4005337e-05 0 0)
(-1.9647367 -0.25613301 0 -1.353428e-05 0 0)
(-1.9436147 -0.25432298 0 1.2563677e-05 0 0)
(-1.9634358 -0.25602253 0 -1.1967525e-05 0 0)
(-1.944805 -0.25442566 0 1.1219737e-05 0 0)
(-1.9622848 -0.2559247 0 -1.0627649e-05 0 0)
(-1.9458691 -0.25451735 0 1.0007974e-05 0 0)
(-1.961263 -0.25583778 0 -9.4645225e-06 0 0)
(-1.9468191 -0.25459913 0 8.9328912e-06 0 0)
(-1.9603538 -0.2557604 0 -8.4484657e-06 0 0)
(-1.9476675 -0.25467209 0 7.9865663e-06 0 0)
(-1.959543 -0.25569137 0 -7.560032e-06 0 0)
(-1.9484262 -0.25473727 0 7.157549e-06 0 0)
(-1.9588184 -0.25562966 0 -6.7844821e-06 0 0)
(-1.9491062 -0.25479563 0 6.434262e-06 0 0)
(-1.9581688 -0.25557435 0 -6.1096913e-06 0 0)
(-1.9497173 -0.25484802 0 5.8061113e-06 0 0)
(-1.9575847 -0.2555246 0 -5.5253783e-06 0 0)
(-1.9502686 -0.25489523 0 5.2637827e-06 0 0)
(-1.957057 -0.25547969 0 -5.0227857e-06 0 0)
(-1.9507683 -0.25493796 0 4.7992742e-06 0 0)
(-1.956578 -0.25543894 0 -4.5945204e-06 0 0)
(-1.9512236 -0.25497685 0 4.4058605e-06 0 0)
(-1.9561405 -0.25540175 0 -4.2344766e-06 0 0)
(-1.9516412 -0.25501246 0 4.0780844e-06 0 0)
(-1.9557379 -0.25536757 0 -3.9378165e-06 0 0)
(-1.9520273 -0.25504532 0 3.8119099e-06 0 0)
(-1.9553643 -0.25533589 0 -3.7010982e-06 0 0)
(-1.9523876 -0.25507591 0 3.6045263e-06 0 0)
(-1.9550142 -0.25530627 0 -3.5257029e-06 0 0)
(-1.9527273 -0.25510472 0 3.4478674e-06 0 0)
(-1.9546814 -0.25527824 0 -3.4244464e-06 0 0)
(-1.9530481 -0.25513174 0 3.3914119e-06 0 0)
(-1.9543535 -0.25524955 0 -3.0667141e-06 0 0)
(-1.9533633 -0.25515314 0 4.733431e-06 0 0)
(-1.9540858 -0.25523299 0 -4.4063243e-06 0 0)
(-1.5719944 -0.63607367 0 -0.20631532 0 0)
(-2.0518199 -0.29213722 0 -0.016007521 0 0)
(-2.0262492 -0.28713579 0 -0.0086110759 0 0)
(-1.9647127 -0.25986219 0 -0.0015477457 0 0)
(-1.8399548 -0.24827323 0 -0.00050501136 0 0)
(-1.8678015 -0.25027746 0 -0.00019216559 0 0)
(-1.8216195 -0.24624143 0 -9.6180647e-05 0 0)
(-1.8547612 -0.2490038 0 -3.5850176e-05 0 0)
(-1.8208335 -0.24603165 0 3.1676593e-06 0 0)
(-1.8504054 -0.24865041 0 -1.5631522e-05 0 0)
(-1.8221782 -0.24615213 0 1.3817306e-05 0 0)
(-1.8482969 -0.24848685 0 -1.4726771e-05 0 0)
(-1.8236108 -0.24628581 0 1.3187944e-05 0 0)
(-1.8467224 -0.24835204 0 -1.3234953e-05 0 0)
(-1.8249423 -0.24640669 0 1.1965081e-05 0 0)
(-1.8453733 -0.24823309 0 -1.162752e-05 0 0)
(-1.826149 -0.24651551 0 1.0752501e-05 0 0)
(-1.8441883 -0.24812817 0 -1.0266497e-05 0 0)
(-1.8272317 -0.24661299 0 9.6103409e-06 0 0)
(-1.8431402 -0.24803528 0 -9.1108627e-06 0 0)
(-1.8281993 -0.24670002 0 8.5750816e-06 0 0)
(-1.8422099 -0.24795277 0 -8.1114675e-06 0 0)
(-1.8290631 -0.24677764 0 7.6546899e-06 0 0)
(-1.8413824 -0.24787931 0 -7.2398539e-06 0 0)
(-1.8298346 -0.24684688 0 6.8439189e-06 0 0)
(-1.8406445 -0.24781379 0 -6.4781804e-06 0 0)
(-1.8305244 -0.24690875 0 6.1334304e-06 0 0)
(-1.8399851 -0.2477552 0 -5.8133821e-06 0 0)
(-1.8311427 -0.24696414 0 5.5134271e-06 0 0)
(-1.8393941 -0.24770269 0 -5.2349125e-06 0 0)
(-1.8316984 -0.24701389 0 4.9748601e-06 0 0)
(-1.8388626 -0.24765545 0 -4.733911e-06 0 0)
(-1.8321997 -0.24705873 0 4.5097594e-06 0 0)
(-1.8383826 -0.24761279 0 -4.3028646e-06 0 0)
(-1.832654 -0.24709932 0 4.1112792e-06 0 0)
(-1.8379469 -0.24757407 0 -3.9354458e-06 0 0)
(-1.8330679 -0.24713626 0 3.7736691e-06 0 0)
(-1.837549 -0.24753873 0 -3.6264353e-06 0 0)
(-1.8334475 -0.24717011 0 3.4922652e-06 0 0)
(-1.837183 -0.24750623 0 -3.3716961e-06 0 0)
(-1.8337984 -0.24720136 0 3.2636342e-06 0 0)
(-1.8368434 -0.2474761 0 -3.1682557e-06 0 0)
(-1.8341258 -0.24723046 0 3.0853435e-06 0 0)
(-1.8365253 -0.24744791 0 -3.017699e-06 0 0)
(-1.8344344 -0.24725789 0 2.9487842e-06 0 0)
(-1.8362231 -0.24742125 0 -2.9339915e-06 0 0)
(-1.8347257 -0.24728365 0 2.900076e-06 0 0)
(-1.8359246 -0.2473938 0 -2.5709897e-06 0 0)
(-1.8350055 -0.24730354 0 4.2472802e-06 0 0)
(-1.8356592 -0.24737653 0 -3.9584006e-06 0 0)
(-1.5854913 -0.60297896 0 -0.18206519 0 0)
(-1.8163648 -0.27993365 0 -0.016755663 0 0)
(-1.8735098 -0.2739784 0 -0.0076713242 0 0)
(-1.82723 -0.25227192 0 -0.0019925448 0 0)
(-1.7215552 -0.24046762 0 -0.000605585 0 0)
(-1.7486345 -0.24223002 0 -0.00020949771 0 0)
(-1.7075296 -0.23842192 0 -0.0001043776 0 0)
(-1.7381092 -0.24105165 0 -3.3027059e-05 0 0)
(-1.7073893 -0.23824348 0 3.2982429e-07 0 0)
(-1.7343381 -0.24072677 0 -1.2813293e-05 0 0)
(-1.7086807 -0.2383602 0 1.1634225e-05 0 0)
(-1.7324474 -0.24057471 0 -1.2475217e-05 0 0)
(-1.7099906 -0.23848796 0 1.1147328e-05 0 0)
(-1.7310197 -0.24044759 0 -1.1292127e-05 0 0)
(-1.7112043 -0.23860303 0 1.0125543e-05 0 0)
(-1.729793 -0.24033489 0 -9.9029959e-06 0 0)
(-1.7123027 -0.23870635 0 9.1169468e-06 0 0)
(-1.7287146 -0.24023537 0 -8.7296228e-06 0 0)
(-1.7132873 -0.23879883 0 8.1567151e-06 0 0)
(-1.7277607 -0.24014726 0 -7.7409001e-06 0 0)
(-1.714167 -0.23888137 0 7.2809569e-06 0 0)
(-1.7269142 -0.24006899 0 -6.8895551e-06 0 0)
(-1.7149521 -0.23895497 0 6.5003571e-06 0 0)
(-1.7261612 -0.23999933 0 -6.1484531e-06 0 0)
(-1.7156533 -0.23902063 0 5.8120426e-06 0 0)
(-1.72549 -0.23993718 0 -5.5012641e-06 0 0)
(-1.7162804 -0.23907931 0 5.2085973e-06 0 0)
(-1.7248901 -0.23988161 0 -4.9364643e-06 0 0)
(-1.7168424 -0.23913185 0 4.68185e-06 0 0)
(-1.7243526 -0.23983178 0 -4.4449498e-06 0 0)
(-1.7173475 -0.23917905 0 4.2241594e-06 0 0)
(-1.7238691 -0.23978696 0 -4.0191525e-06 0 0)
(-1.7178032 -0.23922159 0 3.8287756e-06 0 0)
(-1.7234326 -0.23974647 0 -3.6526864e-06 0 0)
(-1.7182162 -0.23926012 0 3.4898976e-06 0 0)
(-1.7230364 -0.23970972 0 -3.340185e-06 0 0)
(-1.7185924 -0.2392952 0 3.2026526e-06 0 0)
(-1.7226746 -0.23967615 0 -3.0772246e-06 0 0)
(-1.7189374 -0.23932735 0 2.9630865e-06 0 0)
(-1.7223418 -0.23964528 0 -2.8602924e-06 0 0)
(-1.7192563 -0.23935703 0 2.7682972e-06 0 0)
(-1.7220332 -0.23961664 0 -2.6868261e-06 0 0)
(-1.7195536 -0.2393847 0 2.616184e-06 0 0)
(-1.7217442 -0.23958985 0 -2.5585197e-06 0 0)
(-1.719834 -0.23941078 0 2.497749e-06 0 0)
(-1.72147 -0.2395645 0 -2.4902354e-06 0 0)
(-1.7200985 -0.23943532 0 2.4554441e-06 0 0)
(-1.7211983 -0.23953829 0 -2.1259982e-06 0 0)
(-1.7203468 -0.23945389 0 3.782196e-06 0 0)
(-1.7209383 -0.23952049 0 -3.5386531e-06 0 0)
(-1.5870614 -0.58418845 0 -0.1698973 0 0)
(-1.6380368 -0.26451893 0 -0.015615283 0 0)
(-1.7269025 -0.26662703 0 -0.0090447352 0 0)
(-1.6994942 -0.24370539 0 -0.0020449651 0 0)
(-1.6101915 -0.23263549 0 -0.00064412546 0 0)
(-1.634857 -0.23421362 0 -0.00021143159 0 0)
(-1.5977484 -0.23061694 0 -0.00010696916 0 0)
(-1.6256162 -0.23311114 0 -2.8589813e-05 0 0)
(-1.5976752 -0.23045678 0 -1.639397e-06 0 0)
(-1.6221454 -0.23280774 0 -1.0046681e-05 0 0)
(-1.5988083 -0.23056687 0 9.7483752e-06 0 0)
(-1.6204055 -0.23266513 0 -1.0401701e-05 0 0)
(-1.5999846 -0.23068824 0 9.3159314e-06 0 0)
(-1.6191031 -0.23254511 0 -9.5239517e-06 0 0)
(-1.6010865 -0.23079756 0 8.4625781e-06 0 0)
(-1.6179872 -0.2324384 0 -8.3389282e-06 0 0)
(-1.602085 -0.23089557 0 7.6360909e-06 0 0)
(-1.6170065 -0.2323441 0 -7.3372475e-06 0 0)
(-1.6029798 -0.23098322 0 6.8402485e-06 0 0)
(-1.616139 -0.23226059 0 -6.5001753e-06 0 0)
(-1.6037789 -0.23106143 0 6.1089701e-06 0 0)
(-1.6153692 -0.23218643 0 -5.783055e-06 0 0)
(-1.6044922 -0.23113117 0 5.4550161e-06 0 0)
(-1.6146846 -0.23212041 0 -5.1601801e-06 0 0)
(-1.6051291 -0.23119338 0 4.8776113e-06 0 0)
(-1.6140743 -0.23206151 0 -4.6166566e-06 0 0)
(-1.6056988 -0.23124898 0 4.3710914e-06 0 0)
(-1.613529 -0.23200884 0 -4.142385e-06 0 0)
(-1.6062093 -0.23129878 0 3.9287729e-06 0 0)
(-1.6130403 -0.23196161 0 -3.7295828e-06 0 0)
(-1.6066682 -0.23134352 0 3.5442991e-06 0 0)
(-1.6126009 -0.23191911 0 -3.3718591e-06 0 0)
(-1.6070823 -0.23138386 0 3.2120285e-06 0 0)
(-1.6122041 -0.23188072 0 -3.0638504e-06 0 0)
(-1.6074574 -0.2314204 0 2.9271068e-06 0 0)
(-1.611844 -0.23184585 0 -2.8010586e-06 0 0)
(-1.6077992 -0.23145368 0 2.6854526e-06 0 0)
(-1.6115152 -0.231814 0 -2.5797757e-06 0 0)
(-1.6081126 -0.23148418 0 2.4837491e-06 0 0)
(-1.6112129 -0.2317847 0 -2.3970478e-06 0 0)
(-1.6084022 -0.23151236 0 2.3195653e-06 0 0)
(-1.6109326 -0.23175751 0 -2.2506749e-06 0 0)
(-1.6086722 -0.23153863 0 2.1910958e-06 0 0)
(-1.6106702 -0.23173206 0 -2.1423872e-06 0 0)
(-1.6089267 -0.23156342 0 2.0891128e-06 0 0)
(-1.6104214 -0.23170799 0 -2.0876733e-06 0 0)
(-1.6091669 -0.23158677 0 2.0522955e-06 0 0)
(-1.6101745 -0.23168301 0 -1.7260701e-06 0 0)
(-1.6093871 -0.23160418 0 3.336915e-06 0 0)
(-1.6099222 -0.23166483 0 -3.1468719e-06 0 0)
(-1.5853249 -0.54675196 0 -0.14627461 0 0)
(-1.4875954 -0.25404464 0 -0.015630836 0 0)
(-1.5824516 -0.256124 0 -0.0090757606 0 0)
(-1.5810921 -0.23409491 0 -0.00155876 0 0)
(-1.5062343 -0.22468119 0 -0.00057278133 0 0)
(-1.5260712 -0.22614048 0 -0.00018125033 0 0)
(-1.4920273 -0.22278234 0 -9.7807881e-05 0 0)
(-1.5171216 -0.22516337 0 -2.0511131e-05 0 0)
(-1.4916276 -0.2226633 0 -2.0636303e-06 0 0)
(-1.5137795 -0.22488961 0 -7.0561881e-06 0 0)
(-1.4925553 -0.2227706 0 8.2208771e-06 0 0)
(-1.5121542 -0.22475734 0 -8.4462805e-06 0 0)
(-1.4935993 -0.22288639 0 7.6829677e-06 0 0)
(-1.5109628 -0.2246444 0 -7.9020936e-06 0 0)
(-1.4945968 -0.22299029 0 6.9572623e-06 0 0)
(-1.509948 -0.22454354 0 -6.9140125e-06 0 0)
(-1.4955034 -0.22308321 0 6.2913805e-06 0 0)
(-1.509057 -0.2244543 0 -6.0710997e-06 0 0)
(-1.4963157 -0.22316622 0 5.6440167e-06 0 0)
(-1.508269 -0.22437524 0 -5.3725227e-06 0 0)
(-1.4970411 -0.22324025 0 5.0439137e-06 0 0)
(-1.5075697 -0.22430503 0 -4.7775479e-06 0 0)
(-1.4976884 -0.22330627 0 4.5050453e-06 0 0)
(-1.5069478 -0.22424252 0 -4.2621375e-06 0 0)
(-1.4982665 -0.22336517 0 4.0284225e-06 0 0)
(-1.5063935 -0.22418675 0 -3.8128005e-06 0 0)
(-1.4987835 -0.22341781 0 3.6099652e-06 0 0)
(-1.5058982 -0.22413687 0 -3.4207646e-06 0 0)
(-1.4992469 -0.22346496 0 3.2443498e-06 0 0)
(-1.5054543 -0.22409214 0 -3.0794614e-06 0 0)
(-1.4996635 -0.22350734 0 2.9263931e-06 0 0)
(-1.5050552 -0.22405188 0 -2.7835751e-06 0 0)
(-1.5000393 -0.22354555 0 2.6514631e-06 0 0)
(-1.5046949 -0.2240155 0 -2.5286716e-06 0 0)
(-1.5003798 -0.22358018 0 2.4155647e-06 0 0)
(-1.5043679 -0.22398245 0 -2.3110395e-06 0 0)
(-1.5006901 -0.22361171 0 2.2153327e-06 0 0)
(-1.5040694 -0.22395226 0 -2.1276173e-06 0 0)
(-1.5009745 -0.22364063 0 2.0480247e-06 0 0)
(-1.5037949 -0.22392447 0 -1.9759541e-06 0 0)
(-1.5012372 -0.22366736 0 1.911631e-06 0 0)
(-1.5035405 -0.22389869 0 -1.8541744e-06 0 0)
(-1.5014822 -0.22369228 0 1.8046115e-06 0 0)
(-1.5033025 -0.22387453 0 -1.7639886e-06 0 0)
(-1.501713 -0.22371581 0 1.7176682e-06 0 0)
(-1.5030771 -0.2238517 0 -1.7212321e-06 0 0)
(-1.501931 -0.22373801 0 1.6857539e-06 0 0)
(-1.5028528 -0.22382794 0 -1.3659365e-06 0 0)
(-1.5021262 -0.22375439 0 2.9100693e-06 0 0)
(-1.50261 -0.2238095 0 -2.7822107e-06 0 0)
(-1.5824438 -0.52757117 0 -0.13531893 0 0)
(-1.3651645 -0.24184726 0 -0.014860129 0 0)
(-1.4523874 -0.24565913 0 -0.0090361965 0 0)
(-1.4721371 -0.22509389 0 -0.0011977605 0 0)
(-1.4063905 -0.2168207 0 -0.00050848878 0 0)
(-1.4219663 -0.21813632 0 -0.00014880411 0 0)
(-1.390259 -0.21496559 0 -8.6976985e-05 0 0)
(-1.4126612 -0.21723095 0 -1.187151e-05 0 0)
(-1.3893073 -0.21487308 0 -1.9669583e-06 0 0)
(-1.4092706 -0.21697707 0 -4.1301356e-06 0 0)
(-1.3899552 -0.21497371 0 6.9269449e-06 0 0)
(-1.4076992 -0.21685238 0 -6.619869e-06 0 0)
(-1.3908505 -0.21508301 0 6.217404e-06 0 0)
(-1.4065954 -0.21674567 0 -6.4109164e-06 0 0)
(-1.3917444 -0.2151814 0 5.5905158e-06 0 0)
(-1.40567 -0.21665032 0 -5.6115734e-06 0 0)
(-1.3925646 -0.21526934 0 5.0666665e-06 0 0)
(-1.4048607 -0.21656593 0 -4.9160119e-06 0 0)
(-1.3933008 -0.21534786 0 4.5536559e-06 0 0)
(-1.4041456 -0.21649116 0 -4.3443689e-06 0 0)
(-1.3939583 -0.21541788 0 4.0729468e-06 0 0)
(-1.4035111 -0.21642475 0 -3.860896e-06 0 0)
(-1.3945451 -0.21548031 0 3.6389598e-06 0 0)
(-1.4029469 -0.21636562 0 -3.4434626e-06 0 0)
(-1.3950691 -0.21553601 0 3.2541944e-06 0 0)
(-1.402444 -0.21631287 0 -3.0799613e-06 0 0)
(-1.3955378 -0.21558581 0 2.9159975e-06 0 0)
(-1.4019946 -0.21626568 0 -2.7628613e-06 0 0)
(-1.395958 -0.21563042 0 2.6202893e-06 0 0)
(-1.4015919 -0.21622334 0 -2.486712e-06 0 0)
(-1.3963357 -0.21567052 0 2.3629594e-06 0 0)
(-1.4012299 -0.21618524 0 -2.2471799e-06 0 0)
(-1.3966765 -0.21570669 0 2.1402969e-06 0 0)
(-1.400903 -0.2161508 0 -2.0406777e-06 0 0)
(-1.3969852 -0.21573947 0 1.9490877e-06 0 0)
(-1.4006064 -0.21611951 0 -1.8642079e-06 0 0)
(-1.3972665 -0.21576933 0 1.786617e-06 0 0)
(-1.4003357 -0.21609092 0 -1.7152951e-06 0 0)
(-1.3975243 -0.21579672 0 1.6506625e-06 0 0)
(-1.4000869 -0.21606459 0 -1.5919429e-06 0 0)
(-1.3977624 -0.21582204 0 1.5395926e-06 0 0)
(-1.3998562 -0.21604015 0 -1.4925703e-06 0 0)
(-1.3979844 -0.21584566 0 1.4521085e-06 0 0)
(-1.3996405 -0.21601726 0 -1.4188254e-06 0 0)