/*--------------------------------*- C++ -*----------------------------------*\
| =========                 |                                                 |
| \\      /  F ield         | OpenFOAM: The Open Source CFD Toolbox           |
|  \\    /   O peration     | Version:  2312                                  |
|   \\  /    A nd           | Website:  www.openfoam.com                      |
|    \\/     M anipulation  |                                                 |
\*---------------------------------------------------------------------------*/
FoamFile
{
    version     2.0;
    format      ascii;
    arch        "LSB;label=32;scalar=64";
    class       volSymmTensorField;
    location    "10";
    object      sigma;
}
// * * * * * * * * * * * * * * * * * * * * * * * * * * * * * * * * * * * * * //

dimensions      [0 2 -2 0 0 0 0];

internalField   nonuniform List<symmTensor> 
4000
(
(-2.2617572 -1.0109035 0 -0.40768988 0 0)
(-5.6693269 -0.44159872 0 -0.0029514004 0 0)
(-2.92455 -0.31334708 0 -0.00086333435 0 0)
(-3.1205365 -0.32244764 0 1.1475574e-05 0 0)
(-2.9361275 -0.31268185 0 2.0632559e-05 0 0)
(-3.0381212 -0.31850014 0 -5.4118993e-05 0 0)
(-2.9203699 -0.31180932 0 3.4632139e-05 0 0)
(-3.0026406 -0.31657236 0 -4.2813326e-05 0 0)
(-2.923152 -0.31196348 0 3.8246559e-05 0 0)
(-2.9936723 -0.31607519 0 -3.7476386e-05 0 0)
(-2.9275154 -0.31221577 0 3.50742e-05 0 0)
(-2.9889237 -0.31580432 0 -3.3387185e-05 0 0)
(-2.9310965 -0.31242526 0 3.1366916e-05 0 0)
(-2.9852569 -0.31559259 0 -2.9690605e-05 0 0)
(-2.9342442 -0.31260964 0 2.7940433e-05 0 0)
(-2.9821323 -0.31541149 0 -2.6396747e-05 0 0)
(-2.9370792 -0.31277544 0 2.4871873e-05 0 0)
(-2.9793876 -0.31525227 0 -2.3486386e-05 0 0)
(-2.9396239 -0.31292406 0 2.2148523e-05 0 0)
(-2.976953 -0.315111 0 -2.0917836e-05 0 0)
(-2.9419005 -0.31305687 0 1.974112e-05 0 0)
(-2.9747856 -0.31498524 0 -1.8653662e-05 0 0)
(-2.943935 -0.31317544 0 1.7619161e-05 0 0)
(-2.9728524 -0.31487311 0 -1.6661828e-05 0 0)
(-2.9457534 -0.31328131 0 1.5754166e-05 0 0)
(-2.9711255 -0.31477299 0 -1.4914305e-05 0 0)
(-2.9473806 -0.31337593 0 1.4120271e-05 0 0)
(-2.9695801 -0.31468346 0 -1.3386264e-05 0 0)
(-2.9488393 -0.31346062 0 1.2694269e-05 0 0)
(-2.9681937 -0.31460326 0 -1.2055674e-05 0 0)
(-2.9501504 -0.31353659 0 1.1455525e-05 0 0)
(-2.9669462 -0.31453122 0 -1.0903089e-05 0 0)
(-2.9513329 -0.31360495 0 1.0385864e-05 0 0)
(-2.965819 -0.31446628 0 -9.9114844e-06 0 0)
(-2.9524042 -0.31366669 0 9.4694491e-06 0 0)
(-2.9647956 -0.3144075 0 -9.0661224e-06 0 0)
(-2.95338 -0.31372272 0 8.692657e-06 0 0)
(-2.9638607 -0.314354 0 -8.3544294e-06 0 0)
(-2.9542748 -0.31377387 0 8.0439725e-06 0 0)
(-2.9630004 -0.314305 0 -7.7658951e-06 0 0)
(-2.9551018 -0.3138209 0 7.513919e-06 0 0)
(-2.962202 -0.31425977 0 -7.2920613e-06 0 0)
(-2.9558732 -0.3138645 0 7.0949746e-06 0 0)
(-2.9614535 -0.31421764 0 -6.9270101e-06 0 0)
(-2.9565992 -0.31390524 0 6.781636e-06 0 0)
(-2.9607414 -0.31417785 0 -6.6657663e-06 0 0)
(-2.9572915 -0.31394371 0 6.5873407e-06 0 0)
(-2.9600895 -0.3141414 0 -6.4544523e-06 0 0)
(-2.9581322 -0.31398876 0 6.6837123e-06 0 0)
(-2.960073 -0.31414019 0 -6.4789076e-06 0 0)
(-1.959254 -0.91706083 0 -0.38089775 0 0)
(-4.8788144 -0.42196678 0 -0.0080981826 0 0)
(-2.988103 -0.32154112 0 -0.0025853399 0 0)
(-2.8822306 -0.30961275 0 -2.226808e-05 0 0)
(-2.7212594 -0.30107603 0 -7.2340523e-06 0 0)
(-2.8096657 -0.30646634 0 -7.4315068e-05 0 0)
(-2.7111637 -0.30038818 0 1.8674224e-05 0 0)
(-2.7791867 -0.30465608 0 -4.8772346e-05 0 0)
(-2.7117204 -0.30038632 0 3.9081568e-05 0 0)
(-2.7713894 -0.30419226 0 -4.0758905e-05 0 0)
(-2.7152148 -0.30060528 0 3.7766514e-05 0 0)
(-2.7673864 -0.30394558 0 -3.6432276e-05 0 0)
(-2.7182266 -0.30079804 0 3.4055776e-05 0 0)
(-2.7642694 -0.30374922 0 -3.2406315e-05 0 0)
(-2.7208919 -0.30096927 0 3.0408176e-05 0 0)
(-2.7616019 -0.30358012 0 -2.8785999e-05 0 0)
(-2.7232986 -0.3011237 0 2.7090272e-05 0 0)
(-2.7592591 -0.30343137 0 -2.5599447e-05 0 0)
(-2.7254609 -0.30126225 0 2.4130364e-05 0 0)
(-2.7571822 -0.30329946 0 -2.2794841e-05 0 0)
(-2.7273956 -0.30138607 0 2.1509376e-05 0 0)
(-2.7553341 -0.30318208 0 -2.032581e-05 0 0)
(-2.7291246 -0.30149661 0 1.9198061e-05 0 0)
(-2.7536862 -0.30307744 0 -1.815518e-05 0 0)
(-2.73067 -0.30159528 0 1.7166607e-05 0 0)
(-2.7522144 -0.30298404 0 -1.6251551e-05 0 0)
(-2.732053 -0.30168345 0 1.5387148e-05 0 0)
(-2.7508972 -0.30290054 0 -1.458751e-05 0 0)
(-2.733293 -0.30176237 0 1.3834435e-05 0 0)
(-2.7497155 -0.30282574 0 -1.3138895e-05 0 0)
(-2.7344078 -0.30183317 0 1.2485968e-05 0 0)
(-2.7486519 -0.30275854 0 -1.1884453e-05 0 0)
(-2.7354138 -0.30189687 0 1.1321943e-05 0 0)
(-2.7476906 -0.30269797 0 -1.0805639e-05 0 0)
(-2.7363257 -0.30195443 0 1.0325148e-05 0 0)
(-2.7468173 -0.30264311 0 -9.8864654e-06 0 0)
(-2.737157 -0.30200668 0 9.4808497e-06 0 0)
(-2.746019 -0.30259318 0 -9.113386e-06 0 0)
(-2.73792 -0.30205441 0 8.7767126e-06 0 0)
(-2.7452838 -0.30254742 0 -8.4752281e-06 0 0)
(-2.7386259 -0.30209831 0 8.2028139e-06 0 0)
(-2.7446008 -0.30250516 0 -7.9633142e-06 0 0)
(-2.7392853 -0.30213903 0 7.7515974e-06 0 0)
(-2.7439598 -0.30246577 0 -7.5729619e-06 0 0)
(-2.739907 -0.30217714 0 7.4173011e-06 0 0)
(-2.7433487 -0.30242856 0 -7.3020077e-06 0 0)
(-2.7404976 -0.30221286 0 7.2344187e-06 0 0)
(-2.7427706 -0.30239305 0 -7.0217944e-06 0 0)
(-2.7411677 -0.30225008 0 7.7064656e-06 0 0)
(-2.7426372 -0.30238463 0 -6.9646719e-06 0 0)
(-1.8636059 -0.87224163 0 -0.35471021 0 0)
(-4.2814379 -0.3946121 0 -0.0095800657 0 0)
(-2.902207 -0.3208609 0 -0.0038792307 0 0)
(-2.7520957 -0.30250206 0 -0.00012151315 0 0)
(-2.5824089 -0.29328898 0 -2.9536839e-05 0 0)
(-2.6612962 -0.29837378 0 -8.5464863e-05 0 0)
(-2.5744176 -0.29269616 0 2.5555969e-06 0 0)
(-2.6347281 -0.29669019 0 -4.9479711e-05 0 0)
(-2.5744362 -0.29263508 0 3.553165e-05 0 0)
(-2.627628 -0.29624381 0 -3.9195474e-05 0 0)
(-2.5774632 -0.29283634 0 3.5996337e-05 0 0)
(-2.6240518 -0.29601181 0 -3.5081043e-05 0 0)
(-2.5801462 -0.29301921 0 3.2644754e-05 0 0)
(-2.6212716 -0.29582574 0 -3.1202735e-05 0 0)
(-2.5825272 -0.2931821 0 2.9197819e-05 0 0)
(-2.6188877 -0.29566487 0 -2.7692923e-05 0 0)
(-2.5846783 -0.29332913 0 2.6029255e-05 0 0)
(-2.616794 -0.29552331 0 -2.4615545e-05 0 0)
(-2.5866115 -0.29346107 0 2.3190535e-05 0 0)
(-2.6149386 -0.29539779 0 -2.1913794e-05 0 0)
(-2.5883415 -0.293579 0 2.0672833e-05 0 0)
(-2.613288 -0.29528612 0 -1.9537981e-05 0 0)
(-2.5898874 -0.29368426 0 1.8451411e-05 0 0)
(-2.6118167 -0.2951866 0 -1.7450365e-05 0 0)
(-2.5912692 -0.29377822 0 1.6498709e-05 0 0)
(-2.6105028 -0.29509776 0 -1.5620018e-05 0 0)
(-2.5925056 -0.29386218 0 1.4788254e-05 0 0)
(-2.609327 -0.29501835 0 -1.4020295e-05 0 0)
(-2.5936142 -0.29393733 0 1.3295841e-05 0 0)
(-2.6082722 -0.2949472 0 -1.2627839e-05 0 0)
(-2.594611 -0.29400475 0 1.1999843e-05 0 0)
(-2.6073226 -0.29488327 0 -1.1422166e-05 0 0)
(-2.5955106 -0.29406543 0 1.0881233e-05 0 0)
(-2.6064643 -0.29482562 0 -1.0385454e-05 0 0)
(-2.5963261 -0.29412027 0 9.9235097e-06 0 0)
(-2.6056844 -0.2947734 0 -9.5023929e-06 0 0)
(-2.5970697 -0.29417008 0 9.1126068e-06 0 0)
(-2.6049712 -0.29472583 0 -8.7600911e-06 0 0)
(-2.5977524 -0.29421559 0 8.4368541e-06 0 0)
(-2.6043142 -0.29468221 0 -8.148058e-06 0 0)
(-2.5983842 -0.29425748 0 7.8870811e-06 0 0)
(-2.6037036 -0.29464191 0 -7.6584357e-06 0 0)
(-2.5989745 -0.29429637 0 7.4566789e-06 0 0)
(-2.6031301 -0.29460432 0 -7.2882445e-06 0 0)
(-2.5995315 -0.2943328 0 7.1404275e-06 0 0)
(-2.6025829 -0.29456878 0 -7.0398329e-06 0 0)
(-2.6000603 -0.29436689 0 6.9825525e-06 0 0)
(-2.6020599 -0.29453436 0 -6.752798e-06 0 0)
(-2.6006469 -0.29440047 0 7.6895415e-06 0 0)
(-2.6018825 -0.29452443 0 -7.1311487e-06 0 0)
(-1.7715966 -0.81904561 0 -0.3223365 0 0)
(-3.867428 -0.37753721 0 -0.011288045 0 0)
(-2.8001669 -0.32000377 0 -0.005356748 0 0)
(-2.6289562 -0.2956425 0 -0.00022759168 0 0)
(-2.4498776 -0.28565391 0 -6.5963168e-05 0 0)
(-2.5180238 -0.29029675 0 -9.514902e-05 0 0)
(-2.4406498 -0.28499759 0 -1.8113936e-05 0 0)
(-2.4947038 -0.28872915 0 -4.6468134e-05 0 0)
(-2.4402876 -0.28488406 0 2.8305839e-05 0 0)
(-2.4881993 -0.28829897 0 -3.4195528e-05 0 0)
(-2.4429215 -0.2850675 0 3.1038164e-05 0 0)
(-2.4849635 -0.28808085 0 -3.0704182e-05 0 0)
(-2.4453302 -0.28524052 0 2.8389454e-05 0 0)
(-2.4824546 -0.28790468 0 -2.7314787e-05 0 0)
(-2.4474769 -0.28539513 0 2.5455735e-05 0 0)
(-2.4802991 -0.28775175 0 -2.4210826e-05 0 0)
(-2.4494168 -0.28553476 0 2.271563e-05 0 0)
(-2.4784057 -0.28761714 0 -2.150425e-05 0 0)
(-2.4511603 -0.28566008 0 2.0244847e-05 0 0)
(-2.4767284 -0.28749782 0 -1.9137157e-05 0 0)
(-2.4527205 -0.28577209 0 1.8048237e-05 0 0)
(-2.475237 -0.28739168 0 -1.7059339e-05 0 0)
(-2.4541146 -0.28587206 0 1.6108657e-05 0 0)
(-2.473908 -0.2872971 0 -1.5235081e-05 0 0)
(-2.4553604 -0.2859613 0 1.440345e-05 0 0)
(-2.4727214 -0.28721269 0 -1.3636319e-05 0 0)
(-2.4564752 -0.28604104 0 1.2909855e-05 0 0)
(-2.4716599 -0.28713723 0 -1.223934e-05 0 0)
(-2.4574746 -0.28611242 0 1.160677e-05 0 0)
(-2.4707077 -0.28706961 0 -1.1023541e-05 0 0)
(-2.4583732 -0.28617647 0 1.0475276e-05 0 0)
(-2.4698507 -0.28700883 0 -9.970936e-06 0 0)
(-2.4591841 -0.28623414 0 9.4987312e-06 0 0)
(-2.4690761 -0.28695402 0 -9.0659334e-06 0 0)
(-2.4599192 -0.28628628 0 8.6627375e-06 0 0)
(-2.4683724 -0.28690434 0 -8.2951915e-06 0 0)
(-2.4605895 -0.28633366 0 7.9550742e-06 0 0)
(-2.467729 -0.28685906 0 -7.6475445e-06 0 0)
(-2.4612048 -0.28637697 0 7.3656827e-06 0 0)
(-2.4671364 -0.28681752 0 -7.1140075e-06 0 0)
(-2.4617742 -0.28641688 0 6.8868238e-06 0 0)
(-2.4665857 -0.2867791 0 -6.6880542e-06 0 0)
(-2.4623062 -0.28645395 0 6.5131325e-06 0 0)
(-2.4660686 -0.28674324 0 -6.3684221e-06 0 0)
(-2.4628084 -0.28648873 0 6.2394187e-06 0 0)
(-2.4655753 -0.28670932 0 -6.1607813e-06 0 0)
(-2.4632844 -0.28652126 0 6.1177242e-06 0 0)
(-2.465099 -0.28667592 0 -5.8590629e-06 0 0)
(-2.4637983 -0.28655144 0 7.0666871e-06 0 0)
(-2.4648813 -0.28666408 0 -6.5687396e-06 0 0)
(-1.7274001 -0.79044508 0 -0.30474636 0 0)
(-3.4493172 -0.35904336 0 -0.012664507 0 0)
(-2.6585316 -0.31631728 0 -0.0066379759 0 0)
(-2.5055802 -0.28876718 0 -0.00033491485 0 0)
(-2.323652 -0.27814221 0 -0.00010939836 0 0)
(-2.3796559 -0.28224447 0 -0.00010622561 0 0)
(-2.31014 -0.27727401 0 -3.6566312e-05 0 0)
(-2.3588395 -0.28077622 0 -4.3414183e-05 0 0)
(-2.309436 -0.27712316 0 2.1540846e-05 0 0)
(-2.3528361 -0.28036143 0 -2.932282e-05 0 0)
(-2.3117351 -0.2772912 0 2.6306376e-05 0 0)
(-2.3498843 -0.28015579 0 -2.6448541e-05 0 0)
(-2.313908 -0.27745542 0 2.4282423e-05 0 0)
(-2.3476075 -0.27998877 0 -2.354031e-05 0 0)
(-2.3158555 -0.27760255 0 2.1831812e-05 0 0)
(-2.3456491 -0.27984322 0 -2.0833089e-05 0 0)
(-2.3176156 -0.27773541 0 1.9504389e-05 0 0)
(-2.3439284 -0.27971506 0 -1.8487311e-05 0 0)
(-2.3191972 -0.27785466 0 1.7389851e-05 0 0)
(-2.3424046 -0.27960149 0 -1.6445288e-05 0 0)
(-2.3206123 -0.27796124 0 1.5504492e-05 0 0)
(-2.3410503 -0.27950049 0 -1.4656704e-05 0 0)
(-2.3218766 -0.27805635 0 1.3838165e-05 0 0)
(-2.3398438 -0.27941051 0 -1.3087922e-05 0 0)
(-2.3230063 -0.27814124 0 1.2372868e-05 0 0)
(-2.3387671 -0.27933021 0 -1.1713704e-05 0 0)
(-2.324017 -0.2782171 0 1.1089417e-05 0 0)
(-2.337804 -0.27925842 0 -1.0513209e-05 0 0)
(-2.324923 -0.278285 0 9.969722e-06 0 0)
(-2.3369403 -0.27919409 0 -9.4685203e-06 0 0)
(-2.3257374 -0.27834594 0 8.9974918e-06 0 0)
(-2.3361631 -0.27913626 0 -8.5640867e-06 0 0)
(-2.3264724 -0.27840082 0 8.158398e-06 0 0)
(-2.3354608 -0.27908409 0 -7.7864739e-06 0 0)
(-2.3271385 -0.27845045 0 7.4400664e-06 0 0)
(-2.3348229 -0.27903679 0 -7.1242276e-06 0 0)
(-2.3277458 -0.27849557 0 6.8320281e-06 0 0)
(-2.3342399 -0.27899366 0 -6.5678041e-06 0 0)
(-2.3283031 -0.27853685 0 6.3257149e-06 0 0)
(-2.333703 -0.27895407 0 -6.1095798e-06 0 0)
(-2.3288187 -0.27857488 0 5.9146329e-06 0 0)
(-2.3332043 -0.27891743 0 -5.7441158e-06 0 0)
(-2.3293003 -0.27861025 0 5.5943561e-06 0 0)
(-2.3327363 -0.27888322 0 -5.4712862e-06 0 0)
(-2.3297548 -0.27864346 0 5.3591231e-06 0 0)
(-2.3322901 -0.27885084 0 -5.2991558e-06 0 0)
(-2.330185 -0.27867454 0 5.2634141e-06 0 0)
(-2.3318564 -0.27881856 0 -4.9815822e-06 0 0)
(-2.3306385 -0.27870198 0 6.383418e-06 0 0)
(-2.3316135 -0.27880524 0 -5.9494346e-06 0 0)
(-1.6449645 -0.73675882 0 -0.27279625 0 0)
(-3.0554374 -0.33983413 0 -0.01327524 0 0)
(-2.5013924 -0.31117578 0 -0.0077447372 0 0)
(-2.3784299 -0.28161254 0 -0.00042995175 0 0)
(-2.2014291 -0.27065118 0 -0.00015732391 0 0)
(-2.2457242 -0.2742012 0 -0.00011791235 0 0)
(-2.1829485 -0.26952371 0 -5.1701829e-05 0 0)
(-2.2269436 -0.27282437 0 -4.070571e-05 0 0)
(-2.182004 -0.26935427 0 1.6004141e-05 0 0)
(-2.2214056 -0.27242807 0 -2.5202615e-05 0 0)
(-2.1840253 -0.2695101 0 2.2435104e-05 0 0)
(-2.2187101 -0.27223464 0 -2.2902249e-05 0 0)
(-2.1859912 -0.26966644 0 2.0885727e-05 0 0)
(-2.216641 -0.27207637 0 -2.0407901e-05 0 0)
(-2.1877625 -0.26980663 0 1.8825754e-05 0 0)
(-2.2148589 -0.27193786 0 -1.8031117e-05 0 0)
(-2.1893629 -0.26993312 0 1.6840186e-05 0 0)
(-2.2132923 -0.27181582 0 -1.5984488e-05 0 0)
(-2.1908005 -0.27004663 0 1.5021609e-05 0 0)
(-2.2119054 -0.27170769 0 -1.4212161e-05 0 0)
(-2.1920865 -0.27014805 0 1.3394749e-05 0 0)
(-2.2106732 -0.27161157 0 -1.2663667e-05 0 0)
(-2.1932352 -0.27023855 0 1.1955264e-05 0 0)
(-2.2095759 -0.27152594 0 -1.1306972e-05 0 0)
(-2.1942614 -0.27031932 0 1.068906e-05 0 0)
(-2.2085968 -0.27144953 0 -1.0119124e-05 0 0)
(-2.1951794 -0.27039149 0 9.5799416e-06 0 0)
(-2.2077214 -0.27138122 0 -9.0816601e-06 0 0)
(-2.1960023 -0.2704561 0 8.6123331e-06 0 0)
(-2.2069364 -0.27132 0 -8.1789001e-06 0 0)
(-2.196742 -0.27051409 0 7.7721342e-06 0 0)
(-2.2062302 -0.27126497 0 -7.3973187e-06 0 0)
(-2.1974094 -0.27056632 0 7.0469416e-06 0 0)
(-2.2055921 -0.2712153 0 -6.7252765e-06 0 0)
(-2.1980142 -0.27061357 0 6.4260586e-06 0 0)
(-2.2050127 -0.27117026 0 -6.1528792e-06 0 0)
(-2.1985655 -0.27065654 0 5.9004563e-06 0 0)
(-2.2044833 -0.27112918 0 -5.6719088e-06 0 0)
(-2.1990713 -0.27069586 0 5.4627714e-06 0 0)
(-2.2039959 -0.27109145 0 -5.2758275e-06 0 0)
(-2.1995391 -0.27073212 0 5.1074794e-06 0 0)
(-2.2035433 -0.27105652 0 -4.9600025e-06 0 0)
(-2.199976 -0.27076584 0 4.8308126e-06 0 0)
(-2.2031189 -0.27102388 0 -4.7250166e-06 0 0)
(-2.200388 -0.27079754 0 4.6261876e-06 0 0)
(-2.2027146 -0.270993 0 -4.5807427e-06 0 0)
(-2.2007777 -0.27082722 0 4.5477768e-06 0 0)
(-2.2023195 -0.27096188 0 -4.2462637e-06 0 0)
(-2.2011788 -0.27085234 0 5.7834296e-06 0 0)
(-2.2020613 -0.27094727 0 -5.3903091e-06 0 0)
(-1.6107791 -0.71032405 0 -0.25718965 0 0)
(-2.6928623 -0.32430372 0 -0.014797166 0 0)
(-2.3340254 -0.30442326 0 -0.0086086447 0 0)
(-2.2452723 -0.27426785 0 -0.00059740853 0 0)
(-2.0837941 -0.26340554 0 -0.0002459142 0 0)
(-2.1171124 -0.26626442 0 -0.00013893646 0 0)
(-2.0597109 -0.26179611 0 -6.7533272e-05 0 0)
(-2.0992494 -0.26488984 0 -3.8904134e-05 0 0)
(-2.0581944 -0.26158733 0 1.113954e-05 0 0)
(-2.0939233 -0.26450056 0 -2.1698691e-05 0 0)
(-2.0598701 -0.26172724 0 1.9167713e-05 0 0)
(-2.0914096 -0.26431655 0 -1.9877822e-05 0 0)
(-2.0616272 -0.2618752 0 1.8003331e-05 0 0)
(-2.0895176 -0.26416628 0 -1.7741927e-05 0 0)
(-2.0632355 -0.26200859 0 1.6268339e-05 0 0)
(-2.0878934 -0.2640345 0 -1.5647518e-05 0 0)
(-2.0646912 -0.26212894 0 1.457319e-05 0 0)
(-2.0864662 -0.26391836 0 -1.3855456e-05 0 0)
(-2.0659985 -0.2622369 0 1.3006813e-05 0 0)
(-2.0852032 -0.26381549 0 -1.2312635e-05 0 0)
(-2.0671679 -0.26233336 0 1.1600174e-05 0 0)
(-2.0840814 -0.26372406 0 -1.0968511e-05 0 0)
(-2.0682122 -0.26241941 0 1.0353854e-05 0 0)
(-2.0830827 -0.26364263 0 -9.7923412e-06 0 0)
(-2.0691452 -0.26249621 0 9.2571191e-06 0 0)
(-2.0821919 -0.26356998 0 -8.7630998e-06 0 0)
(-2.0699796 -0.26256482 0 8.2963471e-06 0 0)
(-2.0813955 -0.26350502 0 -7.864345e-06 0 0)
(-2.0707276 -0.26262625 0 7.4581178e-06 0 0)
(-2.0806815 -0.2634468 0 -7.0823097e-06 0 0)
(-2.0713999 -0.2626814 0 6.7302096e-06 0 0)
(-2.0800393 -0.26339446 0 -6.4052021e-06 0 0)
(-2.0720064 -0.26273109 0 6.1018651e-06 0 0)
(-2.0794591 -0.2633472 0 -5.8229152e-06 0 0)
(-2.072556 -0.26277604 0 5.5638177e-06 0 0)
(-2.0789324 -0.26330434 0 -5.3268809e-06 0 0)
(-2.0730569 -0.26281694 0 5.1082589e-06 0 0)
(-2.0784511 -0.26326524 0 -4.9100001e-06 0 0)
(-2.0735164 -0.26285437 0 4.728836e-06 0 0)
(-2.0780083 -0.26322931 0 -4.566638e-06 0 0)
(-2.0739413 -0.2628889 0 4.4208183e-06 0 0)
(-2.0775972 -0.26319603 0 -4.2928016e-06 0 0)
(-2.0743379 -0.26292104 0 4.1809515e-06 0 0)
(-2.0772118 -0.26316493 0 -4.089544e-06 0 0)
(-2.074712 -0.26295127 0 4.0018479e-06 0 0)
(-2.0768451 -0.26313549 0 -3.9683023e-06 0 0)
(-2.0750654 -0.2629796 0 3.9357799e-06 0 0)
(-2.0764852 -0.26310558 0 -3.6200763e-06 0 0)
(-2.0754208 -0.26300273 0 5.2424731e-06 0 0)
(-2.0762194 -0.26308989 0 -4.8822139e-06 0 0)
(-1.5718876 -0.67480899 0 -0.23460746 0 0)
(-2.3489308 -0.30745166 0 -0.015483249 0 0)
(-2.1769834 -0.29730083 0 -0.0090650166 0 0)
(-2.0971331 -0.26557385 0 -0.00075642062 0 0)
(-1.9562991 -0.25542159 0 -0.00031541778 0 0)
(-1.9893024 -0.258182 0 -0.00015693852 0 0)
(-1.9383353 -0.25398856 0 -8.0081793e-05 0 0)
(-1.9748308 -0.25693378 0 -3.6913239e-05 0 0)
(-1.9376338 -0.25380645 0 7.0390432e-06 0 0)
(-1.9701922 -0.25657178 0 -1.8487808e-05 0 0)
(-1.9392199 -0.25394019 0 1.6339742e-05 0 0)
(-1.9679301 -0.2564 0 -1.7168249e-05 0 0)
(-1.940824 -0.25408153 0 1.5463182e-05 0 0)
(-1.9662132 -0.256258 0 -1.5370988e-05 0 0)
(-1.9422903 -0.25420863 0 1.4002381e-05 0 0)
(-1.9647351 -0.25613286 0 -1.3532286e-05 0 0)
(-1.9436158 -0.25432309 0 1.2562622e-05 0 0)
(-1.9634352 -0.25602247 0 -1.1967148e-05 0 0)
(-1.9448053 -0.25442569 0 1.1219902e-05 0 0)
(-1.9622848 -0.25592469 0 -1.0628199e-05 0 0)
(-1.9458689 -0.25451734 0 1.0008782e-05 0 0)
(-1.9612634 -0.25583781 0 -9.4654869e-06 0 0)
(-1.9468186 -0.25459909 0 8.9339256e-06 0 0)
(-1.9603543 -0.25576044 0 -8.449507e-06 0 0)
(-1.947667 -0.25467204 0 7.9875677e-06 0 0)
(-1.9595435 -0.25569141 0 -7.5609602e-06 0 0)
(-1.9484257 -0.25473723 0 7.1583857e-06 0 0)
(-1.9588188 -0.2556297 0 -6.785215e-06 0 0)
(-1.9491058 -0.25479559 0 6.4348904e-06 0 0)
(-1.9581692 -0.25557437 0 -6.1102162e-06 0 0)
(-1.949717 -0.254848 0 5.8065408e-06 0 0)
(-1.9575849 -0.25552463 0 -5.5257203e-06 0 0)
(-1.9502685 -0.25489522 0 5.2640482e-06 0 0)
(-1.9570572 -0.25547971 0 -5.022985e-06 0 0)
(-1.9507682 -0.25493795 0 4.7994182e-06 0 0)
(-1.9565781 -0.25543895 0 -4.594619e-06 0 0)
(-1.9512235 -0.25497684 0 4.4059224e-06 0 0)
(-1.9561405 -0.25540176 0 -4.2345101e-06 0 0)
(-1.9516412 -0.25501245 0 4.0780959e-06 0 0)
(-1.9557379 -0.25536757 0 -3.937812e-06 0 0)
(-1.9520273 -0.25504531 0 3.8118937e-06 0 0)
(-1.9553643 -0.25533589 0 -3.7010743e-06 0 0)
(-1.9523876 -0.25507591 0 3.6044972e-06 0 0)
(-1.9550142 -0.25530627 0 -3.5256709e-06 0 0)
(-1.9527273 -0.25510472 0 3.4478336e-06 0 0)
(-1.9546813 -0.25527824 0 -3.4244119e-06 0 0)
(-1.9530481 -0.25513174 0 3.3913769e-06 0 0)
(-1.9543535 -0.25524955 0 -3.0666799e-06 0 0)
(-1.9533633 -0.25515314 0 4.7333811e-06 0 0)
(-1.9540858 -0.25523299 0 -4.4062899e-06 0 0)
(-1.5737592 -0.63124857 0 -0.20241928 0 0)
(-2.0537706 -0.29251799 0 -0.016015342 0 0)
(-2.0262948 -0.28708017 0 -0.00859103 0 0)
(-1.9647657 -0.25989182 0 -0.0015588108 0 0)
(-1.8400413 -0.24828025 0 -0.00050586928 0 0)
(-1.8678148 -0.25027856 0 -0.00019229019 0 0)
(-1.8216337 -0.24624307 0 -9.633503e-05 0 0)
(-1.8547563 -0.2490036 0 -3.5898859e-05 0 0)
(-1.8208396 -0.24603231 0 3.1380056e-06 0 0)
(-1.8504 -0.24864997 0 -1.5629192e-05 0 0)
(-1.8221825 -0.24615255 0 1.3809255e-05 0 0)
(-1.8482932 -0.24848651 0 -1.4721493e-05 0 0)
(-1.8236137 -0.24628608 0 1.3184012e-05 0 0)
(-1.8467201 -0.24835182 0 -1.3232137e-05 0 0)
(-1.8249439 -0.24640684 0 1.1963432e-05 0 0)
(-1.8453722 -0.24823299 0 -1.1626644e-05 0 0)
(-1.8261497 -0.24651557 0 1.0752334e-05 0 0)
(-1.844188 -0.24812814 0 -1.026681e-05 0 0)
(-1.8272317 -0.24661299 0 9.6110131e-06 0 0)
(-1.8431403 -0.24803529 0 -9.1117616e-06 0 0)
(-1.828199 -0.24669999 0 8.5761074e-06 0 0)
(-1.8422103 -0.2479528 0 -8.1125408e-06 0 0)
(-1.8290627 -0.24677759 0 7.6557505e-06 0 0)
(-1.8413828 -0.24787935 0 -7.2408577e-06 0 0)
(-1.8298341 -0.24684684 0 6.8448395e-06 0 0)
(-1.840645 -0.24781383 0 -6.4789983e-06 0 0)
(-1.830524 -0.24690871 0 6.1341413e-06 0 0)
(-1.8399855 -0.24775524 0 -5.8139827e-06 0 0)
(-1.8311423 -0.24696411 0 5.5139248e-06 0 0)
(-1.8393944 -0.24770271 0 -5.2353132e-06 0 0)
(-1.8316981 -0.24701387 0 4.9751758e-06 0 0)
(-1.8388628 -0.24765547 0 -4.7341513e-06 0 0)
(-1.8321995 -0.24705871 0 4.5099368e-06 0 0)
(-1.8383828 -0.2476128 0 -4.3029889e-06 0 0)
(-1.8326539 -0.24709931 0 4.1113612e-06 0 0)
(-1.837947 -0.24757408 0 -3.935494e-06 0 0)
(-1.8330678 -0.24713626 0 3.7736914e-06 0 0)
(-1.837549 -0.24753873 0 -3.6264384e-06 0 0)
(-1.8334475 -0.24717011 0 3.4922544e-06 0 0)
(-1.837183 -0.24750623 0 -3.371676e-06 0 0)
(-1.8337984 -0.24720136 0 3.2636079e-06 0 0)
(-1.8368434 -0.2474761 0 -3.1682261e-06 0 0)
(-1.8341258 -0.24723046 0 3.0853122e-06 0 0)
(-1.8365253 -0.24744791 0 -3.0176676e-06 0 0)
(-1.8344344 -0.24725789 0 2.9487531e-06 0 0)
(-1.8362231 -0.24742125 0 -2.9339613e-06 0 0)
(-1.8347257 -0.24728365 0 2.9000464e-06 0 0)
(-1.8359246 -0.2473938 0 -2.5709617e-06 0 0)
(-1.8350055 -0.24730354 0 4.2472375e-06 0 0)
(-1.8356592 -0.24737653 0 -3.9583726e-06 0 0)
(-1.5845951 -0.60925195 0 -0.18663452 0 0)
(-1.8148639 -0.27957877 0 -0.016804138 0 0)
(-1.8738405 -0.27391397 0 -0.0076174028 0 0)
(-1.8274514 -0.25232743 0 -0.0020037246 0 0)
(-1.7216138 -0.24047904 0 -0.00060751027 0 0)
(-1.7486468 -0.24223225 0 -0.00020989173 0 0)
(-1.707543 -0.23842381 0 -0.00010461169 0 0)
(-1.7381053 -0.24105157 0 -3.3097052e-05 0 0)
(-1.7073944 -0.23824411 0 2.9703586e-07 0 0)
(-1.7343334 -0.24072638 0 -1.2814081e-05 0 0)
(-1.7086838 -0.23836054 0 1.1627941e-05 0 0)
(-1.7324443 -0.24057442 0 -1.2471707e-05 0 0)
(-1.7099926 -0.23848817 0 1.1145013e-05 0 0)
(-1.731018 -0.24044743 0 -1.1290653e-05 0 0)
(-1.7112053 -0.23860313 0 1.0125045e-05 0 0)
(-1.7297923 -0.24033483 0 -9.9030233e-06 0 0)
(-1.712303 -0.23870638 0 9.1174918e-06 0 0)
(-1.7287145 -0.24023537 0 -8.7304506e-06 0 0)
(-1.7132871 -0.23879881 0 8.1577471e-06 0 0)
(-1.727761 -0.24014729 0 -7.7420191e-06 0 0)
(-1.7141666 -0.23888133 0 7.2820956e-06 0 0)
(-1.7269146 -0.24006904 0 -6.8906536e-06 0 0)
(-1.7149517 -0.23895493 0 6.5013805e-06 0 0)
(-1.7261617 -0.23999937 0 -6.1493734e-06 0 0)
(-1.7156529 -0.23902059 0 5.8128515e-06 0 0)
(-1.7254904 -0.23993721 0 -5.5019533e-06 0 0)
(-1.71628 -0.23907927 0 5.2091739e-06 0 0)
(-1.7248904 -0.23988164 0 -4.9369316e-06 0 0)
(-1.7168421 -0.23913183 0 4.6822218e-06 0 0)
(-1.7243528 -0.2398318 0 -4.4452348e-06 0 0)
(-1.7173473 -0.23917903 0 4.2243723e-06 0 0)
(-1.7238693 -0.23978697 0 -4.0193034e-06 0 0)
(-1.7178031 -0.23922158 0 3.8288772e-06 0 0)
(-1.7234327 -0.23974648 0 -3.652748e-06 0 0)
(-1.7182161 -0.23926012 0 3.4899288e-06 0 0)
(-1.7230364 -0.23970972 0 -3.3401932e-06 0 0)
(-1.7185924 -0.2392952 0 3.2026443e-06 0 0)
(-1.7226746 -0.23967615 0 -3.0772051e-06 0 0)
(-1.7189374 -0.23932735 0 2.9630598e-06 0 0)
(-1.7223418 -0.23964528 0 -2.8602619e-06 0 0)
(-1.7192563 -0.23935703 0 2.768265e-06 0 0)
(-1.7220332 -0.23961664 0 -2.686794e-06 0 0)
(-1.7195537 -0.2393847 0 2.616153e-06 0 0)
(-1.7217442 -0.23958985 0 -2.5584905e-06 0 0)
(-1.719834 -0.23941078 0 2.4977216e-06 0 0)
(-1.72147 -0.2395645 0 -2.4902099e-06 0 0)
(-1.7200985 -0.23943532 0 2.4554201e-06 0 0)
(-1.7211983 -0.23953829 0 -2.1259765e-06 0 0)
(-1.7203468 -0.23945389 0 3.7821606e-06 0 0)
(-1.7209383 -0.23952049 0 -3.5386308e-06 0 0)
(-1.5873265 -0.57550702 0 -0.1639511 0 0)
(-1.6387055 -0.26481134 0 -0.015594102 0 0)
(-1.7272552 -0.26675773 0 -0.0090515256 0 0)
(-1.6993584 -0.24367896 0 -0.002038738 0 0)
(-1.6102572 -0.23264278 0 -0.0006449461 0 0)
(-1.6348623 -0.2342144 0 -0.00021167872 0 0)
(-1.5977582 -0.23061831 0 -0.00010717893 0 0)
(-1.6256134 -0.23311105 0 -2.8665188e-05 0 0)
(-1.5976801 -0.23045736 0 -1.6734736e-06 0 0)
(-1.6221423 -0.23280745 0 -1.0051166e-05 0 0)
(-1.5988111 -0.23056716 0 9.7431505e-06 0 0)
(-1.6204036 -0.23266493 0 -1.0400161e-05 0 0)
(-1.5999861 -0.23068839 0 9.3148509e-06 0 0)
(-1.6191022 -0.23254501 0 -9.5237054e-06 0 0)
(-1.6010871 -0.23079762 0 8.4629759e-06 0 0)
(-1.6179869 -0.23243837 0 -8.3396826e-06 0 0)
(-1.602085 -0.23089557 0 7.6371562e-06 0 0)
(-1.6170066 -0.23234412 0 -7.3384349e-06 0 0)
(-1.6029795 -0.23098319 0 6.8415025e-06 0 0)
(-1.6161394 -0.23226063 0 -6.5014029e-06 0 0)
(-1.6037785 -0.23106139 0 6.1101327e-06 0 0)
(-1.6153697 -0.23218647 0 -5.7841111e-06 0 0)
(-1.6044918 -0.23113112 0 5.4559533e-06 0 0)
(-1.614685 -0.23212045 0 -5.1609841e-06 0 0)
(-1.6051288 -0.23119335 0 4.8782888e-06 0 0)
(-1.6140747 -0.23206154 0 -4.6172082e-06 0 0)
(-1.6056985 -0.23124895 0 4.371533e-06 0 0)
(-1.6135293 -0.23200887 0 -4.1427243e-06 0 0)
(-1.6062091 -0.23129876 0 3.929028e-06 0 0)
(-1.6130405 -0.23196163 0 -3.7297639e-06 0 0)
(-1.6066681 -0.23134351 0 3.5444221e-06 0 0)
(-1.612601 -0.23191912 0 -3.3719338e-06 0 0)
(-1.6070822 -0.23138385 0 3.2120673e-06 0 0)
(-1.6122041 -0.23188072 0 -3.0638613e-06 0 0)
(-1.6074574 -0.2314204 0 2.9270982e-06 0 0)
(-1.611844 -0.23184585 0 -2.8010363e-06 0 0)
(-1.6077992 -0.23145368 0 2.685422e-06 0 0)
(-1.6115152 -0.231814 0 -2.5797405e-06 0 0)
(-1.6081126 -0.23148418 0 2.4837121e-06 0 0)
(-1.6112129 -0.2317847 0 -2.3970113e-06 0 0)
(-1.6084022 -0.23151236 0 2.3195306e-06 0 0)
(-1.6109325 -0.23175751 0 -2.2506429e-06 0 0)
(-1.6086722 -0.23153863 0 2.1910667e-06 0 0)
(-1.6106701 -0.23173206 0 -2.1423614e-06 0 0)
(-1.6089267 -0.23156342 0 2.0890898e-06 0 0)
(-1.6104214 -0.23170799 0 -2.0876529e-06 0 0)
(-1.6091669 -0.23158677 0 2.0522771e-06 0 0)
(-1.6101745 -0.23168301 0 -1.7260543e-06 0 0)
(-1.6093871 -0.23160418 0 3.3368869e-06 0 0)
(-1.6099222 -0.23166483 0 -3.1468549e-06 0 0)
(-1.5841445 -0.55566225 0 -0.15217059 0 0)
(-1.4860113 -0.25376254 0 -0.015697157 0 0)
(-1.5820829 -0.25603108 0 -0.0090695841 0 0)
(-1.5811281 -0.23410282 0 -0.0015619809 0 0)
(-1.5062735 -0.22468632 0 -0.00057360131 0 0)
(-1.5260743 -0.22614196 0 -0.00018161933 0 0)
(-1.4920327 -0.2227839 0 -9.8078423e-05 0 0)
(-1.517117 -0.22516338 0 -2.0608241e-05 0 0)
(-1.4916299 -0.22266378 0 -2.103129e-06 0 0)
(-1.5137763 -0.22488937 0 -7.06518e-06 0 0)
(-1.4925567 -0.2227708 0 8.2164909e-06 0 0)
(-1.5121525 -0.22475719 0 -8.4463848e-06 0 0)
(-1.4936001 -0.22288649 0 7.6830078e-06 0 0)
(-1.5109622 -0.22464434 0 -7.9027869e-06 0 0)
(-1.494597 -0.22299031 0 6.9583843e-06 0 0)
(-1.509948 -0.22454354 0 -6.9152832e-06 0 0)
(-1.4955032 -0.22308319 0 6.2928074e-06 0 0)
(-1.5090573 -0.22445433 0 -6.0724992e-06 0 0)
(-1.4963154 -0.22316617 0 5.6453773e-06 0 0)
(-1.5082694 -0.22437529 0 -5.3737651e-06 0 0)
(-1.4970407 -0.22324021 0 5.0450298e-06 0 0)
(-1.5075701 -0.22430507 0 -4.7785107e-06 0 0)
(-1.497688 -0.22330622 0 4.5058623e-06 0 0)
(-1.5069482 -0.22424256 0 -4.2628052e-06 0 0)
(-1.4982662 -0.22336513 0 4.0289596e-06 0 0)
(-1.5063938 -0.22418678 0 -3.813214e-06 0 0)
(-1.4987833 -0.22341778 0 3.6102771e-06 0 0)
(-1.5058984 -0.22413689 0 -3.4209857e-06 0 0)
(-1.4992468 -0.22346495 0 3.2445004e-06 0 0)
(-1.5054544 -0.22409215 0 -3.0795522e-06 0 0)
(-1.4996634 -0.22350733 0 2.92644e-06 0 0)
(-1.5050553 -0.22405189 0 -2.7835872e-06 0 0)
(-1.5000393 -0.22354555 0 2.6514516e-06 0 0)
(-1.5046949 -0.2240155 0 -2.5286431e-06 0 0)
(-1.5003798 -0.22358017 0 2.4155262e-06 0 0)
(-1.5043679 -0.22398246 0 -2.3109953e-06 0 0)
(-1.5006901 -0.22361171 0 2.2152867e-06 0 0)
(-1.5040694 -0.22395226 0 -2.1275721e-06 0 0)
(-1.5009745 -0.22364064 0 2.0479821e-06 0 0)
(-1.5037949 -0.22392447 0 -1.9759151e-06 0 0)
(-1.5012372 -0.22366736 0 1.9115963e-06 0 0)
(-1.5035405 -0.22389869 0 -1.8541442e-06 0 0)
(-1.5014822 -0.22369228 0 1.8045856e-06 0 0)
(-1.5033024 -0.22387453 0 -1.7639668e-06 0 0)
(-1.501713 -0.22371581 0 1.7176498e-06 0 0)
(-1.503077 -0.2238517 0 -1.7212168e-06 0 0)
(-1.501931 -0.22373801 0 1.6857407e-06 0 0)
(-1.5028528 -0.22382794 0 -1.3659263e-06 0 0)
(-1.5021262 -0.22375439 0 2.9100481e-06 0 0)
(-1.50261 -0.2238095 0 -2.782198e-06 0 0)
(-1.5835685 -0.51934203 0 -0.13004798 0 0)
(-1.3662917 -0.24195671 0 -0.014740707 0 0)
(-1.4526272 -0.24572498 0 -0.0090432972 0 0)
(-1.4721529 -0.22509804 0 -0.0011983987 0 0)
(-1.4064376 -0.21682802 0 -0.00050936222 0 0)
(-1.421966 -0.21813757 0 -0.00014915939 0 0)
(-1.3902602 -0.21496676 0 -8.7234294e-05 0 0)
(-1.4126568 -0.21723095 0 -1.1971156e-05 0 0)
(-1.3893087 -0.21487346 0 -2.0076782e-06 0 0)
(-1.4092683 -0.2169769 0 -4.1431491e-06 0 0)
(-1.3899562 -0.21497386 0 6.9227472e-06 0 0)
(-1.4076983 -0.21685229 0 -6.6217447e-06 0 0)
(-1.3908509 -0.21508306 0 6.2181272e-06 0 0)
(-1.4065952 -0.21674565 0 -6.4124276e-06 0 0)
(-1.3917444 -0.21518139 0 5.592117e-06 0 0)
(-1.4056702 -0.21665034 0 -5.6132026e-06 0 0)
(-1.3925644 -0.2152693 0 5.0682984e-06 0 0)
(-1.4048611 -0.21656597 0 -4.9175037e-06 0 0)
(-1.3933004 -0.21534781 0 4.5550256e-06 0 0)
(-1.404146 -0.21649121 0 -4.3455532e-06 0 0)
(-1.3939579 -0.21541783 0 4.0739643e-06 0 0)
(-1.4035115 -0.21642479 0 -3.8617309e-06 0 0)
(-1.3945448 -0.21548027 0 3.6396365e-06 0 0)
(-1.4029472 -0.21636566 0 -3.4439854e-06 0 0)
(-1.3950689 -0.21553598 0 3.2545911e-06 0 0)
(-1.4024442 -0.21631289 0 -3.080243e-06 0 0)
(-1.3955377 -0.21558579 0 2.9161904e-06 0 0)
(-1.4019947 -0.21626569 0 -2.7629774e-06 0 0)
(-1.3959579 -0.21563041 0 2.6203497e-06 0 0)
(-1.401592 -0.21622335 0 -2.4867271e-06 0 0)
(-1.3963356 -0.21567051 0 2.3629443e-06 0 0)
(-1.4012299 -0.21618525 0 -2.2471424e-06 0 0)
(-1.3966764 -0.21570669 0 2.1402467e-06 0 0)
(-1.400903 -0.2161508 0 -2.0406199e-06 0 0)
(-1.3969852 -0.21573946 0 1.9490279e-06 0 0)
(-1.4006064 -0.21611951 0 -1.864149e-06 0 0)
(-1.3972665 -0.21576933 0 1.7865616e-06 0 0)
(-1.4003357 -0.21609091 0 -1.7152446e-06 0 0)
(-1.3975243 -0.21579672 0 1.6506178e-06 0 0)
(-1.4000869 -0.21606459 0 -1.5919042e-06 0 0)
(-1.3977624 -0.21582204 0 1.5395599e-06 0 0)
(-1.3998562 -0.21604015 0 -1.4925432e-06 0 0)
(-1.3979844 -0.21584566 0 1.4520865e-06 0 0)
(-1.3996405 -0.21601726 0 -1.4188079e-06 0 0)
(-1.3981936 -0.21586797 0 1.3789807e-06 0 0)