/*--------------------------------*- C++ -*----------------------------------*\
| =========                 |                                                 |
| \\      /  F ield         | OpenFOAM: The Open Source CFD Toolbox           |
|  \\    /   O peration     | Version:  2312                                  |
|   \\  /    A nd           | Website:  www.openfoam.com                      |
|    \\/     M anipulation  |                                                 |
\*---------------------------------------------------------------------------*/
FoamFile
{
    version     2.0;
    format      ascii;
    arch        "LSB;label=32;scalar=64";
    class       volScalarField;
    location    "10";
    object      T;
}
// * * * * * * * * * * * * * * * * * * * * * * * * * * * * * * * * * * * * * //

dimensions      [0 0 0 1 0 0 0];

internalField   nonuniform List<scalar> 
4000
(
329.77598
328.57777
328.38966
328.311
328.25498
328.20246
328.16175
328.11861
328.08414
328.04549
328.01392
327.97793
327.94802
327.91382
327.88496
327.85203
327.82388
327.7919
327.76427
327.73301
327.70577
327.67508
327.64814
327.6179
327.5912
327.56134
327.53483
327.50527
327.47894
327.44962
327.42345
327.39433
327.36829
327.33933
327.31342
327.28459
327.25881
327.23008
327.20442
327.17576
327.15023
327.12161
327.09622
327.0676
327.04237
327.01371
326.98869
326.95989
326.93526
326.90569
331.85101
329.79123
329.28585
329.10204
328.98632
328.88107
328.81112
328.73397
328.68272
328.61899
328.57644
328.52071
328.48313
328.43276
328.39834
328.35177
328.3195
328.27576
328.24505
328.20348
328.17392
328.13406
328.1054
328.06691
328.03898
328.00158
327.97426
327.93776
327.91096
327.87519
327.84884
327.81368
327.78775
327.75307
327.72753
327.69324
327.66807
327.63407
327.60928
327.57549
327.55108
327.51741
327.49341
327.45977
327.43625
327.40247
327.37959
327.34538
327.32369
327.28725
333.1721
330.96716
330.17532
329.88912
329.71477
329.55756
329.45852
329.34777
329.27973
329.1912
329.13763
329.06236
329.01706
328.95066
328.91063
328.85054
328.81411
328.75871
328.72486
328.67306
328.64115
328.59219
328.56178
328.51508
328.48589
328.44102
328.41284
328.36946
328.34215
328.29999
328.27344
328.23227
328.20642
328.16606
328.14085
328.10113
328.07656
328.03732
328.01337
327.97448
327.95117
327.91248
327.88987
327.8512
327.82939
327.79052
327.76975
327.73017
327.71135
327.66835
334.06831
332.07014
331.04707
330.66629
330.43618
330.22891
330.10142
329.95798
329.87331
329.76056
329.69598
329.60159
329.54853
329.46643
329.42072
329.34737
329.3067
329.23985
329.2028
329.14095
329.10662
329.0487
329.01649
328.96171
328.9312
328.87897
328.84988
328.79971
328.77184
328.72337
328.69658
328.64948
328.62367
328.57768
328.55279
328.50769
328.48368
328.43926
328.41612
328.37218
328.34995
328.30628
328.28501
328.24139
328.22124
328.17732
328.15863
328.11373
328.09771
328.04855
334.70443
333.0701
331.88687
331.42541
331.14484
330.89091
330.73634
330.56181
330.46097
330.32497
330.24954
330.1367
330.07592
329.97862
329.92723
329.84101
329.79606
329.71808
329.67778
329.60614
329.56933
329.50268
329.4686
329.40593
329.37405
329.31461
329.28457
329.22775
329.19928
329.14461
329.11753
329.06461
329.0388
328.98729
328.96267
328.91228
328.88879
328.83926
328.8169
328.76798
328.74678
328.69821
328.67825
328.62974
328.61121
328.56233
328.54565
328.49555
328.48215
328.42735
335.16967
333.94474
332.67943
332.15675
331.83382
331.53838
331.35908
331.15581
331.03968
330.88184
330.79596
330.66563
330.59731
330.48552
330.42851
330.32997
330.28076
330.19209
330.14852
330.06745
330.02814
329.95305
329.91706
329.84676
329.81346
329.74704
329.71599
329.65272
329.6236
329.5629
329.53549
329.4769
329.45104
329.39415
329.36974
329.31419
329.29118
329.23666
329.21503
329.16125
329.14102
329.08766
329.06895
329.01566
328.99867
328.94495
328.93018
328.87506
328.86406
328.80414
335.51814
334.68342
333.41054
332.84995
332.49543
332.16543
331.96481
331.73601
331.60597
331.42819
331.33252
331.186
331.11048
330.98515
330.92271
330.81257
330.75918
330.66039
330.61359
330.52356
330.48174
330.39861
330.3607
330.2831
330.24836
330.17523
330.14314
330.07366
330.04386
329.97736
329.94957
329.8855
329.85955
329.79745
329.77321
329.71267
329.69008
329.63073
329.60977
329.55127
329.53196
329.47395
329.45642
329.39849
329.38296
329.32457
329.31159
329.25166
329.2428
329.17831
335.78335
335.28409
334.0688
333.49502
333.12183
332.7658
332.54837
332.29806
332.15605
331.96074
331.85628
331.69517
331.61302
331.47531
331.40776
331.28692
331.22955
331.12135
331.07143
330.97301
330.92875
330.83805
330.79825
330.71374
330.67758
330.59809
330.56496
330.48957
330.45906
330.38702
330.35883
330.28953
330.26345
330.19636
330.17225
330.10691
330.0847
330.0207
330.00036
329.93731
329.91887
329.85638
329.83995
329.77757
329.7634
329.70053
329.68919
329.62475
329.6177
329.54917
335.9887
335.7546
334.64685
334.08338
333.70561
333.3333
333.10451
332.83748
332.68599
332.476
332.3641
332.19035
332.10235
331.95367
331.88149
331.75101
331.68998
331.57321
331.52037
331.41424
331.36767
331.26997
331.22836
331.13743
331.09988
331.01444
330.98029
330.89935
330.86815
330.79088
330.76229
330.68802
330.66181
330.58997
330.56597
330.49607
330.4742
330.40577
330.38599
330.31862
330.30097
330.23421
330.2188
330.15219
330.13928
330.07217
330.06231
329.99366
329.98813
329.91603
336.15024
336.10845
335.14169
334.60873
334.24051
333.86224
333.62821
333.34984
333.19186
332.97049
332.85283
332.66866
332.57583
332.41779
332.34166
332.20277
332.1385
332.01414
331.95867
331.84563
331.79695
331.69289
331.64962
331.55281
331.51397
331.42306
331.38796
331.30187
331.27001
331.18787
331.1589
331.07999
331.05364
330.97736
330.95346
330.87926
330.8577
330.7851
330.76585
330.69439
330.67747
330.6067
330.59222
330.52163
330.50985
330.4388
330.43022
330.35774
330.35341
330.27819
336.27969
336.36384
335.55469
335.06767
334.72182
334.34785
334.11503
333.83105
333.66995
333.44081
333.31936
333.12725
333.03084
332.86527
332.78599
332.64008
332.57314
332.44227
332.38458
332.2655
332.215
332.10532
332.06059
331.95852
331.91854
331.82268
331.78673
331.69596
331.66352
331.57693
331.54761
331.46444
331.43797
331.35758
331.33377
331.25559
331.23433
331.15785
331.13908
331.06383
331.04758
330.97307
330.95944
330.88516
330.87439
330.79972
330.79223
330.71631
330.71288
330.63494
336.38562
336.54054
335.89089
335.45986
335.14681
334.7866
334.56136
334.2776
334.11696
333.88386
333.76082
333.56344
333.46489
333.29373
333.21229
333.06086
332.99194
332.85576
332.79634
332.67219
332.62024
332.50575
332.45982
332.35318
332.31226
332.21204
332.17539
332.08046
332.04753
331.95695
331.92735
331.84033
331.81379
331.72966
331.70596
331.62415
331.60318
331.52315
331.50484
331.42611
331.41047
331.33254
331.31968
331.24204
331.23214
331.1542
331.14762
331.06866
331.06588
330.98559
336.47419
336.65806
336.15821
335.78781
335.51487
335.17648
334.96465
334.68671
334.53018
334.29696
334.17467
333.97479
333.87566
333.701
333.61849
333.46316
333.39304
333.25283
333.19227
333.06411
333.01113
332.8927
332.84591
332.73544
332.69383
332.5899
332.55273
332.4542
332.42093
332.32685
332.29708
332.20666
332.1801
332.09266
332.0691
331.98404
331.96337
331.88015
331.86228
331.78042
331.76535
331.68435
331.67216
331.59152
331.58236
331.50153
331.49568
331.41409
331.41177
331.32945
336.54994
336.73393
336.36625
336.05632
335.82746
335.51707
335.32363
335.05657
334.9076
334.67801
334.55884
334.35923
334.26118
334.08513
334.00274
333.84516
333.77473
333.63183
333.57079
333.43971
333.38621
333.26478
333.21751
333.10399
333.06199
332.95503
332.91758
332.81604
332.78261
332.68556
332.65576
332.56241
332.53594
332.44562
332.42227
332.33438
332.31402
332.22801
332.21057
332.12596
332.11142
332.02772
332.01613
331.93286
331.92434
331.84102
331.83573
331.75193
331.74988
331.66584
336.61596
336.78264
336.5253
336.2719
336.08794
335.80956
335.63828
335.3864
335.24808
335.02556
334.91178
334.71512
334.61983
334.44448
334.36346
334.20531
334.13551
333.99129
333.93047
333.79762
333.74415
333.62067
333.57336
333.45763
333.41557
333.30629
333.26883
333.16492
333.13153
333.03209
333.00239
332.90664
332.88036
332.78764
332.76457
332.67429
332.65429
332.56591
332.5489
332.46195
332.4479
332.3619
332.35085
332.26536
332.25737
332.17197
332.1671
332.08148
332.07959
331.99412
336.67453
336.81529
336.64536
336.442
336.3011
336.05656
335.90984
335.67645
335.55133
335.33891
335.2326
335.04138
334.95043
334.77781
334.69939
334.54232
334.4741
334.32992
334.27008
334.1366
334.08377
333.95921
333.91233
333.79522
333.7535
333.64264
333.60545
333.49983
333.46672
333.36547
333.33607
333.23845
333.2125
333.11787
333.09517
333.00296
332.98337
332.89307
332.87651
332.78764
332.77407
332.68619
332.67562
332.58833
332.58077
332.4937
332.48914
332.40211
332.40029
332.31368
336.72712
336.83965
336.73557
336.57439
336.47272
336.2618
336.14067
335.92799
335.81797
335.61812
335.52103
335.33745
335.25233
335.0843
335.00966
334.85524
334.78954
334.64673
334.58863
334.45566
334.40406
334.27941
334.23345
334.11582
334.07481
333.96313
333.92654
333.81988
333.78729
333.68485
333.65594
333.55701
333.53153
333.43552
333.41329
333.31964
333.30053
333.20875
333.19267
333.10233
333.08923
332.99991
332.98977
332.9011
332.89391
332.80559
332.80125
332.71318
332.71138
332.62392
336.77478
336.86065
336.80376
336.67657
336.60897
336.42985
336.33402
336.14317
336.04941
335.86396
335.77748
335.60339
335.52535
335.36358
335.2938
335.14347
335.0812
334.94101
334.88539
334.75401
334.70426
334.58046
334.53591
334.41861
334.37873
334.26698
334.23132
334.12429
334.0925
333.98946
333.96126
333.86158
333.83675
333.73986
333.71823
333.62362
333.60507
333.5123
333.49674
333.40537
333.39275
333.30242
333.2927
333.20308
333.19619
333.10705
333.10286
333.01413
333.01232
332.92431
336.81821
336.881
336.85627
336.75534
336.71602
336.56567
336.49376
336.32485
336.24776
336.07788
336.00296
335.83977
335.76985
335.61572
335.55174
335.40679
335.34875
335.21234
335.15989
335.03112
334.98381
334.86177
334.81914
334.70297
334.66462
334.55353
334.51913
334.4124
334.38168
334.27867
334.25139
334.15153
334.12751
334.03028
334.00937
333.91432
333.89641
333.80311
333.78812
333.69619
333.68407
333.59317
333.58385
333.49371
333.4871
333.39752
333.39346
333.30442
333.3026
333.21433
336.85793
336.9019
336.89799
336.81655
336.79966
336.67436
336.62413
336.47636
336.41569
336.26189
336.19902
336.04773
335.98664
335.84127
335.78383
335.64535
335.59226
335.46063
335.41198
335.28676
335.24241
335.12299
335.08273
334.96847
334.93205
334.82232
334.78952
334.68373
334.65435
334.55197
334.52583
334.42634
334.4033
334.30626
334.28621
334.1912
334.17403
334.08067
334.06632
333.97428
333.96268
333.87166
333.86273
333.7725
333.76615
333.67654
333.67259
333.58359
333.58177
333.49354
336.89432
336.92355
336.93245
336.86493
336.86504
336.76078
336.72947
336.60136
336.55624
336.41845
336.36766
336.22881
336.17697
336.04116
335.99082
335.85967
335.81208
335.6861
335.64178
335.52092
335.48004
335.364
335.32653
335.21489
335.18076
335.07306
335.04216
334.93794
334.91016
334.80897
334.78419
334.68562
334.66374
334.56739
334.54833
334.45385
334.43752
334.34458
334.33092
334.23922
334.22818
334.13746
334.12895
334.03903
334.03294
333.94368
333.93984
333.85123
333.84941
333.76155
336.9277
336.94568
336.96208
336.90417
336.91655
336.8294
336.81397
336.70356
336.67267
336.55028
336.51121
336.38494
336.34246
336.21668
336.17378
336.05059
336.00892
335.88928
335.84971
335.73391
335.69688
335.58489
335.55059
335.44221
335.4107
335.30564
335.27693
335.17485
335.14891
335.04946
335.02624
334.9291
334.90855
334.81339
334.79544
334.70196
334.68657
334.59449
334.58161
334.49068
334.48024
334.39024
334.38217
334.29295
334.28714
334.1986
334.19488
334.107
334.10521
334.01801
336.95834
336.96782
336.98842
336.93699
336.95774
336.88409
336.88149
336.78657
336.76827
336.66028
336.63222
336.51828
336.485
336.36943
336.33407
336.21925
336.18374
336.07095
336.03644
335.92625
335.89339
335.78603
335.75519
335.65063
335.62202
335.52013
335.49387
335.39444
335.37057
335.27337
335.2519
335.15667
335.13759
335.04408
335.02738
334.93534
334.92099
334.8302
334.81815
334.72841
334.71862
334.62974
334.62215
334.53401
334.5285
334.44103
334.43746
334.35062
334.34888
334.26266
336.98649
336.98952
337.01242
336.9653
336.99138
336.92813
336.93548
336.85374
336.84623
336.75134
336.73334
336.63116
336.60666
336.50121
336.47329
336.36702
336.33776
336.23214
336.20286
336.0987
336.07023
335.96794
335.9408
335.84053
335.81505
335.71681
335.69319
335.59689
335.57526
335.48076
335.4612
335.36832
335.35086
335.25943
335.24409
335.15391
335.14068
335.05158
335.04045
334.95227
334.94319
334.85581
334.84872
334.76202
334.75684
334.67077
334.66739
334.58189
334.58023
334.49529
337.01235
337.01041
337.03459
336.99039
337.01955
336.96413
336.97888
336.9081
336.90951
336.82628
336.81717
336.72597
336.70962
336.61396
336.5932
336.49546
336.47236
336.37408
336.35008
336.25222
336.22825
336.13138
336.10808
336.01248
335.99027
335.89608
335.87526
335.78249
335.76326
335.67186
335.65434
335.56421
335.54848
335.45952
335.44563
335.35769
335.34567
335.25864
335.24848
335.16223
335.15391
335.06836
335.06183
334.97689
334.97208
334.88772
334.88455
334.8007
334.79913
334.71576
337.03614
337.03026
337.05519
337.01308
337.04371
336.99411
337.0141
336.95226
336.9608
336.8877
336.88625
336.80506
336.79608
336.7097
336.69566
336.60623
336.58909
336.49814
336.47934
336.38792
336.36847
336.27724
336.25785
336.16719
336.14837
336.05853
336.04062
335.9517
335.93497
335.84701
335.83164
335.7446
335.7307
335.64454
335.6322
335.54684
335.53609
335.45146
335.44233
335.35834
335.35082
335.26742
335.26149
335.17862
335.17422
335.09184
335.08892
335.00699
335.00554
334.92402
337.05804
337.04895
337.07435
337.03386
337.06491
337.01962
337.04308
336.98838
337.00242
336.93797
336.9429
336.87068
336.86821
336.79043
336.78256
336.70107
336.68955
336.6058
336.59202
336.50704
336.49204
336.40655
336.39106
336.30553
336.29011
336.20486
336.18991
336.10511
336.09095
336.00671
335.99354
335.90989
335.89788
335.81483
335.80408
335.7216
335.71218
335.63024
335.62219
335.54075
335.53408
335.4531
335.4478
335.36727
335.36331
335.28319
335.28055
335.20079
335.19947
335.12006
337.07821
337.06642
337.09212
337.05303
337.08381
337.04174
337.0673
337.01826
337.03633
336.97914
336.98925
336.92491
336.92802
336.85809
336.85574
336.78172
336.7754
336.69857
336.68955
336.6109
336.60018
336.52045
336.50877
336.42846
336.41641
336.33589
336.32391
336.24342
336.23184
336.15153
336.14061
336.06057
336.05049
335.97079
335.96167
335.88232
335.87426
335.79527
335.78833
335.70969
335.7039
335.6256
335.62097
335.54301
335.53953
335.46189
335.45955
335.38221
335.38103
335.30395
337.09679
337.08268
337.10854
337.07073
337.10084
337.06124
337.08787
337.04328
337.06417
337.01299
337.02713
336.96963
336.97739
336.91453
336.91699
336.84989
336.84826
336.778
336.77338
336.70087
336.69419
336.62013
336.61212
336.53703
336.52826
336.45254
336.44347
336.3674
336.35838
336.28216
336.27347
336.19724
336.18908
336.11293
336.10546
336.02944
336.02277
335.94693
335.94113
335.86549
335.86061
335.7852
335.78125
335.70608
335.70309
335.62815
335.62613
335.55139
335.55038
335.47585
337.11389
337.09779
337.12363
337.08707
337.11628
337.07863
337.10561
337.06452
337.08723
337.04099
337.05815
337.00649
337.01803
336.96142
336.96799
336.9072
336.90971
336.8456
336.84497
336.77832
336.77538
336.70684
336.70227
336.63234
336.6267
336.55578
336.54952
336.47793
336.47141
336.39936
336.39287
336.32055
336.31431
336.24184
336.236
336.16348
336.15818
336.08567
336.08101
336.00855
336.00458
335.93223
335.92899
335.85677
335.8543
335.78222
335.78054
335.70859
335.70774
335.63594
337.12962
337.11177
337.13743
337.10208
337.13029
337.09427
337.12108
337.08278
337.10652
337.06431
337.08363
337.03691
337.05142
337.00029
337.01027
336.95517
336.96125
336.90281
336.90573
336.84459
336.84506
336.7818
336.78043
336.71551
336.71281
336.64663
336.64304
336.57591
336.57179
336.50396
336.49959
336.43125
336.42686
336.35817
336.35394
336.28501
336.28108
336.21201
336.20848
336.13933
336.13628
336.06712
336.06459
335.99546
335.99351
335.92444
335.9231
335.85409
335.85341
335.7845
337.14406
337.12466
337.14997
337.1158
337.14296
337.10837
337.13468
337.09864
337.12282
337.0839
337.10465
337.0621
337.07883
337.03246
337.04518
336.99516
337.00425
336.95098
336.95699
336.90099
336.9045
336.84624
336.84777
336.78768
336.78769
336.72613
336.72503
336.6623
336.66043
336.5968
336.59444
336.53011
336.5275
336.46263
336.45995
336.39469
336.39208
336.32653
336.3241
336.25836
336.2562
336.19033
336.18851
336.12258
336.12115
336.05519
336.0542
335.98825
335.98774
335.92183
337.15725
337.13648
337.16127
337.12825
337.15434
337.12106
337.14667
337.11251
337.1367
337.1005
337.12209
337.08304
337.10136
337.05909
337.07394
337.0284
337.03996
336.99138
337.00001
336.94875
336.9549
336.90134
336.90544
336.84995
336.85241
336.7953
336.79648
336.73805
336.73827
336.67877
336.6783
336.61794
336.61701
336.55596
336.55475
336.49317
336.49183
336.42984
336.42848
336.36619
336.3649
336.30239
336.30125
336.23859
336.23767
336.17491
336.17426
336.11144
336.1111
336.04829
337.16923
337.14724
337.17136
337.13945
337.16449
337.13244
337.15723
337.12471
337.14859
337.11466
337.13663
337.10053
337.1199
337.08115
337.09759
337.056
337.0695
337.02513
337.03592
336.98899
336.99739
336.9482
336.95455
336.90338
336.90802
336.85515
336.8584
336.8041
336.80623
336.75075
336.75203
336.69556
336.69619
336.63893
336.63909
336.58118
336.58102
336.5226
336.52225
336.46343
336.46297
336.40384
336.40336
336.34401
336.34358
336.28407
336.28374
336.22412
336.22394
336.16428
337.17997
337.1569
337.18023
337.14941
337.17342
337.14256
337.16649
337.13543
337.15879
337.12681
337.14881
337.11521
337.13518
337.09947
337.11702
337.07887
337.09387
337.05323
337.06576
337.02276
337.03303
336.98785
336.99612
336.94899
336.95552
336.90667
336.91172
336.86139
336.86523
336.81362
336.81647
336.7638
336.76586
336.71229
336.71372
336.65943
336.66038
336.60548
336.60607
336.5507
336.55102
336.49528
336.49542
336.43938
336.43942
336.38316
336.38315
336.32674
336.32672
336.27024
337.18941
337.16543
337.18789
337.15814
337.18117
337.15148
337.17454
337.14482
337.16755
337.13726
337.15903
337.12759
337.14781
337.1147
337.13296
337.09782
337.11389
337.07658
337.09044
337.05098
337.06275
337.02125
337.0311
336.98771
336.99584
336.95076
336.95738
336.9108
336.91613
336.86824
336.87248
336.82346
336.82679
336.77683
336.7794
336.72863
336.73059
336.67916
336.68061
336.62864
336.62969
336.57728
336.57801
336.52526
336.52573
336.47272
336.473
336.41981
336.41993
336.36663
337.19741
337.17276
337.19433
337.16567
337.18777
337.15924
337.18145
337.153
337.17503
337.14626
337.16762
337.13805
337.15825
337.1274
337.14603
337.11352
337.1303
337.09593
337.11077
337.07448
337.08741
337.04925
337.06037
337.02042
337.02987
336.98829
336.99624
336.95317
336.95978
336.91541
336.92086
336.87534
336.87979
336.83328
336.83687
336.78952
336.79237
336.74431
336.74655
336.6979
336.6996
336.65048
336.65173
336.60222
336.60309
336.55329
336.55383
336.50382
336.50408
336.45394
337.20384
337.17885
337.19958
337.17202
337.19326
337.1659
337.18729
337.16007
337.18136
337.15398
337.17481
337.1469
337.16687
337.138
337.15672
337.12653
337.14371
337.11194
337.12743
337.09397
337.10775
337.0726
337.08469
337.0479
337.0584
337.02006
337.02907
336.9893
336.99697
336.95591
336.96238
336.92017
336.92558
336.88237
336.88684
336.84277
336.84642
336.80161
336.80453
336.75911
336.7614
336.71547
336.71719
336.67085
336.67207
336.62541
336.62619
336.5793
336.57968
336.53264
337.20854
337.18366
337.20366
337.17725
337.19769
337.17151
337.19212
337.1661
337.18665
337.16057
337.1808
337.15438
337.17397
337.14685
337.16545
337.13729
337.15461
337.12514
337.14101
337.11008
337.12442
337.09199
337.10478
337.07085
337.08214
337.04677
337.05662
337.01989
337.02842
336.99045
336.99776
336.95867
336.96488
336.9248
336.93001
336.88907
336.89339
336.8517
336.85521
336.8129
336.81569
336.77284
336.77498
336.7317
336.73325
336.68964
336.69063
336.64678
336.64726
336.60325
337.21151
337.18724
337.20663
337.18141
337.20114
337.17614
337.19601
337.17117
337.19099
337.16615
337.18573
337.16068
337.17978
337.15423
337.17254
337.14617
337.16343
337.13599
337.152
337.12332
337.13797
337.10798
337.12123
337.08989
337.10173
337.06907
337.07955
337.04562
337.0548
337.0197
337.02767
336.9915
336.99834
336.96121
336.96703
336.92905
336.93392
336.8952
336.89921
336.85986
336.86307
336.82319
336.82568
336.78536
336.78717
336.74651
336.74768
336.70677
336.70735
336.66627
337.21289
337.18968
337.20858
337.1846
337.20369
337.17987
337.19905
337.17537
337.19447
337.17082
337.18973
337.16595
337.18448
337.16035
337.17825
337.15348
337.1705
337.14486
337.16081
337.13413
337.14888
337.12107
337.13455
337.10555
337.11773
337.08754
337.09843
337.06707
337.07671
337.04427
337.05272
337.01926
337.02659
336.99221
336.9985
336.96331
336.96861
336.9327
336.93711
336.90058
336.90414
336.86708
336.86985
336.83236
336.83439
336.79656
336.79788
336.75979
336.76045
336.72219
337.21298
337.19115
337.20966
337.18693
337.20544
337.18278
337.2013
337.17876
337.19718
337.17467
337.1929
337.17031
337.18823
337.16538
337.18278
337.15944
337.17609
337.15206
337.16778
337.14288
337.15755
337.13168
337.1452
337.1183
337.13063
337.10266
337.11378
337.08477
337.09469
337.06468
337.07345
337.0425
337.05017
337.01836
337.02498
336.9924
336.99803
336.96476
336.96947
336.9356
336.93942
336.90504
336.90804
336.87323
336.87544
336.8403
336.84174
336.80635
336.80706
336.77151
337.21217
337.19184
337.21
337.18851
337.20647
337.18497
337.20286
337.18143
337.19918
337.17777
337.19533
337.17386
337.19113
337.16947
337.18629
337.16425
337.18042
337.15782
337.17318
337.14987
337.16429
337.14016
337.15356
337.12853
337.14083
337.11488
337.12606
337.09916
337.10922
337.08142
337.09037
337.06172
337.0696
337.04016
337.047
337.01684
337.0227
336.99189
336.9968
336.96543
336.96945
336.93759
336.94075
336.90848
336.91081
336.87822
336.87976
336.84692
336.84768
336.81468
337.21085
337.19196
337.20976
337.18947
337.20691
337.18653
337.20381
337.18346
337.20056
337.18021
337.19709
337.17669
337.19328
337.17272
337.1889
337.16804
337.18365
337.16233
337.17722
337.15531
337.16937
337.14678
337.15991
337.13656
337.14869
337.12454
337.13563
337.11066
337.1207
337.09492
337.10392
337.07737
337.08533
337.05806
337.06502
337.03709
337.04307
337.01455
337.0196
336.99055
336.99469
336.96519
336.96845
336.93857
336.94099
336.91079
336.91239
336.88196
336.88276
336.85217
337.2093
337.1917
337.20909
337.18993
337.20685
337.18754
337.20424
337.18492
337.20139
337.18205
337.19826
337.17885
337.19476
337.17522
337.19073
337.17093
337.18591
337.16574
337.18007
337.15941
337.173
337.15177
337.16452
337.14266
337.1545
337.13196
337.14284
337.11959
337.12949
337.10554
337.11446
337.08982
337.09776
337.07248
337.07945
337.05358
337.0596
337.03319
337.03828
337.01139
337.01559
336.98828
336.99161
336.96394
336.96641
336.93846
336.94009
336.91193
336.91274
336.88442
337.20769
337.19121
337.2081
337.19
337.20639
337.1881
337.20422
337.18589
337.20173
337.18335
337.19889
337.18042
337.19563
337.17702
337.19182
337.17299
337.18729
337.16814
337.18184
337.1623
337.17532
337.15532
337.16758
337.14705
337.15849
337.13738
337.14794
337.12624
337.1359
337.11359
337.12232
337.09943
337.10724
337.08378
337.09066
337.06668
337.07265
337.04818
337.05326
337.02836
337.03256
337.00728
337.01061
336.98501
336.9875
336.96163
336.96328
336.93722
336.93804
336.91184
337.20611
337.19056
337.2069
337.18976
337.20562
337.18828
337.20383
337.18643
337.20165
337.18416
337.19904
337.18143
337.19593
337.17817
337.19224
337.17428
337.18785
337.16962
337.18264
337.16408
337.17647
337.15754
337.16924
337.14988
337.16084
337.14101
337.15116
337.13084
337.14016
337.11933
337.1278
337.10647
337.11407
337.09226
337.09899
337.07672
337.08258
337.05989
337.06488
337.04182
337.04596
337.02256
337.02585
337.00217
337.00463
336.9807
336.98233
336.95823
336.95904
336.93481
337.20455
337.18983
337.20556
337.18929
337.2046
337.18816
337.20313
337.18659
337.2012
337.18453
337.19873
337.18192
337.19569
337.1787
337.19201
337.17482
337.18764
337.17022
337.18251
337.16482
337.17653
337.15854
337.16963
337.1513
337.1617
337.143
337.15268
337.13358
337.1425
337.12299
337.13112
337.1112
337.11852
337.0982
337.1047
337.084
337.08968
337.06862
337.07348
337.05209
337.05613
337.03445
337.03767
337.01574
337.01815
336.99601
336.99762
336.97532
336.97612
336.95371
337.20301
337.18905
337.20412
337.18864
337.2034
337.18778
337.20217
337.18643
337.2004
337.18449
337.198
337.18189
337.19491
337.1786
337.19114
337.17463
337.18667
337.16996
337.18149
337.16456
337.17555
337.15839
337.1688
337.15139
337.16119
337.14349
337.15263
337.13463
337.14308
337.12475
337.13248
337.11382
337.12081
337.10183
337.10806
337.08877
337.09422
337.07464
337.07932
337.05946
337.06336
337.04326
337.04638
337.02606
337.0284
337.0079
337.00946
336.98882
336.9896
336.96886
337.20147
337.18823
337.20262
337.18787
337.20205
337.1872
337.20099
337.18597
337.1993
337.18405
337.19684
337.18135
337.1936
337.17789
337.18962
337.17371
337.18494
337.16885
337.17958
337.16332
337.17355
337.15712
337.16683
337.15022
337.15937
337.14256
337.15112
337.13409
337.14203
337.12476
337.13204
337.11452
337.12113
337.10336
337.10927
337.09125
337.09645
337.0782
337.08266
337.0642
337.06793
337.04926
337.05225
337.03341
337.03565
337.01666
337.01815
336.99905
336.99979
336.9806
337.19991
337.18736
337.20108
337.18699
337.20059
337.18643
337.19961
337.18523
337.19788
337.1832
337.19525
337.18028
337.19173
337.17652
337.18742
337.17201
337.18241
337.16685
337.17677
337.16109
337.17054
337.15476
337.16373
337.14784
337.15631
337.14029
337.14824
337.13207
337.13946
337.12314
337.12994
337.11344
337.11963
337.10295
337.10851
337.09165
337.09654
337.07951
337.08373
337.06653
337.07006
337.05271
337.05554
337.03805
337.04018
337.02257
337.02399
337.00628
337.00699
336.9892
337.19831
337.18645
337.19949
337.18601
337.19904
337.1855
337.19804
337.18421
337.19614
337.18193
337.19319
337.17864
337.18926
337.17445
337.1845
337.16951
337.17906
337.16395
337.17305
337.15786
337.16653
337.15129
337.15953
337.14425
337.15204
337.13671
337.14404
337.12864
337.13547
337.11998
337.12629
337.1107
337.11645
337.10076
337.10593
337.09012
337.09469
337.07876
337.08271
337.06666
337.06998
337.05382
337.05648
337.04022
337.04222
337.02586
337.0272
337.01077
337.01144
336.99494
337.19666
337.18549
337.19786
337.18496
337.19741
337.1844
337.19627
337.18288
337.19404
337.18019
337.19061
337.17638
337.18612
337.17163
337.1808
337.16615
337.17483
337.1601
337.16836
337.1536
337.16147
337.14672
337.15421
337.13948
337.14658
337.13186
337.13856
337.12384
337.1301
337.11537
337.12116
337.1064
337.1117
337.09689
337.10168
337.0868
337.09105
337.07611
337.07978
337.06477
337.06786
337.05278
337.05527
337.04012
337.042
337.02678
337.02803
337.01276
337.01339
336.99807
337.19496
337.18449
337.19619
337.18382
337.19568
337.18312
337.19427
337.1812
337.19153
337.17791
337.18744
337.17341
337.18225
337.16798
337.17625
337.16185
337.16966
337.15523
337.16266
337.14826
337.15534
337.14101
337.14776
337.13352
337.13993
337.12576
337.13183
337.11773
337.12342
337.10936
337.11465
337.10062
337.10548
337.09146
337.09585
337.08183
337.08573
337.0717
337.07509
337.06102
337.06388
337.04978
337.05209
337.03795
337.03969
337.02552
337.02668
337.01247
337.01305
336.99881
337.19318
337.18342
337.19447
337.18259
337.19384
337.18162
337.19198
337.17909
337.18852
337.175
337.18359
337.16966
337.17755
337.16341
337.17076
337.15655
337.16348
337.1493
337.15589
337.1418
337.1481
337.13414
337.14016
337.12635
337.13209
337.11842
337.12387
337.11032
337.11545
337.10201
337.10679
337.09344
337.09785
337.08455
337.08855
337.07531
337.07887
337.06565
337.06876
337.05556
337.05818
337.04498
337.0471
337.03388
337.03549
337.02226
337.02334
337.01009
337.01063
336.99736
337.19132
337.1823
337.1927
337.18126
337.19184
337.17984
337.18932
337.17646
337.1849
337.17136
337.17893
337.165
337.17191
337.15782
337.16424
337.15015
337.15621
337.14222
337.148
337.13417
337.13971
337.12608
337.1314
337.11798
337.12307
337.10985
337.1147
337.10166
337.10624
337.09336
337.09766
337.08492
337.08888
337.07626
337.07987
337.06733
337.07057
337.0581
337.06092
337.0485
337.05089
337.0385
337.04044
337.02807
337.02954
337.01718
337.01816
337.0058
337.0063
336.99393
337.18935
337.18112
337.19088
337.17978
337.18963
337.17768
337.18616
337.17317
337.18054
337.16683
337.17335
337.15931
337.16522
337.15111
337.1566
337.14258
337.14778
337.13394
337.13893
337.12533
337.13014
337.11681
337.12144
337.10838
337.11285
337.10004
337.10432
337.09175
337.09581
337.08346
337.08728
337.0751
337.07865
337.06664
337.06988
337.05799
337.0609
337.04912
337.05167
337.03997
337.04214
337.0305
337.03226
337.02066
337.022
337.01043
337.01133
336.99977
337.00022
336.98867
337.18727
337.17991
337.18897
337.17812
337.18711
337.17503
337.18237
337.16908
337.17527
337.16128
337.16668
337.15246
337.15734
337.14316
337.14773
337.13374
337.13811
337.1244
337.12862
337.11523
337.11934
337.10628
337.11028
337.09756
337.10143
337.08902
337.09275
337.08063
337.0842
337.07233
337.0757
337.06406
337.06721
337.05576
337.05865
337.04736
337.04997
337.03882
337.04111
337.03008
337.03203
337.02108
337.02266
337.01178
337.01299
337.00215
337.00296
336.99215
336.99256
336.98176
337.18506
337.17868
337.18695
337.17618
337.18415
337.1717
337.17775
337.16398
337.16891
337.15453
337.15878
337.14431
337.14817
337.13388
337.13754
337.12357
337.12712
337.11353
337.11703
337.10384
337.10728
337.0945
337.09789
337.0855
337.08882
337.07678
337.08001
337.06831
337.07142
337.06001
337.06297
337.05183
337.0546
337.04369
337.04625
337.03553
337.03784
337.02729
337.02933
337.01891
337.02066
337.01035
337.01177