/*--------------------------------*- C++ -*----------------------------------*\
| =========                 |                                                 |
| \\      /  F ield         | OpenFOAM: The Open Source CFD Toolbox           |
|  \\    /   O peration     | Version:  2312                                  |
|   \\  /    A nd           | Website:  www.openfoam.com                      |
|    \\/     M anipulation  |                                                 |
\*---------------------------------------------------------------------------*/
FoamFile
{
    version     2.0;
    format      ascii;
    arch        "LSB;label=32;scalar=64";
    class       volVectorField;
    location    "10";
    object      U;
}
// * * * * * * * * * * * * * * * * * * * * * * * * * * * * * * * * * * * * * //

dimensions      [0 1 -1 0 0 0 0];

internalField   nonuniform List<vector> 
4000
(
(0.0026813448 0.00052980181 0)
(0.0043108157 -1.014971e-05 0)
(0.0028682878 -3.8536995e-07 0)
(0.0031124525 7.1965837e-08 0)
(0.0030044448 -2.0345544e-07 0)
(0.0030582821 1.8862807e-07 0)
(0.0029969579 -2.1430189e-07 0)
(0.0030398415 1.8298923e-07 0)
(0.0029992377 -1.754516e-07 0)
(0.0030351594 1.6387465e-07 0)
(0.0030015709 -1.5442402e-07 0)
(0.0030326955 1.452142e-07 0)
(0.0030034193 -1.3700297e-07 0)
(0.0030308269 1.2904374e-07 0)
(0.0030050273 -1.2176314e-07 0)
(0.003029246 1.1480703e-07 0)
(0.0030064693 -1.0833029e-07 0)
(0.0030278597 1.0220922e-07 0)
(0.0030077613 -9.6468647e-08 0)
(0.0030266299 9.1071468e-08 0)
(0.0030089168 -8.5998261e-08 0)
(0.003025534 8.1241511e-08 0)
(0.0030099499 -7.676952e-08 0)
(0.0030245548 7.2584601e-08 0)
(0.0030108746 -6.8653461e-08 0)
(0.003023678 6.4981465e-08 0)
(0.0030117036 -6.1537099e-08 0)
(0.0030228914 5.8326426e-08 0)
(0.0030124483 -5.5320703e-08 0)
(0.0030221838 5.2525851e-08 0)
(0.0030131192 -4.991612e-08 0)
(0.0030215453 4.7496986e-08 0)
(0.0030137259 -4.524568e-08 0)
(0.0030209666 4.3167121e-08 0)
(0.0030142771 -4.1241427e-08 0)
(0.0030204395 3.947293e-08 0)
(0.0030147807 -3.7844529e-08 0)
(0.0030199563 3.6359956e-08 0)
(0.0030152441 -3.5004793e-08 0)
(0.0030195098 3.3782193e-08 0)
(0.0030156742 -3.26803e-08 0)
(0.0030190937 3.1701878e-08 0)
(0.0030160773 -3.0837366e-08 0)
(0.0030187015 3.0089023e-08 0)
(0.0030164585 -2.9453842e-08 0)
(0.0030183264 2.8917344e-08 0)
(0.0030168257 -2.8524068e-08 0)
(0.0030179881 2.8226606e-08 0)
(0.0030172952 -2.7691171e-08 0)
(0.0030180166 3.0079288e-08 0)
(0.0068821971 0.0013814334 0)
(0.011826545 2.240583e-06 0)
(0.0085681749 1.410903e-05 0)
(0.0089819489 -5.91784e-07 0)
(0.0087198889 -1.8831209e-07 0)
(0.0088773514 8.6313767e-07 0)
(0.0086991255 -4.8185199e-07 0)
(0.0088247572 6.5617146e-07 0)
(0.0087050178 -5.8442545e-07 0)
(0.0088117812 5.7765006e-07 0)
(0.0087119928 -5.4130033e-07 0)
(0.0088046846 5.1633418e-07 0)
(0.0087174973 -4.8513007e-07 0)
(0.0087991694 4.5942135e-07 0)
(0.0087222966 -4.3239861e-07 0)
(0.0087944656 4.0847653e-07 0)
(0.0087266057 -3.8500938e-07 0)
(0.0087903318 3.6348751e-07 0)
(0.0087304679 -3.4292687e-07 0)
(0.0087866622 3.2380109e-07 0)
(0.0087339221 -3.0571698e-07 0)
(0.008783391 2.8881533e-07 0)
(0.0087370111 -2.7290612e-07 0)
(0.0087804676 2.5802483e-07 0)
(0.008739776 -2.4405321e-07 0)
(0.0087778499 2.3099503e-07 0)
(0.0087422549 -2.1876051e-07 0)
(0.0087755006 2.07345e-07 0)
(0.0087444825 -1.9667299e-07 0)
(0.0087733865 1.8673847e-07 0)
(0.0087464902 -1.7747551e-07 0)
(0.0087714776 1.6887875e-07 0)
(0.0087483069 -1.6089018e-07 0)
(0.0087697462 1.5350548e-07 0)
(0.0087499588 -1.4667392e-07 0)
(0.0087681674 1.4039215e-07 0)
(0.00875147 -1.3461634e-07 0)
(0.008766718 1.2934397e-07 0)
(0.0087528626 -1.2453783e-07 0)
(0.0087653767 1.2019592e-07 0)
(0.0087541573 -1.1628787e-07 0)
(0.0087641237 1.128115e-07 0)
(0.0087553731 -1.0974109e-07 0)
(0.0087629402 1.0708938e-07 0)
(0.0087565265 -1.0478831e-07 0)
(0.0087618047 1.0292129e-07 0)
(0.0087576341 -1.0166406e-07 0)
(0.0087607406 9.8952026e-08 0)
(0.0087589419 -1.0441513e-07 0)
(0.0087606005 9.5420528e-08 0)
(0.010852284 0.0021396409 0)
(0.018799582 -1.9883648e-05 0)
(0.014122971 3.5167208e-05 0)
(0.014693628 -6.5287628e-07 0)
(0.014284428 -1.3779454e-07 0)
(0.01454762 1.6954939e-06 0)
(0.014251087 -6.9576122e-07 0)
(0.014463482 1.2022523e-06 0)
(0.01426161 -1.0429904e-06 0)
(0.01444261 1.0496816e-06 0)
(0.014273632 -9.8316054e-07 0)
(0.014430817 9.4190248e-07 0)
(0.014282993 -8.8388544e-07 0)
(0.01442152 8.3851731e-07 0)
(0.014291147 -7.8850771e-07 0)
(0.014413553 7.4534911e-07 0)
(0.014298467 -7.022711e-07 0)
(0.014406542 6.6314125e-07 0)
(0.014305027 -6.2554787e-07 0)
(0.014400315 5.9067935e-07 0)
(0.014310893 -5.5766596e-07 0)
(0.014394763 5.2682349e-07 0)
(0.014316139 -4.9779783e-07 0)
(0.014389801 4.7063483e-07 0)
(0.014320834 -4.4515021e-07 0)
(0.014385357 4.2131422e-07 0)
(0.014325044 -3.9900032e-07 0)
(0.014381369 3.7816362e-07 0)
(0.014328827 -3.5870017e-07 0)
(0.01437778 3.4056747e-07 0)
(0.014332238 -3.2367369e-07 0)
(0.014374539 3.0798287e-07 0)
(0.014335324 -2.9341257e-07 0)
(0.014371599 2.7993349e-07 0)
(0.014338131 -2.6747212e-07 0)
(0.014368916 2.5600491e-07 0)
(0.0143407 -2.4546737e-07 0)
(0.014366452 2.3584061e-07 0)
(0.014343069 -2.2706935e-07 0)
(0.014364171 2.1913803e-07 0)
(0.014345272 -2.1200175e-07 0)
(0.014362038 2.0564551e-07 0)
(0.014347343 -2.0003171e-07 0)
(0.014360021 1.9517882e-07 0)
(0.014349311 -1.9093346e-07 0)
(0.014358084 1.875554e-07 0)
(0.0143512 -1.8517236e-07 0)
(0.014356244 1.7964311e-07 0)
(0.014353357 -1.9328412e-07 0)
(0.014355803 1.7288628e-07 0)
(0.015582112 0.0031103609 0)
(0.025367051 -3.2689718e-05 0)
(0.019505896 6.289551e-05 0)
(0.020248943 -1.084245e-06 0)
(0.019698843 1.4406437e-07 0)
(0.020068368 2.619653e-06 0)
(0.019652774 -7.2777463e-07 0)
(0.019956265 1.7291192e-06 0)
(0.019668878 -1.4637112e-06 0)
(0.019927847 1.499728e-06 0)
(0.019686341 -1.4054578e-06 0)
(0.019911274 1.3523849e-06 0)
(0.019699769 -1.2675978e-06 0)
(0.019898039 1.2047088e-06 0)
(0.019711454 -1.131844e-06 0)
(0.019886653 1.0705687e-06 0)
(0.019721942 -1.0083204e-06 0)
(0.019876619 9.5231124e-07 0)
(0.019731338 -8.9821128e-07 0)
(0.019867704 8.4816108e-07 0)
(0.019739739 -8.0073026e-07 0)
(0.019859755 7.5641771e-07 0)
(0.01974725 -7.1474266e-07 0)
(0.019852651 6.7570693e-07 0)
(0.019753973 -6.3912562e-07 0)
(0.019846289 6.0487094e-07 0)
(0.01976 -5.7284464e-07 0)
(0.019840581 5.4290219e-07 0)
(0.019765415 -5.1496839e-07 0)
(0.019835444 4.8891331e-07 0)
(0.019770296 -4.6466763e-07 0)
(0.019830805 4.4212217e-07 0)
(0.019774713 -4.2121044e-07 0)
(0.019826596 4.0184283e-07 0)
(0.019778731 -3.839566e-07 0)
(0.019822756 3.6747878e-07 0)
(0.019782409 -3.52352e-07 0)
(0.019819229 3.3851693e-07 0)
(0.0197858 -3.2592311e-07 0)
(0.019815962 3.1452159e-07 0)
(0.019788956 -3.04272e-07 0)
(0.019812908 2.9512928e-07 0)
(0.019791922 -2.8706064e-07 0)
(0.019810019 2.8007986e-07 0)
(0.019794742 -2.7393133e-07 0)
(0.019807243 2.6913943e-07 0)
(0.019797449 -2.6562593e-07 0)
(0.019804582 2.56867e-07 0)
(0.019800464 -2.8193869e-07 0)
(0.019803701 2.4738843e-07 0)
(0.018765963 0.0034758751 0)
(0.031514936 -8.0051361e-05 0)
(0.024736732 9.6913353e-05 0)
(0.025653539 -1.4833273e-06 0)
(0.024962539 6.4476463e-07 0)
(0.025438842 3.6172606e-06 0)
(0.024904078 -5.8817396e-07 0)
(0.02530298 2.2091488e-06 0)
(0.024926942 -1.8308336e-06 0)
(0.025267362 1.9075131e-06 0)
(0.024950225 -1.791035e-06 0)
(0.025245936 1.730644e-06 0)
(0.024967919 -1.6204132e-06 0)
(0.025228622 1.5428265e-06 0)
(0.024983303 -1.4481661e-06 0)
(0.02521367 1.3706604e-06 0)
(0.024997105 -1.2904514e-06 0)
(0.02520048 1.2190148e-06 0)
(0.025009465 -1.1495959e-06 0)
(0.025188758 1.0855771e-06 0)
(0.025020514 -1.0248189e-06 0)
(0.025178304 9.6808579e-07 0)
(0.025030392 -9.1473647e-07 0)
(0.025168964 8.6474697e-07 0)
(0.025039231 -8.179316e-07 0)
(0.025160601 7.7406459e-07 0)
(0.025047153 -7.3308401e-07 0)
(0.025153098 6.9474179e-07 0)
(0.025054271 -6.5900016e-07 0)
(0.025146346 6.2563805e-07 0)
(0.025060685 -5.9461596e-07 0)
(0.02514025 5.6574889e-07 0)
(0.02506649 -5.3899202e-07 0)
(0.02513472 5.141939e-07 0)
(0.025071769 -4.9130689e-07 0)
(0.025129675 4.7020791e-07 0)
(0.025076601 -4.5084991e-07 0)
(0.025125042 4.33133e-07 0)
(0.025081056 -4.1701385e-07 0)
(0.02512075 4.0241032e-07 0)
(0.025085201 -3.892884e-07 0)
(0.025116738 3.7757249e-07 0)
(0.025089097 -3.6723734e-07 0)
(0.025112944 3.5829297e-07 0)
(0.025092801 -3.5036068e-07 0)
(0.025109299 3.4431898e-07 0)
(0.025096356 -3.3967687e-07 0)
(0.025105785 3.2756737e-07 0)
(0.025100239 -3.6637108e-07 0)
(0.025104345 3.1575048e-07 0)
(0.023865273 0.0045560768 0)
(0.03729478 -8.7933084e-05 0)
(0.029782021 0.00013531598 0)
(0.030909143 -2.7255851e-06 0)
(0.030074644 1.3666296e-06 0)
(0.030658686 4.6828792e-06 0)
(0.030005307 -3.0434167e-07 0)
(0.030503321 2.6397801e-06 0)
(0.030036211 -2.1493878e-06 0)
(0.030460819 2.2741542e-06 0)
(0.030065625 -2.1423937e-06 0)
(0.030434496 2.0783143e-06 0)
(0.030087739 -1.9441009e-06 0)
(0.030412993 1.8543371e-06 0)
(0.030106955 -1.738933e-06 0)
(0.030394361 1.6469358e-06 0)
(0.030124186 -1.5499359e-06 0)
(0.03037791 1.4644292e-06 0)
(0.030139613 -1.3808294e-06 0)
(0.030363285 1.3039839e-06 0)
(0.030153401 -1.2309395e-06 0)
(0.030350244 1.1627766e-06 0)
(0.030165724 -1.0986832e-06 0)
(0.030338592 1.0386084e-06 0)
(0.030176748 -9.8238125e-07 0)
(0.030328163 9.2966423e-07 0)
(0.030186628 -8.8045151e-07 0)
(0.030318806 8.3437688e-07 0)
(0.030195503 -7.9145814e-07 0)
(0.030310389 7.513705e-07 0)
(0.0302035 -7.1411958e-07 0)
(0.030302789 6.7943444e-07 0)
(0.030210735 -6.4730445e-07 0)
(0.030295896 6.1750839e-07 0)
(0.030217315 -5.900238e-07 0)
(0.030289609 5.6467135e-07 0)
(0.030223335 -5.4142241e-07 0)
(0.030283835 5.2013175e-07 0)
(0.030228886 -5.0076961e-07 0)
(0.030278489 4.832169e-07 0)
(0.03023405 -4.6745121e-07 0)
(0.030273491 4.5336258e-07 0)
(0.030238903 -4.4093903e-07 0)
(0.030268766 4.3018301e-07 0)
(0.030243516 -4.2058051e-07 0)
(0.030264228 4.134371e-07 0)
(0.030247942 -4.0764458e-07 0)
(0.030259838 3.9215542e-07 0)
(0.0302527 -4.4634887e-07 0)
(0.030257737 3.778461e-07 0)
(0.026499343 0.0046348435 0)
(0.04257495 -0.0001674804 0)
(0.034686652 0.00017593054 0)
(0.036014818 -4.3336662e-06 0)
(0.035032465 2.2532991e-06 0)
(0.035727465 5.7988232e-06 0)
(0.034956582 8.2348378e-08 0)
(0.035556847 3.013998e-06 0)
(0.034997057 -2.4263844e-06 0)
(0.035507839 2.6009821e-06 0)
(0.035032883 -2.4629428e-06 0)
(0.035476627 2.397611e-06 0)
(0.035059537 -2.2410981e-06 0)
(0.035450863 2.1412946e-06 0)
(0.035082683 -2.0061767e-06 0)
(0.03542847 1.9012471e-06 0)
(0.035103429 -1.7885544e-06 0)
(0.035408681 1.690217e-06 0)
(0.035121996 -1.5934939e-06 0)
(0.035391085 1.504871e-06 0)
(0.035138586 -1.4205046e-06 0)
(0.035375396 1.3418249e-06 0)
(0.035153411 -1.2678476e-06 0)
(0.03536138 1.1984887e-06 0)
(0.035166671 -1.1336096e-06 0)
(0.035348836 1.0727457e-06 0)
(0.035178553 -1.015968e-06 0)
(0.035337585 9.6277641e-07 0)
(0.035189223 -9.1326297e-07 0)
(0.035327465 8.6698601e-07 0)
(0.035198838 -8.2401175e-07 0)
(0.035318329 7.8397279e-07 0)
(0.035207535 -7.4690535e-07 0)
(0.035310043 7.1251012e-07 0)
(0.035215443 -6.8080014e-07 0)
(0.035302488 6.5153322e-07 0)
(0.035222678 -6.2470751e-07 0)
(0.03529555 6.0012721e-07 0)
(0.035229348 -5.7778284e-07 0)
(0.035289126 5.5751417e-07 0)
(0.035235551 -5.3931585e-07 0)
(0.035283123 5.2303943e-07 0)
(0.03524138 -5.086922e-07 0)
(0.035277449 4.9626347e-07 0)
(0.03524692 -4.8509789e-07 0)
(0.035272001 4.7698658e-07 0)
(0.035252234 -4.7000743e-07 0)
(0.035266718 4.5119732e-07 0)
(0.035257868 -5.2184297e-07 0)
(0.035263872 4.3391095e-07 0)
(0.031613614 0.0056409247 0)
(0.047550186 -0.00017096156 0)
(0.039414736 0.00021549041 0)
(0.040957967 -5.1399023e-06 0)
(0.039838207 3.7038857e-06 0)
(0.040645919 7.0014223e-06 0)
(0.039758757 5.6902077e-07 0)
(0.040463433 3.3296296e-06 0)
(0.039809932 -2.6624927e-06 0)
(0.040408145 2.8880353e-06 0)
(0.039852319 -2.7531228e-06 0)
(0.04037205 2.6886675e-06 0)
(0.039883584 -2.5115832e-06 0)
(0.040341979 2.4037551e-06 0)
(0.039910726 -2.2499905e-06 0)
(0.040315771 2.1336462e-06 0)
(0.039935045 -2.0063767e-06 0)
(0.040292593 1.8964349e-06 0)
(0.039956801 -1.7876512e-06 0)
(0.040271983 1.6882964e-06 0)
(0.039976236 -1.5935727e-06 0)
(0.040253606 1.5052879e-06 0)
(0.0399936 -1.4222859e-06 0)
(0.040237192 1.3444432e-06 0)
(0.040009128 -1.2716702e-06 0)
(0.040222503 1.2033621e-06 0)
(0.040023039 -1.1396844e-06 0)
(0.04020933 1.0799906e-06 0)
(0.040035532 -1.0244629e-06 0)
(0.040197483 9.7253195e-07 0)
(0.040046785 -9.2433804e-07 0)
(0.040186789 8.7940867e-07 0)
(0.040056965 -8.3783793e-07 0)
(0.040177092 7.9924163e-07 0)
(0.04006622 -7.6367724e-07 0)
(0.04016825 7.3083441e-07 0)
(0.040074686 -7.0074528e-07 0)
(0.040160132 6.731593e-07 0)
(0.040082489 -6.4809311e-07 0)
(0.040152618 6.2534195e-07 0)
(0.040089745 -6.0492228e-07 0)
(0.040145596 5.8664378e-07 0)
(0.040096562 -5.7053852e-07 0)
(0.040138961 5.5657665e-07 0)
(0.04010304 -5.4396056e-07 0)
(0.040132594 5.3501158e-07 0)
(0.040109253 -5.2681565e-07 0)
(0.040126409 5.04818e-07 0)
(0.040115763 -5.9249219e-07 0)
(0.040122747 4.8391241e-07 0)
(0.034367948 0.0056327884 0)
(0.051945114 -0.00027665597 0)
(0.044053005 0.00025026184 0)
(0.045690152 -5.9332137e-06 0)
(0.044483048 5.0614559e-06 0)
(0.045412439 8.1865792e-06 0)
(0.044411897 1.1101303e-06 0)
(0.045222714 3.5719339e-06 0)
(0.044475131 -2.8612733e-06 0)
(0.045161453 3.1334731e-06 0)
(0.044524196 -3.013148e-06 0)
(0.045120515 2.9508132e-06 0)
(0.044560116 -2.7552113e-06 0)
(0.045086119 2.6411882e-06 0)
(0.044591295 -2.4699557e-06 0)
(0.045056067 2.3436893e-06 0)
(0.044619219 -2.2030107e-06 0)
(0.045029475 2.082703e-06 0)
(0.044644191 -1.9629513e-06 0)
(0.045005825 1.85393e-06 0)
(0.044666494 -1.7498347e-06 0)
(0.044984739 1.6528766e-06 0)
(0.044686416 -1.5617255e-06 0)
(0.044965908 1.4762173e-06 0)
(0.044704229 -1.3963226e-06 0)
(0.044949058 1.3212881e-06 0)
(0.044720185 -1.2513873e-06 0)
(0.044933949 1.1858191e-06 0)
(0.044734512 -1.1248676e-06 0)
(0.044920363 1.0678291e-06 0)
(0.044747417 -1.0149279e-06 0)
(0.0449081 9.6558103e-07 0)
(0.04475909 -9.1994868e-07 0)
(0.044896982 8.7755753e-07 0)
(0.0447697 -8.385163e-07 0)
(0.044886845 8.0244309e-07 0)
(0.044779406 -7.6940966e-07 0)
(0.044877539 7.3910801e-07 0)
(0.04478835 -7.1158542e-07 0)
(0.044868926 6.8659055e-07 0)
(0.044796666 -6.6416519e-07 0)
(0.044860879 6.4407516e-07 0)
(0.044804477 -6.263816e-07 0)
(0.044853277 6.1102998e-07 0)
(0.044811899 -5.9708354e-07 0)
(0.044845986 5.8742511e-07 0)
(0.044819016 -5.7799499e-07 0)
(0.044838895 5.5300216e-07 0)
(0.044826397 -6.5786409e-07 0)
(0.044834359 5.2779598e-07 0)
(0.039547979 0.0064676656 0)
(0.056138765 -0.00027814656 0)
(0.048613755 0.00029481824 0)
(0.050188925 -8.7310129e-06 0)
(0.048960213 5.588898e-06 0)
(0.050026183 9.2097615e-06 0)
(0.048916297 1.6678709e-06 0)
(0.049834497 3.7327561e-06 0)
(0.04899297 -3.0239664e-06 0)
(0.049767537 3.3369538e-06 0)
(0.049048762 -3.2430089e-06 0)
(0.049721804 3.183831e-06 0)
(0.049089345 -2.9717818e-06 0)
(0.049683087 2.8533245e-06 0)
(0.049124575 -2.6658499e-06 0)
(0.049649185 2.5311408e-06 0)
(0.049156116 -2.3782523e-06 0)
(0.04961917 2.2488229e-06 0)
(0.049184312 -2.1192138e-06 0)
(0.049592475 2.0016025e-06 0)
(0.049209488 -1.8891333e-06 0)
(0.049568676 1.7844448e-06 0)
(0.049231972 -1.6860292e-06 0)
(0.049547423 1.5936837e-06 0)
(0.049252074 -1.507446e-06 0)
(0.04952841 1.4264114e-06 0)
(0.049270077 -1.35097e-06 0)
(0.049511363 1.2801621e-06 0)
(0.049286241 -1.214382e-06 0)
(0.049496034 1.1527882e-06 0)
(0.0493008 -1.0956962e-06 0)
(0.049482201 1.0424096e-06 0)
(0.049313966 -9.9316083e-07 0)
(0.04946966 9.4738522e-07 0)
(0.049325934 -9.0524775e-07 0)
(0.049458226 8.6629333e-07 0)
(0.04933688 -8.3063739e-07 0)
(0.049447731 7.9791325e-07 0)
(0.049346967 -7.6820211e-07 0)
(0.049438019 7.4120507e-07 0)
(0.049356344 -7.1699192e-07 0)
(0.049428946 6.9528351e-07 0)
(0.04936515 -6.7617354e-07 0)
(0.049420376 6.5957759e-07 0)
(0.049373517 -6.4442651e-07 0)
(0.049412161 6.3418249e-07 0)
(0.049381538 -6.2351518e-07 0)
(0.049404166 5.9576132e-07 0)
(0.049389783 -7.1760802e-07 0)
(0.049398708 5.6559886e-07 0)
(0.042646105 0.0064972895 0)
(0.059777712 -0.00040072825 0)
(0.05303045 0.00032925507 0)
(0.054527305 -1.1129618e-05 0)
(0.053277392 5.282489e-06 0)
(0.054489053 1.0011925e-05 0)
(0.05327292 2.2178565e-06 0)
(0.054298739 3.8022795e-06 0)
(0.053363765 -3.1529285e-06 0)
(0.054226195 3.4979279e-06 0)
(0.053426239 -3.4432056e-06 0)
(0.054175719 3.3876755e-06 0)
(0.053471463 -3.1613982e-06 0)
(0.054132703 3.0401258e-06 0)
(0.053510736 -2.8376961e-06 0)
(0.054094966 2.6959882e-06 0)
(0.053545883 -2.532112e-06 0)
(0.054061541 2.3947973e-06 0)
(0.053577292 -2.256449e-06 0)
(0.054031811 2.1313236e-06 0)
(0.053605332 -2.0114804e-06 0)
(0.054005308 1.9000053e-06 0)
(0.053630369 -1.7952099e-06 0)
(0.053981644 1.6968561e-06 0)
(0.05365275 -1.6050537e-06 0)
(0.053960476 1.5187458e-06 0)
(0.053672793 -1.4384451e-06 0)
(0.053941498 1.3630324e-06 0)
(0.053690786 -1.293018e-06 0)
(0.053924435 1.2274211e-06 0)
(0.053706991 -1.1666536e-06 0)
(0.053909037 1.1099049e-06 0)
(0.053721645 -1.057484e-06 0)
(0.053895078 1.0087342e-06 0)
(0.053734965 -9.6388042e-07 0)
(0.053882353 9.2239393e-07 0)
(0.053747148 -8.8443677e-07 0)
(0.053870673 8.4958337e-07 0)
(0.053758372 -8.1795123e-07 0)
(0.053859866 7.8919382e-07 0)
(0.053768805 -7.6341068e-07 0)
(0.053849771 7.4027758e-07 0)
(0.053778603 -7.1992333e-07 0)
(0.053840237 7.0222894e-07 0)
(0.053787909 -6.8600263e-07 0)
(0.053831103 6.7529098e-07 0)
(0.053796831 -6.6339893e-07 0)
(0.053822211 6.3314715e-07 0)
(0.053805931 -7.7146164e-07 0)
(0.053815795 5.9744102e-07 0)
(0.047509004 0.0070694719 0)
(0.063381531 -0.00039511924 0)
(0.057184808 0.00035872821 0)
(0.058772366 -1.2116116e-05 0)
(0.057439504 4.4292766e-06 0)
(0.058802312 1.0522604e-05 0)
(0.057482422 2.7515588e-06 0)
(0.058615335 3.7816338e-06 0)
(0.057587749 -3.2472045e-06 0)
(0.058537229 3.6173604e-06 0)
(0.057656813 -3.6139532e-06 0)
(0.058482078 3.5626211e-06 0)
(0.057706638 -3.324259e-06 0)
(0.058434809 3.2017271e-06 0)
(0.057749926 -2.9856503e-06 0)
(0.058393269 2.8383587e-06 0)
(0.057788653 -2.6647264e-06 0)
(0.058356462 2.5207506e-06 0)
(0.05782325 -2.3747804e-06 0)
(0.058323723 2.2432106e-06 0)
(0.057854128 -2.1169883e-06 0)
(0.058294541 1.9996663e-06 0)
(0.057881696 -1.8893698e-06 0)
(0.058268486 1.7858329e-06 0)
(0.057906336 -1.689238e-06 0)
(0.058245181 1.5983797e-06 0)
(0.0579284 -1.5138959e-06 0)
(0.058224289 1.4345097e-06 0)
(0.057948206 -1.36085e-06 0)
(0.058205507 1.291799e-06 0)
(0.057966043 -1.2278671e-06 0)
(0.058188558 1.1681312e-06 0)
(0.057982173 -1.1129787e-06 0)
(0.058173194 1.0616626e-06 0)
(0.057996834 -1.0144693e-06 0)
(0.058159189 9.7079777e-07 0)
(0.058010241 -9.3085824e-07 0)
(0.058146334 8.9416713e-07 0)
(0.058022593 -8.6087966e-07 0)
(0.058134441 8.3060238e-07 0)
(0.058034074 -8.0346568e-07 0)
(0.058123334 7.7910087e-07 0)
(0.058044854 -7.5767359e-07 0)
(0.058112845 7.3902625e-07 0)
(0.058055092 -7.2185667e-07 0)
(0.058102801 7.1078874e-07 0)
(0.058064907 -6.9770085e-07 0)
(0.058093022 6.6523372e-07 0)
(0.058074847 -8.1922965e-07 0)
(0.05808562 6.2349751e-07 0)
(0.050855232 0.0071333693 0)
(0.06648496 -0.0005241544 0)
(0.061126515 0.00038114512 0)
(0.06293651 -1.206703e-05 0)
(0.061449371 3.5808945e-06 0)
(0.062967337 1.0803589e-05 0)
(0.061545428 3.2831345e-06 0)
(0.062784187 3.6777308e-06 0)
(0.061665135 -3.3047352e-06 0)
(0.062700454 3.6964682e-06 0)
(0.061740651 -3.7556601e-06 0)
(0.062640716 3.7089686e-06 0)
(0.061795021 -3.4607306e-06 0)
(0.062589258 3.3383426e-06 0)
(0.061842281 -3.1099891e-06 0)
(0.062543968 2.9584719e-06 0)
(0.061884545 -2.7763298e-06 0)
(0.062503824 2.6268941e-06 0)
(0.061922289 -2.4744154e-06 0)
(0.062468115 2.3374585e-06 0)
(0.061955968 -2.2058433e-06 0)
(0.062436288 2.0836044e-06 0)
(0.061986033 -1.9686761e-06 0)
(0.062407873 1.860773e-06 0)
(0.062012903 -1.7601489e-06 0)
(0.062382461 1.6654557e-06 0)
(0.062036961 -1.5774565e-06 0)
(0.06235968 1.4947214e-06 0)
(0.062058557 -1.4179984e-06 0)
(0.0623392 1.3460362e-06 0)
(0.062078005 -1.2794447e-06 0)
(0.062320721 1.2171911e-06 0)
(0.062095591 -1.1597424e-06 0)
(0.062303971 1.1062633e-06 0)
(0.062111574 -1.0571028e-06 0)
(0.062288701 1.0115895e-06 0)
(0.06212619 -9.699827e-07 0)
(0.062274688 9.3174239e-07 0)
(0.062139656 -8.9706217e-07 0)
(0.062261723 8.6550318e-07 0)
(0.062152171 -8.3722699e-07 0)
(0.062249616 8.1182182e-07 0)
(0.06216392 -7.8949107e-07 0)
(0.062238185 7.7003528e-07 0)
(0.062175077 -7.5205594e-07 0)
(0.062227243 7.4073612e-07 0)
(0.062185774 -7.2649803e-07 0)
(0.06221659 6.9211006e-07 0)
(0.06219654 -8.607726e-07 0)
(0.062208185 6.4398253e-07 0)
(0.055574797 0.0075126514 0)
(0.069653276 -0.0005183969 0)
(0.064889731 0.00040219058 0)
(0.066971856 -1.3035544e-05 0)
(0.065312102 2.949687e-06 0)
(0.066984002 1.0755363e-05 0)
(0.065462278 3.8028597e-06 0)
(0.066805215 3.4905102e-06 0)
(0.065596159 -3.3243321e-06 0)
(0.066715742 3.7367886e-06 0)
(0.065677916 -3.8685754e-06 0)
(0.066651495 3.8272827e-06 0)
(0.065736749 -3.5711987e-06 0)
(0.066595927 3.4503311e-06 0)
(0.06578792 -3.2110656e-06 0)
(0.066546951 3.0566495e-06 0)
(0.065833662 -2.867238e-06 0)
(0.066503527 2.7135227e-06 0)
(0.0658745 -2.5556366e-06 0)
(0.0664649 2.4143342e-06 0)
(0.065910933 -2.2782984e-06 0)
(0.066430473 2.1520597e-06 0)
(0.065943452 -2.0333552e-06 0)
(0.06639974 1.9218912e-06 0)
(0.065972513 -1.8179886e-06 0)
(0.066372255 1.7201658e-06 0)
(0.065998531 -1.6293076e-06 0)
(0.066347619 1.5438391e-06 0)
(0.066021885 -1.4646249e-06 0)
(0.066325471 1.3902865e-06 0)
(0.066042916 -1.3215317e-06 0)
(0.066305488 1.2572231e-06 0)
(0.066061933 -1.197906e-06 0)
(0.066287374 1.1426614e-06 0)
(0.066079217 -1.0918999e-06 0)
(0.066270862 1.0448832e-06 0)
(0.066095022 -1.001919e-06 0)
(0.066255709 9.6241384e-07 0)
(0.066109582 -9.2659934e-07 0)
(0.066241691 8.939934e-07 0)
(0.066123113 -8.6478852e-07 0)
(0.0662286 8.3853192e-07 0)
(0.066135815 -8.1546477e-07 0)
(0.066216243 7.9534346e-07 0)
(0.066147876 -7.7668845e-07 0)
(0.066204418 7.6521391e-07 0)
(0.066159441 -7.4988771e-07 0)
(0.06619291 7.1387925e-07 0)
(0.066171015 -8.9600224e-07 0)
(0.066183491 6.5913989e-07 0)
(0.059218835 0.0075839675 0)
(0.072385834 -0.00064137873 0)
(0.068547218 0.00041066386 0)
(0.070830693 -1.4873156e-05 0)
(0.069033717 2.2260079e-06 0)
(0.070852174 1.0340879e-05 0)
(0.069233162 4.2759942e-06 0)
(0.070678338 3.2081083e-06 0)
(0.06938103 -3.3099742e-06 0)
(0.070582989 3.7380633e-06 0)
(0.069468762 -3.9537852e-06 0)
(0.070514296 3.9179346e-06 0)
(0.069531946 -3.6562659e-06 0)
(0.070454703 3.5380954e-06 0)
(0.069586948 -3.2893453e-06 0)
(0.07040212 3.133288e-06 0)
(0.069636098 -2.9378521e-06 0)
(0.070355486 2.7810036e-06 0)
(0.069679965 -2.6187982e-06 0)
(0.070314001 2.4741701e-06 0)
(0.069719094 -2.3346688e-06 0)
(0.07027703 2.20533e-06 0)
(0.069754015 -2.0836879e-06 0)
(0.070244027 1.9694535e-06 0)
(0.06978522 -1.8630076e-06 0)
(0.070214514 1.7627472e-06 0)
(0.069813158 -1.669673e-06 0)
(0.070188061 1.582075e-06 0)
(0.069838234 -1.5009298e-06 0)
(0.07016428 1.4247402e-06 0)
(0.069860815 -1.354308e-06 0)
(0.070142823 1.2883983e-06 0)
(0.069881233 -1.2276321e-06 0)
(0.070123374 1.1710118e-06 0)
(0.06989979 -1.1190082e-06 0)
(0.070105646 1.0708199e-06 0)
(0.069916759 -1.0268022e-06 0)
(0.070089377 9.8631114e-07 0)
(0.069932392 -9.4961572e-07 0)
(0.070074326 9.1619332e-07 0)
(0.069946918 -8.8626647e-07 0)
(0.070060273 8.593441e-07 0)
(0.069960553 -8.3570448e-07 0)
(0.070047009 8.1505843e-07 0)
(0.069973499 -7.9586149e-07 0)
(0.07003432 7.8432206e-07 0)
(0.069985913 -7.6798554e-07 0)
(0.070021975 7.3065792e-07 0)
(0.069998276 -9.2487748e-07 0)
(0.07001154 6.6923509e-07 0)
(0.063788475 0.0077866589 0)
(0.075252694 -0.00063024493 0)
(0.072131997 0.00042061149 0)
(0.074485485 -1.7664978e-05 0)
(0.072619081 1.1892362e-06 0)
(0.074571176 9.5762118e-06 0)
(0.072858455 4.6986693e-06 0)
(0.074403485 2.8314339e-06 0)
(0.073019931 -3.2609646e-06 0)
(0.074302104 3.7020689e-06 0)
(0.073113322 -4.0116684e-06 0)
(0.074229016 3.9817187e-06 0)
(0.073180721 -3.7164711e-06 0)
(0.07416549 3.6021949e-06 0)
(0.07323946 -3.3453384e-06 0)
(0.074109389 3.1888778e-06 0)
(0.073291935 -2.9886341e-06 0)
(0.074059623 2.8297754e-06 0)
(0.073338757 -2.6643137e-06 0)
(0.074015352 2.5173578e-06 0)
(0.073380515 -2.3753234e-06 0)
(0.073975899 2.2437645e-06 0)
(0.073417778 -2.1200033e-06 0)
(0.073940683 2.0037713e-06 0)
(0.073451075 -1.8954993e-06 0)
(0.073909191 1.7934779e-06 0)
(0.073480884 -1.6988148e-06 0)
(0.073880965 1.6096774e-06 0)
(0.073507639 -1.5271478e-06 0)
(0.073855592 1.4496198e-06 0)
(0.073531732 -1.3779845e-06 0)
(0.073832698 1.3109173e-06 0)
(0.073553518 -1.2491111e-06 0)
(0.073811946 1.1914963e-06 0)
(0.073573317 -1.1386006e-06 0)
(0.07379303 1.0895652e-06 0)
(0.073591422 -1.0447904e-06 0)
(0.073775672 1.0035863e-06 0)
(0.0736081 -9.6625733e-07 0)
(0.073759615 9.3224386e-07 0)
(0.073623598 -9.0179696e-07 0)
(0.073744622 8.7439059e-07 0)
(0.073638144 -8.5033863e-07 0)
(0.073730472 8.2930602e-07 0)
(0.073651954 -8.096997e-07 0)
(0.073716941 7.9817785e-07 0)
(0.073665198 -7.8092338e-07 0)
(0.073703782 7.4257509e-07 0)
(0.073678328 -9.4740017e-07 0)
(0.073692334 6.745481e-07 0)
(0.067652318 0.0078489572 0)
(0.077735273 -0.00074469397 0)
(0.075638013 0.00041905717 0)
(0.077957943 -2.0583875e-05 0)
(0.076068677 -6.2293284e-07 0)
(0.078140501 8.580839e-06 0)
(0.076338801 5.06355e-06 0)
(0.077980378 2.3664655e-06 0)
(0.076512904 -3.1764227e-06 0)
(0.077872925 3.6305445e-06 0)
(0.076611666 -4.0428589e-06 0)
(0.077795537 4.0193095e-06 0)
(0.076683157 -3.7525605e-06 0)
(0.077728197 3.6431837e-06 0)
(0.076745534 -3.3796713e-06 0)
(0.077668679 3.2239499e-06 0)
(0.076801243 -3.0201221e-06 0)
(0.077615871 2.8603267e-06 0)
(0.076850937 -2.692655e-06 0)
(0.077568893 2.5443375e-06 0)
(0.076895249 -2.4006801e-06 0)
(0.077527028 2.2677567e-06 0)
(0.07693479 -2.1426727e-06 0)
(0.077489661 2.0251952e-06 0)
(0.076970119 -1.9157946e-06 0)
(0.077456247 1.8126706e-06 0)
(0.077001747 -1.7170282e-06 0)
(0.077426298 1.6269262e-06 0)
(0.077030134 -1.5435434e-06 0)
(0.077399376 1.4651765e-06 0)
(0.077055697 -1.3927991e-06 0)
(0.077375085 1.3250063e-06 0)
(0.077078812 -1.262558e-06 0)
(0.077353066 1.2043196e-06 0)
(0.077099819 -1.1508725e-06 0)
(0.077332997 1.1013059e-06 0)
(0.077119029 -1.0560625e-06 0)
(0.077314579 1.0144111e-06 0)
(0.077136724 -9.7668918e-07 0)
(0.077297543 9.423042e-07 0)
(0.077153166 -9.1153377e-07 0)
(0.077281637 8.8382063e-07 0)
(0.077168598 -8.5951217e-07 0)
(0.077266626 8.3822809e-07 0)
(0.077183248 -8.1834303e-07 0)
(0.077252276 8.0691399e-07 0)
(0.077197299 -7.8884719e-07 0)
(0.077238327 7.4977094e-07 0)
(0.077211172 -9.6361098e-07 0)
(0.077225874 6.7536732e-07 0)
(0.0720244 0.0078987736 0)
(0.080418644 -0.00072817748 0)
(0.079022724 0.00041943351 0)
(0.081293006 -2.2660069e-05 0)
(0.079389432 -2.891317e-06 0)
(0.081560741 7.4648719e-06 0)
(0.079676064 5.3970078e-06 0)
(0.081408998 1.8364076e-06 0)
(0.079860142 -3.0504123e-06 0)
(0.081295392 3.5277803e-06 0)
(0.079963897 -4.0469426e-06 0)
(0.081213777 4.0319516e-06 0)
(0.080039334 -3.765114e-06 0)
(0.081142747 3.661793e-06 0)
(0.080105241 -3.3929761e-06 0)
(0.081079924 3.2391206e-06 0)
(0.080164084 -3.0328933e-06 0)
(0.081024172 2.8732038e-06 0)
(0.080216559 -2.7043371e-06 0)
(0.080974573 2.5555954e-06 0)
(0.080263346 -2.4111968e-06 0)
(0.080930373 2.2777392e-06 0)
(0.080305091 -2.1521037e-06 0)
(0.080890923 2.0341108e-06 0)
(0.080342389 -1.9242567e-06 0)
(0.080855647 1.8206693e-06 0)
(0.080375779 -1.7246379e-06 0)
(0.080824029 1.6341288e-06 0)
(0.080405747 -1.5504074e-06 0)
(0.080795606 1.4716863e-06 0)
(0.080432734 -1.3990135e-06 0)
(0.080769961 1.3309143e-06 0)
(0.080457136 -1.2682092e-06 0)
(0.080746716 1.2097075e-06 0)
(0.080479314 -1.1560389e-06 0)
(0.080725528 1.1062479e-06 0)
(0.080499594 -1.0608154e-06 0)
(0.080706084 1.0189744e-06 0)
(0.080518275 -9.81093e-07 0)
(0.080688099 9.4654962e-07 0)
(0.080535632 -9.1564623e-07 0)
(0.080671307 8.8779849e-07 0)
(0.080551922 -8.6338461e-07 0)
(0.080655462 8.4198068e-07 0)
(0.080567386 -8.219449e-07 0)
(0.080640318 8.1067684e-07 0)
(0.080582221 -7.9191511e-07 0)
(0.080625605 7.5239557e-07 0)
(0.080596813 -9.7358568e-07 0)
(0.080612164 6.7198444e-07 0)
(0.076047174 0.0079373259 0)
(0.082770874 -0.0008288602 0)
(0.082226634 0.00040587716 0)
(0.084524596 -2.3488726e-05 0)
(0.082585339 -5.2700489e-06 0)
(0.084832172 6.3806408e-06 0)
(0.08287219 5.7095454e-06 0)
(0.084689228 1.2670832e-06 0)
(0.083061814 -2.8813037e-06 0)
(0.084569467 3.396776e-06 0)
(0.083170112 -4.0241767e-06 0)
(0.08448367 4.0206617e-06 0)
(0.083249326 -3.7549185e-06 0)
(0.084409077 3.6587355e-06 0)
(0.083318642 -3.3859787e-06 0)
(0.084343068 3.2350347e-06 0)
(0.083380512 -3.0275833e-06 0)
(0.084284476 2.8689897e-06 0)
(0.083435673 -2.6999191e-06 0)
(0.084232348 2.5516537e-06 0)
(0.083484847 -2.4073687e-06 0)
(0.084185895 2.2741777e-06 0)
(0.08352872 -2.1487361e-06 0)
(0.084144434 2.0309329e-06 0)
(0.083567918 -1.9212774e-06 0)
(0.08410736 1.8178444e-06 0)
(0.083603008 -1.7219939e-06 0)
(0.084074131 1.6316169e-06 0)
(0.083634503 -1.5480537e-06 0)
(0.08404426 1.469447e-06 0)
(0.083662864 -1.3969101e-06 0)
(0.084017308 1.3289099e-06 0)
(0.08368851 -1.2663203e-06 0)
(0.083992878 1.2079036e-06 0)
(0.083711818 -1.1543323e-06 0)
(0.083970609 1.1046133e-06 0)
(0.083733131 -1.0592619e-06 0)
(0.083950175 1.0174808e-06 0)
(0.083752764 -9.7966517e-07 0)
(0.083931273 9.4516954e-07 0)
(0.083771006 -9.1431731e-07 0)
(0.083913626 8.8650163e-07 0)
(0.083788125 -8.6212827e-07 0)
(0.083896974 8.4073232e-07 0)
(0.083804374 -8.2067063e-07 0)
(0.083881065 8.0962493e-07 0)
(0.083819966 -7.9029578e-07 0)
(0.083865616 7.5060797e-07 0)
(0.083835251 -9.7743165e-07 0)
(0.083851204 6.6469031e-07 0)
(0.080171434 0.0078524401 0)
(0.085350264 -0.00080457594 0)
(0.085273597 0.00039548555 0)
(0.087644628 -2.4733226e-05 0)
(0.085649991 -7.8376132e-06 0)
(0.087952513 5.2846114e-06 0)
(0.08592753 5.947769e-06 0)
(0.087820436 6.7399846e-07 0)
(0.08611784 -2.6756886e-06 0)