/*--------------------------------*- C++ -*----------------------------------*\
| =========                 |                                                 |
| \\      /  F ield         | OpenFOAM: The Open Source CFD Toolbox           |
|  \\    /   O peration     | Version:  2312                                  |
|   \\  /    A nd           | Website:  www.openfoam.com                      |
|    \\/     M anipulation  |                                                 |
\*---------------------------------------------------------------------------*/
FoamFile
{
    version     2.0;
    format      ascii;
    arch        "LSB;label=32;scalar=64";
    class       volVectorField;
    location    "10";
    object      U_0;
}
// * * * * * * * * * * * * * * * * * * * * * * * * * * * * * * * * * * * * * //

dimensions      [0 1 -1 0 0 0 0];

internalField   nonuniform List<vector> 
4000
(
(0.0025523529 0.00050292398 0)
(0.0043049395 -1.0732596e-05 0)
(0.0028677755 -4.9569608e-07 0)
(0.0031123904 5.8372337e-08 0)
(0.0030044586 -2.0306779e-07 0)
(0.0030582475 1.8819851e-07 0)
(0.0029969634 -2.1419774e-07 0)
(0.0030398287 1.8294691e-07 0)
(0.002999244 -1.7541675e-07 0)
(0.0030351537 1.6386233e-07 0)
(0.0030015747 -1.5442578e-07 0)
(0.0030326936 1.4522821e-07 0)
(0.00300342 -1.370257e-07 0)
(0.0030308274 1.2907229e-07 0)
(0.003005026 -1.2179497e-07 0)
(0.0030292479 1.1484001e-07 0)
(0.0030064669 -1.0836272e-07 0)
(0.0030278622 1.0223979e-07 0)
(0.0030077587 -9.6496479e-08 0)
(0.0030266324 9.1095955e-08 0)
(0.0030089144 -8.6019151e-08 0)
(0.0030255361 8.1258727e-08 0)
(0.0030099481 -7.6783219e-08 0)
(0.0030245563 7.2595026e-08 0)
(0.0030108734 -6.8660976e-08 0)
(0.003023679 6.4986452e-08 0)
(0.0030117029 -6.1539978e-08 0)
(0.0030228919 5.8327594e-08 0)
(0.003012448 -5.5320539e-08 0)
(0.003022184 5.2524697e-08 0)
(0.0030131192 -4.9914273e-08 0)
(0.0030215452 4.7494701e-08 0)
(0.003013726 -4.5243161e-08 0)
(0.0030209665 4.3164535e-08 0)
(0.0030142773 -4.1238896e-08 0)
(0.0030204393 3.9470546e-08 0)
(0.0030147809 -3.7842349e-08 0)
(0.0030199561 3.635802e-08 0)
(0.0030152443 -3.5003114e-08 0)
(0.0030195097 3.3780775e-08 0)
(0.0030156744 -3.2679131e-08 0)
(0.0030190935 3.1700942e-08 0)
(0.0030160774 -3.083664e-08 0)
(0.0030187014 3.0088481e-08 0)
(0.0030164586 -2.9453457e-08 0)
(0.0030183264 2.8917089e-08 0)
(0.0030168257 -2.8523915e-08 0)
(0.0030179881 2.8226528e-08 0)
(0.0030172953 -2.7691139e-08 0)
(0.0030180165 3.0079323e-08 0)
(0.006690218 0.0013509518 0)
(0.011841057 -1.058479e-06 0)
(0.0085725397 1.4393959e-05 0)
(0.0089817049 -5.3035916e-07 0)
(0.0087198901 -1.874411e-07 0)
(0.0088772713 8.6409755e-07 0)
(0.0086991311 -4.8180972e-07 0)
(0.0088247262 6.5597971e-07 0)
(0.0087050298 -5.8441878e-07 0)
(0.0088117699 5.7764489e-07 0)
(0.0087119986 -5.4136162e-07 0)
(0.0088046831 5.1642426e-07 0)
(0.0087174958 -4.8524161e-07 0)
(0.0087991736 4.5954499e-07 0)
(0.0087222906 -4.3252515e-07 0)
(0.0087944727 4.086006e-07 0)
(0.0087265981 -3.8512567e-07 0)
(0.0087903396 3.6359295e-07 0)
(0.0087304604 -3.4301936e-07 0)
(0.0087866692 3.2387961e-07 0)
(0.0087339158 -3.0578155e-07 0)
(0.0087833964 2.8886639e-07 0)
(0.0087370065 -2.7294486e-07 0)
(0.0087804713 2.5805249e-07 0)
(0.008739773 -2.440714e-07 0)
(0.0087778521 2.3100527e-07 0)
(0.0087422534 -2.1876438e-07 0)
(0.0087755016 2.073439e-07 0)
(0.008744482 -1.9666822e-07 0)
(0.0087733867 1.8673115e-07 0)
(0.0087464904 -1.774666e-07 0)
(0.0087714772 1.6886901e-07 0)
(0.0087483074 -1.6088023e-07 0)
(0.0087697457 1.5349578e-07 0)
(0.0087499595 -1.466648e-07 0)
(0.0087681668 1.4038384e-07 0)
(0.0087514706 -1.3460896e-07 0)
(0.0087667174 1.2933758e-07 0)
(0.0087528631 -1.2453244e-07 0)
(0.0087653762 1.2019148e-07 0)
(0.0087541577 -1.1628431e-07 0)
(0.0087641234 1.1280874e-07 0)
(0.0087553733 -1.0973904e-07 0)
(0.00876294 1.0708793e-07 0)
(0.0087565266 -1.0478736e-07 0)
(0.0087618046 1.0292075e-07 0)
(0.0087576342 -1.0166384e-07 0)
(0.0087607406 9.8952026e-08 0)
(0.0087589419 -1.0441534e-07 0)
(0.0087606005 9.542081e-08 0)
(0.011221982 0.0022803658 0)
(0.018783179 -1.4986869e-05 0)
(0.014116448 3.4713028e-05 0)
(0.014693102 -7.4910785e-07 0)
(0.014284438 -1.4118476e-07 0)
(0.014547465 1.6924455e-06 0)
(0.014251089 -6.9609792e-07 0)
(0.014463437 1.2018373e-06 0)
(0.014261625 -1.04305e-06 0)
(0.014442596 1.0496911e-06 0)
(0.014273637 -9.8330849e-07 0)
(0.014430819 9.4209211e-07 0)
(0.014282987 -8.8411031e-07 0)
(0.01442153 8.3875872e-07 0)
(0.014291135 -7.8874937e-07 0)
(0.014413567 7.4558209e-07 0)
(0.014298453 -7.0248613e-07 0)
(0.014406556 6.6333359e-07 0)
(0.014305014 -6.2571428e-07 0)
(0.014400326 5.9081871e-07 0)
(0.014310883 -5.577788e-07 0)
(0.014394771 5.269112e-07 0)
(0.014316132 -4.9786288e-07 0)
(0.014389806 4.7067986e-07 0)
(0.01432083 -4.4517833e-07 0)
(0.01438536 4.2132834e-07 0)
(0.014325042 -3.990034e-07 0)
(0.01438137 3.7815825e-07 0)
(0.014328827 -3.5868873e-07 0)
(0.01437778 3.4055196e-07 0)
(0.014332238 -3.236558e-07 0)
(0.014374538 3.0796394e-07 0)
(0.014335325 -2.9339364e-07 0)
(0.014371598 2.7991535e-07 0)
(0.014338132 -2.6745529e-07 0)
(0.014368915 2.5598975e-07 0)
(0.014340701 -2.4545405e-07 0)
(0.014366451 2.3582921e-07 0)
(0.014343069 -2.2705981e-07 0)
(0.01436417 2.1913027e-07 0)
(0.014345273 -2.119956e-07 0)
(0.014362037 2.0564081e-07 0)
(0.014347344 -2.0002828e-07 0)
(0.014360021 1.9517646e-07 0)
(0.014349311 -1.90932e-07 0)
(0.014358084 1.8755466e-07 0)
(0.0143512 -1.8517217e-07 0)
(0.014356244 1.796433e-07 0)
(0.014353357 -1.9328469e-07 0)
(0.014355803 1.7288695e-07 0)
(0.014821207 0.0028371504 0)
(0.025372617 -4.7094223e-05 0)
(0.019515785 6.3326441e-05 0)
(0.02024857 -9.3362636e-07 0)
(0.019698833 1.452351e-07 0)
(0.020068208 2.6221321e-06 0)
(0.019652772 -7.2834474e-07 0)
(0.01995621 1.7284706e-06 0)
(0.019668891 -1.4639147e-06 0)
(0.019927835 1.499776e-06 0)
(0.019686341 -1.4057277e-06 0)
(0.019911281 1.3526967e-06 0)
(0.019699756 -1.2679523e-06 0)
(0.019898057 1.2050778e-06 0)
(0.019711435 -1.1322048e-06 0)
(0.019886673 1.0709103e-06 0)
(0.019721922 -1.0086303e-06 0)
(0.019876639 9.5258425e-07 0)
(0.01973132 -8.9844385e-07 0)
(0.01986772 8.483527e-07 0)
(0.019739725 -8.0088266e-07 0)
(0.019859766 7.5653357e-07 0)
(0.019747242 -7.1482618e-07 0)
(0.019852657 6.7576226e-07 0)
(0.019753968 -6.3915756e-07 0)
(0.019846293 6.0488381e-07 0)
(0.019759998 -5.7284279e-07 0)
(0.019840582 5.4288931e-07 0)
(0.019765415 -5.1494786e-07 0)
(0.019835443 4.888879e-07 0)
(0.019770297 -4.6463966e-07 0)
(0.019830803 4.4209344e-07 0)
(0.019774715 -4.2118232e-07 0)
(0.019826594 4.0181632e-07 0)
(0.019778733 -3.8393236e-07 0)
(0.019822755 3.674572e-07 0)
(0.01978241 -3.5233327e-07 0)
(0.019819228 3.3850107e-07 0)
(0.019785801 -3.2591e-07 0)
(0.019815961 3.1451104e-07 0)
(0.019788956 -3.0426377e-07 0)
(0.019812907 2.951231e-07 0)
(0.019791923 -2.8705622e-07 0)
(0.019810019 2.8007694e-07 0)
(0.019794742 -2.7392963e-07 0)
(0.019807243 2.6913871e-07 0)
(0.019797449 -2.6562596e-07 0)
(0.019804582 2.5686754e-07 0)
(0.019800464 -2.819398e-07 0)
(0.019803701 2.4738959e-07 0)
(0.019809458 0.0038873504 0)
(0.031531512 -5.9587166e-05 0)
(0.024727011 9.6675458e-05 0)
(0.025652524 -1.6394798e-06 0)
(0.024962532 6.3382847e-07 0)
(0.025438597 3.6113451e-06 0)
(0.024904067 -5.8973447e-07 0)
(0.025302922 2.2082084e-06 0)
(0.024926951 -1.8312394e-06 0)
(0.025267355 1.9076228e-06 0)
(0.024950218 -1.7914534e-06 0)
(0.025245951 1.7310922e-06 0)
(0.024967897 -1.6209051e-06 0)
(0.025228647 1.5433239e-06 0)
(0.024983275 -1.4486418e-06 0)
(0.025213698 1.3711027e-06 0)
(0.024997077 -1.2908459e-06 0)
(0.025200505 1.2193568e-06 0)
(0.025009442 -1.1498824e-06 0)
(0.025188777 1.0858091e-06 0)
(0.025020498 -1.0249996e-06 0)
(0.025178318 9.6821972e-07 0)
(0.025030382 -9.1482963e-07 0)
(0.025168971 8.6480516e-07 0)
(0.025039226 -8.1796127e-07 0)
(0.025160604 7.7407142e-07 0)
(0.025047152 -7.330736e-07 0)
(0.025153098 6.9471883e-07 0)
(0.025054271 -6.5896886e-07 0)
(0.025146345 6.256018e-07 0)
(0.025060687 -5.9457755e-07 0)
(0.025140248 5.6571044e-07 0)
(0.025066492 -5.3895512e-07 0)
(0.025134718 5.1415966e-07 0)
(0.025071771 -4.9127601e-07 0)
(0.025129673 4.7018076e-07 0)
(0.025076603 -4.5082661e-07 0)
(0.02512504 4.3311349e-07 0)
(0.025081057 -4.1699791e-07 0)
(0.025120749 4.0239766e-07 0)
(0.025085202 -3.8927867e-07 0)
(0.025116737 3.7756532e-07 0)
(0.025089098 -3.6723236e-07 0)
(0.025112944 3.5828982e-07 0)
(0.025092801 -3.5035903e-07 0)
(0.025109299 3.4431851e-07 0)
(0.025096356 -3.3967729e-07 0)
(0.025105785 3.275684e-07 0)
(0.025100239 -3.6637285e-07 0)
(0.025104345 3.1575219e-07 0)
(0.022615853 0.0040591349 0)
(0.037257893 -0.00012220162 0)
(0.029794452 0.00013517552 0)
(0.030909116 -2.5156694e-06 0)
(0.030074672 1.366575e-06 0)
(0.030658487 4.6871447e-06 0)
(0.03000529 -3.0630026e-07 0)
(0.030503263 2.6385963e-06 0)
(0.030036212 -2.1500521e-06 0)
(0.030460819 2.2743379e-06 0)
(0.030065608 -2.1429782e-06 0)
(0.030434521 2.0789029e-06 0)
(0.030087708 -1.944729e-06 0)
(0.030413028 1.8549561e-06 0)
(0.030106919 -1.7395131e-06 0)
(0.030394397 1.6474663e-06 0)
(0.030124153 -1.5504011e-06 0)
(0.03037794 1.4648263e-06 0)
(0.030139586 -1.3811566e-06 0)
(0.030363308 1.3042439e-06 0)
(0.030153382 -1.2311376e-06 0)
(0.030350259 1.1629191e-06 0)
(0.030165713 -1.0987781e-06 0)
(0.0303386 1.0386631e-06 0)
(0.030176743 -9.8240373e-07 0)
(0.030328165 9.296614e-07 0)
(0.030186627 -8.8043005e-07 0)
(0.030318806 8.3434229e-07 0)
(0.030195504 -7.9141529e-07 0)
(0.030310387 7.5132324e-07 0)
(0.030203502 -7.1407101e-07 0)
(0.030302786 6.7938688e-07 0)
(0.030210738 -6.4725958e-07 0)
(0.030295893 6.1746735e-07 0)
(0.030217317 -5.8998725e-07 0)
(0.030289607 5.6463958e-07 0)
(0.030223338 -5.4139545e-07 0)
(0.030283833 5.2010943e-07 0)
(0.030228888 -5.0075159e-07 0)
(0.030278488 4.8320278e-07 0)
(0.030234051 -4.6744054e-07 0)
(0.03027349 4.5335488e-07 0)
(0.030238904 -4.4093385e-07 0)
(0.030268766 4.3017992e-07 0)
(0.030243516 -4.2057911e-07 0)
(0.030264228 4.1343703e-07 0)
(0.030247942 -4.0764551e-07 0)
(0.030259838 3.9215701e-07 0)
(0.0302527 -4.4635137e-07 0)
(0.030257737 3.7784834e-07 0)
(0.027794571 0.005150727 0)
(0.042643766 -0.00012704804 0)
(0.034677368 0.00017662379 0)
(0.036013665 -4.5185792e-06 0)
(0.035032485 2.2348353e-06 0)
(0.035727165 5.7903333e-06 0)
(0.034956549 7.8886889e-08 0)
(0.035556795 3.0124881e-06 0)
(0.034997048 -2.4273359e-06 0)
(0.03550785 2.6012498e-06 0)
(0.035032855 -2.4637002e-06 0)
(0.035476663 2.3983367e-06 0)
(0.035059495 -2.2418548e-06 0)
(0.035450907 2.1420233e-06 0)
(0.035082638 -2.0068473e-06 0)
(0.035428512 1.9018505e-06 0)
(0.03510339 -1.789075e-06 0)
(0.035408715 1.6906546e-06 0)
(0.035121966 -1.5938483e-06 0)
(0.03539111 1.5051471e-06 0)
(0.035138566 -1.4207099e-06 0)
(0.035375412 1.3419675e-06 0)
(0.0351534 -1.2679375e-06 0)
(0.035361388 1.1985347e-06 0)
(0.035166667 -1.1336211e-06 0)
(0.035348839 1.0727307e-06 0)
(0.035178552 -1.0159339e-06 0)
(0.035337584 9.6272946e-07 0)
(0.035189226 -9.1320846e-07 0)
(0.035327462 8.6692809e-07 0)
(0.035198841 -8.2395371e-07 0)
(0.035318325 7.8391702e-07 0)
(0.035207539 -7.4685353e-07 0)
(0.03531004 7.1246334e-07 0)
(0.035215446 -6.8075895e-07 0)
(0.035302485 6.5149782e-07 0)
(0.035222681 -6.2467778e-07 0)
(0.035295547 6.0010286e-07 0)
(0.03522935 -5.7776342e-07 0)
(0.035289125 5.5749916e-07 0)
(0.035235552 -5.393047e-07 0)
(0.035283122 5.2303157e-07 0)
(0.035241381 -5.0868711e-07 0)
(0.035277448 4.9626065e-07 0)
(0.03524692 -4.850969e-07 0)
(0.035272001 4.76987e-07 0)
(0.035252234 -4.7000891e-07 0)
(0.035266718 4.511995e-07 0)
(0.035257868 -5.2184622e-07 0)
(0.035263872 4.339137e-07 0)
(0.030407686 0.0051641237 0)
(0.047471291 -0.00022199955 0)
(0.039425824 0.00021455028 0)
(0.040958679 -4.87339e-06 0)
(0.03983827 3.7100876e-06 0)
(0.04064571 7.0086658e-06 0)
(0.039758716 5.6518416e-07 0)
(0.04046339 3.3279115e-06 0)
(0.039809909 -2.6637586e-06 0)
(0.040408168 2.8883854e-06 0)
(0.039852278 -2.754053e-06 0)
(0.040372098 2.6895199e-06 0)
(0.039883532 -2.5124556e-06 0)
(0.040342033 2.4045773e-06 0)
(0.039910674 -2.2507345e-06 0)
(0.040315819 2.1343055e-06 0)
(0.039935002 -2.0069366e-06 0)
(0.040292632 1.8968983e-06 0)
(0.039956769 -1.7880198e-06 0)
(0.040272009 1.6885776e-06 0)
(0.039976216 -1.593776e-06 0)
(0.040253622 1.5054235e-06 0)
(0.039993589 -1.4223652e-06 0)
(0.040237199 1.3444765e-06 0)
(0.040009124 -1.2716681e-06 0)
(0.040222504 1.2033333e-06 0)
(0.04002304 -1.139637e-06 0)
(0.040209328 1.0799313e-06 0)
(0.040035535 -1.0243972e-06 0)
(0.040197479 9.724642e-07 0)
(0.04004679 -9.2427156e-07 0)
(0.040186785 8.7934584e-07 0)
(0.040056969 -8.3778034e-07 0)
(0.040177088 7.9919025e-07 0)
(0.040066223 -7.6363249e-07 0)
(0.040168247 7.3079634e-07 0)
(0.040074688 -7.0071365e-07 0)
(0.04016013 6.7313367e-07 0)
(0.040082491 -6.4807291e-07 0)
(0.040152616 6.2532656e-07 0)
(0.040089746 -6.0491104e-07 0)
(0.040145595 5.8663607e-07 0)
(0.040096563 -5.7053374e-07 0)
(0.04013896 5.5657426e-07 0)
(0.04010304 -5.4396007e-07 0)
(0.040132594 5.3501256e-07 0)
(0.040109253 -5.2681771e-07 0)
(0.040126409 5.0482077e-07 0)
(0.040115763 -5.9249617e-07 0)
(0.040122747 4.839156e-07 0)
(0.035511484 0.0060644202 0)
(0.052042858 -0.00022243253 0)
(0.044044909 0.00025183644 0)
(0.045689183 -6.0088863e-06 0)
(0.044482973 5.0458119e-06 0)
(0.045412114 8.1759047e-06 0)
(0.044411833 1.1041886e-06 0)
(0.045222685 3.5698216e-06 0)
(0.044475093 -2.8628655e-06 0)
(0.04516149 3.1338991e-06 0)
(0.044524142 -3.0142399e-06 0)
(0.045120575 2.9517758e-06 0)
(0.044560053 -2.7561813e-06 0)
(0.045086181 2.6420846e-06 0)
(0.044591236 -2.470754e-06 0)
(0.045056121 2.3443865e-06 0)
(0.044619172 -2.2035936e-06 0)
(0.045029516 2.0831778e-06 0)
(0.044644157 -1.9633219e-06 0)
(0.045005852 1.8542063e-06 0)
(0.044666473 -1.7500283e-06 0)
(0.044984755 1.6529992e-06 0)
(0.044686406 -1.5617901e-06 0)
(0.044965914 1.4762352e-06 0)
(0.044704227 -1.3963052e-06 0)
(0.044949059 1.3212448e-06 0)
(0.044720187 -1.2513266e-06 0)
(0.044933946 1.185748e-06 0)
(0.044734517 -1.1247917e-06 0)
(0.044920358 1.0677527e-06 0)
(0.044747422 -1.0148543e-06 0)
(0.044908095 9.6551245e-07 0)
(0.044759094 -9.1988659e-07 0)
(0.044896978 8.7750274e-07 0)
(0.044769704 -8.3846906e-07 0)
(0.044886842 8.0240331e-07 0)
(0.044779409 -7.6937693e-07 0)
(0.044877537 7.3908178e-07 0)
(0.044788352 -7.11565e-07 0)
(0.044868925 6.8657521e-07 0)
(0.044796667 -6.6415422e-07 0)
(0.044860878 6.4406784e-07 0)
(0.044804478 -6.2637731e-07 0)
(0.044853276 6.1102812e-07 0)
(0.0448119 -5.9708362e-07 0)
(0.044845986 5.8742666e-07 0)
(0.044819016 -5.7799762e-07 0)
(0.044838895 5.5300549e-07 0)
(0.044826397 -6.5786875e-07 0)
(0.044834359 5.2779952e-07 0)
(0.038496446 0.0060936294 0)
(0.056025146 -0.00034025137 0)
(0.048621713 0.00029263887 0)
(0.050188875 -8.6932309e-06 0)
(0.048960138 5.5761013e-06 0)
(0.050026006 9.2176618e-06 0)
(0.04891623 1.6615526e-06 0)
(0.049834484 3.7304635e-06 0)
(0.048992917 -3.0258812e-06 0)
(0.049767587 3.3374365e-06 0)
(0.049048696 -3.2442472e-06 0)
(0.049721874 3.1848816e-06 0)
(0.049089274 -2.9728283e-06 0)
(0.049683156 2.8542734e-06 0)
(0.049124511 -2.6666828e-06 0)
(0.049649243 2.5318581e-06 0)
(0.049156065 -2.3788426e-06 0)
(0.049619213 2.249296e-06 0)
(0.049184277 -2.1195758e-06 0)
(0.049592502 2.0018655e-06 0)
(0.049209467 -1.8893108e-06 0)
(0.04956869 1.7845499e-06 0)
(0.049231963 -1.6860761e-06 0)
(0.049547428 1.5936845e-06 0)
(0.049252072 -1.5074128e-06 0)
(0.049528409 1.4263538e-06 0)
(0.04927008 -1.3508969e-06 0)
(0.049511359 1.2800803e-06 0)
(0.049286246 -1.2142973e-06 0)
(0.049496029 1.1527046e-06 0)
(0.049300805 -1.0956169e-06 0)
(0.049482196 1.0423367e-06 0)
(0.049313971 -9.9309555e-07 0)
(0.049469655 9.473282e-07 0)
(0.049325938 -9.0519906e-07 0)
(0.049458223 8.6625271e-07 0)
(0.049336883 -8.306043e-07 0)
(0.049447728 7.97887e-07 0)
(0.049346969 -7.6818192e-07 0)
(0.049438017 7.4119014e-07 0)
(0.049356345 -7.1698146e-07 0)
(0.049428945 6.9527677e-07 0)
(0.049365151 -6.7616986e-07 0)
(0.049420375 6.5957634e-07 0)
(0.049373517 -6.4442717e-07 0)
(0.049412161 6.341846e-07 0)
(0.049381538 -6.2351835e-07 0)
(0.049404166 5.9576516e-07 0)
(0.049389783 -7.1761329e-07 0)
(0.049398708 5.6560267e-07 0)
(0.043561061 0.006805555 0)
(0.059898472 -0.00033892888 0)
(0.053024926 0.00033206535 0)
(0.054526747 -1.1094191e-05 0)
(0.05327732 5.2864927e-06 0)
(0.054488765 9.9999042e-06 0)
(0.053272834 2.2094886e-06 0)
(0.054298744 3.7995969e-06 0)
(0.053363696 -3.1551479e-06 0)
(0.054226259 3.4984482e-06 0)
(0.053426161 -3.4445652e-06 0)
(0.054175798 3.3887897e-06 0)
(0.053471384 -3.1624975e-06 0)
(0.054132778 3.0411055e-06 0)
(0.053510667 -2.8385439e-06 0)
(0.054095026 2.6967085e-06 0)
(0.053545831 -2.5326955e-06 0)
(0.054061584 2.3952574e-06 0)
(0.053577258 -2.2567935e-06 0)
(0.054031837 2.1315669e-06 0)
(0.053605312 -2.0116372e-06 0)
(0.054005322 1.9000902e-06 0)
(0.053630361 -1.7952377e-06 0)
(0.053981648 1.6968395e-06 0)
(0.053652749 -1.6050051e-06 0)
(0.053960474 1.518675e-06 0)
(0.053672797 -1.4383609e-06 0)
(0.053941492 1.3629416e-06 0)
(0.053690792 -1.292926e-06 0)
(0.053924428 1.227332e-06 0)
(0.053706997 -1.1665702e-06 0)
(0.053909031 1.1098291e-06 0)
(0.053721651 -1.0574168e-06 0)
(0.053895073 1.0086761e-06 0)
(0.05373497 -9.6383121e-07 0)
(0.053882349 9.2235325e-07 0)
(0.053747151 -8.8440393e-07 0)
(0.05387067 8.495576e-07 0)
(0.053758374 -8.1793166e-07 0)
(0.053859864 7.8917957e-07 0)
(0.053768807 -7.6340093e-07 0)
(0.05384977 7.4027153e-07 0)
(0.053778604 -7.1992031e-07 0)
(0.053840237 7.022283e-07 0)
(0.05378791 -6.8600386e-07 0)
(0.053831103 6.752936e-07 0)
(0.053796831 -6.6340257e-07 0)
(0.053822211 6.3315143e-07 0)
(0.053805931 -7.7146744e-07 0)
(0.053815795 5.9744501e-07 0)
(0.046733837 0.0068303813 0)
(0.063258145 -0.00046137369 0)
(0.057189527 0.00035603348 0)
(0.058773392 -1.1961996e-05 0)
(0.057439322 4.4129803e-06 0)
(0.058802201 1.0530259e-05 0)
(0.057482342 2.7428328e-06 0)
(0.058615359 3.7788752e-06 0)
(0.057587666 -3.2496919e-06 0)
(0.058537305 3.6178895e-06 0)
(0.057656725 -3.6154095e-06 0)
(0.058482166 3.5637719e-06 0)
(0.057706554 -3.3253881e-06 0)
(0.058434888 3.2027161e-06 0)
(0.057749856 -2.9864951e-06 0)
(0.058393331 2.8390671e-06 0)
(0.057788601 -2.6652911e-06 0)
(0.058356505 2.5211884e-06 0)
(0.057823216 -2.3751006e-06 0)
(0.058323749 2.2434296e-06 0)
(0.05785411 -2.1171218e-06 0)
(0.058294553 1.9997295e-06 0)
(0.057881689 -1.8893783e-06 0)
(0.058268488 1.7857995e-06 0)
(0.057906337 -1.6891752e-06 0)
(0.058245178 1.5982972e-06 0)
(0.057928405 -1.5138024e-06 0)
(0.058224283 1.4344116e-06 0)
(0.057948213 -1.3607526e-06 0)
(0.0582055 1.291706e-06 0)
(0.05796605 -1.2277811e-06 0)
(0.058188552 1.1680538e-06 0)
(0.057982179 -1.1129108e-06 0)
(0.058173189 1.0616043e-06 0)
(0.057996838 -1.0144204e-06 0)
(0.058159185 9.7075768e-07 0)
(0.058010244 -9.3082618e-07 0)
(0.058146332 8.9414222e-07 0)
(0.058022596 -8.6086097e-07 0)
(0.05813444 8.30589e-07 0)
(0.058034075 -8.0345675e-07 0)
(0.058123333 7.7909557e-07 0)
(0.058044854 -7.5767124e-07 0)
(0.058112845 7.390262e-07 0)
(0.058055092 -7.2185842e-07 0)
(0.058102801 7.1079182e-07 0)
(0.058064907 -6.9770489e-07 0)
(0.058093022 6.6523835e-07 0)
(0.058074847 -8.1923587e-07 0)
(0.05808562 6.235016e-07 0)
(0.051541563 0.0073209126 0)
(0.066615412 -0.00046012289 0)
(0.061123645 0.00038418245 0)
(0.062936027 -1.2119261e-05 0)
(0.061449391 3.5911168e-06 0)
(0.062967143 1.0790011e-05 0)
(0.061545334 3.2727918e-06 0)
(0.062784228 3.6747094e-06 0)
(0.06166504 -3.3074345e-06 0)
(0.062700541 3.6969876e-06 0)
(0.061740554 -3.7571808e-06 0)
(0.06264081 3.7101302e-06 0)
(0.061794932 -3.4618671e-06 0)
(0.06258934 3.3393214e-06 0)
(0.061842209 -3.1108152e-06 0)
(0.06254403 2.9591557e-06 0)
(0.061884493 -2.7768661e-06 0)
(0.062503866 2.6273027e-06 0)
(0.061922256 -2.4747067e-06 0)
(0.062468139 2.3376504e-06 0)
(0.061955952 -2.2059522e-06 0)
(0.062436298 2.083646e-06 0)
(0.061986028 -1.9686661e-06 0)
(0.062407874 1.8607243e-06 0)
(0.062012905 -1.7600737e-06 0)
(0.062382456 1.6653636e-06 0)
(0.062036968 -1.5773556e-06 0)
(0.062359673 1.4946181e-06 0)
(0.062058564 -1.4178974e-06 0)
(0.062339193 1.3459411e-06 0)
(0.062078012 -1.2793576e-06 0)
(0.062320715 1.2171135e-06 0)
(0.062095597 -1.1596747e-06 0)
(0.062303965 1.1062057e-06 0)
(0.062111579 -1.0570549e-06 0)
(0.062288697 1.0115506e-06 0)
(0.062126194 -9.699518e-07 0)
(0.062274685 9.3171862e-07 0)
(0.062139658 -8.9704457e-07 0)
(0.062261722 8.6549079e-07 0)
(0.062152172 -8.3721894e-07 0)
(0.062249615 8.1181729e-07 0)
(0.06216392 -7.8948938e-07 0)
(0.062238184 7.7003579e-07 0)
(0.062175077 -7.5205816e-07 0)
(0.062227242 7.4073959e-07 0)
(0.062185774 -7.2650239e-07 0)
(0.06221659 6.9211496e-07 0)
(0.06219654 -8.6077915e-07 0)
(0.062208185 6.4398664e-07 0)
(0.055014277 0.0073765191 0)
(0.069521289 -0.00058533669 0)
(0.064891055 0.00039907641 0)
(0.066973003 -1.2906688e-05 0)
(0.065311969 2.9391837e-06 0)
(0.066983991 1.0763694e-05 0)
(0.065462197 3.7926667e-06 0)
(0.066805275 3.4876239e-06 0)
(0.065596054 -3.3271886e-06 0)
(0.066715838 3.7372679e-06 0)
(0.065677814 -3.8701333e-06 0)
(0.066651593 3.8284306e-06 0)
(0.065736658 -3.5723226e-06 0)
(0.06659601 3.4512827e-06 0)
(0.065787847 -3.2118599e-06 0)
(0.066547013 3.0572989e-06 0)
(0.065833612 -2.867739e-06 0)
(0.066503567 2.7138977e-06 0)
(0.065874469 -2.5558964e-06 0)
(0.066464922 2.4144982e-06 0)
(0.065910919 -2.2783829e-06 0)
(0.066430481 2.1520809e-06 0)
(0.065943449 -2.0333284e-06 0)
(0.06639974 1.9218292e-06 0)
(0.065972516 -1.8179031e-06 0)
(0.06637225 1.7200662e-06 0)
(0.065998538 -1.6292015e-06 0)
(0.066347611 1.5437325e-06 0)
(0.066021893 -1.4645221e-06 0)
(0.066325464 1.3901908e-06 0)
(0.066042924 -1.3214448e-06 0)
(0.066305481 1.2571463e-06 0)
(0.06606194 -1.1978396e-06 0)
(0.066287368 1.1426053e-06 0)
(0.066079222 -1.0918535e-06 0)
(0.066270858 1.0448457e-06 0)
(0.066095025 -1.0018896e-06 0)
(0.066255706 9.6239141e-07 0)
(0.066109584 -9.2658294e-07 0)
(0.066241689 8.9398206e-07 0)
(0.066123114 -8.6478136e-07 0)
(0.066228599 8.3852813e-07 0)
(0.066135816 -8.1546369e-07 0)
(0.066216243 7.9534446e-07 0)
(0.066147877 -7.7669105e-07 0)
(0.066204418 7.6521767e-07 0)
(0.066159441 -7.498923e-07 0)
(0.06619291 7.1388434e-07 0)
(0.066171015 -8.9600902e-07 0)
(0.066183491 6.5914396e-07 0)
(0.059687379 0.007677808 0)
(0.072521513 -0.00057762145 0)
(0.068546659 0.00041412694 0)
(0.070830302 -1.4876142e-05 0)
(0.069033762 2.247518e-06 0)
(0.070852069 1.0326925e-05 0)
(0.069233071 4.2643959e-06 0)
(0.07067841 3.2049545e-06 0)
(0.069380918 -3.3129664e-06 0)
(0.070583092 3.7384847e-06 0)
(0.069468655 -3.9553467e-06 0)
(0.070514396 3.9190492e-06 0)
(0.069531853 -3.6573595e-06 0)
(0.070454785 3.5390063e-06 0)
(0.069586876 -3.290098e-06 0)
(0.07040218 3.133896e-06 0)
(0.06963605 -2.9383133e-06 0)
(0.070355524 2.7813426e-06 0)
(0.069679937 -2.6190259e-06 0)
(0.070314021 2.4743066e-06 0)
(0.069719082 -2.3347303e-06 0)
(0.070277036 2.2053326e-06 0)
(0.069754014 -2.0836466e-06 0)
(0.070244025 1.9693807e-06 0)
(0.069785225 -1.8629143e-06 0)
(0.070214508 1.7626424e-06 0)
(0.069813166 -1.6695638e-06 0)
(0.070188052 1.581967e-06 0)
(0.069838242 -1.5008269e-06 0)
(0.070164272 1.4246452e-06 0)
(0.069860822 -1.3542225e-06 0)
(0.070142816 1.2883233e-06 0)
(0.069881239 -1.2275677e-06 0)
(0.070123369 1.1709577e-06 0)
(0.069899795 -1.1189637e-06 0)
(0.070105642 1.0707843e-06 0)
(0.069916762 -1.0267743e-06 0)
(0.070089374 9.8629016e-07 0)
(0.069932393 -9.4960056e-07 0)
(0.070074325 9.1618302e-07 0)
(0.069946919 -8.8626017e-07 0)
(0.070060272 8.5934101e-07 0)
(0.069960554 -8.3570394e-07 0)
(0.070047008 8.1505985e-07 0)
(0.069973499 -7.958644e-07 0)
(0.07003432 7.8432605e-07 0)
(0.069985913 -7.6799028e-07 0)
(0.070021975 7.3066312e-07 0)
(0.069998276 -9.2488439e-07 0)
(0.07001154 6.6923905e-07 0)
(0.063425455 0.007734437 0)
(0.07511668 -0.00069573197 0)
(0.072130713 0.00041718767 0)
(0.074486193 -1.7553301e-05 0)
(0.072618837 1.1785391e-06 0)
(0.074571223 9.5833213e-06 0)
(0.072858382 4.6871718e-06 0)
(0.074403572 2.8285317e-06 0)
(0.073019815 -3.264025e-06 0)
(0.074302211 3.7024102e-06 0)
(0.073113213 -4.0132101e-06 0)
(0.074229117 3.9827826e-06 0)
(0.073180629 -3.7175209e-06 0)
(0.074165572 3.6030548e-06 0)
(0.07323939 -3.3460426e-06 0)
(0.074109447 3.1894401e-06 0)
(0.073291888 -2.9890534e-06 0)
(0.074059659 2.8300781e-06 0)
(0.07333873 -2.66451e-06 0)
(0.07401537 2.5174687e-06 0)
(0.073380504 -2.3753642e-06 0)
(0.073975904 2.2437513e-06 0)
(0.073417778 -2.1199501e-06 0)
(0.07394068 2.0036902e-06 0)
(0.073451081 -1.8954007e-06 0)
(0.073909184 1.7933701e-06 0)
(0.073480892 -1.6987044e-06 0)
(0.073880957 1.6095697e-06 0)
(0.073507648 -1.5270461e-06 0)
(0.073855583 1.4495267e-06 0)
(0.07353174 -1.3779013e-06 0)
(0.073832691 1.3108447e-06 0)
(0.073553524 -1.2490491e-06 0)
(0.07381194 1.1914445e-06 0)
(0.073573322 -1.1385583e-06 0)
(0.073793027 1.0895315e-06 0)
(0.073591425 -1.0447643e-06 0)
(0.07377567 1.0035668e-06 0)
(0.073608102 -9.6624341e-07 0)
(0.073759614 9.3223457e-07 0)
(0.073623599 -9.0179147e-07 0)
(0.073744622 8.7438813e-07 0)
(0.073638145 -8.5033856e-07 0)
(0.073730472 8.2930777e-07 0)
(0.073651954 -8.0970284e-07 0)
(0.073716941 7.9818198e-07 0)
(0.073665198 -7.809282e-07 0)
(0.073703782 7.4258032e-07 0)
(0.073678328 -9.4740711e-07 0)
(0.073692334 6.7455192e-07 0)
(0.067922285 0.0078688589 0)
(0.077872829 -0.00068311026 0)
(0.07563994 0.00042278945 0)
(0.07795711 -2.0588901e-05 0)
(0.076068711 -5.9684535e-07 0)
(0.078140469 8.5662828e-06 0)
(0.076338722 5.0512086e-06 0)
(0.077980469 2.363415e-06 0)
(0.076512785 -3.1795336e-06 0)
(0.077873035 3.6307991e-06 0)
(0.076611557 -4.0443543e-06 0)
(0.077795637 4.0203098e-06 0)
(0.076683066 -3.7535567e-06 0)
(0.077728276 3.6439854e-06 0)
(0.076745466 -3.3803232e-06 0)
(0.077668734 3.2244646e-06 0)
(0.076801199 -3.0204994e-06 0)
(0.077615905 2.8605942e-06 0)
(0.076850912 -2.6928221e-06 0)
(0.077568909 2.5444253e-06 0)
(0.07689524 -2.4007029e-06 0)
(0.077527032 2.2677304e-06 0)
(0.07693479 -2.1426104e-06 0)
(0.077489658 2.0251084e-06 0)
(0.076970125 -1.9156929e-06 0)
(0.077456239 1.812562e-06 0)
(0.077001755 -1.7169185e-06 0)
(0.077426289 1.6268202e-06 0)
(0.077030143 -1.5434441e-06 0)
(0.077399368 1.4650863e-06 0)
(0.077055705 -1.3927189e-06 0)
(0.077375078 1.3249367e-06 0)
(0.077078818 -1.2624988e-06 0)
(0.077353061 1.2042705e-06 0)
(0.077099823 -1.1508325e-06 0)
(0.077332993 1.1012743e-06 0)
(0.077119032 -1.0560382e-06 0)
(0.077314577 1.014393e-06 0)
(0.077136726 -9.7667646e-07 0)
(0.077297542 9.4229586e-07 0)
(0.077153167 -9.1152902e-07 0)
(0.077281636 8.8381871e-07 0)
(0.077168598 -8.5951249e-07 0)
(0.077266625 8.3823009e-07 0)
(0.077183248 -8.1834631e-07 0)
(0.077252276 8.0691818e-07 0)
(0.077197299 -7.8885202e-07 0)
(0.077238327 7.4977614e-07 0)
(0.077211172 -9.6361789e-07 0)
(0.077225874 6.7537096e-07 0)
(0.071852846 0.0079116822 0)
(0.080280997 -0.00079061162 0)
(0.07901889 0.00041583138 0)
(0.081293065 -2.2573127e-05 0)
(0.079389125 -2.9093326e-06 0)
(0.081560846 7.4698771e-06 0)
(0.079676006 5.3849856e-06 0)
(0.081409097 1.8338446e-06 0)
(0.079860023 -3.0534832e-06 0)
(0.081295502 3.5279427e-06 0)
(0.079963789 -4.0483768e-06 0)
(0.081213875 4.0328785e-06 0)
(0.080039245 -3.7660506e-06 0)
(0.081142824 3.6625328e-06 0)
(0.080105176 -3.3935747e-06 0)
(0.081079977 3.2395881e-06 0)
(0.080164042 -3.0332303e-06 0)
(0.081024204 2.8734386e-06 0)
(0.080216537 -2.7044778e-06 0)
(0.080974588 2.5556633e-06 0)
(0.080263338 -2.4112049e-06 0)
(0.080930376 2.2777029e-06 0)
(0.080305093 -2.1520351e-06 0)
(0.080890919 2.0340208e-06 0)
(0.080342396 -1.9241541e-06 0)
(0.080855639 1.8205616e-06 0)
(0.080375787 -1.7245303e-06 0)
(0.08082402 1.6340258e-06 0)
(0.080405756 -1.5503115e-06 0)
(0.080795598 1.4715996e-06 0)
(0.080432742 -1.3989368e-06 0)
(0.080769954 1.3308481e-06 0)
(0.080457142 -1.2681531e-06 0)
(0.080746711 1.2096612e-06 0)
(0.080479318 -1.1560014e-06 0)
(0.080725524 1.1062183e-06 0)
(0.080499597 -1.0607928e-06 0)
(0.080706082 1.0189578e-06 0)
(0.080518277 -9.8108139e-07 0)
(0.080688098 9.4654215e-07 0)
(0.080535633 -9.1564212e-07 0)
(0.080671307 8.8779703e-07 0)
(0.080551923 -8.6338523e-07 0)
(0.080655461 8.4198287e-07 0)
(0.080567386 -8.2194827e-07 0)
(0.080640318 8.1068104e-07 0)
(0.080582221 -7.9191989e-07 0)
(0.080625605 7.5240068e-07 0)
(0.080596813 -9.7359249e-07 0)
(0.080612164 6.7198789e-07 0)
(0.076126574 0.007900453 0)
(0.08290574 -0.0007710847 0)
(0.082230023 0.00040971417 0)
(0.084523853 -2.3474155e-05 0)
(0.082585449 -5.2446365e-06 0)
(0.084832224 6.3662031e-06 0)
(0.082872132 5.6975811e-06 0)
(0.084689325 1.2644948e-06 0)
(0.083061697 -2.8843737e-06 0)
(0.084569577 3.3968388e-06 0)
(0.083170006 -4.0255383e-06 0)
(0.084483766 4.0215081e-06 0)
(0.08324924 -3.7557933e-06 0)
(0.084409152 3.659412e-06 0)
(0.08331858 -3.3865248e-06 0)
(0.084343119 3.235457e-06 0)
(0.083380472 -3.0278828e-06 0)
(0.084284506 2.869195e-06 0)
(0.083435652 -2.7000367e-06 0)
(0.084232361 2.551705e-06 0)
(0.08348484 -2.4073651e-06 0)
(0.084185896 2.2741342e-06 0)
(0.083528722 -2.1486637e-06 0)
(0.084144429 2.0308419e-06 0)
(0.083567925 -1.9211758e-06 0)
(0.084107351 1.8177391e-06 0)
(0.083603017 -1.7218896e-06 0)
(0.084074122 1.6315177e-06 0)
(0.083634511 -1.5479619e-06 0)
(0.084044251 1.4693645e-06 0)
(0.083662872 -1.3968373e-06 0)
(0.084017301 1.3288473e-06 0)
(0.083688516 -1.2662675e-06 0)
(0.083992872 1.2078601e-06 0)
(0.083711822 -1.1542972e-06 0)
(0.083970606 1.1045858e-06 0)
(0.083733134 -1.0592409e-06 0)
(0.083950173 1.0174655e-06 0)
(0.083752766 -9.7965461e-07 0)
(0.083931272 9.4516284e-07 0)
(0.083771006 -9.1431376e-07 0)
(0.083913625 8.8650055e-07 0)
(0.083788125 -8.6212913e-07 0)
(0.083896974 8.4073462e-07 0)
(0.083804374 -8.2067402e-07 0)
(0.083881065 8.0962908e-07 0)
(0.083819966 -7.9030045e-07 0)
(0.083865616 7.5061295e-07 0)
(0.08383525 -9.7743829e-07 0)
(0.083851204 6.6469356e-07 0)
(0.080179352 0.0079139112 0)
(0.085215085 -0.00086249256 0)
(0.085266945 0.00039182614 0)
(0.087644631 -2.4679003e-05 0)
(0.085649732 -7.8598385e-06 0)
(0.087952664 5.2877618e-06 0)
(0.085927485 5.9360998e-06 0)
(0.087820533 6.7190738e-07 0)
(0.086117728 -2.6787288e-06 0)