/*--------------------------------*- C++ -*----------------------------------*\
| =========                 |                                                 |
| \\      /  F ield         | OpenFOAM: The Open Source CFD Toolbox           |
|  \\    /   O peration     | Version:  2312                                  |
|   \\  /    A nd           | Website:  www.openfoam.com                      |
|    \\/     M anipulation  |                                                 |
\*---------------------------------------------------------------------------*/
FoamFile
{
    version     2.0;
    format      ascii;
    arch        "LSB;label=32;scalar=64";
    class       volScalarField;
    location    "6";
    object      T;
}
// * * * * * * * * * * * * * * * * * * * * * * * * * * * * * * * * * * * * * //

dimensions      [0 0 0 1 0 0 0];

internalField   nonuniform List<scalar> 
4000
(
330.19753
328.93502
328.69284
328.63138
328.559
328.51293
328.46876
328.431
328.39468
328.36199
328.32919
328.29909
328.26848
328.23988
328.21081
328.18318
328.15524
328.12828
328.10121
328.07474
328.04836
328.02225
327.99642
327.97058
327.94522
327.91958
327.89462
327.86914
327.84451
327.81915
327.79482
327.76955
327.74549
327.72029
327.69647
327.6713
327.64772
327.62256
327.5992
327.57404
327.55088
327.5257
327.50276
327.47751
327.45482
327.42945
327.40706
327.38147
327.35956
327.33311
332.35425
330.31127
329.6413
329.50223
329.33179
329.23966
329.15338
329.08621
329.02344
328.97146
328.91924
328.87503
328.82936
328.78966
328.74859
328.71181
328.67413
328.63936
328.60429
328.57099
328.53798
328.50574
328.47441
328.44299
328.41304
328.38224
328.35348
328.32315
328.2954
328.26543
328.23858
328.20888
328.18283
328.15332
328.128
328.09861
328.07397
328.04463
328.02065
327.99129
327.96796
327.93851
327.91584
327.88619
327.86425
327.83426
327.81321
327.78254
327.76294
327.7298
333.68592
331.63541
330.58204
330.36722
330.10129
329.96364
329.83586
329.73944
329.65053
329.57931
329.50789
329.44957
329.389
329.33819
329.28523
329.23927
329.19196
329.14936
329.10637
329.0662
329.02663
328.98826
328.95147
328.91445
328.87997
328.84399
328.81146
328.77627
328.74543
328.71084
328.6815
328.64735
328.61934
328.58551
328.55871
328.52508
328.49942
328.46588
328.44131
328.40774
328.38424
328.35052
328.32813
328.29408
328.2729
328.23828
328.21858
328.18285
328.16554
328.12599
334.56683
332.86079
331.50142
331.21802
330.86231
330.68094
330.51319
330.38809
330.27381
330.18356
330.09342
330.02109
329.94597
329.88407
329.8195
329.76437
329.70763
329.65719
329.60645
329.55941
329.51341
329.46888
329.42675
329.38412
329.34519
329.30401
329.26781
329.22773
329.19388
329.15465
329.12287
329.08427
329.05434
329.01618
328.98796
328.95008
328.92343
328.88568
328.86055
328.82277
328.79913
328.76113
328.73904
328.7006
328.68019
328.64095
328.6226
328.58183
328.56674
328.52118
335.17734
333.94864
332.38155
332.04343
331.60769
331.38618
331.18115
331.02866
330.89032
330.78158
330.67355
330.58746
330.49838
330.42554
330.34979
330.28557
330.21973
330.1615
330.10327
330.04937
329.99718
329.94649
329.8992
329.85095
329.80774
329.76135
329.7216
329.67663
329.63988
329.596
329.56188
329.51882
329.48706
329.44457
329.41498
329.37285
329.34528
329.30331
329.27768
329.23567
329.21195
329.16968
329.14792
329.10509
329.08547
329.04164
329.02463
328.97889
328.96591
328.91479
335.61326
334.87293
333.20394
332.83032
332.32881
332.07278
331.83459
331.65682
331.49643
331.37014
331.24546
331.14614
331.04393
330.96046
330.87417
330.80104
330.72659
330.66067
330.59535
330.53467
330.47658
330.4198
330.3676
330.31377
330.26648
330.21491
330.17179
330.12196
330.08245
330.03394
329.99761
329.95009
329.91662
329.8698
329.83894
329.79257
329.76415
329.718
329.69191
329.64572
329.62194
329.57543
329.55403
329.50685
329.48804
329.43967
329.42397
329.37338
329.36234
329.30617
335.93186
335.62305
333.95182
333.56501
333.01628
332.73338
332.46759
332.26766
332.08794
331.94555
331.80589
331.69415
331.57999
331.48639
331.39039
331.30868
331.22627
331.1529
331.08098
331.01368
330.9501
330.88734
330.83057
330.77125
330.72015
330.66348
330.61721
330.56257
330.52049
330.46741
330.42903
330.3771
330.34204
330.29095
330.25893
330.20837
330.17919
330.12888
330.10242
330.05208
330.02831
329.97761
329.95661
329.90515
329.88715
329.83434
329.8199
329.76464
329.75531
329.69459
336.16885
336.20145
334.61296
334.23494
333.66085
333.36034
333.07387
332.85588
332.66027
332.50379
332.35127
332.22829
332.10362
332.00064
331.89599
331.80621
331.71664
331.63617
331.55829
331.48463
331.41607
331.34753
331.28659
331.22194
331.16738
331.10572
331.05659
330.99725
330.95284
330.89527
330.85503
330.79878
330.7623
330.707
330.67396
330.61928
330.58945
330.53506
330.50832
330.45391
330.43021
330.37541
330.35484
330.2992
330.282
330.22489
330.21164
330.15195
330.14408
330.0793
336.34857
336.6228
335.18059
334.83031
334.25431
333.94632
333.64718
333.41609
333.20868
333.04067
332.87785
332.74514
332.61174
332.50036
332.38836
332.2912
332.19544
332.10837
332.02529
331.94565
331.87271
331.79867
331.73406
331.6643
331.60668
331.54023
331.48858
331.42469
331.37823
331.31631
331.27444
331.214
331.17628
331.1169
331.08299
331.0243
330.99395
330.9356
330.90867
330.8503
330.82674
330.76796
330.74785
330.68818
330.67176
330.61055
330.59839
330.53455
330.52788
330.45949
336.48817
336.90996
335.65389
335.34543
334.79018
334.48488
334.18171
333.94313
333.72855
333.55202
333.38185
333.24128
333.10118
332.98265
332.86479
332.76112
332.66031
332.56729
332.47988
332.39475
332.31814
332.239
332.17128
332.09674
332.03652
331.96554
331.91174
331.84354
331.79534
331.72927
331.68604
331.62158
331.58285
331.51955
331.48495
331.4224
331.39167
331.32951
331.30249
331.24032
331.21697
331.15438
331.13475
331.07124
331.05558
330.9905
330.97933
330.91167
330.90595
330.83436
336.59933
337.08971
336.03726
335.77917
335.26413
334.97098
334.67252
334.43241
334.21559
334.03395
333.85965
333.71337
333.56886
333.44464
333.3226
333.21347
333.1089
333.0107
332.91998
332.82997
332.75048
332.66672
332.59655
332.51761
332.45532
332.38015
332.32464
332.25241
332.20283
332.13286
332.08858
332.02032
331.98082
331.91381
331.87871
331.81252
331.78156
331.71578
331.6888
331.62303
331.59995
331.53376
331.51464
331.44753
331.4326
331.36392
331.35362
331.28251
331.27751
331.2031
336.69091
337.19031
336.33942
336.13457
335.6743
335.40139
335.11593
334.8802
334.66614
334.483
334.30798
334.15836
334.01187
333.88362
333.75922
333.64585
333.53889
333.43646
333.34351
333.24934
333.16785
333.08006
333.00814
332.9253
332.86152
332.78256
332.72582
332.64991
332.59935
332.5258
332.48078
332.40902
332.36901
332.29855
332.26318
332.19358
332.16256
332.09341
332.06657
331.99745
331.97472
331.90519
331.88661
331.81618
331.80193
331.72999
331.72042
331.64626
331.64178
331.56492
336.76836
337.23704
336.57174
336.41807
336.02143
335.77499
335.50973
335.28388
335.07736
334.89638
334.72406
334.57358
334.42762
334.29714
334.17228
334.05601
333.94816
333.84252
333.74851
333.65102
333.56846
333.4773
333.4044
333.31822
333.25357
333.17131
333.11385
333.03468
332.98357
332.90681
332.8614
332.78647
332.74624
332.67265
332.63723
332.56453
332.53362
332.46139
332.43482
332.36264
332.34034
332.26777
332.24974
332.17631
332.1627
332.08786
332.07892
332.0021
331.99799
331.919
336.83597
337.25171
336.74667
336.63843
336.30866
336.09275
335.85334
335.64209
335.44744
335.27209
335.10576
334.95691
334.81399
334.68313
334.55973
334.442
334.33476
334.22704
334.13318
334.03327
333.95062
333.85686
333.78376
333.69487
333.63002
333.545
333.48737
333.40542
333.35421
333.27466
333.22923
333.15152
333.11138
333.03502
332.99978
332.92432
332.89371
332.81873
332.79258
332.71766
332.69586
332.62059
332.60314
332.52707
332.51407
332.43671
332.42829
332.34924
332.34537
332.26458
336.89605
337.25022
336.8765
336.80573
336.54122
336.35761
336.14783
335.95486
335.77569
335.60906
335.45171
335.30687
335.16937
335.03998
334.91993
334.80218
334.69706
334.58845
334.49595
334.39459
334.31285
334.21729
334.14482
334.05391
333.98953
333.90235
333.84511
333.76091
333.71006
333.6282
333.58313
333.50308
333.46333
333.38461
333.34981
333.27197
333.24186
333.16451
333.13889
333.06162
333.0404
332.96281
332.94596
332.86764
332.8552
332.77575
332.76777
332.68688
332.68318
332.60092
336.95046
337.2438
336.97236
336.9303
336.72574
336.57406
336.39572
336.2235
336.06253
335.90721
335.76139
335.62271
335.49277
335.3666
335.25167
335.13535
335.0338
334.92547
334.83553
334.73371
334.65387
334.55735
334.48633
334.39414
334.3309
334.24221
334.18592
334.10004
334.05002
333.96637
333.92206
333.84014
333.8011
333.72045
333.68635
333.60656
333.57713
333.49782
333.47287
333.39365
333.3731
333.2936
333.27737
333.19723
333.18533
333.1042
333.09659
333.01428
333.01072
332.9273
337.00007
337.23869
337.04373
337.02194
336.8696
336.74772
336.60079
336.4505
336.3095
336.16738
336.0351
335.90438
335.78385
335.66248
335.55427
335.44073
335.34409
335.2372
335.15096
335.04967
334.97267
334.87606
334.80728
334.71454
334.65313
334.56358
334.50882
334.42185
334.37313
334.28824
334.24507
334.16179
334.12378
334.04169
334.00853
333.92725
333.89868
333.81785
333.79372
333.71299
333.69317
333.6122
333.59663
333.51509
333.50372
333.42135
333.41408
333.33075
333.32729
333.24306
337.04568
337.23802
337.09811
337.08928
336.98029
336.8848
336.7677
336.63931
336.51902
336.39129
336.27394
336.15258
336.04293
335.92771
335.82757
335.71803
335.62749
335.52313
335.4416
335.34181
335.26853
335.17267
335.10689
335.01437
334.95541
334.86569
334.81298
334.72556
334.67859
334.59302
334.55137
334.46726
334.43059
334.34755
334.31558
334.23328
334.20578
334.12389
334.10071
334.01891
333.99992
333.91792
333.90305
333.82056
333.80972
333.72654
333.71959
333.63564
333.63228
333.54759
337.08762
337.2424
337.14119
337.13945
337.06487
336.99163
336.90162
336.79404
336.69429
336.5814
336.47973
336.36868
336.27094
336.16295
336.07193
335.96745
335.88401
335.78316
335.70724
335.60983
335.54105
335.44676
335.38465
335.29309
335.23718
335.14796
335.09781
335.01055
334.96576
334.88009
334.84032
334.75591
334.72087
334.6374
334.60685
334.52402
334.49777
334.4153
334.3932
334.3108
334.29273
334.21015
334.19602
334.11304
334.10273
334.01918
334.01255
333.92838
333.92513
333.84032
337.12629
337.25129
337.17693
337.178
337.12962
337.07424
337.00784
336.91919
336.839
336.74074
336.65487
336.55461
336.46937
336.36935
336.28822
336.18963
336.11407
336.01756
335.94798
335.85377
335.79016
335.69819
335.64035
335.55045
335.49811
335.41004
335.36291
335.27641
335.23419
335.14899
335.11143
335.02727
334.99413
334.91075
334.88184
334.79898
334.77415
334.69157
334.67068
334.58815
334.57108
334.48839
334.47504
334.39201
334.38226
334.29877
334.29246
334.20846
334.20535
334.12079
337.16193
337.26351
337.20796
337.20898
337.17979
337.13806
337.09147
337.01933
336.95712
336.8727
336.80219
336.71276
336.64018
336.54857
336.47774
336.38565
336.3185
336.22701
336.16434
336.07399
336.01611
335.92712
335.87406
335.78645
335.73813
335.65182
335.6081
335.52295
335.48364
335.39947
335.36441
335.28103
335.25004
335.16725
335.14019
335.05779
335.03453
334.95232
334.93275
334.85056
334.83457
334.75222
334.73971
334.65706
334.6479
334.56488
334.55892
334.47548
334.47252
334.38856
337.19482
337.27787
337.23591
337.23519
337.21958
337.18773
337.15719
337.09888
337.05264
336.98084
336.92478
336.84583
336.78566
336.70258
336.64218
336.55695
336.4985
336.41252
336.35713
336.27121
336.21943
336.134
336.08609
336.00135
335.95741
335.87343
335.83344
335.75018
335.71408
335.63146
335.59914
335.51704
335.48842
335.40671
335.38167
335.3002
335.27866
335.19729
335.17914
335.09774
335.0829
335.00133
334.98971
334.90787
334.89934
334.81718
334.8116
334.72909
334.7263
334.64332
337.22518
337.29336
337.26167
337.25844
337.25213
337.22703
337.20906
337.1619
337.1294
337.06871
337.02586
336.95671
336.90836
336.83364
336.78347
336.70527
336.65555
336.57541
336.52746
336.44638
336.40095
336.31954
336.27706
336.19567
336.15638
336.0752
336.03921
335.95832
335.92565
335.84506
335.8157
335.73536
335.70927
335.6291
335.60623
335.52615
335.50643
335.42635
335.40972
335.32954
335.31592
335.23555
335.22486
335.14424
335.13637
335.05546
335.05029
334.96906
334.96647
334.88481
337.25326
337.30924
337.28571
337.27979
337.27973
337.2589
337.25047
337.21193
337.19092
337.13969
337.10856
337.04832
337.01092
336.94417
336.90379
336.83253
336.79139
336.71722
336.67671
336.60074
336.56174
336.48469
336.44777
336.37013
336.33565
336.2577
336.22586
336.14778
336.11871
336.04058
336.01433
335.93617
335.91275
335.83456
335.81396
335.7357
335.7179
335.63951
335.62447
335.54591
335.53357
335.45479
335.44508
335.36605
335.35888
335.27958
335.27485
335.19525
335.19288
335.11287
337.27929
337.32502
337.30827
337.29981
337.30391
337.28554
337.28413
337.252
337.24031
337.19688
337.17588
337.12349
337.096
337.03663
337.00538
336.94082
336.90787
336.83966
336.8064
336.73568
336.70305
336.63061
336.59927
336.52566
336.49605
336.42166
336.39408
336.31916
336.29378
336.21848
336.19543
336.11984
336.09918
336.02334
336.00511
335.92903
335.91323
335.83691
335.82352
335.74696
335.73593
335.65911
335.65041
335.57333
335.56688
335.48952
335.48526
335.40761
335.40547
335.32744
337.30345
337.34042
337.32942
337.31878
337.32566
337.30848
337.31212
337.28456
337.28022
337.24302
337.23054
337.18489
337.16612
337.11343
337.09052
337.03225
337.00698
336.94455
336.91823
336.85275
336.82631
336.75858
336.73272
336.66336
336.63858
336.56801
336.54467
336.4732
336.45155
336.3794
336.35959
336.28689
336.26903
336.19588
336.18005
336.1065
336.09272
336.01882
336.0071
335.93288
335.9232
335.84866
335.841
335.76617
335.76048
335.68537
335.68159
335.60619
335.6043
335.52853
337.32593
337.35529
337.34924
337.33681
337.34558
337.32879
337.33597
337.31151
337.31283
337.28044
337.27497
337.23495
337.22369
337.17689
337.16139
337.10894
337.09068
337.03377
337.01392
336.95357
336.93302
336.87002
336.84945
336.78442
336.76436
336.69777
336.67861
336.61081
336.59283
336.52407
336.50748
336.43795
336.42289
336.35272
336.33928
336.26856
336.25681
336.18562
336.17559
336.10399
336.09568
336.02371
336.0171
335.94481
335.93988
335.86729
335.86401
335.79113
335.78948
335.71625
337.34689
337.36958
337.36774
337.3539
337.36402
337.34715
337.35677
337.33431
337.33986
337.31109
337.31121
337.2758
337.27084
337.22913
337.2201
337.17288
337.16091
337.10915
337.09523
337.03982
337.02475
336.9664
336.95083
336.89016
336.8746
336.81208
336.79696
336.73296
336.71857
336.65338
336.63994
336.57378
336.56147
336.49449
336.48343
336.41577
336.40604
336.3378
336.32945
336.26072
336.25376
336.18461
336.17906
336.10954
336.10539
336.03555
336.03278
335.96264
335.96125
335.89079
337.36647
337.38327
337.38499
337.37005
337.38117
337.36399
337.37526
337.35401
337.36264
337.33651
337.34099
337.30927
337.30946
337.27208
337.26855
337.22598
337.21952
337.17249
337.16389
337.11313
337.10307
337.04922
337.03828
336.98191
336.97059
336.91216
336.90086
336.84074
336.82977
336.76827
336.75787
336.69522
336.68558
336.62197
336.61321
336.5488
336.54103
336.47595
336.46923
336.40357
336.39795
336.33182
336.32731
336.26077
336.25738
336.1905
336.18824
336.12105
336.11991
336.05241
337.38476
337.39637
337.40103
337.38525
337.39712
337.37953
337.39191
337.37135
337.38216
337.35792
337.3657
337.33686
337.34118
337.30741
337.30845
337.26993
337.2682
337.22544
337.22152
337.17509
337.16952
337.11996
337.11324
337.06105
337.05363
336.99923
336.9915
336.93527
336.92752
336.86976
336.86224
336.80319
336.79608
336.73596
336.72941
336.66838
336.66251
336.60071
336.59558
336.53315
336.52883
336.46587
336.46238
336.39897
336.39634
336.33257
336.33081
336.26672
336.26583
336.20145
337.40189
337.40888
337.41592
337.39948
337.41191
337.39394
337.40703
337.38684
337.39915
337.37622
337.38644
337.35983
337.36735
337.33655
337.3413
337.30628
337.30851
337.26956
337.26966
337.2272
337.22558
337.18004
337.1771
337.1289
337.12502
337.07455
337.07009
337.01769
337.01292
336.95889
336.95406
336.89865
336.89392
336.83734
336.83288
336.77531
336.77123
336.71283
336.70921
336.65011
336.64703
336.58735
336.58484
336.52469
336.52278
336.46225
336.46096
336.40011
336.39946
336.33832
337.41791
337.42081
337.42969
337.41274
337.42558
337.40726
337.42081
337.4008
337.41409
337.39208
337.40403
337.37914
337.38907
337.36071
337.36838
337.33635
337.34181
337.30623
337.30971
337.27086
337.27263
337.23082
337.23118
337.18676
337.18603
337.13934
337.13781
337.08915
337.08709
337.03675
337.03437
336.98258
336.98005
336.92702
336.9245
336.87042
336.86802
336.81306
336.81086
336.75516
336.75324
336.69693
336.69534
336.63852
336.6373
336.58008
336.57925
336.52171
336.52129
336.46348
337.43289
337.43212
337.44238
337.42502
337.43812
337.41953
337.43334
337.41345
337.42734
337.40599
337.4191
337.39554
337.40723
337.38085
337.39076
337.36126
337.3693
337.33667
337.34292
337.30731
337.31193
337.27356
337.27675
337.23587
337.23788
337.19477
337.19584
337.15078
337.15113
337.10437
337.10421
337.05597
337.05544
337.00594
337.00518
336.95459
336.95373
336.90221
336.90133
336.84904
336.84821
336.79528
336.79455
336.7411
336.74053
336.68666
336.68626
336.63207
336.63187
336.57743
337.44687
337.44279
337.45399
337.43629
337.44953
337.43077
337.44469
337.42491
337.43912
337.41829
337.43213
337.40962
337.42253
337.39777
337.40933
337.38197
337.392
337.36194
337.3704
337.33769
337.34464
337.30939
337.31495
337.27735
337.28169
337.24196
337.24527
337.20364
337.20611
337.1628
337.16459
337.11981
337.12106
337.075
337.07584
337.02868
337.0292
336.9811
336.98141
336.93252
336.93267
336.88313
336.88319
336.83311
336.83312
336.78262
336.78261
336.73178
336.73178
336.68071
337.45985
337.45275
337.46451
337.44655
337.45979
337.44095
337.45489
337.43525
337.44958
337.42919
337.44345
337.4218
337.43549
337.41208
337.4248
337.39926
337.41076
337.38294
337.3931
337.36295
337.37176
337.33934
337.34683
337.31225
337.31853
337.28195
337.28715
337.24876
337.25303
337.21302
337.21649
337.17505
337.17784
337.13513
337.13736
337.09355
337.0953
337.05055
337.05192
337.00637
337.00741
336.9612
336.96197
336.91522
336.91576
336.86859
336.86894
336.82145
336.82162
336.77391
337.47176
337.46189
337.47389
337.45575
337.46891
337.45009
337.46395
337.44452
337.45884
337.43886
337.45329
337.43238
337.44652
337.42426
337.43773
337.41376
337.42628
337.40041
337.41183
337.38396
337.39419
337.36432
337.37333
337.3415
337.34935
337.31568
337.32244
337.28708
337.29285
337.25596
337.26086
337.22258
337.2267
337.18719
337.19062
337.15004
337.15287
337.11136
337.11365
337.07136
337.07317
337.03022
337.03162
336.98813
336.98915
336.94524
336.94591
336.90169
336.90202
336.8576
337.48242
337.47007
337.48207
337.46385
337.47687
337.45817
337.47189
337.45275
337.46695
337.4474
337.46183
337.4416
337.45593
337.43467
337.44857
337.42596
337.43915
337.41498
337.42727
337.40143
337.41269
337.3851
337.39526
337.36594
337.375
337.34401
337.352
337.31946
337.32645
337.29247
337.29854
337.26326
337.26847
337.23202
337.23646
337.19897
337.2027
337.16431
337.16739
337.12824
337.13072
337.09092
337.09286
337.05253
337.05396
337.01323
337.01417
336.97315
336.97361
336.9324
337.49156
337.47714
337.48899
337.47083
337.48367
337.4652
337.47874
337.45997
337.47398
337.45491
337.4692
337.44963
337.46395
337.4436
337.45767
337.43627
337.44982
337.42716
337.44
337.41595
337.4279
337.40237
337.41335
337.3863
337.39625
337.36771
337.37664
337.34669
337.35463
337.32336
337.33036
337.29788
337.30397
337.2704
337.27565
337.2411
337.24556
337.21015
337.21388
337.17773
337.18077
337.144
337.14638
337.10911
337.11087
337.07321
337.07438
337.03643
337.03701
336.99889
337.4988
337.48293
337.49462
337.47668
337.48932
337.47121
337.48454
337.46621
337.47998
337.46144
337.4755
337.45659
337.47076
337.45126
337.46531
337.44499
337.45867
337.43736
337.45046
337.42801
337.44038
337.41668
337.42818
337.40319
337.41374
337.38744
337.39703
337.36947
337.3781
337.34934
337.35703
337.32716
337.33393
337.30305
337.30894
337.27714
337.28219
337.24959
337.25384
337.22054
337.22402
337.19013
337.19288
337.15851
337.16055
337.12581
337.12717
337.09216
337.09284
337.05767
337.50389
337.48736
337.49896
337.48141
337.49387
337.47622
337.48931
337.47152
337.48501
337.46705
337.48082
337.46258
337.4765
337.45781
337.47168
337.45237
337.46597
337.44588
337.45903
337.43803
337.45056
337.42852
337.44029
337.41714
337.42806
337.40378
337.41379
337.38841
337.3975
337.37105
337.37921
337.35176
337.35901
337.33063
337.33698
337.30777
337.31325
337.28328
337.28792
337.2573
337.26112
337.22995
337.23298
337.20136
337.20362
337.17166
337.17315
337.14094
337.14169
337.10933
337.50682
337.49045
337.50206
337.48507
337.49737
337.48029
337.49314
337.47595
337.48912
337.4718
337.48523
337.46768
337.48127
337.46338
337.47696
337.4586
337.47197
337.453
337.46602
337.44631
337.45881
337.43826
337.45009
337.42861
337.43967
337.41722
337.42744
337.40403
337.41338
337.38904
337.39749
337.37226
337.37981
337.35374
337.3604
337.33357
337.33934
337.31183
337.31674
337.28863
337.29269
337.26407
337.2673
337.23826
337.24067
337.21132
337.21292
337.18334
337.18415
337.15443
337.50789
337.49234
337.50405
337.48776
337.49991
337.48349
337.49607
337.47955
337.4924
337.47575
337.48881
337.47198
337.48517
337.46808
337.48127
337.46381
337.47685
337.45891
337.47166
337.45313
337.46543
337.44622
337.45793
337.43795
337.44897
337.42817
337.43842
337.4168
337.42622
337.4038
337.41237
337.38916
337.39686
337.37291
337.37973
337.3551
337.36104
337.3358
337.34087
337.31508
337.31929
337.29304
337.29639
337.26977
337.27228
337.24536
337.24703
337.21991
337.22074
337.1935
337.50761
337.49325
337.50508
337.48959
337.5016
337.4859
337.49821
337.4824
337.4949
337.47896
337.49162
337.47553
337.48829
337.47198
337.48473
337.46813
337.48075
337.46377
337.47613
337.45868
337.47065
337.45266
337.46411
337.44548
337.45629
337.43699
337.4471
337.42709
337.43644
337.41574
337.42428
337.40292
337.41062
337.38861
337.39546
337.37284
337.37883
337.35568
337.3608
337.33716
337.34143
337.31737
337.32078
337.29639
337.29894
337.27428
337.27599
337.25114
337.252
337.22705
337.50657
337.49346
337.50535
337.49071
337.50256
337.48762
337.49965
337.48457
337.49671
337.4815
337.49374
337.47839
337.49069
337.47515
337.48742
337.47164
337.48377
337.46769
337.47957
337.46312
337.47466
337.45776
337.46883
337.45141
337.46191
337.44394
337.45378
337.43523
337.44436
337.42523
337.43361
337.4139
337.42149
337.40123
337.40801
337.38722
337.39317
337.37191
337.37701
337.35533
337.35958
337.33754
337.34094
337.3186
337.32115
337.29857
337.30028
337.27754
337.27839
337.25556
337.5052
337.49321
337.50505
337.49125
337.5029
337.48874
337.50046
337.48614
337.4979
337.48344
337.49524
337.48064
337.49244
337.47767
337.4894
337.47442
337.486
337.47076
337.48211
337.46657
337.47758
337.46169
337.47227
337.45596
337.46602
337.44925
337.45871
337.44146
337.45028
337.43255
337.44066
337.42245
337.42982
337.41114
337.41774
337.39862
337.40442
337.38489
337.38988
337.36999
337.37416
337.35395
337.3573
337.33682
337.33934
337.31866
337.32034
337.29952
337.30037
337.27947
337.50374
337.49269
337.50434
337.49135
337.50275
337.48938
337.50076
337.48719
337.49855
337.48484
337.49618
337.48232
337.4936
337.47957
337.49074
337.47652
337.48751
337.47306
337.4838
337.4691
337.47953
337.46454
337.47457
337.45924
337.46879
337.45309
337.46209
337.44601
337.45441
337.43794
337.44569
337.42882
337.43589
337.41862
337.42497
337.40734
337.41293
337.39496
337.39978
337.3815
337.38554
337.36699
337.37023
337.35146
337.3539
337.33495
337.33658
337.31751
337.31833
337.29919
337.50228
337.49203
337.50335
337.49111
337.50221
337.4896
337.50061
337.4878
337.49874
337.48576
337.49662
337.48348
337.49422
337.4809
337.49148
337.47797
337.48833
337.47461
337.48472
337.47078
337.48058
337.4664
337.47582
337.46137
337.47034
337.45559
337.46407
337.44902
337.45694
337.44158
337.44891
337.43323
337.43992
337.42393
337.42995
337.41366
337.41898
337.4024
337.407
337.39017
337.39403
337.37698
337.38008
337.36284
337.36518
337.34779
337.34936
337.33187
337.33265
337.31511
337.50084
337.49129
337.50217
337.49064
337.50137
337.48951
337.50012
337.48804
337.49852
337.48626
337.49661
337.48416
337.49433
337.48169
337.49164
337.47879
337.4885
337.47545
337.48488
337.47164
337.48076
337.46731
337.47607
337.46241
337.47075
337.45686
337.46475
337.45062
337.45801
337.44364
337.45048
337.43587
337.44213
337.42727
337.43291
337.41781
337.42281
337.40749
337.41182
337.39629
337.39992
337.38421
337.38714
337.37128
337.37349
337.35751
337.35899
337.34293
337.34367
337.32755
337.4994
337.49052
337.50087
337.48999
337.50032
337.48916
337.49934
337.48795
337.49797
337.48638
337.49619
337.48439
337.49396
337.48194
337.49124
337.479
337.48802
337.47558
337.4843
337.47168
337.48009
337.4673
337.47536
337.4624
337.47008
337.45695
337.46421
337.4509
337.45771
337.44421
337.45053
337.43686
337.44265
337.42879
337.43402
337.41999
337.42463
337.41042
337.41444
337.40007
337.40346
337.38895
337.39168
337.37706
337.37912
337.3644
337.36578
337.35099
337.35168
337.33685
337.49794
337.48973
337.49948
337.48922
337.49909
337.48861
337.49832
337.4876
337.49711
337.48616
337.49539
337.48419
337.49312
337.48167
337.49027
337.47859
337.48688
337.47499
337.48297
337.47091
337.47858
337.46637
337.47371
337.46137
337.46836
337.45589
337.4625
337.44991
337.45611
337.4434
337.44916
337.43632
337.44161
337.42865
337.43343
337.42034
337.42459
337.41137
337.41507
337.40173
337.40485
337.39141
337.39393
337.3804
337.3823
337.3687
337.36997
337.35632
337.35696
337.34327
337.49646
337.48893
337.49803
337.48836
337.49775
337.4879
337.49712
337.48701
337.49597
337.4856
337.49421
337.48355
337.49179
337.48084
337.48872
337.47752
337.48505
337.47364
337.48086
337.46929
337.4762
337.46451
337.4711
337.45932
337.46559
337.45371
337.45965
337.4477
337.45328
337.44125
337.44644
337.43434
337.43911
337.42693
337.43126
337.41899
337.42285
337.4105
337.41386
337.40144
337.40427
337.39178
337.39407
337.38151
337.38324
337.37064
337.3718
337.35916
337.35974
337.34707
337.49494
337.48812
337.49653
337.48743
337.49631
337.48705
337.49576
337.48621
337.49458
337.48471
337.49265
337.48245
337.48996
337.47944
337.48655
337.47575
337.4825
337.4715
337.47793
337.46679
337.47292
337.46168
337.46752
337.45621
337.46177
337.45041
337.45567
337.44428
337.44923
337.4378
337.44242
337.43096
337.43521
337.42372
337.42758
337.41606
337.4195
337.40793
337.41093
337.39933
337.40187
337.39022
337.39227
337.38059
337.38214
337.37042
337.37147
337.35972
337.36025
337.34848
337.49336
337.48729
337.49497
337.48644
337.4948
337.4861
337.49424
337.48518
337.4929
337.48346
337.49067
337.48084
337.48757
337.47739
337.48369
337.47323
337.47916
337.46851
337.47412
337.46335
337.46869
337.45784
337.46292
337.45204
337.45687
337.44597
337.45055
337.43966
337.44397
337.43309
337.43712
337.42625
337.42997
337.4191
337.42249
337.41162
337.41465
337.40377
337.40642
337.39553
337.39777
337.38687
337.38869
337.37777
337.37915
337.36822
337.36915
337.3582
337.35866
337.34769
337.49173
337.48645
337.49337
337.4854
337.49322
337.48502
337.49256
337.48391
337.49092
337.4818
337.48822
337.47866
337.48455
337.47463
337.48007
337.46988
337.47496
337.46459
337.46938
337.45891
337.46345
337.45294
337.45726
337.44675
337.45086
337.44037
337.44428
337.43383
337.43752
337.42711
337.43057
337.42021
337.42342
337.4131
337.41602
337.40574
337.40836
337.3981
337.40039
337.39015
337.3921
337.38187
337.38345
337.37322
337.37442
337.36418
337.36499
337.35475
337.35516
337.3449
337.49003
337.48558
337.49172
337.48431
337.49156
337.48381
337.49069
337.48234
337.48856
337.47965
337.4852
337.47582
337.48081
337.47107
337.47561
337.46561
337.46982
337.45967
337.46362
337.4534
337.45715
337.44692
337.4505
337.4403
337.44372
337.43358
337.43684
337.42678
337.42986
337.41989
337.42279
337.41289
337.41559
337.40577
337.40824
337.39848
337.4007
337.39099
337.39295
337.38328
337.38494
337.3753
337.37666
337.36704
337.36807
337.35846
337.35915
337.34954
337.34989
337.34026
337.48824
337.4847
337.49001
337.48317
337.48981
337.48244
337.48857
337.48039
337.48573
337.47691
337.48151
337.47221
337.47623
337.46658
337.47019
337.46031
337.46363
337.45364
337.45676
337.44675
337.44971
337.43973
337.44257
337.43266
337.43539
337.42558
337.4282
337.4185
337.421
337.41141
337.41378
337.4043
337.40651
337.39714
337.39918
337.38989
337.39173
337.38252
337.38415
337.375
337.37638
337.36728
337.36841
337.35934
337.36021
337.35116
337.35174
337.34269
337.34299
337.33393
337.48635
337.48381
337.48825
337.48198
337.48794
337.48083
337.4861
337.47796
337.48231
337.47345
337.47701
337.46768
337.47068
337.46104
337.46369
337.45388
337.4563
337.44643
337.44872
337.43887
337.44107
337.4313
337.43343
337.42378
337.42585
337.41633
337.41834
337.40897
337.41091
337.40168
337.40354
337.39445
337.3962
337.38724
337.38887
337.38001
337.3815
337.37274
337.37405
337.36537
337.3665
337.35788
337.35881
337.35023
337.35094
337.34239
337.34287
337.33434
337.33458
337.32603
337.48436
337.48293
337.48642
337.48072
337.48588
337.4789
337.48317
337.47489
337.47813
337.4691
337.47154
337.46208
337.46402
337.45433
337.45599
337.4462
337.44773
337.43794
337.43941
337.42971
337.43115
337.42158
337.42303
337.41361
337.41506
337.40582
337.40725
337.39819
337.39961
337.39071
337.39209
337.38336
337.38469
337.3761
337.37735
337.36889
337.37004
337.3617
337.36272
337.35448
337.35536
337.34719
337.34792
337.3398
337.34036
337.33227
337.33265
337.32458
337.32477
337.31669
337.48223
337.48208
337.48451
337.47935
337.48353
337.4765
337.4796
337.47101
337.473
337.46367
337.46492
337.45525
337.4561
337.44629
337.44697
337.43716
337.4378
337.42808
337.42875
337.41918
337.41991
337.41053
337.41132
337.40214
337.40299
337.39402
337.39492
337.38615
337.38708
337.3785
337.37944
337.37105
337.37198
337.36376
337.36465
337.35657
337.35741
337.34946
337.35021
337.34237
337.34303
337.33527