/*--------------------------------*- C++ -*----------------------------------*\
| =========                 |                                                 |
| \\      /  F ield         | OpenFOAM: The Open Source CFD Toolbox           |
|  \\    /   O peration     | Version:  2312                                  |
|   \\  /    A nd           | Website:  www.openfoam.com                      |
|    \\/     M anipulation  |                                                 |
\*---------------------------------------------------------------------------*/
FoamFile
{
    version     2.0;
    format      ascii;
    arch        "LSB;label=32;scalar=64";
    class       volScalarField;
    location    "7";
    object      p;
}
// * * * * * * * * * * * * * * * * * * * * * * * * * * * * * * * * * * * * * //

dimensions      [0 2 -2 0 0 0 0];

internalField   nonuniform List<scalar> 
4000
(
26.553506
25.480672
25.189696
24.33962
24.088207
23.291842
23.01624
22.252737
21.949271
21.21308
20.884224
20.172044
19.820695
19.129687
18.758473
18.086132
17.6974
17.041509
16.637343
15.995934
15.578188
14.949512
14.519835
13.902336
13.462195
12.854488
12.405192
11.806041
11.348757
10.757055
10.292833
9.707587
9.2373677
8.6576832
8.1823174
7.6073845
7.1276443
6.5567255
6.0733166
5.5057356
5.0193073
4.4544389
3.9655947
3.402855
2.9121613
2.3509993
1.8589938
1.298882
0.80608014
0.24650171
26.5497
25.47928
25.189837
24.339631
24.088197
23.291853
23.01623
22.252747
21.949262
21.213089
20.884216
20.172052
19.820688
19.129693
18.758467
18.086138
17.697394
17.041514
16.637338
15.995938
15.578183
14.949516
14.519831
13.90234
13.462191
12.854492
12.405189
11.806044
11.348754
10.757058
10.29283
9.7075894
9.2373654
8.6576854
8.1823153
7.6073865
7.1276424
6.5567274
6.0733148
5.5057373
5.0193057
4.4544405
3.9655932
3.4028565
2.9121598
2.3510008
1.8589923
1.2988835
0.80607866
0.24650402
26.540327
25.478105
25.190102
24.33962
24.088205
23.291852
23.016231
22.252746
21.949263
21.213088
20.884217
20.172051
19.820689
19.129693
18.758468
18.086138
17.697395
17.041513
16.637338
15.995938
15.578184
14.949515
14.519831
13.902339
13.462192
12.854491
12.405189
11.806043
11.348755
10.757058
10.292831
9.7075892
9.2373657
8.6576852
8.1823155
7.6073862
7.1276426
6.5567271
6.073315
5.5057371
5.0193059
4.4544403
3.9655934
3.4028564
2.91216
2.3510006
1.8589925
1.2988833
0.80607869
0.24650474
26.530411
25.477113
25.190391
24.339606
24.088219
23.291846
23.016236
22.25274
21.949268
21.213083
20.884221
20.172047
19.820693
19.129689
18.758471
18.086134
17.697398
17.041511
16.637341
15.995935
15.578186
14.949513
14.519833
13.902337
13.462194
12.85449
12.405191
11.806042
11.348756
10.757056
10.292832
9.7075879
9.2373669
8.657684
8.1823166
7.6073852
7.1276437
6.5567262
6.073316
5.5057362
5.0193068
4.4544394
3.9655942
3.4028556
2.9121608
2.3509998
1.8589932
1.2988825
0.80607935
0.24650479
26.520172
25.475902
25.190634
24.339598
24.088233
23.29184
23.016241
22.252735
21.949272
21.213079
20.884225
20.172044
19.820696
19.129686
18.758474
18.086132
17.697401
17.041508
16.637343
15.995933
15.578188
14.949511
14.519835
13.902336
13.462195
12.854488
12.405192
11.80604
11.348758
10.757055
10.292833
9.7075867
9.237368
8.6576829
8.1823176
7.6073842
7.1276446
6.5567253
6.0733168
5.5057353
5.0193076
4.4544387
3.9655949
3.4028548
2.9121615
2.3509991
1.8589939
1.2988818
0.80608
0.24650475
26.51017
25.474836
25.19082
24.339602
24.088249
23.291836
23.016245
22.252732
21.949275
21.213076
20.884228
20.172041
19.820699
19.129683
18.758476
18.086129
17.697403
17.041506
16.637345
15.995931
15.57819
14.94951
14.519836
13.902334
13.462197
12.854487
12.405193
11.806039
11.348759
10.757054
10.292834
9.7075858
9.2373688
8.6576821
8.1823184
7.6073835
7.1276453
6.5567246
6.0733175
5.5057347
5.0193082
4.454438
3.9655955
3.4028542
2.9121621
2.3509986
1.8589945
1.2988812
0.80608053
0.24650475
26.501557
25.473651
25.1909
24.339628
24.088269
23.291834
23.016248
22.252728
21.949278
21.213073
20.88423
20.172038
19.820701
19.129681
18.758478
18.086128
17.697404
17.041505
16.637347
15.99593
15.578191
14.949508
14.519838
13.902333
13.462198
12.854486
12.405194
11.806038
11.34876
10.757053
10.292835
9.7075851
9.2373695
8.6576814
8.1823191
7.6073828
7.1276459
6.556724
6.073318
5.5057342
5.0193087
4.4544375
3.965596
3.4028538
2.9121626
2.3509981
1.858995
1.2988807
0.80608101
0.24650475
26.49129
25.472584
25.19087
24.339689
24.088294
23.291833
23.016251
22.252725
21.94928
21.213071
20.884232
20.172036
19.820703
19.129679
18.75848
18.086126
17.697406
17.041503
16.637348
15.995929
15.578193
14.949507
14.519839
13.902332
13.462199
12.854485
12.405195
11.806037
11.34876
10.757052
10.292836
9.7075844
9.2373702
8.6576808
8.1823197
7.6073823
7.1276464
6.5567235
6.0733185
5.5057337
5.0193092
4.4544371
3.9655965
3.4028533
2.912163
2.3509977
1.8589954
1.2988802
0.80608145
0.24650474
26.48364
25.471591
25.190739
24.339745
24.088313
23.291831
23.016253
22.252723
21.949283
21.213069
20.884234
20.172034
19.820705
19.129678
18.758482
18.086124
17.697407
17.041502
16.637349
15.995927
15.578194
14.949506
14.51984
13.902331
13.4622
12.854484
12.405196
11.806037
11.348761
10.757052
10.292836
9.7075838
9.2373708
8.6576803
8.1823202
7.6073818
7.1276469
6.556723
6.073319
5.5057332
5.0193096
4.4544367
3.9655969
3.4028529
2.9121634
2.3509973
1.8589957
1.2988798
0.80608186
0.24650472
26.474343
25.470511
25.19066
24.339719
24.088307
23.291824
23.016254
22.25272
21.949284
21.213067
20.884236
20.172033
19.820706
19.129676
18.758483
18.086123
17.697408
17.041501
16.63735
15.995926
15.578195
14.949505
14.519841
13.90233
13.4622
12.854483
12.405197
11.806036
11.348762
10.757051
10.292837
9.7075833
9.2373713
8.6576798
8.1823206
7.6073813
7.1276473
6.5567226
6.0733194
5.5057329
5.01931
4.4544363
3.9655972
3.4028526
2.9121637
2.3509969
1.8589961
1.2988795
0.80608225
0.24650468
26.467765
25.469384
25.190704
24.339646
24.088285
23.291814
23.016254
22.252717
21.949286
21.213065
20.884238
20.172031
19.820708
19.129675
18.758484
18.086122
17.69741
17.0415
16.637351
15.995925
15.578195
14.949504
14.519841
13.90233
13.462201
12.854483
12.405197
11.806035
11.348762
10.757051
10.292837
9.7075828
9.2373717
8.6576794
8.1823211
7.6073809
7.1276477
6.5567222
6.0733197
5.5057325
5.0193103
4.454436
3.9655975
3.4028523
2.912164
2.3509966
1.8589964
1.2988791
0.80608262
0.24650463
26.45955
25.467848
25.190765
24.339603
24.088264
23.291805
23.016254
22.252715
21.949287
21.213063
20.884239
20.17203
19.820709
19.129674
18.758485
18.086121
17.697411
17.041499
16.637352
15.995925
15.578196
14.949504
14.519842
13.902329
13.462202
12.854482
12.405198
11.806035
11.348763
10.75705
10.292838
9.7075823
9.2373721
8.657679
8.1823214
7.6073806
7.1276481
6.5567219
6.0733201
5.5057322
5.0193106
4.4544357
3.9655978
3.402852
2.9121643
2.3509964
1.8589966
1.2988788
0.80608297
0.24650458
26.453781
25.466759
25.190633
24.33955
24.088238
23.291796
23.016253
22.252713
21.949289
21.213062
20.88424
20.172029
19.82071
19.129673
18.758487
18.08612
17.697411
17.041498
16.637353
15.995924
15.578197
14.949503
14.519843
13.902328
13.462202
12.854481
12.405198
11.806034
11.348763
10.75705
10.292838
9.7075819
9.2373725
8.6576786
8.1823218
7.6073802
7.1276484
6.5567216
6.0733204
5.5057319
5.0193109
4.4544354
3.9655981
3.4028517
2.9121645
2.3509961
1.8589969
1.2988786
0.8060833
0.24650452
26.447912
25.465457
25.190314
24.339464
24.088206
23.291785
23.016252
22.25271
21.94929
21.21306
20.884241
20.172028
19.820711
19.129672
18.758487
18.086119
17.697412
17.041497
16.637354
15.995923
15.578198
14.949502
14.519843
13.902328
13.462203
12.854481
12.405199
11.806034
11.348764
10.757049
10.292839
9.7075816
9.2373729
8.6576783
8.1823221
7.6073799
7.1276487
6.5567213
6.0733206
5.5057317
5.0193112
4.4544352
3.9655983
3.4028515
2.9121648
2.3509959
1.8589971
1.2988783
0.80608361
0.24650445
26.441744
25.464361
25.189935
24.339373
24.088172
23.291773
23.01625
22.252708
21.949291
21.213059
20.884243
20.172026
19.820712
19.129671
18.758488
18.086118
17.697413
17.041496
16.637355
15.995923
15.578198
14.949502
14.519844
13.902327
13.462203
12.85448
12.405199
11.806033
11.348764
10.757049
10.292839
9.7075813
9.2373732
8.657678
8.1823224
7.6073797
7.127649
6.5567211
6.0733209
5.5057314
5.0193114
4.454435
3.9655986
3.4028513
2.912165
2.3509957
1.8589973
1.2988781
0.8060839
0.24650438
26.437228
25.462933
25.189511
24.339285
24.088139
23.291761
23.016248
22.252706
21.949291
21.213058
20.884243
20.172026
19.820713
19.12967
18.758489
18.086117
17.697414
17.041496
16.637355
15.995922
15.578199
14.949501
14.519844
13.902327
13.462204
12.85448
12.4052
11.806033
11.348764
10.757049
10.292839
9.7075809
9.2373735
8.6576777
8.1823227
7.6073794
7.1276492
6.5567208
6.0733211
5.5057312
5.0193116
4.4544347
3.9655988
3.4028511
2.9121652
2.3509955
1.8589975
1.2988779
0.80608418
0.24650431
26.431129
25.461642
25.189066
24.339192
24.088104
23.291748
23.016245
22.252703
21.949292
21.213057
20.884244
20.172025
19.820714
19.129669
18.75849
18.086117
17.697414
17.041495
16.637356
15.995921
15.578199
14.949501
14.519845
13.902326
13.462204
12.85448
12.4052
11.806033
11.348765
10.757048
10.29284
9.7075807
9.2373737
8.6576774
8.1823229
7.6073792
7.1276494
6.5567206
6.0733213
5.505731
5.0193118
4.4544346
3.965599
3.4028509
2.9121654
2.3509953
1.8589977
1.2988777
0.80608445
0.24650424
26.427133
25.46025
25.188653
24.339075
24.088062
23.29173
23.01624
22.2527
21.949292
21.213056
20.884245
20.172024
19.820715
19.129668
18.75849
18.086116
17.697415
17.041494
16.637356
15.995921
15.5782
14.9495
14.519845
13.902326
13.462204
12.854479
12.4052
11.806032
11.348765
10.757048
10.29284
9.7075804
9.237374
8.6576772
8.1823231
7.607379
7.1276496
6.5567204
6.0733215
5.5057308
5.019312
4.4544344
3.9655991
3.4028507
2.9121655
2.3509951
1.8589978
1.2988775
0.8060847
0.24650417
26.422322
25.459018
25.188296
24.338939
24.08801
23.291708
23.016233
22.252696
21.949292
21.213054
20.884246
20.172023
19.820715
19.129668
18.758491
18.086116
17.697416
17.041494
16.637357
15.99592
15.5782
14.9495
14.519846
13.902326
13.462205
12.854479
12.405201
11.806032
11.348765
10.757048
10.29284
9.7075802
9.2373742
8.657677
8.1823233
7.6073788
7.1276498
6.5567202
6.0733217
5.5057306
5.0193121
4.4544342
3.9655993
3.4028506
2.9121657
2.350995
1.858998
1.2988774
0.80608494
0.24650409
26.419123
25.457762
25.187951
24.33882
24.087957
23.291687
23.016226
22.252692
21.949291
21.213053
20.884246
20.172022
19.820716
19.129667
18.758492
18.086115
17.697416
17.041494
16.637357
15.99592
15.578201
14.9495
14.519846
13.902325
13.462205
12.854479
12.405201
11.806032
11.348766
10.757047
10.29284
9.7075799
9.2373744
8.6576768
8.1823235
7.6073786
7.12765
6.5567201
6.0733218
5.5057305
5.0193123
4.4544341
3.9655994
3.4028504
2.9121658
2.3509948
1.8589981
1.2988772
0.80608516
0.24650402
26.415241
25.456665
25.187587
24.338727
24.087916
23.291672
23.016221
22.252689
21.949291
21.213052
20.884247
20.172021
19.820716
19.129667
18.758492
18.086115
17.697417
17.041493
16.637358
15.99592
15.578201
14.949499
14.519846
13.902325
13.462205
12.854478
12.405201
11.806032
11.348766
10.757047
10.292841
9.7075797
9.2373746
8.6576766
8.1823237
7.6073784
7.1276502
6.5567199
6.073322
5.5057303
5.0193124
4.4544339
3.9655996
3.4028503
2.912166
2.3509947
1.8589983
1.2988771
0.80608537
0.24650395
26.412613
25.455606
25.187221
24.338639
24.087888
23.291664
23.016219
22.252686
21.949291
21.213051
20.884247
20.172021
19.820717
19.129666
18.758493
18.086114
17.697417
17.041493
16.637358
15.995919
15.578201
14.949499
14.519847
13.902325
13.462206
12.854478
12.405201
11.806031
11.348766
10.757047
10.292841
9.7075796
9.2373748
8.6576764
8.1823239
7.6073783
7.1276503
6.5567198
6.0733221
5.5057302
5.0193126
4.4544338
3.9655997
3.4028502
2.9121661
2.3509946
1.8589984
1.298877
0.80608557
0.24650388
26.409479
25.454677
25.186875
24.338547
24.087866
23.291664
23.016218
22.252685
21.949291
21.21305
20.884248
20.17202
19.820717
19.129666
18.758493
18.086114
17.697417
17.041492
16.637358
15.995919
15.578202
14.949499
14.519847
13.902324
13.462206
12.854478
12.405202
11.806031
11.348766
10.757047
10.292841
9.7075794
9.237375
8.6576763
8.182324
7.6073781
7.1276504
6.5567196
6.0733223
5.5057301
5.0193127
4.4544337
3.9655998
3.4028501
2.9121662
2.3509945
1.8589985
1.2988769
0.80608576
0.24650381
26.40733
25.453814
25.186561
24.338457
24.087844
23.291668
23.016218
22.252685
21.949291
21.213049
20.884248
20.17202
19.820718
19.129665
18.758494
18.086113
17.697418
17.041492
16.637359
15.995919
15.578202
14.949498
14.519847
13.902324
13.462206
12.854478
12.405202
11.806031
11.348766
10.757047
10.292841
9.7075792
9.2373751
8.6576761
8.1823242
7.607378
7.1276506
6.5567195
6.0733224
5.50573
5.0193128
4.4544336
3.9655999
3.40285
2.9121663
2.3509944
1.8589986
1.2988768
0.80608594
0.24650374
26.404811
25.453048
25.186273
24.338377
24.08782
23.291674
23.016219
22.252684
21.949292
21.213049
20.884248
20.172019
19.820718
19.129665
18.758494
18.086113
17.697418
17.041492
16.637359
15.995918
15.578202
14.949498
14.519847
13.902324
13.462206
12.854477
12.405202
11.806031
11.348767
10.757046
10.292841
9.7075791
9.2373753
8.657676
8.1823243
7.6073779
7.1276507
6.5567194
6.0733225
5.5057299
5.0193129
4.4544335
3.9656
3.4028499
2.9121664
2.3509943
1.8589987
1.2988767
0.8060861
0.24650368
26.403019
25.452362
25.186016
24.338309
24.087794
23.291682
23.016221
22.252684
21.949292
21.213048
20.884249
20.172019
19.820719
19.129664
18.758494
18.086113
17.697418
17.041491
16.637359
15.995918
15.578202
14.949498
14.519848
13.902324
13.462207
12.854477
12.405202
11.806031
11.348767
10.757046
10.292841
9.7075789
9.2373754
8.6576759
8.1823244
7.6073777
7.1276508
6.5567193
6.0733226
5.5057298
5.019313
4.4544334
3.9656001
3.4028498
2.9121665
2.3509942
1.8589987
1.2988766
0.80608625
0.24650362
26.401021
25.451747
25.185781
24.338251
24.08777
23.291688
23.016223
22.252684
21.949293
21.213048
20.884249
20.172018
19.820719
19.129664
18.758495
18.086112
17.697419
17.041491
16.63736
15.995918
15.578203
14.949498
14.519848
13.902323
13.462207
12.854477
12.405202
11.80603
11.348767
10.757046
10.292842
9.7075788
9.2373755
8.6576757
8.1823245
7.6073776
7.1276509
6.5567192
6.0733227
5.5057297
5.0193131
4.4544333
3.9656002
3.4028497
2.9121666
2.3509941
1.8589988
1.2988765
0.80608639
0.24650356
26.399496
25.451212
25.185579
24.338202
24.087749
23.291693
23.016225
22.252685
21.949294
21.213048
20.884249
20.172018
19.820719
19.129664
18.758495
18.086112
17.697419
17.041491
16.63736
15.995918
15.578203
14.949497
14.519848
13.902323
13.462207
12.854477
12.405202
11.80603
11.348767
10.757046
10.292842
9.7075787
9.2373756
8.6576756
8.1823246
7.6073775
7.127651
6.5567191
6.0733228
5.5057296
5.0193132
4.4544332
3.9656003
3.4028496
2.9121666
2.350994
1.8589989
1.2988765
0.80608652
0.2465035
26.397955
25.450745
25.185399
24.338163
24.087731
23.291696
23.016228
22.252687
21.949295
21.213047
20.88425
20.172017
19.820719
19.129663
18.758495
18.086112
17.697419
17.041491
16.63736
15.995917
15.578203
14.949497
14.519848
13.902323
13.462207
12.854477
12.405203
11.80603
11.348767
10.757046
10.292842
9.7075786
9.2373757
8.6576755
8.1823247
7.6073774
7.1276511
6.556719
6.0733228
5.5057295
5.0193132
4.4544331
3.9656003
3.4028495
2.9121667
2.350994
1.858999
1.2988764
0.80608664
0.24650345
26.396668
25.450336
25.185254
24.338132
24.087718
23.291697
23.01623
22.252689
21.949296
21.213047
20.88425
20.172017
19.82072
19.129663
18.758495
18.086111
17.697419
17.04149
16.63736
15.995917
15.578203
14.949497
14.519848
13.902323
13.462207
12.854477
12.405203
11.80603
11.348767
10.757046
10.292842
9.7075785
9.2373758
8.6576755
8.1823248
7.6073774
7.1276512
6.5567189
6.0733229
5.5057294
5.0193133
4.4544331
3.9656004
3.4028495
2.9121668
2.3509939
1.858999
1.2988764
0.80608674
0.24650341
26.395498
25.450005
25.18513
24.338109
24.087709
23.291698
23.016231
22.252692
21.949297
21.213047
20.88425
20.172017
19.82072
19.129663
18.758496
18.086111
17.69742
17.04149
16.63736
15.995917
15.578203
14.949497
14.519848
13.902323
13.462207
12.854477
12.405203
11.80603
11.348767
10.757046
10.292842
9.7075784
9.2373759
8.6576754
8.1823249
7.6073773
7.1276512
6.5567189
6.073323
5.5057294
5.0193134
4.454433
3.9656004
3.4028494
2.9121668
2.3509939
1.8589991
1.2988763
0.80608683
0.24650337
26.394471
25.449699
25.185038
24.338093
24.087703
23.291699
23.016231
22.252695
21.949298
21.213047
20.884251
20.172016
19.82072
19.129662
18.758496
18.086111
17.69742
17.04149
16.63736
15.995917
15.578204
14.949497
14.519849
13.902323
13.462207
12.854476
12.405203
11.80603
11.348767
10.757046
10.292842
9.7075783
9.237376
8.6576753
8.1823249
7.6073772
7.1276513
6.5567188
6.073323
5.5057293
5.0193134
4.454433
3.9656005
3.4028494
2.9121669
2.3509938
1.8589991
1.2988763
0.80608691
0.24650333
26.393579
25.449484
25.184964
24.338083
24.0877
23.291701
23.016231
22.252698
21.949299
21.213047
20.884251
20.172016
19.82072
19.129662
18.758496
18.086111
17.69742
17.04149
16.637361
15.995917
15.578204
14.949497
14.519849
13.902323
13.462208
12.854476
12.405203
11.80603
11.348767
10.757046
10.292842
9.7075783
9.237376
8.6576752
8.182325
7.6073772
7.1276513
6.5567188
6.0733231
5.5057293
5.0193135
4.4544329
3.9656005
3.4028493
2.9121669
2.3509938
1.8589991
1.2988763
0.80608697
0.2465033
26.392845
25.449264
25.184917
24.338079
24.0877
23.291704
23.01623
22.252701
21.9493
21.213047
20.884251
20.172016
19.82072
19.129662
18.758496
18.086111
17.69742
17.04149
16.637361
15.995917
15.578204
14.949497
14.519849
13.902323
13.462208
12.854476
12.405203
11.80603
11.348768
10.757045
10.292842
9.7075782
9.2373761
8.6576752
8.182325
7.6073771
7.1276514
6.5567187
6.0733231
5.5057292
5.0193135
4.4544329
3.9656006
3.4028493
2.9121669
2.3509937
1.8589992
1.2988762
0.80608702
0.24650328
26.392196
25.449135
25.18488
24.33808
24.087701
23.291706
23.016229
22.252704
21.949301
21.213047
20.884251
20.172016
19.82072
19.129662
18.758496
18.08611
17.69742
17.04149
16.637361
15.995917
15.578204
14.949496
14.519849
13.902322
13.462208
12.854476
12.405203
11.80603
11.348768
10.757045
10.292842
9.7075782
9.2373761
8.6576751
8.1823251
7.6073771
7.1276514
6.5567187
6.0733232
5.5057292
5.0193135
4.4544329
3.9656006
3.4028493
2.912167
2.3509937
1.8589992
1.2988762
0.80608705
0.24650326
26.39174
25.448974
25.184862
24.338082
24.087702
23.291709
23.016228
22.252706
21.949302
21.213048
20.884252
20.172016
19.82072
19.129662
18.758496
18.08611
17.69742
17.041489
16.637361
15.995916
15.578204
14.949496
14.519849
13.902322
13.462208
12.854476
12.405203
11.80603
11.348768
10.757045
10.292842
9.7075781
9.2373762
8.6576751
8.1823251
7.6073771
7.1276515
6.5567187
6.0733232
5.5057292
5.0193136
4.4544328
3.9656006
3.4028493
2.912167
2.3509937
1.8589992
1.2988762
0.80608705
0.24650326
26.391325
25.448898
25.184846
24.338086
24.087704
23.291711
23.016227
22.252708
21.949304
21.213048
20.884252
20.172016
19.820721
19.129662
18.758496
18.08611
17.69742
17.041489
16.637361
15.995916
15.578204
14.949496
14.519849
13.902322
13.462208
12.854476
12.405203
11.80603
11.348768
10.757045
10.292842
9.7075781
9.2373762
8.6576751
8.1823251
7.607377
7.1276515
6.5567186
6.0733232
5.5057292
5.0193136
4.4544328
3.9656006
3.4028492
2.912167
2.3509937
1.8589992
1.2988762
0.80608703
0.24650326
26.391132
25.448765
25.18484
24.338088
24.087706
23.291713
23.016227
22.252708
21.949305
21.213048
20.884252
20.172015
19.820721
19.129661
18.758496
18.08611
17.69742
17.041489
16.637361
15.995916
15.578204
14.949496
14.519849
13.902322
13.462208
12.854476
12.405203
11.80603
11.348768
10.757045
10.292842
9.7075781
9.2373762
8.6576751
8.1823252
7.607377
7.1276515
6.5567186
6.0733232
5.5057291
5.0193136
4.4544328
3.9656006
3.4028492
2.912167
2.3509937
1.8589992
1.2988762
0.80608699
0.24650328
26.39095
25.448722
25.184828
24.338089
24.087707
23.291714
23.016226
22.252708
21.949306
21.213048
20.884252
20.172015
19.820721
19.129661
18.758496
18.08611
17.69742
17.041489
16.637361
15.995916
15.578204
14.949496
14.519849
13.902322
13.462208
12.854476
12.405203
11.80603
11.348768
10.757045
10.292842
9.7075781
9.2373762
8.6576751
8.1823252
7.607377
7.1276515
6.5567186
6.0733232
5.5057291
5.0193136
4.4544328
3.9656006
3.4028493
2.912167
2.3509937
1.8589992
1.2988763
0.80608694
0.24650329
26.390968
25.448633
25.184825
24.338089
24.087708
23.291715
23.016226
22.252707
21.949307
21.213048
20.884252
20.172015
19.82072
19.129661
18.758496
18.08611
17.69742
17.041489
16.637361
15.995916
15.578204
14.949496
14.519849
13.902322
13.462208
12.854476
12.405203
11.80603
11.348768
10.757045
10.292842
9.7075781
9.2373762
8.6576751
8.1823252
7.607377
7.1276515
6.5567186
6.0733232
5.5057292
5.0193136
4.4544328
3.9656006
3.4028493
2.912167
2.3509937
1.8589992
1.2988763
0.80608691
0.24650331
26.390911
25.44867
25.18482
24.338089
24.087708
23.291715
23.016226
22.252707
21.949307
21.213048
20.884252
20.172015
19.82072
19.129661
18.758496
18.08611
17.69742
17.041489
16.637361
15.995916
15.578204
14.949496
14.519849
13.902322
13.462208
12.854476
12.405203
11.80603
11.348768
10.757045
10.292842
9.7075781
9.2373762
8.6576751
8.1823252
7.607377
7.1276515
6.5567186
6.0733232
5.5057292
5.0193136
4.4544328
3.9656006
3.4028493
2.912167
2.3509937
1.8589992
1.2988763
0.80608691
0.24650331
26.391025
25.44867
25.184829
24.338089
24.087707
23.291714
23.016226
22.252708
21.949306
21.213048
20.884252
20.172015
19.820721
19.129661
18.758496
18.08611
17.69742
17.041489
16.637361
15.995916
15.578204
14.949496
14.519849
13.902322
13.462208
12.854476
12.405203
11.80603
11.348768
10.757045
10.292842
9.7075781
9.2373762
8.6576751
8.1823252
7.607377
7.1276515
6.5567186
6.0733232
5.5057291
5.0193136
4.4544328
3.9656006
3.4028493
2.912167
2.3509937
1.8589992
1.2988763
0.80608694
0.24650329
26.391097
25.448786
25.184832
24.338088
24.087706
23.291713
23.016227
22.252708
21.949305
21.213048
20.884252
20.172015
19.820721
19.129661
18.758496
18.08611
17.69742
17.041489
16.637361
15.995916
15.578204
14.949496
14.519849
13.902322
13.462208
12.854476
12.405203
11.80603
11.348768
10.757045
10.292842
9.7075781
9.2373762
8.6576751
8.1823252
7.607377
7.1276515
6.5567186
6.0733232
5.5057291
5.0193136
4.4544328
3.9656006
3.4028492
2.912167
2.3509937
1.8589992
1.2988762
0.80608699
0.24650328
26.391411
25.448834
25.184843
24.338086
24.087705
23.291712
23.016227
22.252708
21.949304
21.213048
20.884252
20.172016
19.820721
19.129662
18.758496
18.08611
17.69742
17.041489
16.637361
15.995916
15.578204
14.949496
14.519849
13.902322
13.462208
12.854476
12.405203
11.80603
11.348768
10.757045
10.292842
9.7075781
9.2373762
8.6576751
8.1823251
7.607377
7.1276515
6.5567186
6.0733232
5.5057292
5.0193136
4.4544328
3.9656006
3.4028492
2.912167
2.3509937
1.8589992
1.2988762
0.80608703
0.24650326
26.391731
25.448981
25.184851
24.338082
24.087703
23.291709
23.016228
22.252706
21.949302
21.213048
20.884252
20.172016
19.82072
19.129662
18.758496
18.08611
17.69742
17.041489
16.637361
15.995916
15.578204
14.949496
14.519849
13.902322
13.462208
12.854476
12.405203
11.80603
11.348768
10.757045
10.292842
9.7075781
9.2373762
8.6576751
8.1823251
7.6073771
7.1276515
6.5567187
6.0733232
5.5057292
5.0193136
4.4544328
3.9656006
3.4028493
2.912167
2.3509937
1.8589992
1.2988762
0.80608705
0.24650326
26.392288
25.449061
25.184874
24.338079
24.087701
23.291707
23.016229
22.252704
21.949301
21.213047
20.884251
20.172016
19.82072
19.129662
18.758496
18.08611
17.69742
17.04149
16.637361
15.995917
15.578204
14.949496
14.519849
13.902322
13.462208
12.854476
12.405203
11.80603
11.348768
10.757045
10.292842
9.7075782
9.2373761
8.6576751
8.1823251
7.6073771
7.1276514
6.5567187
6.0733232
5.5057292
5.0193135
4.4544329
3.9656006
3.4028493
2.912167
2.3509937
1.8589992
1.2988762
0.80608705
0.24650326
26.392869
25.449256
25.184902
24.338079
24.0877
23.291704
23.01623
22.252701
21.9493
21.213047
20.884251
20.172016
19.82072
19.129662
18.758496
18.086111
17.69742
17.04149
16.637361
15.995917
15.578204
14.949497
14.519849
13.902323
13.462208
12.854476
12.405203
11.80603
11.348768
10.757045
10.292842
9.7075782
9.2373761
8.6576752
8.182325
7.6073771
7.1276514
6.5567187
6.0733231
5.5057292
5.0193135
4.4544329
3.9656006
3.4028493
2.9121669
2.3509937
1.8589992
1.2988762
0.80608702
0.24650328
26.393669
25.449401
25.184955
24.338083
24.087701
23.291701
23.016231
22.252698
21.949299
21.213047
20.884251
20.172016
19.82072
19.129662
18.758496
18.086111
17.69742
17.04149
16.637361
15.995917
15.578204
14.949497
14.519849
13.902323
13.462208
12.854476
12.405203
11.80603
11.348767
10.757046
10.292842
9.7075783
9.237376
8.6576752
8.182325
7.6073772
7.1276513
6.5567188
6.0733231
5.5057293
5.0193135
4.4544329
3.9656005
3.4028493
2.9121669
2.3509938
1.8589991
1.2988763
0.80608697
0.2465033
26.394529
25.449673
25.185019
24.338092
24.087704
23.2917
23.016231
22.252695
21.949298
21.213047
20.884251
20.172016
19.82072
19.129662
18.758496
18.086111
17.69742
17.04149
16.63736
15.995917
15.578204
14.949497
14.519849
13.902323
13.462207
12.854476
12.405203
11.80603
11.348767
10.757046
10.292842
9.7075783
9.237376
8.6576753
8.1823249
7.6073772
7.1276513
6.5567188
6.073323
5.5057293
5.0193134
4.454433
3.9656005
3.4028494
2.9121669
2.3509938
1.8589991
1.2988763
0.80608691
0.24650333
26.395595
25.449916
25.185117
24.338108
24.08771
23.291698
23.016231
22.252692
21.949297
21.213047
20.88425
20.172017
19.82072
19.129663
18.758496
18.086111
17.69742
17.04149
16.63736
15.995917
15.578203
14.949497
14.519848
13.902323
13.462207
12.854477
12.405203
11.80603
11.348767
10.757046
10.292842
9.7075784
9.2373759
8.6576754
8.1823249
7.6073773
7.1276512
6.5567189
6.073323
5.5057294
5.0193134
4.454433
3.9656004
3.4028494
2.9121668
2.3509939
1.8589991
1.2988763
0.80608683
0.24650337
26.396718
25.450283
25.18523
24.338131
24.087719
23.291697
23.01623
22.252689
21.949296
21.213047
20.88425
20.172017
19.82072
19.129663
18.758495
18.086111
17.697419
17.04149
16.63736
15.995917
15.578203
14.949497
14.519848
13.902323
13.462207
12.854477
12.405203
11.80603
11.348767
10.757046
10.292842
9.7075785
9.2373758
8.6576755
8.1823248
7.6073774
7.1276512
6.5567189
6.0733229
5.5057294
5.0193133
4.4544331
3.9656004
3.4028495
2.9121668
2.3509939
1.858999
1.2988764
0.80608674
0.24650341
26.398119
25.450649
25.185381
24.338162
24.087732
23.291696
23.016228
22.252687
21.949295
21.213047
20.88425
20.172017
19.820719
19.129663
18.758495
18.086112
17.697419
17.041491
16.63736
15.995917
15.578203
14.949497
14.519848
13.902323
13.462207
12.854477
12.405203
11.80603
11.348767
10.757046
10.292842
9.7075786
9.2373757
8.6576755
8.1823247
7.6073774
7.1276511
6.556719
6.0733228
5.5057295
5.0193132
4.4544331
3.9656003
3.4028495
2.9121667
2.350994
1.858999
1.2988764
0.80608664
0.24650345
26.399479
25.451131
25.18555
24.338201
24.08775
23.291694
23.016225
22.252685
21.949294
21.213048
20.884249
20.172018
19.820719
19.129664
18.758495
18.086112
17.697419
17.041491
16.63736
15.995918
15.578203
14.949497
14.519848
13.902323
13.462207
12.854477
12.405202
11.80603
11.348767
10.757046
10.292842
9.7075787
9.2373756
8.6576756
8.1823246
7.6073775
7.127651
6.5567191
6.0733228
5.5057296
5.0193132
4.4544332
3.9656003
3.4028496
2.9121666
2.350994
1.8589989
1.2988765
0.80608652
0.2465035
26.401306
25.451641
25.185759
24.33825
24.087772
23.291689
23.016223
22.252684
21.949293
21.213048
20.884249
20.172018
19.820719
19.129664
18.758495
18.086112
17.697419
17.041491
16.63736
15.995918
15.578203
14.949498
14.519848
13.902323
13.462207
12.854477
12.405202
11.80603
11.348767
10.757046
10.292842
9.7075788
9.2373755
8.6576757
8.1823245
7.6073776
7.1276509
6.5567192
6.0733227
5.5057297
5.0193131
4.4544333
3.9656002
3.4028497
2.9121666
2.3509941
1.8589988
1.2988765
0.80608639
0.24650356
26.402923
25.452264
25.185986
24.338308
24.087796
23.291682
23.016221
22.252684
21.949292
21.213048
20.884249
20.172019
19.820719
19.129664
18.758494
18.086113
17.697418
17.041491
16.637359
15.995918
15.578202
14.949498
14.519848
13.902324
13.462207
12.854477
12.405202
11.806031
11.348767
10.757046
10.292841
9.7075789
9.2373754
8.6576759
8.1823244
7.6073777
7.1276508
6.5567193
6.0733226
5.5057298
5.019313
4.4544334
3.9656001
3.4028498
2.9121665
2.3509942
1.8589987
1.2988766
0.80608625
0.24650362
26.405227
25.452927
25.186249
24.338377
24.087821
23.291675
23.01622
22.252684
21.949292
21.213049
20.884248
20.172019
19.820718
19.129665
18.758494
18.086113
17.697418
17.041492
16.637359
15.995918
15.578202
14.949498
14.519847
13.902324
13.462206
12.854477
12.405202
11.806031
11.348767
10.757046
10.292841
9.7075791
9.2373753
8.657676
8.1823243
7.6073779
7.1276507
6.5567194
6.0733225
5.5057299
5.0193129
4.4544335
3.9656
3.4028499
2.9121664
2.3509943
1.8589987
1.2988767
0.8060861
0.24650368
26.407147
25.453715
25.18653
24.338457
24.087845
23.291669
23.016219
22.252685
21.949292
21.213049
20.884248
20.17202
19.820718
19.129665
18.758494
18.086113
17.697418
17.041492
16.637359
15.995919
15.578202
14.949498
14.519847
13.902324
13.462206
12.854478
12.405202
11.806031
11.348766
10.757047
10.292841
9.7075792
9.2373751
8.6576761
8.1823242
7.607378
7.1276506
6.5567195
6.0733224
5.50573
5.0193128
4.4544336
3.9655999
3.40285
2.9121663
2.3509944
1.8589986
1.2988768
0.80608594
0.24650374
26.410016
25.454538
25.186849
24.338547
24.087867
23.291665
23.016218
22.252685
21.949291
21.21305
20.884248
20.17202
19.820717
19.129666
18.758493
18.086114
17.697417
17.041492
16.637358
15.995919
15.578202
14.949499
14.519847
13.902324
13.462206
12.854478
12.405202
11.806031
11.348766
10.757047
10.292841
9.7075794
9.237375
8.6576763
8.182324
7.6073781
7.1276504
6.5567196
6.0733223
5.5057301
5.0193127
4.4544337
3.9655998
3.4028501
2.9121662
2.3509945
1.8589985
1.2988769
0.80608576
0.24650381
26.412397
25.455527
25.187194
24.33864
24.08789
23.291665
23.016219
22.252687
21.949291
21.213051
20.884247
20.172021
19.820717
19.129666
18.758493
18.086114
17.697417
17.041493
16.637358
15.995919
15.578201
14.949499
14.519847
13.902325
13.462206
12.854478
12.405201
11.806031
11.348766
10.757047
10.292841
9.7075796
9.2373748
8.6576764
8.1823239