/*--------------------------------*- C++ -*----------------------------------*\
| =========                 |                                                 |
| \\      /  F ield         | OpenFOAM: The Open Source CFD Toolbox           |
|  \\    /   O peration     | Version:  2312                                  |
|   \\  /    A nd           | Website:  www.openfoam.com                      |
|    \\/     M anipulation  |                                                 |
\*---------------------------------------------------------------------------*/
FoamFile
{
    version     2.0;
    format      ascii;
    arch        "LSB;label=32;scalar=64";
    class       surfaceScalarField;
    location    "7";
    object      phi;
}
// * * * * * * * * * * * * * * * * * * * * * * * * * * * * * * * * * * * * * //

dimensions      [0 3 -1 0 0 0 0];

oriented        oriented;

internalField   nonuniform List<scalar> 
7870
(
1.0210654e-10
2.3556435e-09
1.0156473e-10
5.4180872e-13
9.4557929e-11
7.0068012e-12
9.3961235e-11
5.9669098e-13
9.5088864e-11
-1.1276281e-12
9.3655633e-11
1.4332308e-12
9.4990818e-11
-1.3351853e-12
9.3710538e-11
1.2802807e-12
9.4919248e-11
-1.2087105e-12
9.3778222e-11
1.1410266e-12
9.4851755e-11
-1.0735323e-12
9.3840261e-11
1.0114939e-12
9.4792051e-11
-9.5178975e-13
9.3895659e-11
8.9639153e-13
9.4739585e-11
-8.4392546e-13
9.3944678e-11
7.9490635e-13
9.4693429e-11
-7.487502e-13
9.3987902e-11
7.0552642e-13
9.4652818e-11
-6.6491567e-13
9.4025942e-11
6.2687575e-13
9.4617116e-11
-5.911741e-13
9.4059364e-11
5.5775212e-13
9.4585776e-11
-5.2641196e-13
9.4088673e-11
4.9710241e-13
9.455832e-11
-4.6964617e-13
9.4114316e-11
4.4400333e-13
9.453433e-11
-4.2001342e-13
9.4136683e-11
3.9764665e-13
9.4513441e-11
-3.7675836e-13
9.4156115e-11
3.5732679e-13
9.4495337e-11
-3.3922256e-13
9.4172907e-11
3.2243002e-13
9.4479742e-11
-3.0683458e-13
9.4187317e-11
2.9242508e-13
9.4466418e-11
-2.791012e-13
9.4199563e-11
2.6685499e-13
9.4455163e-11
-2.5559985e-13
9.4209833e-11
2.4533004e-13
9.4445805e-11
-2.3597214e-13
9.4218283e-11
2.275218e-13
9.4438201e-11
-2.1991846e-13
9.4225043e-11
2.1315817e-13
9.4432236e-11
-2.0719226e-13
9.4230211e-11
2.0202439e-13
9.4427797e-11
-1.975863e-13
9.4233857e-11
1.9394087e-13
9.4425061e-11
-1.9120474e-13
9.4237688e-11
1.8737379e-13
9.4430805e-11
-1.9311787e-13
1.7964457e-13
2.7971489e-10
4.5336786e-09
2.9253491e-10
-1.227822e-11
2.7443929e-10
2.5102422e-11
2.7368124e-10
1.354738e-12
2.7494263e-10
-2.3890112e-12
2.7288344e-10
3.4924135e-12
2.7477279e-10
-3.224532e-12
2.729418e-10
3.1112723e-12
2.7467894e-10
-2.9458465e-12
2.7303669e-10
2.783268e-12
2.7458163e-10
-2.6184694e-12
2.7312494e-10
2.4681833e-12
2.7449521e-10
-2.3220608e-12
2.7320445e-10
2.1871568e-12
2.7441957e-10
-2.0590413e-12
2.7327502e-10
1.9394493e-12
2.7435313e-10
-1.8268596e-12
2.7333731e-10
1.7213449e-12
2.7429471e-10
-1.6223152e-12
2.7339215e-10
1.5294407e-12
2.7424336e-10
-1.4423882e-12
2.7344033e-10
1.3607867e-12
2.7419828e-10
-1.2843681e-12
2.7348258e-10
1.2128085e-12
2.7415879e-10
-1.1458578e-12
2.7351954e-10
1.0832518e-12
2.7412428e-10
-1.0247509e-12
2.7355178e-10
9.7014425e-13
2.7409423e-10
-9.1920458e-13
2.7357979e-10
8.7176439e-13
2.7406818e-10
-8.2761207e-13
2.7360399e-10
7.8661477e-13
2.7404574e-10
-7.4857896e-13
2.7362476e-10
7.1339913e-13
2.7402656e-10
-6.8090162e-13
2.7364242e-10
6.5100237e-13
2.7401037e-10
-6.2354874e-13
2.7365722e-10
5.9847339e-13
2.739969e-10
-5.756454e-13
2.7366941e-10
5.5501033e-13
2.7398595e-10
-5.364599e-13
2.7367916e-10
5.1994802e-13
2.7397736e-10
-5.0538908e-13
2.7368662e-10
4.9276483e-13
2.7397093e-10
-4.8190327e-13
2.7369181e-10
4.730651e-13
2.7396688e-10
-4.6627486e-13
2.73698e-10
4.5625441e-13
2.7398155e-10
-4.7666891e-13
4.3660491e-13
4.4876381e-10
6.5426648e-09
4.7643075e-10
-3.9945169e-11
4.4931664e-10
5.2216536e-11
4.4911611e-10
1.5552678e-12
4.4976593e-10
-3.0388338e-12
4.4786229e-10
5.3960518e-12
4.496004e-10
-4.9626325e-12
4.4789518e-10
4.816493e-12
4.4952779e-10
-4.5784584e-12
4.4798145e-10
4.3296076e-12
4.4943613e-10
-4.0731482e-12
4.4806316e-10
3.8411489e-12
4.4935411e-10
-3.6130111e-12
4.4813774e-10
3.4035334e-12
4.4928269e-10
-3.2039975e-12
4.4820422e-10
3.0179185e-12
4.4922013e-10
-2.8427603e-12
4.4826299e-10
2.678482e-12
4.4916515e-10
-2.5244733e-12
4.4831474e-10
2.3798516e-12
4.4911683e-10
-2.244479e-12
4.483602e-10
2.1174093e-12
4.4907441e-10
-1.9985706e-12
4.4840007e-10
1.8871405e-12
4.4903724e-10
-1.7830204e-12
4.4843495e-10
1.6855352e-12
4.4900475e-10
-1.5945513e-12
4.4846537e-10
1.5095239e-12
4.4897646e-10
-1.4302951e-12
4.484918e-10
1.3564276e-12
4.4895194e-10
-1.2877516e-12
4.4851464e-10
1.2239161e-12
4.4893081e-10
-1.1647504e-12
4.4853424e-10
1.1099724e-12
4.4891275e-10
-1.0594183e-12
4.485509e-10
1.0128609e-12
4.488975e-10
-9.7014965e-13
4.4856487e-10
9.3110102e-13
4.4888481e-10
-8.9558206e-13
4.4857637e-10
8.6344379e-13
4.4887449e-10
-8.3457536e-13
4.4858558e-10
8.0885146e-13
4.4886638e-10
-7.8618714e-13
4.4859263e-10
7.6651475e-13
4.4886028e-10
-7.495505e-13
4.4859747e-10
7.3587682e-13
4.4885634e-10
-7.2514739e-13
4.4860439e-10
7.0820491e-13
4.488789e-10
-7.5117921e-13
6.7684517e-13
6.1548201e-10
8.3849328e-09
6.5443687e-10
-7.8900039e-11
6.1956887e-10
8.7084545e-11
6.1983713e-10
1.2869999e-12
6.1995081e-10
-3.1525115e-12
6.1822592e-10
7.120936e-12
6.1981955e-10
-6.5562586e-12
6.1824635e-10
6.3896923e-12
6.1977231e-10
-6.1044164e-12
6.1832536e-10
5.7765582e-12
6.1968674e-10
-5.4345327e-12
6.1840054e-10
5.1273537e-12
6.1960934e-10
-4.8218106e-12
6.1847003e-10
4.5428448e-12
6.195423e-10
-4.2762663e-12
6.1853226e-10
4.0279534e-12
6.1948371e-10
-3.794208e-12
6.1858734e-10
3.5748492e-12
6.1943227e-10
-3.3693982e-12
6.1863586e-10
3.1762559e-12
6.1938706e-10
-2.9956773e-12
6.186785e-10
2.8259734e-12
6.1934737e-10
-2.6674458e-12
6.1871588e-10
2.5186328e-12
6.1931259e-10
-2.379732e-12
6.1874858e-10
2.2495462e-12
6.1928219e-10
-2.1281625e-12
6.187771e-10
2.0146163e-12
6.1925571e-10
-1.9089092e-12
6.1880187e-10
1.8102674e-12
6.1923276e-10
-1.7186345e-12
6.1882328e-10
1.6333898e-12
6.1921297e-10
-1.5544413e-12
6.1884166e-10
1.4812908e-12
6.1919607e-10
-1.4138286e-12
6.1885727e-10
1.3516536e-12
6.1918178e-10
-1.2946523e-12
6.1887038e-10
1.242501e-12
6.1916989e-10
-1.1950924e-12
6.1888117e-10
1.152164e-12
6.1916021e-10
-1.1136245e-12
6.1888981e-10
1.0792531e-12
6.1915261e-10
-1.0489847e-12
6.1889644e-10
1.0226883e-12
6.1914684e-10
-9.9995434e-13
6.1890091e-10
9.8180829e-13
6.1914295e-10
-9.6718394e-13
6.1890815e-10
9.4299824e-13
6.1917149e-10
-1.0145134e-12
9.0068873e-13
7.7203366e-10
1.0070649e-08
8.2519409e-10
-1.3206048e-10
7.8515895e-10
1.2711969e-10
7.8584343e-10
6.0251333e-13
7.8549444e-10
-2.8035151e-12
7.839747e-10
8.6406743e-12
7.8543013e-10
-8.0116858e-12
7.8399489e-10
7.8249294e-12
7.8541221e-10
-7.5217357e-12
7.8406799e-10
7.1207823e-12
7.8533323e-10
-6.6997789e-12
7.8413668e-10
6.3239072e-12
7.8526067e-10
-5.9458008e-12
7.8420097e-10
5.6025497e-12
7.8519817e-10
-5.2734741e-12
7.8425881e-10
4.9673143e-12
7.851437e-10
-4.6790971e-12
7.8431008e-10
4.4084657e-12
7.8509591e-10
-4.1552234e-12
7.8435527e-10
3.9168985e-12
7.8505392e-10
-3.6943277e-12
7.8439497e-10
3.4849218e-12
7.8501705e-10
-3.2895243e-12
7.8442978e-10
3.1059016e-12
7.8498473e-10
-2.9346867e-12
7.8446023e-10
2.7740537e-12
7.8495649e-10
-2.6244224e-12
7.8448678e-10
2.4843246e-12
7.8493188e-10
-2.3540106e-12
7.8450984e-10
2.2323049e-12
7.8491054e-10
-2.1193348e-12
7.8452977e-10
2.0141595e-12
7.8489215e-10
-1.9168218e-12
7.8454688e-10
1.8265676e-12
7.8487643e-10
-1.7433861e-12
7.8456142e-10
1.6666714e-12
7.8486315e-10
-1.5963824e-12
7.8457362e-10
1.5320311e-12
7.8485209e-10
-1.473564e-12
7.8458366e-10
1.4205858e-12
7.8484309e-10
-1.3730472e-12
7.8459173e-10
1.3306155e-12
7.8483601e-10
-1.2932649e-12
7.8459791e-10
1.2607858e-12
7.8483059e-10
-1.232636e-12
7.8460201e-10
1.2103864e-12
7.8482672e-10
-1.1918949e-12
7.8460931e-10
1.1604091e-12
7.8485968e-10
-1.2648835e-12
1.1070905e-12
9.2739308e-10
1.1601006e-08
9.9015853e-10
-1.9482593e-10
9.460958e-10
1.7118243e-10
9.4710963e-10
-4.113193e-13
9.4639787e-10
-2.0917532e-12
9.4511012e-10
9.9284218e-12
9.4643335e-10
-9.33491e-12
9.4514061e-10
9.1176636e-12
9.4644798e-10
-8.8290997e-12
9.4520905e-10
8.3597128e-12
9.46376e-10
-7.866733e-12
9.4527133e-10
7.4285769e-12
9.4630847e-10
-6.9829349e-12
9.4533032e-10
6.5806919e-12
9.4625064e-10
-6.1937885e-12
9.4538367e-10
5.8342786e-12
9.4620038e-10
-5.4958017e-12
9.4543104e-10
5.1778086e-12
9.4615632e-10
-4.8805076e-12
9.4547279e-10
4.6004299e-12
9.4611761e-10
-4.3391523e-12
9.4550948e-10
4.0930571e-12
9.4608362e-10
-3.8636719e-12
9.4554164e-10
3.6478834e-12
9.4605383e-10
-3.4468769e-12
9.4556978e-10
3.258112e-12
9.4602779e-10
-3.082435e-12
9.4559431e-10
2.9178066e-12
9.460051e-10
-2.7648011e-12
9.4561561e-10
2.6217885e-12
9.4598542e-10
-2.4891401e-12
9.4563402e-10
2.3655534e-12
9.4596846e-10
-2.2512542e-12
9.4564982e-10
2.1452005e-12
9.4595396e-10
-2.0475184e-12
9.4566325e-10
1.9573722e-12
9.459417e-10
-1.8748241e-12
9.4567453e-10
1.7992015e-12
9.4593149e-10
-1.7305296e-12
9.4568381e-10
1.6682642e-12
9.4592318e-10
-1.6124179e-12
9.4569127e-10
1.5625321e-12
9.4591664e-10
-1.5186381e-12
9.4569699e-10
1.4804323e-12
9.459116e-10
-1.4472398e-12
9.4570072e-10
1.4212599e-12
9.4590776e-10
-1.3989321e-12
9.4570787e-10
1.3602973e-12
9.4594377e-10
-1.5007783e-12
1.2951593e-12
1.0737255e-09
1.2985031e-08
1.1477279e-09
-2.688283e-10
1.1023982e-09
2.1651214e-10
1.1036036e-09
-1.6167654e-12
1.1026524e-09
-1.1405936e-12
1.1016327e-09
1.0948152e-11
1.1028305e-09
-1.0532686e-11
1.1016833e-09
1.0264839e-11
1.1028801e-09
-1.0025849e-11
1.1017482e-09
9.4916241e-12
1.1028154e-09
-8.9339808e-12
1.1018042e-09
8.4398336e-12
1.102753e-09
-7.9318307e-12
1.1018578e-09
7.4759391e-12
1.1027e-09
-7.0359651e-12
1.1019066e-09
6.6276764e-12
1.102654e-09
-6.2432155e-12
1.10195e-09
5.8818439e-12
1.1026137e-09
-5.5442697e-12
1.1019882e-09
5.2259338e-12
1.1025783e-09
-4.9292809e-12
1.1020218e-09
4.6495659e-12
1.1025473e-09
-4.3891167e-12
1.1020513e-09
4.1438557e-12
1.10252e-09
-3.9156171e-12
1.1020771e-09
3.7010783e-12
1.1024962e-09
-3.5015904e-12
1.1020996e-09
3.3144899e-12
1.1024755e-09
-3.1407375e-12
1.1021191e-09
2.9782077e-12
1.1024575e-09
-2.8275655e-12
1.1021359e-09
2.687115e-12
1.102442e-09
-2.5573049e-12
1.1021504e-09
2.4367802e-12
1.1024287e-09
-2.3258363e-12
1.1021627e-09
2.2233882e-12
1.1024175e-09
-2.1296267e-12
1.102173e-09
2.04368e-12
1.1024082e-09
-1.965672e-12
1.1021815e-09
1.894898e-12
1.1024006e-09
-1.8314482e-12
1.1021884e-09
1.7747286e-12
1.1023946e-09
-1.7248412e-12
1.1021936e-09
1.6813761e-12
1.1023899e-09
-1.6435292e-12
1.102197e-09
1.6141931e-12
1.1023861e-09
-1.5880758e-12
1.1022038e-09
1.5426015e-12
1.102424e-09
-1.7209465e-12
1.46444e-12
1.2170654e-09
1.4225715e-08
1.3000468e-09
-3.5180969e-10
1.2540951e-09
2.6246386e-10
1.2552821e-09
-2.8038087e-12
1.2542534e-09
-1.1184851e-13
1.2535448e-09
1.1656698e-11
1.2546235e-09
-1.1611314e-11
1.2536232e-09
1.126512e-11
1.254709e-09
-1.1111683e-11
1.253685e-09
1.0515612e-11
1.2546518e-09
-9.9007242e-12
1.2537348e-09
9.3567769e-12
1.2545947e-09
-8.7916871e-12
1.2537831e-09
8.2875084e-12
1.2545464e-09
-7.7992756e-12
1.2538273e-09
7.3468233e-12
1.2545048e-09
-6.92069e-12
1.2538666e-09
6.5199676e-12
1.2544683e-09
-6.1459341e-12
1.2539014e-09
5.792875e-12
1.2544363e-09
-5.464203e-12
1.2539319e-09
5.1539733e-12
1.2544082e-09
-4.8654056e-12
1.2539586e-09
4.5933966e-12
1.2543835e-09
-4.3405051e-12
1.253982e-09
4.1025776e-12
1.254362e-09
-3.8815313e-12
1.2540024e-09
3.6740406e-12
1.2543432e-09
-3.4815021e-12
1.2540201e-09
3.301265e-12
1.2543269e-09
-3.1343279e-12
1.2540354e-09
2.9785786e-12
1.2543128e-09
-2.8347208e-12
1.2540485e-09
2.7010691e-12
1.2543008e-09
-2.5781135e-12
1.2540597e-09
2.464506e-12
1.2542907e-09
-2.3605871e-12
1.2540691e-09
2.2652747e-12
1.2542822e-09
-2.1788082e-12
1.2540768e-09
2.1003139e-12
1.2542753e-09
-2.0299729e-12
1.254083e-09
1.9670482e-12
1.2542699e-09
-1.9117249e-12
1.2540878e-09
1.8634754e-12
1.2542656e-09
-1.8213748e-12
1.2540908e-09
1.7890537e-12
1.2542619e-09
-1.7592179e-12
1.2540972e-09
1.7073321e-12
1.2543006e-09
-1.9243651e-12
1.6148121e-12
1.3565006e-09
1.5326965e-08
1.4449554e-09
-4.4026449e-10
1.4011747e-09
3.0624452e-10
1.4021324e-09
-3.7615184e-12
1.4011908e-09
8.2976272e-13
1.400848e-09
1.1999496e-11
1.4018143e-09
-1.2577604e-11
1.4009607e-09
1.2118699e-11
1.4019355e-09
-1.208644e-11
1.4010195e-09
1.143157e-11
1.4018855e-09
-1.0766655e-11
1.4010632e-09
1.0179076e-11
1.4018337e-09
-9.5622012e-12
1.4011061e-09
9.0151012e-12
1.4017902e-09
-8.4834423e-12
1.4011456e-09
7.9914609e-12
1.4017529e-09
-7.5279758e-12
1.4011809e-09
7.0919524e-12
1.4017202e-09
-6.6852793e-12
1.4012121e-09
6.3010522e-12
1.4016916e-09
-5.9437226e-12
1.4012395e-09
5.6061009e-12
1.4016664e-09
-5.2923653e-12
1.4012635e-09
4.9963475e-12
1.4016444e-09
-4.7213876e-12
1.4012845e-09
4.4624693e-12
1.4016251e-09
-4.2221224e-12
1.4013028e-09
3.9963342e-12
1.4016082e-09
-3.786975e-12
1.4013186e-09
3.5908498e-12
1.4015936e-09
-3.4093214e-12
1.4013324e-09
3.2398466e-12
1.4015811e-09
-3.0834087e-12
1.4013441e-09
2.9379805e-12
1.4015703e-09
-2.8042672e-12
1.4013542e-09
2.6806491e-12
1.4015612e-09
-2.5676322e-12
1.4013626e-09
2.463918e-12
1.4015536e-09
-2.3698742e-12
1.4013695e-09
2.2844527e-12
1.4015475e-09
-2.2079362e-12
1.4013751e-09
2.1394402e-12
1.4015426e-09
-2.0792419e-12
1.4013794e-09
2.0266874e-12
1.4015387e-09
-1.9807425e-12
1.401382e-09
1.9458022e-12
1.4015351e-09
-1.9123489e-12
1.4013879e-09
1.8545648e-12
1.4015737e-09
-2.1102149e-12
1.7463869e-12
1.4873338e-09
1.6297381e-08
1.5848165e-09
-5.3774718e-10
1.5436487e-09
3.4741228e-10
1.5442345e-09
-4.3472842e-12
1.5434872e-09
1.5771134e-12
1.5435433e-09
1.194337e-11
1.5444032e-09
-1.3437497e-11
1.5436955e-09
1.2826366e-11
1.5445596e-09
-1.295057e-11
1.5437513e-09
1.2239886e-11
1.5445167e-09
-1.1531985e-11
1.5437888e-09
1.0906879e-11
1.5444702e-09
-1.0243527e-11
1.5438264e-09
9.6588478e-12
1.5444316e-09
-9.0885916e-12
1.5438613e-09
8.5617108e-12
1.5443985e-09
-8.0651823e-12
1.5438926e-09
7.5979081e-12
1.5443697e-09
-7.1624019e-12
1.5439202e-09
6.7505634e-12
1.5443444e-09
-6.3679258e-12
1.5439445e-09
6.0060358e-12
1.5443222e-09
-5.6700733e-12
1.5439657e-09
5.3527867e-12
1.5443027e-09
-5.0583346e-12
1.5439843e-09
4.7808237e-12
1.5442856e-09
-4.5234271e-12
1.5440005e-09
4.2814344e-12
1.5442708e-09
-4.0572146e-12
1.5440146e-09
3.8470205e-12
1.5442579e-09
-3.6525997e-12
1.5440267e-09
3.4709724e-12
1.5442468e-09
-3.3034183e-12
1.5440372e-09
3.1475644e-12
1.5442372e-09
-3.0043445e-12
1.544046e-09
2.8718645e-12
1.5442292e-09
-2.7508072e-12
1.5440535e-09
2.639655e-12
1.5442225e-09
-2.5389135e-12
1.5440596e-09
2.4473586e-12
1.544217e-09
-2.3653816e-12
1.5440645e-09
2.2919489e-12
1.5442127e-09
-2.2274369e-12
1.5440684e-09
2.1710587e-12
1.5442093e-09
-2.1216851e-12
1.5440706e-09
2.0844839e-12
1.5442058e-09
-2.0475469e-12
1.5440759e-09
1.9844372e-12
1.5442436e-09
-2.2778614e-12
1.8594522e-12
1.6212048e-09
1.7133926e-08
1.7174028e-09
-6.3394519e-10
1.6813183e-09
3.8349686e-10
1.6817633e-09
-4.7923148e-12
1.6812149e-09
2.1254925e-12
1.6816421e-09
1.1516225e-11
1.6823936e-09
-1.4189053e-11
1.681828e-09
1.3391971e-11
1.6825819e-09
-1.3704484e-11
1.6818803e-09
1.2941556e-11
1.6825456e-09
-1.219735e-11
1.6819117e-09
1.1540781e-11
1.6825044e-09
-1.0836227e-11
1.681944e-09
1.0219269e-11
1.6824706e-09
-9.6152149e-12
1.6819743e-09
9.0580392e-12
1.6824419e-09
-8.5327425e-12
1.6820015e-09
8.0382494e-12
1.6824168e-09
-7.5776857e-12
1.6820256e-09
7.141777e-12
1.6823948e-09
-6.7371539e-12
1.6820467e-09
6.3541058e-12
1.6823755e-09
-5.9988337e-12
1.6820653e-09
5.6630061e-12
1.6823586e-09
-5.3516182e-12
1.6820815e-09
5.0579018e-12
1.6823438e-09
-4.7856893e-12
1.6820956e-09
4.529575e-12
1.6823308e-09
-4.2924401e-12
1.6821079e-09
4.0699874e-12
1.6823196e-09
-3.8643611e-12
1.6821185e-09
3.6721465e-12
1.68231e-09
-3.4949298e-12
1.6821275e-09
3.3299941e-12
1.6823017e-09
-3.1785102e-12
1.6821353e-09
3.0383112e-12
1.6822947e-09
-2.9102637e-12
1.6821417e-09
2.7926329e-12
1.6822889e-09
-2.6860678e-12
1.6821471e-09
2.5891695e-12
1.6822841e-09
-2.5024427e-12
1.6821514e-09
2.4247061e-12
1.6822804e-09
-2.3564391e-12
1.6821547e-09
2.2967178e-12
1.6822774e-09
-2.2443343e-12
1.6821566e-09
2.2052211e-12
1.6822741e-09
-2.1649687e-12
1.6821614e-09
2.0971448e-12
1.6823103e-09
-2.4268385e-12
1.9544386e-12
1.7400081e-09
1.7851668e-08
1.8451529e-09
-7.3909003e-10
1.8142678e-09
4.1438202e-10
1.8147269e-09
-5.2514518e-12
1.8144048e-09
2.4476061e-12
1.8151468e-09
1.0774191e-11
1.8157865e-09
-1.4828751e-11
1.8153583e-09
1.3820206e-11
1.8160027e-09
-1.4348843e-11
1.8154062e-09
1.3538064e-11
1.8159726e-09
-1.2763778e-11
1.8154316e-09
1.2081779e-11
1.8159366e-09
-1.1341232e-11
1.8154586e-09
1.0697235e-11
1.8159075e-09
-1.0064133e-11
1.8154844e-09
9.4812221e-12
1.815883e-09
-8.9313821e-12
1.8155076e-09
8.4136661e-12
1.8158617e-09
-7.9317741e-12
1.8155281e-09
7.4753056e-12
1.815843e-09
-7.0519789e-12
1.8155462e-09
6.6508554e-12
1.8158265e-09
-6.279156e-12
1.8155621e-09
5.9274908e-12
1.8158121e-09
-5.6016928e-12
1.8155759e-09
5.2941366e-12
1.8157995e-09
-5.009316e-12
1.815588e-09
4.7411438e-12
1.8157885e-09
-4.4930168e-12
1.8155984e-09
4.260099e-12
1.815779e-09
-4.0449346e-12
1.8156075e-09
3.8436832e-12
1.8157708e-09
-3.6582411e-12
1.8156152e-09
3.4855548e-12
1.8157637e-09
-3.3270355e-12
1.8156218e-09
3.1802495e-12
1.8157578e-09
-3.0462506e-12
1.8156273e-09
2.9230915e-12
1.8157528e-09
-2.8115673e-12
1.8156319e-09
2.7101086e-12
1.8157488e-09
-2.6193355e-12
1.8156356e-09
2.5379223e-12
1.8157456e-09
-2.4664537e-12
1.8156384e-09
2.4038671e-12
1.815743e-09
-2.3488932e-12
1.81564e-09
2.3082064e-12
1.8157399e-09
-2.2648409e-12
1.8156441e-09
2.1929365e-12
1.8157741e-09
-2.5568336e-12
2.0318911e-12
1.8695737e-09
1.8439844e-08
1.9666999e-09
-8.3621628e-10
1.9424865e-09
4.3859542e-10
1.9430817e-09
-5.8466813e-12
1.9430427e-09
2.4866176e-12
1.9440572e-09
9.7596901e-12
1.9445824e-09
-1.5353905e-11
1.9442868e-09
1.411579e-11
1.9448223e-09
-1.4884391e-11
1.944329e-09
1.4031413e-11
1.9447978e-09
-1.3232582e-11
1.9443483e-09
1.2531263e-11
1.9447669e-09
-1.1759785e-11
1.9443701e-09
1.1093942e-11
1.9447425e-09
-1.043646e-11
1.9443914e-09
9.8323162e-12
1.9447221e-09
-9.2620883e-12
1.9444107e-09
8.7250952e-12
1.9447044e-09
-8.2255435e-12
1.9444277e-09
7.7519813e-12
1.944689e-09
-7.3131798e-12
1.9444428e-09
6.8970245e-12
1.9446754e-09
-6.5117339e-12
1.9444559e-09
6.1468998e-12
1.9446634e-09
-5.8091775e-12
1.9444675e-09
5.4901162e-12
1.944653e-09
-5.1948606e-12
1.9444775e-09
4.9166671e-12
1.9446439e-09
-4.6594411e-12
1.9444862e-09
4.4178279e-12
1.944636e-09
-4.1947669e-12
1.9444937e-09
3.9860086e-12
1.9446292e-09
-3.793756e-12
1.9445001e-09
3.6146324e-12
1.9446234e-09
-3.4502874e-12
1.9445056e-09
3.2980314e-12
1.9446184e-09
-3.159104e-12
1.9445102e-09
3.0313542e-12
1.9446143e-09
-2.9157223e-12
1.944514e-09
2.8104759e-12
1.944611e-09
-2.7163495e-12
1.944517e-09
2.6318795e-12
1.9446083e-09
-2.5577552e-12
1.9445194e-09
2.4927762e-12
1.9446062e-09
-2.4356299e-12
1.9445207e-09
2.393696e-12
1.9446033e-09
-2.3474529e-12
1.9445241e-09
2.2721112e-12
1.9446349e-09
-2.6676737e-12
2.0924437e-12
1.9779503e-09
1.8919644e-08
2.08357e-09
-9.41836e-10
2.0660151e-09
4.5615032e-10
2.0668758e-09
-6.7074455e-12
2.0671402e-09
2.2222224e-12
2.0683784e-09
8.5214987e-12
2.0687817e-09
-1.5757187e-11
2.0686134e-09
1.4284115e-11
2.0690411e-09
-1.5312064e-11
2.0686485e-09
1.4423945e-11
2.0690214e-09
-1.360542e-11
2.0686617e-09
1.2890932e-11
2.0689953e-09
-1.2093435e-11
2.0686784e-09
1.1410864e-11
2.0689755e-09
-1.0733574e-11
2.0686952e-09
1.0112627e-11
2.0689592e-09
-9.5260843e-12
2.0687106e-09
8.9736953e-12
2.0689452e-09
-8.4600795e-12
2.0687243e-09
7.9728328e-12
2.0689329e-09
-7.5217215e-12
2.0687363e-09
7.0935278e-12
2.068922e-09
-6.6974264e-12
2.0687469e-09
6.3220475e-12
2.0689126e-09
-5.9748385e-12
2.0687561e-09
5.6465676e-12
2.0689042e-09
-5.3430079e-12
2.0687641e-09
5.0567954e-12
2.068897e-09
-4.792327e-12
2.0687711e-09
4.543758e-12
2.0688907e-09
-4.3144106e-12
2.0687771e-09
4.0996489e-12
2.0688853e-09
-3.9019738e-12
2.0687822e-09
3.7177035e-12
2.0688807e-09
-3.5487197e-12
2.0687866e-09
3.3920911e-12
2.0688767e-09
-3.2492387e-12
2.0687903e-09
3.1178195e-12
2.0688735e-09
-2.9989156e-12
2.0687933e-09
2.8906408e-12
2.0688708e-09
-2.7938415e-12
2.0687957e-09
2.7069241e-12
2.0688687e-09
-2.6306803e-12
2.0687977e-09
2.5637752e-12
2.0688669e-09
-2.5048704e-12
2.0687986e-09
2.4620034e-12
2.0688643e-09
-2.4131493e-12
2.0688014e-09
2.3350125e-12
2.068893e-09
-2.7593127e-12
2.1367978e-12
2.1016881e-09
1.9275706e-08
2.1952481e-09
-1.0353961e-09
2.1849404e-09
4.6645803e-10
2.1861205e-09
-7.8874762e-12
2.1866783e-09
1.6644012e-12
2.1881089e-09
7.090924e-12
2.1883837e-09
-1.6032053e-11
2.1883376e-09
1.4330193e-11
2.1886589e-09
-1.5633288e-11
2.1883646e-09
1.4718217e-11
2.1886435e-09
-1.3884282e-11
2.1883716e-09
1.3162754e-11
2.1886222e-09
-1.2343997e-11
2.1883833e-09
1.1649727e-11
2.1886069e-09
-1.0957092e-11
2.1883958e-09
1.0323685e-11
2.1885945e-09
-9.7248035e-12
2.1884074e-09
9.1608228e-12
2.188584e-09
-8.6366546e-12
2.1884177e-09
8.1390647e-12
2.1885747e-09
-7.6787351e-12
2.1884268e-09
7.2414362e-12
2.1885667e-09
-6.8372405e-12
2.1884348e-09
6.453888e-12
2.1885596e-09
-6.0995738e-12
2.1884418e-09
5.7643421e-12
2.1885533e-09
-5.4545609e-12
2.1884478e-09
5.1622904e-12
2.1885479e-09
-4.8923941e-12
2.1884531e-09
4.6385728e-12
2.1885432e-09
-4.4045128e-12
2.1884576e-09
4.18522e-12
2.1885391e-09
-3.9834791e-12
2.1884615e-09
3.7953258e-12
2.1885356e-09
-3.6228632e-12
2.1884648e-09
3.4629366e-12
2.1885327e-09
-3.3171403e-12
2.1884676e-09
3.1829535e-12
2.1885302e-09
-3.0615947e-12
2.1884699e-09
2.951035e-12
2.1885282e-09
-2.8522282e-12
2.1884717e-09
2.7634605e-12
2.1885266e-09
-2.6856218e-12
2.1884732e-09
2.6172484e-12
2.1885253e-09
-2.5569935e-12
2.1884738e-09
2.5134941e-12
2.188523e-09
-2.4623239e-12
2.188476e-09
2.3820257e-12
2.1885485e-09
-2.8318189e-12
2.1657037e-12
2.204728e-09
1.9528728e-08
2.3025956e-09
-1.1332637e-09
2.2993566e-09
4.6969706e-10
2.3008525e-09
-9.3834365e-12
2.3016523e-09
8.6465581e-13
2.3032514e-09
5.4917804e-12
2.3033891e-09
-1.616971e-11
2.3034597e-09
1.4259579e-11
2.303676e-09
-1.5849596e-11
2.3034771e-09
1.4917118e-11
2.3036642e-09
-1.4071394e-11
2.303478e-09
1.3348963e-11
2.3036475e-09
-1.2513518e-11
2.3034848e-09
1.1812485e-11
2.3036365e-09
-1.1108838e-11
2.303493e-09
1.0467217e-11
2.3036281e-09
-9.8598663e-12
2.3035009e-09
9.2880106e-12
2.3036209e-09
-8.7567076e-12
2.303508e-09
8.252038e-12
2.3036147e-09
-7.7854997e-12
2.3035142e-09
7.34196e-12
2.3036093e-09
-6.9323148e-12
2.3035197e-09
6.543499e-12
2.3036045e-09
-6.184399e-12
2.3035244e-09
5.8444017e-12
2.3036003e-09
-5.5304271e-12
2.3035286e-09
5.2340128e-12
2.3035966e-09
-4.9604558e-12
2.3035322e-09
4.7030448e-12
2.3035934e-09
-4.4658052e-12
2.3035352e-09
4.2434179e-12
2.3035907e-09
-4.0389328e-12
2.3035379e-09
3.8481294e-12
2.3035884e-09
-3.6733181e-12
2.3035401e-09
3.5111418e-12
2.3035864e-09
-3.3633573e-12
2.303542e-09
3.227283e-12
2.3035847e-09
-3.1042649e-12
2.3035436e-09
2.9921458e-12
2.3035833e-09
-2.8919798e-12
2.3035449e-09
2.8019448e-12
2.3035823e-09
-2.7230228e-12
2.3035459e-09
2.6536291e-12
2.3035813e-09
-2.5924249e-12
2.3035462e-09
2.5485802e-12
2.3035793e-09
-2.4954138e-12
2.3035478e-09
2.4135731e-12
2.3036013e-09
-2.8853649e-12
2.1799444e-12
2.3224635e-09
1.9664014e-08
2.405639e-09
-1.2164391e-09
2.4093537e-09
4.6598236e-10
2.4111264e-09
-1.115622e-11
2.4120474e-09
-5.6323727e-14
2.4138056e-09
3.7335664e-12
2.4137975e-09
-1.6161565e-11
2.4139792e-09
1.4077876e-11
2.4140925e-09
-1.5962854e-11
2.4139859e-09
1.5023709e-11
2.4140837e-09
-1.4169258e-11
2.4139807e-09
1.3451996e-11
2.4140714e-09
-1.2604268e-11
2.4139826e-09
1.1901284e-11
2.4140646e-09
-1.1190828e-11
2.4139867e-09
1.0545126e-11
2.4140599e-09
-9.93306e-12
2.413991e-09
9.3569473e-12
2.4140561e-09
-8.8218253e-12
2.4139949e-09
8.3132525e-12
2.4140528e-09
-7.8434257e-12
2.4139983e-09
7.396433e-12
2.4140499e-09
-6.9839049e-12
2.4140014e-09
6.5920686e-12
2.4140474e-09
-6.2304337e-12
2.414004e-09
5.8878067e-12
2.4140452e-09
-5.5716072e-12
2.4140063e-09
5.2729111e-12
2.4140432e-09
-4.9974092e-12
2.4140082e-09
4.7380255e-12
2.4140415e-09
-4.4990944e-12
2.4140099e-09
4.2750098e-12
2.4140401e-09
-4.0690635e-12
2.4140114e-09
3.8768089e-12
2.4140388e-09
-3.7007461e-12
2.4140126e-09
3.5373393e-12
2.4140378e-09
-3.3884943e-12
2.4140137e-09
3.251388e-12
2.4140369e-09
-3.1274836e-12
2.4140145e-09
3.0145103e-12
2.4140361e-09
-2.9136149e-12
2.4140152e-09
2.8228797e-12
2.4140356e-09
-2.7433713e-12
2.4140158e-09
2.6733941e-12
2.414035e-09
-2.6116321e-12
2.4140159e-09
2.5677154e-12
2.4140333e-09
-2.5128945e-12
2.4140168e-09
2.4301109e-12
2.4140517e-09
-2.9202164e-12
2.1803226e-12
2.4233964e-09
1.9698368e-08
2.5046067e-09
-1.2976494e-09
2.5149047e-09
4.5568438e-10
2.5169935e-09
-1.3245058e-11
2.5178694e-09
-9.3222217e-13
2.5197757e-09
1.8273016e-12
2.5196099e-09
-1.5995778e-11
2.5198962e-09
1.3791572e-11
2.5199083e-09
-1.5974968e-11
2.5198907e-09
1.5041276e-11
2.5199021e-09
-1.4180583e-11
2.5198796e-09
1.3474482e-11
2.519894e-09
-1.2618698e-11
2.5198768e-09
1.1918447e-11
2.5198913e-09
-1.1205241e-11
2.5198769e-09
1.0559473e-11
2.5198902e-09
-9.9463182e-12
2.5198777e-09
9.3694599e-12
2.5198896e-09
-8.8337248e-12
2.5198785e-09
8.3243307e-12
2.5198891e-09
-7.8540398e-12
2.5198792e-09
7.406298e-12
2.5198887e-09
-6.9933699e-12
2.5198799e-09
6.600882e-12
2.5198883e-09
-6.2388898e-12
2.5198804e-09
5.895704e-12
2.519888e-09
-5.5791846e-12
2.5198809e-09
5.2800118e-12
2.5198877e-09
-5.0042249e-12
2.5198813e-09
4.7444361e-12
2.5198875e-09
-4.5052535e-12
2.5198817e-09
4.2808258e-12
2.5198873e-09
-4.0746599e-12
2.5198819e-09
3.8821158e-12
2.5198871e-09
-3.7058632e-12
2.5198822e-09
3.5422136e-12
2.5198869e-09
-3.3932061e-12
2.5198824e-09
3.2558967e-12
2.5198868e-09
-3.1318537e-12
2.5198826e-09
3.0187098e-12
2.5198866e-09
-2.9176944e-12
2.5198827e-09
2.8268087e-12
2.5198865e-09
-2.7471953e-12
2.5198829e-09
2.677059e-12
2.5198864e-09
-2.6151203e-12
2.5198827e-09
2.5713907e-12
2.5198851e-09
-2.515275e-12
2.5198831e-09
2.4321253e-12
2.5198996e-09
-2.9367239e-12
2.1676495e-12
2.53474e-09
1.9621378e-08
2.5996788e-09
-1.3625881e-09
2.6160491e-09
4.3931401e-10
2.6184023e-09
-1.5598247e-11
2.6191201e-09
-1.6500493e-12
2.6211586e-09
-2.1115798e-13
2.6208258e-09
-1.5662944e-11
2.6212098e-09
1.3407561e-11
2.6211231e-09
-1.5888304e-11
2.6211913e-09
1.4973075e-11
2.6211191e-09
-1.4108409e-11
2.6211745e-09
1.3419146e-11
2.6211153e-09
-1.255947e-11
2.6211673e-09
1.186643e-11
2.6211164e-09
-1.1154414e-11
2.6211635e-09
1.0512448e-11
2.6211189e-09
-9.9017067e-12
2.6211608e-09
9.3274953e-12
2.6211213e-09
-8.7942389e-12
2.6211587e-09
8.2870027e-12
2.6211236e-09
-7.8189708e-12
2.6211568e-09
7.3730937e-12
2.6211256e-09
-6.9621597e-12
2.6211552e-09
6.5713099e-12
2.6211273e-09
-6.2110605e-12
2.6211537e-09
5.8693173e-12
2.6211288e-09
-5.5543148e-12
2.6211524e-09
5.2564096e-12
2.6211302e-09
-4.9819388e-12
2.6211513e-09
4.7232592e-12
2.6211313e-09
-4.4852142e-12
2.6211504e-09
4.2617514e-12
2.6211323e-09
-4.0565633e-12
2.6211495e-09
3.8648521e-12
2.6211331e-09
-3.6894337e-12
2.6211488e-09
3.5264951e-12
2.6211338e-09
-3.3781912e-12
2.6211482e-09
3.2414792e-12
2.6211344e-09
-3.118019e-12
2.6211477e-09
3.0053645e-12
2.6211349e-09
-2.9048171e-12
2.6211474e-09
2.8143121e-12
2.6211352e-09
-2.7350579e-12
2.6211471e-09
2.6651735e-12
2.6211354e-09
-2.6034275e-12
2.6211467e-09
2.56013e-12
2.6211345e-09
-2.5030935e-12
2.6211465e-09
2.4201295e-12
2.6211451e-09
-2.9353132e-12
2.1427354e-12
2.6319968e-09
1.9447131e-08
2.6910389e-09
-1.4216302e-09
2.7127435e-09
4.1760941e-10
2.7152247e-09
-1.8079383e-11
2.7158038e-09
-2.2292149e-12
2.7179482e-09
-2.3555186e-12
2.7174442e-09
-1.5158944e-11
2.7179191e-09
1.2932668e-11
2.7177365e-09
-1.570572e-11
2.7178873e-09
1.4822319e-11
2.7177349e-09
-1.3956061e-11
2.7178653e-09
1.3288793e-11
2.7177352e-09
-1.2429425e-11
2.7178538e-09
1.1747803e-11
2.7177403e-09
-1.104082e-11
2.7178463e-09
1.0406354e-11
2.717746e-09
-9.8014071e-12
2.7178404e-09
9.2331052e-12
2.7177515e-09
-8.7053013e-12
2.7178354e-09
8.2030924e-12
2.7177564e-09
-7.7399371e-12
2.717831e-09
7.2984429e-12
2.7177607e-09
-6.8918039e-12
2.7178272e-09
6.5047978e-12
2.7177644e-09
-6.1483098e-12
2.7178238e-09
5.8099368e-12
2.7177677e-09
-5.498217e-12
2.7178209e-09
5.2032592e-12
2.7177706e-09
-4.9316437e-12
2.7178183e-09
4.6755315e-12
2.717773e-09
-4.4399592e-12
2.7178161e-09
4.2187208e-12
2.7177752e-09
-4.0156618e-12
2.7178142e-09
3.8258638e-12
2.717777e-09
-3.652264e-12
2.7178125e-09
3.4909547e-12
2.7177785e-09
-3.3441868e-12
2.7178112e-09
3.2088429e-12
2.7177798e-09
-3.0866588e-12
2.71781e-09
2.975129e-12
2.7177808e-09
-2.875615e-12
2.7178091e-09
2.7860021e-12
2.7177816e-09
-2.7075538e-12
2.7178085e-09
2.6383178e-12
2.7177822e-09
-2.5771209e-12
2.7178078e-09
2.5344866e-12
2.7177817e-09
-2.4769137e-12
2.7178071e-09
2.3946605e-12
2.7177883e-09
-2.916478e-12
2.106382e-12
2.736072e-09
1.9168809e-08
2.778863e-09
-1.4644212e-09
2.8050236e-09
3.9144882e-10
2.8074333e-09
-2.0489124e-11
2.8079357e-09
-2.7315898e-12
2.8101389e-09
-4.5586901e-12
2.8094656e-09
-1.4485708e-11
2.8100244e-09
1.237387e-11
2.8097487e-09
-1.5429962e-11
2.8099786e-09
1.4592451e-11
2.8097495e-09
-1.3726959e-11
2.8099519e-09
1.3086382e-11
2.809754e-09
-1.223152e-11
2.8099365e-09
1.1565256e-11
2.8097627e-09
-1.0867044e-11
2.8099255e-09
1.0243601e-11
2.8097718e-09
-9.6476998e-12
2.8099164e-09
9.0884333e-12
2.8097801e-09
-8.5689338e-12
2.8099087e-09
8.0745059e-12
2.8097875e-09
-7.618735e-12
2.8099019e-09
7.184041e-12
2.809794e-09
-6.7839014e-12
2.8098959e-09
6.4028564e-12
2.8097997e-09
-6.0520636e-12
2.8098907e-09
5.718911e-12
2.8098046e-09
-5.4121657e-12
2.8098861e-09
5.1217676e-12
2.809809e-09
-4.8544819e-12
2.8098822e-09
4.6023365e-12
2.8098127e-09
-4.3705162e-12
2.8098787e-09
4.1527106e-12
2.8098159e-09
-3.9528837e-12
2.8098758e-09
3.7660354e-12
2.8098187e-09
-3.5951975e-12
2.8098733e-09
3.4363982e-12
2.809821e-09
-3.2919642e-12