/*--------------------------------*- C++ -*----------------------------------*\
| =========                 |                                                 |
| \\      /  F ield         | OpenFOAM: The Open Source CFD Toolbox           |
|  \\    /   O peration     | Version:  2312                                  |
|   \\  /    A nd           | Website:  www.openfoam.com                      |
|    \\/     M anipulation  |                                                 |
\*---------------------------------------------------------------------------*/
FoamFile
{
    version     2.0;
    format      ascii;
    arch        "LSB;label=32;scalar=64";
    class       volSymmTensorField;
    location    "7";
    object      sigma_0;
}
// * * * * * * * * * * * * * * * * * * * * * * * * * * * * * * * * * * * * * //

dimensions      [0 2 -2 0 0 0 0];

internalField   nonuniform List<symmTensor> 
4000
(
(-1.4169156 -0.61924598 0 -0.23030438 0 0)
(-2.8605082 -0.30960873 0 -0.0008300591 0 0)
(-1.9744122 -0.2569402 0 -0.00027444234 0 0)
(-2.1390848 -0.26715213 0 -3.274496e-05 0 0)
(-2.0106777 -0.25868763 0 4.453839e-05 0 0)
(-2.1015927 -0.26489418 0 -5.3965708e-05 0 0)
(-2.0163505 -0.2590481 0 4.9650058e-05 0 0)
(-2.0938318 -0.26438169 0 -4.7607247e-05 0 0)
(-2.0215377 -0.25940328 0 4.484262e-05 0 0)
(-2.0891438 -0.26406392 0 -4.2339006e-05 0 0)
(-2.0256275 -0.25968638 0 3.9801645e-05 0 0)
(-2.0852053 -0.26379511 0 -3.7519842e-05 0 0)
(-2.0291996 -0.25993386 0 3.5283141e-05 0 0)
(-2.0817637 -0.26355976 0 -3.3246823e-05 0 0)
(-2.0323746 -0.26015363 0 3.1284178e-05 0 0)
(-2.078727 -0.26335193 0 -2.9481276e-05 0 0)
(-2.0351961 -0.26034872 0 2.7756573e-05 0 0)
(-2.0760391 -0.26316791 0 -2.6165668e-05 0 0)
(-2.0377023 -0.26052183 0 2.4649554e-05 0 0)
(-2.0736558 -0.26300471 0 -2.3248471e-05 0 0)
(-2.0399294 -0.2606755 0 2.1916627e-05 0 0)
(-2.0715398 -0.26285982 0 -2.0684847e-05 0 0)
(-2.0419105 -0.26081205 0 1.9516441e-05 0 0)
(-2.0696581 -0.26273101 0 -1.8435619e-05 0 0)
(-2.0436753 -0.26093353 0 1.7412556e-05 0 0)
(-2.067982 -0.26261633 0 -1.6466499e-05 0 0)
(-2.0452503 -0.2610418 0 1.5573008e-05 0 0)
(-2.0664856 -0.26251402 0 -1.4747506e-05 0 0)
(-2.0466591 -0.26113849 0 1.396985e-05 0 0)
(-2.065146 -0.26242253 0 -1.3252489e-05 0 0)
(-2.0479231 -0.26122508 0 1.2578736e-05 0 0)
(-2.0639429 -0.26234048 0 -1.1958718e-05 0 0)
(-2.0490613 -0.26130288 0 1.1378547e-05 0 0)
(-2.0628577 -0.26226662 0 -1.0846537e-05 0 0)
(-2.0500909 -0.26137308 0 1.0351078e-05 0 0)
(-2.0618741 -0.26219982 0 -9.8990732e-06 0 0)
(-2.0510273 -0.26143672 0 9.4807744e-06 0 0)
(-2.0609769 -0.26213907 0 -9.1019934e-06 0 0)
(-2.0518847 -0.26149478 0 8.7545203e-06 0 0)
(-2.0601526 -0.26208347 0 -8.4433311e-06 0 0)
(-2.0526761 -0.26154814 0 8.1615075e-06 0 0)
(-2.0593886 -0.26203215 0 -7.9134009e-06 0 0)
(-2.0534135 -0.2615976 0 7.6931906e-06 0 0)
(-2.0586732 -0.26198435 0 -7.5050674e-06 0 0)
(-2.0541076 -0.2616439 0 7.3432828e-06 0 0)
(-2.0579946 -0.26193927 0 -7.213861e-06 0 0)
(-2.0547681 -0.26168762 0 7.1175788e-06 0 0)
(-2.0573561 -0.26189696 0 -7.001468e-06 0 0)
(-2.0555011 -0.26173493 0 7.1711927e-06 0 0)
(-2.0571569 -0.26188364 0 -6.9784388e-06 0 0)
(-1.261769 -0.5710749 0 -0.21695732 0 0)
(-2.5232725 -0.29427164 0 -0.0029409613 0 0)
(-1.8938249 -0.25290681 0 -0.00084721741 0 0)
(-1.9752619 -0.25673797 0 -3.4256139e-05 0 0)
(-1.8685642 -0.24927934 0 3.0171627e-05 0 0)
(-1.9443348 -0.25488736 0 -5.9990023e-05 0 0)
(-1.8712674 -0.24945361 0 5.2892998e-05 0 0)
(-1.9376598 -0.25442002 0 -5.1921905e-05 0 0)
(-1.8756178 -0.24977595 0 4.9145519e-05 0 0)
(-1.9336831 -0.25412941 0 -4.6522598e-05 0 0)
(-1.8791241 -0.25003991 0 4.3711361e-05 0 0)
(-1.9303017 -0.25387891 0 -4.1260682e-05 0 0)
(-1.8821868 -0.25027091 0 3.8774743e-05 0 0)
(-1.9273389 -0.25365884 0 -3.6554366e-05 0 0)
(-1.8849103 -0.25047616 0 3.4388316e-05 0 0)
(-1.9247247 -0.25346449 0 -3.2410888e-05 0 0)
(-1.8873313 -0.2506584 0 3.0513616e-05 0 0)
(-1.9224109 -0.2532924 0 -2.8765271e-05 0 0)
(-1.8894822 -0.25082012 0 2.7099338e-05 0 0)
(-1.9203594 -0.25313979 0 -2.5558688e-05 0 0)
(-1.891394 -0.25096369 0 2.4095759e-05 0 0)
(-1.9185378 -0.25300429 0 -2.2741102e-05 0 0)
(-1.8930949 -0.25109127 0 2.1457847e-05 0 0)
(-1.916918 -0.25288383 0 -2.0269241e-05 0 0)
(-1.8946105 -0.25120479 0 1.9145682e-05 0 0)
(-1.9154749 -0.25277657 0 -1.8105377e-05 0 0)
(-1.8959634 -0.25130598 0 1.7124183e-05 0 0)
(-1.9141864 -0.25268087 0 -1.6216566e-05 0 0)
(-1.897174 -0.25139636 0 1.5362667e-05 0 0)
(-1.9130326 -0.25259529 0 -1.4574094e-05 0 0)
(-1.8982604 -0.25147731 0 1.383441e-05 0 0)
(-1.9119961 -0.25251851 0 -1.3153022e-05 0 0)
(-1.8992392 -0.25155006 0 1.2516252e-05 0 0)
(-1.911061 -0.25244939 0 -1.1931809e-05 0 0)
(-1.900125 -0.25161571 0 1.138826e-05 0 0)
(-1.9102129 -0.25238686 0 -1.0892008e-05 0 0)
(-1.9009312 -0.25167526 0 1.0433457e-05 0 0)
(-1.909439 -0.25232998 0 -1.0018023e-05 0 0)
(-1.9016699 -0.2517296 0 9.6376329e-06 0 0)
(-1.9087274 -0.2522779 0 -9.2969752e-06 0 0)
(-1.9023525 -0.25177957 0 8.9892848e-06 0 0)
(-1.9080674 -0.25222981 0 -8.7187291e-06 0 0)
(-1.9029891 -0.25182591 0 8.4797305e-06 0 0)
(-1.9074488 -0.252185 0 -8.2767789e-06 0 0)
(-1.9035892 -0.25186931 0 8.1029071e-06 0 0)
(-1.906861 -0.25214272 0 -7.970062e-06 0 0)
(-1.9041602 -0.25191022 0 7.8767169e-06 0 0)
(-1.9062986 -0.25210224 0 -7.7125036e-06 0 0)
(-1.9047654 -0.25195119 0 8.2465068e-06 0 0)
(-1.9060408 -0.25208353 0 -7.5782377e-06 0 0)
(-1.1812667 -0.53969175 0 -0.20295983 0 0)
(-2.2882306 -0.2792253 0 -0.003390885 0 0)
(-1.8117968 -0.24842027 0 -0.0012686801 0 0)
(-1.8732419 -0.25010558 0 -5.868658e-05 0 0)
(-1.7758311 -0.24294135 0 1.4110767e-05 0 0)
(-1.8429125 -0.24820733 0 -5.9514024e-05 0 0)
(-1.7770904 -0.24303031 0 5.0198844e-05 0 0)
(-1.8366712 -0.2477571 0 -5.0096588e-05 0 0)
(-1.7809238 -0.24333354 0 4.7656689e-05 0 0)
(-1.8331053 -0.24748319 0 -4.5155332e-05 0 0)
(-1.784077 -0.24358556 0 4.2406647e-05 0 0)
(-1.8300708 -0.247245 0 -4.0075218e-05 0 0)
(-1.78683 -0.24380591 0 3.7631296e-05 0 0)
(-1.827408 -0.24703528 0 -3.5496569e-05 0 0)
(-1.7892778 -0.24400167 0 3.3380467e-05 0 0)
(-1.8250582 -0.24685004 0 -3.1469178e-05 0 0)
(-1.791454 -0.2441755 0 2.9621462e-05 0 0)
(-1.8229787 -0.24668602 0 -2.7928128e-05 0 0)
(-1.7933877 -0.24432976 0 2.6307692e-05 0 0)
(-1.8211351 -0.24654057 0 -2.4814337e-05 0 0)
(-1.7951067 -0.24446673 0 2.3392069e-05 0 0)
(-1.8194983 -0.24641142 0 -2.2078539e-05 0 0)
(-1.7966363 -0.24458845 0 2.0831255e-05 0 0)
(-1.8180427 -0.24629658 0 -1.9678517e-05 0 0)
(-1.7979994 -0.24469678 0 1.8586619e-05 0 0)
(-1.8167458 -0.24619432 0 -1.7577587e-05 0 0)
(-1.7992163 -0.24479334 0 1.6624155e-05 0 0)
(-1.8155879 -0.24610308 0 -1.5743756e-05 0 0)
(-1.8003053 -0.2448796 0 1.4914108e-05 0 0)
(-1.814551 -0.24602146 0 -1.414916e-05 0 0)
(-1.8012828 -0.24495688 0 1.3430568e-05 0 0)
(-1.8136194 -0.24594822 0 -1.2769611e-05 0 0)
(-1.8021636 -0.24502634 0 1.2151095e-05 0 0)
(-1.8127787 -0.24588227 0 -1.1584246e-05 0 0)
(-1.8029608 -0.24508904 0 1.1056404e-05 0 0)
(-1.8120162 -0.24582259 0 -1.0575233e-05 0 0)
(-1.8036865 -0.24514593 0 1.0130125e-05 0 0)
(-1.8113202 -0.24576828 0 -9.7275711e-06 0 0)
(-1.8043516 -0.24519787 0 9.3586527e-06 0 0)
(-1.81068 -0.24571852 0 -9.0290108e-06 0 0)
(-1.8049663 -0.24524565 0 8.731177e-06 0 0)
(-1.810086 -0.24567255 0 -8.470199e-06 0 0)
(-1.8055398 -0.24528998 0 8.2399828e-06 0 0)
(-1.809529 -0.24562969 0 -8.0460553e-06 0 0)
(-1.8060809 -0.24533154 0 7.8801838e-06 0 0)
(-1.8089993 -0.24558923 0 -7.7597727e-06 0 0)
(-1.8065957 -0.24537071 0 7.6760809e-06 0 0)
(-1.8084896 -0.2455502 0 -7.5080333e-06 0 0)
(-1.8071337 -0.24540856 0 8.2520967e-06 0 0)
(-1.8082162 -0.24553058 0 -7.7661157e-06 0 0)
(-1.1323263 -0.51321584 0 -0.18795834 0 0)
(-2.1018285 -0.2680212 0 -0.0040753109 0 0)
(-1.727653 -0.24381901 0 -0.0017360766 0 0)
(-1.7745166 -0.24350804 0 -8.593862e-05 0 0)
(-1.6850936 -0.23661933 0 -1.0949825e-05 0 0)
(-1.7448465 -0.24153714 0 -5.3970942e-05 0 0)
(-1.6849967 -0.23660913 0 4.2662257e-05 0 0)
(-1.738858 -0.241098 0 -4.3631564e-05 0 0)
(-1.6883353 -0.2368913 0 4.1911813e-05 0 0)
(-1.7356131 -0.24083982 0 -3.9736134e-05 0 0)
(-1.6911847 -0.23713132 0 3.7308161e-05 0 0)
(-1.7328638 -0.24061361 0 -3.5309995e-05 0 0)
(-1.6936765 -0.23734103 0 3.3123818e-05 0 0)
(-1.7304481 -0.24041397 0 -3.1266712e-05 0 0)
(-1.6958917 -0.23752731 0 2.9390306e-05 0 0)
(-1.7283162 -0.24023759 0 -2.7714426e-05 0 0)
(-1.6978614 -0.23769272 0 2.6083348e-05 0 0)
(-1.7264296 -0.24008141 0 -2.4594272e-05 0 0)
(-1.6996118 -0.23783954 0 2.3166152e-05 0 0)
(-1.7247574 -0.23994291 0 -2.1851638e-05 0 0)
(-1.7011679 -0.2379699 0 2.0598844e-05 0 0)
(-1.7232727 -0.23981992 0 -1.9442233e-05 0 0)
(-1.7025528 -0.23808577 0 1.8343765e-05 0 0)
(-1.7219527 -0.23971056 0 -1.7328618e-05 0 0)
(-1.7037869 -0.2381889 0 1.6367054e-05 0 0)
(-1.7207767 -0.23961315 0 -1.5478423e-05 0 0)
(-1.7048887 -0.23828084 0 1.463882e-05 0 0)
(-1.7197267 -0.23952623 0 -1.3863468e-05 0 0)
(-1.7058748 -0.23836299 0 1.3132891e-05 0 0)
(-1.7187867 -0.23944846 0 -1.2459227e-05 0 0)
(-1.70676 -0.2384366 0 1.1826472e-05 0 0)
(-1.7179421 -0.23937867 0 -1.1244424e-05 0 0)
(-1.7075575 -0.23850279 0 1.0699835e-05 0 0)
(-1.7171801 -0.23931579 0 -1.0200723e-05 0 0)
(-1.7082794 -0.23856255 0 9.7360471e-06 0 0)
(-1.716489 -0.23925887 0 -9.3124822e-06 0 0)
(-1.7089365 -0.2386168 0 8.9207727e-06 0 0)
(-1.7158582 -0.23920706 0 -8.5665999e-06 0 0)
(-1.7095388 -0.23866635 0 8.2421735e-06 0 0)
(-1.7152781 -0.23915956 0 -7.9524782e-06 0 0)
(-1.7100954 -0.23871196 0 7.6909989e-06 0 0)
(-1.7147399 -0.23911565 0 -7.4622405e-06 0 0)
(-1.7106147 -0.23875431 0 7.2609755e-06 0 0)
(-1.7142353 -0.23907468 0 -7.0924238e-06 0 0)
(-1.7111047 -0.23879405 0 6.9481205e-06 0 0)
(-1.7137555 -0.23903599 0 -6.8495774e-06 0 0)
(-1.7115708 -0.23883153 0 6.78115e-06 0 0)
(-1.7132913 -0.23899834 0 -6.603231e-06 0 0)
(-1.7120498 -0.23886645 0 7.5691783e-06 0 0)
(-1.713003 -0.23897751 0 -7.1597209e-06 0 0)
(-1.0874093 -0.48722598 0 -0.17330397 0 0)
(-1.9175745 -0.25635461 0 -0.0045147359 0 0)
(-1.636411 -0.23844619 0 -0.0021217247 0 0)
(-1.6778925 -0.23692575 0 -0.00012717205 0 0)
(-1.596051 -0.23027536 0 -3.7676745e-05 0 0)
(-1.6497659 -0.23487987 0 -4.8881405e-05 0 0)
(-1.5950935 -0.23017924 0 3.534024e-05 0 0)
(-1.6439861 -0.23444749 0 -3.7185856e-05 0 0)
(-1.5979805 -0.23044118 0 3.6248504e-05 0 0)
(-1.6410009 -0.23420312 0 -3.4327083e-05 0 0)
(-1.6005605 -0.23067003 0 3.2241137e-05 0 0)
(-1.6384979 -0.23398805 0 -3.0559751e-05 0 0)
(-1.6028263 -0.23086994 0 2.8636385e-05 0 0)
(-1.6362976 -0.23379783 0 -2.7051959e-05 0 0)
(-1.6048404 -0.23104744 0 2.5416625e-05 0 0)
(-1.6343553 -0.23362972 0 -2.3973523e-05 0 0)
(-1.6066313 -0.23120507 0 2.2559485e-05 0 0)
(-1.6326369 -0.23348086 0 -2.1272821e-05 0 0)
(-1.6082231 -0.23134499 0 2.0037056e-05 0 0)
(-1.6311138 -0.23334884 0 -1.8899965e-05 0 0)
(-1.6096383 -0.23146924 0 1.7816515e-05 0 0)
(-1.6297619 -0.23323161 0 -1.6815693e-05 0 0)
(-1.6108978 -0.23157969 0 1.5865822e-05 0 0)
(-1.6285599 -0.23312735 0 -1.4987347e-05 0 0)
(-1.6120203 -0.23167799 0 1.4155848e-05 0 0)
(-1.6274892 -0.23303449 0 -1.3386859e-05 0 0)
(-1.6130224 -0.23176564 0 1.2660789e-05 0 0)
(-1.6265335 -0.23295161 0 -1.1989844e-05 0 0)
(-1.6139193 -0.23184398 0 1.1358024e-05 0 0)
(-1.6256779 -0.23287745 0 -1.0775095e-05 0 0)
(-1.6147243 -0.23191418 0 1.0227852e-05 0 0)
(-1.6249093 -0.23281089 0 -9.7242232e-06 0 0)
(-1.6154496 -0.23197731 0 9.2532262e-06 0 0)
(-1.6242159 -0.2327509 0 -8.8213907e-06 0 0)
(-1.616106 -0.23203433 0 8.4195257e-06 0 0)
(-1.6235873 -0.23269659 0 -8.053106e-06 0 0)
(-1.6167034 -0.2320861 0 7.7143978e-06 0 0)
(-1.6230136 -0.23264713 0 -7.4080999e-06 0 0)
(-1.6172509 -0.23213341 0 7.1276868e-06 0 0)
(-1.6224862 -0.23260177 0 -6.8773198e-06 0 0)
(-1.6177567 -0.23217697 0 6.6515532e-06 0 0)
(-1.621997 -0.23255982 0 -6.4541603e-06 0 0)
(-1.6182285 -0.23221745 0 6.2808755e-06 0 0)
(-1.6215385 -0.23252066 0 -6.1362883e-06 0 0)
(-1.6186736 -0.23225546 0 6.0119686e-06 0 0)
(-1.6211027 -0.23248365 0 -5.9324513e-06 0 0)
(-1.6190968 -0.23229133 0 5.8741717e-06 0 0)
(-1.6206799 -0.23244742 0 -5.6879325e-06 0 0)
(-1.6195253 -0.2323238 0 6.8120255e-06 0 0)
(-1.6203856 -0.23242575 0 -6.483905e-06 0 0)
(-1.0464112 -0.4612568 0 -0.15832882 0 0)
(-1.7457599 -0.24520133 0 -0.0048613225 0 0)
(-1.5436576 -0.23260442 0 -0.0024208593 0 0)
(-1.5828174 -0.23032006 0 -0.00018508881 0 0)
(-1.5087846 -0.22391336 0 -6.6451707e-05 0 0)
(-1.5574486 -0.22822989 0 -4.5660284e-05 0 0)
(-1.5074852 -0.2237441 0 2.9069441e-05 0 0)
(-1.5519367 -0.2278032 0 -3.1712672e-05 0 0)
(-1.5099745 -0.2239863 0 3.1534261e-05 0 0)
(-1.549175 -0.2275712 0 -2.9755614e-05 0 0)
(-1.5123077 -0.22420441 0 2.7984402e-05 0 0)
(-1.5468903 -0.22736664 0 -2.6558324e-05 0 0)
(-1.5143704 -0.22439502 0 2.4859511e-05 0 0)
(-1.544883 -0.22718535 0 -2.3503061e-05 0 0)
(-1.5162045 -0.22456421 0 2.2071687e-05 0 0)
(-1.543111 -0.22702509 0 -2.0823603e-05 0 0)
(-1.5178353 -0.22471444 0 1.9593211e-05 0 0)
(-1.5415433 -0.22688318 0 -1.8476046e-05 0 0)
(-1.5192849 -0.22484781 0 1.7403056e-05 0 0)
(-1.540154 -0.22675732 0 -1.6414546e-05 0 0)
(-1.5205739 -0.22496625 0 1.547436e-05 0 0)
(-1.538921 -0.22664555 0 -1.4604042e-05 0 0)
(-1.521721 -0.22507153 0 1.3779837e-05 0 0)
(-1.5378249 -0.22654615 0 -1.3015891e-05 0 0)
(-1.5227434 -0.22516525 0 1.2294346e-05 0 0)
(-1.5368486 -0.2264576 0 -1.1625645e-05 0 0)
(-1.5236563 -0.22524882 0 1.0995519e-05 0 0)
(-1.5359773 -0.22637857 0 -1.0412112e-05 0 0)
(-1.5244732 -0.22532352 0 9.8637213e-06 0 0)
(-1.5351973 -0.22630784 0 -9.3568754e-06 0 0)
(-1.5252064 -0.22539046 0 8.8818475e-06 0 0)
(-1.5344969 -0.22624435 0 -8.4439718e-06 0 0)
(-1.5258669 -0.22545068 0 8.0350964e-06 0 0)
(-1.5338651 -0.22618713 0 -7.6596581e-06 0 0)
(-1.5264646 -0.22550508 0 7.3107821e-06 0 0)
(-1.5332923 -0.2261353 0 -6.9922368e-06 0 0)
(-1.5270086 -0.22555449 0 6.698199e-06 0 0)
(-1.5327698 -0.2260881 0 -6.4319557e-06 0 0)
(-1.527507 -0.22559965 0 6.1885711e-06 0 0)
(-1.5322896 -0.22604479 0 -5.9710154e-06 0 0)
(-1.5279673 -0.22564125 0 5.775179e-06 0 0)
(-1.5318443 -0.22600472 0 -5.6037847e-06 0 0)
(-1.5283966 -0.22567992 0 5.4537372e-06 0 0)
(-1.531427 -0.22596729 0 -5.3286553e-06 0 0)
(-1.5288015 -0.22571625 0 5.2204871e-06 0 0)
(-1.5310307 -0.22593192 0 -5.1557995e-06 0 0)
(-1.5291863 -0.22575057 0 5.1034561e-06 0 0)
(-1.5306453 -0.2258971 0 -4.9089636e-06 0 0)
(-1.5295703 -0.22578089 0 6.1424734e-06 0 0)
(-1.5303507 -0.22587476 0 -5.8734735e-06 0 0)
(-1.014883 -0.4399762 0 -0.1462314 0 0)
(-1.5856582 -0.23433981 0 -0.0050688024 0 0)
(-1.4508794 -0.22625698 0 -0.0025908202 0 0)
(-1.4891002 -0.22369231 0 -0.00026705564 0 0)
(-1.4232136 -0.21753514 0 -0.00010053445 0 0)
(-1.4677591 -0.22158503 0 -4.497273e-05 0 0)
(-1.4221886 -0.21730574 0 2.3269005e-05 0 0)
(-1.4626487 -0.22116346 0 -2.7054679e-05 0 0)
(-1.424359 -0.21752839 0 2.7515522e-05 0 0)
(-1.4600918 -0.22094252 0 -2.581448e-05 0 0)
(-1.4264659 -0.21773591 0 2.4336454e-05 0 0)
(-1.458003 -0.22074796 0 -2.3118497e-05 0 0)
(-1.4283436 -0.21791754 0 2.1615746e-05 0 0)
(-1.4561708 -0.22057529 0 -2.0454264e-05 0 0)
(-1.4300144 -0.21807869 0 1.9198141e-05 0 0)
(-1.4545534 -0.2204226 0 -1.8117681e-05 0 0)
(-1.4315002 -0.2182218 0 1.704497e-05 0 0)
(-1.4531226 -0.22028738 0 -1.6073454e-05 0 0)
(-1.432821 -0.21834885 0 1.5140281e-05 0 0)
(-1.4518548 -0.22016746 0 -1.4279405e-05 0 0)
(-1.4339955 -0.21846168 0 1.3462301e-05 0 0)
(-1.4507297 -0.22006096 0 -1.2704077e-05 0 0)
(-1.4350409 -0.21856198 0 1.1987841e-05 0 0)
(-1.4497297 -0.21996624 0 -1.1322265e-05 0 0)
(-1.4359726 -0.21865128 0 1.069519e-05 0 0)
(-1.4488392 -0.21988187 0 -1.0112627e-05 0 0)
(-1.4368045 -0.21873092 0 9.5649328e-06 0 0)
(-1.4480444 -0.21980654 0 -9.0567116e-06 0 0)
(-1.4375489 -0.2188021 0 8.5799974e-06 0 0)
(-1.4473331 -0.21973913 0 -8.138495e-06 0 0)
(-1.4382171 -0.21886591 0 7.725504e-06 0 0)
(-1.4466943 -0.21967861 0 -7.3440945e-06 0 0)
(-1.4388189 -0.21892331 0 6.9885772e-06 0 0)
(-1.4461183 -0.21962405 0 -6.6615605e-06 0 0)
(-1.4393636 -0.21897518 0 6.3581857e-06 0 0)
(-1.4455962 -0.21957463 0 -6.0807282e-06 0 0)
(-1.4398591 -0.21902229 0 5.8250279e-06 0 0)
(-1.44512 -0.2195296 0 -5.5931343e-06 0 0)
(-1.4403131 -0.21906537 0 5.3814935e-06 0 0)
(-1.4446825 -0.21948828 0 -5.1920295e-06 0 0)
(-1.4407324 -0.21910507 0 5.0217893e-06 0 0)
(-1.4442769 -0.21945003 0 -4.8725692e-06 0 0)
(-1.4411232 -0.21914199 0 4.7422802e-06 0 0)
(-1.4438969 -0.2194143 0 -4.6336402e-06 0 0)
(-1.4414918 -0.21917669 0 4.5390101e-06 0 0)
(-1.4435363 -0.21938051 0 -4.4864295e-06 0 0)
(-1.4418419 -0.21920951 0 4.4376997e-06 0 0)
(-1.4431848 -0.21934711 0 -4.2370126e-06 0 0)
(-1.4421864 -0.21923792 0 5.5389153e-06 0 0)
(-1.4428943 -0.21932428 0 -5.3196774e-06 0 0)
(-0.98400439 -0.41395144 0 -0.13040772 0 0)
(-1.4373408 -0.22399224 0 -0.0051993039 0 0)
(-1.3606382 -0.21959594 0 -0.002648229 0 0)
(-1.3969514 -0.21703348 0 -0.00036615194 0 0)
(-1.3393308 -0.21111984 0 -0.00013485376 0 0)
(-1.3805707 -0.21493395 0 -4.501034e-05 0 0)
(-1.3391728 -0.21086081 0 1.7964928e-05 0 0)
(-1.3760693 -0.21452666 0 -2.2919784e-05 0 0)
(-1.3411458 -0.21106753 0 2.3938425e-05 0 0)
(-1.3737259 -0.21431667 0 -2.2283458e-05 0 0)
(-1.3430544 -0.21126485 0 2.1080297e-05 0 0)
(-1.3718168 -0.2141317 0 -2.0040388e-05 0 0)
(-1.344764 -0.21143778 0 1.8715533e-05 0 0)
(-1.3701442 -0.21396736 0 -1.7727695e-05 0 0)
(-1.3462863 -0.21159118 0 1.6628189e-05 0 0)
(-1.3686678 -0.21382199 0 -1.5697937e-05 0 0)
(-1.3476401 -0.21172739 0 1.4765914e-05 0 0)
(-1.3673619 -0.21369325 0 -1.3924935e-05 0 0)
(-1.3488437 -0.21184832 0 1.311655e-05 0 0)
(-1.3662049 -0.21357908 0 -1.2370028e-05 0 0)
(-1.349914 -0.21195573 0 1.166281e-05 0 0)
(-1.3651782 -0.21347767 0 -1.1004993e-05 0 0)
(-1.3508668 -0.21205122 0 1.0385171e-05 0 0)
(-1.3642657 -0.21338748 0 -9.8076944e-06 0 0)
(-1.3517159 -0.21213624 0 9.2649927e-06 0 0)
(-1.3634533 -0.21330714 0 -8.7595614e-06 0 0)
(-1.3524741 -0.21221206 0 8.2854973e-06 0 0)
(-1.3627282 -0.21323541 0 -7.8445908e-06 0 0)
(-1.3531526 -0.21227985 0 7.4319056e-06 0 0)
(-1.3620794 -0.2131712 0 -7.048898e-06 0 0)
(-1.3537616 -0.21234062 0 6.6913261e-06 0 0)
(-1.3614969 -0.21311355 0 -6.3604563e-06 0 0)
(-1.3543101 -0.2123953 0 6.052603e-06 0 0)
(-1.3609717 -0.21306157 0 -5.7689163e-06 0 0)
(-1.3548065 -0.21244471 0 5.5061803e-06 0 0)
(-1.3604957 -0.21301449 0 -5.265478e-06 0 0)
(-1.355258 -0.21248961 0 5.0440046e-06 0 0)
(-1.3600616 -0.21297157 0 -4.8428205e-06 0 0)
(-1.3556716 -0.21253067 0 4.6594962e-06 0 0)
(-1.3596628 -0.21293217 0 -4.4951172e-06 0 0)
(-1.3560536 -0.21256852 0 4.347667e-06 0 0)
(-1.3592933 -0.2128957 0 -4.2181954e-06 0 0)
(-1.3564096 -0.21260373 0 4.1054225e-06 0 0)
(-1.3589472 -0.2128616 0 -4.0112992e-06 0 0)
(-1.3567451 -0.21263685 0 3.9285918e-06 0 0)
(-1.3586189 -0.21282936 0 -3.8863431e-06 0 0)
(-1.3570638 -0.2126682 0 3.84012e-06 0 0)
(-1.3582985 -0.21279737 0 -3.6355431e-06 0 0)
(-1.3573732 -0.21269491 0 4.9723757e-06 0 0)
(-1.3580152 -0.21277422 0 -4.8006799e-06 0 0)
(-0.96511284 -0.39724946 0 -0.12076619 0 0)
(-1.3017581 -0.2142045 0 -0.0053500957 0 0)
(-1.2725372 -0.21234618 0 -0.0025363109 0 0)
(-1.3065523 -0.21040523 0 -0.00049481942 0 0)
(-1.257559 -0.20471287 0 -0.00017126641 0 0)
(-1.2959332 -0.20828273 0 -4.5612421e-05 0 0)
(-1.2584759 -0.20440966 0 1.3248675e-05 0 0)
(-1.2921714 -0.20789177 0 -1.9101173e-05 0 0)
(-1.2603465 -0.20460317 0 2.0741881e-05 0 0)
(-1.290056 -0.20769332 0 -1.9060058e-05 0 0)
(-1.2620871 -0.20479112 0 1.8135564e-05 0 0)
(-1.2883161 -0.2075178 0 -1.7242945e-05 0 0)
(-1.2636452 -0.20495573 0 1.6084882e-05 0 0)
(-1.2867901 -0.20736153 0 -1.5252685e-05 0 0)
(-1.2650323 -0.20510166 0 1.4295795e-05 0 0)
(-1.2854429 -0.20722325 0 -1.3501895e-05 0 0)
(-1.2662658 -0.20523122 0 1.269736e-05 0 0)
(-1.2842512 -0.20710078 0 -1.1975071e-05 0 0)
(-1.2673624 -0.20534624 0 1.1279724e-05 0 0)
(-1.2831954 -0.20699215 0 -1.0637177e-05 0 0)
(-1.2683377 -0.20544841 0 1.0029514e-05 0 0)
(-1.2822587 -0.20689567 0 -9.4629765e-06 0 0)
(-1.2692059 -0.20553925 0 8.9305203e-06 0 0)
(-1.2814262 -0.20680986 0 -8.43312e-06 0 0)
(-1.2699798 -0.20562013 0 7.9668846e-06 0 0)
(-1.2806851 -0.20673341 0 -7.5315509e-06 0 0)
(-1.2706707 -0.20569227 0 7.1242248e-06 0 0)
(-1.2800238 -0.20666515 0 -6.7444849e-06 0 0)
(-1.2712891 -0.20575677 0 6.3898395e-06 0 0)
(-1.2794321 -0.20660405 0 -6.0599758e-06 0 0)
(-1.271844 -0.2058146 0 5.7526407e-06 0 0)
(-1.2789009 -0.20654918 0 -5.4676795e-06 0 0)
(-1.2723439 -0.20586664 0 5.2030311e-06 0 0)
(-1.278422 -0.2064997 0 -4.9586953e-06 0 0)
(-1.2727962 -0.20591368 0 4.7327901e-06 0 0)
(-1.2779881 -0.20645487 0 -4.5254566e-06 0 0)
(-1.2732076 -0.20595643 0 4.3349918e-06 0 0)
(-1.2775924 -0.206414 0 -4.161672e-06 0 0)
(-1.2735844 -0.20599554 0 4.0039818e-06 0 0)
(-1.277229 -0.20637647 0 -3.8623388e-06 0 0)
(-1.2739323 -0.2060316 0 3.7354848e-06 0 0)
(-1.2768923 -0.20634171 0 -3.6238706e-06 0 0)
(-1.2742565 -0.20606516 0 3.5268656e-06 0 0)
(-1.2765771 -0.20630921 0 -3.4457667e-06 0 0)
(-1.2745621 -0.20609674 0 3.373755e-06 0 0)
(-1.2762783 -0.20627847 0 -3.3404103e-06 0 0)
(-1.2748522 -0.20612667 0 3.296104e-06 0 0)
(-1.2759864 -0.20624788 0 -3.0897756e-06 0 0)
(-1.2751301 -0.20615183 0 4.4330565e-06 0 0)
(-1.2757124 -0.20622455 0 -4.3107755e-06 0 0)
(-0.94267679 -0.37274569 0 -0.10598293 0 0)
(-1.1796685 -0.20471235 0 -0.005297295 0 0)
(-1.1849281 -0.20516088 0 -0.0025040694 0 0)
(-1.2214958 -0.20362762 0 -0.00052355 0 0)
(-1.1787095 -0.19825024 0 -0.00018386773 0 0)
(-1.214246 -0.20163385 0 -4.2846312e-05 0 0)
(-1.1802741 -0.19795666 0 9.407524e-06 0 0)
(-1.2110051 -0.20126166 0 -1.5633469e-05 0 0)
(-1.1820032 -0.19813666 0 1.782046e-05 0 0)
(-1.2090782 -0.20107301 0 -1.6135545e-05 0 0)
(-1.1835825 -0.19831498 0 1.5455691e-05 0 0)
(-1.2074897 -0.20090631 0 -1.4696856e-05 0 0)
(-1.1850005 -0.19847147 0 1.3691271e-05 0 0)
(-1.2060975 -0.20075781 0 -1.3000225e-05 0 0)
(-1.1862636 -0.19861017 0 1.2173178e-05 0 0)
(-1.2048685 -0.20062636 0 -1.1503488e-05 0 0)
(-1.1873869 -0.1987333 0 1.0814769e-05 0 0)
(-1.2037815 -0.20050993 0 -1.020069e-05 0 0)
(-1.1883857 -0.19884262 0 9.6080227e-06 0 0)
(-1.2028185 -0.20040666 0 -9.06026e-06 0 0)
(-1.1892741 -0.19893973 0 8.5430479e-06 0 0)
(-1.2019642 -0.20031494 0 -8.0597053e-06 0 0)
(-1.1900649 -0.19902608 0 7.6066399e-06 0 0)
(-1.2012051 -0.20023336 0 -7.1822124e-06 0 0)
(-1.1907698 -0.19910297 0 6.7854735e-06 0 0)
(-1.2005294 -0.20016067 0 -6.4140096e-06 0 0)
(-1.1913993 -0.19917155 0 6.0673451e-06 0 0)
(-1.1999265 -0.20009577 0 -5.7433293e-06 0 0)
(-1.1919625 -0.19923287 0 5.4414431e-06 0 0)
(-1.1993871 -0.20003766 0 -5.1599875e-06 0 0)
(-1.1924681 -0.19928786 0 4.8983196e-06 0 0)
(-1.1989029 -0.19998548 0 -4.6551688e-06 0 0)
(-1.1929234 -0.19933735 0 4.4297939e-06 0 0)
(-1.1984664 -0.19993842 0 -4.2212884e-06 0 0)
(-1.1933353 -0.19938209 0 4.028858e-06 0 0)
(-1.198071 -0.19989577 0 -3.8518986e-06 0 0)
(-1.1937101 -0.19942277 0 3.6896077e-06 0 0)
(-1.1977105 -0.19985688 0 -3.5416383e-06 0 0)
(-1.1940533 -0.19945998 0 3.4072229e-06 0 0)
(-1.1973795 -0.19982116 0 -3.2862443e-06 0 0)
(-1.19437 -0.19949431 0 3.1780627e-06 0 0)
(-1.1970729 -0.19978806 0 -3.0826452e-06 0 0)
(-1.1946652 -0.19952626 0 2.9998852e-06 0 0)
(-1.1967859 -0.1997571 0 -2.930517e-06 0 0)
(-1.1949433 -0.19955636 0 2.8681587e-06 0 0)
(-1.196514 -0.19972782 0 -2.8424693e-06 0 0)
(-1.1952073 -0.1995849 0 2.7998036e-06 0 0)
(-1.1962481 -0.19969861 0 -2.5936437e-06 0 0)
(-1.1954569 -0.19960867 0 3.918994e-06 0 0)
(-1.1959851 -0.19967524 0 -3.8497016e-06 0 0)
(-0.9287117 -0.35844054 0 -0.098031373 0 0)
(-1.0745926 -0.19587162 0 -0.0052679483 0 0)
(-1.098415 -0.19801396 0 -0.0025184262 0 0)
(-1.1420331 -0.19664901 0 -0.0004227299 0 0)
(-1.1026185 -0.1916665 0 -0.00015658986 0 0)
(-1.1353838 -0.1949564 0 -2.990594e-05 0 0)
(-1.1045093 -0.19148819 0 8.7475335e-06 0 0)
(-1.1325183 -0.19463095 0 -1.1725525e-05 0 0)
(-1.1061112 -0.19166607 0 1.5371817e-05 0 0)
(-1.1307711 -0.19445488 0 -1.3409438e-05 0 0)
(-1.1075486 -0.19183623 0 1.3032355e-05 0 0)
(-1.1293247 -0.19429706 0 -1.2368757e-05 0 0)
(-1.1088395 -0.19198502 0 1.1511198e-05 0 0)
(-1.1280561 -0.1941561 0 -1.0945629e-05 0 0)
(-1.1099893 -0.19211676 0 1.0238017e-05 0 0)
(-1.126936 -0.19403126 0 -9.6813263e-06 0 0)
(-1.1110117 -0.19223369 0 9.098159e-06 0 0)
(-1.1259453 -0.19392067 0 -8.5828808e-06 0 0)
(-1.1119207 -0.19233752 0 8.0836713e-06 0 0)
(-1.1250676 -0.19382257 0 -7.6224887e-06 0 0)
(-1.1127293 -0.19242974 0 7.1876021e-06 0 0)
(-1.1242891 -0.19373544 0 -6.7802476e-06 0 0)
(-1.1134492 -0.19251175 0 6.3994518e-06 0 0)
(-1.1235974 -0.19365794 0 -6.0416655e-06 0 0)
(-1.1140909 -0.19258478 0 5.7081991e-06 0 0)
(-1.1229817 -0.19358889 0 -5.3950536e-06 0 0)
(-1.1146638 -0.19264993 0 5.103625e-06 0 0)
(-1.1224324 -0.19352723 0 -4.8304818e-06 0 0)
(-1.1151766 -0.19270818 0 4.5766404e-06 0 0)
(-1.1219411 -0.19347202 0 -4.3393712e-06 0 0)
(-1.1156368 -0.19276043 0 4.119292e-06 0 0)
(-1.1215 -0.19342243 0 -3.9142987e-06 0 0)
(-1.1160513 -0.19280745 0 3.7246896e-06 0 0)
(-1.1211025 -0.19337771 0 -3.5488773e-06 0 0)
(-1.1164262 -0.19284998 0 3.3869287e-06 0 0)
(-1.1207425 -0.19333716 0 -3.2376763e-06 0 0)
(-1.1167673 -0.19288864 0 3.1010338e-06 0 0)
(-1.1204143 -0.19330019 0 -2.9761785e-06 0 0)
(-1.1170796 -0.19292402 0 2.8629397e-06 0 0)
(-1.1201129 -0.19326622 0 -2.7607874e-06 0 0)
(-1.1173679 -0.19295667 0 2.6695735e-06 0 0)
(-1.1198338 -0.19323474 0 -2.588888e-06 0 0)
(-1.1176364 -0.19298707 0 2.5190341e-06 0 0)
(-1.1195727 -0.19320528 0 -2.4602744e-06 0 0)
(-1.1178893 -0.19301571 0 2.4066786e-06 0 0)
(-1.1193255 -0.1931774 0 -2.3875621e-06 0 0)
(-1.1181295 -0.19304291 0 2.3465057e-06 0 0)
(-1.1190836 -0.19314956 0 -2.1422907e-06 0 0)
(-1.1183536 -0.19306541 0 3.4289596e-06 0 0)
(-1.1188327 -0.19312626 0 -3.4171304e-06 0 0)
(-0.90825409 -0.33526672 0 -0.084842846 0 0)
(-0.98918184 -0.18698835 0 -0.0044559084 0 0)
(-1.0132231 -0.19024396 0 -0.0026781736 0 0)
(-1.062192 -0.18991118 0 -0.00049120978 0 0)
(-1.0285687 -0.18520244 0 -0.0001643273 0 0)
(-1.0590046 -0.18831693 0 -2.7061321e-05 0 0)
(-1.0311517 -0.18502855 0 5.9220611e-06 0 0)
(-1.056694 -0.18800693 0 -8.7378459e-06 0 0)
(-1.032687 -0.1851941 0 1.2983938e-05 0 0)
(-1.0551286 -0.18783979 0 -1.0958858e-05 0 0)
(-1.0339981 -0.1853553 0 1.080688e-05 0 0)
(-1.0538133 -0.18769011 0 -1.024265e-05 0 0)
(-1.0351719 -0.1854965 0 9.5173099e-06 0 0)
(-1.0526583 -0.18755637 0 -9.0672726e-06 0 0)
(-1.0362173 -0.18562151 0 8.4684816e-06 0 0)
(-1.0516383 -0.18743789 0 -8.0154072e-06 0 0)
(-1.0371469 -0.18573246 0 7.5284655e-06 0 0)
(-1.0507362 -0.18733293 0 -7.1037755e-06 0 0)
(-1.0379735 -0.18583097 0 6.6897889e-06 0 0)
(-1.0499371 -0.18723983 0 -6.3079675e-06 0 0)
(-1.0387088 -0.18591848 0 5.948178e-06 0 0)
(-1.0492284 -0.18715713 0 -5.6104559e-06 0 0)
(-1.0393634 -0.1859963 0 5.2956026e-06 0 0)
(-1.0485987 -0.18708358 0 -4.9988688e-06 0 0)
(-1.039947 -0.18606561 0 4.723148e-06 0 0)
(-1.0480383 -0.18701803 0 -4.4634188e-06 0 0)
(-1.040468 -0.18612743 0 4.2224097e-06 0 0)
(-1.0475383 -0.1869595 0 -3.9958538e-06 0 0)
(-1.0409344 -0.18618273 0 3.7858735e-06 0 0)
(-1.0470912 -0.18690709 0 -3.5890611e-06 0 0)
(-1.0413529 -0.18623232 0 3.4069521e-06 0 0)
(-1.0466899 -0.18686001 0 -3.2368893e-06 0 0)
(-1.0417298 -0.18627697 0 3.0799348e-06 0 0)
(-1.0463282 -0.18681754 0 -2.934045e-06 0 0)
(-1.0420708 -0.18631734 0 2.7999252e-06 0 0)
(-1.0460006 -0.18677904 0 -2.6760251e-06 0 0)
(-1.0423809 -0.18635406 0 2.5627943e-06 0 0)
(-1.0457021 -0.18674392 0 -2.4590809e-06 0 0)
(-1.0426649 -0.18638767 0 2.3651633e-06 0 0)
(-1.0454281 -0.18671164 0 -2.2802197e-06 0 0)
(-1.0429269 -0.18641869 0 2.2044715e-06 0 0)
(-1.0451743 -0.18668173 0 -2.1372359e-06 0 0)
(-1.043171 -0.18644759 0 2.0791167e-06 0 0)
(-1.0449369 -0.18665371 0 -2.0299992e-06 0 0)
(-1.0434008 -0.18647483 0 1.9844057e-06 0 0)
(-1.0447123 -0.18662721 0 -1.970929e-06 0 0)
(-1.0436191 -0.18650072 0 1.9316285e-06 0 0)
(-1.0444925 -0.1866007 0 -1.7310106e-06 0 0)
(-1.0438201 -0.18652205 0 2.9614902e-06 0 0)
(-1.0442545 -0.18657757 0 -3.0121241e-06 0 0)
(-0.89500654 -0.32155736 0 -0.077547927 0 0)
(-0.90973501 -0.17913028 0 -0.0042675742 0 0)
(-0.93782143 -0.18278371 0 -0.0024681242 0 0)
(-0.98653606 -0.18291634 0 -0.00042372905 0 0)
(-0.95729002 -0.17863767 0 -0.00013828099 0 0)
(-0.98528523 -0.18164281 0 -1.5663213e-05 0 0)
(-0.96020075 -0.17855102 0 5.8381732e-06 0 0)
(-0.98349352 -0.18138015 0 -5.2861081e-06 0 0)
(-0.9617178 -0.17871728 0 1.100797e-05 0 0)
(-0.98212807 -0.1812262 0 -8.6500458e-06 0 0)
(-0.96293198 -0.17887168 0 8.7872345e-06 0 0)
(-0.98094392 -0.18108512 0 -8.2867894e-06 0 0)
(-0.96400332 -0.17900588 0 7.6917279e-06 0 0)
(-0.97989616 -0.18095848 0 -7.3444917e-06 0 0)
(-0.96495391 -0.17912446 0 6.8464383e-06 0 0)
(-0.97896918 -0.18084618 0 -6.488156e-06 0 0)
(-0.96579839 -0.17922965 0 6.0893393e-06 0 0)
(-0.97814891 -0.18074667 0 -5.7478772e-06 0 0)
(-0.96654912 -0.17932303 0 5.4118163e-06 0 0)
(-0.97742234 -0.18065839 0 -5.1029459e-06 0 0)
(-0.96721692 -0.179406 0 4.8118226e-06 0 0)
(-0.9767779 -0.18057997 0 -4.5380998e-06 0 0)
(-0.96781148 -0.17947978 0 4.2835553e-06 0 0)
(-0.97620543 -0.18051022 0 -4.0429219e-06 0 0)
(-0.96834151 -0.17954548 0 3.8200251e-06 0 0)
(-0.97569595 -0.18044806 0 -3.6093681e-06 0 0)
(-0.96881481 -0.17960411 0 3.4144903e-06 0 0)
(-0.97524153 -0.18039256 0 -3.2307235e-06 0 0)
(-0.96923838 -0.17965654 0 3.06088e-06 0 0)
(-0.97483511 -0.18034285 0 -2.9012184e-06 0 0)
(-0.96961851 -0.17970357 0 2.7538594e-06 0 0)
(-0.97447039 -0.1802982 0 -2.6158663e-06 0 0)
(-0.96996086 -0.17974592 0 2.4887987e-06 0 0)
(-0.97414175 -0.18025791 0 -2.370375e-06 0 0)
(-0.97027055 -0.17978422 0 2.2617249e-06 0 0)
(-0.97384411 -0.18022138 0 -2.1610907e-06 0 0)
(-0.97055222 -0.17981905 0 2.0692837e-06 0 0)
(-0.97357291 -0.18018805 0 -1.9849662e-06 0 0)
(-0.97081008 -0.17985095 0 1.908723e-06 0 0)
(-0.97332398 -0.18015741 0 -1.8395588e-06 0 0)
(-0.971048 -0.1798804 0 1.7779463e-06 0 0)
(-0.97309351 -0.18012901 0 -1.7230326e-06 0 0)
(-0.97126957 -0.17990784 0 1.6756171e-06 0 0)