/*--------------------------------*- C++ -*----------------------------------*\
| =========                 |                                                 |
| \\      /  F ield         | OpenFOAM: The Open Source CFD Toolbox           |
|  \\    /   O peration     | Version:  2312                                  |
|   \\  /    A nd           | Website:  www.openfoam.com                      |
|    \\/     M anipulation  |                                                 |
\*---------------------------------------------------------------------------*/
FoamFile
{
    version     2.0;
    format      ascii;
    arch        "LSB;label=32;scalar=64";
    class       volSymmTensorField;
    location    "7";
    object      sigma;
}
// * * * * * * * * * * * * * * * * * * * * * * * * * * * * * * * * * * * * * //

dimensions      [0 2 -2 0 0 0 0];

internalField   nonuniform List<symmTensor> 
4000
(
(-1.4196749 -0.62005286 0 -0.23046018 0 0)
(-2.8606088 -0.30964078 0 -0.00084084638 0 0)
(-1.9744231 -0.25694167 0 -0.00027481374 0 0)
(-2.1390829 -0.26715199 0 -3.2702046e-05 0 0)
(-2.0106854 -0.25868827 0 4.4532614e-05 0 0)
(-2.101588 -0.26489381 0 -5.396037e-05 0 0)
(-2.0163546 -0.25904846 0 4.9644863e-05 0 0)
(-2.0938287 -0.26438142 0 -4.7603618e-05 0 0)
(-2.0215399 -0.25940349 0 4.4839968e-05 0 0)
(-2.0891421 -0.26406377 0 -4.2337194e-05 0 0)
(-2.0256286 -0.25968649 0 3.9800444e-05 0 0)
(-2.0852045 -0.26379503 0 -3.7519074e-05 0 0)
(-2.0292 -0.25993391 0 3.5282674e-05 0 0)
(-2.0817634 -0.26355972 0 -3.3246544e-05 0 0)
(-2.0323748 -0.26015365 0 3.1284016e-05 0 0)
(-2.0787269 -0.26335192 0 -2.9481176e-05 0 0)
(-2.0351962 -0.26034873 0 2.77565e-05 0 0)
(-2.076039 -0.2631679 0 -2.6165601e-05 0 0)
(-2.0377023 -0.26052184 0 2.4649479e-05 0 0)
(-2.0736558 -0.26300471 0 -2.3248384e-05 0 0)
(-2.0399295 -0.26067551 0 2.1916527e-05 0 0)
(-2.0715397 -0.26285981 0 -2.0684735e-05 0 0)
(-2.0419106 -0.26081205 0 1.951632e-05 0 0)
(-2.069658 -0.26273101 0 -1.8435494e-05 0 0)
(-2.0436754 -0.26093353 0 1.7412429e-05 0 0)
(-2.0679819 -0.26261632 0 -1.6466374e-05 0 0)
(-2.0452503 -0.2610418 0 1.5572888e-05 0 0)
(-2.0664855 -0.26251401 0 -1.4747393e-05 0 0)
(-2.0466592 -0.2611385 0 1.3969746e-05 0 0)
(-2.065146 -0.26242253 0 -1.3252394e-05 0 0)
(-2.0479232 -0.26122509 0 1.2578651e-05 0 0)
(-2.0639428 -0.26234048 0 -1.1958643e-05 0 0)
(-2.0490614 -0.26130289 0 1.1378481e-05 0 0)
(-2.0628577 -0.26226661 0 -1.084648e-05 0 0)
(-2.0500909 -0.26137308 0 1.0351029e-05 0 0)
(-2.061874 -0.26219982 0 -9.8990308e-06 0 0)
(-2.0510273 -0.26143672 0 9.480738e-06 0 0)
(-2.0609769 -0.26213907 0 -9.1019619e-06 0 0)
(-2.0518847 -0.26149478 0 8.7544927e-06 0 0)
(-2.0601526 -0.26208346 0 -8.4433067e-06 0 0)
(-2.0526761 -0.26154814 0 8.1614856e-06 0 0)
(-2.0593886 -0.26203215 0 -7.9133807e-06 0 0)
(-2.0534135 -0.2615976 0 7.6931717e-06 0 0)
(-2.0586732 -0.26198435 0 -7.5050493e-06 0 0)
(-2.0541076 -0.2616439 0 7.3432652e-06 0 0)
(-2.0579946 -0.26193927 0 -7.2138438e-06 0 0)
(-2.0547681 -0.26168762 0 7.1175616e-06 0 0)
(-2.0573561 -0.26189696 0 -7.001451e-06 0 0)
(-2.0555011 -0.26173493 0 7.1711752e-06 0 0)
(-2.0571569 -0.26188364 0 -6.9784209e-06 0 0)
(-1.2607061 -0.57036029 0 -0.21651978 0 0)
(-2.5232272 -0.29423604 0 -0.0029217589 0 0)
(-1.8938512 -0.25290766 0 -0.00084656907 0 0)
(-1.9752612 -0.25673808 0 -3.4322187e-05 0 0)
(-1.8685705 -0.24927997 0 3.0148041e-05 0 0)
(-1.9443314 -0.25488706 0 -5.9987366e-05 0 0)
(-1.8712701 -0.24945388 0 5.288773e-05 0 0)
(-1.9376578 -0.25441983 0 -5.1918836e-05 0 0)
(-1.8756191 -0.24977609 0 4.9143171e-05 0 0)
(-1.9336821 -0.2541293 0 -4.6521088e-05 0 0)
(-1.8791247 -0.25003997 0 4.371041e-05 0 0)
(-1.9303013 -0.25387886 0 -4.1260102e-05 0 0)
(-1.882187 -0.25027094 0 3.8774423e-05 0 0)
(-1.9273388 -0.25365882 0 -3.6554184e-05 0 0)
(-1.8849104 -0.25047617 0 3.4388222e-05 0 0)
(-1.9247246 -0.25346448 0 -3.2410823e-05 0 0)
(-1.8873314 -0.2506584 0 3.0513561e-05 0 0)
(-1.9224108 -0.25329239 0 -2.8765204e-05 0 0)
(-1.8894823 -0.25082012 0 2.7099255e-05 0 0)
(-1.9203593 -0.25313979 0 -2.5558585e-05 0 0)
(-1.8913941 -0.25096369 0 2.409564e-05 0 0)
(-1.9185378 -0.25300429 0 -2.2740969e-05 0 0)
(-1.893095 -0.25109128 0 2.1457706e-05 0 0)
(-1.9169179 -0.25288383 0 -2.0269096e-05 0 0)
(-1.8946106 -0.2512048 0 1.9145538e-05 0 0)
(-1.9154748 -0.25277656 0 -1.8105237e-05 0 0)
(-1.8959634 -0.25130598 0 1.712405e-05 0 0)
(-1.9141863 -0.25268087 0 -1.6216442e-05 0 0)
(-1.897174 -0.25139636 0 1.5362553e-05 0 0)
(-1.9130326 -0.25259528 0 -1.4573992e-05 0 0)
(-1.8982605 -0.25147731 0 1.383432e-05 0 0)
(-1.9119961 -0.25251851 0 -1.3152942e-05 0 0)
(-1.8992392 -0.25155006 0 1.2516183e-05 0 0)
(-1.9110609 -0.25244939 0 -1.193175e-05 0 0)
(-1.900125 -0.25161571 0 1.1388209e-05 0 0)
(-1.9102129 -0.25238686 0 -1.0891964e-05 0 0)
(-1.9009312 -0.25167526 0 1.0433419e-05 0 0)
(-1.9094389 -0.25232998 0 -1.001799e-05 0 0)
(-1.90167 -0.2517296 0 9.6376043e-06 0 0)
(-1.9087274 -0.2522779 0 -9.2969496e-06 0 0)
(-1.9023525 -0.25177957 0 8.9892615e-06 0 0)
(-1.9080674 -0.25222981 0 -8.7187074e-06 0 0)
(-1.9029891 -0.25182591 0 8.4797099e-06 0 0)
(-1.9074488 -0.252185 0 -8.276759e-06 0 0)
(-1.9035892 -0.25186931 0 8.1028875e-06 0 0)
(-1.906861 -0.25214272 0 -7.9700425e-06 0 0)
(-1.9041602 -0.25191022 0 7.8766973e-06 0 0)
(-1.9062986 -0.25210224 0 -7.7124843e-06 0 0)
(-1.9047654 -0.25195119 0 8.2464858e-06 0 0)
(-1.9060408 -0.25208353 0 -7.5782167e-06 0 0)
(-1.1831066 -0.54064676 0 -0.20348324 0 0)
(-2.2884075 -0.27930951 0 -0.003422733 0 0)
(-1.8118009 -0.2484258 0 -0.0012706181 0 0)
(-1.8732391 -0.25010534 0 -5.8651163e-05 0 0)
(-1.7758368 -0.24294196 0 1.4103386e-05 0 0)
(-1.8429099 -0.2482071 0 -5.9514588e-05 0 0)
(-1.7770924 -0.24303052 0 5.0193999e-05 0 0)
(-1.8366697 -0.24775696 0 -5.009425e-05 0 0)
(-1.7809247 -0.24333364 0 4.7654818e-05 0 0)
(-1.8331047 -0.24748313 0 -4.5154199e-05 0 0)
(-1.7840774 -0.24358561 0 4.2405974e-05 0 0)
(-1.8300706 -0.24724497 0 -4.007483e-05 0 0)
(-1.7868301 -0.24380593 0 3.7631114e-05 0 0)
(-1.8274079 -0.24703527 0 -3.5496473e-05 0 0)
(-1.7892778 -0.24400168 0 3.338043e-05 0 0)
(-1.8250582 -0.24685004 0 -3.1469144e-05 0 0)
(-1.791454 -0.2441755 0 2.9621424e-05 0 0)
(-1.8229787 -0.24668602 0 -2.7928067e-05 0 0)
(-1.7933878 -0.24432977 0 2.6307611e-05 0 0)
(-1.8211351 -0.24654056 0 -2.4814232e-05 0 0)
(-1.7951068 -0.24446674 0 2.3391947e-05 0 0)
(-1.8194982 -0.24641141 0 -2.2078403e-05 0 0)
(-1.7966364 -0.24458846 0 2.0831112e-05 0 0)
(-1.8180426 -0.24629658 0 -1.9678371e-05 0 0)
(-1.7979995 -0.24469678 0 1.8586475e-05 0 0)
(-1.8167458 -0.24619432 0 -1.7577447e-05 0 0)
(-1.7992164 -0.24479334 0 1.6624024e-05 0 0)
(-1.8155878 -0.24610307 0 -1.5743635e-05 0 0)
(-1.8003054 -0.2448796 0 1.4913998e-05 0 0)
(-1.814551 -0.24602145 0 -1.4149062e-05 0 0)
(-1.8012829 -0.24495688 0 1.3430482e-05 0 0)
(-1.8136194 -0.24594822 0 -1.2769536e-05 0 0)
(-1.8021636 -0.24502634 0 1.215103e-05 0 0)
(-1.8127787 -0.24588227 0 -1.158419e-05 0 0)
(-1.8029608 -0.24508904 0 1.1056357e-05 0 0)
(-1.8120162 -0.24582259 0 -1.0575192e-05 0 0)
(-1.8036865 -0.24514593 0 1.013009e-05 0 0)
(-1.8113202 -0.24576828 0 -9.7275408e-06 0 0)
(-1.8043516 -0.24519787 0 9.358626e-06 0 0)
(-1.81068 -0.24571852 0 -9.0289868e-06 0 0)
(-1.8049663 -0.24524565 0 8.731155e-06 0 0)
(-1.810086 -0.24567255 0 -8.4701783e-06 0 0)
(-1.8055398 -0.24528998 0 8.2399629e-06 0 0)
(-1.809529 -0.24562969 0 -8.0460358e-06 0 0)
(-1.8060809 -0.24533154 0 7.8801645e-06 0 0)
(-1.8089993 -0.24558923 0 -7.7597532e-06 0 0)
(-1.8065957 -0.24537071 0 7.6760613e-06 0 0)
(-1.8084896 -0.2455502 0 -7.508014e-06 0 0)
(-1.8071337 -0.24540856 0 8.2520751e-06 0 0)
(-1.8082162 -0.24553058 0 -7.7660931e-06 0 0)
(-1.131397 -0.51282766 0 -0.18779593 0 0)
(-2.10172 -0.26796662 0 -0.0040541216 0 0)
(-1.727663 -0.24381643 0 -0.0017346057 0 0)
(-1.7745157 -0.24350812 0 -8.5985225e-05 0 0)
(-1.6850986 -0.23661994 0 -1.0983277e-05 0 0)
(-1.7448444 -0.24153697 0 -5.3977558e-05 0 0)
(-1.6849981 -0.23660929 0 4.2658404e-05 0 0)
(-1.738857 -0.24109789 0 -4.363056e-05 0 0)
(-1.6883359 -0.23689137 0 4.1910709e-05 0 0)
(-1.7356127 -0.24083978 0 -3.9735572e-05 0 0)
(-1.6911849 -0.23713134 0 3.7307881e-05 0 0)
(-1.7328637 -0.2406136 0 -3.5309856e-05 0 0)
(-1.6936766 -0.23734104 0 3.3123799e-05 0 0)
(-1.7304481 -0.24041397 0 -3.1266706e-05 0 0)
(-1.6958918 -0.23752731 0 2.9390321e-05 0 0)
(-1.7283161 -0.24023759 0 -2.7714412e-05 0 0)
(-1.6978614 -0.23769272 0 2.6083318e-05 0 0)
(-1.7264296 -0.24008141 0 -2.4594209e-05 0 0)
(-1.6996118 -0.23783954 0 2.3166066e-05 0 0)
(-1.7247573 -0.23994291 0 -2.185153e-05 0 0)
(-1.701168 -0.23796991 0 2.0598721e-05 0 0)
(-1.7232727 -0.23981991 0 -1.9442099e-05 0 0)
(-1.7025529 -0.23808578 0 1.8343627e-05 0 0)
(-1.7219526 -0.23971055 0 -1.732848e-05 0 0)
(-1.703787 -0.2381889 0 1.6366921e-05 0 0)
(-1.7207766 -0.23961315 0 -1.5478296e-05 0 0)
(-1.7048888 -0.23828084 0 1.4638704e-05 0 0)
(-1.7197267 -0.23952622 0 -1.3863362e-05 0 0)
(-1.7058749 -0.23836299 0 1.3132796e-05 0 0)
(-1.7187866 -0.23944845 0 -1.2459143e-05 0 0)
(-1.70676 -0.2384366 0 1.1826399e-05 0 0)
(-1.7179421 -0.23937866 0 -1.1244362e-05 0 0)
(-1.7075575 -0.23850279 0 1.0699782e-05 0 0)
(-1.7171801 -0.23931579 0 -1.0200677e-05 0 0)
(-1.7082794 -0.23856255 0 9.7360088e-06 0 0)
(-1.7164889 -0.23925887 0 -9.3124495e-06 0 0)
(-1.7089365 -0.2386168 0 8.9207448e-06 0 0)
(-1.7158582 -0.23920706 0 -8.5665755e-06 0 0)
(-1.7095388 -0.23866635 0 8.2421519e-06 0 0)
(-1.7152781 -0.23915956 0 -7.9524584e-06 0 0)
(-1.7100954 -0.23871196 0 7.6909805e-06 0 0)
(-1.7147399 -0.23911565 0 -7.4622228e-06 0 0)
(-1.7106147 -0.23875431 0 7.2609582e-06 0 0)
(-1.7142353 -0.23907468 0 -7.0924064e-06 0 0)
(-1.7111047 -0.23879405 0 6.9481031e-06 0 0)
(-1.7137555 -0.23903599 0 -6.8495597e-06 0 0)
(-1.7115708 -0.23883153 0 6.7811319e-06 0 0)
(-1.7132913 -0.23899834 0 -6.6032132e-06 0 0)
(-1.7120498 -0.23886645 0 7.5691575e-06 0 0)
(-1.713003 -0.23897751 0 -7.1596983e-06 0 0)
(-1.0871546 -0.48679193 0 -0.17291479 0 0)
(-1.9178309 -0.25646325 0 -0.004547291 0 0)
(-1.636453 -0.23845958 0 -0.0021254758 0 0)
(-1.6778916 -0.236926 0 -0.00012726017 0 0)
(-1.5960557 -0.23027594 0 -3.7691402e-05 0 0)
(-1.6497646 -0.23487978 0 -4.8891978e-05 0 0)
(-1.5950946 -0.23017936 0 3.5337149e-05 0 0)
(-1.6439854 -0.23444743 0 -3.7185839e-05 0 0)
(-1.5979809 -0.23044122 0 3.6248003e-05 0 0)
(-1.6410007 -0.23420309 0 -3.4326922e-05 0 0)
(-1.6005606 -0.23067004 0 3.2241127e-05 0 0)
(-1.6384978 -0.23398805 0 -3.0559765e-05 0 0)
(-1.6028263 -0.23086994 0 2.8636461e-05 0 0)
(-1.6362975 -0.23379783 0 -2.7051993e-05 0 0)
(-1.6048405 -0.23104744 0 2.5416657e-05 0 0)
(-1.6343553 -0.23362971 0 -2.3973509e-05 0 0)
(-1.6066314 -0.23120508 0 2.2559447e-05 0 0)
(-1.6326369 -0.23348086 0 -2.1272749e-05 0 0)
(-1.6082232 -0.231345 0 2.0036964e-05 0 0)
(-1.6311138 -0.23334884 0 -1.8899853e-05 0 0)
(-1.6096384 -0.23146925 0 1.7816393e-05 0 0)
(-1.6297618 -0.2332316 0 -1.6815564e-05 0 0)
(-1.6108979 -0.23157969 0 1.5865693e-05 0 0)
(-1.6285598 -0.23312735 0 -1.4987221e-05 0 0)
(-1.6120203 -0.231678 0 1.4155729e-05 0 0)
(-1.6274892 -0.23303449 0 -1.3386747e-05 0 0)
(-1.6130225 -0.23176565 0 1.2660688e-05 0 0)
(-1.6265334 -0.23295161 0 -1.1989754e-05 0 0)
(-1.6139193 -0.23184398 0 1.1357945e-05 0 0)
(-1.6256778 -0.23287745 0 -1.0775026e-05 0 0)
(-1.6147243 -0.23191418 0 1.0227794e-05 0 0)
(-1.6249092 -0.23281088 0 -9.7241733e-06 0 0)
(-1.6154496 -0.23197731 0 9.2531843e-06 0 0)
(-1.6242159 -0.2327509 0 -8.8213553e-06 0 0)
(-1.616106 -0.23203433 0 8.4194961e-06 0 0)
(-1.6235873 -0.23269659 0 -8.0530808e-06 0 0)
(-1.6167034 -0.2320861 0 7.7143763e-06 0 0)
(-1.6230136 -0.23264713 0 -7.4080809e-06 0 0)
(-1.6172509 -0.23213341 0 7.1276698e-06 0 0)
(-1.6224862 -0.23260177 0 -6.8773039e-06 0 0)
(-1.6177567 -0.23217697 0 6.651538e-06 0 0)
(-1.621997 -0.23255982 0 -6.4541453e-06 0 0)
(-1.6182285 -0.23221745 0 6.2808606e-06 0 0)
(-1.6215385 -0.23252066 0 -6.1362731e-06 0 0)
(-1.6186736 -0.23225546 0 6.011953e-06 0 0)
(-1.6211027 -0.23248365 0 -5.9324351e-06 0 0)
(-1.6190968 -0.23229133 0 5.8741551e-06 0 0)
(-1.6206799 -0.23244742 0 -5.6879163e-06 0 0)
(-1.6195253 -0.2323238 0 6.8120055e-06 0 0)
(-1.6203856 -0.23242575 0 -6.4838828e-06 0 0)
(-1.0495007 -0.46351918 0 -0.15977513 0 0)
(-1.7457901 -0.24516563 0 -0.0048535837 0 0)
(-1.5436381 -0.2325977 0 -0.0024186872 0 0)
(-1.5828185 -0.23032009 0 -0.00018501329 0 0)
(-1.5087888 -0.22391391 0 -6.6473502e-05 0 0)
(-1.5574476 -0.22822984 0 -4.5674961e-05 0 0)
(-1.5074859 -0.22374418 0 2.9066865e-05 0 0)
(-1.5519363 -0.22780316 0 -3.171344e-05 0 0)
(-1.5099747 -0.22398632 0 3.1534074e-05 0 0)
(-1.5491749 -0.22757118 0 -2.9755688e-05 0 0)
(-1.5123077 -0.22420442 0 2.7984524e-05 0 0)
(-1.5468902 -0.22736663 0 -2.65584e-05 0 0)
(-1.5143704 -0.22439503 0 2.4859615e-05 0 0)
(-1.544883 -0.22718535 0 -2.3503094e-05 0 0)
(-1.5162045 -0.22456421 0 2.2071709e-05 0 0)
(-1.543111 -0.22702509 0 -2.0823571e-05 0 0)
(-1.5178353 -0.22471444 0 1.9593158e-05 0 0)
(-1.5415433 -0.22688317 0 -1.8475961e-05 0 0)
(-1.519285 -0.22484781 0 1.7402956e-05 0 0)
(-1.540154 -0.22675731 0 -1.641443e-05 0 0)
(-1.5205739 -0.22496625 0 1.547424e-05 0 0)
(-1.5389209 -0.22664554 0 -1.4603919e-05 0 0)
(-1.5217211 -0.22507153 0 1.3779718e-05 0 0)
(-1.5378248 -0.22654614 0 -1.3015777e-05 0 0)
(-1.5227435 -0.22516525 0 1.2294241e-05 0 0)
(-1.5368486 -0.2264576 0 -1.1625549e-05 0 0)
(-1.5236563 -0.22524882 0 1.0995433e-05 0 0)
(-1.5359772 -0.22637857 0 -1.0412037e-05 0 0)
(-1.5244732 -0.22532352 0 9.8636565e-06 0 0)
(-1.5351973 -0.22630784 0 -9.3568201e-06 0 0)
(-1.5252064 -0.22539047 0 8.8818011e-06 0 0)
(-1.5344968 -0.22624435 0 -8.4439329e-06 0 0)
(-1.5258669 -0.22545068 0 8.0350641e-06 0 0)
(-1.5338651 -0.22618712 0 -7.6596311e-06 0 0)
(-1.5264646 -0.22550508 0 7.3107597e-06 0 0)
(-1.5332923 -0.2261353 0 -6.9922177e-06 0 0)
(-1.5270086 -0.22555449 0 6.6981826e-06 0 0)
(-1.5327698 -0.22608809 0 -6.431941e-06 0 0)
(-1.527507 -0.22559965 0 6.1885576e-06 0 0)
(-1.5322896 -0.22604479 0 -5.9710024e-06 0 0)
(-1.5279673 -0.22564125 0 5.7751663e-06 0 0)
(-1.5318443 -0.22600472 0 -5.6037718e-06 0 0)
(-1.5283966 -0.22567992 0 5.453724e-06 0 0)
(-1.531427 -0.22596729 0 -5.3286416e-06 0 0)
(-1.5288015 -0.22571625 0 5.2204729e-06 0 0)
(-1.5310307 -0.22593192 0 -5.1557847e-06 0 0)
(-1.5291863 -0.22575057 0 5.1034407e-06 0 0)
(-1.5306453 -0.2258971 0 -4.9089486e-06 0 0)
(-1.5295703 -0.22578089 0 6.1424541e-06 0 0)
(-1.5303507 -0.22587476 0 -5.8734518e-06 0 0)
(-1.0124399 -0.43667196 0 -0.14379036 0 0)
(-1.5858778 -0.23440128 0 -0.0050608673 0 0)
(-1.4510042 -0.22627699 0 -0.0025943951 0 0)
(-1.489117 -0.22369344 0 -0.00026697313 0 0)
(-1.423221 -0.21753577 0 -0.00010050959 0 0)
(-1.4677594 -0.22158509 0 -4.4984344e-05 0 0)
(-1.4221892 -0.21730581 0 2.3267574e-05 0 0)
(-1.4626484 -0.22116344 0 -2.7055569e-05 0 0)
(-1.4243591 -0.2175284 0 2.7515644e-05 0 0)
(-1.4600917 -0.22094252 0 -2.5814624e-05 0 0)
(-1.4264659 -0.21773591 0 2.433665e-05 0 0)
(-1.4580029 -0.22074796 0 -2.3118575e-05 0 0)
(-1.4283436 -0.21791754 0 2.1615847e-05 0 0)
(-1.4561707 -0.22057529 0 -2.0454275e-05 0 0)
(-1.4300145 -0.2180787 0 1.9198142e-05 0 0)
(-1.4545533 -0.2204226 0 -1.8117628e-05 0 0)
(-1.4315003 -0.21822181 0 1.7044901e-05 0 0)
(-1.4531226 -0.22028738 0 -1.6073357e-05 0 0)
(-1.4328211 -0.21834885 0 1.5140174e-05 0 0)
(-1.4518548 -0.22016746 0 -1.4279288e-05 0 0)
(-1.4339956 -0.21846168 0 1.3462184e-05 0 0)
(-1.4507297 -0.22006096 0 -1.2703961e-05 0 0)
(-1.435041 -0.21856199 0 1.1987732e-05 0 0)
(-1.4497296 -0.21996624 0 -1.1322164e-05 0 0)
(-1.4359727 -0.21865128 0 1.0695099e-05 0 0)
(-1.4488391 -0.21988186 0 -1.0112546e-05 0 0)
(-1.4368045 -0.21873092 0 9.5648615e-06 0 0)
(-1.4480443 -0.21980654 0 -9.0566503e-06 0 0)
(-1.4375489 -0.2188021 0 8.5799456e-06 0 0)
(-1.447333 -0.21973913 0 -8.1384517e-06 0 0)
(-1.4382171 -0.21886591 0 7.7254681e-06 0 0)
(-1.4466943 -0.2196786 0 -7.344065e-06 0 0)
(-1.438819 -0.21892331 0 6.9885531e-06 0 0)
(-1.4461183 -0.21962405 0 -6.6615406e-06 0 0)
(-1.4393636 -0.21897518 0 6.3581692e-06 0 0)
(-1.4455962 -0.21957463 0 -6.0807141e-06 0 0)
(-1.4398591 -0.2190223 0 5.8250155e-06 0 0)
(-1.44512 -0.2195296 0 -5.5931229e-06 0 0)
(-1.4403131 -0.21906537 0 5.3814827e-06 0 0)
(-1.4446825 -0.21948828 0 -5.1920188e-06 0 0)
(-1.4407324 -0.21910507 0 5.0217785e-06 0 0)
(-1.4442768 -0.21945003 0 -4.8725579e-06 0 0)
(-1.4411232 -0.21914199 0 4.7422684e-06 0 0)
(-1.4438969 -0.2194143 0 -4.6336277e-06 0 0)
(-1.4414918 -0.21917669 0 4.538997e-06 0 0)
(-1.4435363 -0.21938051 0 -4.4864157e-06 0 0)
(-1.4418419 -0.21920951 0 4.4376853e-06 0 0)
(-1.4431848 -0.21934711 0 -4.2369987e-06 0 0)
(-1.4421864 -0.21923792 0 5.5388967e-06 0 0)
(-1.4428943 -0.21932428 0 -5.3196562e-06 0 0)
(-0.9887967 -0.41821546 0 -0.13313225 0 0)
(-1.4374553 -0.22400472 0 -0.0052271591 0 0)
(-1.3606253 -0.21958541 0 -0.0026452985 0 0)
(-1.396963 -0.21703331 0 -0.00036591426 0 0)
(-1.3393389 -0.21112043 0 -0.00013485014 0 0)
(-1.3805721 -0.21493408 0 -4.5031807e-05 0 0)
(-1.3391737 -0.21086087 0 1.7961467e-05 0 0)
(-1.3760693 -0.21452665 0 -2.2921497e-05 0 0)
(-1.341146 -0.21106754 0 2.3938492e-05 0 0)
(-1.3737259 -0.21431666 0 -2.2283683e-05 0 0)
(-1.3430544 -0.21126485 0 2.1080493e-05 0 0)
(-1.3718168 -0.2141317 0 -2.0040451e-05 0 0)
(-1.344764 -0.21143778 0 1.8715612e-05 0 0)
(-1.3701442 -0.21396736 0 -1.7727676e-05 0 0)
(-1.3462863 -0.21159118 0 1.6628166e-05 0 0)
(-1.3686678 -0.21382199 0 -1.5697862e-05 0 0)
(-1.3476401 -0.21172739 0 1.476583e-05 0 0)
(-1.3673619 -0.21369325 0 -1.3924829e-05 0 0)
(-1.3488437 -0.21184833 0 1.3116441e-05 0 0)
(-1.3662048 -0.21357907 0 -1.2369914e-05 0 0)
(-1.3499141 -0.21195574 0 1.1662699e-05 0 0)
(-1.3651782 -0.21347767 0 -1.1004887e-05 0 0)
(-1.3508668 -0.21205123 0 1.0385074e-05 0 0)
(-1.3642657 -0.21338748 0 -9.8076064e-06 0 0)
(-1.351716 -0.21213624 0 9.2649149e-06 0 0)
(-1.3634532 -0.21330713 0 -8.7594939e-06 0 0)
(-1.3524742 -0.21221207 0 8.2854397e-06 0 0)
(-1.3627282 -0.2132354 0 -7.8445425e-06 0 0)
(-1.3531527 -0.21227985 0 7.4318656e-06 0 0)
(-1.3620794 -0.2131712 0 -7.0488653e-06 0 0)
(-1.3537616 -0.21234062 0 6.6912997e-06 0 0)
(-1.3614969 -0.21311355 0 -6.360435e-06 0 0)
(-1.3543101 -0.2123953 0 6.0525859e-06 0 0)
(-1.3609717 -0.21306157 0 -5.7689024e-06 0 0)
(-1.3548065 -0.21244471 0 5.5061686e-06 0 0)
(-1.3604957 -0.21301449 0 -5.2654679e-06 0 0)
(-1.355258 -0.21248961 0 5.0439955e-06 0 0)
(-1.3600616 -0.21297157 0 -4.8428118e-06 0 0)
(-1.3556716 -0.21253067 0 4.6594876e-06 0 0)
(-1.3596628 -0.21293217 0 -4.4951082e-06 0 0)
(-1.3560536 -0.21256852 0 4.3476576e-06 0 0)
(-1.3592933 -0.2128957 0 -4.2181854e-06 0 0)
(-1.3564096 -0.21260373 0 4.1054119e-06 0 0)
(-1.3589472 -0.2128616 0 -4.0112878e-06 0 0)
(-1.3567451 -0.21263685 0 3.9285798e-06 0 0)
(-1.3586189 -0.21282936 0 -3.8863302e-06 0 0)
(-1.3570638 -0.2126682 0 3.8401066e-06 0 0)
(-1.3582985 -0.21279737 0 -3.6355302e-06 0 0)
(-1.3573732 -0.21269491 0 4.9723578e-06 0 0)
(-1.3580152 -0.21277422 0 -4.8006594e-06 0 0)
(-0.96270224 -0.39292758 0 -0.11775508 0 0)
(-1.3018219 -0.21422464 0 -0.0053163842 0 0)
(-1.2726062 -0.21236561 0 -0.0025411064 0 0)
(-1.3065856 -0.210406 0 -0.00049405803 0 0)
(-1.2575665 -0.20471317 0 -0.00017119599 0 0)
(-1.2959347 -0.20828283 0 -4.562435e-05 0 0)
(-1.2584764 -0.20440969 0 1.3247504e-05 0 0)
(-1.2921713 -0.20789176 0 -1.9102199e-05 0 0)
(-1.2603465 -0.20460317 0 2.0742266e-05 0 0)
(-1.2900559 -0.20769331 0 -1.9060164e-05 0 0)
(-1.2620871 -0.20479111 0 1.8135785e-05 0 0)
(-1.2883161 -0.20751779 0 -1.7242956e-05 0 0)
(-1.2636452 -0.20495573 0 1.6084936e-05 0 0)
(-1.2867901 -0.20736153 0 -1.5252633e-05 0 0)
(-1.2650323 -0.20510166 0 1.4295749e-05 0 0)
(-1.2854428 -0.20722325 0 -1.3501801e-05 0 0)
(-1.2662658 -0.20523122 0 1.2697265e-05 0 0)
(-1.2842511 -0.20710077 0 -1.197496e-05 0 0)
(-1.2673625 -0.20534625 0 1.1279615e-05 0 0)
(-1.2831953 -0.20699214 0 -1.0637068e-05 0 0)
(-1.2683378 -0.20544842 0 1.0029413e-05 0 0)
(-1.2822586 -0.20689567 0 -9.4628824e-06 0 0)
(-1.269206 -0.20553925 0 8.9304361e-06 0 0)
(-1.2814262 -0.20680986 0 -8.433046e-06 0 0)
(-1.2699798 -0.20562013 0 7.9668209e-06 0 0)
(-1.280685 -0.2067334 0 -7.5314972e-06 0 0)
(-1.2706708 -0.20569227 0 7.1241802e-06 0 0)
(-1.2800238 -0.20666515 0 -6.7444486e-06 0 0)
(-1.2712891 -0.20575677 0 6.3898103e-06 0 0)
(-1.2794321 -0.20660405 0 -6.0599527e-06 0 0)
(-1.2718441 -0.2058146 0 5.7526225e-06 0 0)
(-1.2789009 -0.20654918 0 -5.4676653e-06 0 0)
(-1.2723439 -0.20586664 0 5.2030199e-06 0 0)
(-1.278422 -0.2064997 0 -4.9586862e-06 0 0)
(-1.2727962 -0.20591368 0 4.7327824e-06 0 0)
(-1.2779881 -0.20645487 0 -4.5254497e-06 0 0)
(-1.2732076 -0.20595643 0 4.3349853e-06 0 0)
(-1.2775924 -0.206414 0 -4.1616654e-06 0 0)
(-1.2735844 -0.20599554 0 4.0039749e-06 0 0)
(-1.277229 -0.20637647 0 -3.8623313e-06 0 0)
(-1.2739323 -0.2060316 0 3.7354766e-06 0 0)
(-1.2768923 -0.20634171 0 -3.6238616e-06 0 0)
(-1.2742565 -0.20606516 0 3.5268559e-06 0 0)
(-1.2765771 -0.20630921 0 -3.4457562e-06 0 0)
(-1.2745621 -0.20609674 0 3.3737438e-06 0 0)
(-1.2762783 -0.20627847 0 -3.3403983e-06 0 0)
(-1.2748522 -0.20612667 0 3.2960915e-06 0 0)
(-1.2759864 -0.20624788 0 -3.0897636e-06 0 0)
(-1.2751301 -0.20615183 0 4.4330394e-06 0 0)
(-1.2757124 -0.20622455 0 -4.3107558e-06 0 0)
(-0.94654994 -0.37755788 0 -0.10906564 0 0)
(-1.1797356 -0.20479573 0 -0.0053738068 0 0)
(-1.1848944 -0.20515708 0 -0.0025065533 0 0)
(-1.2215327 -0.20362834 0 -0.00052232986 0 0)
(-1.1787155 -0.1982515 0 -0.00018411601 0 0)
(-1.214247 -0.2016342 0 -4.2940254e-05 0 0)
(-1.1802748 -0.19795675 0 9.3895976e-06 0 0)
(-1.2110053 -0.20126168 0 -1.5637798e-05 0 0)
(-1.1820033 -0.19813667 0 1.7820117e-05 0 0)
(-1.2090782 -0.20107301 0 -1.6135774e-05 0 0)
(-1.1835826 -0.19831498 0 1.5455843e-05 0 0)
(-1.2074896 -0.20090631 0 -1.4696834e-05 0 0)
(-1.1850005 -0.19847148 0 1.3691293e-05 0 0)
(-1.2060974 -0.20075781 0 -1.3000143e-05 0 0)
(-1.1862636 -0.19861017 0 1.2173113e-05 0 0)
(-1.2048684 -0.20062635 0 -1.150338e-05 0 0)
(-1.187387 -0.19873331 0 1.0814668e-05 0 0)
(-1.2037814 -0.20050993 0 -1.0200578e-05 0 0)
(-1.1883858 -0.19884263 0 9.6079185e-06 0 0)
(-1.2028185 -0.20040666 0 -9.0601595e-06 0 0)
(-1.1892741 -0.19893974 0 8.5429574e-06 0 0)
(-1.2019642 -0.20031494 0 -8.0596242e-06 0 0)
(-1.190065 -0.19902609 0 7.6065695e-06 0 0)
(-1.2012051 -0.20023335 0 -7.1821526e-06 0 0)
(-1.1907699 -0.19910297 0 6.7854236e-06 0 0)
(-1.2005293 -0.20016067 0 -6.413969e-06 0 0)
(-1.1913993 -0.19917155 0 6.0673126e-06 0 0)
(-1.1999264 -0.20009576 0 -5.7433039e-06 0 0)
(-1.1919626 -0.19923287 0 5.4414235e-06 0 0)
(-1.1993871 -0.20003766 0 -5.1599727e-06 0 0)
(-1.1924681 -0.19928786 0 4.8983085e-06 0 0)
(-1.1989029 -0.19998548 0 -4.6551605e-06 0 0)
(-1.1929234 -0.19933735 0 4.4297876e-06 0 0)
(-1.1984664 -0.19993842 0 -4.2212833e-06 0 0)
(-1.1933353 -0.19938209 0 4.0288535e-06 0 0)
(-1.198071 -0.19989577 0 -3.8518943e-06 0 0)
(-1.1937101 -0.19942277 0 3.6896032e-06 0 0)
(-1.1977105 -0.19985688 0 -3.5416333e-06 0 0)
(-1.1940533 -0.19945998 0 3.4072172e-06 0 0)
(-1.1973795 -0.19982116 0 -3.2862379e-06 0 0)
(-1.19437 -0.19949431 0 3.1780554e-06 0 0)
(-1.1970729 -0.19978806 0 -3.0826371e-06 0 0)
(-1.1946652 -0.19952626 0 2.9998762e-06 0 0)
(-1.1967859 -0.1997571 0 -2.9305073e-06 0 0)
(-1.1949433 -0.19955636 0 2.8681483e-06 0 0)
(-1.196514 -0.19972782 0 -2.8424582e-06 0 0)
(-1.1952073 -0.1995849 0 2.799792e-06 0 0)
(-1.1962481 -0.19969861 0 -2.5936326e-06 0 0)
(-1.1954569 -0.19960867 0 3.9189777e-06 0 0)
(-1.1959851 -0.19967524 0 -3.8496829e-06 0 0)
(-0.92502104 -0.35348675 0 -0.094995674 0 0)
(-1.0743368 -0.19578853 0 -0.0051996981 0 0)
(-1.0985147 -0.19802636 0 -0.0025174823 0 0)
(-1.1419971 -0.19665084 0 -0.00042492204 0 0)
(-1.1026155 -0.19166664 0 -0.00015684029 0 0)
(-1.1353837 -0.19495661 0 -2.9974705e-05 0 0)
(-1.1045093 -0.19148823 0 8.7334748e-06 0 0)
(-1.1325182 -0.19463096 0 -1.1728896e-05 0 0)
(-1.1061112 -0.19166607 0 1.5371701e-05 0 0)
(-1.1307711 -0.19445488 0 -1.3409507e-05 0 0)
(-1.1075486 -0.19183623 0 1.3032515e-05 0 0)
(-1.1293246 -0.19429705 0 -1.2368674e-05 0 0)
(-1.1088395 -0.19198502 0 1.1511199e-05 0 0)
(-1.1280561 -0.1941561 0 -1.094552e-05 0 0)
(-1.1099893 -0.19211677 0 1.0237938e-05 0 0)
(-1.126936 -0.19403125 0 -9.6812103e-06 0 0)
(-1.1110117 -0.1922337 0 9.0980568e-06 0 0)
(-1.1259452 -0.19392066 0 -8.582773e-06 0 0)
(-1.1119208 -0.19233752 0 8.0835751e-06 0 0)
(-1.1250676 -0.19382257 0 -7.6223993e-06 0 0)
(-1.1127294 -0.19242975 0 7.1875244e-06 0 0)
(-1.1242891 -0.19373544 0 -6.7801804e-06 0 0)
(-1.1134492 -0.19251176 0 6.3993956e-06 0 0)
(-1.1235974 -0.19365794 0 -6.0416196e-06 0 0)
(-1.1140909 -0.19258478 0 5.7081624e-06 0 0)
(-1.1229817 -0.19358889 0 -5.3950252e-06 0 0)
(-1.1146639 -0.19264993 0 5.1036035e-06 0 0)
(-1.1224324 -0.19352722 0 -4.8304661e-06 0 0)
(-1.1151766 -0.19270818 0 4.5766292e-06 0 0)
(-1.121941 -0.19347202 0 -4.3393635e-06 0 0)
(-1.1156368 -0.19276043 0 4.1192868e-06 0 0)
(-1.1215 -0.19342243 0 -3.9142953e-06 0 0)
(-1.1160513 -0.19280745 0 3.7246871e-06 0 0)
(-1.1211025 -0.19337771 0 -3.5488753e-06 0 0)
(-1.1164262 -0.19284998 0 3.3869267e-06 0 0)
(-1.1207424 -0.19333716 0 -3.2376739e-06 0 0)
(-1.1167673 -0.19288864 0 3.1010308e-06 0 0)
(-1.1204143 -0.19330019 0 -2.9761747e-06 0 0)
(-1.1170796 -0.19292402 0 2.862935e-06 0 0)
(-1.1201129 -0.19326622 0 -2.7607817e-06 0 0)
(-1.1173679 -0.19295667 0 2.669567e-06 0 0)
(-1.1198338 -0.19323474 0 -2.5888806e-06 0 0)
(-1.1176364 -0.19298707 0 2.5190259e-06 0 0)
(-1.1195727 -0.19320528 0 -2.4602655e-06 0 0)
(-1.1178893 -0.19301571 0 2.406669e-06 0 0)
(-1.1193255 -0.1931774 0 -2.3875518e-06 0 0)
(-1.1181295 -0.19304291 0 2.3464949e-06 0 0)
(-1.1190836 -0.19314956 0 -2.1422806e-06 0 0)
(-1.1183536 -0.19306541 0 3.4289443e-06 0 0)
(-1.1188327 -0.19312626 0 -3.4171127e-06 0 0)
(-0.91157035 -0.34002131 0 -0.087715281 0 0)
(-0.98917452 -0.18708724 0 -0.0045713858 0 0)
(-1.0133493 -0.19028026 0 -0.0026720317 0 0)
(-1.0621963 -0.18991606 0 -0.00049201163 0 0)
(-1.028556 -0.18520275 0 -0.00016483068 0 0)
(-1.0590006 -0.1883171 0 -2.7216545e-05 0 0)
(-1.0311506 -0.18502858 0 5.8896086e-06 0 0)
(-1.0566936 -0.18800694 0 -8.7451576e-06 0 0)
(-1.0326869 -0.1851941 0 1.2982781e-05 0 0)
(-1.0551285 -0.18783978 0 -1.0959119e-05 0 0)
(-1.0339981 -0.1853553 0 1.080694e-05 0 0)
(-1.0538133 -0.1876901 0 -1.0242546e-05 0 0)
(-1.035172 -0.18549651 0 9.5172855e-06 0 0)
(-1.0526582 -0.18755636 0 -9.0671465e-06 0 0)
(-1.0362174 -0.18562152 0 8.4683951e-06 0 0)
(-1.0516383 -0.18743788 0 -8.015289e-06 0 0)
(-1.037147 -0.18573247 0 7.5283672e-06 0 0)
(-1.0507361 -0.18733293 0 -7.1036756e-06 0 0)
(-1.0379736 -0.18583098 0 6.6897037e-06 0 0)
(-1.0499371 -0.18723982 0 -6.3078911e-06 0 0)
(-1.0387088 -0.18591849 0 5.9481144e-06 0 0)
(-1.0492283 -0.18715713 0 -5.6104031e-06 0 0)
(-1.0393634 -0.18599631 0 5.2955605e-06 0 0)
(-1.0485987 -0.18708357 0 -4.9988362e-06 0 0)
(-1.039947 -0.18606561 0 4.7231235e-06 0 0)
(-1.0480382 -0.18701803 0 -4.4634014e-06 0 0)
(-1.040468 -0.18612744 0 4.2223978e-06 0 0)
(-1.0475383 -0.1869595 0 -3.9958464e-06 0 0)
(-1.0409344 -0.18618273 0 3.7858693e-06 0 0)
(-1.0470912 -0.18690709 0 -3.5890593e-06 0 0)
(-1.0413529 -0.18623232 0 3.4069517e-06 0 0)
(-1.0466899 -0.18686001 0 -3.2368897e-06 0 0)
(-1.0417298 -0.18627697 0 3.0799353e-06 0 0)
(-1.0463282 -0.18681754 0 -2.9340453e-06 0 0)
(-1.0420708 -0.18631734 0 2.799925e-06 0 0)
(-1.0460006 -0.18677904 0 -2.6760241e-06 0 0)
(-1.0423809 -0.18635406 0 2.5627923e-06 0 0)
(-1.0457021 -0.18674392 0 -2.4590779e-06 0 0)
(-1.0426649 -0.18638767 0 2.3651593e-06 0 0)
(-1.0454281 -0.18671164 0 -2.2802147e-06 0 0)
(-1.0429269 -0.18641869 0 2.2044655e-06 0 0)
(-1.0451743 -0.18668173 0 -2.1372291e-06 0 0)
(-1.043171 -0.18644759 0 2.0791092e-06 0 0)
(-1.0449369 -0.18665371 0 -2.0299909e-06 0 0)
(-1.0434008 -0.18647483 0 1.9843969e-06 0 0)
(-1.0447123 -0.18662721 0 -1.9709195e-06 0 0)
(-1.0436191 -0.18650072 0 1.9316187e-06 0 0)
(-1.0444925 -0.1866007 0 -1.7310014e-06 0 0)
(-1.0438201 -0.18652205 0 2.9614759e-06 0 0)
(-1.0442545 -0.18657757 0 -3.0121076e-06 0 0)
(-0.89025645 -0.31781102 0 -0.075751246 0 0)
(-0.90909881 -0.17892221 0 -0.0041961338 0 0)
(-0.93789694 -0.1827935 0 -0.0024618181 0 0)
(-0.98651084 -0.18291645 0 -0.00042534596 0 0)
(-0.95728741 -0.17863718 0 -0.00013841232 0 0)
(-0.98528699 -0.181643 0 -1.5696017e-05 0 0)
(-0.96020107 -0.17855106 0 5.8268232e-06 0 0)
(-0.9834935 -0.18138015 0 -5.2895174e-06 0 0)
(-0.96171784 -0.17871728 0 1.1007503e-05 0 0)
(-0.98212799 -0.18122619 0 -8.6500728e-06 0 0)
(-0.96293204 -0.17887169 0 8.787321e-06 0 0)
(-0.98094385 -0.18108511 0 -8.2866354e-06 0 0)
(-0.96400338 -0.17900589 0 7.6916955e-06 0 0)
(-0.9798961 -0.18095847 0 -7.3443532e-06 0 0)
(-0.96495397 -0.17912447 0 6.846351e-06 0 0)
(-0.97896913 -0.18084617 0 -6.488041e-06 0 0)
(-0.96579844 -0.17922965 0 6.0892492e-06 0 0)
(-0.97814887 -0.18074666 0 -5.7477884e-06 0 0)
(-0.96654916 -0.17932304 0 5.4117442e-06 0 0)
(-0.9774223 -0.18065838 0 -5.1028838e-06 0 0)
(-0.96721695 -0.179406 0 4.8117735e-06 0 0)
(-0.97677787 -0.18057997 0 -4.5380613e-06 0 0)
(-0.96781151 -0.17947978 0 4.2835266e-06 0 0)
(-0.9762054 -0.18051022 0 -4.0429017e-06 0 0)
(-0.96834153 -0.17954548 0 3.8200117e-06 0 0)
(-0.97569594 -0.18044806 0 -3.6093605e-06 0 0)
(-0.96881482 -0.17960411 0 3.4144867e-06 0 0)
(-0.97524152 -0.18039255 0 -3.2307232e-06 0 0)
(-0.96923838 -0.17965654 0 3.0608816e-06 0 0)
(-0.9748351 -0.18034285 0 -2.9012213e-06 0 0)
(-0.96961851 -0.17970357 0 2.7538627e-06 0 0)
(-0.97447039 -0.1802982 0 -2.6158695e-06 0 0)
(-0.96996087 -0.17974592 0 2.4888014e-06 0 0)
(-0.97414174 -0.18025791 0 -2.370377e-06 0 0)
(-0.97027056 -0.17978422 0 2.2617259e-06 0 0)
(-0.97384411 -0.18022138 0 -2.1610905e-06 0 0)
(-0.97055222 -0.17981905 0 2.0692824e-06 0 0)
(-0.9735729 -0.18018805 0 -1.9849638e-06 0 0)
(-0.97081008 -0.17985095 0 1.9087196e-06 0 0)
(-0.97332397 -0.18015741 0 -1.8395543e-06 0 0)
(-0.971048 -0.1798804 0 1.7779409e-06 0 0)
(-0.97309351 -0.18012901 0 -1.7230264e-06 0 0)
(-0.97126957 -0.17990784 0 1.6756102e-06 0 0)