/*--------------------------------*- C++ -*----------------------------------*\
| =========                 |                                                 |
| \\      /  F ield         | OpenFOAM: The Open Source CFD Toolbox           |
|  \\    /   O peration     | Version:  2312                                  |
|   \\  /    A nd           | Website:  www.openfoam.com                      |
|    \\/     M anipulation  |                                                 |
\*---------------------------------------------------------------------------*/
FoamFile
{
    version     2.0;
    format      ascii;
    arch        "LSB;label=32;scalar=64";
    class       volScalarField;
    location    "7";
    object      T;
}
// * * * * * * * * * * * * * * * * * * * * * * * * * * * * * * * * * * * * * //

dimensions      [0 0 0 1 0 0 0];

internalField   nonuniform List<scalar> 
4000
(
329.07579
327.96522
327.81303
327.73452
327.67986
327.62641
327.58577
327.54086
327.50528
327.46462
327.43156
327.39347
327.36186
327.32548
327.29479
327.25964
327.22956
327.19532
327.16569
327.13215
327.10284
327.06986
327.0408
327.00827
326.97941
326.94724
326.91854
326.88667
326.85811
326.82648
326.79806
326.76662
326.73831
326.70703
326.67884
326.64769
326.6196
326.58854
326.56057
326.52958
326.50172
326.47077
326.44304
326.4121
326.38451
326.35352
326.32614
326.29501
326.26802
326.23609
331.05209
329.04172
328.6467
328.4684
328.36152
328.25832
328.19341
328.11579
328.06606
328.00118
327.95901
327.90182
327.864
327.81195
327.77689
327.72851
327.69531
327.64966
327.61777
327.57423
327.54332
327.50145
327.47129
327.43075
327.4012
327.36174
327.33269
327.29412
327.26549
327.22764
327.1994
327.16214
327.13425
327.09747
327.06992
327.03351
327.00629
326.97017
326.94328
326.90737
326.88082
326.84503
326.81886
326.78308
326.75736
326.72145
326.69634
326.65999
326.63605
326.59742
332.3519
330.09104
329.47495
329.19927
329.04083
328.88854
328.79941
328.68945
328.62553
328.53668
328.48532
328.40922
328.36513
328.29754
328.25805
328.19655
328.16016
328.1032
328.06901
328.01555
327.98299
327.93229
327.90099
327.85251
327.82222
327.77554
327.74608
327.70087
327.67213
327.62812
327.60003
327.55699
327.52949
327.48724
327.4603
327.41867
327.39228
327.35114
327.3253
327.2845
327.25924
327.21863
327.194
327.15342
327.12954
327.08874
327.06587
327.02434
327.0034
326.95834
333.25683
331.08682
330.28931
329.92258
329.71454
329.51473
329.40174
329.26024
329.18216
329.06986
329.00926
328.91463
328.86418
328.78136
328.73735
328.66297
328.6233
328.55522
328.51864
328.45542
328.42114
328.36176
328.32925
328.27294
328.24185
328.18804
328.15813
328.10636
328.07747
328.02736
327.99937
327.95062
327.92347
327.87581
327.84945
327.80267
327.77708
327.73095
327.70614
327.66049
327.63649
327.5911
327.56799
327.52264
327.50058
327.45492
327.43426
327.38761
327.36959
327.31847
333.91354
332.00557
331.07868
330.63204
330.37822
330.13365
329.99765
329.82595
329.73396
329.59905
329.52926
329.4167
329.35985
329.26225
329.21364
329.12674
329.08371
329.00481
328.96576
328.89303
328.85694
328.78908
328.75528
328.69132
328.65936
328.59858
328.56815
328.50995
328.48084
328.42475
328.39682
328.34246
328.31561
328.26264
328.23681
328.18494
328.16011
328.10908
328.08525
328.03482
328.01203
327.96194
327.9403
327.89025
327.86995
327.81952
327.801
327.74933
327.73408
327.67739
334.40447
332.82946
331.83081
331.32003
331.02644
330.74126
330.58379
330.38388
330.27852
330.12223
330.04343
329.91379
329.85058
329.73885
329.68561
329.5867
329.54024
329.45092
329.40933
329.32741
329.28944
329.21338
329.17822
329.10685
329.07395
329.00639
328.97538
328.91093
328.88154
328.81963
328.7917
328.73186
328.70525
328.64709
328.62173
328.5649
328.54077
328.48495
328.46204
328.40694
328.38531
328.33062
328.31038
328.25574
328.23713
328.18204
328.16557
328.10902
328.09634
328.03458
334.77963
333.54796
332.5338
331.97826
331.65313
331.33293
331.15634
330.93087
330.81307
330.63702
330.54961
330.40401
330.33461
330.20956
330.15175
330.04146
329.99159
329.89236
329.84818
329.75751
329.7176
329.63369
329.59711
329.51863
329.48473
329.41066
329.379
329.30852
329.2788
329.21126
329.18326
329.11813
329.0917
329.02851
329.00357
328.94192
328.91843
328.85795
328.83592
328.77626
328.75574
328.69656
328.67766
328.61855
328.60155
328.54194
328.5274
328.46618
328.45582
328.38952
335.07109
334.15733
333.17745
332.59846
332.25194
331.90366
331.71115
331.46348
331.33459
331.14081
331.04544
330.88526
330.81
330.67264
330.61043
330.48954
330.43631
330.32779
330.28106
330.18213
330.14028
330.04895
330.01092
329.92569
329.89075
329.81047
329.77812
329.70189
329.67177
329.59886
329.57074
329.50052
329.47423
329.4062
329.38162
329.31532
329.29243
329.22745
329.20622
329.14218
329.12268
329.05918
329.04154
328.97812
328.96264
328.89868
328.88594
328.8203
328.81196
328.74163
335.30064
334.66016
333.75428
333.17317
332.81666
332.44836
332.24394
331.97806
331.83989
331.6308
331.52841
331.35529
331.27467
331.12622
331.05988
330.92931
330.87289
330.75582
330.70661
330.60003
330.55627
330.45802
330.41854
330.32698
330.291
330.20488
330.17181
330.09015
330.05961
329.98159
329.95331
329.87827
329.85205
329.77942
329.75516
329.68442
329.66205
329.59278
329.5723
329.50405
329.48551
329.41787
329.40141
329.33387
329.31979
329.2517
329.2406
329.17082
329.16421
329.09032
335.48376
335.06406
334.26005
333.69637
333.34171
332.96218
332.7505
332.47096
332.32574
332.10413
331.99591
331.81177
331.72648
331.56832
331.49828
331.3591
331.29974
331.17496
331.12343
331.00989
330.96432
330.85971
330.81885
330.72144
330.68443
330.59289
330.55911
330.47237
330.4414
330.3586
330.33014
330.25055
330.22439
330.1474
330.12342
330.04849
330.0266
329.95326
329.93346
329.86123
329.84357
329.772
329.75663
329.6852
329.6724
329.60043
329.59079
329.5172
329.512
329.435
335.63168
335.38017
334.69396
334.164
333.82254
333.44079
333.22694
332.93869
332.78901
332.55797
332.4454
332.25234
332.16328
331.99697
331.92377
331.77717
331.71523
331.58369
331.53008
331.41034
331.36312
331.25279
331.21065
331.10794
331.06996
330.97346
330.93901
330.8476
330.81622
330.72899
330.70036
330.61654
330.59043
330.50938
330.48564
330.40679
330.38534
330.30818
330.28901
330.21304
330.1962
330.12094
330.10656
330.03149
330.01985
329.94428
329.93592
329.85887
329.85479
329.77508
335.75287
335.62173
335.05831
334.57421
334.25593
333.88068
333.6699
333.37808
333.22681
332.98966
332.8744
332.67474
332.58295
332.41018
332.33452
332.18181
332.11775
331.98049
331.92511
331.80002
331.75137
331.63603
331.59276
331.48534
331.44652
331.34557
331.31052
331.21489
331.18314
331.09188
331.06308
330.9754
330.94933
330.86455
330.84104
330.75857
330.73753
330.65683
330.63824
330.55881
330.54271
330.46405
330.45056
330.37213
330.36152
330.28267
330.27538
330.19525
330.19202
330.10995
335.85362
335.80253
335.35802
334.92737
334.64025
334.27936
334.07676
333.78647
333.6366
333.39676
333.28067
333.07684
332.98352
332.80609
332.72878
332.57135
332.50574
332.36386
332.30713
332.17759
332.1278
332.00821
331.96402
331.85253
331.81301
331.70817
331.67263
331.57326
331.54121
331.44635
331.41745
331.32629
331.30028
331.21212
331.18884
331.10308
331.08243
330.99851
330.98046
330.89787
330.88244
330.80067
330.78799
330.70651
330.69679
330.61499
330.6086
330.52576
330.52315
330.43904
335.93873
335.93589
335.59987
335.22589
334.97546
334.63554
334.44573
334.16184
334.01636
333.77723
333.66226
333.45671
333.36318
333.18296
333.10491
332.94422
332.87771
332.73239
332.67476
332.54174
332.49116
332.36812
332.32328
332.20841
332.16838
332.06024
332.02435
331.92177
331.88953
331.79154
331.76259
331.66837
331.64246
331.55132
331.52828
331.43958
331.41931
331.33251
331.31496
331.22954
331.21473
331.13018
331.11821
331.03402
331.02506
330.94066
330.935
330.84982
330.84763
330.76178
336.01177
336.03372
335.79174
335.47385
335.26307
334.94916
334.77601
334.50289
334.36462
334.12947
334.01757
333.81277
333.72039
333.53927
333.46146
333.29899
333.23231
333.08474
333.02677
332.89126
332.8403
332.71465
332.66946
332.55193
332.51163
332.40082
332.36476
332.25951
332.22721
332.12657
332.09768
332.00084
331.9751
331.88137
331.85861
331.76736
331.74747
331.65815
331.64108
331.55317
331.53893
331.45195
331.44061
331.35404
331.34574
331.2591
331.254
331.16687
331.16495
331.07762
336.0754
336.10608
335.94187
335.67654
335.50593
335.22131
335.06778
334.80911
334.68057
334.4524
334.34546
334.14375
334.0539
333.87373
333.79718
333.63444
333.56834
333.41976
333.36202
333.22505
333.17415
333.04675
333.00157
332.88211
332.84182
332.72897
332.69295
332.58561
332.5534
332.45064
332.42191
332.32293
332.29743
332.20155
332.17911
332.08571
332.06621
331.97476
331.95816
331.86814
331.85442
331.76536
331.75458
331.66601
331.65825
331.56975
331.56507
331.47634
331.47458
331.38604
336.13158
336.16097
336.05828
335.83991
335.7079
335.45417
335.32212
335.08079
334.96407
334.74552
334.64524
334.4488
334.36281
334.18537
334.11111
333.94954
333.88481
333.73643
333.67954
333.54212
333.49177
333.36349
333.31869
333.19807
333.15807
333.04386
333.00811
332.89927
332.86734
332.76298
332.73455
332.63391
332.60875
332.51116
332.4891
332.39397
332.37491
332.28171
332.26558
332.17383
332.1606
332.06984
332.05955
331.96937
331.96204
331.87206
331.86769
331.77772
331.77603
331.68652
336.18174
336.20439
336.14826
335.97017
335.87356
335.65073
335.54098
335.31897
335.21564
335.00888
334.91675
334.72751
334.64661
334.47354
334.40254
334.24354
334.18097
334.03395
333.97854
333.84167
333.79236
333.66408
333.62006
333.49903
333.45965
333.34474
333.30952
333.19977
333.16832
333.0629
333.03493
332.93311
332.90841
332.80957
332.78797
332.69154
332.67295
332.57842
332.56276
332.46967
332.45692
332.36485
332.355
332.26357
332.25662
332.16552
332.16137
332.0705
332.06883
331.9786
336.22692
336.24058
336.21815
336.07331
336.00781
335.81459
335.72695
335.52535
335.43641
335.2431
335.16028
334.9799
334.90515
334.73793
334.67111
334.51594
334.45629
334.31174
334.25842
334.12307
334.07531
333.94786
333.90503
333.78433
333.74592
333.63097
333.59654
333.48648
333.45572
333.34978
333.32244
333.21995
333.19583
333.0962
333.07515
332.97785
332.95979
332.86434
332.84918
332.75516
332.74287
332.64988
332.64043
332.54814
332.54149
332.44964
332.44566
332.35421
332.35252
332.26184
336.26789
336.27231
336.27316
336.15483
336.11561
335.9497
335.88311
335.70218
335.62803
335.44928
335.37664
335.20639
335.1387
334.97857
334.91673
334.76655
334.71051
334.56946
334.51881
334.38588
334.34017
334.21435
334.17313
334.05348
334.01635
333.90202
333.86866
333.75888
333.72903
333.62311
333.59657
333.4939
333.47049
333.37054
333.35015
333.25242
333.23494
333.139
333.12437
333.02981
333.01799
332.92447
332.9154
332.82262
332.81624
332.724
332.72013
332.62842
332.62671
332.53582
336.30521
336.30128
336.3174
336.21953
336.20165
336.06012
336.01283
335.85207
335.79261
335.62899
335.56699
335.40784
335.34785
335.19585
335.13966
334.99545
334.94363
334.80699
334.75956
334.62988
334.58667
334.46325
334.42401
334.3061
334.27059
334.15749
334.12548
334.01654
333.98784
333.88246
333.8569
333.75455
333.73199
333.63218
333.61253
333.51482
333.49799
333.40197
333.38791
333.29322
333.28187
333.18821
333.17951
333.08662
333.08047
332.9882
332.98441
332.89275
332.89102
332.80018
336.3393
336.32843
336.35395
336.27146
336.27021
336.14977
336.11961
335.97792
335.93253
335.7841
335.7329
335.58541
335.53357
335.39044
335.34043
335.203
335.15591
335.02446
334.98072
334.85504
334.81476
334.69441
334.65753
334.54199
334.50842
334.39714
334.36674
334.25919
334.23184
334.12752
334.10311
334.00156
333.97999
333.88077
333.86198
333.7647
333.74861
333.65291
333.63947
333.54504
333.53419
333.44076
333.43243
333.33978
333.33386
333.24188
333.23819
333.14687
333.14513
333.0546
336.3705
336.35415
336.38505
336.31383
336.32502
336.22235
336.20684
336.08269
336.05037
335.91678
335.87617
335.74058
335.69706
335.56333
335.51983
335.3898
335.34784
335.22224
335.18258
335.06154
335.02454
334.90789
334.8737
334.76111
334.72975
334.62084
334.59229
334.48665
334.46086
334.35808
334.335
334.23469
334.21426
334.11606
334.09823
334.0018
333.98652
333.89155
333.87877
333.78499
333.77466
333.68183
333.67388
333.58183
333.57614
333.48478
333.48117
333.39048
333.38875
333.2988
336.39908
336.3786
336.41223
336.34913
336.36918
336.28112
336.27776
336.16931
336.14879
336.02929
335.99881
335.87502
335.8398
335.71572
335.67891
335.55671
335.52015
335.4009
335.36563
335.24975
335.21634
335.10391
335.07268
334.96356
334.93467
334.82862
334.80215
334.69889
334.67485
334.57406
334.55247
334.45384
334.43467
334.3379
334.32113
334.22595
334.21155
334.11768
334.10563
334.01285
334.00308
333.9112
333.90365
333.81253
333.80709
333.71664
333.71315
333.62336
333.62166
333.53255
336.42527
336.40177
336.43648
336.37922
336.40523
336.32892
336.33527
336.24058
336.2304
336.12399
336.10292
335.99058
335.9634
335.84899
335.81889
335.70476
335.67375
335.5612
335.53052
335.42022
335.39063
335.28285
335.25482
335.1496
335.1234
335.02065
334.99644
334.89598
334.87387
334.77547
334.75551
334.65896
334.64117
334.54622
334.53061
334.43704
334.42361
334.3312
334.31992
334.2285
334.21933
334.12873
334.12161
334.03173
334.02655
333.93732
333.93396
333.84534
333.84369
333.75567
336.44927
336.42361
336.45844
336.40541
336.43513
336.36811
336.38195
336.29906
336.29768
336.20316
336.19063
336.08915
336.06959
335.96468
335.94114
335.83513
335.80969
335.70405
335.67808
335.57365
335.54803
335.44525
335.42058
335.31963
335.29628
335.1972
335.17542
335.07813
335.05809
334.96246
334.94425
334.85013
334.83384
334.74105
334.7267
334.63508
334.62268
334.53207
334.52162
334.43187
334.42334
334.33433
334.32767
334.23932
334.23444
334.14669
334.14349
334.0563
334.05471
333.96805
336.47126
336.44405
336.4785
336.42862
336.46037
336.40061
336.41997
336.34702
336.35292
336.26901
336.26403
336.17266
336.16015
336.06437
336.04711
335.94915
335.92917
335.83053
335.80926
335.71089
335.68931
335.59178
335.57057
335.47418
335.4538
335.35869
335.33946
335.24565
335.22779
335.13525
335.11891
335.02754
335.01283
334.92253
334.9095
334.82015
334.80884
334.72033
334.71076
334.62298
334.61513
334.52799
334.52183
334.43527
334.43072
334.34471
334.3417
334.25618
334.25467
334.1696
336.49139
336.46308
336.49686
336.44946
336.48204
336.42792
336.45116
336.38645
336.39817
336.32357
336.32509
336.24297
336.23685
336.1497
336.13833
336.04817
336.03347
335.94176
335.92513
335.83288
335.81535
335.72321
335.70551
335.61388
335.59654
335.50564
335.48904
335.39898
335.38338
335.29419
335.27979
335.19146
335.17839
335.09085
335.07921
334.99241
334.98225
334.89611
334.88746
334.80191
334.79479
334.70977
334.70414
334.61963
334.61544
334.53139
334.5286
334.44497
334.44357
334.36031
336.50979
336.48069
336.51366
336.46832
336.50092
336.45117
336.47695
336.419
336.43523
336.36866
336.37565
336.30186
336.30139
336.22228
336.21633
336.13363
336.12389
336.03897
336.02681
335.94066
335.92709
335.84042
335.82621
335.73947
335.72518
335.63867
335.62472
335.53862
335.52532
335.43971
335.4273
335.34223
335.33086
335.24632
335.23611
335.15209
335.14312
335.05959
335.05191
334.96883
334.96245
334.8798
334.87472
334.79247
334.78867
334.7068
334.70426
334.62273
334.62145
334.54022
336.52657
336.49689
336.52898
336.48543
336.51753
336.47123
336.4985
336.44605
336.46563
336.40591
336.41736
336.35098
336.3554
336.28366
336.28258
336.20691
336.20179
336.1234
336.11547
336.03531
336.02557
335.94434
335.93354
335.85175
335.84048
335.75846
335.74717
335.66515
335.65418
335.57231
335.56191
335.48028
335.47064
335.38929
335.38055
335.29951
335.29176
335.21104
335.20435
335.12394
335.11835
335.03825
335.03376
334.95397
334.95058
334.87109
334.8688
334.78957
334.78841
334.7094
336.54184
336.51171
336.54287
336.50096
336.53225
336.48871
336.51668
336.46869
336.49064
336.43671
336.4517
336.39181
336.40036
336.33531
336.33852
336.26939
336.26846
336.19628
336.1923
336.11794
336.11183
336.03595
336.02844
335.95158
335.94326
335.86577
335.85709
335.77925
335.77057
335.69257
335.68417
335.60612
335.59821
335.52021
335.51294
335.43505
335.42853
335.35079
335.34511
335.26754
335.26275
335.18537
335.1815
335.10433
335.10138
335.02441
335.02242
334.94563
334.94462
334.868
336.55567
336.52519
336.55537
336.51499
336.54531
336.50404
336.53216
336.48779
336.5113
336.46223
336.47993
336.42568
336.43764
336.37857
336.3855
336.32238
336.32519
336.25884
336.25848
336.18966
336.18693
336.11626
336.11187
336.03986
336.03436
335.96139
335.95524
335.88161
335.87518
335.8011
335.79467
335.7203
335.71409
335.63956
335.63375
335.55913
335.55385
335.47922
335.47455
335.39996
335.39598
335.32147
335.31821
335.24381
335.24131
335.16703
335.16532
335.09114
335.09027
335.0162
336.5681
336.53735
336.56651
336.5276
336.55686
336.51755
336.5454
336.50402
336.52845
336.48344
336.50313
336.45374
336.46843
336.41468
336.42474
336.36708
336.37318
336.31225
336.31513
336.25155
336.25193
336.18627
336.18477
336.1175
336.11466
336.04615
336.04242
335.97298
335.9687
335.89857
335.89405
335.82341
335.81887
335.74787
335.7435
335.67224
335.66817
335.59676
335.5931
335.52159
335.51842
335.44688
335.44425
335.37273
335.37069
335.29919
335.29779
335.22634
335.22562
335.15421
336.57917
336.5482
336.57632
336.53882
336.56703
336.52944
336.55678
336.51789
336.54274
336.50113
336.52221
336.477
336.4938
336.44473
336.45736
336.40464
336.41354
336.3576
336.36334
336.30468
336.30786
336.24695
336.24812
336.18541
336.18505
336.12089
336.11942
336.05412
336.05189
335.98569
335.98299
335.91609
335.91316
335.84572
335.84274
335.7749
335.77201
335.70387
335.7012
335.63285
335.63048
335.562
335.55999
335.49143
335.48985
335.42124
335.42015
335.35151
335.35095
335.28231
336.58885
336.55776
336.58482
336.54871
336.57588
336.53987
336.56654
336.52978
336.55469
336.51595
336.53791
336.49627
336.51465
336.46967
336.48437
336.43606
336.44731
336.39592
336.40414
336.35004
336.35569
336.29927
336.30284
336.24448
336.24639
336.18643
336.18707
336.1258
336.12549
336.06315
336.06218
335.99899
335.99758
335.93371
335.93205
335.86764
335.8659
335.80106
335.79935
335.7342
335.73261
335.66723
335.66584
335.6003
335.59918
335.53352
335.53273
335.46699
335.46657
335.40079
336.59711
336.56602
336.59205
336.55731
336.5835
336.54897
336.5749
336.53999
336.56469
336.5284
336.55084
336.51225
336.53175
336.49034
336.50664
336.46224
336.47542
336.42814
336.43845
336.38855
336.39636
336.34413
336.34982
336.29559
336.29953
336.2436
336.24615
336.18878
336.19024
336.13168
336.13231
336.07276
336.07278
336.01244
336.01204
335.95104
335.95038
335.88886
335.88805
335.82612
335.82528
335.76304
335.76224
335.69976
335.69908
335.63641
335.63591
335.57312
335.57285
335.50997
336.60388
336.57298
336.59805
336.56466
336.58994
336.55683
336.58198
336.54874
336.57305
336.53887
336.56147
336.52552
336.54574
336.50743
336.52492
336.48399
336.49868
336.45511
336.46715
336.42108
336.43071
336.38237
336.3899
336.33955
336.34529
336.29318
336.29744
336.24382
336.24687
336.19197
336.19406
336.13807
336.13942
336.08253
336.0833
336.02567
336.02603
335.96779
335.96785
335.90912
335.90899
335.84988
335.84965
335.79023
335.78998
335.73032
335.73011
335.67028
335.67016
335.61021
336.6091
336.57865
336.60286
336.57083
336.59527
336.56354
336.58792
336.55621
336.58001
336.54768
336.57021
336.53653
336.55715
336.52155
336.53985
336.50198
336.51782
336.47758
336.49098
336.44841
336.45954
336.41478
336.42387
336.37713
336.38443
336.33592
336.34169
336.29163
336.29611
336.24471
336.24812
336.19558
336.19812
336.1446
336.14645
336.09212
336.09341
336.0384
336.03927
335.98371
335.98425
335.92824
335.92854
335.87218
335.87233
335.81568
335.81573
335.75888
335.75889
335.70189
336.61277
336.58309
336.60655
336.57589
336.59956
336.56919
336.59282
336.56253
336.58576
336.55509
336.57735
336.54567
336.56642
336.53318
336.55199
336.51681
336.53348
336.49619
336.51065
336.47122
336.48356
336.44207
336.45245
336.40905
336.41767
336.37252
336.37959
336.3329
336.33862
336.29056
336.29514
336.24591
336.24952
336.19926
336.20208
336.15096
336.1531
336.10125
336.10285
336.0504
336.05155
335.99861
335.99941
335.94606
335.94658
335.89292
335.89322
335.83932
335.83945
335.78538
336.61496
336.58638
336.60921
336.57993
336.6029
336.57386
336.59677
336.56784
336.59044
336.56127
336.58315
336.55323
336.5739
336.54273
336.56178
336.52898
336.54617
336.51151
336.52673
336.49013
336.50339
336.46489
336.47629
336.43597
336.44566
336.40365
336.4118
336.36827
336.37505
336.33017
336.33575
336.28967
336.29422
336.2471
336.25077
336.20275
336.20565
336.15687
336.15913
336.10971
336.11142
336.06147
336.06273
336.01234
336.0132
335.96248
335.96301
335.91202
335.91227
335.8611
336.61586
336.58863
336.61095
336.58304
336.60537
336.57763
336.59986
336.57222
336.59419
336.5664
336.5878
336.55945
336.57988
336.55053
336.56961
336.53889
336.55636
336.52402
336.53974
336.50568
336.5196
336.48379
336.49598
336.45846
336.46901
336.4299
336.43893
336.39835
336.40601
336.3641
336.37054
336.32745
336.33281
336.28867
336.29308
336.24804
336.25161
336.20579
336.20863
336.16215
336.16436
336.11732
336.11898
336.07149
336.07266
336.0248
336.02555
335.97741
335.97777
335.92944
336.61572
336.59001
336.61189
336.58534
336.60707
336.58061
336.60218
336.57578
336.59711
336.5706
336.59146
336.56452
336.58458
336.55684
336.57577
336.54688
336.56442
336.53414
336.55012
336.51832
336.53267
336.49929
336.51202
336.47708
336.48826
336.45181
336.46153
336.42368
336.43205
336.39293
336.40007
336.35979
336.36582
336.32452
336.32955
336.28735
336.2915
336.24851
336.25186
336.20821
336.21085
336.16663
336.16865
336.12396
336.1254
336.08034
336.08127
336.03592
336.03637
335.99082
336.61486
336.59069
336.61216
336.58694
336.60811
336.58287
336.60382
336.5786
336.59929
336.57399
336.59425
336.5686
336.58819
336.56188
336.5805
336.55324
336.57065
336.5422
336.55824
336.52844
336.54301
336.51181
336.52489
336.49226
336.50388
336.46987
336.48009
336.44477
336.45368
336.41715
336.42484
336.3872
336.39377
336.35515
336.36069
336.32119
336.32581
336.28553
336.28931
336.24837
336.25138
336.20987
336.21219
336.17021
336.17189
336.12953
336.13062
336.08797
336.0885
336.04565
336.61355
336.59085
336.6119
336.58794
336.60856
336.58451
336.60485
336.58077
336.60082
336.57664
336.59628
336.5718
336.59084
336.56581
336.58401
336.55818
336.57531
336.54847
336.56439
336.53638
336.55098
336.52172
336.53496
336.50443
336.5163
336.48451
336.49506
336.46207
336.47135
336.43723
336.44532
336.41015
336.41714
336.38102
336.38697
336.35001
336.35502
336.31731
336.32143
336.28308
336.28639
336.24748
336.25005
336.21067
336.21254
336.17279
336.17401
336.13397
336.13457
336.09432
336.61202
336.59063
336.61123
336.58846
336.60854
336.58561
336.60536
336.58236
336.60177
336.57864
336.59763
336.57422
336.59264
336.56876
336.58643
336.56187
336.5786
336.55317
336.56882
336.54239
336.55686
336.52934
336.54257
336.51392
336.52589
336.49612
336.50684
336.47597
336.48549
336.45358
336.46195
336.42907
336.43635
336.40258
336.40883
336.37427
336.37956
336.34428
336.34868
336.31277
336.31633
336.27989
336.28266
336.24577
336.2478
336.21054
336.21187
336.17433
336.17499
336.13724
336.61041
336.59016
336.61025
336.58858
336.60811
336.58626
336.60541
336.58343
336.60219
336.58004
336.59836
336.57592
336.59368
336.57082
336.58788
336.56443
336.58065
336.55648
336.57173
336.5467
336.56089
336.53492
336.54799
336.52104
336.53295
336.505
336.51576
336.48683
336.49645
336.46658
336.4751
336.44434
336.4518
336.42022
336.42668
336.39435
336.39985
336.36685
336.37145
336.33786
336.3416
336.30751
336.31043
336.2759
336.27806
336.24318
336.24459
336.20944
336.21014
336.17479
336.60878
336.58952
336.60905
336.5884
336.60737
336.58651
336.60507
336.58403
336.60215
336.58089
336.59851
336.57696
336.594
336.57205
336.58843
336.56598
336.58159
336.55852
336.57327
336.54947
336.56327
336.53868
336.55146
336.52602
336.53776
336.51145
336.52212
336.49496
336.50456
336.47655
336.48511
336.45631
336.46386
336.43431
336.44087
336.41064
336.41627
336.38541
336.39014
336.35873
336.3626
336.33071
336.33375
336.30146
336.30371
336.27108
336.27256
336.23968
336.24041
336.20734
336.60717
336.58876
336.60768
336.58797
336.60636
336.58644
336.60438
336.58423
336.60167
336.58123
336.59812
336.57735
336.59364
336.5725
336.58815
336.56656
336.58149
336.55938
336.57354
336.55083
336.56414
336.54077
336.55316
336.52908
336.54053
336.51571
336.52618
336.50061
336.5101
336.4838
336.4923
336.4653
336.47284
336.44517
336.45176
336.42347
336.42915
336.4003
336.40509
336.37573
336.37967
336.34987
336.35298
336.3228
336.3251
336.29461
336.29613
336.2654
336.26615
336.23524
336.60556
336.58793
336.60621
336.58735
336.60515
336.58608
336.6034
336.58404
336.60078
336.58108
336.59719
336.57713
336.59261
336.57218
336.58704
336.56621
336.5804
336.55914
336.57263
336.55088
336.56362
336.54133
336.55325
336.53038
336.54145
336.51796
336.52814
336.50403
336.5133
336.48856
336.49693
336.47157
336.47903
336.45309
336.45964
336.43316
336.43883
336.41184
336.41664
336.3892
336.39316
336.36531
336.36845
336.34026
336.34259
336.31411
336.31565
336.28695
336.28772
336.25885
336.60395
336.58704
336.60466
336.58657
336.60377
336.58547
336.60214
336.58348
336.59949
336.58042
336.59573
336.57626
336.59091
336.57109
336.58511
336.56494
336.57835
336.55783
336.5706
336.54969
336.56179
336.54046
336.55184
336.53005
336.54067
336.51838
336.5282
336.5054
336.51439
336.49107
336.49922
336.47539
336.48268
336.45835
336.46479
336.43998
336.44558
336.42032
336.42509
336.39943
336.40337
336.37735
336.38049
336.35416
336.35649
336.3299
336.33145
336.30466
336.30543
336.27848
336.60231
336.58609
336.60304
336.58567
336.60225
336.58464
336.60062
336.58256
336.59778
336.57925
336.5937
336.57474
336.58851
336.5692
336.58236
336.56275
336.57533
336.55545
336.56746
336.5473
336.55871
336.53824
336.54902
336.5282
336.5383
336.51711
336.5265
336.5049
336.51354
336.49152
336.49939
336.47694
336.48403
336.46116
336.46745
336.44418
336.44967
336.42602
336.4307
336.4067
336.41059
336.38628
336.38938
336.36479
336.3671
336.34229
336.34382
336.31882
336.31959
336.29445
336.60063
336.58508
336.60136
336.58465
336.6006
336.58358
336.59882
336.58126
336.59564
336.57753
336.59108
336.57252
336.58537
336.56649
336.57874
336.55962
336.57134
336.55202
336.56323
336.54373
336.55442
336.53471
336.54485
336.52491
336.53446
336.51424
336.52316
336.50265
336.5109
336.49006
336.49761
336.47644
336.48327
336.46176
336.46784
336.446
336.45133
336.42917
336.43373
336.41128
336.41508
336.39236
336.39539
336.37243
336.37471
336.35155
336.35306
336.32974
336.33049
336.30705
336.5989
336.58402
336.59964
336.58352
336.5988
336.58228
336.59672
336.57953
336.59301
336.5752
336.5878
336.56955
336.58144
336.5629
336.57422
336.5555
336.56635
336.54752
336.55792
336.53899
336.54895
336.52992
336.5394
336.52024
336.52921
336.50988
336.5183
336.49878
336.5066
336.48685
336.49404
336.47404
336.48057
336.46031
336.46615
336.44563
336.45077
336.42999
336.43441
336.41339
336.41708
336.39583
336.39878
336.37734
336.37956
336.35794
336.35942
336.33766
336.3384
336.31654
336.59711
336.58289
336.59786
336.58228
336.59685
336.5807
336.59427
336.57732
336.58981
336.5722
336.58379
336.56574
336.57665
336.55837
336.56874
336.55037
336.56032
336.54192
336.55149
336.53309
336.54229
336.52388
336.53269
336.51425
336.52262
336.50411
336.512
336.49338
336.50076
336.482
336.48881
336.46988
336.47609
336.45698
336.46256
336.44326
336.44818
336.42868
336.43293
336.41324
336.41679
336.39692
336.39978
336.37974
336.38189
336.36171
336.36315
336.34285
336.34357
336.32319
336.59524
336.5817
336.59601
336.58091
336.5947
336.57879
336.59139
336.57453
336.58597
336.56842
336.57896
336.56103
336.57091
336.55283
336.56224
336.54415
336.55321
336.53519
336.54394
336.52601
336.53446
336.51662
336.52475
336.50697
336.51473
336.49697
336.50433
336.48655
336.49346
336.47562
336.48203
336.4641
336.46997
336.45193
336.45722
336.43905
336.44374
336.42542
336.42948
336.41103
336.41443
336.39584
336.39858
336.37986
336.38193
336.36309
336.36447
336.34555
336.34624
336.32723
336.59328
336.58044
336.59409
336.57936
336.59229
336.57646
336.58798
336.57106
336.58136
336.56377
336.5732
336.55531
336.56415
336.54621
336.55466
336.53681
336.54499
336.52731
336.53524
336.51775
336.52546
336.50815
336.5156
336.49844
336.5056
336.48854
336.49536
336.47836
336.4848
336.46781
336.47381
336.45681
336.46233
336.44528
336.45027
336.43315
336.43759
336.42038
336.42424
336.40693
336.41018
336.39278
336.39539
336.3779
336.37987
336.36229
336.36361
336.34595
336.34662
336.3289
336.59122
336.57912
336.59207
336.57759
336.58953
336.57359
336.58392
336.56679
336.57586
336.55813
336.5664
336.54848
336.55627
336.53843
336.54593
336.52829
336.53559
336.51823
336.52538
336.5083
336.51528
336.49847
336.50527
336.48868
336.49526
336.47885
336.48515
336.46888
336.47485
336.45866
336.46425
336.44812
336.45328
336.43715
336.44185
336.4257
336.42989
336.4137
336.41735
336.40112
336.40419
336.3879
336.39038
336.37403
336.37591
336.35949
336.36075
336.34428
336.34491
336.32839
336.58904
336.57775
336.5899
336.5755
336.5863
336.57005
336.57904
336.56155
336.56933
336.55135
336.55845
336.54045
336.54719
336.52941
336.53598
336.51854
336.525
336.50794
336.51432
336.49764
336.50393
336.48759
336.49376
336.47773
336.48374
336.46796
336.47374
336.45816
336.46367
336.44825
336.45343
336.43811
336.44292
336.42766
336.43205
336.41682
336.42075
336.40553
336.40896
336.39373
336.39663
336.38137
336.38372
336.36843
336.37021
336.35488
336.35608
336.34071
336.34131
336.32591
336.58673
336.5763
336.58752
336.57299
336.58243
336.56566
336.57316
336.55518
336.5616
336.54331
336.54922
336.53111
336.53682
336.5191
336.52476
336.50751
336.51316
336.4964
336.50206
336.48577
336.4914
336.47554
336.48111
336.46562
336.47108
336.4559
336.46119
336.44628
336.45135
336.43664
336.44143
336.42688
336.43134
336.4169
336.42099
336.40663
336.4103
336.39598
336.3992
336.3849
336.38763