/*--------------------------------*- C++ -*----------------------------------*\
| =========                 |                                                 |
| \\      /  F ield         | OpenFOAM: The Open Source CFD Toolbox           |
|  \\    /   O peration     | Version:  2312                                  |
|   \\  /    A nd           | Website:  www.openfoam.com                      |
|    \\/     M anipulation  |                                                 |
\*---------------------------------------------------------------------------*/
FoamFile
{
    version     2.0;
    format      ascii;
    arch        "LSB;label=32;scalar=64";
    class       surfaceScalarField;
    location    "3";
    object      phi_0;
}
// * * * * * * * * * * * * * * * * * * * * * * * * * * * * * * * * * * * * * //

dimensions      [0 3 -1 0 0 0 0];

oriented        oriented;

internalField   nonuniform List<scalar> 
7870
(
1.701582e-10
3.2914668e-09
1.7920468e-10
-9.0464688e-12
1.3083211e-10
4.8372565e-11
1.404288e-10
-9.5966787e-12
1.3428586e-10
6.1429398e-12
1.349204e-10
-6.3454791e-13
1.3315633e-10
1.7640723e-12
1.3351198e-10
-3.5564827e-13
1.3265614e-10
8.5583174e-13
1.3322391e-10
-5.6776667e-13
1.3257784e-10
6.4606762e-13
1.3315374e-10
-5.7590514e-13
1.3259426e-10
5.5948686e-13
1.3311475e-10
-5.2048849e-13
1.3262421e-10
4.9053445e-13
1.3308177e-10
-4.5755056e-13
1.3265351e-10
4.2825928e-13
1.3305272e-10
-3.992098e-13
1.3267986e-10
3.7286062e-13
1.3302731e-10
-3.4745046e-13
1.3270332e-10
3.2399677e-13
1.3300498e-10
-3.0166063e-13
1.3272413e-10
2.8084322e-13
1.3298526e-10
-2.6112812e-13
1.3274257e-10
2.426891e-13
1.3296786e-10
-2.252872e-13
1.3275885e-10
2.0901028e-13
1.3295254e-10
-1.9369233e-13
1.3277315e-10
1.7939028e-13
1.3293913e-10
-1.6597194e-13
1.3278564e-10
1.5348157e-13
1.3292745e-10
-1.4180681e-13
1.3279647e-10
1.3098281e-13
1.3291738e-10
-1.2090997e-13
1.3280576e-10
1.1161943e-13
1.3290878e-10
-1.0302363e-13
1.3281363e-10
9.5147685e-14
1.3290155e-10
-8.7916989e-14
1.328202e-10
8.1352911e-14
1.3289559e-10
-7.5391242e-14
1.3282554e-10
7.0048662e-14
1.3289081e-10
-6.5273256e-14
1.3282973e-10
6.1082581e-14
1.3288716e-10
-5.7425723e-14
1.3283284e-10
5.4315348e-14
1.328846e-10
-5.175431e-14
1.3283486e-10
4.9739169e-14
1.3288234e-10
-4.7482828e-14
1.3283257e-10
4.977272e-14
-4.2568669e-14
4.4377123e-10
6.3093206e-09
5.0219569e-10
-6.7470906e-11
3.9252114e-10
1.5804711e-10
4.0407501e-10
-2.1150527e-11
3.9031989e-10
1.9898047e-11
3.9065711e-10
-9.7176723e-13
3.8709906e-10
5.32212e-12
3.8696596e-10
-2.2255805e-13
3.8558999e-10
2.2317972e-12
3.8623773e-10
-1.2155028e-12
3.8530456e-10
1.5792298e-12
3.8610352e-10
-1.3748548e-12
3.8530092e-10
1.3620805e-12
3.8604666e-10
-1.2662151e-12
3.8533933e-10
1.1978697e-12
3.8599882e-10
-1.1170428e-12
3.8538055e-10
1.0465401e-12
3.8595631e-10
-9.7497513e-13
3.8541819e-10
9.1098773e-13
3.8591929e-10
-8.4855009e-13
3.8545197e-10
7.9131807e-13
3.8588687e-10
-7.3656147e-13
3.8548208e-10
6.8563693e-13
3.858583e-10
-6.3734599e-13
3.855088e-10
5.9218831e-13
3.8583309e-10
-5.4957838e-13
3.855324e-10
5.096991e-13
3.8581091e-10
-4.7219743e-13
3.8555314e-10
4.3715455e-13
3.8579148e-10
-4.0430767e-13
3.8557125e-10
3.7370552e-13
3.8577458e-10
-3.4513222e-13
3.8558695e-10
3.1861735e-13
3.8576e-10
-2.939674e-13
3.8560041e-10
2.7121151e-13
3.8574757e-10
-2.5017795e-13
3.8561183e-10
2.3088716e-13
3.857371e-10
-2.1319413e-13
3.8562134e-10
1.9711653e-13
3.8572848e-10
-1.8252679e-13
3.8562909e-10
1.6943761e-13
3.8572156e-10
-1.5774912e-13
3.8563516e-10
1.4748239e-13
3.8571626e-10
-1.3852099e-13
3.8563968e-10
1.308974e-13
3.8571258e-10
-1.2465988e-13
3.8564275e-10
1.1956747e-13
3.857093e-10
-1.1402759e-13
3.856371e-10
1.2196583e-13
-1.0015339e-13
7.3099366e-10
9.0399519e-09
7.9484097e-10
-1.3131818e-10
6.460629e-10
3.0682517e-10
6.6031716e-10
-3.5404776e-11
6.394396e-10
4.0775602e-11
6.3932542e-10
-8.575828e-13
6.3457e-10
1.0077528e-11
6.3363191e-10
7.1552662e-13
6.3218733e-10
3.6763678e-12
6.325717e-10
-1.5998718e-12
6.3170161e-10
2.4493138e-12
6.3241401e-10
-2.0872501e-12
6.3166487e-10
2.111227e-12
6.3236237e-10
-1.9637138e-12
6.316952e-10
1.8650457e-12
6.3231729e-10
-1.7391267e-12
6.3173285e-10
1.630985e-12
6.3227635e-10
-1.5184677e-12
6.3176795e-10
1.419387e-12
6.3224086e-10
-1.3214579e-12
6.3179981e-10
1.2323743e-12
6.3220996e-10
-1.1467117e-12
6.3182835e-10
1.0672436e-12
6.3218278e-10
-9.9176926e-13
6.3185374e-10
9.2122149e-13
6.3215882e-10
-8.5465597e-13
6.3187619e-10
7.92332e-13
6.3213775e-10
-7.3375917e-13
6.3189591e-10
6.7899337e-13
6.321193e-10
-6.2770042e-13
6.3191313e-10
5.7987937e-13
6.3210327e-10
-5.3526994e-13
6.3192804e-10
4.9384493e-13
6.3208944e-10
-4.5536642e-13
6.3194083e-10
4.1981901e-13
6.3207764e-10
-3.8698878e-13
6.3195168e-10
3.5685407e-13
6.3206772e-10
-3.2923835e-13
6.3196071e-10
3.0412388e-13
6.3205954e-10
-2.8134836e-13
6.3196808e-10
2.6089557e-13
6.3205297e-10
-2.426455e-13
6.3197385e-10
2.2660393e-13
6.3204793e-10
-2.1259341e-13
6.3197815e-10
2.006756e-13
6.3204447e-10
-1.9098174e-13
6.3198125e-10
1.827862e-13
6.3204122e-10
-1.7399437e-13
6.3197261e-10
1.9057391e-13
-1.4906301e-13
9.2950499e-10
1.1572072e-08
1.0689182e-09
-2.7073138e-10
8.9226423e-10
4.8347915e-10
9.0952888e-10
-5.2669418e-11
8.8141178e-10
6.8892699e-11
8.8113978e-10
-5.8558902e-13
8.753463e-10
1.5871005e-11
8.7370945e-10
2.3523733e-12
8.7226624e-10
5.1195684e-12
8.7240159e-10
-1.7352173e-12
8.7160806e-10
3.2428332e-12
8.722372e-10
-2.7163839e-12
8.7154537e-10
2.8030655e-12
8.7219414e-10
-2.6124814e-12
8.7156922e-10
2.489967e-12
8.7215237e-10
-2.3222609e-12
8.7160361e-10
2.1797422e-12
8.7211313e-10
-2.0279816e-12
8.7163617e-10
1.8963507e-12
8.7207927e-10
-1.7645546e-12
8.7166602e-10
1.6456191e-12
8.7204996e-10
-1.5306449e-12
8.7169291e-10
1.4242936e-12
8.7202425e-10
-1.3231054e-12
8.7171687e-10
1.2286002e-12
8.7200162e-10
-1.1394057e-12
8.7173805e-10
1.0558943e-12
8.7198173e-10
-9.774314e-13
8.7175667e-10
9.0405245e-13
8.7196432e-10
-8.3535727e-13
8.7177291e-10
7.7129094e-13
8.719492e-10
-7.1156138e-13
8.7178697e-10
6.5607679e-13
8.7193617e-10
-6.0456389e-13
8.7179903e-10
5.5695802e-13
8.7192505e-10
-5.1301091e-13
8.7180925e-10
4.7265433e-13
8.719157e-10
-4.356881e-13
8.7181777e-10
4.0205501e-13
8.7190799e-10
-3.7156268e-13
8.7182472e-10
3.4416431e-13
8.719018e-10
-3.1972729e-13
8.7183016e-10
2.982389e-13
8.7189702e-10
-2.7945195e-13
8.7183421e-10
2.6348477e-13
8.7189379e-10
-2.5055728e-13
8.7183735e-10
2.3923102e-13
8.7189077e-10
-2.2741996e-13
8.7182661e-10
2.5473904e-13
-1.8969385e-13
1.1870264e-09
1.384667e-08
1.3306995e-09
-4.1440436e-10
1.130096e-09
6.8408261e-10
1.1518174e-09
-7.4390866e-11
1.1162658e-09
1.0444437e-10
1.1161058e-09
-4.2557592e-13
1.1094079e-09
2.2568879e-11
1.1072027e-09
4.5575564e-12
1.1058269e-09
6.4953569e-12
1.1057297e-09
-1.6380375e-12
1.1050241e-09
3.9484367e-12
1.1055734e-09
-3.2656757e-12
1.1049422e-09
3.4342698e-12
1.1055418e-09
-3.212085e-12
1.1049611e-09
3.0706463e-12
1.1055038e-09
-2.8649631e-12
1.1049926e-09
2.6910021e-12
1.1054665e-09
-2.5018794e-12
1.1050226e-09
2.3402224e-12
1.1054344e-09
-2.1763041e-12
1.1050504e-09
2.0295731e-12
1.1054068e-09
-1.8869902e-12
1.1050756e-09
1.7554972e-12
1.1053826e-09
-1.6301655e-12
1.105098e-09
1.5132213e-12
1.1053614e-09
-1.4028165e-12
1.1051178e-09
1.299457e-12
1.1053428e-09
-1.2023682e-12
1.1051353e-09
1.1115604e-12
1.1053265e-09
-1.0265808e-12
1.1051505e-09
9.4730754e-13
1.1053124e-09
-8.7343637e-13
1.1051636e-09
8.0479892e-13
1.1053002e-09
-7.411003e-13
1.1051749e-09
6.8221735e-13
1.1052898e-09
-6.2787908e-13
1.1051845e-09
5.7796237e-13
1.105281e-09
-5.3225716e-13
1.1051924e-09
4.9065912e-13
1.1052738e-09
-4.5295217e-13
1.1051989e-09
4.1905509e-13
1.105268e-09
-3.888334e-13
1.105204e-09
3.6225024e-13
1.1052636e-09
-3.3898388e-13
1.1052078e-09
3.1923548e-13
1.1052606e-09
-3.0330402e-13
1.1052109e-09
2.8884473e-13
1.1052579e-09
-2.7436441e-13
1.1051988e-09
3.1383181e-13
-2.2206651e-13
1.38846e-09
1.5919835e-08
1.5708624e-09
-5.9680666e-10
1.3611226e-09
8.9382233e-10
1.3869294e-09
-1.0019761e-10
1.3439335e-09
1.4744027e-10
1.3441983e-09
-6.9040049e-13
1.3367388e-09
3.0028356e-11
1.3341283e-09
7.1680701e-12
1.332871e-09
7.7526112e-12
1.3325602e-09
-1.3272008e-12
1.3319506e-09
4.5580064e-12
1.3324236e-09
-3.738674e-12
1.3318554e-09
4.0024713e-12
1.3324057e-09
-3.7623619e-12
1.3318708e-09
3.605536e-12
1.3323719e-09
-3.366069e-12
1.3318996e-09
3.1633056e-12
1.3323366e-09
-2.9388545e-12
1.3319272e-09
2.7496826e-12
1.3323064e-09
-2.5554946e-12
1.3319529e-09
2.3830816e-12
1.3322806e-09
-2.214687e-12
1.3319762e-09
2.0598686e-12
1.3322581e-09
-1.9120484e-12
1.331997e-09
1.7742616e-12
1.3322383e-09
-1.644142e-12
1.3320155e-09
1.5223452e-12
1.3322211e-09
-1.4079625e-12
1.3320316e-09
1.3009748e-12
1.3322059e-09
-1.2008867e-12
1.3320458e-09
1.1075e-12
1.3321928e-09
-1.0205157e-12
1.332058e-09
9.3967855e-13
1.3321815e-09
-8.6468479e-13
1.3320684e-09
7.9534507e-13
1.3321719e-09
-7.3137718e-13
1.3320773e-09
6.7259713e-13
1.3321638e-09
-6.187947e-13
1.3320847e-09
5.6981312e-13
1.3321571e-09
-5.2541909e-13
1.3320907e-09
4.8549525e-13
1.3321518e-09
-4.4991406e-13
1.3320954e-09
4.1860747e-13
1.3321476e-09
-3.9117759e-13
1.3320989e-09
3.6793653e-13
1.3321448e-09
-3.4923621e-13
1.332102e-09
3.316731e-13
1.3321426e-09
-3.1495224e-13
1.332089e-09
3.6739801e-13
-2.4634803e-13
1.5952467e-09
1.7786214e-08
1.8018583e-09
-8.0341823e-10
1.5846377e-09
1.1110429e-09
1.6138831e-09
-1.29443e-10
1.5646515e-09
1.9667181e-10
1.5655089e-09
-1.5478004e-12
1.5573751e-09
3.816222e-11
1.5545108e-09
1.0032322e-11
1.5534011e-09
8.8623003e-12
1.5528975e-09
-8.2358618e-13
1.5523889e-09
5.0665845e-12
1.552789e-09
-4.1387203e-12
1.5522852e-09
4.5061952e-12
1.5527862e-09
-4.2633242e-12
1.5522982e-09
4.0935388e-12
1.5527569e-09
-3.8247339e-12
1.5523246e-09
3.5955716e-12
1.5527237e-09
-3.33796e-12
1.5523496e-09
3.1237765e-12
1.5526954e-09
-2.9012699e-12
1.5523732e-09
2.7053358e-12
1.5526715e-09
-2.5130083e-12
1.5523946e-09
2.336744e-12
1.5526507e-09
-2.1681616e-12
1.5524138e-09
2.0111908e-12
1.5526326e-09
-1.8629125e-12
1.5524308e-09
1.7241465e-12
1.5526167e-09
-1.5938549e-12
1.5524456e-09
1.4719859e-12
1.5526028e-09
-1.3580107e-12
1.5524586e-09
1.2516455e-12
1.5525907e-09
-1.1526128e-12
1.5524698e-09
1.060564e-12
1.5525804e-09
-9.7519718e-13
1.5524794e-09
8.9625126e-13
1.5525715e-09
-8.2344122e-13
1.5524876e-09
7.5651765e-13
1.5525641e-09
-6.9528211e-13
1.5524944e-09
6.395208e-13
1.5525579e-09
-5.8898615e-13
1.5524999e-09
5.4352443e-13
1.552553e-09
-5.0302424e-13
1.5525042e-09
4.6738036e-13
1.5525492e-09
-4.3611843e-13
1.5525074e-09
4.0968728e-13
1.5525467e-09
-3.8845362e-13
1.5525105e-09
3.6785435e-13
1.5525449e-09
-3.4937141e-13
1.5524971e-09
4.1513795e-13
-2.6291532e-13
1.7841448e-09
1.9463694e-08
2.009485e-09
-1.0287584e-09
1.7989975e-09
1.3215304e-09
1.8281253e-09
-1.5857085e-10
1.7777269e-09
2.4707025e-10
1.7798659e-09
-3.686827e-12
1.7712858e-09
4.6742376e-11
1.7683582e-09
1.2959912e-11
1.7674152e-09
9.8052901e-12
1.766744e-09
-1.5238562e-13
1.7663397e-09
5.4708263e-12
1.7666701e-09
-4.4690517e-12
1.7662317e-09
4.9445114e-12
1.7666835e-09
-4.7151159e-12
1.7662432e-09
4.5339014e-12
1.7666588e-09
-4.2403803e-12
1.7662674e-09
3.9870468e-12
1.766628e-09
-3.6985663e-12
1.7662899e-09
3.4618723e-12
1.7666017e-09
-3.2130884e-12
1.7663112e-09
2.995836e-12
1.7665797e-09
-2.7815242e-12
1.7663307e-09
2.5857427e-12
1.7665607e-09
-2.3981804e-12
1.7663482e-09
2.2237339e-12
1.7665442e-09
-2.0589004e-12
1.7663637e-09
1.9046762e-12
1.7665297e-09
-1.7598998e-12
1.7663772e-09
1.6244851e-12
1.7665171e-09
-1.497876e-12
1.766389e-09
1.3796978e-12
1.7665061e-09
-1.2697078e-12
1.7663992e-09
1.1674592e-12
1.7664967e-09
-1.0726622e-12
1.7664079e-09
9.8498007e-13
1.7664886e-09
-9.0413334e-13
1.7664154e-09
8.2980512e-13
1.7664819e-09
-7.6181535e-13
1.7664215e-09
6.998913e-13
1.7664763e-09
-6.437749e-13
1.7664266e-09
5.9327749e-13
1.7664718e-09
-5.4831082e-13
1.7664305e-09
5.0872498e-13
1.7664683e-09
-4.7397245e-13
1.7664334e-09
4.4466425e-13
1.7664661e-09
-4.211327e-13
1.7664363e-09
3.9760113e-13
1.7664648e-09
-3.7785623e-13
1.766423e-09
4.5688469e-13
-2.7229972e-13
1.951401e-09
2.0973918e-08
2.2072642e-09
-1.2846215e-09
2.005041e-09
1.5237536e-09
2.0279049e-09
-1.8143469e-10
1.9832389e-09
2.917362e-10
1.9873057e-09
-7.7536276e-12
1.9785232e-09
5.5524918e-11
1.9756836e-09
1.5799494e-11
1.9749143e-09
1.0574527e-11
1.9741031e-09
6.5887653e-13
1.9738047e-09
5.7691741e-12
1.9740679e-09
-4.7321785e-12
1.9736953e-09
5.3171028e-12
1.974098e-09
-5.117864e-12
1.9737057e-09
4.9262177e-12
1.974078e-09
-4.6126418e-12
1.9737277e-09
4.337287e-12
1.9740495e-09
-4.0203233e-12
1.9737477e-09
3.7636327e-12
1.9740253e-09
-3.4906894e-12
1.9737668e-09
3.2543545e-12
1.9740054e-09
-3.0200634e-12
1.9737844e-09
2.8067329e-12
1.9739882e-09
-2.6020168e-12
1.9738001e-09
2.4118375e-12
1.9739733e-09
-2.232085e-12
1.973814e-09
2.0639443e-12
1.9739603e-09
-1.9061341e-12
1.9738262e-09
1.7585341e-12
1.9739489e-09
-1.6205661e-12
1.9738368e-09
1.4917598e-12
1.9739391e-09
-1.3719191e-12
1.973846e-09
1.2604978e-12
1.9739306e-09
-1.1572269e-12
1.9738539e-09
1.0616925e-12
1.9739234e-09
-9.736252e-13
1.9738605e-09
8.9263938e-13
1.9739173e-09
-8.1858361e-13
1.9738661e-09
7.511249e-13
1.9739123e-09
-6.8999364e-13
1.9738706e-09
6.3496881e-13
1.9739083e-09
-5.8599419e-13
1.9738741e-09
5.4286867e-13
1.9739051e-09
-5.0497514e-13
1.9738767e-09
4.7310768e-13
1.9739031e-09
-4.4750978e-13
1.9738795e-09
4.2118996e-13
1.9739023e-09
-4.0068709e-13
1.9738666e-09
4.9258314e-13
-2.7512827e-13
2.1112694e-09
2.2324273e-08
2.3862821e-09
-1.5596341e-09
2.2006101e-09
1.7094256e-09
2.2159674e-09
-1.9679199e-10
2.1815518e-09
3.2615177e-10
2.1876463e-09
-1.3848066e-11
2.1790695e-09
6.4101683e-11
2.1764773e-09
1.8391666e-11
2.1758971e-09
1.1154707e-11
2.1749758e-09
1.5802111e-12
2.1747848e-09
5.9601385e-12
2.1749828e-09
-4.9301263e-12
2.1746759e-09
5.623969e-12
2.1750298e-09
-5.471777e-12
2.1746857e-09
5.2703439e-12
2.1750145e-09
-4.9413747e-12
2.1747056e-09
4.6461269e-12
2.1749885e-09
-4.3031462e-12
2.1747231e-09
4.0289883e-12
2.1749665e-09
-3.7340686e-12
2.1747399e-09
3.4809128e-12
2.1749486e-09
-3.2286909e-12
2.1747555e-09
2.9998036e-12
2.1749333e-09
-2.7797883e-12
2.1747694e-09
2.5756429e-12
2.17492e-09
-2.382629e-12
2.1747818e-09
2.202131e-12
2.1749084e-09
-2.0327535e-12
2.1747926e-09
1.8743426e-12
2.1748984e-09
-1.7263008e-12
2.174802e-09
1.5880627e-12
2.1748896e-09
-1.4594865e-12
2.1748102e-09
1.3399259e-12
2.1748821e-09
-1.2291421e-12
2.1748172e-09
1.126644e-12
2.1748757e-09
-1.0321772e-12
2.1748231e-09
9.452883e-13
2.1748703e-09
-8.6585823e-13
2.174828e-09
7.9349523e-13
2.1748659e-09
-7.2791933e-13
2.174832e-09
6.6888029e-13
2.1748623e-09
-6.1636046e-13
2.1748351e-09
5.7009969e-13
2.1748596e-09
-5.294179e-13
2.1748373e-09
4.9531169e-13
2.1748577e-09
-4.6787655e-13
2.17484e-09
4.3894606e-13
2.1748574e-09
-4.1817356e-13
2.1748278e-09
5.222759e-13
-2.7209501e-13
2.2682744e-09
2.3517624e-08
2.555031e-09
-1.8463907e-09
2.383781e-09
1.8806755e-09
2.3955684e-09
-2.0857928e-10
2.3729729e-09
3.4874727e-10
2.3806877e-09
-2.1562952e-11
2.3729481e-09
7.1841326e-11
2.3707587e-09
2.0581002e-11
2.3703669e-09
1.1546544e-11
2.3693658e-09
2.58131e-12
2.3692823e-09
6.04363e-12
2.3694159e-09
-5.0636687e-12
2.3691741e-09
5.8657219e-12
2.3694793e-09
-5.7770069e-12
2.3691832e-09
5.5664583e-12
2.3694685e-09
-5.2266194e-12
2.3692009e-09
4.9136851e-12
2.369445e-09
-4.5471892e-12
2.3692158e-09
4.2581251e-12
2.3694252e-09
-3.9434546e-12
2.3692304e-09
3.6757565e-12
2.3694094e-09
-3.4076787e-12
2.3692439e-09
3.1652421e-12
2.3693959e-09
-2.9317987e-12
2.3692561e-09
2.7154623e-12
2.3693844e-09
-2.5108524e-12
2.3692669e-09
2.3195638e-12
2.3693743e-09
-2.1400895e-12
2.3692764e-09
1.972246e-12
2.3693655e-09
-1.8154186e-12
2.3692846e-09
1.668947e-12
2.3693578e-09
-1.5327501e-12
2.3692917e-09
1.4060839e-12
2.3693513e-09
-1.2887469e-12
2.3692978e-09
1.1801753e-12
2.3693457e-09
-1.0801295e-12
2.3693029e-09
9.8808879e-13
2.369341e-09
-9.0397569e-13
2.3693072e-09
8.2734145e-13
2.3693372e-09
-7.5789103e-13
2.3693107e-09
6.9534879e-13
2.3693341e-09
-6.3974588e-13
2.3693134e-09
5.9075584e-13
2.3693316e-09
-5.4764027e-13
2.3693153e-09
5.1161299e-13
2.36933e-09
-4.825643e-13
2.3693177e-09
4.5123694e-13
2.3693302e-09
-4.3065791e-13
2.3693064e-09
5.4608656e-13
-2.6392989e-13
2.4180858e-09
2.4561163e-08
2.706209e-09
-2.1345138e-09
2.5598065e-09
2.027078e-09
2.5698257e-09
-2.185985e-10
2.5579384e-09
3.6063458e-10
2.5664636e-09
-3.0088184e-11
2.560196e-09
7.8108927e-11
2.5585351e-09
2.2241918e-11
2.5583239e-09
1.175774e-11
2.5572736e-09
3.6315947e-12
2.5572983e-09
6.0189527e-12
2.5573673e-09
-5.132721e-12
2.5571898e-09
6.0432567e-12
2.5574466e-09
-6.0338254e-12
2.5571981e-09
5.8149449e-12
2.5574402e-09
-5.4686462e-12
2.5572135e-09
5.1403191e-12
2.5574192e-09
-4.7528427e-12
2.5572259e-09
4.4514529e-12
2.5574017e-09
-4.1192888e-12
2.5572381e-09
3.8393326e-12
2.5573879e-09
-3.5574874e-12
2.5572497e-09
3.3035075e-12
2.5573764e-09
-3.0585086e-12
2.5572601e-09
2.8317564e-12
2.5573664e-09
-2.6172136e-12
2.5572693e-09
2.4166965e-12
2.5573578e-09
-2.228591e-12
2.5572774e-09
2.0526884e-12
2.5573503e-09
-1.8883563e-12
2.5572844e-09
1.734845e-12
2.5573438e-09
-1.5921378e-12
2.5572905e-09
1.4593927e-12
2.5573382e-09
-1.3364545e-12
2.5572957e-09
1.2226922e-12
2.5573334e-09
-1.117883e-12
2.5573001e-09
1.0214406e-12
2.5573294e-09
-9.333304e-13
2.5573037e-09
8.5305134e-13
2.5573261e-09
-7.8029323e-13
2.5573067e-09
7.1475768e-13
2.5573235e-09
-6.5653179e-13
2.557309e-09
6.0521526e-13
2.5573214e-09
-5.6001771e-13
2.5573106e-09
5.2238335e-13
2.55732e-09
-4.9194197e-13
2.5573128e-09
4.5845783e-13
2.5573206e-09
-4.3849683e-13
2.5573025e-09
5.6420884e-13
-2.513845e-13
2.5619266e-09
2.5460862e-08
2.8523005e-09
-2.4248877e-09
2.7292853e-09
2.1500932e-09
2.7384231e-09
-2.2773627e-10
2.7363839e-09
3.6267375e-10
2.7452882e-09
-3.8992458e-11
2.7409061e-09
8.2491071e-11
2.7398281e-09
2.3319851e-11
2.7397715e-09
1.1814401e-11
2.7387008e-09
4.702201e-12
2.7388348e-09
5.8849998e-12
2.7388379e-09
-5.1358283e-12
2.7387232e-09
6.1580166e-12
2.7389318e-09
-6.2424893e-12
2.7387303e-09
6.0164456e-12
2.7389296e-09
-5.6679186e-12
2.7387433e-09
5.3266201e-12
2.7389112e-09
-4.9207058e-12
2.738753e-09
4.6095886e-12
2.738896e-09
-4.2622002e-12
2.738763e-09
3.9722633e-12
2.7388843e-09
-3.6787361e-12
2.7387726e-09
3.4152103e-12
2.7388746e-09
-3.1605193e-12
2.7387812e-09
2.9251119e-12
2.7388663e-09
-2.702285e-12
2.7387889e-09
2.4940891e-12
2.7388591e-09
-2.2988037e-12
2.7387956e-09
2.1162022e-12
2.7388529e-09
-1.945634e-12
2.7388015e-09
1.7862654e-12
2.7388475e-09
-1.6381458e-12
2.7388065e-09
1.5003383e-12
2.7388428e-09
-1.3727387e-12
2.7388108e-09
1.2546597e-12
2.7388389e-09
-1.1458933e-12
2.7388145e-09
1.0457877e-12
2.7388355e-09
-9.5435834e-13
2.7388175e-09
8.7105706e-13
2.7388328e-09
-7.9555155e-13
2.73882e-09
7.2752414e-13
2.7388306e-09
-6.6712999e-13
2.738822e-09
6.1388695e-13
2.7388289e-09
-5.6695522e-13
2.7388233e-09
5.2801895e-13
2.7388277e-09
-4.9640034e-13
2.7388251e-09
4.6102827e-13
2.7388287e-09
-4.4206742e-13
2.738816e-09
5.7689163e-13
-2.3520715e-13
2.7095793e-09
2.6212907e-08
2.9869784e-09
-2.7022867e-09
2.8933847e-09
2.2436869e-09
2.9012877e-09
-2.3563926e-10
2.9085371e-09
3.5542432e-10
2.9176036e-09
-4.8058937e-11
2.9151562e-09
8.4938468e-11
2.9146502e-09
2.3825854e-11
2.9147118e-09
1.1752779e-11
2.9136475e-09
5.7664986e-12
2.9138931e-09
5.6394522e-12
2.913828e-09
-5.07074e-12
2.9137742e-09
6.2117887e-12
2.9139351e-09
-6.4033294e-12
2.9137797e-09
6.1717809e-12
2.9139369e-09
-5.8251149e-12
2.9137902e-09
5.4733719e-12
2.9139211e-09
-5.0515779e-12
2.9137973e-09
4.7333224e-12
2.9139081e-09
-4.3729848e-12
2.9138051e-09
4.0753227e-12
2.9138985e-09
-3.7721858e-12
2.9138126e-09
3.5010852e-12
2.9138907e-09
-3.2385437e-12
2.9138195e-09
2.9962207e-12
2.913884e-09
-2.766737e-12
2.9138257e-09
2.5523895e-12
2.9138783e-09
-2.351354e-12
2.9138311e-09
2.1633942e-12
2.9138733e-09
-1.9878381e-12
2.9138357e-09
1.8237777e-12
2.9138689e-09
-1.6713297e-12
2.9138398e-09
1.5294604e-12
2.9138652e-09
-1.3981218e-12
2.9138433e-09
1.2765835e-12
2.913862e-09
-1.1646531e-12
2.9138462e-09
1.0616153e-12
2.9138594e-09
-9.6753282e-13
2.9138486e-09
8.8181774e-13
2.9138572e-09
-8.0411701e-13
2.9138506e-09
7.3409421e-13
2.9138555e-09
-6.7197898e-13
2.9138521e-09
6.1720146e-13
2.9138541e-09
-5.6887667e-13
2.9138532e-09
5.2893532e-13
2.9138531e-09
-4.963521e-13
2.9138548e-09
4.5937768e-13
2.9138544e-09
-4.4174791e-13
2.9138469e-09
5.8443037e-13
-2.1613578e-13
2.8515048e-09
2.6823027e-08
3.1211132e-09
-2.9718951e-09
3.0530533e-09
2.3117468e-09
3.0582629e-09
-2.4084886e-10
3.0744566e-09
3.3923057e-10
3.0836869e-09
-5.7289142e-11
3.0830047e-09
8.5620662e-11
3.0830199e-09
2.3810606e-11
3.0831486e-09
1.1624044e-11
3.082116e-09
6.7991254e-12
3.0824739e-09
5.281588e-12
3.0823381e-09
-4.9349587e-12
3.0823431e-09
6.2067993e-12
3.0824564e-09
-6.5166613e-12
3.0823462e-09
6.2819792e-12
3.0824622e-09
-5.9410914e-12
3.082354e-09
5.5815375e-12
3.0824489e-09
-5.1464291e-12
3.0823586e-09
4.8235976e-12
3.0824382e-09
-4.4525812e-12
3.0823641e-09
4.1494102e-12
3.0824307e-09
-3.8387106e-12
3.0823698e-09
3.5619738e-12
3.0824246e-09
-3.2933941e-12
3.082375e-09
3.0458611e-12
3.0824196e-09
-2.8113164e-12
3.0823796e-09
2.5923162e-12
3.0824152e-09
-2.3869317e-12
3.0823837e-09
2.194928e-12
3.0824114e-09
-2.0156085e-12
3.0823872e-09
1.8479999e-12
3.0824082e-09
-1.6922859e-12
3.0823903e-09
1.5473384e-12
3.0824053e-09
-1.4131645e-12
3.0823929e-09
1.2890068e-12
3.082403e-09
-1.1746889e-12
3.0823951e-09
1.0694314e-12
3.082401e-09
-9.7334857e-13
3.082397e-09
8.8581942e-13
3.0823993e-09
-8.0646355e-13
3.0823985e-09
7.3492919e-13
3.082398e-09
-6.71531e-13
3.0823996e-09
6.1560383e-13
3.082397e-09
-5.6621924e-13
3.0824003e-09
5.2555703e-13
3.0823962e-09
-4.9221623e-13
3.0824016e-09
4.5394491e-13
3.0823978e-09
-4.3792648e-13
3.0823951e-09
5.8715361e-13
-1.9487774e-13
3.0016796e-09
2.7282973e-08
3.2465728e-09
-3.2167883e-09
3.2077571e-09
2.3505625e-09
3.2093999e-09
-2.4249167e-10
3.2342641e-09
3.1436635e-10
3.2436799e-09
-6.6704972e-11
3.2444722e-09
8.482841e-11
3.2449364e-09
2.3346407e-11
3.2450847e-09
1.1475716e-11
3.2441148e-09
7.7690012e-12
3.2445763e-09
4.820082e-12
3.2443687e-09
-4.7273725e-12
3.2444298e-09
6.145737e-12
3.244496e-09
-6.5828076e-12
3.2444297e-09
6.3482478e-12
3.2445055e-09
-6.0168692e-12
3.2444348e-09
5.6522336e-12
3.2444947e-09
-5.2063805e-12
3.2444369e-09
4.8814829e-12
3.2444863e-09
-4.5020469e-12
3.2444402e-09
4.1955313e-12
3.2444808e-09
-3.8792827e-12
3.244444e-09
3.5988004e-12
3.2444765e-09
-3.3259553e-12
3.2444475e-09
3.0748803e-12
3.244473e-09
-2.8368339e-12
3.2444507e-09
2.6146436e-12
3.24447e-09
-2.4062776e-12
3.2444534e-09
2.2115134e-12
3.2444675e-09
-2.0296244e-12
3.2444559e-09
1.8595852e-12
3.2444652e-09
-1.701646e-12
3.244458e-09
1.5545827e-12
3.2444633e-09
-1.4184547e-12
3.2444598e-09
1.2924932e-12
3.2444617e-09
-1.1765438e-12
3.2444613e-09
1.0697677e-12
3.2444603e-09
-9.7232044e-13
3.2444625e-09
8.8355656e-13
3.2444592e-09
-8.0307404e-13
3.2444636e-09
7.305045e-13
3.2444583e-09
-6.6624831e-13
3.2444644e-09
6.0954386e-13
3.2444576e-09
-5.5942507e-13
3.2444648e-09
5.183156e-13
3.244457e-09
-4.8441981e-13
3.2444658e-09
4.4516383e-13
3.2444588e-09
-4.3098146e-13
3.2444606e-09
5.8541656e-13
-1.7210862e-13
3.1323342e-09
2.7612264e-08
3.3697154e-09
-3.4541695e-09
3.3582403e-09
2.3620376e-09
3.3562299e-09
-2.4048121e-10
3.388178e-09
2.824182e-10
3.3975832e-09
-7.6110209e-11
3.3995651e-09
8.2846582e-11
3.4003885e-09
2.2522988e-11
3.4005252e-09
1.1338938e-11
3.3996575e-09
8.6367629e-12
3.4001974e-09
4.2801258e-12
3.3999205e-09
-4.4504316e-12
3.4000346e-09
6.0316641e-12
3.4000539e-09
-6.6020806e-12
3.4000301e-09
6.3719911e-12
3.4000668e-09
-6.0535928e-12
3.4000324e-09
5.6867192e-12
3.4000587e-09
-5.2326696e-12
3.400032e-09
4.9081557e-12
3.4000525e-09
-4.5225352e-12
3.4000332e-09
4.2147733e-12
3.4000489e-09
-3.8949465e-12
3.4000351e-09
3.6125579e-12
3.4000464e-09
-3.337176e-12
3.4000371e-09
3.0841782e-12
3.4000444e-09
-2.8441455e-12
3.4000388e-09
2.6201879e-12
3.4000427e-09
-2.4101688e-12
3.4000403e-09
2.2138915e-12
3.4000413e-09
-2.0305948e-12
3.4000417e-09
1.8592125e-12
3.4000401e-09
-1.7000602e-12
3.4000429e-09
1.5518217e-12
3.400039e-09
-1.4145993e-12
3.4000439e-09
1.287627e-12
3.4000381e-09
-1.1707784e-12
3.4000447e-09
1.0631597e-12
3.4000374e-09
-9.649676e-13
3.4000454e-09
8.7553662e-13
3.4000368e-09
-7.9443868e-13
3.400046e-09
7.2129456e-13
3.4000363e-09
-6.5659331e-13
3.4000464e-09
5.9947231e-13
3.4000359e-09
-5.4893577e-13
3.4000466e-09
5.0763851e-13
3.4000355e-09
-4.7338297e-13
3.4000472e-09
4.3346607e-13
3.4000375e-09
-4.2129284e-13
3.4000434e-09
5.7958888e-13
-1.484556e-13
3.2819877e-09
2.7791901e-08
3.4860873e-09
-3.658269e-09
3.5036513e-09
2.3444736e-09
3.4995866e-09
-2.3641649e-10
3.5363051e-09
2.4569967e-10
3.5453808e-09
-8.5185874e-11
3.5482829e-09
7.9944387e-11
3.5493631e-09
2.1442834e-11
3.5494797e-09
1.1222367e-11
3.5487516e-09
9.3648453e-12
3.5493319e-09
3.6997981e-12
3.548993e-09
-4.1115371e-12
3.5491574e-09
5.8672918e-12
3.5491302e-09
-6.574869e-12
3.5491474e-09
6.3547387e-12
3.5491464e-09
-6.0525222e-12
3.5491467e-09
5.6863672e-12
3.5491407e-09
-5.2266327e-12
3.549144e-09
4.904877e-12
3.5491367e-09
-4.515273e-12
3.5491432e-09
4.2082914e-12
3.5491351e-09
-3.8868068e-12
3.5491433e-09
3.6042878e-12
3.5491342e-09
-3.3280453e-12
3.5491437e-09
3.0746944e-12
3.5491337e-09
-2.8341441e-12
3.5491441e-09
2.6097957e-12
3.5491333e-09
-2.3994093e-12
3.5491444e-09
2.2028269e-12
3.549133e-09
-2.0192463e-12
3.5491447e-09
1.8475757e-12
3.5491328e-09
-1.688194e-12
3.5491449e-09
1.539695e-12
3.5491325e-09
-1.4022145e-12
3.5491452e-09
1.2749969e-12
3.5491323e-09
-1.1579536e-12
3.5491454e-09
1.0501521e-12
3.5491322e-09
-9.5181496e-13
3.5491455e-09
8.6225972e-13
3.5491321e-09
-7.8104377e-13
3.5491456e-09
7.0777552e-13
3.549132e-09
-6.430235e-13
3.5491457e-09
5.858314e-13
3.5491319e-09
-5.3518676e-13
3.5491456e-09
4.9394967e-13
3.5491318e-09
-4.5952228e-13
3.549146e-09
4.1926666e-13
3.5491339e-09
-4.0922216e-13
3.5491434e-09
5.700503e-13
-1.2450053e-13
3.4049856e-09
2.784854e-08
3.597579e-09
-3.8508624e-09
3.6438885e-09
2.2981641e-09
3.639832e-09
-2.3235988e-10
3.6785819e-09
2.0694967e-10
3.6870119e-09
-9.3615858e-11
3.6906097e-09
7.6346651e-11
3.6918545e-09
2.0197978e-11
3.691957e-09
1.1119836e-11
3.6913924e-09
9.9294835e-12
3.6919737e-09
3.1185388e-12
3.6915847e-09
-3.7225924e-12
3.6917979e-09
5.6540665e-12
3.6917248e-09
-6.501746e-12
3.6917815e-09
6.2980466e-12
3.691744e-09
-6.0150452e-12
3.6917778e-09
5.6526211e-12
3.6917409e-09
-5.1896906e-12
3.6917728e-09
4.8729684e-12
3.691739e-09
-4.4815466e-12
3.6917701e-09
4.1772846e-12
3.6917393e-09
-3.856008e-12
3.6917685e-09
3.5750695e-12
3.69174e-09
-3.2995886e-12
3.6917673e-09
3.047395e-12
3.6917409e-09
-2.8077434e-12
3.6917664e-09
2.5843326e-12
3.6917418e-09
-2.3748188e-12
3.6917655e-09
2.1790959e-12
3.6917426e-09
-1.9963164e-12
3.6917648e-09
1.8253758e-12
3.6917433e-09
-1.6667136e-12
3.6917642e-09
1.5188427e-12
3.6917439e-09
-1.3819183e-12
3.6917637e-09
1.2551976e-12
3.6917444e-09
-1.1386352e-12
3.6917632e-09
1.031279e-12
3.6917448e-09
-9.3337737e-13
3.6917628e-09
8.442282e-13
3.6917451e-09
-7.6336959e-13
3.6917625e-09
6.904084e-13
3.6917455e-09
-6.2598688e-13
3.6917623e-09
5.690547e-13
3.6917457e-09
-5.1860076e-13
3.691762e-09
4.7765693e-13
3.6917457e-09
-4.4323678e-13
3.691762e-09
4.0297026e-13
3.6917479e-09
-3.9512618e-13
3.6917607e-09
5.5717969e-13
-1.0076587e-13
3.5563551e-09
2.775381e-08
3.7056628e-09
-4.0001701e-09
3.7785268e-09
2.2253001e-09
3.7760751e-09
-2.2990812e-10
3.8148871e-09
1.6813761e-10
3.8224627e-09
-1.0119147e-10
3.826535e-09
7.2274343e-11
3.8278665e-09
1.8866516e-11
3.8279647e-09
1.102159e-11
3.8275711e-09
1.0323069e-11
3.8281193e-09
2.5704051e-12
3.8276943e-09
-3.2976111e-12
3.8279561e-09
5.3922553e-12
3.8278378e-09
-6.3834079e-12
3.8279323e-09
6.2035071e-12
3.8278599e-09
-5.9426324e-12
3.8279255e-09
5.5869859e-12
3.8278592e-09
-5.1233271e-12
3.8279184e-09
4.8137938e-12
3.8278595e-09
-4.4226829e-12
3.8279138e-09
4.1229874e-12
3.8278615e-09
-3.8037263e-12
3.8279106e-09
3.5260038e-12
3.8278638e-09
-3.2528468e-12
3.827908e-09
3.003263e-12
3.8278661e-09
-2.765873e-12
3.8279058e-09
2.5446755e-12
3.8278682e-09
-2.3372255e-12
3.8279038e-09
2.143481e-12
3.82787e-09
-1.9625438e-12
3.8279021e-09
1.7933135e-12
3.8278716e-09
-1.6362852e-12
3.8279006e-09
1.4898992e-12
3.827873e-09
-1.3543214e-12
3.8278994e-09
1.2288143e-12
3.8278741e-09
-1.113378e-12
3.8278983e-09
1.0070729e-12
3.8278751e-09
-9.1016374e-13
3.8278974e-09
8.2192339e-13
3.8278759e-09
-7.4188314e-13
3.8278967e-09
6.6964565e-13
3.8278766e-09
-6.0591392e-13
3.8278961e-09
5.4955869e-13
3.8278771e-09
-4.9958545e-13
3.8278956e-09
4.5915441e-13
3.8278773e-09
-4.249131e-13
3.8278953e-09
3.8495669e-13
3.8278795e-09
-3.7933627e-13
3.8278953e-09
5.4135281e-13
-7.7721062e-14
3.677827e-09
2.7537608e-08
3.8088222e-09
-4.1311652e-09
3.9082147e-09
2.1259076e-09
3.9076435e-09
-2.2933695e-10
3.9450652e-09
1.3071591e-10
3.9516551e-09
-1.0778132e-10
3.9560344e-09
6.7895005e-11
3.9573975e-09
1.7503409e-11
3.9575044e-09
1.0914714e-11
3.9572797e-09
1.0547769e-11
3.9577676e-09
2.0824978e-12
3.9573211e-09
-2.851123e-12
3.9576315e-09
5.0818462e-12
3.9574689e-09
-6.2208438e-12
3.9575997e-09
6.0727171e-12
3.9574939e-09
-5.8368328e-12
3.9575899e-09
5.4910001e-12
3.9574957e-09
-5.0290748e-12
3.9575807e-09
4.7287439e-12
3.9574981e-09
-4.3400382e-12
3.9575744e-09
4.0466497e-12
3.9575018e-09
-3.7311521e-12
3.9575696e-09
3.4582063e-12
3.9575057e-09
-3.1888765e-12
3.9575657e-09
2.9432882e-12
3.9575092e-09
-2.7094653e-12
3.9575622e-09
2.491703e-12
3.9575124e-09
-2.2874576e-12
3.9575592e-09
2.0967616e-12
3.9575153e-09
-1.918664e-12
3.9575565e-09
1.7520823e-12
3.9575178e-09
-1.5975625e-12
3.9575542e-09
1.453486e-12
3.9575199e-09
-1.3200203e-12
3.9575523e-09
1.1964243e-12
3.9575217e-09
-1.0827327e-12
3.9575507e-09
9.7804601e-13
3.9575232e-09
-8.826616e-13
3.9575493e-09
7.958199e-13
3.9575244e-09