/*--------------------------------*- C++ -*----------------------------------*\
| =========                 |                                                 |
| \\      /  F ield         | OpenFOAM: The Open Source CFD Toolbox           |
|  \\    /   O peration     | Version:  2312                                  |
|   \\  /    A nd           | Website:  www.openfoam.com                      |
|    \\/     M anipulation  |                                                 |
\*---------------------------------------------------------------------------*/
FoamFile
{
    version     2.0;
    format      ascii;
    arch        "LSB;label=32;scalar=64";
    class       volScalarField;
    location    "3";
    object      T;
}
// * * * * * * * * * * * * * * * * * * * * * * * * * * * * * * * * * * * * * //

dimensions      [0 0 0 1 0 0 0];

internalField   nonuniform List<scalar> 
4000
(
330.19791
328.93415
328.69254
328.63106
328.55911
328.51286
328.46878
328.43095
328.39477
328.36191
328.32929
328.299
328.26858
328.23978
328.2109
328.18307
328.15533
328.12818
328.1013
328.07464
328.04845
328.02214
327.99652
327.97048
327.94532
327.91949
327.89472
327.86904
327.84461
327.81906
327.79492
327.76946
327.74559
327.7202
327.69657
327.67122
327.64781
327.62248
327.59928
327.57396
327.55096
327.52563
327.50283
327.47746
327.45488
327.42941
327.40711
327.38144
327.3596
327.33312
332.35515
330.30859
329.64042
329.50127
329.33213
329.23947
329.15347
329.08607
329.02372
328.97124
328.91953
328.87476
328.82965
328.78936
328.74887
328.71149
328.6744
328.63904
328.60457
328.57067
328.53825
328.50544
328.47469
328.44269
328.41334
328.38195
328.35377
328.32286
328.2957
328.26515
328.23888
328.20861
328.18312
328.15305
328.12828
328.09835
328.07424
328.04439
328.0209
327.99107
327.96819
327.93831
327.91604
327.88602
327.86442
327.83413
327.81334
327.78247
327.76305
327.72983
333.68769
331.63113
330.58057
330.36563
330.10183
329.96331
329.83601
329.73923
329.651
329.57896
329.50836
329.44912
329.38948
329.33769
329.2857
329.23875
329.19241
329.14884
329.10682
329.06568
329.02709
328.98776
328.95194
328.91396
328.88045
328.84351
328.81195
328.7758
328.74593
328.71038
328.68199
328.6469
328.61982
328.58507
328.55918
328.52466
328.49987
328.46548
328.44173
328.40738
328.38462
328.3502
328.32846
328.29381
328.27319
328.23808
328.2188
328.18274
328.1657
328.12604
334.56843
332.85439
331.49936
331.21585
330.86301
330.68047
330.51339
330.38782
330.27447
330.1831
330.09408
330.02048
329.94663
329.88339
329.82015
329.76366
329.70825
329.65647
329.60707
329.55869
329.51405
329.46818
329.4274
329.38343
329.34586
329.30334
329.26849
329.22708
329.19457
329.15401
329.12355
329.08364
329.05501
329.01558
328.9886
328.9495
328.92405
328.88513
328.86113
328.82226
328.79966
328.76069
328.7395
328.70023
328.68058
328.64067
328.62291
328.58168
328.56697
328.52124
335.17908
333.94163
332.37912
332.04076
331.60853
331.38556
331.1814
331.02835
330.89116
330.78101
330.67437
330.58671
330.49921
330.42469
330.35061
330.28467
330.22053
330.16058
330.10406
330.04846
329.99798
329.9456
329.90002
329.85009
329.80858
329.7605
329.72246
329.67581
329.64075
329.59519
329.56275
329.51803
329.48791
329.4438
329.41579
329.37212
329.34605
329.30263
329.2784
329.23505
329.2126
329.16912
329.14849
329.10463
329.08595
329.0413
329.025
328.9787
328.96618
328.91488
335.61514
334.86555
333.20115
332.82727
332.32973
332.072
331.83488
331.6565
331.49743
331.36949
331.24644
331.14525
331.04493
330.95946
330.87514
330.79997
330.72754
330.65959
330.59629
330.53359
330.47754
330.41873
330.36858
330.31273
330.26749
330.2139
330.17282
330.12097
330.08349
330.03297
329.99864
329.94915
329.91763
329.86889
329.83992
329.7917
329.76508
329.71718
329.69277
329.64497
329.62272
329.57478
329.55471
329.50631
329.48861
329.43927
329.42441
329.37318
329.36265
329.30627
335.93365
335.61593
333.94902
333.56176
333.01724
332.73243
332.46792
332.26735
332.08908
331.94484
331.80701
331.69316
331.58114
331.48526
331.39152
331.30748
331.22737
331.15166
331.08207
331.01244
330.9512
330.88612
330.8317
330.77005
330.72132
330.66231
330.6184
330.56143
330.52169
330.4663
330.43022
330.37602
330.34321
330.2899
330.26005
330.20737
330.18025
330.12795
330.10341
330.05123
330.02921
329.97687
329.95739
329.90454
329.88779
329.8339
329.82039
329.76441
329.75565
329.69471
336.17063
336.19513
334.61026
334.23167
333.66181
333.35922
333.07423
332.8556
332.66154
332.50304
332.35252
332.22722
332.10492
331.9994
331.89727
331.8049
331.71788
331.63481
331.55951
331.48325
331.41731
331.34616
331.28786
331.2206
331.16868
331.10441
331.05792
330.99597
330.95418
330.89402
330.85636
330.79757
330.7636
330.70584
330.67521
330.61817
330.59064
330.53403
330.50942
330.45298
330.4312
330.3746
330.35569
330.29854
330.2827
330.22441
330.21217
330.15171
330.14443
330.07942
336.35034
336.61773
335.17832
334.8272
334.25523
333.94505
333.64755
333.41585
333.21006
333.0399
332.87921
332.74401
332.61316
332.49905
332.38977
332.28979
332.19681
332.1069
332.02663
331.94415
331.87406
331.79718
331.73545
331.66284
331.6081
331.5388
331.49003
331.42329
331.3797
331.31494
331.2759
331.21268
331.17771
331.11564
331.08437
331.0231
330.99525
330.93449
330.90986
330.8493
330.82781
330.76709
330.74877
330.68747
330.67251
330.61004
330.59895
330.5343
330.52825
330.45962
336.48975
336.90615
335.65216
335.34258
334.79101
334.4835
334.18207
333.94295
333.73001
333.55126
333.38331
333.24011
333.10271
332.98129
332.86631
332.75964
332.6618
332.56573
332.48133
332.39316
332.3196
332.2374
332.17278
332.09516
332.03805
331.964
331.91331
331.84203
331.79692
331.72781
331.68762
331.62017
331.58439
331.5182
331.48642
331.42113
331.39306
331.32833
331.30377
331.23927
331.2181
331.15347
331.13572
331.07051
331.05637
330.98998
330.97991
330.91142
330.90633
330.8345
336.60088
337.08731
336.03622
335.77663
335.26486
334.96954
334.67287
334.43228
334.21709
334.0332
333.86119
333.71219
333.57047
333.44325
333.32422
333.21195
333.11048
333.00909
332.92153
332.8283
332.75203
332.66503
332.59813
332.51595
332.45694
332.37852
332.3263
332.25081
332.20451
332.13132
332.09024
332.01884
331.98245
331.91239
331.88027
331.81119
331.78302
331.71456
331.69013
331.62193
331.60113
331.53283
331.51566
331.44679
331.43341
331.36341
331.35421
331.28227
331.27789
331.20325
336.69217
337.18885
336.33901
336.13242
335.67497
335.39996
335.11626
334.88012
334.66765
334.48228
334.30958
334.15718
334.01355
333.88222
333.76092
333.64431
333.54056
333.43482
333.34514
333.24763
333.16948
333.07831
333.00979
332.92356
332.86321
332.78085
332.72755
332.64825
332.6011
332.52419
332.48251
332.40747
332.3707
332.29709
332.2648
332.19221
332.16408
332.09215
332.06796
331.99634
331.97594
331.90425
331.88765
331.81543
331.80275
331.72948
331.72102
331.64603
331.64216
331.56507
336.76956
337.23652
336.57191
336.41634
336.02207
335.77364
335.51004
335.28384
335.07886
334.8957
334.72569
334.57243
334.42937
334.29576
334.17405
334.05449
333.9499
333.84087
333.75021
333.64927
333.57015
333.47552
333.40611
333.31643
333.25532
333.16955
333.11564
333.03297
332.98538
332.90516
332.86319
332.78488
332.74799
332.67115
332.63889
332.56313
332.53518
332.46012
332.43624
332.36152
332.34158
332.26683
332.25079
332.17557
332.16353
332.08736
332.07952
332.00188
331.99837
331.91916
336.83692
337.25165
336.74729
336.63716
336.30933
336.09156
335.85364
335.64208
335.44892
335.27145
335.10741
334.9558
334.81577
334.68179
334.56156
334.4405
334.33656
334.22541
334.13494
334.03153
333.95237
333.85506
333.78552
333.69306
333.63181
333.54321
333.4892
333.40368
333.35605
333.27298
333.23105
333.14992
333.11315
333.0335
333.00147
332.92292
332.89529
332.81747
332.794
332.71655
332.69711
332.61967
332.6042
332.52636
332.51489
332.43623
332.42888
332.34903
332.34574
332.26474
336.89696
337.25062
336.87746
336.80493
336.54196
336.35662
336.14813
335.95487
335.77711
335.60848
335.45337
335.30582
335.17117
335.03868
334.92179
334.80074
334.69891
334.58685
334.49776
334.39287
334.31463
334.21549
334.14661
334.05209
333.99135
333.90055
333.84696
333.75915
333.71191
333.62651
333.58497
333.50147
333.46512
333.38309
333.35151
333.27058
333.24344
333.16325
333.14032
333.06053
333.04164
332.96191
332.947
332.86695
332.85602
332.77529
332.76835
332.68669
332.68355
332.60108
336.95124
337.2443
336.97354
336.92995
336.72658
336.57331
336.39605
336.22352
336.0639
335.90667
335.76304
335.62171
335.49457
335.36537
335.25355
335.13397
335.03568
334.92393
334.83737
334.73203
334.65568
334.55558
334.48814
334.39233
334.33273
334.24041
334.18777
334.09829
334.05187
333.96468
333.92389
333.83854
333.80288
333.71896
333.68804
333.60519
333.5787
333.49659
333.47429
333.3926
333.37433
333.29273
333.2784
333.19657
333.18613
333.10378
333.09716
333.01411
333.01108
332.92746
337.00086
337.23931
337.04501
337.02201
336.87055
336.74722
336.60116
336.45053
336.3108
336.16689
336.03671
335.90345
335.78564
335.66133
335.55616
335.43942
335.34598
335.23573
335.15281
335.04805
334.97449
334.87433
334.80909
334.71277
334.65495
334.56181
334.51065
334.42012
334.37497
334.28658
334.24689
334.16022
334.12554
334.04023
334.01019
333.92591
333.90023
333.81667
333.79511
333.71197
333.69438
333.61137
333.59763
333.51447
333.5045
333.42096
333.41464
333.3306
333.32765
333.24323
337.04641
337.23861
337.09942
337.08971
336.98135
336.88456
336.76813
336.63935
336.52025
336.39084
336.27551
336.15173
336.04469
335.92664
335.82944
335.71681
335.62939
335.52175
335.44347
335.34027
335.27035
335.17101
335.10869
335.01264
334.95722
334.86396
334.81479
334.72386
334.6804
334.59139
334.55315
334.46572
334.43231
334.34613
334.3172
334.23199
334.20728
334.12275
334.10205
334.01794
334.00109
333.91714
333.90401
333.81999
333.81047
333.72618
333.72013
333.63552
333.63263
333.54776
337.08839
337.24304
337.14245
337.14017
337.06603
336.99164
336.90212
336.79409
336.69544
336.581
336.48124
336.3679
336.27265
336.16196
336.07377
335.96632
335.88589
335.78187
335.70909
335.60838
335.54286
335.44518
335.38644
335.29143
335.23896
335.14629
335.09958
335.0089
334.96752
334.87851
334.84205
334.75443
334.72254
334.63603
334.60843
334.52279
334.49922
334.41422
334.3945
334.30989
334.29385
334.20943
334.19695
334.11251
334.10346
334.01886
334.01306
333.92828
333.92548
333.8405
337.12704
337.25193
337.17811
337.17894
337.13085
337.07447
337.00841
336.91925
336.84008
336.74038
336.6563
336.5539
336.47103
336.36845
336.29002
336.1886
336.11592
336.01637
335.94982
335.85241
335.79195
335.69669
335.64211
335.54887
335.49985
335.40844
335.36463
335.27483
335.23589
335.14748
335.1131
335.02585
334.99574
334.90944
334.88335
334.79781
334.77554
334.69055
334.67192
334.5873
334.57215
334.48772
334.47593
334.39153
334.38296
334.29849
334.29296
334.20838
334.20568
334.12096
337.16268
337.2642
337.20904
337.21007
337.18107
337.13849
337.09211
337.01941
336.95813
336.87238
336.80353
336.71211
336.64176
336.54775
336.47948
336.38471
336.32031
336.22592
336.16614
336.07274
336.01787
335.92572
335.87577
335.78496
335.73982
335.65031
335.60977
335.52145
335.48528
335.39803
335.36601
335.27968
335.25157
335.16601
335.14162
335.05668
335.03584
334.95137
334.93392
334.84977
334.83558
334.7516
334.74054
334.65663
334.64856
334.56463
334.55939
334.47542
334.47284
334.38874
337.19551
337.27861
337.23686
337.23639
337.22088
337.18831
337.15788
337.09899
337.05357
336.98054
336.92602
336.84525
336.78715
336.70184
336.64384
336.55611
336.50025
336.41154
336.35888
336.27007
336.22115
336.13271
336.08776
335.99997
335.95905
335.872
335.83504
335.74877
335.71564
335.6301
335.60066
335.51577
335.48986
335.40554
335.38302
335.29917
335.27989
335.19641
335.18024
335.09701
335.08385
335.00077
334.99049
334.90749
334.89996
334.81697
334.81205
334.72905
334.72661
334.6435
337.22582
337.29417
337.26249
337.25968
337.25342
337.22774
337.20979
337.16203
337.13025
337.06843
337.02699
336.95617
336.90975
336.83297
336.78505
336.70451
336.65723
336.57453
336.52916
336.44535
336.40262
336.31836
336.27867
336.19439
336.15794
336.07387
336.04073
335.957
335.92713
335.84378
335.81713
335.73416
335.71062
335.62802
335.60749
335.52519
335.50758
335.42553
335.41074
335.32887
335.3168
335.23504
335.22558
335.14389
335.13694
335.05528
335.05071
334.96904
334.96677
334.88499
337.25382
337.31009
337.2864
337.28104
337.28097
337.2597
337.25122
337.21209
337.19169
337.13942
337.10957
337.04782
337.01221
336.94356
336.90527
336.83185
336.79298
336.71643
336.67833
336.59981
336.56334
336.48363
336.44933
336.36896
336.33714
336.25648
336.22731
336.14656
336.12011
336.0394
336.01566
335.93506
335.91401
335.83355
335.81513
335.73481
335.71896
335.63876
335.62541
335.54531
335.53438
335.45434
335.44575
335.36575
335.35941
335.27943
335.27524
335.19525
335.19316
335.11305
337.27975
337.32591
337.30882
337.30104
337.30507
337.28639
337.28487
337.25218
337.24099
337.19662
337.17677
337.12302
337.09716
337.03607
337.00675
336.9402
336.90937
336.83896
336.80795
336.73485
336.70459
336.62966
336.60075
336.52461
336.49747
336.42055
336.39544
336.31804
336.29508
336.2174
336.19667
336.11882
336.10034
336.02242
336.00618
335.92822
335.91419
335.83623
335.82437
335.74641
335.73667
335.65871
335.65102
335.57306
335.56737
335.4894
335.48563
335.40762
335.40574
335.32762
337.3038
337.34133
337.32985
337.31996
337.32672
337.30936
337.31283
337.28475
337.28082
337.24276
337.23131
337.18444
337.16716
337.11291
337.09177
337.0317
337.00838
336.94393
336.91969
336.85202
336.82776
336.75774
336.73413
336.66241
336.63993
336.56701
336.54595
336.47219
336.45276
336.3784
336.36072
336.28595
336.27009
336.19503
336.18101
336.10576
336.09359
336.0182
336.00787
335.93238
335.92386
335.8483
335.84155
335.76594
335.76092
335.68527
335.68193
335.60621
335.60454
335.5287
337.32617
337.3562
337.34953
337.33791
337.34653
337.32966
337.33664
337.31171
337.31333
337.28018
337.2756
337.23451
337.22458
337.1764
337.16252
337.10843
337.09197
337.03322
337.01528
336.95293
336.93439
336.86928
336.85078
336.78359
336.76562
336.69687
336.6798
336.60989
336.59395
336.52317
336.50852
336.4371
336.42385
336.35194
336.34015
336.26788
336.25759
336.18506
336.17627
336.10354
336.09626
336.02338
336.01759
335.94461
335.94027
335.8672
335.86431
335.79116
335.78971
335.71642
337.34701
337.37048
337.36791
337.35492
337.36483
337.348
337.35737
337.33451
337.34026
337.31082
337.31172
337.27536
337.27159
337.22866
337.22109
337.17241
337.16208
337.10866
337.09649
337.03926
337.02602
336.96576
336.95207
336.88943
336.87578
336.81129
336.79806
336.73215
336.71959
336.65257
336.64089
336.57301
336.56233
336.49379
336.4842
336.41516
336.40672
336.33729
336.33004
336.26031
336.25427
336.18432
336.17948
336.10936
336.10573
336.03548
336.03305
335.96268
335.96146
335.89095
337.36647
337.38414
337.38503
337.37098
337.38184
337.36478
337.37577
337.35419
337.36295
337.33623
337.34137
337.30882
337.31008
337.27162
337.26941
337.22553
337.22056
337.17204
337.16504
337.11263
337.10425
337.04866
337.03944
336.98128
336.97169
336.91147
336.90187
336.84002
336.8307
336.76755
336.75872
336.69453
336.68634
336.62134
336.61389
336.54824
336.54162
336.47548
336.46974
336.40321
336.39839
336.33156
336.32767
336.26061
336.25768
336.19044
336.18847
336.12109
336.1201
336.05256
337.38465
337.39719
337.40095
337.38608
337.39764
337.38027
337.39232
337.37151
337.38237
337.35762
337.36596
337.3364
337.34166
337.30695
337.30917
337.26951
337.26912
337.22503
337.22256
337.17465
337.1706
337.11947
337.11431
337.0605
337.05464
336.99863
336.99243
336.93464
336.92836
336.86912
336.86299
336.80258
336.79675
336.73539
336.72999
336.66788
336.663
336.60029
336.59601
336.53282
336.52919
336.46563
336.46268
336.39883
336.39659
336.33252
336.33101
336.26676
336.266
336.20159
337.40165
337.40964
337.41572
337.40021
337.41229
337.39459
337.40734
337.38697
337.39926
337.3759
337.38657
337.35935
337.36769
337.33608
337.34189
337.30586
337.3093
337.26918
337.27059
337.22682
337.22656
337.17962
337.17807
337.12843
337.12594
337.07404
337.07093
337.01714
337.01368
336.95834
336.95472
336.8981
336.8945
336.83683
336.83337
336.77485
336.77164
336.71244
336.70956
336.64981
336.64732
336.58714
336.58508
336.52456
336.52299
336.4622
336.46113
336.40014
336.3996
336.33845
337.41756
337.42149
337.42938
337.41337
337.42581
337.40783
337.42101
337.40089
337.41411
337.39174
337.40405
337.37864
337.38929
337.36022
337.36884
337.33593
337.34248
337.30587
337.31052
337.27051
337.27351
337.23046
337.23207
337.18637
337.18687
337.1389
337.13857
337.08868
337.08777
337.03626
337.03495
336.98209
336.98054
336.92657
336.92491
336.87001
336.86835
336.8127
336.81114
336.75488
336.75347
336.69673
336.69553
336.6384
336.63746
336.58004
336.57939
336.52174
336.52141
336.46359
337.43242
337.43272
337.44197
337.42555
337.43821
337.42002
337.43344
337.4135
337.42726
337.40563
337.41902
337.39502
337.40734
337.38035
337.39111
337.36084
337.36986
337.33632
337.34362
337.307
337.31271
337.27325
337.27754
337.23553
337.23863
337.1944
337.19652
337.15038
337.15173
337.10395
337.1047
337.05555
337.05585
337.00553
337.00551
336.95422
336.95398
336.90189
336.90153
336.84878
336.84837
336.79509
336.79469
336.74099
336.74064
336.68662
336.68636
336.6321
336.63197
336.57753
337.44629
337.4433
337.45349
337.43673
337.44949
337.43116
337.44468
337.4249
337.43896
337.41789
337.43196
337.40908
337.42253
337.39726
337.40956
337.38155
337.39244
337.3616
337.371
337.3374
337.34532
337.30912
337.31565
337.27707
337.28236
337.24165
337.24588
337.2033
337.20663
337.16244
337.16501
337.11944
337.12139
337.07464
337.07609
337.02834
337.02939
336.9808
336.98155
336.93227
336.93278
336.88294
336.88327
336.83299
336.83319
336.78257
336.78268
336.7318
336.73185
336.6808
337.45915
337.45316
337.46392
337.44689
337.45964
337.44126
337.45478
337.4352
337.44935
337.42877
337.44319
337.42124
337.43539
337.41156
337.42493
337.39883
337.4111
337.3826
337.39359
337.36269
337.37235
337.33911
337.34745
337.31202
337.31912
337.28169
337.28768
337.24848
337.25348
337.21271
337.21685
337.17472
337.17811
337.1348
337.13755
337.09323
337.09543
337.05027
337.05199
337.00613
337.00746
336.96102
336.96201
336.9151
336.9158
336.86854
336.86898
336.82146
336.82167
336.77398
337.47096
337.46221
337.47324
337.45601
337.46866
337.45031
337.46376
337.44442
337.45854
337.43842
337.45297
337.43182
337.44635
337.42373
337.43777
337.41332
337.42653
337.40008
337.41223
337.38371
337.39469
337.36411
337.37387
337.34131
337.34987
337.31547
337.3229
337.28684
337.29324
337.25569
337.26115
337.22229
337.2269
337.1869
337.19075
337.14975
337.15293
337.1111
337.11367
337.07113
337.07318
337.03005
337.03161
336.98801
336.98915
336.94518
336.94592
336.90169
336.90206
336.85766
337.48154
337.47031
337.48137
337.46404
337.47653
337.45831
337.47163
337.45261
337.4666
337.44696
337.46146
337.44103
337.4557
337.43414
337.44854
337.42553
337.43931
337.41465
337.42759
337.40119
337.41311
337.38492
337.39573
337.36578
337.37546
337.34384
337.35241
337.31926
337.32678
337.29225
337.29878
337.26301
337.26862
337.23175
337.23653
337.1987
337.20271
337.16406
337.16737
337.12802
337.13068
337.09075
337.09281
337.05242
337.05393
337.01317
337.01416
336.97313
336.97363
336.93244
337.49062
337.47731
337.48828
337.47096
337.48327
337.46528
337.47843
337.45979
337.47359
337.45446
337.46879
337.44906
337.46367
337.44307
337.45758
337.43584
337.44991
337.42684
337.44024
337.41572
337.42825
337.4022
337.41374
337.38616
337.39664
337.36757
337.37698
337.34653
337.3549
337.32317
337.33054
337.29766
337.30408
337.27016
337.27568
337.24085
337.24554
337.20991
337.21382
337.17752
337.18069
337.14383
337.14631
337.10899
337.11082
337.07314
337.07434
337.03641
337.03701
336.99892
337.49786
337.48306
337.49391
337.47676
337.48888
337.47123
337.48419
337.46601
337.47957
337.46099
337.47508
337.45603
337.47045
337.45074
337.46516
337.44456
337.4587
337.43704
337.45064
337.42779
337.44066
337.41653
337.42852
337.40307
337.41408
337.38733
337.39733
337.36934
337.37832
337.34918
337.35717
337.32696
337.33399
337.30283
337.30893
337.27691
337.28212
337.24936
337.25374
337.22033
337.22391
337.18996
337.19277
337.15838
337.16047
337.12574
337.12711
337.09213
337.09282
337.05769
337.503
337.48747
337.49826
337.48145
337.49341
337.4762
337.48895
337.47131
337.4846
337.46661
337.4804
337.46204
337.47616
337.4573
337.4715
337.45195
337.46596
337.44557
337.45916
337.43781
337.45079
337.42838
337.44057
337.41704
337.42834
337.40369
337.41404
337.3883
337.39768
337.3709
337.37931
337.35158
337.35903
337.33043
337.33694
337.30754
337.31315
337.28306
337.28779
337.2571
337.26098
337.22978
337.23285
337.20123
337.20352
337.17157
337.17308
337.14091
337.14166
337.10934
337.50602
337.49056
337.50141
337.4851
337.49692
337.48025
337.49277
337.47572
337.48873
337.47137
337.48482
337.46717
337.48094
337.4629
337.47676
337.45819
337.47193
337.4527
337.46611
337.44611
337.45899
337.43813
337.45032
337.42852
337.43991
337.41715
337.42765
337.40394
337.41352
337.38891
337.39756
337.3721
337.3798
337.35355
337.36033
337.33336
337.33922
337.31162
337.31659
337.28843
337.29253
337.2639
337.26715
337.23813
337.24056
337.21123
337.21284
337.1833
337.1841
337.15443
337.50721
337.49246
337.50346
337.48778
337.49949
337.48343
337.49573
337.47933
337.49203
337.47535
337.48842
337.47149
337.48485
337.46762
337.48108
337.46342
337.47679
337.45862
337.47171
337.45294
337.46558
337.4461
337.45813
337.43788
337.44917
337.42811
337.43859
337.41672
337.42634
337.40369
337.41241
337.38902
337.39683
337.37274
337.37964
337.3549
337.3609
337.33559
337.3407
337.31489
337.31911
337.29287
337.29623
337.26963
337.27215
337.24527
337.24694
337.21986
337.22069
337.19349
337.50707
337.4934
337.50457
337.48962
337.50122
337.48584
337.4979
337.48219
337.49457
337.47859
337.49128
337.47508
337.488
337.47155
337.48454
337.46777
337.48068
337.46349
337.47616
337.4585
337.47077
337.45255
337.46427
337.44541
337.45647
337.43694
337.44724
337.42703
337.43653
337.41565
337.42431
337.40279
337.41057
337.38844
337.39535
337.37266
337.37868
337.35548
337.36063
337.33697
337.34125
337.31721
337.32062
337.29625
337.29881
337.27419
337.27589
337.25109
337.25194
337.22704
337.50615
337.49363
337.50493
337.49075
337.50223
337.48756
337.49938
337.48437
337.49643
337.48117
337.49345
337.47799
337.49044
337.47476
337.48725
337.4713
337.4837
337.46743
337.4796
337.46295
337.47476
337.45766
337.46897
337.45136
337.46205
337.44389
337.4539
337.43517
337.44443
337.42515
337.43362
337.41379
337.42144
337.40108
337.40789
337.38705
337.39301
337.37172
337.37683
337.35515
337.3594
337.33738
337.34077
337.31847
337.32101
337.29848
337.30018
337.27748
337.27833
337.25554
337.50489
337.49341
337.50471
337.49131
337.50264
337.4887
337.50026
337.48597
337.49768
337.48315
337.49501
337.48028
337.49224
337.47731
337.48927
337.47411
337.48595
337.47052
337.48213
337.46641
337.47767
337.46159
337.47239
337.4559
337.46615
337.44921
337.45882
337.44142
337.45034
337.43248
337.44066
337.42234
337.42976
337.411
337.41762
337.39845
337.40426
337.38471
337.3897
337.36982
337.37398
337.3538
337.35713
337.3367
337.3392
337.31857
337.32024
337.29947
337.30031
337.27945
337.50352
337.4929
337.50409
337.49142
337.50256
337.48934
337.50061
337.48705
337.4984
337.48458
337.49601
337.482
337.49346
337.47925
337.49065
337.47624
337.48747
337.47284
337.48383
337.46895
337.47961
337.46445
337.47468
337.45919
337.4689
337.45305
337.46219
337.44597
337.45446
337.43787
337.44569
337.42872
337.43582
337.4185
337.42485
337.40719
337.41278
337.39479
337.39961
337.38134
337.38536
337.36684
337.37007
337.35134
337.35377
337.33487
337.33649
337.31746
337.31828
337.29918
337.50214
337.49225
337.50319
337.4912
337.5021
337.48959
337.50054
337.48768
337.49866
337.48554
337.49652
337.4832
337.49413
337.48062
337.49143
337.47771
337.48833
337.47441
337.48476
337.47064
337.48066
337.46631
337.47592
337.46132
337.47045
337.45556
337.46415
337.44898
337.45699
337.44153
337.44891
337.43315
337.43987
337.42382
337.42985
337.41353
337.41884
337.40226
337.40684
337.39003
337.39387
337.37684
337.37993
337.36273
337.36505
337.34772
337.34927
337.33183
337.3326
337.3151
337.50076
337.49151
337.50209
337.49073
337.50134
337.4895
337.50012
337.48794
337.49852
337.48608
337.49659
337.48392
337.49431
337.48144
337.49164
337.47857
337.48853
337.47527
337.48494
337.4715
337.48084
337.46723
337.47617
337.46236
337.47086
337.45683
337.46483
337.45059
337.45806
337.44359
337.45048
337.43579
337.44208
337.42717
337.43282
337.41769
337.42269
337.40736
337.41167
337.39615
337.39978
337.38409
337.38701
337.37119
337.37338
337.35745
337.35891
337.34289
337.34363
337.32755
337.49938
337.49073
337.50086
337.49009
337.50036
337.48916
337.49941
337.48788
337.49804
337.48623
337.49624
337.48419
337.494
337.48173
337.49129
337.4788
337.48808
337.47541
337.48438
337.47156
337.48019
337.46722
337.47548
337.46236
337.47019
337.45692
337.4643
337.45087
337.45776
337.44418
337.45055
337.4368
337.44262
337.42871
337.43395
337.41988
337.42452
337.4103
337.41432
337.39996
337.40333
337.38885
337.39157
337.37697
337.37902
337.36434
337.36571
337.35096
337.35165
337.33686
337.49797
337.48992
337.49954
337.48932
337.49921
337.48862
337.49847
337.48754
337.49725
337.48603
337.49551
337.48402
337.49322
337.48148
337.49038
337.4784
337.48698
337.47483
337.48307
337.47079
337.47869
337.46629
337.47383
337.46133
337.46848
337.45587
337.4626
337.44989
337.45618
337.44337
337.44919
337.43628
337.4416
337.42858
337.43338
337.42025
337.42451
337.41127
337.41497
337.40163
337.40474
337.39132
337.39383
337.38033
337.38222
337.36865
337.36992
337.3563
337.35694
337.34329
337.49653
337.48909
337.49815
337.48844
337.49793
337.48791
337.49733
337.48697
337.49618
337.48549
337.4944
337.4834
337.49196
337.48067
337.48888
337.47735
337.48519
337.47349
337.48099
337.46917
337.47633
337.46443
337.47124
337.45927
337.46572
337.45369
337.45977
337.44768
337.45336
337.44123
337.44649
337.4343
337.43912
337.42688
337.43123
337.41893
337.42279
337.41042
337.41378
337.40136
337.40418
337.3917
337.39399
337.38146
337.38319
337.37061
337.37177
337.35916
337.35974
337.3471
337.49504
337.48825
337.4967
337.48749
337.49655
337.48706
337.49603
337.48616
337.49485
337.48461
337.49291
337.48231
337.49019
337.47928
337.48675
337.4756
337.48268
337.47136
337.4781
337.46667
337.47308
337.4616
337.46768
337.45616
337.46192
337.45039
337.4558
337.44427
337.44933
337.43779
337.44249
337.43094
337.43525
337.42369
337.42758
337.41601
337.41947
337.40788
337.41089
337.39927
337.40181
337.39016
337.39222
337.38055
337.3821
337.37041
337.37145
337.35973
337.36026
337.34852
337.4935
337.48738
337.49519
337.48648
337.49509
337.48609
337.49457
337.48513
337.49324
337.48336
337.49099
337.48071
337.48785
337.47724
337.48394
337.47308
337.47938
337.46837
337.47432
337.46323
337.46887
337.45775
337.4631
337.45199
337.45704
337.44595
337.4507
337.43965
337.4441
337.43309
337.43722
337.42624
337.43003
337.41908
337.42252
337.41159
337.41465
337.40373
337.4064
337.39549
337.39775
337.38684
337.38866
337.37775
337.37914
337.36822
337.36915
337.35822
337.35869
337.34774
337.49189
337.4865
337.49363
337.48541
337.49355
337.485
337.49294
337.48385
337.49131
337.4817
337.48858
337.47853
337.48488
337.47448
337.48037
337.46973
337.47522
337.46445
337.46961
337.45879
337.46367
337.45285
337.45747
337.4467
337.45106
337.44035
337.44446
337.43383
337.43768
337.42712
337.4307
337.42022
337.42351
337.4131
337.41609
337.40573
337.40839
337.39808
337.40041
337.39013
337.3921
337.38185
337.38345
337.37321
337.37443
337.3642
337.36502
337.35479
337.3552
337.34496
337.4902
337.48559
337.49201
337.48429
337.49193
337.48377
337.49111
337.48227
337.48899
337.47955
337.48561
337.47569
337.48119
337.47091
337.47595
337.46545
337.47011
337.45952
337.46389
337.45327
337.4574
337.44683
337.45073
337.44025
337.44394
337.43356
337.43704
337.42678
337.43005
337.4199
337.42295
337.41291
337.41572
337.40578
337.40834
337.39848
337.40077
337.39099
337.39299
337.38328
337.38497
337.37531
337.37668
337.36705
337.3681
337.35849
337.35919
337.34959
337.34995
337.34034
337.48843
337.48466
337.49032
337.48311
337.49022
337.48237
337.48902
337.48031
337.4862
337.4768
337.48196
337.47206
337.47665
337.46641
337.47056
337.46014
337.46396
337.45348
337.45706
337.44661
337.44999
337.43963
337.44283
337.43261
337.43564
337.42556
337.42844
337.41851
337.42121
337.41144
337.41397
337.40433
337.40668
337.39717
337.39931
337.38991
337.39183
337.38254
337.38422
337.37501
337.37644
337.3673
337.36847
337.35937
337.36026
337.3512
337.3518
337.34276
337.34306
337.33401
337.48656
337.48372
337.48857
337.48189
337.48837
337.48074
337.48658
337.47785
337.4828
337.47331
337.47749
337.46751
337.47113
337.46086
337.4641
337.45369
337.45666
337.44626
337.44905
337.43873
337.44137
337.4312
337.43372
337.42372
337.42613
337.41632
337.41861
337.40899
337.41116
337.40172
337.40377
337.39449
337.3964
337.38728
337.38903
337.38005
337.38163
337.37277
337.37416
337.36541
337.36659
337.35792
337.35889
337.35028
337.35102
337.34246
337.34295
337.33441
337.33466
337.32613
337.48457
337.48279
337.48675
337.48058
337.48632
337.47877
337.48366
337.47476
337.47865
337.46894
337.47205
337.46189
337.4645
337.45412
337.45643
337.446
337.44812
337.43776
337.43977
337.42956
337.43149
337.42148
337.42335
337.41356
337.41537
337.4058
337.40755
337.39821
337.39989
337.39076
337.39235
337.38342
337.38491
337.37616
337.37754
337.36895
337.3702
337.36175
337.36286
337.35452
337.35548
337.34724
337.34802
337.33986
337.34046
337.33235
337.33275
337.32467
337.32488
337.3168
337.48245
337.48189
337.48484
337.47917
337.48398
337.47634
337.4801
337.47084
337.47354
337.46348
337.46544
337.45503
337.45659
337.44606
337.44743
337.43694
337.43822
337.42788
337.42914
337.41902
337.42028
337.41042
337.41168
337.40208
337.40334
337.39401
337.39525
337.38617
337.38739
337.37856
337.37973
337.37112
337.37224
337.36382
337.36487
337.35664
337.3576
337.34952
337.35038
337.34243