/*--------------------------------*- C++ -*----------------------------------*\
| =========                 |                                                 |
| \\      /  F ield         | OpenFOAM: The Open Source CFD Toolbox           |
|  \\    /   O peration     | Version:  2312                                  |
|   \\  /    A nd           | Website:  www.openfoam.com                      |
|    \\/     M anipulation  |                                                 |
\*---------------------------------------------------------------------------*/
FoamFile
{
    version     2.0;
    format      ascii;
    arch        "LSB;label=32;scalar=64";
    class       volSymmTensorField;
    location    "10";
    object      sigma;
}
// * * * * * * * * * * * * * * * * * * * * * * * * * * * * * * * * * * * * * //

dimensions      [0 2 -2 0 0 0 0];

internalField   nonuniform List<symmTensor> 
4000
(
(-3.8490587 -1.765391 0 -0.75569376 0 0)
(-13.110026 -0.71728862 0 -0.012218805 0 0)
(-4.292406 -0.37937783 0 -0.0024141398 0 0)
(-4.7216436 -0.39517677 0 0.0002657239 0 0)
(-4.2630219 -0.37765687 0 -0.00020808826 0 0)
(-4.1599042 -0.37224292 0 2.4860654e-05 0 0)
(-4.191311 -0.37411836 0 -6.2774542e-05 0 0)
(-4.0648263 -0.3679678 0 1.2527052e-05 0 0)
(-4.1276151 -0.37110792 0 -3.2526039e-05 0 0)
(-4.0522317 -0.36738846 0 2.1806961e-05 0 0)
(-4.1087494 -0.37021696 0 -2.5044724e-05 0 0)
(-4.0547375 -0.36751329 0 2.2514831e-05 0 0)
(-4.1024653 -0.36991626 0 -2.214397e-05 0 0)
(-4.0578771 -0.3676679 0 2.084296e-05 0 0)
(-4.099212 -0.36975717 0 -1.9916143e-05 0 0)
(-4.0603135 -0.36778941 0 1.8792536e-05 0 0)
(-4.0967826 -0.3696368 0 -1.7837982e-05 0 0)
(-4.062404 -0.36789413 0 1.6833223e-05 0 0)
(-4.0947049 -0.36953331 0 -1.5939373e-05 0 0)
(-4.0642987 -0.36798913 0 1.5050941e-05 0 0)
(-4.0928606 -0.36944117 0 -1.4240422e-05 0 0)
(-4.0660187 -0.36807546 0 1.3456185e-05 0 0)
(-4.0912096 -0.36935849 0 -1.2733051e-05 0 0)
(-4.0675709 -0.36815346 0 1.2042528e-05 0 0)
(-4.08973 -0.36928426 0 -1.1403677e-05 0 0)
(-4.0689662 -0.36822363 0 1.0798037e-05 0 0)
(-4.088404 -0.36921769 0 -1.0237608e-05 0 0)
(-4.0702187 -0.3682866 0 9.7087746e-06 0 0)
(-4.0872148 -0.36915802 0 -9.2199929e-06 0 0)
(-4.0713439 -0.3683431 0 8.7604359e-06 0 0)
(-4.0861459 -0.36910446 0 -8.3365364e-06 0 0)
(-4.0723573 -0.36839387 0 7.9393749e-06 0 0)
(-4.0851817 -0.36905627 0 -7.5740873e-06 0 0)
(-4.0732738 -0.36843963 0 7.2332178e-06 0 0)
(-4.0843078 -0.36901275 0 -6.9209963e-06 0 0)
(-4.0741069 -0.36848106 0 6.6311576e-06 0 0)
(-4.0835111 -0.36897325 0 -6.3672604e-06 0 0)
(-4.0748692 -0.36851878 0 6.124034e-06 0 0)
(-4.0827796 -0.36893717 0 -5.9045289e-06 0 0)
(-4.0755719 -0.36855335 0 5.7043004e-06 0 0)
(-4.0821024 -0.36890399 0 -5.5260477e-06 0 0)
(-4.0762253 -0.36858526 0 5.366055e-06 0 0)
(-4.08147 -0.36887321 0 -5.2264342e-06 0 0)
(-4.0768394 -0.36861502 0 5.1055324e-06 0 0)
(-4.0808752 -0.36884451 0 -5.0021701e-06 0 0)
(-4.0774257 -0.36864319 0 4.9171544e-06 0 0)
(-4.0803033 -0.3688173 0 -4.8719847e-06 0 0)
(-4.0779362 -0.36866789 0 4.7473402e-06 0 0)
(-4.0795281 -0.3687821 0 -4.97631e-06 0 0)
(-4.0777687 -0.36866023 0 4.808788e-06 0 0)
(-3.3944692 -1.6317378 0 -0.71535851 0 0)
(-10.722905 -0.69766223 0 -0.026600062 0 0)
(-5.0622181 -0.43086436 0 -0.0071722034 0 0)
(-4.3748303 -0.37873507 0 0.00025623131 0 0)
(-3.9623325 -0.36552243 0 -0.00052477179 0 0)
(-3.8380784 -0.35761481 0 2.6932631e-06 0 0)
(-3.879427 -0.36027142 0 -0.00011924171 0 0)
(-3.7718002 -0.35449527 0 -2.1463831e-05 0 0)
(-3.8222421 -0.35721539 0 -4.4264772e-05 0 0)
(-3.758374 -0.35377488 0 1.4988594e-05 0 0)
(-3.804921 -0.35632268 0 -2.7575819e-05 0 0)
(-3.7595435 -0.35383028 0 2.2633982e-05 0 0)
(-3.7995106 -0.35604594 0 -2.3747414e-05 0 0)
(-3.7620131 -0.35396121 0 2.2193953e-05 0 0)
(-3.7968048 -0.35590287 0 -2.1505347e-05 0 0)
(-3.7640404 -0.3540722 0 2.0222833e-05 0 0)
(-3.7947567 -0.35579147 0 -1.9296553e-05 0 0)
(-3.7658012 -0.35416977 0 1.8156773e-05 0 0)
(-3.7929918 -0.35569443 0 -1.7229011e-05 0 0)
(-3.7674006 -0.35425862 0 1.6243753e-05 0 0)
(-3.7914267 -0.35560803 0 -1.5380984e-05 0 0)
(-3.7688513 -0.35433928 0 1.4523942e-05 0 0)
(-3.7900292 -0.35553071 0 -1.3747207e-05 0 0)
(-3.7701586 -0.35441199 0 1.2998176e-05 0 0)
(-3.7887793 -0.3554615 0 -1.2309929e-05 0 0)
(-3.7713324 -0.35447727 0 1.1655366e-05 0 0)
(-3.7876606 -0.35539955 0 -1.1051134e-05 0 0)
(-3.7723855 -0.35453576 0 1.0480618e-05 0 0)
(-3.7866577 -0.35534407 0 -9.9535994e-06 0 0)
(-3.7733315 -0.35458821 0 9.4582772e-06 0 0)
(-3.7857562 -0.35529431 0 -9.0012786e-06 0 0)
(-3.774184 -0.35463534 0 8.573429e-06 0 0)
(-3.7849426 -0.35524953 0 -8.1797069e-06 0 0)
(-3.7749555 -0.35467783 0 7.8126519e-06 0 0)
(-3.7842047 -0.35520907 0 -7.4762556e-06 0 0)
(-3.7756575 -0.35471632 0 7.1643323e-06 0 0)
(-3.7835314 -0.35517232 0 -6.880213e-06 0 0)
(-3.7763006 -0.35475139 0 6.618735e-06 0 0)
(-3.7829125 -0.35513874 0 -6.3827715e-06 0 0)
(-3.7768942 -0.35478355 0 6.1679702e-06 0 0)
(-3.7823391 -0.35510782 0 -5.9770122e-06 0 0)
(-3.7774468 -0.35481327 0 5.8061819e-06 0 0)
(-3.7818027 -0.35507913 0 -5.6574563e-06 0 0)
(-3.777967 -0.35484099 0 5.5312693e-06 0 0)
(-3.7812974 -0.35505233 0 -5.4201144e-06 0 0)
(-3.7784658 -0.35486729 0 5.3378066e-06 0 0)
(-3.7808174 -0.35502737 0 -5.310979e-06 0 0)
(-3.7789262 -0.35489213 0 5.0908632e-06 0 0)
(-3.7802218 -0.35499977 0 -5.7537547e-06 0 0)
(-3.7789065 -0.35489136 0 5.1180936e-06 0 0)
(-3.1667158 -1.5406162 0 -0.66883634 0 0)
(-8.893112 -0.63809699 0 -0.030688166 0 0)
(-5.0117163 -0.44366067 0 -0.010833294 0 0)
(-4.2528047 -0.37315747 0 1.22984e-05 0 0)
(-3.773206 -0.35741444 0 -0.00078393028 0 0)
(-3.6327093 -0.34790211 0 -1.5434943e-05 0 0)
(-3.6728082 -0.35076743 0 -0.00015334322 0 0)
(-3.5794298 -0.34538988 0 -5.0657181e-05 0 0)
(-3.6242928 -0.34790783 0 -5.028232e-05 0 0)
(-3.5674047 -0.34465084 0 6.8979986e-06 0 0)
(-3.6084269 -0.34703209 0 -2.6974344e-05 0 0)
(-3.5680545 -0.34467275 0 2.0248989e-05 0 0)
(-3.6034956 -0.34676833 0 -2.253368e-05 0 0)
(-3.5701682 -0.34479122 0 2.0919177e-05 0 0)
(-3.6010896 -0.3466345 0 -2.0483788e-05 0 0)
(-3.5719675 -0.34489628 0 1.9201301e-05 0 0)
(-3.5992697 -0.34652901 0 -1.8399747e-05 0 0)
(-3.5735389 -0.34498937 0 1.7264689e-05 0 0)
(-3.5976969 -0.3464365 0 -1.6414669e-05 0 0)
(-3.5749658 -0.34507417 0 1.545268e-05 0 0)
(-3.596303 -0.34635415 0 -1.4643718e-05 0 0)
(-3.5762588 -0.34515107 0 1.3817873e-05 0 0)
(-3.5950604 -0.34628057 0 -1.3083071e-05 0 0)
(-3.5774227 -0.34522029 0 1.2366084e-05 0 0)
(-3.5939505 -0.34621481 0 -1.1712872e-05 0 0)
(-3.5784668 -0.34528234 0 1.1088296e-05 0 0)
(-3.5929579 -0.34615602 0 -1.0514181e-05 0 0)
(-3.579403 -0.34533792 0 9.9706176e-06 0 0)
(-3.5920686 -0.34610341 0 -9.4696793e-06 0 0)
(-3.5802438 -0.34538772 0 8.9980833e-06 0 0)
(-3.5912691 -0.34605622 0 -8.5636377e-06 0 0)
(-3.5810015 -0.34543248 0 8.1564075e-06 0 0)
(-3.5905475 -0.34601374 0 -7.7820968e-06 0 0)
(-3.5816874 -0.34547285 0 7.4327913e-06 0 0)
(-3.5898929 -0.34597534 0 -7.1130017e-06 0 0)
(-3.5823117 -0.34550944 0 6.816232e-06 0 0)
(-3.5892952 -0.34594044 0 -6.5462266e-06 0 0)
(-3.5828837 -0.3455428 0 6.2975901e-06 0 0)
(-3.5887457 -0.34590851 0 -6.0735558e-06 0 0)
(-3.5834119 -0.34557342 0 5.869571e-06 0 0)
(-3.5882362 -0.3458791 0 -5.6887251e-06 0 0)
(-3.5839038 -0.34560174 0 5.5270185e-06 0 0)
(-3.5877594 -0.34585178 0 -5.3869001e-06 0 0)
(-3.5843668 -0.34562815 0 5.269572e-06 0 0)
(-3.5873096 -0.34582621 0 -5.1638922e-06 0 0)
(-3.5848113 -0.34565324 0 5.0949067e-06 0 0)
(-3.5868834 -0.3458025 0 -5.0779776e-06 0 0)
(-3.5852291 -0.34567757 0 4.8304333e-06 0 0)
(-3.5863701 -0.34577829 0 -5.7262177e-06 0 0)
(-3.5852727 -0.34567839 0 5.2351153e-06 0 0)
(-2.9274304 -1.4244026 0 -0.60487836 0 0)
(-7.9043422 -0.60999318 0 -0.034038661 0 0)
(-4.9228363 -0.45521426 0 -0.014651743 0 0)
(-4.1442216 -0.36806152 0 -0.00021759855 0 0)
(-3.6055295 -0.35012708 0 -0.0011142265 0 0)
(-3.4381422 -0.33838606 0 -4.0645504e-05 0 0)
(-3.4730297 -0.34127428 0 -0.00018859286 0 0)
(-3.3911818 -0.33626678 0 -8.372251e-05 0 0)
(-3.4320758 -0.3386032 0 -5.4114488e-05 0 0)
(-3.3809544 -0.33552602 0 -3.8849981e-06 0 0)
(-3.4176252 -0.33774677 0 -2.4281532e-05 0 0)
(-3.3812501 -0.3355155 0 1.5830097e-05 0 0)
(-3.4130705 -0.33749358 0 -1.9403667e-05 0 0)
(-3.3830608 -0.33562157 0 1.7857948e-05 0 0)
(-3.4108905 -0.3373679 0 -1.7755793e-05 0 0)
(-3.3846714 -0.33572084 0 1.6570905e-05 0 0)
(-3.4092488 -0.33726796 0 -1.5977736e-05 0 0)
(-3.3860886 -0.33580944 0 1.4929017e-05 0 0)
(-3.407828 -0.33717986 0 -1.4234932e-05 0 0)
(-3.3873745 -0.33589009 0 1.3370188e-05 0 0)
(-3.4065699 -0.33710149 0 -1.2684979e-05 0 0)
(-3.388538 -0.33596311 0 1.1957179e-05 0 0)
(-3.40545 -0.3370316 0 -1.1326329e-05 0 0)
(-3.3895842 -0.33602874 0 1.0700921e-05 0 0)
(-3.4044511 -0.33696923 0 -1.0137418e-05 0 0)
(-3.3905219 -0.33608753 0 9.595252e-06 0 0)
(-3.4035585 -0.33691352 0 -9.0991528e-06 0 0)
(-3.3913625 -0.33614015 0 8.628327e-06 0 0)
(-3.4027589 -0.33686367 0 -8.1951773e-06 0 0)
(-3.3921173 -0.33618731 0 7.787032e-06 0 0)
(-3.4020404 -0.33681895 0 -7.4112361e-06 0 0)
(-3.3927975 -0.33622971 0 7.0588706e-06 0 0)
(-3.4013918 -0.33677869 0 -6.734994e-06 0 0)
(-3.3934133 -0.33626797 0 6.4327354e-06 0 0)
(-3.4008034 -0.33674226 0 -6.1559732e-06 0 0)
(-3.3939738 -0.33630268 0 5.8991599e-06 0 0)
(-3.4002663 -0.33670912 0 -5.6654772e-06 0 0)
(-3.3944874 -0.33633435 0 5.4503531e-06 0 0)
(-3.3997725 -0.33667879 0 -5.2565402e-06 0 0)
(-3.3949616 -0.33636344 0 5.0801687e-06 0 0)
(-3.3993147 -0.33665083 0 -4.923992e-06 0 0)
(-3.3954032 -0.33639037 0 4.7844467e-06 0 0)
(-3.3988864 -0.33662482 0 -4.6637626e-06 0 0)
(-3.3958187 -0.33641552 0 4.5644666e-06 0 0)
(-3.3984824 -0.33660043 0 -4.4708872e-06 0 0)
(-3.3962176 -0.33643941 0 4.419765e-06 0 0)
(-3.3981011 -0.33657789 0 -4.4147065e-06 0 0)
(-3.3965994 -0.33646328 0 4.1247343e-06 0 0)
(-3.3976592 -0.33655685 0 -5.2745551e-06 0 0)
(-3.3966997 -0.33646606 0 4.8181739e-06 0 0)
(-2.9133749 -1.3923988 0 -0.57363544 0 0)
(-6.8752849 -0.57349329 0 -0.036393285 0 0)
(-4.706813 -0.4581567 0 -0.017762397 0 0)
(-4.0132486 -0.36241529 0 -0.00047995356 0 0)
(-3.4485047 -0.34304931 0 -0.0014687969 0 0)
(-3.2538539 -0.3290072 0 -6.3579621e-05 0 0)
(-3.2792113 -0.33172398 0 -0.00021884342 0 0)
(-3.2070793 -0.32707595 0 -0.00011130933 0 0)
(-3.245056 -0.32928425 0 -5.6629471e-05 0 0)
(-3.1990425 -0.32638245 0 -1.3511357e-05 0 0)
(-3.2321914 -0.32846589 0 -2.1684127e-05 0 0)
(-3.1992279 -0.32635093 0 1.180997e-05 0 0)
(-3.2280053 -0.32822358 0 -1.6434525e-05 0 0)
(-3.2008025 -0.32644697 0 1.5012522e-05 0 0)
(-3.2260133 -0.32810503 0 -1.516788e-05 0 0)
(-3.2022543 -0.32654128 0 1.409386e-05 0 0)
(-3.224522 -0.32801013 0 -1.3682849e-05 0 0)
(-3.2035418 -0.32662588 0 1.2721472e-05 0 0)
(-3.2232316 -0.32792615 0 -1.2172363e-05 0 0)
(-3.2047085 -0.32670273 0 1.1401729e-05 0 0)
(-3.2220902 -0.32785151 0 -1.0833466e-05 0 0)
(-3.2057622 -0.32677216 0 1.0199389e-05 0 0)
(-3.2210756 -0.32778509 0 -9.6670283e-06 0 0)
(-3.2067086 -0.32683449 0 9.1286614e-06 0 0)
(-3.2201716 -0.32772588 0 -8.6500791e-06 0 0)
(-3.2075563 -0.32689027 0 8.1859471e-06 0 0)
(-3.2193643 -0.32767302 0 -7.7635902e-06 0 0)
(-3.2083159 -0.32694018 0 7.3614563e-06 0 0)
(-3.2186415 -0.32762574 0 -6.9922984e-06 0 0)
(-3.208998 -0.32698492 0 6.6439629e-06 0 0)
(-3.2179919 -0.32758331 0 -6.3234769e-06 0 0)
(-3.2096126 -0.32702516 0 6.0227593e-06 0 0)
(-3.2174057 -0.32754509 0 -5.7464062e-06 0 0)
(-3.210169 -0.32706149 0 5.4883853e-06 0 0)
(-3.2168738 -0.32751049 0 -5.2521271e-06 0 0)
(-3.2106755 -0.32709447 0 5.0328311e-06 0 0)
(-3.2163884 -0.327479 0 -4.8332797e-06 0 0)
(-3.2111394 -0.32712457 0 4.6495436e-06 0 0)
(-3.2159423 -0.32745016 0 -4.4840224e-06 0 0)
(-3.2115677 -0.32715225 0 4.3333798e-06 0 0)
(-3.215529 -0.32742354 0 -4.2001026e-06 0 0)
(-3.2119663 -0.32717789 0 4.0809426e-06 0 0)
(-3.2151424 -0.32739877 0 -3.9779847e-06 0 0)
(-3.2123411 -0.32720184 0 3.8946057e-06 0 0)
(-3.2147778 -0.3273755 0 -3.8114119e-06 0 0)
(-3.2127005 -0.3272246 0 3.7755254e-06 0 0)
(-3.2144348 -0.32735404 0 -3.7748755e-06 0 0)
(-3.2130488 -0.32724785 0 3.4515137e-06 0 0)
(-3.2140507 -0.32733548 0 -4.7847291e-06 0 0)
(-3.2131879 -0.32725225 0 4.36373e-06 0 0)
(-2.7697885 -1.2845363 0 -0.50528526 0 0)
(-5.9051599 -0.53710067 0 -0.037153059 0 0)
(-4.4392314 -0.45658781 0 -0.020098952 0 0)
(-3.8400047 -0.35613854 0 -0.00099042401 0 0)
(-3.3003975 -0.33679098 0 -0.0019388617 0 0)
(-3.0826329 -0.32005334 0 -0.00010662278 0 0)
(-3.0939387 -0.32228197 0 -0.00025280217 0 0)
(-3.0280462 -0.31785707 0 -0.00013470293 0 0)
(-3.0634357 -0.31996125 0 -5.8483806e-05 0 0)
(-3.0219573 -0.31722865 0 -2.1644366e-05 0 0)
(-3.0520487 -0.31918849 0 -1.9587592e-05 0 0)
(-3.0221225 -0.31718267 0 8.5111946e-06 0 0)
(-3.0482112 -0.31895682 0 -1.3982768e-05 0 0)
(-3.0234973 -0.31726986 0 1.2704994e-05 0 0)
(-3.0463815 -0.31884461 0 -1.3038371e-05 0 0)
(-3.0248057 -0.31735952 0 1.2069817e-05 0 0)
(-3.0450218 -0.31875443 0 -1.1801049e-05 0 0)
(-3.0259767 -0.31744029 0 1.0912683e-05 0 0)
(-3.0438476 -0.31867441 0 -1.0483286e-05 0 0)
(-3.027037 -0.3175135 0 9.7897712e-06 0 0)
(-3.0428103 -0.31860338 0 -9.3184463e-06 0 0)
(-3.027993 -0.3175795 0 8.7614013e-06 0 0)
(-3.0418895 -0.31854025 0 -8.3101959e-06 0 0)
(-3.0288506 -0.31763867 0 7.8434284e-06 0 0)
(-3.0410697 -0.31848405 0 -7.4344594e-06 0 0)
(-3.0296185 -0.31769159 0 7.0344449e-06 0 0)
(-3.0403381 -0.3184339 0 -6.6723298e-06 0 0)
(-3.0303064 -0.31773895 0 6.3265495e-06 0 0)
(-3.039683 -0.31838904 0 -6.0095558e-06 0 0)
(-3.0309242 -0.3177814 0 5.7102238e-06 0 0)
(-3.0390944 -0.31834876 0 -5.4347676e-06 0 0)
(-3.031481 -0.3178196 0 5.1763287e-06 0 0)
(-3.0385631 -0.31831247 0 -4.938637e-06 0 0)
(-3.031985 -0.31785411 0 4.716807e-06 0 0)
(-3.0380812 -0.31827959 0 -4.5134802e-06 0 0)
(-3.0324437 -0.31788544 0 4.3248576e-06 0 0)
(-3.0376414 -0.31824966 0 -4.153033e-06 0 0)
(-3.0328639 -0.31791407 0 3.9949305e-06 0 0)
(-3.0372374 -0.31822223 0 -3.8523493e-06 0 0)
(-3.0332516 -0.3179404 0 3.7226659e-06 0 0)
(-3.0368631 -0.3181969 0 -3.6078761e-06 0 0)
(-3.0336123 -0.3179648 0 3.5052051e-06 0 0)
(-3.0365133 -0.31817332 0 -3.4164332e-06 0 0)
(-3.0339512 -0.31798761 0 3.3456337e-06 0 0)
(-3.0361835 -0.31815113 0 -3.2703584e-06 0 0)
(-3.0342758 -0.31800927 0 3.2466191e-06 0 0)
(-3.0358741 -0.31813069 0 -3.2461308e-06 0 0)
(-3.0345936 -0.31803183 0 2.8958028e-06 0 0)
(-3.0355395 -0.31811417 0 -4.357708e-06 0 0)
(-3.0347593 -0.31803769 0 3.9528648e-06 0 0)
(-2.7295525 -1.2561234 0 -0.48459596 0 0)
(-4.9173317 -0.50929237 0 -0.04068232 0 0)
(-4.1530469 -0.45255269 0 -0.021519872 0 0)
(-3.568666 -0.34633465 0 -0.0018461732 0 0)
(-3.1075314 -0.32852813 0 -0.0023840483 0 0)
(-2.9072246 -0.31075925 0 -0.00013949505 0 0)
(-2.9120622 -0.31272375 0 -0.00028155226 0 0)
(-2.8534803 -0.30859365 0 -0.00015168415 0 0)
(-2.88674 -0.31061755 0 -5.947791e-05 0 0)
(-2.8495942 -0.30806076 0 -2.8401797e-05 0 0)
(-2.8770648 -0.3099101 0 -1.780003e-05 0 0)
(-2.8499348 -0.30801084 0 5.7451863e-06 0 0)
(-2.8736276 -0.30969143 0 -1.1890538e-05 0 0)
(-2.8511708 -0.3080911 0 1.0781167e-05 0 0)
(-2.8719571 -0.30958551 0 -1.1229221e-05 0 0)
(-2.8523542 -0.30817641 0 1.0367831e-05 0 0)
(-2.8707181 -0.30949995 0 -1.0209623e-05 0 0)
(-2.8534196 -0.30825347 0 9.3865572e-06 0 0)
(-2.8696499 -0.30942385 0 -9.0579404e-06 0 0)
(-2.8543835 -0.3083231 0 8.4300453e-06 0 0)
(-2.8687072 -0.30935636 0 -8.0413273e-06 0 0)
(-2.8552512 -0.30838575 0 7.54941e-06 0 0)
(-2.8678711 -0.30929646 0 -7.1671388e-06 0 0)
(-2.8560288 -0.30844186 0 6.7608352e-06 0 0)
(-2.8671274 -0.30924317 0 -6.4107431e-06 0 0)
(-2.8567249 -0.30849203 0 6.0648102e-06 0 0)
(-2.8664637 -0.30919562 0 -5.7534995e-06 0 0)
(-2.8573486 -0.30853692 0 5.4551999e-06 0 0)
(-2.8658694 -0.30915308 0 -5.182128e-06 0 0)
(-2.8579087 -0.30857718 0 4.9240544e-06 0 0)
(-2.8653355 -0.30911488 0 -4.6864848e-06 0 0)
(-2.8584135 -0.30861342 0 4.4636313e-06 0 0)
(-2.8648535 -0.30908043 0 -4.2584606e-06 0 0)
(-2.8588706 -0.30864618 0 4.0670902e-06 0 0)
(-2.8644163 -0.30904921 0 -3.8914643e-06 0 0)
(-2.8592866 -0.30867594 0 3.7286576e-06 0 0)
(-2.8640174 -0.30902078 0 -3.5801539e-06 0 0)
(-2.8596676 -0.30870314 0 3.4436207e-06 0 0)
(-2.8636509 -0.3089947 0 -3.3203238e-06 0 0)
(-2.860019 -0.30872817 0 3.2082615e-06 0 0)
(-2.8633117 -0.30897062 0 -3.1089858e-06 0 0)
(-2.8603459 -0.30875138 0 3.0201327e-06 0 0)
(-2.8629948 -0.30894818 0 -2.943244e-06 0 0)
(-2.8606528 -0.30877308 0 2.8828078e-06 0 0)
(-2.862696 -0.30892705 0 -2.8141527e-06 0 0)
(-2.8609463 -0.30879368 0 2.8005747e-06 0 0)
(-2.8624162 -0.30890758 0 -2.798109e-06 0 0)
(-2.8612362 -0.30881546 0 2.4287553e-06 0 0)
(-2.8621242 -0.30889277 0 -3.9724473e-06 0 0)
(-2.8614191 -0.30882261 0 3.5782961e-06 0 0)
(-2.8081696 -1.1681488 0 -0.41321157 0 0)
(-3.9939719 -0.4801235 0 -0.043399881 0 0)
(-3.8278214 -0.43965216 0 -0.021144042 0 0)
(-3.3437177 -0.34619361 0 -0.0045624878 0 0)
(-2.9520359 -0.32277842 0 -0.0030676427 0 0)
(-2.7467232 -0.3020755 0 -0.00022937849 0 0)
(-2.7409878 -0.30343074 0 -0.00032420153 0 0)
(-2.6843487 -0.2993151 0 -0.00016673038 0 0)
(-2.7156021 -0.30127561 0 -5.9491941e-05 0 0)
(-2.6822177 -0.29888533 0 -3.3927557e-05 0 0)
(-2.7073148 -0.30063282 0 -1.612853e-05 0 0)
(-2.6827237 -0.29883688 0 3.3534609e-06 0 0)
(-2.704251 -0.30042757 0 -1.0028916e-05 0 0)
(-2.6838453 -0.29891116 0 9.1052778e-06 0 0)
(-2.702728 -0.30032764 0 -9.6257847e-06 0 0)
(-2.6849152 -0.2989922 0 8.8740783e-06 0 0)
(-2.7015985 -0.30024658 0 -8.8043372e-06 0 0)
(-2.6858835 -0.29906555 0 8.0433108e-06 0 0)
(-2.7006268 -0.30017436 0 -7.8024266e-06 0 0)
(-2.6867593 -0.29913165 0 7.233373e-06 0 0)
(-2.6997704 -0.30011035 0 -6.9177475e-06 0 0)
(-2.6875467 -0.29919103 0 6.4833873e-06 0 0)
(-2.6990114 -0.30005359 0 -6.1620763e-06 0 0)
(-2.688252 -0.29924417 0 5.8090047e-06 0 0)
(-2.6983363 -0.30000311 0 -5.5108244e-06 0 0)
(-2.6888832 -0.29929168 0 5.2124239e-06 0 0)
(-2.697734 -0.29995808 0 -4.9458142e-06 0 0)
(-2.6894489 -0.2993342 0 4.6892082e-06 0 0)
(-2.6971947 -0.29991777 0 -4.4547423e-06 0 0)
(-2.689957 -0.29937235 0 4.2328872e-06 0 0)
(-2.69671 -0.29988155 0 -4.0286092e-06 0 0)
(-2.6904151 -0.29940671 0 3.8369975e-06 0 0)
(-2.6962725 -0.29984888 0 -3.660407e-06 0 0)
(-2.6908299 -0.29943779 0 3.4957868e-06 0 0)
(-2.6958756 -0.29981926 0 -3.3445118e-06 0 0)
(-2.6912074 -0.29946603 0 3.2043845e-06 0 0)
(-2.6955135 -0.29979227 0 -3.0763862e-06 0 0)
(-2.6915531 -0.29949186 0 2.9588045e-06 0 0)
(-2.6951809 -0.29976751 0 -2.852463e-06 0 0)
(-2.6918719 -0.29951563 0 2.7558798e-06 0 0)
(-2.6948732 -0.29974463 0 -2.6702329e-06 0 0)
(-2.6921682 -0.29953769 0 2.5935008e-06 0 0)
(-2.6945858 -0.2997233 0 -2.5270587e-06 0 0)
(-2.6924464 -0.29955831 0 2.4755713e-06 0 0)
(-2.6943149 -0.29970319 0 -2.4129173e-06 0 0)
(-2.692712 -0.29957789 0 2.4080521e-06 0 0)
(-2.6940617 -0.29968465 0 -2.4027547e-06 0 0)
(-2.6929764 -0.29959885 0 2.0214807e-06 0 0)
(-2.6938065 -0.29967127 0 -3.6086044e-06 0 0)
(-2.6931696 -0.2996071 0 3.2273154e-06 0 0)
(-2.8387733 -1.1349371 0 -0.3864368 0 0)
(-3.3035381 -0.45947376 0 -0.047607807 0 0)
(-3.4840897 -0.41592844 0 -0.019104507 0 0)
(-3.0420337 -0.33684421 0 -0.0063124927 0 0)
(-2.7637098 -0.31368427 0 -0.0033271476 0 0)
(-2.5764591 -0.29259026 0 -0.00028783888 0 0)
(-2.5696087 -0.29383058 0 -0.00035233394 0 0)
(-2.5202563 -0.29003159 0 -0.00017521345 0 0)
(-2.5492907 -0.29191058 0 -5.8786008e-05 0 0)
(-2.519645 -0.28969731 0 -3.8239803e-05 0 0)
(-2.5426696 -0.29135285 0 -1.4495085e-05 0 0)
(-2.5204506 -0.28965916 0 1.2849787e-06 0 0)
(-2.5400391 -0.29116432 0 -8.3380786e-06 0 0)
(-2.5215177 -0.28972955 0 7.6262975e-06 0 0)
(-2.5386749 -0.29107085 0 -8.1813362e-06 0 0)
(-2.522495 -0.2898067 0 7.5442511e-06 0 0)
(-2.5376513 -0.29099433 0 -7.54367e-06 0 0)
(-2.5233767 -0.28987645 0 6.8438327e-06 0 0)
(-2.5367693 -0.29092595 0 -6.6793546e-06 0 0)
(-2.5241725 -0.28993912 0 6.1645071e-06 0 0)
(-2.5359919 -0.29086536 0 -5.9140632e-06 0 0)
(-2.524887 -0.28999532 0 5.5315013e-06 0 0)
(-2.535303 -0.29081165 0 -5.2647302e-06 0 0)
(-2.5255267 -0.2900456 0 4.9592447e-06 0 0)
(-2.5346904 -0.29076388 0 -4.7074516e-06 0 0)
(-2.5260993 -0.29009055 0 4.4514458e-06 0 0)
(-2.5341437 -0.29072126 0 -4.2247318e-06 0 0)
(-2.5266124 -0.29013079 0 4.0052831e-06 0 0)
(-2.5336541 -0.29068309 0 -3.8052572e-06 0 0)
(-2.5270735 -0.29016693 0 3.6156779e-06 0 0)
(-2.533214 -0.29064879 0 -3.4411019e-06 0 0)
(-2.5274893 -0.29019948 0 3.2773398e-06 0 0)
(-2.5328167 -0.29061782 0 -3.1262573e-06 0 0)
(-2.5278658 -0.29022894 0 2.9854936e-06 0 0)
(-2.5324563 -0.29058974 0 -2.8559614e-06 0 0)
(-2.5282085 -0.29025572 0 2.7360684e-06 0 0)
(-2.5321275 -0.29056414 0 -2.6263854e-06 0 0)
(-2.5285222 -0.29028022 0 2.5257152e-06 0 0)
(-2.5318257 -0.29054064 0 -2.4345183e-06 0 0)
(-2.5288115 -0.29030278 0 2.3517466e-06 0 0)
(-2.5315464 -0.29051892 0 -2.2782631e-06 0 0)
(-2.5290804 -0.29032372 0 2.2123356e-06 0 0)
(-2.5312857 -0.29049867 0 -2.1552242e-06 0 0)
(-2.5293325 -0.29034331 0 2.111583e-06 0 0)
(-2.53104 -0.29047955 0 -2.054525e-06 0 0)
(-2.5295729 -0.29036189 0 2.0570714e-06 0 0)
(-2.5308106 -0.29046191 0 -2.0486459e-06 0 0)
(-2.5298139 -0.29038199 0 1.6616222e-06 0 0)
(-2.5305875 -0.29044974 0 -3.2597153e-06 0 0)
(-2.5300122 -0.29039119 0 2.8978335e-06 0 0)
(-2.9118035 -1.0834772 0 -0.34442149 0 0)
(-2.8712272 -0.43093213 0 -0.046748669 0 0)
(-3.1843965 -0.41188599 0 -0.023403755 0 0)
(-2.7625858 -0.33017794 0 -0.0087468314 0 0)
(-2.5979045 -0.30529566 0 -0.0034739669 0 0)
(-2.4229592 -0.28392874 0 -0.00044471946 0 0)
(-2.4098907 -0.28454357 0 -0.00039442877 0 0)
(-2.3617424 -0.28073032 0 -0.00018024319 0 0)
(-2.3886875 -0.28255142 0 -5.5758252e-05 0 0)
(-2.3621666 -0.28050119 0 -4.081652e-05 0 0)
(-2.3832605 -0.28207319 0 -1.2596897e-05 0 0)
(-2.3631905 -0.28047879 0 -4.1152936e-07 0 0)
(-2.3810098 -0.28190226 0 -6.766418e-06 0 0)
(-2.3642115 -0.28054649 0 6.3249903e-06 0 0)
(-2.379795 -0.28181535 0 -6.8738843e-06 0 0)
(-2.3651061 -0.28061995 0 6.3566547e-06 0 0)
(-2.3788696 -0.2817433 0 -6.408996e-06 0 0)
(-2.3659083 -0.28068617 0 5.7690965e-06 0 0)
(-2.3780699 -0.28167869 0 -5.6713254e-06 0 0)
(-2.3666309 -0.2807455 0 5.2064486e-06 0 0)
(-2.3773649 -0.28162141 0 -5.0142565e-06 0 0)
(-2.3672789 -0.28079863 0 4.678399e-06 0 0)
(-2.37674 -0.28157064 0 -4.4605349e-06 0 0)
(-2.3678589 -0.28084615 0 4.1976931e-06 0 0)
(-2.3761841 -0.28152548 0 -3.9874626e-06 0 0)
(-2.3683781 -0.28088865 0 3.7693834e-06 0 0)
(-2.375688 -0.28148517 0 -3.5783888e-06 0 0)
(-2.3688436 -0.28092672 0 3.3921707e-06 0 0)
(-2.3752435 -0.28144905 0 -3.2229774e-06 0 0)
(-2.369262 -0.28096091 0 3.0622707e-06 0 0)
(-2.374844 -0.28141658 0 -2.9142958e-06 0 0)
(-2.3696394 -0.28099173 0 2.77546e-06 0 0)
(-2.3744832 -0.28138725 0 -2.6472354e-06 0 0)
(-2.3699812 -0.28101964 0 2.5278365e-06 0 0)
(-2.374156 -0.28136064 0 -2.4177985e-06 0 0)
(-2.3702922 -0.28104502 0 2.3160352e-06 0 0)
(-2.3738575 -0.28133638 0 -2.2227794e-06 0 0)
(-2.3705769 -0.28106824 0 2.1372656e-06 0 0)
(-2.3735835 -0.2813141 0 -2.059653e-06 0 0)
(-2.3708394 -0.28108963 0 1.9892591e-06 0 0)
(-2.3733301 -0.2812935 0 -1.9266777e-06 0 0)
(-2.3710832 -0.2811095 0 1.8704287e-06 0 0)
(-2.3730937 -0.28127428 0 -1.8216865e-06 0 0)
(-2.3713118 -0.28112808 0 1.7849557e-06 0 0)
(-2.3728708 -0.28125613 0 -1.7331784e-06 0 0)
(-2.3715294 -0.28114569 0 1.7419061e-06 0 0)
(-2.3726628 -0.28123935 0 -1.7304298e-06 0 0)
(-2.3717489 -0.28116492 0 1.3429844e-06 0 0)
(-2.3724679 -0.28122821 0 -2.9243595e-06 0 0)
(-2.3719484 -0.28117491 0 2.5903968e-06 0 0)
(-2.9390272 -1.0209743 0 -0.30371135 0 0)
(-2.5265611 -0.40608894 0 -0.044446384 0 0)
(-2.8936534 -0.39074161 0 -0.022040745 0 0)
(-2.5154195 -0.31655045 0 -0.0088840551 0 0)
(-2.4274303 -0.29442678 0 -0.0031402531 0 0)
(-2.2697984 -0.27485407 0 -0.00056614651 0 0)
(-2.253711 -0.27506768 0 -0.00041086279 0 0)
(-2.2088765 -0.27142024 0 -0.00017441087 0 0)
(-2.2333838 -0.27317735 0 -4.9854126e-05 0 0)
(-2.2097591 -0.27129518 0 -4.1382316e-05 0 0)
(-2.22905 -0.27279177 0 -1.0227871e-05 0 0)
(-2.2109432 -0.27129505 0 -1.6768975e-06 0 0)
(-2.2271449 -0.27264087 0 -5.2510572e-06 0 0)
(-2.2119278 -0.27136166 0 5.1982685e-06 0 0)
(-2.2260747 -0.27256094 0 -5.6786741e-06 0 0)
(-2.212752 -0.2714318 0 5.2966537e-06 0 0)
(-2.2252438 -0.27249342 0 -5.3831211e-06 0 0)
(-2.2134837 -0.27149467 0 4.8041108e-06 0 0)
(-2.2245215 -0.27243253 0 -4.7632926e-06 0 0)
(-2.2141401 -0.27155078 0 4.3452234e-06 0 0)
(-2.2238831 -0.27237847 0 -4.204754e-06 0 0)
(-2.2147278 -0.27160097 0 3.9112951e-06 0 0)
(-2.2233168 -0.27233053 0 -3.737251e-06 0 0)
(-2.2152536 -0.27164585 0 3.5127716e-06 0 0)
(-2.2228128 -0.27228787 0 -3.3398455e-06 0 0)
(-2.2157243 -0.271686 0 3.1558076e-06 0 0)
(-2.2223628 -0.27224977 0 -2.9968871e-06 0 0)
(-2.2161464 -0.27172199 0 2.8404892e-06 0 0)
(-2.2219595 -0.27221562 0 -2.6989967e-06 0 0)
(-2.2165259 -0.27175433 0 2.5642122e-06 0 0)
(-2.2215968 -0.2721849 0 -2.4401531e-06 0 0)
(-2.2168682 -0.27178349 0 2.3237119e-06 0 0)
(-2.2212694 -0.27215714 0 -2.2160523e-06 0 0)
(-2.2171783 -0.2718099 0 2.1158611e-06 0 0)
(-2.2209724 -0.27213195 0 -2.0233727e-06 0 0)
(-2.2174604 -0.27183393 0 1.937917e-06 0 0)
(-2.2207016 -0.27210897 0 -1.8594563e-06 0 0)
(-2.2177187 -0.27185592 0 1.7875797e-06 0 0)
(-2.220453 -0.27208787 0 -1.722204e-06 0 0)
(-2.2179567 -0.27187619 0 1.6629486e-06 0 0)
(-2.2202232 -0.27206835 0 -1.6101819e-06 0 0)
(-2.2181778 -0.27189502 0 1.5626435e-06 0 0)
(-2.2200089 -0.27205014 0 -1.5214426e-06 0 0)
(-2.2183849 -0.27191264 0 1.49083e-06 0 0)
(-2.2198068 -0.27203291 0 -1.4440921e-06 0 0)
(-2.2185818 -0.27192932 0 1.4578548e-06 0 0)
(-2.2196183 -0.27201696 0 -1.4436942e-06 0 0)
(-2.2187814 -0.27194765 0 1.0604735e-06 0 0)
(-2.2194482 -0.27200669 0 -2.6015375e-06 0 0)
(-2.2189792 -0.27195829 0 2.3050042e-06 0 0)
(-2.9820991 -0.99777299 0 -0.28391384 0 0)
(-2.2953527 -0.39310938 0 -0.045315273 0 0)
(-2.6748569 -0.3769045 0 -0.022067113 0 0)
(-2.3369442 -0.30659557 0 -0.0091400268 0 0)
(-2.277577 -0.28439341 0 -0.0028569863 0 0)
(-2.1271138 -0.26585891 0 -0.00063574441 0 0)
(-2.1071383 -0.26572329 0 -0.00040413786 0 0)
(-2.0624036 -0.26212588 0 -0.00015852688 0 0)
(-2.083949 -0.26381263 0 -3.9393278e-05 0 0)
(-2.0626406 -0.26208502 0 -3.9251194e-05 0 0)
(-2.0801466 -0.26351148 0 -6.9637822e-06 0 0)
(-2.0637758 -0.26210903 0 -2.3862754e-06 0 0)
(-2.0784702 -0.26338072 0 -3.7102505e-06 0 0)
(-2.0646921 -0.26217529 0 4.2539215e-06 0 0)
(-2.0775184 -0.26330782 0 -4.5691193e-06 0 0)
(-2.0654453 -0.26224237 0 4.3529283e-06 0 0)
(-2.0767717 -0.26324475 0 -4.4500318e-06 0 0)
(-2.0661107 -0.26230199 0 3.9353666e-06 0 0)
(-2.0761196 -0.26318747 0 -3.9418671e-06 0 0)
(-2.0667062 -0.26235501 0 3.5680825e-06 0 0)
(-2.0755422 -0.26313652 0 -3.4735023e-06 0 0)
(-2.0672386 -0.26240237 0 3.2186343e-06 0 0)
(-2.0750294 -0.2630913 0 -3.0839861e-06 0 0)
(-2.0677148 -0.26244473 0 2.8941022e-06 0 0)
(-2.0745727 -0.26305103 0 -2.7548013e-06 0 0)
(-2.0681412 -0.26248264 0 2.6014175e-06 0 0)
(-2.0741647 -0.26301504 0 -2.4714289e-06 0 0)
(-2.0685237 -0.26251663 0 2.3418954e-06 0 0)
(-2.0737991 -0.26298277 0 -2.2254073e-06 0 0)
(-2.0688677 -0.2625472 0 2.1139947e-06 0 0)
(-2.0734702 -0.26295372 0 -2.0115407e-06 0 0)
(-2.069178 -0.26257477 0 1.9153078e-06 0 0)
(-2.0731733 -0.26292748 0 -1.8262405e-06 0 0)
(-2.0694591 -0.26259974 0 1.743394e-06 0 0)
(-2.072904 -0.26290365 0 -1.6667813e-06 0 0)
(-2.0697149 -0.26262248 0 1.5960594e-06 0 0)
(-2.0726584 -0.26288191 0 -1.5309887e-06 0 0)
(-2.0699489 -0.26264329 0 1.4714369e-06 0 0)
(-2.0724331 -0.26286194 0 -1.4171384e-06 0 0)
(-2.0701646 -0.26266247 0 1.3679519e-06 0 0)
(-2.0722249 -0.26284346 0 -1.3240659e-06 0 0)
(-2.0703649 -0.26268029 0 1.2844071e-06 0 0)
(-2.0720307 -0.26282621 0 -1.250036e-06 0 0)
(-2.0705524 -0.26269698 0 1.2248724e-06 0 0)
(-2.0718477 -0.26280989 0 -1.1829885e-06 0 0)
(-2.0707303 -0.26271277 0 1.2007256e-06 0 0)
(-2.0716768 -0.26279474 0 -1.1844509e-06 0 0)
(-2.0709117 -0.2627302 0 8.0950545e-07 0 0)
(-2.0715285 -0.26278522 0 -2.2902558e-06 0 0)
(-2.0711055 -0.26274137 0 2.0410992e-06 0 0)
(-3.0290196 -0.92992573 0 -0.24264278 0 0)
(-2.1371106 -0.36703073 0 -0.040468395 0 0)
(-2.4900513 -0.35696242 0 -0.019847015 0 0)
(-2.1837452 -0.29467504 0 -0.0086613801 0 0)
(-2.1344366 -0.2740219 0 -0.0025312473 0 0)
(-1.9883395 -0.25657219 0 -0.00061437362 0 0)
(-1.965575 -0.25628081 0 -0.00036029145 0 0)
(-1.9217207 -0.25283411 0 -0.00013018875 0 0)
(-1.940008 -0.25444652 0 -2.5515634e-05 0 0)
(-1.920749 -0.2528696 0 -3.4664609e-05 0 0)
(-1.936527 -0.25423175 0 -2.7649284e-06 0 0)
(-1.921698 -0.25292083 0 -2.5046331e-06 0 0)
(-1.9349825 -0.25412188 0 -2.0848258e-06 0 0)
(-1.9225106 -0.25298742 0 3.5021276e-06 0 0)
(-1.9341196 -0.25405595 0 -3.5190396e-06 0 0)
(-1.9231896 -0.2530516 0 3.5188214e-06 0 0)
(-1.9334467 -0.25399723 0 -3.594577e-06 0 0)
(-1.923793 -0.25310813 0 3.1527173e-06 0 0)
(-1.9328589 -0.25394347 0 -3.1951763e-06 0 0)
(-1.9243328 -0.2531582 0 2.8648525e-06 0 0)
(-1.9323375 -0.25389552 0 -2.8102174e-06 0 0)
(-1.9248149 -0.25320288 0 2.59099e-06 0 0)
(-1.9318739 -0.25385289 0 -2.4916281e-06 0 0)
(-1.9252459 -0.25324283 0 2.3331565e-06 0 0)
(-1.9314605 -0.25381491 0 -2.2242092e-06 0 0)
(-1.9256319 -0.2532786 0 2.098557e-06 0 0)
(-1.9310911 -0.25378095 0 -1.9947546e-06 0 0)
(-1.9259782 -0.25331069 0 1.8895216e-06 0 0)
(-1.9307599 -0.25375047 0 -1.7956965e-06 0 0)
(-1.9262896 -0.25333955 0 1.7054406e-06 0 0)
(-1.930462 -0.25372304 0 -1.6225883e-06 0 0)
(-1.9265707 -0.25336559 0 1.5446633e-06 0 0)
(-1.930193 -0.25369824 0 -1.4724771e-06 0 0)
(-1.9268252 -0.25338919 0 1.405355e-06 0 0)
(-1.9299491 -0.25367573 0 -1.3431653e-06 0 0)
(-1.9270568 -0.25341068 0 1.2858072e-06 0 0)
(-1.9297267 -0.25365517 0 -1.232906e-06 0 0)
(-1.9272687 -0.25343035 0 1.1845364e-06 0 0)
(-1.9295227 -0.25363629 0 -1.1403078e-06 0 0)
(-1.9274639 -0.25344849 0 1.100259e-06 0 0)
(-1.9293342 -0.25361882 0 -1.0644433e-06 0 0)
(-1.9276451 -0.25346534 0 1.0319434e-06 0 0)
(-1.9291585 -0.2536025 0 -1.0037829e-06 0 0)
(-1.9278147 -0.25348113 0 9.8349811e-07 0 0)
(-1.9289929 -0.25358705 0 -9.4631665e-07 0 0)