/*--------------------------------*- C++ -*----------------------------------*\
| =========                 |                                                 |
| \\      /  F ield         | OpenFOAM: The Open Source CFD Toolbox           |
|  \\    /   O peration     | Version:  2312                                  |
|   \\  /    A nd           | Website:  www.openfoam.com                      |
|    \\/     M anipulation  |                                                 |
\*---------------------------------------------------------------------------*/
FoamFile
{
    version     2.0;
    format      ascii;
    arch        "LSB;label=32;scalar=64";
    class       volScalarField;
    location    "10";
    object      T;
}
// * * * * * * * * * * * * * * * * * * * * * * * * * * * * * * * * * * * * * //

dimensions      [0 0 0 1 0 0 0];

internalField   nonuniform List<scalar> 
4000
(
325.2053
324.06219
323.83328
323.76601
323.68899
323.6355
323.58363
323.53746
323.49258
323.45092
323.40916
323.36979
323.32995
323.2919
323.25342
323.21622
323.17874
323.14212
323.10542
323.06921
323.03312
322.99721
322.96162
322.92594
322.89076
322.85525
322.82042
322.78503
322.75051
322.71521
322.68096
322.64572
322.61172
322.57651
322.54274
322.50754
322.47399
322.43878
322.40544
322.3702
322.33707
322.30177
322.26887
322.23346
322.20083
322.16525
322.13296
322.09707
322.06538
322.02827
327.13894
325.298
324.68759
324.552
324.3884
324.29482
324.20626
324.13468
324.06701
324.00895
323.95063
323.89944
323.8469
323.79967
323.75119
323.70651
323.66104
323.61809
323.57494
323.53324
323.49192
323.45112
323.4113
323.37117
323.33259
323.29297
323.25544
323.21618
323.17958
323.14059
323.1048
323.06599
323.03094
322.99224
322.95787
322.91921
322.88549
322.8468
322.81372
322.77493
322.74248
322.70351
322.67175
322.63246
322.60149
322.5617
322.53176
322.49101
322.4629
322.41864
328.33256
326.48608
325.53463
325.3324
325.0845
324.95133
324.82662
324.72977
324.63961
324.56519
324.49051
324.42749
324.36239
324.30597
324.2476
324.1954
324.14203
324.09274
324.04321
323.99599
323.94951
323.9038
323.85979
323.8152
323.77326
323.72951
323.68932
323.64618
323.60753
323.56483
323.52753
323.48514
323.44907
323.40686
323.37192
323.32978
323.29591
323.25373
323.22092
323.17857
323.14683
323.10417
323.07357
323.0304
323.0011
322.95709
322.9295
322.88391
322.85934
322.80834
329.12275
327.58591
326.36203
326.0996
325.77252
325.60133
325.44184
325.32024
325.20827
325.11767
325.02707
324.9523
324.87496
324.80936
324.74134
324.68163
324.62055
324.5649
324.50914
324.45638
324.40486
324.35422
324.30613
324.25706
324.21185
324.16394
324.12118
324.07413
324.03349
323.98708
323.94832
323.90233
323.86528
323.81955
323.78408
323.73845
323.70448
323.65879
323.62629
323.58037
323.54935
323.50301
323.47358
323.42652
323.39892
323.3507
323.32545
323.27507
323.25393
323.19675
329.66974
328.56149
327.15377
326.84348
326.44593
326.23989
326.04804
325.90281
325.77021
325.66389
325.55811
325.47182
325.38276
325.3081
325.23083
325.16367
325.09518
325.03318
324.97145
324.91316
324.8568
324.80121
324.74922
324.69565
324.64731
324.59524
324.55001
324.49906
324.45653
324.40638
324.36626
324.31666
324.27871
324.22945
324.19351
324.14438
324.11036
324.06116
324.02901
323.97952
323.94927
323.89924
323.87101
323.82009
323.79417
323.74178
323.71885
323.66376
323.64588
323.58319
330.06072
329.39099
327.89325
327.55225
327.09692
326.86104
326.64049
326.47351
326.32206
326.20086
326.081
325.98363
325.88362
325.80015
325.7142
325.63973
325.56427
325.49603
325.42867
325.3649
325.30398
325.24349
325.18783
325.12978
325.0785
325.02229
324.97475
324.91989
324.87562
324.82174
324.78037
324.72717
324.68841
324.63563
324.59931
324.54669
324.51268
324.45998
324.42824
324.3752
324.34575
324.29207
324.26506
324.2103
324.18607
324.12958
324.10891
324.04928
324.03438
323.9669
330.34614
330.0638
328.56548
328.21367
327.71709
327.45815
327.21385
327.02788
326.86001
326.7252
326.59276
326.48502
326.37508
326.28324
326.18936
326.10787
326.02601
325.95171
325.87918
325.81006
325.74494
325.67964
325.62059
325.55815
325.50417
325.44386
325.39423
325.33551
325.28966
325.23209
325.1896
325.13284
325.0934
325.03713
325.00052
324.94445
324.91053
324.85438
324.82309
324.76656
324.73794
324.68066
324.65488
324.59638
324.57381
324.51334
324.49482
324.43089
324.41863
324.34705
330.55846
330.583
329.1596
328.8165
328.29816
328.02435
327.76247
327.56115
327.37992
327.23326
327.09012
326.97304
326.85448
326.75491
326.65404
326.56595
326.47843
326.39836
326.32121
326.24696
326.1781
326.10815
326.04609
325.97936
325.923
325.85869
325.80721
325.74471
325.69749
325.63631
325.59288
325.53262
325.49264
325.43294
325.39616
325.3367
325.30296
325.24342
325.21266
325.1527
325.12496
325.06418
325.03963
324.9775
324.95655
324.89226
324.87577
324.80783
324.79785
324.72283
330.71947
330.96143
329.66958
329.35205
328.83281
328.5531
328.28076
328.06849
327.87755
327.72128
327.56972
327.44461
327.319
327.21256
327.10586
327.01176
326.91943
326.83402
326.75294
326.67387
326.6018
326.52744
326.4628
326.39199
326.33359
326.26545
326.21241
326.14627
326.09792
326.03324
325.98908
325.92542
325.88506
325.82204
325.78521
325.72247
325.68901
325.62619
325.59603
325.53275
325.50592
325.44176
325.41845
325.35284
325.33345
325.26557
325.25094
325.17936
325.17125
325.09339
330.84432
331.21943
330.09474
329.81523
329.31527
329.03868
328.76355
328.54532
328.34876
328.18554
328.02818
327.89667
327.76583
327.65358
327.54238
327.44302
327.3469
327.2567
327.17246
327.08899
327.01434
326.9359
326.86918
326.79454
326.73452
326.66276
326.6085
326.53891
326.48971
326.42171
326.37703
326.31014
326.26958
326.20338
326.16665
326.10077
326.06769
326.00173
325.97224
325.9058
325.87992
325.81255
325.79045
325.72158
325.70367
325.63247
325.61951
325.5447
325.53808
325.45789
330.94394
331.38124
330.43902
330.2051
329.74177
329.47664
329.2065
328.98755
328.78975
328.62258
328.46228
328.32625
328.19219
328.07542
327.96119
327.85749
327.75871
327.6644
327.57789
327.49054
327.41401
327.3319
327.26367
327.18555
327.12436
327.04927
326.99417
326.92137
326.87163
326.80052
326.75557
326.68565
326.64509
326.57591
326.53944
326.47059
326.43802
326.36911
326.34035
326.27096
326.24604
326.17569
326.15478
326.0829
326.06636
325.99217
325.98068
325.90308
325.89759
325.81554
331.02573
331.47172
330.71032
330.52449
330.1107
329.86417
329.60634
329.39191
329.1973
329.02937
328.86912
328.73065
328.59552
328.47568
328.36004
328.25305
328.15282
328.0552
327.96738
327.87678
327.79913
327.71386
327.64474
327.56355
327.5017
327.42364
327.3681
327.2924
327.24245
327.1685
327.12357
327.05086
327.01052
326.93859
326.90255
326.83097
326.79902
326.72739
326.69945
326.62733
326.60341
326.53033
326.51058
326.43598
326.42072
326.34389
326.33365
326.25371
326.24907
326.16554
331.09515
331.51401
330.9188
330.7792
330.42281
330.20033
329.9612
329.75613
329.56894
329.40344
329.24629
329.10754
328.97357
328.85222
328.73683
328.62772
328.52735
328.42732
328.33921
328.24607
328.16813
328.08027
328.01092
327.92715
327.86518
327.78455
327.72902
327.65079
327.60098
327.52453
327.47989
327.4047
327.36481
327.29041
327.25497
327.18094
327.14974
327.07566
327.0486
326.97405
326.95114
326.87564
326.857
326.78004
326.76592
326.68686
326.67766
326.59585
326.5918
326.50715
331.15555
331.52722
331.07574
330.97716
330.68099
330.4861
330.27064
330.07908
329.90312
329.74311
329.59194
329.45509
329.32447
329.20323
329.08979
328.9798
328.88062
328.77915
328.6918
328.59691
328.51952
328.42974
328.36084
328.27504
328.21351
328.13079
328.07573
327.99538
327.9461
327.86751
327.82348
327.74615
327.70695
327.63041
327.59575
327.51958
327.48926
327.41304
327.38695
327.31028
327.2884
327.21083
327.19326
327.11429
327.10122
327.02033
327.012
326.92875
326.9251
326.83965
331.20943
331.52603
331.19213
331.12742
330.88998
330.72417
330.53568
330.36085
330.19929
330.04748
329.90492
329.77206
329.64687
329.52733
329.4175
329.3079
329.21121
329.10933
329.02381
328.928
328.85203
328.76101
328.69328
328.60604
328.54553
328.46124
328.40712
328.32512
328.27675
328.19645
328.15334
328.07425
328.036
327.95768
327.92399
327.84604
327.81672
327.73872
327.71367
327.63523
327.61441
327.53512
327.51859
327.43801
327.42588
327.3436
327.33596
327.2517
327.24834
327.16237
331.25808
331.52016
331.27804
331.23928
331.05577
330.91864
330.75868
330.6027
330.45792
330.31655
330.18483
330.05782
329.93995
329.82365
329.71896
329.61099
329.51807
329.4168
329.33414
329.23828
329.16456
329.07305
329.00718
328.91914
328.86022
328.77493
328.72223
328.63907
328.59201
328.51045
328.46856
328.38815
328.35108
328.27139
328.23886
328.15951
328.13132
328.05193
328.02798
327.94818
327.92842
327.84783
327.83228
327.75052
327.73922
327.65598
327.64892
327.56405
327.56088
327.47469
331.30258
331.51555
331.34194
331.32154
331.18501
331.0746
330.94306
330.80693
330.68044
330.55116
330.43203
330.31243
330.20348
330.09179
329.99362
329.88846
329.80046
329.70081
329.62198
329.52693
329.45629
329.36503
329.30169
329.21351
329.15675
329.07103
329.02021
328.93643
328.89105
328.80872
328.76837
328.68709
328.65144
328.57081
328.53961
328.45928
328.43236
328.35198
328.32921
328.24844
328.22977
328.14829
328.13369
328.05117
328.04064
327.95686
327.95028
327.86519
327.86217
327.77604
331.34341
331.51482
331.39063
331.38196
331.28445
331.19767
331.09308
330.9767
330.86912
330.75293
330.64758
330.5366
330.43782
330.3319
330.24143
330.14014
330.05808
329.96099
329.88687
329.79346
329.72663
329.63636
329.57619
329.48853
329.43445
329.3489
329.30041
329.21654
329.17321
329.09062
329.0521
328.97042
328.93642
328.85531
328.82562
328.74475
328.7192
328.63827
328.61675
328.53545
328.51788
328.43593
328.42227
328.33942
328.32959
328.24568
328.23952
328.15458
328.15168
328.0659
331.38104
331.51869
331.42918
331.42694
331.36043
331.29355
331.2134
331.11576
331.02685
330.92413
330.83316
330.73161
330.64389
330.54466
330.46277
330.36626
330.29099
330.19731
330.12865
330.03766
329.97531
329.88673
329.8303
329.7438
329.69289
329.60811
329.56234
329.47894
329.43799
329.35565
329.31923
329.23764
329.20552
329.12438
329.09637
329.0154
328.99135
328.9103
328.89009
328.80869
328.79225
328.71027
328.69751
328.61476
328.60559
328.52197
328.51618
328.43174
328.42896
328.34383
331.4157
331.52658
331.46117
331.46148
331.41859
331.36768
331.30881
331.22817
331.15702
331.06752
330.991
330.89928
330.82308
330.73119
330.65851
330.5675
330.49966
330.41011
330.34752
330.25964
330.20232
330.11609
330.06389
329.97916
329.93185
329.8484
329.80573
329.72333
329.68508
329.60348
329.56942
329.48839
329.45835
329.37765
329.35146
329.27085
329.24839
329.16766
329.14883
329.06777
329.05247
328.97089
328.95904
328.8768
328.86827
328.78531
328.77988
328.69628
328.69363
328.60943
331.44767
331.5375
331.48896
331.48921
331.46367
331.42493
331.38392
331.31807
331.26322
331.1862
331.12369
331.04179
330.97721
330.893
330.82988
330.74487
330.6849
330.60006
330.544
330.45982
330.40797
330.32467
330.2771
330.19469
330.15134
330.06976
330.0305
329.94961
329.91431
329.83395
329.80247
329.72248
329.69468
329.61487
329.59064
329.51083
329.49007
329.41009
329.39269
329.31238
329.29827
329.21749
329.20655
329.12521
329.11731
329.03539
329.03032
328.94788
328.94537
328.8624
331.47716
331.55036
331.51398
331.51266
331.49941
331.46949
331.44293
331.38946
331.34906
331.2834
331.23404
331.16163
331.10841
331.03196
330.97843
330.89975
330.84785
330.76814
330.71889
330.63889
330.59282
330.51294
330.4703
330.39071
330.35159
330.27236
330.23676
330.15786
330.12573
330.04707
330.01834
329.93984
329.91443
329.83595
329.81379
329.73521
329.71621
329.63741
329.6215
329.54236
329.52944
329.44987
329.43984
329.35979
329.35251
329.27198
329.26727
329.1863
329.18396
329.10251
331.50438
331.56423
331.53707
331.53346
331.52865
331.50475
331.4895
331.44599
331.41801
331.36233
331.32497
331.26142
331.21898
331.15014
331.10599
331.03373
330.9899
330.91559
330.87326
330.79779
330.75766
330.6816
330.64408
330.56774
330.53305
330.4566
330.42484
330.34834
330.31955
330.24302
330.21718
330.14058
330.11768
330.04094
330.02094
329.94399
329.92682
329.84959
329.8352
329.75761
329.74591
329.66792
329.65882
329.5804
329.57377
329.49493
329.49061
329.4114
329.40924
329.32959
331.52957
331.57848
331.55862
331.55255
331.55345
331.53334
331.52669
331.49087
331.47325
331.42607
331.39934
331.34381
331.31135
331.24973
331.21453
331.14861
331.11266
331.04384
331.00839
330.93768
330.90353
330.83158
330.79926
330.7265
330.69634
330.62303
330.59522
330.52151
330.49615
330.42213
330.39928
330.32496
330.30464
330.23002
330.21223
330.13729
330.122
330.0467
330.03386
329.95818
329.94772
329.87165
329.86349
329.78702
329.78105
329.70421
329.7003
329.62313
329.62117
329.54358
331.55291
331.59263
331.57885
331.57047
331.57516
331.55725
331.55692
331.52681
331.51759
331.4774
331.45984
331.4114
331.38792
331.33299
331.30611
331.2463
331.21785
331.1545
331.12571
331.05986
331.0316
330.96396
330.93682
330.8679
330.84228
330.7724
330.74857
330.67796
330.65608
330.58489
330.56507
330.49337
330.47567
330.40351
330.38797
330.31537
330.30197
330.22894
330.21767
330.14422
330.13501
330.06117
330.05396
329.97973
329.97443
329.89987
329.89638
329.8215
329.81975
329.74448
331.57458
331.60646
331.59784
331.58746
331.59469
331.57784
331.58206
331.55601
331.55341
331.5188
331.50895
331.46658
331.45101
331.40212
331.38281
331.32873
331.30727
331.24924
331.22679
331.16578
331.1432
331.07996
331.05787
330.99295
330.9718
330.90558
330.88569
330.81843
330.80002
330.73192
330.71514
330.64633
330.63126
330.56185
330.54855
330.47859
330.46709
330.39662
330.38691
330.31598
330.30803
330.23668
330.23043
330.15871
330.15409
330.08205
330.07899
330.00664
330.0051
329.93239
331.59474
331.61982
331.61562
331.60359
331.61257
331.59608
331.60349
331.58019
331.58266
331.55237
331.54883
331.51155
331.50276
331.45921
331.44662
331.39783
331.38274
331.32976
331.31321
331.25694
331.23973
331.1809
331.16364
331.1028
331.08598
331.02354
331.0075
330.94378
330.92876
330.86397
330.85016
330.78449
330.77201
330.70558
330.69451
330.62742
330.6178
330.55014
330.54199
330.47382
330.46711
330.3985
330.3932
330.32421
330.32028
330.25097
330.24836
330.17874
330.17742
330.10746
331.61354
331.63267
331.63223
331.61891
331.62912
331.61257
331.62218
331.60066
331.60691
331.57987
331.58136
331.54824
331.54513
331.5062
331.49944
331.45542
331.44602
331.39776
331.38659
331.33487
331.32263
331.26813
331.25542
331.19867
331.18596
331.12738
331.11502
331.05494
331.0432
330.98187
330.97095
330.90857
330.89861
330.83536
330.82646
330.76245
330.75467
330.69001
330.68338
330.61817
330.61269
330.54701
330.54266
330.47659
330.47334
330.40693
330.40478
330.33806
330.33697
330.26993
331.63108
331.64498
331.64772
331.63338
331.6445
331.62769
331.63879
331.61835
331.62735
331.60268
331.60808
331.57829
331.57982
331.54482
331.543
331.50322
331.49879
331.45487
331.44849
331.40107
331.39336
331.34303
331.33453
331.28179
331.27293
331.2182
331.20932
331.15293
331.1443
331.08651
331.07835
331.0194
331.01185
330.95191
330.94509
330.88431
330.8783
330.81681
330.81166
330.74957
330.74528
330.68268
330.67926
330.61625
330.61369
330.55033
330.54862
330.48496
330.48409
330.42012
331.64748
331.65676
331.66212
331.647
331.65881
331.64166
331.65375
331.63393
331.64487
331.62189
331.63024
331.60307
331.60829
331.57657
331.57886
331.54278
331.54259
331.50259
331.50042
331.457
331.45333
331.40698
331.40227
331.35344
331.34809
331.29716
331.29149
331.23879
331.23307
331.17887
331.17329
331.11782
331.11256
331.05602
331.05118
330.99373
330.98941
330.9312
330.92745
330.86859
330.86545
330.80606
330.80353
330.7437
330.7418
330.6816
330.68033
330.61983
330.61918
330.5584
331.66282
331.66802
331.67548
331.65977
331.67207
331.65461
331.66733
331.64786
331.66011
331.63832
331.64883
331.62369
331.63177
331.60277
331.60836
331.57549
331.57884
331.54235
331.54377
331.50402
331.50388
331.46126
331.45993
331.41483
331.41265
331.36542
331.36267
331.31361
331.31055
331.25992
331.25673
331.20477
331.20162
331.14852
331.14553
331.09147
331.08874
331.03386
331.03145
330.97589
330.97383
330.91772
330.91605
330.85947
330.8582
330.80125
330.8004
330.74314
330.7427
330.68517
331.67718
331.67875
331.68784
331.67166
331.68431
331.66658
331.6797
331.66042
331.67351
331.65257
331.66459
331.64103
331.65125
331.62448
331.63267
331.60254
331.60876
331.57538
331.5798
331.54339
331.54627
331.50712
331.50873
331.46716
331.46778
331.42409
331.42396
331.37844
331.37778
331.33065
331.32964
331.28115
331.27994
331.23027
331.22899
331.17832
331.17706
331.12554
331.12437
331.07215
331.07111
331.01831
331.01744
330.96416
330.96349
330.90983
330.90937
330.85539
330.85516
330.80093
331.6906
331.68893
331.69922
331.68267
331.69554
331.67761
331.69095
331.67181
331.6854
331.66507
331.6781
331.65578
331.66753
331.64259
331.65275
331.62496
331.63345
331.60279
331.60966
331.57626
331.58165
331.5457
331.54981
331.51155
331.51458
331.47427
331.47643
331.4343
331.43577
331.39205
331.39299
331.34789
331.34843
331.30214
331.30241
331.2551
331.25518
331.20701
331.20698
331.15809
331.15798
331.1085
331.10837
331.05839
331.05827
331.00791
331.00782
330.95714
330.95709
330.90618
331.70313
331.69854
331.70963
331.69279
331.70574
331.6877
331.70113
331.68213
331.69596
331.67613
331.68977
331.66843
331.68123
331.65781
331.66939
331.6436
331.65382
331.62555
331.63435
331.60364
331.61108
331.57804
331.58422
331.54903
331.5541
331.51697
331.52108
331.4822
331.48551
331.44506
331.4477
331.4059
331.40799
331.365
331.36664
331.32263
331.32391
331.27904
331.28003
331.23442
331.23517
331.18896
331.18951
331.14281
331.1432
331.0961
331.09635
331.04895
331.04907
331.00145
331.71475
331.7075
331.71905
331.70199
331.71491
331.69685
331.71027
331.69145
331.70534
331.68595
331.6999
331.67938
331.69283
331.67068
331.68325
331.65916
331.67064
331.64446
331.65473
331.62642
331.63546
331.60507
331.61292
331.58056
331.58731
331.55313
331.55889
331.52305
331.52793
331.4906
331.4947
331.45606
331.45948
331.41968
331.42252
331.38171
331.38405
331.34239
331.34428
331.30189
331.3034
331.2604
331.26156
331.21807
331.21892
331.17504
331.17559
331.13142
331.13169
331.08732
331.72542
331.71572
331.72744
331.71024
331.72305
331.70506
331.71839
331.6998
331.71364
331.69466
331.7087
331.68891
331.7027
331.68164
331.69483
331.67221
331.68455
331.6602
331.67154
331.64536
331.65561
331.62761
331.63676
331.60699
331.61507
331.58364
331.59072
331.55774
331.5639
331.52952
331.53484
331.4992
331.50375
331.467
331.47086
331.43314
331.43638
331.39782
331.40049
331.36122
331.36338
331.32351
331.3252
331.28484
331.28608
331.24535
331.24617
331.20515
331.20556
331.16434
331.73497
331.72307
331.73475
331.71751
331.73014
331.71232
331.72549
331.70723
331.72091
331.70237
331.71635
331.69722
331.71112
331.69103
331.70453
331.6832
331.69607
331.67333
331.68539
331.66111
331.67222
331.64637
331.65648
331.62906
331.63817
331.60925
331.61738
331.58705
331.59424
331.56261
331.56891
331.53611
331.54158
331.50773
331.51243
331.47765
331.48164
331.44605
331.44939
331.41311
331.41583
331.37897
331.38111
331.34378
331.34536
331.30766
331.30871
331.27074
331.27126
331.23311
331.74313
331.72941
331.74092
331.72376
331.73619
331.71864
331.73162
331.71374
331.7272
331.70914
331.72294
331.70446
331.71829
331.69908
331.71267
331.6925
331.70562
331.68432
331.69679
331.67421
331.68588
331.66196
331.67273
331.64745
331.65728
331.63068
331.63957
331.6117
331.61966
331.5906
331.59766
331.56751
331.57371
331.54258
331.54796
331.51595
331.52056
331.48779
331.49167
331.45824
331.46141
331.42744
331.42994
331.39551
331.39737
331.36259
331.36383
331.32879
331.32941
331.2942
331.74959
331.7346
331.74593
331.729
331.74121
331.72403
331.73679
331.71938
331.73257
331.71504
331.72857
331.71074
331.72437
331.70599
331.71949
331.70037
331.71353
331.69351
331.70616
331.6851
331.69706
331.67488
331.68605
331.66271
331.67302
331.64852
331.65794
331.63232
331.64083
331.61414
331.62176
331.59407
331.60082
331.57223
331.57812
331.54872
331.5538
331.52369
331.52798
331.49725
331.50079
331.46954
331.47234
331.44066
331.44275
331.41074
331.41213
331.37988
331.38057
331.34818
331.75411
331.73856
331.74977
331.73323
331.74524
331.72854
331.74105
331.72418
331.73707
331.72012
331.73333
331.71615
331.72949
331.7119
331.72518
331.70703
331.72007
331.70121
331.71383
331.69415
331.70619
331.68558
331.69692
331.67533
331.68589
331.6633
331.67303
331.64946
331.65832
331.63381
331.64179
331.61639
331.6235
331.59727
331.60353
331.57656
331.58198
331.55435
331.55895
331.53075
331.53456
331.50588
331.5089
331.47982
331.48208
331.45269
331.45419
331.42458
331.42533
331.39559
331.75667
331.74132
331.7525
331.73651
331.74833
331.7322
331.74444
331.72819
331.74075
331.72442
331.73727
331.72077
331.73375
331.71694
331.72989
331.71265
331.72543
331.70765
331.72008
331.70164
331.71359
331.69439
331.70572
331.68571
331.69633
331.67547
331.68532
331.66362
331.67265
331.65012
331.6583
331.63498
331.64232
331.61826
331.62474
331.60002
331.60566
331.58034
331.58514
331.55931
331.56329
331.53701
331.54018
331.51353
331.51591
331.48898
331.49056
331.46342
331.46422
331.43696
331.75757
331.74299
331.75423
331.73892
331.75056
331.73507
331.74705
331.73145
331.74368
331.72801
331.74046
331.72466
331.73723
331.72119
331.73374
331.71737
331.72978
331.713
331.72512
331.70782
331.71952
331.7016
331.71276
331.69418
331.7047
331.6854
331.69521
331.6752
331.68424
331.66351
331.67175
331.65034
331.65775
331.63569
331.64226
331.61962
331.62535
331.60217
331.60708
331.58343
331.5875
331.56345
331.56671
331.54232
331.54477
331.52012
331.52175
331.49693
331.49774
331.47281
331.75728
331.7438
331.75511
331.74057
331.75203
331.73725
331.74894
331.73404
331.74591
331.73093
331.74297
331.72788
331.74
331.72473
331.73682
331.72129
331.73326
331.7174
331.72912
331.71286
331.7242
331.70745
331.71831
331.70101
331.71129
331.69341
331.70304
331.68455
331.69346
331.67438
331.68253
331.66285
331.67021
331.64998
331.65654
331.63578
331.64152
331.6203
331.62522
331.60358
331.60768
331.58568
331.58896
331.56667
331.56913
331.54661
331.54825
331.52556
331.52639
331.5036
331.75631
331.74398
331.75531
331.74157
331.75285
331.73881
331.7502
331.73602
331.74751
331.73325
331.74486
331.7305
331.74214
331.72762
331.73922
331.72449
331.73596
331.72097
331.73221
331.7169
331.7278
331.7121
331.72256
331.70642
331.71636
331.69974
331.70908
331.69197
331.70064
331.68302
331.69098
331.67287
331.68009
331.6615
331.66794
331.64891
331.65457
331.63512
331.63999
331.62018
331.62425
331.60413
331.60739
331.58701
331.58946
331.56887
331.57051
331.54978
331.55061
331.5298
331.75505
331.74375
331.75501
331.74207
331.75312
331.73983
331.75091
331.73746
331.74857
331.73503
331.74619
331.73255
331.7437
331.72992
331.74099
331.72703
331.73796
331.72379
331.73448
331.72005
331.73044
331.7157
331.72568
331.71058
331.72008
331.70461
331.71356
331.69768
331.70602
331.68973
331.6974
331.6807
331.68767
331.67057
331.67682
331.65934
331.66484
331.64702
331.65176
331.63362
331.63759
331.61918
331.62237
331.60374
331.60613
331.58733
331.58893
331.57
331.5708
331.5518
331.75372
331.74329
331.75434
331.74217
331.75295
331.74042
331.75115
331.73844
331.74915
331.73633
331.74702
331.7341
331.74474
331.73167
331.74219
331.72896
331.73931
331.7259
331.73602
331.72239
331.73221
331.71834
331.72777
331.71362
331.72262
331.70817
331.71665
331.70188
331.7098
331.6947
331.70201
331.68657
331.69324
331.67747
331.68345
331.66737
331.67266
331.65629
331.66085
331.64422
331.64804
331.63118
331.63426
331.61721
331.61953
331.60233
331.60388
331.58658
331.58736
331.57
331.75241
331.74271
331.75343
331.74197
331.75245
331.74065
331.75101
331.73902
331.74931
331.7372
331.74741
331.73518
331.74529
331.73291
331.74285
331.73032
331.74006
331.72736
331.73686
331.72398
331.73317
331.72009
331.72893
331.71564
331.72407
331.71053
331.7185
331.70471
331.71217
331.69812
331.70501
331.6907
331.69699
331.68242
331.68808
331.67326
331.67827
331.66321
331.66754
331.65227
331.6559
331.64044
331.64337
331.62776
331.62997
331.61423
331.61571
331.59988
331.60062
331.58474
331.75111
331.74207
331.75235
331.74157
331.75168
331.74059
331.75056
331.73927
331.74911
331.73769
331.7474
331.73584
331.74539
331.73366
331.74301
331.73112
331.74023
331.72818
331.73703
331.72483
331.73338
331.72101
331.72922
331.71668
331.72451
331.71179
331.7192
331.70629
331.71323
331.70012
331.70655
331.69324
331.69912
331.6856
331.69091
331.6772
331.6819
331.668
331.67207
331.65802
331.66144
331.64723
331.64999
331.63566
331.63774
331.6233
331.6247
331.61019
331.61089
331.59634
331.74983
331.7414
331.75117
331.74102
331.75072
331.74031
331.74985
331.73923
331.74861
331.73784
331.74703
331.7361
331.74507
331.73395
331.74267
331.73138
331.73983
331.72838
331.73656
331.72496
331.73284
331.72111
331.72867
331.71681
331.72401
331.71201
331.71883
331.7067
331.71309
331.70081
331.70674
331.69432
331.69975
331.68718
331.69209
331.67938
331.68373
331.67088
331.67466
331.66168
331.66486
331.65177
331.65434
331.64115
331.64309
331.62983
331.63113
331.61781
331.61846
331.6051
331.74853
331.74072
331.74992
331.74036
331.74962
331.73984
331.74894
331.73895
331.74784
331.73768
331.74633
331.73597
331.74433
331.73377
331.74183
331.73108
331.73885
331.72794
331.73542
331.72438
331.73156
331.7204
331.72728
331.71603
331.72258
331.71123
331.71743
331.70599
331.71181
331.70027
331.70568
331.69404
331.699
331.68727
331.69176
331.67993
331.68392
331.672
331.67546
331.66345
331.66637
331.65428
331.65664
331.64448
331.64626
331.63404
331.63524
331.62297
331.62357
331.61127
331.74722
331.74003
331.74863
331.73962
331.74842
331.73924
331.74786
331.73847
331.74684
331.73723
331.74529
331.73546
331.74318
331.7331
331.74049
331.73021
331.73728
331.72684
331.73361
331.72305
331.72953
331.71888
331.72507
331.71434
331.72023
331.70945
331.71503
331.7042
331.70944
331.69855
331.70342
331.69249
331.69697
331.68598
331.69003
331.67898
331.6826
331.67149
331.67464
331.66348
331.66613
331.65492
331.65707
331.64581
331.64743
331.63613
331.63723
331.62589
331.62644
331.61509
331.74588
331.73934
331.74729
331.73883
331.74714
331.73853
331.74665
331.73779
331.7456
331.73649
331.74392
331.73454
331.74158
331.73193
331.7386
331.72873
331.73508
331.72505
331.73109
331.72095
331.72671
331.7165
331.722
331.71174
331.71697
331.70669
331.71164
331.70135
331.706
331.6957
331.70003
331.68971
331.6937
331.68337
331.68699
331.67663
331.67986
331.66948
331.6723
331.6619
331.66428
331.65385
331.65578
331.64532
331.64678
331.6363
331.63729
331.62678
331.62728
331.61676
331.74449
331.73863
331.74591
331.73798
331.7458
331.73771
331.7453
331.73692
331.74413
331.73543
331.74219
331.73318
331.73949
331.7302
331.73612
331.7266
331.73219
331.72251
331.72781
331.71803
331.72307
331.71325
331.71805
331.70821
331.71277
331.70294
331.70726
331.69745
331.70152
331.69173
331.69552
331.68575
331.68926
331.67951
331.68269
331.67295
331.6758
331.66607
331.66855
331.65882
331.66093
331.65119
331.6529
331.64316
331.64446
331.6347
331.63558
331.62581
331.62625
331.61647
331.74306
331.73792
331.74449
331.73709
331.7444
331.7368
331.74382
331.73583
331.74239
331.73402
331.74005
331.73132
331.73687
331.72784
331.73299
331.72374
331.72856
331.71917
331.72371
331.71425
331.71856
331.70907
331.71318
331.7037
331.70761
331.69817
331.70188
331.69249
331.69599
331.68666
331.68993
331.68065
331.68367
331.67444
331.6772
331.66801
331.67048
331.66132
331.66348
331.65435
331.65619
331.64707
331.64856
331.63945
331.64059
331.63148
331.63224
331.62313
331.62351
331.61439
331.74157
331.73719
331.74303
331.73617
331.74294
331.73577
331.74218
331.73449
331.74033
331.73219
331.73742
331.72889
331.73362
331.72479
331.72912
331.72008
331.72411
331.71495
331.71874
331.70953
331.71312
331.70393
331.70735
331.69819
331.70146
331.69237
331.69548
331.68648
331.68942
331.68049
331.68326
331.67441
331.67698
331.66821
331.67056
331.66185
331.66396
331.65532
331.65717
331.64857
331.65014
331.64157
331.64286
331.63431
331.63529
331.62675
331.62741
331.61888
331.61921
331.61067
331.74001
331.73644
331.74153
331.7352
331.7414
331.73459
331.74032
331.73283
331.73786
331.72984
331.73421
331.72579
331.72965
331.72094
331.72443
331.71554
331.71876
331.70978
331.71281
331.70383
331.70671
331.69776
331.70051
331.69165
331.69429
331.68552
331.68805
331.67939
331.68179
331.67324
331.67552
331.66707
331.66919
331.66084
331.66279
331.65454
331.6563
331.64811
331.64966
331.64154
331.64287
331.63479
331.63587
331.62783
331.62866
331.62064
331.62119
331.61318
331.61346
331.60544
331.73837
331.73568
331.73999
331.73419
331.73976
331.73322
331.73817
331.73074
331.73488
331.72687
331.73031
331.7219
331.72485
331.71618
331.71881
331.71001
331.71243
331.70359
331.70587
331.69706
331.69925
331.69052
331.69263
331.68402
331.68606
331.67758
331.67956
331.67121
331.67312
331.6649
331.66672
331.65863
331.66034
331.65237
331.65395
331.6461
331.64753
331.63976
331.64103
331.63334
331.63443
331.6268
331.62769
331.62011
331.62079
331.61324
331.6137
331.60615
331.60638
331.59883
331.73663
331.73494
331.73839
331.73311
331.73796
331.73156
331.73561
331.72811
331.73126
331.72313
331.72557
331.71709
331.71908
331.71041
331.71215
331.7034
331.70502
331.69629
331.69783
331.68918
331.69069
331.68217
331.68366
331.67529
331.67676
331.66855
331.67001
331.66195
331.66338
331.65549
331.65686
331.64912
331.65043
331.64283
331.64405
331.63657
331.63769
331.63032
331.63132
331.62403
331.6249
331.61768
331.61839
331.61123
331.61177
331.60464
331.60501
331.59789
331.59807
331.59094
331.73478
331.73422
331.73672
331.73195
331.73592
331.7295
331.73251
331.72477
331.72682
331.71846
331.71984
331.71121
331.71223
331.70349
331.70436
331.69562
331.69644
331.6878
331.68863
331.68013
331.68099
331.67266
331.67356
331.66542
331.66636
331.6584
331.65937
331.6516
331.65259
331.645
331.64597
331.63855
331.6395
331.63223
331.63313
331.626
331.62684
331.61982
331.62058
331.61367
331.61432
331.60749
331.60803
331.60125