/*--------------------------------*- C++ -*----------------------------------*\
| =========                 |                                                 |
| \\      /  F ield         | OpenFOAM: The Open Source CFD Toolbox           |
|  \\    /   O peration     | Version:  2312                                  |
|   \\  /    A nd           | Website:  www.openfoam.com                      |
|    \\/     M anipulation  |                                                 |
\*---------------------------------------------------------------------------*/
FoamFile
{
    version     2.0;
    format      ascii;
    arch        "LSB;label=32;scalar=64";
    class       volVectorField;
    location    "10";
    object      U_0;
}
// * * * * * * * * * * * * * * * * * * * * * * * * * * * * * * * * * * * * * //

dimensions      [0 1 -1 0 0 0 0];

internalField   nonuniform List<vector> 
4000
(
(0.0035440566 0.00065375456 0)
(0.0064199756 -7.3867382e-06 0)
(0.0031668254 1.6543763e-07 0)
(0.0038570384 -6.7723143e-07 0)
(0.0036068156 9.3949083e-08 0)
(0.0035835873 -1.9575158e-07 0)
(0.0035909433 9.7889073e-08 0)
(0.0035355146 -1.6299546e-07 0)
(0.003564135 1.1625944e-07 0)
(0.0035309391 -1.2246543e-07 0)
(0.0035558345 1.088014e-07 0)
(0.003532463 -1.0367546e-07 0)
(0.0035529408 9.7059444e-08 0)
(0.0035339443 -9.1700293e-08 0)
(0.0035514795 8.657198e-08 0)
(0.0035350052 -8.1958237e-08 0)
(0.003550445 7.7499234e-08 0)
(0.0035358802 -7.3387515e-08 0)
(0.0035495821 6.9428058e-08 0)
(0.0035366658 -6.5713915e-08 0)
(0.0035488168 6.2176939e-08 0)
(0.003537383 -5.8838739e-08 0)
(0.003548125 5.5685662e-08 0)
(0.0035380375 -5.2709491e-08 0)
(0.0035474974 4.9914934e-08 0)
(0.0035386327 -4.728299e-08 0)
(0.0035469286 4.4823061e-08 0)
(0.0035391723 -4.2513059e-08 0)
(0.0035464139 4.0362441e-08 0)
(0.0035396606 -3.8349271e-08 0)
(0.0035459483 3.6481777e-08 0)
(0.0035401027 -3.4739613e-08 0)
(0.0035455265 3.3129659e-08 0)
(0.0035405039 -3.1633775e-08 0)
(0.0035451429 3.0257688e-08 0)
(0.0035408698 -2.8985666e-08 0)
(0.003544792 2.782251e-08 0)
(0.0035412057 -2.6754883e-08 0)
(0.0035444689 2.5786835e-08 0)
(0.0035415165 -2.4907343e-08 0)
(0.0035441684 2.4119716e-08 0)
(0.0035418068 -2.3415448e-08 0)
(0.0035438865 2.2796901e-08 0)
(0.0035420813 -2.2256942e-08 0)
(0.0035436198 2.180504e-08 0)
(0.0035423447 -2.1411146e-08 0)
(0.0035433592 2.1138466e-08 0)
(0.0035425667 -2.0939686e-08 0)
(0.0035429829 2.0442021e-08 0)
(0.0035424582 -2.2563366e-08 0)
(0.0082448719 0.0016926808 0)
(0.016763384 1.7870323e-05 0)
(0.0099595273 3.3105593e-05 0)
(0.011033165 -5.3836525e-06 0)
(0.010478935 4.0164273e-06 0)
(0.010380696 -3.2854447e-07 0)
(0.010425228 1.1250724e-06 0)
(0.010260334 -1.2391861e-07 0)
(0.010346387 5.1492986e-07 0)
(0.010248683 -3.1927987e-07 0)
(0.010322655 3.8507384e-07 0)
(0.010253362 -3.4508082e-07 0)
(0.010314601 3.4251308e-07 0)
(0.010257723 -3.2326834e-07 0)
(0.010310431 3.0990013e-07 0)
(0.01026088 -2.9278365e-07 0)
(0.010307363 2.7835538e-07 0)
(0.010263527 -2.6290139e-07 0)
(0.010304754 2.4915157e-07 0)
(0.010265918 -2.3545114e-07 0)
(0.010302431 2.228723e-07 0)
(0.010268101 -2.107344e-07 0)
(0.010300333 1.9944534e-07 0)
(0.010270087 -1.8871439e-07 0)
(0.010298435 1.7869949e-07 0)
(0.010271889 -1.6925563e-07 0)
(0.010296719 1.6044622e-07 0)
(0.010273518 -1.5218078e-07 0)
(0.010295169 1.4448581e-07 0)
(0.01027499 -1.3729353e-07 0)
(0.010293768 1.3061541e-07 0)
(0.010276323 -1.2439583e-07 0)
(0.010292498 1.1863994e-07 0)
(0.010277534 -1.1330075e-07 0)
(0.010291341 1.0838077e-07 0)
(0.010278639 -1.0384027e-07 0)
(0.010290282 9.9680728e-08 0)
(0.010279655 -9.5868865e-08 0)
(0.010289304 9.240593e-08 0)
(0.010280598 -8.9264071e-08 0)
(0.010288393 8.6445416e-08 0)
(0.01028148 -8.3927022e-08 0)
(0.010287536 8.1705011e-08 0)
(0.010282317 -7.9790959e-08 0)
(0.010286722 7.8107691e-08 0)
(0.010283123 -7.6730695e-08 0)
(0.010285935 7.6015463e-08 0)
(0.010283853 -7.3348896e-08 0)
(0.010284911 7.8851222e-08 0)
(0.010283732 -7.1278024e-08 0)
(0.010950539 0.0022307411 0)
(0.025822519 -3.7745587e-05 0)
(0.016536979 7.6563384e-05 0)
(0.018025438 -8.8333557e-06 0)
(0.017154709 9.5909504e-06 0)
(0.016990876 -4.1014189e-07 0)
(0.017081472 2.5044208e-06 0)
(0.016806405 7.948977e-08 0)
(0.016955782 9.9568938e-07 0)
(0.016791269 -5.049653e-07 0)
(0.016917525 6.9830975e-07 0)
(0.016799957 -6.1503089e-07 0)
(0.016904519 6.2255816e-07 0)
(0.016807429 -5.884111e-07 0)
(0.016897607 5.6672432e-07 0)
(0.016812817 -5.3518589e-07 0)
(0.0168924 5.0969444e-07 0)
(0.016817364 -4.8095778e-07 0)
(0.016887928 4.5606625e-07 0)
(0.016821483 -4.3074519e-07 0)
(0.016883934 4.0778268e-07 0)
(0.016825241 -3.8545847e-07 0)
(0.016880329 3.6480005e-07 0)
(0.016828655 -3.4511949e-07 0)
(0.016877073 3.2678566e-07 0)
(0.016831745 -3.0949384e-07 0)
(0.016874133 2.933707e-07 0)
(0.016834536 -2.7825046e-07 0)
(0.016871481 2.6417125e-07 0)
(0.016837056 -2.5102014e-07 0)
(0.016869085 2.3880357e-07 0)
(0.016839336 -2.2743258e-07 0)
(0.016866913 2.1690313e-07 0)
(0.016841407 -2.0714083e-07 0)
(0.016864936 1.981391e-07 0)
(0.016843299 -1.8983498e-07 0)
(0.016863123 1.8222213e-07 0)
(0.016845039 -1.7524769e-07 0)
(0.016861449 1.6890653e-07 0)
(0.016846655 -1.6315402e-07 0)
(0.016859887 1.5798866e-07 0)
(0.016848168 -1.5337163e-07 0)
(0.016858416 1.4929154e-07 0)
(0.016849604 -1.4578487e-07 0)
(0.016857016 1.4264347e-07 0)
(0.016850991 -1.4017234e-07 0)
(0.016855667 1.3880446e-07 0)
(0.016852277 -1.3322665e-07 0)
(0.016853993 1.4694001e-07 0)
(0.016852264 -1.29577e-07 0)
(0.017831908 0.003820545 0)
(0.034320424 -3.2125918e-05 0)
(0.022825684 0.00012959282 0)
(0.02483254 -1.4447176e-05 0)
(0.02363546 1.7650617e-05 0)
(0.02341463 -4.4313516e-07 0)
(0.023559197 4.2892009e-06 0)
(0.023173732 5.6254753e-07 0)
(0.023392621 1.4983553e-06 0)
(0.02315866 -6.0651919e-07 0)
(0.023340642 9.9098933e-07 0)
(0.023172127 -8.6045498e-07 0)
(0.023322846 8.8851464e-07 0)
(0.023182953 -8.4200728e-07 0)
(0.023313129 8.1470401e-07 0)
(0.023190728 -7.6910789e-07 0)
(0.023305658 7.3372787e-07 0)
(0.023197319 -6.9168967e-07 0)
(0.02329919 6.5625437e-07 0)
(0.023203297 -6.1945335e-07 0)
(0.023293404 5.8649327e-07 0)
(0.023208743 -5.542193e-07 0)
(0.023288188 5.2450011e-07 0)
(0.023213682 -4.9613524e-07 0)
(0.023283481 4.6975318e-07 0)
(0.023218145 -4.4487394e-07 0)
(0.023279239 4.2167914e-07 0)
(0.023222171 -3.9994451e-07 0)
(0.023275415 3.7969566e-07 0)
(0.023225804 -3.6079971e-07 0)
(0.023271962 3.4323192e-07 0)
(0.023229089 -3.2689545e-07 0)
(0.023268834 3.117532e-07 0)
(0.023232073 -2.977265e-07 0)
(0.023265985 2.8477904e-07 0)
(0.023234799 -2.728447e-07 0)
(0.023263373 2.6189185e-07 0)
(0.023237307 -2.5186509e-07 0)
(0.02326096 2.4273833e-07 0)
(0.023239635 -2.3446418e-07 0)
(0.023258709 2.2702618e-07 0)
(0.023241817 -2.2037936e-07 0)
(0.023256587 2.1449629e-07 0)
(0.023243888 -2.0945679e-07 0)
(0.023254568 2.0486186e-07 0)
(0.023245889 -2.0139339e-07 0)
(0.023252623 1.9937618e-07 0)
(0.023247773 -1.9036327e-07 0)
(0.023250298 2.1551286e-07 0)
(0.023247996 -1.8581354e-07 0)
(0.02021346 0.0040070389 0)
(0.041885636 -0.0001307994 0)
(0.028914544 0.00019456572 0)
(0.031472355 -2.0911306e-05 0)
(0.029920942 2.8253984e-05 0)
(0.029653852 -4.7386772e-07 0)
(0.029856893 6.4139465e-06 0)
(0.029362388 1.29159e-06 0)
(0.029656786 1.9844523e-06 0)
(0.029351019 -6.1851516e-07 0)
(0.029591937 1.2465531e-06 0)
(0.029369962 -1.0715079e-06 0)
(0.0295695 1.1283717e-06 0)
(0.02938437 -1.0736826e-06 0)
(0.029556908 1.0433782e-06 0)
(0.029394689 -9.8479359e-07 0)
(0.029547048 9.4106609e-07 0)
(0.029403463 -8.8624633e-07 0)
(0.02953846 8.4131571e-07 0)
(0.029411422 -7.9364535e-07 0)
(0.029530772 7.5151185e-07 0)
(0.029418661 -7.099364e-07 0)
(0.029523848 6.718635e-07 0)
(0.029425215 -6.3543957e-07 0)
(0.029517611 6.0163272e-07 0)
(0.029431127 -5.6973997e-07 0)
(0.029511995 5.4002383e-07 0)
(0.029436455 -5.1218698e-07 0)
(0.029506937 4.8625052e-07 0)
(0.029441258 -4.6205851e-07 0)
(0.029502372 4.3955775e-07 0)
(0.029445601 -4.186439e-07 0)
(0.029498238 3.9924831e-07 0)
(0.029449544 -3.8128912e-07 0)
(0.029494472 3.6470177e-07 0)
(0.029453146 -3.4941792e-07 0)
(0.029491021 3.3538222e-07 0)
(0.029456461 -3.2253734e-07 0)
(0.029487831 3.1083776e-07 0)
(0.029459538 -3.0023351e-07 0)
(0.029484857 2.9069524e-07 0)
(0.029462421 -2.8216997e-07 0)
(0.029482053 2.7461797e-07 0)
(0.029465156 -2.6816635e-07 0)
(0.029479385 2.6218641e-07 0)
(0.029467799 -2.5786771e-07 0)
(0.029476819 2.5518155e-07 0)
(0.029470313 -2.4252885e-07 0)
(0.029473837 2.8140033e-07 0)
(0.029470883 -2.3747152e-07 0)
(0.025600244 0.0049929167 0)
(0.049192786 -0.00012786048 0)
(0.034773144 0.000264824 0)
(0.037919142 -3.0149054e-05 0)
(0.036007387 4.1356343e-05 0)
(0.035709278 -6.8065657e-07 0)
(0.035973021 8.817762e-06 0)
(0.035373122 2.2048465e-06 0)
(0.035747997 2.4337308e-06 0)
(0.035368774 -5.4973356e-07 0)
(0.035671176 1.4634381e-06 0)
(0.035393748 -1.2514973e-06 0)
(0.035644239 1.3429012e-06 0)
(0.035411925 -1.2850093e-06 0)
(0.035628716 1.2536512e-06 0)
(0.035424919 -1.1832511e-06 0)
(0.035616365 1.1325148e-06 0)
(0.035435994 -1.065455e-06 0)
(0.035605555 1.0120047e-06 0)
(0.035446033 -9.5408055e-07 0)
(0.035595877 9.0356037e-07 0)
(0.035455148 -8.5332309e-07 0)
(0.03558717 8.0757445e-07 0)
(0.035463385 -7.636989e-07 0)
(0.035579338 7.2306258e-07 0)
(0.035470807 -6.847075e-07 0)
(0.035572293 6.4899218e-07 0)
(0.035477487 -6.1554095e-07 0)
(0.035565953 5.8437171e-07 0)
(0.035483507 -5.5530882e-07 0)
(0.035560233 5.2826812e-07 0)
(0.035488948 -5.0314347e-07 0)
(0.035555053 4.7983151e-07 0)
(0.035493888 -4.5825298e-07 0)
(0.035550336 4.3831214e-07 0)
(0.035498401 -4.1994359e-07 0)
(0.035546013 4.030658e-07 0)
(0.035502553 -3.876238e-07 0)
(0.035542018 3.7355061e-07 0)
(0.035506405 -3.6079703e-07 0)
(0.035538294 3.4931962e-07 0)
(0.035510016 -3.3905835e-07 0)
(0.035534784 3.2996274e-07 0)
(0.035513439 -3.2220973e-07 0)
(0.035531443 3.1491012e-07 0)
(0.035516745 -3.09876e-07 0)
(0.035528234 3.0647089e-07 0)
(0.035519912 -2.900857e-07 0)
(0.035524594 3.443365e-07 0)
(0.035520925 -2.8437124e-07 0)
(0.029449842 0.0056840524 0)
(0.055425516 -0.00023591272 0)
(0.040516722 0.00033398611 0)
(0.044119123 -3.5578646e-05 0)
(0.041901904 5.7744897e-05 0)
(0.04158507 -9.681837e-07 0)
(0.041907737 1.1525285e-05 0)
(0.041207185 3.2562923e-06 0)
(0.041665981 2.8302911e-06 0)
(0.041212395 -4.0855075e-07 0)
(0.041578121 1.6411459e-06 0)
(0.041243794 -1.4036166e-06 0)
(0.041546812 1.5332796e-06 0)
(0.041265878 -1.4777285e-06 0)
(0.041528314 1.4467314e-06 0)
(0.041281649 -1.3657436e-06 0)
(0.041513393 1.3091616e-06 0)
(0.041295115 -1.2304022e-06 0)
(0.041500285 1.1693327e-06 0)
(0.041307308 -1.1017535e-06 0)
(0.041488552 1.0435844e-06 0)
(0.041318358 -9.8529638e-07 0)
(0.041478009 9.3250753e-07 0)
(0.041328329 -8.8175338e-07 0)
(0.041468536 8.3484281e-07 0)
(0.041337302 -7.9054068e-07 0)
(0.041460023 7.4931071e-07 0)
(0.041345372 -7.1069828e-07 0)
(0.041452366 6.7471671e-07 0)
(0.041352642 -6.4117641e-07 0)
(0.04144546 6.0995836e-07 0)
(0.041359211 -5.8096145e-07 0)
(0.041439205 5.5404381e-07 0)
(0.041365175 -5.2913497e-07 0)
(0.041433511 5.0610486e-07 0)
(0.041370623 -4.8489614e-07 0)
(0.041428292 4.6539859e-07 0)
(0.041375634 -4.4756377e-07 0)
(0.041423471 4.3130116e-07 0)
(0.041380284 -4.1656565e-07 0)
(0.041418976 4.0329829e-07 0)
(0.04138464 -3.9143306e-07 0)
(0.041414742 3.8091051e-07 0)
(0.041388769 -3.7195699e-07 0)
(0.041410712 3.6340182e-07 0)
(0.041392752 -3.5777642e-07 0)
(0.041406845 3.535836e-07 0)
(0.041396588 -3.3348272e-07 0)
(0.041402547 4.0418889e-07 0)
(0.041398125 -3.2661477e-07 0)
(0.034274747 0.0061192008 0)
(0.061127746 -0.00025391194 0)
(0.046202394 0.00039607125 0)
(0.049851 -4.5027796e-05 0)
(0.047577001 7.4592432e-05 0)
(0.047274215 -1.8159205e-06 0)
(0.047658779 1.4426503e-05 0)
(0.046865546 4.3743202e-06 0)
(0.047410349 3.1624245e-06 0)
(0.046882265 -2.0168007e-07 0)
(0.047312549 1.7780748e-06 0)
(0.046920369 -1.529072e-06 0)
(0.047276991 1.6991272e-06 0)
(0.046946459 -1.6519897e-06 0)
(0.04725549 1.6224009e-06 0)
(0.046965082 -1.5321773e-06 0)
(0.047237943 1.4708292e-06 0)
(0.046981003 -1.3809792e-06 0)
(0.047222484 1.313184e-06 0)
(0.046995401 -1.2365903e-06 0)
(0.047208653 1.1715182e-06 0)
(0.047008427 -1.1058121e-06 0)
(0.047196239 1.0466265e-06 0)
(0.047020164 -9.8957673e-07 0)
(0.047185095 9.3695211e-07 0)
(0.047030716 -8.872221e-07 0)
(0.047175089 8.4096452e-07 0)
(0.047040201 -7.9764523e-07 0)
(0.047166091 7.5727296e-07 0)
(0.047048742 -7.1964885e-07 0)
(0.047157977 6.8461671e-07 0)
(0.04705646 -6.520862e-07 0)
(0.04715063 6.218742e-07 0)
(0.047063466 -5.939245e-07 0)
(0.047143941 5.6807011e-07 0)
(0.047069865 -5.4426657e-07 0)
(0.04713781 5.2237264e-07 0)
(0.047075751 -5.0235049e-07 0)
(0.047132148 4.8408397e-07 0)
(0.047081212 -4.6753544e-07 0)
(0.047126869 4.5262886e-07 0)
(0.047086328 -4.3929359e-07 0)
(0.047121898 4.2746314e-07 0)
(0.047091173 -4.1741061e-07 0)
(0.047117168 4.0767219e-07 0)
(0.047095845 -4.0157587e-07 0)
(0.047112632 3.9652863e-07 0)
(0.047100359 -3.7282012e-07 0)
(0.047107678 4.6057632e-07 0)
(0.047102489 -3.6412203e-07 0)
(0.038239771 0.0067958661 0)
(0.065609754 -0.00039478803 0)
(0.05203044 0.00047994761 0)
(0.055030633 -5.2555711e-05 0)
(0.053037167 9.0342569e-05 0)
(0.05277494 -3.0325828e-06 0)
(0.053227268 1.7547468e-05 0)
(0.052349212 5.5194131e-06 0)
(0.052980788 3.4171148e-06 0)
(0.052378744 6.3844888e-08 0)
(0.052874281 1.8725952e-06 0)
(0.052423721 -1.6283565e-06 0)
(0.052834578 1.8398192e-06 0)
(0.052453875 -1.8074862e-06 0)
(0.05281006 1.7801513e-06 0)
(0.052475395 -1.6821269e-06 0)
(0.052789851 1.6170665e-06 0)
(0.052493812 -1.5168033e-06 0)
(0.05277201 1.4431934e-06 0)
(0.052510445 -1.358274e-06 0)
(0.052756057 1.2870668e-06 0)
(0.05252547 -1.2146052e-06 0)
(0.052741752 1.1496842e-06 0)
(0.05253899 -1.0869406e-06 0)
(0.052728922 1.0291756e-06 0)
(0.052551136 -9.7454947e-07 0)
(0.052717408 9.2376177e-07 0)
(0.052562049 -8.7619926e-07 0)
(0.052707056 8.3186653e-07 0)
(0.052571875 -7.9055982e-07 0)
(0.052697723 7.5208438e-07 0)
(0.052580752 -7.1636556e-07 0)
(0.052689271 6.8317735e-07 0)
(0.052588811 -6.5248224e-07 0)
(0.052681577 6.2407485e-07 0)
(0.052596172 -5.9792731e-07 0)
(0.052674525 5.7386613e-07 0)
(0.052602943 -5.5186709e-07 0)
(0.052668012 5.3178737e-07 0)
(0.052609223 -5.1359923e-07 0)
(0.052661943 4.9720878e-07 0)
(0.052615105 -4.8254166e-07 0)
(0.052656227 4.6952683e-07 0)
(0.052620674 -4.584793e-07 0)
(0.05265079 4.4763949e-07 0)
(0.052626039 -4.4118866e-07 0)
(0.052645579 4.3522979e-07 0)
(0.052631237 -4.0809374e-07 0)
(0.052639975 5.1307916e-07 0)
(0.052634018 -3.968257e-07 0)
(0.043296121 0.0071735173 0)
(0.069765043 -0.0004343136 0)
(0.057659293 0.00054839007 0)
(0.059775952 -6.0648077e-05 0)
(0.058316095 0.00010301592 0)
(0.058075266 -4.9237294e-06 0)
(0.058611939 2.0698117e-05 0)
(0.057658623 6.6125072e-06 0)
(0.058377034 3.5864211e-06 0)
(0.057702138 3.7921937e-07 0)
(0.058263161 1.9236512e-06 0)
(0.057754076 -1.7020776e-06 0)
(0.058219393 1.9550006e-06 0)
(0.057788309 -1.9441014e-06 0)
(0.058191857 1.9196964e-06 0)
(0.057812746 -1.8153685e-06 0)
(0.058168973 1.7476183e-06 0)
(0.057833676 -1.6376763e-06 0)
(0.058148738 1.5591671e-06 0)
(0.057852558 -1.466648e-06 0)
(0.058130655 1.3900829e-06 0)
(0.057869587 -1.3115474e-06 0)
(0.058114455 1.2415604e-06 0)
(0.057884897 -1.1737342e-06 0)
(0.058099934 1.1114086e-06 0)
(0.05789864 -1.0524232e-06 0)
(0.058086907 9.9760744e-07 0)
(0.057910986 -9.4626862e-07 0)
(0.058075198 8.9840949e-07 0)
(0.0579221 -8.5382413e-07 0)
(0.05806464 8.1227966e-07 0)
(0.057932141 -7.7372052e-07 0)
(0.058055081 7.3787755e-07 0)
(0.057941257 -7.0473522e-07 0)
(0.058046377 6.7404925e-07 0)
(0.057949583 -6.4581126e-07 0)
(0.0580384 6.1981489e-07 0)
(0.057957242 -5.9605206e-07 0)
(0.058031034 5.7435256e-07 0)
(0.057964345 -5.5470079e-07 0)
(0.05802417 5.3698427e-07 0)
(0.057970996 -5.2112598e-07 0)
(0.058017708 5.070528e-07 0)
(0.057977292 -4.9511544e-07 0)
(0.058011561 4.8326362e-07 0)
(0.057983351 -4.7656814e-07 0)
(0.058005672 4.6965274e-07 0)
(0.057989233 -4.3932203e-07 0)
(0.057999425 5.6135433e-07 0)
(0.057992711 -4.2474998e-07 0)
(0.047302863 0.0076759595 0)
(0.073161487 -0.00057319763 0)
(0.062976508 0.00059798386 0)
(0.064254737 -6.5996353e-05 0)
(0.063441193 0.00011214573 0)
(0.063163273 -7.609643e-06 0)
(0.063812401 2.3637124e-05 0)
(0.062795148 7.5977782e-06 0)
(0.06359883 3.6638034e-06 0)
(0.062852737 7.3546153e-07 0)
(0.063479054 1.9307349e-06 0)
(0.062911636 -1.750717e-06 0)
(0.063431276 2.044653e-06 0)
(0.062949927 -2.0618818e-06 0)
(0.063400736 2.0409953e-06 0)
(0.062977274 -1.9318695e-06 0)
(0.063375181 1.8624355e-06 0)
(0.063000716 -1.7435778e-06 0)
(0.063352558 1.6610852e-06 0)
(0.06302184 -1.5617103e-06 0)
(0.063332352 1.4805652e-06 0)
(0.063040869 -1.3966441e-06 0)
(0.063314263 1.3222594e-06 0)
(0.063057961 -1.2499626e-06 0)
(0.063298057 1.1836538e-06 0)
(0.063073298 -1.1208447e-06 0)
(0.063283522 1.0625009e-06 0)
(0.063087072 -1.007851e-06 0)
(0.063270459 9.5689808e-07 0)
(0.063099471 -9.0943673e-07 0)
(0.06325868 8.651967e-07 0)
(0.063110674 -8.2414444e-07 0)
(0.063248014 7.8596797e-07 0)
(0.063120845 -7.506763e-07 0)
(0.063238303 7.179864e-07 0)
(0.063130134 -6.8791155e-07 0)
(0.063229403 6.6021259e-07 0)
(0.063138679 -6.3489935e-07 0)
(0.063221185 6.1177421e-07 0)
(0.063146603 -5.9083523e-07 0)
(0.063213528 5.7195122e-07 0)
(0.063154021 -5.5504321e-07 0)
(0.063206321 5.4003871e-07 0)
(0.063161042 -5.2731665e-07 0)
(0.063199466 5.1454806e-07 0)
(0.063167793 -5.0770961e-07 0)
(0.063192901 4.9980731e-07 0)
(0.063174355 -4.665532e-07 0)
(0.063186019 6.0513558e-07 0)
(0.063178569 -4.4799537e-07 0)
(0.052599822 0.007991478 0)
(0.076418991 -0.00061626134 0)
(0.06801897 0.00065275313 0)
(0.068581204 -6.8582133e-05 0)
(0.068427064 0.0001181189 0)
(0.068043325 -1.0688869e-05 0)
(0.068831017 2.6134729e-05 0)
(0.067759806 8.4167964e-06 0)
(0.068646068 3.6521602e-06 0)
(0.067830769 1.1232226e-06 0)
(0.068521863 1.8940285e-06 0)
(0.067896582 -1.7745672e-06 0)
(0.068470083 2.1090006e-06 0)
(0.067938872 -2.1609927e-06 0)
(0.068436568 2.1441567e-06 0)
(0.067969101 -2.0317286e-06 0)
(0.068408363 1.9615912e-06 0)
(0.067995036 -1.8346005e-06 0)
(0.068383373 1.7490283e-06 0)
(0.068018384 -1.6435517e-06 0)
(0.068361064 1.5585957e-06 0)
(0.068039394 -1.4699767e-06 0)
(0.068341103 1.3918554e-06 0)
(0.068058253 -1.3156952e-06 0)
(0.068323226 1.2459749e-06 0)
(0.068075169 -1.179872e-06 0)
(0.068307196 1.1184954e-06 0)
(0.06809036 -1.0609948e-06 0)
(0.068292789 1.0073769e-06 0)
(0.068104035 -9.5743835e-07 0)
(0.068279798 9.1087349e-07 0)
(0.068116391 -8.6767249e-07 0)
(0.068268033 8.2748178e-07 0)
(0.06812761 -7.9033666e-07 0)
(0.068257322 7.5591607e-07 0)
(0.068137856 -7.2425658e-07 0)
(0.068247505 6.9508663e-07 0)
(0.068147281 -6.6843542e-07 0)
(0.068238441 6.4407812e-07 0)
(0.06815602 -6.2202782e-07 0)
(0.068229997 6.0213449e-07 0)
(0.0681642 -5.8431816e-07 0)
(0.068222051 5.6850927e-07 0)
(0.06817194 -5.5510715e-07 0)
(0.068214493 5.4152173e-07 0)
(0.068179377 -5.3463294e-07 0)
(0.068207256 5.2572971e-07 0)
(0.068186612 -4.8985081e-07 0)
(0.06819975 6.4421557e-07 0)
(0.068191591 -4.6671336e-07 0)
(0.056841974 0.0082876886 0)
(0.079024206 -0.00078370395 0)
(0.072898439 0.00069839805 0)
(0.072767705 -7.032033e-05 0)
(0.073257724 0.00012053551 0)
(0.072731743 -1.3843774e-05 0)
(0.073671413 2.8015411e-05 0)
(0.07255398 9.0464744e-06 0)
(0.073518704 3.5634771e-06 0)
(0.072636423 1.5345663e-06 0)
(0.073391518 1.8144239e-06 0)
(0.072709075 -1.7733952e-06 0)
(0.07333569 2.1485662e-06 0)
(0.072755267 -2.241648e-06 0)
(0.073299239 2.229415e-06 0)
(0.072788331 -2.1151393e-06 0)
(0.073268423 2.0452531e-06 0)
(0.072816725 -1.9109183e-06 0)
(0.073241098 1.8231539e-06 0)
(0.072842267 -1.7123292e-06 0)
(0.073216715 1.6243183e-06 0)
(0.072865232 -1.5316823e-06 0)
(0.073194908 1.4504741e-06 0)
(0.072885834 -1.3710493e-06 0)
(0.073175384 1.2984798e-06 0)
(0.072904309 -1.2296052e-06 0)
(0.073157877 1.1656833e-06 0)
(0.072920899 -1.1057859e-06 0)
(0.073142142 1.049926e-06 0)
(0.072935834 -9.9790391e-07 0)
(0.073127954 9.4938044e-07 0)
(0.07294933 -9.0437097e-07 0)
(0.073115104 8.6248189e-07 0)
(0.072961584 -8.2377593e-07 0)
(0.073103404 7.8789534e-07 0)
(0.072972776 -7.5490081e-07 0)
(0.073092681 7.2448955e-07 0)
(0.07298307 -6.9671078e-07 0)
(0.07308278 6.7131335e-07 0)
(0.072992615 -6.4832607e-07 0)
(0.073073558 6.275805e-07 0)
(0.073001548 -6.0899633e-07 0)
(0.073064882 5.9250925e-07 0)
(0.073009998 -5.7853074e-07 0)
(0.073056631 5.6423211e-07 0)
(0.073018113 -5.5737616e-07 0)
(0.073048729 5.4747536e-07 0)
(0.07302601 -5.0928868e-07 0)
(0.073040612 6.7843719e-07 0)
(0.073031776 -4.8109193e-07 0)
(0.062757781 0.0086544788 0)
(0.081743997 -0.00080191138 0)
(0.077609146 0.00073529334 0)
(0.076804412 -7.3813702e-05 0)
(0.077920496 0.0001196785 0)
(0.077249864 -1.6930868e-05 0)
(0.078337493 2.9244542e-05 0)
(0.077178689 9.4753761e-06 0)
(0.078216722 3.4116785e-06 0)
(0.07726981 1.9601095e-06 0)
(0.078087965 1.6923429e-06 0)
(0.077349258 -1.746716e-06 0)
(0.078027991 2.1641026e-06 0)
(0.077399217 -2.3041128e-06 0)
(0.077988652 2.2971164e-06 0)
(0.077435056 -2.1823781e-06 0)
(0.077955275 2.1136695e-06 0)
(0.077465864 -1.9727775e-06 0)
(0.077925661 1.883683e-06 0)
(0.07749356 -1.7682584e-06 0)
(0.077899243 1.6779295e-06 0)
(0.077518443 -1.5819463e-06 0)
(0.077875623 1.4982866e-06 0)
(0.077540757 -1.4161842e-06 0)
(0.077854479 1.3413165e-06 0)
(0.077560766 -1.2701819e-06 0)
(0.07783552 1.2041936e-06 0)
(0.077578731 -1.1423447e-06 0)
(0.07781848 1.0846587e-06 0)
(0.077594906 -1.0309397e-06 0)
(0.077803114 9.8081831e-07 0)
(0.077609522 -9.3433512e-07 0)
(0.077789196 8.9105901e-07 0)
(0.077622795 -8.5108043e-07 0)
(0.077776523 8.1400678e-07 0)
(0.077634918 -7.7992331e-07 0)
(0.077764908 7.4849734e-07 0)
(0.077646067 -7.1979857e-07 0)
(0.077754185 6.9355057e-07 0)
(0.077656405 -6.6979841e-07 0)
(0.077744198 6.4835572e-07 0)
(0.077666078 -6.2914271e-07 0)
(0.077734803 6.1210211e-07 0)
(0.077675227 -5.9764961e-07 0)
(0.077725869 5.8274396e-07 0)
(0.077684008 -5.759943e-07 0)
(0.077717312 5.6511692e-07 0)
(0.077692555 -5.2495054e-07 0)
(0.077708599 7.076897e-07 0)
(0.077699121 -4.9134629e-07 0)
(0.067200537 0.0087989451 0)
(0.083929274 -0.00097718417 0)
(0.082230102 0.00075916747 0)
(0.080693244 -7.5232711e-05 0)
(0.082410043 0.00011596848 0)
(0.081610703 -2.0019592e-05 0)
(0.08283053 2.982148e-05 0)
(0.081634958 9.704979e-06 0)
(0.082740024 3.2193729e-06 0)
(0.081731025 2.3915465e-06 0)
(0.082611141 1.5278957e-06 0)
(0.081817251 -1.6937069e-06 0)
(0.0825469 2.1565779e-06 0)
(0.081870814 -2.34868e-06 0)
(0.082504723 2.347698e-06 0)
(0.081909351 -2.2337924e-06 0)
(0.082468846 2.1671546e-06 0)
(0.08194252 -2.0204857e-06 0)
(0.082436996 1.9308917e-06 0)
(0.081972321 -1.8116051e-06 0)
(0.082408589 1.719672e-06 0)
(0.081999081 -1.6209976e-06 0)
(0.082383196 1.5355044e-06 0)
(0.082023072 -1.451298e-06 0)
(0.082360466 1.3746693e-06 0)
(0.08204458 -1.301775e-06 0)
(0.082340086 1.2341882e-06 0)
(0.082063894 -1.1708234e-06 0)
(0.082321768 1.1117187e-06 0)
(0.082081282 -1.0566816e-06 0)
(0.082305247 1.0053158e-06 0)
(0.082096997 -9.5768709e-07 0)
(0.082290283 9.1332952e-07 0)
(0.082111268 -8.7236105e-07 0)
(0.082276656 8.3435658e-07 0)
(0.082124303 -7.9942565e-07 0)
(0.082264168 7.6720772e-07 0)
(0.082136291 -7.3779267e-07 0)
(0.082252638 7.1088052e-07 0)
(0.082147405 -6.8653247e-07 0)
(0.082241901 6.6454525e-07 0)
(0.082157804 -6.4484013e-07 0)
(0.082231802 6.273686e-07 0)
(0.082167638 -6.125428e-07 0)
(0.0822222 5.9713794e-07 0)
(0.08217707 -5.9055821e-07 0)
(0.082213001 5.7874264e-07 0)
(0.082186252 -5.3692976e-07 0)
(0.082203706 7.3190523e-07 0)
(0.082193626 -4.9771083e-07 0)
(0.073263232 0.0090729142 0)
(0.086384263 -0.00098034714 0)
(0.086718615 0.00077905822 0)
(0.084448331 -7.7159076e-05 0)
(0.086725932 0.0001091415 0)
(0.08581965 -2.3172263e-05 0)
(0.087151397 2.9850155e-05 0)
(0.08592356 9.755697e-06 0)
(0.087088361 3.0102171e-06 0)
(0.086020317 2.8211298e-06 0)
(0.086960938 1.3212914e-06 0)
(0.08611315 -1.6134069e-06 0)
(0.086892341 2.1271742e-06 0)
(0.086170132 -2.3756403e-06 0)
(0.08684738 2.3816768e-06 0)
(0.086211285 -2.2697849e-06 0)
(0.086809072 2.2060768e-06 0)
(0.086246752 -2.054401e-06 0)
(0.086775047 1.9651004e-06 0)
(0.086278605 -1.8426776e-06 0)
(0.086744704 1.7498276e-06 0)
(0.086307194 -1.6491019e-06 0)
(0.086717583 1.5623738e-06 0)
(0.086332818 -1.4766217e-06 0)
(0.086693307 1.3987548e-06 0)
(0.086355791 -1.3245876e-06 0)
(0.08667154 1.2558585e-06 0)
(0.086376419 -1.1914024e-06 0)
(0.086651974 1.1312766e-06 0)
(0.086394992 -1.0752911e-06 0)
(0.086634327 1.0230264e-06 0)
(0.086411779 -9.7457277e-07 0)
(0.086618341 9.294326e-07 0)
(0.086427024 -8.8775058e-07 0)
(0.086603783 8.4907183e-07 0)
(0.086440949 -8.1352957e-07 0)
(0.086590443 7.8073759e-07 0)
(0.086453755 -7.5080555e-07 0)
(0.086578126 7.2341166e-07 0)
(0.086465628 -6.9863306e-07 0)
(0.086566657 6.7625063e-07 0)
(0.086476735 -6.5618741e-07 0)
(0.086555871 6.3840482e-07 0)
(0.086487237 -6.2330444e-07 0)
(0.086545616 6.0750878e-07 0)
(0.086497304 -6.0115301e-07 0)
(0.08653579 5.8845422e-07 0)
(0.086507104 -5.4532852e-07 0)
(0.086525931 7.5105497e-07 0)
(0.086515288 -5.0043203e-07 0)
(0.077792941 0.0090951633 0)
(0.088371345 -0.001157823 0)
(0.091062491 0.00078329088 0)
(0.088115218 -7.7405278e-05 0)
(0.090877645 9.9651141e-05 0)
(0.089876662 -2.6326408e-05 0)
(0.091300221 2.9424676e-05 0)
(0.090044461 9.6423315e-06 0)
(0.091261068 2.8049879e-06 0)
(0.090138351 3.2367939e-06 0)
(0.09113717 1.0751128e-06 0)
(0.090237039 -1.5054205e-06 0)
(0.09106425 2.0771701e-06 0)
(0.090297235 -2.3853123e-06 0)
(0.091016562 2.3996175e-06 0)
(0.090340913 -2.2908053e-06 0)
(0.0909759 2.2308449e-06 0)
(0.09037861 -2.0749228e-06 0)
(0.090939767 1.986666e-06 0)
(0.090412456 -1.8618195e-06 0)
(0.090907544 1.7687103e-06 0)
(0.090442822 -1.6665568e-06 0)
(0.090878744 1.5791712e-06 0)
(0.090470034 -1.4924158e-06 0)
(0.090852967 1.4138169e-06 0)
(0.090494429 -1.3388498e-06 0)
(0.090829852 1.2694216e-06 0)
(0.090516335 -1.204287e-06 0)
(0.090809073 1.143527e-06 0)
(0.090536061 -1.0869526e-06 0)
(0.09079033 1.0341257e-06 0)
(0.09055389 -9.8515905e-07 0)
(0.090773351 9.3952749e-07 0)
(0.090570082 -8.9740096e-07 0)
(0.090757888 8.5829801e-07 0)
(0.090584873 -8.2237433e-07 0)
(0.090743718 7.8922079e-07 0)
(0.090598475 -7.5896578e-07 0)
(0.090730637 7.3126802e-07 0)
(0.090611084 -7.0621989e-07 0)
(0.090718456 6.8358786e-07 0)
(0.09062288 -6.6329725e-07 0)
(0.090707002 6.4532036e-07 0)
(0.090634032 -6.3004182e-07 0)
(0.090696112 6.1396356e-07 0)
(0.090644716 -6.0787639e-07 0)
(0.090685675 5.9436496e-07 0)
(0.090655114 -5.5025682e-07 0)
(0.09067527 7.651456e-07 0)
(0.090664105 -4.997625e-07 0)
(0.084085326 0.0092798296 0)
(0.09073957 -0.0011321846 0)
(0.095172928 0.00078712892 0)
(0.091758667 -7.6413285e-05 0)
(0.094874341 8.8171471e-05 0)
(0.093779118 -2.9438338e-05 0)
(0.095277408 2.8642163e-05 0)
(0.093997174 9.3955482e-06 0)
(0.095257373 2.6247674e-06 0)
(0.094086151 3.6212985e-06 0)
(0.09513957 7.9655566e-07 0)
(0.094188983 -1.3708181e-06 0)
(0.095062578 2.00779e-06 0)
(0.094252182 -2.3780863e-06 0)
(0.095012217 2.4021031e-06 0)
(0.094298285 -2.2973486e-06 0)
(0.094969282 2.2418978e-06 0)
(0.094338141 -2.0824848e-06 0)
(0.094931112 1.9959754e-06 0)
(0.094373915 -1.8694038e-06 0)
(0.094897072 1.7766625e-06 0)
(0.094406001 -1.6736866e-06 0)
(0.094866648 1.5861993e-06 0)
(0.09443475 -1.4989656e-06 0)
(0.094839416 1.4201242e-06 0)
(0.094460523 -1.3448152e-06 0)
(0.094814995 1.2751174e-06 0)
(0.094483667 -1.209704e-06 0)
(0.09479304 1.1486852e-06 0)
(0.094504509 -1.0918705e-06 0)
(0.094773236 1.0388081e-06 0)
(0.094523348 -9.8963113e-07 0)
(0.094755295 9.4379098e-07 0)
(0.094540458 -9.0148098e-07 0)
(0.094738956 8.6219665e-07 0)
(0.094556087 -8.2611467e-07 0)
(0.094723982 7.9280587e-07 0)
(0.09457046 -7.624162e-07 0)
(0.094710159 7.3458725e-07 0)
(0.094583784 -7.0942587e-07 0)
(0.094697289 6.8668557e-07 0)
(0.094596247 -6.6629461e-07 0)
(0.094685188 6.4823656e-07 0)
(0.094608028 -6.3287382e-07 0)
(0.094673683 6.1662009e-07 0)
(0.09461931 -6.1083722e-07 0)
(0.094662654 5.9659797e-07 0)
(0.094630286 -5.5183171e-07 0)
(0.094651722 7.7421592e-07 0)
(0.094640075 -4.9595606e-07 0)
(0.088798869 0.0092854594 0)
(0.092655824 -0.001302208 0)
(0.099025739 0.00076988455 0)
(0.095384887 -7.4478287e-05 0)
(0.098718069 7.5656221e-05 0)
(0.097525372 -3.2311697e-05 0)
(0.099083485 2.7601603e-05 0)
(0.097780841 9.0491954e-06 0)
(0.099077042 2.4814534e-06 0)
(0.097864444 3.9578728e-06 0)
(0.098967817 4.9858622e-07 0)
(0.097968995 -1.2122334e-06 0)
(0.098887277 1.9201823e-06 0)
(0.098035016 -2.3543808e-06 0)
(0.098834303 2.3897311e-06 0)
(0.098083443 -2.2899446e-06 0)
(0.098789178 2.2396966e-06 0)
(0.09812538 -2.0775504e-06 0)
(0.098749047 1.9934396e-06 0)
(0.098163016 -1.8658299e-06 0)
(0.098713255 1.7740502e-06 0)
(0.098196761 -1.67084e-06 0)
(0.098681264 1.5837831e-06 0)
(0.098226994 -1.4965791e-06 0)
(0.098652628 1.4179667e-06 0)
(0.098254096 -1.3427583e-06 0)
(0.098626947 1.2732054e-06 0)
(0.098278436 -1.2078997e-06 0)
(0.098603858 1.146985e-06 0)
(0.098300355 -1.0902669e-06 0)
(0.098583029 1.0372851e-06 0)
(0.09832017 -9.8819029e-07 0)
(0.098564158 9.4241515e-07 0)
(0.098338166 -9.0017401e-07 0)
(0.098546973 8.6094329e-07 0)
(0.098354604 -8.2491866e-07 0)
(0.098531224 7.9165422e-07 0)
(0.098369721 -7.6131186e-07 0)
(0.098516685 7.3351882e-07 0)
(0.098383734 -7.0839519e-07 0)
(0.09850315 6.8568339e-07 0)
(0.098396842 -6.6531498e-07 0)
(0.098490423 6.4728506e-07 0)
(0.098409231 -6.3192928e-07 0)
(0.098478325 6.1560551e-07 0)
(0.098421089 -6.1015418e-07 0)
(0.098466723 5.9528469e-07 0)
(0.098432622 -5.5017635e-07 0)
(0.098455284 7.7833379e-07 0)
(0.098443195 -4.8926375e-07 0)
(0.094429697 0.009244012 0)
(0.095050892 -0.0012606946 0)
(0.10264588 0.00075510808 0)
(0.098969572 -7.3226207e-05 0)
(0.10240074 6.2656704e-05 0)
(0.10111222 -3.4957692e-05 0)
(0.10271809 2.6354686e-05 0)
(0.10139456 8.6309636e-06 0)
(0.10272051 2.372254e-06 0)
(0.10147332 4.2338968e-06 0)
(0.10262162 1.9749027e-07 0)