/*--------------------------------*- C++ -*----------------------------------*\
| =========                 |                                                 |
| \\      /  F ield         | OpenFOAM: The Open Source CFD Toolbox           |
|  \\    /   O peration     | Version:  2312                                  |
|   \\  /    A nd           | Website:  www.openfoam.com                      |
|    \\/     M anipulation  |                                                 |
\*---------------------------------------------------------------------------*/
FoamFile
{
    version     2.0;
    format      ascii;
    arch        "LSB;label=32;scalar=64";
    class       volScalarField;
    location    "4";
    object      p;
}
// * * * * * * * * * * * * * * * * * * * * * * * * * * * * * * * * * * * * * //

dimensions      [0 2 -2 0 0 0 0];

internalField   nonuniform List<scalar> 
4000
(
14.378562
13.887241
13.775661
13.323628
13.191492
12.75763
12.60622
12.189769
12.021731
11.620721
11.43817
11.050728
10.855466
10.479923
10.27352
9.9084046
9.6922428
9.33626
9.1115548
8.7635633
8.531386
8.1903796
7.9516756
7.6167658
7.3723702
7.0427715
6.7934233
6.46844
6.2147945
5.8938088
5.6364488
5.3189106
5.0583559
4.7437733
4.4804898
4.1684209
3.9028283
3.5928738
3.3253528
3.0171489
2.7480477
2.4412604
2.1709003
1.8652196
1.5939005
1.2890351
1.0170411
0.71271322
0.44031652
0.13625445
14.377423
13.886799
13.775659
13.323636
13.191484
12.757637
12.606213
12.189775
12.021725
11.620726
11.438165
11.050733
10.855461
10.479927
10.273516
9.9084082
9.6922394
9.3362632
9.1115518
8.7635662
8.5313834
8.1903821
7.9516733
7.616768
7.3723681
7.0427734
6.7934214
6.4684417
6.2147929
5.8938104
5.6364473
5.318912
5.0583546
4.7437746
4.4804886
4.1684221
3.9028272
3.5928748
3.3253518
3.0171499
2.7480468
2.4412613
2.1708994
1.8652204
1.5938997
1.2890359
1.0170403
0.71271401
0.44031572
0.13625547
14.374806
13.886401
13.775675
13.323636
13.191484
12.757636
12.606213
12.189775
12.021725
11.620727
11.438165
11.050733
10.855461
10.479927
10.273516
9.9084084
9.6922393
9.3362633
9.1115517
8.7635662
8.5313833
8.1903822
7.9516732
7.6167681
7.372368
7.0427735
6.7934214
6.4684418
6.2147928
5.8938104
5.6364473
5.3189121
5.0583545
4.7437746
4.4804886
4.1684221
3.9028272
3.5928748
3.3253518
3.0171499
2.7480467
2.4412613
2.1708994
1.8652204
1.5938997
1.2890359
1.0170402
0.71271404
0.44031566
0.13625575
14.371816
13.886044
13.775695
13.323633
13.191486
12.757633
12.606215
12.189773
12.021727
11.620725
11.438167
11.050731
10.855463
10.479925
10.273517
9.908407
9.6922405
9.3362621
9.1115528
8.7635652
8.5313843
8.1903813
7.9516741
7.6167672
7.3723688
7.0427728
6.7934221
6.4684411
6.2147934
5.8938099
5.6364478
5.3189116
5.058355
4.7437742
4.480489
4.1684217
3.9028276
3.5928745
3.3253522
3.0171495
2.7480471
2.441261
2.1708997
1.8652201
1.5939
1.2890356
1.0170405
0.71271376
0.44031591
0.13625569
14.368964
13.885713
13.775713
13.323632
13.191489
12.75763
12.606218
12.189771
12.021729
11.620723
11.438169
11.05073
10.855464
10.479924
10.273519
9.9084057
9.6922418
9.336261
9.1115539
8.7635642
8.5313853
8.1903803
7.9516749
7.6167664
7.3723696
7.042772
6.7934228
6.4684405
6.214794
5.8938093
5.6364484
5.318911
5.0583555
4.7437737
4.4804895
4.1684213
3.902828
3.5928741
3.3253525
3.0171492
2.7480474
2.4412607
2.1709
1.8652198
1.5939003
1.2890353
1.0170408
0.71271346
0.44031619
0.1362556
14.366287
13.885398
13.775727
13.323631
13.191492
12.757628
12.606219
12.189769
12.021731
11.620721
11.43817
11.050728
10.855466
10.479923
10.27352
9.9084046
9.6922428
9.33626
9.1115548
8.7635633
8.5313861
8.1903796
7.9516756
7.6167657
7.3723702
7.0427714
6.7934233
6.4684399
6.2147945
5.8938088
5.6364488
5.3189106
5.0583559
4.7437733
4.4804898
4.1684209
3.9028284
3.5928738
3.3253528
3.0171489
2.7480477
2.4412604
2.1709003
1.8652195
1.5939006
1.2890351
1.0170411
0.71271322
0.44031642
0.13625552
14.363728
13.885097
13.775737
13.323631
13.191494
12.757626
12.606221
12.189767
12.021732
11.62072
11.438172
11.050727
10.855467
10.479922
10.273521
9.9084036
9.6922437
9.3362592
9.1115556
8.7635626
8.5313868
8.1903789
7.9516762
7.6167652
7.3723707
7.0427709
6.7934238
6.4684395
6.214795
5.8938084
5.6364492
5.3189103
5.0583563
4.743773
4.4804901
4.1684206
3.9028286
3.5928735
3.3253531
3.0171486
2.7480479
2.4412602
2.1709005
1.8652193
1.5939008
1.2890349
1.0170413
0.712713
0.44031663
0.13625546
14.361271
13.884811
13.775745
13.32363
13.191497
12.757625
12.606223
12.189766
12.021734
11.620718
11.438173
11.050726
10.855468
10.479921
10.273522
9.9084028
9.6922445
9.3362584
9.1115563
8.7635619
8.5313874
8.1903784
7.9516768
7.6167647
7.3723712
7.0427705
6.7934242
6.4684391
6.2147954
5.8938081
5.6364496
5.3189099
5.0583566
4.7437727
4.4804904
4.1684204
3.9028289
3.5928732
3.3253533
3.0171484
2.7480482
2.4412599
2.1709007
1.8652191
1.593901
1.2890347
1.0170415
0.71271281
0.44031682
0.13625539
14.358917
13.884541
13.775752
13.323628
13.191499
12.757623
12.606224
12.189764
12.021735
11.620717
11.438174
11.050725
10.855469
10.47992
10.273523
9.908402
9.6922453
9.3362577
9.1115569
8.7635613
8.5313879
8.1903778
7.9516773
7.6167642
7.3723717
7.0427701
6.7934246
6.4684387
6.2147957
5.8938077
5.6364499
5.3189096
5.0583569
4.7437724
4.4804907
4.1684201
3.9028291
3.592873
3.3253535
3.0171482
2.7480484
2.4412597
2.1709009
1.8652189
1.5939012
1.2890345
1.0170417
0.71271263
0.440317
0.13625533
14.356664
13.884285
13.775757
13.323627
13.1915
12.757622
12.606225
12.189763
12.021736
11.620716
11.438175
11.050724
10.85547
10.479919
10.273523
9.9084013
9.6922459
9.3362571
9.1115575
8.7635607
8.5313885
8.1903773
7.9516778
7.6167637
7.3723721
7.0427697
6.793425
6.4684384
6.214796
5.8938074
5.6364502
5.3189093
5.0583571
4.7437722
4.4804909
4.1684199
3.9028293
3.5928728
3.3253537
3.017148
2.7480486
2.4412596
2.1709011
1.8652188
1.5939013
1.2890343
1.0170418
0.71271246
0.44031717
0.13625526
14.354512
13.884044
13.775761
13.323625
13.191501
12.75762
12.606226
12.189762
12.021737
11.620715
11.438176
11.050723
10.855471
10.479918
10.273524
9.9084006
9.6922466
9.3362565
9.1115581
8.7635602
8.531389
8.1903769
7.9516782
7.6167633
7.3723725
7.0427693
6.7934253
6.468438
6.2147963
5.8938071
5.6364504
5.3189091
5.0583574
4.7437719
4.4804911
4.1684197
3.9028295
3.5928726
3.3253539
3.0171478
2.7480487
2.4412594
2.1709012
1.8652186
1.5939015
1.2890342
1.017042
0.7127123
0.44031733
0.13625519
14.352461
13.883814
13.775763
13.323625
13.191502
12.757619
12.606228
12.189761
12.021738
11.620714
11.438177
11.050722
10.855471
10.479917
10.273525
9.9084
9.6922471
9.336256
9.1115586
8.7635597
8.5313894
8.1903764
7.9516786
7.616763
7.3723728
7.042769
6.7934256
6.4684377
6.2147966
5.8938069
5.6364507
5.3189089
5.0583576
4.7437717
4.4804913
4.1684195
3.9028297
3.5928724
3.3253541
3.0171477
2.7480489
2.4412592
2.1709014
1.8652185
1.5939016
1.289034
1.0170421
0.71271216
0.44031749
0.13625512
14.350508
13.883594
13.775766
13.323625
13.191502
12.757618
12.606229
12.18976
12.021739
11.620713
11.438178
11.050722
10.855472
10.479917
10.273525
9.9083994
9.6922477
9.3362555
9.111559
8.7635593
8.5313898
8.1903761
7.951679
7.6167626
7.3723731
7.0427687
6.7934259
6.4684375
6.2147969
5.8938066
5.6364509
5.3189086
5.0583578
4.7437715
4.4804915
4.1684193
3.9028299
3.5928723
3.3253543
3.0171475
2.748049
2.4412591
2.1709015
1.8652183
1.5939018
1.2890339
1.0170422
0.71271203
0.44031763
0.13625505
14.348653
13.883385
13.77577
13.323625
13.191501
12.757617
12.60623
12.189759
12.02174
11.620713
11.438178
11.050721
10.855473
10.479916
10.273526
9.9083989
9.6922482
9.336255
9.1115595
8.7635589
8.5313902
8.1903757
7.9516793
7.6167623
7.3723734
7.0427684
6.7934262
6.4684372
6.2147971
5.8938064
5.6364511
5.3189084
5.058358
4.7437714
4.4804917
4.1684191
3.9028301
3.5928721
3.3253544
3.0171474
2.7480492
2.441259
2.1709017
1.8652182
1.5939019
1.2890338
1.0170424
0.7127119
0.44031777
0.13625498
14.346895
13.883199
13.775768
13.323624
13.1915
12.757616
12.60623
12.189759
12.021741
11.620712
11.438179
11.05072
10.855473
10.479916
10.273526
9.9083984
9.6922486
9.3362546
9.1115599
8.7635585
8.5313906
8.1903754
7.9516796
7.616762
7.3723737
7.0427681
6.7934264
6.468437
6.2147973
5.8938062
5.6364513
5.3189082
5.0583582
4.7437712
4.4804918
4.168419
3.9028302
3.592872
3.3253545
3.0171472
2.7480493
2.4412588
2.1709018
1.8652181
1.593902
1.2890337
1.0170425
0.71271178
0.4403179
0.13625491
14.345227
13.88307
13.775734
13.323616
13.191497
12.757615
12.606231
12.189758
12.021741
11.620711
11.43818
11.05072
10.855474
10.479915
10.273527
9.908398
9.692249
9.3362542
9.1115603
8.7635582
8.5313909
8.1903751
7.9516799
7.6167617
7.372374
7.0427679
6.7934267
6.4684368
6.2147975
5.893806
5.6364515
5.3189081
5.0583583
4.743771
4.480492
4.1684188
3.9028303
3.5928718
3.3253547
3.0171471
2.7480494
2.4412587
2.1709019
1.865218
1.5939021
1.2890336
1.0170426
0.71271168
0.44031802
0.13625485
14.343649
13.883016
13.775643
13.3236
13.191492
12.757614
12.606232
12.189757
12.021742
11.620711
11.43818
11.050719
10.855474
10.479915
10.273527
9.9083975
9.6922494
9.3362538
9.1115606
8.7635578
8.5313912
8.1903748
7.9516802
7.6167615
7.3723742
7.0427676
6.7934269
6.4684366
6.2147977
5.8938058
5.6364517
5.3189079
5.0583585
4.7437709
4.4804921
4.1684187
3.9028305
3.5928717
3.3253548
3.017147
2.7480495
2.4412586
2.170902
1.8652179
1.5939022
1.2890335
1.0170427
0.71271158
0.44031813
0.13625478
14.342165
13.882967
13.775541
13.323586
13.191489
12.757613
12.606233
12.189757
12.021743
11.62071
11.438181
11.050719
10.855475
10.479914
10.273528
9.9083972
9.6922498
9.3362534
9.1115609
8.7635575
8.5313915
8.1903745
7.9516804
7.6167612
7.3723745
7.0427674
6.7934271
6.4684364
6.2147979
5.8938056
5.6364518
5.3189078
5.0583586
4.7437707
4.4804923
4.1684186
3.9028306
3.5928716
3.3253549
3.0171469
2.7480496
2.4412585
2.1709021
1.8652178
1.5939023
1.2890334
1.0170428
0.71271148
0.44031824
0.13625472
14.340776
13.882835
13.7755
13.323584
13.191487
12.757612
12.606233
12.189756
12.021743
11.62071
11.438181
11.050718
10.855475
10.479914
10.273528
9.9083968
9.6922501
9.3362531
9.1115612
8.7635572
8.5313917
8.1903742
7.9516807
7.616761
7.3723747
7.0427672
6.7934273
6.4684362
6.2147981
5.8938055
5.636452
5.3189076
5.0583588
4.7437706
4.4804924
4.1684185
3.9028307
3.5928715
3.325355
3.0171468
2.7480497
2.4412584
2.1709022
1.8652177
1.5939024
1.2890333
1.0170429
0.71271139
0.44031834
0.13625466
14.33948
13.882637
13.775518
13.32359
13.191487
12.757612
12.606234
12.189756
12.021744
11.620709
11.438182
11.050718
10.855476
10.479913
10.273529
9.9083964
9.6922505
9.3362528
9.1115615
8.763557
8.531392
8.190374
7.9516809
7.6167608
7.3723749
7.0427671
6.7934274
6.468436
6.2147982
5.8938053
5.6364521
5.3189075
5.0583589
4.7437705
4.4804925
4.1684184
3.9028308
3.5928714
3.3253551
3.0171467
2.7480498
2.4412583
2.1709023
1.8652176
1.5939025
1.2890332
1.0170429
0.71271131
0.44031844
0.13625459
14.338278
13.882442
13.775547
13.323593
13.191487
12.757612
12.606235
12.189755
12.021744
11.620709
11.438182
11.050717
10.855476
10.479913
10.273529
9.9083961
9.6922508
9.3362526
9.1115618
8.7635567
8.5313922
8.1903738
7.9516811
7.6167606
7.372375
7.0427669
6.7934276
6.4684359
6.2147984
5.8938052
5.6364523
5.3189074
5.058359
4.7437704
4.4804926
4.1684183
3.9028309
3.5928713
3.3253552
3.0171466
2.7480499
2.4412583
2.1709023
1.8652175
1.5939025
1.2890331
1.017043
0.71271124
0.44031853
0.13625454
14.337163
13.882275
13.775568
13.32359
13.191487
12.757612
12.606236
12.189755
12.021745
11.620708
11.438183
11.050717
10.855476
10.479913
10.273529
9.9083958
9.692251
9.3362523
9.111562
8.7635565
8.5313924
8.1903736
7.9516813
7.6167604
7.3723752
7.0427667
6.7934278
6.4684357
6.2147985
5.8938051
5.6364524
5.3189073
5.0583591
4.7437703
4.4804927
4.1684182
3.902831
3.5928712
3.3253553
3.0171466
2.74805
2.4412582
2.1709024
1.8652175
1.5939026
1.2890331
1.0170431
0.71271117
0.44031861
0.13625448
14.33613
13.882136
13.775582
13.323582
13.191486
12.757612
12.606236
12.189755
12.021745
11.620708
11.438183
11.050717
10.855477
10.479912
10.27353
9.9083956
9.6922513
9.3362521
9.1115622
8.7635563
8.5313926
8.1903734
7.9516814
7.6167603
7.3723754
7.0427666
6.7934279
6.4684356
6.2147986
5.893805
5.6364525
5.3189071
5.0583592
4.7437702
4.4804928
4.1684181
3.9028311
3.5928712
3.3253553
3.0171465
2.74805
2.4412581
2.1709025
1.8652174
1.5939027
1.289033
1.0170431
0.7127111
0.44031869
0.13625443
14.335174
13.882015
13.775588
13.323573
13.191486
12.757612
12.606237
12.189754
12.021746
11.620708
11.438183
11.050716
10.855477
10.479912
10.27353
9.9083953
9.6922515
9.3362518
9.1115625
8.7635561
8.5313928
8.1903732
7.9516816
7.6167601
7.3723755
7.0427664
6.793428
6.4684355
6.2147987
5.8938049
5.6364526
5.3189071
5.0583593
4.7437701
4.4804929
4.168418
3.9028311
3.5928711
3.3253554
3.0171464
2.7480501
2.4412581
2.1709025
1.8652173
1.5939027
1.2890329
1.0170432
0.71271105
0.44031876
0.13625437
14.334294
13.881909
13.775588
13.323566
13.191487
12.757612
12.606238
12.189754
12.021746
11.620707
11.438184
11.050716
10.855477
10.479912
10.27353
9.9083951
9.6922517
9.3362516
9.1115626
8.7635559
8.531393
8.1903731
7.9516818
7.61676
7.3723756
7.0427663
6.7934281
6.4684354
6.2147988
5.8938048
5.6364527
5.318907
5.0583594
4.74377
4.480493
4.1684179
3.9028312
3.592871
3.3253555
3.0171463
2.7480502
2.441258
2.1709026
1.8652173
1.5939028
1.2890329
1.0170433
0.71271099
0.44031883
0.13625433
14.333486
13.881815
13.775581
13.323563
13.191488
12.757612
12.606239
12.189754
12.021747
11.620707
11.438184
11.050716
10.855478
10.479912
10.27353
9.9083949
9.6922519
9.3362514
9.1115628
8.7635558
8.5313932
8.1903729
7.9516819
7.6167598
7.3723758
7.0427662
6.7934283
6.4684353
6.2147989
5.8938047
5.6364528
5.3189069
5.0583595
4.7437699
4.480493
4.1684179
3.9028313
3.5928709
3.3253555
3.0171463
2.7480502
2.4412579
2.1709027
1.8652172
1.5939028
1.2890328
1.0170433
0.71271094
0.44031889
0.13625428
14.332749
13.881732
13.775566
13.323565
13.19149
12.757613
12.606239
12.189754
12.021747
11.620707
11.438184
11.050716
10.855478
10.479911
10.27353
9.9083947
9.6922521
9.3362513
9.111563
8.7635556
8.5313933
8.1903728
7.951682
7.6167597
7.3723759
7.0427661
6.7934284
6.4684352
6.214799
5.8938046
5.6364529
5.3189068
5.0583595
4.7437699
4.4804931
4.1684178
3.9028313
3.5928709
3.3253556
3.0171462
2.7480503
2.4412579
2.1709027
1.8652172
1.5939029
1.2890328
1.0170433
0.7127109
0.44031895
0.13625424
14.33208
13.881658
13.775546
13.323571
13.191492
12.757613
12.60624
12.189753
12.021747
11.620707
11.438184
11.050715
10.855478
10.479911
10.273531
9.9083945
9.6922523
9.3362511
9.1115631
8.7635555
8.5313934
8.1903727
7.9516822
7.6167596
7.372376
7.042766
6.7934284
6.4684351
6.2147991
5.8938045
5.6364529
5.3189067
5.0583596
4.7437698
4.4804931
4.1684177
3.9028314
3.5928708
3.3253556
3.0171462
2.7480503
2.4412579
2.1709027
1.8652171
1.5939029
1.2890327
1.0170434
0.71271086
0.440319
0.1362542
14.331477
13.88159
13.775524
13.323579
13.191493
12.757614
12.606241
12.189753
12.021748
11.620706
11.438185
11.050715
10.855478
10.479911
10.273531
9.9083943
9.6922525
9.336251
9.1115633
8.7635553
8.5313936
8.1903725
7.9516823
7.6167595
7.3723761
7.0427659
6.7934285
6.468435
6.2147992
5.8938044
5.636453
5.3189067
5.0583597
4.7437698
4.4804932
4.1684177
3.9028314
3.5928708
3.3253557
3.0171461
2.7480504
2.4412578
2.1709028
1.8652171
1.593903
1.2890327
1.0170434
0.71271082
0.44031904
0.13625416
14.330938
13.881529
13.775501
13.323589
13.191494
12.757614
12.606241
12.189753
12.021748
11.620706
11.438185
11.050715
10.855478
10.479911
10.273531
9.9083942
9.6922526
9.3362508
9.1115634
8.7635552
8.5313937
8.1903724
7.9516824
7.6167594
7.3723762
7.0427658
6.7934286
6.4684349
6.2147993
5.8938044
5.6364531
5.3189066
5.0583597
4.7437697
4.4804933
4.1684176
3.9028315
3.5928707
3.3253557
3.0171461
2.7480504
2.4412578
2.1709028
1.8652171
1.593903
1.2890327
1.0170435
0.71271079
0.44031908
0.13625413
14.330463
13.88147
13.775477
13.323601
13.191493
12.757614
12.606241
12.189753
12.021748
11.620706
11.438185
11.050715
10.855479
10.479911
10.273531
9.908394
9.6922527
9.3362507
9.1115635
8.7635551
8.5313938
8.1903723
7.9516824
7.6167593
7.3723762
7.0427658
6.7934287
6.4684349
6.2147993
5.8938043
5.6364531
5.3189066
5.0583598
4.7437697
4.4804933
4.1684176
3.9028315
3.5928707
3.3253558
3.0171461
2.7480504
2.4412577
2.1709029
1.865217
1.593903
1.2890326
1.0170435
0.71271076
0.44031912
0.1362541
14.330048
13.881414
13.775453
13.323615
13.191492
12.757613
12.606241
12.189753
12.021748
11.620706
11.438185
11.050715
10.855479
10.47991
10.273531
9.9083939
9.6922528
9.3362506
9.1115636
8.763555
8.5313939
8.1903723
7.9516825
7.6167593
7.3723763
7.0427657
6.7934287
6.4684348
6.2147994
5.8938043
5.6364532
5.3189065
5.0583598
4.7437696
4.4804933
4.1684176
3.9028316
3.5928707
3.3253558
3.017146
2.7480505
2.4412577
2.1709029
1.865217
1.5939031
1.2890326
1.0170435
0.71271074
0.44031914
0.13625407
14.329695
13.881356
13.77543
13.323628
13.191491
12.757613
12.606241
12.189752
12.021749
11.620706
11.438185
11.050715
10.855479
10.47991
10.273531
9.9083938
9.6922529
9.3362505
9.1115637
8.7635549
8.5313939
8.1903722
7.9516826
7.6167592
7.3723764
7.0427656
6.7934288
6.4684348
6.2147994
5.8938042
5.6364532
5.3189065
5.0583599
4.7437696
4.4804934
4.1684175
3.9028316
3.5928706
3.3253558
3.017146
2.7480505
2.4412577
2.1709029
1.865217
1.5939031
1.2890326
1.0170435
0.71271072
0.44031916
0.13625405
14.329403
13.881296
13.775409
13.323633
13.191493
12.757614
12.606242
12.189752
12.021749
11.620705
11.438186
11.050714
10.855479
10.47991
10.273532
9.9083937
9.692253
9.3362504
9.1115638
8.7635549
8.531394
8.1903721
7.9516827
7.6167591
7.3723764
7.0427656
6.7934288
6.4684347
6.2147995
5.8938042
5.6364532
5.3189064
5.0583599
4.7437695
4.4804934
4.1684175
3.9028316
3.5928706
3.3253558
3.017146
2.7480505
2.4412577
2.1709029
1.865217
1.5939031
1.2890326
1.0170436
0.7127107
0.44031918
0.13625404
14.329171
13.88123
13.775393
13.323628
13.191499
12.757616
12.606243
12.189752
12.021749
11.620705
11.438186
11.050714
10.855479
10.47991
10.273532
9.9083936
9.6922531
9.3362503
9.1115638
8.7635548
8.5313941
8.1903721
7.9516827
7.6167591
7.3723765
7.0427655
6.7934289
6.4684347
6.2147995
5.8938041
5.6364533
5.3189064
5.0583599
4.7437695
4.4804934
4.1684175
3.9028317
3.5928706
3.3253559
3.017146
2.7480505
2.4412576
2.1709029
1.8652169
1.5939031
1.2890326
1.0170436
0.7127107
0.44031918
0.13625402
14.329001
13.881158
13.775378
13.323615
13.191507
12.757619
12.606244
12.189753
12.021749
11.620705
11.438186
11.050714
10.855479
10.47991
10.273532
9.9083936
9.6922532
9.3362503
9.1115639
8.7635547
8.5313941
8.190372
7.9516827
7.6167591
7.3723765
7.0427655
6.7934289
6.4684347
6.2147995
5.8938041
5.6364533
5.3189064
5.0583599
4.7437695
4.4804935
4.1684174
3.9028317
3.5928706
3.3253559
3.0171459
2.7480505
2.4412576
2.170903
1.8652169
1.5939031
1.2890325
1.0170436
0.71271069
0.44031918
0.13625402
14.328893
13.881081
13.775364
13.323603
13.191514
12.757622
12.606245
12.189753
12.021749
11.620705
11.438186
11.050714
10.855479
10.47991
10.273532
9.9083935
9.6922532
9.3362502
9.1115639
8.7635547
8.5313941
8.190372
7.9516828
7.616759
7.3723765
7.0427655
6.7934289
6.4684346
6.2147996
5.8938041
5.6364533
5.3189064
5.05836
4.7437695
4.4804935
4.1684174
3.9028317
3.5928706
3.3253559
3.0171459
2.7480506
2.4412576
2.170903
1.8652169
1.5939031
1.2890325
1.0170436
0.71271069
0.44031917
0.13625401
14.328841
13.881006
13.775348
13.323595
13.191517
12.757624
12.606245
12.189753
12.021749
11.620705
11.438186
11.050714
10.855479
10.47991
10.273532
9.9083935
9.6922532
9.3362502
9.111564
8.7635547
8.5313942
8.190372
7.9516828
7.616759
7.3723766
7.0427655
6.793429
6.4684346
6.2147996
5.8938041
5.6364533
5.3189063
5.05836
4.7437695
4.4804935
4.1684174
3.9028317
3.5928706
3.3253559
3.0171459
2.7480506
2.4412576
2.170903
1.8652169
1.5939031
1.2890325
1.0170436
0.7127107
0.44031916
0.13625401
14.32883
13.880942
13.775335
13.323591
13.191519
12.757626
12.606246
12.189753
12.021749
11.620705
11.438186
11.050714
10.855479
10.47991
10.273532
9.9083935
9.6922533
9.3362502
9.111564
8.7635547
8.5313942
8.1903719
7.9516828
7.616759
7.3723766
7.0427654
6.793429
6.4684346
6.2147996
5.8938041
5.6364533
5.3189063
5.05836
4.7437695
4.4804935
4.1684174
3.9028317
3.5928706
3.3253559
3.0171459
2.7480506
2.4412576
2.170903
1.8652169
1.5939031
1.2890325
1.0170436
0.71271071
0.44031915
0.13625401
14.328834
13.880904
13.775327
13.32359
13.191519
12.757626
12.606246
12.189753
12.021749
11.620705
11.438186
11.050714
10.855479
10.47991
10.273532
9.9083934
9.6922533
9.3362502
9.111564
8.7635546
8.5313942
8.1903719
7.9516828
7.616759
7.3723766
7.0427654
6.793429
6.4684346
6.2147996
5.8938041
5.6364533
5.3189063
5.05836
4.7437695
4.4804935
4.1684174
3.9028317
3.5928706
3.3253559
3.0171459
2.7480506
2.4412576
2.170903
1.8652169
1.5939031
1.2890326
1.0170436
0.71271072
0.44031914
0.13625401
14.328835
13.880904
13.775327
13.32359
13.191519
12.757626
12.606246
12.189753
12.021749
11.620705
11.438186
11.050714
10.855479
10.47991
10.273532
9.9083934
9.6922533
9.3362502
9.111564
8.7635546
8.5313942
8.1903719
7.9516828
7.616759
7.3723766
7.0427654
6.793429
6.4684346
6.2147996
5.8938041
5.6364533
5.3189063
5.05836
4.7437695
4.4804935
4.1684174
3.9028317
3.5928706
3.3253559
3.0171459
2.7480506
2.4412576
2.170903
1.8652169
1.5939031
1.2890326
1.0170436
0.71271072
0.44031914
0.13625401
14.32883
13.880942
13.775335
13.323591
13.191519
12.757626
12.606246
12.189753
12.021749
11.620705
11.438186
11.050714
10.855479
10.47991
10.273532
9.9083935
9.6922533
9.3362502
9.111564
8.7635547
8.5313942
8.1903719
7.9516828
7.616759
7.3723766
7.0427654
6.793429
6.4684346
6.2147996
5.8938041
5.6364533
5.3189063
5.05836
4.7437695
4.4804935
4.1684174
3.9028317
3.5928706
3.3253559
3.0171459
2.7480506
2.4412576
2.170903
1.8652169
1.5939031
1.2890325
1.0170436
0.71271071
0.44031915
0.13625401
14.328841
13.881006
13.775348
13.323595
13.191517
12.757624
12.606245
12.189753
12.021749
11.620705
11.438186
11.050714
10.855479
10.47991
10.273532
9.9083935
9.6922532
9.3362502
9.111564
8.7635547
8.5313942
8.190372
7.9516828
7.616759
7.3723766
7.0427655
6.793429
6.4684346
6.2147996
5.8938041
5.6364533
5.3189063
5.05836
4.7437695
4.4804935
4.1684174
3.9028317
3.5928706
3.3253559
3.0171459
2.7480506
2.4412576
2.170903
1.8652169
1.5939031
1.2890325
1.0170436
0.7127107
0.44031916
0.13625401
14.328893
13.881081
13.775364
13.323603
13.191514
12.757622
12.606245
12.189753
12.021749
11.620705
11.438186
11.050714
10.855479
10.47991
10.273532
9.9083935
9.6922532
9.3362502
9.1115639
8.7635547
8.5313941
8.190372
7.9516828
7.616759
7.3723765
7.0427655
6.7934289
6.4684346
6.2147996
5.8938041
5.6364533
5.3189064
5.05836
4.7437695
4.4804935
4.1684174
3.9028317
3.5928706
3.3253559
3.0171459
2.7480506
2.4412576
2.170903
1.8652169
1.5939031
1.2890325
1.0170436
0.71271069
0.44031917
0.13625401
14.329002
13.881158
13.775378
13.323615
13.191507
12.757619
12.606244
12.189753
12.021749
11.620705
11.438186
11.050714
10.855479
10.47991
10.273532
9.9083936
9.6922532
9.3362503
9.1115639
8.7635547
8.5313941
8.190372
7.9516827
7.6167591
7.3723765
7.0427655
6.7934289
6.4684347
6.2147995
5.8938041
5.6364533
5.3189064
5.0583599
4.7437695
4.4804935
4.1684174
3.9028317
3.5928706
3.3253559
3.0171459
2.7480505
2.4412576
2.170903
1.8652169
1.5939031
1.2890325
1.0170436
0.71271069
0.44031918
0.13625402
14.329171
13.88123
13.775393
13.323628
13.191499
12.757616
12.606243
12.189752
12.021749
11.620705
11.438186
11.050714
10.855479
10.47991
10.273532
9.9083936
9.6922531
9.3362503
9.1115638
8.7635548
8.5313941
8.1903721
7.9516827
7.6167591
7.3723765
7.0427655
6.7934289
6.4684347
6.2147995
5.8938041
5.6364533
5.3189064
5.0583599
4.7437695
4.4804934
4.1684175
3.9028317
3.5928706
3.3253559
3.017146
2.7480505
2.4412576
2.1709029
1.8652169
1.5939031
1.2890326
1.0170436
0.7127107
0.44031918
0.13625402
14.329403
13.881296
13.775409
13.323633
13.191493
12.757614
12.606242
12.189752
12.021749
11.620705
11.438186
11.050714
10.855479
10.47991
10.273532
9.9083937
9.692253
9.3362504
9.1115638
8.7635549
8.531394
8.1903721
7.9516827
7.6167591
7.3723764
7.0427656
6.7934288
6.4684347
6.2147995
5.8938042
5.6364532
5.3189064
5.0583599
4.7437695
4.4804934
4.1684175
3.9028316
3.5928706
3.3253558
3.017146
2.7480505
2.4412577
2.1709029
1.865217
1.5939031
1.2890326
1.0170436
0.7127107
0.44031918
0.13625404
14.329695
13.881356
13.77543
13.323628
13.191491
12.757613
12.606241
12.189752
12.021749
11.620706
11.438185
11.050715
10.855479
10.47991
10.273531
9.9083938
9.6922529
9.3362505
9.1115637
8.7635549
8.5313939
8.1903722
7.9516826
7.6167592
7.3723764
7.0427656
6.7934288
6.4684348
6.2147994
5.8938042
5.6364532
5.3189065
5.0583599
4.7437696
4.4804934
4.1684175
3.9028316
3.5928706
3.3253558
3.017146
2.7480505
2.4412577
2.1709029
1.865217
1.5939031
1.2890326
1.0170435
0.71271072
0.44031916
0.13625405
14.330049
13.881413
13.775453
13.323615
13.191492
12.757613
12.606241
12.189753
12.021748
11.620706
11.438185
11.050715
10.855479
10.47991
10.273531
9.9083939
9.6922528
9.3362506
9.1115636
8.763555
8.5313939
8.1903723
7.9516825
7.6167593
7.3723763
7.0427657
6.7934287
6.4684348
6.2147994
5.8938043
5.6364532
5.3189065
5.0583598
4.7437696
4.4804933
4.1684176
3.9028316
3.5928707
3.3253558
3.017146
2.7480505
2.4412577
2.1709029
1.865217
1.5939031
1.2890326
1.0170435
0.71271074
0.44031914
0.13625407
14.330463
13.88147
13.775477
13.323601
13.191493
12.757614
12.606241
12.189753
12.021748
11.620706
11.438185
11.050715
10.855479
10.479911
10.273531
9.908394
9.6922527
9.3362507
9.1115635
8.7635551
8.5313938
8.1903723
7.9516824
7.6167593
7.3723762
7.0427658
6.7934287
6.4684349
6.2147993
5.8938043
5.6364531
5.3189066
5.0583598
4.7437697
4.4804933
4.1684176
3.9028315
3.5928707
3.3253558
3.0171461
2.7480504
2.4412577
2.1709029
1.865217
1.593903
1.2890326
1.0170435
0.71271076
0.44031912
0.1362541
14.330938
13.881528
13.775501
13.323589
13.191494
12.757614
12.606241
12.189753
12.021748
11.620706
11.438185
11.050715
10.855478
10.479911
10.273531
9.9083942
9.6922526
9.3362508
9.1115634
8.7635552
8.5313937
8.1903724
7.9516824
7.6167594
7.3723762
7.0427658
6.7934286
6.4684349
6.2147993
5.8938044
5.6364531
5.3189066
5.0583597
4.7437697
4.4804933
4.1684176
3.9028315
3.5928707
3.3253557
3.0171461
2.7480504
2.4412578
2.1709028
1.8652171
1.593903
1.2890327
1.0170435
0.71271079
0.44031908
0.13625413
14.331477
13.88159
13.775524
13.323579
13.191493
12.757614
12.606241
12.189753
12.021748
11.620706
11.438185
11.050715
10.855478
10.479911
10.273531
9.9083943
9.6922525
9.336251
9.1115633
8.7635553
8.5313936
8.1903725
7.9516823
7.6167595
7.3723761
7.0427659
6.7934285
6.468435
6.2147992
5.8938044
5.636453
5.3189067
5.0583597
4.7437698
4.4804932
4.1684177
3.9028314
3.5928708
3.3253557
3.0171461
2.7480504
2.4412578
2.1709028
1.8652171
1.593903
1.2890327
1.0170434
0.71271082
0.44031904
0.13625416
14.33208
13.881657
13.775546
13.323571
13.191492
12.757613
12.60624
12.189753
12.021747
11.620707
11.438184
11.050715
10.855478
10.479911
10.273531
9.9083945
9.6922523
9.3362511
9.1115631
8.7635555
8.5313934
8.1903727
7.9516822
7.6167596
7.372376
7.042766
6.7934284
6.4684351
6.2147991
5.8938045
5.6364529
5.3189067
5.0583596
4.7437698
4.4804931
4.1684177
3.9028314
3.5928708
3.3253556
3.0171462
2.7480503
2.4412579
2.1709027
1.8652171
1.5939029
1.2890327
1.0170434
0.71271086
0.440319
0.1362542
14.332749
13.881732
13.775566
13.323565
13.19149
12.757613
12.606239
12.189754
12.021747
11.620707
11.438184
11.050716
10.855478
10.479911
10.27353
9.9083947
9.6922521
9.3362513
9.111563
8.7635556
8.5313933
8.1903728
7.951682
7.6167597
7.3723759
7.0427661
6.7934284
6.4684352
6.214799
5.8938046
5.6364529
5.3189068
5.0583595
4.7437699
4.4804931
4.1684178
3.9028313
3.5928709
3.3253556
3.0171462
2.7480503
2.4412579
2.1709027
1.8652172
1.5939029
1.2890328
1.0170433
0.7127109
0.44031895
0.13625424
14.333486
13.881815
13.775581
13.323563
13.191488
12.757612
12.606239
12.189754
12.021747
11.620707
11.438184
11.050716
10.855478
10.479912
10.27353
9.9083949
9.6922519
9.3362514
9.1115628
8.7635558
8.5313932
8.1903729
7.9516819
7.6167598
7.3723758
7.0427662
6.7934283
6.4684353
6.2147989
5.8938047
5.6364528
5.3189069
5.0583595
4.7437699
4.480493
4.1684179
3.9028313
3.5928709
3.3253555
3.0171463
2.7480502
2.4412579
2.1709027
1.8652172
1.5939028
1.2890328
1.0170433
0.71271094
0.44031889
0.13625428
14.334294
13.881909
13.775588
13.323566
13.191487
12.757612
12.606238
12.189754
12.021746
11.620707
11.438184
11.050716
10.855477
10.479912
10.27353
9.9083951
9.6922517
9.3362516
9.1115626
8.7635559
8.531393
8.1903731
7.9516818
7.61676
7.3723756
7.0427663
6.7934281
6.4684354
6.2147988
5.8938048
5.6364527
5.318907
5.0583594
4.74377
4.480493
4.1684179
3.9028312
3.592871
3.3253555
3.0171463
2.7480502
2.441258
2.1709026
1.8652173
1.5939028
1.2890329
1.0170433
0.71271099
0.44031883
0.13625433
14.335174
13.882015
13.775588
13.323573
13.191486
12.757612
12.606237
12.189754
12.021746
11.620708
11.438183
11.050716
10.855477
10.479912
10.27353
9.9083953
9.6922515
9.3362518
9.1115625
8.7635561
8.5313928
8.1903732
7.9516816
7.6167601
7.3723755
7.0427664
6.793428
6.4684355
6.2147987
5.8938049
5.6364526
5.3189071
5.0583593
4.7437701
4.4804929
4.168418
3.9028311
3.5928711
3.3253554
3.0171464
2.7480501
2.4412581
2.1709025
1.8652173
1.5939027
1.2890329
1.0170432
0.71271105
0.44031876
0.13625437
14.33613
13.882135
13.775582
13.323582
13.191486
12.757612
12.606236
12.189755
12.021745
11.620708
11.438183
11.050717
10.855477
10.479912
10.27353
9.9083956
9.6922513
9.3362521
9.1115622
8.7635563
8.5313926
8.1903734
7.9516814
7.6167603
7.3723754
7.0427666
6.7934279
6.4684356
6.2147986
5.893805
5.6364525
5.3189071
5.0583592
4.7437702
4.4804928
4.1684181
3.9028311
3.5928712
3.3253553
3.0171465
2.74805
2.4412581
2.1709025
1.8652174
1.5939027
1.289033
1.0170431
0.7127111
0.44031869
0.13625443
14.337163
13.882275
13.775568
13.32359
13.191487
12.757612
12.606236
12.189755
12.021745
11.620708
11.438183
11.050717
10.855476
10.479913
10.273529
9.9083958
9.692251
9.3362523
9.111562
8.7635565
8.5313924
8.1903736
7.9516813
7.6167604
7.3723752