/*--------------------------------*- C++ -*----------------------------------*\
| =========                 |                                                 |
| \\      /  F ield         | OpenFOAM: The Open Source CFD Toolbox           |
|  \\    /   O peration     | Version:  2312                                  |
|   \\  /    A nd           | Website:  www.openfoam.com                      |
|    \\/     M anipulation  |                                                 |
\*---------------------------------------------------------------------------*/
FoamFile
{
    version     2.0;
    format      ascii;
    arch        "LSB;label=32;scalar=64";
    class       surfaceScalarField;
    location    "4";
    object      phi_0;
}
// * * * * * * * * * * * * * * * * * * * * * * * * * * * * * * * * * * * * * //

dimensions      [0 3 -1 0 0 0 0];

oriented        oriented;

internalField   nonuniform List<scalar> 
7870
(
5.3034615e-11
1.2932154e-09
5.1924996e-11
1.1096186e-12
5.1958087e-11
-3.3090491e-14
5.1215312e-11
7.4277404e-13
5.2052869e-11
-8.3755718e-13
5.1284617e-11
7.6825213e-13
5.2023501e-11
-7.3888353e-13
5.1334543e-11
6.8895749e-13
5.1983055e-11
-6.4851202e-13
5.1375669e-11
6.0738674e-13
5.1945696e-11
-5.7002734e-13
5.1411163e-11
5.3453291e-13
5.1912669e-11
-5.0150567e-13
5.1442177e-11
4.7049258e-13
5.1883678e-11
-4.4150115e-13
5.1469329e-11
4.1434906e-13
5.1858278e-11
-3.8894902e-13
5.1493094e-11
3.651839e-13
5.183605e-11
-3.4295559e-13
5.1513876e-11
3.2217337e-13
5.181662e-11
-3.0274357e-13
5.1532027e-11
2.8459243e-13
5.1799661e-11
-2.6763346e-13
5.1547855e-11
2.518063e-13
5.1784886e-11
-2.3703181e-13
5.1561626e-11
2.2326086e-13
5.1772047e-11
-2.1042133e-13
5.1573573e-11
1.9847355e-13
5.1760926e-11
-1.8735224e-13
5.15839e-11
1.7702538e-13
5.1751335e-11
-1.674346e-13
5.1592781e-11
1.5855383e-13
5.1743113e-11
-1.5033171e-13
5.1600366e-11
1.4274671e-13
5.1736121e-11
-1.3575441e-13
5.1606784e-11
1.293368e-13
5.173024e-11
-1.2345618e-13
5.1612143e-11
1.1809735e-13
5.1725372e-11
-1.1322898e-13
5.1616533e-11
1.0883826e-13
5.1721433e-11
-1.0489974e-13
5.162003e-11
1.0140282e-13
5.1718358e-11
-9.8327407e-14
5.1622693e-11
9.566514e-14
5.1716093e-11
-9.340012e-14
5.1624564e-11
9.1529016e-14
5.1714606e-11
-9.0041877e-14
5.1625802e-11
8.8803101e-14
5.1714913e-11
-8.9110314e-14
8.5550687e-14
1.4951345e-10
2.4899519e-09
1.5083243e-10
-2.0935931e-13
1.5025816e-10
5.4117368e-13
1.4930112e-10
1.6998226e-12
1.5050768e-10
-2.0441176e-12
1.4943332e-10
1.8426065e-12
1.5049375e-10
-1.7993092e-12
1.4951103e-10
1.6716752e-12
1.5043941e-10
-1.5768956e-12
1.495711e-10
1.475705e-12
1.5038654e-10
-1.3854729e-12
1.4962212e-10
1.2989574e-12
1.5033944e-10
-1.2188237e-12
1.4966655e-10
1.1433768e-12
1.5029802e-10
-1.0729736e-12
1.4970543e-10
1.0069472e-12
1.5026173e-10
-9.4525322e-13
1.4973944e-10
8.8747003e-13
1.5022996e-10
-8.3347632e-13
1.4976919e-10
7.829488e-13
1.502022e-10
-7.3575097e-13
1.4979517e-10
6.9162211e-13
1.5017796e-10
-6.50425e-13
1.4981782e-10
6.1194738e-13
1.5015684e-10
-5.7605586e-13
1.4983752e-10
5.4257799e-13
1.5013849e-10
-5.1138631e-13
1.4985462e-10
4.823413e-13
1.5012259e-10
-4.5532321e-13
1.498694e-10
4.3021915e-13
1.5010888e-10
-4.069189e-13
1.4988211e-10
3.853306e-13
1.5009713e-10
-3.6535508e-13
1.4989296e-10
3.4691694e-13
1.5008713e-10
-3.2992901e-13
1.4990214e-10
3.1432881e-13
1.5007873e-10
-3.0004152e-13
1.4990981e-10
2.8701514e-13
1.5007177e-10
-2.7518698e-13
1.4991609e-10
2.6451379e-13
1.5006614e-10
-2.549446e-13
1.499211e-10
2.4644372e-13
1.5006174e-10
-2.3897122e-13
1.4992491e-10
2.3249844e-13
1.500585e-10
-2.2699348e-13
1.4992758e-10
2.2244519e-13
1.5005636e-10
-2.1881854e-13
1.499294e-10
2.1576075e-13
1.5005772e-10
-2.17429e-13
2.0714486e-13
2.4293439e-10
3.5932675e-09
2.4726823e-10
-4.5432016e-12
2.4583523e-10
1.9741795e-12
2.4509519e-10
2.4398584e-12
2.4623133e-10
-3.1802602e-12
2.4526122e-10
2.8127158e-12
2.4625641e-10
-2.7944921e-12
2.4534189e-10
2.5861914e-12
2.4621023e-10
-2.4452402e-12
2.4539963e-10
2.2863093e-12
2.4616157e-10
-2.1474097e-12
2.4544763e-10
2.012896e-12
2.4611773e-10
-1.888928e-12
2.4548924e-10
1.7718722e-12
2.4607912e-10
-1.6628552e-12
2.455256e-10
1.5604636e-12
2.4604526e-10
-1.4649119e-12
2.4555742e-10
1.3753166e-12
2.4601562e-10
-1.2916845e-12
2.4558523e-10
1.2133448e-12
2.4598971e-10
-1.1402353e-12
2.4560952e-10
1.0718196e-12
2.4596709e-10
-1.0080027e-12
2.4563069e-10
9.4835052e-13
2.4594738e-10
-8.9275049e-13
2.4564911e-10
8.4085088e-13
2.4593026e-10
-7.9253019e-13
2.4566509e-10
7.4750368e-13
2.4591542e-10
-7.0564755e-13
2.4567891e-10
6.667312e-13
2.4590262e-10
-6.306339e-13
2.4569078e-10
5.9716832e-13
2.4589165e-10
-5.6622106e-13
2.4570093e-10
5.3763928e-13
2.4588232e-10
-5.1131989e-13
2.4570951e-10
4.8713772e-13
2.4587447e-10
-4.650018e-13
2.4571668e-10
4.4480947e-13
2.4586797e-10
-4.26483e-13
2.4572255e-10
4.0993812e-13
2.4586271e-10
-3.9511108e-13
2.4572722e-10
3.8193262e-13
2.4585861e-10
-3.7035339e-13
2.4573079e-10
3.6031684e-13
2.4585558e-10
-3.5178321e-13
2.4573329e-10
3.4473069e-13
2.4585356e-10
-3.3908789e-13
2.4573508e-10
3.3424694e-13
2.4585609e-10
-3.3844691e-13
3.1992664e-13
3.3409675e-10
4.6054208e-09
3.4108204e-10
-1.152849e-11
3.3892816e-10
4.1280545e-12
3.3837337e-10
2.9946444e-12
3.3943661e-10
-4.2434934e-12
3.3856926e-10
3.6800624e-12
3.3949859e-10
-3.7238198e-12
3.3865212e-10
3.4326613e-12
3.3946005e-10
-3.2531732e-12
3.3870736e-10
3.0390061e-12
3.3941551e-10
-2.8555627e-12
3.3875227e-10
2.6761305e-12
3.3937493e-10
-2.5115876e-12
3.3879103e-10
2.3557791e-12
3.3933912e-10
-2.2109445e-12
3.3882486e-10
2.0747213e-12
3.393077e-10
-1.9477485e-12
3.3885445e-10
1.8285673e-12
3.3928019e-10
-1.7174242e-12
3.3888031e-10
1.6132233e-12
3.3925613e-10
-1.5160588e-12
3.3890289e-10
1.4250623e-12
3.3923513e-10
-1.3402441e-12
3.3892257e-10
1.2609065e-12
3.3921683e-10
-1.1870067e-12
3.389397e-10
1.1179818e-12
3.3920092e-10
-1.0537555e-12
3.3895456e-10
9.9387281e-13
3.3918715e-10
-9.3823771e-13
3.3896739e-10
8.8648214e-13
3.3917526e-10
-8.3850054e-13
3.3897843e-10
7.9399487e-13
3.3916507e-10
-7.5285774e-13
3.3898786e-10
7.1484772e-13
3.391564e-10
-6.7986111e-13
3.3899584e-10
6.4770251e-13
3.3914911e-10
-6.182759e-13
3.390025e-10
5.9142334e-13
3.3914308e-10
-5.6705977e-13
3.3900796e-10
5.450572e-13
3.3913819e-10
-5.2534469e-13
3.3901231e-10
5.078174e-13
3.3913437e-10
-4.9242111e-13
3.3901562e-10
4.790688e-13
3.3913156e-10
-4.6771673e-13
3.3901795e-10
4.5833226e-13
3.3912966e-10
-4.5079167e-13
3.3901967e-10
4.4423243e-13
3.3913308e-10
-4.5185563e-13
4.2426899e-13
4.2279202e-10
5.5288788e-09
4.322217e-10
-2.0958169e-11
4.2953199e-10
6.8177623e-12
4.2913862e-10
3.3880137e-12
4.3012329e-10
-5.2281578e-12
4.2935747e-10
4.4458826e-12
4.3022017e-10
-4.586526e-12
4.2944164e-10
4.2111979e-12
4.3018875e-10
-4.0002886e-12
4.2949418e-10
3.7335786e-12
4.3014827e-10
-3.5096514e-12
4.2953596e-10
3.2884345e-12
4.3011095e-10
-3.0865748e-12
4.2957184e-10
2.8948951e-12
4.3007794e-10
-2.7170466e-12
4.2960312e-10
2.5495424e-12
4.3004896e-10
-2.3935927e-12
4.2963046e-10
2.2470656e-12
4.3002359e-10
-2.1105464e-12
4.2965436e-10
1.9824461e-12
4.3000139e-10
-1.8630901e-12
4.2967523e-10
1.7512283e-12
4.2998202e-10
-1.6470337e-12
4.2969342e-10
1.5495075e-12
4.2996513e-10
-1.4587225e-12
4.2970924e-10
1.3738755e-12
4.2995046e-10
-1.2949722e-12
4.2972296e-10
1.2213646e-12
4.2993774e-10
-1.1530142e-12
4.2973483e-10
1.0893976e-12
4.2992677e-10
-1.0304485e-12
4.2974502e-10
9.7574427e-13
4.2991737e-10
-9.2520284e-13
4.2975373e-10
8.7848364e-13
4.2990937e-10
-8.3549742e-13
4.297611e-10
7.9597101e-13
4.2990264e-10
-7.5981469e-13
4.2976725e-10
7.2681015e-13
4.2989707e-10
-6.9687339e-13
4.2977229e-10
6.6982932e-13
4.2989256e-10
-6.45606e-13
4.2977631e-10
6.240605e-13
4.2988903e-10
-6.0513861e-13
4.2977938e-10
5.8872021e-13
4.2988642e-10
-5.7476122e-13
4.2978154e-10
5.6321783e-13
4.2988464e-10
-5.5389758e-13
4.2978317e-10
5.457048e-13
4.2988873e-10
-5.5741682e-13
5.2011521e-13
5.089844e-10
6.3661444e-09
5.2068879e-10
-3.2662556e-11
5.1764546e-10
9.8610918e-12
5.1739341e-10
3.6400632e-12
5.1829136e-10
-6.1261068e-12
5.1762578e-10
5.1114588e-12
5.1842129e-10
-5.3820324e-12
5.1771036e-10
4.9221267e-12
5.1839645e-10
-4.6863777e-12
5.1776003e-10
4.3700005e-12
5.1835995e-10
-4.1095773e-12
5.1779863e-10
3.8497559e-12
5.1832588e-10
-3.613825e-12
5.178316e-10
3.3891732e-12
5.1829567e-10
-3.1811103e-12
5.1786032e-10
2.9848859e-12
5.1826913e-10
-2.8024015e-12
5.1788542e-10
2.6307754e-12
5.1824589e-10
-2.4710139e-12
5.1790736e-10
2.3209812e-12
5.1822556e-10
-2.1812969e-12
5.179265e-10
2.0502892e-12
5.1820781e-10
-1.9283431e-12
5.1794319e-10
1.8141289e-12
5.1819234e-10
-1.7078732e-12
5.1795771e-10
1.6085106e-12
5.1817889e-10
-1.5161588e-12
5.179703e-10
1.4299604e-12
5.1816724e-10
-1.3499584e-12
5.1798118e-10
1.2754614e-12
5.1815719e-10
-1.2064619e-12
5.1799053e-10
1.1424028e-12
5.1814857e-10
-1.0832429e-12
5.1799852e-10
1.0285354e-12
5.1814124e-10
-9.7821771e-13
5.1800528e-10
9.3193345e-13
5.1813507e-10
-8.896092e-13
5.1801092e-10
8.5096199e-13
5.1812996e-10
-8.1591685e-13
5.1801555e-10
7.8424839e-13
5.1812583e-10
-7.5588981e-13
5.1801923e-10
7.3065769e-13
5.181226e-10
-7.0850245e-13
5.1802205e-10
6.892687e-13
5.181202e-10
-6.7291503e-13
5.1802403e-10
6.5938662e-13
5.1811854e-10
-6.4840564e-13
5.1802556e-10
6.3868061e-13
5.181231e-10
-6.549493e-13
6.0740818e-13
5.9272734e-10
7.119667e-09
6.0649374e-10
-4.6428959e-11
6.0326616e-10
1.3088673e-11
6.0313811e-10
3.7681172e-12
6.0394091e-10
-6.9289102e-12
6.0337406e-10
5.6783106e-12
6.0410207e-10
-6.1100486e-12
6.0345815e-10
5.5660459e-12
6.0408326e-10
-5.3114786e-12
6.0350478e-10
4.9484775e-12
6.0405066e-10
-4.6554611e-12
6.0354017e-10
4.3602464e-12
6.0401981e-10
-4.0934652e-12
6.0357024e-10
3.8387449e-12
6.0399238e-10
-3.6032524e-12
6.035964e-10
3.3808677e-12
6.0396828e-10
-3.1742792e-12
6.0361926e-10
2.9797985e-12
6.0394716e-10
-2.7989188e-12
6.0363922e-10
2.628918e-12
6.0392869e-10
-2.4707608e-12
6.0365665e-10
2.3223239e-12
6.0391256e-10
-2.1842446e-12
6.0367184e-10
2.0548402e-12
6.0389849e-10
-1.9345229e-12
6.0368506e-10
1.8219488e-12
6.0388627e-10
-1.7173724e-12
6.0369651e-10
1.6197153e-12
6.0387568e-10
-1.5291213e-12
6.0370642e-10
1.444723e-12
6.0386654e-10
-1.3665865e-12
6.0371493e-10
1.2940149e-12
6.0385871e-10
-1.2270197e-12
6.037222e-10
1.1650432e-12
6.0385204e-10
-1.1080602e-12
6.0372835e-10
1.0556268e-12
6.0384643e-10
-1.0076948e-12
6.0373348e-10
9.6391313e-13
6.0384179e-10
-9.2422335e-13
6.0373769e-10
8.8834669e-13
6.0383803e-10
-8.5622768e-13
6.0374105e-10
8.2763998e-13
6.0383509e-10
-8.0254311e-13
6.0374361e-10
7.8074478e-13
6.038329e-10
-7.6220848e-13
6.0374542e-10
7.4686918e-13
6.0383136e-10
-7.3434768e-13
6.0374684e-10
7.2320404e-13
6.0383622e-10
-7.4432667e-13
6.8617645e-13
6.74082e-10
7.791835e-09
6.8965313e-10
-6.2000093e-11
6.8639069e-10
1.6351111e-11
6.863694e-10
3.7894045e-12
6.8707227e-10
-7.6317769e-12
6.8660208e-10
6.1485057e-12
6.8726266e-10
-6.7706318e-12
6.866849e-10
6.1438055e-12
6.8724928e-10
-5.8758598e-12
6.8672833e-10
5.4694293e-12
6.8722049e-10
-5.1476235e-12
6.867605e-10
4.8202415e-12
6.8719283e-10
-4.5257943e-12
6.8678767e-10
4.2439012e-12
6.8716816e-10
-3.9837393e-12
6.8681128e-10
3.7377431e-12
6.8714646e-10
-3.5094608e-12
6.868319e-10
3.2943593e-12
6.8712745e-10
-3.0944686e-12
6.8684992e-10
2.906454e-12
6.8711082e-10
-2.7316649e-12
6.8686564e-10
2.5675062e-12
6.870963e-10
-2.4149001e-12
6.8687934e-10
2.2717951e-12
6.8708363e-10
-2.1388149e-12
6.8689126e-10
2.0143263e-12
6.8707262e-10
-1.8987401e-12
6.8690159e-10
1.7907504e-12
6.8706308e-10
-1.6906162e-12
6.8691052e-10
1.5972904e-12
6.8705485e-10
-1.5109239e-12
6.8691819e-10
1.4306772e-12
6.870478e-10
-1.3566243e-12
6.8692474e-10
1.2880944e-12
6.8704179e-10
-1.2251074e-12
6.8693029e-10
1.1671301e-12
6.8703674e-10
-1.1141469e-12
6.8693492e-10
1.0657359e-12
6.8703256e-10
-1.0218623e-12
6.8693871e-10
9.8219123e-13
6.8702917e-10
-9.4668439e-13
6.8694174e-10
9.1507037e-13
6.8702652e-10
-8.8732192e-13
6.8694405e-10
8.6320873e-13
6.8702455e-10
-8.4270096e-13
6.8694569e-10
8.257244e-13
6.8702313e-10
-8.1178424e-13
6.8694699e-10
7.9934433e-13
6.8702813e-10
-8.2547108e-13
7.5651382e-13
7.5309625e-10
8.3849888e-09
7.7018679e-10
-7.9090633e-11
7.670145e-10
1.9523399e-11
7.6708058e-10
3.7233236e-12
7.6768611e-10
-8.2373003e-12
7.6730955e-10
6.5250598e-12
7.6790315e-10
-7.3642254e-12
7.6739048e-10
6.6564673e-12
7.6789462e-10
-6.3799965e-12
7.6743059e-10
5.9334641e-12
7.6786952e-10
-5.5865612e-12
7.6745953e-10
5.2302391e-12
7.67845e-10
-4.9112627e-12
7.6748382e-10
4.6050738e-12
7.6782305e-10
-4.3229692e-12
7.6750491e-10
4.0558903e-12
7.6780374e-10
-3.8082973e-12
7.6752331e-10
3.5747902e-12
7.6778682e-10
-3.3579725e-12
7.6753939e-10
3.1538819e-12
7.67772e-10
-2.9642819e-12
7.6755342e-10
2.7860945e-12
7.6775907e-10
-2.6205506e-12
7.6756564e-10
2.4652219e-12
7.6774779e-10
-2.3209626e-12
7.6757627e-10
2.1858451e-12
7.6773798e-10
-2.0604513e-12
7.6758549e-10
1.943245e-12
7.6772948e-10
-1.8346115e-12
7.6759345e-10
1.7333234e-12
7.6772215e-10
-1.6396243e-12
7.6760029e-10
1.5525329e-12
7.6771586e-10
-1.4721918e-12
7.6760614e-10
1.3978174e-12
7.6771051e-10
-1.3294811e-12
7.6761108e-10
1.2665597e-12
7.6770601e-10
-1.2090762e-12
7.6761521e-10
1.1565367e-12
7.6770228e-10
-1.1089356e-12
7.676186e-10
1.0658801e-12
7.6769927e-10
-1.0273545e-12
7.676213e-10
9.9304057e-13
7.676969e-10
-9.6292798e-13
7.6762336e-10
9.3674777e-13
7.6769514e-10
-9.144782e-13
7.6762483e-10
8.9603689e-13
7.6769384e-10
-8.8080183e-13
7.67626e-10
8.6719352e-13
7.6769887e-10
-8.9834819e-13
8.1855645e-13
8.2980873e-10
8.90143e-09
8.4811515e-10
-9.7397052e-11
8.4513221e-10
2.2506335e-11
8.4526484e-10
3.5906913e-12
8.457834e-10
-8.7558611e-12
8.4549622e-10
6.8122401e-12
8.460236e-10
-7.8916078e-12
8.455748e-10
7.1052675e-12
8.4601936e-10
-6.8245482e-12
8.4561146e-10
6.3413569e-12
8.4599783e-10
-5.9729286e-12
8.4563719e-10
5.5908829e-12
8.4597638e-10
-5.2504573e-12
8.4565864e-10
4.9228209e-12
8.4595713e-10
-4.6214593e-12
8.4567722e-10
4.3357988e-12
8.4594016e-10
-4.071244e-12
8.4569343e-10
3.8215218e-12
8.4592529e-10
-3.5898316e-12
8.4570759e-10
3.371581e-12
8.4591228e-10
-3.1689658e-12
8.4571995e-10
2.9784233e-12
8.4590091e-10
-2.8015087e-12
8.4573071e-10
2.6354161e-12
8.4589099e-10
-2.4812427e-12
8.4574007e-10
2.3367669e-12
8.4588237e-10
-2.2027515e-12
8.4574818e-10
2.0774315e-12
8.458749e-10
-1.9613259e-12
8.4575519e-10
1.8530287e-12
8.4586845e-10
-1.752883e-12
8.4576122e-10
1.6597668e-12
8.4586292e-10
-1.573897e-12
8.4576636e-10
1.4943786e-12
8.4585822e-10
-1.4213393e-12
8.4577071e-10
1.3540663e-12
8.4585426e-10
-1.2926262e-12
8.4577435e-10
1.2364529e-12
8.4585099e-10
-1.1855744e-12
8.4577733e-10
1.13954e-12
8.4584833e-10
-1.0983597e-12
8.457797e-10
1.0616686e-12
8.4584625e-10
-1.0294758e-12
8.4578153e-10
1.0014738e-12
8.458447e-10
-9.7765005e-13
8.4578282e-10
9.5791479e-13
8.4584353e-10
-9.4151056e-13
8.4578386e-10
9.2686486e-13
8.4584847e-10
-9.6296306e-13
8.7247275e-13
9.0425376e-10
9.3434263e-09
9.2345642e-10
-1.1659972e-10
9.2073805e-10
2.5224705e-11
9.2091852e-10
3.4102247e-12
9.2136528e-10
-9.2026283e-12
9.2116195e-10
7.0155761e-12
9.2162409e-10
-8.3537547e-12
9.2123777e-10
7.4915884e-12
9.2162356e-10
-7.2103335e-12
9.2127089e-10
6.6940304e-12
9.2160548e-10
-6.3075211e-12
9.2129341e-10
5.9029474e-12
9.2158705e-10
-5.5440884e-12
9.2131205e-10
5.1978166e-12
9.2157043e-10
-4.8798356e-12
9.2132817e-10
4.5780597e-12
9.2155577e-10
-4.2988518e-12
9.2134222e-10
4.0350742e-12
9.2154292e-10
-3.7905315e-12
9.2135449e-10
3.5600096e-12
9.2153167e-10
-3.3461449e-12
9.213652e-10
3.1448972e-12
9.2152184e-10
-2.9581529e-12
9.2137452e-10
2.7827351e-12
9.2151327e-10
-2.6199903e-12
9.2138263e-10
2.4674081e-12
9.2150582e-10
-2.325938e-12
9.2138966e-10
2.1935905e-12
9.2149936e-10
-2.0710236e-12
9.2139573e-10
1.9566565e-12
9.2149378e-10
-1.8509358e-12
9.2140095e-10
1.7526026e-12
9.21489e-10
-1.6619516e-12
9.214054e-10
1.5779792e-12
9.2148493e-10
-1.5008724e-12
9.2140917e-10
1.4298318e-12
9.2148151e-10
-1.3649699e-12
9.2141231e-10
1.3056503e-12
9.2147868e-10
-1.2519375e-12
9.2141489e-10
1.2033235e-12
9.2147638e-10
-1.1598469e-12
9.2141695e-10
1.1210969e-12
9.2147458e-10
-1.0871033e-12
9.2141853e-10
1.0575214e-12
9.2147323e-10
-1.0323485e-12
9.2141966e-10
1.011488e-12
9.2147219e-10
-9.9404215e-13
9.2142056e-10
9.7849139e-13
9.2147696e-10
-1.0193567e-12
9.1845826e-13
9.7646298e-10
9.7132133e-09
9.9622628e-10
-1.3636302e-10
9.9382624e-10
2.7624741e-11
9.9404142e-10
3.1950452e-12
9.9443273e-10
-9.5939307e-12
9.9430672e-10
7.1415849e-12
9.9470467e-10
-8.7517046e-12
9.9437932e-10
7.8169354e-12
9.947073e-10
-7.5383087e-12
9.9440879e-10
6.9925386e-12
9.9469253e-10
-6.5912604e-12
9.9442815e-10
6.1673258e-12
9.9467704e-10
-5.7929787e-12
9.9444402e-10
5.4308399e-12
9.94663e-10
-5.0988234e-12
9.9445771e-10
4.7833574e-12
9.9465061e-10
-4.4917595e-12
9.9446964e-10
4.2160496e-12
9.9463974e-10
-3.9606351e-12
9.9448005e-10
3.7196986e-12
9.9463022e-10
-3.4963157e-12
9.9448914e-10
3.2859844e-12
9.9462191e-10
-3.090922e-12
9.9449705e-10
2.9075928e-12
9.9461465e-10
-2.7375937e-12
9.9450393e-10
2.5781353e-12
9.9460834e-10
-2.4303553e-12
9.9450989e-10
2.2920474e-12
9.9460287e-10
-2.164011e-12
9.9451503e-10
2.0444965e-12
9.9459815e-10
-1.9340563e-12
9.9451946e-10
1.8312994e-12
9.9459411e-10
-1.7366006e-12
9.9452323e-10
1.6488519e-12
9.9459066e-10
-1.5683017e-12
9.9452643e-10
1.4940669e-12
9.9458777e-10
-1.426308e-12
9.945291e-10
1.3643211e-12
9.9458537e-10
-1.3082084e-12
9.9453128e-10
1.2574075e-12
9.9458342e-10
-1.2119862e-12
9.9453303e-10
1.1714899e-12
9.945819e-10
-1.1359701e-12
9.9453437e-10
1.1050461e-12
9.9458075e-10
-1.0787261e-12
9.9453533e-10
1.0569063e-12
9.9457984e-10
-1.0385479e-12
9.945361e-10
1.0222244e-12
9.9458435e-10
-1.0676026e-12
9.567315e-13
1.0464645e-09
1.0012999e-08
1.0664388e-09
-1.5633734e-10
1.064391e-09
2.9672551e-11
1.0646354e-09
2.9506793e-12
1.0649864e-09
-9.9449167e-12
1.0649306e-09
7.197381e-12
1.0652654e-09
-9.0864744e-12
1.0649994e-09
8.0829203e-12
1.0652706e-09
-7.8095519e-12
1.0650251e-09
7.2380546e-12
1.065259e-09
-6.8251822e-12
1.0650413e-09
6.385019e-12
1.0652464e-09
-5.9980527e-12
1.0650545e-09
5.622766e-12
1.0652349e-09
-5.2792385e-12
1.0650658e-09
4.9524609e-12
1.0652247e-09
-4.6506859e-12
1.0650756e-09
4.3651251e-12
1.0652158e-09
-4.1007758e-12
1.0650842e-09
3.8512449e-12
1.065208e-09
-3.6200372e-12
1.0650917e-09
3.4022117e-12
1.0652011e-09
-3.2003098e-12
1.0650983e-09
3.0104549e-12
1.0651952e-09
-2.8344901e-12
1.0651039e-09
2.6693607e-12
1.06519e-09
-2.516391e-12
1.0651088e-09
2.3731685e-12
1.0651855e-09
-2.2406332e-12
1.0651131e-09
2.1168749e-12
1.0651816e-09
-2.0025523e-12
1.0651167e-09
1.896149e-12
1.0651783e-09
-1.79812e-12
1.0651199e-09
1.707259e-12
1.0651754e-09
-1.6238757e-12
1.0651225e-09
1.5470087e-12
1.065173e-09
-1.4768662e-12
1.0651247e-09
1.4126813e-12
1.0651711e-09
-1.354594e-12
1.0651265e-09
1.3019908e-12
1.0651695e-09
-1.2549689e-12
1.0651279e-09
1.2130327e-12
1.0651682e-09
-1.1762555e-12
1.065129e-09
1.1442228e-12
1.0651673e-09
-1.1169538e-12
1.0651298e-09
1.0943379e-12
1.0651665e-09
-1.0751972e-12
1.0651305e-09
1.0582322e-12
1.0651707e-09
-1.1078042e-12
9.8752995e-13
1.11428e-09
1.0244969e-08
1.1341072e-09
-1.7616456e-10
1.1324274e-09
3.1352314e-11
1.1327028e-09
2.6753492e-12
1.1330266e-09
-1.026876e-11
1.1330337e-09
7.1903176e-12
1.1333062e-09
-9.3590231e-12
1.1330979e-09
8.2912498e-12
1.1333136e-09
-8.0252517e-12
1.1331198e-09
7.4318606e-12
1.133305e-09
-7.0104266e-12
1.1331329e-09
6.5571259e-12
1.1332952e-09
-6.1603281e-12
1.1331434e-09
5.7745571e-12
1.1332862e-09
-5.4219789e-12
1.1331524e-09
5.0862165e-12
1.1332781e-09
-4.7764223e-12
1.1331602e-09
4.4830462e-12
1.1332711e-09
-4.2116513e-12
1.133167e-09
3.9553053e-12
1.1332649e-09
-3.7179251e-12
1.133173e-09
3.4941591e-12
1.1332595e-09
-3.2868603e-12
1.1331781e-09
3.0918341e-12
1.1332548e-09
-2.9111608e-12
1.1331826e-09
2.7415386e-12
1.1332507e-09
-2.5844723e-12
1.1331865e-09
2.4373569e-12
1.1332472e-09
-2.3012698e-12
1.1331899e-09
2.1741507e-12
1.1332441e-09
-2.0567627e-12
1.1331928e-09
1.9474723e-12
1.1332415e-09
-1.8468139e-12
1.1331952e-09
1.7534891e-12
1.1332392e-09
-1.6678685e-12
1.1331973e-09
1.5889182e-12
1.1332373e-09
-1.5168932e-12
1.1331991e-09
1.450969e-12
1.1332358e-09
-1.3913219e-12
1.1332005e-09
1.3372923e-12
1.1332345e-09
-1.2890056e-12
1.1332016e-09
1.245929e-12
1.1332335e-09
-1.2081571e-12
1.1332025e-09
1.1752437e-12
1.1332328e-09
-1.1472199e-12
1.1332031e-09
1.1239678e-12
1.1332321e-09
-1.1041754e-12
1.1332037e-09
1.0866983e-12
1.1332359e-09
-1.1400918e-12
1.0111064e-12
1.1799187e-09
1.04113e-08
1.1992437e-09
-1.9548963e-10
1.1979361e-09
3.2659989e-11
1.1982454e-09
2.3660303e-12
1.1985535e-09
-1.0576902e-11
1.198616e-09
7.1277821e-12
1.1988273e-09
-9.5702616e-12
1.1986748e-09
8.4437213e-12
1.1988363e-09
-8.1867003e-12
1.1986928e-09
7.5753407e-12
1.1988306e-09
-7.1482291e-12
1.1987029e-09
6.6848354e-12
1.1988235e-09
-6.2809071e-12
1.1987108e-09
5.887255e-12
1.1988168e-09
-5.5280177e-12
1.1987175e-09
5.1855407e-12
1.1988109e-09
-4.8698265e-12
1.1987233e-09
4.5706198e-12
1.1988057e-09
-4.2940177e-12
1.1987284e-09
4.0325916e-12
1.1988011e-09
-3.7906465e-12
1.1987328e-09
3.5624548e-12
1.1987971e-09
-3.3511628e-12
1.1987367e-09
3.1522856e-12
1.1987936e-09
-2.9681276e-12
1.19874e-09
2.7951607e-12
1.1987906e-09
-2.6350619e-12
1.1987429e-09
2.4850494e-12
1.198788e-09
-2.3463325e-12
1.1987454e-09
2.2167132e-12
1.1987857e-09
-2.0970552e-12
1.1987476e-09
1.9856176e-12
1.1987837e-09
-1.8830116e-12
1.1987494e-09
1.7878551e-12
1.1987821e-09
-1.7005773e-12
1.1987509e-09
1.6200784e-12
1.1987807e-09
-1.5466589e-12
1.1987522e-09
1.4794419e-12
1.1987795e-09
-1.4186391e-12
1.1987533e-09
1.3635492e-12
1.1987786e-09
-1.3143248e-12
1.1987541e-09
1.2703996e-12
1.1987779e-09
-1.2318887e-12
1.1987548e-09
1.1983172e-12
1.1987773e-09
-1.1697282e-12
1.1987553e-09
1.145996e-12
1.1987768e-09
-1.1256826e-12
1.1987557e-09
1.1078205e-12
1.1987802e-09
-1.1646198e-12
1.0277255e-12
1.2433643e-09
1.0514186e-08
1.2618592e-09
-2.1398457e-10
1.2609347e-09
3.3584506e-11
1.2612637e-09
2.0370308e-12
1.2615666e-09
-1.0879779e-11
1.2616775e-09
7.0168567e-12
1.2618285e-09
-9.7212736e-12
1.2617301e-09
8.5421608e-12
1.2618387e-09
-8.2953109e-12
1.261744e-09
7.6699651e-12
1.2618357e-09
-7.2399155e-12
1.2617511e-09
6.7694181e-12
1.2618312e-09
-6.3609693e-12
1.2617565e-09
5.9619734e-12
1.2618269e-09
-5.598396e-12
1.261761e-09
5.2514134e-12
1.261823e-09
-4.9318157e-12
1.2617649e-09
4.6287092e-12
1.2618196e-09
-4.3486838e-12
1.2617683e-09
4.0838647e-12
1.2618166e-09
-3.8389152e-12
1.2617712e-09
3.6077703e-12
1.2618139e-09
-3.3938482e-12
1.2617738e-09
3.1924034e-12
1.2618116e-09
-3.0059487e-12
1.261776e-09
2.8307535e-12
1.2618096e-09
-2.6686549e-12
1.261778e-09
2.5167135e-12
1.2618079e-09
-2.3762617e-12
1.2617796e-09
2.2449788e-12
1.2618064e-09
-2.1238228e-12
1.2617811e-09
2.0109572e-12
1.2618051e-09
-1.9070657e-12
1.2617823e-09
1.8106917e-12
1.261804e-09
-1.7223197e-12
1.2617833e-09
1.6407921e-12
1.2618031e-09
-1.5664517e-12
1.2617842e-09
1.498376e-12
1.2618023e-09
-1.4368099e-12
1.2617849e-09
1.3810154e-12
1.2618017e-09
-1.331171e-12
1.2617854e-09
1.2866808e-12
1.2618012e-09
-1.2476794e-12
1.2617859e-09
1.2136663e-12
1.2618008e-09
-1.1846967e-12
1.2617862e-09
1.1606368e-12
1.2618005e-09
-1.1399326e-12
1.2617865e-09
1.1218093e-12
1.2618034e-09
-1.1815648e-12
1.0376613e-12
1.3045459e-09
1.055589e-08
1.3219512e-09
-2.3138987e-10
1.3214886e-09
3.4047067e-11
1.3217658e-09
1.7598779e-12
1.3220655e-09
-1.1179539e-11
1.3222177e-09
6.8646984e-12
1.3223097e-09
-9.8132927e-12
1.3222635e-09
8.5883782e-12
1.3223208e-09
-8.3526404e-12
1.3222735e-09
7.7172682e-12
1.3223205e-09
-7.2869011e-12
1.3222777e-09
6.8122149e-12
1.3223185e-09
-6.4017659e-12
1.3222806e-09
5.9998909e-12
1.3223164e-09
-5.6342162e-12
1.3222829e-09
5.2848719e-12
1.3223145e-09
-4.9633616e-12
1.322285e-09
4.658228e-12
1.3223128e-09
-4.3765062e-12
1.3222867e-09
4.1099302e-12
1.3223113e-09
-3.8634869e-12
1.3222882e-09
3.6308171e-12
1.32231e-09
-3.4155843e-12
1.3222896e-09
3.2128165e-12
1.3223088e-09
-3.0252152e-12
1.3222907e-09
2.8488739e-12
1.3223078e-09
-2.6857757e-12
1.3222917e-09
2.5328439e-12
1.322307e-09
-2.391524e-12
1.3222926e-09
2.2593882e-12
1.3223062e-09
-2.1374819e-12
1.3222933e-09
2.0238856e-12
1.3223056e-09
-1.9193497e-12
1.3222939e-09
1.8223535e-12
1.322305e-09
-1.7334328e-12
1.3222944e-09
1.65138e-12
1.3223046e-09
-1.5765775e-12
1.3222949e-09
1.5080639e-12
1.3223042e-09
-1.4461142e-12
1.3222952e-09
1.38996e-12
1.3223039e-09
-1.3398031e-12
1.3222955e-09
1.2950229e-12
1.3223036e-09
-1.2557718e-12
1.3222957e-09
1.2215272e-12
1.3223034e-09
-1.1923561e-12
1.3222959e-09
1.1681168e-12
1.3223031e-09
-1.147151e-12
1.3222961e-09
1.1288867e-12
1.3223056e-09
-1.1911235e-12
1.0411946e-12
1.3633706e-09
1.0538769e-08
1.3795048e-09
-2.4752403e-10
1.3796826e-09
3.3869257e-11
1.3797761e-09
1.6664001e-12
1.3800539e-09
-1.1457315e-11
1.3802381e-09
6.6804607e-12
1.3802713e-09
-9.8465411e-12
1.3802752e-09
8.5845306e-12
1.3802828e-09
-8.3602207e-12
1.3802811e-09
7.7189002e-12
1.3802849e-09
-7.2906589e-12
1.3802825e-09
6.8146403e-12
1.3802853e-09
-6.4046089e-12
1.380283e-09
6.0022455e-12
1.3802854e-09
-5.6366362e-12
1.3802833e-09
5.2870049e-12
1.3802854e-09
-4.9654843e-12
1.3802835e-09
4.6601354e-12
1.3802853e-09
-4.3783842e-12
1.3802836e-09
4.111634e-12
1.3802853e-09
-3.8651556e-12
1.3802838e-09
3.6323419e-12
1.3802853e-09
-3.4170726e-12
1.3802839e-09
3.2141852e-12
1.3802852e-09
-3.0265481e-12
1.380284e-09
2.8501072e-12
1.3802852e-09
-2.6869752e-12
1.3802841e-09
2.5339605e-12
1.3802852e-09
-2.3926094e-12
1.3802842e-09
2.2604048e-12
1.3802851e-09
-2.1384702e-12
1.3802842e-09
2.024817e-12
1.3802851e-09
-1.9202559e-12
1.3802843e-09
1.823213e-12
1.3802851e-09
-1.7342702e-12
1.3802843e-09
1.6521793e-12
1.3802851e-09
-1.5773576e-12
1.3802843e-09
1.5088126e-12
1.3802851e-09
-1.4468464e-12
1.3802844e-09
1.3906656e-12
1.380285e-09
-1.3404936e-12
1.3802844e-09
1.2956889e-12
1.380285e-09
-1.2564211e-12
1.3802844e-09
1.2221481e-12
1.380285e-09
-1.192949e-12
1.3802844e-09
1.1686741e-12
1.3802849e-09
-1.1475744e-12
1.3802845e-09
1.1292855e-12
1.3802869e-09
-1.1935101e-12
1.0386106e-12
1.4199184e-09
1.0465101e-08
1.434557e-09
-2.621626e-10
1.435442e-09
3.2984283e-11
1.4352852e-09
1.8232257e-12
1.4355279e-09
-1.1700056e-11
1.4357378e-09
6.4705691e-12
1.4357132e-09
-9.821943e-12
1.4357651e-09
8.5326471e-12
1.4357246e-09
-8.3197296e-12
1.4357669e-09
7.6765562e-12
1.435729e-09
-7.2527358e-12
1.4357655e-09
6.778165e-12
1.4357317e-09
-6.3708684e-12
1.4357637e-09
5.9703273e-12
1.4357339e-09
-5.6068632e-12
1.4357619e-09
5.2589476e-12
1.4357357e-09
-4.9392476e-12
1.4357604e-09
4.6354314e-12
1.4357373e-09
-4.3552559e-12
1.4357591e-09
4.089858e-12
1.4357387e-09
-3.8447489e-12
1.4357579e-09
3.6131234e-12
1.4357398e-09
-3.3990445e-12
1.4357568e-09
3.1971981e-12
1.4357409e-09
-3.010595e-12
1.4357559e-09
2.8350635e-12
1.4357418e-09
-2.6728279e-12
1.4357551e-09
2.5206052e-12
1.4357425e-09
-2.380029e-12
1.4357544e-09
2.2485114e-12
1.4357432e-09
-2.127244e-12
1.4357538e-09
2.0141837e-12
1.4357438e-09
-1.9101938e-12
1.4357533e-09
1.8136589e-12
1.4357443e-09
-1.7252014e-12
1.4357529e-09
1.6435414e-12
1.4357447e-09
-1.5691275e-12
1.4357525e-09
1.5009429e-12
1.435745e-09
-1.4393136e-12
1.4357523e-09
1.3834275e-12
1.4357453e-09
-1.3335266e-12
1.435752e-09
1.2889537e-12
1.4357455e-09
-1.2498933e-12
1.4357519e-09
1.2157882e-12
1.4357456e-09
-1.1867284e-12
1.4357518e-09
1.1625572e-12
1.4357456e-09
-1.1414492e-12
1.4357517e-09
1.1232475e-12
1.4357471e-09
-1.1889551e-12
1.0301977e-12
1.4743274e-09
1.0337024e-08
1.4871473e-09
-2.7498252e-10
1.4886231e-09
3.150852e-11
1.4882749e-09
2.1713798e-12
1.4884828e-09
-1.1907898e-11
1.4887154e-09
6.2379782e-12
1.4886349e-09
-9.7414581e-12
1.4887329e-09
8.4345891e-12
1.4886462e-09
-8.232997e-12
1.4887308e-09
7.5919672e-12
1.4886528e-09
-7.1747468e-12
1.4887267e-09
6.7043102e-12
1.4886578e-09
-6.3019663e-12
1.4887226e-09
5.9054731e-12
1.4886619e-09
-5.5461496e-12
1.488719e-09
5.2018765e-12
1.4886655e-09
-4.8857549e-12
1.4887158e-09
4.5851525e-12
1.4886686e-09
-4.3080939e-12
1.4887129e-09
4.0455164e-12
1.4886713e-09
-3.8031254e-12
1.4887105e-09
3.5739688e-12
1.4886737e-09
-3.3622587e-12
1.4887083e-09
3.1625692e-12
1.4886757e-09
-2.9780273e-12
1.4887064e-09
2.8043755e-12
1.4886775e-09
-2.6439296e-12
1.4887048e-09
2.49334e-12
1.4886791e-09
-2.354313e-12
1.4887034e-09
2.224209e-12
1.4886804e-09
-2.1042767e-12
1.4887022e-09
1.9924338e-12
1.4886816e-09
-1.8895879e-12
1.4887011e-09
1.7940943e-12
1.4886825e-09
-1.7066093e-12
1.4887002e-09
1.6258313e-12
1.4886834e-09
-1.5522351e-12
1.4886995e-09
1.4847874e-12
1.488684e-09
-1.4238347e-12
1.4886989e-09
1.3685518e-12
1.4886846e-09
-1.3191971e-12
1.4886984e-09
1.2751022e-12
1.488685e-09
-1.2364648e-12
1.4886981e-09
1.2027163e-12
1.4886853e-09
-1.173957e-12
1.4886978e-09
1.1500238e-12
1.4886854e-09
-1.1290307e-12
1.4886976e-09
1.1110235e-12
1.4886864e-09
-1.1777031e-12
1.0162456e-12
1.5265922e-09
1.0156681e-08
1.537268e-09
-2.8565825e-10
1.5392027e-09
2.9573844e-11
1.5387611e-09
2.6128982e-12
1.5389199e-09
-1.2066689e-11
1.5391718e-09
5.9860872e-12
1.5390368e-09
-9.60643e-12
1.5391789e-09
8.2924716e-12
1.5390477e-09
-8.1018277e-12
1.5391728e-09
7.4669498e-12
1.5390564e-09
-7.0583451e-12
1.539166e-09
6.5946496e-12
1.5390634e-09
-6.1993677e-12
1.5391598e-09
5.8090625e-12
1.5390695e-09
-5.4557868e-12
1.5391543e-09
5.1170053e-12
1.5390747e-09
-4.806144e-12
1.5391495e-09
4.510368e-12
1.5390793e-09
-4.2379016e-12
1.5391453e-09
3.9795522e-12
1.5390833e-09
-3.7411705e-12
1.5391416e-09
3.5157111e-12
1.5390868e-09
-3.3074979e-12
1.5391384e-09
3.111035e-12
1.5390899e-09
-2.9295381e-12
1.5391355e-09
2.7586959e-12
1.5390925e-09
-2.6008952e-12
1.5391331e-09
2.452745e-12
1.5390948e-09
-2.3160085e-12
1.539131e-09
2.1880145e-12
1.5390968e-09
-2.070057e-12
1.5391292e-09
1.96003e-12
1.5390985e-09
-1.8588768e-12
1.5391276e-09
1.7649353e-12
1.5390999e-09
-1.6788895e-12
1.5391263e-09
1.5994256e-12
1.5391011e-09
-1.5270398e-12
1.5391252e-09
1.4606897e-12