/*--------------------------------*- C++ -*----------------------------------*\
| =========                 |                                                 |
| \\      /  F ield         | OpenFOAM: The Open Source CFD Toolbox           |
|  \\    /   O peration     | Version:  2312                                  |
|   \\  /    A nd           | Website:  www.openfoam.com                      |
|    \\/     M anipulation  |                                                 |
\*---------------------------------------------------------------------------*/
FoamFile
{
    version     2.0;
    format      ascii;
    arch        "LSB;label=32;scalar=64";
    class       volSymmTensorField;
    location    "4";
    object      sigma;
}
// * * * * * * * * * * * * * * * * * * * * * * * * * * * * * * * * * * * * * //

dimensions      [0 2 -2 0 0 0 0];

internalField   nonuniform List<symmTensor> 
4000
(
(-0.39088354 -0.20772363 0 -0.070834007 0 0)
(-0.6680602 -0.1491518 0 -3.014357e-05 0 0)
(-0.5937882 -0.14066599 0 3.536577e-06 0 0)
(-0.63280015 -0.14530241 0 -2.9516151e-05 0 0)
(-0.60115588 -0.1414844 0 3.2041448e-05 0 0)
(-0.63087405 -0.14508279 0 -2.9361837e-05 0 0)
(-0.60378265 -0.14180204 0 2.8161429e-05 0 0)
(-0.62925843 -0.14488933 0 -2.6267384e-05 0 0)
(-0.60546789 -0.1420077 0 2.4708587e-05 0 0)
(-0.6277668 -0.14471022 0 -2.315092e-05 0 0)
(-0.60688107 -0.14218027 0 2.1718252e-05 0 0)
(-0.62643655 -0.14455037 0 -2.0372648e-05 0 0)
(-0.60811628 -0.14233096 0 1.9107712e-05 0 0)
(-0.62526376 -0.14440934 0 -1.7931286e-05 0 0)
(-0.60920278 -0.14246338 0 1.6821771e-05 0 0)
(-0.62423179 -0.14428515 0 -1.5791321e-05 0 0)
(-0.61015991 -0.14257991 0 1.4819808e-05 0 0)
(-0.62332353 -0.14417578 0 -1.3917516e-05 0 0)
(-0.61100375 -0.14268256 0 1.3067704e-05 0 0)
(-0.62252351 -0.1440794 0 -1.2278363e-05 0 0)
(-0.61174835 -0.14277306 0 1.1535819e-05 0 0)
(-0.62181807 -0.14399438 0 -1.0846178e-05 0 0)
(-0.61240609 -0.14285294 0 1.019827e-05 0 0)
(-0.62119516 -0.1439193 0 -9.5967498e-06 0 0)
(-0.61298793 -0.14292353 0 9.03246e-06 0 0)
(-0.62064417 -0.14385289 0 -8.508957e-06 0 0)
(-0.61350358 -0.14298603 0 8.0186981e-06 0 0)
(-0.62015573 -0.14379402 0 -7.5644112e-06 0 0)
(-0.61396165 -0.1430415 0 7.1398607e-06 0 0)
(-0.61972153 -0.14374172 0 -6.7471485e-06 0 0)
(-0.61436979 -0.14309087 0 6.3811045e-06 0 0)
(-0.61933422 -0.14369508 0 -6.0433596e-06 0 0)
(-0.61473482 -0.14313496 0 5.7296165e-06 0 0)
(-0.61898725 -0.14365334 0 -5.4411567e-06 0 0)
(-0.61506286 -0.14317453 0 5.1743997e-06 0 0)
(-0.61867473 -0.14361578 0 -4.930375e-06 0 0)
(-0.61535939 -0.14321024 0 4.7060925e-06 0 0)
(-0.61839139 -0.14358178 0 -4.5024068e-06 0 0)
(-0.61562937 -0.14324268 0 4.3168192e-06 0 0)
(-0.61813246 -0.14355076 0 -4.1500688e-06 0 0)
(-0.61587733 -0.1432724 0 4.0000759e-06 0 0)
(-0.61789356 -0.1435222 0 -3.8675116e-06 0 0)
(-0.61610742 -0.14329991 0 3.7506687e-06 0 0)
(-0.61767066 -0.14349563 0 -3.6502035e-06 0 0)
(-0.61632351 -0.14332566 0 3.5647536e-06 0 0)
(-0.61745998 -0.14347059 0 -3.4951547e-06 0 0)
(-0.6165292 -0.14335008 0 3.4405925e-06 0 0)
(-0.61725809 -0.14344667 0 -3.3983263e-06 0 0)
(-0.61673241 -0.14337403 0 3.4089037e-06 0 0)
(-0.61709853 -0.1434278 0 -3.3557976e-06 0 0)
(-0.35586651 -0.19390625 0 -0.066203421 0 0)
(-0.60580444 -0.1421233 0 -0.00023973175 0 0)
(-0.55252469 -0.1357272 0 -3.3810317e-05 0 0)
(-0.5856148 -0.13981202 0 -2.8719916e-05 0 0)
(-0.55775308 -0.13623734 0 3.6400976e-05 0 0)
(-0.58395525 -0.13961964 0 -3.180723e-05 0 0)
(-0.560072 -0.13653511 0 3.1782709e-05 0 0)
(-0.58255367 -0.13944186 0 -2.9326403e-05 0 0)
(-0.56156151 -0.13672893 0 2.7750828e-05 0 0)
(-0.58123903 -0.1392736 0 -2.5942069e-05 0 0)
(-0.56280834 -0.13689146 0 2.4362437e-05 0 0)
(-0.58006434 -0.13912309 0 -2.284192e-05 0 0)
(-0.56389763 -0.13703334 0 2.1429014e-05 0 0)
(-0.5790285 -0.13899026 0 -2.0107e-05 0 0)
(-0.56485575 -0.13715799 0 1.8864691e-05 0 0)
(-0.57811702 -0.13887329 0 -1.7708052e-05 0 0)
(-0.56569984 -0.1372677 0 1.6619714e-05 0 0)
(-0.5773148 -0.13877027 0 -1.5607231e-05 0 0)
(-0.56644408 -0.13736434 0 1.4655103e-05 0 0)
(-0.57660818 -0.13867949 0 -1.3769481e-05 0 0)
(-0.56710085 -0.13744954 0 1.2937495e-05 0 0)
(-0.57598506 -0.13859941 0 -1.2163808e-05 0 0)
(-0.56768108 -0.13752474 0 1.1437842e-05 0 0)
(-0.57543482 -0.13852869 0 -1.076308e-05 0 0)
(-0.56819443 -0.13759121 0 1.0130806e-05 0 0)
(-0.57494807 -0.13846612 0 -9.5436195e-06 0 0)
(-0.56864946 -0.13765007 0 8.9943115e-06 0 0)
(-0.57451652 -0.13841067 0 -8.4848197e-06 0 0)
(-0.56905375 -0.13770231 0 8.0091647e-06 0 0)
(-0.57413284 -0.13836138 0 -7.5687929e-06 0 0)
(-0.56941406 -0.13774881 0 7.1587333e-06 0 0)
(-0.57379053 -0.13831743 0 -6.7800711e-06 0 0)
(-0.5697364 -0.13779035 0 6.4286659e-06 0 0)
(-0.5734838 -0.13827809 0 -6.1053473e-06 0 0)
(-0.57002617 -0.13782764 0 5.8066566e-06 0 0)
(-0.57320744 -0.13824268 0 -5.5332569e-06 0 0)
(-0.57028822 -0.13786129 0 5.2822486e-06 0 0)
(-0.57295679 -0.13821062 0 -5.0541994e-06 0 0)
(-0.57052693 -0.13789187 0 4.8466781e-06 0 0)
(-0.57272763 -0.13818137 0 -4.6602088e-06 0 0)
(-0.57074629 -0.1379199 0 4.4927725e-06 0 0)
(-0.57251608 -0.13815443 0 -4.344892e-06 0 0)
(-0.57095 -0.13794585 0 4.2149455e-06 0 0)
(-0.57231856 -0.13812934 0 -4.1035234e-06 0 0)
(-0.57114148 -0.13797016 0 4.0094102e-06 0 0)
(-0.57213172 -0.1381057 0 -3.933761e-06 0 0)
(-0.57132393 -0.13799322 0 3.8758958e-06 0 0)
(-0.57195221 -0.13808306 0 -3.8300947e-06 0 0)
(-0.57150282 -0.13801552 0 3.9009772e-06 0 0)
(-0.57180188 -0.13806413 0 -3.7350843e-06 0 0)
(-0.33415802 -0.18409639 0 -0.061743551 0 0)
(-0.56596649 -0.13700405 0 -0.00012866882 0 0)
(-0.52480441 -0.13229884 0 -5.457387e-05 0 0)
(-0.55507799 -0.13615053 0 -2.7232173e-05 0 0)
(-0.52961664 -0.13272559 0 3.6656245e-05 0 0)
(-0.55358761 -0.13596697 0 -3.0737033e-05 0 0)
(-0.53174398 -0.1330107 0 3.1798721e-05 0 0)
(-0.55231431 -0.1357986 0 -2.9055106e-05 0 0)
(-0.53310888 -0.1331968 0 2.7626605e-05 0 0)
(-0.55111261 -0.13563746 0 -2.5777843e-05 0 0)
(-0.53424987 -0.13335277 0 2.422692e-05 0 0)
(-0.55003781 -0.13549314 0 -2.2707813e-05 0 0)
(-0.53524644 -0.13348888 0 2.130552e-05 0 0)
(-0.54908998 -0.13536576 0 -1.9990633e-05 0 0)
(-0.53612302 -0.13360847 0 1.8755348e-05 0 0)
(-0.54825598 -0.13525359 0 -1.760587e-05 0 0)
(-0.53689532 -0.13371372 0 1.6523381e-05 0 0)
(-0.54752199 -0.1351548 0 -1.551727e-05 0 0)
(-0.53757632 -0.13380644 0 1.4570267e-05 0 0)
(-0.54687547 -0.13506774 0 -1.3690197e-05 0 0)
(-0.53817734 -0.13388818 0 1.2862735e-05 0 0)
(-0.54630536 -0.13499094 0 -1.2093866e-05 0 0)
(-0.53870836 -0.13396034 0 1.137189e-05 0 0)
(-0.54580192 -0.13492311 0 -1.0701307e-05 0 0)
(-0.53917821 -0.13402412 0 1.0072545e-05 0 0)
(-0.54535655 -0.13486309 0 -9.4889812e-06 0 0)
(-0.53959471 -0.13408061 0 8.9427562e-06 0 0)
(-0.54496168 -0.1348099 0 -8.4364055e-06 0 0)
(-0.53996481 -0.13413074 0 7.963452e-06 0 0)
(-0.54461059 -0.13476261 0 -7.5258025e-06 0 0)
(-0.54029468 -0.13417538 0 7.1181061e-06 0 0)
(-0.54429733 -0.13472044 0 -6.7418047e-06 0 0)
(-0.54058983 -0.13421526 0 6.3924651e-06 0 0)
(-0.54401658 -0.13468269 0 -6.0711997e-06 0 0)
(-0.5408552 -0.13425105 0 5.7743176e-06 0 0)
(-0.5437636 -0.1346487 0 -5.5027167e-06 0 0)
(-0.54109522 -0.13428337 0 5.2533056e-06 0 0)
(-0.54353412 -0.13461792 0 -5.0268593e-06 0 0)
(-0.5413139 -0.13431275 0 4.8207826e-06 0 0)
(-0.54332424 -0.13458982 0 -4.6357948e-06 0 0)
(-0.54151491 -0.13433968 0 4.4697403e-06 0 0)
(-0.54313044 -0.13456394 0 -4.323338e-06 0 0)
(-0.54170163 -0.13436463 0 4.194874e-06 0 0)
(-0.54294943 -0.13453983 0 -4.0851662e-06 0 0)
(-0.5418772 -0.134388 0 3.9929907e-06 0 0)
(-0.54277811 -0.1345171 0 -3.9200263e-06 0 0)
(-0.54204458 -0.13441019 0 3.8654851e-06 0 0)
(-0.54261332 -0.13449531 0 -3.8241042e-06 0 0)
(-0.54220842 -0.13443151 0 3.9362688e-06 0 0)
(-0.54247112 -0.13447676 0 -3.8327149e-06 0 0)
(-0.31945058 -0.17554553 0 -0.056858554 0 0)
(-0.52974231 -0.13232362 0 -6.9526701e-05 0 0)
(-0.49756413 -0.12884975 0 -7.9318939e-05 0 0)
(-0.52541979 -0.13249068 0 -2.2732099e-05 0 0)
(-0.5021178 -0.12921358 0 3.3389482e-05 0 0)
(-0.52412068 -0.13231541 0 -2.641387e-05 0 0)
(-0.50407817 -0.12948612 0 2.8858725e-05 0 0)
(-0.52296076 -0.13215639 0 -2.5975385e-05 0 0)
(-0.50533203 -0.12966457 0 2.4883208e-05 0 0)
(-0.52185821 -0.13200224 0 -2.3149821e-05 0 0)
(-0.50637892 -0.129814 0 2.1784723e-05 0 0)
(-0.52087104 -0.13186402 0 -2.0407237e-05 0 0)
(-0.50729306 -0.12994437 0 1.9151832e-05 0 0)
(-0.52000043 -0.13174199 0 -1.7967742e-05 0 0)
(-0.50809713 -0.1300589 0 1.6858515e-05 0 0)
(-0.51923441 -0.13163453 0 -1.5824798e-05 0 0)
(-0.5088056 -0.13015971 0 1.4852217e-05 0 0)
(-0.51856027 -0.13153988 0 -1.3947687e-05 0 0)
(-0.50943035 -0.13024851 0 1.3096738e-05 0 0)
(-0.51796651 -0.13145647 0 -1.2305578e-05 0 0)
(-0.50998176 -0.13032681 0 1.1562025e-05 0 0)
(-0.51744294 -0.13138289 0 -1.0870854e-05 0 0)
(-0.51046898 -0.13039593 0 1.0222085e-05 0 0)
(-0.51698061 -0.1313179 0 -9.6192816e-06 0 0)
(-0.5109001 -0.13045704 0 9.054277e-06 0 0)
(-0.51657163 -0.13126039 0 -8.529714e-06 0 0)
(-0.5112823 -0.13051115 0 8.0388841e-06 0 0)
(-0.51620902 -0.13120941 0 -7.583745e-06 0 0)
(-0.51162192 -0.13055919 0 7.1587694e-06 0 0)
(-0.51588663 -0.13116409 0 -6.7654041e-06 0 0)
(-0.51192466 -0.13060197 0 6.3990866e-06 0 0)
(-0.51559896 -0.13112367 0 -6.0608898e-06 0 0)
(-0.51219554 -0.13064019 0 5.7470363e-06 0 0)
(-0.51534116 -0.13108747 0 -5.4583426e-06 0 0)
(-0.5124391 -0.13067451 0 5.1916619e-06 0 0)
(-0.51510886 -0.13105488 0 -4.9476577e-06 0 0)
(-0.51265941 -0.1307055 0 4.7236858e-06 0 0)
(-0.51489812 -0.13102535 0 -4.5203412e-06 0 0)
(-0.51286015 -0.13073368 0 4.3353933e-06 0 0)
(-0.51470539 -0.13099839 0 -4.1694282e-06 0 0)
(-0.51304468 -0.13075953 0 4.0205902e-06 0 0)
(-0.51452742 -0.13097354 0 -3.8895052e-06 0 0)
(-0.51321611 -0.13078348 0 3.7747213e-06 0 0)
(-0.51436118 -0.13095038 0 -3.6770074e-06 0 0)
(-0.51337733 -0.13080594 0 3.5953921e-06 0 0)
(-0.51420382 -0.13092853 0 -3.5317586e-06 0 0)
(-0.51353107 -0.13082726 0 3.4852596e-06 0 0)
(-0.51405234 -0.13090757 0 -3.4501662e-06 0 0)
(-0.5136812 -0.13084764 0 3.6046135e-06 0 0)
(-0.51391745 -0.13088935 0 -3.5399352e-06 0 0)
(-0.30596374 -0.16734816 0 -0.05217001 0 0)
(-0.49474364 -0.1276844 0 3.0444281e-06 0 0)
(-0.47073661 -0.12535158 0 -9.5995262e-05 0 0)
(-0.49657204 -0.1288331 0 -1.9110745e-05 0 0)
(-0.47526994 -0.12569725 0 2.9570054e-05 0 0)
(-0.49551409 -0.12866733 0 -2.1967186e-05 0 0)
(-0.47709537 -0.12595835 0 2.5684305e-05 0 0)
(-0.49445797 -0.12851696 0 -2.2694599e-05 0 0)
(-0.47824946 -0.12612952 0 2.1936977e-05 0 0)
(-0.49344482 -0.12836944 0 -2.033554e-05 0 0)
(-0.47921169 -0.12627275 0 1.9166209e-05 0 0)
(-0.49253675 -0.128237 0 -1.7941703e-05 0 0)
(-0.48005168 -0.12639767 0 1.6843429e-05 0 0)
(-0.49173585 -0.12812007 0 -1.5799511e-05 0 0)
(-0.48079054 -0.12650742 0 1.4825501e-05 0 0)
(-0.49103121 -0.1280171 0 -1.3915691e-05 0 0)
(-0.48144159 -0.12660401 0 1.3061026e-05 0 0)
(-0.49041112 -0.1279264 0 -1.2265221e-05 0 0)
(-0.48201574 -0.1266891 0 1.1517299e-05 0 0)
(-0.489865 -0.12784647 0 -1.0821321e-05 0 0)
(-0.48252253 -0.12676414 0 1.016774e-05 0 0)
(-0.48938346 -0.12777595 0 -9.5597614e-06 0 0)
(-0.48297033 -0.12683038 0 8.9894669e-06 0 0)
(-0.48895827 -0.12771366 0 -8.4592494e-06 0 0)
(-0.48336659 -0.12688894 0 7.9625682e-06 0 0)
(-0.48858215 -0.12765855 0 -7.5011947e-06 0 0)
(-0.48371789 -0.1269408 0 7.0697083e-06 0 0)
(-0.4882487 -0.12760968 0 -6.6694176e-06 0 0)
(-0.48403007 -0.12698685 0 6.2958212e-06 0 0)
(-0.48795224 -0.12756624 0 -5.9498806e-06 0 0)
(-0.48430834 -0.12702786 0 5.6278567e-06 0 0)
(-0.48768773 -0.12752748 0 -5.3304555e-06 0 0)
(-0.48455734 -0.12706451 0 5.054567e-06 0 0)
(-0.48745069 -0.12749277 0 -4.8007259e-06 0 0)
(-0.48478122 -0.12709742 0 4.56633e-06 0 0)
(-0.48723711 -0.12746151 0 -4.3518245e-06 0 0)
(-0.48498372 -0.12712714 0 4.1550106e-06 0 0)
(-0.48704336 -0.12743319 0 -3.9763128e-06 0 0)
(-0.48516823 -0.12715418 0 3.8138657e-06 0 0)
(-0.48686619 -0.12740731 0 -3.6681207e-06 0 0)
(-0.48533784 -0.12717899 0 3.5375244e-06 0 0)
(-0.48670259 -0.12738346 0 -3.4225938e-06 0 0)
(-0.48549539 -0.12720198 0 3.322135e-06 0 0)
(-0.4865498 -0.12736123 0 -3.2368278e-06 0 0)
(-0.48564355 -0.12722355 0 3.1659256e-06 0 0)
(-0.48640517 -0.12734024 0 -3.1113827e-06 0 0)
(-0.48578485 -0.12724404 0 3.0721313e-06 0 0)
(-0.4862659 -0.12732008 0 -3.0422558e-06 0 0)
(-0.48592254 -0.12726355 0 3.2269432e-06 0 0)
(-0.4861385 -0.12730225 0 -3.2024949e-06 0 0)
(-0.29287796 -0.15938669 0 -0.047708302 0 0)
(-0.46143741 -0.12313664 0 8.9700952e-05 0 0)
(-0.4444706 -0.12181934 0 -0.0001039321 0 0)
(-0.4685373 -0.12517577 0 -1.6333608e-05 0 0)
(-0.44910017 -0.12217768 0 2.5919121e-05 0 0)
(-0.46774372 -0.12502168 0 -1.8082246e-05 0 0)
(-0.45081812 -0.12242839 0 2.292059e-05 0 0)
(-0.46678651 -0.12487961 0 -1.9821032e-05 0 0)
(-0.45188153 -0.12259258 0 1.9359293e-05 0 0)
(-0.46585564 -0.12473845 0 -1.7870908e-05 0 0)
(-0.45276615 -0.12272983 0 1.6874099e-05 0 0)
(-0.46502021 -0.12461158 0 -1.5782851e-05 0 0)
(-0.45353813 -0.1228495 0 1.4822699e-05 0 0)
(-0.46428333 -0.12449955 0 -1.3901082e-05 0 0)
(-0.45421718 -0.12295464 0 1.3045817e-05 0 0)
(-0.46363503 -0.12440089 0 -1.2244164e-05 0 0)
(-0.45481556 -0.12304718 0 1.1493e-05 0 0)
(-0.46306457 -0.124314 0 -1.0792124e-05 0 0)
(-0.45534329 -0.1231287 0 1.0134606e-05 0 0)
(-0.46256217 -0.12423741 0 -9.5217485e-06 0 0)
(-0.45580913 -0.12320059 0 8.9470989e-06 0 0)
(-0.46211922 -0.12416985 0 -8.4117832e-06 0 0)
(-0.45622077 -0.12326405 0 7.9103178e-06 0 0)
(-0.46172811 -0.12411016 0 -7.4435087e-06 0 0)
(-0.45658505 -0.12332016 0 7.0067404e-06 0 0)
(-0.46138216 -0.12405735 0 -6.6005741e-06 0 0)
(-0.456908 -0.12336986 0 6.2211141e-06 0 0)
(-0.46107547 -0.12401052 0 -5.8687473e-06 0 0)
(-0.45719499 -0.12341399 0 5.5401843e-06 0 0)
(-0.46080282 -0.12396888 0 -5.2356813e-06 0 0)
(-0.45745081 -0.12345329 0 4.9524705e-06 0 0)
(-0.46055957 -0.12393173 0 -4.6907111e-06 0 0)
(-0.45767972 -0.12348842 0 4.44808e-06 0 0)
(-0.46034159 -0.12389846 0 -4.2246799e-06 0 0)
(-0.45788553 -0.12351997 0 4.0185545e-06 0 0)
(-0.46014519 -0.12386849 0 -3.8297992e-06 0 0)
(-0.45807169 -0.12354847 0 3.656751e-06 0 0)
(-0.45996705 -0.12384132 0 -3.4995457e-06 0 0)
(-0.4582413 -0.1235744 0 3.3567642e-06 0 0)
(-0.45980416 -0.12381651 0 -3.2286164e-06 0 0)
(-0.4583972 -0.1235982 0 3.1139205e-06 0 0)
(-0.45965376 -0.12379362 0 -3.0129892e-06 0 0)
(-0.458542 -0.12362027 0 2.9249367e-06 0 0)
(-0.45951331 -0.12377228 0 -2.8502659e-06 0 0)
(-0.45867817 -0.12364097 0 2.7884734e-06 0 0)
(-0.45938039 -0.12375213 0 -2.7414565e-06 0 0)
(-0.45880802 -0.12366065 0 2.7078835e-06 0 0)
(-0.45925236 -0.12373275 0 -2.6816991e-06 0 0)
(-0.45893429 -0.12367932 0 2.8871812e-06 0 0)
(-0.45913239 -0.12371533 0 -2.8954739e-06 0 0)
(-0.28032015 -0.15170539 0 -0.043452413 0 0)
(-0.4298102 -0.11867662 0 0.00019178845 0 0)
(-0.41879104 -0.11825796 0 -0.00010380594 0 0)
(-0.44134054 -0.12151755 0 -1.3498347e-05 0 0)
(-0.42362355 -0.1186553 0 2.2457611e-05 0 0)
(-0.44079901 -0.12137771 0 -1.4671773e-05 0 0)
(-0.42525559 -0.11889677 0 2.0489998e-05 0 0)
(-0.43993711 -0.12124378 0 -1.7286368e-05 0 0)
(-0.42623652 -0.11905423 0 1.7084718e-05 0 0)
(-0.43908262 -0.12110879 0 -1.5695648e-05 0 0)
(-0.4270496 -0.11918567 0 1.485116e-05 0 0)
(-0.43831438 -0.12098732 0 -1.3877567e-05 0 0)
(-0.42775882 -0.11930025 0 1.3039299e-05 0 0)
(-0.43763666 -0.12088006 0 -1.2225664e-05 0 0)
(-0.42838267 -0.1194009 0 1.1475159e-05 0 0)
(-0.43704045 -0.12078559 0 -1.0768989e-05 0 0)
(-0.42893244 -0.1194895 0 1.0109131e-05 0 0)
(-0.43651584 -0.12070238 0 -9.4920535e-06 0 0)
(-0.42941733 -0.11956755 0 8.9142876e-06 0 0)
(-0.43605386 -0.12062905 0 -8.3747987e-06 0 0)
(-0.42984537 -0.11963639 0 7.8697825e-06 0 0)
(-0.43564655 -0.12056435 0 -7.3986012e-06 0 0)
(-0.43022363 -0.11969716 0 6.9578586e-06 0 0)
(-0.43528694 -0.12050719 0 -6.5470127e-06 0 0)
(-0.43055837 -0.11975089 0 6.1631008e-06 0 0)
(-0.43496887 -0.12045661 0 -5.805657e-06 0 0)
(-0.43085515 -0.11979848 0 5.472094e-06 0 0)
(-0.4346869 -0.12041176 0 -5.1620195e-06 0 0)
(-0.4311189 -0.11984075 0 4.8731814e-06 0 0)
(-0.43443624 -0.12037188 0 -4.6052437e-06 0 0)
(-0.43135399 -0.11987839 0 4.356267e-06 0 0)
(-0.43421261 -0.12033629 0 -4.1259538e-06 0 0)
(-0.43156436 -0.11991204 0 3.912652e-06 0 0)
(-0.43401223 -0.12030441 0 -3.7161028e-06 0 0)
(-0.4317535 -0.11994227 0 3.5349023e-06 0 0)
(-0.4338317 -0.1202757 0 -3.3688502e-06 0 0)
(-0.43192457 -0.11996958 0 3.2167458e-06 0 0)
(-0.43366796 -0.12024966 0 -3.0784746e-06 0 0)
(-0.43208042 -0.11999444 0 2.9530077e-06 0 0)
(-0.43351826 -0.12022587 0 -2.8403397e-06 0 0)
(-0.43222368 -0.12001725 0 2.7396149e-06 0 0)
(-0.43338005 -0.12020393 0 -2.6509601e-06 0 0)
(-0.43235673 -0.12003841 0 2.5737547e-06 0 0)
(-0.43325099 -0.12018346 0 -2.5083374e-06 0 0)
(-0.43248183 -0.12005827 0 2.4543981e-06 0 0)
(-0.43312886 -0.12016413 0 -2.4137504e-06 0 0)
(-0.43260112 -0.12007716 0 2.3847515e-06 0 0)
(-0.43301122 -0.12014552 0 -2.3613383e-06 0 0)
(-0.43271689 -0.12009503 0 2.5799296e-06 0 0)
(-0.43289855 -0.12012854 0 -2.6164933e-06 0 0)
(-0.26838673 -0.1443183 0 -0.03938003 0 0)
(-0.39985117 -0.11430778 0 0.00030633539 0 0)
(-0.39369086 -0.11467056 0 -9.7239781e-05 0 0)
(-0.41502573 -0.11786043 0 -9.8668155e-06 0 0)
(-0.39885578 -0.11513039 0 1.9267873e-05 0 0)
(-0.41467658 -0.11773526 0 -1.1575597e-05 0 0)
(-0.40041329 -0.11536363 0 1.8265929e-05 0 0)
(-0.41390494 -0.11760932 0 -1.4970168e-05 0 0)
(-0.40131901 -0.11551459 0 1.5000248e-05 0 0)
(-0.4131215 -0.11748033 0 -1.3704112e-05 0 0)
(-0.40206607 -0.11564038 0 1.2998133e-05 0 0)
(-0.41241551 -0.11736412 0 -1.2132815e-05 0 0)
(-0.40271729 -0.11575 0 1.1405868e-05 0 0)
(-0.41179259 -0.11726149 0 -1.0691339e-05 0 0)
(-0.40329011 -0.1158463 0 1.0036601e-05 0 0)
(-0.4112446 -0.1171711 0 -9.4180139e-06 0 0)
(-0.40379494 -0.11593106 0 8.8416466e-06 0 0)
(-0.41076244 -0.11709148 0 -8.3014138e-06 0 0)
(-0.40424022 -0.11600574 0 7.7965874e-06 0 0)
(-0.41033787 -0.11702131 0 -7.3243674e-06 0 0)
(-0.40463331 -0.1160716 0 6.8830445e-06 0 0)
(-0.40996356 -0.1169594 0 -6.4706569e-06 0 0)
(-0.4049807 -0.11612975 0 6.0854634e-06 0 0)
(-0.4096331 -0.1169047 0 -5.7259126e-06 0 0)
(-0.40528814 -0.11618116 0 5.3903584e-06 0 0)
(-0.40934082 -0.11685629 0 -5.0775663e-06 0 0)
(-0.40556071 -0.11622671 0 4.7859966e-06 0 0)
(-0.40908173 -0.11681337 0 -4.514675e-06 0 0)
(-0.40580296 -0.11626716 0 4.2621837e-06 0 0)
(-0.40885141 -0.11677519 0 -4.0277461e-06 0 0)
(-0.40601889 -0.11630319 0 3.8100907e-06 0 0)
(-0.40864595 -0.11674113 0 -3.6085829e-06 0 0)
(-0.4062121 -0.1163354 0 3.4221114e-06 0 0)
(-0.40846185 -0.11671061 0 -3.2501523e-06 0 0)
(-0.40638582 -0.11636434 0 3.0917477e-06 0 0)
(-0.408296 -0.11668312 0 -2.9464792e-06 0 0)
(-0.40654295 -0.11639049 0 2.8135211e-06 0 0)
(-0.40814558 -0.11665819 0 -2.6925716e-06 0 0)
(-0.40668609 -0.1164143 0 2.5829198e-06 0 0)
(-0.40800806 -0.1166354 0 -2.484395e-06 0 0)
(-0.40681765 -0.11643616 0 2.3964079e-06 0 0)
(-0.40788112 -0.11661437 0 -2.3189391e-06 0 0)
(-0.40693984 -0.11645643 0 2.2515798e-06 0 0)
(-0.40776259 -0.11659476 0 -2.1945348e-06 0 0)
(-0.40705471 -0.11647547 0 2.1476357e-06 0 0)
(-0.40765045 -0.11657622 0 -2.1126054e-06 0 0)
(-0.40716424 -0.11649359 0 2.0874723e-06 0 0)
(-0.40754242 -0.11655837 0 -2.0662365e-06 0 0)
(-0.40727033 -0.1165107 0 2.29169e-06 0 0)
(-0.40743687 -0.11654183 0 -2.3538349e-06 0 0)
(-0.25705712 -0.13721421 0 -0.035483067 0 0)
(-0.37153043 -0.11002986 0 0.00043090971 0 0)
(-0.36918475 -0.11105987 0 -8.5457406e-05 0 0)
(-0.38960219 -0.11420543 0 -5.2334516e-06 0 0)
(-0.37481065 -0.11160324 0 1.6555422e-05 0 0)
(-0.38937424 -0.11409438 0 -8.7134238e-06 0 0)
(-0.37629617 -0.11182899 0 1.6204027e-05 0 0)
(-0.38868613 -0.11397621 0 -1.2825718e-05 0 0)
(-0.37713284 -0.11197368 0 1.3062522e-05 0 0)
(-0.38796879 -0.11385305 0 -1.1855863e-05 0 0)
(-0.37781892 -0.11209397 0 1.1276987e-05 0 0)
(-0.38732053 -0.11374196 0 -1.0512904e-05 0 0)
(-0.37841648 -0.11219877 0 9.8889403e-06 0 0)
(-0.3867484 -0.11364384 0 -9.2666617e-06 0 0)
(-0.37894208 -0.11229083 0 8.7006714e-06 0 0)
(-0.3862451 -0.11355741 0 -8.1635386e-06 0 0)
(-0.37940531 -0.11237187 0 7.664578e-06 0 0)
(-0.3858023 -0.11348128 0 -7.1957946e-06 0 0)
(-0.37981392 -0.11244327 0 6.7586044e-06 0 0)
(-0.38541239 -0.11341418 0 -6.3489216e-06 0 0)
(-0.38017466 -0.11250624 0 5.9666679e-06 0 0)
(-0.38506866 -0.11335498 0 -5.608931e-06 0 0)
(-0.38049347 -0.11256184 0 5.2752594e-06 0 0)
(-0.3847652 -0.11330268 0 -4.9633815e-06 0 0)
(-0.38077563 -0.112611 0 4.672684e-06 0 0)
(-0.38449682 -0.11325639 0 -4.4013831e-06 0 0)
(-0.3810258 -0.11265456 0 4.1487702e-06 0 0)
(-0.38425893 -0.11321534 0 -3.9134519e-06 0 0)
(-0.38124813 -0.11269324 0 3.6946806e-06 0 0)
(-0.38404746 -0.11317883 0 -3.491361e-06 0 0)
(-0.38144632 -0.11272769 0 3.3027619e-06 0 0)
(-0.38385882 -0.11314625 0 -3.1280069e-06 0 0)
(-0.38162366 -0.11275851 0 2.9664219e-06 0 0)
(-0.3836898 -0.11311705 0 -2.8172961e-06 0 0)
(-0.3817831 -0.11278619 0 2.6800299e-06 0 0)
(-0.38353754 -0.11309074 0 -2.5540538e-06 0 0)
(-0.38192731 -0.11281122 0 2.4388414e-06 0 0)
(-0.38339947 -0.11306689 0 -2.3339609e-06 0 0)
(-0.38205869 -0.112834 0 2.2389546e-06 0 0)
(-0.38327323 -0.11304508 0 -2.1535344e-06 0 0)
(-0.38217943 -0.11285492 0 2.0773223e-06 0 0)
(-0.38315672 -0.11302495 0 -2.0101908e-06 0 0)
(-0.38229155 -0.11287433 0 1.9518961e-06 0 0)
(-0.38304794 -0.11300616 0 -1.9025357e-06 0 0)
(-0.38239696 -0.11289257 0 1.8620425e-06 0 0)
(-0.38294504 -0.1129884 0 -1.8320376e-06 0 0)
(-0.38249746 -0.11290993 0 1.8102327e-06 0 0)
(-0.38284592 -0.11297129 0 -1.7907018e-06 0 0)
(-0.38259461 -0.11292631 0 2.017641e-06 0 0)
(-0.38274728 -0.11295522 0 -2.1036991e-06 0 0)
(-0.24626767 -0.13037626 0 -0.031759134 0 0)
(-0.34481303 -0.1058414 0 0.00056397234 0 0)
(-0.34535047 -0.1074325 0 -6.9120668e-05 0 0)
(-0.36502693 -0.11055005 0 1.3176397e-07 0 0)
(-0.3514953 -0.10807413 0 1.448985e-05 0 0)
(-0.36488781 -0.11045504 0 -6.0485302e-06 0 0)
(-0.3529085 -0.10829287 0 1.4294351e-05 0 0)
(-0.36427704 -0.11034443 0 -1.0838199e-05 0 0)
(-0.35368154 -0.10843151 0 1.1258617e-05 0 0)
(-0.36362122 -0.11022695 0 -1.01389e-05 0 0)
(-0.35431123 -0.10854647 0 9.6763819e-06 0 0)
(-0.3630266 -0.11012083 0 -9.0072054e-06 0 0)
(-0.35485909 -0.10864658 0 8.4785616e-06 0 0)
(-0.36250161 -0.11002708 0 -7.9422556e-06 0 0)
(-0.35534093 -0.10873453 0 7.4586079e-06 0 0)
(-0.36203978 -0.10994451 0 -6.9973054e-06 0 0)
(-0.35576562 -0.10881194 0 6.5702046e-06 0 0)
(-0.36163349 -0.10987177 0 -6.1679209e-06 0 0)
(-0.35614025 -0.10888015 0 5.7935314e-06 0 0)
(-0.36127574 -0.10980767 0 -5.4420466e-06 0 0)
(-0.356471 -0.10894031 0 5.1146445e-06 0 0)
(-0.36096038 -0.1097511 0 -4.8077605e-06 0 0)
(-0.35676332 -0.10899343 0 4.5219366e-06 0 0)
(-0.36068198 -0.10970112 0 -4.2544121e-06 0 0)
(-0.35702205 -0.1090404 0 4.0053769e-06 0 0)
(-0.36043577 -0.10965689 0 -3.772671e-06 0 0)
(-0.35725144 -0.10908202 0 3.5562443e-06 0 0)
(-0.36021754 -0.10961766 0 -3.3544098e-06 0 0)
(-0.35745532 -0.10911898 0 3.166962e-06 0 0)
(-0.36002356 -0.10958277 0 -2.9925778e-06 0 0)
(-0.35763706 -0.10915191 0 2.830969e-06 0 0)
(-0.35985052 -0.10955163 0 -2.6810866e-06 0 0)
(-0.35779968 -0.10918136 0 2.5426148e-06 0 0)
(-0.35969549 -0.10952372 0 -2.414714e-06 0 0)
(-0.35794589 -0.10920783 0 2.2970743e-06 0 0)
(-0.35955584 -0.10949857 0 -2.1890266e-06 0 0)
(-0.35807813 -0.10923175 0 2.0902829e-06 0 0)
(-0.3594292 -0.10947576 0 -2.0003271e-06 0 0)
(-0.35819859 -0.10925354 0 1.918901e-06 0 0)
(-0.35931343 -0.1094549 0 -1.8456386e-06 0 0)
(-0.3583093 -0.10927355 0 1.7803271e-06 0 0)
(-0.35920659 -0.10943565 0 -1.722762e-06 0 0)
(-0.3584121 -0.10929212 0 1.6728267e-06 0 0)
(-0.35910685 -0.10941767 0 -1.6305323e-06 0 0)
(-0.35850874 -0.10930957 0 1.5958824e-06 0 0)
(-0.35901251 -0.10940067 0 -1.5703826e-06 0 0)
(-0.35860085 -0.10932619 0 1.551462e-06 0 0)
(-0.35892165 -0.10938429 0 -1.5332379e-06 0 0)
(-0.35868974 -0.10934186 0 1.7570137e-06 0 0)
(-0.3588297 -0.1093687 0 -1.8657044e-06 0 0)
(-0.23595222 -0.12378846 0 -0.028205417 0 0)
(-0.31965658 -0.10174012 0 0.00070473712 0 0)
(-0.32227591 -0.10379529 0 -4.8697592e-05 0 0)
(-0.34125431 -0.10689188 0 5.8403742e-06 0 0)
(-0.32891181 -0.10454318 0 1.3123539e-05 0 0)
(-0.34121251 -0.10681716 0 -3.5649317e-06 0 0)
(-0.33025376 -0.10475532 0 1.2527161e-05 0 0)
(-0.34067433 -0.10671394 0 -8.996955e-06 0 0)
(-0.33096826 -0.10488812 0 9.5791696e-06 0 0)
(-0.34007592 -0.10660198 0 -8.5446397e-06 0 0)
(-0.33154576 -0.1049979 0 8.1881527e-06 0 0)
(-0.33953116 -0.10650069 0 -7.6081244e-06 0 0)
(-0.33204754 -0.10509346 0 7.1675937e-06 0 0)
(-0.33904998 -0.1064112 0 -6.7114252e-06 0 0)
(-0.33248879 -0.1051774 0 6.3041385e-06 0 0)
(-0.33862668 -0.10633237 0 -5.9134197e-06 0 0)
(-0.33287771 -0.10525129 0 5.5530055e-06 0 0)
(-0.3382543 -0.10626294 0 -5.2126006e-06 0 0)
(-0.33322081 -0.1053164 0 4.8965031e-06 0 0)
(-0.33792643 -0.10620173 0 -4.5991652e-06 0 0)
(-0.33352374 -0.10537382 0 4.3226823e-06 0 0)
(-0.33763742 -0.10614773 0 -4.0631053e-06 0 0)
(-0.33379148 -0.10542453 0 3.8217033e-06 0 0)
(-0.3373823 -0.10610002 0 -3.5954334e-06 0 0)
(-0.33402846 -0.10546938 0 3.3850819e-06 0 0)
(-0.33715668 -0.10605779 0 -3.1882678e-06 0 0)
(-0.33423858 -0.10550911 0 3.0054439e-06 0 0)
(-0.3369567 -0.10602033 0 -2.8347423e-06 0 0)
(-0.33442532 -0.1055444 0 2.6763831e-06 0 0)
(-0.33677895 -0.10598701 0 -2.5288983e-06 0 0)
(-0.3345918 -0.10557585 0 2.3923534e-06 0 0)
(-0.33662041 -0.10595728 0 -2.2655902e-06 0 0)
(-0.33474076 -0.10560397 0 2.1485791e-06 0 0)
(-0.33647836 -0.10593062 0 -2.0404038e-06 0 0)
(-0.33487468 -0.10562925 0 1.9409824e-06 0 0)
(-0.33635041 -0.1059066 0 -1.8495924e-06 0 0)
(-0.33499581 -0.1056521 0 1.766129e-06 0 0)
(-0.3362344 -0.10588481 0 -1.6900332e-06 0 0)
(-0.33510615 -0.10567292 0 1.621198e-06 0 0)
(-0.33612835 -0.10586487 0 -1.5592143e-06 0 0)
(-0.33520755 -0.10569204 0 1.5039946e-06 0 0)
(-0.33603048 -0.10584647 0 -1.4552842e-06 0 0)
(-0.3353017 -0.10570979 0 1.4130618e-06 0 0)
(-0.33593913 -0.10582928 0 -1.3772694e-06 0 0)
(-0.33539019 -0.10572648 0 1.3479582e-06 0 0)
(-0.33585274 -0.10581302 0 -1.3265059e-06 0 0)
(-0.33547453 -0.10574238 0 1.3101061e-06 0 0)
(-0.33576955 -0.10579735 0 -1.2928721e-06 0 0)
(-0.33555577 -0.10575737 0 1.5095136e-06 0 0)
(-0.33568405 -0.10578226 0 -1.6397843e-06 0 0)
(-0.22605085 -0.11743646 0 -0.024818237 0 0)
(-0.29601143 -0.097722767 0 0.00085315636 0 0)
(-0.30001876 -0.10015333 0 -2.5107573e-05 0 0)
(-0.31826455 -0.10323073 0 1.160046e-05 0 0)
(-0.30706114 -0.10101045 0 1.2398634e-05 0 0)
(-0.3183445 -0.10318072 0 -1.2600108e-06 0 0)
(-0.30833497 -0.10121637 0 1.0886634e-05 0 0)
(-0.31787508 -0.1030847 0 -7.290999e-06 0 0)
(-0.30899573 -0.10134355 0 8.0136795e-06 0 0)
(-0.31733032 -0.1029781 0 -7.063577e-06 0 0)
(-0.30952492 -0.1014483 0 6.8032435e-06 0 0)
(-0.31683199 -0.10288151 0 -6.3072578e-06 0 0)
(-0.30998394 -0.10153943 0 5.9481262e-06 0 0)
(-0.31639156 -0.10279616 0 -5.5667682e-06 0 0)
(-0.3103875 -0.10161948 0 5.2303175e-06 0 0)
(-0.31600409 -0.10272097 0 -4.9053656e-06 0 0)
(-0.31074321 -0.10168995 0 4.6068682e-06 0 0)
(-0.31566324 -0.10265475 0 -4.3240937e-06 0 0)
(-0.31105703 -0.10175204 0 4.0621334e-06 0 0)
(-0.31536315 -0.10259637 0 -3.8152151e-06 0 0)
(-0.31133412 -0.10180681 0 3.5860291e-06 0 0)
(-0.31509864 -0.10254486 0 -3.3704963e-06 0 0)
(-0.31157903 -0.10185517 0 3.170361e-06 0 0)
(-0.31486515 -0.10249935 0 -2.982494e-06 0 0)
(-0.3117958 -0.10189795 0 2.8080829e-06 0 0)
(-0.31465867 -0.10245907 0 -2.6446741e-06 0 0)
(-0.31198802 -0.10193585 0 2.4930725e-06 0 0)
(-0.31447566 -0.10242333 0 -2.3513421e-06 0 0)
(-0.31215885 -0.10196951 0 2.2200125e-06 0 0)
(-0.314313 -0.10239155 0 -2.0975555e-06 0 0)
(-0.31231114 -0.10199951 0 1.9842998e-06 0 0)
(-0.31416792 -0.10236318 0 -1.8790441e-06 0 0)
(-0.31244741 -0.10202635 0 1.7819719e-06 0 0)
(-0.31403795 -0.10233774 0 -1.6921439e-06 0 0)
(-0.31256992 -0.10205047 0 1.6096456e-06 0 0)
(-0.31392088 -0.10231481 0 -1.5337453e-06 0 0)
(-0.31268073 -0.10207228 0 1.4644707e-06 0 0)
(-0.31381473 -0.10229401 0 -1.401257e-06 0 0)
(-0.31278166 -0.10209215 0 1.3441057e-06 0 0)
(-0.31371771 -0.10227498 0 -1.2925954e-06 0 0)
(-0.31287441 -0.1021104 0 1.2467283e-06 0 0)
(-0.31362818 -0.10225741 0 -1.2062239e-06 0 0)
(-0.31296052 -0.10212736 0 1.1711278e-06 0 0)
(-0.31354463 -0.10224099 0 -1.1413302e-06 0 0)
(-0.31304145 -0.1021433 0 1.116909e-06 0 0)
(-0.31346562 -0.10222546 0 -1.0991072e-06 0 0)
(-0.31311857 -0.10215849 0 1.084935e-06 0 0)
(-0.31338956 -0.10221048 0 -1.0684528e-06 0 0)
(-0.31319272 -0.10217282 0 1.2746129e-06 0 0)
(-0.31331024 -0.10219588 0 -1.4256078e-06 0 0)
(-0.2165078 -0.11130766 0 -0.021594637 0 0)
(-0.27381062 -0.093784063 0 0.0010093167 0 0)
(-0.27861339 -0.096512116 0 -1.1335016e-07 0 0)
(-0.29605709 -0.099567317 0 1.7329103e-05 0 0)
(-0.28594497 -0.097475861 0 1.2255104e-05 0 0)
(-0.29628084 -0.099545657 0 8.8308641e-07 0 0)
(-0.28715482 -0.097676065 0 9.3597966e-06 0 0)
(-0.29587675 -0.099456646 0 -5.7092496e-06 0 0)
(-0.28776637 -0.097797841 0 6.5521434e-06 0 0)
(-0.2953822 -0.09935528 0 -5.6866064e-06 0 0)
(-0.28825082 -0.097897696 0 5.5129511e-06 0 0)
(-0.29492715 -0.099263265 0 -5.0965531e-06 0 0)
(-0.28867013 -0.097984523 0 4.8125673e-06 0 0)
(-0.29452463 -0.099181933 0 -4.5011856e-06 0 0)
(-0.28903868 -0.098060792 0 4.2304821e-06 0 0)
(-0.29417051 -0.099110292 0 -3.9668928e-06 0 0)
(-0.28936354 -0.098127932 0 3.7259294e-06 0 0)
(-0.293859 -0.099047186 0 -3.4968934e-06 0 0)
(-0.28965014 -0.098187094 0 3.2852554e-06 0 0)
(-0.29358475 -0.098991559 0 -3.08534e-06 0 0)
(-0.28990321 -0.098239278 0 2.9001262e-06 0 0)
(-0.29334303 -0.098942474 0 -2.7256451e-06 0 0)
(-0.2901269 -0.098285362 0 2.5638813e-06 0 0)
(-0.29312966 -0.098899101 0 -2.4118024e-06 0 0)
(-0.2903249 -0.09832612 0 2.2708135e-06 0 0)
(-0.29294098 -0.098860711 0 -2.1385308e-06 0 0)
(-0.29050047 -0.098362238 0 2.0159663e-06 0 0)
(-0.29277376 -0.098826655 0 -1.9012266e-06 0 0)
(-0.29065651 -0.098394324 0 1.7950355e-06 0 0)
(-0.29262514 -0.098796361 0 -1.695892e-06 0 0)