/*--------------------------------*- C++ -*----------------------------------*\
| =========                 |                                                 |
| \\      /  F ield         | OpenFOAM: The Open Source CFD Toolbox           |
|  \\    /   O peration     | Version:  2312                                  |
|   \\  /    A nd           | Website:  www.openfoam.com                      |
|    \\/     M anipulation  |                                                 |
\*---------------------------------------------------------------------------*/
FoamFile
{
    version     2.0;
    format      ascii;
    arch        "LSB;label=32;scalar=64";
    class       volSymmTensorField;
    location    "4";
    object      sigma_0;
}
// * * * * * * * * * * * * * * * * * * * * * * * * * * * * * * * * * * * * * //

dimensions      [0 2 -2 0 0 0 0];

internalField   nonuniform List<symmTensor> 
4000
(
(-0.39095651 -0.20776114 0 -0.070833615 0 0)
(-0.6680616 -0.14915279 0 -3.0356078e-05 0 0)
(-0.59379041 -0.14066699 0 3.5201874e-06 0 0)
(-0.63279921 -0.14530196 0 -2.952152e-05 0 0)
(-0.6011562 -0.14148468 0 3.2043169e-05 0 0)
(-0.63087402 -0.14508263 0 -2.9363388e-05 0 0)
(-0.60378241 -0.1418021 0 2.8162843e-05 0 0)
(-0.62925882 -0.14488932 0 -2.6268495e-05 0 0)
(-0.60546742 -0.14200766 0 2.4709443e-05 0 0)
(-0.62776732 -0.14471028 0 -2.3151527e-05 0 0)
(-0.60688055 -0.1421802 0 2.1718675e-05 0 0)
(-0.62643707 -0.14455045 0 -2.0372934e-05 0 0)
(-0.60811577 -0.14233088 0 1.9107917e-05 0 0)
(-0.62526425 -0.14440941 0 -1.7931443e-05 0 0)
(-0.6092023 -0.1424633 0 1.6821914e-05 0 0)
(-0.62423226 -0.14428522 0 -1.5791462e-05 0 0)
(-0.61015946 -0.14257985 0 1.4819963e-05 0 0)
(-0.62332399 -0.14417584 0 -1.3917689e-05 0 0)
(-0.61100331 -0.1426825 0 1.3067894e-05 0 0)
(-0.62252395 -0.14407946 0 -1.2278575e-05 0 0)
(-0.61174792 -0.142773 0 1.1536044e-05 0 0)
(-0.62181849 -0.14399444 0 -1.0846422e-05 0 0)
(-0.61240568 -0.14285288 0 1.0198523e-05 0 0)
(-0.62119557 -0.14391936 0 -9.5970188e-06 0 0)
(-0.61298754 -0.14292347 0 9.0327373e-06 0 0)
(-0.62064455 -0.14385294 0 -8.5092439e-06 0 0)
(-0.61350321 -0.14298598 0 8.0189946e-06 0 0)
(-0.62015608 -0.14379408 0 -7.5647123e-06 0 0)
(-0.6139613 -0.14304145 0 7.1401731e-06 0 0)
(-0.61972186 -0.14374176 0 -6.7474624e-06 0 0)
(-0.61436947 -0.14309082 0 6.3814301e-06 0 0)
(-0.61933453 -0.14369513 0 -6.0436859e-06 0 0)
(-0.61473453 -0.14313492 0 5.7299529e-06 0 0)
(-0.61898752 -0.14365338 0 -5.441495e-06 0 0)
(-0.6150626 -0.14317449 0 5.1747452e-06 0 0)
(-0.61867498 -0.14361582 0 -4.9307247e-06 0 0)
(-0.61535916 -0.1432102 0 4.7064458e-06 0 0)
(-0.61839161 -0.14358181 0 -4.5027666e-06 0 0)
(-0.61562917 -0.14324265 0 4.3171798e-06 0 0)
(-0.61813265 -0.14355079 0 -4.150437e-06 0 0)
(-0.61587716 -0.14327237 0 4.0004436e-06 0 0)
(-0.61789371 -0.14352223 0 -3.867886e-06 0 0)
(-0.61610728 -0.14329988 0 3.7510434e-06 0 0)
(-0.61767079 -0.14349565 0 -3.650582e-06 0 0)
(-0.6163234 -0.14332564 0 3.5651349e-06 0 0)
(-0.61746007 -0.1434706 0 -3.4955355e-06 0 0)
(-0.61652912 -0.14335007 0 3.4409808e-06 0 0)
(-0.61725815 -0.14344668 0 -3.3987021e-06 0 0)
(-0.61673237 -0.14337402 0 3.4093003e-06 0 0)
(-0.61709857 -0.14342781 0 -3.3561802e-06 0 0)
(-0.35589423 -0.19392236 0 -0.066202843 0 0)
(-0.60580236 -0.1421236 0 -0.00024007631 0 0)
(-0.55252465 -0.13572741 0 -3.3830791e-05 0 0)
(-0.58561491 -0.13981196 0 -2.8728349e-05 0 0)
(-0.55775268 -0.13623733 0 3.6403794e-05 0 0)
(-0.58395571 -0.13961968 0 -3.1809457e-05 0 0)
(-0.5600715 -0.13653505 0 3.1784642e-05 0 0)
(-0.58255419 -0.13944193 0 -2.9327814e-05 0 0)
(-0.56156101 -0.13672885 0 2.7751873e-05 0 0)
(-0.58123953 -0.13927368 0 -2.5942767e-05 0 0)
(-0.56280786 -0.13689139 0 2.43629e-05 0 0)
(-0.58006482 -0.13912316 0 -2.2842216e-05 0 0)
(-0.56389717 -0.13703327 0 2.1429219e-05 0 0)
(-0.57902895 -0.13899033 0 -2.0107156e-05 0 0)
(-0.56485531 -0.13715793 0 1.8864837e-05 0 0)
(-0.57811746 -0.13887335 0 -1.7708204e-05 0 0)
(-0.56569941 -0.13726764 0 1.6619886e-05 0 0)
(-0.57731523 -0.13877033 0 -1.5607426e-05 0 0)
(-0.56644366 -0.13736428 0 1.4655321e-05 0 0)
(-0.57660859 -0.13867955 0 -1.3769724e-05 0 0)
(-0.56710045 -0.13744948 0 1.2937754e-05 0 0)
(-0.57598546 -0.13859947 0 -1.2164089e-05 0 0)
(-0.5676807 -0.13752469 0 1.1438133e-05 0 0)
(-0.5754352 -0.13852875 0 -1.0763387e-05 0 0)
(-0.56819407 -0.13759116 0 1.0131122e-05 0 0)
(-0.57494842 -0.13846618 0 -9.5439457e-06 0 0)
(-0.56864911 -0.13765002 0 8.9946469e-06 0 0)
(-0.57451685 -0.13841072 0 -8.4851609e-06 0 0)
(-0.56905343 -0.13770226 0 8.0095173e-06 0 0)
(-0.57413315 -0.13836142 0 -7.5691473e-06 0 0)
(-0.56941376 -0.13774877 0 7.1591005e-06 0 0)
(-0.57379082 -0.13831748 0 -6.7804385e-06 0 0)
(-0.56973613 -0.13779031 0 6.4290454e-06 0 0)
(-0.57348405 -0.13827813 0 -6.1057277e-06 0 0)
(-0.57002593 -0.1378276 0 5.8070464e-06 0 0)
(-0.57320767 -0.13824272 0 -5.5336499e-06 0 0)
(-0.570288 -0.13786125 0 5.282647e-06 0 0)
(-0.572957 -0.13821065 0 -5.054604e-06 0 0)
(-0.57052674 -0.13789184 0 4.8470844e-06 0 0)
(-0.5727278 -0.13818139 0 -4.6606233e-06 0 0)
(-0.57074614 -0.13791988 0 4.4931866e-06 0 0)
(-0.57251622 -0.13815445 0 -4.345314e-06 0 0)
(-0.57094987 -0.13794583 0 4.2153673e-06 0 0)
(-0.57231868 -0.13812936 0 -4.1039506e-06 0 0)
(-0.57114138 -0.13797014 0 4.0098395e-06 0 0)
(-0.5721318 -0.13810571 0 -3.934191e-06 0 0)
(-0.57132386 -0.13799321 0 3.8763341e-06 0 0)
(-0.57195226 -0.13808307 0 -3.8305167e-06 0 0)
(-0.57150278 -0.13801551 0 3.9014359e-06 0 0)
(-0.57180191 -0.13806414 0 -3.7355002e-06 0 0)
(-0.33414807 -0.18409337 0 -0.061742944 0 0)
(-0.56596296 -0.1370038 0 -0.00012906462 0 0)
(-0.52480301 -0.13229848 0 -5.4590411e-05 0 0)
(-0.55507879 -0.13615073 0 -2.7241097e-05 0 0)
(-0.52961581 -0.13272539 0 3.6659382e-05 0 0)
(-0.55358835 -0.13596714 0 -3.0739226e-05 0 0)
(-0.53174333 -0.13301056 0 3.1800584e-05 0 0)
(-0.5523149 -0.13579873 0 -2.9056381e-05 0 0)
(-0.53310836 -0.1331967 0 2.7627525e-05 0 0)
(-0.5511131 -0.13563755 0 -2.5778428e-05 0 0)
(-0.53424942 -0.13335269 0 2.4227296e-05 0 0)
(-0.55003825 -0.13549321 0 -2.2708049e-05 0 0)
(-0.53524601 -0.13348881 0 2.1305684e-05 0 0)
(-0.54909041 -0.13536582 0 -1.999077e-05 0 0)
(-0.53612261 -0.13360841 0 1.8755485e-05 0 0)
(-0.5482564 -0.13525365 0 -1.7606024e-05 0 0)
(-0.53689492 -0.13371366 0 1.6523559e-05 0 0)
(-0.54752239 -0.13515486 0 -1.5517475e-05 0 0)
(-0.53757593 -0.13380638 0 1.4570498e-05 0 0)
(-0.54687586 -0.1350678 0 -1.369045e-05 0 0)
(-0.53817696 -0.13388813 0 1.2863007e-05 0 0)
(-0.54630573 -0.134991 0 -1.2094156e-05 0 0)
(-0.538708 -0.13396029 0 1.1372192e-05 0 0)
(-0.54580228 -0.13492316 0 -1.0701622e-05 0 0)
(-0.53917786 -0.13402407 0 1.0072868e-05 0 0)
(-0.54535689 -0.13486315 0 -9.4893155e-06 0 0)
(-0.53959439 -0.13408056 0 8.9430973e-06 0 0)
(-0.544962 -0.13480994 0 -8.4367545e-06 0 0)
(-0.53996451 -0.1341307 0 7.9638093e-06 0 0)
(-0.54461089 -0.13476266 0 -7.5261642e-06 0 0)
(-0.5402944 -0.13417533 0 7.1184782e-06 0 0)
(-0.5442976 -0.13472049 0 -6.7421784e-06 0 0)
(-0.54058958 -0.13421521 0 6.3928502e-06 0 0)
(-0.54401683 -0.13468273 0 -6.0715854e-06 0 0)
(-0.54085497 -0.13425102 0 5.7747138e-06 0 0)
(-0.54376382 -0.13464874 0 -5.5031145e-06 0 0)
(-0.54109501 -0.13428334 0 5.2537111e-06 0 0)
(-0.54353431 -0.13461795 0 -5.0272687e-06 0 0)
(-0.54131372 -0.13431272 0 4.8211962e-06 0 0)
(-0.54332441 -0.13458985 0 -4.6362145e-06 0 0)
(-0.54151476 -0.13433966 0 4.4701612e-06 0 0)
(-0.54313058 -0.13456396 0 -4.3237661e-06 0 0)
(-0.54170151 -0.13436461 0 4.195302e-06 0 0)
(-0.54294954 -0.13453985 0 -4.0856005e-06 0 0)
(-0.54187711 -0.13438798 0 3.9934256e-06 0 0)
(-0.54277819 -0.13451711 0 -3.9204643e-06 0 0)
(-0.54204452 -0.13441018 0 3.8659292e-06 0 0)
(-0.54261337 -0.13449532 0 -3.8245336e-06 0 0)
(-0.54220838 -0.1344315 0 3.9367406e-06 0 0)
(-0.54247114 -0.13447677 0 -3.8331521e-06 0 0)
(-0.31941999 -0.17553068 0 -0.056858082 0 0)
(-0.52973933 -0.13232304 0 -6.9842126e-05 0 0)
(-0.49756244 -0.12884916 0 -7.9320867e-05 0 0)
(-0.52542076 -0.13249097 0 -2.2737695e-05 0 0)
(-0.5021169 -0.12921332 0 3.3391761e-05 0 0)
(-0.52412144 -0.13231562 0 -2.6415036e-05 0 0)
(-0.50407753 -0.12948596 0 2.8859735e-05 0 0)
(-0.52296133 -0.13215651 0 -2.5975968e-05 0 0)
(-0.50533153 -0.12966446 0 2.4883624e-05 0 0)
(-0.52185867 -0.13200233 0 -2.3150056e-05 0 0)
(-0.5063785 -0.12981393 0 2.1784873e-05 0 0)
(-0.52087146 -0.13186408 0 -2.0407342e-05 0 0)
(-0.50729265 -0.1299443 0 1.9151919e-05 0 0)
(-0.52000084 -0.13174205 0 -1.7967848e-05 0 0)
(-0.50809674 -0.13005884 0 1.6858634e-05 0 0)
(-0.51923481 -0.13163459 0 -1.5824951e-05 0 0)
(-0.50880521 -0.13015965 0 1.4852394e-05 0 0)
(-0.51856066 -0.13153994 0 -1.394789e-05 0 0)
(-0.50942997 -0.13024845 0 1.3096966e-05 0 0)
(-0.51796689 -0.13145653 0 -1.2305821e-05 0 0)
(-0.5099814 -0.13032676 0 1.1562289e-05 0 0)
(-0.5174433 -0.13138295 0 -1.0871126e-05 0 0)
(-0.51046863 -0.13039588 0 1.0222372e-05 0 0)
(-0.51698096 -0.13131795 0 -9.619577e-06 0 0)
(-0.51089977 -0.13045699 0 9.0545798e-06 0 0)
(-0.51657196 -0.13126044 0 -8.5300272e-06 0 0)
(-0.51128199 -0.1305111 0 8.0392e-06 0 0)
(-0.51620933 -0.13120946 0 -7.5840722e-06 0 0)
(-0.51162164 -0.13055915 0 7.1590984e-06 0 0)
(-0.51588691 -0.13116413 0 -6.7657426e-06 0 0)
(-0.51192439 -0.13060192 0 6.3994294e-06 0 0)
(-0.51559922 -0.13112371 0 -6.061238e-06 0 0)
(-0.51219529 -0.13064015 0 5.7473924e-06 0 0)
(-0.5153414 -0.1310875 0 -5.4587001e-06 0 0)
(-0.51243888 -0.13067447 0 5.1920298e-06 0 0)
(-0.51510906 -0.13105491 0 -4.9480245e-06 0 0)
(-0.51265921 -0.13070547 0 4.7240635e-06 0 0)
(-0.5148983 -0.13102538 0 -4.5207177e-06 0 0)
(-0.51285998 -0.13073366 0 4.3357787e-06 0 0)
(-0.51470555 -0.13099841 0 -4.1698143e-06 0 0)
(-0.51304454 -0.13075951 0 4.0209816e-06 0 0)
(-0.51452755 -0.13097356 0 -3.8899004e-06 0 0)
(-0.51321599 -0.13078346 0 3.7751175e-06 0 0)
(-0.51436128 -0.1309504 0 -3.67741e-06 0 0)
(-0.51337724 -0.13080592 0 3.5957923e-06 0 0)
(-0.51420389 -0.13092855 0 -3.5321659e-06 0 0)
(-0.51353101 -0.13082725 0 3.4856665e-06 0 0)
(-0.51405238 -0.13090758 0 -3.4505666e-06 0 0)
(-0.51368117 -0.13084764 0 3.6050551e-06 0 0)
(-0.51391747 -0.13088935 0 -3.5403497e-06 0 0)
(-0.30592839 -0.16732854 0 -0.052169653 0 0)
(-0.49474231 -0.12768378 0 2.8758864e-06 0 0)
(-0.47073536 -0.12535105 0 -9.5980039e-05 0 0)
(-0.49657281 -0.12883334 0 -1.9111667e-05 0 0)
(-0.47526924 -0.12569704 0 2.9571134e-05 0 0)
(-0.4955147 -0.1286675 0 -2.1967141e-05 0 0)
(-0.47709484 -0.12595822 0 2.5684362e-05 0 0)
(-0.49445845 -0.12851706 0 -2.2694468e-05 0 0)
(-0.47824902 -0.12612943 0 2.1936896e-05 0 0)
(-0.49344525 -0.12836952 0 -2.0335451e-05 0 0)
(-0.47921129 -0.12627268 0 1.9166163e-05 0 0)
(-0.49253715 -0.12823707 0 -1.7941703e-05 0 0)
(-0.48005129 -0.1263976 0 1.6843463e-05 0 0)
(-0.49173625 -0.12812014 0 -1.5799599e-05 0 0)
(-0.48079016 -0.12650735 0 1.4825614e-05 0 0)
(-0.4910316 -0.12801716 0 -1.3915845e-05 0 0)
(-0.48144121 -0.12660395 0 1.3061201e-05 0 0)
(-0.4904115 -0.12792646 0 -1.226542e-05 0 0)
(-0.48201538 -0.12668904 0 1.151752e-05 0 0)
(-0.48986536 -0.12784653 0 -1.0821548e-05 0 0)
(-0.48252217 -0.12676408 0 1.016799e-05 0 0)
(-0.48938381 -0.12777601 0 -9.560011e-06 0 0)
(-0.48297 -0.12683032 0 8.9897332e-06 0 0)
(-0.4889586 -0.12771372 0 -8.4595183e-06 0 0)
(-0.48336628 -0.12688888 0 7.9628446e-06 0 0)
(-0.48858246 -0.1276586 0 -7.5014806e-06 0 0)
(-0.48371759 -0.12694075 0 7.0699935e-06 0 0)
(-0.48824899 -0.12760973 0 -6.6697172e-06 0 0)
(-0.4840298 -0.12698681 0 6.296117e-06 0 0)
(-0.48795251 -0.12756628 0 -5.9501904e-06 0 0)
(-0.48430809 -0.12702781 0 5.6281652e-06 0 0)
(-0.48768798 -0.12752752 0 -5.3307731e-06 0 0)
(-0.48455711 -0.12706447 0 5.0548888e-06 0 0)
(-0.48745091 -0.12749281 0 -4.8010501e-06 0 0)
(-0.48478101 -0.12709738 0 4.5666641e-06 0 0)
(-0.48723731 -0.12746155 0 -4.3521555e-06 0 0)
(-0.48498353 -0.12712711 0 4.1553548e-06 0 0)
(-0.48704354 -0.12743322 0 -3.9766516e-06 0 0)
(-0.48516807 -0.12715415 0 3.8142173e-06 0 0)
(-0.48686634 -0.12740734 0 -3.6684682e-06 0 0)
(-0.4853377 -0.12717897 0 3.5378807e-06 0 0)
(-0.48670272 -0.12738348 0 -3.4229503e-06 0 0)
(-0.48549528 -0.12720196 0 3.3224938e-06 0 0)
(-0.4865499 -0.12736125 0 -3.2371925e-06 0 0)
(-0.48564347 -0.12722353 0 3.1662859e-06 0 0)
(-0.48640524 -0.12734025 0 -3.111753e-06 0 0)
(-0.48578479 -0.12724403 0 3.0724953e-06 0 0)
(-0.48626594 -0.12732009 0 -3.0426217e-06 0 0)
(-0.48592251 -0.12726354 0 3.2273451e-06 0 0)
(-0.48613852 -0.12730225 0 -3.2028843e-06 0 0)
(-0.29284842 -0.15936799 0 -0.047708196 0 0)
(-0.46143794 -0.12313625 0 8.9684243e-05 0 0)
(-0.44447001 -0.12181902 0 -0.00010390437 0 0)
(-0.46853775 -0.1251759 0 -1.6330979e-05 0 0)
(-0.44909973 -0.12217756 0 2.5919387e-05 0 0)
(-0.46774414 -0.12502178 0 -1.8081444e-05 0 0)
(-0.45081773 -0.12242831 0 2.2920093e-05 0 0)
(-0.4667869 -0.12487968 0 -1.9820522e-05 0 0)
(-0.45188115 -0.12259251 0 1.9358968e-05 0 0)
(-0.46585602 -0.12473851 0 -1.7870677e-05 0 0)
(-0.45276578 -0.12272977 0 1.6873979e-05 0 0)
(-0.4650206 -0.12461164 0 -1.578282e-05 0 0)
(-0.45353775 -0.12284944 0 1.4822724e-05 0 0)
(-0.46428371 -0.12449962 0 -1.3901172e-05 0 0)
(-0.4542168 -0.12295458 0 1.3045933e-05 0 0)
(-0.46363541 -0.12440096 0 -1.224432e-05 0 0)
(-0.45481519 -0.12304711 0 1.1493173e-05 0 0)
(-0.46306494 -0.12431406 0 -1.0792315e-05 0 0)
(-0.45534294 -0.12312864 0 1.0134815e-05 0 0)
(-0.46256253 -0.12423747 0 -9.5219586e-06 0 0)
(-0.45580879 -0.12320053 0 8.9473298e-06 0 0)
(-0.46211955 -0.12416991 0 -8.4120093e-06 0 0)
(-0.45622045 -0.12326399 0 7.9105606e-06 0 0)
(-0.46172843 -0.12411022 0 -7.4437511e-06 0 0)
(-0.45658474 -0.12332011 0 7.0069901e-06 0 0)
(-0.46138246 -0.1240574 0 -6.6008322e-06 0 0)
(-0.45690771 -0.12336981 0 6.2213703e-06 0 0)
(-0.46107575 -0.12401056 0 -5.8690185e-06 0 0)
(-0.45719473 -0.12341394 0 5.5404494e-06 0 0)
(-0.46080308 -0.12396892 0 -5.235962e-06 0 0)
(-0.45745057 -0.12345325 0 4.9527473e-06 0 0)
(-0.4605598 -0.12393177 0 -4.6909984e-06 0 0)
(-0.4576795 -0.12348838 0 4.4483696e-06 0 0)
(-0.4603418 -0.12389849 0 -4.2249725e-06 0 0)
(-0.45788533 -0.12351993 0 4.0188562e-06 0 0)
(-0.46014538 -0.12386852 0 -3.8300973e-06 0 0)
(-0.45807151 -0.12354844 0 3.6570626e-06 0 0)
(-0.45996721 -0.12384135 0 -3.4998502e-06 0 0)
(-0.45824114 -0.12357438 0 3.3570827e-06 0 0)
(-0.4598043 -0.12381653 0 -3.2289287e-06 0 0)
(-0.45839707 -0.12359818 0 3.1142431e-06 0 0)
(-0.45965388 -0.12379364 0 -3.0133101e-06 0 0)
(-0.4585419 -0.12362025 0 2.9252607e-06 0 0)
(-0.45951341 -0.1237723 0 -2.8505948e-06 0 0)
(-0.45867809 -0.12364095 0 2.7887979e-06 0 0)
(-0.45938046 -0.12375214 0 -2.7417912e-06 0 0)
(-0.45880797 -0.12366064 0 2.7082101e-06 0 0)
(-0.4592524 -0.12373276 0 -2.6820313e-06 0 0)
(-0.45893426 -0.12367932 0 2.8875455e-06 0 0)
(-0.4591324 -0.12371534 0 -2.8958425e-06 0 0)
(-0.28030161 -0.15169134 0 -0.04345258 0 0)
(-0.4298122 -0.11867661 0 0.00019189603 0 0)
(-0.41879097 -0.11825788 0 -0.00010377339 0 0)
(-0.44134074 -0.12151759 0 -1.3494397e-05 0 0)
(-0.42362329 -0.11865526 0 2.2457623e-05 0 0)
(-0.44079929 -0.12137775 0 -1.4670806e-05 0 0)
(-0.42525529 -0.11889673 0 2.0489429e-05 0 0)
(-0.43993744 -0.12124383 0 -1.7285856e-05 0 0)
(-0.42623618 -0.11905418 0 1.7084418e-05 0 0)
(-0.43908298 -0.12110884 0 -1.5695457e-05 0 0)
(-0.42704924 -0.11918561 0 1.4851081e-05 0 0)
(-0.43831475 -0.12098739 0 -1.3877569e-05 0 0)
(-0.42775846 -0.11930018 0 1.3039352e-05 0 0)
(-0.43763703 -0.12088012 0 -1.2225769e-05 0 0)
(-0.42838231 -0.11940084 0 1.1475284e-05 0 0)
(-0.43704082 -0.12078566 0 -1.0769145e-05 0 0)
(-0.42893208 -0.11948944 0 1.0109297e-05 0 0)
(-0.4365162 -0.12070245 0 -9.4922321e-06 0 0)
(-0.42941699 -0.11956749 0 8.9144801e-06 0 0)
(-0.4360542 -0.12062911 0 -8.3749902e-06 0 0)
(-0.42984504 -0.11963633 0 7.8699908e-06 0 0)
(-0.43564688 -0.12056441 0 -7.3988045e-06 0 0)
(-0.43022332 -0.1196971 0 6.9580759e-06 0 0)
(-0.43528725 -0.12050724 0 -6.5472292e-06 0 0)
(-0.43055808 -0.11975083 0 6.1633239e-06 0 0)
(-0.43496915 -0.12045666 0 -5.8058871e-06 0 0)
(-0.43085488 -0.11979843 0 5.472323e-06 0 0)
(-0.43468717 -0.12041181 0 -5.1622614e-06 0 0)
(-0.43111864 -0.1198407 0 4.8734187e-06 0 0)
(-0.43443648 -0.12037192 0 -4.6054946e-06 0 0)
(-0.43135376 -0.11987835 0 4.3565149e-06 0 0)
(-0.43421284 -0.12033634 0 -4.126211e-06 0 0)
(-0.43156414 -0.119912 0 3.9129116e-06 0 0)
(-0.43401244 -0.12030445 0 -3.7163653e-06 0 0)
(-0.43175331 -0.11994223 0 3.5351729e-06 0 0)
(-0.43383188 -0.12027573 0 -3.369118e-06 0 0)
(-0.4319244 -0.11996955 0 3.2170252e-06 0 0)
(-0.43366812 -0.12024969 0 -3.0787486e-06 0 0)
(-0.43208028 -0.11999441 0 2.9532936e-06 0 0)
(-0.43351839 -0.1202259 0 -2.8406207e-06 0 0)
(-0.43222355 -0.12001723 0 2.7399047e-06 0 0)
(-0.43338016 -0.12020395 0 -2.6512486e-06 0 0)
(-0.43235663 -0.12003839 0 2.5740464e-06 0 0)
(-0.43325108 -0.12018348 0 -2.5086328e-06 0 0)
(-0.43248176 -0.12005826 0 2.4546907e-06 0 0)
(-0.43312893 -0.12016414 0 -2.4140511e-06 0 0)
(-0.43260107 -0.12007715 0 2.3850466e-06 0 0)
(-0.43301126 -0.12014553 0 -2.3616375e-06 0 0)
(-0.43271686 -0.12009503 0 2.5802595e-06 0 0)
(-0.43289856 -0.12012854 0 -2.6168459e-06 0 0)
(-0.26838049 -0.1443109 0 -0.039380385 0 0)
(-0.39985399 -0.11430819 0 0.00030652281 0 0)
(-0.39369096 -0.11467063 0 -9.7210376e-05 0 0)
(-0.41502584 -0.11786041 0 -9.8636716e-06 0 0)
(-0.39885558 -0.11513039 0 1.9268005e-05 0 0)
(-0.41467682 -0.11773527 0 -1.1574885e-05 0 0)
(-0.40041302 -0.1153636 0 1.8265604e-05 0 0)
(-0.41390525 -0.11760936 0 -1.4969893e-05 0 0)
(-0.40131869 -0.11551454 0 1.5000134e-05 0 0)
(-0.41312184 -0.11748038 0 -1.3704068e-05 0 0)
(-0.40206573 -0.11564032 0 1.2998159e-05 0 0)
(-0.41241587 -0.11736419 0 -1.2132885e-05 0 0)
(-0.40271694 -0.11574993 0 1.1405965e-05 0 0)
(-0.41179295 -0.11726156 0 -1.0691463e-05 0 0)
(-0.40328977 -0.11584623 0 1.0036735e-05 0 0)
(-0.41124495 -0.11717116 0 -9.4181639e-06 0 0)
(-0.4037946 -0.115931 0 8.8418033e-06 0 0)
(-0.41076278 -0.11709155 0 -8.3015768e-06 0 0)
(-0.4042399 -0.11600568 0 7.7967594e-06 0 0)
(-0.41033819 -0.11702137 0 -7.3245392e-06 0 0)
(-0.404633 -0.11607154 0 6.8832273e-06 0 0)
(-0.40996387 -0.11695945 0 -6.4708377e-06 0 0)
(-0.40498041 -0.11612969 0 6.0856539e-06 0 0)
(-0.40963339 -0.11690475 0 -5.7261039e-06 0 0)
(-0.40528786 -0.11618111 0 5.390555e-06 0 0)
(-0.40934109 -0.11685634 0 -5.0777685e-06 0 0)
(-0.40556045 -0.11622666 0 4.7862e-06 0 0)
(-0.40908198 -0.11681341 0 -4.5148873e-06 0 0)
(-0.40580271 -0.11626712 0 4.2623953e-06 0 0)
(-0.40885165 -0.11677524 0 -4.0279668e-06 0 0)
(-0.40601867 -0.11630315 0 3.8103119e-06 0 0)
(-0.40864616 -0.11674117 0 -3.6088104e-06 0 0)
(-0.4062119 -0.11633536 0 3.4223426e-06 0 0)
(-0.40846204 -0.11671065 0 -3.250386e-06 0 0)
(-0.40638564 -0.11636431 0 3.0919881e-06 0 0)
(-0.40829617 -0.11668315 0 -2.9467189e-06 0 0)
(-0.40654279 -0.11639046 0 2.8137689e-06 0 0)
(-0.40814573 -0.11665821 0 -2.6928175e-06 0 0)
(-0.40668595 -0.11641427 0 2.5831732e-06 0 0)
(-0.40800819 -0.11663542 0 -2.4846474e-06 0 0)
(-0.40681754 -0.11643613 0 2.3966656e-06 0 0)
(-0.40788122 -0.11661439 0 -2.3191975e-06 0 0)
(-0.40693974 -0.11645641 0 2.2518407e-06 0 0)
(-0.40776267 -0.11659477 0 -2.1947983e-06 0 0)
(-0.40705464 -0.11647545 0 2.1478995e-06 0 0)
(-0.40765051 -0.11657623 0 -2.1128731e-06 0 0)
(-0.4071642 -0.11649358 0 2.08774e-06 0 0)
(-0.40754246 -0.11655838 0 -2.0665032e-06 0 0)
(-0.40727031 -0.11651069 0 2.2919873e-06 0 0)
(-0.40743688 -0.11654184 0 -2.3541751e-06 0 0)
(-0.25706195 -0.13721396 0 -0.035483483 0 0)
(-0.37153335 -0.1100306 0 0.00043112453 0 0)
(-0.36918472 -0.11105999 0 -8.5437568e-05 0 0)
(-0.38960234 -0.11420541 0 -5.2322927e-06 0 0)
(-0.37481043 -0.11160323 0 1.6555786e-05 0 0)
(-0.3893745 -0.1140944 0 -8.7131193e-06 0 0)
(-0.37629588 -0.11182895 0 1.6204026e-05 0 0)
(-0.38868645 -0.11397625 0 -1.2825733e-05 0 0)
(-0.37713252 -0.11197362 0 1.3062621e-05 0 0)
(-0.38796912 -0.11385311 0 -1.1855977e-05 0 0)
(-0.37781859 -0.11209391 0 1.1277118e-05 0 0)
(-0.38732088 -0.11374203 0 -1.0513038e-05 0 0)
(-0.37841615 -0.11219871 0 9.8890765e-06 0 0)
(-0.38674874 -0.1136439 0 -9.2667982e-06 0 0)
(-0.37894175 -0.11229077 0 8.7008099e-06 0 0)
(-0.38624544 -0.11355747 0 -8.1636782e-06 0 0)
(-0.37940499 -0.11237181 0 7.6647212e-06 0 0)
(-0.38580262 -0.11348135 0 -7.1959394e-06 0 0)
(-0.37981362 -0.11244321 0 6.7587539e-06 0 0)
(-0.38541269 -0.11341424 0 -6.349073e-06 0 0)
(-0.38017437 -0.11250618 0 5.9668243e-06 0 0)
(-0.38506895 -0.11335504 0 -5.6090898e-06 0 0)
(-0.3804932 -0.11256178 0 5.2754229e-06 0 0)
(-0.38476548 -0.11330273 0 -4.9635485e-06 0 0)
(-0.38077537 -0.11261095 0 4.672855e-06 0 0)
(-0.38449708 -0.11325644 0 -4.4015583e-06 0 0)
(-0.38102555 -0.11265451 0 4.1489492e-06 0 0)
(-0.38425917 -0.11321538 0 -3.9136354e-06 0 0)
(-0.3812479 -0.11269319 0 3.6948681e-06 0 0)
(-0.38404768 -0.11317887 0 -3.4915524e-06 0 0)
(-0.38144611 -0.11272765 0 3.3029581e-06 0 0)
(-0.38385902 -0.11314629 0 -3.1282058e-06 0 0)
(-0.38162347 -0.11275847 0 2.9666262e-06 0 0)
(-0.38368999 -0.11311709 0 -2.8175023e-06 0 0)
(-0.38178293 -0.11278616 0 2.6802412e-06 0 0)
(-0.38353771 -0.11309078 0 -2.554267e-06 0 0)
(-0.38192716 -0.11281119 0 2.4390586e-06 0 0)
(-0.38339961 -0.11306691 0 -2.3341808e-06 0 0)
(-0.38205856 -0.11283397 0 2.2391767e-06 0 0)
(-0.38327336 -0.1130451 0 -2.1537601e-06 0 0)
(-0.38217932 -0.1128549 0 2.0775492e-06 0 0)
(-0.38315682 -0.11302497 0 -2.0104209e-06 0 0)
(-0.38229146 -0.11287432 0 1.9521278e-06 0 0)
(-0.38304802 -0.11300618 0 -1.9027689e-06 0 0)
(-0.3823969 -0.11289255 0 1.8622793e-06 0 0)
(-0.38294509 -0.11298841 0 -1.8322736e-06 0 0)
(-0.38249741 -0.11290992 0 1.8104753e-06 0 0)
(-0.38284595 -0.1129713 0 -1.7909375e-06 0 0)
(-0.38259459 -0.1129263 0 2.0179065e-06 0 0)
(-0.38274729 -0.11295523 0 -2.1040288e-06 0 0)
(-0.24628035 -0.1303822 0 -0.031759489 0 0)
(-0.3448154 -0.1058423 0 0.00056416293 0 0)
(-0.34535014 -0.10743256 0 -6.9113979e-05 0 0)
(-0.36502718 -0.11055006 0 1.3094105e-07 0 0)
(-0.35149499 -0.10807409 0 1.4490394e-05 0 0)
(-0.36488812 -0.11045508 0 -6.048566e-06 0 0)
(-0.35290818 -0.10829282 0 1.4294578e-05 0 0)
(-0.36427737 -0.11034449 0 -1.083842e-05 0 0)
(-0.35368121 -0.10843145 0 1.1258853e-05 0 0)
(-0.36362156 -0.11022701 0 -1.0139116e-05 0 0)
(-0.35431091 -0.10854641 0 9.6765762e-06 0 0)
(-0.36302693 -0.1101209 0 -9.0073748e-06 0 0)
(-0.35485878 -0.10864652 0 8.4787171e-06 0 0)
(-0.36250193 -0.11002715 0 -7.942393e-06 0 0)
(-0.35534062 -0.10873446 0 7.4587425e-06 0 0)
(-0.3620401 -0.10994457 0 -6.9974307e-06 0 0)
(-0.35576532 -0.10881188 0 6.5703318e-06 0 0)
(-0.36163379 -0.10987184 0 -6.1680465e-06 0 0)
(-0.35613996 -0.10888009 0 5.7936584e-06 0 0)
(-0.36127603 -0.10980772 0 -5.4421778e-06 0 0)
(-0.35647073 -0.10894025 0 5.1147757e-06 0 0)
(-0.36096065 -0.10975115 0 -4.8078983e-06 0 0)
(-0.35676306 -0.10899337 0 4.5220747e-06 0 0)
(-0.36068224 -0.10970117 0 -4.2545562e-06 0 0)
(-0.3570218 -0.10904035 0 4.0055239e-06 0 0)
(-0.36043602 -0.10965694 0 -3.7728213e-06 0 0)
(-0.35725121 -0.10908197 0 3.5564007e-06 0 0)
(-0.36021776 -0.10961771 0 -3.3545669e-06 0 0)
(-0.35745511 -0.10911894 0 3.1671271e-06 0 0)
(-0.36002376 -0.10958281 0 -2.9927424e-06 0 0)
(-0.35763686 -0.10915187 0 2.8311418e-06 0 0)
(-0.35985071 -0.10955167 0 -2.6812593e-06 0 0)
(-0.3577995 -0.10918133 0 2.542794e-06 0 0)
(-0.35969566 -0.10952376 0 -2.4148949e-06 0 0)
(-0.35794573 -0.10920779 0 2.2972587e-06 0 0)
(-0.35955599 -0.1094986 0 -2.1892155e-06 0 0)
(-0.35807798 -0.10923172 0 2.0904716e-06 0 0)
(-0.35942933 -0.10947579 0 -2.0005228e-06 0 0)
(-0.35819847 -0.10925351 0 1.9190941e-06 0 0)
(-0.35931355 -0.10945493 0 -1.8458394e-06 0 0)
(-0.3583092 -0.10927353 0 1.7805254e-06 0 0)
(-0.35920668 -0.10943567 0 -1.7229656e-06 0 0)
(-0.35841202 -0.1092921 0 1.6730313e-06 0 0)
(-0.35910692 -0.10941769 0 -1.6307372e-06 0 0)
(-0.35850867 -0.10930956 0 1.596094e-06 0 0)
(-0.35901256 -0.10940068 0 -1.5705893e-06 0 0)
(-0.35860081 -0.10932618 0 1.5516806e-06 0 0)
(-0.35892168 -0.10938429 0 -1.5334454e-06 0 0)
(-0.35868972 -0.10934186 0 1.7572481e-06 0 0)
(-0.35882971 -0.1093687 0 -1.8660238e-06 0 0)
(-0.23596804 -0.12379823 0 -0.028205623 0 0)
(-0.31965796 -0.10174095 0 0.00070486335 0 0)
(-0.32227527 -0.10379524 0 -4.8703825e-05 0 0)
(-0.34125463 -0.10689194 0 5.8385565e-06 0 0)
(-0.32891143 -0.10454311 0 1.3124185e-05 0 0)
(-0.34121287 -0.10681723 0 -3.5651249e-06 0 0)
(-0.33025341 -0.10475525 0 1.2527446e-05 0 0)
(-0.34067468 -0.10671401 0 -8.9972414e-06 0 0)
(-0.33096793 -0.10488806 0 9.5794291e-06 0 0)
(-0.34007625 -0.10660204 0 -8.5448748e-06 0 0)
(-0.33154545 -0.10499783 0 8.1883528e-06 0 0)
(-0.33953147 -0.10650076 0 -7.6082932e-06 0 0)
(-0.33204724 -0.10509339 0 7.1677445e-06 0 0)
(-0.33905028 -0.10641126 0 -6.7115515e-06 0 0)
(-0.3324885 -0.10517734 0 6.3042614e-06 0 0)
(-0.33862698 -0.10633243 0 -5.9135284e-06 0 0)
(-0.33287743 -0.10525123 0 5.5531156e-06 0 0)
(-0.33825458 -0.106263 0 -5.2127075e-06 0 0)
(-0.33322054 -0.10531634 0 4.8966093e-06 0 0)
(-0.3379267 -0.10620179 0 -4.599277e-06 0 0)
(-0.33352349 -0.10537377 0 4.3227907e-06 0 0)
(-0.33763768 -0.10614778 0 -4.0632232e-06 0 0)
(-0.33379124 -0.10542448 0 3.8218188e-06 0 0)
(-0.33738254 -0.10610007 0 -3.5955565e-06 0 0)
(-0.33402823 -0.10546933 0 3.3852072e-06 0 0)
(-0.3371569 -0.10605783 0 -3.1883959e-06 0 0)
(-0.33423836 -0.10550907 0 3.0055793e-06 0 0)
(-0.33695691 -0.10602037 0 -2.8348761e-06 0 0)
(-0.33442512 -0.10554436 0 2.6765273e-06 0 0)
(-0.33677915 -0.10598705 0 -2.5290395e-06 0 0)
(-0.33459161 -0.10557581 0 2.3925044e-06 0 0)
(-0.33662058 -0.10595732 0 -2.2657397e-06 0 0)
(-0.33474059 -0.10560394 0 2.1487351e-06 0 0)
(-0.33647852 -0.10593066 0 -2.0405619e-06 0 0)
(-0.33487453 -0.10562922 0 1.9411422e-06 0 0)
(-0.33635056 -0.10590663 0 -1.8497587e-06 0 0)
(-0.33499567 -0.10565207 0 1.7662922e-06 0 0)
(-0.33623452 -0.10588483 0 -1.6902062e-06 0 0)
(-0.33510603 -0.10567289 0 1.6213651e-06 0 0)
(-0.33612845 -0.1058649 0 -1.5593917e-06 0 0)
(-0.33520745 -0.10569202 0 1.5041671e-06 0 0)
(-0.33603057 -0.10584649 0 -1.4554632e-06 0 0)
(-0.33530162 -0.10570978 0 1.4132414e-06 0 0)
(-0.3359392 -0.1058293 0 -1.3774484e-06 0 0)
(-0.33539013 -0.10572647 0 1.3481457e-06 0 0)
(-0.33585279 -0.10581303 0 -1.3266859e-06 0 0)
(-0.33547449 -0.10574237 0 1.3103006e-06 0 0)
(-0.33576958 -0.10579735 0 -1.293055e-06 0 0)
(-0.33555575 -0.10575736 0 1.5097177e-06 0 0)
(-0.33568406 -0.10578226 0 -1.6400923e-06 0 0)
(-0.22606465 -0.11744689 0 -0.024818252 0 0)
(-0.29601162 -0.097723291 0 0.00085319924 0 0)
(-0.30001792 -0.10015315 0 -2.5122697e-05 0 0)
(-0.31826489 -0.1032308 0 1.1599153e-05 0 0)
(-0.30706074 -0.10101036 0 1.2399351e-05 0 0)
(-0.31834486 -0.10318081 0 -1.2601711e-06 0 0)
(-0.30833462 -0.10121629 0 1.0886825e-05 0 0)
(-0.31787543 -0.10308478 0 -7.2912245e-06 0 0)
(-0.30899541 -0.10134348 0 8.0138679e-06 0 0)
(-0.31733063 -0.10297817 0 -7.0637622e-06 0 0)
(-0.30952463 -0.10144823 0 6.803402e-06 0 0)
(-0.31683229 -0.10288158 0 -6.3073966e-06 0 0)
(-0.30998366 -0.10153936 0 5.9482534e-06 0 0)
(-0.31639184 -0.10279622 0 -5.5668746e-06 0 0)
(-0.31038723 -0.10161942 0 5.2304232e-06 0 0)
(-0.31600436 -0.10272103 0 -4.9054571e-06 0 0)
(-0.31074295 -0.10168989 0 4.6069613e-06 0 0)
(-0.3156635 -0.1026548 0 -4.3241833e-06 0 0)
(-0.31105678 -0.10175199 0 4.0622212e-06 0 0)
(-0.3153634 -0.10259643 0 -3.815309e-06 0 0)
(-0.31133388 -0.10180676 0 3.5861181e-06 0 0)
(-0.31509888 -0.10254491 0 -3.3705956e-06 0 0)
(-0.3115788 -0.10185512 0 3.1704569e-06 0 0)
(-0.31486537 -0.1024994 0 -2.9825981e-06 0 0)
(-0.31179559 -0.1018979 0 2.8081888e-06 0 0)
(-0.31465888 -0.10245911 0 -2.6447825e-06 0 0)
(-0.31198781 -0.1019358 0 2.4931887e-06 0 0)
(-0.31447586 -0.10242337 0 -2.3514559e-06 0 0)
(-0.31215866 -0.10196947 0 2.220137e-06 0 0)
(-0.31431319 -0.10239159 0 -2.0976763e-06 0 0)
(-0.31231097 -0.10199948 0 1.9844303e-06 0 0)
(-0.31416809 -0.10236321 0 -1.8791731e-06 0 0)
(-0.31244725 -0.10202631 0 1.7821064e-06 0 0)
(-0.3140381 -0.10233777 0 -1.6922814e-06 0 0)
(-0.31256978 -0.10205044 0 1.609783e-06 0 0)
(-0.31392101 -0.10231484 0 -1.5338907e-06 0 0)
(-0.3126806 -0.10207225 0 1.464611e-06 0 0)
(-0.31381485 -0.10229404 0 -1.4014084e-06 0 0)
(-0.31278155 -0.10209212 0 1.3442498e-06 0 0)
(-0.31371781 -0.102275 0 -1.2927503e-06 0 0)
(-0.31287432 -0.10211038 0 1.2468779e-06 0 0)
(-0.31362826 -0.10225743 0 -1.2063795e-06 0 0)
(-0.31296045 -0.10212734 0 1.1712844e-06 0 0)
(-0.31354469 -0.10224101 0 -1.1414853e-06 0 0)
(-0.31304139 -0.10214329 0 1.1170732e-06 0 0)
(-0.31346567 -0.10222547 0 -1.0992631e-06 0 0)
(-0.31311853 -0.10215849 0 1.085105e-06 0 0)
(-0.31338959 -0.10221048 0 -1.0686141e-06 0 0)
(-0.3131927 -0.10217282 0 1.2747877e-06 0 0)
(-0.31331025 -0.10219589 0 -1.4259019e-06 0 0)
(-0.21651541 -0.11131562 0 -0.021594472 0 0)
(-0.27380973 -0.093784106 0 0.0010092837 0 0)
(-0.27861256 -0.096511852 0 -1.3127601e-07 0 0)
(-0.29605739 -0.099567405 0 1.7329678e-05 0 0)
(-0.28594459 -0.097475758 0 1.2255898e-05 0 0)
(-0.29628118 -0.099545747 0 8.8308739e-07 0 0)
(-0.28715449 -0.09767598 0 9.3598202e-06 0 0)
(-0.29587707 -0.099456724 0 -5.7093456e-06 0 0)
(-0.28776607 -0.097797769 0 6.5522126e-06 0 0)
(-0.29538249 -0.099355349 0 -5.686706e-06 0 0)
(-0.28825054 -0.097897631 0 5.5130443e-06 0 0)
(-0.29492742 -0.099263328 0 -5.0966473e-06 0 0)
(-0.28866987 -0.097984463 0 4.8126615e-06 0 0)
(-0.2945249 -0.099181992 0 -4.5012684e-06 0 0)
(-0.28903843 -0.098060735 0 4.2305681e-06 0 0)
(-0.29417076 -0.099110348 0 -3.9669678e-06 0 0)
(-0.28936329 -0.098127876 0 3.7260063e-06 0 0)
(-0.29385924 -0.09904724 0 -3.4969674e-06 0 0)
(-0.28964991 -0.098187041 0 3.2853273e-06 0 0)
(-0.29358498 -0.098991611 0 -3.0854176e-06 0 0)
(-0.28990299 -0.098239228 0 2.9001989e-06 0 0)
(-0.29334325 -0.098942523 0 -2.7257276e-06 0 0)
(-0.29012669 -0.098285314 0 2.5639604e-06 0 0)
(-0.29312987 -0.098899148 0 -2.4118893e-06 0 0)
(-0.2903247 -0.098326075 0 2.2709022e-06 0 0)
(-0.29294118 -0.098860755 0 -2.1386219e-06 0 0)
(-0.29050028 -0.098362196 0 2.0160647e-06 0 0)
(-0.29277395 -0.098826696 0 -1.9013228e-06 0 0)
(-0.29065634 -0.098394285 0 1.7951415e-06 0 0)