/*--------------------------------*- C++ -*----------------------------------*\
| =========                 |                                                 |
| \\      /  F ield         | OpenFOAM: The Open Source CFD Toolbox           |
|  \\    /   O peration     | Version:  2312                                  |
|   \\  /    A nd           | Website:  www.openfoam.com                      |
|    \\/     M anipulation  |                                                 |
\*---------------------------------------------------------------------------*/
FoamFile
{
    version     2.0;
    format      ascii;
    arch        "LSB;label=32;scalar=64";
    class       volVectorField;
    location    "4";
    object      U;
}
// * * * * * * * * * * * * * * * * * * * * * * * * * * * * * * * * * * * * * //

dimensions      [0 1 -1 0 0 0 0];

internalField   nonuniform List<vector> 
4000
(
(0.0013468821 0.00023021943 0)
(0.0014475206 -1.2440634e-06 0)
(0.0013497788 -1.5213421e-07 0)
(0.0013956514 1.4808034e-07 0)
(0.0013599909 -1.3729106e-07 0)
(0.001393459 1.3034005e-07 0)
(0.0013629986 -1.2100683e-07 0)
(0.0013916332 1.1372963e-07 0)
(0.0013649182 -1.0650796e-07 0)
(0.0013899668 9.9931193e-08 0)
(0.0013665224 -9.3704496e-08 0)
(0.0013884827 8.7900924e-08 0)
(0.0013679216 -8.2455634e-08 0)
(0.001387174 7.7362286e-08 0)
(0.0013691507 -7.2591885e-08 0)
(0.0013860216 6.8128733e-08 0)
(0.0013702325 -6.3950735e-08 0)
(0.0013850063 6.0043492e-08 0)
(0.0013711856 -5.6387322e-08 0)
(0.0013841112 5.2970217e-08 0)
(0.0013720263 -4.977427e-08 0)
(0.0013833213 4.6789621e-08 0)
(0.0013727686 -4.399999e-08 0)
(0.0013826232 4.1397366e-08 0)
(0.001373425 -3.8966954e-08 0)
(0.0013820053 3.6702352e-08 0)
(0.0013740067 -3.4590123e-08 0)
(0.001381457 3.2625227e-08 0)
(0.0013745234 -3.0795536e-08 0)
(0.0013809693 2.9097084e-08 0)
(0.0013749838 -2.7519067e-08 0)
(0.0013805338 2.6058305e-08 0)
(0.0013753957 -2.4705346e-08 0)
(0.0013801433 2.3457551e-08 0)
(0.0013757661 -2.2306828e-08 0)
(0.0013797912 2.1250902e-08 0)
(0.0013761012 -2.0282999e-08 0)
(0.0013794715 1.9401119e-08 0)
(0.0013764066 -1.8599715e-08 0)
(0.0013791789 1.7877045e-08 0)
(0.0013766874 -1.7228662e-08 0)
(0.0013789085 1.6653137e-08 0)
(0.0013769485 -1.614699e-08 0)
(0.0013786556 1.5709212e-08 0)
(0.0013771941 -1.533726e-08 0)
(0.001378416 1.5030533e-08 0)
(0.0013774285 -1.478894e-08 0)
(0.001378186 1.4610445e-08 0)
(0.001377662 -1.4469377e-08 0)
(0.0013780094 1.4967467e-08 0)
(0.0037604938 0.00063528077 0)
(0.004162287 4.038317e-07 0)
(0.0039240391 4.3378961e-08 0)
(0.0040512018 4.1053559e-07 0)
(0.0039477594 -4.7785262e-07 0)
(0.0040452658 4.3481079e-07 0)
(0.003956425 -4.2090771e-07 0)
(0.0040399795 3.9184051e-07 0)
(0.0039620022 -3.6918157e-07 0)
(0.0040351199 3.4564946e-07 0)
(0.0039666822 -3.2444334e-07 0)
(0.0040307889 3.0421859e-07 0)
(0.0039707676 -2.8543385e-07 0)
(0.0040269686 2.677772e-07 0)
(0.0039743575 -2.5128145e-07 0)
(0.004023604 2.3582512e-07 0)
(0.0039775175 -2.2137151e-07 0)
(0.0040206397 2.0784334e-07 0)
(0.003980302 -1.9519428e-07 0)
(0.0040180261 1.83364e-07 0)
(0.0039827581 -1.7230739e-07 0)
(0.0040157193 1.6197481e-07 0)
(0.0039849271 -1.5232423e-07 0)
(0.0040136804 1.4331465e-07 0)
(0.0039868456 -1.3490712e-07 0)
(0.0040118753 1.2706816e-07 0)
(0.0039885459 -1.1976167e-07 0)
(0.0040102733 1.1296068e-07 0)
(0.0039900567 -1.0663194e-07 0)
(0.0040088477 1.0075374e-07 0)
(0.0039914034 -9.5295991e-08 0)
(0.0040075744 9.0241013e-08 0)
(0.0039926089 -8.5562219e-08 0)
(0.0040064319 8.1244854e-08 0)
(0.0039936933 -7.7266064e-08 0)
(0.0040054011 7.3613237e-08 0)
(0.0039946749 -7.0267261e-08 0)
(0.0040044645 6.7217207e-08 0)
(0.0039955704 -6.444749e-08 0)
(0.0040036065 6.1948715e-08 0)
(0.0039963947 -5.9708418e-08 0)
(0.0040028125 5.7718846e-08 0)
(0.0039971617 -5.5970147e-08 0)
(0.0040020693 5.4456504e-08 0)
(0.0039978843 -5.316986e-08 0)
(0.0040013641 5.2108633e-08 0)
(0.0039985748 -5.1266718e-08 0)
(0.004000685 5.0564722e-08 0)
(0.0039992571 -5.0858541e-08 0)
(0.0040001361 4.8708636e-08 0)
(0.0061087729 0.001019544 0)
(0.006796436 -5.3904198e-07 0)
(0.0064330274 3.7472729e-07 0)
(0.0066396257 6.9394081e-07 0)
(0.006468356 -8.6624e-07 0)
(0.0066299294 7.7416766e-07 0)
(0.0064825841 -7.6165941e-07 0)
(0.0066211614 7.0641527e-07 0)
(0.0064917999 -6.6705073e-07 0)
(0.006613099 6.2401085e-07 0)
(0.0064995582 -5.8596322e-07 0)
(0.0066059143 5.4933024e-07 0)
(0.0065063361 -5.1546489e-07 0)
(0.0065995762 4.8354703e-07 0)
(0.0065122931 -4.5378037e-07 0)
(0.0065939937 4.2585212e-07 0)
(0.0065175373 -3.9976472e-07 0)
(0.0065890751 3.7532373e-07 0)
(0.0065221584 -3.5249158e-07 0)
(0.0065847383 3.3111959e-07 0)
(0.0065262347 -3.1116094e-07 0)
(0.0065809103 2.9249552e-07 0)
(0.0065298346 -2.7507425e-07 0)
(0.0065775268 2.5879936e-07 0)
(0.006533019 -2.436215e-07 0)
(0.0065745308 2.2946162e-07 0)
(0.0065358416 -2.1627101e-07 0)
(0.0065718719 2.0398632e-07 0)
(0.0065383499 -1.9256047e-07 0)
(0.0065695052 1.8194282e-07 0)
(0.0065405863 -1.7208911e-07 0)
(0.0065673909 1.6295851e-07 0)
(0.0065425884 -1.5451084e-07 0)
(0.0065654934 1.4671254e-07 0)
(0.00654439 -1.3952842e-07 0)
(0.0065637808 1.329303e-07 0)
(0.0065460213 -1.2688844e-07 0)
(0.0065622243 1.2137879e-07 0)
(0.00654751 -1.1637699e-07 0)
(0.0065607977 1.1186259e-07 0)
(0.0065488809 -1.0781611e-07 0)
(0.006559477 1.042206e-07 0)
(0.0065501573 -1.0106068e-07 0)
(0.0065582398 9.8323175e-08 0)
(0.0065513608 -9.5995033e-08 0)
(0.0065570651 9.4072382e-08 0)
(0.0065525114 -9.2537211e-08 0)
(0.0065559324 9.1232872e-08 0)
(0.0065536454 -9.2149551e-08 0)
(0.0065549943 8.747286e-08 0)
(0.0084110835 0.0013736022 0)
(0.0093563163 -2.4390515e-06 0)
(0.0088764496 9.722254e-07 0)
(0.0091611356 9.1772799e-07 0)
(0.0089216859 -1.2408375e-06 0)
(0.0091475458 1.0878128e-06 0)
(0.0089413977 -1.0893294e-06 0)
(0.0091352631 1.006374e-06 0)
(0.0089542446 -9.5251828e-07 0)
(0.0091239772 8.9026383e-07 0)
(0.0089650928 -8.363398e-07 0)
(0.0091139226 7.8388349e-07 0)
(0.0089745762 -7.3564654e-07 0)
(0.0091050528 6.900389e-07 0)
(0.0089829125 -6.4759913e-07 0)
(0.0090972401 6.0771162e-07 0)
(0.0089902517 -5.7050888e-07 0)
(0.0090903566 5.3560749e-07 0)
(0.0089967191 -5.0304396e-07 0)
(0.0090842871 4.7252766e-07 0)
(0.0090024239 -4.4406057e-07 0)
(0.0090789296 4.1741047e-07 0)
(0.0090074623 -3.9256121e-07 0)
(0.009074194 3.6932528e-07 0)
(0.0090119193 -3.4767508e-07 0)
(0.0090700006 3.2745944e-07 0)
(0.0090158701 -3.0864328e-07 0)
(0.0090662787 2.9110525e-07 0)
(0.0090193813 -2.7480599e-07 0)
(0.0090629657 2.596482e-07 0)
(0.0090225121 -2.455912e-07 0)
(0.0090600056 2.325566e-07 0)
(0.0090253153 -2.2050499e-07 0)
(0.0090573488 2.0937254e-07 0)
(0.009027838 -1.9912315e-07 0)
(0.0090549506 1.8970409e-07 0)
(0.0090301227 -1.8108393e-07 0)
(0.0090527705 1.7321862e-07 0)
(0.009032208 -1.6608197e-07 0)
(0.0090507718 1.5963709e-07 0)
(0.0090341288 -1.53863e-07 0)
(0.0090489211 1.4872918e-07 0)
(0.0090359177 -1.4421933e-07 0)
(0.0090471869 1.4030904e-07 0)
(0.009037605 -1.3698402e-07 0)
(0.0090455396 1.3423599e-07 0)
(0.009039219 -1.3203202e-07 0)
(0.0090439498 1.3012786e-07 0)
(0.0090408066 -1.3203373e-07 0)
(0.0090426057 1.244105e-07 0)
(0.010658663 0.0016965387 0)
(0.011839597 -5.2259283e-06 0)
(0.011253886 1.7855415e-06 0)
(0.011615888 1.0779352e-06 0)
(0.011307749 -1.5856777e-06 0)
(0.011598105 1.3629921e-06 0)
(0.011332876 -1.3908842e-06 0)
(0.011582269 1.2798638e-06 0)
(0.011349347 -1.2142241e-06 0)
(0.011567739 1.1338418e-06 0)
(0.011363296 -1.0656077e-06 0)
(0.011554799 9.9856149e-07 0)
(0.011375497 -9.3721556e-07 0)
(0.011543386 8.7904862e-07 0)
(0.011386223 -8.2502424e-07 0)
(0.011533332 7.7417758e-07 0)
(0.011395667 -7.268094e-07 0)
(0.011524475 6.8232567e-07 0)
(0.011403989 -6.4086083e-07 0)
(0.011516665 6.0196919e-07 0)
(0.01141133 -5.6571849e-07 0)
(0.011509771 5.317559e-07 0)
(0.011417813 -5.0011085e-07 0)
(0.011503677 4.705003e-07 0)
(0.011423548 -4.4292829e-07 0)
(0.011498281 4.1716726e-07 0)
(0.011428633 -3.9320389e-07 0)
(0.011493491 3.7085538e-07 0)
(0.011433151 -3.5009696e-07 0)
(0.011489227 3.3078191e-07 0)
(0.01143718 -3.1287876e-07 0)
(0.011485418 2.9626956e-07 0)
(0.011440788 -2.8092006e-07 0)
(0.011481998 2.6673495e-07 0)
(0.011444035 -2.5368039e-07 0)
(0.011478911 2.4167875e-07 0)
(0.011446976 -2.306989e-07 0)
(0.011476105 2.2067711e-07 0)
(0.01144966 -2.1158646e-07 0)
(0.011473532 2.0337439e-07 0)
(0.011452133 -1.9601894e-07 0)
(0.011471149 1.8947685e-07 0)
(0.011454437 -1.8373125e-07 0)
(0.011468916 1.7874691e-07 0)
(0.01145661 -1.7450883e-07 0)
(0.011466794 1.7100518e-07 0)
(0.011458689 -1.6818247e-07 0)
(0.011464746 1.6571449e-07 0)
(0.011460731 -1.6888301e-07 0)
(0.011462983 1.5811072e-07 0)
(0.012849378 0.0019896844 0)
(0.01424645 -8.7774877e-06 0)
(0.013565234 2.7537196e-06 0)
(0.014003912 1.1838679e-06 0)
(0.013626646 -1.8999726e-06 0)
(0.013981506 1.6015839e-06 0)
(0.013657119 -1.6673989e-06 0)
(0.013962086 1.5281826e-06 0)
(0.013677195 -1.4532076e-06 0)
(0.0139443 1.3557717e-06 0)
(0.013694246 -1.2747076e-06 0)
(0.013928472 1.1942554e-06 0)
(0.013709167 -1.1210062e-06 0)
(0.013914511 1.0513597e-06 0)
(0.013722286 -9.8679189e-07 0)
(0.013902214 9.2594033e-07 0)
(0.013733837 -8.6931539e-07 0)
(0.013891381 8.1608684e-07 0)
(0.013744015 -7.665147e-07 0)
(0.013881828 7.1998105e-07 0)
(0.013752993 -6.7664007e-07 0)
(0.013873396 6.3600602e-07 0)
(0.013760923 -5.9816985e-07 0)
(0.013865943 5.6274396e-07 0)
(0.013767938 -5.2977666e-07 0)
(0.013859342 4.9895704e-07 0)
(0.013774156 -4.7030385e-07 0)
(0.013853484 4.4356734e-07 0)
(0.013779683 -4.1874585e-07 0)
(0.013848269 3.9563882e-07 0)
(0.013784611 -3.74231e-07 0)
(0.013843609 3.5436143e-07 0)
(0.013789024 -3.3600667e-07 0)
(0.013839426 3.1903743e-07 0)
(0.013792996 -3.0342642e-07 0)
(0.01383565 2.8906951e-07 0)
(0.013796594 -2.7593899e-07 0)
(0.013832217 2.639506e-07 0)
(0.013799877 -2.5307885e-07 0)
(0.013829069 2.4325515e-07 0)
(0.013802903 -2.3445807e-07 0)
(0.013826154 2.2663138e-07 0)
(0.013805721 -2.1975889e-07 0)
(0.013823422 2.1379411e-07 0)
(0.013808379 -2.0872229e-07 0)
(0.013820826 2.045282e-07 0)
(0.013810924 -2.0113244e-07 0)
(0.013818319 1.9813687e-07 0)
(0.013813419 -2.0276386e-07 0)
(0.013816128 1.886533e-07 0)
(0.014985368 0.002254536 0)
(0.016577436 -1.3042725e-05 0)
(0.015810466 3.8127137e-06 0)
(0.016325107 1.2445834e-06 0)
(0.015878502 -2.1834267e-06 0)
(0.016297627 1.8065415e-06 0)
(0.015914239 -1.9210128e-06 0)
(0.016274608 1.7536464e-06 0)
(0.015937889 -1.6714587e-06 0)
(0.016253569 1.5579779e-06 0)
(0.015958031 -1.4654208e-06 0)
(0.016234857 1.3726481e-06 0)
(0.015975664 -1.2885937e-06 0)
(0.016218356 1.2084534e-06 0)
(0.015991169 -1.134291e-06 0)
(0.016203823 1.0643045e-06 0)
(0.016004819 -9.9925106e-07 0)
(0.016191019 9.380409e-07 0)
(0.016016848 -8.8108515e-07 0)
(0.016179729 8.275776e-07 0)
(0.016027459 -7.7777831e-07 0)
(0.016169763 7.3105677e-07 0)
(0.016036831 -6.8758066e-07 0)
(0.016160954 6.4684897e-07 0)
(0.016045121 -6.0896624e-07 0)
(0.016153153 5.7353164e-07 0)
(0.016052471 -5.4060545e-07 0)
(0.016146229 5.09866e-07 0)
(0.016059003 -4.8134235e-07 0)
(0.016140065 4.5477627e-07 0)
(0.016064828 -4.3017495e-07 0)
(0.016134558 4.0733142e-07 0)
(0.016070043 -3.8623808e-07 0)
(0.016129614 3.667294e-07 0)
(0.016074738 -3.4878867e-07 0)
(0.016125151 3.3228356e-07 0)
(0.01607899 -3.1719298e-07 0)
(0.016121093 3.0341092e-07 0)
(0.016082871 -2.9091575e-07 0)
(0.016117373 2.7962203e-07 0)
(0.016086447 -2.6951071e-07 0)
(0.016113927 2.6051198e-07 0)
(0.016089778 -2.526117e-07 0)
(0.016110697 2.4575154e-07 0)
(0.016092921 -2.3991794e-07 0)
(0.016107629 2.3509219e-07 0)
(0.016095929 -2.3116374e-07 0)
(0.016104664 2.2767653e-07 0)
(0.016098875 -2.3388683e-07 0)
(0.016102038 2.1629096e-07 0)
(0.017069013 0.0024919495 0)
(0.0188333 -1.795132e-05 0)
(0.0179897 4.9075863e-06 0)
(0.018579166 1.2667595e-06 0)
(0.018063445 -2.4343867e-06 0)
(0.018546356 1.9790647e-06 0)
(0.018104338 -2.1523062e-06 0)
(0.018519739 1.957076e-06 0)
(0.018131518 -1.8695731e-06 0)
(0.018495461 1.7410766e-06 0)
(0.018154729 -1.638302e-06 0)
(0.018473883 1.5342729e-06 0)
(0.018175056 -1.4404737e-06 0)
(0.018454858 1.3507985e-06 0)
(0.01819293 -1.2679598e-06 0)
(0.018438103 1.1896833e-06 0)
(0.018208667 -1.1170029e-06 0)
(0.01842334 1.0485518e-06 0)
(0.018222535 -9.8491307e-07 0)
(0.018410324 9.2507982e-07 0)
(0.018234767 -8.6943417e-07 0)
(0.018398835 8.171916e-07 0)
(0.018245572 -7.6860936e-07 0)
(0.018388679 7.2306611e-07 0)
(0.01825513 -6.8073273e-07 0)
(0.018379685 6.4111345e-07 0)
(0.018263603 -6.0431795e-07 0)
(0.018371702 5.6994914e-07 0)
(0.018271134 -5.3807284e-07 0)
(0.018364596 5.0837077e-07 0)
(0.018277849 -4.8087727e-07 0)
(0.018358246 4.5533769e-07 0)
(0.018283862 -4.3176411e-07 0)
(0.018352546 4.0995336e-07 0)
(0.018289275 -3.8990262e-07 0)
(0.0183474 3.7145016e-07 0)
(0.018294177 -3.5458431e-07 0)
(0.018342722 3.3917626e-07 0)
(0.018298652 -3.2521065e-07 0)
(0.018338432 3.1258422e-07 0)
(0.018302776 -3.012823e-07 0)
(0.018334459 2.9122073e-07 0)
(0.018306616 -2.823889e-07 0)
(0.018330736 2.7471603e-07 0)
(0.01831024 -2.6819059e-07 0)
(0.018327197 2.6279045e-07 0)
(0.018313708 -2.5836902e-07 0)
(0.018323779 2.5442887e-07 0)
(0.018317101 -2.6229379e-07 0)
(0.018320714 2.411162e-07 0)
(0.01910198 0.0027026442 0)
(0.021014838 -2.341503e-05 0)
(0.020103194 5.991058e-06 0)
(0.020765589 1.2571006e-06 0)
(0.020181618 -2.652209e-06 0)
(0.020727586 2.1198701e-06 0)
(0.020227507 -2.3612935e-06 0)
(0.020697396 2.1387197e-06 0)
(0.02025816 -2.0476116e-06 0)
(0.020669904 1.9051809e-06 0)
(0.020284408 -1.7934336e-06 0)
(0.020645486 1.6792189e-06 0)
(0.020307403 -1.5767245e-06 0)
(0.02062396 1.4784725e-06 0)
(0.020327623 -1.3878683e-06 0)
(0.020605003 1.3021446e-06 0)
(0.020345426 -1.2226328e-06 0)
(0.020588302 1.1476792e-06 0)
(0.020361115 -1.0780532e-06 0)
(0.020573576 1.0125401e-06 0)
(0.020374954 -9.5165595e-07 0)
(0.020560578 8.9445663e-07 0)
(0.020387177 -8.4129864e-07 0)
(0.020549088 7.9143611e-07 0)
(0.02039799 -7.4511391e-07 0)
(0.020538913 7.0173858e-07 0)
(0.020407576 -6.614749e-07 0)
(0.020529881 6.2384884e-07 0)
(0.020416096 -5.8896721e-07 0)
(0.020521841 5.5645093e-07 0)
(0.020423694 -5.2636474e-07 0)
(0.020514657 4.9840589e-07 0)
(0.020430497 -4.7260883e-07 0)
(0.020508208 4.4873242e-07 0)
(0.020436621 -4.2679013e-07 0)
(0.020502386 4.0659029e-07 0)
(0.020442167 -3.8813299e-07 0)
(0.020497093 3.7126587e-07 0)
(0.02044723 -3.5598205e-07 0)
(0.02049224 3.4215964e-07 0)
(0.020451895 -3.2979022e-07 0)
(0.020487745 3.1877463e-07 0)
(0.02045624 -3.0910709e-07 0)
(0.020483532 3.0070409e-07 0)
(0.02046034 -2.9355665e-07 0)
(0.020479529 2.8763952e-07 0)
(0.020464264 -2.8276579e-07 0)
(0.020475661 2.7841439e-07 0)
(0.020468099 -2.8796088e-07 0)
(0.020472155 2.6316298e-07 0)
(0.021085448 0.002887383 0)
(0.023122921 -2.9335556e-05 0)
(0.022151174 7.0245869e-06 0)
(0.022883867 1.2224877e-06 0)
(0.022233169 -2.8388254e-06 0)
(0.022841224 2.2300587e-06 0)
(0.022283826 -2.5480772e-06 0)
(0.0228075 2.2988653e-06 0)
(0.022317887 -2.2056752e-06 0)
(0.022776828 2.0504395e-06 0)
(0.022347131 -1.9309306e-06 0)
(0.022749605 1.8076053e-06 0)
(0.022372759 -1.697452e-06 0)
(0.022725611 1.5915779e-06 0)
(0.022395296 -1.4941104e-06 0)
(0.022704481 1.401778e-06 0)
(0.022415139 -1.3162236e-06 0)
(0.022685865 1.2355019e-06 0)
(0.022432626 -1.1605783e-06 0)
(0.02266945 1.0900277e-06 0)
(0.022448051 -1.0245079e-06 0)
(0.022654962 9.6291295e-07 0)
(0.022461675 -9.0570526e-07 0)
(0.022642154 8.520129e-07 0)
(0.022473728 -8.0216002e-07 0)
(0.022630813 7.5545472e-07 0)
(0.022484412 -7.1212085e-07 0)
(0.022620746 6.716074e-07 0)
(0.022493909 -6.3406506e-07 0)
(0.022611784 5.990544e-07 0)
(0.022502378 -5.666727e-07 0)
(0.022603776 5.3656966e-07 0)
(0.022509961 -5.0880397e-07 0)
(0.022596588 4.8309683e-07 0)
(0.022516787 -4.594798e-07 0)
(0.022590098 4.3773131e-07 0)
(0.022522969 -4.1786503e-07 0)
(0.022584198 3.9970473e-07 0)
(0.022528613 -3.8325382e-07 0)
(0.022578788 3.6837132e-07 0)
(0.022533813 -3.5505664e-07 0)
(0.022573777 3.4319522e-07 0)
(0.022538657 -3.3278722e-07 0)
(0.022569081 3.2373628e-07 0)
(0.022543226 -3.1603639e-07 0)
(0.022564619 3.0965956e-07 0)
(0.0225476 -3.0437509e-07 0)
(0.022560308 2.9965585e-07 0)
(0.022551872 -3.1087244e-07 0)
(0.022556361 2.8247247e-07 0)
(0.023020332 0.0030469308 0)
(0.025158501 -3.5609167e-05 0)
(0.024133671 7.9783729e-06 0)
(0.024933661 1.1692316e-06 0)
(0.024218239 -2.9985615e-06 0)
(0.024887186 2.3112908e-06 0)
(0.02427337 -2.7129215e-06 0)
(0.024849981 2.4379314e-06 0)
(0.024310765 -2.3439903e-06 0)
(0.024816174 2.1771171e-06 0)
(0.024342955 -2.0510177e-06 0)
(0.024786189 1.9196523e-06 0)
(0.024371174 -1.8028575e-06 0)
(0.024759764 1.6903062e-06 0)
(0.024395993 -1.5868635e-06 0)
(0.024736493 1.4887514e-06 0)
(0.024417845 -1.3979314e-06 0)
(0.024715992 1.3121673e-06 0)
(0.024437101 -1.232626e-06 0)
(0.024697915 1.1576726e-06 0)
(0.024454088 -1.0881113e-06 0)
(0.024681959 1.0226751e-06 0)
(0.024469091 -9.6193634e-07 0)
(0.024667855 9.0489769e-07 0)
(0.024482364 -8.5196586e-07 0)
(0.024655365 8.0235144e-07 0)
(0.024494131 -7.5633987e-07 0)
(0.024644278 7.1330432e-07 0)
(0.024504589 -6.7344119e-07 0)
(0.024634408 6.3625196e-07 0)
(0.024513915 -6.0186789e-07 0)
(0.024625589 5.698923e-07 0)
(0.024522267 -5.4040934e-07 0)
(0.024617673 5.1310346e-07 0)
(0.024529784 -4.8802557e-07 0)
(0.024610525 4.6492468e-07 0)
(0.024536593 -4.4382938e-07 0)
(0.024604027 4.2453975e-07 0)
(0.024542808 -4.0707081e-07 0)
(0.024598069 3.9126245e-07 0)
(0.024548535 -3.7712308e-07 0)
(0.024592551 3.6452274e-07 0)
(0.02455387 -3.5346829e-07 0)
(0.024587379 3.4385068e-07 0)
(0.024558902 -3.3566719e-07 0)
(0.024582464 3.2888733e-07 0)
(0.024563719 -3.2323432e-07 0)
(0.024577718 3.1819138e-07 0)
(0.02456842 -3.3103338e-07 0)
(0.024573332 2.991031e-07 0)
(0.024907358 0.0031820393 0)
(0.027122604 -4.2129681e-05 0)
(0.02605051 8.8316417e-06 0)
(0.026914841 1.1031553e-06 0)
(0.026136947 -3.1367571e-06 0)
(0.026865408 2.3656646e-06 0)
(0.026196204 -2.8561629e-06 0)
(0.026824777 2.5564101e-06 0)
(0.026236852 -2.4628582e-06 0)
(0.026787885 2.285549e-06 0)
(0.026271932 -2.153986e-06 0)
(0.026755187 2.0156424e-06 0)
(0.026302696 -1.8932005e-06 0)
(0.026726375 1.774903e-06 0)
(0.026329753 -1.6663561e-06 0)
(0.026701003 1.5632803e-06 0)
(0.026353577 -1.4679572e-06 0)
(0.026678651 1.3778653e-06 0)
(0.026374571 -1.2943734e-06 0)
(0.026658942 1.215642e-06 0)
(0.026393091 -1.1426226e-06 0)
(0.026641545 1.0738908e-06 0)
(0.026409449 -1.0101301e-06 0)
(0.026626167 9.5022089e-07 0)
(0.02642392 -8.9465375e-07 0)
(0.026612549 8.4254421e-07 0)
(0.026436749 -7.9424048e-07 0)
(0.026600461 7.4904207e-07 0)
(0.026448152 -7.0719213e-07 0)
(0.0265897 6.6813487e-07 0)
(0.02645832 -6.3203647e-07 0)
(0.026580084 5.9845541e-07 0)
(0.026467426 -5.6750217e-07 0)
(0.026571452 5.3882567e-07 0)
(0.026475622 -5.1249703e-07 0)
(0.02656366 4.8823675e-07 0)
(0.026483046 -4.6608922e-07 0)
(0.026556575 4.4583142e-07 0)
(0.026489823 -4.2749086e-07 0)
(0.026550078 4.1088871e-07 0)
(0.026496067 -3.9604311e-07 0)
(0.026544061 3.8280903e-07 0)
(0.026501884 -3.7120057e-07 0)
(0.026538421 3.6109631e-07 0)
(0.026507371 -3.5249707e-07 0)
(0.026533063 3.4537003e-07 0)
(0.026512623 -3.3939125e-07 0)
(0.026527888 3.3406884e-07 0)
(0.026517745 -3.4846339e-07 0)
(0.026523068 3.1312454e-07 0)
(0.026747019 0.0032934514 0)
(0.029016307 -4.8794164e-05 0)
(0.027901376 9.5788319e-06 0)
(0.028827415 1.0291198e-06 0)
(0.027989385 -3.2585307e-06 0)
(0.028775831 2.3955426e-06 0)
(0.028052388 -2.9781467e-06 0)
(0.02873183 2.6548296e-06 0)
(0.028096202 -2.5626244e-06 0)
(0.028691912 2.3761118e-06 0)
(0.028134109 -2.2401668e-06 0)
(0.028656556 2.0958955e-06 0)
(0.028167364 -1.968776e-06 0)
(0.028625406 1.8456476e-06 0)
(0.028196614 -1.7328482e-06 0)
(0.028597977 1.6256098e-06 0)
(0.028222368 -1.5265301e-06 0)
(0.028573812 1.4328114e-06 0)
(0.028245064 -1.3460224e-06 0)
(0.028552505 1.2641261e-06 0)
(0.028265085 -1.1882196e-06 0)
(0.028533697 1.1167277e-06 0)
(0.028282769 -1.0504437e-06 0)
(0.028517071 9.8813084e-07 0)
(0.028298414 -9.3036288e-07 0)
(0.028502348 8.7616438e-07 0)
(0.028312283 -8.2594618e-07 0)
(0.02848928 7.7893725e-07 0)
(0.028324611 -7.354277e-07 0)
(0.028477645 6.9480697e-07 0)
(0.028335604 -6.5727647e-07 0)
(0.02846725 6.2235185e-07 0)
(0.028345449 -5.9017033e-07 0)
(0.028457918 5.6034693e-07 0)
(0.02835431 -5.3297339e-07 0)
(0.028449492 5.0774304e-07 0)
(0.028362336 -4.8471643e-07 0)
(0.028441832 4.6364858e-07 0)
(0.028369663 -4.445798e-07 0)
(0.028434809 4.2731344e-07 0)
(0.028376414 -4.1187764e-07 0)
(0.028428303 3.9811307e-07 0)
(0.028382703 -3.8604118e-07 0)
(0.028422206 3.7552886e-07 0)
(0.028388635 -3.6658059e-07 0)
(0.028416413 3.5916128e-07 0)
(0.028394313 -3.5289994e-07 0)
(0.028410819 3.4734205e-07 0)
(0.028399847 -3.6319264e-07 0)
(0.028405569 3.2461351e-07 0)
(0.028539499 0.0033819018 0)
(0.030840638 -5.5501541e-05 0)
(0.029685947 1.0234764e-05 0)
(0.03067144 9.4769852e-07 0)
(0.02977562 -3.3690856e-06 0)
(0.030618408 2.4032146e-06 0)
(0.029841975 -3.0792331e-06 0)
(0.030571088 2.7337424e-06 0)
(0.029888866 -2.6436694e-06 0)
(0.030528207 2.4492175e-06 0)
(0.029929531 -2.3099244e-06 0)
(0.030490254 2.1607634e-06 0)
(0.029965217 -2.0299092e-06 0)
(0.030456822 1.9028473e-06 0)
(0.029996608 -1.7866266e-06 0)
(0.030427383 1.6760103e-06 0)
(0.030024248 -1.5739027e-06 0)
(0.030401447 1.4772438e-06 0)
(0.030048606 -1.3877956e-06 0)
(0.030378578 1.3033346e-06 0)
(0.030070094 -1.225099e-06 0)
(0.030358392 1.151371e-06 0)
(0.030089073 -1.0830508e-06 0)
(0.030340549 1.0187911e-06 0)
(0.030105864 -9.5924686e-07 0)
(0.030324747 9.0335682e-07 0)
(0.030120749 -8.5159321e-07 0)
(0.03031072 8.0311849e-07 0)
(0.03013398 -7.5826912e-07 0)
(0.030298233 7.1638283e-07 0)
(0.030145779 -6.7769607e-07 0)
(0.030287076 6.416841e-07 0)
(0.030156345 -6.085108e-07 0)
(0.030277059 5.7775936e-07 0)
(0.030165855 -5.4954206e-07 0)
(0.030268016 5.2352685e-07 0)
(0.03017447 -4.9979037e-07 0)
(0.030259795 4.7806718e-07 0)
(0.030182335 -4.5841027e-07 0)
(0.030252256 4.406065e-07 0)
(0.030189581 -4.2469389e-07 0)
(0.030245273 4.1049986e-07 0)
(0.030196331 -3.9805316e-07 0)
(0.030238728 3.8720972e-07 0)
(0.030202698 -3.7797786e-07 0)
(0.030232511 3.7032013e-07 0)
(0.030208792 -3.6381975e-07 0)
(0.030226508 3.5806984e-07 0)
(0.030214729 -3.7526039e-07 0)
(0.030220836 3.3365208e-07 0)
(0.030284667 0.0034481142 0)
(0.032596267 -6.2106014e-05 0)
(0.031404208 1.079188e-05 0)
(0.032446962 8.5456451e-07 0)
(0.031495702 -3.4736735e-06 0)
(0.032393094 2.3908026e-06 0)
(0.031565016 -3.1598466e-06 0)
(0.032342504 2.7937025e-06 0)
(0.031614886 -2.7064167e-06 0)
(0.032296729 2.5053092e-06 0)
(0.031658235 -2.3636564e-06 0)
(0.032256246 2.2106277e-06 0)
(0.03169629 -2.076954e-06 0)
(0.032220589 1.9468367e-06 0)
(0.031729766 -1.8280036e-06 0)
(0.032189192 1.7147758e-06 0)
(0.031759243 -1.6103501e-06 0)
(0.032161531 1.5114213e-06 0)
(0.03178522 -1.4199356e-06 0)
(0.032137142 1.3334959e-06 0)
(0.031808136 -1.2534746e-06 0)
(0.032115613 1.1780222e-06 0)
(0.031828377 -1.1081404e-06 0)
(0.032096583 1.04238e-06 0)
(0.031846284 -9.814731e-07 0)
(0.03207973 9.242794e-07 0)
(0.031862159 -8.7133007e-07 0)
(0.03206477 8.2172598e-07 0)
(0.03187627 -7.7584847e-07 0)
(0.032051453 7.3298732e-07 0)
(0.031888854 -6.9341317e-07 0)
(0.032039552 6.5656383e-07 0)
(0.031900123 -6.226293e-07 0)
(0.03202887 5.9116334e-07 0)
(0.031910266 -5.6229836e-07 0)
(0.032019225 5.3567899e-07 0)
(0.031919454 -5.1139754e-07 0)
(0.032010456 4.8916995e-07 0)
(0.031927842 -4.6906146e-07 0)
(0.032002415 4.5084402e-07 0)
(0.031935571 -4.3456513e-07 0)
(0.031994967 4.2004025e-07 0)
(0.03194277 -4.0730517e-07 0)
(0.031987986 3.9620577e-07 0)
(0.031949562 -3.8675431e-07 0)
(0.031981355 3.7891085e-07 0)
(0.031956061 -3.7221506e-07 0)
(0.031974953 3.6631584e-07 0)
(0.03196239 -3.8471428e-07 0)
(0.031968868 3.4032676e-07 0)
(0.03198207 0.0034927784 0)
(0.034282798 -6.8318532e-05 0)
(0.033057115 1.1089815e-05 0)
(0.034153983 7.3210652e-07 0)
(0.033149656 -3.5772822e-06 0)
(0.034099835 2.3609154e-06 0)
(0.033221551 -3.2202241e-06 0)
(0.034046033 2.8353504e-06 0)
(0.033274303 -2.7513072e-06 0)
(0.03399744 2.5448661e-06 0)
(0.033320259 -2.4017891e-06 0)
(0.033954496 2.2458993e-06 0)
(0.033360614 -2.1102911e-06 0)
(0.033916678 1.9779754e-06 0)
(0.033396116 -1.8573153e-06 0)
(0.033883379 1.7422228e-06 0)
(0.033427377 -1.6361686e-06 0)
(0.033854042 1.5356229e-06 0)
(0.033454927 -1.4427034e-06 0)
(0.033828176 1.3548556e-06 0)
(0.033479231 -1.2735769e-06 0)
(0.033805343 1.1968984e-06 0)
(0.033500697 -1.1259162e-06 0)
(0.033785159 1.0590892e-06 0)
(0.033519689 -9.9722179e-07 0)
(0.033767285 9.3910203e-07 0)
(0.033536526 -8.8531661e-07 0)
(0.033751419 8.3491061e-07 0)
(0.033551492 -7.8830793e-07 0)
(0.033737293 7.4475488e-07 0)
(0.033564838 -7.045547e-07 0)
(0.033724672 6.6711128e-07 0)
(0.03357679 -6.3263962e-07 0)
(0.033713341 6.0066694e-07 0)
(0.033587549 -5.7134489e-07 0)
(0.033703111 5.4429721e-07 0)
(0.033597294 -5.1963111e-07 0)
(0.03369381 4.97046e-07 0)
(0.033606191 -4.7661869e-07 0)
(0.033685281 4.5810798e-07 0)
(0.033614389 -4.4157028e-07 0)
(0.033677382 4.2681051e-07 0)
(0.033622025 -4.1387113e-07 0)
(0.033669978 4.0258899e-07 0)
(0.033629228 -3.929803e-07 0)
(0.033662944 3.8500258e-07 0)
(0.033636122 -3.7815492e-07 0)
(0.033656155 3.7214818e-07 0)
(0.033642831 -3.9160969e-07 0)
(0.033649666 3.4472757e-07 0)
(0.033631161 0.0035166784 0)
(0.03589699 -7.4035016e-05 0)
(0.034647761 1.1089785e-05 0)
(0.035792892 5.8012595e-07 0)
(0.034737521 -3.6848503e-06 0)
(0.035738581 2.3149559e-06 0)
(0.034811614 -3.2609685e-06 0)
(0.035681633 2.8592251e-06 0)
(0.034867152 -2.7788551e-06 0)
(0.035630304 2.5683829e-06 0)
(0.034915632 -2.4247821e-06 0)
(0.035584977 2.2670128e-06 0)
(0.034958216 -2.1303264e-06 0)
(0.035545064 1.9966459e-06 0)
(0.034995682 -1.8749194e-06 0)
(0.035509921 1.758688e-06 0)
(0.035028672 -1.6516734e-06 0)
(0.03547896 1.5501448e-06 0)
(0.035057746 -1.456377e-06 0)
(0.035451662 1.3676753e-06 0)
(0.035083394 -1.2856512e-06 0)
(0.035427565 1.2082302e-06 0)
(0.035106049 -1.136595e-06 0)
(0.035406264 1.0691228e-06 0)
(0.035126091 -1.0066848e-06 0)
(0.035387399 9.4800552e-07 0)
(0.035143861 -8.93723e-07 0)
(0.035370655 8.4283297e-07 0)
(0.035159655 -7.9579888e-07 0)
(0.035355747 7.5182859e-07 0)
(0.035173741 -7.112558e-07 0)
(0.035342426 6.7345444e-07 0)
(0.035186355 -6.3866296e-07 0)
(0.035330468 6.0638523e-07 0)
(0.035197709 -5.7679093e-07 0)
(0.035319671 5.494856e-07 0)
(0.035207995 -5.245903e-07 0)
(0.035309854 5.017902e-07 0)
(0.035217385 -4.811728e-07 0)
(0.035300852 4.6248565e-07 0)
(0.035226037 -4.4579339e-07 0)
(0.035292514 4.3089185e-07 0)
(0.035234096 -4.1782978e-07 0)
(0.0352847 4.0643601e-07 0)
(0.035241699 -3.9673076e-07 0)
(0.035277276 3.8866889e-07 0)
(0.035248975 -3.8171264e-07 0)
(0.035270113 3.7563908e-07 0)
(0.035256052 -3.9600893e-07 0)
(0.035263229 3.4694721e-07 0)
(0.035231084 0.003520598 0)
(0.0374347 -7.9826047e-05 0)
(0.03617951 1.1259569e-05 0)
(0.037364837 5.393913e-07 0)
(0.036259455 -3.7766955e-06 0)
(0.037309358 2.2594039e-06 0)
(0.036335261 -3.2814984e-06 0)
(0.037249275 2.8661897e-06 0)
(0.036393469 -2.7895184e-06 0)
(0.037195292 2.5764075e-06 0)
(0.036444385 -2.4331111e-06 0)
(0.037147659 2.2744301e-06 0)
(0.036489123 -2.1374867e-06 0)
(0.037105721 2.0032516e-06 0)
(0.036528485 -1.8811931e-06 0)
(0.037068797 1.7645261e-06 0)
(0.036563147 -1.6571969e-06 0)
(0.037036267 1.5552998e-06 0)
(0.036593694 -1.4612495e-06 0)
(0.037007584 1.3722306e-06 0)
(0.036620641 -1.2899562e-06 0)
(0.036982265 1.212261e-06 0)
(0.036644444 -1.1404051e-06 0)
(0.036959884 1.0726961e-06 0)
(0.036665503 -1.0100643e-06 0)
(0.036940063 9.511805e-07 0)
(0.036684173 -8.9672865e-07 0)
(0.036922469 8.4566239e-07 0)
(0.036700768 -7.9848094e-07 0)
(0.036906806 7.5435932e-07 0)
(0.036715568 -7.1365896e-07 0)
(0.036892809 6.7572827e-07 0)
(0.036728822 -6.408271e-07 0)
(0.036880244 6.0843954e-07 0)
(0.036740753 -5.7875173e-07 0)
(0.036868899 5.513539e-07 0)
(0.03675156 -5.2637978e-07 0)
(0.036858583 5.0350262e-07 0)
(0.036761427 -4.8281966e-07 0)
(0.036849124 4.6406911e-07 0)
(0.036770519 -4.4732314e-07 0)
(0.036840363 4.3236998e-07 0)
(0.036778988 -4.1926417e-07 0)
(0.036832151 4.0782769e-07 0)
(0.036786977 -3.9808466e-07 0)
(0.036824351 3.8998734e-07 0)
(0.036794622 -3.8296536e-07 0)
(0.036816824 3.7686443e-07 0)
(0.036802055 -3.9798064e-07 0)
(0.036809558 3.4708022e-07 0)
(0.03678042 0.0035052758 0)
(0.038901537 -8.5297505e-05 0)
(0.037648742 1.1336278e-05 0)
(0.038869436 5.9560434e-07 0)
(0.037715337 -3.8574888e-06 0)
(0.038812092 2.1948737e-06 0)
(0.037792511 -3.2825763e-06 0)
(0.038748923 2.8567886e-06 0)
(0.037853282 -2.783886e-06 0)
(0.038692376 2.5694791e-06 0)
(0.037906544 -2.4272867e-06 0)
(0.038642519 2.2686296e-06 0)
(0.037953357 -2.1322205e-06 0)
(0.03859863 1.998214e-06 0)
(0.037994547 -1.8765309e-06 0)
(0.038559988 1.7601082e-06 0)
(0.038030819 -1.6530868e-06 0)
(0.038525945 1.5514147e-06 0)
(0.038062786 -1.4576275e-06 0)
(0.038495929 1.3688097e-06 0)
(0.038090986 -1.2867622e-06 0)
(0.038469432 1.2092453e-06 0)
(0.038115895 -1.1375858e-06 0)
(0.03844601 1.0700339e-06 0)
(0.038137933 -1.007572e-06 0)
(0.038425267 9.4882639e-07 0)
(0.038157471 -8.9452132e-07 0)
(0.038406854 8.4357602e-07 0)
(0.038174838 -7.9652113e-07 0)
(0.038390462 7.5250494e-07 0)
(0.038190327 -7.1191334e-07 0)
(0.038375813 6.7407403e-07 0)
(0.038204198 -6.3926583e-07 0)
(0.038362663 6.0695688e-07 0)
(0.038216684 -5.7734796e-07 0)
(0.03835079 5.5001705e-07 0)
(0.038227995 -5.2510912e-07 0)
(0.038339994 5.02288e-07 0)
(0.038238322 -4.8165961e-07 0)
(0.038330094 4.6295477e-07 0)
(0.038247837 -4.4625238e-07 0)
(0.038320924 4.313346e-07 0)
(0.038256701 -4.1826127e-07 0)
(0.03831233 4.0684866e-07 0)
(0.038265062 -3.971247e-07 0)
(0.038304166 3.8903911e-07 0)
(0.038273063 -3.8199367e-07 0)
(0.03829629 3.7590342e-07 0)
(0.03828084 -3.9759906e-07 0)
(0.038288654 3.4522242e-07 0)
(0.038277527 0.0034714854 0)
(0.040306468 -8.981273e-05 0)
(0.03904859 1.0872983e-05 0)
(0.040305898 6.6812282e-07 0)
(0.039104997 -3.9356635e-06 0)
(0.040246693 2.1203867e-06 0)