/*--------------------------------*- C++ -*----------------------------------*\
| =========                 |                                                 |
| \\      /  F ield         | OpenFOAM: The Open Source CFD Toolbox           |
|  \\    /   O peration     | Version:  2312                                  |
|   \\  /    A nd           | Website:  www.openfoam.com                      |
|    \\/     M anipulation  |                                                 |
\*---------------------------------------------------------------------------*/
FoamFile
{
    version     2.0;
    format      ascii;
    arch        "LSB;label=32;scalar=64";
    class       surfaceScalarField;
    location    "7";
    object      phi_0;
}
// * * * * * * * * * * * * * * * * * * * * * * * * * * * * * * * * * * * * * //

dimensions      [0 3 -1 0 0 0 0];

oriented        oriented;

internalField   nonuniform List<scalar> 
7870
(
1.8863453e-10
3.2729905e-09
1.7993582e-10
8.6987166e-12
1.3087219e-10
4.9063638e-11
1.4045713e-10
-9.5849334e-12
1.342999e-10
6.1572246e-12
1.349521e-10
-6.5219134e-13
1.331742e-10
1.7778905e-12
1.335186e-10
-3.4439625e-13
1.3264339e-10
8.7519563e-13
1.3323847e-10
-5.9507414e-13
1.3256082e-10
6.7764188e-13
1.3317572e-10
-6.1489109e-13
1.3257221e-10
6.0349802e-13
1.3314122e-10
-5.6899754e-13
1.3259827e-10
5.429445e-13
1.3311023e-10
-5.1195069e-13
1.3262506e-10
4.8517613e-13
1.330825e-10
-4.5743245e-13
1.3264991e-10
4.325858e-13
1.3305819e-10
-4.0827499e-13
1.3267217e-10
3.86018e-13
1.3303693e-10
-3.6476345e-13
1.3269183e-10
3.4510504e-13
1.3301834e-10
-3.2651958e-13
1.3270908e-10
3.0926082e-13
1.3300209e-10
-2.9301689e-13
1.3272417e-10
2.779146e-13
1.3298791e-10
-2.6373746e-13
1.3273735e-10
2.5055987e-13
1.3297556e-10
-2.3821899e-13
1.327488e-10
2.2676314e-13
1.3296486e-10
-2.1606593e-13
1.327587e-10
2.0616011e-13
1.3295565e-10
-1.9694634e-13
1.327672e-10
1.8844722e-13
1.3294778e-10
-1.8058386e-13
1.3277441e-10
1.7337216e-13
1.3294116e-10
-1.667489e-13
1.3278043e-10
1.6072573e-13
1.3293569e-10
-1.5525111e-13
1.3278535e-10
1.5033505e-13
1.3293129e-10
-1.4593596e-13
1.3278924e-10
1.4205167e-13
1.3292793e-10
-1.3869386e-13
1.3279217e-10
1.357561e-13
1.3292548e-10
-1.3330857e-13
1.3279348e-10
1.3200481e-13
1.329211e-10
-1.2762185e-13
1.3278552e-10
1.3558494e-13
-1.2341909e-13
4.7141954e-10
6.2631959e-09
5.0071622e-10
-2.0597942e-11
3.923454e-10
1.5743446e-10
4.0412027e-10
-2.1359781e-11
3.9035286e-10
1.9924619e-11
3.907521e-10
-1.0514226e-12
3.8717062e-10
5.3593549e-12
3.8697683e-10
-1.5059705e-13
3.8556926e-10
2.2827313e-12
3.8625447e-10
-1.2802698e-12
3.8528208e-10
1.6500031e-12
3.8613562e-10
-1.4684041e-12
3.8527086e-10
1.4682451e-12
3.8608668e-10
-1.3847866e-12
3.8530254e-10
1.3270772e-12
3.8604113e-10
-1.25052e-12
3.8533925e-10
1.187062e-12
3.8600007e-10
-1.1182348e-12
3.8537447e-10
1.0581794e-12
3.859645e-10
-9.9829807e-13
3.854064e-10
9.4411253e-13
3.8593364e-10
-8.9200927e-13
3.8543473e-10
8.4401639e-13
3.8590675e-10
-7.9855445e-13
3.8545964e-10
7.5636704e-13
3.8588327e-10
-7.1666189e-13
3.8548146e-10
6.7972073e-13
3.8586278e-10
-6.4506991e-13
3.8550052e-10
6.1282286e-13
3.8584495e-10
-5.8265407e-13
3.855171e-10
5.546119e-13
3.8582948e-10
-5.2845395e-13
3.8553144e-10
5.0420071e-13
3.8581615e-10
-4.8166405e-13
3.8554375e-10
4.6085129e-13
3.8580478e-10
-4.41613e-13
3.855542e-10
4.2395e-13
3.857952e-10
-4.0774196e-13
3.8556294e-10
3.929871e-13
3.8578727e-10
-3.7958605e-13
3.8557007e-10
3.6754085e-13
3.857809e-10
-3.567668e-13
3.8557571e-10
3.4724166e-13
3.8577605e-10
-3.3903671e-13
3.8558007e-10
3.317396e-13
3.8577266e-10
-3.2590272e-13
3.8558203e-10
3.2264176e-13
3.8576494e-10
-3.1053337e-13
3.855624e-10
3.381301e-13
-3.0122305e-13
6.8653671e-10
9.0382842e-09
7.9481944e-10
-1.2888065e-10
6.4680831e-10
3.0544559e-10
6.6041262e-10
-3.4964072e-11
6.3947672e-10
4.0860503e-11
6.3949242e-10
-1.0671096e-12
6.3469677e-10
1.0154975e-11
6.3364281e-10
9.0337877e-13
6.3216385e-10
3.7616572e-12
6.3258119e-10
-1.6975956e-12
6.3168361e-10
2.5475561e-12
6.3244459e-10
-2.2293518e-12
6.3163922e-10
2.2735947e-12
6.3240238e-10
-2.1479086e-12
6.3166157e-10
2.0678785e-12
6.3235874e-10
-1.9476586e-12
6.3169363e-10
1.8521668e-12
6.3231866e-10
-1.7432462e-12
6.3172602e-10
1.6508206e-12
6.3228446e-10
-1.5567335e-12
6.317559e-10
1.4726665e-12
6.3225509e-10
-1.3912018e-12
6.3178259e-10
1.3165106e-12
6.322296e-10
-1.2455834e-12
6.3180613e-10
1.1798332e-12
6.3220739e-10
-1.1179298e-12
6.3182679e-10
1.06031e-12
6.32188e-10
-1.0062878e-12
6.3184485e-10
9.559637e-13
6.3217111e-10
-9.0891824e-13
6.3186058e-10
8.6514032e-13
6.3215646e-10
-8.2433751e-13
6.3187419e-10
7.8646463e-13
6.3214383e-10
-7.513009e-13
6.3188588e-10
7.187939e-13
6.3213304e-10
-6.8876928e-13
6.3189582e-10
6.611767e-13
6.3212395e-10
-6.3587535e-13
6.3190412e-10
6.1282085e-13
6.3211643e-10
-5.9189463e-13
6.319109e-10
5.7306942e-13
6.3211037e-10
-5.5623519e-13
6.3191628e-10
5.4133326e-13
6.3210579e-10
-5.2854301e-13
6.3192055e-10
5.1697199e-13
6.3210273e-10
-5.080776e-13
6.319224e-10
5.0296735e-13
6.3209328e-10
-4.8141085e-13
6.3189275e-10
5.3865808e-13
-4.6879746e-13
9.8654281e-10
1.1513366e-08
1.0717327e-09
-2.1407049e-10
8.9224167e-10
4.8493661e-10
9.0959423e-10
-5.2316609e-11
8.8145341e-10
6.9001305e-11
8.8139022e-10
-1.0039052e-12
8.7552578e-10
1.6019384e-11
8.7372047e-10
2.7086972e-12
8.7223967e-10
5.2424209e-12
8.7240201e-10
-1.8599151e-12
8.7159511e-10
3.3544328e-12
8.7226535e-10
-2.8995702e-12
8.7152467e-10
3.0142629e-12
8.7223349e-10
-2.8566989e-12
8.7153915e-10
2.7622166e-12
8.7219254e-10
-2.6010214e-12
8.7156675e-10
2.4779616e-12
8.7215377e-10
-2.3302532e-12
8.7159622e-10
2.2083723e-12
8.7212112e-10
-2.0816336e-12
8.7162394e-10
1.9698465e-12
8.7209335e-10
-1.8606241e-12
8.7164888e-10
1.7609784e-12
8.7206936e-10
-1.6660737e-12
8.7167096e-10
1.5782215e-12
8.7204846e-10
-1.4954394e-12
8.7169038e-10
1.4183846e-12
8.7203022e-10
-1.3461403e-12
8.7170737e-10
1.2788051e-12
8.7201432e-10
-1.2158766e-12
8.7172218e-10
1.1572783e-12
8.7200053e-10
-1.1026856e-12
8.7173501e-10
1.0519781e-12
8.7198863e-10
-1.004919e-12
8.7174604e-10
9.6138726e-13
8.7197847e-10
-9.2119736e-13
8.717554e-10
8.8424032e-13
8.7196989e-10
-8.5036572e-13
8.7176324e-10
8.1948045e-13
8.719628e-10
-7.9145487e-13
8.7176964e-10
7.6622911e-13
8.7195707e-10
-7.4366897e-13
8.7177473e-10
7.2368071e-13
8.7195276e-10
-7.0657387e-13
8.7177889e-10
6.9084118e-13
8.7195006e-10
-6.7924472e-13
8.7178082e-10
6.7220951e-13
8.7193964e-10
-6.4023105e-13
8.717435e-10
7.3479239e-13
-6.257425e-13
1.159054e-09
1.3815937e-08
1.3275764e-09
-3.8259284e-10
1.1308838e-09
6.8162923e-10
1.1519488e-09
-7.3381629e-11
1.1162874e-09
1.0466276e-10
1.1164457e-09
-1.1621907e-12
1.1096314e-09
2.283363e-11
1.1072091e-09
5.1309821e-12
1.1057976e-09
6.6539026e-12
1.1057189e-09
-1.7811717e-12
1.1050169e-09
4.0564134e-12
1.1055982e-09
-3.4808364e-12
1.1049269e-09
3.6855077e-12
1.1055799e-09
-3.5096841e-12
1.1049349e-09
3.4072633e-12
1.1055424e-09
-3.2085377e-12
1.1049582e-09
3.0621646e-12
1.1055053e-09
-2.877289e-12
1.1049847e-09
2.7288967e-12
1.1054744e-09
-2.5712501e-12
1.1050102e-09
2.4339732e-12
1.1054483e-09
-2.2987191e-12
1.1050334e-09
2.1759315e-12
1.1054259e-09
-2.0586249e-12
1.1050539e-09
1.9501946e-12
1.1054064e-09
-1.847924e-12
1.105072e-09
1.7527355e-12
1.1053894e-09
-1.6634799e-12
1.1050879e-09
1.5802526e-12
1.1053745e-09
-1.5024895e-12
1.1051018e-09
1.4300356e-12
1.1053616e-09
-1.3625576e-12
1.1051138e-09
1.2998456e-12
1.1053505e-09
-1.2416677e-12
1.1051241e-09
1.1878214e-12
1.105341e-09
-1.1381272e-12
1.1051328e-09
1.0924069e-12
1.105333e-09
-1.0505142e-12
1.1051402e-09
1.0122985e-12
1.1053263e-09
-9.7762978e-13
1.1051462e-09
9.4640989e-13
1.105321e-09
-9.1848363e-13
1.1051509e-09
8.9372421e-13
1.1053169e-09
-8.7258388e-13
1.105155e-09
8.5283455e-13
1.1053146e-09
-8.3890316e-13
1.105157e-09
8.2979103e-13
1.1053037e-09
-7.8690462e-13
1.105114e-09
9.2448454e-13
-7.7060106e-13
1.4068948e-09
1.5870668e-08
1.574284e-09
-5.4998203e-10
1.361403e-09
8.9451028e-10
1.3869585e-09
-9.8937194e-11
1.3439701e-09
1.4765122e-10
1.3446546e-09
-1.8466708e-12
1.337001e-09
3.0487171e-11
1.3341176e-09
8.0143466e-12
1.3328401e-09
7.9314273e-12
1.3325356e-09
-1.4766882e-12
1.3319496e-09
4.6423514e-12
1.3324441e-09
-3.9752949e-12
1.3318458e-09
4.2837841e-12
1.3324422e-09
-4.1059686e-12
1.3318485e-09
4.000896e-12
1.3324087e-09
-3.7686991e-12
1.3318678e-09
3.603031e-12
1.3323734e-09
-3.3828624e-12
1.3318914e-09
3.2108983e-12
1.3323444e-09
-3.0242314e-12
1.3319146e-09
2.8637374e-12
1.3323202e-09
-2.7042646e-12
1.3319359e-09
2.5601983e-12
1.3322994e-09
-2.4221261e-12
1.3319549e-09
2.2946917e-12
1.3322813e-09
-2.174372e-12
1.3319717e-09
2.0623994e-12
1.3322656e-09
-1.9573871e-12
1.3319864e-09
1.8594326e-12
1.3322518e-09
-1.7679244e-12
1.3319992e-09
1.6826217e-12
1.3322399e-09
-1.6032013e-12
1.3320103e-09
1.5293533e-12
1.3322295e-09
-1.4608682e-12
1.3320199e-09
1.3974521e-12
1.3322207e-09
-1.3389461e-12
1.332028e-09
1.2850942e-12
1.3322133e-09
-1.2357665e-12
1.3320348e-09
1.1907473e-12
1.3322071e-09
-1.1499161e-12
1.3320404e-09
1.1131311e-12
1.3322022e-09
-1.0802197e-12
1.3320449e-09
1.0510255e-12
1.3321984e-09
-1.026147e-12
1.3320487e-09
1.0025586e-12
1.3321965e-09
-9.866637e-13
1.332051e-09
9.7528815e-13
1.3321854e-09
-9.2139243e-13
1.332004e-09
1.1059665e-12
-9.0219994e-13
1.5839684e-09
1.7748324e-08
1.7987424e-09
-7.6475603e-10
1.5853752e-09
1.1078775e-09
1.6137059e-09
-1.272679e-10
1.5646408e-09
1.9671634e-10
1.5660772e-09
-3.283063e-12
1.5576575e-09
3.890685e-11
1.5544648e-09
1.120708e-11
1.5533705e-09
9.0256294e-12
1.5528568e-09
-9.6299901e-13
1.5523945e-09
5.1046959e-12
1.5528045e-09
-4.385292e-12
1.5522814e-09
4.8068463e-12
1.5528207e-09
-4.6451878e-12
1.5522798e-09
4.5417276e-12
1.5527917e-09
-4.280538e-12
1.5522954e-09
4.0993537e-12
1.5527585e-09
-3.8459496e-12
1.5523161e-09
3.6533184e-12
1.5527315e-09
-3.4396218e-12
1.552337e-09
3.2581978e-12
1.5527091e-09
-3.0763794e-12
1.5523564e-09
2.912924e-12
1.55269e-09
-2.7557649e-12
1.5523738e-09
2.6109311e-12
1.5526734e-09
-2.474038e-12
1.5523891e-09
2.3466628e-12
1.5526589e-09
-2.2271819e-12
1.5524027e-09
2.1156968e-12
1.5526463e-09
-2.0115644e-12
1.5524145e-09
1.9144507e-12
1.5526353e-09
-1.8240598e-12
1.5524247e-09
1.7399731e-12
1.5526258e-09
-1.6620188e-12
1.5524335e-09
1.5898033e-12
1.5526177e-09
-1.5232019e-12
1.552441e-09
1.461873e-12
1.5526109e-09
-1.4057142e-12
1.5524472e-09
1.3544386e-12
1.5526053e-09
-1.3079437e-12
1.5524523e-09
1.2660402e-12
1.5526007e-09
-1.2285405e-12
1.5524564e-09
1.1952643e-12
1.5525972e-09
-1.1669513e-12
1.5524601e-09
1.1397312e-12
1.5525956e-09
-1.1222395e-12
1.5524625e-09
1.1084088e-12
1.5525848e-09
-1.0437035e-12
1.5524131e-09
1.2777369e-12
-1.0198748e-12
1.7885159e-09
1.9421433e-08
2.0127209e-09
-9.8896101e-10
1.7992842e-09
1.3213143e-09
1.8275704e-09
-1.5555413e-10
1.7777421e-09
2.4654461e-10
1.780573e-09
-6.1138964e-12
1.7715844e-09
4.7895436e-11
1.7682619e-09
1.452952e-11
1.7673882e-09
9.8993398e-12
1.7666857e-09
-2.6045612e-13
1.7663519e-09
5.4384772e-12
1.7666802e-09
-4.7135869e-12
1.7662336e-09
5.2534497e-12
1.7667159e-09
-5.127466e-12
1.7662286e-09
5.0289741e-12
1.7666917e-09
-4.7435464e-12
1.7662406e-09
4.5503707e-12
1.7666606e-09
-4.2659202e-12
1.7662585e-09
4.0554634e-12
1.7666357e-09
-3.8167991e-12
1.7662771e-09
3.6167236e-12
1.7666152e-09
-3.41447e-12
1.7662946e-09
3.2335258e-12
1.7665978e-09
-3.0589837e-12
1.7663104e-09
2.8983739e-12
1.7665827e-09
-2.7464048e-12
1.7663244e-09
2.605031e-12
1.7665696e-09
-2.4723911e-12
1.7663366e-09
2.3485956e-12
1.7665581e-09
-2.2329809e-12
1.7663474e-09
2.1251165e-12
1.7665481e-09
-2.0247472e-12
1.7663567e-09
1.9313399e-12
1.7665395e-09
-1.8447733e-12
1.7663647e-09
1.764548e-12
1.7665321e-09
-1.6905841e-12
1.7663715e-09
1.6224495e-12
1.7665259e-09
-1.5600784e-12
1.7663772e-09
1.5031076e-12
1.7665207e-09
-1.4514611e-12
1.7663819e-09
1.4048977e-12
1.7665166e-09
-1.3632181e-12
1.7663856e-09
1.3262245e-12
1.7665134e-09
-1.2947865e-12
1.766389e-09
1.2641684e-12
1.7665122e-09
-1.2454344e-12
1.7663916e-09
1.2289713e-12
1.7665018e-09
-1.1538906e-12
1.766341e-09
1.4385287e-12
-1.1233505e-12
1.9416572e-09
2.0941401e-08
2.2059581e-09
-1.2532619e-09
2.0055888e-09
1.5216836e-09
2.0269337e-09
-1.7689897e-10
1.9832088e-09
2.9026946e-10
1.9880854e-09
-1.0990472e-11
1.9788088e-09
5.7171994e-11
1.9755231e-09
1.781524e-11
1.9748941e-09
1.0528338e-11
1.9740261e-09
6.0753281e-13
1.9738231e-09
5.641419e-12
1.9740723e-09
-4.9627903e-12
1.9737024e-09
5.6233518e-12
1.9741282e-09
-5.5532025e-12
1.9736948e-09
5.462393e-12
1.9741088e-09
-5.1575551e-12
1.9737035e-09
4.9557e-12
1.97408e-09
-4.6424583e-12
1.9737186e-09
4.4169464e-12
1.9740572e-09
-4.1554177e-12
1.973735e-09
3.9389463e-12
1.9740387e-09
-3.7181882e-12
1.9737505e-09
3.5216525e-12
1.974023e-09
-3.3314452e-12
1.9737647e-09
3.1566897e-12
1.9740094e-09
-2.991156e-12
1.9737772e-09
2.8371992e-12
1.9739975e-09
-2.6927243e-12
1.9737883e-09
2.557852e-12
1.9739872e-09
-2.4319115e-12
1.9737979e-09
2.3143708e-12
1.9739782e-09
-2.205029e-12
1.9738063e-09
2.1032329e-12
1.9739705e-09
-2.008923e-12
1.9738135e-09
1.9214899e-12
1.9739639e-09
-1.8409074e-12
1.9738197e-09
1.7666494e-12
1.9739583e-09
-1.698694e-12
1.9738248e-09
1.6365992e-12
1.9739537e-09
-1.580321e-12
1.973829e-09
1.5295647e-12
1.9739499e-09
-1.4841213e-12
1.9738323e-09
1.4437831e-12
1.9739471e-09
-1.4095328e-12
1.9738355e-09
1.3757731e-12
1.9739462e-09
-1.3561331e-12
1.9738383e-09
1.3368897e-12
1.9739364e-09
-1.2520469e-12
1.9737877e-09
1.5872835e-12
-1.2126283e-12
2.1183381e-09
2.2284688e-08
2.3893987e-09
-1.5243224e-09
2.1997836e-09
1.7112987e-09
2.2147294e-09
-1.9184483e-10
2.1815447e-09
3.234542e-10
2.1884212e-09
-1.7866928e-11
2.1793323e-09
6.6260846e-11
2.1762528e-09
2.0894692e-11
2.1758881e-09
1.0893034e-11
2.1748806e-09
1.6150235e-12
2.1748091e-09
5.7128762e-12
2.1749817e-09
-5.1353469e-12
2.174688e-09
5.9170178e-12
2.1750579e-09
-5.92306e-12
2.1746782e-09
5.8421507e-12
2.1750433e-09
-5.5226883e-12
2.1746838e-09
5.3152674e-12
2.1750168e-09
-4.9755169e-12
2.1746961e-09
4.7376401e-12
2.1749961e-09
-4.4553711e-12
2.1747103e-09
4.2247255e-12
2.1749795e-09
-3.9873996e-12
2.174724e-09
3.7771584e-12
2.1749656e-09
-3.5730066e-12
2.1747365e-09
3.3857356e-12
2.1749535e-09
-3.2081523e-12
2.1747477e-09
3.0430337e-12
2.174943e-09
-2.888053e-12
2.1747575e-09
2.7433458e-12
2.1749338e-09
-2.6082421e-12
2.1747661e-09
2.4821079e-12
2.1749258e-09
-2.3648058e-12
2.1747735e-09
2.2555604e-12
2.174919e-09
-2.1543826e-12
2.1747799e-09
2.0605502e-12
2.1749131e-09
-1.9740986e-12
2.1747853e-09
1.8944053e-12
2.1749081e-09
-1.8214987e-12
2.1747899e-09
1.7548559e-12
2.174904e-09
-1.6944705e-12
2.1747936e-09
1.6399928e-12
2.1749007e-09
-1.5912061e-12
2.1747966e-09
1.5479007e-12
2.1748982e-09
-1.5111518e-12
2.1747994e-09
1.4745262e-12
2.1748976e-09
-1.4542943e-12
2.1748023e-09
1.4321618e-12
2.1748886e-09
-1.338304e-12
2.1747527e-09
1.723132e-12
-1.2879198e-12
2.2553939e-09
2.3490919e-08
2.5519223e-09
-1.8208508e-09
2.3836757e-09
1.8795454e-09
2.3948059e-09
-2.0297506e-10
2.3729958e-09
3.4526435e-10
2.3813133e-09
-2.6184466e-11
2.3731539e-09
7.4420252e-11
2.3704677e-09
2.3580845e-11
2.3703707e-09
1.0990058e-11
2.3692524e-09
2.7333355e-12
2.3693114e-09
5.6538439e-12
2.3694092e-09
-5.2331029e-12
2.3691906e-09
6.1355935e-12
2.3695054e-09
-6.2378378e-12
2.3691788e-09
6.1687692e-12
2.3694954e-09
-5.8392909e-12
2.3691814e-09
5.6292675e-12
2.3694712e-09
-5.2652714e-12
2.3691912e-09
5.0176453e-12
2.3694526e-09
-4.7167594e-12
2.3692032e-09
4.4741226e-12
2.3694379e-09
-4.2221609e-12
2.369215e-09
4.0000813e-12
2.3694257e-09
-3.7837009e-12
2.3692259e-09
3.5855366e-12
2.3694151e-09
-3.3974165e-12
2.3692356e-09
3.2225549e-12
2.3694059e-09
-3.0583974e-12
2.3692442e-09
2.905097e-12
2.3693979e-09
-2.7619935e-12
2.3692517e-09
2.6283501e-12
2.3693909e-09
-2.5041009e-12
2.3692582e-09
2.3883474e-12
2.3693849e-09
-2.2811776e-12
2.3692637e-09
2.1817564e-12
2.3693798e-09
-2.0901856e-12
2.3692685e-09
2.0057468e-12
2.3693755e-09
-1.9285223e-12
2.3692725e-09
1.857909e-12
2.3693719e-09
-1.7939415e-12
2.3692757e-09
1.7362147e-12
2.369369e-09
-1.6845068e-12
2.3692783e-09
1.6386131e-12
2.3693668e-09
-1.5996788e-12
2.3692809e-09
1.5604787e-12
2.3693665e-09
-1.539944e-12
2.3692838e-09
1.5148596e-12
2.3693584e-09
-1.4128308e-12
2.3692361e-09
1.8453786e-12
-1.3496025e-12
2.424952e-09
2.4527592e-08
2.7068639e-09
-2.1027626e-09
2.5586606e-09
2.0277486e-09
2.5691075e-09
-2.134219e-10
2.5579136e-09
3.5645814e-10
2.5669104e-09
-3.5181186e-11
2.5603498e-09
8.0980782e-11
2.5581908e-09
2.5739857e-11
2.5583448e-09
1.0835993e-11
2.5571442e-09
3.934013e-12
2.5573315e-09
5.4665255e-12
2.5573553e-09
-5.2569119e-12
2.5572101e-09
6.2807992e-12
2.5574707e-09
-6.4984435e-12
2.5571965e-09
6.4430279e-12
2.5574651e-09
-6.1079118e-12
2.5571963e-09
5.8981083e-12
2.5574431e-09
-5.5120964e-12
2.5572035e-09
5.2572584e-12
2.5574266e-09
-4.9398674e-12
2.5572134e-09
4.6873789e-12
2.5574139e-09
-4.4226991e-12
2.5572233e-09
4.1906249e-12
2.5574033e-09
-3.9637189e-12
2.5572326e-09
3.7562709e-12
2.5573943e-09
-3.5591166e-12
2.5572409e-09
3.3759233e-12
2.5573864e-09
-3.2039103e-12
2.5572483e-09
3.0432539e-12
2.5573796e-09
-2.8933078e-12
2.5572547e-09
2.7532355e-12
2.5573736e-09
-2.6230474e-12
2.5572602e-09
2.5017238e-12
2.5573685e-09
-2.3894339e-12
2.557265e-09
2.285231e-12
2.5573641e-09
-2.1892874e-12
2.5572691e-09
2.1007897e-12
2.5573604e-09
-2.0198778e-12
2.5572725e-09
1.9458687e-12
2.5573574e-09
-1.8788418e-12
2.5572753e-09
1.8183364e-12
2.5573549e-09
-1.7641282e-12
2.5572775e-09
1.7160239e-12
2.557353e-09
-1.6752155e-12
2.5572797e-09
1.6337445e-12
2.557353e-09
-1.6131686e-12
2.5572827e-09
1.5851196e-12
2.5573457e-09
-1.4758309e-12
2.5572376e-09
1.9534863e-12
-1.3981818e-12
2.5523029e-09
2.5436914e-08
2.8471948e-09
-2.3976545e-09
2.7287002e-09
2.1462432e-09
2.7381178e-09
-2.228394e-10
2.7363709e-09
3.5820499e-10
2.7455952e-09
-4.4405461e-11
2.7410058e-09
8.5570163e-11
2.7394399e-09
2.7305727e-11
2.7398119e-09
1.0464003e-11
2.7385572e-09
5.1886473e-12
2.7388709e-09
5.1528674e-12
2.7388206e-09
-5.2066137e-12
2.7387466e-09
6.3547868e-12
2.7389541e-09
-6.7058727e-12
2.7387312e-09
6.6658909e-12
2.7389526e-09
-6.3292812e-12
2.7387283e-09
6.1223732e-12
2.7389328e-09
-5.7165431e-12
2.7387331e-09
5.4569469e-12
2.7389184e-09
-5.1251448e-12
2.7387409e-09
4.8648962e-12
2.7389076e-09
-4.589396e-12
2.738749e-09
4.3491417e-12
2.7388987e-09
-4.1133951e-12
2.7387567e-09
3.8982537e-12
2.7388911e-09
-3.6935526e-12
2.7387636e-09
3.5034251e-12
2.7388846e-09
-3.324865e-12
2.7387697e-09
3.1580787e-12
2.7388789e-09
-3.0024361e-12
2.7387751e-09
2.8570061e-12
2.7388739e-09
-2.7218773e-12
2.7387797e-09
2.5959133e-12
2.7388697e-09
-2.4793662e-12
2.7387837e-09
2.3711816e-12
2.738866e-09
-2.2716038e-12
2.7387871e-09
2.1797275e-12
2.738863e-09
-2.0957517e-12
2.7387899e-09
2.0189166e-12
2.7388604e-09
-1.9493473e-12
2.7387922e-09
1.8865294e-12
2.7388583e-09
-1.8302379e-12
2.7387941e-09
1.7802974e-12
2.7388568e-09
-1.7379226e-12
2.738796e-09
1.6944933e-12
2.738857e-09
-1.6741095e-12
2.7387989e-09
1.643135e-12
2.7388507e-09
-1.5275402e-12
2.7387571e-09
2.0470636e-12
-1.4342595e-12
2.7123646e-09
2.6186174e-08
2.9873464e-09
-2.6726362e-09
2.8925605e-09
2.2410291e-09
2.9009969e-09
-2.3127569e-10
2.9084666e-09
3.5073527e-10
2.9178168e-09
-5.3755699e-11
2.915213e-09
8.8173966e-11
2.9142402e-09
2.8278499e-11
2.9147754e-09
9.9287501e-12
2.9134937e-09
6.4704321e-12
2.9139318e-09
4.714699e-12
2.9138059e-09
-5.0806654e-12
2.9138003e-09
6.3603385e-12
2.9139555e-09
-6.8610432e-12
2.9137829e-09
6.8385247e-12
2.9139579e-09
-6.5042655e-12
2.9137775e-09
6.3028042e-12
2.9139403e-09
-5.8793187e-12
2.9137799e-09
5.6173309e-12
2.9139279e-09
-5.2731904e-12
2.9137856e-09
5.0072206e-12
2.913919e-09
-4.7227723e-12
2.913792e-09
4.476119e-12
2.9139118e-09
-4.2331927e-12
2.9137981e-09
4.0119244e-12
2.9139057e-09
-3.8011425e-12
2.9138036e-09
3.6054598e-12
2.9139004e-09
-3.4216422e-12
2.9138085e-09
3.2499362e-12
2.9138958e-09
-3.0897268e-12
2.9138128e-09
2.9399961e-12
2.9138919e-09
-2.8009104e-12
2.9138165e-09
2.6712231e-12
2.9138884e-09
-2.5512691e-12
2.9138197e-09
2.4398915e-12
2.9138855e-09
-2.3374068e-12
2.9138224e-09
2.2428224e-12
2.9138831e-09
-2.1563967e-12
2.9138247e-09
2.0772967e-12
2.9138811e-09
-2.0056942e-12
2.9138266e-09
1.9410231e-12
2.9138794e-09
-1.8830597e-12
2.913828e-09
1.8316518e-12
2.9138781e-09
-1.7880138e-12
2.9138297e-09
1.7429448e-12
2.9138785e-09
-1.7229574e-12
2.9138325e-09
1.689148e-12
2.9138732e-09
-1.5682242e-12
2.9137944e-09
2.125851e-12
-1.4585057e-12
2.8316487e-09
2.6816151e-08
3.1153014e-09
-2.956289e-09
3.0524714e-09
2.3038591e-09
3.0580896e-09
-2.3689395e-10
3.0744111e-09
3.3441381e-10
3.0838664e-09
-6.3211034e-11
3.0830216e-09
8.9018768e-11
3.0826065e-09
2.869362e-11
3.0832347e-09
9.3005153e-12
3.0819531e-09
7.7520635e-12
3.0825149e-09
4.1528608e-12
3.0823114e-09
-4.8771577e-12
3.0823712e-09
6.3005056e-12
3.0824751e-09
-6.9648999e-12
3.0823514e-09
6.9622037e-12
3.0824811e-09
-6.6338814e-12
3.0823436e-09
6.4402661e-12
3.0824656e-09
-6.0012789e-12
3.0823438e-09
5.7391632e-12
3.0824553e-09
-5.3847395e-12
3.0823475e-09
5.1150274e-12
3.0824482e-09
-4.8234754e-12
3.0823521e-09
4.5721649e-12
3.0824426e-09
-4.3236913e-12
3.0823567e-09
4.0978332e-12
3.082438e-09
-3.8824108e-12
3.0823609e-09
3.6825273e-12
3.082434e-09
-3.4947187e-12
3.0823646e-09
3.3192821e-12
3.0824305e-09
-3.1556148e-12
3.0823679e-09
3.0026218e-12
3.0824275e-09
-2.8605445e-12
3.0823707e-09
2.7280343e-12
3.0824249e-09
-2.605507e-12
3.0823731e-09
2.4917105e-12
3.0824227e-09
-2.3870319e-12
3.0823752e-09
2.2903973e-12
3.0824209e-09
-2.2021234e-12
3.0823769e-09
2.1213089e-12
3.0824193e-09
-2.0481723e-12
3.0823783e-09
1.9820984e-12
3.0824181e-09
-1.9228671e-12
3.0823794e-09
1.8703532e-12
3.0824171e-09
-1.8257494e-12
3.0823807e-09
1.7793623e-12
3.0824177e-09
-1.759947e-12
3.0823834e-09
1.7234433e-12
3.0824133e-09
-1.5981753e-12
3.0823495e-09
2.1897104e-12
-1.4716363e-12
2.994956e-09
2.728282e-08
3.2465253e-09
-3.2078583e-09
3.2071863e-09
2.3431981e-09
3.2093187e-09
-2.3902635e-10
3.2342383e-09
3.0949423e-10
3.2438202e-09
-7.2792901e-11
3.244451e-09
8.8387971e-11
3.2445483e-09
2.8596287e-11
3.2451902e-09
8.6586111e-12
3.2439383e-09
9.0039358e-12
3.2446201e-09
3.4710011e-12
3.2443376e-09
-4.5945985e-12
3.2444594e-09
6.1786665e-12
3.2445129e-09
-7.01832e-12
3.2444368e-09
7.0383387e-12
3.2445222e-09
-6.7192577e-12
3.2444267e-09
6.5357456e-12
3.2445088e-09
-6.0834086e-12
3.2444247e-09
5.8233185e-12
3.2445006e-09
-5.4606505e-12
3.2444265e-09
5.1891085e-12
3.2444953e-09
-4.8922667e-12
3.2444295e-09
4.6379962e-12
3.2444913e-09
-4.3855746e-12
3.2444325e-09
4.1566299e-12
3.2444881e-09
-3.9379759e-12
3.2444354e-09
3.7352173e-12
3.2444853e-09
-3.5446561e-12
3.2444379e-09
3.3666527e-12
3.2444829e-09
-3.2006112e-12
3.2444402e-09
3.0453716e-12
3.2444809e-09
-2.9012455e-12
3.2444421e-09
2.7667929e-12
3.2444791e-09
-2.6425063e-12
3.2444438e-09
2.5270474e-12
3.2444776e-09
-2.4208707e-12
3.2444452e-09
2.3228286e-12
3.2444763e-09
-2.2332935e-12
3.2444463e-09
2.1513023e-12
3.2444753e-09
-2.0771185e-12
3.2444473e-09
2.0100815e-12
3.2444744e-09
-1.949977e-12
3.2444481e-09
1.8967097e-12
3.2444738e-09
-1.8514313e-12
3.2444491e-09
1.8040481e-12
3.2444745e-09
-1.7853524e-12
3.2444516e-09
1.7463425e-12
3.2444711e-09
-1.6177104e-12
3.2444222e-09
2.2386131e-12
-1.4743935e-12
3.1085594e-09
2.7635885e-08
3.3646855e-09
-3.4639844e-09
3.3578965e-09
2.3499872e-09
3.3561856e-09
-2.3731542e-10
3.3881875e-09
2.7749234e-10
3.3977018e-09
-8.2307209e-11
3.399513e-09
8.6576737e-11
3.4000534e-09
2.8055864e-11
3.4006419e-09
8.0700709e-12
3.3994586e-09
1.0187249e-11
3.4002457e-09
2.6839419e-12
3.3998848e-09
-4.2337242e-12
3.400065e-09
5.998453e-12
3.4000689e-09
-7.0221667e-12
3.4000388e-09
7.0684482e-12
3.4000812e-09
-6.7616324e-12
3.4000266e-09
6.5903374e-12
3.40007e-09
-6.1268117e-12
3.4000226e-09
5.8707817e-12
3.4000638e-09
-5.501893e-12
3.4000226e-09
5.2303601e-12
3.4000603e-09
-4.9300094e-12
3.4000239e-09
4.6744256e-12
3.4000579e-09
-4.4196193e-12
3.4000255e-09
4.1890511e-12
3.400056e-09
-3.9685399e-12
3.400027e-09
3.7641981e-12
3.4000544e-09
-3.5720907e-12
3.4000284e-09
3.3926545e-12
3.4000531e-09
-3.2252938e-12
3.4000297e-09
3.068797e-12
3.400052e-09
-2.9235393e-12
3.4000308e-09
2.7880014e-12
3.400051e-09
-2.6627472e-12
3.4000317e-09
2.546362e-12
3.4000502e-09
-2.4393636e-12
3.4000325e-09
2.3405392e-12
3.4000495e-09
-2.2503136e-12
3.4000331e-09
2.1676687e-12
3.4000489e-09
-2.0929108e-12
3.4000337e-09
2.0253386e-12
3.4000484e-09
-1.964745e-12
3.4000341e-09
1.9110668e-12
3.400048e-09
-1.8653975e-12
3.4000348e-09
1.8173381e-12
3.4000489e-09
-1.7994824e-12
3.400037e-09
1.7581985e-12
3.4000465e-09
-1.627168e-12
3.4000125e-09
2.2726304e-12
-1.4675299e-12
3.2802172e-09
2.7817293e-08
3.4865503e-09
-3.6703174e-09
3.503389e-09
2.3331485e-09
3.499641e-09
-2.3356741e-10
3.5363526e-09
2.4078071e-10
3.5454632e-09
-9.1417765e-11
3.5482008e-09
8.3839087e-11
3.5490967e-09
2.7159997e-11
3.5495947e-09
7.5720649e-12
3.5485272e-09
1.1254757e-11
3.5493876e-09
1.8235275e-12
3.5489532e-09
-3.7993256e-12
3.5491881e-09
5.7635654e-12
3.5491432e-09
-6.9773002e-12
3.5491575e-09
7.054159e-12
3.5491582e-09
-6.762336e-12
3.5491433e-09
6.6052416e-12
3.5491492e-09
-6.1326945e-12
3.5491374e-09
5.8826401e-12
3.549145e-09
-5.5095342e-12
3.5491356e-09
5.2397734e-12
3.5491433e-09
-4.9376568e-12
3.5491353e-09
4.6823521e-12
3.5491424e-09
-4.4266829e-12
3.5491355e-09
4.1959108e-12
3.5491418e-09
-3.9748773e-12
3.5491358e-09
3.7702066e-12
3.5491414e-09
-3.5777235e-12
3.5491361e-09
3.3979554e-12
3.5491411e-09
-3.2302981e-12
3.5491364e-09
3.0735042e-12
3.5491409e-09
-2.9280038e-12
3.5491367e-09
2.7922119e-12
3.5491407e-09
-2.6667567e-12
3.5491369e-09
2.5501587e-12
3.5491405e-09
-2.4429937e-12
3.5491371e-09
2.3439926e-12
3.5491404e-09
-2.2536289e-12
3.5491372e-09
2.1708369e-12
3.5491403e-09
-2.0959631e-12
3.5491373e-09
2.0282702e-12
3.5491401e-09
-1.9675598e-12
3.5491374e-09
1.913802e-12
3.54914e-09
-1.8680178e-12
3.5491378e-09
1.8195978e-12
3.549141e-09
-1.8026768e-12
3.5491398e-09
1.7593906e-12
3.5491395e-09
-1.6269058e-12
3.5491202e-09
2.2919236e-12
-1.4517953e-12
3.395484e-09
2.7883434e-08
3.5928289e-09
-3.8676624e-09
3.64377e-09
2.2822074e-09
3.6399886e-09
-2.2978594e-10
3.6786746e-09
2.0209469e-10
3.687063e-09
-9.9806186e-11
3.6905062e-09
8.0395886e-11
3.6916593e-09
2.6006876e-11
3.6920577e-09
7.1736149e-12
3.6911508e-09
1.2161692e-11
3.6920405e-09
9.3386573e-13
3.6915422e-09
-3.300982e-12
3.6918285e-09
5.4771564e-12
3.6917359e-09
-6.8846066e-12
3.6917929e-09
6.9971751e-12
3.6917533e-09
-6.7227877e-12
3.6917768e-09
6.5817511e-12
3.6917465e-09
-6.1023582e-12
3.6917691e-09
5.8600722e-12
3.6917443e-09
-5.4847286e-12
3.6917656e-09
5.2184223e-12
3.6917442e-09
-4.9162415e-12
3.6917638e-09
4.6627491e-12
3.6917448e-09
-4.4076943e-12
3.6917626e-09
4.1780896e-12
3.6917455e-09
-3.957826e-12
3.6917617e-09
3.7540391e-12
3.6917463e-09
-3.5623118e-12
3.691761e-09
3.3832758e-12
3.691747e-09
-3.2163099e-12
3.6917603e-09
3.0601465e-12
3.6917476e-09
-2.9152612e-12
3.6917598e-09
2.7800181e-12
3.6917481e-09
-2.6551017e-12
3.6917593e-09
2.53898e-12
3.6917486e-09
-2.4322801e-12
3.6917589e-09
2.3336873e-12
3.691749e-09
-2.2437183e-12
3.6917585e-09
2.1612683e-12
3.6917493e-09
-2.0867204e-12
3.6917583e-09
2.0193067e-12
3.6917495e-09
-1.9588392e-12
3.691758e-09
1.9053209e-12
3.6917497e-09
-1.8596892e-12
3.6917581e-09
1.811218e-12
3.6917507e-09
-1.7953024e-12
3.6917598e-09
1.7503207e-12
3.6917502e-09
-1.6172984e-12
3.6917454e-09
2.2967357e-12
-1.427926e-12
3.5588267e-09
2.7786233e-08
3.7065985e-09
-4.0154341e-09
3.7788428e-09
2.209963e-09
3.7763822e-09
-2.2732532e-10
3.8149971e-09
1.6347979e-10
3.8224589e-09
-1.0726792e-10
3.8264082e-09
7.6446471e-11
3.8277317e-09
2.4683403e-11
3.8280402e-09
6.8650811e-12
3.8273258e-09
1.2876083e-11
3.8281985e-09
6.1230709e-14
3.8276501e-09
-2.7526447e-12
3.8279862e-09
5.1410822e-12
3.8278468e-09
-6.7451257e-12
3.8279447e-09
6.8991953e-12
3.8278665e-09
-6.6445201e-12
3.827927e-09
6.5212246e-12
3.8278619e-09
-6.0371976e-12
3.8279176e-09
5.804332e-12
3.8278616e-09
-5.4287096e-12
3.8279126e-09
5.1674527e-12
3.8278632e-09
-4.8668653e-12
3.8279093e-09
4.6166547e-12
3.8278652e-09
-4.3636434e-12
3.8279068e-09
4.1365254e-12
3.8278672e-09
-3.9182779e-12
3.8279047e-09
3.7165425e-12
3.827869e-09
-3.5266604e-12
3.8279029e-09
3.3493813e-12
3.8278707e-09
-3.1840571e-12
3.8279014e-09
3.029417e-12
3.8278721e-09
-2.8859718e-12
3.8279001e-09
2.7520502e-12
3.8278733e-09
-2.6283838e-12
3.8278989e-09
2.5134011e-12
3.8278744e-09
-2.4077737e-12
3.827898e-09
2.3101514e-12
3.8278753e-09
-2.2210891e-12
3.8278971e-09
2.1394515e-12
3.8278761e-09
-2.0656541e-12
3.8278965e-09
1.9989044e-12
3.8278767e-09
-1.9390257e-12
3.8278959e-09
1.8860531e-12
3.8278771e-09
-1.8408322e-12
3.8278957e-09
1.7926113e-12
3.8278781e-09
-1.7777495e-12
3.827897e-09
1.7314092e-12
3.8278785e-09
-1.5987351e-12
3.8278878e-09
2.2873826e-12
-1.3966366e-12
3.6781801e-09
2.7569677e-08
3.8072497e-09
-4.1445037e-09
3.908898e-09
2.1083147e-09
3.9080884e-09
-2.2651567e-10
3.9451865e-09
1.2638166e-10
3.9515981e-09
-1.1367945e-10
3.9558891e-09
7.2155377e-11
3.9573143e-09
2.3258196e-11
3.9575499e-09
6.6294381e-12
3.9570445e-09
1.3381549e-11
3.9578578e-09
-7.521106e-13
3.9572758e-09
-2.1706365e-12
3.9576609e-09
4.7560433e-12
3.9574758e-09
-6.5600292e-12
3.957613e-09
6.7619365e-12
3.9574977e-09
-6.5291539e-12
3.9575938e-09
6.4250846e-12
3.9574954e-09
-5.9386889e-12
3.9575829e-09
5.7167403e-12
3.957497e-09
-5.3427795e-12
3.9575764e-09
5.0880715e-12
3.9575002e-09
-4.7906899e-12
3.9575717e-09
4.5451616e-12
3.9575036e-09
-4.2955724e-12
3.9575679e-09
4.0722044e-12
3.9575068e-09
-3.8571705e-12
3.9575647e-09
3.6586064e-12
3.9575097e-09
-3.4716147e-12
3.957562e-09
3.297075e-12
3.9575122e-09
-3.1343036e-12
3.9575596e-09
2.9820429e-12
3.9575144e-09
-2.8408283e-12
3.9575575e-09
2.7089687e-12
3.9575164e-09
-2.5872332e-12
3.9575558e-09
2.4740248e-12
3.957518e-09
-2.3700513e-12
3.9575542e-09
2.2739387e-12
3.9575194e-09
-2.1862731e-12
3.957553e-09