/*--------------------------------*- C++ -*----------------------------------*\
| =========                 |                                                 |
| \\      /  F ield         | OpenFOAM: The Open Source CFD Toolbox           |
|  \\    /   O peration     | Version:  2312                                  |
|   \\  /    A nd           | Website:  www.openfoam.com                      |
|    \\/     M anipulation  |                                                 |
\*---------------------------------------------------------------------------*/
FoamFile
{
    version     2.0;
    format      ascii;
    arch        "LSB;label=32;scalar=64";
    class       volScalarField;
    location    "7";
    object      T;
}
// * * * * * * * * * * * * * * * * * * * * * * * * * * * * * * * * * * * * * //

dimensions      [0 0 0 1 0 0 0];

internalField   nonuniform List<scalar> 
4000
(
330.1973
328.93496
328.69285
328.63125
328.559
328.51296
328.46879
328.43103
328.3947
328.362
328.3292
328.2991
328.26848
328.2399
328.21081
328.18319
328.15524
328.12829
328.10121
328.07475
328.04835
328.02225
327.99642
327.97059
327.94521
327.91959
327.89461
327.86914
327.84451
327.81916
327.79482
327.76956
327.74549
327.72029
327.69647
327.67131
327.64771
327.62257
327.59919
327.57404
327.55088
327.5257
327.50276
327.47751
327.45482
327.42946
327.40706
327.38147
327.35956
327.33311
332.35444
330.31114
329.64134
329.50186
329.3318
329.23976
329.15349
329.08632
329.02349
328.97151
328.91926
328.87507
328.82937
328.78971
328.74859
328.71185
328.67412
328.6394
328.60428
328.57102
328.53796
328.50577
328.47439
328.44301
328.41302
328.38226
328.35346
328.32316
328.29538
328.26544
328.23856
328.20889
328.18282
328.15333
328.12799
328.09862
328.07396
328.04464
328.02064
327.9913
327.96795
327.93852
327.91583
327.8862
327.86425
327.83427
327.81321
327.78255
327.76294
327.72981
333.68583
331.6343
330.58213
330.36662
330.10129
329.96379
329.83605
329.73963
329.65062
329.5794
329.50791
329.44964
329.38901
329.33826
329.28523
329.23934
329.19195
329.14942
329.10636
329.06625
329.02661
328.9883
328.95144
328.91449
328.87994
328.84401
328.81143
328.77629
328.74541
328.71086
328.68147
328.64737
328.61932
328.58553
328.5587
328.5251
328.49941
328.4659
328.4413
328.40776
328.38424
328.35054
328.32812
328.2941
328.2729
328.2383
328.21858
328.18286
328.16554
328.126
334.5675
332.85972
331.50152
331.21721
330.8623
330.68113
330.51344
330.38836
330.27395
330.18369
330.09345
330.02118
329.94597
329.88417
329.8195
329.76447
329.70762
329.65728
329.60643
329.55948
329.51338
329.46894
329.42671
329.38416
329.34515
329.30404
329.26776
329.22776
329.19384
329.15468
329.12283
329.08429
329.05431
329.01621
328.98793
328.9501
328.92341
328.8857
328.86054
328.82279
328.79912
328.76116
328.73904
328.70062
328.68019
328.64097
328.6226
328.58185
328.56675
328.52119
335.17761
333.9466
332.38169
332.04245
331.60767
331.38639
331.18146
331.02901
330.8905
330.78175
330.67359
330.58759
330.49838
330.42567
330.34979
330.28569
330.21972
330.1616
330.10325
330.04946
329.99714
329.94656
329.89915
329.85101
329.80769
329.76139
329.72154
329.67667
329.63983
329.59603
329.56184
329.51884
329.48702
329.4446
329.41495
329.37288
329.34525
329.30334
329.27766
329.2357
329.21194
329.16971
329.14791
329.10512
329.08547
329.04167
329.02463
328.97891
328.96592
328.91481
335.61392
334.87115
333.20415
332.82923
332.32877
332.07301
331.83494
331.65725
331.49666
331.37035
331.2455
331.14628
331.04394
330.96061
330.87416
330.80118
330.72657
330.6608
330.59532
330.53477
330.47653
330.41988
330.36754
330.31384
330.26642
330.21496
330.17173
330.122
330.08239
330.03398
329.99755
329.95013
329.91657
329.86984
329.8389
329.79261
329.76412
329.71803
329.69189
329.64575
329.62193
329.57546
329.55402
329.50689
329.48804
329.4397
329.42398
329.37341
329.36235
329.30619
335.93242
335.62095
333.9521
333.56389
333.01623
332.73361
332.46797
332.26817
332.08821
331.94581
331.80594
331.69433
331.57999
331.48656
331.39038
331.30884
331.22625
331.15304
331.08094
331.0138
330.95005
330.88744
330.8305
330.77132
330.72008
330.66354
330.61714
330.56262
330.52042
330.46745
330.42896
330.37714
330.34199
330.29098
330.25888
330.2084
330.17915
330.12892
330.1024
330.05212
330.0283
329.97765
329.9566
329.90519
329.88715
329.83437
329.81991
329.76468
329.75533
329.69462
336.16939
336.19957
334.61337
334.23386
333.66078
333.36055
333.07426
332.85645
332.66058
332.5041
332.35133
332.22848
332.10362
332.00082
331.89598
331.80639
331.71662
331.63633
331.55825
331.48477
331.41602
331.34764
331.28652
331.22202
331.1673
331.10578
331.05651
330.9973
330.95276
330.89531
330.85495
330.79882
330.76223
330.70704
330.6739
330.61931
330.58941
330.5351
330.50829
330.45395
330.43019
330.37545
330.35483
330.29924
330.282
330.22493
330.21165
330.15198
330.1441
330.07932
336.34912
336.62128
335.18109
334.82934
334.25423
333.94651
333.64756
333.41671
333.20904
333.04102
332.87792
332.74536
332.61173
332.50056
332.38835
332.29139
332.19541
332.10854
332.02524
331.94579
331.87265
331.79879
331.73398
331.66439
331.60659
331.5403
331.48848
331.42474
331.37814
331.31635
331.27436
331.21404
331.17621
331.11694
331.08293
331.02434
330.99391
330.93564
330.90864
330.85034
330.82672
330.768
330.74783
330.68822
330.67176
330.61059
330.5984
330.53459
330.5279
330.45952
336.48849
336.90876
335.65449
335.34459
334.79007
334.48504
334.18207
333.9438
333.72894
333.55242
333.38193
333.24151
333.10117
332.98286
332.86477
332.76132
332.66028
332.56747
332.47983
332.39491
332.31808
332.23912
332.1712
332.09684
332.03642
331.96561
331.91164
331.84359
331.79524
331.72931
331.68595
331.62162
331.58277
331.51958
331.48488
331.42244
331.39162
331.32954
331.30246
331.24036
331.21694
331.15442
331.13474
331.07128
331.05558
330.99054
330.97934
330.91171
330.90597
330.83439
336.5997
337.08898
336.03788
335.77847
335.264
334.97111
334.67285
334.4331
334.216
334.03439
333.85974
333.71361
333.56884
333.44485
333.32257
333.21368
333.10886
333.01089
332.91993
332.83013
332.75041
332.66685
332.59646
332.51771
332.45522
332.38022
332.32454
332.25245
332.20273
332.1329
332.08848
332.02036
331.98073
331.91384
331.87864
331.81255
331.7815
331.71582
331.68875
331.62306
331.59992
331.5338
331.51463
331.44757
331.4326
331.36397
331.35363
331.28255
331.27753
331.20314
336.69099
337.18965
336.34005
336.13404
335.67416
335.4015
335.11621
334.8809
334.66656
334.48347
334.30808
334.15861
334.01183
333.88384
333.75918
333.64606
333.53885
333.43665
333.34345
333.24951
333.16778
333.08019
333.00805
332.9254
332.86141
332.78263
332.72571
332.64995
332.59924
332.52583
332.48067
332.40904
332.36891
332.29858
332.2631
332.19361
332.1625
332.09344
332.06653
331.99749
331.97469
331.90523
331.8866
331.81622
331.80193
331.73003
331.72044
331.6463
331.6418
331.56495
336.76849
337.23667
336.57233
336.41771
336.02129
335.77508
335.50997
335.28457
335.07779
334.89687
334.72416
334.57383
334.42758
334.29735
334.17223
334.05623
333.94811
333.84271
333.74845
333.65118
333.56838
333.47744
333.4043
333.31831
333.25346
333.17138
333.11373
333.03472
332.98345
332.90684
332.86128
332.78649
332.74614
332.67267
332.63714
332.56455
332.53355
332.46142
332.43477
332.36267
332.3403
332.2678
332.24972
332.17635
332.1627
332.0879
332.07893
332.00214
331.99801
331.91903
336.83588
337.25133
336.74724
336.63826
336.30856
336.09285
335.85354
335.64277
335.44787
335.2726
335.10586
334.95716
334.81393
334.68334
334.55968
334.44221
334.3347
334.22723
334.13311
334.03343
333.95054
333.85699
333.78367
333.69497
333.62991
333.54507
333.48725
333.40546
333.35408
333.27468
333.22911
333.15153
333.11127
333.03503
332.99968
332.92433
332.89364
332.81876
332.79252
332.71769
332.69582
332.62063
332.60312
332.52711
332.51406
332.43675
332.4283
332.34928
332.34539
332.26462
336.89602
337.25004
336.87699
336.80572
336.54116
336.35772
336.14798
335.95551
335.7761
335.60959
335.45182
335.30713
335.1693
335.04017
334.91986
334.80239
334.697
334.58863
334.49588
334.39474
334.31277
334.21741
334.14472
334.054
333.98941
333.90241
333.84498
333.76094
333.70992
333.62821
333.583
333.50308
333.46321
333.38461
333.3497
333.27198
333.24177
333.16452
333.13883
333.06164
333.04035
332.96284
332.94593
332.86767
332.85519
332.77578
332.76777
332.68691
332.68321
332.60095
336.95033
337.24358
336.97278
336.93044
336.72572
336.5742
336.39585
336.22412
336.06293
335.90774
335.76149
335.62296
335.49269
335.36678
335.25159
335.13554
335.03373
334.92564
334.83546
334.73386
334.65378
334.55747
334.48623
334.39422
334.33078
334.24225
334.18579
334.10006
334.04988
333.96637
333.92192
333.84013
333.80097
333.72044
333.68624
333.60656
333.57704
333.49782
333.47281
333.39367
333.37305
333.29362
333.27734
333.19725
333.18532
333.10423
333.0966
333.01432
333.01073
332.92733
337.00003
337.23858
337.04404
337.0222
336.86963
336.74789
336.6009
336.45109
336.30987
336.1679
336.0352
335.90462
335.78376
335.66264
335.55418
335.4409
335.34401
335.23737
335.15087
335.04981
334.97257
334.87616
334.80717
334.71461
334.65301
334.56362
334.50868
334.42186
334.37299
334.28823
334.24493
334.16177
334.12364
334.04167
334.00841
333.92723
333.89859
333.81785
333.79365
333.71299
333.69312
333.61221
333.5966
333.51511
333.50371
333.42138
333.41408
333.33078
333.32731
333.24309
337.0456
337.23789
337.09834
337.08962
336.98037
336.885
336.7678
336.63987
336.51937
336.3918
336.27404
336.15281
336.04282
335.92785
335.82746
335.71819
335.62741
335.52328
335.44151
335.34193
335.26842
335.17276
335.10677
335.01443
334.95528
334.86572
334.81284
334.72556
334.67844
334.593
334.55122
334.46722
334.43044
334.34752
334.31545
334.23325
334.20568
334.12387
334.10063
334.0189
333.99987
333.91792
333.90301
333.82057
333.8097
333.72656
333.71959
333.63567
333.6323
333.54761
337.0876
337.24233
337.14132
337.13984
337.06498
336.99187
336.90171
336.79457
336.69462
336.5819
336.47982
336.3689
336.27082
336.16306
336.07181
335.96758
335.88391
335.78329
335.70714
335.60994
335.54094
335.44683
335.38453
335.29314
335.23705
335.14798
335.09766
335.01053
334.9656
334.88005
334.84016
334.75586
334.72071
334.63735
334.60672
334.52398
334.49766
334.41527
334.39311
334.31078
334.29267
334.21015
334.19598
334.11305
334.10271
334.0192
334.01254
333.9284
333.92515
333.84035
337.12625
337.25121
337.177
337.17841
337.12976
337.0745
337.00793
336.91968
336.83931
336.74122
336.65495
336.55481
336.46924
336.36945
336.28808
336.18974
336.11396
336.01767
335.94788
335.85385
335.79004
335.69824
335.64022
335.55048
335.49797
335.41004
335.36275
335.27638
335.23402
335.14894
335.11126
335.02721
334.99397
334.91068
334.8817
334.79893
334.77403
334.69153
334.67058
334.58812
334.57101
334.48838
334.475
334.39201
334.38224
334.29878
334.29245
334.20848
334.20536
334.12081
337.1619
337.26348
337.20798
337.20939
337.17994
337.13834
337.09156
337.0198
336.9574
336.87316
336.80226
336.71294
336.64004
336.54863
336.47759
336.38574
336.31839
336.2271
336.16423
336.07406
336.01598
335.92715
335.87392
335.78646
335.73798
335.65181
335.60794
335.52291
335.48347
335.39941
335.36423
335.28095
335.24987
335.16717
335.14003
335.05772
335.0344
334.95227
334.93265
334.85052
334.83449
334.7522
334.73965
334.65705
334.64787
334.56488
334.55891
334.47549
334.47252
334.38858
337.19476
337.27786
337.23589
337.23559
337.21973
337.18802
337.15728
337.09932
337.0529
336.98127
336.92485
336.846
336.78552
336.70262
336.64201
336.55702
336.49838
336.4126
336.35701
336.27126
336.2193
336.13401
336.08595
336.00135
335.95726
335.8734
335.83328
335.75013
335.7139
335.63138
335.59896
335.51695
335.48824
335.40661
335.38151
335.30012
335.27852
335.19722
335.17903
335.09769
335.08282
335.0013
334.98965
334.90786
334.89931
334.81718
334.81159
334.7291
334.7263
334.64333
337.2251
337.29338
337.26162
337.25882
337.25229
337.22733
337.20915
337.1623
337.12964
337.06911
337.02592
336.95686
336.90821
336.83366
336.7833
336.7053
336.65542
336.57547
336.52734
336.44642
336.40081
336.31954
336.2769
336.19564
336.15622
336.07515
336.03904
335.95825
335.92547
335.84497
335.81551
335.73525
335.70908
335.62899
335.60606
335.52605
335.50629
335.42627
335.4096
335.32948
335.31583
335.23551
335.22479
335.14422
335.13633
335.05545
335.05027
334.96906
334.96647
334.88482
337.25315
337.30927
337.28565
337.28013
337.27988
337.2592
337.25056
337.21232
337.19114
337.14007
337.10862
337.04845
337.01077
336.94417
336.90361
336.83254
336.79125
336.71725
336.67658
336.60075
336.56159
336.48468
336.44762
336.37009
336.33548
336.25764
336.22569
336.1477
336.11853
336.04047
336.01413
335.93605
335.91256
335.83443
335.81378
335.73558
335.71774
335.63942
335.62434
335.54584
335.53347
335.45475
335.44501
335.36603
335.35883
335.27957
335.27482
335.19525
335.19287
335.11288
337.27914
337.32506
337.30819
337.30013
337.30404
337.28582
337.28422
337.25236
337.24051
337.19723
337.17593
337.12361
337.09584
337.0366
337.00519
336.94081
336.90773
336.83967
336.80627
336.73567
336.70291
336.63057
336.5991
336.5256
336.49588
336.42159
336.3939
336.31906
336.29359
336.21837
336.19524
336.11971
336.09898
336.02321
336.00492
335.92891
335.91306
335.83681
335.82338
335.74687
335.73583
335.65906
335.65034
335.57329
335.56683
335.4895
335.48523
335.40761
335.40546
335.32744
337.30327
337.34046
337.32934
337.31907
337.32577
337.30875
337.31221
337.28489
337.28041
337.24335
337.2306
337.185
337.16597
337.11339
337.09031
337.03222
337.00682
336.94455
336.91809
336.85273
336.82616
336.75853
336.73255
336.66328
336.6384
336.56792
336.54449
336.4731
336.45136
336.37927
336.35938
336.28675
336.26883
336.19574
336.17985
336.10636
336.09255
336.0187
336.00696
335.93278
335.92309
335.8486
335.84092
335.76613
335.76042
335.68534
335.68156
335.60618
335.60428
335.52853
337.32573
337.35534
337.34915
337.33706
337.34568
337.32904
337.33605
337.31182
337.313
337.28075
337.27502
337.23505
337.22354
337.17683
337.16119
337.10888
337.09052
337.03375
337.01378
336.95354
336.93286
336.86996
336.84928
336.78433
336.76418
336.69766
336.67842
336.61069
336.59264
336.52393
336.50728
336.4378
336.42268
336.35256
336.33908
336.26841
336.25663
336.18549
336.17544
336.10388
336.09556
336.02363
336.01701
335.94475
335.93982
335.86726
335.86397
335.79111
335.78946
335.71624
337.34666
337.36964
337.36766
337.35412
337.3641
337.34738
337.35684
337.33459
337.34002
337.31138
337.31127
337.27589
337.27069
337.22907
337.21989
337.17281
337.16075
337.10912
337.09509
337.03977
337.02459
336.96632
336.95065
336.89005
336.87442
336.81197
336.79676
336.73283
336.71837
336.65323
336.63974
336.57362
336.56126
336.49432
336.48323
336.41561
336.40585
336.33766
336.32929
336.2606
336.25363
336.18452
336.17896
336.10948
336.10532
336.03551
336.03274
335.96262
335.96123
335.89077
337.36622
337.38334
337.38491
337.37025
337.38123
337.36419
337.37532
337.35426
337.36279
337.33678
337.34105
337.30935
337.30932
337.272
337.26834
337.22589
337.21935
337.17243
337.16374
337.11307
337.10291
337.04913
337.03811
336.9818
336.9704
336.91203
336.90066
336.8406
336.82957
336.76811
336.75766
336.69505
336.68536
336.62179
336.613
336.54863
336.54084
336.47579
336.46906
336.40345
336.39782
336.33172
336.32721
336.2607
336.25731
336.19045
336.18819
336.12102
336.11988
336.05239
337.38451
337.39645
337.40096
337.38542
337.39717
337.37972
337.39196
337.37158
337.3823
337.35816
337.36576
337.33693
337.34104
337.30733
337.30824
337.26983
337.26803
337.22538
337.22137
337.17502
337.16936
337.11986
337.11306
337.06092
337.05344
336.99909
336.9913
336.93512
336.92732
336.86959
336.86203
336.80301
336.79587
336.73577
336.7292
336.6682
336.66231
336.60055
336.59541
336.53302
336.52869
336.46576
336.46227
336.3989
336.39626
336.33252
336.33075
336.26669
336.2658
336.20143
337.40163
337.40897
337.41585
337.39963
337.41195
337.3941
337.40708
337.38705
337.39927
337.37644
337.38649
337.35989
337.36722
337.33646
337.34109
337.30617
337.30833
337.26949
337.26952
337.22713
337.22542
337.17993
337.17692
337.12876
337.12483
337.0744
337.06989
337.01753
337.01272
336.95873
336.95385
336.89846
336.8937
336.83715
336.83266
336.77512
336.77102
336.71265
336.70903
336.64997
336.64688
336.58724
336.58473
336.52461
336.5227
336.46219
336.46091
336.40007
336.39942
336.3383
337.41767
337.4209
337.42963
337.41287
337.42561
337.4074
337.42085
337.40099
337.4142
337.39229
337.40408
337.37919
337.38895
337.36061
337.36818
337.33622
337.34164
337.30615
337.30957
337.27078
337.27247
337.23071
337.231
337.18662
337.18584
337.13918
337.13762
337.08899
337.08689
337.03658
337.03416
336.98239
336.97983
336.92683
336.92428
336.87023
336.86781
336.81288
336.81068
336.75501
336.75309
336.69681
336.69522
336.63844
336.63722
336.58002
336.57919
336.52167
336.52125
336.46345
337.43267
337.43222
337.44233
337.42513
337.43814
337.41966
337.43338
337.41362
337.42744
337.40618
337.41915
337.39559
337.40712
337.38075
337.39057
337.36113
337.36913
337.33658
337.34278
337.30722
337.31178
337.27344
337.27657
337.23572
337.23769
337.19461
337.19564
337.15061
337.15093
337.1042
337.104
337.05578
337.05523
337.00574
337.00496
336.95439
336.95352
336.90203
336.90114
336.84889
336.84805
336.79516
336.79443
336.74101
336.74044
336.68659
336.6862
336.63203
336.63182
336.5774
337.44668
337.4429
337.45395
337.4364
337.44954
337.43087
337.44472
337.42506
337.43921
337.41845
337.43218
337.40967
337.42243
337.39767
337.40914
337.38184
337.39183
337.36184
337.37026
337.33759
337.34449
337.30927
337.31478
337.2772
337.2815
337.2418
337.24508
337.20347
337.20591
337.16263
337.16438
337.11962
337.12085
337.07481
337.07562
337.02848
337.02899
336.98092
336.98122
336.93236
336.93252
336.883
336.88307
336.83301
336.83303
336.78255
336.78254
336.73174
336.73173
336.68068
337.45969
337.45287
337.46447
337.44664
337.4598
337.44105
337.45491
337.43538
337.44967
337.42934
337.44349
337.42184
337.4354
337.41198
337.42462
337.39913
337.41059
337.38283
337.39296
337.36286
337.37162
337.33922
337.34667
337.3121
337.31835
337.28178
337.28696
337.24859
337.25284
337.21284
337.21629
337.17486
337.17763
337.13493
337.13714
337.09335
337.0951
337.05037
337.05173
337.0062
337.00725
336.96106
336.96184
336.91512
336.91567
336.86852
336.86887
336.8214
336.82157
336.77387
337.47163
337.46201
337.47386
337.45583
337.46892
337.45017
337.46396
337.44463
337.45891
337.43899
337.45333
337.43242
337.44644
337.42417
337.43756
337.41363
337.42613
337.4003
337.4117
337.38387
337.39406
337.3642
337.37317
337.34136
337.34917
337.31552
337.32225
337.28691
337.29267
337.25578
337.26066
337.22239
337.22649
337.187
337.19041
337.14985
337.15266
337.11117
337.11346
337.07119
337.07301
337.03009
337.03149
336.98803
336.98905
336.94517
336.94584
336.90164
336.90197
336.85757
337.48233
337.47019
337.48204
337.46392
337.47687
337.45824
337.4719
337.45285
337.46701
337.44752
337.46187
337.44164
337.45586
337.43459
337.44842
337.42584
337.439
337.41488
337.42715
337.40133
337.41256
337.38499
337.39511
337.3658
337.37483
337.34386
337.35183
337.3193
337.32627
337.2923
337.29835
337.26308
337.26828
337.23183
337.23625
337.19878
337.20249
337.16413
337.1672
337.12807
337.13056
337.09078
337.09273
337.05243
337.05386
337.01315
337.0141
336.97309
336.97356
336.93236
337.49148
337.47724
337.48897
337.47089
337.48366
337.46526
337.47875
337.46005
337.47403
337.45501
337.46923
337.44966
337.46389
337.44352
337.45753
337.43615
337.44968
337.42706
337.43988
337.41585
337.42778
337.40226
337.4132
337.38616
337.39608
337.36756
337.37647
337.34653
337.35445
337.3232
337.33017
337.2977
337.30378
337.27021
337.27545
337.24091
337.24537
337.20997
337.2137
337.17757
337.18061
337.14386
337.14626
337.109
337.11078
337.07313
337.0743
337.03637
337.03696
336.99885
337.49874
337.48302
337.4946
337.47673
337.48931
337.47126
337.48454
337.46629
337.48002
337.46153
337.47553
337.45661
337.4707
337.45119
337.46517
337.44488
337.45853
337.43726
337.45035
337.42792
337.44026
337.41657
337.42805
337.40305
337.41359
337.38729
337.39687
337.36932
337.37793
337.34918
337.35685
337.32699
337.33375
337.30287
337.30874
337.27696
337.282
337.24941
337.25366
337.22037
337.22386
337.18999
337.19275
337.1584
337.16045
337.12573
337.1271
337.09211
337.09279
337.05763
337.50384
337.48743
337.49894
337.48145
337.49386
337.47626
337.48931
337.47158
337.48504
337.46712
337.48085
337.4626
337.47644
337.45775
337.47156
337.45227
337.46585
337.44579
337.45893
337.43794
337.45045
337.42841
337.44016
337.41701
337.42791
337.40364
337.41364
337.38826
337.39734
337.37089
337.37905
337.3516
337.35883
337.33046
337.3368
337.30758
337.31306
337.2831
337.28774
337.25714
337.26097
337.22982
337.23285
337.20126
337.20352
337.17158
337.17308
337.14089
337.14164
337.10929
337.50676
337.49051
337.50204
337.4851
337.49736
337.48032
337.49313
337.476
337.48916
337.47186
337.48526
337.4677
337.48122
337.46332
337.47685
337.4585
337.47186
337.45292
337.46593
337.44623
337.45871
337.43816
337.44997
337.42849
337.43953
337.41709
337.4273
337.40389
337.41323
337.38889
337.39733
337.3721
337.37964
337.35357
337.36022
337.33339
337.33916
337.31166
337.31657
337.28847
337.29254
337.26394
337.26717
337.23816
337.24058
337.21124
337.21285
337.18329
337.18409
337.15439
337.50783
337.49237
337.50403
337.48779
337.4999
337.48351
337.49607
337.47959
337.49242
337.4758
337.48883
337.472
337.48513
337.46802
337.48118
337.46372
337.47675
337.45883
337.47157
337.45306
337.46534
337.44613
337.45783
337.43784
337.44884
337.42805
337.43828
337.41667
337.42608
337.40366
337.41222
337.38901
337.3967
337.37275
337.37956
337.35493
337.36087
337.33563
337.3407
337.31493
337.31914
337.29291
337.29627
337.26966
337.27218
337.24528
337.24696
337.21985
337.22069
337.19346
337.50756
337.49327
337.50506
337.48961
337.50159
337.48592
337.49821
337.48243
337.49492
337.47901
337.49164
337.47554
337.48825
337.47193
337.48465
337.46805
337.48066
337.46369
337.47605
337.45862
337.47057
337.45257
337.46401
337.44537
337.45618
337.43687
337.44697
337.42697
337.43631
337.41561
337.42414
337.40277
337.41047
337.38845
337.3953
337.37268
337.37867
337.35552
337.36065
337.33702
337.34129
337.31725
337.32067
337.29629
337.29885
337.27421
337.27592
337.25109
337.25195
337.22701
337.50653
337.49347
337.50533
337.49073
337.50254
337.48764
337.49964
337.4846
337.49673
337.48155
337.49376
337.47841
337.49066
337.47512
337.48735
337.47157
337.48369
337.46762
337.47951
337.46306
337.47459
337.45769
337.46874
337.45132
337.4618
337.44383
337.45367
337.43511
337.44424
337.42511
337.43348
337.41377
337.42135
337.40109
337.40785
337.38707
337.39301
337.37176
337.37686
337.35519
337.35945
337.33742
337.34083
337.3185
337.32106
337.2985
337.30021
337.27748
337.27834
337.25552
337.50516
337.49321
337.50503
337.49127
337.50289
337.48876
337.50045
337.48616
337.49791
337.48348
337.49526
337.48066
337.49242
337.47764
337.48934
337.47436
337.48593
337.47071
337.48205
337.46651
337.47752
337.46162
337.47219
337.45587
337.46592
337.44915
337.45861
337.44136
337.45017
337.43243
337.44054
337.42232
337.42969
337.411
337.4176
337.39847
337.40427
337.38474
337.38974
337.36985
337.37403
337.35383
337.35719
337.33673
337.33925
337.31859
337.32028
337.29947
337.30032
337.27943
337.50371
337.49269
337.50432
337.49136
337.50274
337.48939
337.50075
337.48721
337.49856
337.48488
337.4962
337.48234
337.49359
337.47955
337.49069
337.47646
337.48745
337.47301
337.48375
337.46905
337.47948
337.46448
337.4745
337.45916
337.4687
337.453
337.462
337.44591
337.45431
337.43783
337.44558
337.4287
337.43576
337.4185
337.42483
337.4072
337.41279
337.39482
337.39964
337.38137
337.38542
337.36688
337.37013
337.35137
337.35382
337.33488
337.33652
337.31746
337.31828
337.29915
337.50226
337.49202
337.50333
337.49113
337.5022
337.48962
337.50061
337.48782
337.49875
337.4858
337.49664
337.4835
337.49421
337.48088
337.49144
337.47792
337.48828
337.47457
337.48467
337.47074
337.48053
337.46634
337.47575
337.4613
337.47026
337.45552
337.46398
337.44893
337.45685
337.44148
337.44881
337.43312
337.43981
337.42381
337.42983
337.41353
337.41885
337.40228
337.40688
337.39005
337.39392
337.37687
337.37998
337.36276
337.3651
337.34773
337.3493
337.33182
337.33261
337.31507
337.50082
337.49128
337.50216
337.49066
337.50136
337.48952
337.50011
337.48805
337.49853
337.48629
337.49663
337.48418
337.49433
337.48167
337.49161
337.47876
337.48846
337.47542
337.48484
337.4716
337.48071
337.46727
337.47601
337.46235
337.47068
337.45679
337.46467
337.45054
337.45792
337.44355
337.45039
337.43576
337.44202
337.42715
337.43279
337.41769
337.42269
337.40737
337.4117
337.39618
337.39982
337.38412
337.38705
337.3712
337.37342
337.35745
337.35894
337.34288
337.34363
337.32752
337.49938
337.49051
337.50085
337.49001
337.50031
337.48917
337.49933
337.48797
337.49798
337.48641
337.49621
337.48442
337.49396
337.48194
337.49122
337.47898
337.48798
337.47555
337.48427
337.47165
337.48005
337.46726
337.47532
337.46235
337.47002
337.45688
337.46414
337.45083
337.45763
337.44413
337.45045
337.43677
337.44255
337.42869
337.43391
337.41987
337.42451
337.41031
337.41433
337.39997
337.40336
337.38886
337.3916
337.37698
337.37905
337.36434
337.36573
337.35094
337.35164
337.33682
337.49793
337.48971
337.49947
337.48924
337.49909
337.48861
337.49832
337.48762
337.49712
337.48619
337.49541
337.48421
337.49312
337.48166
337.49026
337.47857
337.48685
337.47497
337.48294
337.47089
337.47855
337.46634
337.47367
337.46133
337.46831
337.45584
337.46244
337.44985
337.45605
337.44333
337.44908
337.43624
337.44152
337.42855
337.43333
337.42023
337.42449
337.41127
337.41497
337.40164
337.40476
337.39132
337.39385
337.38033
337.38224
337.36864
337.36992
337.35628
337.35692
337.34324
337.49644
337.48891
337.49802
337.48838
337.49774
337.4879
337.49712
337.48703
337.49599
337.48563
337.49424
337.48357
337.4918
337.48085
337.48871
337.47751
337.48503
337.47363
337.48084
337.46927
337.47617
337.46448
337.47107
337.45928
337.46555
337.45367
337.4596
337.44764
337.45322
337.44118
337.44637
337.43426
337.43903
337.42684
337.43116
337.4189
337.42275
337.41041
337.41376
337.40135
337.40418
337.3917
337.39399
337.38145
337.38319
337.37059
337.37176
337.35912
337.35971
337.34704
337.49492
337.4881
337.49652
337.48745
337.49631
337.48706
337.49575
337.48622
337.49459
337.48474
337.49268
337.48247
337.48997
337.47944
337.48654
337.47575
337.48249
337.47149
337.47791
337.46677
337.4729
337.46166
337.46749
337.45618
337.46173
337.45037
337.45563
337.44423
337.44917
337.43775
337.44235
337.43089
337.43513
337.42364
337.4275
337.41597
337.41941
337.40785
337.41085
337.39925
337.40178
337.39014
337.3922
337.38053
337.38209
337.37038
337.37143
337.35969
337.36022
337.34845
337.49335
337.48727
337.49497
337.48646
337.49479
337.4861
337.49424
337.4852
337.49292
337.48349
337.4907
337.48087
337.48758
337.4774
337.48369
337.47323
337.47915
337.46851
337.47412
337.46334
337.46867
337.45782
337.4629
337.45201
337.45684
337.44594
337.45051
337.43961
337.44392
337.43304
337.43706
337.42618
337.4299
337.41902
337.42241
337.41154
337.41456
337.40369
337.40634
337.39546
337.3977
337.38681
337.38863
337.37772
337.3791
337.36818
337.36911
337.35816
337.35863
337.34767
337.49172
337.48643
337.49337
337.48542
337.49321
337.48503
337.49256
337.48393
337.49094
337.48183
337.48824
337.47869
337.48456
337.47465
337.48007
337.46988
337.47496
337.46459
337.46938
337.45891
337.46344
337.45293
337.45725
337.44673
337.45084
337.44034
337.44425
337.43379
337.43748
337.42707
337.43052
337.42016
337.42335
337.41303
337.41595
337.40566
337.40828
337.39803
337.40032
337.39008
337.39203
337.38181
337.38339
337.37317
337.37437
337.36415
337.36496
337.35472
337.35513
337.34488
337.49002
337.48557
337.49172
337.48433
337.49156
337.48382
337.49069
337.48236
337.48858
337.47969
337.48523
337.47586
337.48082
337.47108
337.47561
337.46561
337.46982
337.45967
337.46362
337.4534
337.45715
337.44692
337.45049
337.44029
337.4437
337.43356
337.43681
337.42675
337.42982
337.41984
337.42274
337.41284
337.41553
337.40571
337.40817
337.39841
337.40063
337.39093
337.39288
337.38322
337.38488
337.37525
337.37661
337.36699
337.36803
337.35842
337.35912
337.34951
337.34986
337.34024
337.48823
337.48469
337.49001
337.48319
337.48981
337.48245
337.48857
337.48042
337.48576
337.47696
337.48154
337.47224
337.47625
337.46659
337.47019
337.46032
337.46363
337.45365
337.45676
337.44675
337.44971
337.43973
337.44256
337.43265
337.43537
337.42556
337.42817
337.41847
337.42096
337.41137
337.41373
337.40425
337.40646
337.39708
337.39911
337.38983
337.39167
337.38246
337.38408
337.37494
337.37633
337.36723
337.36837
337.3593
337.36017
337.35113
337.35171
337.34267
337.34296
337.33391
337.48635
337.4838
337.48825
337.482
337.48794
337.48085
337.48611
337.47799
337.48234
337.4735
337.47704
337.46771
337.4707
337.46106
337.4637
337.45389
337.45631
337.44644
337.44872
337.43888
337.44107
337.4313
337.43342
337.42377
337.42583
337.41632
337.41832
337.40895
337.41088
337.40165
337.4035
337.39441
337.39615
337.38719
337.38881
337.37996
337.38144
337.37268
337.374
337.36532
337.36645
337.35784
337.35877
337.3502
337.35091
337.34237
337.34285
337.33432
337.33456
337.32601
337.48436
337.48292
337.48642
337.48074
337.48588
337.47891
337.48318
337.47493
337.47816
337.46915
337.47157
337.46212
337.46404
337.45435
337.456
337.44621
337.44773
337.43795
337.43941
337.42972
337.43115
337.42159
337.42302
337.41361
337.41505
337.40581
337.40723
337.39817
337.39958
337.39068
337.39205
337.38332
337.38464
337.37605
337.37729
337.36884
337.36999
337.36165
337.36267
337.35443
337.35532
337.34715
337.34788
337.33977
337.34033
337.33225
337.33263
337.32456
337.32476
337.31668
337.48223
337.48207
337.48451
337.47937
337.48353
337.47652
337.47961
337.47105
337.47304
337.46372
337.46495
337.45528
337.45611
337.44631
337.44698
337.43717
337.43781
337.42809
337.42876
337.41919
337.41992
337.41053
337.41132
337.40214
337.40298
337.39401
337.3949
337.38613
337.38705
337.37848
337.37941
337.37102
337.37194
337.36371
337.3646
337.35653
337.35736
337.34941
337.35017
337.34233
337.34299
337.33524