/*--------------------------------*- C++ -*----------------------------------*\
| =========                 |                                                 |
| \\      /  F ield         | OpenFOAM: The Open Source CFD Toolbox           |
|  \\    /   O peration     | Version:  2312                                  |
|   \\  /    A nd           | Website:  www.openfoam.com                      |
|    \\/     M anipulation  |                                                 |
\*---------------------------------------------------------------------------*/
FoamFile
{
    version     2.0;
    format      ascii;
    arch        "LSB;label=32;scalar=64";
    class       volVectorField;
    location    "7";
    object      U;
}
// * * * * * * * * * * * * * * * * * * * * * * * * * * * * * * * * * * * * * //

dimensions      [0 1 -1 0 0 0 0];

internalField   nonuniform List<vector> 
4000
(
(0.0023567187 0.00047623473 0)
(0.0063639404 -2.0704699e-05 0)
(0.0031597382 -6.9397451e-07 0)
(0.0038588299 -7.0532767e-07 0)
(0.0036067179 9.2953141e-08 0)
(0.0035839593 -1.9417567e-07 0)
(0.0035903515 9.5722653e-08 0)
(0.0035358327 -1.6111542e-07 0)
(0.0035638456 1.1553664e-07 0)
(0.0035310821 -1.2185833e-07 0)
(0.0035556958 1.0845662e-07 0)
(0.0035325351 -1.0335971e-07 0)
(0.0035528904 9.6749928e-08 0)
(0.0035339718 -9.1306258e-08 0)
(0.0035514562 8.6068016e-08 0)
(0.0035350293 -8.1320327e-08 0)
(0.0035504115 7.6740217e-08 0)
(0.0035359222 -7.2520237e-08 0)
(0.0035495266 6.8481775e-08 0)
(0.0035367285 -6.4714462e-08 0)
(0.0035487429 6.1152804e-08 0)
(0.0035374597 -5.7814746e-08 0)
(0.0035480422 5.4681391e-08 0)
(0.0035381188 -5.1742652e-08 0)
(0.0035474151 4.8994821e-08 0)
(0.0035387107 -4.6419109e-08 0)
(0.0035468534 4.401664e-08 0)
(0.0035392419 -4.1766869e-08 0)
(0.0035463493 3.9672901e-08 0)
(0.0035397196 -3.7714704e-08 0)
(0.0035458951 3.589662e-08 0)
(0.0035401509 -3.419987e-08 0)
(0.0035454839 3.2629649e-08 0)
(0.0035405423 -3.1168757e-08 0)
(0.0035451095 2.982281e-08 0)
(0.0035408999 -2.8576406e-08 0)
(0.0035447661 2.7435147e-08 0)
(0.003541229 -2.6385581e-08 0)
(0.0035444489 2.5432935e-08 0)
(0.0035415343 -2.4565827e-08 0)
(0.0035441533 2.3788773e-08 0)
(0.0035418201 -2.3092806e-08 0)
(0.0035438754 2.2481346e-08 0)
(0.0035420908 -2.1946831e-08 0)
(0.0035436121 2.1499399e-08 0)
(0.0035423509 -2.1109085e-08 0)
(0.0035433547 2.0838759e-08 0)
(0.0035425704 -2.0640922e-08 0)
(0.0035429832 2.0150518e-08 0)
(0.003542464 -2.2240287e-08 0)
(0.0064937476 0.0014662022 0)
(0.0167776 2.619009e-06 0)
(0.0099663237 3.4332459e-05 0)
(0.011036477 -5.1796585e-06 0)
(0.010478902 4.0128374e-06 0)
(0.010381666 -3.0754364e-07 0)
(0.010423571 1.1183257e-06 0)
(0.010261041 -1.2360903e-07 0)
(0.010345689 5.1381652e-07 0)
(0.010248979 -3.1866373e-07 0)
(0.010322339 3.8367474e-07 0)
(0.010253522 -3.4405233e-07 0)
(0.010314463 3.4089498e-07 0)
(0.010257825 -3.2129219e-07 0)
(0.010310317 3.0736928e-07 0)
(0.01026101 -2.8980985e-07 0)
(0.010307202 2.7498333e-07 0)
(0.010263713 -2.5924178e-07 0)
(0.010304537 2.4530806e-07 0)
(0.010266153 -2.3152966e-07 0)
(0.010302177 2.1896288e-07 0)
(0.010268359 -2.0691785e-07 0)
(0.01030007 1.9577444e-07 0)
(0.010270342 -1.8523794e-07 0)
(0.010298186 1.7543459e-07 0)
(0.010272122 -1.6622254e-07 0)
(0.010296499 1.5763768e-07 0)
(0.01027372 -1.4959659e-07 0)
(0.010294983 1.4210646e-07 0)
(0.010275159 -1.3510688e-07 0)
(0.010293616 1.2859877e-07 0)
(0.01027646 -1.2253195e-07 0)
(0.010292376 1.1690818e-07 0)
(0.010277642 -1.1168331e-07 0)
(0.010291246 1.0686124e-07 0)
(0.010278725 -1.024028e-07 0)
(0.010290208 9.8313359e-08 0)
(0.010279722 -9.4558732e-08 0)
(0.010289247 9.114481e-08 0)
(0.010280649 -8.804213e-08 0)
(0.01028835 8.5257191e-08 0)
(0.010281518 -8.2765258e-08 0)
(0.010287504 8.0566221e-08 0)
(0.010282344 -7.866941e-08 0)
(0.0102867 7.7001873e-08 0)
(0.01028314 -7.5636425e-08 0)
(0.010285922 7.4923614e-08 0)
(0.010283861 -7.2292722e-08 0)
(0.010284912 7.7712026e-08 0)
(0.010283744 -7.0228771e-08 0)
(0.013430788 0.0029747785 0)
(0.025837496 -2.2944444e-05 0)
(0.016495274 7.379189e-05 0)
(0.018026904 -9.2742557e-06 0)
(0.017154925 9.5636565e-06 0)
(0.016992341 -3.6485135e-07 0)
(0.017078794 2.4928756e-06 0)
(0.016807402 7.59312e-08 0)
(0.016954798 9.9511735e-07 0)
(0.016791626 -5.051134e-07 0)
(0.016917115 6.9594765e-07 0)
(0.016800162 -6.1345441e-07 0)
(0.016904308 6.1943621e-07 0)
(0.016807616 -5.8456372e-07 0)
(0.016897373 5.6170178e-07 0)
(0.016813092 -5.2935817e-07 0)
(0.016892067 5.0312537e-07 0)
(0.016817743 -4.7391492e-07 0)
(0.016887505 4.4873398e-07 0)
(0.016821932 -4.2333525e-07 0)
(0.016883465 4.0045649e-07 0)
(0.01682571 -3.7835697e-07 0)
(0.016879863 3.5801805e-07 0)
(0.016829103 -3.3872896e-07 0)
(0.016876644 3.2081811e-07 0)
(0.016832145 -3.03968e-07 0)
(0.016873761 2.8827483e-07 0)
(0.016834877 -2.7356967e-07 0)
(0.016871171 2.5987174e-07 0)
(0.016837337 -2.4707045e-07 0)
(0.016868833 2.3516365e-07 0)
(0.016839562 -2.2406635e-07 0)
(0.016866713 2.1377357e-07 0)
(0.016841587 -2.0421428e-07 0)
(0.016864777 1.9538554e-07 0)
(0.016843441 -1.8722637e-07 0)
(0.016862999 1.7973613e-07 0)
(0.01684515 -1.7286255e-07 0)
(0.016861352 1.6660657e-07 0)
(0.01684674 -1.609232e-07 0)
(0.016859813 1.5581631e-07 0)
(0.016848232 -1.5124622e-07 0)
(0.016858361 1.4720614e-07 0)
(0.01684965 -1.4373009e-07 0)
(0.01685698 1.4061713e-07 0)
(0.01685102 -1.3816585e-07 0)
(0.016855646 1.3680192e-07 0)
(0.016852291 -1.3130178e-07 0)
(0.016853994 1.4480667e-07 0)
(0.016852281 -1.2765063e-07 0)
(0.014882314 0.0029847617 0)
(0.034158498 -9.1258205e-05 0)
(0.022834928 0.00013100449 0)
(0.024839067 -1.4031841e-05 0)
(0.02363593 1.7645989e-05 0)
(0.023416524 -3.5926597e-07 0)
(0.023555618 4.2748775e-06 0)
(0.02317491 5.5041703e-07 0)
(0.023391438 1.4994822e-06 0)
(0.02315904 -6.0844005e-07 0)
(0.023340157 9.8755374e-07 0)
(0.02317239 -8.5825388e-07 0)
(0.023322533 8.8345906e-07 0)
(0.02318327 -8.3583721e-07 0)
(0.023312723 8.0668969e-07 0)
(0.023191204 -7.599954e-07 0)
(0.023305099 7.2359798e-07 0)
(0.023197939 -6.8099472e-07 0)
(0.023298518 6.4525295e-07 0)
(0.023203994 -6.0846024e-07 0)
(0.023292692 5.7572679e-07 0)
(0.023209446 -5.4386953e-07 0)
(0.0232875 5.1468641e-07 0)
(0.023214337 -4.869428e-07 0)
(0.023282863 4.6121258e-07 0)
(0.023218719 -4.3699606e-07 0)
(0.02327871 4.1443702e-07 0)
(0.023222654 -3.9330562e-07 0)
(0.023274977 3.7360585e-07 0)
(0.023226199 -3.5520743e-07 0)
(0.023271608 3.3807742e-07 0)
(0.023229407 -3.221242e-07 0)
(0.023268551 3.0731181e-07 0)
(0.023232326 -2.9356618e-07 0)
(0.023265761 2.8085743e-07 0)
(0.023234999 -2.6912226e-07 0)
(0.023263196 2.5833755e-07 0)
(0.023237464 -2.4844887e-07 0)
(0.023260821 2.3943866e-07 0)
(0.023239757 -2.3125918e-07 0)
(0.023258602 2.2390131e-07 0)
(0.02324191 -2.1731907e-07 0)
(0.023256508 2.1149123e-07 0)
(0.023243954 -2.0649383e-07 0)
(0.023254514 2.019397e-07 0)
(0.02324593 -1.9849742e-07 0)
(0.023252593 1.9648504e-07 0)
(0.023247793 -1.876012e-07 0)
(0.023250297 2.1236727e-07 0)
(0.023248018 -1.8302177e-07 0)
(0.02168304 0.0045790611 0)
(0.042073016 -9.1116085e-05 0)
(0.028865095 0.00019153397 0)
(0.031471966 -2.1796078e-05 0)
(0.029921132 2.8187251e-05 0)
(0.029655738 -3.5883988e-07 0)
(0.029852582 6.3962781e-06 0)
(0.029363631 1.2660677e-06 0)
(0.029655474 1.9881347e-06 0)
(0.02935142 -6.2285649e-07 0)
(0.029591364 1.2417487e-06 0)
(0.029370329 -1.0684083e-06 0)
(0.029569026 1.1208798e-06 0)
(0.029384883 -1.064735e-06 0)
(0.029556264 1.0319396e-06 0)
(0.029395426 -9.7209353e-07 0)
(0.029546208 9.2717146e-07 0)
(0.029404371 -8.7181759e-07 0)
(0.029537501 8.2665885e-07 0)
(0.0294124 -7.7916926e-07 0)
(0.029529792 7.3747002e-07 0)
(0.029419617 -6.9654893e-07 0)
(0.029522926 6.5925993e-07 0)
(0.029426085 -6.2369974e-07 0)
(0.029516795 5.907793e-07 0)
(0.029431879 -5.5976229e-07 0)
(0.029511305 5.308781e-07 0)
(0.029437082 -5.0381489e-07 0)
(0.02950637 4.7857894e-07 0)
(0.029441769 -4.5501233e-07 0)
(0.029501915 4.3305982e-07 0)
(0.029446011 -4.1262094e-07 0)
(0.029497871 3.9363276e-07 0)
(0.029449872 -3.7601857e-07 0)
(0.02949418 3.5972314e-07 0)
(0.029453408 -3.446824e-07 0)
(0.029490789 3.3085109e-07 0)
(0.029456668 -3.181745e-07 0)
(0.029487649 3.0661635e-07 0)
(0.029459699 -2.961278e-07 0)
(0.029484716 2.8668699e-07 0)
(0.029462544 -2.7824118e-07 0)
(0.029481948 2.7075689e-07 0)
(0.029465245 -2.643571e-07 0)
(0.029479312 2.5842925e-07 0)
(0.029467855 -2.5414107e-07 0)
(0.029476777 2.5146071e-07 0)
(0.02947034 -2.3899313e-07 0)
(0.029473833 2.7727032e-07 0)
(0.029470909 -2.3386488e-07 0)
(0.024603907 0.0048284341 0)
(0.048992096 -0.00019410275 0)
(0.034763101 0.00026571004 0)
(0.037925641 -2.981196e-05 0)
(0.036008355 4.1352049e-05 0)
(0.035711158 -5.0715369e-07 0)
(0.035968264 8.8004615e-06 0)
(0.035374356 2.1636924e-06 0)
(0.035746577 2.439858e-06 0)
(0.035369233 -5.5651276e-07 0)
(0.035670466 1.4566008e-06 0)
(0.03539429 -1.2469369e-06 0)
(0.035643532 1.3323686e-06 0)
(0.035412707 -1.2728084e-06 0)
(0.035627769 1.23842e-06 0)
(0.035425977 -1.1667577e-06 0)
(0.035615196 1.114775e-06 0)
(0.035437228 -1.0473313e-06 0)
(0.035604278 9.9382058e-07 0)
(0.035447313 -9.363193e-07 0)
(0.035594613 8.8648576e-07 0)
(0.035456366 -8.3716907e-07 0)
(0.035586008 7.9246154e-07 0)
(0.035464474 -7.4969302e-07 0)
(0.035578324 7.1016581e-07 0)
(0.035471737 -6.7288531e-07 0)
(0.035571443 6.3817706e-07 0)
(0.035478258 -6.0565013e-07 0)
(0.035565257 5.7531046e-07 0)
(0.035484134 -5.4698122e-07 0)
(0.035559671 5.2057977e-07 0)
(0.035489453 -4.9600514e-07 0)
(0.035554602 4.7316299e-07 0)
(0.035494293 -4.5198052e-07 0)
(0.035549975 4.3237398e-07 0)
(0.035498725 -4.142832e-07 0)
(0.035545724 3.9763877e-07 0)
(0.035502811 -3.8238894e-07 0)
(0.035541789 3.6847741e-07 0)
(0.035506609 -3.5585646e-07 0)
(0.035538115 3.44491e-07 0)
(0.035510172 -3.3432155e-07 0)
(0.03553465 3.2530448e-07 0)
(0.035513553 -3.1761142e-07 0)
(0.03553135 3.1037481e-07 0)
(0.035516818 -3.0537366e-07 0)
(0.03552818 3.0197635e-07 0)
(0.035519947 -2.8583523e-07 0)
(0.035524586 3.3925445e-07 0)
(0.035520954 -2.8000531e-07 0)
(0.029986753 0.0057032501 0)
(0.055631363 -0.00020381616 0)
(0.040460797 0.00033062284 0)
(0.044116133 -3.6965382e-05 0)
(0.041902202 5.7605797e-05 0)
(0.041586056 -7.7091328e-07 0)
(0.041902555 1.1497697e-05 0)
(0.041208397 3.1960992e-06 0)
(0.041664423 2.8381948e-06 0)
(0.041212989 -4.1733133e-07 0)
(0.0415772 1.6314762e-06 0)
(0.041244596 -1.3969438e-06 0)
(0.041545794 1.51914e-06 0)
(0.041267 -1.4618749e-06 0)
(0.041527003 1.4274499e-06 0)
(0.041283077 -1.3453725e-06 0)
(0.041511858 1.2876101e-06 0)
(0.041296703 -1.2087241e-06 0)
(0.041498672 1.1478314e-06 0)
(0.041308902 -1.0809662e-06 0)
(0.041486997 1.023763e-06 0)
(0.041319842 -9.6667034e-07 0)
(0.041476606 9.1517801e-07 0)
(0.041329636 -8.6576001e-07 0)
(0.041467327 8.201646e-07 0)
(0.041338408 -7.7711245e-07 0)
(0.041459015 7.3704308e-07 0)
(0.041346285 -6.9948143e-07 0)
(0.041451542 6.6443775e-07 0)
(0.041353384 -6.3171862e-07 0)
(0.041444793 6.0121353e-07 0)
(0.041359811 -5.7282584e-07 0)
(0.041438668 5.4642729e-07 0)
(0.041365659 -5.2195435e-07 0)
(0.041433078 4.9929155e-07 0)
(0.041371012 -4.7838784e-07 0)
(0.041427944 4.5914629e-07 0)
(0.041375947 -4.4152288e-07 0)
(0.041423193 4.2543806e-07 0)
(0.041380532 -4.1084929e-07 0)
(0.041418758 3.9770581e-07 0)
(0.041384832 -3.8594317e-07 0)
(0.041414577 3.7550842e-07 0)
(0.041388909 -3.666221e-07 0)
(0.041410597 3.5814036e-07 0)
(0.041392844 -3.5254894e-07 0)
(0.041406777 3.4836727e-07 0)
(0.041396634 -3.285706e-07 0)
(0.041402533 3.9818998e-07 0)
(0.041398159 -3.2154599e-07 0)
(0.033586388 0.0061488236 0)
(0.060965124 -0.00031499587 0)
(0.046185281 0.00039788209 0)
(0.049855219 -4.4832863e-05 0)
(0.047578746 7.4598068e-05 0)
(0.047274869 -1.532248e-06 0)
(0.047653569 1.4398987e-05 0)
(0.046866802 4.2970331e-06 0)
(0.047408574 3.1702613e-06 0)
(0.046883092 -2.1209041e-07 0)
(0.047311324 1.764738e-06 0)
(0.046921519 -1.5196979e-06 0)
(0.047275585 1.6809364e-06 0)
(0.046947984 -1.6322285e-06 0)
(0.047253766 1.5989646e-06 0)
(0.046966915 -1.5079864e-06 0)
(0.047236016 1.4456276e-06 0)
(0.046982961 -1.3559913e-06 0)
(0.047220526 1.2886584e-06 0)
(0.046997313 -1.2130973e-06 0)
(0.047206809 1.149277e-06 0)
(0.047010173 -1.0850362e-06 0)
(0.047194599 1.0273853e-06 0)
(0.047021683 -9.7188039e-07 0)
(0.047183695 9.2075025e-07 0)
(0.047031993 -8.7242086e-07 0)
(0.047173926 8.2745035e-07 0)
(0.047041253 -7.8528524e-07 0)
(0.047165141 7.4593628e-07 0)
(0.047049598 -7.0920205e-07 0)
(0.047157207 6.7493923e-07 0)
(0.047057154 -6.4306302e-07 0)
(0.047150006 6.1340723e-07 0)
(0.047064028 -5.8592335e-07 0)
(0.047143435 5.6046132e-07 0)
(0.047070321 -5.3698336e-07 0)
(0.047137401 5.1536311e-07 0)
(0.04707612 -4.9556726e-07 0)
(0.047131818 4.7749171e-07 0)
(0.047081506 -4.6110132e-07 0)
(0.04712661 4.4632885e-07 0)
(0.047086556 -4.3310529e-07 0)
(0.047121701 4.2137092e-07 0)
(0.047091341 -4.1139184e-07 0)
(0.047117029 4.0173709e-07 0)
(0.047095955 -3.9567429e-07 0)
(0.047112548 3.9064322e-07 0)
(0.047100415 -3.6729868e-07 0)
(0.047107658 4.5370225e-07 0)
(0.047102526 -3.5841028e-07 0)
(0.038807356 0.0068465392 0)
(0.065825581 -0.00036466465 0)
(0.051967676 0.00047601414 0)
(0.055022694 -5.447597e-05 0)
(0.053037711 9.0158899e-05 0)
(0.052774141 -2.7376804e-06 0)
(0.053221646 1.7491837e-05 0)
(0.052350627 5.4217092e-06 0)
(0.052978695 3.4250102e-06 0)
(0.052379926 5.267253e-08 0)
(0.05287266 1.8550752e-06 0)
(0.052425305 -1.6158109e-06 0)
(0.052832721 1.8173512e-06 0)
(0.052455853 -1.7837453e-06 0)
(0.052807888 1.7526367e-06 0)
(0.052477656 -1.6543257e-06 0)
(0.052787521 1.5885004e-06 0)
(0.052496144 -1.4888459e-06 0)
(0.052769709 1.4160059e-06 0)
(0.052512669 -1.3324422e-06 0)
(0.052753931 1.2627626e-06 0)
(0.05252747 -1.1920148e-06 0)
(0.052739884 1.1288415e-06 0)
(0.052540715 -1.0678209e-06 0)
(0.052727338 1.0117012e-06 0)
(0.05255258 -9.5859636e-07 0)
(0.052716095 9.0919655e-07 0)
(0.052563237 -8.6286661e-07 0)
(0.052705983 8.1962215e-07 0)
(0.052572844 -7.7925527e-07 0)
(0.052696849 7.4159045e-07 0)
(0.052581541 -7.0655795e-07 0)
(0.05268856 6.7395265e-07 0)
(0.052589454 -6.4374471e-07 0)
(0.052680997 6.1574779e-07 0)
(0.052596696 -5.8994105e-07 0)
(0.052674053 5.6616677e-07 0)
(0.052603368 -5.4440573e-07 0)
(0.052667631 5.2452735e-07 0)
(0.052609564 -5.0650687e-07 0)
(0.05266164 4.90259e-07 0)
(0.052615371 -4.7571163e-07 0)
(0.052655997 4.6280005e-07 0)
(0.052620871 -4.518316e-07 0)
(0.052650626 4.4108525e-07 0)
(0.05262617 -4.346663e-07 0)
(0.052645479 4.2873014e-07 0)
(0.052631304 -4.0201624e-07 0)
(0.052639946 5.0537891e-07 0)
(0.052634057 -3.9053413e-07 0)
(0.042488782 0.007120103 0)
(0.06962956 -0.00050008634 0)
(0.057638759 0.00054941061 0)
(0.059768837 -6.1358174e-05 0)
(0.058315645 0.00010286693 0)
(0.058073953 -4.5425077e-06 0)
(0.058606362 2.0631609e-05 0)
(0.057660415 6.501844e-06 0)
(0.058374507 3.5919973e-06 0)
(0.057703784 3.6743199e-07 0)
(0.058261056 1.9014226e-06 0)
(0.05775616 -1.6861586e-06 0)
(0.058217035 1.9282234e-06 0)
(0.057790772 -1.9165089e-06 0)
(0.058189219 1.8883382e-06 0)
(0.057815443 -1.784298e-06 0)
(0.058166239 1.7160715e-06 0)
(0.057836377 -1.6071595e-06 0)
(0.058146103 1.5297257e-06 0)
(0.057855083 -1.4388709e-06 0)
(0.058128258 1.3640829e-06 0)
(0.057871831 -1.2874796e-06 0)
(0.058112368 1.2194186e-06 0)
(0.057886817 -1.1534611e-06 0)
(0.058098172 1.0928981e-06 0)
(0.057900245 -1.0355263e-06 0)
(0.058085449 9.8217168e-07 0)
(0.057912307 -9.3212177e-07 0)
(0.058074003 8.8539539e-07 0)
(0.057923181 -8.4178385e-07 0)
(0.058063664 8.0107719e-07 0)
(0.057933025 -7.6322546e-07 0)
(0.058054281 7.2798294e-07 0)
(0.057941982 -6.9534193e-07 0)
(0.058045722 6.650789e-07 0)
(0.057950177 -6.3719231e-07 0)
(0.058037864 6.1149272e-07 0)
(0.057957726 -5.8797665e-07 0)
(0.058030598 5.6648692e-07 0)
(0.057964735 -5.4701046e-07 0)
(0.058023823 5.2944385e-07 0)
(0.057971301 -5.1371214e-07 0)
(0.058017443 4.9974867e-07 0)
(0.057977518 -4.8789528e-07 0)
(0.058011372 4.7614638e-07 0)
(0.057983503 -4.6948001e-07 0)
(0.058005556 4.6259541e-07 0)
(0.057989312 -4.3274245e-07 0)
(0.057999388 5.5288318e-07 0)
(0.057992753 -4.1794364e-07 0)
(0.048014513 0.007769755 0)
(0.073370328 -0.00053352337 0)
(0.062922329 0.00059708928 0)
(0.064241459 -6.76143e-05 0)
(0.063439381 0.00011194981 0)
(0.063161254 -7.1979844e-06 0)
(0.06380651 2.353343e-05 0)
(0.062797303 7.468573e-06 0)
(0.063595751 3.6671705e-06 0)
(0.062854936 7.2329848e-07 0)
(0.063476399 1.9038488e-06 0)
(0.062914267 -1.7314134e-06 0)
(0.06342839 2.0137912e-06 0)
(0.06295289 -2.0307358e-06 0)
(0.06339763 2.0061761e-06 0)
(0.062980401 -1.8979708e-06 0)
(0.063372054 1.8283619e-06 0)
(0.063003772 -1.7109523e-06 0)
(0.063349602 1.6298173e-06 0)
(0.063024653 -1.5323842e-06 0)
(0.063329697 1.4532295e-06 0)
(0.063043344 -1.3714199e-06 0)
(0.063311968 1.2991027e-06 0)
(0.063060069 -1.228784e-06 0)
(0.063296125 1.1643242e-06 0)
(0.063075057 -1.1031917e-06 0)
(0.063281922 1.0463586e-06 0)
(0.063088522 -9.9303267e-07 0)
(0.063269144 9.432401e-07 0)
(0.063100662 -8.9677201e-07 0)
(0.063257601 8.5338562e-07 0)
(0.063111653 -8.1305251e-07 0)
(0.063247127 7.7548666e-07 0)
(0.063121651 -7.4070471e-07 0)
(0.063237572 7.0844556e-07 0)
(0.063130799 -6.7872928e-07 0)
(0.063228802 6.5133404e-07 0)
(0.063139224 -6.2627426e-07 0)
(0.063220695 6.0336544e-07 0)
(0.063147043 -5.8260817e-07 0)
(0.063213136 5.6388015e-07 0)
(0.063154367 -5.4710478e-07 0)
(0.063206021 5.3221553e-07 0)
(0.063161299 -5.1958188e-07 0)
(0.063199251 5.0692511e-07 0)
(0.063167967 -5.0011208e-07 0)
(0.063192768 4.9224997e-07 0)
(0.063174447 -4.5952589e-07 0)
(0.063185974 5.959541e-07 0)
(0.063178614 -4.4074007e-07 0)
(0.051843355 0.0078931152 0)
(0.076217253 -0.00069316534 0)
(0.067989861 0.00065297442 0)
(0.068563165 -6.9758204e-05 0)
(0.068421536 0.00011773644 0)
(0.068041202 -1.0267158e-05 0)
(0.068824918 2.5995053e-05 0)
(0.06776258 8.2797048e-06 0)
(0.068642366 3.6530745e-06 0)
(0.067833611 1.1109381e-06 0)
(0.068518619 1.862686e-06 0)
(0.067899788 -1.7521199e-06 0)
(0.068466661 2.0744512e-06 0)
(0.067942331 -2.1267353e-06 0)
(0.068433003 2.1063539e-06 0)
(0.067972643 -1.9955065e-06 0)
(0.068404861 1.9254776e-06 0)
(0.067998428 -1.8003292e-06 0)
(0.068380116 1.7163576e-06 0)
(0.068021466 -1.6130596e-06 0)
(0.068358166 1.5302636e-06 0)
(0.068042087 -1.4438951e-06 0)
(0.06833861 1.3679434e-06 0)
(0.06806054 -1.2938373e-06 0)
(0.068321131 1.226021e-06 0)
(0.068077078 -1.1616329e-06 0)
(0.068305458 1.1017937e-06 0)
(0.068091938 -1.0456347e-06 0)
(0.068291356 9.9318929e-07 0)
(0.068105336 -9.4425204e-07 0)
(0.068278617 8.9854671e-07 0)
(0.068117465 -8.5606927e-07 0)
(0.068267057 8.1649329e-07 0)
(0.068128499 -7.7986165e-07 0)
(0.068256514 7.4587605e-07 0)
(0.068138592 -7.1457933e-07 0)
(0.068246838 6.8571795e-07 0)
(0.068147886 -6.5932498e-07 0)
(0.068237895 6.3518927e-07 0)
(0.068156511 -6.1332574e-07 0)
(0.06822956 5.9359364e-07 0)
(0.068164586 -5.7591504e-07 0)
(0.068221714 5.602263e-07 0)
(0.068172229 -5.4691641e-07 0)
(0.068214252 5.3345121e-07 0)
(0.068179572 -5.265833e-07 0)
(0.068207105 5.1773085e-07 0)
(0.068186716 -4.8243028e-07 0)
(0.068199697 6.3438878e-07 0)
(0.068191637 -4.5907476e-07 0)
(0.057833914 0.0084762737 0)
(0.079201575 -0.00073023987 0)
(0.072831944 0.00069747079 0)
(0.072736651 -7.2983583e-05 0)
(0.073249327 0.00012000328 0)
(0.072730899 -1.3394754e-05 0)
(0.073665107 2.784477e-05 0)
(0.072557277 8.8969319e-06 0)
(0.073514296 3.5593584e-06 0)
(0.072639932 1.520879e-06 0)
(0.073387657 1.7789547e-06 0)
(0.072712854 -1.7483245e-06 0)
(0.07333174 2.1108701e-06 0)
(0.072759204 -2.2048254e-06 0)
(0.073295237 2.1891659e-06 0)
(0.072792265 -2.0771281e-06 0)
(0.073264569 2.007592e-06 0)
(0.072820432 -1.8754538e-06 0)
(0.073237559 1.7894829e-06 0)
(0.072845603 -1.6810268e-06 0)
(0.07321359 1.5953001e-06 0)
(0.07286813 -1.5050116e-06 0)
(0.073192229 1.426039e-06 0)
(0.072888292 -1.3487118e-06 0)
(0.073173132 1.2780747e-06 0)
(0.072906362 -1.2109299e-06 0)
(0.073156005 1.1485541e-06 0)
(0.072922602 -1.0900004e-06 0)
(0.073140593 1.0353133e-06 0)
(0.072937244 -9.8429067e-07 0)
(0.073126671 9.366252e-07 0)
(0.072950499 -8.9233771e-07 0)
(0.073114039 8.5106285e-07 0)
(0.072962556 -8.128706e-07 0)
(0.073102518 7.7742629e-07 0)
(0.072973584 -7.4479665e-07 0)
(0.073091947 7.1469686e-07 0)
(0.072983737 -6.8717977e-07 0)
(0.073082178 6.6200784e-07 0)
(0.072993157 -6.3921147e-07 0)
(0.073073075 6.1863135e-07 0)
(0.073001975 -6.0018931e-07 0)
(0.073064509 5.8382646e-07 0)
(0.073010318 -5.6994354e-07 0)
(0.073056362 5.5577277e-07 0)
(0.07301833 -5.4893253e-07 0)
(0.07304856 5.3909395e-07 0)
(0.073026127 -5.015295e-07 0)
(0.07304055 6.6803386e-07 0)
(0.073031823 -4.7313495e-07 0)
(0.061974525 0.0085119645 0)
(0.081520381 -0.00088719319 0)
(0.077579242 0.00073501898 0)
(0.076773673 -7.5067161e-05 0)
(0.077908719 0.00011900321 0)
(0.077250411 -1.6504716e-05 0)
(0.078330698 2.9034717e-05 0)
(0.077182658 9.3188843e-06 0)
(0.078211601 3.4042295e-06 0)
(0.077274024 1.9452294e-06 0)
(0.0780835 1.6537954e-06 0)
(0.0773536 -1.7195346e-06 0)
(0.07802354 2.1239391e-06 0)
(0.077403608 -2.2652984e-06 0)
(0.077984242 2.2549848e-06 0)
(0.077439354 -2.1431022e-06 0)
(0.077951094 2.0749347e-06 0)
(0.077469862 -1.9365421e-06 0)
(0.077921859 1.8493806e-06 0)
(0.077497131 -1.7364667e-06 0)
(0.077895904 1.6485013e-06 0)
(0.077521536 -1.5549251e-06 0)
(0.077872765 1.4735325e-06 0)
(0.077543379 -1.393544e-06 0)
(0.077852075 1.3206128e-06 0)
(0.07756296 -1.2512048e-06 0)
(0.077833517 1.1867549e-06 0)
(0.077580557 -1.1262402e-06 0)
(0.077816816 1.0697172e-06 0)
(0.077596423 -1.0169885e-06 0)
(0.077801729 9.6771733e-07 0)
(0.077610787 -9.2195011e-07 0)
(0.077788042 8.7928399e-07 0)
(0.07762385 -8.3981655e-07 0)
(0.077775559 8.0317827e-07 0)
(0.077635798 -7.694599e-07 0)
(0.077764107 7.383469e-07 0)
(0.077646796 -7.0991187e-07 0)
(0.077753527 6.8389229e-07 0)
(0.077656998 -6.6033408e-07 0)
(0.077743668 6.3906029e-07 0)
(0.077666548 -6.1999292e-07 0)
(0.077734393 6.0307995e-07 0)
(0.07767558 -5.8872581e-07 0)
(0.077725573 5.7395493e-07 0)
(0.077684247 -5.6721524e-07 0)
(0.077717126 5.5641218e-07 0)
(0.077692685 -5.169071e-07 0)
(0.077708528 6.9678164e-07 0)
(0.07769917 -4.8313455e-07 0)
(0.06816363 0.0089491119 0)
(0.084136417 -0.00091770879 0)
(0.082176404 0.00075920696 0)
(0.080651986 -7.8240863e-05 0)
(0.082395093 0.00011493888 0)
(0.081613639 -1.9608066e-05 0)
(0.082823465 2.9597167e-05 0)
(0.081639608 9.5452141e-06 0)
(0.082734192 3.2071939e-06 0)
(0.081735937 2.3742061e-06 0)
(0.082606081 1.4869489e-06 0)
(0.081822121 -1.6652254e-06 0)
(0.082541976 2.1146067e-06 0)
(0.081875624 -2.3084852e-06 0)
(0.082499935 2.3042215e-06 0)
(0.081913985 -2.1937558e-06 0)
(0.082464364 2.1277806e-06 0)
(0.081946788 -1.983863e-06 0)
(0.082432951 1.8962859e-06 0)
(0.081976113 -1.7796068e-06 0)
(0.082405048 1.6900753e-06 0)
(0.082002359 -1.5938327e-06 0)
(0.082380168 1.5106093e-06 0)
(0.082025852 -1.4285089e-06 0)
(0.082357915 1.3538019e-06 0)
(0.082046912 -1.2826149e-06 0)
(0.082337954 1.2165471e-06 0)
(0.08206584 -1.1544969e-06 0)
(0.082319989 1.096538e-06 0)
(0.082082907 -1.0424762e-06 0)
(0.082303762 9.9194845e-07 0)
(0.082098357 -9.4502612e-07 0)
(0.082289039 9.0127159e-07 0)
(0.082112407 -8.6080952e-07 0)
(0.082275615 8.2323764e-07 0)
(0.082125255 -7.8867062e-07 0)
(0.0822633 7.5676575e-07 0)
(0.082137081 -7.2761549e-07 0)
(0.082251923 7.0093352e-07 0)
(0.082148049 -6.7678162e-07 0)
(0.082241325 6.5496578e-07 0)
(0.082158315 -6.3540908e-07 0)
(0.082231356 6.1806773e-07 0)
(0.082168022 -6.0334255e-07 0)
(0.082221877 5.8807843e-07 0)
(0.082177332 -5.8150259e-07 0)
(0.082212797 5.6977373e-07 0)
(0.082186394 -5.2865618e-07 0)
(0.082203626 7.2056665e-07 0)
(0.082193675 -4.8930624e-07 0)
(0.072673814 0.0089278163 0)
(0.086188368 -0.0010698901 0)
(0.086696644 0.00077761451 0)
(0.084413058 -7.8962213e-05 0)
(0.086709325 0.00010789273 0)
(0.085824186 -2.2815952e-05 0)
(0.087143743 2.960298e-05 0)
(0.085928834 9.5894485e-06 0)
(0.087081847 2.993166e-06 0)
(0.08602591 2.8010998e-06 0)
(0.086955312 1.2794067e-06 0)
(0.086118511 -1.5842755e-06 0)
(0.086886983 2.084142e-06 0)
(0.086175325 -2.3346121e-06 0)
(0.086842247 2.3373717e-06 0)
(0.086216225 -2.2294367e-06 0)
(0.086804314 2.166454e-06 0)
(0.086251269 -2.0177265e-06 0)
(0.086770775 1.9304769e-06 0)
(0.086282604 -1.8107172e-06 0)
(0.086740972 1.7202702e-06 0)
(0.086310648 -1.6219727e-06 0)
(0.086714391 1.537492e-06 0)
(0.086335752 -1.4538193e-06 0)
(0.086690612 1.377843e-06 0)
(0.086358257 -1.3053522e-06 0)
(0.086669281 1.2381126e-06 0)
(0.086378485 -1.1749446e-06 0)
(0.086650083 1.1159414e-06 0)
(0.086396724 -1.0609119e-06 0)
(0.086632741 1.0094696e-06 0)
(0.086413233 -9.6171006e-07 0)
(0.086617009 9.1716377e-07 0)
(0.086428246 -8.7598159e-07 0)
(0.086602665 8.3773119e-07 0)
(0.086441973 -8.0255025e-07 0)
(0.086589508 7.7007033e-07 0)
(0.086454607 -7.4040293e-07 0)
(0.086577355 7.1324004e-07 0)
(0.086466323 -6.8865878e-07 0)
(0.086566035 6.6644937e-07 0)
(0.086477287 -6.4653647e-07 0)
(0.086555388 6.2888588e-07 0)
(0.086487653 -6.1388776e-07 0)
(0.086545266 5.9823789e-07 0)
(0.086497588 -5.9187963e-07 0)
(0.086535569 5.7928003e-07 0)
(0.086507258 -5.3687839e-07 0)
(0.086525842 7.3936187e-07 0)
(0.086515338 -4.9189447e-07 0)
(0.078940955 0.0093089389 0)
(0.088649525 -0.0010780893 0)
(0.0910297 0.00078650556 0)
(0.088082722 -8.0106961e-05 0)
(0.090860093 9.8053257e-05 0)
(0.089882656 -2.6024104e-05 0)
(0.091292089 2.9171549e-05 0)
(0.090050377 9.4759922e-06 0)
(0.0912539 2.7833621e-06 0)
(0.090144615 3.2129711e-06 0)
(0.091131011 1.0334816e-06 0)
(0.090242846 -1.476615e-06 0)
(0.091058497 2.033669e-06 0)
(0.090302777 -2.3440088e-06 0)
(0.091011114 2.3549233e-06 0)
(0.090346134 -2.2505521e-06 0)
(0.090970886 2.1913079e-06 0)
(0.090383359 -2.0384868e-06 0)
(0.090935283 1.9522682e-06 0)
(0.090416651 -1.8301054e-06 0)
(0.090903631 1.7393703e-06 0)
(0.090446445 -1.6396171e-06 0)
(0.090875394 1.5544373e-06 0)
(0.090473116 -1.4697191e-06 0)
(0.090850132 1.392968e-06 0)
(0.090497028 -1.3196368e-06 0)
(0.090827467 1.2516617e-06 0)
(0.09051852 -1.1877828e-06 0)
(0.090807069 1.1281183e-06 0)
(0.090537898 -1.0724771e-06 0)
(0.090788644 1.0204543e-06 0)
(0.090555438 -9.7216745e-07 0)
(0.090771931 9.2711889e-07 0)
(0.090571387 -8.8548417e-07 0)
(0.090756693 8.4680394e-07 0)
(0.090585968 -8.1123786e-07 0)
(0.090742718 7.7839414e-07 0)
(0.090599387 -7.4840266e-07 0)
(0.09072981 7.2093562e-07 0)
(0.090611831 -6.9608513e-07 0)
(0.090717788 6.7362679e-07 0)
(0.090623473 -6.534876e-07 0)
(0.090706483 6.3564364e-07 0)
(0.090634479 -6.2046848e-07 0)
(0.090695736 6.0453998e-07 0)
(0.090645022 -5.9844387e-07 0)
(0.090685437 5.8504385e-07 0)
(0.090655282 -5.4168313e-07 0)
(0.090675173 7.5317517e-07 0)
(0.090664155 -4.9114957e-07 0)
(0.083174853 0.0090971569 0)
(0.090492902 -0.0012343656 0)
(0.09514728 0.00078445051 0)
(0.091740489 -7.8464306e-05 0)
(0.094858695 8.6488224e-05 0)
(0.093786431 -2.9142061e-05 0)
(0.095268875 2.8391686e-05 0)
(0.094003606 9.2282042e-06 0)
(0.095249624 2.5981273e-06 0)
(0.094093028 3.5928781e-06 0)
(0.095132909 7.5649967e-07 0)
(0.09419519 -1.3432173e-06 0)
(0.095056466 1.9643992e-06 0)
(0.094258038 -2.3369835e-06 0)
(0.095006483 2.3574069e-06 0)
(0.094303764 -2.2575358e-06 0)
(0.094964033 2.2027317e-06 0)
(0.094343105 -2.0465322e-06 0)
(0.094926428 1.9620093e-06 0)
(0.094378295 -1.8381136e-06 0)
(0.094892986 1.747692e-06 0)
(0.094409787 -1.6470705e-06 0)
(0.094863144 1.5617313e-06 0)
(0.094437977 -1.4764816e-06 0)
(0.094836444 1.3994357e-06 0)
(0.094463252 -1.3257156e-06 0)
(0.094812487 1.2574287e-06 0)
(0.094485968 -1.193235e-06 0)
(0.094790927 1.1332811e-06 0)
(0.09450645 -1.0773744e-06 0)
(0.094771452 1.0250958e-06 0)
(0.094524988 -9.7658251e-07 0)
(0.094753788 9.3131299e-07 0)
(0.094541844 -8.8948538e-07 0)
(0.094737684 8.5061694e-07 0)
(0.094557254 -8.1488759e-07 0)
(0.094722916 7.8188531e-07 0)
(0.094571433 -7.5175691e-07 0)
(0.094709277 7.2415744e-07 0)
(0.09458458 -6.9919295e-07 0)
(0.094696576 6.7662615e-07 0)
(0.09459688 -6.5638679e-07 0)
(0.094684633 6.3846184e-07 0)
(0.094608506 -6.2320293e-07 0)
(0.094673281 6.0710192e-07 0)
(0.094619638 -6.0130366e-07 0)
(0.094662399 5.8718755e-07 0)
(0.094630466 -5.4318661e-07 0)
(0.094651616 7.6204604e-07 0)
(0.094640125 -4.8732293e-07 0)
(0.089506649 0.0094428341 0)
(0.092879591 -0.0012173147 0)
(0.098983836 0.00077436389 0)
(0.095374945 -7.7193946e-05 0)
(0.098701874 7.3675248e-05 0)
(0.09753295 -3.2081867e-05 0)
(0.099074352 2.7345183e-05 0)
(0.097787692 8.8803709e-06 0)
(0.099068836 2.4489946e-06 0)
(0.097871827 3.924837e-06 0)
(0.098960701 4.6130755e-07 0)
(0.097975563 -1.1867115e-06 0)
(0.09888084 1.8774053e-06 0)
(0.098041157 -2.3139032e-06 0)
(0.098828306 2.3453552e-06 0)
(0.09808916 -2.2508667e-06 0)
(0.098783709 2.2011384e-06 0)
(0.098130548 -2.0422873e-06 0)
(0.098744174 1.9600786e-06 0)
(0.098167573 -1.8351139e-06 0)
(0.098709002 1.7455806e-06 0)
(0.098200704 -1.6446641e-06 0)
(0.098677611 1.5596865e-06 0)
(0.098230362 -1.4744045e-06 0)
(0.098649522 1.3975288e-06 0)
(0.098256953 -1.3238569e-06 0)
(0.098624318 1.2556694e-06 0)
(0.098280852 -1.191544e-06 0)
(0.098601635 1.1316615e-06 0)
(0.0983024 -1.075824e-06 0)
(0.098581148 1.0236042e-06 0)
(0.098321901 -9.7515544e-07 0)
(0.098562566 9.2993726e-07 0)
(0.098339632 -8.8816784e-07 0)
(0.098545627 8.4934493e-07 0)
(0.09835584 -8.1366686e-07 0)
(0.098530094 7.8070445e-07 0)
(0.098370753 -7.5062008e-07 0)
(0.098515749 7.2305416e-07 0)
(0.09838458 -6.9812575e-07 0)
(0.098502392 6.7558626e-07 0)
(0.098397515 -6.553688e-07 0)
(0.098489834 6.3747129e-07 0)
(0.098409739 -6.2221924e-07 0)
(0.098477898 6.0605002e-07 0)
(0.098421438 -6.0057702e-07 0)
(0.098466452 5.8584165e-07 0)
(0.098432814 -5.4151105e-07 0)
(0.09845517 7.6604252e-07 0)
(0.098443245 -4.8066303e-07 0)
(0.093768234 0.0091655105 0)
(0.094730358 -0.0013598251 0)
(0.10259513 0.00075107341 0)
(0.098971382 -7.5843706e-05 0)
(0.10238578 6.0662397e-05 0)
(0.10112005 -3.473016e-05 0)
(0.10270845 2.6100449e-05 0)
(0.10140172 8.4606725e-06 0)
(0.10271194 2.3333778e-06 0)
(0.10148109 4.1964366e-06 0)
(0.1026141 1.6367516e-07 0)