/*--------------------------------*- C++ -*----------------------------------*\
| =========                 |                                                 |
| \\      /  F ield         | OpenFOAM: The Open Source CFD Toolbox           |
|  \\    /   O peration     | Version:  2312                                  |
|   \\  /    A nd           | Website:  www.openfoam.com                      |
|    \\/     M anipulation  |                                                 |
\*---------------------------------------------------------------------------*/
FoamFile
{
    version     2.0;
    format      ascii;
    arch        "LSB;label=32;scalar=64";
    class       surfaceScalarField;
    location    "1";
    object      phi_0;
}
// * * * * * * * * * * * * * * * * * * * * * * * * * * * * * * * * * * * * * //

dimensions      [0 3 -1 0 0 0 0];

oriented        oriented;

internalField   nonuniform List<scalar> 
7870
(
1.0157499e-10
2.356175e-09
1.0130845e-10
2.6654345e-13
9.457144e-11
6.7370083e-12
9.3928774e-11
6.4266708e-13
9.5120445e-11
-1.1916698e-12
9.3586299e-11
1.5341448e-12
9.506906e-11
-1.482761e-12
9.3628032e-11
1.4410263e-12
9.5007876e-11
-1.379846e-12
9.3685861e-11
1.322015e-12
9.494881e-11
-1.2629515e-12
9.3739997e-11
1.2088142e-12
9.4895682e-11
-1.1556868e-12
9.3789827e-11
1.1058576e-12
9.4847534e-11
-1.0577083e-12
9.38356e-11
1.0119371e-12
9.4803485e-11
-9.6788624e-13
9.3877744e-11
9.2574456e-13
9.4762941e-11
-8.8519709e-13
9.3916654e-11
8.4628921e-13
9.4725479e-11
-8.088248e-13
9.3952638e-11
7.7284286e-13
9.4690823e-11
-7.3818556e-13
9.3985928e-11
7.0489624e-13
9.4658784e-11
-6.7285645e-13
9.4016673e-11
6.4211147e-13
9.4629233e-11
-6.1256035e-13
9.4044964e-11
5.8426876e-13
9.4602107e-11
-5.57144e-13
9.4070856e-11
5.3125043e-13
9.4577369e-11
-5.0651369e-13
9.4094371e-11
4.8299729e-13
9.4555011e-11
-4.6064105e-13
9.41155e-11
4.3951072e-13
9.453505e-11
-4.1955062e-13
9.4134232e-11
4.0081748e-13
9.4517492e-11
-3.8325992e-13
9.4150558e-11
3.6693398e-13
9.4502374e-11
-3.518169e-13
9.4164429e-11
3.3794512e-13
9.4489706e-11
-3.2527738e-13
9.4175847e-11
3.1385918e-13
9.4479515e-11
-3.0366743e-13
9.4184774e-11
2.9474086e-13
9.4471805e-11
-2.8703081e-13
9.4191184e-11
2.8062053e-13
9.4466833e-11
-2.7564892e-13
9.4197186e-11
2.696474e-13
9.4474517e-11
-2.7733133e-13
2.5576363e-13
2.7824745e-10
4.5356776e-09
2.9186952e-10
-1.3355524e-11
2.7437777e-10
2.4228771e-11
2.7366679e-10
1.3536472e-12
2.7495873e-10
-2.4836146e-12
2.7277202e-10
3.7208596e-12
2.7489521e-10
-3.6059562e-12
2.7281626e-10
3.5199735e-12
2.7481376e-10
-3.3773549e-12
2.7289741e-10
3.2383708e-12
2.7472775e-10
-3.0933025e-12
2.7297426e-10
2.9623102e-12
2.7465049e-10
-2.8319257e-12
2.7304591e-10
2.7104523e-12
2.7458071e-10
-2.5925098e-12
2.7311214e-10
2.4805138e-12
2.7451687e-10
-2.3726166e-12
2.7317333e-10
2.2692902e-12
2.7445804e-10
-2.1699081e-12
2.7322996e-10
2.0743775e-12
2.7440359e-10
-1.9824636e-12
2.732824e-10
1.8940394e-12
2.7435315e-10
-1.8089402e-12
2.7333099e-10
1.72706e-12
2.7430648e-10
-1.6483404e-12
2.7337591e-10
1.5726744e-12
2.7426338e-10
-1.500026e-12
2.7341728e-10
1.4303697e-12
2.7422379e-10
-1.363663e-12
2.7345515e-10
1.2998902e-12
2.7418767e-10
-1.2390379e-12
2.7348957e-10
1.1811033e-12
2.7415502e-10
-1.1260976e-12
2.7352049e-10
1.0740444e-12
2.7412587e-10
-1.0249323e-12
2.735479e-10
9.7878001e-13
2.7410021e-10
-9.3556361e-13
2.7357181e-10
8.9532928e-13
2.7407813e-10
-8.5813393e-13
2.7359211e-10
8.2396312e-13
2.7405961e-10
-7.9278032e-13
2.7360884e-10
7.6463346e-13
2.7404471e-10
-7.3954241e-13
2.7362191e-10
7.1754546e-13
2.7403342e-10
-6.9853896e-13
2.7363123e-10
6.8280673e-13
2.7402596e-10
-6.7037357e-13
2.7364062e-10
6.5498209e-13
2.7404565e-10
-6.8235529e-13
6.1791207e-13
4.4905905e-10
6.5443685e-09
4.7542472e-10
-3.9721192e-11
4.4912183e-10
5.0531663e-11
4.4914215e-10
1.3333264e-12
4.4974065e-10
-3.0821087e-12
4.4774165e-10
5.7198561e-12
4.497301e-10
-5.594408e-12
4.477672e-10
5.4828655e-12
4.4966507e-10
-5.2752302e-12
4.478412e-10
5.062248e-12
4.4958285e-10
-4.834965e-12
4.479122e-10
4.6329644e-12
4.4950902e-10
-4.4287515e-12
4.4797963e-10
4.2398559e-12
4.4944261e-10
-4.0554891e-12
4.4804252e-10
3.8806105e-12
4.4938184e-10
-3.7119449e-12
4.4810091e-10
3.5502341e-12
4.4932576e-10
-3.394757e-12
4.4815513e-10
3.2450156e-12
4.4927372e-10
-3.1010595e-12
4.4820545e-10
2.9623122e-12
4.4922542e-10
-2.8289073e-12
4.4825217e-10
2.7003139e-12
4.4918065e-10
-2.5768228e-12
4.4829542e-10
2.4579042e-12
4.4913925e-10
-2.3438581e-12
4.4833527e-10
2.2343524e-12
4.491012e-10
-2.129598e-12
4.4837179e-10
2.0292995e-12
4.4906645e-10
-1.9337024e-12
4.4840499e-10
1.84256e-12
4.4903502e-10
-1.7561303e-12
4.4843482e-10
1.6742472e-12
4.4900697e-10
-1.5970854e-12
4.4846127e-10
1.5244773e-12
4.4898225e-10
-1.456546e-12
4.4848435e-10
1.3932272e-12
4.4896101e-10
-1.3347936e-12
4.4850393e-10
1.2810415e-12
4.4894317e-10
-1.2320152e-12
4.4852009e-10
1.1877155e-12
4.4892881e-10
-1.1482657e-12
4.4853271e-10
1.1136461e-12
4.4891789e-10
-1.0837222e-12
4.4854165e-10
1.0590493e-12
4.489105e-10
-1.0392201e-12
4.4855178e-10
1.0137039e-12
4.489409e-10
-1.0714742e-12
9.5112592e-13
6.1179614e-10
8.3903224e-09
6.5302198e-10
-8.0947031e-11
6.192792e-10
8.4274441e-11
6.1989847e-10
7.1406356e-13
6.1988807e-10
-3.0717062e-12
6.1809506e-10
7.5128577e-12
6.19957e-10
-7.4563495e-12
6.1811636e-10
7.3235065e-12
6.199116e-10
-7.0704864e-12
6.1818463e-10
6.7892262e-12
6.198336e-10
-6.4839391e-12
6.1824986e-10
6.2167024e-12
6.1976336e-10
-5.9422506e-12
6.18313e-10
5.6902238e-12
6.1970042e-10
-5.4429103e-12
6.1837244e-10
5.2085961e-12
6.1964282e-10
-4.9823298e-12
6.1842791e-10
4.765155e-12
6.1958956e-10
-4.55641e-12
6.1847959e-10
4.3549932e-12
6.1954003e-10
-4.1614975e-12
6.1852766e-10
3.9746907e-12
6.1949395e-10
-3.7952035e-12
6.1857237e-10
3.6219017e-12
6.1945118e-10
-3.4556421e-12
6.1861381e-10
3.2952821e-12
6.1941158e-10
-3.1416367e-12
6.1865202e-10
2.9939156e-12
6.1937516e-10
-2.852739e-12
6.1868706e-10
2.7173957e-12
6.1934187e-10
-2.5885198e-12
6.1871893e-10
2.4654997e-12
6.1931177e-10
-2.3489666e-12
6.1874755e-10
2.2384616e-12
6.1928489e-10
-2.1344269e-12
6.1877294e-10
2.036431e-12
6.1926119e-10
-1.9448035e-12
6.187951e-10
1.8593193e-12
6.1924085e-10
-1.7805467e-12
6.1881387e-10
1.7080196e-12
6.1922375e-10
-1.6418898e-12
6.188294e-10
1.5820677e-12
6.1920998e-10
-1.5288499e-12
6.1884151e-10
1.4821158e-12
6.1919948e-10
-1.4416872e-12
6.1885004e-10
1.4084895e-12
6.1919209e-10
-1.3812747e-12
6.1886036e-10
1.3454391e-12
6.1923045e-10
-1.4415712e-12
1.2562125e-12
7.7426608e-10
1.0073806e-08
8.2373702e-10
-1.3041797e-10
7.8471608e-10
1.2329539e-10
7.8592817e-10
-4.9801799e-13
7.8539866e-10
-2.5421955e-12
7.8383341e-10
9.0780972e-12
7.8557554e-10
-9.1984816e-12
7.8386333e-10
9.0357186e-12
7.8555291e-10
-8.7600751e-12
7.8392726e-10
8.4148739e-12
7.8547959e-10
-8.0362766e-12
7.8398686e-10
7.7094472e-12
7.8541312e-10
-7.3685239e-12
7.8404565e-10
7.0577084e-12
7.8535378e-10
-6.7510427e-12
7.8410155e-10
6.4608354e-12
7.8529946e-10
-6.1802465e-12
7.8415399e-10
5.9106363e-12
7.8524914e-10
-5.6515624e-12
7.8420302e-10
5.4011225e-12
7.8520222e-10
-5.1606987e-12
7.8424872e-10
4.9281953e-12
7.8515849e-10
-4.704975e-12
7.842913e-10
4.4890979e-12
7.8511784e-10
-4.2821929e-12
7.8433082e-10
4.082308e-12
7.8508016e-10
-3.8909775e-12
7.8436726e-10
3.7068126e-12
7.8504548e-10
-3.5309612e-12
7.8440071e-10
3.3621688e-12
7.8501377e-10
-3.2015876e-12
7.8443114e-10
3.0481331e-12
7.8498508e-10
-2.9029168e-12
7.8445844e-10
2.7651036e-12
7.849595e-10
-2.635486e-12
7.8448266e-10
2.5132651e-12
7.8493691e-10
-2.3990515e-12
7.8450382e-10
2.2924105e-12
7.8491757e-10
-2.1942986e-12
7.8452172e-10
2.1038722e-12
7.8490126e-10
-2.0214359e-12
7.8453652e-10
1.9468101e-12
7.8488815e-10
-1.880477e-12
7.8454808e-10
1.8221844e-12
7.8487812e-10
-1.7717279e-12
7.8455616e-10
1.7304452e-12
7.8487076e-10
-1.6958731e-12
7.8456632e-10
1.6498803e-12
7.8491487e-10
-1.7901158e-12
1.5320507e-12
9.2190971e-10
1.1609647e-08
9.8820967e-10
-1.9671793e-10
9.4556997e-10
1.6593509e-10
9.4721248e-10
-2.1405239e-12
9.4627488e-10
-1.6045944e-12
9.4495859e-10
1.0394387e-11
9.4658672e-10
-1.0826618e-11
9.4500815e-10
1.0614283e-11
9.4658943e-10
-1.0341357e-11
9.45069e-10
9.935304e-12
9.4652121e-10
-9.4884999e-12
9.4512307e-10
9.1075981e-12
9.4645866e-10
-8.7041169e-12
9.4517749e-10
8.3388868e-12
9.46403e-10
-7.9765633e-12
9.4522977e-10
7.6340798e-12
9.4635205e-10
-7.3025336e-12
9.4527909e-10
6.9836133e-12
9.4630476e-10
-6.6772403e-12
9.4532536e-10
6.3805332e-12
9.4626056e-10
-6.0959006e-12
9.4536856e-10
5.820203e-12
9.4621928e-10
-5.5556934e-12
9.4540889e-10
5.2994832e-12
9.4618086e-10
-5.0541644e-12
9.4544636e-10
4.8168099e-12
9.4614521e-10
-4.5898246e-12
9.4548093e-10
4.3710841e-12
9.4611238e-10
-4.1624091e-12
9.4551267e-10
3.9618803e-12
9.4608236e-10
-3.7712809e-12
9.4554155e-10
3.5889435e-12
9.460552e-10
-3.4165792e-12
9.4556743e-10
3.2528769e-12
9.4603099e-10
-3.0990472e-12
9.4559039e-10
2.9538615e-12
9.460096e-10
-2.8182594e-12
9.4561045e-10
2.6915595e-12
9.4599132e-10
-2.5751699e-12
9.4562738e-10
2.467809e-12
9.459759e-10
-2.3699511e-12
9.4564143e-10
2.281282e-12
9.459635e-10
-2.2025487e-12
9.4565236e-10
2.1333226e-12
9.4595399e-10
-2.0733577e-12
9.4565996e-10
2.0244746e-12
9.4594671e-10
-1.9826156e-12
9.456697e-10
1.9268808e-12
9.4599465e-10
-2.1150599e-12
1.7778127e-12
1.0774879e-09
1.2989909e-08
1.1462753e-09
-2.6550528e-10
1.1017336e-09
2.1047681e-10
1.1037217e-09
-4.1286651e-12
1.102512e-09
-3.9486579e-13
1.1014722e-09
1.1434178e-11
1.1029916e-09
-1.2346039e-11
1.1015508e-09
1.2055129e-11
1.1030214e-09
-1.1812046e-11
1.1016095e-09
1.1347254e-11
1.1029587e-09
-1.0837692e-11
1.1016582e-09
1.0408069e-11
1.1029002e-09
-9.9460637e-12
1.1017082e-09
9.5308127e-12
1.1028483e-09
-9.116594e-12
1.1017568e-09
8.7255264e-12
1.1028008e-09
-8.3464632e-12
1.1018029e-09
7.9814514e-12
1.1027566e-09
-7.6308939e-12
1.1018463e-09
7.2907823e-12
1.1027152e-09
-6.9647428e-12
1.101887e-09
6.6484331e-12
1.1026765e-09
-6.3451892e-12
1.1019249e-09
6.051013e-12
1.1026404e-09
-5.7696146e-12
1.1019602e-09
5.496936e-12
1.1026068e-09
-5.2364232e-12
1.1019928e-09
4.9851165e-12
1.102576e-09
-4.745578e-12
1.1020227e-09
4.5151321e-12
1.1025477e-09
-4.2962904e-12
1.1020499e-09
4.0867287e-12
1.1025222e-09
-3.8888305e-12
1.1020743e-09
3.7007562e-12
1.1024995e-09
-3.5241896e-12
1.1020959e-09
3.3573841e-12
1.1024793e-09
-3.2016686e-12
1.1021148e-09
3.0560887e-12
1.1024622e-09
-2.922578e-12
1.1021307e-09
2.7993023e-12
1.1024477e-09
-2.6869442e-12
1.1021439e-09
2.5850846e-12
1.1024361e-09
-2.4947173e-12
1.1021542e-09
2.4152192e-12
1.1024272e-09
-2.3463273e-12
1.1021613e-09
2.2903439e-12
1.10242e-09
-2.2413263e-12
1.1021704e-09
2.1764812e-12
1.1024701e-09
-2.4147787e-12
1.9933533e-12
1.2106746e-09
1.4236984e-08
1.2979048e-09
-3.5273546e-10
1.2533497e-09
2.5503195e-10
1.2554297e-09
-6.2086654e-12
1.2541045e-09
9.3026423e-13
1.2533761e-09
1.2162645e-11
1.2547915e-09
-1.3761508e-11
1.2534914e-09
1.3355227e-11
1.2548495e-09
-1.3170075e-11
1.2535486e-09
1.2648081e-11
1.2547923e-09
-1.2081361e-11
1.2535921e-09
1.1608261e-11
1.2547379e-09
-1.1091854e-11
1.2536378e-09
1.0630971e-11
1.2546898e-09
-1.0168688e-11
1.2536826e-09
9.7327715e-12
1.2546458e-09
-9.3096929e-12
1.2537254e-09
8.9018813e-12
1.2546048e-09
-8.510323e-12
1.2537659e-09
8.1297538e-12
1.2545663e-09
-7.7652038e-12
1.2538038e-09
7.4109984e-12
1.2545302e-09
-7.0716496e-12
1.2538393e-09
6.7419659e-12
1.2544966e-09
-6.4269167e-12
1.2538723e-09
6.1211933e-12
1.2544653e-09
-5.8293855e-12
1.2539028e-09
5.547595e-12
1.2544365e-09
-5.279241e-12
1.2539308e-09
5.0208018e-12
1.2544101e-09
-4.7755977e-12
1.2539563e-09
4.5405641e-12
1.2543863e-09
-4.3188536e-12
1.253979e-09
4.1080155e-12
1.2543651e-09
-3.9102482e-12
1.2539992e-09
3.7232529e-12
1.2543463e-09
-3.5487741e-12
1.2540168e-09
3.3855698e-12
1.2543304e-09
-3.2361349e-12
1.2540317e-09
3.0980455e-12
1.2543169e-09
-2.9721929e-12
1.254044e-09
2.8580144e-12
1.2543061e-09
-2.756832e-12
1.2540535e-09
2.6677876e-12
1.2542978e-09
-2.5905784e-12
1.2540601e-09
2.5280363e-12
1.2542908e-09
-2.4720531e-12
1.2540684e-09
2.3988508e-12
1.2543417e-09
-2.6880548e-12
2.1790535e-12
1.3584882e-09
1.5336246e-08
1.4437354e-09
-4.3798271e-10
1.4003031e-09
2.9846425e-10
1.4023289e-09
-8.2344235e-12
1.4010454e-09
2.2137472e-12
1.400673e-09
1.2535033e-11
1.4019881e-09
-1.5076648e-11
1.4008306e-09
1.4512778e-11
1.4020739e-09
-1.4413363e-11
1.4008862e-09
1.3835733e-11
1.4020223e-09
-1.3217409e-11
1.4009245e-09
1.2705986e-11
1.401972e-09
-1.2139352e-11
1.4009658e-09
1.1637229e-11
1.4019278e-09
-1.1130751e-11
1.4010068e-09
1.065378e-11
1.4018874e-09
-1.0190243e-11
1.4010463e-09
9.7430021e-12
1.4018496e-09
-9.313697e-12
1.4010837e-09
8.8957127e-12
1.4018141e-09
-8.4956137e-12
1.4011188e-09
8.1062865e-12
1.4017807e-09
-7.733566e-12
1.4011518e-09
7.3709506e-12
1.4017496e-09
-7.0247693e-12
1.4011824e-09
6.6883507e-12
1.4017206e-09
-6.367563e-12
1.4012107e-09
6.05751e-12
1.4016939e-09
-5.7624867e-12
1.4012367e-09
5.4780714e-12
1.4016695e-09
-5.2084567e-12
1.4012603e-09
4.949799e-12
1.4016475e-09
-4.7060576e-12
1.4012814e-09
4.4741487e-12
1.4016279e-09
-4.2568136e-12
1.4013001e-09
4.0511287e-12
1.4016106e-09
-3.8593005e-12
1.4013164e-09
3.6797954e-12
1.4015959e-09
-3.5157228e-12
1.40133e-09
3.3639573e-12
1.4015835e-09
-3.2256322e-12
1.4013414e-09
3.1000987e-12
1.4015735e-09
-2.9889589e-12
1.4013502e-09
2.8911151e-12
1.4015659e-09
-2.8062544e-12
1.4013562e-09
2.7376978e-12
1.4015592e-09
-2.6750132e-12
1.4013637e-09
2.5943267e-12
1.4016096e-09
-2.9339931e-12
2.3356576e-12
1.4810294e-09
1.6312966e-08
1.5826847e-09
-5.3963799e-10
1.5427055e-09
3.3844338e-10
1.5444794e-09
-1.0008315e-11
1.5433459e-09
3.3472461e-12
1.543366e-09
1.2514936e-11
1.5445828e-09
-1.629337e-11
1.5435687e-09
1.5526813e-11
1.5446952e-09
-1.5539898e-11
1.5436223e-09
1.4908729e-11
1.5446489e-09
-1.4244021e-11
1.5436554e-09
1.3699492e-11
1.5446028e-09
-1.3086795e-11
1.5436922e-09
1.2547828e-11
1.5445625e-09
-1.2001065e-11
1.5437294e-09
1.1486861e-11
1.5445257e-09
-1.0986469e-11
1.5437654e-09
1.0503228e-11
1.5444912e-09
-1.0039484e-11
1.5437998e-09
9.5871981e-12
1.5444587e-09
-9.1545975e-12
1.543832e-09
8.7330556e-12
1.5444282e-09
-8.329754e-12
1.5438623e-09
7.9368589e-12
1.5443996e-09
-7.5621464e-12
1.5438905e-09
7.197513e-12
1.5443731e-09
-6.8501547e-12
1.5439165e-09
6.5141117e-12
1.5443486e-09
-6.194638e-12
1.5439403e-09
5.8863563e-12
1.5443262e-09
-5.5943769e-12
1.543962e-09
5.3140227e-12
1.5443061e-09
-5.0501312e-12
1.5439813e-09
4.7989216e-12
1.5442882e-09
-4.5636924e-12
1.5439984e-09
4.340891e-12
1.5442723e-09
-4.1331904e-12
1.5440133e-09
3.9387718e-12
1.544259e-09
-3.7613676e-12
1.5440258e-09
3.5971376e-12
1.5442476e-09
-3.447443e-12
1.5440362e-09
3.3115151e-12
1.5442386e-09
-3.1913189e-12
1.5440442e-09
3.0854822e-12
1.5442316e-09
-2.9936493e-12
1.5440496e-09
2.9196617e-12
1.5442252e-09
-2.8506085e-12
1.5440562e-09
2.7633439e-12
1.5442742e-09
-3.1520363e-12
2.4641869e-12
1.6193388e-09
1.7151378e-08
1.7165763e-09
-6.368755e-10
1.6804143e-09
3.7460535e-10
1.6819838e-09
-1.1577743e-11
1.6810458e-09
4.2851788e-12
1.6814595e-09
1.2101251e-11
1.6825761e-09
-1.7409938e-11
1.6817054e-09
1.6397482e-11
1.6827136e-09
-1.6548053e-11
1.6817564e-09
1.5865896e-11
1.6826722e-09
-1.5159821e-11
1.6817843e-09
1.4587357e-11
1.6826303e-09
-1.3932762e-11
1.6818168e-09
1.3361349e-11
1.6825939e-09
-1.2778229e-11
1.6818502e-09
1.2230666e-11
1.6825607e-09
-1.1697063e-11
1.6818827e-09
1.1181322e-11
1.6825297e-09
-1.0686508e-11
1.6819138e-09
1.0203121e-11
1.6825003e-09
-9.7411167e-12
1.681943e-09
9.290304e-12
1.6824726e-09
-8.8593091e-12
1.6819706e-09
8.4388967e-12
1.6824467e-09
-8.0383313e-12
1.6819962e-09
7.6480137e-12
1.6824226e-09
-7.2765622e-12
1.6820198e-09
6.9169371e-12
1.6824005e-09
-6.5753183e-12
1.6820415e-09
6.2453586e-12
1.6823802e-09
-5.9331153e-12
1.6820612e-09
5.6330746e-12
1.682362e-09
-5.3509534e-12
1.6820786e-09
5.0822837e-12
1.6823459e-09
-4.8309222e-12
1.6820941e-09
4.5926318e-12
1.6823315e-09
-4.3705855e-12
1.6821076e-09
4.1626953e-12
1.6823196e-09
-3.9733482e-12
1.6821188e-09
3.7978833e-12
1.6823093e-09
-3.6379187e-12
1.6821282e-09
3.4926488e-12
1.6823012e-09
-3.3643234e-12
1.6821353e-09
3.251306e-12
1.6822949e-09
-3.1532304e-12
1.6821402e-09
3.074386e-12
1.682289e-09
-2.9993674e-12
1.6821458e-09
2.9064915e-12
1.6823357e-09
-3.3418779e-12
2.5658767e-12
1.7367751e-09
1.7872353e-08
1.8436167e-09
-7.4371711e-10
1.8134207e-09
4.0480136e-10
1.8149177e-09
-1.3074689e-11
1.8141981e-09
5.0047557e-12
1.8149611e-09
1.1338223e-11
1.8159704e-09
-1.8419235e-11
1.8152411e-09
1.7126755e-11
1.8161293e-09
-1.7436245e-11
1.8152887e-09
1.6706538e-11
1.8160926e-09
-1.5963713e-11
1.8153114e-09
1.5368544e-11
1.8160548e-09
-1.467619e-11
1.8153394e-09
1.4076726e-11
1.8160224e-09
-1.3461202e-11
1.8153689e-09
1.2884173e-11
1.8159929e-09
-1.2321036e-11
1.8153979e-09
1.1776343e-11
1.8159652e-09
-1.1253869e-11
1.8154257e-09
1.074264e-11
1.815939e-09
-1.0254408e-11
1.8154519e-09
9.7774e-12
1.8159143e-09
-9.3216402e-12
1.8154766e-09
8.8765323e-12
1.8158912e-09
-8.4528619e-12
1.8154997e-09
8.039516e-12
1.8158696e-09
-7.6465307e-12
1.8155208e-09
7.2657585e-12
1.8158498e-09
-6.9043559e-12
1.8155402e-09
6.5549853e-12
1.8158317e-09
-6.2246609e-12
1.8155578e-09
5.9070073e-12
1.8158155e-09
-5.6086664e-12
1.8155734e-09
5.324438e-12
1.8158012e-09
-5.0587257e-12
1.8155872e-09
4.8066334e-12
1.8157884e-09
-4.5718175e-12
1.8155991e-09
4.3519467e-12
1.8157778e-09
-4.1520434e-12
1.8156091e-09
3.966639e-12
1.8157687e-09
-3.7975808e-12
1.8156174e-09
3.6439951e-12
1.8157616e-09
-3.5085019e-12
1.8156237e-09
3.3891698e-12
1.8157561e-09
-3.285579e-12
1.815628e-09
3.2024891e-12
1.8157506e-09
-3.1219698e-12
1.8156326e-09
3.0244257e-12
1.8157942e-09
-3.503495e-12
2.6421293e-12
1.8662179e-09
1.8463885e-08
1.9664933e-09
-8.4399252e-10
1.9417202e-09
4.2957447e-10
1.9432719e-09
-1.462634e-11
1.9428009e-09
5.4757683e-12
1.9438722e-09
1.026692e-11
1.9447661e-09
-1.9313185e-11
1.944176e-09
1.7716924e-11
1.9449427e-09
-1.820297e-11
1.9442188e-09
1.7430365e-11
1.9449101e-09
-1.6654953e-11
1.9442363e-09
1.604235e-11
1.9448764e-09
-1.5316324e-11
1.9442599e-09
1.4693217e-11
1.944848e-09
-1.4049244e-11
1.9442855e-09
1.3446687e-11
1.9448221e-09
-1.2857727e-11
1.9443108e-09
1.2287692e-11
1.944798e-09
-1.1741017e-11
1.9443353e-09
1.1205286e-11
1.9447749e-09
-1.0694038e-11
1.9443584e-09
1.0193925e-11
1.9447532e-09
-9.7164181e-12
1.9443802e-09
9.2495376e-12
1.9447329e-09
-8.8055732e-12
1.9444005e-09
8.3718833e-12
1.944714e-09
-7.9599751e-12
1.9444191e-09
7.5606198e-12
1.9446966e-09
-7.1818673e-12
1.9444362e-09
6.8154144e-12
1.9446808e-09
-6.4692274e-12
1.9444517e-09
6.1361013e-12
1.9446666e-09
-5.8235687e-12
1.9444653e-09
5.5257369e-12
1.9446541e-09
-5.2475327e-12
1.9444773e-09
4.9833628e-12
1.9446429e-09
-4.737388e-12
1.9444878e-09
4.5070669e-12
1.9446338e-09
-4.2980692e-12
1.9444964e-09
4.1040191e-12
1.9446259e-09
-3.92702e-12
1.9445036e-09
3.7662349e-12
1.9446197e-09
-3.6245478e-12
1.9445091e-09
3.4997569e-12
1.9446149e-09
-3.3914226e-12
1.9445127e-09
3.3046775e-12
1.94461e-09
-3.2191829e-12
1.9445164e-09
3.1179395e-12
1.94465e-09
-3.6370528e-12
2.6944639e-12
1.9788592e-09
1.8942775e-08
2.0828694e-09
-9.4800268e-10
2.065384e-09
4.4705986e-10
2.0670603e-09
-1.6302654e-11
2.0668517e-09
5.6843541e-12
2.0681949e-09
8.9237761e-12
2.0689635e-09
-2.0081869e-11
2.0685102e-09
1.8170309e-11
2.0691541e-09
-1.8846927e-11
2.0685469e-09
1.8037523e-11
2.069125e-09
-1.7233045e-11
2.0685589e-09
1.6608458e-11
2.0690954e-09
-1.5852755e-11
2.0685781e-09
1.521043e-11
2.0690709e-09
-1.4541967e-11
2.0685997e-09
1.3917835e-11
2.0690488e-09
-1.3306782e-11
2.0686214e-09
1.2715051e-11
2.0690281e-09
-1.2147667e-11
2.0686426e-09
1.1590816e-11
2.0690084e-09
-1.1059832e-11
2.0686625e-09
1.0539831e-11
2.0689896e-09
-1.0043617e-11
2.0686813e-09
9.5579273e-12
2.0689722e-09
-9.0965348e-12
2.0686988e-09
8.6453014e-12
2.068956e-09
-8.2171487e-12
2.0687148e-09
7.8017746e-12
2.0689411e-09
-7.4081437e-12
2.0687295e-09
7.0269987e-12
2.0689275e-09
-6.667236e-12
2.0687428e-09
6.3208229e-12
2.0689154e-09
-5.9962039e-12
2.0687544e-09
5.6867667e-12
2.0689048e-09
-5.3979269e-12
2.0687647e-09
5.1234479e-12
2.0688953e-09
-4.8679596e-12
2.0687736e-09
4.6287519e-12
2.0688876e-09
-4.4120971e-12
2.0687809e-09
4.2107521e-12
2.0688809e-09
-4.0270363e-12
2.068787e-09
3.8601195e-12
2.0688757e-09
-3.7132368e-12
2.0687916e-09
3.5838903e-12
2.0688717e-09
-3.471567e-12
2.0687946e-09
3.3817918e-12
2.0688673e-09
-3.2918951e-12
2.0687974e-09
3.1878604e-12
2.0689033e-09
-3.7429507e-12
2.7244815e-12
2.0997227e-09
1.9300803e-08
2.1957665e-09
-1.0440466e-09
2.1844838e-09
4.5834258e-10
2.1863313e-09
-1.8150152e-11
2.1863449e-09
5.6707635e-12
2.1879315e-09
7.3371934e-12
2.1885626e-09
-2.0712984e-11
2.1882433e-09
1.8489604e-11
2.1887635e-09
-1.9367135e-11
2.1882726e-09
1.8528428e-11
2.1887375e-09
-1.7697909e-11
2.1882791e-09
1.7066844e-11
2.1887117e-09
-1.6285385e-11
2.1882939e-09
1.5628286e-11
2.1886912e-09
-1.4939276e-11
2.1883114e-09
1.4297566e-11
2.1886728e-09
-1.366817e-11
2.1883295e-09
1.3058442e-11
2.1886557e-09
-1.2473877e-11
2.1883471e-09
1.1899359e-11
2.1886392e-09
-1.1351938e-11
2.1883638e-09
1.0815257e-11
2.1886236e-09
-1.0303456e-11
2.1883796e-09
9.8020085e-12
2.1886091e-09
-9.3260999e-12
2.1883943e-09
8.8601272e-12
2.1885956e-09
-8.4184409e-12
2.1884076e-09
7.9897317e-12
2.1885832e-09
-7.5837499e-12
2.1884199e-09
7.1903452e-12
2.188572e-09
-6.8193081e-12
2.1884309e-09
6.4618421e-12
2.188562e-09
-6.1272368e-12
2.1884405e-09
5.8082276e-12
2.1885533e-09
-5.510674e-12
2.188449e-09
5.2276731e-12
2.1885454e-09
-4.9643351e-12
2.1884563e-09
4.7178273e-12
2.1885392e-09
-4.4950187e-12
2.1884623e-09
4.287708e-12
2.1885337e-09
-4.0984566e-12
2.1884673e-09
3.9265632e-12
2.1885295e-09
-3.7754823e-12
2.1884709e-09
3.6424574e-12
2.1885263e-09
-3.5269375e-12
2.1884734e-09
3.4347248e-12
2.1885225e-09
-3.3410455e-12
2.1884753e-09
3.2351344e-12
2.188554e-09
-3.8217198e-12
2.7338238e-12
2.2082772e-09
1.9550276e-08
2.3025533e-09
-1.1383227e-09
2.2990535e-09
4.6184237e-10
2.3011347e-09
-2.0231319e-11
2.3012756e-09
5.5298736e-12
2.3030831e-09
5.5297272e-12
2.303563e-09
-2.1192923e-11
2.3033752e-09
1.8677419e-11
2.3037712e-09
-1.976311e-11
2.3033958e-09
1.8903796e-11
2.3037476e-09
-1.8049774e-11
2.3033967e-09
1.741784e-11
2.3037257e-09
-1.661448e-11
2.303407e-09
1.5947043e-11
2.3037092e-09
-1.5241435e-11
2.3034206e-09
1.4586139e-11
2.3036946e-09
-1.3942162e-11
2.3034349e-09
1.3318159e-11
2.303681e-09
-1.2719958e-11
2.3034491e-09
1.2131251e-11
2.3036679e-09
-1.1570748e-11
2.3034624e-09
1.1020715e-11
2.3036554e-09
-1.0496446e-11
2.3034751e-09
9.9823108e-12
2.3036438e-09
-9.4948354e-12
2.3034869e-09
9.0170316e-12
2.3036331e-09
-8.5645725e-12
2.3034976e-09
8.1251831e-12
2.3036233e-09
-7.7093944e-12
2.3035074e-09
7.3062045e-12
2.3036143e-09
-6.9262466e-12
2.3035162e-09
6.5599865e-12
2.3036065e-09
-6.2175581e-12
2.3035237e-09
5.8910332e-12
2.3035997e-09
-5.5866614e-12
2.3035304e-09
5.2969542e-12
2.3035935e-09
-5.0274489e-12
2.3035361e-09
4.775244e-12
2.3035888e-09
-4.5477383e-12
2.3035407e-09
4.3358387e-12
2.3035845e-09
-4.1422985e-12
2.3035446e-09
3.966512e-12
2.3035813e-09
-3.8122448e-12
2.3035473e-09
3.6764595e-12
2.3035789e-09
-3.5585038e-12
2.3035492e-09
3.4644787e-12
2.3035758e-09
-3.3676672e-12
2.3035502e-09
3.2607098e-12
2.3036026e-09
-3.8740812e-12
2.7241509e-12
2.3217796e-09
1.9686246e-08
2.4064585e-09
-1.2230015e-09
2.409214e-09
4.5908692e-10
2.4115417e-09
-2.2559091e-11
2.411642e-09
5.4295762e-12
2.4136538e-09
3.5179987e-12
2.4139657e-09
-2.1504909e-11
2.4139058e-09
1.8737395e-11
2.4141771e-09
-2.0034447e-11
2.4139162e-09
1.9164727e-11
2.4141556e-09
-1.8289254e-11
2.4139114e-09
1.7662085e-11
2.4141375e-09
-1.6840605e-11
2.4139173e-09
1.616728e-11
2.4141248e-09
-1.544899e-11
2.4139268e-09
1.4784139e-11
2.414114e-09
-1.4129347e-11
2.4139374e-09
1.349483e-11
2.414104e-09
-1.2886562e-11
2.413948e-09
1.22872e-11
2.4140942e-09
-1.1716971e-11
2.4139581e-09
1.1156874e-11
2.414085e-09
-1.0623325e-11
2.4139676e-09
1.0099643e-11
2.4140764e-09
-9.6035767e-12
2.4139766e-09
9.1168259e-12
2.4140684e-09
-8.6563658e-12
2.4139845e-09
8.209057e-12
2.4140612e-09
-7.7860427e-12
2.4139918e-09
7.3755622e-12
2.4140546e-09
-6.9890285e-12
2.4139983e-09
6.6162619e-12
2.4140489e-09
-6.2681437e-12
2.4140037e-09
5.936175e-12
2.414044e-09
-5.6269329e-12
2.4140086e-09
5.332334e-12
2.4140395e-09
-5.0583457e-12
2.4140127e-09
4.8020523e-12
2.4140363e-09
-4.5713629e-12
2.414016e-09
4.3562099e-12
2.4140332e-09
-4.1595651e-12
2.4140187e-09
3.9810536e-12
2.414031e-09
-3.8245978e-12
2.4140206e-09
3.6869289e-12
2.4140294e-09
-3.5673299e-12
2.4140218e-09
3.4720743e-12
2.4140269e-09
-3.372811e-12
2.414022e-09
3.2656358e-12
2.4140488e-09
-3.9008372e-12
2.6971069e-12
2.4268529e-09
1.9717143e-08
2.5046373e-09
-1.3007859e-09
2.5148769e-09
4.4884731e-10
2.5175468e-09
-2.5229015e-11
2.5174505e-09
5.5258868e-12
2.5196445e-09
1.3239691e-12
2.5197707e-09
-2.1631079e-11
2.5198345e-09
1.867359e-11
2.5199814e-09
-2.0181326e-11
2.5198335e-09
1.9312547e-11
2.5199616e-09
-1.8417326e-11
2.5198232e-09
1.7800549e-11
2.5199473e-09
-1.6964718e-11
2.5198246e-09
1.6289902e-11
2.5199385e-09
-1.5562859e-11
2.5198302e-09
1.4892455e-11
2.5199315e-09
-1.4230613e-11
2.519837e-09
1.3589346e-11
2.519925e-09
-1.297458e-11
2.5198441e-09
1.2368101e-11
2.5199187e-09
-1.1791542e-11
2.5198508e-09
1.1224777e-11
2.5199125e-09
-1.0685109e-11
2.5198572e-09
1.0155015e-11
2.5199069e-09
-9.6533499e-12
2.5198631e-09
9.1606239e-12
2.5199017e-09
-8.6949639e-12
2.5198684e-09
8.2424366e-12
2.5198971e-09
-7.8147716e-12
2.5198731e-09
7.3995158e-12
2.5198929e-09
-7.0087856e-12
2.5198773e-09
6.6318022e-12
2.5198894e-09
-6.2801752e-12
2.5198807e-09
5.944836e-12
2.5198864e-09
-5.6326223e-12
2.5198838e-09
5.3349577e-12
2.5198836e-09
-5.058173e-12
2.5198863e-09
4.7993993e-12
2.5198819e-09
-4.5669706e-12
2.5198881e-09
4.349938e-12
2.51988e-09
-4.1514323e-12
2.5198898e-09
3.9712708e-12
2.5198788e-09
-3.8136291e-12
2.5198908e-09
3.6749873e-12
2.5198779e-09
-3.554493e-12
2.5198914e-09
3.4586189e-12
2.5198762e-09
-3.3575976e-12
2.5198909e-09
3.2509341e-12
2.519893e-09
-3.9029418e-12
2.6543086e-12
2.5334738e-09
1.9641419e-08
2.6004803e-09
-1.3677923e-09
2.6161589e-09
4.3316866e-10
2.6190467e-09
-2.8116832e-11
2.6186966e-09
5.8760047e-12
2.6210517e-09
-1.0311084e-12
2.6209771e-09
-2.1556483e-11
2.6211602e-09
1.8490438e-11
2.6211835e-09
-2.0204596e-11
2.6211473e-09
1.9348713e-11
2.6211655e-09
-1.8435507e-11
2.6211316e-09
1.7834439e-11
2.621155e-09
-1.6988108e-11
2.6211288e-09
1.6316117e-11
2.6211502e-09
-1.5584243e-11
2.6211304e-09
1.491229e-11
2.6211469e-09
-1.4247166e-11
2.6211333e-09
1.3602929e-11
2.621144e-09
-1.2985242e-11
2.6211369e-09
1.2375219e-11
2.621141e-09
-1.1795701e-11
2.6211402e-09
1.1225597e-11
2.6211381e-09
-1.0683023e-11
2.6211435e-09
1.01497e-11
2.6211355e-09
-9.6454315e-12
2.6211465e-09
9.1496476e-12
2.6211331e-09
-8.681576e-12
2.6211489e-09
8.2266206e-12
2.6211311e-09
-7.7968961e-12
2.6211512e-09
7.3793762e-12
2.6211292e-09
-6.9867963e-12
2.6211531e-09
6.6078931e-12
2.6211278e-09
-6.254883e-12
2.6211544e-09
5.9182426e-12
2.6211268e-09
-5.6049934e-12
2.6211557e-09
5.3060691e-12
2.6211257e-09
-5.0281593e-12
2.6211566e-09
4.7685021e-12
2.6211254e-09
-4.5358258e-12
2.6211571e-09
4.3182271e-12
2.6211247e-09
-4.1190236e-12
2.6211576e-09
3.9383681e-12
2.6211245e-09
-3.7805161e-12
2.6211577e-09
3.6417572e-12
2.6211244e-09
-3.5211419e-12
2.6211578e-09
3.425208e-12
2.6211233e-09
-3.3231365e-12
2.6211566e-09
3.2177112e-12
2.621135e-09
-3.8813861e-12
2.5973162e-12
2.6349454e-09
1.9464224e-08
2.691147e-09
-1.4239939e-09
2.7129507e-09
4.1136501e-10
2.7159202e-09
-3.1086331e-11
2.715379e-09
6.4172127e-12
2.7178714e-09
-3.5235337e-12
2.7175844e-09
-2.126949e-11
2.7178825e-09
1.8192304e-11
2.7177836e-09
-2.0105714e-11
2.7178574e-09
1.9274944e-11
2.7177675e-09
-1.8345659e-11
2.7178367e-09
1.7765315e-11
2.717761e-09
-1.6912461e-11
2.7178297e-09
1.6247464e-11
2.7177601e-09
-1.5514719e-11
2.7178273e-09
1.4845152e-11
2.7177606e-09
-1.4180501e-11
2.7178265e-09
1.3537048e-11
2.7177613e-09
-1.2919997e-11
2.7178265e-09
1.2309982e-11
2.7177617e-09
-1.1730899e-11
2.7178264e-09
1.1160869e-11
2.717762e-09
-1.0618549e-11
2.7178265e-09
1.0085147e-11
2.7177624e-09
-9.5812635e-12
2.7178266e-09
9.0854073e-12
2.7177627e-09
-8.6177187e-12
2.7178263e-09
8.1630323e-12
2.7177632e-09
-7.7338087e-12
2.7178261e-09
7.3165338e-12
2.7177637e-09
-6.9244658e-12
2.7178257e-09
6.5459188e-12
2.7177645e-09
-6.1936825e-12
2.717825e-09
5.8577897e-12
2.7177653e-09
-5.5453693e-12
2.7178244e-09
5.2469855e-12
2.7177659e-09
-4.9696085e-12
2.7178237e-09
4.7106469e-12
2.717767e-09
-4.479125e-12
2.7178229e-09
4.262303e-12
2.7177675e-09
-4.0636183e-12
2.7178224e-09
3.8835112e-12
2.7177683e-09
-3.7264212e-12
2.7178216e-09
3.5884287e-12
2.7177689e-09
-3.4684103e-12
2.7178211e-09
3.3730039e-12
2.7177686e-09
-3.2705864e-12
2.7178192e-09
3.1670192e-12
2.7177751e-09
-3.8372796e-12
2.5276321e-12
2.7344946e-09
1.9187479e-08
2.7797535e-09
-1.4692528e-09
2.8053831e-09
3.857354e-10
2.8081411e-09
-3.3844322e-11
2.8074911e-09
7.0671593e-12
2.8101003e-09
-6.1326777e-12
2.809592e-09
-2.0761175e-11
2.8100009e-09
1.7783402e-11
2.8097816e-09
-1.9886411e-11
2.8099633e-09
1.9093228e-11
2.8097677e-09
-1.8150101e-11
2.809938e-09
1.7595025e-11
2.8097653e-09
-1.6739766e-11
2.809927e-09
1.6085793e-11
2.8097684e-09
-1.5356132e-11
2.8099207e-09
1.4692859e-11
2.8097726e-09
-1.4032422e-11
2.8099162e-09
1.3393498e-11
2.8097768e-09
-1.2780628e-11
2.8099126e-09
1.2174181e-11
2.8097806e-09
-1.1598877e-11
2.8099092e-09
1.1032235e-11
2.809784e-09
-1.0493358e-11
2.8099061e-09
9.9630488e-12
2.8097874e-09
-9.4625176e-12
2.8099033e-09
8.9694873e-12
2.8097905e-09
-8.5049376e-12
2.8099003e-09
8.0532886e-12
2.8097936e-09
-7.62712e-12
2.8098975e-09
7.2125701e-12
2.8097964e-09
-6.8233184e-12
2.8098949e-09
6.4473888e-12
2.8097992e-09
-6.0980031e-12
2.8098921e-09
5.7648822e-12
2.809802e-09
-5.4551783e-12
2.8098898e-09
5.1590962e-12
2.8098041e-09
-4.8838778e-12
2.8098876e-09
4.6271632e-12