/*--------------------------------*- C++ -*----------------------------------*\
| =========                 |                                                 |
| \\      /  F ield         | OpenFOAM: The Open Source CFD Toolbox           |
|  \\    /   O peration     | Version:  2312                                  |
|   \\  /    A nd           | Website:  www.openfoam.com                      |
|    \\/     M anipulation  |                                                 |
\*---------------------------------------------------------------------------*/
FoamFile
{
    version     2.0;
    format      ascii;
    arch        "LSB;label=32;scalar=64";
    class       volScalarField;
    location    "1";
    object      T;
}
// * * * * * * * * * * * * * * * * * * * * * * * * * * * * * * * * * * * * * //

dimensions      [0 0 0 1 0 0 0];

internalField   nonuniform List<scalar> 
4000
(
309.86572
311.0545
311.21413
311.29548
311.3509
311.40584
311.44622
311.49182
311.52614
311.56578
311.5957
311.63061
311.65724
311.68884
311.71356
311.74326
311.76725
311.79606
311.82005
311.84852
311.87283
311.90119
311.92588
311.95418
311.97923
312.00745
312.0328
312.06091
312.0865
312.11449
312.14026
312.16814
312.19405
312.22181
312.24785
312.27551
312.30164
312.32923
312.35542
312.38296
312.40918
312.43671
312.46292
312.49047
312.51665
312.54426
312.57036
312.59809
312.62395
312.65236
307.7473
309.90305
310.32195
310.51058
310.62156
310.73101
310.797
310.87852
310.92641
310.99017
311.02492
311.07457
311.09948
311.13915
311.15828
311.19217
311.20905
311.24025
311.25707
311.28722
311.30496
311.33477
311.35367
311.38328
311.40326
311.43264
311.45351
311.48259
311.50416
311.5329
311.55502
311.5834
311.60596
311.63401
311.65691
311.68468
311.70785
311.73539
311.75875
311.78616
311.80961
311.83697
311.86041
311.88784
311.91117
311.93876
311.96185
311.98982
312.01221
312.04212
306.35402
308.78049
309.43551
309.72878
309.89468
310.05783
310.14944
310.26651
310.32831
310.41622
310.45642
310.52105
310.5449
310.59286
310.60691
310.6451
310.6552
310.68873
310.69857
310.73029
310.74159
310.77269
310.78589
310.81667
310.83166
310.86209
310.87855
310.90851
310.92614
310.95554
310.97408
311.00291
311.02217
311.05046
311.07029
311.09812
311.11839
311.14586
311.16643
311.19369
311.2144
311.24159
311.26229
311.28958
311.3101
311.33766
311.35778
311.38596
311.40493
311.4361
305.38398
307.71492
308.56382
308.9549
309.17372
309.38875
309.50568
309.65745
309.73354
309.84546
309.89196
309.97184
309.99562
310.05216
310.06196
310.10453
310.10842
310.14418
310.14741
310.18048
310.18555
310.2177
310.22536
310.25709
310.26722
310.29849
310.31068
310.34135
310.35517
310.3851
310.4002
310.42936
310.44545
310.47388
310.49076
310.51857
310.53605
310.56338
310.58125
310.60829
310.62636
310.65332
310.67136
310.69846
310.71625
310.74373
310.76096
310.78929
310.80498
310.83702
304.67991
306.73138
307.71876
308.19564
308.46341
308.72716
308.86862
309.05361
309.14421
309.2797
309.33347
309.42878
309.4537
309.51912
309.52574
309.57281
309.57125
309.60913
309.60623
309.64038
309.63955
309.67242
309.67477
309.70712
309.71259
309.74443
309.75254
309.78369
309.79388
309.82416
309.83598
309.86532
309.87841
309.90687
309.92094
309.94863
309.96344
309.99055
310.00585
310.03261
310.04813
310.07482
310.09029
310.11715
310.1323
310.15965
310.17411
310.2025
310.21509
310.24758
304.15356
305.84901
306.91342
307.45911
307.76955
308.07736
308.24182
308.45781
308.56285
308.72105
308.78298
308.89373
308.92114
308.99571
309.00041
309.0521
309.04601
309.0859
309.07747
309.1124
309.10606
309.13928
309.13661
309.1692
309.17026
309.20234
309.20659
309.23794
309.24473
309.27513
309.28389
309.31323
309.32351
309.35185
309.36329
309.39074
309.40305
309.42984
309.4427
309.46911
309.48222
309.50854
309.52158
309.54813
309.56078
309.5879
309.59975
309.62808
309.63783
309.67031
303.75117
305.07892
306.16055
306.75419
307.09865
307.44429
307.62938
307.87334
307.9923
308.17187
308.24267
308.36861
308.39984
308.48376
308.4879
308.54435
308.5348
308.57657
308.56336
308.59875
308.58739
308.62054
308.61318
308.64561
308.64252
308.67447
308.67511
308.70635
308.70998
308.74025
308.74618
308.77533
308.78302
308.81106
308.82008
308.84716
308.85715
308.88351
308.89411
308.92006
308.93091
308.9568
308.96754
308.99371
309.00401
309.03081
309.04022
309.06833
309.07556
309.10757
303.43865
304.42536
305.47107
306.08969
306.45753
306.83331
307.03575
307.30385
307.4357
307.63474
307.71479
307.85538
307.89164
307.98498
307.98995
308.05129
308.03945
308.08303
308.06584
308.1014
308.08556
308.11823
308.10657
308.13839
308.13146
308.16287
308.16018
308.19097
308.1917
308.22156
308.22491
308.25364
308.25898
308.28656
308.29337
308.31995
308.32781
308.35363
308.36214
308.38754
308.3963
308.42166
308.43029
308.45596
308.4641
308.49046
308.49765
308.52537
308.53041
308.56156
303.1924
303.8853
304.85302
305.47364
305.85285
306.24985
306.46555
306.75321
306.89636
307.11243
307.20171
307.356
307.3983
307.50097
307.50813
307.57446
307.56153
307.60688
307.58661
307.62209
307.60237
307.63417
307.61861
307.64939
307.63893
307.66939
307.66363
307.69363
307.69171
307.72088
307.72191
307.75
307.75323
307.78017
307.785
307.81092
307.81687
307.84202
307.84864
307.87339
307.88025
307.90498
307.91167
307.93675
307.94293
307.96872
307.97394
308.00107
308.00427
308.03422
302.99608
303.45091
304.31095
304.91248
305.2906
305.69916
305.92332
306.22532
306.37764
306.60777
306.70581
306.87247
306.92152
307.0332
307.04379
307.11516
307.10238
307.14948
307.12707
307.16226
307.13931
307.1699
307.15088
307.1802
307.16652
307.19563
307.18708
307.21592
307.21162
307.23982
307.23877
307.266
307.26735
307.29348
307.29655
307.32168
307.32592
307.3503
307.35522
307.37922
307.38436
307.40837
307.41332
307.43771
307.44212
307.46722
307.47071
307.49706
307.49878
307.52725
302.83748
303.11016
303.84574
304.4106
304.77569
305.18589
305.41326
305.72396
305.88286
306.12361
306.22949
306.40678
306.46292
306.58306
306.59814
306.67452
306.66305
306.71192
306.68836
306.72312
306.69764
306.7267
306.70468
306.73217
306.7156
306.74296
306.73187
306.75923
306.75277
306.77972
306.77683
306.80298
306.80268
306.82784
306.82937
306.85357
306.85631
306.87982
306.88323
306.90639
306.90999
306.9332
306.9366
306.96019
306.96306
306.98733
306.98935
307.01473
307.0153
307.04208
302.70764
302.84919
303.45499
303.97003
304.31157
304.71385
304.93902
305.25256
305.41509
305.6627
305.77506
305.96086
306.02406
306.15183
306.17221
306.25347
306.24441
306.29508
306.27132
306.30559
306.27827
306.30559
306.28105
306.30637
306.28723
306.31249
306.29911
306.32464
306.31625
306.34169
306.33717
306.36203
306.36031
306.38433
306.38453
306.40769
306.40913
306.43166
306.43375
306.45599
306.45826
306.48056
306.48262
306.5053
306.50686
306.53017
306.53097
306.5552
306.55492
306.5799
302.59977
302.65324
303.13346
303.59041
303.90003
304.28572
304.50347
304.81405
304.97706
305.22755
305.34466
305.53656
305.60639
305.74069
305.76689
305.85277
305.84707
305.89957
305.87655
305.91031
305.88189
305.90731
305.88075
305.90362
305.88223
305.90508
305.88962
305.91304
305.90291
305.92658
305.92063
305.94401
305.94106
305.96379
305.96286
305.98488
305.9852
306.00667
306.00763
306.02886
306.02998
306.05131
306.05221
306.0739
306.07436
306.09659
306.09643
306.11936
306.11848
306.14158
302.50875
302.5082
302.87396
303.26919
303.54111
303.90294
304.10852
304.41066
304.57099
304.82036
304.94023
305.13556
305.21122
305.35071
305.38296
305.47304
305.47146
305.52579
305.50438
305.53769
305.50888
305.53233
305.50424
305.52447
305.50115
305.52131
305.504
305.52503
305.51334
305.53501
305.52779
305.54952
305.5455
305.56684
305.56494
305.58572
305.5851
305.60543
305.60544
305.6256
305.62575
305.64603
305.64598
305.66659
305.66615
305.6872
305.6863
305.70781
305.70656
305.72776
302.43075
302.40136
302.66808
303.00206
303.23323
303.56564
303.75507
304.04388
304.19849
304.44288
304.56336
304.75935
304.83971
304.98282
305.02101
305.11473
305.11784
305.17397
305.15494
305.18788
305.15938
305.18086
305.15174
305.16921
305.14427
305.16154
305.14258
305.16098
305.14787
305.16734
305.15899
305.17892
305.17398
305.19381
305.1911
305.21056
305.20917
305.2283
305.22753
305.24656
305.24591
305.26507
305.26425
305.2837
305.28257
305.30235
305.30092
305.32093
305.31947
305.3388
302.36292
302.32198
302.50705
302.7834
302.97335
303.27266
303.44297
303.71432
303.8605
304.09634
304.21525
304.40911
304.49281
304.63782
304.68154
304.77817
304.7863
304.84412
304.82814
304.86082
304.83327
304.85288
304.82322
304.83789
304.81165
304.82588
304.80544
304.82103
304.80662
304.82371
304.81435
304.83233
304.82661
304.84483
304.84145
304.85953
304.8575
304.87539
304.87398
304.89183
304.89055
304.90855
304.90712
304.92536
304.92371
304.94217
304.94038
304.95884
304.95731
304.97483
302.30315
302.26152
302.38231
302.60687
302.75736
303.02174
303.17102
303.42173
303.55722
303.78139
303.89664
304.08571
304.17121
304.31629
304.36488
304.46355
304.47679
304.53612
304.52369
304.55624
304.53025
304.54813
304.51841
304.53032
304.50308
304.51419
304.49244
304.50508
304.48948
304.50405
304.49375
304.50968
304.50326
304.5198
304.51586
304.53252
304.52997
304.5466
304.54467
304.56133
304.55955
304.57635
304.57448
304.59146
304.58946
304.60654
304.60456
304.62145
304.61994
304.63574
302.24991
302.21356
302.28605
302.46589
302.58036
302.80972
302.93718
303.16506
303.28815
303.49808
303.60779
303.78962
303.87533
304.01863
304.07118
304.17091
304.18913
304.24972
304.2412
304.27373
304.24981
304.26615
304.23683
304.2461
304.21816
304.22613
304.20325
304.21283
304.19612
304.20806
304.19689
304.21068
304.20363
304.21844
304.21403
304.22923
304.22628
304.24161
304.2393
304.25474
304.2526
304.26818
304.266
304.2817
304.27949
304.29518
304.29311
304.30846
304.30702
304.32121
302.20208
302.17355
302.2115
302.35406
302.43711
302.63279
302.73866
302.94254
303.05212
303.24587
303.34846
303.52091
303.60525
303.74499
303.80045
303.90018
303.92302
303.98451
303.98009
304.01269
303.99129
304.00632
303.97783
303.98462
303.95628
303.96118
303.9373
303.9438
303.92604
303.93527
303.92327
303.93485
303.92723
303.94026
303.93545
303.94918
303.94591
303.95994
303.95735
303.97156
303.96918
303.98353
303.98117
303.99558
303.99327
304.00757
304.00553
304.01937
304.01805
304.03072
302.15883
302.13852
302.15309
302.26554
302.3223
302.48675
302.57215
302.75181
302.84737
303.02366
303.11791
303.27924
303.36075
303.49527
303.55249
303.65111
303.67805
303.74
303.73972
303.77244
303.75387
303.76784
303.74057
303.74512
303.71667
303.71861
303.6939
303.69732
303.67857
303.68504
303.67224
303.68157
303.6734
303.68463
303.67947
303.69172
303.6882
303.70094
303.69816
303.71115
303.70863
303.72175
303.71931
303.73244
303.73013
303.74307
303.74112
303.75352
303.75233
303.76361
302.11957
302.10664
302.10638
302.19519
302.23091
302.3673
302.43401
302.59007
302.67167
302.82988
302.91495
303.06386
303.14127
303.2691
303.3269
303.42332
303.45368
303.51561
303.51933
303.55216
303.53667
303.54982
303.52412
303.52669
303.49842
303.49757
303.47217
303.47257
303.45288
303.4566
303.44299
303.45005
303.44134
303.45077
303.44529
303.45607
303.45236
303.46382
303.46093
303.47271
303.47013
303.48205
303.4796
303.49149
303.48925
303.50087
303.49906
303.51011
303.50905
303.51906
302.08384
302.07692
302.06806
302.13873
302.15833
302.27025
302.32053
302.45427
302.52247
302.66255
302.73801
302.87366
302.94593
303.06585
303.1231
303.21628
303.24929
303.31064
303.31811
303.35099
303.3387
303.35127
303.32742
303.32832
303.30049
303.29707
303.27113
303.26861
303.24803
303.24901
303.23461
303.23939
303.23016
303.23778
303.232
303.24132
303.23747
303.24768
303.24472
303.25534
303.25275
303.26351
303.26113
303.2718
303.26969
303.28006
303.27841
303.28819
303.28728
303.29611
302.05125
302.0489
302.03571
302.09271
302.10059
302.19169
302.22802
302.34121
302.39698
302.51944
302.58523
302.7072
302.77356
302.88466
302.94031
303.02931
303.06413
303.12434
303.13516
303.16799
303.15893
303.17112
303.14936
303.1489
303.12175
303.11601
303.08969
303.08439
303.06297
303.06127
303.04608
303.0486
303.03882
303.04466
303.03859
303.04649
303.04252
303.0515
303.04854
303.05801
303.05549
303.06511
303.06284
303.07237
303.07041
303.07961
303.07813
303.08675
303.08597
303.09374
302.02153
302.02242
302.00767
302.05446
302.05432
302.12811
302.15303
302.24778
302.29235
302.39811
302.45451
302.56282
302.62277
302.7244
302.77755
302.86157
302.89737
302.95587
302.96958
303.00219
302.99627
303.00826
302.98876
302.98725
302.96101
302.95323
302.92669
302.91878
302.89658
302.89228
302.87629
302.87659
302.86626
302.87034
302.86399
302.87049
302.86642
302.87422
302.87128
302.87966
302.87723
302.88578
302.88366
302.8921
302.89032
302.89842
302.89712
302.90468
302.90401
302.91083
301.99442
301.9975
301.98284
302.02199
302.0168
302.07649
302.09242
302.17098
302.20577
302.29607
302.34362
302.43864
302.49197
302.5838
302.63372
302.7121
302.74807
302.80433
302.82039
302.85259
302.84965
302.86156
302.84443
302.84217
302.81704
302.80752
302.78089
302.77059
302.74766
302.74088
302.72409
302.72224
302.71133
302.7137
302.70705
302.7122
302.70804
302.7147
302.7118
302.71914
302.71684
302.72437
302.72242
302.72984
302.72826
302.73534
302.73422
302.74081
302.74025
302.74621
301.96969
301.97418
301.9605
301.99388
301.98589
302.03427
302.04343
302.10805
302.13455
302.21086
302.25029
302.3327
302.37942
302.46141
302.50755
302.57982
302.61523
302.66876
302.6866
302.71817
302.71797
302.7299
302.71517
302.71245
302.68859
302.67763
302.65106
302.63858
302.615
302.60587
302.58828
302.58435
302.57285
302.57356
302.5666
302.57045
302.56621
302.57179
302.56895
302.5753
302.57313
302.57971
302.57795
302.58443
302.58303
302.5892
302.58824
302.59396
302.59349
302.59868
301.94715
301.9525
301.94024
301.96915
301.95999
301.99942
302.0037
302.05656
302.07622
302.1401
302.1723
302.24299
302.28333
302.35569
302.39769
302.46357
302.49777
302.54816
302.56721
302.5979
302.60015
302.61214
302.59981
302.59686
302.5744
302.5623
302.53594
302.52152
302.49735
302.48602
302.46765
302.46173
302.44964
302.44875
302.44147
302.44407
302.43975
302.44429
302.44151
302.44695
302.44492
302.45062
302.44904
302.45465
302.45344
302.45877
302.45797
302.46291
302.46252
302.46702
301.92664
301.93248
301.92178
301.94711
301.9379
301.9703
301.97128
302.01436
302.02856
302.0816
302.10752
302.16754
302.20189
302.26503
302.30272
302.36209
302.39457
302.44148
302.46119
302.49078
302.49513
302.50719
302.49718
302.49421
302.47325
302.4603
302.43426
302.41815
302.39348
302.38012
302.36099
302.35318
302.34048
302.33807
302.33047
302.33188
302.32746
302.33104
302.32832
302.3329
302.33102
302.33591
302.3345
302.33933
302.33829
302.34288
302.3422
302.34646
302.34614
302.35003
301.90799
301.91413
301.90497
301.92733
301.91877
301.94566
301.9446
301.97966
301.98964
302.03339
302.05396
302.10445
302.13332
302.18782
302.2212
302.27411
302.30445
302.34766
302.36753
302.39578
302.40189
302.41398
302.40618
302.40337
302.38396
302.37042
302.34481
302.32725
302.30215
302.28694
302.26709
302.25752
302.24422
302.24036
302.23242
302.23271
302.2282
302.23087
302.2282
302.23199
302.23025
302.2344
302.23315
302.23729
302.2364
302.24032
302.23976
302.24341
302.24315
302.2465
301.89108
301.8974
301.88969
301.90952
301.90201
301.92456
301.9224
301.95097
301.95779
301.99369
302.00984
302.05195
302.07593
302.1225
302.15168
302.19834
302.22626
302.26563
302.2852
302.31192
302.31942
302.33149
302.32574
302.32321
302.30538
302.29147
302.2664
302.24763
302.22219
302.20531
302.18478
302.17357
302.15967
302.15446
302.14619
302.14543
302.14081
302.14265
302.14002
302.14309
302.14147
302.14496
302.14386
302.14737
302.14662
302.14996
302.1495
302.15261
302.1524
302.15527
301.87578
301.88223
301.87588
301.8935
301.88719
301.90632
301.90373
301.92709
301.93164
301.961
301.97357
302.00843
302.02814
302.06755
302.09276
302.13348
302.15882
302.1943
302.2132
302.23823
302.24678
302.25874
302.25486
302.2527
302.23644
302.22236
302.19789
302.17813
302.15244
302.13408
302.11292
302.1002
302.08574
302.07928
302.07066
302.06893
302.0642
302.06527
302.06268
302.06509
302.06358
302.06648
302.06551
302.06847
302.06783
302.07066
302.07029
302.07294
302.07277
302.07522
301.862
301.86859
301.86348
301.87913
301.87406
301.89043
301.88788
301.90706
301.91006
301.93403
301.94376
301.97244
301.98849
302.02156
302.04311
302.0783
302.10099
302.13264
302.15056
302.17378
302.18303
302.19482
302.19259
302.19085
302.1761
302.16203
302.13821
302.11767
302.0918
302.07214
302.05043
302.03635
302.02135
302.01373
302.00479
302.00216
301.99732
301.99769
301.99513
301.99695
301.99554
301.99791
301.99705
301.99952
301.99899
302.00138
302.00107
302.00331
302.00318
302.00527
301.84967
301.85639
301.85242
301.86631
301.86241
301.87654
301.87429
301.89016
301.89213
301.91171
301.91924
301.94273
301.95571
301.98324
302.00148
302.03161
302.05169
302.07962
302.09634
302.11767
302.12733
302.13884
302.13806
302.13675
302.12343
302.10949
302.08636
302.06522
302.03925
302.01848
301.99627
301.98097
301.96548
301.95682
301.94757
301.94413
301.93918
301.93891
301.93637
301.93767
301.93634
301.93824
301.93749
301.93953
301.93909
301.94109
301.94084
301.94273
301.94263
301.9444
301.83875
301.84561
301.84265
301.85496
301.85211
301.86437
301.86258
301.87579
301.87715
301.89316
301.89903
301.9182
301.92865
301.95141
301.96673
301.9923
302.00986
302.03426
302.04963
302.06904
302.07884
302.09
302.09043
302.08954
302.07755
302.06382
302.04139
302.01982
301.99381
301.97211
301.94947
301.93311
301.91718
301.90759
301.89806
301.89389
301.88883
301.888
301.88548
301.88631
301.88504
301.88654
301.88588
301.88755
301.88718
301.88884
301.88865
301.89023
301.89015
301.89165
301.82921
301.83618
301.83412
301.84501
301.84306
301.85373
301.85246
301.86352
301.86456
301.87769
301.88233
301.89794
301.90633
301.92504
301.93783
301.95936
301.97456
301.99566
302.00959
302.02709
302.03681
302.04753
302.04895
302.04843
302.03765
302.02419
302.00245
301.98058
301.9546
301.93212
301.90915
301.89188
301.87556
301.86515
301.85538
301.85057
301.84541
301.84409
301.84157
301.842
301.84079
301.84194
301.84134
301.8427
301.84239
301.84377
301.84361
301.84494
301.84488
301.84614
301.82105
301.82807
301.82678
301.83638
301.83518
301.84447
301.84369
301.85301
301.85392
301.86474
301.86846
301.88117
301.88792
301.90323
301.91385
301.93185
301.94488
301.96295
301.97542
301.99105
302.00051
302.01072
302.01292
302.01271
302.00299
301.98983
301.96874
301.94668
301.92079
301.8977
301.87446
301.85643
301.83979
301.8287
301.81871
301.81336
301.80811
301.80636
301.80385
301.80393
301.80277
301.80362
301.80308
301.80417
301.80391
301.80504
301.80492
301.80602
301.80597
301.80703
301.81429
301.82124
301.82056
301.82898
301.82837
301.83646
301.83612
301.84401
301.84489
301.85384
301.85692
301.86726
301.87272
301.8852
301.89401
301.90896
301.92003
301.93536
301.94637
301.96022
301.96928
301.97893
301.98171
301.98172
301.97291
301.96003
301.93955
301.9174
301.89163
301.86807
301.84465
301.82601
301.80914
301.79747
301.78732
301.7815
301.7762
301.77408
301.77158
301.77136
301.77025
301.77084
301.77034
301.77121
301.77099
301.77191
301.77181
301.77273
301.77269
301.77358
301.80894
301.81562
301.81541
301.82273
301.82258
301.82958
301.82961
301.83631
301.83721
301.84466
301.84727
301.8557
301.86014
301.8703
301.8776
301.88995
301.89929
301.91216
301.92179
301.93395
301.94252
301.95155
301.95472
301.95486
301.94679
301.93416
301.91424
301.89205
301.86645
301.84255
301.81904
301.79993
301.7829
301.77078
301.76052
301.75433
301.74899
301.74657
301.74408
301.74362
301.74254
301.74292
301.74246
301.74314
301.74295
301.7437
301.74362
301.74437
301.74434
301.74508
301.80494
301.81115
301.81123
301.81754
301.8177
301.82374
301.82405
301.82973
301.83069
301.83691
301.83917
301.84606
301.84972
301.85798
301.86404
301.8742
301.88201
301.89273
301.90105
301.91165
301.91965
301.92804
301.93142
301.93159
301.92409
301.91166
301.89221
301.87004
301.84464
301.82053
301.79702
301.77758
301.76047
301.74802
301.73771
301.73123
301.72588
301.72322
301.72075
301.72009
301.71904
301.71924
301.71882
301.71933
301.71917
301.71977
301.71971
301.72033
301.72031
301.72092
301.80219
301.80771
301.80793
301.81329
301.81366
301.81882
301.81933
301.82415
301.82516
301.83037
301.83237
301.83801
301.84105
301.84778
301.85283
301.86115
301.86764
301.87648
301.88361
301.89279
301.90018
301.90789
301.91132
301.91142
301.90432
301.89202
301.87297
301.85085
301.82567
301.80146
301.77803
301.7584
301.74131
301.72864
301.71833
301.71166
301.70632
301.70349
301.70105
301.70022
301.69921
301.69926
301.69887
301.69925
301.6991
301.69959
301.69954
301.70004
301.70003
301.70053
301.8005
301.80516
301.8054
301.80988
301.81036
301.81473
301.81536
301.81943
301.82047
301.82484
301.82665
301.83127
301.83383
301.83933
301.84355
301.85034
301.85571
301.86293
301.86898
301.87687
301.88363
301.89065
301.89399
301.8939
301.88704
301.87479
301.85605
301.834
301.80907
301.78487
301.7616
301.74191
301.72492
301.71216
301.70191
301.69512
301.68983
301.68687
301.68447
301.68353
301.68254
301.68248
301.68211
301.68239
301.68226
301.68264
301.6826
301.68301
301.683
301.68341
301.79962
301.80336
301.80353
301.8072
301.80771
301.81137
301.81206
301.81548
301.81653
301.82019
301.82183
301.82562
301.82781
301.8323
301.83586
301.84139
301.84581
301.85164
301.85673
301.86347
301.86959
301.87591
301.87902
301.87864
301.87185
301.85956
301.84105
301.81908
301.79443
301.77033
301.74731
301.72769
301.71088
301.69813
301.68802
301.68118
301.67598
301.67295
301.6706
301.66957
301.66862
301.66847
301.66812
301.66831
301.66819
301.66849
301.66846
301.66879
301.66878
301.66912
301.79927
301.80212
301.80218
301.80512
301.80562
301.80864
301.80934
301.81219
301.81322
301.81629
301.81777
301.82088
301.82277
301.82645
301.82948
301.83397
301.83757
301.84224
301.84648
301.8522
301.85769
301.8633
301.86606
301.86527
301.8584
301.84599
301.82763
301.80575
301.7814
301.75749
301.7348
301.71537
301.69884
301.68621
301.67628
301.66948
301.66439
301.66134
301.65905
301.65797
301.65705
301.65684
301.65651
301.65663
301.65652
301.65675
301.65673
301.65699
301.65699
301.65727
301.79923
301.8013
301.80124
301.80355
301.80399
301.80644
301.80713
301.80947
301.81047
301.81302
301.81437
301.8169
301.81855
301.82158
301.82416
301.82779
301.83072
301.8344
301.83791
301.84273
301.84759
301.85247
301.85477
301.85348
301.84638
301.83376
301.81547
301.7937
301.76967
301.74606
301.72378
301.70464
301.68848
301.67605
301.66638
301.65968
301.65474
301.65171
301.6495
301.64839
301.64751
301.64725
301.64694
301.647
301.64691
301.64708
301.64706
301.64727
301.64727
301.6475
301.79931
301.80076
301.80061
301.80237
301.80275
301.8047
301.80534
301.80724
301.80818
301.81029
301.81151
301.81357
301.81501
301.8175
301.81972
301.82264
301.825
301.82786
301.83073
301.83475
301.83899
301.84313
301.84486
301.84296
301.83551
301.82261
301.80434
301.78268
301.75901
301.73576
301.71398
301.69525
301.67953
301.66741
301.65804
301.65151
301.64674
301.64377
301.64165
301.64054
301.6397
301.63941
301.63912
301.63914
301.63905
301.63919
301.63917
301.63934
301.63933
301.63952
301.79942
301.80041
301.8002
301.8015
301.80181
301.80334
301.8039
301.80543
301.8063
301.80803
301.80911
301.81077
301.81203
301.81408
301.81599
301.81833
301.8202
301.82237
301.82469
301.828
301.83163
301.83499
301.83607
301.83347
301.82556
301.8123
301.79401
301.77248
301.74921
301.72641
301.7052
301.68698
301.67178
301.66004
301.65104
301.64472
301.64016
301.63728
301.63526
301.63417
301.63338
301.63307
301.63279
301.63279
301.63271
301.63281
301.63279
301.63292
301.63292
301.63307
301.79949
301.80016
301.79993
301.80086
301.80111
301.80227
301.80277
301.80397
301.80476
301.80615
301.8071
301.80842
301.80952
301.81121
301.81285
301.81469
301.81615
301.81775
301.81959
301.82225
301.82526
301.82783
301.82816
301.82477
301.8163
301.80265
301.78431
301.76294
301.7401
301.71784
301.69728
301.67966
301.66505
301.65377
301.64517
301.63912
301.63479
301.63203
301.63013
301.62906
301.62832
301.62801
301.62775
301.62772
301.62765
301.62772
301.62771
301.62781
301.62781
301.62793
301.79952
301.79998
301.79975
301.80039
301.80059
301.80144
301.80187
301.80279
301.80349
301.80459
301.80541
301.80644
301.8074
301.80877
301.81017
301.8116
301.81271
301.81382
301.81523
301.8173
301.81967
301.82141
301.82091
301.81668
301.80757
301.79349
301.77508
301.75391
301.73156
301.70992
301.69009
301.67315
301.6592
301.64844
301.64028
301.63454
301.63046
301.62784
301.62606
301.62504
301.62435
301.62404
301.62381
301.62377
301.6237
301.62375
301.62373
301.62382
301.62382
301.62391
301.79951
301.79982
301.79962
301.80004
301.8002
301.8008
301.80115
301.80183
301.80245
301.80329
301.80398
301.80476
301.80559
301.8067
301.80788
301.80895
301.80975
301.81044
301.81145
301.81295
301.81467
301.81554
301.81415
301.80901
301.79921
301.7847
301.76623
301.74531
301.72351
301.70257
301.68353
301.66735
301.6541
301.64392
301.63624
301.63084
301.62702
301.62457
301.62291
301.62196
301.62132
301.62102
301.6208
301.62076
301.62069
301.62073
301.62071
301.62078
301.62078
301.62085
301.79946
301.79968
301.79952
301.79976
301.7999
301.80029
301.80058
301.80106
301.80158
301.80219
301.80276
301.80332
301.80404
301.80491
301.80589
301.80663
301.80715
301.80748
301.80812
301.80906
301.81009
301.81006
301.80771
301.80162
301.79111
301.77617
301.75768
301.73707
301.71588
301.69571
301.67754
301.66218
301.64968
301.64012
301.63294
301.62791
301.62437
301.6221
301.62056
301.61968
301.61909
301.61881
301.61861
301.61856
301.6185
301.61853
301.61851
301.61857
301.61856
301.61862
301.7994
301.79954
301.79943
301.79955
301.79966
301.79988
301.80012
301.80042
301.80085
301.80126
301.80171
301.80208
301.80268
301.80334
301.80413
301.80458
301.80484
301.80484
301.8051
301.80547
301.80578
301.8048
301.80145
301.7944
301.78317
301.76785
301.74937
301.72914
301.70864
301.68931
301.67206
301.65758
301.64588
301.63696
301.63031
301.62566
301.6224
301.62031
301.61891
301.61811
301.61757
301.61731
301.61713
301.61708
301.61702
301.61704
301.61703
301.61707
301.61707
301.61711
301.79931
301.79941
301.79934
301.79936
301.79946
301.79954
301.79973
301.79987
301.80021
301.80043
301.80077
301.80098
301.80147
301.80193
301.80253
301.80272
301.80273
301.8024
301.80227
301.80206
301.8016
301.79964
301.79526
301.78725
301.77533
301.75967
301.74129
301.72152
301.70177
301.68336
301.66708
301.65352
301.64263
301.63439
301.62827
301.62401
301.62104
301.61915
301.61787
301.61715
301.61666
301.61643
301.61626
301.61621
301.61616
301.61618
301.61616
301.61619
301.61619
301.61623
301.7992
301.79927
301.79925
301.79919
301.79928
301.79925
301.79938
301.79938
301.79963
301.79969
301.79992
301.79998
301.80036
301.80064
301.80105
301.80098
301.80074
301.80008
301.79954
301.79872
301.79744
301.79449
301.78906
301.78012
301.76755
301.75164
301.73343
301.71421
301.69528
301.67786
301.66258
301.64998
301.63993
301.63237
301.62678
301.62292
301.62023
301.61853
301.61738
301.61673
301.6163
301.61609
301.61594
301.6159
301.61585
301.61586
301.61585
301.61587
301.61587
301.6159
301.79908
301.79912
301.79914
301.79902
301.7991
301.79897
301.79905
301.79893
301.79908
301.79899
301.79911
301.79904
301.79931
301.79942
301.79964
301.79931
301.79881
301.79781
301.79682
301.79535
301.79321
301.78924
301.78278
301.77296
301.75982
301.74375
301.7258
301.70723
301.6892
301.67281
301.65858
301.64695
301.63773
301.63086
301.6258
301.62233
301.61992
301.6184
301.61738
301.61681
301.61642
301.61625
301.61611
301.61607
301.61603
301.61604
301.61602
301.61605
301.61604
301.61607
301.79895
301.79898
301.79901
301.79885
301.79892
301.79869
301.79871
301.79847
301.79853
301.79829
301.79832
301.79813
301.79829
301.79823
301.79824
301.79766
301.79687
301.7955
301.79402
301.79186
301.78884
301.78385
301.77639
301.76576
301.75215
301.73604
301.71846
301.70062
301.68355
301.66824
301.65508
301.64443
301.63604
301.62985
301.6253
301.62222
301.62007
301.61874
301.61783
301.61734
301.61699
301.61685
301.61672
301.61669
301.61665
301.61666
301.61664
301.61667
301.61666
301.61668
301.7988
301.79882
301.79888
301.79867
301.79871
301.79839
301.79835
301.79799
301.79794
301.79758
301.79751
301.79721
301.79726
301.79703
301.79682
301.79597
301.79487
301.7931
301.79108
301.78819
301.78426
301.77828
301.76988
301.75855
301.74457
301.72855
301.71144
301.69443
301.67837
301.66419
301.65209
301.64243
301.63485
301.62933
301.62527
301.62256
301.62065
301.6195
301.6187
301.61829
301.61798
301.61786
301.61774
301.61773
301.61768
301.6177
301.61768
301.6177
301.61769
301.61771
301.79864
301.79866
301.79872
301.79847
301.79847
301.79806
301.79793
301.79745
301.7973
301.79682
301.79666
301.79626
301.79619
301.79577
301.79534
301.7942
301.79275
301.79055
301.78794
301.78429
301.77945
301.77253
301.76326
301.75134
301.73714
301.72133
301.70482
301.68871
301.67372
301.66067
301.64965
301.64095
301.63416
301.62927
301.62569
301.62333
301.62166
301.62067
301.61997
301.61963
301.61935
301.61926
301.61915
301.61914
301.6191
301.61912
301.6191
301.61912
301.61911
301.61912
301.79846
301.7985
301.79855
301.79823
301.79817
301.79766
301.79745
301.79684
301.79658
301.79599
301.79574
301.79524
301.79504
301.79444
301.79375
301.7923
301.79047
301.78779
301.78455
301.78014
301.7744
301.76659
301.75657
301.74421
301.72992
301.71447
301.69865
301.68353
301.66964
301.65774
301.64776
301.64
301.63397
301.62969
301.62654
301.62451
301.62306
301.62223
301.62162
301.62134
301.62109
301.62102
301.62092
301.62093
301.62088
301.6209
301.62088
301.6209
301.62089
301.6209
301.79826
301.79833
301.79835
301.79796
301.79782
301.79718
301.79686
301.79613
301.79576
301.79506
301.79473
301.79413
301.79379
301.79299
301.79203
301.79024
301.78799
301.7848
301.7809
301.77572
301.76911
301.76052
301.74987
301.73722
301.723
301.70804
301.69301
301.67894
301.66617
301.6554
301.64645
301.6396
301.63428
301.63057
301.62783
301.6261
301.62485
301.62416
301.62363
301.62341
301.62319