/*--------------------------------*- C++ -*----------------------------------*\
| =========                 |                                                 |
| \\      /  F ield         | OpenFOAM: The Open Source CFD Toolbox           |
|  \\    /   O peration     | Version:  2312                                  |
|   \\  /    A nd           | Website:  www.openfoam.com                      |
|    \\/     M anipulation  |                                                 |
\*---------------------------------------------------------------------------*/
FoamFile
{
    version     2.0;
    format      ascii;
    arch        "LSB;label=32;scalar=64";
    class       volVectorField;
    location    "1";
    object      U;
}
// * * * * * * * * * * * * * * * * * * * * * * * * * * * * * * * * * * * * * //

dimensions      [0 1 -1 0 0 0 0];

internalField   nonuniform List<vector> 
4000
(
(0.0023258562 0.00042474041 0)
(0.0030357016 -6.4396544e-06 0)
(0.002422456 -3.5475874e-07 0)
(0.002573954 2.4441646e-07 0)
(0.0024827578 -2.8030522e-07 0)
(0.0025457174 2.5451528e-07 0)
(0.0024883837 -2.4183638e-07 0)
(0.0025411333 2.3063537e-07 0)
(0.002491379 -2.1982912e-07 0)
(0.0025384488 2.0988834e-07 0)
(0.0024937383 -2.0056031e-07 0)
(0.002536167 1.916072e-07 0)
(0.0024958397 -1.8318931e-07 0)
(0.002534149 1.7512315e-07 0)
(0.002497735 -1.6746753e-07 0)
(0.0025323388 1.601389e-07 0)
(0.0024994502 -1.5314425e-07 0)
(0.0025307012 1.4644369e-07 0)
(0.0025010094 -1.400249e-07 0)
(0.0025292102 1.33871e-07 0)
(0.0025024336 -1.2796431e-07 0)
(0.0025278448 1.2229616e-07 0)
(0.0025037412 -1.1684989e-07 0)
(0.0025265883 1.1162451e-07 0)
(0.0025049478 -1.0660269e-07 0)
(0.0025254264 1.0179064e-07 0)
(0.0025060658 -9.7171568e-08 0)
(0.0025243474 9.2750959e-08 0)
(0.002507106 -8.8517898e-08 0)
(0.0025233417 8.447938e-08 0)
(0.0025080774 -8.0623547e-08 0)
(0.0025224008 7.6960185e-08 0)
(0.0025089881 -7.3478356e-08 0)
(0.0025215171 7.0188022e-08 0)
(0.0025098449 -6.7079104e-08 0)
(0.0025206842 6.4163357e-08 0)
(0.002510654 -6.1429927e-08 0)
(0.0025198957 5.8889889e-08 0)
(0.0025114223 -5.6534668e-08 0)
(0.0025191454 5.4374282e-08 0)
(0.0025121547 -5.240201e-08 0)
(0.0025184278 5.0626572e-08 0)
(0.0025128579 -4.9039838e-08 0)
(0.0025177367 4.7650606e-08 0)
(0.0025135373 -4.6456865e-08 0)
(0.0025170659 4.5457042e-08 0)
(0.0025141982 -4.4685595e-08 0)
(0.0025164234 4.4073858e-08 0)
(0.0025149469 -4.3397024e-08 0)
(0.0025162273 4.638636e-08 0)
(0.0062296735 0.0011612333 0)
(0.008541782 5.4979617e-07 0)
(0.0071014896 4.681247e-06 0)
(0.0074600728 3.227422e-07 0)
(0.0072061709 -6.338494e-07 0)
(0.0073913774 8.6845672e-07 0)
(0.0072207311 -8.3807903e-07 0)
(0.0073791039 8.167204e-07 0)
(0.0072296247 -7.8221185e-07 0)
(0.0073712281 7.4959233e-07 0)
(0.0072367094 -7.1580164e-07 0)
(0.0073643966 6.8511721e-07 0)
(0.0072430365 -6.5478842e-07 0)
(0.0073583244 6.2648097e-07 0)
(0.0072487584 -5.9906062e-07 0)
(0.0073528601 5.7305653e-07 0)
(0.0072539498 -5.4801271e-07 0)
(0.0073479047 5.2408635e-07 0)
(0.0072586788 -5.0106977e-07 0)
(0.0073433846 4.7899999e-07 0)
(0.0072630058 -4.5775654e-07 0)
(0.0073392393 4.3736777e-07 0)
(0.0072669829 -4.1774198e-07 0)
(0.0073354215 3.9889846e-07 0)
(0.0072706539 -3.807779e-07 0)
(0.0073318911 3.6338859e-07 0)
(0.0072740549 -3.4668787e-07 0)
(0.0073286138 3.3070438e-07 0)
(0.0072772167 -3.153878e-07 0)
(0.0073255625 3.0076736e-07 0)
(0.0072801656 -2.8681095e-07 0)
(0.0073227114 2.7354189e-07 0)
(0.0072829259 -2.609355e-07 0)
(0.007320038 2.4901904e-07 0)
(0.0072855181 -2.3777102e-07 0)
(0.0073175233 2.2720982e-07 0)
(0.0072879612 -2.173214e-07 0)
(0.0073151465 2.0812429e-07 0)
(0.0072902772 -1.9961196e-07 0)
(0.0073128891 1.9179934e-07 0)
(0.0072924813 -1.8466867e-07 0)
(0.0073107328 1.7823783e-07 0)
(0.0072945951 -1.7250696e-07 0)
(0.0073086574 1.6748858e-07 0)
(0.0072966362 -1.6315543e-07 0)
(0.0073066432 1.5956827e-07 0)
(0.0072986202 -1.567858e-07 0)
(0.0073046862 1.5333131e-07 0)
(0.0073007575 -1.5877057e-07 0)
(0.0073038156 1.4552944e-07 0)
(0.0099901182 0.0018350135 0)
(0.013783292 -7.3775297e-06 0)
(0.011660813 1.1986893e-05 0)
(0.012221651 4.7062056e-07 0)
(0.011803161 -9.5635322e-07 0)
(0.012116103 1.5645143e-06 0)
(0.011827761 -1.5194337e-06 0)
(0.012096598 1.486834e-06 0)
(0.011842863 -1.427528e-06 0)
(0.012083393 1.369118e-06 0)
(0.011854888 -1.3072289e-06 0)
(0.012071823 1.2519005e-06 0)
(0.011865638 -1.1963951e-06 0)
(0.012061511 1.1449485e-06 0)
(0.011875372 -1.0948719e-06 0)
(0.012052216 1.0474197e-06 0)
(0.011884214 -1.0016901e-06 0)
(0.012043775 9.5794119e-07 0)
(0.011892278 -9.1587428e-07 0)
(0.012036068 8.7546765e-07 0)
(0.011899663 -8.3661425e-07 0)
(0.012028995 7.9925447e-07 0)
(0.011906453 -7.6331924e-07 0)
(0.012022477 7.2875789e-07 0)
(0.011912723 -6.9554719e-07 0)
(0.01201645 6.6364105e-07 0)
(0.011918531 -6.3302601e-07 0)
(0.012010857 6.0367295e-07 0)
(0.011923928 -5.7558772e-07 0)
(0.012005652 5.4873603e-07 0)
(0.011928959 -5.231294e-07 0)
(0.012000792 4.9874847e-07 0)
(0.011933663 -4.7561653e-07 0)
(0.01199624 4.5372562e-07 0)
(0.011938077 -4.3308246e-07 0)
(0.011991962 4.1368431e-07 0)
(0.011942232 -3.9551802e-07 0)
(0.011987923 3.7860294e-07 0)
(0.011946166 -3.6298113e-07 0)
(0.011984091 3.4862646e-07 0)
(0.011949907 -3.3552677e-07 0)
(0.011980434 3.2370707e-07 0)
(0.011953491 -3.1316328e-07 0)
(0.011976917 3.0392062e-07 0)
(0.011956951 -2.9593279e-07 0)
(0.011973503 2.8933775e-07 0)
(0.011960314 -2.8409948e-07 0)
(0.011970171 2.7738623e-07 0)
(0.011963867 -2.9104348e-07 0)
(0.01196846 2.6129029e-07 0)
(0.013873047 0.002538087 0)
(0.018805771 -1.8147103e-05 0)
(0.016096911 2.2023286e-05 0)
(0.016858208 3.6875073e-07 0)
(0.016273541 -1.0704118e-06 0)
(0.016720231 2.2110031e-06 0)
(0.016309195 -2.1733187e-06 0)
(0.016693926 2.1331102e-06 0)
(0.016330838 -2.0544976e-06 0)
(0.01667523 1.9718234e-06 0)
(0.01634804 -1.8825523e-06 0)
(0.016658707 1.8039202e-06 0)
(0.016363433 -1.723852e-06 0)
(0.016643945 1.6501133e-06 0)
(0.016377385 -1.5780188e-06 0)
(0.016630619 1.5097361e-06 0)
(0.016390073 -1.4438967e-06 0)
(0.016618504 1.3807962e-06 0)
(0.016401654 -1.3201952e-06 0)
(0.016607431 1.2618209e-06 0)
(0.016412267 -1.2057656e-06 0)
(0.016597264 1.1517364e-06 0)
(0.016422031 -1.0998515e-06 0)
(0.016587893 1.0498282e-06 0)
(0.016431046 -1.001854e-06 0)
(0.016579228 9.5563307e-07 0)
(0.016439396 -9.1135526e-07 0)
(0.016571188 8.6884065e-07 0)
(0.016447151 -8.282e-07 0)
(0.016563711 7.8928227e-07 0)
(0.016454375 -7.5222169e-07 0)
(0.016556737 7.1687987e-07 0)
(0.016461124 -6.8338882e-07 0)
(0.016550209 6.5165329e-07 0)
(0.016467448 -6.217695e-07 0)
(0.016544084 5.9363532e-07 0)
(0.016473394 -5.6733812e-07 0)
(0.016538307 5.4281793e-07 0)
(0.016479018 -5.2019809e-07 0)
(0.016532834 4.9938427e-07 0)
(0.016484358 -4.8040666e-07 0)
(0.016527616 4.6324255e-07 0)
(0.016489469 -4.4797695e-07 0)
(0.016522602 4.3457278e-07 0)
(0.016494398 -4.2297575e-07 0)
(0.016517742 4.1343543e-07 0)
(0.016499187 -4.0570127e-07 0)
(0.016512984 3.9550108e-07 0)
(0.016504176 -4.2078944e-07 0)
(0.016510264 3.7054168e-07 0)
(0.01733449 0.0030285346 0)
(0.023608134 -3.5542657e-05 0)
(0.020411874 3.430761e-05 0)
(0.021369329 6.7216344e-08 0)
(0.02061728 -9.8007342e-07 0)
(0.021203743 2.775202e-06 0)
(0.020665108 -2.7762046e-06 0)
(0.021170998 2.7283418e-06 0)
(0.02069362 -2.6379915e-06 0)
(0.02114665 2.5332212e-06 0)
(0.020716235 -2.4183867e-06 0)
(0.021124965 2.3187654e-06 0)
(0.020736484 -2.2156788e-06 0)
(0.021105549 2.121458e-06 0)
(0.020754857 -2.0288225e-06 0)
(0.021087995 1.9411802e-06 0)
(0.020771581 -1.8565834e-06 0)
(0.02107202 1.7754065e-06 0)
(0.02078686 -1.6974576e-06 0)
(0.021057408 1.6222479e-06 0)
(0.02080087 -1.5500847e-06 0)
(0.021043984 1.4804072e-06 0)
(0.020813762 -1.4135322e-06 0)
(0.02103161 1.3489539e-06 0)
(0.020825667 -1.287059e-06 0)
(0.021020169 1.2273628e-06 0)
(0.02083669 -1.1702222e-06 0)
(0.021009559 1.1152663e-06 0)
(0.020846923 -1.0628072e-06 0)
(0.020999698 1.0124961e-06 0)
(0.020856445 -9.6462994e-07 0)
(0.020990507 9.1892246e-07 0)
(0.020865333 -8.7566543e-07 0)
(0.020981917 8.3463525e-07 0)
(0.020873651 -7.9603537e-07 0)
(0.020973865 7.5966889e-07 0)
(0.020881462 -7.2566811e-07 0)
(0.020966282 6.9393624e-07 0)
(0.020888839 -6.6473072e-07 0)
(0.020959108 6.3782845e-07 0)
(0.020895833 -6.1330235e-07 0)
(0.020952279 5.9111779e-07 0)
(0.020902519 -5.7137301e-07 0)
(0.020945725 5.5402896e-07 0)
(0.020908959 -5.3902241e-07 0)
(0.020939379 5.2672527e-07 0)
(0.020915209 -5.1654663e-07 0)
(0.02093316 5.02892e-07 0)
(0.020921652 -5.4212082e-07 0)
(0.020929295 4.6887756e-07 0)
(0.021249964 0.00371322 0)
(0.02818312 -5.0857039e-05 0)
(0.024602907 4.8092013e-05 0)
(0.025753623 -4.4843939e-07 0)
(0.024834728 -7.2802597e-07 0)
(0.025566327 3.2541575e-06 0)
(0.024895914 -3.3338222e-06 0)
(0.025527452 3.2744108e-06 0)
(0.024931567 -3.1805463e-06 0)
(0.025497316 3.0551926e-06 0)
(0.024959798 -2.9166489e-06 0)
(0.025470287 2.7981466e-06 0)
(0.024985094 -2.6735161e-06 0)
(0.025446035 2.5604683e-06 0)
(0.025008067 -2.4486827e-06 0)
(0.02542408 2.3430866e-06 0)
(0.025028997 -2.2409949e-06 0)
(0.025404079 2.1429483e-06 0)
(0.025048133 -2.0488257e-06 0)
(0.025385773 1.9578316e-06 0)
(0.025065688 -1.8705664e-06 0)
(0.025368949 1.7861787e-06 0)
(0.025081849 -1.7052495e-06 0)
(0.025353439 1.6269723e-06 0)
(0.025096769 -1.55204e-06 0)
(0.025339101 1.4796193e-06 0)
(0.02511058 -1.4103656e-06 0)
(0.02532581 1.343712e-06 0)
(0.025123392 -1.2801044e-06 0)
(0.025313468 1.2190468e-06 0)
(0.025135305 -1.1610032e-06 0)
(0.025301977 1.1055279e-06 0)
(0.025146412 -1.0530614e-06 0)
(0.025291248 1.0032649e-06 0)
(0.025156793 -9.5645811e-07 0)
(0.025281206 9.1230427e-07 0)
(0.025166528 -8.7107755e-07 0)
(0.025271762 8.325746e-07 0)
(0.025175708 -7.9716226e-07 0)
(0.025262842 7.6451756e-07 0)
(0.025184397 -7.3476414e-07 0)
(0.025254363 7.0780603e-07 0)
(0.025192693 -6.838745e-07 0)
(0.025246237 6.6283445e-07 0)
(0.025200672 -6.4460477e-07 0)
(0.025238379 6.2973136e-07 0)
(0.025208409 -6.1713211e-07 0)
(0.025230677 6.0015471e-07 0)
(0.025216313 -6.5502893e-07 0)
(0.025225557 5.5629419e-07 0)
(0.02436516 0.0040003641 0)
(0.032532573 -8.0114431e-05 0)
(0.028679435 6.2699771e-05 0)
(0.030009428 -1.0439766e-06 0)
(0.028926121 -3.5047795e-07 0)
(0.029807617 3.6477488e-06 0)
(0.029002061 -3.8530672e-06 0)
(0.029762898 3.7746133e-06 0)
(0.029045072 -3.6859481e-06 0)
(0.029726856 3.5409602e-06 0)
(0.02907909 -3.3804887e-06 0)
(0.029694329 3.2449465e-06 0)
(0.029109593 -3.100138e-06 0)
(0.029665087 2.9697686e-06 0)
(0.029137319 -2.8401189e-06 0)
(0.029638581 2.7177871e-06 0)
(0.029162603 -2.5993811e-06 0)
(0.029614412 2.4855343e-06 0)
(0.029185733 -2.3762564e-06 0)
(0.029592278 2.2704429e-06 0)
(0.029206964 -2.1690453e-06 0)
(0.029571929 2.0708285e-06 0)
(0.029226509 -1.9766859e-06 0)
(0.02955317 1.8854946e-06 0)
(0.029244554 -1.7982512e-06 0)
(0.029535833 1.7138517e-06 0)
(0.029261248 -1.6332068e-06 0)
(0.029519772 1.5554737e-06 0)
(0.029276725 -1.4813952e-06 0)
(0.029504869 1.410187e-06 0)
(0.029291103 -1.3425535e-06 0)
(0.029491007 1.2778352e-06 0)
(0.029304493 -1.2167066e-06 0)
(0.029478081 1.158641e-06 0)
(0.02931699 -1.1041106e-06 0)
(0.029466 1.0526379e-06 0)
(0.029328694 -1.0045605e-06 0)
(0.029454655 9.5962901e-07 0)
(0.029339712 -9.1840194e-07 0)
(0.029443956 8.8035799e-07 0)
(0.029350127 -8.4568185e-07 0)
(0.029433801 8.1426882e-07 0)
(0.029360054 -7.86361e-07 0)
(0.029424085 7.6181926e-07 0)
(0.029369589 -7.4055697e-07 0)
(0.0294147 7.2326678e-07 0)
(0.029378825 -7.0828698e-07 0)
(0.029405505 6.881397e-07 0)
(0.029388189 -7.5956991e-07 0)
(0.029399044 6.3359189e-07 0)
(0.028334992 0.0046749557 0)
(0.036681506 -9.6009234e-05 0)
(0.032636391 7.7850523e-05 0)
(0.034135119 -1.6341429e-06 0)
(0.032891326 1.038137e-07 0)
(0.033927293 3.9466814e-06 0)
(0.03298397 -4.3366588e-06 0)
(0.033876987 4.2288944e-06 0)
(0.033034492 -4.154532e-06 0)
(0.03383493 3.9905219e-06 0)
(0.033074435 -3.8099622e-06 0)
(0.033796779 3.6591568e-06 0)
(0.033110281 -3.4955203e-06 0)
(0.033762415 3.3492741e-06 0)
(0.033142892 -3.2030126e-06 0)
(0.03373123 3.065209e-06 0)
(0.033172654 -2.9316225e-06 0)
(0.033702771 2.8030663e-06 0)
(0.033199897 -2.6797139e-06 0)
(0.033676695 2.56003e-06 0)
(0.033224911 -2.4454097e-06 0)
(0.033652717 2.334218e-06 0)
(0.033247943 -2.227729e-06 0)
(0.033630613 2.1244136e-06 0)
(0.0332692 -2.0257011e-06 0)
(0.033610192 1.9300089e-06 0)
(0.033288858 -1.8386691e-06 0)
(0.033591285 1.7505694e-06 0)
(0.033307069 -1.6666377e-06 0)
(0.033573757 1.5858909e-06 0)
(0.03332397 -1.5092626e-06 0)
(0.033557471 1.4358765e-06 0)
(0.033339691 -1.3666112e-06 0)
(0.033542304 1.3007814e-06 0)
(0.033354345 -1.2390126e-06 0)
(0.033528148 1.1806362e-06 0)
(0.033368047 -1.1261836e-06 0)
(0.033514876 1.0752653e-06 0)
(0.033380928 -1.0285816e-06 0)
(0.033502378 9.8547033e-07 0)
(0.033393084 -9.4618313e-07 0)
(0.033490534 9.1053593e-07 0)
(0.033404652 -8.7895309e-07 0)
(0.033479218 8.5115778e-07 0)
(0.033415749 -8.2704636e-07 0)
(0.033468305 8.0751231e-07 0)
(0.033426487 -7.9018457e-07 0)
(0.033457618 7.6712075e-07 0)
(0.033437302 -8.5567598e-07 0)
(0.033449748 7.0083028e-07 0)
(0.031215363 0.0048165241 0)
(0.040579115 -0.00013771214 0)
(0.036481104 9.2098561e-05 0)
(0.038130676 -2.2613801e-06 0)
(0.036730405 5.6659211e-07 0)
(0.037925106 4.1350668e-06 0)
(0.036842031 -4.7862295e-06 0)
(0.037869415 4.6360935e-06 0)
(0.036900158 -4.5854029e-06 0)
(0.037821238 4.4029064e-06 0)
(0.036946132 -4.204119e-06 0)
(0.037777352 4.0397726e-06 0)
(0.036987433 -3.8587073e-06 0)
(0.037737757 3.6980675e-06 0)
(0.03702504 -3.5364953e-06 0)
(0.037701785 3.3844389e-06 0)
(0.037059385 -3.2368731e-06 0)
(0.037668934 3.0947009e-06 0)
(0.03709084 -2.9583043e-06 0)
(0.037638819 2.8257569e-06 0)
(0.037119731 -2.6989244e-06 0)
(0.037611123 2.5756875e-06 0)
(0.03714633 -2.4577277e-06 0)
(0.037585596 2.3431242e-06 0)
(0.037170874 -2.2336935e-06 0)
(0.037562022 2.1275169e-06 0)
(0.037193559 -2.026254e-06 0)
(0.037540213 1.9284472e-06 0)
(0.037214557 -1.8353981e-06 0)
(0.03752001 1.7457591e-06 0)
(0.037234026 -1.6607685e-06 0)
(0.037501261 1.5792833e-06 0)
(0.037252113 -1.5024777e-06 0)
(0.037483823 1.429429e-06 0)
(0.037268949 -1.3609484e-06 0)
(0.03746757 1.2961895e-06 0)
(0.037284669 -1.2357586e-06 0)
(0.037452354 1.179222e-06 0)
(0.037299423 -1.1275173e-06 0)
(0.037438049 1.0797184e-06 0)
(0.037313325 -1.0361527e-06 0)
(0.037424514 9.9663973e-07 0)
(0.037326537 -9.6160485e-07 0)
(0.0374116 9.3076869e-07 0)
(0.037339191 -9.040278e-07 0)
(0.037399164 8.824217e-07 0)
(0.037351422 -8.6283358e-07 0)
(0.037386997 8.370969e-07 0)
(0.037363672 -9.427137e-07 0)
(0.037377671 7.5835303e-07 0)
(0.035102601 0.005397185 0)
(0.044312555 -0.00015381623 0)
(0.040205851 0.00010678716 0)
(0.041998232 -3.1445127e-06 0)
(0.040443909 9.1500802e-07 0)
(0.041800863 4.1781401e-06 0)
(0.040576602 -5.2059926e-06 0)
(0.041739894 4.9950041e-06 0)
(0.040642379 -4.9777688e-06 0)
(0.041685494 4.7773391e-06 0)
(0.040694459 -4.5621179e-06 0)
(0.041635782 4.3860132e-06 0)
(0.040741306 -4.1889004e-06 0)
(0.041590864 4.0153303e-06 0)
(0.040783999 -3.8397368e-06 0)
(0.041550016 3.6747482e-06 0)
(0.040823014 -3.514376e-06 0)
(0.041512687 3.3597446e-06 0)
(0.040858763 -3.2114472e-06 0)
(0.041478456 3.0670513e-06 0)
(0.040891604 -2.9289663e-06 0)
(0.041446972 2.7946101e-06 0)
(0.040921838 -2.6661127e-06 0)
(0.041417959 2.5410859e-06 0)
(0.040949726 -2.4218624e-06 0)
(0.04139118 2.3059533e-06 0)
(0.040975486 -2.1955261e-06 0)
(0.041366422 2.0888107e-06 0)
(0.040999311 -1.9873143e-06 0)
(0.041343511 1.8894673e-06 0)
(0.041021376 -1.7967717e-06 0)
(0.041322272 1.7078355e-06 0)
(0.041041851 -1.6240696e-06 0)
(0.041302544 1.5443682e-06 0)
(0.041060883 -1.4697117e-06 0)
(0.041284184 1.3990299e-06 0)
(0.041078628 -1.3331599e-06 0)
(0.041267021 1.2715111e-06 0)
(0.041095256 -1.2151774e-06 0)
(0.041250913 1.1630626e-06 0)
(0.041110899 -1.1155677e-06 0)
(0.041235693 1.0724268e-06 0)
(0.041125743 -1.0342869e-06 0)
(0.041221195 1.0006969e-06 0)
(0.041139941 -9.7153451e-07 0)
(0.041207251 9.48049e-07 0)
(0.04115365 -9.2627881e-07 0)
(0.041193624 8.9819881e-07 0)
(0.04116731 -1.020674e-06 0)
(0.041182808 8.0620215e-07 0)
(0.038014752 0.0054892505 0)
(0.047793374 -0.00020412165 0)
(0.043808619 0.000119248 0)
(0.045741339 -3.8656541e-06 0)
(0.044034401 1.2170253e-06 0)
(0.045554464 4.0882452e-06 0)
(0.044188017 -5.5941926e-06 0)
(0.045488132 5.3054e-06 0)
(0.044261435 -5.3312146e-06 0)
(0.045427426 5.1133183e-06 0)
(0.044319679 -4.8834928e-06 0)
(0.045371817 4.6973117e-06 0)
(0.044372143 -4.4855783e-06 0)
(0.045321506 4.3005689e-06 0)
(0.044419994 -4.1122865e-06 0)
(0.045275711 3.9356081e-06 0)
(0.044463749 -3.7636717e-06 0)
(0.045233837 3.5977195e-06 0)
(0.044503857 -3.4385841e-06 0)
(0.045195427 3.2834088e-06 0)
(0.044540706 -3.1351415e-06 0)
(0.0451601 2.9906616e-06 0)
(0.044574624 -2.8525553e-06 0)
(0.045127556 2.7180097e-06 0)
(0.044605898 -2.5897853e-06 0)
(0.045097532 2.4650288e-06 0)
(0.044634767 -2.3462723e-06 0)
(0.045069798 2.2313633e-06 0)
(0.044661443 -2.1222258e-06 0)
(0.045044157 2.0168785e-06 0)
(0.044686122 -1.9171652e-06 0)
(0.045020415 1.8214002e-06 0)
(0.044708994 -1.7313266e-06 0)
(0.044998393 1.6455726e-06 0)
(0.044730224 -1.5653168e-06 0)
(0.044977926 1.4892909e-06 0)
(0.044749989 -1.4184054e-06 0)
(0.044958824 1.3520432e-06 0)
(0.044768481 -1.2915631e-06 0)
(0.044940923 1.2355498e-06 0)
(0.044785851 -1.184487e-06 0)
(0.044924036 1.1381377e-06 0)
(0.044802309 -1.0971284e-06 0)
(0.044907972 1.0610148e-06 0)
(0.044818028 -1.0296779e-06 0)
(0.044892544 1.0044949e-06 0)
(0.04483319 -9.8068198e-07 0)
(0.044877485 9.5053784e-07 0)
(0.044848232 -1.0890957e-06 0)
(0.044865165 8.4499295e-07 0)
(0.041787354 0.0059278895 0)
(0.051162088 -0.00022113744 0)
(0.047281679 0.00013147321 0)
(0.049361191 -4.0047424e-06 0)
(0.047504313 1.5636259e-06 0)
(0.049185936 3.9023581e-06 0)
(0.047676655 -5.9402548e-06 0)
(0.049113868 5.5702322e-06 0)
(0.047757596 -5.6445123e-06 0)
(0.049046776 5.4107415e-06 0)
(0.047822039 -5.1677758e-06 0)
(0.048985217 4.9733372e-06 0)
(0.047880174 -4.7483492e-06 0)
(0.048929458 4.5533581e-06 0)
(0.047933236 -4.3536884e-06 0)
(0.048878663 4.1666714e-06 0)
(0.047981783 -3.9843622e-06 0)
(0.048832194 3.8082884e-06 0)
(0.048026296 -3.6395023e-06 0)
(0.04878956 3.4746063e-06 0)
(0.048067194 -3.3171497e-06 0)
(0.048750353 3.1635246e-06 0)
(0.048104832 -3.0167915e-06 0)
(0.048714245 2.8736475e-06 0)
(0.048139518 -2.7374135e-06 0)
(0.048680955 2.6046096e-06 0)
(0.048171516 -2.4783293e-06 0)
(0.048650226 2.3560916e-06 0)
(0.048201054 -2.2400195e-06 0)
(0.048621848 2.1279105e-06 0)
(0.048228351 -2.0218839e-06 0)
(0.048595603 1.9199937e-06 0)
(0.048253617 -1.8242326e-06 0)
(0.048571291 1.7330371e-06 0)
(0.048277036 -1.647753e-06 0)
(0.048548731 1.5668724e-06 0)
(0.048298807 -1.4915604e-06 0)
(0.048527705 1.4210405e-06 0)
(0.048319144 -1.3568262e-06 0)
(0.048508035 1.2973132e-06 0)
(0.048338216 -1.2430591e-06 0)
(0.048489504 1.1937445e-06 0)
(0.048356261 -1.1502481e-06 0)
(0.048471904 1.1119266e-06 0)
(0.048373472 -1.0786376e-06 0)
(0.048455024 1.0519618e-06 0)
(0.048390056 -1.0262261e-06 0)
(0.048438567 9.9437436e-07 0)
(0.048406444 -1.1482608e-06 0)
(0.048424739 8.7489212e-07 0)
(0.044795896 0.0059999917 0)
(0.054294384 -0.00027341645 0)
(0.050629174 0.00013940624 0)
(0.05285704 -4.5525654e-06 0)
(0.050854107 1.7583535e-06 0)
(0.052695083 3.5888767e-06 0)
(0.051042782 -6.2535821e-06 0)
(0.052616856 5.7873859e-06 0)
(0.051131127 -5.9179047e-06 0)
(0.052543305 5.6693341e-06 0)
(0.051201779 -5.4147776e-06 0)
(0.052475759 5.2137856e-06 0)
(0.051265616 -4.9769471e-06 0)
(0.052414516 4.7734672e-06 0)
(0.051323926 -4.5637527e-06 0)
(0.052358684 4.3676492e-06 0)
(0.0513773 -4.1762354e-06 0)
(0.052307587 3.9912082e-06 0)
(0.05142625 -3.8138532e-06 0)
(0.052260701 3.6403537e-06 0)
(0.051471224 -3.4748236e-06 0)
(0.052217589 3.3130991e-06 0)
(0.051512599 -3.1587076e-06 0)
(0.052177902 3.007924e-06 0)
(0.051550711 -2.8645003e-06 0)
(0.052141335 2.7245954e-06 0)
(0.051585841 -2.5916751e-06 0)
(0.052107613 2.4628656e-06 0)
(0.05161824 -2.3407211e-06 0)
(0.052076501 2.2226049e-06 0)
(0.051648148 -2.1109927e-06 0)
(0.052047763 2.0036389e-06 0)
(0.051675794 -1.9028846e-06 0)
(0.052021179 1.8068884e-06 0)
(0.051701382 -1.7171899e-06 0)
(0.051996546 1.632077e-06 0)
(0.051725135 -1.5527774e-06 0)
(0.051973624 1.478517e-06 0)
(0.051747287 -1.4110864e-06 0)
(0.051952212 1.3485168e-06 0)
(0.051768032 -1.2914509e-06 0)
(0.051932073 1.239632e-06 0)
(0.05178763 -1.1938881e-06 0)
(0.051912971 1.1535977e-06 0)
(0.051806297 -1.1186229e-06 0)
(0.051894675 1.0906402e-06 0)
(0.051824264 -1.0631675e-06 0)
(0.051876862 1.0298881e-06 0)
(0.051841959 -1.1978174e-06 0)
(0.051861534 8.9668329e-07 0)
(0.048390889 0.006296339 0)
(0.057354452 -0.00028879538 0)
(0.053852205 0.00014717105 0)
(0.056229729 -5.2179081e-06 0)
(0.05408342 1.8332525e-06 0)
(0.056081756 3.1714165e-06 0)
(0.054286654 -6.5282435e-06 0)
(0.055996857 5.9585627e-06 0)
(0.05438227 -6.1506814e-06 0)
(0.055916779 5.8891398e-06 0)
(0.05445912 -5.6242411e-06 0)
(0.055843225 5.4185482e-06 0)
(0.054528675 -5.171185e-06 0)
(0.055776479 4.9606725e-06 0)
(0.054592252 -4.7422142e-06 0)
(0.055715591 4.5384008e-06 0)
(0.05465047 -4.339084e-06 0)
(0.055659849 4.1463379e-06 0)
(0.05470387 -3.9616366e-06 0)
(0.055608698 3.7806284e-06 0)
(0.054752928 -3.6080434e-06 0)
(0.055561675 3.4392429e-06 0)
(0.054798047 -3.2782149e-06 0)
(0.055518407 3.1207576e-06 0)
(0.054839582 -2.9711911e-06 0)
(0.055478568 2.8250245e-06 0)
(0.054877838 -2.6863068e-06 0)
(0.055441861 2.5518444e-06 0)
(0.054913084 -2.4243599e-06 0)
(0.055408033 2.3010186e-06 0)
(0.054945582 -2.1845619e-06 0)
(0.055376825 2.0724924e-06 0)
(0.054975583 -1.9673948e-06 0)
(0.055347995 1.8672427e-06 0)
(0.055003312 -1.7737246e-06 0)
(0.055321321 1.6848887e-06 0)
(0.055029013 -1.6022301e-06 0)
(0.055296537 1.524824e-06 0)
(0.055052946 -1.4545991e-06 0)
(0.055273422 1.3893903e-06 0)
(0.055075324 -1.3299086e-06 0)
(0.055251712 1.2758257e-06 0)
(0.055096433 -1.2282439e-06 0)
(0.055231151 1.186322e-06 0)
(0.055116513 -1.1498908e-06 0)
(0.055211482 1.1208142e-06 0)
(0.055135822 -1.0917598e-06 0)
(0.055192357 1.0574088e-06 0)
(0.055154777 -1.2382588e-06 0)
(0.055175549 9.1056045e-07 0)
(0.051449101 0.0063411626 0)
(0.060195101 -0.00034081583 0)
(0.056950692 0.00015121781 0)
(0.059481687 -5.7398604e-06 0)
(0.057192449 1.8765593e-06 0)
(0.059345852 2.68318e-06 0)
(0.05740851 -6.7567025e-06 0)
(0.059253629 6.0852531e-06 0)
(0.057511255 -6.342417e-06 0)
(0.05916698 6.0703114e-06 0)
(0.057594277 -5.7961501e-06 0)
(0.059087415 5.5875488e-06 0)
(0.057669546 -5.3310061e-06 0)
(0.059015165 5.1149668e-06 0)
(0.057738391 -4.8891039e-06 0)
(0.05894922 4.6788413e-06 0)
(0.057801454 -4.4729076e-06 0)
(0.058888832 4.2736356e-06 0)
(0.057859304 -4.0826822e-06 0)
(0.058833418 3.8953236e-06 0)
(0.057912443 -3.7168367e-06 0)
(0.058782491 3.5420466e-06 0)
(0.057961293 -3.3753824e-06 0)
(0.058735655 3.2122555e-06 0)
(0.058006236 -3.0573854e-06 0)
(0.058692562 2.9059538e-06 0)
(0.058047594 -2.7623605e-06 0)
(0.058652896 2.623035e-06 0)
(0.058085663 -2.4911177e-06 0)
(0.058616379 2.3633416e-06 0)
(0.058120721 -2.2427973e-06 0)
(0.058582732 2.1267025e-06 0)
(0.058153043 -2.0179863e-06 0)
(0.058551694 1.9143482e-06 0)
(0.058182873 -1.8176516e-06 0)
(0.058523018 1.7257479e-06 0)
(0.058210482 -1.6401748e-06 0)
(0.058496413 1.5600493e-06 0)
(0.058236152 -1.4875743e-06 0)
(0.058471639 1.4201854e-06 0)
(0.058260118 -1.3586769e-06 0)
(0.058448405 1.3028248e-06 0)
(0.058282694 -1.2536415e-06 0)
(0.05842643 1.2103289e-06 0)
(0.05830414 -1.1727204e-06 0)
(0.058405435 1.1427348e-06 0)
(0.058324741 -1.1123226e-06 0)
(0.058385051 1.0771603e-06 0)
(0.05834491 -1.2693002e-06 0)
(0.058366791 9.1741064e-07 0)
(0.054881165 0.0065149052 0)
(0.062995682 -0.00035513805 0)
(0.059928225 0.00015473269 0)
(0.062616185 -6.3298621e-06 0)
(0.060180696 1.8361895e-06 0)
(0.06248719 2.1120635e-06 0)
(0.060408567 -6.9388502e-06 0)
(0.062386937 6.1673523e-06 0)
(0.060518294 -6.4931333e-06 0)
(0.062293692 6.21294e-06 0)
(0.060607446 -5.930518e-06 0)
(0.062208135 5.7208843e-06 0)
(0.060688411 -5.4564481e-06 0)
(0.062130395 5.2363313e-06 0)
(0.060762509 -5.0043585e-06 0)
(0.062059407 4.7890425e-06 0)
(0.060830401 -4.5776968e-06 0)
(0.06199439 4.3731611e-06 0)
(0.060892682 -4.177205e-06 0)
(0.061934734 3.9846185e-06 0)
(0.060949878 -3.8012656e-06 0)
(0.061879925 3.6215455e-06 0)
(0.061002437 -3.4502965e-06 0)
(0.061829548 3.2825008e-06 0)
(0.061050758 -3.123418e-06 0)
(0.061783232 2.9675895e-06 0)
(0.061095189 -2.8199896e-06 0)
(0.061740638 2.6767604e-06 0)
(0.061136041 -2.5411571e-06 0)
(0.061701473 2.40976e-06 0)
(0.061173618 -2.2858946e-06 0)
(0.06166543 2.1665542e-06 0)
(0.061208216 -2.0548877e-06 0)
(0.061632227 1.9484303e-06 0)
(0.061240103 -1.849162e-06 0)
(0.061601596 1.7547095e-06 0)
(0.061269572 -1.6668795e-06 0)
(0.06157322 1.5846572e-06 0)
(0.061296929 -1.5103532e-06 0)
(0.061546838 1.4412113e-06 0)
(0.061322432 -1.3780844e-06 0)
(0.061522129 1.3206921e-06 0)
(0.061346422 -1.2703363e-06 0)
(0.061498793 1.2259849e-06 0)
(0.061369182 -1.1874284e-06 0)
(0.061476526 1.1567509e-06 0)
(0.061391026 -1.1251619e-06 0)
(0.061454934 1.089527e-06 0)
(0.061412355 -1.2916119e-06 0)
(0.061435258 9.1740958e-07 0)
(0.057980856 0.0065253623 0)
(0.065599393 -0.00040189013 0)
(0.062780516 0.00015383323 0)
(0.065636463 -7.1362536e-06 0)
(0.06304849 1.7701091e-06 0)
(0.065505749 1.4689542e-06 0)
(0.063287083 -7.0685828e-06 0)
(0.065396577 6.206275e-06 0)
(0.0634036 -6.6025672e-06 0)
(0.065296722 6.3174587e-06 0)
(0.063498821 -6.0275369e-06 0)
(0.065205205 5.8187054e-06 0)
(0.063585444 -5.547668e-06 0)
(0.06512201 5.3249855e-06 0)
(0.063664761 -5.088232e-06 0)
(0.065046013 4.8691262e-06 0)
(0.06373745 -4.6536644e-06 0)
(0.064976398 4.4450744e-06 0)
(0.063804129 -4.2452144e-06 0)
(0.064912532 4.0485896e-06 0)
(0.06386535 -3.8615503e-06 0)
(0.064853878 3.6780151e-06 0)
(0.063921576 -3.5032031e-06 0)
(0.064799999 3.3317762e-06 0)
(0.063973234 -3.1693283e-06 0)
(0.064750504 3.0101363e-06 0)
(0.06402069 -2.8594767e-06 0)
(0.064705032 2.7131543e-06 0)
(0.064064278 -2.5748049e-06 0)
(0.064663265 2.4405995e-06 0)
(0.064104325 -2.3141864e-06 0)
(0.064624878 2.1923071e-06 0)
(0.064141148 -2.0784323e-06 0)
(0.064589564 1.9698419e-06 0)
(0.064175037 -1.8686588e-06 0)
(0.064557031 1.7723332e-06 0)
(0.064206311 -1.6826868e-06 0)
(0.064526939 1.5987928e-06 0)
(0.064235299 -1.5232202e-06 0)
(0.064499002 1.4527905e-06 0)
(0.064262285 -1.3884344e-06 0)
(0.064472876 1.3300222e-06 0)
(0.064287634 -1.2787203e-06 0)
(0.064448234 1.2335651e-06 0)
(0.064311654 -1.1943458e-06 0)
(0.064424747 1.163156e-06 0)
(0.064334683 -1.130641e-06 0)
(0.064402005 1.0947625e-06 0)
(0.064357121 -1.3049485e-06 0)
(0.064380958 9.1150359e-07 0)
(0.061251702 0.0065895773 0)
(0.068188572 -0.00041326173 0)
(0.065512537 0.00015283038 0)
(0.068542631 -8.0003921e-06 0)
(0.065795929 1.7335241e-06 0)
(0.068401354 7.5627408e-07 0)
(0.066044274 -7.1413868e-06 0)
(0.068282326 6.2027825e-06 0)
(0.066167358 -6.6709448e-06 0)
(0.068175871 6.3841242e-06 0)
(0.066268575 -6.0874758e-06 0)
(0.068078452 5.8813121e-06 0)
(0.066360803 -5.6049334e-06 0)
(0.067989853 5.381113e-06 0)
(0.06644529 -5.1408648e-06 0)
(0.067908893 4.9193738e-06 0)
(0.066522727 -4.7009966e-06 0)
(0.06783473 4.4896321e-06 0)
(0.066593755 -4.2871338e-06 0)
(0.067766705 4.0876097e-06 0)
(0.066658946 -3.8979268e-06 0)
(0.067704258 3.7116609e-06 0)
(0.066718791 -3.5343545e-06 0)
(0.06764693 3.3603183e-06 0)
(0.066773731 -3.1956267e-06 0)
(0.067594311 3.0339558e-06 0)
(0.066824157 -2.8811192e-06 0)
(0.067546014 2.7326881e-06 0)
(0.066870423 -2.5923407e-06 0)
(0.067501707 2.4561585e-06 0)
(0.066912879 -2.3279769e-06 0)
(0.067461034 2.2043562e-06 0)
(0.066951867 -2.0889479e-06 0)
(0.067423668 1.9789002e-06 0)
(0.066987698 -1.8764088e-06 0)
(0.067389295 1.7787275e-06 0)
(0.067020717 -1.6879401e-06 0)
(0.067357547 1.6030129e-06 0)
(0.067051277 -1.5265816e-06 0)
(0.067328117 1.4552917e-06 0)
(0.067079686 -1.3901196e-06 0)
(0.067300631 1.3308971e-06 0)
(0.067106334 -1.2790894e-06 0)
(0.067274741 1.2334897e-06 0)
(0.067131555 -1.1938301e-06 0)
(0.067250095 1.1623451e-06 0)
(0.067155714 -1.1291e-06 0)
(0.06722626 1.093289e-06 0)
(0.067179203 -1.3101239e-06 0)
(0.067203889 8.9981551e-07 0)
(0.064358241 0.0065602889 0)
(0.070601704 -0.00045218515 0)
(0.068125321 0.00014742507 0)
(0.071328136 -8.9563697e-06 0)
(0.068423562 1.7946134e-06 0)
(0.071173637 -5.4983427e-09 0)
(0.068680323 -7.1484341e-06 0)
(0.07104396 6.159471e-06 0)
(0.068809742 -6.6980526e-06 0)
(0.070930956 6.4136294e-06 0)
(0.068916874 -6.1107716e-06 0)
(0.070827716 5.9090599e-06 0)
(0.069014639 -5.6286279e-06 0)
(0.070733785 5.4051515e-06 0)
(0.06910423 -5.1627347e-06 0)
(0.070647931 4.9401088e-06 0)
(0.069186351 -4.7201159e-06 0)
(0.070569283 4.5071902e-06 0)
(0.069261664 -4.3031473e-06 0)
(0.070497161 4.1019323e-06 0)
(0.069330764 -3.9107997e-06 0)
(0.070430985 3.7229314e-06 0)
(0.069394158 -3.5441616e-06 0)
(0.070370275 3.368573e-06 0)
(0.069452314 -3.202481e-06 0)
(0.070314597 3.0393854e-06 0)
(0.069505643 -2.8853291e-06 0)
(0.070263547 2.7356071e-06 0)
(0.06955452 -2.5942197e-06 0)
(0.070216763 2.4568815e-06 0)
(0.069599319 -2.3277077e-06 0)
(0.070173872 2.2030549e-06 0)
(0.069640405 -2.0868584e-06 0)
(0.070134523 1.9760425e-06 0)
(0.069678111 -1.8729038e-06 0)
(0.070098375 1.7745509e-06 0)
(0.069712809 -1.6830484e-06 0)
(0.070065035 1.5975015e-06 0)
(0.069744876 -1.520778e-06 0)
(0.070034173 1.4490893e-06 0)
(0.069774645 -1.3834821e-06 0)
(0.070005391 1.3239868e-06 0)
(0.069802533 -1.2718825e-06 0)
(0.069978314 1.2260606e-06 0)
(0.069828894 -1.1862463e-06 0)
(0.069952567 1.154636e-06 0)
(0.069854123 -1.1209269e-06 0)
(0.0699277 1.0853755e-06 0)
(0.069878608 -1.3069066e-06 0)
(0.069904059 8.8331695e-07 0)
(0.067437863 0.0065265086 0)
(0.073013163 -0.00045936274 0)
(0.070632083 0.00014207099 0)
(0.073987222 -9.8283029e-06 0)
(0.070931321 1.9460823e-06 0)
(0.073822205 -8.1514157e-07 0)
(0.071195401 -7.0859637e-06 0)
(0.073681276 6.0776035e-06 0)