/*--------------------------------*- C++ -*----------------------------------*\
| =========                 |                                                 |
| \\      /  F ield         | OpenFOAM: The Open Source CFD Toolbox           |
|  \\    /   O peration     | Version:  2312                                  |
|   \\  /    A nd           | Website:  www.openfoam.com                      |
|    \\/     M anipulation  |                                                 |
\*---------------------------------------------------------------------------*/
FoamFile
{
    version     2.0;
    format      ascii;
    arch        "LSB;label=32;scalar=64";
    class       surfaceScalarField;
    location    "7";
    object      phi;
}
// * * * * * * * * * * * * * * * * * * * * * * * * * * * * * * * * * * * * * //

dimensions      [0 3 -1 0 0 0 0];

oriented        oriented;

internalField   nonuniform List<scalar> 
7870
(
5.3070791e-11
1.2931796e-09
5.1927066e-11
1.1433941e-12
5.1958534e-11
-3.1478312e-14
5.1215345e-11
7.4318659e-13
5.205288e-11
-8.3753409e-13
5.1284633e-11
7.6824755e-13
5.2023473e-11
-7.3884038e-13
5.1334594e-11
6.8887897e-13
5.1982987e-11
-6.4839334e-13
5.1375754e-11
6.0723373e-13
5.1945598e-11
-5.6984462e-13
5.1411273e-11
5.3432559e-13
5.1912551e-11
-5.0127821e-13
5.1442303e-11
4.7024759e-13
5.1883544e-11
-4.4124122e-13
5.1469469e-11
4.1407495e-13
5.1858131e-11
-3.8866182e-13
5.1493248e-11
3.6488371e-13
5.183589e-11
-3.4264259e-13
5.1514042e-11
3.2184782e-13
5.1816447e-11
-3.0240518e-13
5.1532206e-11
2.8424176e-13
5.1799476e-11
-2.6727018e-13
5.1548045e-11
2.5143105e-13
5.1784689e-11
-2.3664454e-13
5.1561827e-11
2.2286202e-13
5.1771839e-11
-2.1001133e-13
5.1573786e-11
1.9805254e-13
5.1760707e-11
-1.8692099e-13
5.1584123e-11
1.7658386e-13
5.1751107e-11
-1.6698374e-13
5.1593013e-11
1.5809361e-13
5.1742876e-11
-1.49863e-13
5.1600607e-11
1.4226965e-13
5.1735876e-11
-1.3526967e-13
5.1607032e-11
1.2884479e-13
5.1729989e-11
-1.2295732e-13
5.1612397e-11
1.1759231e-13
5.1725115e-11
-1.1271796e-13
5.1616792e-11
1.0832211e-13
5.1721171e-11
-1.0437855e-13
5.1620294e-11
1.0087749e-13
5.1718092e-11
-9.7798072e-14
5.1622959e-11
9.5132588e-14
5.1715824e-11
-9.2864683e-14
5.1624833e-11
9.099119e-14
5.1714335e-11
-8.9502363e-14
5.1626072e-11
8.8262762e-14
5.1714635e-11
-8.8562729e-14
8.501544e-14
1.4958133e-10
2.4898477e-09
1.508365e-10
-1.1140719e-13
1.502592e-10
5.4585198e-13
1.4930119e-10
1.7011892e-12
1.5050772e-10
-2.0440608e-12
1.4943334e-10
1.8426214e-12
1.5049371e-10
-1.7992092e-12
1.4951111e-10
1.6714846e-12
1.5043931e-10
-1.5765988e-12
1.4957122e-10
1.4753233e-12
1.503864e-10
-1.3850183e-12
1.4962228e-10
1.298444e-12
1.5033926e-10
-1.2182622e-12
1.4966674e-10
1.1427737e-12
1.5029783e-10
-1.0723347e-12
1.4970563e-10
1.0062741e-12
1.5026152e-10
-9.4454818e-13
1.4973967e-10
8.8673325e-13
1.5022973e-10
-8.3270798e-13
1.4976943e-10
7.8214954e-13
1.5020195e-10
-7.3492e-13
1.4979543e-10
6.9076081e-13
1.5017769e-10
-6.4953258e-13
1.498181e-10
6.1102541e-13
1.5015655e-10
-5.7510426e-13
1.4983782e-10
5.4159789e-13
1.5013819e-10
-5.1037871e-13
1.4985493e-10
4.8130661e-13
1.5012227e-10
-4.5426333e-13
1.4986972e-10
4.2913401e-13
1.5010855e-10
-4.058108e-13
1.4988245e-10
3.8419946e-13
1.5009679e-10
-3.6420311e-13
1.4989331e-10
3.4574441e-13
1.5008678e-10
-3.2873767e-13
1.499025e-10
3.1311953e-13
1.5007836e-10
-2.988155e-13
1.4991018e-10
2.8577381e-13
1.5007139e-10
-2.7393106e-13
1.4991647e-10
2.6324518e-13
1.5006576e-10
-2.5366367e-13
1.4992148e-10
2.4515263e-13
1.5006135e-10
-2.3767026e-13
1.499253e-10
2.3118969e-13
1.5005811e-10
-2.2567753e-13
1.4992798e-10
2.2112353e-13
1.5005597e-10
-2.1749279e-13
1.499298e-10
2.1443342e-13
1.5005731e-10
-2.160781e-13
2.0582687e-13
2.4300096e-10
3.5930964e-09
2.4727199e-10
-4.382162e-12
2.4583641e-10
1.9814542e-12
2.4509537e-10
2.4422259e-12
2.4623135e-10
-3.1800453e-12
2.4526129e-10
2.8126858e-12
2.4625635e-10
-2.794276e-12
2.4534199e-10
2.58585e-12
2.4621013e-10
-2.444736e-12
2.4539977e-10
2.285684e-12
2.4616142e-10
-2.1466777e-12
2.4544779e-10
2.0120801e-12
2.4611757e-10
-1.8880414e-12
2.4548942e-10
1.7709246e-12
2.4607894e-10
-1.6618529e-12
2.455258e-10
1.5594093e-12
2.4604506e-10
-1.4638076e-12
2.4555763e-10
1.3741626e-12
2.460154e-10
-1.2904807e-12
2.4558546e-10
1.2120921e-12
2.4598947e-10
-1.1389327e-12
2.4560977e-10
1.0704688e-12
2.4596684e-10
-1.006603e-12
2.4563096e-10
9.4690417e-13
2.4594711e-10
-8.9125755e-13
2.4564939e-10
8.3931317e-13
2.4592997e-10
-7.9094907e-13
2.4566539e-10
7.4588024e-13
2.4591511e-10
-7.0398426e-13
2.4567922e-10
6.6502855e-13
2.459023e-10
-6.2889495e-13
2.4569111e-10
5.9539343e-13
2.4589132e-10
-5.6441333e-13
2.4570126e-10
5.3579934e-13
2.4588198e-10
-5.094505e-13
2.4570986e-10
4.8524e-13
2.4587412e-10
-4.6307808e-13
2.4571703e-10
4.4286141e-13
2.4586761e-10
-4.2451241e-13
2.4572291e-10
4.0794727e-13
2.4586235e-10
-3.9310119e-13
2.4572759e-10
3.7990662e-13
2.4585824e-10
-3.6831193e-13
2.4573116e-10
3.5826331e-13
2.458552e-10
-3.4971812e-13
2.4573367e-10
3.4265705e-13
2.4585318e-10
-3.3700759e-13
2.4573545e-10
3.3216565e-13
2.4585569e-10
-3.3631803e-13
3.1785263e-13
3.3413919e-10
4.6052074e-09
3.4108381e-10
-1.1326904e-11
3.3892919e-10
4.1360702e-12
3.3837371e-10
2.9977037e-12
3.3943656e-10
-4.2429e-12
3.3856939e-10
3.6798561e-12
3.394985e-10
-3.7233872e-12
3.3865225e-10
3.4321054e-12
3.3945993e-10
-3.2524191e-12
3.387075e-10
3.0381162e-12
3.3941537e-10
-2.8545466e-12
3.3875243e-10
2.6750165e-12
3.3937478e-10
-2.5103865e-12
3.387912e-10
2.3545025e-12
3.3933894e-10
-2.2095965e-12
3.3882505e-10
2.0733052e-12
3.393075e-10
-1.9462648e-12
3.3885465e-10
1.8270167e-12
3.3927997e-10
-1.7158061e-12
3.3888053e-10
1.6115383e-12
3.392559e-10
-1.5143066e-12
3.3890313e-10
1.4232444e-12
3.3923488e-10
-1.3383604e-12
3.3892283e-10
1.2589594e-12
3.3921657e-10
-1.1849968e-12
3.3893997e-10
1.1159116e-12
3.3920065e-10
-1.0516265e-12
3.3895484e-10
9.9168728e-13
3.3918685e-10
-9.3599789e-13
3.3896769e-10
8.8418998e-13
3.3917496e-10
-8.3615887e-13
3.3897874e-10
7.9160535e-13
3.3916475e-10
-7.5042361e-13
3.3898818e-10
7.1237042e-13
3.3915608e-10
-6.7734418e-13
3.3899617e-10
6.4514722e-13
3.3914878e-10
-6.1568601e-13
3.3900284e-10
5.8880012e-13
3.3914273e-10
-5.6440685e-13
3.390083e-10
5.4237638e-13
3.3913784e-10
-5.2263877e-13
3.3901266e-10
5.050894e-13
3.3913402e-10
-4.8967244e-13
3.3901598e-10
4.7630403e-13
3.391312e-10
-4.6493602e-13
3.3901831e-10
4.5554068e-13
3.391293e-10
-4.4799062e-13
3.3902003e-10
4.4143234e-13
3.3913269e-10
-4.4897788e-13
4.2146649e-13
4.2280161e-10
5.5286562e-09
4.3222098e-10
-2.074645e-11
4.2953281e-10
6.8242261e-12
4.2913911e-10
3.3914019e-12
4.3012318e-10
-5.2269722e-12
4.2935765e-10
4.4453885e-12
4.3022006e-10
-4.5858011e-12
4.2944178e-10
4.2103848e-12
4.3018862e-10
-3.9992592e-12
4.2949432e-10
3.7324157e-12
4.3014813e-10
-3.5083531e-12
4.2953612e-10
3.2870324e-12
4.301108e-10
-3.0850737e-12
4.29572e-10
2.8933071e-12
4.3007777e-10
-2.7153717e-12
4.2960329e-10
2.5477846e-12
4.3004878e-10
-2.3917502e-12
4.2963066e-10
2.2451394e-12
4.3002339e-10
-2.1085357e-12
4.2965457e-10
1.9803509e-12
4.3000118e-10
-1.8609112e-12
4.2967546e-10
1.7489663e-12
4.2998179e-10
-1.6446902e-12
4.2969366e-10
1.5470844e-12
4.2996489e-10
-1.4562213e-12
4.297095e-10
1.3712993e-12
4.2995019e-10
-1.2923223e-12
4.2972324e-10
1.218645e-12
4.2993746e-10
-1.1502263e-12
4.2973511e-10
1.0865454e-12
4.2992648e-10
-1.0275339e-12
4.2974532e-10
9.7277085e-13
4.2991707e-10
-9.2217338e-13
4.2975404e-10
8.7540076e-13
4.2990906e-10
-8.3236519e-13
4.2976142e-10
7.9279084e-13
4.2990232e-10
-7.5659191e-13
4.2976758e-10
7.2354527e-13
4.2989674e-10
-6.9357227e-13
4.2977262e-10
6.6649274e-13
4.2989222e-10
-6.4223885e-13
4.2977665e-10
6.206654e-13
4.2988869e-10
-6.0171803e-13
4.2977972e-10
5.8527968e-13
4.2988608e-10
-5.713005e-13
4.2978188e-10
5.5974431e-13
4.298843e-10
-5.5041177e-13
4.2978351e-10
5.4222288e-13
4.2988836e-10
-5.5382279e-13
5.1661542e-13
5.0896674e-10
6.3659398e-09
5.2068624e-10
-3.2466212e-11
5.1764619e-10
9.8642654e-12
5.1739402e-10
3.6435654e-12
5.1829122e-10
-6.1241756e-12
5.1762598e-10
5.1106274e-12
5.1842118e-10
-5.3809938e-12
5.1771051e-10
4.9210543e-12
5.1839633e-10
-4.6850774e-12
5.1776016e-10
4.3685765e-12
5.1835982e-10
-4.108012e-12
5.1779877e-10
3.8480834e-12
5.1832574e-10
-3.6120429e-12
5.1783176e-10
3.3872935e-12
5.1829551e-10
-3.1791288e-12
5.1786049e-10
2.982807e-12
5.1826896e-10
-2.8002214e-12
5.1788561e-10
2.6284952e-12
5.182457e-10
-2.4686325e-12
5.1790755e-10
2.3184985e-12
5.1822536e-10
-2.1787148e-12
5.1792672e-10
2.0476076e-12
5.1820759e-10
-1.925565e-12
5.1794342e-10
1.8112557e-12
5.1819211e-10
-1.7049075e-12
5.1795795e-10
1.6054559e-12
5.1817864e-10
-1.5130166e-12
5.1797055e-10
1.4267359e-12
5.1816698e-10
-1.3466524e-12
5.1798144e-10
1.2720799e-12
5.1815692e-10
-1.2030057e-12
5.1799081e-10
1.1388775e-12
5.1814829e-10
-1.0796509e-12
5.1799881e-10
1.0248803e-12
5.1814095e-10
-9.7450403e-13
5.1800557e-10
9.2816283e-13
5.1813477e-10
-8.8578838e-13
5.1801123e-10
8.4709081e-13
5.1812966e-10
-8.1200329e-13
5.1801586e-10
7.8029217e-13
5.1812552e-10
-7.5189794e-13
5.1801955e-10
7.2663226e-13
5.1812228e-10
-7.0444707e-13
5.1802237e-10
6.8518973e-13
5.1811988e-10
-6.6881194e-13
5.1802436e-10
6.5526895e-13
5.1811822e-10
-6.4427327e-13
5.1802588e-10
6.345554e-13
5.1812274e-10
-6.5067493e-13
6.0324601e-13
5.9269592e-10
7.1194938e-09
6.0649067e-10
-4.6260888e-11
6.0326696e-10
1.3087984e-11
6.031388e-10
3.7717277e-12
6.0394078e-10
-6.9261498e-12
6.0337425e-10
5.6771515e-12
6.0410198e-10
-6.1087245e-12
6.0345829e-10
5.5647473e-12
6.0408315e-10
-5.3099371e-12
6.035049e-10
4.9468207e-12
6.0405055e-10
-4.6536545e-12
6.035403e-10
4.3583272e-12
6.0401968e-10
-4.0914246e-12
6.0357038e-10
3.8365948e-12
6.0399224e-10
-3.6009856e-12
6.0359656e-10
3.3784886e-12
6.0396812e-10
-3.1717826e-12
6.0361943e-10
2.977186e-12
6.0394699e-10
-2.7961892e-12
6.0363941e-10
2.6260712e-12
6.039285e-10
-2.4677995e-12
6.0365686e-10
2.3192477e-12
6.0391235e-10
-2.1810577e-12
6.0367206e-10
2.0515438e-12
6.0389827e-10
-1.9311205e-12
6.0368529e-10
1.8184443e-12
6.0388604e-10
-1.7137675e-12
6.0369676e-10
1.6160164e-12
6.0387543e-10
-1.5253286e-12
6.0370667e-10
1.4408442e-12
6.0386628e-10
-1.3626219e-12
6.0371519e-10
1.2899713e-12
6.0385844e-10
-1.2228993e-12
6.0372247e-10
1.1608508e-12
6.0385176e-10
-1.1038004e-12
6.0372863e-10
1.0513018e-12
6.0384615e-10
-1.0033123e-12
6.0373377e-10
9.5947275e-13
6.038415e-10
-9.1973463e-13
6.0373798e-10
8.8380878e-13
6.0383773e-10
-8.5164922e-13
6.0374134e-10
8.2302279e-13
6.0383479e-10
-7.9789182e-13
6.0374391e-10
7.7606642e-13
6.038326e-10
-7.5750258e-13
6.0374572e-10
7.4214684e-13
6.0383106e-10
-7.2960906e-13
6.0374714e-10
7.1847559e-13
6.0383588e-10
-7.3941098e-13
6.8139001e-13
6.7405127e-10
7.7916924e-09
6.8965087e-10
-6.186044e-11
6.8639168e-10
1.6347192e-11
6.8637013e-10
3.7932709e-12
6.8707215e-10
-7.6281687e-12
6.8660224e-10
6.147061e-12
6.8726259e-10
-6.7690751e-12
6.8668501e-10
6.1423297e-12
6.8724919e-10
-5.8741172e-12
6.8672844e-10
5.4675745e-12
6.8722039e-10
-5.1456051e-12
6.8676062e-10
4.8181014e-12
6.8719271e-10
-4.5235188e-12
6.867878e-10
4.2415025e-12
6.8716802e-10
-3.9812086e-12
6.8681143e-10
3.7350849e-12
6.8714632e-10
-3.5066696e-12
6.8683206e-10
3.2914368e-12
6.8712729e-10
-3.0914138e-12
6.8685009e-10
2.9032673e-12
6.8711064e-10
-2.7283492e-12
6.8686583e-10
2.5640617e-12
6.870961e-10
-2.4113313e-12
6.8687954e-10
2.2681039e-12
6.8708343e-10
-2.1350049e-12
6.8689147e-10
2.010402e-12
6.8707241e-10
-1.8947037e-12
6.8690181e-10
1.7866087e-12
6.8706285e-10
-1.6863698e-12
6.8691075e-10
1.5929476e-12
6.8705461e-10
-1.5064851e-12
6.8691844e-10
1.4261503e-12
6.8704755e-10
-1.3520113e-12
6.86925e-10
1.2834009e-12
6.8704153e-10
-1.2203384e-12
6.8693055e-10
1.1622883e-12
6.8703648e-10
-1.1092407e-12
6.8693518e-10
1.0607651e-12
6.8703229e-10
-1.0168373e-12
6.8693898e-10
9.7711128e-13
6.8702889e-10
-9.4155904e-13
6.8694202e-10
9.099017e-13
6.8702624e-10
-8.821153e-13
6.8694433e-10
8.5797174e-13
6.8702426e-10
-8.3743361e-13
6.8694597e-10
8.2043857e-13
6.8702285e-10
-8.0648154e-13
6.8694727e-10
7.9405424e-13
6.8702781e-10
-8.1995584e-13
7.5114393e-13
7.5307572e-10
8.3848664e-09
7.7018613e-10
-7.8970715e-11
7.6701566e-10
1.9517685e-11
7.6708129e-10
3.7276397e-12
7.6768601e-10
-8.232884e-12
7.6730969e-10
6.5233757e-12
7.6790311e-10
-7.3624891e-12
7.6739058e-10
6.6548591e-12
7.6789455e-10
-6.3780893e-12
7.6743068e-10
5.9314428e-12
7.6786943e-10
-5.5843582e-12
7.6745963e-10
5.2279023e-12
7.6784489e-10
-4.9087749e-12
7.6748394e-10
4.6024476e-12
7.6782293e-10
-4.320196e-12
7.6750504e-10
4.0529744e-12
7.6780361e-10
-3.8052336e-12
7.6752346e-10
3.5715808e-12
7.6778666e-10
-3.3546164e-12
7.6753955e-10
3.1503806e-12
7.6777184e-10
-2.9606377e-12
7.6755359e-10
2.7823092e-12
7.6775889e-10
-2.616628e-12
7.6756583e-10
2.4611651e-12
7.677476e-10
-2.3167753e-12
7.6757647e-10
2.1815324e-12
7.6773778e-10
-2.0560157e-12
7.6758569e-10
1.9386935e-12
7.6772927e-10
-1.8299457e-12
7.6759367e-10
1.7285512e-12
7.6772193e-10
-1.6347473e-12
7.6760052e-10
1.5475588e-12
7.6771563e-10
-1.4671233e-12
7.6760637e-10
1.3926607e-12
7.6771028e-10
-1.3242415e-12
7.6761132e-10
1.2612405e-12
7.6770577e-10
-1.2036857e-12
7.6761546e-10
1.1510759e-12
7.6770204e-10
-1.1034146e-12
7.6761885e-10
1.0602994e-12
7.6769901e-10
-1.0217236e-12
7.6762155e-10
9.8736236e-13
7.6769664e-10
-9.5720823e-13
7.6762362e-10
9.3099455e-13
7.6769488e-10
-9.0869242e-13
7.6762509e-10
8.9023039e-13
7.6769359e-10
-8.7497884e-13
7.6762625e-10
8.6138497e-13
7.6769858e-10
-8.9227758e-13
8.1264631e-13
8.298017e-10
8.9013146e-09
8.4811613e-10
-9.7285136e-11
8.4513341e-10
2.2500416e-11
8.4526547e-10
3.5955749e-12
8.4578332e-10
-8.7507238e-12
8.4549634e-10
6.81035e-12
8.4602358e-10
-7.8897294e-12
8.4557488e-10
7.1035561e-12
8.460193e-10
-6.8225009e-12
8.4561155e-10
6.3391919e-12
8.4599775e-10
-5.970562e-12
8.4563728e-10
5.5883696e-12
8.4597629e-10
-5.2477774e-12
8.4565875e-10
4.9199877e-12
8.4595701e-10
-4.6184648e-12
8.4567734e-10
4.3326468e-12
8.4594004e-10
-4.0679304e-12
8.4569357e-10
3.8180492e-12
8.4592515e-10
-3.5861989e-12
8.4570774e-10
3.367791e-12
8.4591212e-10
-3.1650201e-12
8.4572011e-10
2.9743255e-12
8.4590074e-10
-2.7972617e-12
8.4573088e-10
2.6310244e-12
8.4589082e-10
-2.4767098e-12
8.4574025e-10
2.3320983e-12
8.4588219e-10
-2.1979505e-12
8.4574838e-10
2.0725046e-12
8.4587471e-10
-1.9562761e-12
8.4575539e-10
1.8478634e-12
8.4586825e-10
-1.7476049e-12
8.4576143e-10
1.6543834e-12
8.4586271e-10
-1.5684118e-12
8.4576658e-10
1.4887981e-12
8.45858e-10
-1.4156687e-12
8.4577093e-10
1.3483102e-12
8.4585404e-10
-1.2867924e-12
8.4577457e-10
1.2305438e-12
8.4585076e-10
-1.1795995e-12
8.4577756e-10
1.1335013e-12
8.458481e-10
-1.0922661e-12
8.4577994e-10
1.0555243e-12
8.4584602e-10
-1.0232867e-12
8.4578176e-10
9.9524831e-13
8.4584446e-10
-9.7139032e-13
8.4578306e-10
9.5163206e-13
8.4584329e-10
-9.3521246e-13
8.4578409e-10
9.2058263e-13
8.458482e-10
-9.5638343e-13
8.6606757e-13
9.0425832e-10
9.3433062e-09
9.2345841e-10
-1.164852e-10
9.207391e-10
2.5219734e-11
9.2091904e-10
3.4156302e-12
9.213652e-10
-9.1968841e-12
9.2116206e-10
7.0134965e-12
9.2162408e-10
-8.3517528e-12
9.2123785e-10
7.4897862e-12
9.2162351e-10
-7.2081583e-12
9.2127096e-10
6.6917352e-12
9.2160541e-10
-6.3050059e-12
9.212935e-10
5.9002744e-12
9.2158696e-10
-5.5412344e-12
9.2131215e-10
5.1947958e-12
9.2157033e-10
-4.8766404e-12
9.2132828e-10
4.5746937e-12
9.2155566e-10
-4.2953117e-12
9.2134235e-10
4.0313629e-12
9.215428e-10
-3.786648e-12
9.2135463e-10
3.5559581e-12
9.2153154e-10
-3.341926e-12
9.2136534e-10
3.1405162e-12
9.2152169e-10
-2.9536121e-12
9.2137468e-10
2.7780401e-12
9.2151311e-10
-2.6151444e-12
9.2138279e-10
2.4624174e-12
9.2150565e-10
-2.3208063e-12
9.2138983e-10
2.1883241e-12
9.2149918e-10
-2.0656265e-12
9.2139591e-10
1.9511356e-12
9.214936e-10
-1.845295e-12
9.2140113e-10
1.746849e-12
9.2148881e-10
-1.6560895e-12
9.2140559e-10
1.5720153e-12
9.2148474e-10
-1.4948123e-12
9.2140937e-10
1.4236808e-12
9.2148131e-10
-1.3587353e-12
9.2141252e-10
1.299336e-12
9.2147847e-10
-1.2455522e-12
9.214151e-10
1.1968708e-12
9.2147617e-10
-1.1533351e-12
9.2141716e-10
1.1145313e-12
9.2147437e-10
-1.08049e-12
9.2141875e-10
1.0508691e-12
9.2147302e-10
-1.0256607e-12
9.2141987e-10
1.0047749e-12
9.2147198e-10
-9.8731529e-13
9.2142078e-10
9.7178169e-13
9.2147671e-10
-1.0123162e-12
9.116049e-13
9.7647464e-10
9.7130817e-09
9.9622828e-10
-1.3623891e-10
9.9382693e-10
2.7621092e-11
9.9404182e-10
3.200728e-12
9.9443264e-10
-9.5877031e-12
9.9430682e-10
7.1393211e-12
9.9470465e-10
-8.749586e-12
9.9437939e-10
7.8150444e-12
9.9470725e-10
-7.5360104e-12
9.9440886e-10
6.9901216e-12
9.9469246e-10
-6.588608e-12
9.9442823e-10
6.1645078e-12
9.9467696e-10
-5.7899676e-12
9.9444411e-10
5.4276508e-12
9.9466291e-10
-5.0954485e-12
9.9445781e-10
4.7798e-12
9.9465051e-10
-4.4880169e-12
9.9446975e-10
4.212125e-12
9.9463963e-10
-3.9565275e-12
9.9448018e-10
3.7154134e-12
9.946301e-10
-3.4918529e-12
9.9448927e-10
3.2813507e-12
9.9462178e-10
-3.0861189e-12
9.9449719e-10
2.9026273e-12
9.9461451e-10
-2.7324687e-12
9.9450407e-10
2.5728573e-12
9.9460819e-10
-2.4249287e-12
9.9451004e-10
2.2864784e-12
9.9460272e-10
-2.1583044e-12
9.945152e-10
2.0386587e-12
9.9459799e-10
-1.9280923e-12
9.9451963e-10
1.825216e-12
9.9459394e-10
-1.7304028e-12
9.9452341e-10
1.6425465e-12
9.9459049e-10
-1.5618944e-12
9.9452661e-10
1.487564e-12
9.9458759e-10
-1.4197162e-12
9.9452928e-10
1.3576459e-12
9.9458518e-10
-1.3014574e-12
9.9453147e-10
1.2505861e-12
9.9458323e-10
-1.2051018e-12
9.9453322e-10
1.164549e-12
9.9458171e-10
-1.128979e-12
9.9453456e-10
1.0980136e-12
9.9458056e-10
-1.071657e-12
9.9453552e-10
1.04981e-12
9.9457965e-10
-1.0314397e-12
9.9453629e-10
1.0151347e-12
9.9458413e-10
-1.0601512e-12
9.4947815e-13
1.0464782e-09
1.0012854e-08
1.0664399e-09
-1.5620063e-10
1.0643912e-09
2.9669799e-11
1.0646357e-09
2.9562281e-12
1.0649863e-09
-9.9383286e-12
1.0649307e-09
7.1949358e-12
1.0652653e-09
-9.0842427e-12
1.0649995e-09
8.0809399e-12
1.0652706e-09
-7.8071342e-12
1.0650252e-09
7.2355233e-12
1.065259e-09
-6.8224038e-12
1.0650414e-09
6.3820705e-12
1.0652463e-09
-5.9949017e-12
1.0650546e-09
5.6194282e-12
1.0652348e-09
-5.2757051e-12
1.0650659e-09
4.9487353e-12
1.0652246e-09
-4.6467655e-12
1.0650757e-09
4.3610133e-12
1.0652157e-09
-4.0964718e-12
1.0650843e-09
3.8467546e-12
1.0652079e-09
-3.6153607e-12
1.0650919e-09
3.3973566e-12
1.065201e-09
-3.1952771e-12
1.0650984e-09
3.0052525e-12
1.065195e-09
-2.8291207e-12
1.0651041e-09
2.6638314e-12
1.0651898e-09
-2.5107063e-12
1.065109e-09
2.3673347e-12
1.0651853e-09
-2.2346556e-12
1.0651132e-09
2.1107598e-12
1.0651814e-09
-1.9963054e-12
1.0651169e-09
1.8897769e-12
1.0651781e-09
-1.7916285e-12
1.06512e-09
1.7006549e-12
1.0651753e-09
-1.6171647e-12
1.0651226e-09
1.5401979e-12
1.0651729e-09
-1.4699619e-12
1.0651248e-09
1.4056903e-12
1.0651709e-09
-1.3475231e-12
1.0651266e-09
1.2948467e-12
1.0651693e-09
-1.2477586e-12
1.0651281e-09
1.2057636e-12
1.065168e-09
-1.168934e-12
1.0651292e-09
1.1368577e-12
1.0651671e-09
-1.1095515e-12
1.06513e-09
1.0869067e-12
1.0651663e-09
-1.0677558e-12
1.0651306e-09
1.0508108e-12
1.0651705e-09
-1.099993e-12
9.7992583e-13
1.1142915e-09
1.0244812e-08
1.1341067e-09
-1.7601584e-10
1.132427e-09
3.1349484e-11
1.1327029e-09
2.6802808e-12
1.1330265e-09
-1.0261929e-11
1.1330338e-09
7.1877007e-12
1.1333062e-09
-9.3566864e-12
1.133098e-09
8.2891838e-12
1.1333136e-09
-8.0227226e-12
1.1331199e-09
7.4292255e-12
1.133305e-09
-7.0075358e-12
1.133133e-09
6.5540631e-12
1.1332951e-09
-6.1570552e-12
1.1331435e-09
5.7710911e-12
1.1332861e-09
-5.418309e-12
1.1331525e-09
5.0823466e-12
1.1332781e-09
-4.7723494e-12
1.1331603e-09
4.478774e-12
1.133271e-09
-4.2071791e-12
1.1331671e-09
3.9506396e-12
1.1332648e-09
-3.7130658e-12
1.1331731e-09
3.4891144e-12
1.1332594e-09
-3.2816311e-12
1.1331782e-09
3.086429e-12
1.1332547e-09
-2.9055824e-12
1.1331827e-09
2.7357945e-12
1.1332506e-09
-2.5785668e-12
1.1331866e-09
2.4312968e-12
1.133247e-09
-2.2950605e-12
1.13319e-09
2.1677989e-12
1.133244e-09
-2.0502741e-12
1.1331929e-09
1.9408538e-12
1.1332413e-09
-1.8400712e-12
1.1331954e-09
1.7466296e-12
1.1332391e-09
-1.6608981e-12
1.1331975e-09
1.5818443e-12
1.1332372e-09
-1.5097221e-12
1.1331992e-09
1.4437081e-12
1.1332357e-09
-1.3839778e-12
1.1332006e-09
1.3298725e-12
1.1332344e-09
-1.2815169e-12
1.1332018e-09
1.2383794e-12
1.1332334e-09
-1.2005533e-12
1.1332027e-09
1.1675947e-12
1.1332326e-09
-1.139533e-12
1.1332033e-09
1.1162507e-12
1.133232e-09
-1.0964499e-12
1.1332038e-09
1.0789943e-12
1.1332358e-09
-1.1319731e-12
1.0032015e-12
1.1799253e-09
1.0411137e-08
1.1992415e-09
-1.9533204e-10
1.1979351e-09
3.2655893e-11
1.1982454e-09
2.3699547e-12
1.1985534e-09
-1.0569947e-11
1.1986161e-09
7.1250148e-12
1.1988273e-09
-9.5678367e-12
1.1986749e-09
8.4415803e-12
1.1988362e-09
-8.1840736e-12
1.1986928e-09
7.5726167e-12
1.1988305e-09
-7.1452427e-12
1.1987029e-09
6.6816765e-12
1.1988234e-09
-6.277532e-12
1.1987108e-09
5.883682e-12
1.1988167e-09
-5.5242342e-12
1.1987175e-09
5.1815509e-12
1.1988108e-09
-4.8656269e-12
1.1987234e-09
4.5662146e-12
1.1988056e-09
-4.2894061e-12
1.1987285e-09
4.0277803e-12
1.198801e-09
-3.7856358e-12
1.1987329e-09
3.5572529e-12
1.198797e-09
-3.3457712e-12
1.1987367e-09
3.1467128e-12
1.1987935e-09
-2.9623762e-12
1.1987401e-09
2.7892389e-12
1.1987905e-09
-2.6289737e-12
1.198743e-09
2.4788022e-12
1.1987879e-09
-2.3399315e-12
1.1987455e-09
2.2101654e-12
1.1987856e-09
-2.0903664e-12
1.1987477e-09
1.978795e-12
1.1987836e-09
-1.8760611e-12
1.1987495e-09
1.7807843e-12
1.198782e-09
-1.6933921e-12
1.198751e-09
1.6127868e-12
1.1987806e-09
-1.5392669e-12
1.1987523e-09
1.4719576e-12
1.1987794e-09
-1.4110689e-12
1.1987534e-09
1.3559012e-12
1.1987785e-09
-1.3066058e-12
1.1987542e-09
1.262618e-12
1.1987777e-09
-1.2240514e-12
1.1987549e-09
1.1904334e-12
1.1987772e-09
-1.161806e-12
1.1987554e-09
1.1380429e-12
1.1987767e-09
-1.1177226e-12
1.1987558e-09
1.0998835e-12
1.19878e-09
-1.1562469e-12
1.0195704e-12
1.2433649e-09
1.0514022e-08
1.2618556e-09
-2.1382283e-10
1.2609336e-09
3.3577925e-11
1.2612636e-09
2.0399346e-12
1.2615665e-09
-1.0872815e-11
1.2616775e-09
7.0139696e-12
1.2618285e-09
-9.7187876e-12
1.2617301e-09
8.539961e-12
1.2618386e-09
-8.2926071e-12
1.2617441e-09
7.667171e-12
1.2618357e-09
-7.236853e-12
1.2617512e-09
6.766183e-12
1.2618312e-09
-6.3575128e-12
1.2617565e-09
5.9583157e-12
1.2618268e-09
-5.594522e-12
1.261761e-09
5.2473286e-12
1.2618229e-09
-4.9275156e-12
1.2617649e-09
4.6241985e-12
1.2618195e-09
-4.3439619e-12
1.2617683e-09
4.0789382e-12
1.2618165e-09
-3.8337848e-12
1.2617713e-09
3.6024443e-12
1.2618139e-09
-3.3883282e-12
1.2617739e-09
3.186698e-12
1.2618116e-09
-3.0000606e-12
1.2617761e-09
2.8246912e-12
1.2618096e-09
-2.6624223e-12
1.261778e-09
2.5103185e-12
1.2618078e-09
-2.3697092e-12
1.2617797e-09
2.2382763e-12
1.2618063e-09
-2.1169759e-12
1.2617811e-09
2.0039736e-12
1.261805e-09
-1.8999512e-12
1.2617824e-09
1.8034541e-12
1.2618039e-09
-1.7149651e-12
1.2617834e-09
1.6333285e-12
1.261803e-09
-1.5588854e-12
1.2617843e-09
1.4907154e-12
1.2618022e-09
-1.4290612e-12
1.261785e-09
1.3731873e-12
1.2618016e-09
-1.3232702e-12
1.2617855e-09
1.2787161e-12
1.2618011e-09
-1.2396579e-12
1.261786e-09
1.2055974e-12
1.2618007e-09
-1.1765888e-12
1.2617863e-09
1.1524977e-12
1.2618004e-09
-1.1317881e-12
1.2617866e-09
1.1136892e-12
1.2618033e-09
-1.1729914e-12
1.0293071e-12
1.3045405e-09
1.0555731e-08
1.3219468e-09
-2.312291e-10
1.3214882e-09
3.4036582e-11
1.3217657e-09
1.7623897e-12
1.3220655e-09
-1.1172591e-11
1.3222177e-09
6.8617407e-12
1.3223097e-09
-9.8107719e-12
1.3222635e-09
8.586141e-12
1.3223208e-09
-8.3498824e-12
1.3222735e-09
7.7144251e-12
1.3223205e-09
-7.283784e-12
1.3222777e-09
6.8089249e-12
1.3223185e-09
-6.3982499e-12
1.3222806e-09
5.996171e-12
1.3223164e-09
-5.6302757e-12
1.322283e-09
5.2807171e-12
1.3223144e-09
-4.9589875e-12
1.322285e-09
4.6536398e-12
1.3223127e-09
-4.3717032e-12
1.3222868e-09
4.1049191e-12
1.3223112e-09
-3.8582688e-12
1.3222883e-09
3.6254e-12
1.3223099e-09
-3.4099702e-12
1.3222896e-09
3.207014e-12
1.3223088e-09
-3.019227e-12
1.3222908e-09
2.8427089e-12
1.3223078e-09
-2.6794373e-12
1.3222918e-09
2.5263408e-12
1.3223069e-09
-2.3848605e-12
1.3222926e-09
2.2525725e-12
1.3223062e-09
-2.1305192e-12
1.3222933e-09
2.016784e-12
1.3223055e-09
-1.912115e-12
1.322294e-09
1.8149937e-12
1.322305e-09
-1.725954e-12
1.3222945e-09
1.6437904e-12
1.3223045e-09
-1.5688836e-12
1.3222949e-09
1.5002739e-12
1.3223041e-09
-1.438235e-12
1.3222953e-09
1.3819999e-12
1.3223038e-09
-1.3317694e-12
1.3222956e-09
1.2869241e-12
1.3223035e-09
-1.2476155e-12
1.3222958e-09
1.2133229e-12
1.3223033e-09
-1.1841124e-12
1.322296e-09
1.159842e-12
1.3223031e-09
-1.1388722e-12
1.3222961e-09
1.1206335e-12
1.3223055e-09
-1.1824034e-12
1.0326927e-12
1.3633612e-09
1.053862e-08
1.3795005e-09
-2.473684e-10
1.3796831e-09
3.3854066e-11
1.3797761e-09
1.6693924e-12
1.3800539e-09
-1.1450386e-11
1.3802381e-09
6.6774817e-12
1.3802714e-09
-9.8440097e-12
1.3802752e-09
8.5822788e-12
1.3802828e-09
-8.3574322e-12
1.3802812e-09
7.71603e-12
1.3802849e-09
-7.287509e-12
1.3802825e-09
6.8113168e-12
1.3802853e-09
-6.4010555e-12
1.380283e-09
5.9984863e-12
1.3802854e-09
-5.6326529e-12
1.3802833e-09
5.2828054e-12
1.3802854e-09
-4.9610628e-12
1.3802835e-09
4.6554977e-12
1.3802853e-09
-4.3735295e-12
1.3802837e-09
4.106569e-12
1.3802853e-09
-3.8598817e-12
1.3802838e-09
3.6268668e-12
1.3802852e-09
-3.4113987e-12
1.3802839e-09
3.208321e-12
1.3802852e-09
-3.0204964e-12
1.380284e-09
2.843877e-12
1.3802852e-09
-2.6805696e-12
1.3802841e-09
2.5273888e-12
1.3802851e-09
-2.3858754e-12
1.3802842e-09
2.2535173e-12
1.3802851e-09
-2.131434e-12
1.3802843e-09
2.0176407e-12
1.3802851e-09
-1.912945e-12
1.3802843e-09
1.8157757e-12
1.3802851e-09
-1.7267129e-12
1.3802843e-09
1.6445097e-12
1.380285e-09
-1.569583e-12
1.3802844e-09
1.5009407e-12
1.380285e-09
-1.4388845e-12
1.3802844e-09
1.382622e-12
1.380285e-09
-1.3323756e-12
1.3802844e-09
1.2875055e-12
1.380285e-09
-1.2481795e-12
1.3802845e-09
1.2138585e-12
1.380285e-09
-1.1846196e-12
1.3802845e-09
1.160314e-12
1.3802848e-09
-1.1392115e-12
1.3802845e-09
1.1209492e-12
1.3802868e-09
-1.1846974e-12
1.0300127e-12
1.4199082e-09
1.0464962e-08
1.4345537e-09
-2.6201393e-10
1.4354428e-09
3.2965007e-11
1.435285e-09
1.8271817e-12
1.4355279e-09
-1.1693262e-11
1.4357378e-09
6.467595e-12
1.4357132e-09
-9.8194284e-12
1.4357651e-09
8.5303999e-12
1.4357246e-09
-8.3169333e-12
1.4357669e-09
7.6736796e-12
1.435729e-09
-7.2495745e-12
1.4357655e-09
6.7748293e-12
1.4357317e-09
-6.3672996e-12
1.4357637e-09
5.9665516e-12
1.4357339e-09
-5.6028614e-12
1.435762e-09
5.2547288e-12
1.4357357e-09
-4.9348054e-12
1.4357604e-09
4.6307721e-12
1.4357373e-09
-4.3503789e-12
1.4357591e-09
4.0847696e-12
1.4357386e-09
-3.8394511e-12
1.4357579e-09
3.6076234e-12
1.4357398e-09
-3.3933451e-12
1.4357568e-09
3.1913076e-12
1.4357409e-09
-3.0045161e-12
1.4357559e-09
2.8288056e-12
1.4357418e-09
-2.6663937e-12
1.4357551e-09
2.5140044e-12
1.4357425e-09
-2.3732649e-12
1.4357545e-09
2.2415935e-12
1.4357432e-09
-2.1201766e-12
1.4357539e-09
2.0069756e-12
1.4357438e-09
-1.9028506e-12
1.4357534e-09
1.8061886e-12
1.4357443e-09
-1.7176108e-12
1.4357529e-09
1.6358379e-12
1.4357447e-09
-1.5613187e-12
1.4357526e-09
1.4930362e-12
1.435745e-09
-1.4313168e-12
1.4357523e-09
1.3753485e-12
1.4357453e-09
-1.3253731e-12
1.435752e-09
1.2807345e-12
1.4357455e-09
-1.2416158e-12
1.4357519e-09
1.2074629e-12
1.4357456e-09
-1.1783632e-12
1.4357518e-09
1.1541619e-12
1.4357456e-09
-1.1330525e-12
1.4357517e-09
1.114878e-12
1.4357471e-09
-1.1801032e-12
1.0215554e-12
1.474319e-09
1.0336893e-08
1.4871455e-09
-2.7484046e-10
1.488624e-09
3.1486466e-11
1.4882747e-09
2.1765233e-12
1.4884828e-09
-1.190138e-11
1.4887154e-09
6.2350299e-12
1.4886349e-09
-9.7389816e-12
1.4887329e-09
8.4323633e-12
1.4886462e-09
-8.2302131e-12
1.4887308e-09
7.5891033e-12
1.4886528e-09
-7.1715944e-12
1.4887267e-09
6.7009829e-12
1.4886578e-09
-6.2984039e-12
1.4887226e-09
5.9017037e-12
1.4886619e-09
-5.5421532e-12
1.488719e-09
5.1976636e-12
1.4886655e-09
-4.8813184e-12
1.4887158e-09
4.5804995e-12
1.4886686e-09
-4.3032236e-12
1.4887129e-09
4.040435e-12
1.4886713e-09
-3.7978352e-12
1.4887105e-09
3.5684767e-12
1.4886737e-09
-3.3565677e-12
1.4887083e-09
3.1566873e-12
1.4886758e-09
-2.9719575e-12
1.4887064e-09
2.7981271e-12
1.4886775e-09
-2.637505e-12
1.4887048e-09
2.4867494e-12
1.4886791e-09
-2.3475591e-12
1.4887034e-09
2.2173018e-12
1.4886804e-09
-2.0972201e-12
1.4887022e-09
1.9852367e-12
1.4886816e-09
-1.8822561e-12
1.4887011e-09
1.7866354e-12
1.4886825e-09
-1.6990305e-12
1.4887002e-09
1.6181396e-12
1.4886834e-09
-1.5444386e-12
1.4886995e-09
1.4768928e-12
1.488684e-09
-1.4158505e-12
1.4886989e-09
1.3604854e-12
1.4886846e-09
-1.3110564e-12
1.4886984e-09
1.2668962e-12
1.488685e-09
-1.2282004e-12
1.4886981e-09
1.1944048e-12
1.4886853e-09
-1.1656056e-12
1.4886978e-09
1.1416432e-12
1.4886854e-09
-1.1206499e-12
1.4886976e-09
1.1026702e-12
1.4886864e-09
-1.1688651e-12
1.0076106e-12
1.526587e-09
1.0156556e-08
1.5372675e-09
-2.8552096e-10
1.5392037e-09
2.9550246e-11
1.5387608e-09
2.6194539e-12
1.5389199e-09
-1.2060568e-11
1.5391718e-09
5.9831847e-12
1.5390368e-09
-9.6040055e-12
1.5391789e-09
8.2902813e-12
1.5390478e-09
-8.0990734e-12
1.5391727e-09
7.464116e-12
1.5390564e-09
-7.0552207e-12
1.539166e-09
6.5913505e-12
1.5390634e-09
-6.1958329e-12
1.5391598e-09
5.8053218e-12
1.5390695e-09
-5.4518196e-12
1.5391543e-09
5.1128232e-12
1.5390747e-09
-4.8017396e-12
1.5391495e-09
4.5057488e-12
1.5390793e-09
-4.2330667e-12
1.5391453e-09
3.9745078e-12
1.5390833e-09
-3.7359192e-12
1.5391416e-09
3.5102591e-12
1.5390868e-09
-3.3018488e-12
1.5391383e-09
3.1051965e-12
1.5390899e-09
-2.923513e-12
1.5391355e-09
2.7524937e-12
1.5390925e-09
-2.5945179e-12
1.5391331e-09
2.4462033e-12
1.5390948e-09
-2.3093045e-12
1.539131e-09
2.1811585e-12
1.5390968e-09
-2.0630526e-12
1.5391292e-09
1.9528863e-12
1.5390985e-09
-1.8515994e-12
1.5391276e-09
1.7575316e-12
1.5390999e-09
-1.6713671e-12
1.5391263e-09
1.5917908e-12
1.5391011e-09
-1.5193013e-12
1.5391252e-09
1.4528537e-12
1.5391022e-09