/*--------------------------------*- C++ -*----------------------------------*\
| =========                 |                                                 |
| \\      /  F ield         | OpenFOAM: The Open Source CFD Toolbox           |
|  \\    /   O peration     | Version:  2312                                  |
|   \\  /    A nd           | Website:  www.openfoam.com                      |
|    \\/     M anipulation  |                                                 |
\*---------------------------------------------------------------------------*/
FoamFile
{
    version     2.0;
    format      ascii;
    arch        "LSB;label=32;scalar=64";
    class       volScalarField;
    location    "7";
    object      T;
}
// * * * * * * * * * * * * * * * * * * * * * * * * * * * * * * * * * * * * * //

dimensions      [0 0 0 1 0 0 0];

internalField   nonuniform List<scalar> 
4000
(
329.27847
328.41696
328.29777
328.22271
328.16722
328.11355
328.06877
328.02203
327.98143
327.93811
327.89967
327.85839
327.82123
327.78128
327.74495
327.70595
327.67019
327.63189
327.59656
327.55878
327.52377
327.48641
327.45166
327.41462
327.38008
327.3433
327.30894
327.27237
327.23816
327.20176
327.16769
327.13142
327.09747
327.06131
327.02749
326.9914
326.95769
326.92166
326.88807
326.85207
326.8186
326.7826
326.74927
326.71325
326.68007
326.64397
326.61101
326.57473
326.54217
326.50508
331.02171
329.28389
328.99601
328.83895
328.74045
328.64746
328.58107
328.50884
328.455
328.39304
328.34567
328.2898
328.24627
328.1944
328.15337
328.10434
328.06504
328.01809
327.98006
327.9347
327.89764
327.85352
327.81723
327.77409
327.73842
327.69607
327.66093
327.6192
327.58453
327.5433
327.50904
327.46822
327.43434
327.39382
327.3603
327.32002
327.28685
327.24673
327.21391
327.17388
327.14143
327.10142
327.06937
327.02928
326.99771
326.95738
326.92645
326.8856
326.85587
326.81262
332.28235
330.13879
329.69163
329.45374
329.31249
329.18049
329.09251
328.99495
328.92786
328.84735
328.79104
328.72065
328.67073
328.60701
328.56125
328.50223
328.45936
328.40382
328.36306
328.31016
328.27103
328.22018
328.18233
328.13311
328.0963
328.04838
328.01247
327.96559
327.93045
327.88441
327.84995
327.80458
327.77076
327.7259
327.69268
327.64821
327.61558
327.57137
327.53933
327.49528
327.46384
327.41981
327.38905
327.34489
327.31492
327.27038
327.24148
327.19605
327.16914
327.1199
333.22791
330.9686
330.38068
330.06498
329.88179
329.71149
329.60208
329.47955
329.39923
329.30042
329.23512
329.1504
329.09404
329.0186
328.96807
328.89918
328.85271
328.78865
328.74514
328.68476
328.64352
328.58601
328.54656
328.49132
328.45335
328.39991
328.36319
328.31121
328.27557
328.22475
328.19009
328.14019
328.10641
328.05724
328.0243
327.97567
327.94356
327.89529
327.864
327.81595
327.78552
327.7375
327.70801
327.65979
327.63141
327.58268
327.55578
327.50581
327.48168
327.42671
333.95768
331.76032
331.05784
330.66971
330.44625
330.2389
330.10845
329.96157
329.86812
329.75139
329.67714
329.57835
329.51555
329.42859
329.37326
329.29466
329.24454
329.17209
329.1258
329.05805
329.01467
328.95058
328.90952
328.84832
328.80916
328.75027
328.71272
328.65569
328.61953
328.56398
328.52908
328.47471
328.44096
328.3875
328.35483
328.30207
328.27046
328.21817
328.18762
328.13559
328.10615
328.05416
328.02593
327.97369
327.94688
327.89398
327.86906
327.81459
327.79316
327.7328
334.53345
332.5027
331.71686
331.26431
331.00327
330.76079
330.61001
330.43968
330.33336
330.19926
330.11615
330.00367
329.93445
329.83626
329.77613
329.68803
329.63425
329.5536
329.50449
329.42951
329.38397
329.31342
329.27072
329.20367
329.1633
329.09904
329.06064
328.99862
328.96193
328.90172
328.86656
328.80777
328.77401
328.71634
328.68392
328.62707
328.59594
328.53967
328.50984
328.45388
328.4254
328.36949
328.34248
328.28627
328.26099
328.20398
328.181
328.12211
328.10327
328.03787
334.99549
333.18704
332.35112
331.8446
331.54986
331.27489
331.10488
330.91234
330.79359
330.64286
330.55108
330.42542
330.34987
330.24081
330.17592
330.07861
330.02117
329.93255
329.88061
329.7986
329.75087
329.67403
329.62966
329.55689
329.51527
329.44577
329.40648
329.3396
329.30234
329.23755
329.20211
329.13898
329.1052
329.04337
329.01117
328.95031
328.91964
328.85944
328.8303
328.77047
328.74293
328.68315
328.65734
328.59721
328.57344
328.51237
328.49128
328.42806
328.41166
328.34162
335.3711
333.80755
332.95414
332.40613
332.08275
331.77869
331.59099
331.37783
331.24728
331.08089
330.98074
330.84255
330.76081
330.64137
330.57178
330.46562
330.40457
330.30825
330.2535
330.16468
330.11478
330.03182
329.98578
329.90745
329.86459
329.78997
329.74979
329.67814
329.64031
329.57104
329.5353
329.46793
329.43411
329.36821
329.33621
329.27141
329.24117
329.17712
329.14865
329.08502
329.05839
328.9948
328.97016
328.90618
328.88387
328.81883
328.79955
328.73215
328.71801
328.64372
335.67955
334.36131
333.5201
332.94442
332.59851
332.26949
332.0661
331.83429
331.69283
331.51192
331.40385
331.2539
331.16623
331.03696
330.96282
330.84824
330.78365
330.67998
330.62246
330.52712
330.47505
330.38621
330.33851
330.25482
330.2107
330.13113
330.09005
330.01379
329.97537
329.90175
329.8657
329.79419
329.76031
329.69044
329.65862
329.58998
329.56015
329.49234
329.46451
329.39716
329.37141
329.30411
329.28059
329.21286
329.19194
329.12305
329.10549
329.03405
329.02197
328.94383
335.93493
334.84805
334.04423
333.45519
333.09372
332.74454
332.52792
332.27975
332.1285
331.93445
331.81906
331.65827
331.56501
331.42657
331.34808
331.22559
331.15759
331.04696
330.98676
330.8852
330.83103
330.73657
330.68723
330.5984
330.55305
330.46872
330.42675
330.34604
330.30702
330.22921
330.19284
330.11732
330.08338
330.00966
329.978
329.90562
329.87618
329.80471
329.7775
329.70653
329.68162
329.6107
329.58827
329.51688
329.49731
329.42468
329.40875
329.33346
329.32322
329.24161
336.14783
335.26976
334.52307
333.93468
333.56515
333.20111
332.97412
332.71222
332.55256
332.34693
332.22498
332.0544
331.95598
331.80914
331.72659
331.59675
331.52553
331.40839
331.34562
331.23822
331.18203
331.08225
331.03133
330.93761
330.89106
330.80219
330.75935
330.67438
330.63478
330.55293
330.51624
330.43687
330.40285
330.32542
330.29392
330.21792
330.18886
330.11384
330.08722
330.01275
329.98864
329.91423
329.89283
329.81792
329.79961
329.7234
329.70898
329.63006
329.62142
329.5367
336.32643
335.63025
334.95464
334.3798
334.00986
333.63661
333.40246
333.12974
332.96325
332.74781
332.62018
332.44099
332.33798
332.18358
332.09732
331.96079
331.88657
331.76343
331.69827
331.58543
331.52733
331.42258
331.37016
331.27184
331.22414
331.13097
331.0873
330.99828
330.95813
330.87243
330.83543
330.75238
330.71829
330.63728
330.60593
330.52646
330.49776
330.41934
330.39329
330.31544
330.2921
330.21433
330.19391
330.11561
330.0985
330.01887
330.00584
329.92351
329.91625
329.82874
336.47717
335.9346
335.33844
334.78829
334.42541
334.04872
333.81084
333.5304
333.35888
333.13554
333.00328
332.81678
332.70983
332.5488
332.45927
332.31675
332.23985
332.11126
332.04391
331.92609
331.86622
331.75686
331.70306
331.60045
331.55169
331.45449
331.41004
331.3172
331.27654
331.1872
331.14992
331.06336
331.02921
330.94482
330.91361
330.83083
330.80248
330.7208
330.69529
330.61422
330.59162
330.51063
330.49114
330.40962
330.39362
330.31076
330.29899
330.21349
330.20739
330.1174
336.60519
336.18875
335.67533
335.15886
334.80989
334.43545
334.19739
333.91247
333.73787
333.50866
333.37293
333.18052
333.07037
332.90374
332.81143
332.6637
332.58446
332.45104
332.38175
332.25943
332.198
332.08444
332.02939
331.92283
331.87311
331.77217
331.72702
331.63062
331.58949
331.49674
331.45922
331.36936
331.33517
331.24757
331.21652
331.1306
331.10259
331.01783
330.99284
330.9087
330.8868
330.80276
330.78415
330.69958
330.68461
330.59872
330.58807
330.49968
330.49452
330.40231
336.71463
336.39903
335.96738
335.49119
335.16209
334.79524
334.56054
334.2744
334.09877
333.8658
333.72788
333.53102
333.4185
333.24735
333.15284
333.00072
332.91954
332.78194
332.71101
332.58473
332.52194
332.40462
332.34849
332.23835
332.18779
332.08344
332.03768
331.938
331.89648
331.80055
331.76284
331.66991
331.63571
331.54511
331.51422
331.42536
331.39769
331.31002
331.28553
331.19852
331.17728
331.09037
331.07257
330.98515
330.97112
330.88242
330.87276
330.78173
330.77733
330.68315
336.80883
336.57178
336.21762
335.78584
335.48144
335.12702
334.89906
334.61491
334.44033
334.20575
334.06698
333.86718
333.75321
333.57864
333.48257
333.32692
333.24428
333.10317
333.03095
332.90126
332.83737
332.71676
332.65973
332.54641
332.49516
332.38773
332.34148
332.23882
332.19698
332.09815
332.0603
331.96453
331.93036
331.83698
331.80629
331.71469
331.68736
331.59698
331.57298
331.48328
331.46267
331.3731
331.35605
331.26599
331.2528
331.16152
331.15272
331.05933
331.05551
330.95959
336.89053
336.71305
336.42975
336.04424
335.7681
335.43024
335.2121
334.93299
334.76153
334.52747
334.38922
334.18802
334.07354
333.89673
333.79977
333.64149
333.55787
333.41399
333.34084
333.20833
333.14363
333.02021
332.96251
332.84642
332.79466
332.6845
332.63789
332.53255
332.4905
332.38906
332.35114
332.25279
332.2187
332.12277
332.0923
331.99818
331.9712
331.87832
331.85481
331.76262
331.74262
331.65058
331.63423
331.54175
331.52933
331.43571
331.42763
331.33214
331.32877
331.23131
336.9619
336.82842
336.60789
336.26848
336.02284
335.70487
335.49926
335.22797
335.0616
334.83012
334.69377
334.4927
334.3787
334.2008
334.10367
333.94367
333.85962
333.71369
333.64003
333.50529
333.4401
333.31437
333.25625
333.13782
333.08573
332.97323
332.9264
332.81873
332.77658
332.6728
332.6349
332.53424
332.50029
332.40206
332.37185
332.27544
332.24883
332.15368
332.13064
332.03619
332.01676
331.92249
331.90678
331.8121
331.80036
331.70465
331.69719
331.59986
331.5968
331.498
337.02474
336.92284
336.75632
336.46118
336.24701
335.95137
335.76051
335.49952
335.34005
335.11308
334.97998
334.78052
334.66798
334.49015
334.39359
334.2328
334.14886
334.00164
333.92789
333.79155
333.7262
333.59869
333.54041
333.42009
333.36787
333.25342
333.20653
333.09686
333.05474
332.94894
332.91116
332.80847
332.77472
332.67445
332.64454
332.54609
332.51987
332.42268
332.40011
332.30364
332.28475
332.18847
332.17336
332.07673
332.06559
331.96804
331.96108
331.86217
331.85934
331.75937
337.08044
337.00054
336.87926
336.62532
336.44242
336.17067
335.99625
335.74762
335.59667
335.37598
335.2474
335.05097
334.94086
334.76422
334.66897
334.5083
334.42506
334.27728
334.20389
334.06658
334.00141
333.87266
333.81448
333.69273
333.64062
333.52461
333.47784
333.36653
333.32456
333.21707
333.17951
333.07507
333.04161
332.93957
332.91001
332.80977
332.78397
332.68498
332.6629
332.56463
332.54627
332.44823
332.43367
332.33533
332.32471
332.22558
332.21903
332.11879
332.1161
332.01514
337.13017
337.0651
336.9807
336.76404
336.61126
336.36411
336.20724
335.97261
335.83154
335.61869
335.49579
335.3037
335.19695
335.02259
334.92937
334.7697
334.68773
334.54013
334.46756
334.3299
334.26528
334.13581
334.07804
333.95532
333.90353
333.78637
333.73991
333.62732
333.58566
333.47679
333.43956
333.33369
333.30059
333.19706
333.1679
333.06614
333.04079
332.94027
332.91866
332.81886
332.80101
332.70144
332.68739
332.5876
332.57744
332.47699
332.47076
332.36942
332.36682
332.26504
337.17482
337.11938
337.0643
336.88055
336.75594
336.5333
336.39457
336.17513
336.04502
335.84133
335.72514
335.53857
335.43604
335.26496
335.17448
335.01666
334.93652
334.78982
334.71852
334.58112
334.51743
334.38776
334.3307
334.20746
334.15625
334.03834
333.99237
333.87887
333.83767
333.72777
333.69098
333.58397
333.55133
333.4466
333.41791
333.3149
333.29003
333.18822
333.16712
333.06603
333.04867
332.94784
332.93427
332.83327
332.82351
332.72198
332.71602
332.61382
332.61127
332.50882
337.2151
337.16568
337.1333
336.97794
336.879
336.68014
336.55959
336.35607
336.2377
336.04423
335.93561
335.75561
335.65808
335.4912
335.40412
335.24894
335.17117
335.02607
334.95648
334.81994
334.75753
334.62819
334.57212
334.44883
334.39843
334.28019
334.23492
334.12087
334.08029
333.96967
333.93346
333.82563
333.79353
333.68789
333.65973
333.55574
333.5314
333.42857
333.40798
333.30586
333.289
333.18716
333.17403
333.07208
333.06268
332.96032
332.95456
332.85172
332.8492
332.74626
337.2516
337.20576
337.19049
337.0591
336.983
336.80664
336.70386
336.51656
336.4104
336.22796
336.1276
335.95503
335.86318
335.70132
335.61824
335.46643
335.39155
335.24869
335.18124
335.04612
334.98535
334.85684
334.80207
334.67917
334.62983
334.51165
334.46727
334.35303
334.31323
334.20225
334.16673
334.05838
334.02693
333.92066
333.8931
333.78841
333.76464
333.66107
333.64101
333.53812
333.52174
333.41915
333.40644
333.3038
333.29471
333.19177
333.18618
333.08291
333.08039
332.97713
337.28474
337.24093
337.23821
337.12667
337.07041
336.91489
336.82908
336.65792
336.56415
336.39325
336.30166
336.13721
336.05161
335.89547
335.81692
335.66915
335.59763
335.4576
335.3927
335.25953
335.20074
335.07354
335.02035
334.89828
334.85023
334.73251
334.68921
334.57515
334.53628
334.42526
334.39057
334.28201
334.25129
334.14469
334.11781
334.0127
333.98954
333.88548
333.86598
333.76259
333.7467
333.64361
333.6313
333.52821
333.51941
333.41612
333.41067
333.30718
333.30467
333.20124
337.3149
337.27217
337.27839
337.18299
337.14359
337.00699
336.93703
336.78157
336.70011
336.541
336.45851
336.3027
336.22379
336.07396
336.00039
335.85723
335.78948
335.65282
335.59084
335.46012
335.40363
335.27819
335.22685
335.10602
335.05949
334.9426
334.90058
334.78704
334.74927
334.63852
334.60478
334.49632
334.46644
334.35979
334.33365
334.2284
334.2059
334.10163
334.08271
333.97907
333.96367
333.86034
333.84842
333.74513
333.7366
333.63319
333.62785
333.52435
333.52184
333.41843
337.34236
337.30019
337.31253
337.23005
337.20469
337.08493
337.0295
336.88903
336.81954
336.67226
336.59898
336.45216
336.38025
336.23719
336.16896
336.03091
335.9673
335.83448
335.77574
335.64793
335.59403
335.47077
335.42153
335.30232
335.25753
335.14184
335.10127
334.98859
334.95206
334.84191
334.80924
334.70117
334.67222
334.56581
334.54049
334.43535
334.41357
334.30935
334.29103
334.1874
334.17251
334.06918
334.05765
333.95439
333.94612
333.84281
333.83759
333.73425
333.73176
333.62853
337.36733
337.32547
337.34184
337.26957
337.25563
337.15064
337.10826
336.98186
336.9238
336.78814
336.72404
336.58638
336.52166
336.3857
336.32309
336.19054
336.13135
336.00279
335.94758
335.82307
335.77202
335.65132
335.60441
335.48719
335.44433
335.33017
335.29123
335.17973
335.14458
335.03533
335.00385
334.89646
334.86854
334.76264
334.7382
334.63345
334.61243
334.5085
334.49084
334.38745
334.37309
334.26999
334.25886
334.15586
334.14784
334.04484
334.03973
333.93676
333.93429
333.83141
337.39
337.34834
337.36724
337.30293
337.2981
337.20586
337.17499
337.06158
337.01426
336.88983
336.83473
336.70623
336.64876
336.52012
336.46331
336.33656
336.28202
336.15806
336.10661
335.98575
335.93776
335.81997
335.7756
335.66069
335.61994
335.50764
335.47048
335.36046
335.32682
335.21875
335.18856
335.08213
335.05532
334.9502
334.92671
334.82261
334.80239
334.69902
334.68202
334.57913
334.5653
334.46268
334.45194
334.34943
334.34166
334.23918
334.23419
334.13177
334.12932
334.02697
337.41051
337.36905
337.38939
337.33127
337.33355
337.25216
337.23129
337.12969
337.09228
336.97857
336.93211
336.81265
336.76238
336.64115
336.59024
336.46949
336.41976
336.30067
336.25316
336.13623
336.0915
335.97691
335.93525
335.82295
335.78447
335.6743
335.63906
335.5308
335.4988
335.39218
335.36339
335.25817
335.23256
335.12846
335.10599
335.00277
334.98341
334.88082
334.86453
334.76237
334.74909
334.64716
334.63684
334.53502
334.52751
334.42575
334.42089
334.31919
334.31678
334.21512
337.42896
337.38775
337.40881
337.35548
337.36321
337.29094
337.27859
337.1876
337.1592
337.05555
337.01731
336.90663
336.8634
336.74957
336.70454
336.58993
336.5451
336.43106
336.38762
336.27487
336.23353
336.1224
336.08358
335.97415
335.93808
335.8303
335.7971
335.69085
335.66059
335.55568
335.52837
335.42461
335.40026
335.29744
335.27604
335.17394
335.15548
335.0539
335.03835
334.93713
334.92443
334.82341
334.8135
334.71258
334.70534
334.60448
334.59976
334.49896
334.49661
334.39581
337.44545
337.40456
337.42587
337.37628
337.38808
337.32341
337.31822
337.23663
337.2163
337.12199
337.09143
336.98918
336.95274
336.84618
336.80697
336.69852
336.6586
336.54975
336.51045
336.40206
336.36421
336.25674
336.22087
336.11454
336.08097
335.97582
335.94476
335.84076
335.81232
335.70935
335.6836
335.58152
335.55851
335.45717
335.4369
335.33614
335.31862
335.21827
335.20348
335.10341
335.09131
334.99139
334.98192
334.88209
334.87514
334.77535
334.7708
334.67104
334.66876
334.56898
337.46004
337.41954
337.44084
337.39421
337.40899
337.35061
337.35133
337.27798
337.26479
337.17903
337.15556
337.06129
337.03131
336.93183
336.89828
336.79596
336.76091
336.6573
336.62216
336.51824
336.48395
336.3803
336.34746
336.2444
336.21342
336.1111
336.08225
335.98069
335.95415
335.85332
335.8292
335.72902
335.70739
335.60775
335.58865
335.48943
335.47289
335.37396
335.35997
335.26124
335.24976
335.15114
335.14212
335.04355
335.03691
334.93837
334.93398
334.83544
334.83324
334.73464
337.47276
337.43277
337.45391
337.4097
337.4266
337.3734
337.37893
337.31274
337.30576
337.22776
337.21074
337.12395
337.10004
337.00736
336.97926
336.88295
336.85267
336.75431
336.7233
336.62392
336.59319
336.49348
336.4637
336.36407
336.33573
336.23639
336.20982
336.11088
336.0863
335.98779
335.96535
335.86725
335.84705
335.74929
335.7314
335.63391
335.61837
335.52106
335.50788
335.41068
335.39984
335.30269
335.29415
335.19701
335.19068
335.09354
335.08934
334.99217
334.99006
334.89278
337.48367
337.44431
337.46525
337.42306
337.44145
337.39252
337.4019
337.34188
337.34022
337.2692
337.25797
337.17811
337.15983
337.07363
337.0507
336.96023
336.93456
336.84138
336.81443
336.71962
336.69242
336.59672
336.57002
336.47391
336.44824
336.35202
336.32775
336.23159
336.209
336.11298
336.09225
335.99639
335.97766
335.88195
335.8653
335.76971
335.7552
335.65967
335.64733
335.55182
335.54164
335.44612
335.43806
335.34251
335.33652
335.24092
335.23693
335.14127
335.13926
335.04345
337.4928
337.45423
337.47498
337.43457
337.45397
337.40856
337.42098
337.36623
337.36908
337.30426
337.29817
337.22469
337.21156
337.13146
337.11338
337.02853
337.00727
336.91917
336.89614
336.80588
336.78215
336.69049
336.66683
336.57434
336.55132
336.45833
336.43637
336.34311
336.32252
336.22912
336.21013
336.11666
336.09942
336.00591
335.99053
335.89698
335.88353
335.78993
335.77845
335.68478
335.67527
335.58153
335.57397
335.48015
335.47451
335.3806
335.37683
335.28281
335.2809
335.1867
337.50021
337.4626
337.48321
337.44441
337.46449
337.42201
337.43678
337.38653
337.39315
337.3338
337.33219
337.26451
337.25605
337.18165
337.16806
337.08858
337.07148
336.98831
336.96906
336.88326
336.8629
336.77529
336.75462
336.66576
336.64538
336.55568
336.53603
336.44576
336.42718
336.33652
336.31926
336.22831
336.21256
336.12139
336.10728
336.01592
336.00353
335.912
335.90139
335.8097
335.80088
335.70905
335.702
335.61004
335.60476
335.51266
335.50912
335.41686
335.41507
335.3226
337.50597
337.46951
337.49006
337.45277
337.47329
337.43328
337.44984
337.40341
337.41311
337.35856
337.36082
337.29838
337.29408
337.22494
337.21548
337.14106
337.12786
337.04943
337.03376
336.95234
336.93522
336.85161
336.83384
336.74864
336.73083
336.64447
336.6271
336.53989
336.5233
336.43546
336.41994
336.33161
336.31735
336.22863
336.21579
336.12673
336.11541
336.02607
336.01633
335.92675
335.91861
335.82881
335.8223
335.7323
335.7274
335.63722
335.63392
335.54355
335.54188
335.45125
337.51019
337.47508
337.49563
337.45979
337.48058
337.44269
337.46057
337.41739
337.42957
337.3792
337.38475
337.327
337.32636
337.26207
337.25633
337.18666
337.17707
337.10315
337.09086
337.01367
336.99964
336.91996
336.90499
336.82342
336.80811
336.72511
336.70996
336.62586
336.61123
336.52628
336.51247
336.42683
336.41406
336.32787
336.3163
336.22965
336.21939
336.13235
336.12348
336.03611
336.02867
335.94101
335.93502
335.84711
335.84258
335.75443
335.75138
335.66299
335.66145
335.57277
337.51304
337.47941
337.50003
337.46561
337.48657
337.4505
337.46934
337.42891
337.44306
337.3963
337.40459
337.35101
337.35355
337.29367
337.29126
337.22602
337.21971
337.15009
337.14092
337.06781
337.0567
336.98086
336.96854
336.89057
336.87766
336.79801
336.78502
336.70404
336.69133
336.60931
336.59718
336.5143
336.50299
336.41942
336.40909
336.32493
336.31573
336.23107
336.22307
336.13799
336.13125
336.04582
336.04037
335.95462
335.95048
335.86445
335.86166
335.77534
335.77393
335.6873
337.51469
337.48265
337.50338
337.47035
337.49139
337.45694
337.47644
337.43834
337.454
337.41035
337.42089
337.37099
337.37625
337.32036
337.32089
337.25973
337.25639
337.19081
337.18452
337.11531
337.10692
337.03479
337.02499
336.95054
336.93993
336.8636
336.85268
336.77484
336.76397
336.68491
336.67441
336.59434
336.58445
336.50354
336.49445
336.41284
336.40467
336.32247
336.31533
336.23263
336.22658
336.14345
336.13853
336.05503
336.05129
335.96746
335.96492
335.88077
335.87948
335.79499
337.51535
337.48494
337.5058
337.47412
337.49518
337.46219
337.4821
337.44599
337.46276
337.42179
337.43411
337.38745
337.39498
337.34268
337.34576
337.28835
337.28766
337.22585
337.22219
337.15669
337.1508
337.08226
337.07482
337.0038
336.99536
336.9223
336.91335
336.83863
336.82954
336.75343
336.74452
336.66727
336.65877
336.58057
336.57267
336.49366
336.48651
336.40682
336.40052
336.32025
336.31489
336.23413
336.22974
336.14856
336.14521
336.06364
336.06136
335.97944
335.97828
335.89601
337.51523
337.48643
337.5074
337.47703
337.49807
337.46638
337.48651
337.45211
337.46964
337.43095
337.44465
337.40081
337.41021
337.36111
337.36637
337.31239
337.31403
337.25574
337.25443
337.19243
337.18885
337.12374
337.11848
337.05079
337.04439
336.97454
336.96745
336.8958
336.8884
336.81526
336.80785
336.73344
336.72627
336.6508
336.64405
336.56768
336.56152
336.48438
336.47891
336.40113
336.39643
336.31809
336.31423
336.23542
336.23245
336.15321
336.15119
336.07156
336.07053
335.99053
337.51452
337.48726
337.50831
337.47919
337.50014
337.46965
337.48983
337.45688
337.47489
337.43815
337.45285
337.41146
337.42235
337.3761
337.38318
337.33232
337.33597
337.28093
337.28172
337.22302
337.22151
337.15969
337.15643
337.09195
337.08744
337.02072
337.01538
336.94676
336.94096
336.87074
336.86477
336.79319
336.78729
336.71456
336.70893
336.63521
336.63
336.55545
336.55077
336.47551
336.47146
336.39558
336.39224
336.31584
336.31325
336.23639
336.23462
336.15733
336.15643
336.07876
337.51339
337.48755
337.50861
337.4807
337.50151
337.4721
337.49217
337.46047
337.4787
337.4436
337.45899
337.41972
337.43174
337.38802
337.39659
337.34855
337.35392
337.30188
337.30449
337.24889
337.24924
337.19053
337.18909
337.12771
337.12493
337.06125
337.05753
336.99189
336.98758
336.92025
336.91563
336.84687
336.84217
336.77218
336.7676
336.69655
336.69225
336.6203
336.61639
336.54367
336.54025
336.46687
336.46402
336.39006
336.38785
336.31339
336.31187
336.23697
336.23619
336.16089
337.51199
337.48743
337.50842
337.48163
337.50223
337.47381
337.49363
337.463
337.48122
337.44751
337.4633
337.42585
337.43869
337.3972
337.40695
337.36145
337.36825
337.31897
337.32316
337.27045
337.27243
337.21668
337.21687
337.15846
337.15726
337.09652
337.0943
337.03156
337.02863
336.96415
336.96079
336.89481
336.89125
336.82398
336.82041
336.75202
336.74858
336.67923
336.67606
336.60589
336.60308
336.5322
336.52983
336.45835
336.45649
336.38448
336.38319
336.31071
336.31005
336.23716
337.51041
337.48698
337.50781
337.48206
337.50237
337.47483
337.49429
337.46455
337.48256
337.45002
337.46595
337.43006
337.44345
337.40391
337.41456
337.37135
337.37931
337.33257
337.33809
337.28808
337.29149
337.23853
337.24017
337.18458
337.18481
337.12691
337.12606
337.06613
337.06449
337.00279
337.00061
336.93737
336.93487
336.87029
336.86765
336.80191
336.79929
336.73255
336.73007
336.66246
336.66022
336.59186
336.58995
336.52095
336.51943
336.44987
336.44882
336.37878
336.37823
336.30777
337.50871
337.48627
337.50685
337.48206
337.50199
337.47521
337.49417
337.46519
337.48282
337.45125
337.4671
337.43254
337.44622
337.40841
337.41969
337.37853
337.38742
337.34299
337.34963
337.30212
337.30675
337.25642
337.25934
337.20645
337.20795
337.15279
337.15316
337.09597
337.09549
337.03651
337.03541
336.97486
336.97335
336.91142
336.90967
336.84655
336.84469
336.78053
336.77871
336.71365
336.71195
336.64611
336.64463
336.57812
336.57693
336.50984
336.509
336.44141
336.44097
336.37295
337.50693
337.48537
337.50561
337.48167
337.50111
337.47499
337.49332
337.46495
337.48203
337.45127
337.46684
337.43343
337.44718
337.41087
337.42257
337.38326
337.39283
337.35054
337.35807
337.3129
337.31856
337.2707
337.27472
337.2244
337.22702
337.17448
337.17596
337.12141
337.12198
337.06565
337.06554
337.00763
337.00701
336.9477
336.94676
336.88623
336.88508
336.82349
336.82227
336.75975
336.75856
336.69523
336.69416
336.63013
336.62925
336.56462
336.56399
336.49885
336.49852
336.43296
337.50508
337.48431
337.50411
337.48091
337.49975
337.47416
337.49174
337.46385
337.48024
337.45014
337.46526
337.43282
337.44646
337.41148
337.42339
337.38575
337.39581
337.35546
337.36369
337.32069
337.3272
337.28167
337.28663
337.23875
337.24235
337.19232
337.19477
337.14278
337.14429
337.09053
337.09131
337.03597
337.03617
336.97944
336.97923
336.92125
336.92076
336.8617
336.86105
336.80104
336.80032
336.73949
336.7388
336.67724
336.67665
336.61448
336.61405
336.55136
336.55113
336.48801
337.50315
337.48311
337.50239
337.47982
337.49791
337.47271
337.4894
337.46187
337.47744
337.44788
337.46242
337.43081
337.44416
337.41037
337.42231
337.38617
337.39654
337.35798
337.36674
337.32576
337.33295
337.28962
337.29535
337.2498
337.25423
337.20661
337.2099
337.16038
337.16272
337.11146
337.11303
337.0602
337.06114
337.00692
337.00738
336.95192
336.95203
336.89546
336.89533
336.8378
336.83752
336.77915
336.77881
336.71972
336.71939
336.65967
336.65941
336.59917
336.59903
336.53835
337.50116
337.4818
337.50045
337.47837
337.49558
337.47063
337.4863
337.45901
337.47364
337.4445
337.45833
337.42745
337.44039
337.40764
337.41946
337.3847
337.39522
337.35832
337.36744
337.32834
337.33606
337.2948
337.30116
337.25782
337.26295
337.21763
337.22166
337.1745
337.17757
337.12873
337.13099
337.08062
337.08221
337.03045
337.03151
336.97851
336.97915
336.92505
336.92538
336.8703
336.87042
336.8145
336.81448
336.75782
336.75774
336.70045
336.70035
336.64253
336.64247
336.58423
337.49907
337.48037
337.49829
337.47654
337.4927
337.46785
337.48237
337.45521
337.4688
337.44001
337.45303
337.42279
337.43519
337.4034
337.41498
337.38148
337.392
337.35664
337.36598
337.32865
337.33675
337.29745
337.30431
337.26307
337.26877
337.22566
337.2303
337.18543
337.18912
337.14262
337.14549
337.09749
337.09966
337.0503
337.05189
337.0013
337.00242
336.95073
336.95149
336.89883
336.8993
336.84579
336.84606
336.79181
336.79194
336.73706
336.73711
336.6817
336.68172
336.62588
337.49689
337.47882
337.49588
337.4743
337.48923
337.46433
337.47755
337.45044
337.4629
337.43439
337.44652
337.41684
337.42863
337.39772
337.40894
337.37661
337.38703
337.3531
337.36254
337.32687
337.33523
337.29778
337.30503
337.26578
337.27194
337.23095
337.23609
337.19342
337.19764
337.1534
337.15679
337.1111
337.11377
337.06674
337.0688
337.02056
337.02211
336.97278
336.97391
336.92362
336.92441
336.87328
336.87381
336.82193
336.82226
336.76976
336.76995
336.71692
336.717
336.66355
337.4946
337.47713
337.49318
337.47157
337.48508
337.45997
337.47179
337.44463
337.4559
337.42761
337.4388
337.40965
337.42074
337.39065
337.40144
337.37021
337.38042
337.34784
337.35728
337.32318
337.33169
337.296
337.30351
337.26617
337.27269
337.23372
337.23926
337.19872
337.20336
337.16131
337.16514
337.12169
337.12478
337.08003
337.08249
337.03655
337.03846
336.99146
336.99291
336.94495
336.94602
336.89722
336.89798
336.84844
336.84895
336.79879
336.7991
336.74842
336.74857
336.69748
337.49217
337.47527
337.49013
337.46826
337.48014
337.45468
337.46498
337.43773
337.44774
337.41965
337.42985
337.4012
337.41157
337.38226
337.39255
337.36236
337.3723
337.341
337.35033
337.31774
337.3263
337.29228
337.29996
337.26445
337.27121
337.2342
337.24005
337.20155
337.20653
337.1666
337.17078
337.1295
337.13295
337.09041
337.09321
337.04952
337.05174
337.007
337.00873
336.96306
336.96437
336.91786
336.91882
336.87159
336.87225
336.8244
336.82481
336.77646
336.77665
336.72789
337.48959
337.47321
337.48662
337.46426
337.47431
337.44836
337.45706
337.42965
337.43837
337.41049
337.41968
337.39153
337.40113
337.37259
337.38233
337.35316
337.36274
337.33268
337.34184
337.31068
337.3192
337.28679
337.29455
337.26079
337.26772
337.23258
337.23866
337.20213
337.20737
337.16949
337.17395
337.13478
337.13851
337.09813
337.1012
337.0597
337.06218
337.01966
337.02162
336.97818
336.9797
336.93544
336.93657
336.89161
336.89239
336.84683
336.84732
336.80126
336.80149
336.75503
337.48684
337.47087
337.48256
337.45944
337.46746
337.44089
337.44791
337.42034
337.42777
337.40009
337.40828
337.38064
337.38946
337.36168
337.37085
337.34267
337.35186
337.32299
337.33191
337.30213
337.31055
337.27969
337.28745
337.25538
337.26239
337.22905
337.23528
337.20065
337.20608
337.17018
337.17485
337.13773
337.14167
337.10339
337.10668
337.06731
337.07
337.02965
337.0318
336.99056
336.99223
336.9502
336.95146
336.90872
336.90962
336.86629
336.86686
336.82305
336.82332
336.77912
337.48389
337.46817
337.4778
337.45362
337.45943
337.43216
337.43747
337.40974
337.41588
337.38845
337.39564
337.36854
337.37659
337.34958
337.35817
337.33096
337.33972
337.31203
337.32065
337.29222
337.30047
337.2711
337.2788
337.24836
337.25539
337.22379
337.23009
337.1973
337.20285
337.16888
337.17369
337.13855
337.14266
337.10642
337.10986
337.07259
337.07543
337.0372
337.0395
337.0004
337.00221
336.96234
336.96371