/*--------------------------------*- C++ -*----------------------------------*\
| =========                 |                                                 |
| \\      /  F ield         | OpenFOAM: The Open Source CFD Toolbox           |
|  \\    /   O peration     | Version:  2312                                  |
|   \\  /    A nd           | Website:  www.openfoam.com                      |
|    \\/     M anipulation  |                                                 |
\*---------------------------------------------------------------------------*/
FoamFile
{
    version     2.0;
    format      ascii;
    arch        "LSB;label=32;scalar=64";
    class       volVectorField;
    location    "7";
    object      U_0;
}
// * * * * * * * * * * * * * * * * * * * * * * * * * * * * * * * * * * * * * //

dimensions      [0 1 -1 0 0 0 0];

internalField   nonuniform List<vector> 
4000
(
(0.0013497401 0.00023021309 0)
(0.0014476468 -1.2374341e-06 0)
(0.0013498515 -1.5170644e-07 0)
(0.0013956149 1.4810117e-07 0)
(0.0013600221 -1.3728056e-07 0)
(0.0013934342 1.3032824e-07 0)
(0.0013630185 -1.2099371e-07 0)
(0.0013916169 1.1371306e-07 0)
(0.0013649318 -1.0648798e-07 0)
(0.0013899547 9.9907059e-08 0)
(0.0013665335 -9.367657e-08 0)
(0.0013884721 8.7869256e-08 0)
(0.0013679319 -8.2420794e-08 0)
(0.0013871638 7.7324401e-08 0)
(0.0013691607 -7.2551452e-08 0)
(0.0013860116 6.8085793e-08 0)
(0.0013702422 -6.3905592e-08 0)
(0.0013849966 5.9996163e-08 0)
(0.0013711951 -5.6337916e-08 0)
(0.0013841019 5.2918797e-08 0)
(0.0013720353 -4.9720815e-08 0)
(0.0013833124 4.6734243e-08 0)
(0.0013727771 -4.3942633e-08 0)
(0.0013826148 4.1338138e-08 0)
(0.0013734331 -3.8905851e-08 0)
(0.0013819974 3.6639424e-08 0)
(0.0013740142 -3.452546e-08 0)
(0.0013814497 3.2558809e-08 0)
(0.0013745304 -3.0727529e-08 0)
(0.0013809625 2.902743e-08 0)
(0.0013749903 -2.7447958e-08 0)
(0.0013805276 2.5985694e-08 0)
(0.0013754016 -2.4631399e-08 0)
(0.0013801377 2.3382277e-08 0)
(0.0013757714 -2.2230325e-08 0)
(0.0013797862 2.1173259e-08 0)
(0.0013761058 -2.0204242e-08 0)
(0.0013794672 1.9321404e-08 0)
(0.0013764106 -1.8519013e-08 0)
(0.0013791752 1.7795551e-08 0)
(0.0013766908 -1.7146337e-08 0)
(0.0013789054 1.6570158e-08 0)
(0.0013769512 -1.6063361e-08 0)
(0.0013786532 1.5625043e-08 0)
(0.0013771961 -1.5252638e-08 0)
(0.0013784143 1.4945472e-08 0)
(0.0013774298 -1.470361e-08 0)
(0.001378185 1.45247e-08 0)
(0.0013776626 -1.4383906e-08 0)
(0.0013780089 1.487761e-08 0)
(0.0037657949 0.00063524618 0)
(0.0041624849 4.3623076e-07 0)
(0.0039241957 4.5377829e-08 0)
(0.0040511217 4.1086728e-07 0)
(0.0039478313 -4.7783941e-07 0)
(0.0040452063 4.3481317e-07 0)
(0.0039564756 -4.2088938e-07 0)
(0.0040399355 3.9180324e-07 0)
(0.0039620414 -3.6912143e-07 0)
(0.0040350833 3.4556906e-07 0)
(0.0039667168 -3.2434524e-07 0)
(0.004030755 3.0410529e-07 0)
(0.0039708007 -2.8530831e-07 0)
(0.0040269359 2.6764069e-07 0)
(0.0039743897 -2.5113602e-07 0)
(0.0040235721 2.3567108e-07 0)
(0.0039775489 -2.212099e-07 0)
(0.0040206088 2.0767419e-07 0)
(0.0039803323 -1.9501785e-07 0)
(0.0040179965 1.8318053e-07 0)
(0.003982787 -1.7211665e-07 0)
(0.0040156911 1.6177729e-07 0)
(0.0039849545 -1.5211958e-07 0)
(0.0040136538 1.4310335e-07 0)
(0.0039868714 -1.3468908e-07 0)
(0.0040118502 1.268436e-07 0)
(0.00398857 -1.1953094e-07 0)
(0.00401025 1.1272364e-07 0)
(0.003990079 -1.0638929e-07 0)
(0.0040088262 1.0050515e-07 0)
(0.003991424 -9.5042311e-08 0)
(0.0040075547 8.9981922e-08 0)
(0.0039926276 -8.5298453e-08 0)
(0.0040064142 8.0976316e-08 0)
(0.00399371 -7.6993224e-08 0)
(0.0040053853 7.333632e-08 0)
(0.0039946897 -6.9986418e-08 0)
(0.0040044508 6.6932973e-08 0)
(0.003995583 -6.4159763e-08 0)
(0.0040035949 6.1658221e-08 0)
(0.0039964052 -5.9414964e-08 0)
(0.0040028031 5.7423144e-08 0)
(0.00399717 -5.5672136e-08 0)
(0.004002062 5.4156667e-08 0)
(0.0039978904 -5.2868447e-08 0)
(0.004001359 5.1805737e-08 0)
(0.0039985787 -5.096304e-08 0)
(0.0040006822 5.0260281e-08 0)
(0.0039992586 -5.0549553e-08 0)
(0.004000135 4.8406447e-08 0)
(0.0061136669 0.0010194731 0)
(0.0067965445 -4.7374134e-07 0)
(0.0064332156 3.7854288e-07 0)
(0.0066395245 6.9471931e-07 0)
(0.0064684517 -8.6623288e-07 0)
(0.0066298465 7.7419785e-07 0)
(0.0064826589 -7.6164166e-07 0)
(0.0066210932 7.0635784e-07 0)
(0.0064918639 -6.6694521e-07 0)
(0.0066130376 6.2386542e-07 0)
(0.0064996179 -5.8578345e-07 0)
(0.0066058555 5.4912214e-07 0)
(0.006506394 -5.1523428e-07 0)
(0.0065995189 4.8329674e-07 0)
(0.0065123496 -4.5351407e-07 0)
(0.0065939379 4.255705e-07 0)
(0.0065175921 -3.994695e-07 0)
(0.0065890213 3.7501499e-07 0)
(0.0065222111 -3.5216962e-07 0)
(0.0065846868 3.3078486e-07 0)
(0.0065262849 -3.1081292e-07 0)
(0.0065808613 2.921351e-07 0)
(0.0065298822 -2.7470076e-07 0)
(0.0065774805 2.5841372e-07 0)
(0.0065330639 -2.4322349e-07 0)
(0.0065744874 2.2905171e-07 0)
(0.0065358835 -2.1584974e-07 0)
(0.0065718314 2.0355356e-07 0)
(0.0065383888 -1.9211743e-07 0)
(0.0065694678 1.8148894e-07 0)
(0.006540622 -1.7162592e-07 0)
(0.0065673568 1.6248542e-07 0)
(0.0065426208 -1.5402924e-07 0)
(0.0065654627 1.462222e-07 0)
(0.006544419 -1.3903027e-07 0)
(0.0065637536 1.3242468e-07 0)
(0.0065460468 -1.2637568e-07 0)
(0.0065622007 1.2085982e-07 0)
(0.0065475318 -1.1585168e-07 0)
(0.0065607777 1.1133223e-07 0)
(0.006548899 -1.0728036e-07 0)
(0.0065594608 1.0368077e-07 0)
(0.0065501716 -1.0051663e-07 0)
(0.0065582274 9.7775862e-08 0)
(0.0065513712 -9.5444845e-08 0)
(0.0065570566 9.3519564e-08 0)
(0.006552518 -9.1983081e-08 0)
(0.0065559278 9.0677592e-08 0)
(0.0065536479 -9.1583639e-08 0)
(0.0065549927 8.6920752e-08 0)
(0.0084138995 0.0013735055 0)
(0.0093562344 -2.348956e-06 0)
(0.0088766363 9.7706404e-07 0)
(0.0091610257 9.1891819e-07 0)
(0.0089217973 -1.2407925e-06 0)
(0.0091474444 1.0878458e-06 0)
(0.0089414944 -1.0892894e-06 0)
(0.0091351714 1.0062798e-06 0)
(0.0089543339 -9.5235375e-07 0)
(0.0091238897 8.9004438e-07 0)
(0.0089651792 -8.3607261e-07 0)
(0.009113837 7.8357802e-07 0)
(0.0089746609 -7.3531013e-07 0)
(0.009104969 6.8967582e-07 0)
(0.0089829952 -6.4721367e-07 0)
(0.0090971587 6.0730488e-07 0)
(0.0089903316 -5.7008268e-07 0)
(0.0090902782 5.3516199e-07 0)
(0.0089967958 -5.025794e-07 0)
(0.0090842121 4.7204453e-07 0)
(0.009002497 -4.4355827e-07 0)
(0.0090788583 4.1689003e-07 0)
(0.0090075316 -3.920219e-07 0)
(0.0090741267 3.6876826e-07 0)
(0.0090119845 -3.4710013e-07 0)
(0.0090699374 3.2686729e-07 0)
(0.0090159311 -3.0803458e-07 0)
(0.0090662199 2.9048005e-07 0)
(0.0090194379 -2.7416575e-07 0)
(0.0090629113 2.5899246e-07 0)
(0.009022564 -2.4492184e-07 0)
(0.0090599561 2.3187306e-07 0)
(0.0090253624 -2.1980907e-07 0)
(0.0090573042 2.0866401e-07 0)
(0.0090278801 -1.9840335e-07 0)
(0.009054911 1.8897342e-07 0)
(0.0090301597 -1.8034308e-07 0)
(0.0090527361 1.7246866e-07 0)
(0.0090322396 -1.6532299e-07 0)
(0.0090507429 1.5887068e-07 0)
(0.0090341551 -1.5308892e-07 0)
(0.0090488976 1.4794916e-07 0)
(0.0090359384 -1.4343323e-07 0)
(0.009047169 1.3951828e-07 0)
(0.00903762 -1.3618902e-07 0)
(0.0090455273 1.3343736e-07 0)
(0.0090392284 -1.3123142e-07 0)
(0.0090439432 1.293262e-07 0)
(0.0090408101 -1.3121282e-07 0)
(0.0090426036 1.2361063e-07 0)
(0.010659099 0.0016964342 0)
(0.011839311 -5.1267364e-06 0)
(0.011254063 1.7900867e-06 0)
(0.01161577 1.0793876e-06 0)
(0.011307876 -1.5855196e-06 0)
(0.011597984 1.3629805e-06 0)
(0.011332996 -1.3907847e-06 0)
(0.011582152 1.2797076e-06 0)
(0.011349463 -1.2139829e-06 0)
(0.011567623 1.1335389e-06 0)
(0.011363411 -1.0652492e-06 0)
(0.011554685 9.9815951e-07 0)
(0.01137561 -9.3677697e-07 0)
(0.011543274 8.7857864e-07 0)
(0.011386334 -8.2452647e-07 0)
(0.011533224 7.7365355e-07 0)
(0.011395774 -7.2626038e-07 0)
(0.01152437 6.817519e-07 0)
(0.011404091 -6.4026244e-07 0)
(0.011516565 6.0134649e-07 0)
(0.011411427 -5.6507113e-07 0)
(0.011509676 5.310847e-07 0)
(0.011417905 -4.994154e-07 0)
(0.011503587 4.6978172e-07 0)
(0.011423635 -4.4218654e-07 0)
(0.011498196 4.1640332e-07 0)
(0.011428714 -3.9241837e-07 0)
(0.011493413 3.7004881e-07 0)
(0.011433227 -3.4927064e-07 0)
(0.011489155 3.2993592e-07 0)
(0.01143725 -3.1201487e-07 0)
(0.011485352 2.9538762e-07 0)
(0.011440851 -2.8002197e-07 0)
(0.011481939 2.6582068e-07 0)
(0.011444091 -2.5275159e-07 0)
(0.011478859 2.4073581e-07 0)
(0.011447025 -2.29743e-07 0)
(0.011476059 2.1970921e-07 0)
(0.011449703 -2.106072e-07 0)
(0.011473494 2.0238525e-07 0)
(0.011452168 -1.9502016e-07 0)
(0.011471118 1.8847021e-07 0)
(0.011454464 -1.8271685e-07 0)
(0.011468892 1.7772654e-07 0)
(0.01145663 -1.7348284e-07 0)
(0.011466778 1.6997476e-07 0)
(0.011458701 -1.6714929e-07 0)
(0.011464737 1.6468084e-07 0)
(0.011460735 -1.6781963e-07 0)
(0.01146298 1.5707477e-07 0)
(0.012848103 0.0019895866 0)
(0.014246023 -8.6833041e-06 0)
(0.013565415 2.7568223e-06 0)
(0.01400378 1.1854222e-06 0)
(0.013626797 -1.8996196e-06 0)
(0.013981358 1.6014831e-06 0)
(0.013657268 -1.6672084e-06 0)
(0.013961939 1.5279449e-06 0)
(0.013677342 -1.4528777e-06 0)
(0.013944154 1.3553802e-06 0)
(0.013694392 -1.2742574e-06 0)
(0.013928327 1.19376e-06 0)
(0.013709311 -1.1204706e-06 0)
(0.013914369 1.0507896e-06 0)
(0.013722426 -9.8618917e-07 0)
(0.013902077 9.2530692e-07 0)
(0.013733971 -8.6865168e-07 0)
(0.013891249 8.1539315e-07 0)
(0.013744144 -7.6579104e-07 0)
(0.013881702 7.1922746e-07 0)
(0.013753116 -6.7585666e-07 0)
(0.013873276 6.3519318e-07 0)
(0.013761039 -5.9732778e-07 0)
(0.013865829 5.6187354e-07 0)
(0.013768047 -5.2887816e-07 0)
(0.013859236 4.9803167e-07 0)
(0.013774259 -4.6935211e-07 0)
(0.013853385 4.4259039e-07 0)
(0.013779778 -4.177446e-07 0)
(0.013848177 3.9461412e-07 0)
(0.013784699 -3.7318425e-07 0)
(0.013843525 3.5329312e-07 0)
(0.013789104 -3.3491858e-07 0)
(0.013839351 3.1792984e-07 0)
(0.013793067 -3.0230124e-07 0)
(0.013835583 2.8792708e-07 0)
(0.013796656 -2.7478109e-07 0)
(0.013832159 2.6277786e-07 0)
(0.013799931 -2.5189269e-07 0)
(0.013829021 2.4205667e-07 0)
(0.013802947 -2.3324822e-07 0)
(0.013826115 2.2541177e-07 0)
(0.013805756 -2.1853001e-07 0)
(0.013823392 2.12558e-07 0)
(0.013808405 -2.0747923e-07 0)
(0.013820805 2.0328008e-07 0)
(0.01381094 -1.998807e-07 0)
(0.013818308 1.9688562e-07 0)
(0.013813425 -2.014711e-07 0)
(0.013816124 1.8739401e-07 0)
(0.014983434 0.0022544521 0)
(0.016576968 -1.2961522e-05 0)
(0.015810671 3.8138771e-06 0)
(0.01632495 1.2461414e-06 0)
(0.015878684 -2.1828153e-06 0)
(0.016297446 1.8063263e-06 0)
(0.015914422 -1.9207176e-06 0)
(0.016274427 1.7533218e-06 0)
(0.01593807 -1.6710385e-06 0)
(0.01625339 1.5575001e-06 0)
(0.01595821 -1.4648832e-06 0)
(0.01623468 1.3720652e-06 0)
(0.015975839 -1.2879677e-06 0)
(0.016218184 1.20779e-06 0)
(0.015991338 -1.1335906e-06 0)
(0.016203656 1.0635691e-06 0)
(0.016004983 -9.9848009e-07 0)
(0.016190858 9.3723483e-07 0)
(0.016017005 -8.8024394e-07 0)
(0.016179575 8.2670103e-07 0)
(0.016027609 -7.7686701e-07 0)
(0.016169617 7.3011069e-07 0)
(0.016036973 -6.8660066e-07 0)
(0.016160816 6.4583566e-07 0)
(0.016045255 -6.0792027e-07 0)
(0.016153024 5.7245439e-07 0)
(0.016052596 -5.3949733e-07 0)
(0.016146109 5.0872878e-07 0)
(0.016059119 -4.8017653e-07 0)
(0.016139954 4.5358352e-07 0)
(0.016064934 -4.2895619e-07 0)
(0.016134456 4.0608788e-07 0)
(0.01607014 -3.8497129e-07 0)
(0.016129522 3.6544005e-07 0)
(0.016074824 -3.4747883e-07 0)
(0.01612507 3.3095356e-07 0)
(0.016079066 -3.1584515e-07 0)
(0.016121023 3.0204556e-07 0)
(0.016082936 -2.8953508e-07 0)
(0.016117313 2.782267e-07 0)
(0.016086501 -2.6810244e-07 0)
(0.016113879 2.5909213e-07 0)
(0.016089821 -2.5118119e-07 0)
(0.01611066 2.4431263e-07 0)
(0.016092952 -2.3847084e-07 0)
(0.016107603 2.3363946e-07 0)
(0.016095948 -2.2970665e-07 0)
(0.016104651 2.2622103e-07 0)
(0.016098882 -2.3237736e-07 0)
(0.016102035 2.1482074e-07 0)
(0.017067302 0.0024918803 0)
(0.018832875 -1.7884235e-05 0)
(0.01798995 4.9070527e-06 0)
(0.018578973 1.2683194e-06 0)
(0.018063666 -2.4334848e-06 0)
(0.018546136 1.9787329e-06 0)
(0.018104559 -2.1519126e-06 0)
(0.018519522 1.9566735e-06 0)
(0.018131734 -1.8690715e-06 0)
(0.018495247 1.7405216e-06 0)
(0.018154941 -1.6376857e-06 0)
(0.018473673 1.5336105e-06 0)
(0.018175264 -1.4397651e-06 0)
(0.018454654 1.3500492e-06 0)
(0.018193131 -1.2671689e-06 0)
(0.018437905 1.1888529e-06 0)
(0.018208861 -1.1161319e-06 0)
(0.01842315 1.0476407e-06 0)
(0.018222721 -9.8396181e-07 0)
(0.018410142 9.2408808e-07 0)
(0.018234945 -8.6840298e-07 0)
(0.018398662 8.1612066e-07 0)
(0.01824574 -7.6750003e-07 0)
(0.018388515 7.2191888e-07 0)
(0.018255289 -6.7954854e-07 0)
(0.018379531 6.3989386e-07 0)
(0.018263752 -6.0306333e-07 0)
(0.018371559 5.6866174e-07 0)
(0.018271272 -5.3675289e-07 0)
(0.018364463 5.0702058e-07 0)
(0.018277976 -4.7949745e-07 0)
(0.018358125 4.5393003e-07 0)
(0.018283977 -4.3032999e-07 0)
(0.018352437 4.0849383e-07 0)
(0.018289378 -3.8841987e-07 0)
(0.018347304 3.6994456e-07 0)
(0.018294268 -3.5305864e-07 0)
(0.018342638 3.376306e-07 0)
(0.01829873 -3.2364786e-07 0)
(0.018338362 3.1100464e-07 0)
(0.01830284 -2.9968827e-07 0)
(0.018334402 2.8961346e-07 0)
(0.018306667 -2.8076967e-07 0)
(0.018330692 2.730873e-07 0)
(0.018310277 -2.6655259e-07 0)
(0.018327167 2.6114625e-07 0)
(0.018313731 -2.5671997e-07 0)
(0.018323763 2.5278243e-07 0)
(0.01831711 -2.6058074e-07 0)
(0.01832071 2.3944797e-07 0)
(0.019100968 0.0027025861 0)
(0.021014493 -2.335883e-05 0)
(0.020103498 5.9895393e-06 0)
(0.020765353 1.2587288e-06 0)
(0.020181882 -2.6510162e-06 0)
(0.020727325 2.1194343e-06 0)
(0.020227767 -2.3608194e-06 0)
(0.02069714 2.1382559e-06 0)
(0.020258413 -2.0470427e-06 0)
(0.020669653 1.9045612e-06 0)
(0.020284656 -1.792749e-06 0)
(0.020645241 1.6784863e-06 0)
(0.020307644 -1.5759415e-06 0)
(0.020623723 1.4776448e-06 0)
(0.020327857 -1.3869942e-06 0)
(0.020604774 1.3012264e-06 0)
(0.020345652 -1.2216691e-06 0)
(0.020588081 1.1466706e-06 0)
(0.020361331 -1.0769995e-06 0)
(0.020573365 1.0114412e-06 0)
(0.020375161 -9.505131e-07 0)
(0.020560376 8.9326957e-07 0)
(0.020387373 -8.4006892e-07 0)
(0.020548897 7.9016432e-07 0)
(0.020398175 -7.4380116e-07 0)
(0.020538734 7.0038657e-07 0)
(0.020407749 -6.6008411e-07 0)
(0.020529714 6.2242176e-07 0)
(0.020416257 -5.8750406e-07 0)
(0.020521687 5.5495435e-07 0)
(0.020423842 -5.2483529e-07 0)
(0.020514516 4.9684569e-07 0)
(0.020430631 -4.7101927e-07 0)
(0.020508081 4.4711478e-07 0)
(0.02043674 -4.2514672e-07 0)
(0.020502274 4.0492162e-07 0)
(0.020442272 -3.8644208e-07 0)
(0.020496996 3.695528e-07 0)
(0.020447321 -3.5425004e-07 0)
(0.020492157 3.40409e-07 0)
(0.02045197 -3.2802363e-07 0)
(0.020487678 3.1699332e-07 0)
(0.0204563 -3.0731263e-07 0)
(0.02048348 2.9889908e-07 0)
(0.020460383 -2.9174148e-07 0)
(0.020479493 2.8581754e-07 0)
(0.020464291 -2.8093881e-07 0)
(0.020475642 2.7659081e-07 0)
(0.02046811 -2.8605827e-07 0)
(0.02047215 2.6131049e-07 0)
(0.021085209 0.0028873307 0)
(0.023122642 -2.9285358e-05 0)
(0.022151529 7.0228982e-06 0)
(0.022883583 1.2242652e-06 0)
(0.022233475 -2.8373672e-06 0)
(0.022840921 2.229537e-06 0)
(0.022284127 -2.5475427e-06 0)
(0.022807205 2.2983573e-06 0)
(0.022318179 -2.2050528e-06 0)
(0.02277654 2.0497668e-06 0)
(0.022347415 -1.9301878e-06 0)
(0.022749325 1.806811e-06 0)
(0.022373035 -1.6966025e-06 0)
(0.022725339 1.5906792e-06 0)
(0.022395564 -1.4931605e-06 0)
(0.022704218 1.4007792e-06 0)
(0.022415398 -1.3151746e-06 0)
(0.022685612 1.2344033e-06 0)
(0.022432874 -1.1594302e-06 0)
(0.022669208 1.0888301e-06 0)
(0.022448288 -1.023262e-06 0)
(0.022654731 9.6161887e-07 0)
(0.0224619 -9.0436449e-07 0)
(0.022641936 8.5062632e-07 0)
(0.02247394 -8.007288e-07 0)
(0.022630607 7.5398069e-07 0)
(0.022484611 -7.1060468e-07 0)
(0.022620554 6.7005162e-07 0)
(0.022494093 -6.3247015e-07 0)
(0.022611607 5.9742297e-07 0)
(0.022502547 -5.6500557e-07 0)
(0.022603614 5.3486902e-07 0)
(0.022510115 -5.0707136e-07 0)
(0.022596442 4.8133368e-07 0)
(0.022516924 -4.5768853e-07 0)
(0.022589969 4.3591263e-07 0)
(0.02252309 -4.1602201e-07 0)
(0.022584086 3.9783771e-07 0)
(0.022528717 -3.8136605e-07 0)
(0.022578693 3.6646337e-07 0)
(0.022533899 -3.5313125e-07 0)
(0.0225737 3.4125386e-07 0)
(0.022538725 -3.3083159e-07 0)
(0.022569022 3.2176912e-07 0)
(0.022543276 -3.140584e-07 0)
(0.022564578 3.0767407e-07 0)
(0.022547632 -3.0238477e-07 0)
(0.022560286 2.9766951e-07 0)
(0.022551885 -3.0879512e-07 0)
(0.022556356 2.8045029e-07 0)
(0.023020712 0.0030468796 0)
(0.025158241 -3.5560645e-05 0)
(0.024134068 7.9771156e-06 0)
(0.024933329 1.1711952e-06 0)
(0.024218587 -2.9968785e-06 0)
(0.024886843 2.3106986e-06 0)
(0.02427371 -2.7123421e-06 0)
(0.024849648 2.437391e-06 0)
(0.024311094 -2.3433244e-06 0)
(0.024815849 2.1764001e-06 0)
(0.024343276 -2.0502244e-06 0)
(0.024785872 1.9188035e-06 0)
(0.024371487 -1.8019485e-06 0)
(0.024759456 1.6893432e-06 0)
(0.024396296 -1.5858448e-06 0)
(0.024736196 1.4876791e-06 0)
(0.024418137 -1.3968045e-06 0)
(0.024715706 1.3109867e-06 0)
(0.024437381 -1.2313916e-06 0)
(0.024697641 1.156385e-06 0)
(0.024454356 -1.0867713e-06 0)
(0.024681698 1.0212835e-06 0)
(0.024469345 -9.6049424e-07 0)
(0.024667608 9.0340649e-07 0)
(0.024482604 -8.5042666e-07 0)
(0.024655132 8.0076623e-07 0)
(0.024494355 -7.5470954e-07 0)
(0.024644061 7.1163127e-07 0)
(0.024504798 -6.7172635e-07 0)
(0.024634208 6.3449771e-07 0)
(0.024514107 -6.0007549e-07 0)
(0.024625406 5.6806378e-07 0)
(0.024522441 -5.3854656e-07 0)
(0.024617508 5.1120789e-07 0)
(0.024529939 -4.8609972e-07 0)
(0.024610379 4.6296953e-07 0)
(0.02453673 -4.418479e-07 0)
(0.0246039 4.2253272e-07 0)
(0.024542926 -4.0504126e-07 0)
(0.024597962 3.8921144e-07 0)
(0.024548633 -3.750532e-07 0)
(0.024592463 3.624358e-07 0)
(0.024553947 -3.5136607e-07 0)
(0.024587312 3.4173604e-07 0)
(0.024558959 -3.3354121e-07 0)
(0.024582418 3.2675312e-07 0)
(0.024563755 -3.2109572e-07 0)
(0.024577692 3.1605718e-07 0)
(0.024568435 -3.2879688e-07 0)
(0.024573326 2.9692642e-07 0)
(0.024908135 0.0031819862 0)
(0.02712231 -4.2079853e-05 0)
(0.026050935 8.8311079e-06 0)
(0.026914463 1.1052783e-06 0)
(0.026137335 -3.1348922e-06 0)
(0.026865024 2.3650114e-06 0)
(0.026196583 -2.8555469e-06 0)
(0.026824405 2.5558432e-06 0)
(0.02623722 -2.4621538e-06 0)
(0.026787522 2.2847929e-06 0)
(0.026272291 -2.1531476e-06 0)
(0.026754833 2.0147449e-06 0)
(0.026303045 -1.8922382e-06 0)
(0.026726031 1.7738824e-06 0)
(0.026330092 -1.6652756e-06 0)
(0.02670067 1.5621418e-06 0)
(0.026353904 -1.4667602e-06 0)
(0.02667833 1.3766107e-06 0)
(0.026374885 -1.2930613e-06 0)
(0.026658635 1.2142733e-06 0)
(0.026393391 -1.1411978e-06 0)
(0.026641253 1.0724113e-06 0)
(0.026409734 -1.0085968e-06 0)
(0.02662589 9.486356e-07 0)
(0.026424189 -8.9301744e-07 0)
(0.026612288 8.4085904e-07 0)
(0.026437001 -7.9250755e-07 0)
(0.026600218 7.4726364e-07 0)
(0.026448385 -7.0536955e-07 0)
(0.026589475 6.6627026e-07 0)
(0.026458535 -6.3013156e-07 0)
(0.026579879 5.9651203e-07 0)
(0.026467621 -5.6552249e-07 0)
(0.026571268 5.368112e-07 0)
(0.026475796 -5.1045031e-07 0)
(0.026563496 4.8615909e-07 0)
(0.026483199 -4.6398337e-07 0)
(0.026556432 4.4369872e-07 0)
(0.026489954 -4.2533398e-07 0)
(0.026549958 4.087093e-07 0)
(0.026496176 -3.9384348e-07 0)
(0.026543963 3.8059143e-07 0)
(0.02650197 -3.6896677e-07 0)
(0.026538346 3.5884928e-07 0)
(0.026507434 -3.5023833e-07 0)
(0.026533011 3.4310236e-07 0)
(0.026512663 -3.3711979e-07 0)
(0.02652786 3.3180214e-07 0)
(0.026517761 -3.4608377e-07 0)
(0.026523062 3.1080907e-07 0)
(0.026748005 0.0032933949 0)
(0.029015937 -4.8741495e-05 0)
(0.02790182 9.5790483e-06 0)
(0.028826991 1.0312966e-06 0)
(0.027989813 -3.2565259e-06 0)
(0.028775408 2.3948318e-06 0)
(0.028052806 -2.9774971e-06 0)
(0.028731418 2.6542371e-06 0)
(0.02809661 -2.5618832e-06 0)
(0.028691509 2.3753195e-06 0)
(0.028134507 -2.239287e-06 0)
(0.028656163 2.0949542e-06 0)
(0.028167751 -1.967766e-06 0)
(0.028625025 1.8445756e-06 0)
(0.02819699 -1.7317127e-06 0)
(0.028597608 1.6244127e-06 0)
(0.028222731 -1.525271e-06 0)
(0.028573456 1.4314913e-06 0)
(0.028245413 -1.3446414e-06 0)
(0.028552164 1.2626855e-06 0)
(0.028265418 -1.1867197e-06 0)
(0.028533372 1.1151705e-06 0)
(0.028283086 -1.0488297e-06 0)
(0.028516764 9.864623e-07 0)
(0.028298712 -9.2864066e-07 0)
(0.028502059 8.7439081e-07 0)
(0.028312563 -8.2412253e-07 0)
(0.02848901 7.7706566e-07 0)
(0.02832487 -7.335099e-07 0)
(0.028477396 6.9284484e-07 0)
(0.028335843 -6.5527214e-07 0)
(0.028467022 6.20307e-07 0)
(0.028345665 -5.8808736e-07 0)
(0.028457713 5.5822743e-07 0)
(0.028354503 -5.3081988e-07 0)
(0.028449311 5.0555717e-07 0)
(0.028362506 -4.8250072e-07 0)
(0.028441674 4.6140489e-07 0)
(0.028369809 -4.4231043e-07 0)
(0.028434675 4.2502063e-07 0)
(0.028376535 -4.0956341e-07 0)
(0.028428194 3.9578008e-07 0)
(0.028382799 -3.8369121e-07 0)
(0.028422122 3.7316493e-07 0)
(0.028388706 -3.6420468e-07 0)
(0.028416355 3.5677582e-07 0)
(0.028394358 -3.5051134e-07 0)
(0.028410787 3.4495861e-07 0)
(0.028399866 -3.6068649e-07 0)
(0.028405563 3.2217535e-07 0)
(0.028540555 0.0033818416 0)
(0.030840164 -5.5445384e-05 0)
(0.029686407 1.0235566e-05 0)
(0.03067097 9.4976959e-07 0)
(0.029776088 -3.3669827e-06 0)
(0.030617945 2.4024457e-06 0)
(0.029842434 -3.0785505e-06 0)
(0.030570636 2.7331235e-06 0)
(0.029889313 -2.6428922e-06 0)
(0.030527765 2.4483909e-06 0)
(0.029929968 -2.3090067e-06 0)
(0.030489822 2.1597827e-06 0)
(0.029965643 -2.0288569e-06 0)
(0.030456402 1.9017303e-06 0)
(0.029997022 -1.7854432e-06 0)
(0.030426976 1.6747621e-06 0)
(0.030024647 -1.5725896e-06 0)
(0.030401055 1.4758668e-06 0)
(0.03004899 -1.3863548e-06 0)
(0.030378203 1.3018316e-06 0)
(0.03007046 -1.223534e-06 0)
(0.030358035 1.1497464e-06 0)
(0.030089421 -1.0813668e-06 0)
(0.03034021 1.0170505e-06 0)
(0.030106192 -9.5745023e-07 0)
(0.030324429 9.0150672e-07 0)
(0.030121056 -8.49691e-07 0)
(0.030310424 8.011663e-07 0)
(0.030134265 -7.5626888e-07 0)
(0.030297959 7.1433633e-07 0)
(0.030146041 -6.7560568e-07 0)
(0.030286825 6.3955146e-07 0)
(0.030156583 -6.0633845e-07 0)
(0.030276834 5.7554898e-07 0)
(0.030166068 -5.4729616e-07 0)
(0.030267816 5.2124738e-07 0)
(0.030174657 -4.9747961e-07 0)
(0.030259621 4.7572746e-07 0)
(0.030182495 -4.5604359e-07 0)
(0.030252108 4.3821559e-07 0)
(0.030189714 -4.2228054e-07 0)
(0.030245153 4.0806705e-07 0)
(0.030196436 -3.9560272e-07 0)
(0.030238636 3.847447e-07 0)
(0.030202776 -3.7550065e-07 0)
(0.030232447 3.6783287e-07 0)
(0.030208842 -3.6132996e-07 0)
(0.030226472 3.5558571e-07 0)
(0.030214749 -3.7264467e-07 0)
(0.030220829 3.3110762e-07 0)
(0.030285691 0.0034480504 0)
(0.032595679 -6.2045694e-05 0)
(0.031404689 1.0792217e-05 0)
(0.032446446 8.5631062e-07 0)
(0.031496212 -3.4715124e-06 0)
(0.03239259 2.3899796e-06 0)
(0.031565515 -3.1591318e-06 0)
(0.032342011 2.7930571e-06 0)
(0.031615374 -2.7056049e-06 0)
(0.032296246 2.504451e-06 0)
(0.031658713 -2.3627047e-06 0)
(0.032255774 2.2096128e-06 0)
(0.031696756 -2.0758653e-06 0)
(0.03222013 1.9456813e-06 0)
(0.031730218 -1.8267794e-06 0)
(0.032188748 1.7134844e-06 0)
(0.03175968 -1.6089913e-06 0)
(0.032161103 1.5099963e-06 0)
(0.031785639 -1.4184442e-06 0)
(0.032136732 1.3319402e-06 0)
(0.031808536 -1.2518547e-06 0)
(0.032115223 1.1763407e-06 0)
(0.031828757 -1.1063975e-06 0)
(0.032096213 1.0405785e-06 0)
(0.031846643 -9.7961376e-07 0)
(0.032079382 9.2236485e-07 0)
(0.031862495 -8.6936166e-07 0)
(0.032064446 8.1970593e-07 0)
(0.031876582 -7.7377877e-07 0)
(0.032051153 7.3086982e-07 0)
(0.03188914 -6.912503e-07 0)
(0.032039279 6.543573e-07 0)
(0.031900383 -6.2038167e-07 0)
(0.032028623 5.8887646e-07 0)
(0.031910499 -5.5997467e-07 0)
(0.032019006 5.3332071e-07 0)
(0.031919659 -5.0900678e-07 0)
(0.032010265 4.8674939e-07 0)
(0.031928018 -4.666129e-07 0)
(0.032002254 4.4837053e-07 0)
(0.031935717 -4.3206838e-07 0)
(0.031994836 4.1752342e-07 0)
(0.031942886 -4.0477019e-07 0)
(0.031987886 3.936557e-07 0)
(0.031949647 -3.8419187e-07 0)
(0.031981285 3.7633802e-07 0)
(0.031956115 -3.6964025e-07 0)
(0.031974915 3.6374726e-07 0)
(0.031962412 -3.820063e-07 0)
(0.03196886 3.3769257e-07 0)
(0.031982977 0.0034927123 0)
(0.034282091 -6.8253795e-05 0)
(0.033057638 1.1088241e-05 0)
(0.034153418 7.3331758e-07 0)
(0.033150209 -3.5751144e-06 0)
(0.034099288 2.3600409e-06 0)
(0.033222092 -3.2194822e-06 0)
(0.034045499 2.8346805e-06 0)
(0.033274832 -2.7504648e-06 0)
(0.033996916 2.5439806e-06 0)
(0.033320777 -2.4008085e-06 0)
(0.033953984 2.2448558e-06 0)
(0.033361119 -2.1091723e-06 0)
(0.03391618 1.9767887e-06 0)
(0.033396606 -1.8560577e-06 0)
(0.033882897 1.7408963e-06 0)
(0.033427851 -1.6347726e-06 0)
(0.033853578 1.5341587e-06 0)
(0.033455382 -1.4411711e-06 0)
(0.033827731 1.3532572e-06 0)
(0.033479665 -1.2719125e-06 0)
(0.033804919 1.1951707e-06 0)
(0.03350111 -1.1241255e-06 0)
(0.033784758 1.0572384e-06 0)
(0.033520078 -9.9531163e-07 0)
(0.033766908 9.3713525e-07 0)
(0.033536891 -8.8329454e-07 0)
(0.033751067 8.328356e-07 0)
(0.03355183 -7.8618193e-07 0)
(0.033736969 7.4257988e-07 0)
(0.033565149 -7.0233308e-07 0)
(0.033724375 6.648449e-07 0)
(0.033577073 -6.3033101e-07 0)
(0.033713074 5.983181e-07 0)
(0.033587801 -5.6895819e-07 0)
(0.033702874 5.4187507e-07 0)
(0.033597516 -5.1717556e-07 0)
(0.033693604 4.9455994e-07 0)
(0.033606382 -4.7410383e-07 0)
(0.033685107 4.5556758e-07 0)
(0.033614547 -4.39006e-07 0)
(0.033677239 4.2422565e-07 0)
(0.03362215 -4.1126771e-07 0)
(0.033669869 3.9997009e-07 0)
(0.033629321 -3.9034888e-07 0)
(0.033662868 3.8236057e-07 0)
(0.033636181 -3.7551142e-07 0)
(0.033656114 3.6951153e-07 0)
(0.033642855 -3.8882696e-07 0)
(0.033649657 3.4202039e-07 0)
(0.033631895 0.003516612 0)
(0.035896156 -7.3970419e-05 0)
(0.034648358 1.1088389e-05 0)
(0.035792282 5.8128998e-07 0)
(0.034738119 -3.6826284e-06 0)
(0.035737991 2.3140548e-06 0)
(0.034812199 -3.2602029e-06 0)
(0.035681056 2.8585362e-06 0)
(0.034867724 -2.7779878e-06 0)
(0.035629739 2.5674759e-06 0)
(0.034916191 -2.4237788e-06 0)
(0.035584424 2.2659472e-06 0)
(0.034958761 -2.1291842e-06 0)
(0.035544526 1.995435e-06 0)
(0.034996211 -1.8736362e-06 0)
(0.035509401 1.7573345e-06 0)
(0.035029183 -1.6502489e-06 0)
(0.035478459 1.5486507e-06 0)
(0.035058237 -1.4548133e-06 0)
(0.035451182 1.3660442e-06 0)
(0.035083863 -1.2839528e-06 0)
(0.035427107 1.2064671e-06 0)
(0.035106494 -1.1347677e-06 0)
(0.035405831 1.0672343e-06 0)
(0.035126512 -1.0047357e-06 0)
(0.035386992 9.4599883e-07 0)
(0.035144254 -8.9165988e-07 0)
(0.035370275 8.4071598e-07 0)
(0.03516002 -7.9362982e-07 0)
(0.035355397 7.4960967e-07 0)
(0.035174076 -7.0898926e-07 0)
(0.035342106 6.7114235e-07 0)
(0.035186659 -6.3630773e-07 0)
(0.035330179 6.0398904e-07 0)
(0.035197982 -5.743561e-07 0)
(0.035319415 5.4701465e-07 0)
(0.035208235 -5.2208527e-07 0)
(0.035309631 4.9925407e-07 0)
(0.035217591 -4.7860732e-07 0)
(0.035300664 4.5989413e-07 0)
(0.035226208 -4.4317756e-07 0)
(0.035292361 4.2825505e-07 0)
(0.035234232 -4.1517411e-07 0)
(0.035284582 4.0376462e-07 0)
(0.035241799 -3.940467e-07 0)
(0.035277195 3.859742e-07 0)
(0.035249038 -3.790169e-07 0)
(0.035270067 3.7295076e-07 0)
(0.035256079 -3.9316915e-07 0)
(0.03526322 3.4418383e-07 0)
(0.035231629 0.0035205331 0)
(0.037433766 -7.9763547e-05 0)
(0.036180194 1.1258439e-05 0)
(0.037364183 5.4079304e-07 0)
(0.0362601 -3.7744306e-06 0)
(0.037308723 2.2584925e-06 0)
(0.036335888 -3.2807174e-06 0)
(0.037248655 2.8654886e-06 0)
(0.036394083 -2.7886336e-06 0)
(0.037194685 2.5754857e-06 0)
(0.036444986 -2.432092e-06 0)
(0.037147066 2.2733492e-06 0)
(0.036489708 -2.1363282e-06 0)
(0.037105145 2.002024e-06 0)
(0.036529053 -1.8798919e-06 0)
(0.037068238 1.7631539e-06 0)
(0.036563695 -1.6557525e-06 0)
(0.037035729 1.5537849e-06 0)
(0.036594221 -1.4596641e-06 0)
(0.037007069 1.3705767e-06 0)
(0.036621145 -1.2882341e-06 0)
(0.036981774 1.2104734e-06 0)
(0.036644922 -1.1385526e-06 0)
(0.036959419 1.0707815e-06 0)
(0.036665954 -1.0080884e-06 0)
(0.036939626 9.4914623e-07 0)
(0.036684595 -8.9463716e-07 0)
(0.036922062 8.4351643e-07 0)
(0.03670116 -7.9628212e-07 0)
(0.036906429 7.5211009e-07 0)
(0.036715928 -7.113614e-07 0)
(0.036892465 6.7338463e-07 0)
(0.036729149 -6.3843969e-07 0)
(0.036879933 6.0601066e-07 0)
(0.036741045 -5.7628368e-07 0)
(0.036868623 5.4884926e-07 0)
(0.036751818 -5.2384061e-07 0)
(0.036858344 5.0093191e-07 0)
(0.036761648 -4.8021926e-07 0)
(0.036848922 4.6144231e-07 0)
(0.036770702 -4.4467175e-07 0)
(0.036840198 4.2969735e-07 0)
(0.036779133 -4.1657248e-07 0)
(0.036832025 4.0512017e-07 0)
(0.036787084 -3.9536436e-07 0)
(0.036824263 3.8725649e-07 0)
(0.03679469 -3.8023386e-07 0)
(0.036816776 3.7414086e-07 0)
(0.036802084 -3.9510152e-07 0)
(0.036809548 3.4427751e-07 0)
(0.036780823 0.003505214 0)
(0.038900569 -8.5234706e-05 0)
(0.037649497 1.1331946e-05 0)
(0.038868732 5.9693112e-07 0)
(0.037716026 -3.8552801e-06 0)
(0.038811412 2.1939463e-06 0)
(0.037793182 -3.2817926e-06 0)
(0.03874826 2.8560817e-06 0)
(0.037853938 -2.7829919e-06 0)
(0.038691727 2.5685498e-06 0)
(0.037907185 -2.426259e-06 0)
(0.038641885 2.2675405e-06 0)
(0.037953982 -2.131053e-06 0)
(0.038598014 1.9969771e-06 0)
(0.037995154 -1.8752197e-06 0)
(0.038559391 1.7587255e-06 0)
(0.038031405 -1.6516312e-06 0)
(0.038525371 1.5498882e-06 0)
(0.038063349 -1.4560299e-06 0)
(0.038495378 1.3671431e-06 0)
(0.038091524 -1.2850271e-06 0)
(0.038468908 1.2074441e-06 0)
(0.038116406 -1.1357192e-06 0)
(0.038445513 1.0681049e-06 0)
(0.038138415 -1.0055812e-06 0)
(0.0384248 9.4677689e-07 0)
(0.038157922 -8.9241413e-07 0)
(0.038406419 8.4141405e-07 0)
(0.038175257 -7.9430585e-07 0)
(0.03839006 7.5023898e-07 0)
(0.038190712 -7.0959863e-07 0)
(0.038375446 6.7171296e-07 0)
(0.038204547 -6.3686065e-07 0)
(0.038362332 6.0450995e-07 0)
(0.038216997 -5.7486159e-07 0)
(0.038350496 5.4749379e-07 0)
(0.03822827 -5.2255115e-07 0)
(0.038339738 4.9969822e-07 0)
(0.038238558 -4.7903999e-07 0)
(0.038329878 4.6030852e-07 0)
(0.038248033 -4.4358142e-07 0)
(0.038320748 4.2864229e-07 0)
(0.038256856 -4.1554978e-07 0)
(0.038312194 4.0412137e-07 0)
(0.038265177 -3.9438454e-07 0)
(0.038304072 3.8628861e-07 0)
(0.038273136 -3.792429e-07 0)
(0.038296238 3.7316097e-07 0)
(0.038280871 -3.9469828e-07 0)
(0.038288643 3.4239724e-07 0)
(0.03827788 0.0034714277 0)
(0.040305507 -8.9751701e-05 0)
(0.039049404 1.0866395e-05 0)
(0.040305143 6.6966028e-07 0)
(0.03910573 -3.9335206e-06 0)