/*--------------------------------*- C++ -*----------------------------------*\
| =========                 |                                                 |
| \\      /  F ield         | OpenFOAM: The Open Source CFD Toolbox           |
|  \\    /   O peration     | Version:  2312                                  |
|   \\  /    A nd           | Website:  www.openfoam.com                      |
|    \\/     M anipulation  |                                                 |
\*---------------------------------------------------------------------------*/
FoamFile
{
    version     2.0;
    format      ascii;
    arch        "LSB;label=32;scalar=64";
    class       volSymmTensorField;
    location    "2";
    object      sigma;
}
// * * * * * * * * * * * * * * * * * * * * * * * * * * * * * * * * * * * * * //

dimensions      [0 2 -2 0 0 0 0];

internalField   nonuniform List<symmTensor> 
4000
(
(-1.4140568 -0.61851655 0 -0.2302247 0 0)
(-2.8600438 -0.30956599 0 -0.00083275874 0 0)
(-1.970581 -0.25668513 0 -0.00027277366 0 0)
(-2.1417917 -0.2673172 0 -3.2496156e-05 0 0)
(-2.008833 -0.25856814 0 4.463404e-05 0 0)
(-2.1031651 -0.26499414 0 -5.4343639e-05 0 0)
(-2.0149331 -0.25895498 0 5.0223534e-05 0 0)
(-2.095258 -0.26447403 0 -4.8268252e-05 0 0)
(-2.020181 -0.25931353 0 4.5569016e-05 0 0)
(-2.0905284 -0.26415427 0 -4.3130939e-05 0 0)
(-2.0242853 -0.25959724 0 4.0640217e-05 0 0)
(-2.0865585 -0.26388387 0 -3.841225e-05 0 0)
(-2.0278825 -0.25984612 0 3.6222545e-05 0 0)
(-2.0830842 -0.26364678 0 -3.4235668e-05 0 0)
(-2.0310876 -0.26006766 0 3.2317925e-05 0 0)
(-2.0800126 -0.26343701 0 -3.0560842e-05 0 0)
(-2.0339428 -0.26026479 0 2.8877903e-05 0 0)
(-2.0772868 -0.2632508 0 -2.7329067e-05 0 0)
(-2.0364864 -0.26044018 0 2.5851002e-05 0 0)
(-2.074862 -0.26308518 0 -2.4487933e-05 0 0)
(-2.0387552 -0.26059641 0 2.3190051e-05 0 0)
(-2.0727003 -0.26293757 0 -2.1991953e-05 0 0)
(-2.0407826 -0.26073582 0 2.0853258e-05 0 0)
(-2.0707684 -0.26280573 0 -1.9801707e-05 0 0)
(-2.0425986 -0.26086049 0 1.8804064e-05 0 0)
(-2.0690372 -0.26268769 0 -1.788294e-05 0 0)
(-2.0442298 -0.26097227 0 1.701072e-05 0 0)
(-2.0674808 -0.26258169 0 -1.620599e-05 0 0)
(-2.0457 -0.26107282 0 1.5445725e-05 0 0)
(-2.0660765 -0.26248619 0 -1.4745307e-05 0 0)
(-2.0470302 -0.26116358 0 1.4085393e-05 0 0)
(-2.0648039 -0.2623998 0 -1.3478856e-05 0 0)
(-2.0482392 -0.26124587 0 1.2909369e-05 0 0)
(-2.0636449 -0.2623213 0 -1.238781e-05 0 0)
(-2.049344 -0.26132083 0 1.1900332e-05 0 0)
(-2.0625834 -0.26224959 0 -1.1456216e-05 0 0)
(-2.0503595 -0.26138951 0 1.1043636e-05 0 0)
(-2.0616047 -0.26218369 0 -1.0670604e-05 0 0)
(-2.0512997 -0.26145284 0 1.0327e-05 0 0)
(-2.0606955 -0.2621227 0 -1.0019916e-05 0 0)
(-2.052177 -0.26151168 0 9.740603e-06 0 0)
(-2.059844 -0.26206582 0 -9.4953529e-06 0 0)
(-2.0530028 -0.26156679 0 9.2766625e-06 0 0)
(-2.0590387 -0.26201229 0 -9.0906811e-06 0 0)
(-2.0537874 -0.26161886 0 8.9297478e-06 0 0)
(-2.0582679 -0.26196135 0 -8.8024163e-06 0 0)
(-2.0545398 -0.26166843 0 8.7092463e-06 0 0)
(-2.05754 -0.2619133 0 -8.5835187e-06 0 0)
(-2.0553929 -0.26172321 0 8.8044312e-06 0 0)
(-2.0573531 -0.26190083 0 -8.5896345e-06 0 0)
(-1.2594592 -0.57054912 0 -0.21695023 0 0)
(-2.5232548 -0.29422174 0 -0.0029330655 0 0)
(-1.8900056 -0.25262569 0 -0.00084216982 0 0)
(-1.9776252 -0.25688748 0 -3.2662117e-05 0 0)
(-1.8669625 -0.24916846 0 2.9659067e-05 0 0)
(-1.9457886 -0.25498671 0 -6.0184001e-05 0 0)
(-1.8699459 -0.24935925 0 5.3482166e-05 0 0)
(-1.9390013 -0.25451421 0 -5.2645811e-05 0 0)
(-1.8743421 -0.24968416 0 4.9955981e-05 0 0)
(-1.9349881 -0.25422181 0 -4.7423641e-05 0 0)
(-1.8778636 -0.24994888 0 4.4654692e-05 0 0)
(-1.9315748 -0.2539695 0 -4.2269158e-05 0 0)
(-1.8809515 -0.25018147 0 3.9834165e-05 0 0)
(-1.9285794 -0.25374753 0 -3.7671042e-05 0 0)
(-1.883705 -0.25038864 0 3.5555341e-05 0 0)
(-1.9259304 -0.25355107 0 -3.3630116e-05 0 0)
(-1.8861596 -0.25057307 0 3.1779914e-05 0 0)
(-1.9235789 -0.25337665 0 -3.007912e-05 0 0)
(-1.8883478 -0.25073725 0 2.8455953e-05 0 0)
(-1.9214862 -0.25322143 0 -2.695803e-05 0 0)
(-1.8903009 -0.25088357 0 2.553305e-05 0 0)
(-1.9196195 -0.25308303 0 -2.421599e-05 0 0)
(-1.8920476 -0.25101421 0 2.2965747e-05 0 0)
(-1.9179502 -0.25295934 0 -2.1809584e-05 0 0)
(-1.8936133 -0.25113112 0 2.0714043e-05 0 0)
(-1.9164533 -0.25284852 0 -1.9701189e-05 0 0)
(-1.8950209 -0.25123602 0 1.8743234e-05 0 0)
(-1.9151066 -0.25274894 0 -1.7858266e-05 0 0)
(-1.8962907 -0.25133044 0 1.7023208e-05 0 0)
(-1.9138906 -0.25265915 0 -1.625295e-05 0 0)
(-1.8974406 -0.25141574 0 1.5528079e-05 0 0)
(-1.9127877 -0.25257788 0 -1.4861091e-05 0 0)
(-1.8984868 -0.25149313 0 1.4235589e-05 0 0)
(-1.9117825 -0.25250397 0 -1.366217e-05 0 0)
(-1.8994437 -0.25156369 0 1.3126933e-05 0 0)
(-1.9108609 -0.25243641 0 -1.2638922e-05 0 0)
(-1.9003243 -0.25162839 0 1.2186239e-05 0 0)
(-1.9100105 -0.25237427 0 -1.1776699e-05 0 0)
(-1.9011406 -0.25168809 0 1.1400207e-05 0 0)
(-1.9092197 -0.25231672 0 -1.1063847e-05 0 0)
(-1.9019031 -0.25174361 0 1.0758803e-05 0 0)
(-1.9084781 -0.25226301 0 -1.0491347e-05 0 0)
(-1.9026219 -0.25179565 0 1.0254168e-05 0 0)
(-1.9077761 -0.25221243 0 -1.005403e-05 0 0)
(-1.9033061 -0.25184487 0 9.8814709e-06 0 0)
(-1.907103 -0.25216426 0 -9.7529802e-06 0 0)
(-1.9039617 -0.25189162 0 9.6659409e-06 0 0)
(-1.9064551 -0.25211778 0 -9.4792154e-06 0 0)
(-1.9046687 -0.25193913 0 1.015376e-05 0 0)
(-1.9061855 -0.25209831 0 -9.3698177e-06 0 0)
(-1.177581 -0.53849429 0 -0.20258259 0 0)
(-2.2886363 -0.27923803 0 -0.0033942634 0 0)
(-1.8081761 -0.24813643 0 -0.001262886 0 0)
(-1.8753646 -0.25024446 0 -5.6225835e-05 0 0)
(-1.7743693 -0.24283401 0 1.325176e-05 0 0)
(-1.8442947 -0.24830716 0 -5.9573761e-05 0 0)
(-1.7758397 -0.24293508 0 5.0750559e-05 0 0)
(-1.8379484 -0.24785235 0 -5.0797134e-05 0 0)
(-1.7797112 -0.2432406 0 4.8448678e-05 0 0)
(-1.8343474 -0.24757665 0 -4.6048517e-05 0 0)
(-1.7828797 -0.24349355 0 4.3331786e-05 0 0)
(-1.8312811 -0.24733649 0 -4.1069167e-05 0 0)
(-1.7856575 -0.2437156 0 3.867346e-05 0 0)
(-1.828586 -0.24712473 0 -3.6597013e-05 0 0)
(-1.7881345 -0.24391341 0 3.4530084e-05 0 0)
(-1.8262019 -0.24693727 0 -3.2671236e-05 0 0)
(-1.7903435 -0.24408954 0 3.0869722e-05 0 0)
(-1.8240854 -0.24677079 0 -2.9223884e-05 0 0)
(-1.7923136 -0.24424639 0 2.7645354e-05 0 0)
(-1.8222013 -0.24662259 0 -2.6194525e-05 0 0)
(-1.7940729 -0.24438623 0 2.4809266e-05 0 0)
(-1.8205201 -0.24649039 0 -2.3533e-05 0 0)
(-1.795647 -0.24451115 0 2.2317776e-05 0 0)
(-1.8190163 -0.2463722 0 -2.1197061e-05 0 0)
(-1.7970587 -0.24462299 0 2.01322e-05 0 0)
(-1.8176672 -0.24626625 0 -1.9150168e-05 0 0)
(-1.7983284 -0.24472339 0 1.8218988e-05 0 0)
(-1.8164531 -0.24617099 0 -1.7360752e-05 0 0)
(-1.7994744 -0.24481382 0 1.6549022e-05 0 0)
(-1.8153562 -0.24608505 0 -1.5801919e-05 0 0)
(-1.8005126 -0.24489555 0 1.5097264e-05 0 0)
(-1.8143611 -0.24600722 0 -1.445026e-05 0 0)
(-1.8014577 -0.24496975 0 1.3842203e-05 0 0)
(-1.8134535 -0.24593639 0 -1.3285989e-05 0 0)
(-1.8023226 -0.24503744 0 1.276578e-05 0 0)
(-1.8126211 -0.24587161 0 -1.2292562e-05 0 0)
(-1.8031188 -0.24509954 0 1.1852766e-05 0 0)
(-1.8118526 -0.24581198 0 -1.1455889e-05 0 0)
(-1.8038572 -0.24515689 0 1.1090451e-05 0 0)
(-1.8111375 -0.24575671 0 -1.076512e-05 0 0)
(-1.8045474 -0.24521025 0 1.046977e-05 0 0)
(-1.8104666 -0.24570508 0 -1.0212091e-05 0 0)
(-1.8051984 -0.24526032 0 9.9838337e-06 0 0)
(-1.809831 -0.24565643 0 -9.7933818e-06 0 0)
(-1.8058184 -0.24530771 0 9.6292924e-06 0 0)
(-1.8092211 -0.24561008 0 -9.5154484e-06 0 0)
(-1.8064127 -0.24535272 0 9.4395108e-06 0 0)
(-1.8086304 -0.24556497 0 -9.2461446e-06 0 0)
(-1.8070435 -0.24539673 0 1.018146e-05 0 0)
(-1.8083341 -0.24554406 0 -9.6293698e-06 0 0)
(-1.1320323 -0.51367331 0 -0.18843984 0 0)
(-2.1027447 -0.2680371 0 -0.0040668325 0 0)
(-1.7242335 -0.24352254 0 -0.0017256517 0 0)
(-1.7763846 -0.24363508 0 -8.2778558e-05 0 0)
(-1.6837675 -0.23651598 0 -1.2193959e-05 0 0)
(-1.746168 -0.24163738 0 -5.3842654e-05 0 0)
(-1.6838108 -0.23651334 0 4.3118623e-05 0 0)
(-1.7400798 -0.24119415 0 -4.4248924e-05 0 0)
(-1.6871787 -0.23679743 0 4.2619575e-05 0 0)
(-1.7368011 -0.24093418 0 -4.0551227e-05 0 0)
(-1.6900428 -0.2370385 0 3.8139471e-05 0 0)
(-1.7340208 -0.24070587 0 -3.6209452e-05 0 0)
(-1.6925586 -0.23725003 0 3.4064533e-05 0 0)
(-1.7315736 -0.24050408 0 -3.226226e-05 0 0)
(-1.6948021 -0.23743845 0 3.043e-05 0 0)
(-1.7294082 -0.24032537 0 -2.8802452e-05 0 0)
(-1.6968035 -0.23760629 0 2.7213121e-05 0 0)
(-1.7274854 -0.24016661 0 -2.5767385e-05 0 0)
(-1.6985894 -0.23775582 0 2.4376994e-05 0 0)
(-1.7257735 -0.24002523 0 -2.3101026e-05 0 0)
(-1.7001848 -0.2378892 0 2.1881301e-05 0 0)
(-1.7242457 -0.23989906 0 -2.0758203e-05 0 0)
(-1.7016128 -0.2380084 0 1.9688187e-05 0 0)
(-1.7228786 -0.2397862 0 -1.8701607e-05 0 0)
(-1.7028941 -0.23811518 0 1.7763792e-05 0 0)
(-1.721652 -0.23968497 0 -1.6899074e-05 0 0)
(-1.704047 -0.23821109 0 1.6078785e-05 0 0)
(-1.7205477 -0.23959392 0 -1.5322843e-05 0 0)
(-1.7050879 -0.23829752 0 1.4607645e-05 0 0)
(-1.7195499 -0.23951172 0 -1.3949452e-05 0 0)
(-1.7060313 -0.23837569 0 1.3328442e-05 0 0)
(-1.7186444 -0.23943723 0 -1.2758313e-05 0 0)
(-1.7068903 -0.2384467 0 1.2222329e-05 0 0)
(-1.7178185 -0.2393694 0 -1.1732163e-05 0 0)
(-1.7076767 -0.23851152 0 1.1273626e-05 0 0)
(-1.7170608 -0.23930731 0 -1.0856666e-05 0 0)
(-1.7084009 -0.23857104 0 1.0469078e-05 0 0)
(-1.7163612 -0.23925013 0 -1.0119479e-05 0 0)
(-1.7090726 -0.23862605 0 9.7976245e-06 0 0)
(-1.7157101 -0.23919708 0 -9.5115127e-06 0 0)
(-1.7097006 -0.23867727 0 9.2519461e-06 0 0)
(-1.7150992 -0.23914749 0 -9.0259977e-06 0 0)
(-1.710293 -0.23872537 0 8.8264109e-06 0 0)
(-1.7145204 -0.23910072 0 -8.6612561e-06 0 0)
(-1.7108574 -0.23877096 0 8.5186209e-06 0 0)
(-1.7139651 -0.23905613 0 -8.4278603e-06 0 0)
(-1.7113984 -0.23881428 0 8.3675413e-06 0 0)
(-1.7134239 -0.23901234 0 -8.1576634e-06 0 0)
(-1.7119618 -0.23885499 0 9.3698911e-06 0 0)
(-1.7131026 -0.23898961 0 -8.9177552e-06 0 0)
(-1.082256 -0.48371827 0 -0.17107793 0 0)
(-1.9190239 -0.25637355 0 -0.0044709745 0 0)
(-1.6334692 -0.2381616 0 -0.00210822 0 0)
(-1.6795576 -0.23704401 0 -0.00012362527 0 0)
(-1.5948252 -0.2301744 0 -3.9113633e-05 0 0)
(-1.6510337 -0.2349807 0 -4.8577256e-05 0 0)
(-1.5939664 -0.23008291 0 3.5715375e-05 0 0)
(-1.6451573 -0.23454446 0 -3.772001e-05 0 0)
(-1.5968749 -0.23034645 0 3.6873247e-05 0 0)
(-1.6421395 -0.23429829 0 -3.5061376e-05 0 0)
(-1.5994688 -0.23057646 0 3.2977081e-05 0 0)
(-1.6396063 -0.23408102 0 -3.1362494e-05 0 0)
(-1.6017577 -0.23077827 0 2.9473621e-05 0 0)
(-1.6373754 -0.23388855 0 -2.7940097e-05 0 0)
(-1.6037991 -0.23095802 0 2.6343839e-05 0 0)
(-1.6354005 -0.23371801 0 -2.4944529e-05 0 0)
(-1.6056209 -0.23111818 0 2.3567701e-05 0 0)
(-1.6336467 -0.23356645 0 -2.2319831e-05 0 0)
(-1.6072471 -0.23126093 0 2.1117564e-05 0 0)
(-1.6320849 -0.23343144 0 -2.0014695e-05 0 0)
(-1.6087005 -0.23138832 0 1.8960348e-05 0 0)
(-1.6306907 -0.2333109 0 -1.7989004e-05 0 0)
(-1.6100019 -0.23150223 0 1.706399e-05 0 0)
(-1.629443 -0.23320302 0 -1.6210398e-05 0 0)
(-1.6111701 -0.23160431 0 1.5399413e-05 0 0)
(-1.6283231 -0.23310622 0 -1.4651064e-05 0 0)
(-1.6122216 -0.23169605 0 1.3941438e-05 0 0)
(-1.6273149 -0.23301909 0 -1.3287019e-05 0 0)
(-1.6131712 -0.23177876 0 1.2668124e-05 0 0)
(-1.6264037 -0.23294041 0 -1.2098184e-05 0 0)
(-1.6140321 -0.23185361 0 1.1560588e-05 0 0)
(-1.6255766 -0.23286906 0 -1.106676e-05 0 0)
(-1.6148162 -0.23192164 0 1.0602608e-05 0 0)
(-1.6248221 -0.23280406 0 -1.0177955e-05 0 0)
(-1.6155341 -0.23198379 0 9.7808208e-06 0 0)
(-1.62413 -0.23274452 0 -9.4195777e-06 0 0)
(-1.6161954 -0.23204088 0 9.0838667e-06 0 0)
(-1.6234908 -0.23268965 0 -8.7809521e-06 0 0)
(-1.6168087 -0.23209368 0 8.5022353e-06 0 0)
(-1.6228961 -0.23263872 0 -8.2545983e-06 0 0)
(-1.6173822 -0.23214287 0 8.0301367e-06 0 0)
(-1.622338 -0.23259107 0 -7.8348674e-06 0 0)
(-1.6179231 -0.2321891 0 7.6628539e-06 0 0)
(-1.6218094 -0.23254611 0 -7.521243e-06 0 0)
(-1.6184385 -0.23223295 0 7.3981908e-06 0 0)
(-1.6213024 -0.23250321 0 -7.3269731e-06 0 0)
(-1.6189323 -0.23227466 0 7.2758809e-06 0 0)
(-1.6208065 -0.2324608 0 -7.0518599e-06 0 0)
(-1.6194383 -0.23231265 0 8.4630864e-06 0 0)
(-1.6204719 -0.2324367 0 -8.1140443e-06 0 0)
(-1.0503993 -0.46342902 0 -0.1595197 0 0)
(-1.7481944 -0.2452709 0 -0.0048251903 0 0)
(-1.5410151 -0.23230647 0 -0.0024000628 0 0)
(-1.5843104 -0.23042922 0 -0.00018081553 0 0)
(-1.5076388 -0.22381371 0 -6.7845934e-05 0 0)
(-1.558666 -0.22833144 0 -4.5225613e-05 0 0)
(-1.5064136 -0.22364745 0 2.9362176e-05 0 0)
(-1.5530612 -0.22790095 0 -3.2186345e-05 0 0)
(-1.5089173 -0.22389087 0 3.2087585e-05 0 0)
(-1.5502673 -0.22766708 0 -3.0423315e-05 0 0)
(-1.5112634 -0.22411022 0 2.8639689e-05 0 0)
(-1.547953 -0.22746022 0 -2.7280051e-05 0 0)
(-1.5133482 -0.2243028 0 2.5609803e-05 0 0)
(-1.545916 -0.22727661 0 -2.4300972e-05 0 0)
(-1.5152086 -0.22447431 0 2.2904339e-05 0 0)
(-1.5441121 -0.22711381 0 -2.1696072e-05 0 0)
(-1.5168694 -0.22462717 0 2.0499028e-05 0 0)
(-1.5425097 -0.2269691 0 -1.941664e-05 0 0)
(-1.5183526 -0.22476348 0 1.8373545e-05 0 0)
(-1.5410825 -0.22684013 0 -1.7415432e-05 0 0)
(-1.5196787 -0.22488518 0 1.6500981e-05 0 0)
(-1.5398082 -0.22672493 0 -1.5656579e-05 0 0)
(-1.5208667 -0.22499404 0 1.4854189e-05 0 0)
(-1.5386675 -0.22662178 0 -1.4111871e-05 0 0)
(-1.5219335 -0.22509165 0 1.3408108e-05 0 0)
(-1.5376436 -0.22652919 0 -1.2757167e-05 0 0)
(-1.522894 -0.22517942 0 1.2141068e-05 0 0)
(-1.5367214 -0.22644581 0 -1.1571641e-05 0 0)
(-1.5237617 -0.22525859 0 1.1034123e-05 0 0)
(-1.5358879 -0.22637047 0 -1.0538071e-05 0 0)
(-1.5245486 -0.22533027 0 1.0070934e-05 0 0)
(-1.5351312 -0.22630212 0 -9.6409793e-06 0 0)
(-1.5252655 -0.22539545 0 9.237478e-06 0 0)
(-1.5344409 -0.22623982 0 -8.8676522e-06 0 0)
(-1.5259219 -0.22545503 0 8.5223311e-06 0 0)
(-1.5338076 -0.22618272 0 -8.2076769e-06 0 0)
(-1.5265266 -0.22550978 0 7.9156827e-06 0 0)
(-1.5332227 -0.22613008 0 -7.6517231e-06 0 0)
(-1.5270876 -0.22556046 0 7.4092879e-06 0 0)
(-1.5326785 -0.22608118 0 -7.1936499e-06 0 0)
(-1.527612 -0.2256077 0 6.9985711e-06 0 0)
(-1.532168 -0.22603542 0 -6.8285925e-06 0 0)
(-1.5281067 -0.22565211 0 6.6793929e-06 0 0)
(-1.5316845 -0.2259922 0 -6.5567423e-06 0 0)
(-1.528578 -0.22569428 0 6.4493546e-06 0 0)
(-1.5312209 -0.22595096 0 -6.3931092e-06 0 0)
(-1.5290294 -0.22573442 0 6.3464997e-06 0 0)
(-1.5307662 -0.22590995 0 -6.1091256e-06 0 0)
(-1.5294847 -0.22577003 0 7.6596329e-06 0 0)
(-1.530426 -0.2258847 0 -7.3840512e-06 0 0)
(-1.0100814 -0.43566351 0 -0.14347632 0 0)
(-1.5879155 -0.23430227 0 -0.0049801505 0 0)
(-1.4488134 -0.22598578 0 -0.0025717705 0 0)
(-1.490514 -0.22379483 0 -0.00026138557 0 0)
(-1.4221505 -0.21743507 0 -0.00010132908 0 0)
(-1.4689269 -0.22168646 0 -4.428929e-05 0 0)
(-1.4211671 -0.21720854 0 2.3537431e-05 0 0)
(-1.4637262 -0.22126166 0 -2.7464651e-05 0 0)
(-1.423347 -0.21743232 0 2.8012713e-05 0 0)
(-1.461139 -0.22103893 0 -2.6423766e-05 0 0)
(-1.4254667 -0.2176412 0 2.4922655e-05 0 0)
(-1.4590217 -0.22084201 0 -2.3770454e-05 0 0)
(-1.4273658 -0.21782487 0 2.2291247e-05 0 0)
(-1.4571605 -0.22066695 0 -2.1174457e-05 0 0)
(-1.4290622 -0.21798844 0 1.994925e-05 0 0)
(-1.455512 -0.22051163 0 -1.8905085e-05 0 0)
(-1.4305772 -0.21813428 0 1.7862294e-05 0 0)
(-1.4540472 -0.22037351 0 -1.6921995e-05 0 0)
(-1.4319307 -0.21826438 0 1.6015529e-05 0 0)
(-1.4527423 -0.22025036 0 -1.5181666e-05 0 0)
(-1.4331415 -0.21838059 0 1.438732e-05 0 0)
(-1.4515768 -0.22014031 0 -1.365187e-05 0 0)
(-1.4342266 -0.21848459 0 1.2954777e-05 0 0)
(-1.4505334 -0.22004174 0 -1.2307969e-05 0 0)
(-1.4352013 -0.21857788 0 1.1696289e-05 0 0)
(-1.4495965 -0.2199532 0 -1.1128956e-05 0 0)
(-1.4360792 -0.21866181 0 1.0593179e-05 0 0)
(-1.4487526 -0.21987345 0 -1.0096715e-05 0 0)
(-1.4368727 -0.21873755 0 9.6290865e-06 0 0)
(-1.4479896 -0.21980135 0 -9.196463e-06 0 0)
(-1.4375924 -0.21880616 0 8.7898363e-06 0 0)
(-1.4472969 -0.2197359 0 -8.4147086e-06 0 0)
(-1.4382482 -0.21886859 0 8.0632874e-06 0 0)
(-1.4466649 -0.21967622 0 -7.7405147e-06 0 0)
(-1.4388489 -0.21892566 0 7.4396763e-06 0 0)
(-1.4460849 -0.2196215 0 -7.1649852e-06 0 0)
(-1.4394023 -0.21897816 0 6.910498e-06 0 0)
(-1.4455494 -0.21957101 0 -6.679919e-06 0 0)
(-1.4399158 -0.21902676 0 6.46857e-06 0 0)
(-1.4450511 -0.2195241 0 -6.2803008e-06 0 0)
(-1.4403958 -0.21907209 0 6.1103149e-06 0 0)
(-1.4445837 -0.21948017 0 -5.9618511e-06 0 0)
(-1.4408485 -0.21911474 0 5.8319995e-06 0 0)
(-1.444141 -0.21943866 0 -5.7252405e-06 0 0)
(-1.4412798 -0.21915525 0 5.6308997e-06 0 0)
(-1.4437169 -0.21939904 0 -5.5867325e-06 0 0)
(-1.4416928 -0.21919386 0 5.5420693e-06 0 0)
(-1.4433 -0.21935946 0 -5.2945469e-06 0 0)
(-1.4421031 -0.21922739 0 6.9335054e-06 0 0)
(-1.44296 -0.21933328 0 -6.7181442e-06 0 0)
(-0.98421105 -0.41670013 0 -0.13269298 0 0)
(-1.4398953 -0.22414814 0 -0.0052334919 0 0)
(-1.3584292 -0.21930827 0 -0.002632674 0 0)
(-1.3981749 -0.21713116 0 -0.00036236983 0 0)
(-1.3383314 -0.21102329 0 -0.00013638708 0 0)
(-1.3816992 -0.21503763 0 -4.4634283e-05 0 0)
(-1.3382081 -0.21076436 0 1.8033579e-05 0 0)
(-1.3771072 -0.21462566 0 -2.3328919e-05 0 0)
(-1.3401806 -0.21097118 0 2.4370226e-05 0 0)
(-1.3747307 -0.21441354 0 -2.2844396e-05 0 0)
(-1.3420993 -0.2111698 0 2.1602809e-05 0 0)
(-1.3727932 -0.2142261 0 -2.0629681e-05 0 0)
(-1.3438291 -0.21134482 0 1.9323237e-05 0 0)
(-1.3710921 -0.21405928 0 -1.8377525e-05 0 0)
(-1.3453762 -0.21150071 0 1.7305291e-05 0 0)
(-1.3695852 -0.21391119 0 -1.6408084e-05 0 0)
(-1.3467585 -0.21163976 0 1.5502761e-05 0 0)
(-1.3682459 -0.21377944 0 -1.4689714e-05 0 0)
(-1.3479941 -0.21176385 0 1.3905064e-05 0 0)
(-1.3670525 -0.21366193 0 -1.3182451e-05 0 0)
(-1.3490998 -0.21187475 0 1.2495236e-05 0 0)
(-1.3659864 -0.21355686 0 -1.1857332e-05 0 0)
(-1.3500911 -0.21197404 0 1.1254194e-05 0 0)
(-1.3650316 -0.21346271 0 -1.0692889e-05 0 0)
(-1.350982 -0.21206316 0 1.0163398e-05 0 0)
(-1.3641742 -0.21337812 0 -9.6709204e-06 0 0)
(-1.3517848 -0.21214336 0 9.2068537e-06 0 0)
(-1.3634017 -0.21330187 0 -8.7757092e-06 0 0)
(-1.3525105 -0.21221578 0 8.3704966e-06 0 0)
(-1.3627031 -0.21323291 0 -7.9946577e-06 0 0)
(-1.353169 -0.21228141 0 7.6420743e-06 0 0)
(-1.3620687 -0.21317029 0 -7.3160286e-06 0 0)
(-1.3537691 -0.21234115 0 7.0111258e-06 0 0)
(-1.3614899 -0.21311315 0 -6.7304755e-06 0 0)
(-1.354319 -0.21239581 0 6.4693661e-06 0 0)
(-1.3609587 -0.21306074 0 -6.2304403e-06 0 0)
(-1.3548256 -0.21244609 0 6.0094297e-06 0 0)
(-1.3604681 -0.21301236 0 -5.8087011e-06 0 0)
(-1.3552957 -0.21249268 0 5.6250808e-06 0 0)
(-1.3600117 -0.21296738 0 -5.4612604e-06 0 0)
(-1.3557352 -0.21253615 0 5.3135994e-06 0 0)
(-1.3595836 -0.21292524 0 -5.1842873e-06 0 0)
(-1.3561497 -0.21257706 0 5.0715518e-06 0 0)
(-1.3591782 -0.2128854 0 -4.9787809e-06 0 0)
(-1.3565445 -0.21261596 0 4.8958934e-06 0 0)
(-1.35879 -0.21284737 0 -4.8619119e-06 0 0)
(-1.3569225 -0.21265307 0 4.8180447e-06 0 0)
(-1.3584078 -0.21280924 0 -4.5637188e-06 0 0)
(-1.3572927 -0.21268474 0 6.2493797e-06 0 0)
(-1.3580725 -0.21278235 0 -6.0902006e-06 0 0)
(-0.95616567 -0.39585205 0 -0.12119804 0 0)
(-1.3032248 -0.21422859 0 -0.005382269 0 0)
(-1.2706822 -0.21214582 0 -0.0025438584 0 0)
(-1.3076348 -0.21048067 0 -0.00048667478 0 0)
(-1.2565404 -0.20460673 0 -0.0001719113 0 0)
(-1.2969741 -0.20838343 0 -4.5079847e-05 0 0)
(-1.2575388 -0.20431206 0 1.3264362e-05 0 0)
(-1.293158 -0.20799068 0 -1.9476926e-05 0 0)
(-1.259421 -0.20450642 0 2.112312e-05 0 0)
(-1.2910172 -0.20779038 0 -1.95741e-05 0 0)
(-1.2611741 -0.20469585 0 1.8599834e-05 0 0)
(-1.2892507 -0.20761238 0 -1.7774219e-05 0 0)
(-1.2627521 -0.20486263 0 1.6629892e-05 0 0)
(-1.287697 -0.20745356 0 -1.5837297e-05 0 0)
(-1.2641634 -0.20501114 0 1.4904204e-05 0 0)
(-1.2863198 -0.20731247 0 -1.4140258e-05 0 0)
(-1.2654246 -0.20514363 0 1.3359352e-05 0 0)
(-1.2850954 -0.20718688 0 -1.2661907e-05 0 0)
(-1.2665525 -0.20526192 0 1.1987486e-05 0 0)
(-1.284004 -0.2070748 0 -1.136595e-05 0 0)
(-1.2675623 -0.20536768 0 1.0775702e-05 0 0)
(-1.2830288 -0.20697457 0 -1.022643e-05 0 0)
(-1.268468 -0.20546242 0 9.70837e-06 0 0)
(-1.2821552 -0.2068847 0 -9.2247572e-06 0 0)
(-1.2692823 -0.20554749 0 8.7697175e-06 0 0)
(-1.2813705 -0.20680391 0 -8.345256e-06 0 0)
(-1.2700162 -0.20562409 0 7.9461638e-06 0 0)
(-1.2806633 -0.20673107 0 -7.574382e-06 0 0)
(-1.27068 -0.20569328 0 7.2257372e-06 0 0)
(-1.2800238 -0.20666515 0 -6.9015029e-06 0 0)
(-1.2712825 -0.20575602 0 6.5979101e-06 0 0)
(-1.2794429 -0.20660527 0 -6.3164703e-06 0 0)
(-1.2718317 -0.20581316 0 6.0537407e-06 0 0)
(-1.2789127 -0.20655061 0 -5.8113708e-06 0 0)
(-1.272335 -0.20586545 0 5.58628e-06 0 0)
(-1.2784261 -0.20650044 0 -5.3798485e-06 0 0)
(-1.2727988 -0.20591359 0 5.1891793e-06 0 0)
(-1.2779768 -0.20645411 0 -5.0155584e-06 0 0)
(-1.2732292 -0.20595821 0 4.8570492e-06 0 0)
(-1.2775587 -0.20641103 0 -4.7154056e-06 0 0)
(-1.2736316 -0.20599986 0 4.5879142e-06 0 0)
(-1.2771666 -0.20637063 0 -4.4759178e-06 0 0)
(-1.2740111 -0.20603909 0 4.3785758e-06 0 0)
(-1.2767954 -0.20633243 0 -4.2983287e-06 0 0)
(-1.2743726 -0.2060764 0 4.2256992e-06 0 0)
(-1.27644 -0.20629595 0 -4.2003675e-06 0 0)
(-1.2747187 -0.20611204 0 4.1567443e-06 0 0)
(-1.2760898 -0.20625927 0 -3.8986668e-06 0 0)
(-1.2750527 -0.20614205 0 5.5952965e-06 0 0)
(-1.2757624 -0.20623186 0 -5.4936484e-06 0 0)
(-0.93122706 -0.37251917 0 -0.10744645 0 0)
(-1.1813319 -0.20491443 0 -0.0053823157 0 0)
(-1.183582 -0.20491731 0 -0.0024851396 0 0)
(-1.2220224 -0.20371557 0 -0.00052990468 0 0)
(-1.1776291 -0.19815471 0 -0.00018869425 0 0)
(-1.2151841 -0.20173689 0 -4.3483669e-05 0 0)
(-1.1793654 -0.19786014 0 9.0177363e-06 0 0)
(-1.2119435 -0.201361 0 -1.6077654e-05 0 0)
(-1.1811182 -0.19803992 0 1.8128723e-05 0 0)
(-1.2099972 -0.2011702 0 -1.6613177e-05 0 0)
(-1.182711 -0.19821969 0 1.5863765e-05 0 0)
(-1.2083832 -0.20100092 0 -1.5174704e-05 0 0)
(-1.1841483 -0.1983784 0 1.4177599e-05 0 0)
(-1.206964 -0.20084979 0 -1.3523952e-05 0 0)
(-1.185435 -0.19851975 0 1.271727e-05 0 0)
(-1.2057056 -0.20071544 0 -1.2074608e-05 0 0)
(-1.1865855 -0.19864591 0 1.1406573e-05 0 0)
(-1.2045866 -0.20059579 0 -1.0814422e-05 0 0)
(-1.1876147 -0.1987586 0 1.0240018e-05 0 0)
(-1.2035888 -0.20048897 0 -9.7105532e-06 0 0)
(-1.1885366 -0.1988594 0 9.2083322e-06 0 0)
(-1.2026971 -0.2003934 0 -8.7398006e-06 0 0)
(-1.1893639 -0.19894974 0 8.2990023e-06 0 0)
(-1.201898 -0.20030767 0 -7.886166e-06 0 0)
(-1.1901079 -0.19903089 0 7.4987632e-06 0 0)
(-1.2011801 -0.20023057 0 -7.136273e-06 0 0)
(-1.1907788 -0.199104 0 6.7962286e-06 0 0)
(-1.200533 -0.20016102 0 -6.4785359e-06 0 0)
(-1.1913857 -0.19917007 0 6.1813189e-06 0 0)
(-1.1999475 -0.20009807 0 -5.9041084e-06 0 0)
(-1.1919367 -0.19923 0 5.6450622e-06 0 0)
(-1.1994158 -0.20004084 0 -5.404271e-06 0 0)
(-1.1924392 -0.19928461 0 5.179898e-06 0 0)
(-1.1989303 -0.19998858 0 -4.9724157e-06 0 0)
(-1.1928998 -0.19933461 0 4.7800857e-06 0 0)
(-1.1984848 -0.1999406 0 -4.6032633e-06 0 0)
(-1.1933243 -0.19938066 0 4.4401767e-06 0 0)
(-1.1980734 -0.19989627 0 -4.291243e-06 0 0)
(-1.1937182 -0.19942336 0 4.1555571e-06 0 0)
(-1.1976905 -0.19985503 0 -4.0340937e-06 0 0)
(-1.1940865 -0.19946324 0 3.9248949e-06 0 0)
(-1.1973315 -0.19981634 0 -3.828614e-06 0 0)
(-1.1944338 -0.19950082 0 3.745168e-06 0 0)
(-1.1969917 -0.19977973 0 -3.6761827e-06 0 0)
(-1.1947646 -0.19953658 0 3.6128109e-06 0 0)
(-1.1966665 -0.19974478 0 -3.5947815e-06 0 0)
(-1.1950814 -0.19957077 0 3.5512272e-06 0 0)
(-1.1963457 -0.19970955 0 -3.2921034e-06 0 0)
(-1.1953829 -0.19959929 0 4.968943e-06 0 0)
(-1.1960288 -0.19968179 0 -4.9286118e-06 0 0)
(-0.91469766 -0.35615008 0 -0.098293626 0 0)
(-1.0752007 -0.19564435 0 -0.0051748979 0 0)
(-1.0970403 -0.19771556 0 -0.0024793194 0 0)
(-1.1423819 -0.19675281 0 -0.00043659282 0 0)
(-1.101485 -0.19157002 0 -0.00016334252 0 0)
(-1.1362238 -0.19505778 0 -3.1009911e-05 0 0)
(-1.1036145 -0.19139066 0 8.1656485e-06 0 0)
(-1.1334003 -0.19472962 0 -1.2182613e-05 0 0)
(-1.1052611 -0.19156909 0 1.5626351e-05 0 0)
(-1.131646 -0.19455186 0 -1.3849853e-05 0 0)
(-1.1067168 -0.19174102 0 1.3388213e-05 0 0)
(-1.1301771 -0.1943915 0 -1.2796565e-05 0 0)
(-1.1080276 -0.19189213 0 1.1942282e-05 0 0)
(-1.1288825 -0.19424785 0 -1.1412092e-05 0 0)
(-1.1092005 -0.19202662 0 1.0721454e-05 0 0)
(-1.1277338 -0.19412002 0 -1.0189029e-05 0 0)
(-1.1102494 -0.19214667 0 9.6237108e-06 0 0)
(-1.1267117 -0.19400612 0 -9.1276117e-06 0 0)
(-1.1111881 -0.19225395 0 8.6441427e-06 0 0)
(-1.1258001 -0.19390438 0 -8.1987192e-06 0 0)
(-1.1120292 -0.19234996 0 7.7765467e-06 0 0)
(-1.1249851 -0.19381331 0 -7.3817282e-06 0 0)
(-1.1127844 -0.19243604 0 7.011222e-06 0 0)
(-1.1242548 -0.1937316 0 -6.6630085e-06 0 0)
(-1.1134638 -0.1925134 0 6.3371692e-06 0 0)
(-1.1235983 -0.19365807 0 -6.0312637e-06 0 0)
(-1.1140766 -0.19258313 0 5.7449826e-06 0 0)
(-1.1230065 -0.19359171 0 -5.47669e-06 0 0)
(-1.1146313 -0.19264617 0 5.2263137e-06 0 0)
(-1.122471 -0.19353162 0 -4.9920526e-06 0 0)
(-1.115135 -0.19270338 0 4.7735938e-06 0 0)
(-1.1219845 -0.19347698 0 -4.5699337e-06 0 0)
(-1.1155944 -0.19275553 0 4.3805164e-06 0 0)
(-1.1215403 -0.19342705 0 -4.2049059e-06 0 0)
(-1.1160156 -0.19280331 0 4.0424365e-06 0 0)
(-1.1211326 -0.1933812 0 -3.8926599e-06 0 0)
(-1.1164038 -0.19284732 0 3.7547136e-06 0 0)
(-1.1207561 -0.19333881 0 -3.6283259e-06 0 0)
(-1.1167642 -0.19288815 0 3.5134317e-06 0 0)
(-1.1204057 -0.19329936 0 -3.410383e-06 0 0)
(-1.1171011 -0.19292631 0 3.3178192e-06 0 0)
(-1.1200772 -0.19326235 0 -3.2358466e-06 0 0)
(-1.1174188 -0.19296227 0 3.1649968e-06 0 0)
(-1.1197663 -0.1932273 0 -3.1061912e-06 0 0)
(-1.1177213 -0.19299651 0 3.0512327e-06 0 0)
(-1.119469 -0.19319383 0 -3.0393392e-06 0 0)
(-1.1180111 -0.19302929 0 2.9959722e-06 0 0)
(-1.1191755 -0.19316005 0 -2.7382806e-06 0 0)
(-1.1182831 -0.19305644 0 4.3689824e-06 0 0)
(-1.1188709 -0.19313211 0 -4.3951293e-06 0 0)
(-0.89864268 -0.33404839 0 -0.085045281 0 0)
(-0.98919575 -0.18701055 0 -0.0044843115 0 0)
(-1.0129374 -0.19007083 0 -0.0025987513 0 0)
(-1.0632821 -0.18997507 0 -0.00046886838 0 0)
(-1.0277016 -0.18509564 0 -0.00016450008 0 0)
(-1.059891 -0.18841655 0 -2.6529394e-05 0 0)
(-1.0303335 -0.1849317 0 5.5986929e-06 0 0)
(-1.0575472 -0.18810578 0 -9.1208579e-06 0 0)
(-1.0318823 -0.18509754 0 1.3205834e-05 0 0)
(-1.0559639 -0.18793657 0 -1.1360412e-05 0 0)
(-1.0332073 -0.18526043 0 1.1114283e-05 0 0)
(-1.0546255 -0.18778423 0 -1.0622935e-05 0 0)
(-1.0344001 -0.185404 0 9.8961041e-06 0 0)
(-1.0534449 -0.18764771 0 -9.4794005e-06 0 0)
(-1.035468 -0.18553183 0 8.894317e-06 0 0)
(-1.052397 -0.18752616 0 -8.4628593e-06 0 0)
(-1.0364234 -0.18564598 0 7.9910511e-06 0 0)
(-1.0514643 -0.1874178 0 -7.5829405e-06 0 0)
(-1.0372787 -0.18574803 0 7.1823022e-06 0 0)
(-1.0506322 -0.18732098 0 -6.8138644e-06 0 0)
(-1.0380456 -0.1858394 0 6.4646542e-06 0 0)
(-1.0498881 -0.18723427 0 -6.1373617e-06 0 0)
(-1.0387343 -0.18592136 0 5.8309575e-06 0 0)
(-1.049221 -0.18715643 0 -5.5419431e-06 0 0)
(-1.0393541 -0.18599506 0 5.272274e-06 0 0)
(-1.0486214 -0.18708636 0 -5.0182122e-06 0 0)
(-1.0399135 -0.18606151 0 4.7810077e-06 0 0)
(-1.0480806 -0.1870231 0 -4.5579795e-06 0 0)
(-1.0404199 -0.18612162 0 4.3503832e-06 0 0)
(-1.0475912 -0.18696579 0 -4.1554803e-06 0 0)
(-1.0408799 -0.18617619 0 3.9741013e-06 0 0)
(-1.0471465 -0.18691365 0 -3.8044727e-06 0 0)
(-1.0412996 -0.18622595 0 3.6470032e-06 0 0)
(-1.0467405 -0.186866 0 -3.5006098e-06 0 0)
(-1.0416844 -0.18627156 0 3.3654378e-06 0 0)
(-1.0463677 -0.18682221 0 -3.2404536e-06 0 0)
(-1.0420392 -0.18631359 0 3.1254822e-06 0 0)
(-1.0460235 -0.18678172 0 -3.0197578e-06 0 0)
(-1.0423685 -0.1863526 0 2.9238693e-06 0 0)
(-1.0457032 -0.18674402 0 -2.8376909e-06 0 0)
(-1.0426764 -0.18638907 0 2.7603091e-06 0 0)
(-1.0454028 -0.18670863 0 -2.6914273e-06 0 0)
(-1.0429668 -0.18642345 0 2.6320353e-06 0 0)
(-1.0451186 -0.18667512 0 -2.5824876e-06 0 0)
(-1.0432432 -0.1864562 0 2.5352329e-06 0 0)
(-1.0448471 -0.1866431 0 -2.5284713e-06 0 0)
(-1.0435081 -0.1864876 0 2.4856223e-06 0 0)
(-1.0445788 -0.18661075 0 -2.2316319e-06 0 0)
(-1.0437533 -0.18651349 0 3.7938109e-06 0 0)
(-1.0442878 -0.18658277 0 -3.8925035e-06 0 0)
(-0.88670392 -0.32097011 0 -0.078058272 0 0)
(-0.91104422 -0.17890483 0 -0.0041071792 0 0)
(-0.93702242 -0.18250112 0 -0.0024123973 0 0)
(-0.98695696 -0.18300933 0 -0.00043123945 0 0)
(-0.95629694 -0.17854027 0 -0.00014434336 0 0)
(-0.98604947 -0.18174225 0 -1.6374955e-05 0 0)
(-0.95939489 -0.17845405 0 5.2314453e-06 0 0)
(-0.98429256 -0.18147802 0 -5.6931438e-06 0 0)
(-0.96094876 -0.17862087 0 1.118454e-05 0 0)
(-0.98292062 -0.1813224 0 -9.0167835e-06 0 0)
(-0.96218082 -0.17877727 0 9.047866e-06 0 0)
(-0.98171558 -0.18117869 0 -8.6221352e-06 0 0)
(-0.96327115 -0.17891394 0 8.0204051e-06 0 0)
(-0.98064314 -0.18104923 0 -7.7048075e-06 0 0)
(-0.96424367 -0.17903542 0 7.2171335e-06 0 0)
(-0.97968887 -0.18093377 0 -6.8780199e-06 0 0)
(-0.96511318 -0.17914389 0 6.49169e-06 0 0)
(-0.97883886 -0.18083078 0 -6.1643747e-06 0 0)
(-0.96589182 -0.1792409 0 5.8393831e-06 0 0)
(-0.97808025 -0.18073871 0 -5.5416781e-06 0 0)
(-0.96659011 -0.17932778 0 5.2591236e-06 0 0)
(-0.97740166 -0.18065622 0 -4.993884e-06 0 0)
(-0.9672175 -0.17940576 0 4.7460752e-06 0 0)
(-0.97679316 -0.18058213 0 -4.5114655e-06 0 0)
(-0.96778242 -0.1794759 0 4.2931723e-06 0 0)
(-0.97624601 -0.18051542 0 -4.0867557e-06 0 0)
(-0.96829239 -0.17953917 0 3.8944604e-06 0 0)
(-0.97575248 -0.18045516 0 -3.7130426e-06 0 0)
(-0.96875419 -0.17959643 0 3.5446104e-06 0 0)
(-0.97530576 -0.18040054 0 -3.385892e-06 0 0)
(-0.96917384 -0.17964844 0 3.2384765e-06 0 0)
(-0.97489975 -0.18035084 0 -3.1001412e-06 0 0)
(-0.96955681 -0.17969589 0 2.9719461e-06 0 0)
(-0.974529 -0.18030539 0 -2.8524242e-06 0 0)
(-0.96990799 -0.17973938 0 2.7422724e-06 0 0)
(-0.97418865 -0.18026362 0 -2.6400903e-06 0 0)
(-0.97023181 -0.17977949 0 2.5461823e-06 0 0)
(-0.97387426 -0.18022498 0 -2.4594652e-06 0 0)
(-0.9705324 -0.17981672 0 2.3809969e-06 0 0)
(-0.97358179 -0.18018899 0 -2.3103294e-06 0 0)
(-0.97081342 -0.17985154 0 2.2468465e-06 0 0)
(-0.97330756 -0.18015519 0 -2.1899874e-06 0 0)
(-0.97107841 -0.17988438 0 2.1410639e-06 0 0)
(-0.97304813 -0.18012317 0 -2.0999851e-06 0 0)