/*--------------------------------*- C++ -*----------------------------------*\
| =========                 |                                                 |
| \\      /  F ield         | OpenFOAM: The Open Source CFD Toolbox           |
|  \\    /   O peration     | Version:  2312                                  |
|   \\  /    A nd           | Website:  www.openfoam.com                      |
|    \\/     M anipulation  |                                                 |
\*---------------------------------------------------------------------------*/
FoamFile
{
    version     2.0;
    format      ascii;
    arch        "LSB;label=32;scalar=64";
    class       volVectorField;
    location    "2";
    object      U_0;
}
// * * * * * * * * * * * * * * * * * * * * * * * * * * * * * * * * * * * * * //

dimensions      [0 1 -1 0 0 0 0];

internalField   nonuniform List<vector> 
4000
(
(0.002329851 0.00042481942 0)
(0.0030385824 -6.522788e-06 0)
(0.0024269925 -3.4528826e-07 0)
(0.002570472 2.2737329e-07 0)
(0.0024856212 -2.6314878e-07 0)
(0.0025441091 2.3735616e-07 0)
(0.0024901297 -2.2432958e-07 0)
(0.0025391924 2.1102018e-07 0)
(0.002493425 -1.9848879e-07 0)
(0.0025362894 1.8711131e-07 0)
(0.0024959555 -1.7652306e-07 0)
(0.0025338777 1.6650603e-07 0)
(0.002498171 -1.5717877e-07 0)
(0.0025317665 1.4838116e-07 0)
(0.0025001452 -1.4014775e-07 0)
(0.0025298965 1.324125e-07 0)
(0.0025019038 -1.2515903e-07 0)
(0.0025282347 1.1835772e-07 0)
(0.0025034701 -1.1197668e-07 0)
(0.0025267549 1.0599991e-07 0)
(0.0025048664 -1.0039271e-07 0)
(0.0025254348 9.5145361e-08 0)
(0.0025061135 -9.022428e-08 0)
(0.0025242544 8.5623368e-08 0)
(0.00250723 -8.1311433e-08 0)
(0.0025231961 7.728456e-08 0)
(0.0025082325 -7.3514581e-08 0)
(0.0025222441 6.9999327e-08 0)
(0.002509136 -6.6713239e-08 0)
(0.0025213845 6.3655375e-08 0)
(0.0025099535 -6.0803182e-08 0)
(0.0025206047 5.8156365e-08 0)
(0.002510697 -5.5695102e-08 0)
(0.0025198936 5.3419558e-08 0)
(0.002511377 -5.1312591e-08 0)
(0.0025192413 4.9374581e-08 0)
(0.0025120029 -4.7591032e-08 0)
(0.0025186387 4.5962421e-08 0)
(0.0025125834 -4.4476428e-08 0)
(0.0025180775 4.3133498e-08 0)
(0.0025131263 -4.1923878e-08 0)
(0.0025175505 4.0848089e-08 0)
(0.0025136387 -3.9898516e-08 0)
(0.0025170504 3.9075615e-08 0)
(0.0025141271 -3.8376149e-08 0)
(0.00251657 3.7790936e-08 0)
(0.002514598 -3.735301e-08 0)
(0.0025161197 3.7023089e-08 0)
(0.002515153 -3.6491484e-08 0)
(0.0025160417 3.9105856e-08 0)
(0.0062444316 0.0011592026 0)
(0.0085462793 7.0942405e-07 0)
(0.0071172979 4.7810543e-06 0)
(0.0074491507 3.0319551e-07 0)
(0.0072149688 -6.0362522e-07 0)
(0.0073858759 8.1958852e-07 0)
(0.0072268792 -7.6320705e-07 0)
(0.007372379 7.3638173e-07 0)
(0.0072366293 -6.9739144e-07 0)
(0.0073639499 6.6031338e-07 0)
(0.0072441316 -6.2259955e-07 0)
(0.0073568207 5.8825885e-07 0)
(0.007250709 -5.549794e-07 0)
(0.007350562 5.2424735e-07 0)
(0.0072565718 -4.9509313e-07 0)
(0.0073450155 4.6790373e-07 0)
(0.0072617954 -4.4230708e-07 0)
(0.0073400843 4.1835068e-07 0)
(0.0072664496 -3.9585739e-07 0)
(0.007335691 3.7478898e-07 0)
(0.0072706012 -3.5502813e-07 0)
(0.0073317689 3.3652309e-07 0)
(0.0072743119 -3.1917873e-07 0)
(0.0073282591 3.0294793e-07 0)
(0.0072776368 -2.8774677e-07 0)
(0.0073251093 2.7353766e-07 0)
(0.0072806253 -2.6024413e-07 0)
(0.0073222729 2.4783594e-07 0)
(0.0072833213 -2.3624603e-07 0)
(0.0073197087 2.2545018e-07 0)
(0.0072857639 -2.1538793e-07 0)
(0.0073173798 2.060408e-07 0)
(0.007287988 -1.9735558e-07 0)
(0.0073152531 1.8931797e-07 0)
(0.007290025 -1.8188156e-07 0)
(0.0073132993 1.7503539e-07 0)
(0.0072919027 -1.6873893e-07 0)
(0.0073114914 1.6298344e-07 0)
(0.0072936471 -1.5773557e-07 0)
(0.0073098049 1.5298941e-07 0)
(0.0072952814 -1.4871665e-07 0)
(0.0073082176 1.4491128e-07 0)
(0.0072968272 -1.4155143e-07 0)
(0.0073067084 1.386396e-07 0)
(0.007298304 -1.3613151e-07 0)
(0.0073052547 1.3409127e-07 0)
(0.0072997281 -1.3258994e-07 0)
(0.0073038621 1.3008081e-07 0)
(0.007301312 -1.3523445e-07 0)
(0.0073033986 1.2554366e-07 0)
(0.010010557 0.0018391309 0)
(0.013790306 -7.7777333e-06 0)
(0.011688551 1.2292313e-05 0)
(0.012202895 4.6640622e-07 0)
(0.011818341 -9.2170777e-07 0)
(0.012106097 1.4816474e-06 0)
(0.01183897 -1.3737625e-06 0)
(0.0120844 1.3334684e-06 0)
(0.011855506 -1.2674023e-06 0)
(0.012070339 1.2012147e-06 0)
(0.011868159 -1.1325053e-06 0)
(0.012058341 1.0705612e-06 0)
(0.011879256 -1.0098221e-06 0)
(0.012047793 9.5405844e-07 0)
(0.011889146 -9.0099007e-07 0)
(0.012038442 8.5155346e-07 0)
(0.011897957 -8.0501446e-07 0)
(0.012030127 7.6142746e-07 0)
(0.011905809 -7.2054423e-07 0)
(0.012022717 6.8220338e-07 0)
(0.011912815 -6.4628532e-07 0)
(0.0120161 6.1260534e-07 0)
(0.011919079 -5.8107659e-07 0)
(0.012010175 5.5153399e-07 0)
(0.011924695 -5.2389691e-07 0)
(0.012004856 4.9803126e-07 0)
(0.011929744 -4.7385704e-07 0)
(0.012000064 4.512681e-07 0)
(0.011934302 -4.3018807e-07 0)
(0.01199573 4.1053156e-07 0)
(0.011938433 -3.9222637e-07 0)
(0.011991791 3.7520508e-07 0)
(0.011942197 -3.5940105e-07 0)
(0.011988192 3.4476141e-07 0)
(0.011945646 -3.3122698e-07 0)
(0.011984883 3.1875449e-07 0)
(0.011948828 -3.0729188e-07 0)
(0.011981819 2.9680304e-07 0)
(0.011951786 -2.8724448e-07 0)
(0.011978959 2.7859066e-07 0)
(0.01195456 -2.7080338e-07 0)
(0.011976264 2.6385745e-07 0)
(0.011957185 -2.5772667e-07 0)
(0.0119737 2.5240332e-07 0)
(0.011959697 -2.4779755e-07 0)
(0.011971227 2.4408984e-07 0)
(0.011962121 -2.4125291e-07 0)
(0.011968839 2.3620996e-07 0)
(0.011964755 -2.4911282e-07 0)
(0.011967852 2.2730975e-07 0)
(0.013907154 0.0025312373 0)
(0.018808074 -1.7869616e-05 0)
(0.01613699 2.2466084e-05 0)
(0.016831355 4.2201611e-07 0)
(0.016295611 -1.0514998e-06 0)
(0.016705006 2.1006688e-06 0)
(0.016326222 -1.9487891e-06 0)
(0.016675475 1.9012523e-06 0)
(0.016349879 -1.8153817e-06 0)
(0.016655662 1.7221257e-06 0)
(0.016367879 -1.6235621e-06 0)
(0.016638624 1.5355182e-06 0)
(0.016383665 -1.4481693e-06 0)
(0.016623627 1.3684197e-06 0)
(0.016397733 -1.2923139e-06 0)
(0.01661033 1.2214594e-06 0)
(0.016410267 -1.1547964e-06 0)
(0.016598503 1.0922828e-06 0)
(0.016421437 -1.033738e-06 0)
(0.016587961 9.7873677e-07 0)
(0.016431405 -9.2730109e-07 0)
(0.016578544 8.7898112e-07 0)
(0.016440321 -8.3382413e-07 0)
(0.016570112 7.9143556e-07 0)
(0.016448315 -7.5184395e-07 0)
(0.016562539 7.1472918e-07 0)
(0.016455505 -6.8009226e-07 0)
(0.016555714 6.476739e-07 0)
(0.016461998 -6.1746463e-07 0)
(0.016549538 5.8925231e-07 0)
(0.016467885 -5.6301363e-07 0)
(0.016543924 5.3857956e-07 0)
(0.01647325 -5.1592122e-07 0)
(0.016538793 4.9490292e-07 0)
(0.016478169 -4.7549425e-07 0)
(0.016534074 4.5758454e-07 0)
(0.016482707 -4.41142e-07 0)
(0.016529703 4.2607482e-07 0)
(0.016486928 -4.1235961e-07 0)
(0.016525621 3.9992603e-07 0)
(0.016490887 -3.8874913e-07 0)
(0.016521774 3.7876272e-07 0)
(0.016494637 -3.6995545e-07 0)
(0.016518111 3.6229503e-07 0)
(0.016498225 -3.5564697e-07 0)
(0.016514578 3.5035765e-07 0)
(0.01650169 -3.4617515e-07 0)
(0.016511147 3.3827984e-07 0)
(0.016505394 -3.6206061e-07 0)
(0.016509493 3.2543733e-07 0)
(0.017374477 0.0030361605 0)
(0.023610313 -3.6256185e-05 0)
(0.020464784 3.5100237e-05 0)
(0.021334048 1.9688194e-07 0)
(0.020646846 -9.9467689e-07 0)
(0.021182517 2.6442324e-06 0)
(0.020688753 -2.4668398e-06 0)
(0.021145479 2.415054e-06 0)
(0.020719847 -2.3191606e-06 0)
(0.021119806 2.2016223e-06 0)
(0.020743377 -2.0756046e-06 0)
(0.021097572 1.9640647e-06 0)
(0.020764012 -1.8520019e-06 0)
(0.021077981 1.7503438e-06 0)
(0.020782398 -1.6529826e-06 0)
(0.021060605 1.562461e-06 0)
(0.020798779 -1.4772843e-06 0)
(0.021045148 1.3973595e-06 0)
(0.020813379 -1.3225797e-06 0)
(0.021031368 1.2522412e-06 0)
(0.020826411 -1.1865382e-06 0)
(0.021019056 1.1247347e-06 0)
(0.020838068 -1.0670453e-06 0)
(0.021008029 1.0128237e-06 0)
(0.020848523 -9.6223528e-07 0)
(0.020998123 9.1475386e-07 0)
(0.02085793 -8.704858e-07 0)
(0.020989194 8.2900901e-07 0)
(0.020866424 -7.9039244e-07 0)
(0.020981113 7.5429183e-07 0)
(0.020874129 -7.2074397e-07 0)
(0.020973765 6.8947347e-07 0)
(0.020881152 -6.6049638e-07 0)
(0.020967048 6.3359254e-07 0)
(0.020887592 -6.0876714e-07 0)
(0.020960869 5.8583838e-07 0)
(0.020893535 -5.6480297e-07 0)
(0.020955145 5.4550893e-07 0)
(0.020899063 -5.2795615e-07 0)
(0.020949798 5.1203055e-07 0)
(0.020904249 -4.9772227e-07 0)
(0.020944759 4.8492308e-07 0)
(0.020909161 -4.736428e-07 0)
(0.02093996 4.6382015e-07 0)
(0.020913864 -4.5526734e-07 0)
(0.02093533 4.4855306e-07 0)
(0.020918405 -4.4303996e-07 0)
(0.02093082 4.3222721e-07 0)
(0.020923196 -4.6911125e-07 0)
(0.020928376 4.1588272e-07 0)
(0.021308356 0.0037033516 0)
(0.028172525 -5.0616595e-05 0)
(0.024668555 4.9035987e-05 0)
(0.025709759 -1.9850702e-07 0)
(0.024872323 -7.8830237e-07 0)
(0.025538271 3.1081988e-06 0)
(0.024926992 -2.9331903e-06 0)
(0.025494052 2.8767122e-06 0)
(0.024965762 -2.7813922e-06 0)
(0.025462448 2.6417013e-06 0)
(0.024994962 -2.4906307e-06 0)
(0.025434901 2.3579902e-06 0)
(0.025020568 -2.223048e-06 0)
(0.025410602 2.1014351e-06 0)
(0.025043382 -1.9845276e-06 0)
(0.025389044 1.8759888e-06 0)
(0.025063707 -1.7738372e-06 0)
(0.025369864 1.677931e-06 0)
(0.025081824 -1.5882743e-06 0)
(0.025352763 1.5038489e-06 0)
(0.025097998 -1.4250727e-06 0)
(0.025337481 1.3508814e-06 0)
(0.025112469 -1.2817028e-06 0)
(0.02532379 1.2166045e-06 0)
(0.02512545 -1.1559282e-06 0)
(0.025311489 1.0989181e-06 0)
(0.025137132 -1.0458131e-06 0)
(0.025300399 9.960037e-07 0)
(0.025147683 -9.4966993e-07 0)
(0.02529036 9.0631271e-07 0)
(0.025157255 -8.6605137e-07 0)
(0.025281231 8.2848877e-07 0)
(0.025165982 -7.9370555e-07 0)
(0.025272884 7.6138367e-07 0)
(0.025173984 -7.31578e-07 0)
(0.025265205 7.0402792e-07 0)
(0.02518137 -6.7876522e-07 0)
(0.025258091 6.5557379e-07 0)
(0.025188241 -6.344883e-07 0)
(0.025251445 6.1534386e-07 0)
(0.025194687 -5.9815202e-07 0)
(0.025245181 5.8275708e-07 0)
(0.025200793 -5.6919324e-07 0)
(0.025239216 5.5736974e-07 0)
(0.025206638 -5.4704196e-07 0)
(0.025233462 5.3904296e-07 0)
(0.025212284 -5.3219582e-07 0)
(0.025227845 5.1846631e-07 0)
(0.025218177 -5.7005588e-07 0)
(0.025224507 4.9853075e-07 0)
(0.024424047 0.0040069072 0)
(0.03251739 -8.1183452e-05 0)
(0.02875869 6.4052006e-05 0)
(0.029956319 -6.4188603e-07 0)
(0.028972247 -4.644064e-07 0)
(0.029771873 3.489642e-06 0)
(0.029041388 -3.354835e-06 0)
(0.029720813 3.2893822e-06 0)
(0.029087994 -3.2058838e-06 0)
(0.029683243 3.0455388e-06 0)
(0.029122959 -2.8717138e-06 0)
(0.029650302 2.7201174e-06 0)
(0.029153623 -2.5639969e-06 0)
(0.029621217 2.4242117e-06 0)
(0.02918094 -2.2893326e-06 0)
(0.029595406 2.1642902e-06 0)
(0.029205277 -2.0465781e-06 0)
(0.029572439 1.9360021e-06 0)
(0.029226973 -1.8327195e-06 0)
(0.029551956 1.7353526e-06 0)
(0.029246346 -1.6445969e-06 0)
(0.02953365 1.5590189e-06 0)
(0.029263682 -1.4793104e-06 0)
(0.029517246 1.4042137e-06 0)
(0.029279236 -1.334289e-06 0)
(0.029502504 1.2685144e-06 0)
(0.029293237 -1.2073001e-06 0)
(0.029489211 1.149828e-06 0)
(0.029305885 -1.0964089e-06 0)
(0.029477177 1.0463745e-06 0)
(0.02931736 -9.9994662e-07 0)
(0.029466231 9.5659273e-07 0)
(0.029327823 -9.1647234e-07 0)
(0.029456222 8.7916062e-07 0)
(0.029337419 -8.4477591e-07 0)
(0.029447014 8.1296726e-07 0)
(0.029346277 -7.8381788e-07 0)
(0.029438481 7.5703515e-07 0)
(0.029354518 -7.3269654e-07 0)
(0.02943051 7.1058261e-07 0)
(0.029362249 -6.9073276e-07 0)
(0.029422998 6.7293767e-07 0)
(0.029369572 -6.5726848e-07 0)
(0.029415844 6.4359243e-07 0)
(0.029376582 -6.3160972e-07 0)
(0.029408943 6.2245058e-07 0)
(0.029383354 -6.1425281e-07 0)
(0.0294022 5.976778e-07 0)
(0.029390358 -6.6500496e-07 0)
(0.029397878 5.7372467e-07 0)
(0.028439851 0.0046686551 0)
(0.036643327 -9.5621979e-05 0)
(0.03272954 7.9119914e-05 0)
(0.034071984 -9.6400804e-07 0)
(0.032946404 -6.0122407e-08 0)
(0.033882987 3.7788371e-06 0)
(0.033032361 -3.7347044e-06 0)
(0.033825436 3.6532268e-06 0)
(0.033086873 -3.5934779e-06 0)
(0.033781885 3.4135011e-06 0)
(0.033127656 -3.2192921e-06 0)
(0.033743504 3.0507778e-06 0)
(0.033163431 -2.8751867e-06 0)
(0.033709586 2.718977e-06 0)
(0.033195298 -2.5676866e-06 0)
(0.033679479 2.4276308e-06 0)
(0.03322369 -2.2957546e-06 0)
(0.033652682 2.1718035e-06 0)
(0.033249005 -2.0561241e-06 0)
(0.03362878 1.9469491e-06 0)
(0.033271613 -1.8452961e-06 0)
(0.033607413 1.7493254e-06 0)
(0.033291847 -1.660032e-06 0)
(0.033588264 1.5758042e-06 0)
(0.033310007 -1.4974537e-06 0)
(0.033571052 1.4236763e-06 0)
(0.033326354 -1.3550734e-06 0)
(0.033555528 1.290597e-06 0)
(0.033341125 -1.2307196e-06 0)
(0.033541471 1.1745821e-06 0)
(0.033354529 -1.122529e-06 0)
(0.033528685 1.0738783e-06 0)
(0.033366752 -1.0288874e-06 0)
(0.033516992 9.8701151e-07 0)
(0.033377964 -9.4844526e-07 0)
(0.033506232 9.1274091e-07 0)
(0.033388314 -8.8003685e-07 0)
(0.033496262 8.4996222e-07 0)
(0.033397943 -8.2264916e-07 0)
(0.033486948 7.9781565e-07 0)
(0.033406976 -7.7553489e-07 0)
(0.033478169 7.5553913e-07 0)
(0.033415533 -7.3793729e-07 0)
(0.03346981 7.2255548e-07 0)
(0.033423724 -7.0904109e-07 0)
(0.03346175 6.9884361e-07 0)
(0.033431637 -6.8928684e-07 0)
(0.033453865 6.6999153e-07 0)
(0.033439757 -7.5361595e-07 0)
(0.033448486 6.4145602e-07 0)
(0.031282322 0.0048141725 0)
(0.040528991 -0.00013933903 0)
(0.036590329 9.3788262e-05 0)
(0.038055893 -1.4700305e-06 0)
(0.036794895 3.11834e-07 0)
(0.037871366 3.9510947e-06 0)
(0.036900298 -4.0750864e-06 0)
(0.037807653 3.968131e-06 0)
(0.036962701 -3.9436558e-06 0)
(0.03775811 3.7452688e-06 0)
(0.037009311 -3.532923e-06 0)
(0.03771427 3.3495618e-06 0)
(0.037050218 -3.1562192e-06 0)
(0.037675498 2.9853486e-06 0)
(0.037086656 -2.819221e-06 0)
(0.037641073 2.6656642e-06 0)
(0.037119124 -2.52103e-06 0)
(0.037610427 2.3850182e-06 0)
(0.037148077 -2.2581853e-06 0)
(0.037583086 2.1383509e-06 0)
(0.037173938 -2.0268867e-06 0)
(0.03755864 1.9215278e-06 0)
(0.03719709 -1.823604e-06 0)
(0.037536727 1.7311272e-06 0)
(0.03721787 -1.6451883e-06 0)
(0.037517027 1.5641752e-06 0)
(0.037236582 -1.4889092e-06 0)
(0.037499257 1.4181027e-06 0)
(0.037253491 -1.3523976e-06 0)
(0.037483163 1.2907399e-06 0)
(0.037268838 -1.2336085e-06 0)
(0.037468522 1.1801659e-06 0)
(0.037282835 -1.1307737e-06 0)
(0.037455131 1.0847652e-06 0)
(0.037295675 -1.0424199e-06 0)
(0.037442807 1.0031856e-06 0)
(0.03730753 -9.6727007e-07 0)
(0.037431388 9.3421397e-07 0)
(0.037318559 -9.0420795e-07 0)
(0.037420719 8.7690781e-07 0)
(0.037328905 -8.5242388e-07 0)
(0.037410664 8.3042631e-07 0)
(0.037338706 -8.1107423e-07 0)
(0.03740109 7.9413968e-07 0)
(0.037348088 -7.7922256e-07 0)
(0.03739186 7.6810815e-07 0)
(0.03735715 -7.5719575e-07 0)
(0.037382827 7.3535817e-07 0)
(0.037366388 -8.3544815e-07 0)
(0.037376329 7.0162352e-07 0)
(0.035259303 0.0053993927 0)
(0.044233263 -0.00015254207 0)
(0.040329747 0.00010855638 0)
(0.041911043 -2.249598e-06 0)
(0.040518572 5.2378621e-07 0)
(0.04173672 3.9638793e-06 0)
(0.040645485 -4.3853653e-06 0)
(0.041667187 4.2319338e-06 0)
(0.040715732 -4.2569552e-06 0)
(0.041611675 4.040507e-06 0)
(0.040768152 -3.8124723e-06 0)
(0.041562383 3.6162464e-06 0)
(0.040814188 -3.406909e-06 0)
(0.041518761 3.2231352e-06 0)
(0.040855196 -3.0437552e-06 0)
(0.041480018 2.8782105e-06 0)
(0.040891738 -2.7222291e-06 0)
(0.041445521 2.5754758e-06 0)
(0.040924331 -2.4387291e-06 0)
(0.04141474 2.3093927e-06 0)
(0.040953449 -2.1892106e-06 0)
(0.041387211 2.0754795e-06 0)
(0.040979521 -1.9698805e-06 0)
(0.04136253 1.8700413e-06 0)
(0.041002928 -1.777346e-06 0)
(0.041340338 1.6898769e-06 0)
(0.041024007 -1.6086789e-06 0)
(0.041320315 1.5322154e-06 0)
(0.041043061 -1.4613201e-06 0)
(0.04130218 1.3947302e-06 0)
(0.041060356 -1.3330709e-06 0)
(0.041285678 1.2753428e-06 0)
(0.041076132 -1.222025e-06 0)
(0.041270583 1.1723209e-06 0)
(0.041090606 -1.126602e-06 0)
(0.041256691 1.0842111e-06 0)
(0.04110397 -1.0454223e-06 0)
(0.041243816 1.0096923e-06 0)
(0.041116403 -9.7727906e-07 0)
(0.041231788 9.4777046e-07 0)
(0.041128068 -9.2131682e-07 0)
(0.041220452 8.9752515e-07 0)
(0.041139118 -8.7660054e-07 0)
(0.041209659 8.5826656e-07 0)
(0.041149694 -8.4208035e-07 0)
(0.041199256 8.3016854e-07 0)
(0.041159911 -8.1791955e-07 0)
(0.041189073 7.937442e-07 0)
(0.041170264 -9.1011233e-07 0)
(0.041181407 7.5423917e-07 0)
(0.038087479 0.0054840453 0)
(0.047699196 -0.00020751963 0)
(0.043942736 0.00012155875 0)
(0.045642274 -2.4224451e-06 0)
(0.044121297 7.9865208e-07 0)
(0.045479244 3.8760755e-06 0)
(0.044268311 -4.6522313e-06 0)
(0.045403819 4.4489042e-06 0)
(0.044346208 -4.5325687e-06 0)
(0.045342362 4.2996538e-06 0)
(0.044404389 -4.057968e-06 0)
(0.045287647 3.8509323e-06 0)
(0.044455526 -3.6273201e-06 0)
(0.045239198 3.4323942e-06 0)
(0.044501082 -3.2413334e-06 0)
(0.045196158 3.065313e-06 0)
(0.044541681 -2.8993829e-06 0)
(0.045157827 2.7432064e-06 0)
(0.044577899 -2.5977831e-06 0)
(0.045123617 2.4600973e-06 0)
(0.044610261 -2.332278e-06 0)
(0.045093016 2.2111835e-06 0)
(0.044639245 -2.0988608e-06 0)
(0.045065575 1.992546e-06 0)
(0.04466527 -1.8939308e-06 0)
(0.045040897 1.8007766e-06 0)
(0.044688712 -1.7143712e-06 0)
(0.045018627 1.6329302e-06 0)
(0.044709905 -1.5574747e-06 0)
(0.044998453 1.4865399e-06 0)
(0.044729145 -1.4209005e-06 0)
(0.044980094 1.3593961e-06 0)
(0.044746698 -1.302623e-06 0)
(0.044963297 1.2496588e-06 0)
(0.044762803 -1.2009703e-06 0)
(0.044947838 1.155792e-06 0)
(0.044777675 -1.1144759e-06 0)
(0.04493351 1.0763867e-06 0)
(0.044791512 -1.0418496e-06 0)
(0.044920124 1.0103889e-06 0)
(0.044804495 -9.8219523e-07 0)
(0.044907508 9.5681105e-07 0)
(0.044816791 -9.3449977e-07 0)
(0.044895496 9.149235e-07 0)
(0.044828561 -8.9760412e-07 0)
(0.044883921 8.8501111e-07 0)
(0.044839931 -8.7145742e-07 0)
(0.044872592 8.4517794e-07 0)
(0.044851392 -9.773454e-07 0)
(0.044863719 7.9937571e-07 0)
(0.041960057 0.0059258408 0)
(0.051042413 -0.00021990179 0)
(0.047424418 0.00013328406 0)
(0.049249585 -2.3370452e-06 0)
(0.047604684 1.0316376e-06 0)
(0.049098805 3.6763582e-06 0)
(0.047769048 -4.8805444e-06 0)
(0.049017334 4.6188701e-06 0)
(0.047854343 -4.7711947e-06 0)
(0.048949968 4.5229551e-06 0)
(0.047918211 -4.2697285e-06 0)
(0.048889882 4.0538509e-06 0)
(0.047974401 -3.8176895e-06 0)
(0.048836651 3.6133342e-06 0)
(0.048024465 -3.4121526e-06 0)
(0.048789351 3.2271464e-06 0)
(0.048069087 -3.0526526e-06 0)
(0.048747217 2.8883559e-06 0)
(0.0481089 -2.7354718e-06 0)
(0.048709605 2.5905819e-06 0)
(0.048144482 -2.4561996e-06 0)
(0.048675955 2.3287481e-06 0)
(0.048176355 -2.2106407e-06 0)
(0.048645773 2.0987286e-06 0)
(0.048204981 -1.9950117e-06 0)
(0.048618625 1.896946e-06 0)
(0.048230771 -1.806054e-06 0)
(0.048594122 1.7203028e-06 0)
(0.04825409 -1.6409169e-06 0)
(0.048571922 1.5662207e-06 0)
(0.048275263 -1.4971451e-06 0)
(0.048551715 1.4323675e-06 0)
(0.048294583 -1.3726098e-06 0)
(0.048533227 1.3168203e-06 0)
(0.048312311 -1.2655642e-06 0)
(0.048516209 1.2179704e-06 0)
(0.048328683 -1.1744615e-06 0)
(0.048500435 1.134319e-06 0)
(0.048343917 -1.0979425e-06 0)
(0.048485697 1.0647877e-06 0)
(0.04835821 -1.0350867e-06 0)
(0.048471806 1.0083191e-06 0)
(0.048371748 -9.8479797e-07 0)
(0.048458582 9.6413374e-07 0)
(0.048384705 -9.4581949e-07 0)
(0.048445842 9.3265764e-07 0)
(0.048397223 -9.1784822e-07 0)
(0.048433374 8.8970508e-07 0)
(0.048409783 -1.0369234e-06 0)
(0.048423266 8.3720011e-07 0)
(0.044898705 0.0059983234 0)
(0.054163467 -0.00027611298 0)
(0.050783645 0.00014094963 0)
(0.052730934 -2.8780575e-06 0)
(0.050968776 1.0747742e-06 0)
(0.052595262 3.3516567e-06 0)
(0.05114791 -5.075894e-06 0)
(0.052507554 4.742427e-06 0)
(0.051240343 -4.9731263e-06 0)
(0.052434317 4.7110201e-06 0)
(0.051309795 -4.4480886e-06 0)
(0.052368925 4.2253935e-06 0)
(0.051370969 -3.978343e-06 0)
(0.052310974 3.7662675e-06 0)
(0.051425482 -3.5564933e-06 0)
(0.052259467 3.3639799e-06 0)
(0.051474078 -3.1822815e-06 0)
(0.052213575 3.0111562e-06 0)
(0.051517443 -2.8520147e-06 0)
(0.052172601 2.7010508e-06 0)
(0.051556208 -2.5611566e-06 0)
(0.052135935 2.4283377e-06 0)
(0.051590939 -2.305373e-06 0)
(0.052103043 2.1887344e-06 0)
(0.051622138 -2.0807329e-06 0)
(0.05207345 1.9785126e-06 0)
(0.051650251 -1.8838414e-06 0)
(0.052046737 1.7944484e-06 0)
(0.051675675 -1.7117477e-06 0)
(0.05202253 1.6338681e-06 0)
(0.051698763 -1.5618926e-06 0)
(0.052000494 1.4943433e-06 0)
(0.051719833 -1.4320619e-06 0)
(0.051980329 1.3738761e-06 0)
(0.051739169 -1.3204488e-06 0)
(0.051961765 1.2708033e-06 0)
(0.051757028 -1.2254427e-06 0)
(0.051944558 1.1835586e-06 0)
(0.051773647 -1.1456212e-06 0)
(0.05192848 1.111026e-06 0)
(0.051789239 -1.080044e-06 0)
(0.051913326 1.0520921e-06 0)
(0.051804008 -1.027546e-06 0)
(0.0518989 1.0059514e-06 0)
(0.051818142 -9.8678087e-07 0)
(0.051885006 9.7315868e-07 0)
(0.051831797 -9.571557e-07 0)
(0.051871411 9.2740623e-07 0)
(0.051845444 -1.0887193e-06 0)
(0.051860048 8.6788823e-07 0)
(0.048603441 0.0062918685 0)
(0.057196898 -0.0002874832 0)
(0.05401704 0.00014918788 0)
(0.05608828 -3.220888e-06 0)
(0.054213465 1.0583422e-06 0)
(0.055968614 2.9536948e-06 0)
(0.054405112 -5.2280847e-06 0)
(0.055874307 4.8231354e-06 0)
(0.054504382 -5.1383181e-06 0)
(0.055795243 4.8645794e-06 0)
(0.054579297 -4.5935282e-06 0)
(0.055724628 4.3660339e-06 0)
(0.054645371 -4.1097197e-06 0)
(0.055662034 3.8916043e-06 0)
(0.054704261 -3.6747394e-06 0)
(0.055606386 3.4761659e-06 0)
(0.054756766 -3.288599e-06 0)
(0.055556796 3.1119116e-06 0)
(0.054803629 -2.9476859e-06 0)
(0.05551251 2.7917627e-06 0)
(0.054845529 -2.6473955e-06 0)
(0.055472873 2.5101895e-06 0)
(0.054883076 -2.3832758e-06 0)
(0.055437309 2.2627666e-06 0)
(0.054916811 -2.1512719e-06 0)
(0.055405306 2.0456519e-06 0)
(0.054947215 -1.947901e-06 0)
(0.055376413 1.8555169e-06 0)
(0.054974715 -1.7701135e-06 0)
(0.055350225 1.6896203e-06 0)
(0.054999693 -1.6152735e-06 0)
(0.055326384 1.545444e-06 0)
(0.055022491 -1.4810976e-06 0)
(0.055304563 1.4209411e-06 0)
(0.055043415 -1.3657346e-06 0)
(0.055284474 1.3144021e-06 0)
(0.055062742 -1.267515e-06 0)
(0.055265851 1.2241887e-06 0)
(0.055080728 -1.1849691e-06 0)
(0.055248449 1.1491869e-06 0)
(0.055097604 -1.1171519e-06 0)
(0.055232048 1.0882228e-06 0)
(0.055113588 -1.0628247e-06 0)
(0.055216435 1.0404524e-06 0)
(0.055128885 -1.0205654e-06 0)
(0.0552014 1.0065869e-06 0)
(0.055143664 -9.8946964e-07 0)
(0.055186694 9.5836608e-07 0)
(0.05515838 -1.1326207e-06 0)
(0.055174067 8.916906e-07 0)
(0.051592616 0.0063418846 0)
(0.060025056 -0.00034453163 0)
(0.057128232 0.00015304177 0)
(0.059322842 -3.6028603e-06 0)
(0.05733852 9.5619845e-07 0)
(0.059218692 2.4857078e-06 0)
(0.057540774 -5.3387096e-06 0)
(0.059117409 4.8616354e-06 0)
(0.057646612 -5.2673813e-06 0)
(0.059032591 4.9843698e-06 0)
(0.057726861 -4.7066266e-06 0)
(0.058956856 4.4763581e-06 0)
(0.057797733 -4.2123414e-06 0)
(0.058889709 3.9898395e-06 0)
(0.057860914 -3.7673447e-06 0)
(0.058830002 3.5641383e-06 0)
(0.057917254 -3.3720041e-06 0)
(0.058776783 3.1910021e-06 0)
(0.057967549 -3.0228465e-06 0)
(0.058729247 2.8630558e-06 0)
(0.058012526 -2.7152235e-06 0)
(0.058686693 2.5745874e-06 0)
(0.058052838 -2.4446155e-06 0)
(0.058648503 2.3210786e-06 0)
(0.058089065 -2.2068776e-06 0)
(0.058614133 2.0985901e-06 0)
(0.05812172 -1.9984404e-06 0)
(0.058583096 1.9037135e-06 0)
(0.058151262 -1.8162003e-06 0)
(0.058554962 1.7336538e-06 0)
(0.058178097 -1.6574537e-06 0)
(0.058529344 1.585831e-06 0)
(0.058202594 -1.5198647e-06 0)
(0.058505895 1.4581543e-06 0)
(0.05822508 -1.4015519e-06 0)
(0.058484304 1.3488857e-06 0)
(0.058245853 -1.3008037e-06 0)
(0.058464288 1.2563393e-06 0)
(0.058265185 -1.2161075e-06 0)
(0.058445583 1.1793856e-06 0)
(0.058283324 -1.1465174e-06 0)
(0.058427954 1.1168049e-06 0)
(0.058300505 -1.090736e-06 0)
(0.058411172 1.0677418e-06 0)
(0.058316946 -1.0472765e-06 0)
(0.058395015 1.0330417e-06 0)
(0.058332832 -1.0149012e-06 0)
(0.058379219 9.8270518e-07 0)
(0.058348597 -1.1686102e-06 0)
(0.058365324 9.0884405e-07 0)
(0.055131235 0.0065079367 0)
(0.062798481 -0.00035314449 0)
(0.060119526 0.00015649534 0)
(0.062437633 -4.0302381e-06 0)
(0.060343292 7.5852821e-07 0)
(0.062345417 1.9574923e-06 0)
(0.060555076 -5.4032535e-06 0)
(0.06223672 4.8603887e-06 0)
(0.060667182 -5.3606336e-06 0)
(0.062146227 5.0712955e-06 0)
(0.060752615 -4.7880623e-06 0)
(0.062065485 4.557031e-06 0)
(0.060828173 -4.2868244e-06 0)
(0.06199389 4.0615555e-06 0)
(0.060895546 -3.8348544e-06 0)
(0.061930214 3.6284026e-06 0)
(0.060955634 -3.4329715e-06 0)
(0.061873447 3.2488697e-06 0)
(0.061009285 -3.0779e-06 0)
(0.061822732 2.9153122e-06 0)
(0.061057272 -2.7650054e-06 0)
(0.061777323 2.6218807e-06 0)
(0.061100291 -2.4897174e-06 0)
(0.061736564 2.3639748e-06 0)
(0.061138957 -2.2478227e-06 0)
(0.061699874 2.1375942e-06 0)
(0.061173817 -2.0357149e-06 0)
(0.061666738 1.9392708e-06 0)
(0.061205359 -1.8502348e-06 0)
(0.061636695 1.7661838e-06 0)
(0.061234016 -1.6886372e-06 0)
(0.061609336 1.6156947e-06 0)
(0.061260179 -1.5485493e-06 0)
(0.061584291 1.4856956e-06 0)
(0.061284197 -1.4280747e-06 0)
(0.061561228 1.3744274e-06 0)
(0.061306386 -1.3254626e-06 0)
(0.061539844 1.2801488e-06 0)
(0.061327039 -1.2391739e-06 0)
(0.061519862 1.201758e-06 0)
(0.061346418 -1.1682769e-06 0)
(0.061501028 1.1379832e-06 0)
(0.061364772 -1.11141e-06 0)
(0.061483099 1.087943e-06 0)
(0.061382335 -1.0670378e-06 0)
(0.061465842 1.0526416e-06 0)
(0.061399307 -1.0335845e-06 0)
(0.061448978 1.0005447e-06 0)
(0.0614161 -1.1966708e-06 0)
(0.061433821 9.1965206e-07 0)
(0.058158558 0.0065279026 0)
(0.065389808 -0.00040582287 0)
(0.062989474 0.00015541047 0)
(0.065435682 -4.6694738e-06 0)
(0.063227646 5.0251176e-07 0)
(0.065348719 1.3701926e-06 0)
(0.063448147 -5.4208648e-06 0)
(0.065232097 4.8205515e-06 0)
(0.063566217 -5.4187846e-06 0)
(0.065136023 5.1262641e-06 0)
(0.063656678 -4.8386057e-06 0)
(0.065050404 4.6088013e-06 0)
(0.063736795 -4.3338558e-06 0)
(0.064974476 4.1073985e-06 0)
(0.063808251 -3.8778681e-06 0)
(0.064906935 3.6695311e-06 0)
(0.063871991 -3.4720316e-06 0)
(0.064846709 3.2860192e-06 0)
(0.063928913 -3.1133277e-06 0)
(0.064792894 2.9489831e-06 0)
(0.063979836 -2.7971555e-06 0)
(0.0647447 2.6524548e-06 0)
(0.064025495 -2.5189446e-06 0)
(0.064701434 2.3918008e-06 0)
(0.064066542 -2.2744456e-06 0)
(0.06466248 2.1629745e-06 0)
(0.064103555 -2.0600127e-06 0)
(0.064627293 1.9624714e-06 0)
(0.06413705 -1.872476e-06 0)
(0.064595387 1.7874565e-06 0)
(0.064167486 -1.7090569e-06 0)
(0.064566327 1.6352614e-06 0)
(0.064195277 -1.5673613e-06 0)
(0.064539721 1.5037636e-06 0)
(0.064220792 -1.44549e-06 0)
(0.064515219 1.3912001e-06 0)
(0.064244367 -1.3416706e-06 0)
(0.064492499 1.2958006e-06 0)
(0.06426631 -1.2543407e-06 0)
(0.064471267 1.2164683e-06 0)
(0.0642869 -1.1825851e-06 0)
(0.064451255 1.1518958e-06 0)
(0.064306402 -1.1249937e-06 0)
(0.064432206 1.1012057e-06 0)
(0.064325063 -1.0799958e-06 0)
(0.064413873 1.0655296e-06 0)
(0.064343096 -1.0456714e-06 0)
(0.064395967 1.0120417e-06 0)
(0.064360892 -1.2168793e-06 0)
(0.064379558 9.2438582e-07 0)
(0.061534329 0.0065806437 0)
(0.067952112 -0.00041071214 0)
(0.065738478 0.00015448958 0)
(0.068319775 -5.4186818e-06 0)
(0.065991477 2.0449118e-07 0)
(0.068228577 7.1690221e-07 0)
(0.06622015 -5.391322e-06 0)
(0.068103425 4.7430348e-06 0)
(0.066343836 -5.442876e-06 0)
(0.068001866 5.1501511e-06 0)
(0.066439155 -4.8591567e-06 0)
(0.06791151 4.6324656e-06 0)
(0.066523696 -4.3542029e-06 0)
(0.067831377 4.1280875e-06 0)
(0.066599115 -3.8970634e-06 0)
(0.067760081 3.6881534e-06 0)
(0.066666402 -3.4897781e-06 0)
(0.067696495 3.3030047e-06 0)
(0.066726503 -3.129639e-06 0)
(0.067639667 2.9645517e-06 0)
(0.066780279 -2.8121359e-06 0)
(0.067588766 2.6667514e-06 0)
(0.066828506 -2.5327105e-06 0)
(0.067543061 2.4049449e-06 0)
(0.066871868 -2.2870976e-06 0)
(0.067501905 2.1750739e-06 0)
(0.066910976 -2.0716619e-06 0)
(0.067464722 1.973617e-06 0)
(0.066946372 -1.8832182e-06 0)
(0.067431001 1.7977516e-06 0)
(0.066978541 -1.7189789e-06 0)
(0.067400284 1.6447803e-06 0)
(0.067007917 -1.5765437e-06 0)
(0.067372158 1.5125934e-06 0)
(0.067034891 -1.4540256e-06 0)
(0.067346254 1.3994296e-06 0)
(0.067059815 -1.349631e-06 0)
(0.067322232 1.3034794e-06 0)
(0.067083016 -1.2617916e-06 0)
(0.067299783 1.2236976e-06 0)
(0.067104787 -1.1896223e-06 0)
(0.067278623 1.1587325e-06 0)
(0.067125407 -1.1316596e-06 0)
(0.067258481 1.107694e-06 0)
(0.067145137 -1.0863137e-06 0)
(0.0672391 1.0718634e-06 0)
(0.067164204 -1.051333e-06 0)
(0.067220181 1.0173495e-06 0)
(0.067182976 -1.2292989e-06 0)
(0.067202538 9.2337778e-07 0)
(0.064567947 0.0065644859 0)
(0.070353533 -0.0004564223 0)
(0.068367142 0.00014907029 0)
(0.071085283 -6.2639736e-06 0)
(0.068635427 -3.0719433e-08 0)
(0.070984757 2.114068e-08 0)
(0.068871189 -5.3060777e-06 0)
(0.070850564 4.6318305e-06 0)
(0.069000127 -5.4330124e-06 0)
(0.070743644 5.1442002e-06 0)
(0.069100137 -4.8505926e-06 0)
(0.07064871 4.6289091e-06 0)
(0.06918896 -4.3486883e-06 0)
(0.070564508 4.1243872e-06 0)
(0.069268216 -3.8931598e-06 0)
(0.070489579 3.6849519e-06 0)
(0.069338937 -3.4868484e-06 0)
(0.07042274 3.3004317e-06 0)
(0.069402116 -3.1274129e-06 0)
(0.070362993 2.962561e-06 0)
(0.069458657 -2.8104481e-06 0)
(0.070309468 2.6652388e-06 0)
(0.069509372 -2.5314579e-06 0)
(0.070261399 2.4038283e-06 0)
(0.06955498 -2.2861912e-06 0)
(0.070218106 2.1742726e-06 0)
(0.06959612 -2.0710173e-06 0)
(0.070178987 1.9730544e-06 0)
(0.069633361 -1.8827806e-06 0)
(0.070143505 1.7973733e-06 0)
(0.069667211 -1.7186919e-06 0)
(0.07011118 1.6445318e-06 0)
(0.069698126 -1.5763585e-06 0)
(0.070081578 1.5124333e-06 0)
(0.069726516 -1.4539161e-06 0)
(0.070054312 1.3993341e-06 0)
(0.069752751 -1.349568e-06 0)
(0.070029026 1.3034139e-06 0)
(0.069777173 -1.2617415e-06 0)
(0.070005394 1.2236514e-06 0)
(0.069800091 -1.1895836e-06 0)
(0.069983119 1.1586688e-06 0)
(0.069821797 -1.1315927e-06 0)
(0.069961917 1.1075957e-06 0)
(0.069842565 -1.0861749e-06 0)
(0.069941518 1.0718228e-06 0)
(0.069862637 -1.0507551e-06 0)
(0.069921616 1.0166565e-06 0)
(0.069882355 -1.2340858e-06 0)
(0.069902763 9.1691321e-07 0)
(0.067751272 0.0065160077 0)
(0.072739268 -0.00045634886 0)
(0.070887683 0.00014369593 0)
(0.07372567 -6.936686e-06 0)
(0.071159698 -1.6946592e-07 0)
(0.07361682 -7.0549079e-07 0)
(0.071401342 -5.15907e-06 0)
(0.073473389 4.4902439e-06 0)
(0.071535174 -5.389631e-06 0)