/*--------------------------------*- C++ -*----------------------------------*\
| =========                 |                                                 |
| \\      /  F ield         | OpenFOAM: The Open Source CFD Toolbox           |
|  \\    /   O peration     | Version:  2312                                  |
|   \\  /    A nd           | Website:  www.openfoam.com                      |
|    \\/     M anipulation  |                                                 |
\*---------------------------------------------------------------------------*/
FoamFile
{
    version     2.0;
    format      ascii;
    arch        "LSB;label=32;scalar=64";
    class       volSymmTensorField;
    location    "2";
    object      sigma;
}
// * * * * * * * * * * * * * * * * * * * * * * * * * * * * * * * * * * * * * //

dimensions      [0 2 -2 0 0 0 0];

internalField   nonuniform List<symmTensor> 
4000
(
(-3.9976159 -1.8176785 0 -0.77167109 0 0)
(-13.106223 -0.71749011 0 -0.012552528 0 0)
(-4.2575946 -0.37765481 0 -0.0024051503 0 0)
(-4.7415336 -0.39599679 0 0.00026637794 0 0)
(-4.2458749 -0.37687105 0 -0.00020473958 0 0)
(-4.1744175 -0.3729168 0 1.7130687e-05 0 0)
(-4.1614422 -0.37275045 0 -5.7167193e-05 0 0)
(-4.0824007 -0.36879002 0 9.8790627e-06 0 0)
(-4.1070598 -0.37017082 0 -2.6421195e-05 0 0)
(-4.0714787 -0.36828216 0 1.6404391e-05 0 0)
(-4.0920524 -0.36943934 0 -1.9947415e-05 0 0)
(-4.0683868 -0.36815924 0 1.6852203e-05 0 0)
(-4.0905047 -0.3693474 0 -1.5746332e-05 0 0)
(-4.0685131 -0.36818104 0 1.3689851e-05 0 0)
(-4.0886784 -0.36924696 0 -1.2237062e-05 0 0)
(-4.0703758 -0.36828117 0 1.0848197e-05 0 0)
(-4.0867389 -0.36914506 0 -9.6148488e-06 0 0)
(-4.07218 -0.36837598 0 8.4458539e-06 0 0)
(-4.0850322 -0.36905577 0 -7.3722169e-06 0 0)
(-4.0737389 -0.36845775 0 6.3552274e-06 0 0)
(-4.0835851 -0.36897987 0 -5.4131975e-06 0 0)
(-4.0750608 -0.36852727 0 4.5262198e-06 0 0)
(-4.0823701 -0.36891585 0 -3.7025437e-06 0 0)
(-4.0761688 -0.36858581 0 2.9294449e-06 0 0)
(-4.0813597 -0.36886228 0 -2.2116117e-06 0 0)
(-4.0770852 -0.36863458 0 1.5403892e-06 0 0)
(-4.0805321 -0.36881797 0 -9.1584025e-07 0 0)
(-4.0778285 -0.36867462 0 3.3182657e-07 0 0)
(-4.0798711 -0.36878209 0 2.0752396e-07 0 0)
(-4.0784124 -0.3687065 0 -7.0257858e-07 0 0)
(-4.0793577 -0.36875392 0 1.1654235e-06 0 0)
(-4.0788613 -0.36873139 0 -1.5958723e-06 0 0)
(-4.078967 -0.368732 0 1.9604089e-06 0 0)
(-4.0791927 -0.36875031 0 -2.2767765e-06 0 0)
(-4.0786905 -0.3687159 0 2.5935432e-06 0 0)
(-4.0794198 -0.36876395 0 -2.8938686e-06 0 0)
(-4.0785083 -0.36870458 0 3.1672766e-06 0 0)
(-4.0795588 -0.36877306 0 -3.4141338e-06 0 0)
(-4.0784086 -0.36869752 0 3.6367369e-06 0 0)
(-4.0796215 -0.36877823 0 -3.8361695e-06 0 0)
(-4.0783788 -0.36869408 0 4.0137862e-06 0 0)
(-4.0796206 -0.36878008 0 -4.1708667e-06 0 0)
(-4.078407 -0.36869367 0 4.3077378e-06 0 0)
(-4.0795664 -0.36877915 0 -4.4281157e-06 0 0)
(-4.078477 -0.36869551 0 4.5267809e-06 0 0)
(-4.0794657 -0.36877574 0 -4.6097329e-06 0 0)
(-4.0785942 -0.36869965 0 4.7022348e-06 0 0)
(-4.0794269 -0.36877453 0 -4.6888208e-06 0 0)
(-4.0790445 -0.36871805 0 4.9699273e-06 0 0)
(-4.0800345 -0.36880327 0 -4.9781118e-06 0 0)
(-3.1771275 -1.5649352 0 -0.70196393 0 0)
(-10.718971 -0.6971315 0 -0.026482243 0 0)
(-5.0276888 -0.42910207 0 -0.0071517647 0 0)
(-4.3911143 -0.37939943 0 0.00026204223 0 0)
(-3.9464814 -0.36476199 0 -0.0005193934 0 0)
(-3.8536995 -0.35840897 0 -1.621525e-05 0 0)
(-3.8516457 -0.35887601 0 -0.00011093531 0 0)
(-3.7863521 -0.35523843 0 -1.8226081e-05 0 0)
(-3.8031297 -0.35626114 0 -3.6407449e-05 0 0)
(-3.7752876 -0.35463928 0 1.1026091e-05 0 0)
(-3.7903465 -0.35558898 0 -2.4869704e-05 0 0)
(-3.7716089 -0.35445127 0 1.8374543e-05 0 0)
(-3.7887725 -0.35548865 0 -1.7932934e-05 0 0)
(-3.7717327 -0.35447793 0 1.4723973e-05 0 0)
(-3.7871222 -0.35538576 0 -1.311718e-05 0 0)
(-3.7732813 -0.35457149 0 1.1529204e-05 0 0)
(-3.7855182 -0.35529235 0 -1.0195113e-05 0 0)
(-3.7747511 -0.35465734 0 8.9150401e-06 0 0)
(-3.7841272 -0.35521178 0 -7.7631734e-06 0 0)
(-3.7760102 -0.35473073 0 6.6586205e-06 0 0)
(-3.7829559 -0.35514368 0 -5.6454722e-06 0 0)
(-3.7770706 -0.35479277 0 4.6853287e-06 0 0)
(-3.7819795 -0.35508658 0 -3.7963549e-06 0 0)
(-3.7779528 -0.35484472 0 2.962943e-06 0 0)
(-3.7811758 -0.35503917 0 -2.1919203e-06 0 0)
(-3.7786717 -0.35488748 0 1.4664514e-06 0 0)
(-3.7805297 -0.35500061 0 -7.8548113e-07 0 0)
(-3.7792457 -0.35492196 0 1.435341e-07 0 0)
(-3.7800157 -0.35496959 0 4.6343047e-07 0 0)
(-3.7796988 -0.35494968 0 -1.006204e-06 0 0)
(-3.7796328 -0.35494567 0 1.4353502e-06 0 0)
(-3.7800179 -0.35496993 0 -1.8328936e-06 0 0)
(-3.7793616 -0.35492815 0 2.2477761e-06 0 0)
(-3.7802501 -0.35498515 0 -2.6274385e-06 0 0)
(-3.7791743 -0.35491544 0 2.9776546e-06 0 0)
(-3.7803972 -0.35499555 0 -3.2982568e-06 0 0)
(-3.779067 -0.35490726 0 3.5901841e-06 0 0)
(-3.7804698 -0.35500172 0 -3.8543669e-06 0 0)
(-3.7790283 -0.354903 0 4.0926794e-06 0 0)
(-3.7804791 -0.35500428 0 -4.3068463e-06 0 0)
(-3.7790473 -0.35490204 0 4.4977107e-06 0 0)
(-3.7804357 -0.35500381 0 -4.6671378e-06 0 0)
(-3.7791142 -0.35490386 0 4.8150707e-06 0 0)
(-3.7803487 -0.35500083 0 -4.9491163e-06 0 0)
(-3.7792157 -0.35490775 0 5.0525649e-06 0 0)
(-3.7802204 -0.35499548 0 -5.1509854e-06 0 0)
(-3.7793439 -0.35491292 0 5.2839243e-06 0 0)
(-3.7801099 -0.35498986 0 -5.1535783e-06 0 0)
(-3.7796972 -0.35492667 0 5.8856836e-06 0 0)
(-3.780517 -0.3550119 0 -5.5875972e-06 0 0)
(-3.1475556 -1.5462826 0 -0.68019148 0 0)
(-8.9184871 -0.64089735 0 -0.031057155 0 0)
(-4.9822068 -0.44213477 0 -0.01082567 0 0)
(-4.2674394 -0.37376461 0 1.8491832e-05 0 0)
(-3.7578788 -0.35664497 0 -0.00077476452 0 0)
(-3.64825 -0.3487566 0 -4.5385048e-05 0 0)
(-3.6470535 -0.34937663 0 -0.00014317667 0 0)
(-3.5924082 -0.34609472 0 -4.1565951e-05 0 0)
(-3.6062544 -0.34694396 0 -4.1337468e-05 0 0)
(-3.5827652 -0.34549216 0 5.0473775e-06 0 0)
(-3.5950274 -0.34632086 0 -2.6751973e-05 0 0)
(-3.5792127 -0.34528345 0 1.7497683e-05 0 0)
(-3.5935011 -0.34621618 0 -1.7806702e-05 0 0)
(-3.579297 -0.34531051 0 1.3949545e-05 0 0)
(-3.5920179 -0.34611557 0 -1.244597e-05 0 0)
(-3.5806478 -0.34539835 0 1.0883103e-05 0 0)
(-3.5906195 -0.34602858 0 -9.6157082e-06 0 0)
(-3.5819273 -0.34547816 0 8.3851694e-06 0 0)
(-3.5894156 -0.34595407 0 -7.2960624e-06 0 0)
(-3.5830192 -0.34554607 0 6.2387419e-06 0 0)
(-3.5884056 -0.34589129 0 -5.2771055e-06 0 0)
(-3.5839355 -0.34560326 0 4.3613806e-06 0 0)
(-3.5875675 -0.34583888 0 -3.5216187e-06 0 0)
(-3.5846932 -0.34565087 0 2.7342808e-06 0 0)
(-3.5868849 -0.34579582 0 -1.9996484e-06 0 0)
(-3.5853042 -0.34568952 0 1.3005751e-06 0 0)
(-3.5863358 -0.34576105 0 -6.3773546e-07 0 0)
(-3.5857991 -0.34572111 0 4.9687249e-09 0 0)
(-3.585907 -0.34573292 0 5.3342691e-07 0 0)
(-3.5861522 -0.345745 0 -9.80962e-07 0 0)
(-3.5856078 -0.34571255 0 1.4222338e-06 0 0)
(-3.5864146 -0.34576291 0 -1.8518821e-06 0 0)
(-3.5853855 -0.34569713 0 2.2470841e-06 0 0)
(-3.5865934 -0.34577565 0 -2.6065811e-06 0 0)
(-3.5852452 -0.34568673 0 2.9369599e-06 0 0)
(-3.5866971 -0.34578387 0 -3.2399883e-06 0 0)
(-3.585175 -0.34568055 0 3.5161192e-06 0 0)
(-3.5867355 -0.34578813 0 -3.7666525e-06 0 0)
(-3.5851653 -0.34567804 0 3.9927281e-06 0 0)
(-3.5867182 -0.345789 0 -4.196709e-06 0 0)
(-3.5852064 -0.34567864 0 4.3786291e-06 0 0)
(-3.5866547 -0.34578704 0 -4.5410045e-06 0 0)
(-3.5852898 -0.34568183 0 4.6833854e-06 0 0)
(-3.5865532 -0.34578277 0 -4.8154542e-06 0 0)
(-3.585404 -0.34568698 0 4.9127839e-06 0 0)
(-3.5864151 -0.34577629 0 -5.0197416e-06 0 0)
(-3.5855388 -0.34569306 0 5.160188e-06 0 0)
(-3.5862818 -0.34576867 0 -4.9830508e-06 0 0)
(-3.5858529 -0.34570506 0 5.943636e-06 0 0)
(-3.5865712 -0.345788 0 -5.872694e-06 0 0)
(-2.9733403 -1.4493559 0 -0.61657347 0 0)
(-7.9066227 -0.60938743 0 -0.034448988 0 0)
(-4.8903596 -0.45297043 0 -0.014579428 0 0)
(-4.1570694 -0.36856467 0 -0.00020808706 0 0)
(-3.5913963 -0.34934645 0 -0.0010990887 0 0)
(-3.4539923 -0.33931978 0 -8.4912847e-05 0 0)
(-3.4493362 -0.33989334 0 -0.00017586881 0 0)
(-3.4028546 -0.33693493 0 -6.6893191e-05 0 0)
(-3.4149319 -0.33762965 0 -4.4191923e-05 0 0)
(-3.3949502 -0.33633976 0 -2.8475292e-06 0 0)
(-3.4051756 -0.33705771 0 -2.717327e-05 0 0)
(-3.3916408 -0.336115 0 1.5188967e-05 0 0)
(-3.4036688 -0.33694686 0 -1.6381996e-05 0 0)
(-3.3916996 -0.33614193 0 1.1973696e-05 0 0)
(-3.4023021 -0.33684807 0 -1.0688608e-05 0 0)
(-3.3928909 -0.33622396 0 9.2680878e-06 0 0)
(-3.4010582 -0.33676707 0 -8.1704731e-06 0 0)
(-3.3940176 -0.33629782 0 7.0899873e-06 0 0)
(-3.3999971 -0.33669828 0 -6.1561399e-06 0 0)
(-3.3949763 -0.33636033 0 5.232852e-06 0 0)
(-3.39911 -0.33664053 0 -4.4077362e-06 0 0)
(-3.3957778 -0.33641273 0 3.6226643e-06 0 0)
(-3.3983785 -0.33659266 0 -2.9089229e-06 0 0)
(-3.3964336 -0.33645578 0 2.2292787e-06 0 0)
(-3.3977874 -0.33655402 0 -1.5951564e-06 0 0)
(-3.3969698 -0.33649071 0 9.8660533e-07 0 0)
(-3.3973018 -0.33652178 0 -3.8693085e-07 0 0)
(-3.3973775 -0.3365192 0 -1.4847131e-07 0 0)
(-3.3969727 -0.33649801 0 6.0161971e-07 0 0)
(-3.3976673 -0.33653965 0 -1.0218578e-06 0 0)
(-3.3967131 -0.33647994 0 1.4118493e-06 0 0)
(-3.3978854 -0.33655511 0 -1.7764304e-06 0 0)
(-3.3965361 -0.33646707 0 2.1150656e-06 0 0)
(-3.398024 -0.33656553 0 -2.4242722e-06 0 0)
(-3.3964323 -0.33645887 0 2.7071554e-06 0 0)
(-3.3980955 -0.33657169 0 -2.9664431e-06 0 0)
(-3.3963912 -0.33645463 0 3.2025593e-06 0 0)
(-3.3981086 -0.33657414 0 -3.4171478e-06 0 0)
(-3.396404 -0.33645383 0 3.6107142e-06 0 0)
(-3.398072 -0.33657343 0 -3.7859523e-06 0 0)
(-3.3964621 -0.33645592 0 3.942155e-06 0 0)
(-3.3979942 -0.33657007 0 -4.0820875e-06 0 0)
(-3.3965579 -0.33646044 0 4.2051204e-06 0 0)
(-3.3978826 -0.33656459 0 -4.3225803e-06 0 0)
(-3.3966814 -0.3364668 0 4.4015467e-06 0 0)
(-3.397738 -0.33655703 0 -4.5058616e-06 0 0)
(-3.3968205 -0.33647377 0 4.6465002e-06 0 0)
(-3.3975873 -0.3365474 0 -4.3688199e-06 0 0)
(-3.3970976 -0.3364841 0 5.6107613e-06 0 0)
(-3.3977695 -0.3365636 0 -5.6639006e-06 0 0)
(-2.7862514 -1.3399913 0 -0.55120811 0 0)
(-6.9078203 -0.57412434 0 -0.035957411 0 0)
(-4.6869984 -0.4567995 0 -0.017770582 0 0)
(-4.0274197 -0.36293756 0 -0.00045590605 0 0)
(-3.4352298 -0.34219786 0 -0.0014385167 0 0)
(-3.2692629 -0.32998919 0 -0.0001229851 0 0)
(-3.2578794 -0.33036597 0 -0.00020298775 0 0)
(-3.2173915 -0.32770033 0 -8.4834818e-05 0 0)
(-3.2286829 -0.32830405 0 -4.594585e-05 0 0)
(-3.2118209 -0.32716829 0 -9.6290999e-06 0 0)
(-3.2205336 -0.32779521 0 -2.7345444e-05 0 0)
(-3.2089639 -0.32694196 0 1.3008807e-05 0 0)
(-3.2191064 -0.32768062 0 -1.4948016e-05 0 0)
(-3.2090172 -0.32696898 0 1.0104755e-05 0 0)
(-3.2178502 -0.32758437 0 -9.0236992e-06 0 0)
(-3.2100747 -0.32704562 0 7.7568434e-06 0 0)
(-3.2167369 -0.32750893 0 -6.8174008e-06 0 0)
(-3.2110737 -0.3271141 0 5.8818104e-06 0 0)
(-3.2157954 -0.32744532 0 -5.094401e-06 0 0)
(-3.2119223 -0.32717179 0 4.3043501e-06 0 0)
(-3.2150117 -0.32739219 0 -3.6222274e-06 0 0)
(-3.2126267 -0.32721971 0 2.9654875e-06 0 0)
(-3.2143724 -0.32734884 0 -2.3667248e-06 0 0)
(-3.2132027 -0.3272584 0 1.8056362e-06 0 0)
(-3.2138405 -0.3273133 0 -1.2679481e-06 0 0)
(-3.2136751 -0.32729139 0 6.6412738e-07 0 0)
(-3.2134558 -0.32728458 0 -1.1497293e-07 0 0)
(-3.2139925 -0.32731516 0 -3.1046603e-07 0 0)
(-3.2131672 -0.32726381 0 6.9534967e-07 0 0)
(-3.2142491 -0.32733349 0 -1.0526704e-06 0 0)
(-3.2129515 -0.32724821 0 1.3860025e-06 0 0)
(-3.2144257 -0.32734651 0 -1.6941761e-06 0 0)
(-3.212812 -0.32723764 0 1.9776259e-06 0 0)
(-3.2145311 -0.32735481 0 -2.2372387e-06 0 0)
(-3.2127379 -0.32723142 0 2.475398e-06 0 0)
(-3.214576 -0.3273591 0 -2.6934057e-06 0 0)
(-3.2127202 -0.32722893 0 2.8919013e-06 0 0)
(-3.2145684 -0.32735991 0 -3.0722589e-06 0 0)
(-3.212751 -0.32722967 0 3.2349681e-06 0 0)
(-3.2145163 -0.32735776 0 -3.3825021e-06 0 0)
(-3.2128224 -0.32723311 0 3.5139516e-06 0 0)
(-3.2144272 -0.32735314 0 -3.6318524e-06 0 0)
(-3.2129276 -0.32723881 0 3.7358803e-06 0 0)
(-3.214308 -0.32734655 0 -3.8378497e-06 0 0)
(-3.2130579 -0.32724627 0 3.8981425e-06 0 0)
(-3.2141592 -0.32733805 0 -3.9988478e-06 0 0)
(-3.2132004 -0.32725411 0 4.1299329e-06 0 0)
(-3.2139982 -0.3273268 0 -3.7659323e-06 0 0)
(-3.2134486 -0.32726327 0 5.2407738e-06 0 0)
(-3.2140941 -0.32733989 0 -5.382427e-06 0 0)
(-2.7678991 -1.3128331 0 -0.52964673 0 0)
(-5.9381026 -0.53926652 0 -0.037894774 0 0)
(-4.414092 -0.45488168 0 -0.020193988 0 0)
(-3.8598727 -0.35689567 0 -0.00093989082 0 0)
(-3.2928892 -0.33608486 0 -0.0019040043 0 0)
(-3.0990767 -0.32115093 0 -0.00018659082 0 0)
(-3.0761553 -0.32099805 0 -0.00023545539 0 0)
(-3.0371472 -0.31842995 0 -9.5617814e-05 0 0)
(-3.0476479 -0.31897136 0 -4.6999674e-05 0 0)
(-3.0335481 -0.31798202 0 -1.4943932e-05 0 0)
(-3.0410588 -0.31853289 0 -2.7593402e-05 0 0)
(-3.0312513 -0.3177658 0 1.1236952e-05 0 0)
(-3.0397598 -0.31841692 0 -1.3778077e-05 0 0)
(-3.031314 -0.317793 0 8.5681319e-06 0 0)
(-3.0386121 -0.31832368 0 -7.6532914e-06 0 0)
(-3.0322538 -0.31786448 0 6.5260942e-06 0 0)
(-3.0376138 -0.31825346 0 -5.7115702e-06 0 0)
(-3.0331404 -0.31792795 0 4.8979717e-06 0 0)
(-3.0367766 -0.31819464 0 -4.2388857e-06 0 0)
(-3.0338917 -0.31798108 0 3.5750342e-06 0 0)
(-3.0360863 -0.31814607 0 -3.0159747e-06 0 0)
(-3.0345088 -0.31802435 0 2.4668585e-06 0 0)
(-3.0355178 -0.31810691 0 -1.9982851e-06 0 0)
(-3.0350355 -0.31806079 0 1.4915172e-06 0 0)
(-3.0350629 -0.31807326 0 -8.4762142e-07 0 0)
(-3.035393 -0.31808915 0 2.8993571e-07 0 0)
(-3.0347497 -0.31804929 0 8.6934084e-08 0 0)
(-3.0356851 -0.31811054 0 -4.4444352e-07 0 0)
(-3.0344959 -0.31803061 0 7.7370869e-07 0 0)
(-3.0358983 -0.31812634 0 -1.079535e-06 0 0)
(-3.0343202 -0.31801741 0 1.3623934e-06 0 0)
(-3.0360387 -0.3181371 0 -1.6230878e-06 0 0)
(-3.034213 -0.31800895 0 1.8626529e-06 0 0)
(-3.0361154 -0.31814344 0 -2.0822999e-06 0 0)
(-3.0341646 -0.31800455 0 2.2837963e-06 0 0)
(-3.0361374 -0.31814601 0 -2.4679745e-06 0 0)
(-3.034167 -0.31800368 0 2.6355716e-06 0 0)
(-3.0361123 -0.31814531 0 -2.7877598e-06 0 0)
(-3.0342129 -0.31800582 0 2.9250138e-06 0 0)
(-3.0360472 -0.31814185 0 -3.0496289e-06 0 0)
(-3.0342952 -0.31801049 0 3.1604765e-06 0 0)
(-3.035949 -0.31813607 0 -3.2599246e-06 0 0)
(-3.0344079 -0.31801727 0 3.3480336e-06 0 0)
(-3.0358239 -0.31812848 0 -3.4365837e-06 0 0)
(-3.0345433 -0.31802572 0 3.4808121e-06 0 0)
(-3.0356725 -0.31811913 0 -3.578733e-06 0 0)
(-3.0346884 -0.3180344 0 3.6978321e-06 0 0)
(-3.0355045 -0.31810653 0 -3.2650508e-06 0 0)
(-3.0349128 -0.31804273 0 4.9262437e-06 0 0)
(-3.0355309 -0.31811649 0 -5.1047688e-06 0 0)
(-2.7363434 -1.2297266 0 -0.4651291 0 0)
(-4.9518103 -0.50768797 0 -0.039528998 0 0)
(-4.1281472 -0.45039486 0 -0.0214716 0 0)
(-3.5882343 -0.34614453 0 -0.0015621527 0 0)
(-3.0968731 -0.32750557 0 -0.0023205888 0 0)
(-2.9220978 -0.31186977 0 -0.00023520962 0 0)
(-2.8963415 -0.31147066 0 -0.00025874626 0 0)
(-2.8623968 -0.30915577 0 -0.0001012376 0 0)
(-2.8717928 -0.30963197 0 -4.7667619e-05 0 0)
(-2.8601758 -0.30878223 0 -1.9007357e-05 0 0)
(-2.8667109 -0.30926867 0 -2.7774221e-05 0 0)
(-2.8585128 -0.30858656 0 9.7910137e-06 0 0)
(-2.8655954 -0.30915472 0 -1.2772414e-05 0 0)
(-2.8586081 -0.30861443 0 7.2793559e-06 0 0)
(-2.8645631 -0.30906531 0 -6.4921477e-06 0 0)
(-2.8594473 -0.30868106 0 5.4988044e-06 0 0)
(-2.8636696 -0.3090001 0 -4.7851772e-06 0 0)
(-2.8602345 -0.30873981 0 4.0895983e-06 0 0)
(-2.8629264 -0.30894595 0 -3.5569956e-06 0 0)
(-2.860895 -0.30878821 0 3.0050092e-06 0 0)
(-2.86232 -0.30890224 0 -2.5655579e-06 0 0)
(-2.861452 -0.30882768 0 2.1522673e-06 0 0)
(-2.8617967 -0.30886443 0 -1.645252e-06 0 0)
(-2.8618848 -0.30886167 0 9.4994534e-07 0 0)
(-2.8614591 -0.30883659 0 -4.2607512e-07 0 0)
(-2.8621934 -0.30888575 0 8.0003102e-08 0 0)
(-2.8611669 -0.30881458 0 2.5055812e-07 0 0)
(-2.8624447 -0.30890478 0 -5.5384848e-07 0 0)
(-2.8609557 -0.3087985 0 8.3507481e-07 0 0)
(-2.862619 -0.30891816 0 -1.0958785e-06 0 0)
(-2.8608151 -0.30878755 0 1.3357285e-06 0 0)
(-2.8627276 -0.3089268 0 -1.5565413e-06 0 0)
(-2.8607363 -0.30878106 0 1.7599781e-06 0 0)
(-2.8627792 -0.30893132 0 -1.9464523e-06 0 0)
(-2.8607102 -0.30877838 0 2.1170943e-06 0 0)
(-2.8627814 -0.30893228 0 -2.272819e-06 0 0)
(-2.8607299 -0.30877901 0 2.414416e-06 0 0)
(-2.8627413 -0.30893019 0 -2.5428586e-06 0 0)
(-2.8607887 -0.30878246 0 2.6586256e-06 0 0)
(-2.8626654 -0.3089255 0 -2.7638519e-06 0 0)
(-2.86088 -0.30878826 0 2.8572285e-06 0 0)
(-2.8625597 -0.30891867 0 -2.9410276e-06 0 0)
(-2.8609985 -0.30879602 0 3.0156546e-06 0 0)
(-2.8624302 -0.30891016 0 -3.0924645e-06 0 0)
(-2.8611376 -0.30880537 0 3.1231363e-06 0 0)
(-2.8622774 -0.30890006 0 -3.2191422e-06 0 0)
(-2.8612843 -0.30881482 0 3.3248444e-06 0 0)
(-2.8621052 -0.30888635 0 -2.8429698e-06 0 0)
(-2.8614888 -0.30882261 0 4.6417703e-06 0 0)
(-2.8620762 -0.30889325 0 -4.8270346e-06 0 0)
(-2.7531513 -1.1742664 0 -0.42322437 0 0)
(-4.0123803 -0.48204877 0 -0.044397986 0 0)
(-3.8201161 -0.44054825 0 -0.021631371 0 0)
(-3.3689919 -0.34649203 0 -0.0042583702 0 0)
(-2.9430405 -0.32214161 0 -0.0030835364 0 0)
(-2.7633299 -0.30338129 0 -0.00034344626 0 0)
(-2.7276015 -0.30221243 0 -0.00029352082 0 0)
(-2.6935813 -0.29988248 0 -0.00010402216 0 0)
(-2.701434 -0.30029392 0 -4.7260315e-05 0 0)
(-2.6918812 -0.29957353 0 -2.1874333e-05 0 0)
(-2.697544 -0.30000389 0 -2.7747474e-05 0 0)
(-2.6907867 -0.29940514 0 8.5776412e-06 0 0)
(-2.6966127 -0.29989437 0 -1.1870987e-05 0 0)
(-2.6909153 -0.29943358 0 6.1572878e-06 0 0)
(-2.6956933 -0.29980921 0 -5.4696105e-06 0 0)
(-2.6916663 -0.29949553 0 4.6123275e-06 0 0)
(-2.6948946 -0.29974878 0 -3.994625e-06 0 0)
(-2.6923625 -0.29954958 0 3.4263012e-06 0 0)
(-2.6942403 -0.2996996 0 -3.0109775e-06 0 0)
(-2.6929447 -0.29959303 0 2.5909054e-06 0 0)
(-2.6936835 -0.299659 0 -2.28634e-06 0 0)
(-2.6934536 -0.29963183 0 1.6813952e-06 0 0)
(-2.6932711 -0.29962482 0 -9.7704032e-07 0 0)
(-2.6937769 -0.29965905 0 5.1928975e-07 0 0)
(-2.6929642 -0.29960047 0 -2.0129425e-07 0 0)
(-2.694065 -0.29968146 0 -1.0340871e-07 0 0)
(-2.6927156 -0.29958109 0 3.8055913e-07 0 0)
(-2.6942747 -0.29969785 0 -6.3872991e-07 0 0)
(-2.6925427 -0.29956749 0 8.7743669e-07 0 0)
(-2.6944147 -0.29970896 0 -1.0989238e-06 0 0)
(-2.692433 -0.29955865 0 1.301702e-06 0 0)
(-2.6944956 -0.29971562 0 -1.4881458e-06 0 0)
(-2.6923788 -0.29955401 0 1.6601278e-06 0 0)
(-2.6945252 -0.29971842 0 -1.8175151e-06 0 0)
(-2.6923721 -0.29955293 0 1.9610881e-06 0 0)
(-2.6945105 -0.29971789 0 -2.0919242e-06 0 0)
(-2.6924066 -0.29955495 0 2.2107557e-06 0 0)
(-2.6944578 -0.2997145 0 -2.3184046e-06 0 0)
(-2.692476 -0.2995596 0 2.4153563e-06 0 0)
(-2.694373 -0.2997087 0 -2.5035974e-06 0 0)
(-2.6925745 -0.29956644 0 2.58161e-06 0 0)
(-2.6942616 -0.29970091 0 -2.6516563e-06 0 0)
(-2.6926973 -0.29957509 0 2.7144697e-06 0 0)
(-2.694129 -0.29969157 0 -2.7806905e-06 0 0)
(-2.6928388 -0.29958524 0 2.7997938e-06 0 0)
(-2.693976 -0.29968079 0 -2.8940683e-06 0 0)
(-2.6929863 -0.29959542 0 2.9857326e-06 0 0)
(-2.6938015 -0.29966618 0 -2.4704992e-06 0 0)
(-2.6931736 -0.29960288 0 4.3627937e-06 0 0)
(-2.6937287 -0.29967015 0 -4.5400644e-06 0 0)
(-2.8122494 -1.1332878 0 -0.38881797 0 0)
(-3.3381445 -0.46259761 0 -0.048265357 0 0)
(-3.4805504 -0.41189726 0 -0.017935648 0 0)
(-3.0667813 -0.33606891 0 -0.0057243028 0 0)
(-2.7449964 -0.31258172 0 -0.0033866346 0 0)
(-2.5918984 -0.29389692 0 -0.00038286681 0 0)
(-2.5587061 -0.29269505 0 -0.00030838186 0 0)
(-2.5293849 -0.29058079 0 -0.00010303104 0 0)
(-2.5361679 -0.29095061 0 -4.6215671e-05 0 0)
(-2.5284709 -0.29035016 0 -2.3543976e-05 0 0)
(-2.5334677 -0.2907358 0 -2.7434766e-05 0 0)
(-2.528036 -0.2902194 0 7.6737549e-06 0 0)
(-2.5327806 -0.29063492 0 -1.0995798e-05 0 0)
(-2.528234 -0.29024989 0 5.2038343e-06 0 0)
(-2.5319889 -0.29055513 0 -4.5489409e-06 0 0)
(-2.5289166 -0.29030777 0 3.8610018e-06 0 0)
(-2.5312834 -0.29049971 0 -3.3377381e-06 0 0)
(-2.5295281 -0.29035675 0 2.8969225e-06 0 0)
(-2.5307024 -0.29045547 0 -2.636098e-06 0 0)
(-2.5300726 -0.29039816 0 2.3148669e-06 0 0)
(-2.5302037 -0.29041556 0 -1.6574261e-06 0 0)
(-2.530455 -0.29043148 0 9.2345559e-07 0 0)
(-2.5298843 -0.29038835 0 -5.8202909e-07 0 0)
(-2.5307617 -0.29045627 0 2.7464592e-07 0 0)
(-2.529601 -0.29036558 0 -7.7841438e-09 0 0)
(-2.5310062 -0.29047587 0 -2.4812278e-07 0 0)
(-2.5293933 -0.29034886 0 4.8363393e-07 0 0)
(-2.5311783 -0.29048976 0 -7.010557e-07 0 0)
(-2.5292538 -0.29033756 0 9.0230174e-07 0 0)
(-2.5312883 -0.29049874 0 -1.0891765e-06 0 0)
(-2.5291712 -0.29033071 0 1.2591276e-06 0 0)
(-2.5313451 -0.29050355 0 -1.4152202e-06 0 0)
(-2.5291384 -0.29032778 0 1.5592816e-06 0 0)
(-2.5313558 -0.29050476 0 -1.6907308e-06 0 0)
(-2.5291483 -0.29032819 0 1.8102621e-06 0 0)
(-2.5313267 -0.29050284 0 -1.9190445e-06 0 0)
(-2.5291951 -0.29033149 0 2.0176971e-06 0 0)
(-2.5312635 -0.29049827 0 -2.1069027e-06 0 0)
(-2.5292731 -0.29033723 0 2.1871573e-06 0 0)
(-2.5311717 -0.29049146 0 -2.2603031e-06 0 0)
(-2.5293771 -0.29034501 0 2.3246484e-06 0 0)
(-2.5310561 -0.29048279 0 -2.3824961e-06 0 0)
(-2.5295028 -0.29035447 0 2.434817e-06 0 0)
(-2.5309218 -0.29047271 0 -2.4913127e-06 0 0)
(-2.5296453 -0.29036533 0 2.5005633e-06 0 0)
(-2.5307696 -0.29046134 0 -2.5929233e-06 0 0)
(-2.5297927 -0.29037617 0 2.6702572e-06 0 0)
(-2.5305949 -0.29044601 0 -2.134073e-06 0 0)
(-2.5299649 -0.29038346 0 4.0802966e-06 0 0)
(-2.5304874 -0.29044721 0 -4.2450743e-06 0 0)
(-2.8399837 -1.0728634 0 -0.34582812 0 0)
(-2.8950738 -0.42676524 0 -0.044783634 0 0)
(-3.1877995 -0.41046902 0 -0.023047575 0 0)
(-2.7939952 -0.33096277 0 -0.0085065893 0 0)
(-2.578165 -0.304883 0 -0.0037504504 0 0)
(-2.4361123 -0.2851017 0 -0.00048015521 0 0)
(-2.399817 -0.28340261 0 -0.00033023223 0 0)
(-2.3713096 -0.28130093 0 -0.00010120546 0 0)
(-2.3765099 -0.2816148 0 -4.3583868e-05 0 0)
(-2.370288 -0.28112346 0 -2.4102624e-05 0 0)
(-2.3746163 -0.28146826 0 -2.6724323e-05 0 0)
(-2.370345 -0.28103195 0 7.0224444e-06 0 0)
(-2.3741277 -0.28137776 0 -1.0160067e-05 0 0)
(-2.3705897 -0.28106403 0 4.3999669e-06 0 0)
(-2.3734493 -0.28130334 0 -3.7333122e-06 0 0)
(-2.3712036 -0.28111755 0 3.2543215e-06 0 0)
(-2.3728321 -0.2812534 0 -2.8158915e-06 0 0)
(-2.3717523 -0.28116202 0 2.5565303e-06 0 0)
(-2.3722814 -0.28121021 0 -2.3373368e-06 0 0)
(-2.3722254 -0.28120203 0 1.5459921e-06 0 0)
(-2.3719171 -0.28117761 0 -8.8223715e-07 0 0)
(-2.3725384 -0.28122912 0 5.869262e-07 0 0)
(-2.3716087 -0.28115197 0 -3.2292077e-07 0 0)
(-2.3728147 -0.28125204 0 7.6211455e-08 0 0)
(-2.3713678 -0.28113206 0 1.4750784e-07 0 0)
(-2.3730191 -0.28126896 0 -3.653548e-07 0 0)
(-2.3711968 -0.28111788 0 5.6243757e-07 0 0)
(-2.3731585 -0.28128051 0 -7.4340245e-07 0 0)
(-2.3710866 -0.2811087 0 9.113608e-07 0 0)
(-2.3732423 -0.28128752 0 -1.0673013e-06 0 0)
(-2.3710275 -0.28110371 0 1.2079122e-06 0 0)
(-2.3732781 -0.2812906 0 -1.3370325e-06 0 0)
(-2.371013 -0.28110236 0 1.4562371e-06 0 0)
(-2.3732727 -0.28129033 0 -1.5645316e-06 0 0)
(-2.371037 -0.28110415 0 1.6626786e-06 0 0)
(-2.3732315 -0.28128715 0 -1.7518644e-06 0 0)
(-2.3710939 -0.28110862 0 1.8325823e-06 0 0)
(-2.3731599 -0.28128149 0 -1.9053971e-06 0 0)
(-2.3711787 -0.28111536 0 1.9708319e-06 0 0)
(-2.3730628 -0.28127377 0 -2.0305665e-06 0 0)
(-2.3712867 -0.28112398 0 2.0827321e-06 0 0)
(-2.3729445 -0.28126433 0 -2.1297224e-06 0 0)
(-2.3714139 -0.28113415 0 2.1727116e-06 0 0)
(-2.3728097 -0.2812536 0 -2.2202868e-06 0 0)
(-2.3715562 -0.28114563 0 2.2212204e-06 0 0)
(-2.3726593 -0.28124172 0 -2.3112206e-06 0 0)
(-2.3717025 -0.28115705 0 2.37438e-06 0 0)
(-2.372486 -0.28122582 0 -1.8273984e-06 0 0)
(-2.3718612 -0.28116431 0 3.7921015e-06 0 0)
(-2.3723516 -0.28122445 0 -3.9459535e-06 0 0)
(-2.9016965 -1.0290865 0 -0.31106316 0 0)
(-2.5612448 -0.41054074 0 -0.045514509 0 0)
(-2.8996764 -0.3900812 0 -0.021872945 0 0)
(-2.5400546 -0.31721925 0 -0.0087141097 0 0)
(-2.4095644 -0.29411886 0 -0.0034699002 0 0)
(-2.2800259 -0.27573341 0 -0.000527723 0 0)
(-2.2440326 -0.2739241 0 -0.0003292796 0 0)
(-2.2177763 -0.27197183 0 -9.2733371e-05 0 0)
(-2.2219613 -0.27227296 0 -3.9408627e-05 0 0)
(-2.2170477 -0.27188372 0 -2.3260498e-05 0 0)
(-2.2208523 -0.27219727 0 -2.563527e-05 0 0)
(-2.2176477 -0.27183949 0 6.7875596e-06 0 0)
(-2.22061 -0.27212088 0 -9.1872658e-06 0 0)
(-2.2179708 -0.27187483 0 3.8639065e-06 0 0)
(-2.2200652 -0.27205377 0 -2.9904578e-06 0 0)
(-2.218531 -0.27192432 0 2.8086614e-06 0 0)
(-2.219515 -0.27200851 0 -2.4818503e-06 0 0)
(-2.2190608 -0.27196912 0 2.1986263e-06 0 0)
(-2.2190472 -0.27196788 0 -1.4702225e-06 0 0)
(-2.2193983 -0.27200013 0 7.8567663e-07 0 0)
(-2.2187355 -0.27194041 0 -5.8414561e-07 0 0)
(-2.2197025 -0.27202627 0 3.210015e-07 0 0)
(-2.218464 -0.27191714 0 -1.2299217e-07 0 0)
(-2.2199379 -0.27204634 0 -8.8060146e-08 0 0)
(-2.2182623 -0.27189994 0 2.7533456e-07 0 0)
(-2.2201069 -0.27206073 0 -4.5744005e-07 0 0)
(-2.2181234 -0.27188811 0 6.1909285e-07 0 0)
(-2.2202176 -0.27207012 0 -7.6760327e-07 0 0)
(-2.2180387 -0.27188092 0 9.0580058e-07 0 0)
(-2.2202785 -0.27207529 0 -1.0339191e-06 0 0)
(-2.2179999 -0.27187764 0 1.148256e-06 0 0)
(-2.2202964 -0.27207679 0 -1.2533633e-06 0 0)
(-2.2180012 -0.27187776 0 1.3503587e-06 0 0)
(-2.2202773 -0.27207516 0 -1.4379675e-06 0 0)
(-2.2180369 -0.2718808 0 1.5170838e-06 0 0)
(-2.2202262 -0.27207082 0 -1.5888404e-06 0 0)
(-2.2181019 -0.27188634 0 1.6536149e-06 0 0)
(-2.220148 -0.27206419 0 -1.7118526e-06 0 0)
(-2.2181918 -0.27189397 0 1.7641083e-06 0 0)
(-2.2200472 -0.27205565 0 -1.8118965e-06 0 0)
(-2.2183022 -0.27190333 0 1.8532153e-06 0 0)
(-2.2199275 -0.27204553 0 -1.8905749e-06 0 0)
(-2.2184297 -0.27191411 0 1.9252471e-06 0 0)
(-2.2197933 -0.27203423 0 -1.9646079e-06 0 0)
(-2.2185708 -0.27192612 0 1.9586441e-06 0 0)
(-2.2196458 -0.27202193 0 -2.0457369e-06 0 0)
(-2.2187152 -0.27193806 0 2.0952765e-06 0 0)
(-2.2194752 -0.27200562 0 -1.5461117e-06 0 0)
(-2.2188614 -0.27194538 0 3.4973115e-06 0 0)
(-2.2193203 -0.27200186 0 -3.6459794e-06 0 0)
(-2.9421279 -0.99312031 0 -0.28629233 0 0)
(-2.3057936 -0.39059765 0 -0.044570737 0 0)
(-2.6703192 -0.37499369 0 -0.021753313 0 0)
(-2.351614 -0.3070265 0 -0.0090659107 0 0)
(-2.2612244 -0.2840138 0 -0.0031664328 0 0)
(-2.1381963 -0.26681411 0 -0.00058608937 0 0)
(-2.0980993 -0.26461558 0 -0.00031992999 0 0)
(-2.0709472 -0.26268516 0 -8.1526355e-05 0 0)
(-2.0730583 -0.26293733 0 -3.3083014e-05 0 0)
(-2.0691739 -0.26264648 0 -2.1106276e-05 0 0)
(-2.0723501 -0.26292745 0 -2.4166578e-05 0 0)
(-2.070059 -0.26264535 0 7.0400286e-06 0 0)
(-2.0722789 -0.26286655 0 -8.0955821e-06 0 0)
(-2.0704076 -0.2626835 0 3.5478525e-06 0 0)
(-2.0718398 -0.2628075 0 -2.3924137e-06 0 0)
(-2.0709283 -0.26273036 0 2.5362691e-06 0 0)
(-2.0713107 -0.26276141 0 -2.0494741e-06 0 0)
(-2.0713701 -0.26277122 0 1.2791318e-06 0 0)
(-2.0709822 -0.26273122 0 -7.4223975e-07 0 0)
(-2.0716737 -0.26279858 0 5.0153651e-07 0 0)
(-2.0706806 -0.2627043 0 -3.1995119e-07 0 0)
(-2.0719366 -0.26282183 0 1.1861851e-07 0 0)
(-2.0704488 -0.26268388 0 4.7933231e-08 0 0)
(-2.0721341 -0.26283918 0 -2.2500282e-07 0 0)
(-2.0702816 -0.2626692 0 3.7752073e-07 0 0)
(-2.072272 -0.26285122 0 -5.2584994e-07 0 0)
(-2.0701707 -0.26265954 0 6.5575556e-07 0 0)
(-2.0723577 -0.26285861 0 -7.7525142e-07 0 0)
(-2.0701082 -0.26265419 0 8.8666204e-07 0 0)
(-2.0723989 -0.26286207 0 -9.8969526e-07 0 0)
(-2.0700869 -0.2626525 0 1.0805264e-06 0 0)
(-2.0724015 -0.26286211 0 -1.1642075e-06 0 0)
(-2.0701014 -0.26265396 0 1.2413056e-06 0 0)
(-2.072371 -0.26285924 0 -1.310403e-06 0 0)
(-2.0701466 -0.26265814 0 1.372549e-06 0 0)
(-2.072312 -0.26285386 0 -1.4287644e-06 0 0)
(-2.070218 -0.26266463 0 1.4793305e-06 0 0)
(-2.0722289 -0.26284636 0 -1.5245854e-06 0 0)
(-2.0703114 -0.26267305 0 1.565127e-06 0 0)
(-2.0721258 -0.26283711 0 -1.6022878e-06 0 0)
(-2.070423 -0.26268306 0 1.6339311e-06 0 0)
(-2.072006 -0.26282641 0 -1.6627244e-06 0 0)
(-2.0705496 -0.26269436 0 1.6899821e-06 0 0)
(-2.0718734 -0.26281463 0 -1.7218126e-06 0 0)
(-2.0706884 -0.26270681 0 1.7102164e-06 0 0)
(-2.0717295 -0.26280198 0 -1.7937406e-06 0 0)
(-2.0708301 -0.26271918 0 1.8305849e-06 0 0)
(-2.071563 -0.26278539 0 -1.286611e-06 0 0)
(-2.0709648 -0.26272663 0 3.1955407e-06 0 0)
(-2.0713929 -0.26277945 0 -3.3477425e-06 0 0)
(-3.0658929 -0.93996047 0 -0.24365519 0 0)
(-2.1603189 -0.37117935 0 -0.040988149 0 0)
(-2.4895116 -0.35663399 0 -0.01976156 0 0)
(-2.1982339 -0.29569084 0 -0.0086664659 0 0)
(-2.1214755 -0.27362676 0 -0.0027757273 0 0)
(-1.9993888 -0.25747982 0 -0.00055353733 0 0)
(-1.9573244 -0.25520475 0 -0.00027752688 0 0)
(-1.9295578 -0.25338202 0 -6.177827e-05 0 0)
(-1.9298185 -0.25361642 0 -2.5446703e-05 0 0)
(-1.9263522 -0.253397 0 -1.7006777e-05 0 0)
(-1.9290088 -0.25365769 0 -2.2583103e-05 0 0)
(-1.9275244 -0.25344684 0 8.2588166e-06 0 0)
(-1.9290887 -0.25361319 0 -6.8709483e-06 0 0)
(-1.9278772 -0.2534882 0 3.4752202e-06 0 0)
(-1.9287218 -0.25356031 0 -1.9355319e-06 0 0)
(-1.9283988 -0.25353773 0 2.0557715e-06 0 0)
(-1.9283108 -0.25352101 0 -1.1069665e-06 0 0)
(-1.9287238 -0.25356815 0 6.0809263e-07 0 0)
(-1.9280126 -0.25349346 0 -4.5164932e-07 0 0)
(-1.9290169 -0.25359531 0 2.4037582e-07 0 0)
(-1.9277546 -0.25346982 0 -1.1671627e-07 0 0)
(-1.9292418 -0.25361575 0 -5.8885806e-08 0 0)
(-1.9275601 -0.25345213 0 1.9180731e-07 0 0)
(-1.9294061 -0.25363058 0 -3.3571044e-07 0 0)
(-1.9274232 -0.2534398 0 4.5511493e-07 0 0)
(-1.9295167 -0.25364045 0 -5.7294544e-07 0 0)
(-1.9273366 -0.25343215 0 6.7434599e-07 0 0)
(-1.9295808 -0.25364599 0 -7.6776788e-07 0 0)
(-1.9272933 -0.2534285 0 8.5504072e-07 0 0)
(-1.9296051 -0.25364788 0 -9.3548352e-07 0 0)
(-1.9272869 -0.25342826 0 1.0052333e-06 0 0)
(-1.9295948 -0.25364659 0 -1.0697154e-06 0 0)
(-1.9273124 -0.25343095 0 1.1289419e-06 0 0)
(-1.929555 -0.2536426 0 -1.1814694e-06 0 0)
(-1.9273652 -0.25343615 0 1.2284732e-06 0 0)
(-1.9294899 -0.25363628 0 -1.2708273e-06 0 0)
(-1.9274412 -0.25344348 0 1.3087356e-06 0 0)
(-1.9294035 -0.25362803 0 -1.3424245e-06 0 0)
(-1.9275367 -0.25345259 0 1.372534e-06 0 0)
(-1.9292993 -0.25361816 0 -1.4002165e-06 0 0)
(-1.9276483 -0.25346315 0 1.4232416e-06 0 0)
(-1.9291805 -0.25360697 0 -1.4444476e-06 0 0)
(-1.927773 -0.25347489 0 1.4650759e-06 0 0)
(-1.9290505 -0.2535948 0 -1.489984e-06 0 0)
(-1.9279086 -0.25348768 0 1.473911e-06 0 0)