/*--------------------------------*- C++ -*----------------------------------*\
| =========                 |                                                 |
| \\      /  F ield         | OpenFOAM: The Open Source CFD Toolbox           |
|  \\    /   O peration     | Version:  2312                                  |
|   \\  /    A nd           | Website:  www.openfoam.com                      |
|    \\/     M anipulation  |                                                 |
\*---------------------------------------------------------------------------*/
FoamFile
{
    version     2.0;
    format      ascii;
    arch        "LSB;label=32;scalar=64";
    class       volScalarField;
    location    "2";
    object      T;
}
// * * * * * * * * * * * * * * * * * * * * * * * * * * * * * * * * * * * * * //

dimensions      [0 0 0 1 0 0 0];

internalField   nonuniform List<scalar> 
4000
(
312.47921
311.77867
311.64184
311.60327
311.55977
311.52928
311.50086
311.47544
311.45131
311.42849
311.40635
311.38484
311.36397
311.34324
311.32321
311.30303
311.28359
311.2638
311.24481
311.22532
311.20666
311.18739
311.16901
311.14992
311.13176
311.1128
311.09483
311.07599
311.05817
311.03945
311.02176
311.00314
310.98558
310.96705
310.94961
310.93118
310.91385
310.89551
310.8783
310.86003
310.84294
310.82474
310.80777
310.78961
310.77278
310.75463
310.73797
310.71974
310.70339
310.68462
313.66705
312.53531
312.16529
312.08381
311.9883
311.93149
311.88096
311.83937
311.80168
311.76787
311.73614
311.70628
311.67834
311.65082
311.62541
311.59954
311.5759
311.55121
311.5289
311.50509
311.4838
311.46066
311.44019
311.41757
311.39777
311.37557
311.35632
311.33448
311.31569
311.29418
311.2758
311.25459
311.23659
311.21566
311.19801
311.17737
311.16007
311.13969
311.12273
311.10259
311.08598
311.06604
311.04979
311.02998
311.01415
310.99435
310.97905
310.95902
310.94464
310.92308
314.40069
313.26326
312.68437
312.56102
312.41486
312.33208
312.25976
312.20211
312.15099
312.10625
312.06502
312.02684
311.99189
311.9576
311.92684
311.8953
311.86748
311.83791
311.81229
311.78418
311.76028
311.73327
311.71073
311.68459
311.66315
311.63772
311.61718
311.59236
311.5726
311.54831
311.52922
311.50544
311.48697
311.46366
311.44578
311.42294
311.40562
311.38322
311.36647
311.34446
311.3283
311.30661
311.29107
311.26959
311.25474
311.23327
311.2193
311.19746
311.185
311.16083
314.88576
313.93665
313.19151
313.03032
312.83654
312.72886
312.63554
312.56217
312.49801
312.44248
312.39198
312.34557
312.30375
312.26277
312.22676
312.18959
312.15766
312.12324
312.09437
312.06199
312.0355
312.00466
311.98006
311.95044
311.92737
311.89874
311.87693
311.84914
311.8284
311.80136
311.78156
311.75522
311.73627
311.71059
311.69245
311.66742
311.65006
311.62563
311.60906
311.58517
311.56942
311.54597
311.53108
311.50792
311.49401
311.47087
311.45818
311.43452
311.42391
311.39738
315.22206
314.53496
313.67697
313.48554
313.24934
313.11882
313.00595
312.91759
312.84104
312.77509
312.71568
312.66128
312.61284
312.5653
312.5242
312.48151
312.4456
312.40641
312.37438
312.33779
312.30878
312.27417
312.24756
312.21451
312.18984
312.15805
312.13499
312.10427
312.08257
312.05281
312.03229
312.00342
311.98398
311.95596
311.93753
311.91032
311.89288
311.86644
311.85
311.82424
311.80884
311.78363
311.76934
311.74449
311.73145
311.70662
311.69515
311.66968
311.66079
311.6322
315.46231
315.04347
314.13048
313.91947
313.64848
313.49833
313.36812
313.26598
313.17805
313.10226
313.03454
312.97251
312.91783
312.86399
312.81807
312.77004
312.73031
312.68649
312.65144
312.61075
312.57932
312.54103
312.51249
312.47608
312.44987
312.415
312.39072
312.35715
312.3345
312.30209
312.28085
312.24951
312.22955
312.19923
312.18049
312.15114
312.13358
312.10514
312.08879
312.06116
312.04606
312.01909
312.00534
311.97879
311.96656
311.94004
311.9297
311.90246
311.8951
311.86475
315.63787
315.45643
314.54298
314.32464
314.02877
313.86334
313.7188
313.60462
313.50669
313.42194
313.34673
313.27763
313.21723
313.15746
313.10708
313.05398
313.01071
312.96247
312.92457
312.87995
312.84625
312.80441
312.77404
312.7344
312.70673
312.66889
312.64344
312.60712
312.58354
312.54857
312.52662
312.4929
312.47242
312.43987
312.42078
312.38935
312.37163
312.34124
312.32492
312.29545
312.28059
312.25187
312.23859
312.21035
312.19884
312.17065
312.16133
312.13237
312.12633
312.09449
315.76853
315.77526
314.90767
314.69415
314.38511
314.20966
314.05453
313.93058
313.82444
313.73192
313.65027
313.57483
313.50942
313.44423
313.38987
313.33207
313.28559
313.23321
313.19273
313.1444
313.10861
313.06342
313.03136
312.98865
312.95962
312.91895
312.89241
312.85347
312.82902
312.79161
312.76897
312.73296
312.71196
312.67728
312.65783
312.6244
312.60648
312.5742
312.55786
312.5266
312.51191
312.48148
312.46859
312.43868
312.42781
312.39797
312.38955
312.35895
312.354
312.32091
315.86765
316.008
315.22099
315.0226
314.71299
314.5333
314.37186
314.24091
314.12869
314.02989
313.9431
313.86225
313.79268
313.72271
313.66496
313.60294
313.55369
313.49753
313.45478
313.40305
313.3654
313.3171
313.28353
313.23797
313.20771
313.16439
313.13686
313.09546
313.0702
313.0305
313.00721
312.96907
312.94756
312.91087
312.89105
312.85571
312.83758
312.80348
312.78708
312.75409
312.73952
312.70742
312.69485
312.66332
312.65299
312.62156
312.6139
312.58176
312.57766
312.54351
315.9446
316.16701
315.48237
315.30682
315.00884
314.83075
314.66762
314.53276
314.41689
314.31356
314.22312
314.138
314.06527
313.99132
313.93087
313.86521
313.8137
313.75421
313.70957
313.65479
313.61558
313.56446
313.52961
313.48144
313.45012
313.40439
313.37598
313.33233
313.30635
313.26455
313.24067
313.20055
313.17857
313.14001
313.11983
313.08272
313.06435
313.02855
313.01206
312.97742
312.96293
312.92923
312.9169
312.88381
312.87393
312.84097
312.83393
312.80037
312.7969
312.76183
316.00594
316.26705
315.69424
315.54619
315.27035
315.09928
314.9391
314.80363
314.68671
314.58079
314.48838
314.40025
314.32548
314.24847
314.18613
314.11752
314.06432
314.00204
313.95595
313.89854
313.8581
313.80453
313.76864
313.71817
313.68599
313.63811
313.60897
313.56332
313.53672
313.49304
313.46864
313.42675
313.40434
313.36408
313.34357
313.30483
313.28623
313.24886
313.23226
313.19608
313.18161
313.1464
313.13427
313.09969
313.09016
313.05577
313.04922
313.01436
313.01132
312.97545
316.05638
316.32336
315.8613
315.74243
315.49656
315.33715
315.18429
315.05145
314.93615
314.82971
314.73708
314.64734
314.57175
314.49268
314.42932
314.35852
314.3043
314.23982
314.19278
314.13323
314.09194
314.03631
313.99969
313.94727
313.91445
313.86473
313.83503
313.78765
313.76057
313.71525
313.69043
313.64698
313.62421
313.58246
313.56166
313.52146
313.50266
313.46385
313.44714
313.40955
313.3951
313.35848
313.34649
313.31053
313.30127
313.26554
313.25935
313.22332
313.22055
313.18395
316.09911
316.35002
315.98982
315.89908
315.68792
315.54377
315.40199
315.27481
315.1637
315.05878
314.96772
314.8778
314.80266
314.72262
314.65917
314.58702
314.53246
314.46645
314.41899
314.35784
314.31612
314.25889
314.22185
314.16786
314.13465
314.08344
314.05338
314.00457
313.97715
313.93048
313.90535
313.86059
313.83755
313.79453
313.7735
313.73204
313.71307
313.67301
313.6562
313.61735
313.60289
313.565
313.55311
313.51589
313.50682
313.46989
313.46394
313.42687
313.42424
313.38696
316.13634
316.35886
316.08665
316.02103
315.84621
315.71965
315.59192
315.47298
315.36838
315.26693
315.17917
315.09051
315.01707
314.93716
314.87458
314.80193
314.74778
314.68093
314.63362
314.57143
314.52972
314.47138
314.43427
314.37915
314.34582
314.29348
314.26327
314.21337
314.18578
314.13806
314.11275
314.06696
314.04374
313.99969
313.97851
313.93601
313.91692
313.8758
313.85893
313.81898
313.80452
313.76552
313.7537
313.71536
313.70643
313.66843
313.66262
313.62465
313.62206
313.58415
316.16947
316.35879
316.15855
316.1138
315.97434
315.86641
315.75467
315.646
315.54984
315.4536
315.37069
315.28466
315.21412
315.13544
315.07465
315.00239
314.94937
314.8824
314.83581
314.7732
314.73196
314.67301
314.63619
314.58038
314.54722
314.49415
314.46402
314.41339
314.38581
314.33735
314.31201
314.26548
314.24221
314.19739
314.17615
314.13285
314.11371
314.07173
314.05484
314.01399
313.99955
313.9596
313.94784
313.90855
313.89971
313.86079
313.85506
313.81629
313.81369
313.7752
316.19943
316.3559
316.21165
316.18309
316.07597
315.98648
315.89166
315.7946
315.70835
315.61875
315.54203
315.45985
315.3933
315.31687
315.25875
315.18774
315.13656
315.07018
315.02489
314.96246
314.92215
314.86311
314.82696
314.77091
314.73822
314.68484
314.65502
314.60403
314.57665
314.5278
314.50258
314.45561
314.43241
314.3871
314.36591
314.32205
314.30296
314.26034
314.2435
314.20194
314.18756
314.14684
314.13516
314.09507
314.0863
314.04661
314.04092
314.0015
313.99885
313.95982
316.22678
316.35372
316.25116
316.23428
316.15518
316.08296
316.00499
315.92019
315.84478
315.76286
315.69338
315.61608
315.55446
315.4812
315.42655
315.35756
315.30889
315.24379
315.20035
315.13869
315.09976
315.04116
315.00604
314.95022
314.91829
314.86501
314.83575
314.78477
314.7578
314.70889
314.68396
314.63686
314.61388
314.56836
314.54734
314.50317
314.48422
314.4412
314.42448
314.38242
314.36816
314.32687
314.31529
314.27458
314.26589
314.2256
314.21992
314.17996
314.17727
314.13776
316.2519
316.35394
316.28124
316.27208
316.21611
316.15923
316.09724
316.02468
315.96048
315.88691
315.82538
315.75376
315.69779
315.62849
315.57797
315.51173
315.46616
315.40297
315.36189
315.30155
315.26442
315.20677
315.17303
315.1179
315.08703
315.03426
315.0058
314.9552
314.92884
314.8802
314.85575
314.80882
314.78621
314.74076
314.72004
314.67582
314.65712
314.61393
314.59743
314.55509
314.54101
314.49935
314.48791
314.44677
314.43817
314.39744
314.39178
314.35142
314.34868
314.30879
316.27498
316.35691
316.30501
316.3004
316.26264
316.21878
316.17125
316.11036
316.05724
315.99226
315.93906
315.87364
315.82385
315.75911
315.71326
315.65037
315.60839
315.54767
315.50939
315.4509
315.41596
315.35972
315.32769
315.27368
315.24413
315.19227
315.16484
315.115
315.08944
315.04142
315.0176
314.97116
314.94907
314.90396
314.88368
314.83966
314.82133
314.77821
314.76203
314.71963
314.7058
314.66398
314.65273
314.61136
314.60288
314.56189
314.55626
314.51564
314.51288
314.4727
316.29623
316.36233
316.32467
316.32228
316.29823
316.26492
316.22995
316.1797
316.1371
316.08058
316.03575
315.9768
315.93348
315.87372
315.83293
315.77384
315.73585
315.67807
315.64295
315.58678
315.55435
315.49996
315.46993
315.41744
315.38947
315.33889
315.31271
315.26396
315.2394
315.1923
315.1693
315.12362
315.10221
315.05771
315.038
314.99444
314.9766
314.93378
314.91802
314.87578
314.8623
314.82052
314.80953
314.76812
314.75981
314.71872
314.71317
314.67243
314.66968
314.62934
316.31577
316.36955
316.34167
316.33993
316.32577
316.30063
316.27615
316.23523
316.20225
316.15376
316.11703
316.06458
316.02778
315.97324
315.9377
315.88277
315.84903
315.79456
315.76289
315.7094
315.67976
315.6276
315.5998
315.54919
315.52302
315.47406
315.44933
315.40199
315.3786
315.33273
315.3107
315.26606
315.24547
315.20184
315.18284
315.13997
315.12275
315.08046
315.06521
315.02336
315.0103
314.96878
314.95812
314.91687
314.90877
314.86777
314.86234
314.82163
314.81892
314.77855
316.33378
316.37793
316.35692
316.35488
316.34757
316.32848
316.31242
316.2794
316.2549
316.21376
316.18462
316.13846
316.10805
316.05877
316.02854
315.97794
315.9486
315.89772
315.86967
315.81918
315.79251
315.74289
315.71753
315.66911
315.64491
315.59789
315.57476
315.52912
315.50706
315.46268
315.44177
315.39842
315.3788
315.33626
315.3181
315.27614
315.25965
315.2181
315.20349
315.16222
315.14969
315.10862
315.09836
315.05745
315.04964
315.0089
315.00364
314.96312
314.96048
314.92025
316.35036
316.38688
316.37091
316.36812
316.36537
316.35054
316.34101
316.31442
316.29717
316.26253
316.2403
316.20004
316.17569
316.13157
316.10653
316.06033
316.03542
315.98827
315.96395
315.91665
315.8931
315.84625
315.82346
315.7775
315.75541
315.71056
315.68919
315.64549
315.6249
315.58223
315.56257
315.52074
315.50221
315.46097
315.44378
315.40294
315.38729
315.34668
315.33279
315.29231
315.28038
315.23996
315.23018
315.18981
315.18234
315.14204
315.13699
315.09683
315.09429
315.05436
316.36566
316.396
316.38391
316.38024
316.3804
316.36845
316.36378
316.34226
316.331
316.30195
316.28582
316.25092
316.23217
316.19296
316.1729
316.13102
316.11044
316.06708
316.04649
316.00252
315.98212
315.93823
315.91808
315.87476
315.85489
315.81242
315.7929
315.75134
315.73233
315.69158
315.67328
315.63315
315.61582
315.57608
315.55994
315.5204
315.50569
315.46621
315.45314
315.41362
315.40238
315.36279
315.35356
315.3139
315.30683
315.26715
315.26236
315.22274
315.22032
315.18085
316.3798
316.40502
316.39607
316.39156
316.39351
316.3834
316.38223
316.36457
316.35812
316.33372
316.32282
316.29269
316.27898
316.24431
316.22889
316.19116
316.17474
316.13511
316.11816
316.07756
316.0603
316.01945
316.00198
315.96143
315.94382
315.90388
315.88628
315.84702
315.82967
315.79099
315.77415
315.73587
315.71983
315.68174
315.66676
315.62867
315.61499
315.57679
315.56462
315.52623
315.51575
315.47715
315.46854
315.42976
315.42315
315.38425
315.37977
315.34084
315.33858
315.29975
316.39289
316.41377
316.40742
316.40222
316.40525
316.39626
316.39752
316.3827
316.37997
316.35935
316.35282
316.3268
316.31752
316.28697
316.27577
316.24193
316.22939
316.19337
316.1799
316.14263
316.12843
316.09067
316.07583
316.03813
316.02278
315.98547
315.96982
315.93297
315.91732
315.88084
315.86551
315.82921
315.81453
315.7782
315.76445
315.72795
315.71537
315.67859
315.66739
315.63027
315.62062
315.58316
315.57522
315.53747
315.53137
315.49341
315.48927
315.45121
315.44912
315.41109
316.40503
316.42217
316.418
316.41229
316.41595
316.40761
316.41048
316.3977
316.39777
316.38014
316.37715
316.3546
316.34912
316.32219
316.31475
316.28449
316.27551
316.24291
316.2327
316.19866
316.18737
316.15265
316.14037
316.10553
316.09241
316.05777
316.04407
316.00969
315.99577
315.96155
315.94777
315.91353
315.90026
315.8658
315.85333
315.81852
315.80709
315.77184
315.76165
315.72593
315.71715
315.68098
315.67375
315.63718
315.63163
315.59476
315.59098
315.55394
315.55204
315.51498
316.41631
316.4302
316.42785
316.4218
316.42581
316.41783
316.42172
316.41036
316.41248
316.39714
316.39695
316.37726
316.37496
316.35118
316.34701
316.31995
316.31418
316.28474
316.27753
316.24656
316.238
316.20623
316.19639
316.16436
316.15341
316.12142
316.10964
316.07774
316.06554
316.03362
316.02141
315.98927
315.97744
315.94491
315.93375
315.9007
315.89046
315.85684
315.8477
315.81348
315.8056
315.77082
315.76434
315.72907
315.72409
315.68845
315.68506
315.64918
315.64748
315.61154
316.4268
316.43784
316.43699
316.43073
316.43493
316.42715
316.43166
316.42128
316.42482
316.41121
316.41318
316.3958
316.39609
316.37498
316.3736
316.34938
316.34641
316.31985
316.31534
316.28724
316.28119
316.25224
316.24468
316.21538
316.20648
316.1771
316.16718
316.13773
316.12723
316.09759
316.08694
316.05692
316.04652
316.01595
316.00612
315.97489
315.96584
315.93392
315.92584
315.89321
315.88625
315.85296
315.84723
315.81338
315.80898
315.77469
315.7717
315.73712
315.73562
315.70093
316.43657
316.4451
316.44545
316.43908
316.44338
316.43571
316.44057
316.43084
316.43536
316.42303
316.42661
316.41105
316.4134
316.39452
316.39547
316.3737
316.37316
316.34918
316.34706
316.3216
316.31781
316.29151
316.28604
316.25935
316.25237
316.22551
316.21735
316.1903
316.18143
316.15405
316.14492
316.117
316.10802
316.07942
316.07089
316.04151
316.03365
316.00346
315.99645
315.96546
315.95942
315.9277
315.92274
315.89039
315.88658
315.85374
315.85115
315.81798
315.81668
315.78337
316.44567
316.45199
316.45327
316.44686
316.45117
316.44361
316.44862
316.43935
316.44449
316.43309
316.43784
316.42371
316.42766
316.4106
316.41346
316.39378
316.39529
316.37359
316.37354
316.35047
316.34869
316.32483
316.32126
316.29702
316.2918
316.26734
316.26083
316.23609
316.22877
316.20358
316.19591
316.17006
316.16245
316.1358
316.12855
316.10101
316.09433
316.06589
316.05992
316.03062
316.02549
315.9954
315.99118
315.96041
315.95718
315.92587
315.92369
315.89201
315.89091
315.85908
316.45414
316.4585
316.46047
316.45407
316.45834
316.45087
316.45593
316.44698
316.4525
316.44178
316.44734
316.4343
316.43948
316.42389
316.42826
316.41035
316.41355
316.39383
316.39555
316.37461
316.37458
316.35296
316.35108
316.3291
316.3255
316.30328
316.2983
316.27575
316.26988
316.24679
316.24051
316.21666
316.21037
316.18562
316.1796
316.15389
316.14833
316.12165
316.11669
316.0891
316.08484
316.05641
316.05292
316.02378
316.02111
315.9914
315.9896
315.9595
315.9586
315.92832
316.46203
316.46464
316.46707
316.46071
316.4649
316.45752
316.46255
316.45385
316.45957
316.44936
316.45546
316.44327
316.44933
316.43493
316.44048
316.42405
316.42862
316.4106
316.41379
316.39474
316.39621
316.37659
316.37619
316.35629
316.35413
316.33399
316.33041
316.3099
316.30538
316.28427
316.2793
316.25736
316.25231
316.2294
316.22455
316.20062
316.19614
316.1712
316.16721
316.14132
316.1379
316.11114
316.10835
316.08086
316.07874
316.05067
316.04923
316.02076
316.02004
315.99138
316.46934
316.47038
316.47309
316.46677
316.47084
316.46357
316.46853
316.46005
316.46585
316.45602
316.46247
316.45092
316.45762
316.44417
316.45061
316.43539
316.44105
316.42449
316.42888
316.41147
316.4142
316.39637
316.39725
316.37922
316.37832
316.3601
316.35777
316.33916
316.33587
316.31661
316.31284
316.29271
316.28882
316.26768
316.26392
316.24172
316.23825
316.21501
316.21192
316.18772
316.18508
316.16
316.15787
316.13204
316.13042
316.10402
316.10293
316.07611
316.07557
316.04856
316.47609
316.4757
316.47852
316.47226
316.47618
316.46903
316.47389
316.46561
316.47142
316.4619
316.46854
316.45751
316.46464
316.45194
316.45904
316.44482
316.45132
316.43599
316.44134
316.42535
316.42913
316.41287
316.41483
316.39847
316.39868
316.38218
316.38096
316.36408
316.3619
316.34437
316.34169
316.32326
316.32043
316.30096
316.29821
316.27766
316.27512
316.25354
316.25129
316.22873
316.22683
316.2034
316.20187
316.17771
316.17656
316.15181
316.15104
316.1259
316.12552
316.10017
316.48225
316.48055
316.48335
316.47716
316.48092
316.47391
316.47865
316.47057
316.47634
316.46709
316.47383
316.46321
316.47061
316.45853
316.46609
316.4527
316.45983
316.44552
316.45163
316.43686
316.44148
316.42659
316.42945
316.41457
316.41572
316.40076
316.40052
316.38521
316.38402
316.36806
316.36637
316.3495
316.34764
316.32974
316.32791
316.30894
316.30725
316.28725
316.28577
316.26481
316.26357
316.24176
316.24078
316.21825
316.21752
316.19443
316.19395
316.17047
316.17023
316.14655
316.48774
316.48487
316.48756
316.48146
316.48505
316.47822
316.48282
316.47497
316.48065
316.47166
316.47842
316.46815
316.47571
316.46413
316.472
316.4593
316.46688
316.45344
316.46013
316.44639
316.45168
316.43797
316.44157
316.42799
316.42994
316.41634
316.41693
316.40303
316.4027
316.38817
316.38735
316.37194
316.37093
316.35449
316.35348
316.33599
316.33507
316.31658
316.31579
316.29636
316.29572
316.27548
316.27499
316.25406
316.25372
316.23224
316.23202
316.21017
316.21007
316.18802
316.49243
316.4886
316.49113
316.48516
316.48859
316.48196
316.48643
316.47881
316.4844
316.47567
316.48239
316.47244
316.48006
316.46892
316.47698
316.46485
316.47275
316.46004
316.46715
316.45429
316.46009
316.44739
316.45159
316.43912
316.44173
316.42933
316.43064
316.41798
316.41841
316.40516
316.4051
316.391
316.39075
316.37566
316.37538
316.35927
316.35903
316.34196
316.34177
316.32382
316.3237
316.30497
316.30491
316.28552
316.28551
316.26561
316.26562
316.24536
316.24537
316.22492
316.49615
316.49166
316.49404
316.48827
316.49155
316.48515
316.4895
316.48213
316.48762
316.47915
316.4858
316.47615
316.48377
316.47301
316.48116
316.46953
316.47762
316.46553
316.47294
316.46082
316.46702
316.45516
316.45985
316.44832
316.45149
316.44011
316.44202
316.43046
316.43152
316.41942
316.42002
316.4071
316.40751
316.39365
316.394
316.37918
316.37952
316.36378
316.36413
316.34756
316.3479
316.3306
316.33092
316.31301
316.31328
316.29489
316.29509
316.27637
316.27648
316.25757
316.49881
316.49403
316.4963
316.49079
316.49395
316.48782
316.49205
316.48496
316.49034
316.48214
316.48869
316.47934
316.48691
316.4765
316.48467
316.47348
316.48167
316.47011
316.47771
316.46621
316.4727
316.46157
316.46662
316.4559
316.4595
316.44901
316.45142
316.4408
316.4424
316.4313
316.43246
316.42061
316.42157
316.40884
316.40972
316.39608
316.39693
316.38243
316.38323
316.36795
316.36869
316.35273
316.35338
316.33686
316.33739
316.32043
316.3208
316.30354
316.30373
316.2863
316.5004
316.49572
316.49796
316.49276
316.49584
316.49
316.49412
316.48733
316.49258
316.48468
316.49112
316.48207
316.48954
316.47947
316.4876
316.4768
316.48502
316.47391
316.48163
316.47066
316.47734
316.46681
316.47214
316.4621
316.46605
316.45631
316.45912
316.44932
316.45136
316.44114
316.44277
316.43185
316.43329
316.42156
316.4229
316.41033
316.41159
316.39824
316.39941
316.38535
316.3864
316.37172
316.37263
316.35743
316.35815
316.34256
316.34306
316.32719
316.32745
316.31142
316.50108
316.4968
316.49906
316.49424
316.49725
316.49174
316.49575
316.48927
316.4944
316.4868
316.49311
316.48437
316.49172
316.48198
316.49002
316.47958
316.48778
316.47707
316.48483
316.47431
316.48111
316.47108
316.47661
316.46713
316.47136
316.46223
316.46537
316.45626
316.45867
316.4492
316.45121
316.44113
316.44294
316.43211
316.43382
316.42223
316.42384
316.41153
316.41301
316.40005
316.40137
316.38786
316.38899
316.37502
316.37591
316.36158
316.3622
316.34763
316.34794
316.33323
316.50111
316.4974
316.49971
316.49528
316.49824
316.49307
316.49698
316.49083
316.49582
316.48855
316.4947
316.48629
316.49349
316.48407
316.49199
316.48189
316.49001
316.47966
316.48741
316.47727
316.48413
316.47452
316.48019
316.47117
316.4756
316.46699
316.47038
316.46184
316.46454
316.45572
316.45804
316.44867
316.4508
316.44076
316.44277
316.43205
316.43393
316.42257
316.4243
316.41236
316.41389
316.40146
316.40275
316.38992
316.39094
316.37779
316.37849
316.36513
316.36549
316.35201
316.50076
316.49764
316.49999
316.49597
316.49888
316.49405
316.49785
316.49204
316.49689
316.48995
316.49594
316.48786
316.49488
316.4858
316.49355
316.48378
316.49178
316.48176
316.48944
316.47964
316.48651
316.47724
316.48299
316.47434
316.47892
316.47073
316.47432
316.46626
316.46918
316.4609
316.46346
316.45471
316.45708
316.44774
316.44998
316.44004
316.44213
316.43162
316.43354
316.42252
316.42421
316.41277
316.41419
316.4024
316.40351
316.39146
316.39222
316.37998
316.38036
316.36802
316.50025
316.49765
316.5
316.49636
316.49921
316.49474
316.49842
316.49295
316.49765
316.49105
316.49685
316.48911
316.49593
316.48718
316.49474
316.48529
316.49313
316.48341
316.49099
316.48148
316.48832
316.47933
316.48512
316.47677
316.48145
316.47358
316.47732
316.46964
316.47274
316.46491
316.46765
316.45943
316.46198
316.45325
316.45566
316.4464
316.44866
316.4389
316.44096
316.43077
316.43258
316.42203
316.42355
316.41271
316.41388
316.40282
316.40363
316.39241
316.39282
316.38151
316.49969
316.49752
316.49981
316.49653
316.4993
316.49517
316.49872
316.4936
316.49813
316.49188
316.49748
316.49008
316.49668
316.48826
316.4956
316.48646
316.4941
316.48467
316.49211
316.48284
316.48961
316.48086
316.48664
316.47853
316.48326
316.47565
316.47949
316.47212
316.47534
316.46789
316.47075
316.46298
316.46566
316.45745
316.45998
316.45132
316.45369
316.44461
316.44676
316.43732
316.4392
316.42946
316.43103
316.42105
316.42227
316.41211
316.41294
316.40265
316.40308
316.39271
316.49913
316.49731
316.49949
316.49653
316.4992
316.4954
316.49881
316.49403
316.49837
316.49248
316.49784
316.4908
316.49714
316.48906
316.49613
316.4873
316.49471
316.48555
316.49281
316.48377
316.49043
316.48187
316.48762
316.47968
316.48443
316.47702
316.48092
316.47378
316.47709
316.46993
316.47289
316.46549
316.46825
316.46049
316.4631
316.45496
316.45739
316.44891
316.45111
316.44233
316.44426
316.43524
316.43684
316.42763
316.42888
316.41952
316.42037
316.41092
316.41135
316.40184
316.49858
316.49705
316.49907
316.4964
316.49896
316.49547
316.49872
316.49427
316.49841
316.49286
316.49798
316.49128
316.49733
316.48958
316.49637
316.48784
316.49498
316.48607
316.49311
316.48429
316.49079
316.4824
316.48807
316.48027
316.48501
316.47774
316.48167
316.47471
316.47807
316.47114
316.47415
316.46705
316.46987
316.46248
316.46513
316.45744
316.45991
316.45194
316.45417
316.44597
316.44792
316.43953
316.44115
316.43262
316.43387
316.42524
316.42609
316.41739
316.41782
316.40907
316.49802
316.49676
316.4986
316.49619
316.49861
316.49541
316.49849
316.49436
316.49827
316.49305
316.49789
316.49153
316.49727
316.48985
316.4963
316.48807
316.4949
316.48625
316.49303
316.48439
316.49072
316.48246
316.48803
316.48033
316.48503
316.47786
316.48179
316.47495
316.47833
316.47158
316.47462
316.46776
316.47059
316.46352
316.46619
316.45887
316.46135
316.45382
316.45606
316.44836
316.45031
316.44248
316.4441
316.43617
316.43742
316.42943
316.43028
316.42223
316.42266
316.41459
316.49745
316.49645
316.49809
316.4959
316.49817
316.49525
316.49814
316.49431
316.49797
316.49308
316.49761
316.49157
316.49697
316.48985
316.49595
316.48799
316.49449
316.48606
316.49256
316.4841
316.49021
316.48206
316.48749
316.47987
316.4845
316.47739
316.4813
316.47455
316.47792
316.4713
316.47434
316.46767
316.4705
316.46368
316.46635
316.45935
316.46182
316.45467
316.45689
316.44963
316.45157
316.44422
316.44582
316.43842
316.43966
316.43222
316.43306
316.4256
316.42603
316.41855
316.49685
316.49612
316.49754
316.49556
316.49767
316.495
316.49768
316.49413
316.49753
316.49294
316.49714
316.4914
316.49641
316.4896
316.49529
316.48761
316.49372
316.48552
316.49169
316.48339
316.48925
316.48121
316.48647
316.4789
316.48343
316.47636
316.48022
316.47352
316.47687
316.47035
316.47336
316.46684
316.46965
316.46304
316.46567
316.45894
316.46139
316.45455
316.45676
316.44986
316.45178
316.44484
316.44643
316.43948
316.4407
316.43375
316.43458
316.42763
316.42805
316.42109
316.49623
316.49577
316.49697
316.49518
316.49711
316.49467
316.49714
316.49385
316.49695
316.49263
316.49646
316.491
316.49559
316.48905
316.4943
316.48688
316.49257
316.48459
316.4904
316.48225
316.48783
316.47988
316.48494
316.47741
316.48183
316.47478
316.47856
316.47189
316.47519
316.46873
316.47171
316.4653
316.46807
316.46163
316.46423
316.45771
316.46012
316.45356
316.45573
316.44915
316.45103
316.44446
316.44601
316.43946
316.44066
316.43413
316.43494
316.42843
316.42884
316.42233
316.49558
316.49541
316.49636
316.49476
316.49651
316.49429
316.49652
316.49345
316.49623
316.49214
316.49557
316.49035
316.49449
316.4882
316.49297
316.48579
316.49102
316.48325
316.48865
316.48066
316.48592
316.47806
316.4829
316.47541
316.47967
316.47263
316.47632
316.46966
316.4729
316.46648
316.46941
316.46309
316.46581
316.45949
316.46204
316.45571
316.45807
316.45174
316.45387
316.44756
316.4494
316.44314
316.44466
316.43845
316.43962
316.43345
316.43425
316.42812
316.42852
316.4224
316.4949
316.49502
316.49572
316.49431
316.49588
316.49384
316.49581
316.49292
316.49535
316.49144
316.49443
316.48942
316.49307
316.48699
316.49126
316.48429
316.48904
316.48146
316.48643
316.47859
316.4835
316.47573
316.48031
316.47286
316.47695
316.46992
316.4735
316.46684
316.47
316.46361
316.46647
316.46021
316.46287
316.45667
316.45916
316.45298
316.45529
316.44915
316.45123
316.44515
316.44696
316.44095
316.44245
316.43651
316.43767
316.4318
316.43259
316.42677
316.42717
316.42138
316.49417
316.49461
316.49506
316.49382
316.49519
316.49331
316.495
316.49224
316.49428
316.4905
316.49302
316.48817
316.49128
316.48539
316.48911
316.48235
316.48657
316.47918
316.4837
316.476
316.48054
316.47287
316.47716
316.46976
316.47365
316.46663
316.47008
316.46342
316.46649
316.46012
316.46291
316.4567
316.4593
316.45318
316.45561
316.44956
316.45181
316.44583
316.44787
316.44197
316.44375
316.43795
316.43942
316.43373
316.43486
316.42926
316.43003
316.42449
316.42488
316.41937
316.4934
316.49419
316.49436
316.4933
316.49446
316.49269
316.49406
316.49137
316.49296
316.48927
316.49126
316.48653
316.48908
316.48334
316.48649
316.47991
316.48359
316.47638
316.4804
316.47287
316.477
316.46943
316.47342
316.46607
316.46975
316.46275
316.46605
316.4594
316.46237
316.45601
316.45872
316.45255
316.45508
316.44904
316.45141
316.44546
316.44767
316.44182
316.44381
316.43808
316.43982
316.43421
316.43565
316.43016
316.43128
316.42589
316.42665
316.42134
316.42172
316.41645
316.49257
316.49375
316.49362
316.49274
316.49366
316.49195
316.49294
316.49025
316.49136
316.48767
316.48911
316.48443
316.48639
316.48078
316.48334
316.47691
316.48003
316.473
316.47652
316.46914
316.47285
316.46541
316.46907
316.4618
316.46524
316.45827
316.46141
316.45478
316.45764
316.4513
316.45392
316.44779
316.45025
316.44427
316.44658
316.44073
316.44288
316.43715
316.4391
316.43351
316.43521
316.42976
316.43118
316.42586
316.42696
316.42176
316.4225
316.41739
316.41776
316.41269
316.49169
316.4933
316.49285
316.49213
316.49276
316.49103
316.49159
316.48881
316.48937
316.48563
316.48648
316.48181
316.48316
316.47763
316.47959
316.47331
316.47585
316.469
316.472
316.4648
316.46807
316.46077
316.46408
316.45691
316.46009
316.45319
316.45615
316.44956
316.45228
316.44598
316.44851
316.44243
316.44481
316.4389
316.44114
316.43538
316.43747
316.43185
316.43376
316.42829
316.42996
316.42465
316.42605
316.42088
316.42196
316.41691
316.41765
316.41269
316.41307
316.40816
316.49073
316.49286
316.49203
316.49146
316.49171
316.48988
316.48991
316.48696
316.48693
316.48306
316.48328
316.47858
316.47931
316.47384
316.47519
316.46904
316.47101
316.46433
316.46681
316.4598
316.46262
316.45548
316.45844
316.45139
316.45431
316.44749
316.45026
316.44373
316.44632
316.44006
316.44249
316.43647
316.43877
316.43293
316.43511
316.42943
316.43148
316.42596
316.42782
316.42247
316.42411
316.41892
316.42029
316.41526