/*--------------------------------*- C++ -*----------------------------------*\
| =========                 |                                                 |
| \\      /  F ield         | OpenFOAM: The Open Source CFD Toolbox           |
|  \\    /   O peration     | Version:  2312                                  |
|   \\  /    A nd           | Website:  www.openfoam.com                      |
|    \\/     M anipulation  |                                                 |
\*---------------------------------------------------------------------------*/
FoamFile
{
    version     2.0;
    format      ascii;
    arch        "LSB;label=32;scalar=64";
    class       volVectorField;
    location    "2";
    object      U;
}
// * * * * * * * * * * * * * * * * * * * * * * * * * * * * * * * * * * * * * //

dimensions      [0 1 -1 0 0 0 0];

internalField   nonuniform List<vector> 
4000
(
(0.0033608033 0.00065429349 0)
(0.0064040499 -7.8943138e-06 0)
(0.0031509659 6.6174516e-08 0)
(0.003865243 -6.6183788e-07 0)
(0.0035993313 7.1901632e-08 0)
(0.0035890772 -1.9079284e-07 0)
(0.00357894 8.3343757e-08 0)
(0.0035431454 -1.349544e-07 0)
(0.0035564506 9.5248977e-08 0)
(0.0035384299 -9.6546518e-08 0)
(0.0035491232 7.9895183e-08 0)
(0.0035379152 -7.4396507e-08 0)
(0.0035483197 6.764753e-08 0)
(0.0035379042 -6.1895714e-08 0)
(0.0035475731 5.5845032e-08 0)
(0.0035387198 -5.005103e-08 0)
(0.0035467202 4.4631067e-08 0)
(0.0035395189 -3.9550662e-08 0)
(0.003545966 3.4802008e-08 0)
(0.0035402064 -3.0357575e-08 0)
(0.0035453269 2.6211888e-08 0)
(0.0035407876 -2.2323316e-08 0)
(0.0035447916 1.8706556e-08 0)
(0.0035412743 -1.5330282e-08 0)
(0.003544345 1.2191248e-08 0)
(0.0035416765 -9.2285636e-09 0)
(0.003543977 6.4888755e-09 0)
(0.0035420096 -3.8942933e-09 0)
(0.0035436737 1.3636284e-09 0)
(0.003542281 9.0682821e-10 0)
(0.0035434399 -2.5790604e-09 0)
(0.0035424763 4.1481793e-09 0)
(0.0035432659 -5.9988219e-09 0)
(0.0035426416 7.7181075e-09 0)
(0.0035431221 -9.1925241e-09 0)
(0.0035427595 1.0507954e-08 0)
(0.0035430263 -1.1720684e-08 0)
(0.0035428382 1.2816953e-08 0)
(0.0035429648 -1.3812318e-08 0)
(0.0035428851 1.4702252e-08 0)
(0.0035429323 -1.5500067e-08 0)
(0.0035429056 1.620268e-08 0)
(0.0035429236 -1.682021e-08 0)
(0.0035429039 1.7349318e-08 0)
(0.0035429316 -1.7814002e-08 0)
(0.0035428842 1.8165368e-08 0)
(0.0035429627 -1.8481481e-08 0)
(0.0035429034 1.8875865e-08 0)
(0.0035431542 -1.843736e-08 0)
(0.0035431851 2.0746792e-08 0)
(0.0079152327 0.0016779802 0)
(0.016747794 1.4849248e-05 0)
(0.0099184497 3.3021466e-05 0)
(0.011055286 -5.3640767e-06 0)
(0.010458213 3.98197e-06 0)
(0.010398554 -1.8593635e-07 0)
(0.010386121 1.0181972e-06 0)
(0.010284528 -9.8360548e-08 0)
(0.010321445 4.2817574e-07 0)
(0.01027297 -2.4364542e-07 0)
(0.010301539 3.1941225e-07 0)
(0.010270706 -2.731149e-07 0)
(0.010299694 2.5630081e-07 0)
(0.010270888 -2.2101216e-07 0)
(0.01029741 1.9662799e-07 0)
(0.010273352 -1.7438225e-07 0)
(0.010294928 1.5472605e-07 0)
(0.010275671 -1.3631429e-07 0)
(0.010292758 1.1942104e-07 0)
(0.010277649 -1.0346484e-07 0)
(0.010290931 8.8703844e-08 0)
(0.010279308 -7.4835859e-08 0)
(0.010289412 6.1945451e-08 0)
(0.010280688 -4.9856471e-08 0)
(0.010288156 3.8633582e-08 0)
(0.01028182 -2.8155319e-08 0)
(0.010287131 1.8446986e-08 0)
(0.010282735 -9.3559855e-09 0)
(0.01028632 1.0242425e-09 0)
(0.010283451 6.5448052e-09 0)
(0.010285694 -1.3572209e-08 0)
(0.010283989 2.0213213e-08 0)
(0.010285227 -2.6472482e-08 0)
(0.010284401 3.2112773e-08 0)
(0.010284882 -3.7187277e-08 0)
(0.010284676 4.1831075e-08 0)
(0.010284668 -4.6088266e-08 0)
(0.010284837 4.9933618e-08 0)
(0.010284556 -5.340887e-08 0)
(0.010284904 5.6514966e-08 0)
(0.010284531 -5.9286187e-08 0)
(0.010284894 6.1723214e-08 0)
(0.010284575 -6.3844649e-08 0)
(0.010284819 6.570388e-08 0)
(0.010284669 -6.7183326e-08 0)
(0.010284688 6.8412468e-08 0)
(0.010284811 -7.0024498e-08 0)
(0.010284615 6.8339561e-08 0)
(0.010285329 -7.485625e-08 0)
(0.01028531 7.1560654e-08 0)
(0.011194917 0.0022789477 0)
(0.025777542 -3.5601e-05 0)
(0.016455393 7.5497331e-05 0)
(0.018060216 -9.1127957e-06 0)
(0.017121694 9.517318e-06 0)
(0.017020989 -4.0321536e-08 0)
(0.01701317 2.2694195e-06 0)
(0.016849473 6.5520387e-08 0)
(0.016911754 8.3088797e-07 0)
(0.016834334 -3.8278743e-07 0)
(0.016880501 6.0825223e-07 0)
(0.016830564 -5.0676252e-07 0)
(0.016878026 4.7791741e-07 0)
(0.016831134 -4.0403156e-07 0)
(0.016874162 3.5747828e-07 0)
(0.01683535 -3.1620195e-07 0)
(0.016869999 2.800772e-07 0)
(0.016839242 -2.4631229e-07 0)
(0.016866373 2.1547493e-07 0)
(0.016842546 -1.8626773e-07 0)
(0.016863331 1.5934712e-07 0)
(0.016845308 -1.3398462e-07 0)
(0.016860808 1.1039413e-07 0)
(0.016847597 -8.8291561e-08 0)
(0.016858732 6.7895427e-08 0)
(0.016849466 -4.8860097e-08 0)
(0.016857055 3.1163388e-08 0)
(0.016850946 -1.4749706e-08 0)
(0.016855755 -4.1336223e-10 0)
(0.016852095 1.4453196e-08 0)
(0.016854742 -2.7571321e-08 0)
(0.01685297 3.98534e-08 0)
(0.016853995 -5.1146512e-08 0)
(0.016853602 6.1259699e-08 0)
(0.016853481 -7.0448129e-08 0)
(0.016854003 7.8898836e-08 0)
(0.01685318 -8.663679e-08 0)
(0.016854214 9.3623782e-08 0)
(0.016853053 -9.9934011e-08 0)
(0.016854264 1.0557414e-07 0)
(0.016853071 -1.1059841e-07 0)
(0.016854184 1.1500718e-07 0)
(0.016853209 -1.1884232e-07 0)
(0.016853995 1.222247e-07 0)
(0.016853432 -1.2481065e-07 0)
(0.01685371 1.2712438e-07 0)
(0.016853727 -1.3005709e-07 0)
(0.016853478 1.2564781e-07 0)
(0.016854575 -1.4209961e-07 0)
(0.01685449 1.3406027e-07 0)
(0.01728511 0.0037482667 0)
(0.034277464 -4.2601534e-05 0)
(0.022729479 0.00012825779 0)
(0.024878186 -1.4680377e-05 0)
(0.023590858 1.7564802e-05 0)
(0.023456442 2.7101493e-07 0)
(0.02345973 3.8748951e-06 0)
(0.023238385 4.4197568e-07 0)
(0.023327604 1.2558206e-06 0)
(0.023222426 -4.579388e-07 0)
(0.023286242 9.1221671e-07 0)
(0.023217398 -7.4246024e-07 0)
(0.023283392 7.0110836e-07 0)
(0.023218611 -5.8082869e-07 0)
(0.023277858 5.1042087e-07 0)
(0.023224709 -4.5031708e-07 0)
(0.023271942 3.9806202e-07 0)
(0.023230241 -3.4936508e-07 0)
(0.023266803 3.0511471e-07 0)
(0.02323492 -2.6311188e-07 0)
(0.023262506 2.2445399e-07 0)
(0.023238819 -1.8792245e-07 0)
(0.023258944 1.5402234e-07 0)
(0.023242047 -1.2248469e-07 0)
(0.023256029 9.3351299e-08 0)
(0.023244654 -6.587512e-08 0)
(0.023253715 4.0450444e-08 0)
(0.02324669 -1.6970023e-08 0)
(0.023251913 -5.0434446e-09 0)
(0.023248286 2.5465155e-08 0)
(0.023250518 -4.4097659e-08 0)
(0.023249479 6.1382139e-08 0)
(0.023249514 -7.7494935e-08 0)
(0.023250309 9.1998785e-08 0)
(0.023248855 -1.0516649e-07 0)
(0.02325081 1.1725951e-07 0)
(0.023248495 -1.2831521e-07 0)
(0.02325104 1.3829686e-07 0)
(0.023248386 -1.4730007e-07 0)
(0.02325104 1.5534603e-07 0)
(0.023248485 -1.625063e-07 0)
(0.023250851 1.6878962e-07 0)
(0.023248756 -1.7424915e-07 0)
(0.023250508 1.7908582e-07 0)
(0.02324915 -1.8264669e-07 0)
(0.023250025 1.8609273e-07 0)
(0.02324964 -1.9029528e-07 0)
(0.023249577 1.8225171e-07 0)
(0.023250819 -2.1259911e-07 0)
(0.023250781 1.9818018e-07 0)
(0.020470302 0.0040708418 0)
(0.041891286 -0.00012145653 0)
(0.02877509 0.00019271105 0)
(0.031528176 -2.1671858e-05 0)
(0.029865449 2.8090356e-05 0)
(0.029706382 7.1397799e-07 0)
(0.029724287 5.7558522e-06 0)
(0.029452242 9.9292114e-07 0)
(0.029568923 1.6754339e-06 0)
(0.029437296 -4.687763e-07 0)
(0.029518752 1.2197417e-06 0)
(0.029431307 -9.7293944e-07 0)
(0.029515687 9.1642489e-07 0)
(0.029433416 -7.4410977e-07 0)
(0.029508403 6.4865967e-07 0)
(0.029441512 -5.7096513e-07 0)
(0.029500671 5.035312e-07 0)
(0.029448744 -4.4098462e-07 0)
(0.029493973 3.8443368e-07 0)
(0.029454838 -3.3055033e-07 0)
(0.029488384 2.8102427e-07 0)
(0.029459911 -2.3424704e-07 0)
(0.029483754 1.9118756e-07 0)
(0.029464092 -1.5098076e-07 0)
(0.029480006 1.1327419e-07 0)
(0.029467415 -7.8067723e-08 0)
(0.029477065 4.5850597e-08 0)
(0.029470025 -1.5653625e-08 0)
(0.029474742 -1.2584842e-08 0)
(0.029472065 3.8547589e-08 0)
(0.029472984 -6.2287257e-08 0)
(0.029473553 8.4313919e-08 0)
(0.029471747 -1.0479444e-07 0)
(0.029474555 1.232647e-07 0)
(0.029470968 -1.4005414e-07 0)
(0.029475129 1.5545753e-07 0)
(0.029470581 -1.6951813e-07 0)
(0.029475345 1.8220995e-07 0)
(0.029470523 -1.9365196e-07 0)
(0.029475258 2.0387994e-07 0)
(0.029470741 -2.1296924e-07 0)
(0.029474922 2.2093117e-07 0)
(0.029471185 -2.2785127e-07 0)
(0.029474384 2.3402035e-07 0)
(0.029471793 -2.3837996e-07 0)
(0.029473661 2.4295873e-07 0)
(0.029472521 -2.4825147e-07 0)
(0.029472944 2.3607741e-07 0)
(0.029474043 -2.8319736e-07 0)
(0.029474216 2.608604e-07 0)
(0.025195114 0.0050048965 0)
(0.049178983 -0.0001417316 0)
(0.034611769 0.00026244624 0)
(0.037988299 -3.1369555e-05 0)
(0.035940488 4.1079924e-05 0)
(0.035770843 1.1287368e-06 0)
(0.035804933 7.7995963e-06 0)
(0.035492591 1.6659057e-06 0)
(0.035635525 2.0847065e-06 0)
(0.035479193 -4.2606042e-07 0)
(0.035577936 1.5308343e-06 0)
(0.035472513 -1.2007417e-06 0)
(0.035574727 1.1239718e-06 0)
(0.035475737 -8.9480595e-07 0)
(0.035565631 7.7285067e-07 0)
(0.035485911 -6.7895374e-07 0)
(0.035556046 5.9721776e-07 0)
(0.035494879 -5.2185869e-07 0)
(0.035547766 4.5397316e-07 0)
(0.035502409 -3.8903134e-07 0)
(0.035540864 3.2973115e-07 0)
(0.035508675 -2.7388836e-07 0)
(0.035535166 2.221149e-07 0)
(0.035513778 -1.7318638e-07 0)
(0.035530625 1.2807885e-07 0)
(0.035517807 -8.6454831e-08 0)
(0.035527034 4.7663251e-08 0)
(0.035521008 -1.1163541e-08 0)
(0.035524206 -2.2686811e-08 0)
(0.035523461 5.3729824e-08 0)
(0.035522114 -8.2167418e-08 0)
(0.035525213 1.0853419e-07 0)
(0.035520675 -1.3294883e-07 0)
(0.035526356 1.5498616e-07 0)
(0.03551981 -1.7505787e-07 0)
(0.035526969 1.9345789e-07 0)
(0.035519431 -2.1023457e-07 0)
(0.035527133 2.2536985e-07 0)
(0.035519464 -2.3900119e-07 0)
(0.035526919 2.5117989e-07 0)
(0.035519841 -2.6199356e-07 0)
(0.035526394 2.7146246e-07 0)
(0.035520501 -2.7969023e-07 0)
(0.035525617 2.8704578e-07 0)
(0.035521368 -2.9203591e-07 0)
(0.03552461 2.9775956e-07 0)
(0.035522379 -3.0393287e-07 0)
(0.035523575 2.8723391e-07 0)
(0.035524264 -3.5335875e-07 0)
(0.035524791 3.2130251e-07 0)
(0.029328368 0.0056503183 0)
(0.055505816 -0.00022697994 0)
(0.040306982 0.00033332061 0)
(0.04422312 -3.7756713e-05 0)
(0.041825488 5.7510646e-05 0)
(0.041654864 1.6751686e-06 0)
(0.041702949 1.0006366e-05 0)
(0.041360269 2.4123165e-06 0)
(0.041527185 2.4831331e-06 0)
(0.041348318 -3.4140011e-07 0)
(0.041463681 1.8453097e-06 0)
(0.041341246 -1.4274914e-06 0)
(0.041460332 1.3238003e-06 0)
(0.041345753 -1.0339306e-06 0)
(0.041449386 8.837668e-07 0)
(0.041358054 -7.7524838e-07 0)
(0.041437937 6.7996276e-07 0)
(0.041368765 -5.9269693e-07 0)
(0.04142807 5.1434549e-07 0)
(0.041377737 -4.3955264e-07 0)
(0.041419855 3.7164134e-07 0)
(0.041385174 -3.0657749e-07 0)
(0.04141315 2.4619534e-07 0)
(0.041391142 -1.9037431e-07 0)
(0.041407818 1.3923233e-07 0)
(0.041395905 -9.1042354e-08 0)
(0.041403569 4.5756683e-08 0)
(0.041399667 -3.6159722e-09 0)
(0.04140028 -3.527314e-08 0)
(0.041402494 7.0929299e-08 0)
(0.041397891 -1.0361358e-07 0)
(0.041404474 1.3388101e-07 0)
(0.041396289 -1.6185083e-07 0)
(0.04140572 1.8712268e-07 0)
(0.041395376 -2.1016131e-07 0)
(0.041406329 2.3125655e-07 0)
(0.041395047 -2.5046796e-07 0)
(0.0414064 2.677915e-07 0)
(0.041395214 -2.8338659e-07 0)
(0.041406015 2.9732e-07 0)
(0.041395795 -3.0967194e-07 0)
(0.041405256 3.2046455e-07 0)
(0.041396716 -3.2985015e-07 0)
(0.041404194 3.3827612e-07 0)
(0.041397889 -3.4374203e-07 0)
(0.041402859 3.5059626e-07 0)
(0.041399229 -3.5742116e-07 0)
(0.041401458 3.3597779e-07 0)
(0.041401503 -4.2272322e-07 0)
(0.041402497 3.7910679e-07 0)
(0.033855295 0.0061625746 0)
(0.061193852 -0.0002644848 0)
(0.0459426 0.00039037902 0)
(0.050010102 -4.8326791e-05 0)
(0.047488702 7.4638793e-05 0)
(0.047351491 1.7945206e-06 0)
(0.04741771 1.2226298e-05 0)
(0.047054679 3.1609992e-06 0)
(0.047243732 2.8718882e-06 0)
(0.04704476 -2.2523215e-07 0)
(0.047175884 2.161248e-06 0)
(0.047037701 -1.6537653e-06 0)
(0.04717235 1.5154032e-06 0)
(0.047043611 -1.1615718e-06 0)
(0.047159542 9.8148147e-07 0)
(0.047058056 -8.6002699e-07 0)
(0.047146237 7.5184577e-07 0)
(0.047070502 -6.5364115e-07 0)
(0.047134796 5.6627265e-07 0)
(0.047080896 -4.8270492e-07 0)
(0.047125316 4.05512e-07 0)
(0.047089416 -3.3190644e-07 0)
(0.04711767 2.6547458e-07 0)
(0.04709626 -2.0370561e-07 0)
(0.047111517 1.4589104e-07 0)
(0.047101749 -9.1199116e-08 0)
(0.047106652 4.0438416e-08 0)
(0.047106021 6.6770728e-09 0)
(0.047102949 -5.0077059e-08 0)
(0.047109176 8.9875512e-08 0)
(0.047100306 -1.2637247e-07 0)
(0.047111342 1.6013314e-07 0)
(0.047098585 -1.9127186e-07 0)
(0.047112645 2.1943716e-07 0)
(0.047097668 -2.4513101e-07 0)
(0.047113207 2.686298e-07 0)
(0.047097435 -2.9001179e-07 0)
(0.047113137 3.092784e-07 0)
(0.047097783 -3.2660501e-07 0)
(0.047112536 3.4207425e-07 0)
(0.047098615 -3.5577319e-07 0)
(0.047111496 3.6773572e-07 0)
(0.047099843 -3.7814073e-07 0)
(0.047110103 3.8748812e-07 0)
(0.047101368 -3.9328746e-07 0)
(0.047108394 4.0128241e-07 0)
(0.047103084 -4.0851535e-07 0)
(0.047106578 3.8224473e-07 0)
(0.047105776 -4.9067775e-07 0)
(0.04710733 4.3369663e-07 0)
(0.038119594 0.0067634702 0)
(0.065746268 -0.00038977284 0)
(0.051741675 0.00047535992 0)
(0.055260957 -5.6368775e-05 0)
(0.052930753 9.1329588e-05 0)
(0.052863147 1.5806903e-06 0)
(0.052951524 1.4460462e-05 0)
(0.052575886 3.8901115e-06 0)
(0.052785183 3.2475972e-06 0)
(0.052568612 -8.6461672e-08 0)
(0.052714481 2.4758779e-06 0)
(0.052562062 -1.878421e-06 0)
(0.052710667 1.697999e-06 0)
(0.052569431 -1.2775878e-06 0)
(0.052696004 1.0658122e-06 0)
(0.052586009 -9.3319094e-07 0)
(0.052680864 8.1290944e-07 0)
(0.052600162 -7.0544265e-07 0)
(0.052667891 6.1009894e-07 0)
(0.052611899 -5.1672592e-07 0)
(0.052657249 4.3171896e-07 0)
(0.052621449 -3.527144e-07 0)
(0.052648637 2.8041613e-07 0)
(0.052629196 -2.1169365e-07 0)
(0.052641695 1.4761787e-07 0)
(0.052635351 -8.76954e-08 0)
(0.05263627 3.2122642e-08 0)
(0.052640079 1.9397544e-08 0)
(0.052632206 -6.6798642e-08 0)
(0.052643514 1.1026654e-07 0)
(0.052629357 -1.5013695e-07 0)
(0.052645815 1.8697777e-07 0)
(0.052627566 -2.2092152e-07 0)
(0.052647128 2.5164711e-07 0)
(0.052626694 -2.7967109e-07 0)
(0.052647593 3.0526899e-07 0)
(0.052626606 -3.2853788e-07 0)
(0.052647335 3.4949125e-07 0)
(0.052627182 -3.6832621e-07 0)
(0.052646469 3.8514047e-07 0)
(0.052628311 -4.0000257e-07 0)
(0.052645101 4.1295062e-07 0)
(0.052629894 -4.2422747e-07 0)
(0.052643332 4.3438091e-07 0)
(0.052631818 -4.4038092e-07 0)
(0.052641203 4.4948211e-07 0)
(0.052633956 -4.568832e-07 0)
(0.052638926 4.2582604e-07 0)
(0.052637096 -5.5650876e-07 0)
(0.052639284 4.8455537e-07 0)
(0.043032499 0.0072451949 0)
(0.069903025 -0.00044711629 0)
(0.057406566 0.00054560698 0)
(0.060057106 -6.4770181e-05 0)
(0.058174577 0.0001050594 0)
(0.05818653 7.3251059e-07 0)
(0.058305004 1.6590622e-05 0)
(0.057923181 4.5428921e-06 0)
(0.058151563 3.6009687e-06 0)
(0.057919885 6.5205228e-08 0)
(0.05807941 2.7854968e-06 0)
(0.057914481 -2.101168e-06 0)
(0.058075188 1.871463e-06 0)
(0.057923307 -1.3822009e-06 0)
(0.058058699 1.1367345e-06 0)
(0.057941987 -9.9500722e-07 0)
(0.05804176 8.6411478e-07 0)
(0.057957777 -7.4830092e-07 0)
(0.058027366 6.4397048e-07 0)
(0.057970748 -5.4290752e-07 0)
(0.058015594 4.5351572e-07 0)
(0.057981363 -3.6835805e-07 0)
(0.058006001 2.8902692e-07 0)
(0.057989959 -2.1436011e-07 0)
(0.057998344 1.4543236e-07 0)
(0.057996716 -8.0945436e-08 0)
(0.057992422 2.1136877e-08 0)
(0.058001842 3.4203131e-08 0)
(0.057988051 -8.5089342e-08 0)
(0.058005502 1.3178189e-07 0)
(0.057985049 -1.7459814e-07 0)
(0.058007887 2.1411101e-07 0)
(0.057983241 -2.5047533e-07 0)
(0.058009159 2.8340981e-07 0)
(0.057982465 -3.1344428e-07 0)
(0.058009476 3.4085011e-07 0)
(0.057982571 -3.6574374e-07 0)
(0.058008981 3.8814053e-07 0)
(0.057983424 -4.0825141e-07 0)
(0.058007801 4.2618928e-07 0)
(0.057984899 -4.4202373e-07 0)
(0.058006059 4.558105e-07 0)
(0.057986882 -4.678252e-07 0)
(0.058003867 4.7862839e-07 0)
(0.05798925 -4.8470841e-07 0)
(0.058001275 4.9491058e-07 0)
(0.057991857 -5.0223755e-07 0)
(0.057998493 4.6650931e-07 0)
(0.057995477 -6.19561e-07 0)
(0.057998358 5.3123625e-07 0)
(0.047219148 0.0076481778 0)
(0.073424709 -0.00055976467 0)
(0.062707611 0.00059308403 0)
(0.064559535 -7.1672629e-05 0)
(0.063242787 0.00011473317 0)
(0.063315659 -8.1618663e-07 0)
(0.063479002 1.8514733e-05 0)
(0.063096798 5.1049828e-06 0)
(0.063343079 3.9258576e-06 0)
(0.063098618 2.2280553e-07 0)
(0.063270637 3.0854408e-06 0)
(0.063095099 -2.3207331e-06 0)
(0.063265853 2.0359221e-06 0)
(0.063105316 -1.4752115e-06 0)
(0.063247572 1.1947203e-06 0)
(0.063126035 -1.0464729e-06 0)
(0.063228919 9.0562784e-07 0)
(0.063143308 -7.8062228e-07 0)
(0.063213217 6.6989932e-07 0)
(0.06315752 -5.6444365e-07 0)
(0.063200267 4.6900125e-07 0)
(0.063169189 -3.7672329e-07 0)
(0.063189767 2.9218776e-07 0)
(0.063178548 -2.1295926e-07 0)
(0.063181468 1.398302e-07 0)
(0.06318584 -7.1296071e-08 0)
(0.063175113 7.8635693e-09 0)
(0.063191302 5.0752822e-08 0)
(0.063170495 -1.0462586e-07 0)
(0.06319513 1.540806e-07 0)
(0.063167396 -1.9940183e-07 0)
(0.063197543 2.4117906e-07 0)
(0.063165624 -2.7961106e-07 0)
(0.06319872 3.1442281e-07 0)
(0.063164997 -3.4614536e-07 0)
(0.063198839 3.7506023e-07 0)
(0.063165347 -4.0129933e-07 0)
(0.063198057 4.2488829e-07 0)
(0.063166526 -4.4605998e-07 0)
(0.063196517 4.6494082e-07 0)
(0.063168393 -4.815709e-07 0)
(0.063194353 4.9601582e-07 0)
(0.063170823 -5.0862598e-07 0)
(0.063191694 5.1996882e-07 0)
(0.063173679 -5.2601998e-07 0)
(0.063188598 5.3726269e-07 0)
(0.063176797 -5.4429023e-07 0)
(0.063185269 5.0408834e-07 0)
(0.063180929 -6.79224e-07 0)
(0.063184547 5.7343965e-07 0)
(0.052256159 0.0079409977 0)
(0.076639118 -0.00063684839 0)
(0.067745184 0.00064544985 0)
(0.068901114 -7.4012831e-05 0)
(0.068164443 0.00012150727 0)
(0.068249155 -3.0044715e-06 0)
(0.068474731 2.0065734e-05 0)
(0.068096811 5.5383931e-06 0)
(0.06835988 4.2154196e-06 0)
(0.068104855 3.7857183e-07 0)
(0.068288114 3.3699669e-06 0)
(0.068104023 -2.5357597e-06 0)
(0.068282622 2.1913753e-06 0)
(0.068115519 -1.5572996e-06 0)
(0.068262597 1.2408802e-06 0)
(0.068138132 -1.0875614e-06 0)
(0.068242401 9.3626254e-07 0)
(0.068156778 -8.0496658e-07 0)
(0.068225342 6.9060284e-07 0)
(0.068172282 -5.7850372e-07 0)
(0.068211263 4.7664042e-07 0)
(0.06818491 -3.7966332e-07 0)
(0.068199947 2.9106033e-07 0)
(0.068194953 -2.0786029e-07 0)
(0.068191078 1.3107284e-07 0)
(0.068202709 -5.9143346e-08 0)
(0.068184358 -7.3278069e-09 0)
(0.068208443 6.8652494e-08 0)
(0.068179554 -1.2502248e-07 0)
(0.068212381 1.7680522e-07 0)
(0.068176417 -2.2420925e-07 0)
(0.068214763 2.6785763e-07 0)
(0.068174737 -3.0798497e-07 0)
(0.068215793 3.4432993e-07 0)
(0.06817431 -3.7743268e-07 0)
(0.068215662 4.0757952e-07 0)
(0.068174956 -4.3491621e-07 0)
(0.068214543 4.5946733e-07 0)
(0.068176508 -4.8147783e-07 0)
(0.068212596 5.0108734e-07 0)
(0.068178812 -5.1833158e-07 0)
(0.068209967 5.3330217e-07 0)
(0.068181731 -5.4638409e-07 0)
(0.068206798 5.5811112e-07 0)
(0.068185118 -5.6403797e-07 0)
(0.068203158 5.7629824e-07 0)
(0.068188788 -5.8281022e-07 0)
(0.068199243 5.3837739e-07 0)
(0.068193462 -7.3495278e-07 0)
(0.068197851 6.1089542e-07 0)
(0.057033245 0.0084479341 0)
(0.079362445 -0.00075341785 0)
(0.072600022 0.00069456474 0)
(0.073102426 -7.5879501e-05 0)
(0.072934563 0.00012448152 0)
(0.072992627 -5.6635216e-06 0)
(0.073294281 2.1126283e-05 0)
(0.072923652 5.8287967e-06 0)
(0.073201962 4.4672146e-06 0)
(0.072938832 5.2471217e-07 0)
(0.073131762 3.6376794e-06 0)
(0.072941335 -2.7451129e-06 0)
(0.073125481 2.3375896e-06 0)
(0.072953952 -1.6308767e-06 0)
(0.073103825 1.2753711e-06 0)
(0.072978207 -1.117303e-06 0)
(0.073082162 9.5883111e-07 0)
(0.072998308 -8.2314549e-07 0)
(0.073063697 7.0279977e-07 0)
(0.073015014 -5.843055e-07 0)
(0.073048604 4.7880743e-07 0)
(0.073028503 -3.7801168e-07 0)
(0.073036562 2.8597041e-07 0)
(0.073039153 -1.9945924e-07 0)
(0.073027196 1.1965762e-07 0)
(0.073047301 -4.4923074e-08 0)
(0.07302018 -2.4001448e-08 0)
(0.073053241 8.7532275e-08 0)
(0.073015252 -1.4592689e-07 0)
(0.073057228 1.9958161e-07 0)
(0.073012137 -2.486429e-07 0)
(0.073059524 2.937805e-07 0)
(0.073010603 -3.3526907e-07 0)
(0.073060351 3.7283009e-07 0)
(0.07301043 -4.0700728e-07 0)
(0.073059919 4.3810289e-07 0)
(0.07301142 -4.662719e-07 0)
(0.073058417 4.9154775e-07 0)
(0.073013392 -5.1419791e-07 0)
(0.073056018 5.3437275e-07 0)
(0.073016176 -5.5206835e-07 0)
(0.073052883 5.6739447e-07 0)
(0.073019625 -5.8081578e-07 0)
(0.073049164 5.9282855e-07 0)
(0.07302358 -5.9854881e-07 0)
(0.073044943 6.1174059e-07 0)
(0.073027842 -6.1754849e-07 0)
(0.073040409 5.6918859e-07 0)
(0.073033085 -7.8623444e-07 0)
(0.073038269 6.4345895e-07 0)
(0.062223389 0.0084816786 0)
(0.081963178 -0.00083935981 0)
(0.077293763 0.00072540876 0)
(0.077152258 -7.8989725e-05 0)
(0.077544047 0.00012404876 0)
(0.077560436 -8.5056429e-06 0)
(0.077940581 2.1649618e-05 0)
(0.077577904 5.9822103e-06 0)
(0.077869229 4.6668364e-06 0)
(0.077601009 6.5782269e-07 0)
(0.077801463 3.8880659e-06 0)
(0.077607102 -2.9571835e-06 0)
(0.077794455 2.4817376e-06 0)
(0.077620596 -1.6928626e-06 0)
(0.077771325 1.2993797e-06 0)
(0.077646305 -1.1386344e-06 0)
(0.077748064 9.7436249e-07 0)
(0.077667921 -8.3186726e-07 0)
(0.077728322 7.0649256e-07 0)
(0.077685685 -5.8449686e-07 0)
(0.077712325 4.7615466e-07 0)
(0.07769994 -3.7216126e-07 0)
(0.07769964 2.7735687e-07 0)
(0.077711118 -1.8812504e-07 0)
(0.077689853 1.0597506e-07 0)
(0.077719586 -2.9067551e-08 0)
(0.07768261 -4.176714e-08 0)
(0.077725666 1.0697354e-07 0)
(0.077677621 -1.669318e-07 0)
(0.07772964 2.2204511e-07 0)
(0.077674586 -2.7236499e-07 0)
(0.077731793 3.1862309e-07 0)
(0.077673254 -3.6111846e-07 0)
(0.077732366 3.9956944e-07 0)
(0.077673385 -4.3453468e-07 0)
(0.077731584 4.663233e-07 0)
(0.077674765 -4.95098e-07 0)
(0.077729653 5.2088844e-07 0)
(0.0776772 -5.4397288e-07 0)
(0.077726761 5.6451156e-07 0)
(0.077680506 -5.8249172e-07 0)
(0.077723079 5.9805938e-07 0)
(0.077684522 -6.1171007e-07 0)
(0.077718775 6.2386014e-07 0)
(0.077689082 -6.2930451e-07 0)
(0.07771394 6.433876e-07 0)
(0.07769397 -6.4832074e-07 0)
(0.077708754 5.9636361e-07 0)
(0.077699808 -8.3262224e-07 0)
(0.077705799 6.7098669e-07 0)
(0.067420849 0.0089553155 0)
(0.084278282 -0.00093261188 0)
(0.081897478 0.00075615421 0)
(0.081062668 -7.947337e-05 0)
(0.081988621 0.00012042946 0)
(0.08196491 -1.1475053e-05 0)
(0.082415891 2.1670302e-05 0)
(0.082060028 6.0194392e-06 0)
(0.082362142 4.8125947e-06 0)
(0.082091511 7.7745241e-07 0)
(0.082297196 4.1104642e-06 0)
(0.082101333 -3.1673768e-06 0)
(0.082289499 2.6236229e-06 0)
(0.082115355 -1.7406168e-06 0)
(0.082264971 1.3156771e-06 0)
(0.082142564 -1.1518376e-06 0)
(0.08224011 9.7959033e-07 0)
(0.082165548 -8.3193516e-07 0)
(0.082219263 7.0438071e-07 0)
(0.082184255 -5.7963285e-07 0)
(0.082202461 4.6902006e-07 0)
(0.082199184 -3.6250585e-07 0)
(0.082189216 2.6562396e-07 0)
(0.082210812 -1.7444157e-07 0)
(0.082179083 9.055619e-08 0)
(0.082219529 -1.2014612e-08 0)
(0.082171683 -6.0184391e-08 0)
(0.082225682 1.2660511e-07 0)
(0.082166697 -1.8768288e-07 0)
(0.082229584 2.4381941e-07 0)
(0.082163799 -2.9500138e-07 0)
(0.082231537 3.4202838e-07 0)
(0.082162722 -3.8522098e-07 0)
(0.082231805 4.2426894e-07 0)
(0.082163205 -4.5974093e-07 0)
(0.082230627 4.9196134e-07 0)
(0.082165021 -5.2109655e-07 0)
(0.082228225 5.4718351e-07 0)
(0.082167959 -5.7052384e-07 0)
(0.082224801 5.9128467e-07 0)
(0.082171823 -6.0940475e-07 0)
(0.082220538 6.2505842e-07 0)
(0.082176441 -6.3881898e-07 0)
(0.082215615 6.5102401e-07 0)
(0.082181637 -6.5613681e-07 0)
(0.082210135 6.7100158e-07 0)
(0.082187183 -6.7492304e-07 0)
(0.082204272 6.1974454e-07 0)
(0.082193637 -8.7370552e-07 0)
(0.08220044 6.934588e-07 0)
(0.072962329 0.0089771809 0)
(0.086586447 -0.0010167277 0)
(0.086354627 0.0007673157 0)
(0.084833802 -8.1535888e-05 0)
(0.086264184 0.0001134909 0)
(0.086210319 -1.4683574e-05 0)
(0.086720851 2.1228728e-05 0)
(0.086370185 5.9543823e-06 0)
(0.086681459 4.9069803e-06 0)
(0.086410014 8.8111191e-07 0)
(0.086619291 4.296208e-06 0)
(0.086423768 -3.3480443e-06 0)
(0.08661049 2.7533859e-06 0)
(0.086438244 -1.7860498e-06 0)
(0.086584648 1.3230366e-06 0)
(0.086466984 -1.1543224e-06 0)
(0.086558405 9.7577425e-07 0)
(0.086491135 -8.2599896e-07 0)
(0.086536572 6.9701295e-07 0)
(0.086510675 -5.7001883e-07 0)
(0.086519058 4.579083e-07 0)
(0.086526193 -3.4961629e-07 0)
(0.086505335 2.5137638e-07 0)
(0.086538191 -1.587834e-07 0)
(0.086494932 7.3774862e-08 0)
(0.086547084 5.8088938e-09 0)
(0.086487442 -7.8870076e-08 0)
(0.086553246 1.460106e-07 0)
(0.086482521 -2.0777972e-07 0)
(0.086557017 2.6455904e-07 0)
(0.086479817 -3.1623779e-07 0)
(0.086558718 3.6369317e-07 0)
(0.086479044 -4.0725347e-07 0)
(0.086558633 4.4659894e-07 0)
(0.086479925 -4.8231887e-07 0)
(0.086557016 5.1474186e-07 0)
(0.086482217 -5.4403708e-07 0)
(0.086554105 5.7023498e-07 0)
(0.086485696 -5.9364677e-07 0)
(0.086550112 6.1444511e-07 0)
(0.086490151 -6.3255667e-07 0)
(0.086545236 6.4820336e-07 0)
(0.086495401 -6.6197968e-07 0)
(0.086539665 6.7410288e-07 0)
(0.086501261 -6.7883984e-07 0)
(0.086533515 6.9443081e-07 0)
(0.086507491 -6.9722708e-07 0)
(0.086526952 6.3921561e-07 0)
(0.086514581 -9.0914403e-07 0)
(0.086522193 7.108331e-07 0)
(0.077532948 0.0091503619 0)
(0.088662313 -0.0011133231 0)
(0.090671063 0.00077866075 0)
(0.088531935 -8.0243111e-05 0)
(0.090382237 0.0001038895 0)
(0.090297765 -1.8059825e-05 0)
(0.090855792 2.0420304e-05 0)
(0.090508504 5.8073958e-06 0)
(0.090827685 4.9525316e-06 0)
(0.09055618 9.6390541e-07 0)
(0.090768066 4.4645846e-06 0)
(0.090574022 -3.5267832e-06 0)
(0.090757455 2.8838024e-06 0)
(0.09058934 -1.8265159e-06 0)
(0.09073046 1.3197623e-06 0)
(0.090619455 -1.1481087e-06 0)
(0.090703021 9.6565901e-07 0)
(0.090644618 -8.1448527e-07 0)
(0.090680305 6.8471381e-07 0)
(0.090664894 -5.5620339e-07 0)
(0.090662168 4.4337957e-07 0)
(0.090680914 -3.3397421e-07 0)
(0.090648049 2.3502079e-07 0)
(0.090693205 -1.4172697e-07 0)
(0.090637449 5.6154617e-08 0)
(0.090702204 2.3978623e-08 0)
(0.090629936 -9.7399673e-08 0)
(0.090708313 1.6484135e-07 0)
(0.090625137 -2.2689072e-07 0)
(0.090711896 2.8390911e-07 0)
(0.09062268 -3.357242e-07 0)
(0.090713296 3.8329011e-07 0)
(0.090622259 -4.2693974e-07 0)
(0.090712812 4.6632086e-07 0)
(0.090623581 -5.0203665e-07 0)
(0.090710717 5.3442758e-07 0)
(0.090626387 -5.6366208e-07 0)
(0.09070726 5.8977596e-07 0)
(0.090630438 -6.1310476e-07 0)
(0.09070267 6.3382345e-07 0)
(0.090635515 -6.5180281e-07 0)
(0.090697152 6.6730428e-07 0)
(0.090641423 -6.809915e-07 0)
(0.090690909 6.9296965e-07 0)
(0.090647969 -6.9730005e-07 0)
(0.090684068 7.1348736e-07 0)
(0.090654907 -7.1508095e-07 0)
(0.090676787 6.5465987e-07 0)
(0.090662646 -9.3863501e-07 0)
(0.090671058 7.231902e-07 0)
(0.083395615 0.0092993902 0)
(0.090963426 -0.0011601294 0)
(0.094741269 0.00077341198 0)
(0.092197135 -7.8933121e-05 0)
(0.094350216 9.237384e-05 0)
(0.094227024 -2.1454453e-05 0)
(0.094821054 1.9346833e-05 0)
(0.094475085 5.6033539e-06 0)
(0.094801076 4.9523662e-06 0)
(0.094529822 1.0302385e-06 0)
(0.094743472 4.624124e-06 0)
(0.094552099 -3.7175133e-06 0)
(0.094730491 3.0127049e-06 0)
(0.094568599 -1.8553432e-06 0)
(0.094702541 1.308539e-06 0)
(0.094599882 -1.135206e-06 0)
(0.094674027 9.4993298e-07 0)
(0.094625931 -7.97716e-07 0)
(0.094650523 6.680824e-07 0)
(0.094646849 -5.3875935e-07 0)
(0.09463185 4.2598365e-07 0)
(0.09466329 -3.1613896e-07 0)
(0.094617413 2.1712134e-07 0)
(0.094675796 -1.2360812e-07 0)
(0.094606689 3.8046608e-08 0)
(0.094684834 4.2091074e-08 0)
(0.094599215 -1.1541899e-07 0)
(0.094690831 1.8270672e-07 0)
(0.094594596 -2.4464605e-07 0)
(0.094694174 3.0156391e-07 0)
(0.094592435 -3.5318822e-07 0)
(0.094695226 4.0055611e-07 0)
(0.094592409 -4.4399681e-07 0)
(0.094694303 4.8314591e-07 0)
(0.09459421 -5.1862986e-07 0)
(0.094691694 5.5078953e-07 0)
(0.094597562 -5.7979198e-07 0)
(0.094687662 6.0566376e-07 0)
(0.094602215 -6.2874877e-07 0)
(0.094682446 6.4922258e-07 0)
(0.094607937 -6.6694187e-07 0)
(0.094676265 6.8222718e-07 0)
(0.094614524 -6.9574824e-07 0)
(0.094669329 7.0745939e-07 0)
(0.094621777 -7.1136149e-07 0)
(0.09466178 7.2807738e-07 0)
(0.09462944 -7.2841721e-07 0)
(0.094653768 6.6601305e-07 0)
(0.094637839 -9.6194786e-07 0)
(0.094647035 7.3056569e-07 0)
(0.087489807 0.0092408395 0)
(0.092930841 -0.0012742215 0)
(0.098567791 0.00076228565 0)
(0.095842526 -7.6297537e-05 0)
(0.098168743 7.9643061e-05 0)
(0.097996272 -2.476016e-05 0)
(0.098616315 1.8084015e-05 0)
(0.098269784 5.3581618e-06 0)
(0.098601707 4.9093653e-06 0)
(0.098330769 1.0884798e-06 0)
(0.098545648 4.7456728e-06 0)
(0.098357995 -3.8789511e-06 0)
(0.098529627 3.1279548e-06 0)
(0.098375936 -1.8794672e-06 0)
(0.098500983 1.291037e-06 0)
(0.098408178 -1.1160496e-06 0)
(0.098471494 9.2899101e-07 0)
(0.098435005 -7.7625648e-07 0)
(0.098447294 6.4770945e-07 0)
(0.098456477 -5.1824279e-07 0)
(0.098428169 4.0622081e-07 0)
(0.098473255 -2.9652877e-07 0)
(0.098413491 1.9806115e-07 0)
(0.098485906 -1.0499825e-07 0)
(0.09840271 1.9945531e-08 0)
(0.098494918 5.9760027e-08 0)
(0.098395337 -1.3253951e-07 0)
(0.098500747 1.993002e-07 0)
(0.098390948 -2.6075738e-07 0)
(0.098503802 3.1720921e-07 0)
(0.098389129 -3.6832133e-07 0)
(0.098504463 4.152104e-07 0)
(0.098389538 -4.5819982e-07 0)
(0.098503065 4.9688976e-07 0)
(0.09839185 -5.3192177e-07 0)
(0.098499911 5.6364491e-07 0)
(0.098395777 -5.9222148e-07 0)
(0.098495277 6.1768141e-07 0)
(0.098401056 -6.403937e-07 0)
(0.098489415 6.605313e-07 0)
(0.098407443 -6.7788918e-07 0)
(0.098482551 6.9283867e-07 0)
(0.098414726 -7.0610419e-07 0)
(0.098474908 7.1750574e-07 0)
(0.098422698 -7.2097098e-07 0)
(0.098466638 7.3806962e-07 0)
(0.0984311 -7.3713936e-07 0)
(0.098457888 6.7320506e-07 0)
(0.098440165 -9.7888918e-07 0)
(0.098450126 7.3311855e-07 0)
(0.093529868 0.009314236 0)
(0.095347586 -0.0012856215 0)
(0.10215518 0.00073960635 0)
(0.099438187 -7.4604435e-05 0)
(0.10183008 6.6544647e-05 0)
(0.10160336 -2.7862443e-05 0)
(0.10224111 1.6698793e-05 0)
(0.10189248 5.0899845e-06 0)
(0.10222962 4.830799e-06 0)
(0.10195888 1.1395975e-06 0)
(0.10217492 4.8240492e-06 0)