/*--------------------------------*- C++ -*----------------------------------*\
| =========                 |                                                 |
| \\      /  F ield         | OpenFOAM: The Open Source CFD Toolbox           |
|  \\    /   O peration     | Version:  2312                                  |
|   \\  /    A nd           | Website:  www.openfoam.com                      |
|    \\/     M anipulation  |                                                 |
\*---------------------------------------------------------------------------*/
FoamFile
{
    version     2.0;
    format      ascii;
    arch        "LSB;label=32;scalar=64";
    class       volScalarField;
    location    "3";
    object      T;
}
// * * * * * * * * * * * * * * * * * * * * * * * * * * * * * * * * * * * * * //

dimensions      [0 0 0 1 0 0 0];

internalField   nonuniform List<scalar> 
4000
(
312.47926
311.77929
311.64185
311.60361
311.55957
311.52965
311.50095
311.47563
311.45126
311.42867
311.40625
311.38506
311.36384
311.34346
311.32308
311.30323
311.28347
311.26399
311.24471
311.22548
311.20657
311.18754
311.16894
311.15005
311.1317
311.11291
311.09478
311.07608
311.05813
311.03949
311.02171
311.00311
310.98548
310.96691
310.94941
310.93086
310.91348
310.89494
310.87768
310.85913
310.84199
310.82343
310.80641
310.7878
310.77092
310.75224
310.73553
310.7167
310.70031
310.68087
313.66716
312.53717
312.16533
312.08483
311.98771
311.93259
311.88122
311.83993
311.80153
311.76841
311.73583
311.70693
311.67796
311.65149
311.62504
311.60015
311.57555
311.55176
311.52859
311.50557
311.48353
311.46109
311.43996
311.41796
311.39759
311.3759
311.35618
311.33474
311.31558
311.29432
311.27564
311.25452
311.23629
311.21525
311.19742
311.17644
311.15898
311.13802
311.12092
311.09995
311.08319
311.06216
311.04578
311.02462
311.00865
310.98728
310.97183
310.95002
310.93551
310.91194
314.40093
313.26635
312.68443
312.5627
312.41389
312.33389
312.26018
312.20302
312.15076
312.10715
312.06452
312.0279
311.99126
311.9587
311.92623
311.8963
311.86692
311.8388
311.81179
311.78498
311.75983
311.73398
311.71035
311.68522
311.66285
311.63826
311.61697
311.59278
311.57242
311.54854
311.52899
311.50533
311.48651
311.46301
311.44485
311.42144
311.40391
311.38053
311.36359
311.34019
311.32383
311.30033
311.28458
311.26088
311.24582
311.22176
311.20757
311.18278
311.17013
311.14265
314.88591
313.94067
313.1916
313.0326
312.83521
312.73132
312.63612
312.56341
312.49769
312.44371
312.3913
312.34703
312.3029
312.26426
312.22593
312.19095
312.1569
312.12446
312.09368
312.06307
312.03489
312.00562
311.97956
311.95129
311.92698
311.89947
311.87665
311.84971
311.82818
311.80167
311.78127
311.75508
311.7357
311.70972
311.69126
311.66542
311.64783
311.62204
311.60527
311.57944
311.56349
311.53753
311.52242
311.49618
311.48203
311.45529
311.44235
311.41461
311.40377
311.37266
315.22215
314.53993
313.67709
313.48835
313.24768
313.12188
313.00668
312.91913
312.84066
312.77661
312.71485
312.66308
312.61177
312.56716
312.52317
312.48321
312.44465
312.40793
312.37353
312.33913
312.30803
312.27536
312.24693
312.21555
312.18936
312.15894
312.13465
312.10497
312.08232
312.0532
312.03199
312.00327
311.98335
311.95491
311.93618
311.90792
311.89028
311.86209
311.8455
311.81727
311.80172
311.77332
311.75886
311.7301
311.71685
311.68747
311.67575
311.64512
311.63599
311.60161
315.46225
315.04907
314.1306
313.92273
313.64652
313.50193
313.36897
313.26777
313.17762
313.10404
313.03358
312.97462
312.91658
312.86616
312.81686
312.77203
312.72921
312.68827
312.65044
312.61232
312.57845
312.54241
312.51176
312.47729
312.44932
312.41603
312.39035
312.35795
312.33425
312.30252
312.28056
312.24934
312.22893
312.19806
312.17908
312.14842
312.13077
312.10019
312.08381
312.05319
312.03807
312.00725
311.99343
311.9622
311.94984
311.91786
311.90733
311.87391
311.86633
311.82906
315.63762
315.4625
314.54309
314.32823
314.02657
313.86738
313.71973
313.60659
313.50623
313.42394
313.34568
313.27999
313.21583
313.15991
313.10572
313.05622
313.00948
312.96447
312.92346
312.88172
312.84528
312.80596
312.77324
312.73574
312.70614
312.67001
312.64306
312.60798
312.58332
312.54904
312.52639
312.4927
312.47187
312.43859
312.41941
312.38639
312.36876
312.33584
312.31969
312.28673
312.27204
312.23885
312.22568
312.19202
312.18053
312.14604
312.13663
312.10055
312.09434
312.05456
315.76809
315.78154
314.90772
314.69795
314.38273
314.21405
314.05548
313.93267
313.82397
313.73407
313.64916
313.57739
313.50789
313.44688
313.38838
313.3345
313.28425
313.23538
313.19153
313.14632
313.10757
313.06508
313.03051
312.99008
312.959
312.92013
312.89203
312.85436
312.82884
312.79207
312.76883
312.73273
312.71154
312.67592
312.6566
312.62127
312.6037
312.5685
312.5526
312.51736
312.50311
312.46763
312.45509
312.4191
312.40844
312.37154
312.36318
312.32461
312.31958
312.27762
315.86704
316.01426
315.2209
315.0265
314.71049
314.5379
314.3728
314.24305
314.12822
314.03214
313.94195
313.86495
313.79105
313.72552
313.66339
313.60551
313.55227
313.49982
313.45352
313.40506
313.36432
313.31883
313.28266
313.23943
313.20708
313.16559
313.13651
313.09634
313.0701
313.03093
313.00721
312.96879
312.94732
312.90943
312.89003
312.85248
312.83502
312.79762
312.782
312.74457
312.73077
312.69308
312.68116
312.64294
312.63308
312.59391
312.5865
312.54566
312.54158
312.49778
315.94379
316.17303
315.4821
315.31075
315.00632
314.83543
314.6685
314.53489
314.41644
314.31585
314.22197
314.14078
314.06357
313.99421
313.92924
313.86786
313.81223
313.75657
313.70828
313.65685
313.61447
313.56623
313.52873
313.48291
313.44952
313.40556
313.37569
313.33316
313.30635
313.26491
313.24082
313.2002
313.17855
313.13851
313.1191
313.07944
313.06212
313.02264
313.00732
312.96781
312.95447
312.9147
312.90338
312.86307
312.85395
312.81267
312.80611
312.76322
312.75991
312.71454
316.00498
316.2727
315.69377
315.55008
315.26786
315.10389
314.93988
314.80567
314.68627
314.58306
314.48723
314.40305
314.32375
314.25138
314.18446
314.12018
314.06283
314.00442
313.95465
313.90061
313.857
313.80628
313.76779
313.7196
313.68543
313.63921
313.60875
313.56405
313.53684
313.49329
313.46897
313.42629
313.40456
313.36251
313.34317
313.30153
313.28442
313.24298
313.228
313.18655
313.17367
313.13196
313.12123
313.07898
313.07054
313.02736
313.02153
312.97685
312.97411
312.92743
316.05525
316.32852
315.86062
315.7462
315.49416
315.34154
315.18493
315.05336
314.93574
314.83189
314.73596
314.65008
314.57
314.49556
314.42764
314.36116
314.30281
314.24216
314.19149
314.13525
314.09087
314.03801
313.99888
313.94862
313.91396
313.86571
313.83491
313.78824
313.76082
313.71535
313.69094
313.64639
313.6247
313.58081
313.56162
313.51817
313.50132
313.45808
313.44348
313.40024
313.38784
313.34436
313.33419
313.29019
313.28238
313.2375
313.23228
313.18607
313.18375
313.13598
316.09787
316.35468
315.98895
315.90267
315.68563
315.54779
315.40248
315.27654
315.16329
315.06083
314.96663
314.88045
314.80093
314.7254
314.65751
314.58956
314.531
314.46871
314.41774
314.35978
314.3151
314.26048
314.2211
314.16909
314.13425
314.08427
314.05337
314.00498
313.97755
313.9304
313.90606
313.85984
313.83832
313.79278
313.77384
313.72876
313.71224
313.66739
313.65319
313.60836
313.59644
313.55139
313.54175
313.49621
313.48896
313.44262
313.43792
313.39043
313.38839
313.33975
316.13497
316.36293
316.08557
316.02434
315.84407
315.7232
315.59224
315.4745
315.36797
315.2688
315.17811
315.09299
315.01537
314.93979
314.87295
314.80433
314.74636
314.68305
314.63243
314.57324
314.52878
314.47283
314.43361
314.38021
314.34552
314.29413
314.26339
314.21357
314.18635
314.13775
314.11367
314.06602
314.04479
313.99782
313.97923
313.93273
313.91662
313.87036
313.85661
313.8104
313.79895
313.75255
313.74342
313.69657
313.68982
313.64226
313.63798
313.58948
313.58763
313.5383
316.16805
316.36229
316.15729
316.11675
315.97234
315.86941
315.75482
315.64728
315.54942
315.45524
315.36968
315.28693
315.21248
315.13787
315.07308
315.0046
314.94802
314.88435
314.83469
314.77484
314.7311
314.67428
314.63564
314.58125
314.54705
314.49458
314.46429
314.41335
314.38655
314.3368
314.31314
314.26432
314.24353
314.19538
314.17724
314.12956
314.11391
314.06649
314.05322
314.00585
313.9949
313.94738
313.93873
313.89082
313.88451
313.836
313.83204
313.78278
313.78106
313.73121
316.19795
316.35876
316.21022
316.1856
316.07412
315.9889
315.89165
315.79562
315.70791
315.62012
315.54106
315.46186
315.39174
315.31905
315.25726
315.18972
315.13528
315.07192
315.02386
314.9639
314.92139
314.86418
314.82653
314.77156
314.73819
314.68502
314.65546
314.60372
314.57757
314.52698
314.50392
314.45421
314.43399
314.38493
314.36735
314.31874
314.30363
314.25529
314.24255
314.19427
314.18382
314.13542
314.12725
314.07853
314.07261
314.0234
314.01971
313.96993
313.9683
313.91811
316.22529
316.35598
316.2496
316.2363
316.15349
316.08479
316.00483
315.92093
315.84431
315.76394
315.69245
315.61779
315.55298
315.4831
315.42514
315.35929
315.3077
315.24529
315.19941
315.1399
315.09911
315.042
315.00574
314.95062
314.91842
314.86493
314.83636
314.78418
314.75891
314.70778
314.68551
314.6352
314.6157
314.56601
314.54909
314.49983
314.48533
314.43633
314.42415
314.37523
314.3653
314.31629
314.30856
314.2593
314.25374
314.20408
314.20062
314.15055
314.14898
314.09863
316.25039
316.35558
316.27958
316.27357
316.21456
316.16049
316.09694
316.02512
315.95998
315.88768
315.82448
315.75514
315.6964
315.63008
315.57666
315.51319
315.46506
315.40421
315.36105
315.30251
315.26389
315.20736
315.17288
315.11804
315.08731
315.03389
315.00658
314.95431
314.93013
314.8788
314.85749
314.8069
314.78824
314.73822
314.72206
314.67243
314.65862
314.60923
314.59766
314.54836
314.53897
314.48961
314.48233
314.43277
314.42754
314.3777
314.37443
314.3243
314.32277
314.27246
316.27353
316.35801
316.3033
316.30136
316.26123
316.21951
316.17084
316.11049
316.0567
315.9927
315.93819
315.87468
315.82256
315.76038
315.71205
315.65153
315.6074
315.54864
315.50865
315.4516
315.41555
315.36005
315.32768
315.27354
315.24459
315.19161
315.16581
315.11381
315.09091
315.03972
315.01952
314.96897
314.95129
314.90123
314.88593
314.83622
314.82316
314.77366
314.76275
314.71334
314.7045
314.65506
314.64822
314.59864
314.59372
314.54394
314.54084
314.49087
314.4894
314.4393
316.29483
316.36291
316.32297
316.32271
316.29696
316.26516
316.22946
316.17953
316.13653
316.08071
316.03492
315.9775
315.93229
315.87466
315.83181
315.7747
315.73496
315.67876
315.64233
315.5872
315.55407
315.50001
315.47007
315.41701
315.39009
315.33793
315.31385
315.26246
315.24105
315.19031
315.17138
315.12117
315.1046
315.05479
315.04044
314.99093
314.97869
314.92937
314.91915
314.86991
314.86164
314.81238
314.80599
314.75663
314.75203
314.70255
314.69961
314.65001
314.64859
314.5989
316.31447
316.36968
316.34002
316.33987
316.32464
316.30044
316.27561
316.23477
316.20167
316.15357
316.11623
316.06492
316.02669
315.97384
315.93669
315.88333
315.84824
315.79498
315.76238
315.70956
315.67961
315.62737
315.60009
315.54848
315.52381
315.47281
315.45065
315.4002
315.38042
315.33045
315.31293
315.26336
315.248
315.19874
315.18542
315.1364
315.12504
315.07616
315.06668
315.01786
315.01019
314.96137
314.95543
314.90655
314.90226
314.8533
314.85054
314.80151
314.80016
314.75106
316.33257
316.37763
316.35537
316.35438
316.34659
316.3279
316.31188
316.27865
316.25433
316.21326
316.18387
316.13846
316.10705
316.05905
316.02763
315.97821
315.94791
315.89786
315.86927
315.81907
315.79249
315.7424
315.71797
315.66812
315.64588
315.59635
315.57625
315.52704
315.50904
315.46013
315.44414
315.39549
315.38143
315.33299
315.32079
315.27251
315.26209
315.21391
315.2052
315.15707
315.15002
315.10188
315.09641
315.04824
315.04426
314.99605
314.99347
314.94521
314.94394
314.89562
316.34928
316.38621
316.36951
316.36722
316.36453
316.34964
316.34049
316.31341
316.29662
316.26176
316.23961
316.19973
316.17479
316.13155
316.10573
316.06034
316.03483
315.98816
315.96366
315.9163
315.8932
315.8455
315.82404
315.77624
315.75653
315.70875
315.69084
315.64315
315.62701
315.57944
315.56505
315.5176
315.50491
315.45756
315.44652
315.39925
315.38981
315.34258
315.33468
315.28747
315.28106
315.23384
315.22884
315.1816
315.17795
315.13068
315.1283
315.08101
315.07982
315.03246
316.36472
316.395
316.38271
316.37901
316.37972
316.36726
316.36333
316.34102
316.33051
316.30093
316.28518
316.25033
316.23137
316.19267
316.17219
316.13078
316.10995
316.06675
316.0463
316.00193
315.98234
315.93724
315.9188
315.87326
315.85616
315.81036
315.7947
315.74876
315.73457
315.68857
315.67585
315.62983
315.61857
315.57254
315.56271
315.51668
315.50825
315.46221
315.45513
315.40907
315.40331
315.35723
315.35273
315.30661
315.30331
315.25717
315.255
315.20884
315.20776
315.16153
316.37902
316.40374
316.39508
316.39005
316.39302
316.38199
316.38189
316.36314
316.3577
316.33249
316.32226
316.29185
316.27828
316.24378
316.22827
316.19071
316.17434
316.13457
316.11807
316.07676
316.06063
316.01825
316.00283
315.9597
315.94524
315.9016
315.88822
315.84424
315.83202
315.7878
315.77679
315.73241
315.72261
315.67811
315.66952
315.62493
315.61754
315.57288
315.56666
315.52194
315.51686
315.47209
315.4681
315.4233
315.42035
315.37552
315.37357
315.32871
315.32774
315.28281
316.39228
316.41225
316.40668
316.4005
316.40496
316.39466
316.39731
316.3811
316.37966
316.35795
316.35234
316.32575
316.31692
316.28623
316.27524
316.24129
316.22908
316.19266
316.17991
316.14166
316.12888
316.08927
316.07681
316.0362
316.02433
315.98299
315.97188
315.93001
315.91976
315.8775
315.86819
315.82563
315.8173
315.77452
315.76717
315.72422
315.71787
315.67478
315.66941
315.62622
315.62182
315.57855
315.57507
315.53174
315.52917
315.4858
315.48409
315.44068
315.43982
315.39633
316.40461
316.42047
316.41754
316.41042
316.41588
316.40587
316.41043
316.39598
316.39758
316.3786
316.37677
316.35339
316.34861
316.32129
316.31431
316.2837
316.27528
316.24206
316.2328
316.19754
316.18792
316.15109
316.14146
316.10343
316.09407
316.05513
316.04623
316.00658
315.99828
315.9581
315.95048
315.90988
315.903
315.86208
315.85598
315.81481
315.8095
315.76814
315.76363
315.72211
315.71839
315.67676
315.67381
315.6321
315.6299
315.58813
315.58666
315.54483
315.5441
315.50219
316.4161
316.42836
316.42767
316.41981
316.42598
316.416
316.42186
316.40856
316.41243
316.39551
316.39669
316.37595
316.37455
316.35016
316.34665
316.31907
316.31402
316.28378
316.2777
316.24533
316.23864
316.20455
316.19758
316.16213
316.15516
316.11865
316.11188
316.07453
316.0681
316.03009
316.02412
315.98559
315.98013
315.94119
315.93631
315.89704
315.89276
315.85324
315.84958
315.80986
315.80682
315.76696
315.76453
315.72456
315.72274
315.68268
315.68146
315.64133
315.64072
315.60051
316.42683
316.43592
316.43712
316.42869
316.43535
316.42527
316.432
316.41944
316.42493
316.40954
316.41304
316.39442
316.39577
316.37389
316.37332
316.34842
316.34632
316.31883
316.31559
316.28594
316.28191
316.25047
316.24596
316.21306
316.20832
316.17424
316.16947
316.13445
316.12981
316.09403
316.08963
316.05324
316.04916
316.01227
316.00857
315.9713
315.96802
315.93044
315.9276
315.88979
315.88741
315.84941
315.8475
315.80936
315.80792
315.76967
315.7687
315.73037
315.72988
315.69146
316.43685
316.44314
316.44589
316.43703
316.44406
316.43383
316.44113
316.429
316.43564
316.42135
316.42659
316.40965
316.41319
316.3934
316.39526
316.37272
316.37313
316.34814
316.34737
316.32026
316.31861
316.28968
316.2874
316.25696
316.25427
316.22259
316.21969
316.18699
316.18402
316.15049
316.14757
316.11335
316.11057
316.0758
316.07322
316.03801
316.03568
316.00012
315.99807
315.96223
315.9605
315.92443
315.92303
315.88679
315.88572
315.84936
315.84864
315.81218
315.81181
315.77526
316.44623
316.45002
316.45403
316.44484
316.45214
316.44175
316.4494
316.43755
316.44495
316.43145
316.43795
316.42233
316.42754
316.4095
316.41331
316.39282
316.39531
316.37255
316.3739
316.34912
316.34954
316.32298
316.32267
316.2946
316.29376
316.26441
316.2632
316.23278
316.23135
316.20005
316.1985
316.16648
316.1649
316.13227
316.13075
316.09763
316.0962
316.06269
316.0614
316.02757
316.02646
315.99238
315.99145
315.95718
315.95647
315.92205
315.92156
315.88703
315.88678
315.85215
316.455
316.45657
316.46156
316.45212
316.45959
316.44907
316.45694
316.44525
316.45313
316.44021
316.44758
316.43299
316.43945
316.42284
316.42817
316.40944
316.41361
316.39284
316.39595
316.37329
316.37548
316.35113
316.35253
316.3267
316.32748
316.30037
316.30067
316.27248
316.27243
316.24333
316.24303
316.21317
316.21271
316.18221
316.18166
316.15063
316.15005
316.1186
316.11802
316.08622
316.08569
316.05362
316.05315
316.02087
316.0205
315.98805
315.98779
315.95521
315.95508
315.9224
316.46319
316.46279
316.4685
316.45885
316.46642
316.4558
316.46378
316.45222
316.46037
316.44788
316.45583
316.44205
316.44939
316.43397
316.44044
316.42321
316.42871
316.40968
316.41423
316.39348
316.39714
316.37481
316.37767
316.35393
316.35611
316.33113
316.33276
316.30671
316.30788
316.28091
316.28173
316.25399
316.25453
316.22613
316.22646
316.19752
316.1977
316.1683
316.16837
316.13861
316.13861
316.10856
316.10852
316.07823
316.07818
316.04771
316.04766
316.01705
316.01703
315.98633
316.47083
316.46864
316.47484
316.46503
316.47263
316.46197
316.46997
316.45853
316.46681
316.45467
316.46296
316.44983
316.45776
316.44332
316.45061
316.43466
316.44117
316.42366
316.42933
316.4103
316.41514
316.39467
316.39874
316.37694
316.3803
316.35732
316.36008
316.33606
316.3383
316.31338
316.31518
316.28949
316.29091
316.26456
316.26568
316.23878
316.23964
316.21227
316.21293
316.18518
316.18567
316.15761
316.15796
316.12965
316.12989
316.10139
316.10154
316.0729
316.07297
316.04423
316.47792
316.47409
316.48058
316.47065
316.47821
316.46755
316.47553
316.46422
316.47253
316.46069
316.46914
316.45656
316.46485
316.45123
316.45908
316.44423
316.45146
316.43528
316.4418
316.42429
316.43007
316.41127
316.41631
316.39629
316.40063
316.37951
316.38321
316.36111
316.36425
316.34128
316.34392
316.32019
316.32239
316.29801
316.29982
316.27489
316.27636
316.25097
316.25215
316.22636
316.22729
316.20118
316.20188
316.17553
316.17603
316.14947
316.1498
316.1231
316.12326
316.09646
316.48441
316.47909
316.4857
316.47569
316.48317
316.47256
316.48047
316.46933
316.47759
316.46604
316.47452
316.46241
316.47088
316.45797
316.46616
316.45225
316.45997
316.44495
316.45208
316.43593
316.4424
316.42512
316.4309
316.41252
316.41763
316.39824
316.4027
316.38239
316.38627
316.36514
316.36847
316.34662
316.34946
316.32698
316.32937
316.30634
316.30834
316.28485
316.28648
316.2626
316.2639
316.2397
316.24071
316.21626
316.21699
316.19233
316.19281
316.16801
316.16825
316.14335
316.49024
316.48357
316.49017
316.48013
316.4875
316.47699
316.4848
316.47386
316.48203
316.47077
316.4792
316.46752
316.47603
316.46374
316.47209
316.45901
316.46701
316.45303
316.46056
316.44561
316.45257
316.43665
316.44298
316.42609
316.43177
316.41397
316.41903
316.40039
316.40484
316.38544
316.38933
316.36924
316.37261
316.35192
316.3548
316.33359
316.33602
316.31435
316.31636
316.29432
316.29594
316.27358
316.27485
316.25223
316.25316
316.23035
316.23096
316.208
316.2083
316.18525
316.49523
316.48744
316.49396
316.48396
316.4912
316.48085
316.48854
316.47784
316.48588
316.47492
316.48324
316.47197
316.48042
316.46869
316.47707
316.46473
316.47286
316.45979
316.46754
316.45367
316.46093
316.44623
316.45293
316.43739
316.44349
316.42714
316.43263
316.41552
316.42042
316.40261
316.40694
316.3885
316.39229
316.37328
316.37655
316.35705
316.35983
316.3399
316.34222
316.32192
316.32382
316.30321
316.3047
316.28384
316.28494
316.26389
316.26461
316.24343
316.24379
316.22251
316.4992
316.49061
316.49705
316.48717
316.49429
316.48415
316.49171
316.48129
316.48917
316.47855
316.4867
316.47584
316.48416
316.47295
316.48125
316.46957
316.4777
316.46545
316.47327
316.46037
316.46779
316.45419
316.4611
316.44678
316.45314
316.43811
316.4439
316.42819
316.43341
316.41707
316.42172
316.40481
316.4089
316.39147
316.39504
316.37714
316.3802
316.3619
316.36446
316.34582
316.34792
316.32898
316.33064
316.31146
316.31269
316.29332
316.29414
316.27464
316.27504
316.25546
316.50202
316.49305
316.49944
316.48977
316.49678
316.48691
316.49433
316.48424
316.49194
316.48167
316.48963
316.47918
316.48731
316.4766
316.48475
316.47368
316.48171
316.47019
316.47798
316.46594
316.47338
316.46077
316.46777
316.45455
316.46104
316.44721
316.45316
316.43874
316.44415
316.42917
316.43402
316.41852
316.42283
316.40686
316.41063
316.39423
316.39748
316.38071
316.38346
316.36636
316.36862
316.35125
316.35304
316.33544
316.33677
316.319
316.31988
316.30198
316.30242
316.28445
316.50367
316.49477
316.50117
316.4918
316.49871
316.48916
316.49643
316.48669
316.49421
316.48433
316.49207
316.48204
316.48994
316.47972
316.48766
316.47715
316.48501
316.47416
316.48183
316.47057
316.47793
316.4662
316.47317
316.46095
316.46746
316.45471
316.46072
316.44747
316.45296
316.43922
316.44418
316.42998
316.4344
316.41978
316.42367
316.40866
316.41204
316.39668
316.39955
316.38389
316.38626
316.37036
316.37224
316.35612
316.35752
316.34124
316.34217
316.32578
316.32624
316.30978
316.50432
316.49583
316.50229
316.49329
316.50012
316.49093
316.49806
316.48871
316.49603
316.48655
316.49406
316.48445
316.49211
316.48235
316.49004
316.48008
316.4877
316.47747
316.48493
316.47438
316.48158
316.47066
316.47751
316.46618
316.47261
316.46085
316.46682
316.45462
316.46011
316.44749
316.45247
316.43945
316.44392
316.43052
316.43447
316.42074
316.42417
316.41013
316.41305
316.39874
316.40117
316.38662
316.38855
316.37382
316.37526
316.36038
316.36134
316.34635
316.34682
316.33177
316.50424
316.49636
316.50291
316.49433
316.50108
316.49228
316.49927
316.49031
316.49744
316.48836
316.49564
316.48646
316.49385
316.48455
316.49197
316.48251
316.48987
316.4802
316.48741
316.4775
316.48448
316.47428
316.48095
316.47041
316.4767
316.46581
316.47167
316.46042
316.46582
316.45422
316.45914
316.4472
316.45163
316.43936
316.4433
316.43073
316.43417
316.42132
316.42426
316.41118
316.41362
316.40033
316.40228
316.38882
316.39028
316.37669
316.37766
316.36397
316.36445
316.35071
316.50376
316.49652
316.50311
316.49498
316.50165
316.49326
316.50009
316.49155
316.49848
316.48982
316.49685
316.4881
316.49521
316.48637
316.49348
316.48451
316.49156
316.48243
316.48934
316.48002
316.48672
316.47718
316.48359
316.47378
316.47985
316.46975
316.47543
316.46504
316.47029
316.4596
316.46441
316.45343
316.45778
316.44652
316.45039
316.43888
316.44227
316.43052
316.43343
316.42147
316.42389
316.41175
316.41369
316.4014
316.40285
316.39045
316.39141
316.37892
316.3794
316.36686
316.50308
316.49642
316.50301
316.49532
316.50188
316.49392
316.50058
316.49246
316.49918
316.49094
316.49773
316.4894
316.49622
316.48782
316.49462
316.48611
316.49283
316.4842
316.49078
316.482
316.48839
316.47943
316.48556
316.47639
316.4822
316.47281
316.47825
316.46862
316.47368
316.46381
316.46845
316.45834
316.46254
316.4522
316.45596
316.44541
316.4487
316.43795
316.44078
316.42985
316.43221
316.42112
316.42302
316.4118
316.41322
316.4019
316.40285
316.39145
316.39193
316.38048
316.50236
316.49617
316.50269
316.49541
316.50186
316.49431
316.5008
316.49309
316.4996
316.49177
316.4983
316.49039
316.49692
316.48893
316.49541
316.48734
316.49372
316.48554
316.49178
316.48349
316.48954
316.48111
316.48691
316.47833
316.48383
316.47507
316.48024
316.4713
316.47611
316.46697
316.4714
316.46207
316.46609
316.45657
316.46017
316.45048
316.45365
316.44379
316.44652
316.43651
316.43879
316.42866
316.43049
316.42024
316.42162
316.41128
316.4122
316.4018
316.40226
316.39181
316.50164
316.49585
316.50221
316.49533
316.50163
316.49448
316.50079
316.49348
316.49976
316.49234
316.49861
316.4911
316.49733
316.48974
316.49589
316.48822
316.49425
316.48649
316.49237
316.48453
316.49021
316.48226
316.48771
316.47965
316.48482
316.47662
316.48149
316.47315
316.47769
316.4692
316.47338
316.46475
316.46855
316.45977
316.46319
316.45426
316.45727
316.44822
316.45082
316.44164
316.44382
316.43453
316.43628
316.42691
316.42823
316.41878
316.41966
316.41016
316.4106
316.40106
316.50093
316.49548
316.50164
316.49511
316.50124
316.49448
316.50058
316.49366
316.49972
316.49268
316.49868
316.49155
316.49747
316.49026
316.49606
316.48877
316.49443
316.48707
316.49256
316.48513
316.49043
316.48292
316.48799
316.48039
316.48521
316.47752
316.48206
316.47426
316.47849
316.47058
316.47449
316.46648
316.47004
316.46191
316.46512
316.45688
316.45971
316.45137
316.45382
316.44539
316.44744
316.43893
316.44058
316.43199
316.43323
316.42459
316.42542
316.41673
316.41715
316.40842
316.50022
316.49509
316.501
316.4948
316.50074
316.49434
316.50023
316.49367
316.49949
316.49282
316.49853
316.49176
316.49736
316.4905
316.49594
316.489
316.49428
316.48727
316.49237
316.4853
316.49021
316.48309
316.48778
316.48059
316.48505
316.4778
316.48199
316.47467
316.47858
316.47119
316.47481
316.46734
316.47064
316.4631
316.46607
316.45845
316.46108
316.45338
316.45566
316.44789
316.44981
316.44197
316.44352
316.43563
316.4368
316.42886
316.42964
316.42168
316.42207
316.41408
316.4995
316.49469
316.50032
316.49443
316.50015
316.49408
316.49975
316.49354
316.4991
316.49277
316.49819
316.49174
316.497
316.49045
316.49554
316.4889
316.4938
316.48709
316.4918
316.48505
316.48956
316.48278
316.48708
316.48026
316.48434
316.47748
316.48132
316.47442
316.47801
316.47107
316.47439
316.4674
316.47043
316.4634
316.46613
316.45905
316.46147
316.45434
316.45644
316.44926
316.45103
316.44381
316.44523
316.43797
316.43905
316.43175
316.43248
316.42515
316.42552
316.41818
316.49876
316.49428
316.4996
316.494
316.49949
316.49375
316.49917
316.49328
316.49857
316.49254
316.49765
316.49149
316.4964
316.49012
316.49483
316.48846
316.49296
316.48653
316.49084
316.48437
316.48848
316.48199
316.4859
316.4794
316.4831
316.47659
316.48007
316.47355
316.4768
316.47026
316.47327
316.46671
316.46946
316.46288
316.46537
316.45877
316.46097
316.45434
316.45626
316.4496
316.45121
316.44453
316.44584
316.43913
316.44011
316.43339
316.43405
316.4273
316.42763
316.42087
316.49801
316.49386
316.49886
316.49353
316.49878
316.49334
316.49851
316.4929
316.4979
316.49213
316.49691
316.49099
316.49554
316.48949
316.49381
316.48767
316.49176
316.48557
316.48946
316.48324
316.48695
316.48072
316.48424
316.47802
316.48134
316.47513
316.47825
316.47205
316.47497
316.46878
316.47148
316.4653
316.46778
316.4616
316.46384
316.45765
316.45964
316.45345
316.45518
316.44899
316.45044
316.44424
316.44542
316.4392
316.4401
316.43387
316.43447
316.42823
316.42853
316.42228
316.49723
316.49344
316.49809
316.49303
316.49803
316.49286
316.49777
316.49241
316.49709
316.49154
316.49596
316.49024
316.4944
316.48854
316.49244
316.4865
316.49017
316.48418
316.48766
316.48164
316.48494
316.47894
316.48206
316.47609
316.47903
316.47309
316.47586
316.46995
316.47254
316.46666
316.46906
316.46321
316.46541
316.45958
316.46157
316.45576
316.45753
316.45174
316.45328
316.44749
316.4488
316.44301
316.44407
316.43829
316.43909
316.43331
316.43384
316.42806
316.42832
316.42253
316.49643
316.49301
316.49729
316.49251
316.49725
316.49233
316.49694
316.49179
316.49613
316.49075
316.49477
316.48921
316.49294
316.48723
316.49071
316.48491
316.48816
316.48232
316.48538
316.47955
316.48244
316.47663
316.47937
316.4736
316.47618
316.47047
316.4729
316.46724
316.46951
316.4639
316.466
316.46045
316.46238
316.45687
316.45861
316.45314
316.45469
316.44925
316.4506
316.44518
316.44633
316.44092
316.44185
316.43646
316.43717
316.43178
316.43225
316.42687
316.42711
316.42172
316.49558
316.49256
316.49647
316.49196
316.49643
316.49173
316.49602
316.49102
316.49497
316.48971
316.49331
316.48784
316.49113
316.48552
316.48855
316.48286
316.48568
316.47996
316.48261
316.47692
316.47941
316.47377
316.47613
316.47055
316.47277
316.46726
316.46935
316.46392
316.46588
316.46052
316.46233
316.45704
316.45871
316.45348
316.45499
316.44981
316.45116
316.44602
316.4472
316.4421
316.4431
316.43803
316.43884
316.43379
316.43441
316.42937
316.42978
316.42475
316.42496
316.41993
316.4947
316.49211
316.49562
316.49138
316.49556
316.49105
316.49497
316.49006
316.49359
316.48837
316.49151
316.48609
316.48891
316.48335
316.48593
316.48031
316.48269
316.47707
316.4793
316.47373
316.47583
316.47033
316.47232
316.4669
316.46878
316.46345
316.46522
316.45999
316.46165
316.45651
316.45805
316.45299
316.45441
316.44943
316.45072
316.44581
316.44696
316.4421
316.44311
316.4383
316.43915
316.43438
316.43508
316.43034
316.43087
316.42614
316.4265
316.42179
316.42197
316.41726
316.49377
316.49165
316.49474
316.49078
316.49464
316.49025
316.49376
316.48887
316.49191
316.48668
316.48932
316.48388
316.48622
316.48067
316.48278
316.4772
316.47914
316.47359
316.47542
316.46994
316.47166
316.46628
316.46791
316.46264
316.46419
316.45903
316.4605
316.45545
316.45682
316.45188
316.45316
316.44832
316.44951
316.44475
316.44583
316.44116
316.44212
316.43752
316.43836
316.43382
316.43454
316.43004
316.43062
316.42616
316.42661
316.42217
316.42247
316.41804
316.41819
316.41377
316.49279
316.4912
316.49383
316.49014
316.49361
316.48929
316.49231
316.48737
316.48987
316.48456
316.48666
316.48116
316.48298
316.47741
316.47904
316.47348
316.47499
316.46949
316.47091
316.46552
316.46688
316.4616
316.4629
316.45776
316.459
316.45399
316.45516
316.45028
316.4514
316.44664
316.44768
316.44303
316.444
316.43945
316.44034
316.43588
316.43668
316.4323
316.433
316.42869
316.42929
316.42503
316.42552
316.4213
316.42167
316.41749
316.41774
316.41357
316.4137
316.40953
316.49174
316.49077
316.49287
316.48945
316.49245
316.48811
316.49056
316.48546
316.48737
316.48192
316.48343
316.47784
316.47913
316.47351
316.47467
316.4691
316.47018
316.46472
316.46576
316.46043
316.46144
316.45627
316.45725
316.45223
316.45318
316.44831
316.44922
316.4445
316.44537
316.44078
316.44161
316.43714
316.43791
316.43356
316.43426
316.43001
316.43065
316.42648
316.42705
316.42296
316.42344
316.41941
316.4198