/*--------------------------------*- C++ -*----------------------------------*\
| =========                 |                                                 |
| \\      /  F ield         | OpenFOAM: The Open Source CFD Toolbox           |
|  \\    /   O peration     | Version:  2312                                  |
|   \\  /    A nd           | Website:  www.openfoam.com                      |
|    \\/     M anipulation  |                                                 |
\*---------------------------------------------------------------------------*/
FoamFile
{
    version     2.0;
    format      ascii;
    arch        "LSB;label=32;scalar=64";
    class       surfaceScalarField;
    location    "6";
    object      phi;
}
// * * * * * * * * * * * * * * * * * * * * * * * * * * * * * * * * * * * * * //

dimensions      [0 3 -1 0 0 0 0];

oriented        oriented;

internalField   nonuniform List<scalar> 
7870
(
1.3227717e-10
2.8159728e-09
1.3348289e-10
-1.2057097e-12
1.1283387e-10
2.064901e-11
1.1391099e-10
-1.0771231e-12
1.1435883e-10
-4.4784582e-13
1.1286779e-10
1.491042e-12
1.1381064e-10
-9.4284932e-13
1.1264499e-10
1.1656484e-12
1.1369788e-10
-1.0528866e-12
1.1266781e-10
1.030066e-12
1.136328e-10
-9.6498872e-13
1.1271558e-10
9.1721608e-13
1.1357666e-10
-8.6107352e-13
1.1276306e-10
8.1359725e-13
1.1352806e-10
-7.6500319e-13
1.1280649e-10
7.2157423e-13
1.1348598e-10
-6.7949671e-13
1.1284511e-10
6.4086824e-13
1.1344932e-10
-6.042093e-13
1.1287914e-10
5.7017981e-13
1.1341727e-10
-5.3813108e-13
1.1290901e-10
5.0825878e-13
1.1338922e-10
-4.8020738e-13
1.1293519e-10
4.5403047e-13
1.1336468e-10
-4.2948431e-13
1.1295809e-10
4.0658341e-13
1.1334323e-10
-3.8513539e-13
1.1297808e-10
3.6514681e-13
1.1332454e-10
-3.4645577e-13
1.1299547e-10
3.2906899e-13
1.1330831e-10
-3.1284697e-13
1.1301052e-10
2.9779783e-13
1.1329432e-10
-2.8380074e-13
1.1302345e-10
2.7086462e-13
1.1328234e-10
-2.5888511e-13
1.1303447e-10
2.4787115e-13
1.132722e-10
-2.377334e-13
1.1304372e-10
2.2848014e-13
1.1326376e-10
-2.20036e-13
1.1305135e-10
2.1240794e-13
1.1325688e-10
-2.0553436e-13
1.1305746e-10
1.9941999e-13
1.1325147e-10
-1.940126e-13
1.1306214e-10
1.8933807e-13
1.1324742e-10
-1.8528489e-13
1.1306546e-10
1.8195971e-13
1.1324518e-10
-1.7971428e-13
1.1307005e-10
1.7512502e-13
1.1325318e-10
-1.8312846e-13
1.6841699e-13
3.5213675e-10
5.4120861e-09
3.8042928e-10
-2.9498242e-11
3.3006699e-10
7.1011288e-11
3.3071269e-10
-1.7228266e-12
3.3096519e-10
-7.0034726e-13
3.2855541e-10
3.9008247e-12
3.2950329e-10
-1.8907349e-12
3.278028e-10
2.8661406e-12
3.2926884e-10
-2.5189328e-12
3.2779039e-10
2.5085205e-12
3.2917236e-10
-2.346967e-12
3.2784938e-10
2.2402006e-12
3.2908857e-10
-2.1002716e-12
3.2791434e-10
1.9878268e-12
3.2901687e-10
-1.8675322e-12
3.2797581e-10
1.762629e-12
3.2895565e-10
-1.6593342e-12
3.2803115e-10
1.5653689e-12
3.2890267e-10
-1.4757301e-12
3.2808011e-10
1.3927334e-12
3.2885646e-10
-1.3144786e-12
3.2812318e-10
1.2415408e-12
3.2881604e-10
-1.173071e-12
3.2816095e-10
1.1091215e-12
3.2878067e-10
-1.0492057e-12
3.2819401e-10
9.9324184e-13
3.2874976e-10
-9.4088082e-13
3.2822288e-10
8.9202395e-13
3.2872281e-10
-8.4638634e-13
3.28248e-10
8.0388289e-13
3.2869942e-10
-7.6426843e-13
3.2826974e-10
7.2747582e-13
3.2867923e-10
-6.9329075e-13
3.2828843e-10
6.616615e-13
3.2866195e-10
-6.3240097e-13
3.2830435e-10
6.0546926e-13
3.2864732e-10
-5.8070462e-13
3.2831773e-10
5.5807584e-13
3.2863514e-10
-5.3744552e-13
3.2832876e-10
5.1878796e-13
3.2862521e-10
-5.019917e-13
3.283376e-10
4.8703098e-13
3.286174e-10
-4.7381225e-13
3.2834436e-10
4.6237992e-13
3.2861148e-10
-4.524069e-13
3.2834905e-10
4.4439698e-13
3.2860812e-10
-4.3878704e-13
3.2835682e-10
4.2642734e-13
3.2862804e-10
-4.5435631e-13
4.1016908e-13
5.5810205e-10
7.802234e-09
6.1528885e-10
-8.6685043e-11
5.4118953e-10
1.4511059e-10
5.42095e-10
-2.6282974e-12
5.4160844e-10
-2.1379332e-13
5.3897e-10
6.5392683e-12
5.393277e-10
-2.2484308e-12
5.3771647e-10
4.4773692e-12
5.3903216e-10
-3.8346245e-12
5.3765043e-10
3.8902475e-12
5.3894202e-10
-3.6385609e-12
5.3769346e-10
3.4887577e-12
5.3885976e-10
-3.266571e-12
5.3775016e-10
3.0974232e-12
5.3879003e-10
-2.9074062e-12
5.3780665e-10
2.7460069e-12
5.3873156e-10
-2.5842496e-12
5.3785839e-10
2.4385455e-12
5.3868141e-10
-2.2987518e-12
5.3790446e-10
2.1696795e-12
5.386378e-10
-2.0478172e-12
5.3794509e-10
1.9342481e-12
5.3859968e-10
-1.8276595e-12
5.3798078e-10
1.7280255e-12
5.3856632e-10
-1.6347474e-12
5.3801203e-10
1.5475248e-12
5.3853715e-10
-1.465994e-12
5.3803934e-10
1.3898313e-12
5.3851171e-10
-1.318757e-12
5.380631e-10
1.252489e-12
5.3848962e-10
-1.1907857e-12
5.3808368e-10
1.1334158e-12
5.3847055e-10
-1.0801627e-12
5.3810138e-10
1.0308399e-12
5.3845423e-10
-9.8525315e-13
5.3811644e-10
9.432521e-13
5.384404e-10
-9.0466507e-13
5.3812911e-10
8.6937048e-13
5.3842888e-10
-8.3722015e-13
5.3813956e-10
8.0811377e-13
5.384195e-10
-7.8193251e-13
5.3814795e-10
7.5858313e-13
5.384121e-10
-7.3796748e-13
5.3815435e-10
7.2013193e-13
5.3840641e-10
-7.0446678e-13
5.3815866e-10
6.9214992e-13
5.3840314e-10
-6.832666e-13
5.381678e-10
6.6176241e-13
5.3843339e-10
-7.1994102e-13
6.3712166e-13
7.6737384e-10
9.9831102e-09
8.3849341e-10
-1.5780461e-10
7.462032e-10
2.3740079e-10
7.4773949e-10
-4.1645882e-12
7.4663272e-10
8.9296487e-13
7.4376468e-10
9.4073117e-12
7.4359747e-10
-2.0812223e-12
7.4209395e-10
5.9808951e-12
7.4326548e-10
-5.0061572e-12
7.4198824e-10
5.1674773e-12
7.4318773e-10
-4.8380451e-12
7.4201762e-10
4.6588582e-12
7.4310816e-10
-4.3571071e-12
7.4206641e-10
4.1391722e-12
7.4304083e-10
-3.8818326e-12
7.4211788e-10
3.6689588e-12
7.4298534e-10
-3.4517184e-12
7.4216589e-10
3.2579967e-12
7.4293815e-10
-3.0710101e-12
7.4220894e-10
2.8988841e-12
7.4289724e-10
-2.7361101e-12
7.4224702e-10
2.5844658e-12
7.428615e-10
-2.4421368e-12
7.422805e-10
2.3090172e-12
7.4283021e-10
-2.1844527e-12
7.4230986e-10
2.0678759e-12
7.4280284e-10
-1.9589804e-12
7.4233551e-10
1.8571646e-12
7.4277897e-10
-1.7622194e-12
7.4235784e-10
1.6736196e-12
7.4275824e-10
-1.5911812e-12
7.4237718e-10
1.5144715e-12
7.4274033e-10
-1.4433149e-12
7.4239381e-10
1.3773604e-12
7.42725e-10
-1.316441e-12
7.4240798e-10
1.2602729e-12
7.4271202e-10
-1.2087014e-12
7.4241989e-10
1.1614964e-12
7.4270119e-10
-1.1185204e-12
7.4242972e-10
1.0795838e-12
7.4269237e-10
-1.0445781e-12
7.4243762e-10
1.0133279e-12
7.426854e-10
-9.8574843e-13
7.4244365e-10
9.6188152e-13
7.4267996e-10
-9.4077166e-13
7.4244757e-10
9.2454044e-13
7.4267664e-10
-9.1233757e-13
7.4245743e-10
8.809715e-13
7.4271475e-10
-9.7725845e-13
8.4921172e-13
9.4414246e-10
1.1987218e-08
1.0523639e-09
-2.6602609e-10
9.4550135e-10
3.4426337e-10
9.4771416e-10
-6.3773974e-12
9.4601502e-10
2.5920996e-12
9.4292153e-10
1.2500806e-11
9.4230818e-10
-1.4678759e-12
9.409352e-10
7.3538678e-12
9.4196869e-10
-6.0396438e-12
9.4080336e-10
6.3328043e-12
9.4190931e-10
-5.9439949e-12
9.4082136e-10
5.7468072e-12
9.4183357e-10
-5.3693242e-12
9.4086264e-10
5.1101048e-12
9.4176907e-10
-4.7882728e-12
9.409091e-10
4.5289316e-12
9.417168e-10
-4.259421e-12
9.4095332e-10
4.0214782e-12
9.4167272e-10
-3.790409e-12
9.4099326e-10
3.5783431e-12
9.4163461e-10
-3.3774647e-12
9.4102869e-10
3.1903919e-12
9.4160134e-10
-3.0147951e-12
9.4105989e-10
2.8504738e-12
9.4157222e-10
-2.696783e-12
9.4108726e-10
2.5528348e-12
9.4154673e-10
-2.4184561e-12
9.4111119e-10
2.2927113e-12
9.415245e-10
-2.1755299e-12
9.4113202e-10
2.0660954e-12
9.4150518e-10
-1.9643377e-12
9.4115007e-10
1.869583e-12
9.4148849e-10
-1.7817422e-12
9.4116559e-10
1.7002685e-12
9.414742e-10
-1.6250584e-12
9.4117881e-10
1.5556694e-12
9.414621e-10
-1.4919932e-12
9.4118992e-10
1.4336714e-12
9.41452e-10
-1.3805999e-12
9.411991e-10
1.3324843e-12
9.4144377e-10
-1.2892452e-12
9.4120649e-10
1.2506094e-12
9.4143726e-10
-1.2165252e-12
9.4121213e-10
1.1870172e-12
9.414321e-10
-1.1607405e-12
9.4121564e-10
1.1409949e-12
9.4142868e-10
-1.1253798e-12
9.412258e-10
1.0838585e-12
9.4147262e-10
-1.2240788e-12
1.0449853e-12
1.1464944e-09
1.3788973e-08
1.2544894e-09
-3.7402106e-10
1.1386122e-09
4.6014052e-10
1.1420759e-09
-9.8411031e-12
1.1397316e-09
4.9364351e-12
1.1364413e-09
1.579112e-11
1.1354598e-09
-4.8637237e-13
1.1342419e-09
8.5717452e-12
1.1351432e-09
-6.940925e-12
1.1340957e-09
7.3802526e-12
1.1351074e-09
-6.9557147e-12
1.1341044e-09
6.7498353e-12
1.1350365e-09
-6.3013753e-12
1.1341386e-09
6.0079558e-12
1.1349751e-09
-5.6248026e-12
1.1341801e-09
5.3239599e-12
1.1349262e-09
-5.0055673e-12
1.1342205e-09
4.727248e-12
1.1348854e-09
-4.4553128e-12
1.1342572e-09
4.2064894e-12
1.1348502e-09
-3.9703935e-12
1.1342899e-09
3.7506103e-12
1.1348194e-09
-3.5442866e-12
1.1343188e-09
3.3511167e-12
1.1347925e-09
-3.170522e-12
1.1343441e-09
3.0012501e-12
1.134769e-09
-2.8433267e-12
1.1343663e-09
2.6954366e-12
1.1347484e-09
-2.5577061e-12
1.1343855e-09
2.4289876e-12
1.1347306e-09
-2.3093735e-12
1.1344022e-09
2.1979161e-12
1.1347152e-09
-2.0946527e-12
1.1344166e-09
1.9988141e-12
1.1347019e-09
-1.9103922e-12
1.1344288e-09
1.8287652e-12
1.1346907e-09
-1.7538966e-12
1.1344391e-09
1.6852828e-12
1.1346814e-09
-1.6228744e-12
1.1344476e-09
1.566258e-12
1.1346738e-09
-1.5154005e-12
1.1344545e-09
1.4699175e-12
1.1346678e-09
-1.4298089e-12
1.1344597e-09
1.3950667e-12
1.1346629e-09
-1.3639298e-12
1.1344628e-09
1.3410733e-12
1.1346594e-09
-1.3219403e-12
1.1344729e-09
1.2703039e-12
1.1347074e-09
-1.4584934e-12
1.2232384e-12
1.29591e-09
1.5441313e-08
1.4467384e-09
-5.2484953e-10
1.3263047e-09
5.8057423e-10
1.3307203e-09
-1.4256649e-11
1.3277315e-09
7.9251413e-12
1.3243161e-09
1.9206552e-11
1.323047e-09
7.8273509e-13
1.322013e-09
9.6057585e-12
1.3227891e-09
-7.7170544e-12
1.3218647e-09
8.3047093e-12
1.3227825e-09
-7.8735386e-12
1.3218663e-09
7.6659671e-12
1.3227172e-09
-7.1521943e-12
1.321894e-09
6.8311442e-12
1.3226593e-09
-6.390143e-12
1.3219306e-09
6.0526724e-12
1.3226139e-09
-5.6889203e-12
1.3219671e-09
5.3740807e-12
1.3225764e-09
-5.0645689e-12
1.3220006e-09
4.7822104e-12
1.3225441e-09
-4.5138362e-12
1.3220306e-09
4.2641086e-12
1.3225159e-09
-4.0296448e-12
1.322057e-09
3.8100283e-12
1.3224913e-09
-3.6047949e-12
1.3220803e-09
3.4122938e-12
1.3224697e-09
-3.2328046e-12
1.3221006e-09
3.0645962e-12
1.3224509e-09
-2.9080409e-12
1.3221183e-09
2.7616282e-12
1.3224346e-09
-2.6256543e-12
1.3221336e-09
2.4988716e-12
1.3224204e-09
-2.381477e-12
1.3221468e-09
2.2724583e-12
1.3224083e-09
-2.17193e-12
1.322158e-09
2.0790745e-12
1.3223981e-09
-1.9939486e-12
1.3221675e-09
1.9158911e-12
1.3223895e-09
-1.8449239e-12
1.3221753e-09
1.7805051e-12
1.3223825e-09
-1.7226613e-12
1.3221815e-09
1.6708871e-12
1.322377e-09
-1.6252498e-12
1.3221864e-09
1.5856927e-12
1.3223725e-09
-1.5500269e-12
1.3221891e-09
1.5244602e-12
1.3223688e-09
-1.5017143e-12
1.3221989e-09
1.4402607e-12
1.3224193e-09
-1.6788965e-12
1.3833074e-12
1.4855593e-09
1.6904004e-08
1.6279337e-09
-6.6722391e-10
1.5076842e-09
7.0082374e-10
1.5134811e-09
-2.005355e-11
1.5100611e-09
1.1345085e-11
1.5065771e-09
2.2690542e-11
1.5050829e-09
2.276943e-12
1.504254e-09
1.0434705e-11
1.5049095e-09
-8.3726347e-12
1.5041107e-09
9.1035157e-12
1.5049352e-09
-8.6980008e-12
1.504107e-09
8.4941752e-12
1.5048761e-09
-7.9212577e-12
1.5041285e-09
7.5787148e-12
1.5048219e-09
-7.0835425e-12
1.5041603e-09
6.7142118e-12
1.5047801e-09
-6.3087119e-12
1.504193e-09
5.9611959e-12
1.5047459e-09
-5.6174402e-12
1.5042233e-09
5.3047865e-12
1.5047166e-09
-5.0071037e-12
1.5042505e-09
4.7302261e-12
1.504691e-09
-4.4702366e-12
1.5042745e-09
4.2266069e-12
1.5046687e-09
-3.9990268e-12
1.5042956e-09
3.7854224e-12
1.5046491e-09
-3.586372e-12
1.504314e-09
3.3997015e-12
1.5046321e-09
-3.2260696e-12
1.5043301e-09
3.0635793e-12
1.5046172e-09
-2.9127638e-12
1.504344e-09
2.7720568e-12
1.5046044e-09
-2.6418418e-12
1.504356e-09
2.5208487e-12
1.5045934e-09
-2.4093365e-12
1.5043662e-09
2.3062799e-12
1.5045841e-09
-2.211847e-12
1.5043748e-09
2.1252094e-12
1.5045763e-09
-2.046475e-12
1.5043819e-09
1.9749655e-12
1.50457e-09
-1.9107791e-12
1.5043876e-09
1.8532817e-12
1.504565e-09
-1.8026221e-12
1.504392e-09
1.7586781e-12
1.5045608e-09
-1.7188356e-12
1.5043943e-09
1.6909505e-12
1.5045571e-09
-1.6645228e-12
1.5044036e-09
1.5937468e-12
1.5046087e-09
-1.8839484e-12
1.5249431e-12
1.6178687e-09
1.8234385e-08
1.7983228e-09
-8.4767798e-10
1.6833641e-09
8.1578244e-10
1.6892062e-09
-2.5895639e-11
1.6865125e-09
1.4038763e-11
1.6831911e-09
2.6011927e-11
1.6815625e-09
3.9054867e-12
1.6809642e-09
1.1033042e-11
1.6815052e-09
-8.9136624e-12
1.6808338e-09
9.7749547e-12
1.681566e-09
-9.430203e-12
1.6808261e-09
9.234051e-12
1.6815134e-09
-8.6085555e-12
1.6808419e-09
8.2502069e-12
1.6814631e-09
-7.7047066e-12
1.6808691e-09
7.3081509e-12
1.681425e-09
-6.864577e-12
1.680898e-09
6.4881934e-12
1.6813941e-09
-6.1135485e-12
1.6809251e-09
5.7738389e-12
1.6813678e-09
-5.4498296e-12
1.6809494e-09
5.1486086e-12
1.6813449e-09
-4.8657196e-12
1.680971e-09
4.6005273e-12
1.6813248e-09
-4.3529051e-12
1.6809899e-09
4.1203412e-12
1.6813073e-09
-3.9037471e-12
1.6810065e-09
3.7004881e-12
1.681292e-09
-3.5115403e-12
1.6810209e-09
3.3346047e-12
1.6812787e-09
-3.1704774e-12
1.6810335e-09
3.017261e-12
1.6812672e-09
-2.8755468e-12
1.6810442e-09
2.7437972e-12
1.6812573e-09
-2.6224328e-12
1.6810534e-09
2.5102131e-12
1.681249e-09
-2.4074316e-12
1.6810611e-09
2.3130868e-12
1.681242e-09
-2.2273837e-12
1.6810675e-09
2.1495036e-12
1.6812363e-09
-2.0796247e-12
1.6810726e-09
2.0169798e-12
1.6812318e-09
-1.9618105e-12
1.6810766e-09
1.9139133e-12
1.681228e-09
-1.8702632e-12
1.6810785e-09
1.8404387e-12
1.6812243e-09
-1.8102975e-12
1.6810872e-09
1.7308404e-12
1.6812758e-09
-2.072547e-12
1.6481872e-12
1.792906e-09
1.9389729e-08
1.9609222e-09
-1.0156942e-09
1.8531707e-09
9.2353393e-10
1.8574908e-09
-3.0215683e-11
1.8569415e-09
1.4588067e-11
1.8541513e-09
2.8802122e-11
1.8524865e-09
5.5702765e-12
1.8521449e-09
1.1374623e-11
1.8525773e-09
-9.3460962e-12
1.8520339e-09
1.0318392e-11
1.8526752e-09
-1.0071569e-11
1.8520235e-09
9.8857584e-12
1.8526295e-09
-9.214485e-12
1.8520341e-09
8.8455985e-12
1.8525831e-09
-8.2537291e-12
1.8520568e-09
7.8344417e-12
1.8525487e-09
-7.3565025e-12
1.8520819e-09
6.9550102e-12
1.8525212e-09
-6.5528336e-12
1.8521057e-09
6.189292e-12
1.8524978e-09
-5.8419353e-12
1.8521273e-09
5.5191762e-12
1.8524776e-09
-5.2160122e-12
1.8521464e-09
4.9317121e-12
1.8524598e-09
-4.6663526e-12
1.8521632e-09
4.4169794e-12
1.8524443e-09
-4.1848605e-12
1.8521779e-09
3.9668932e-12
1.8524307e-09
-3.7643921e-12
1.8521907e-09
3.5746493e-12
1.852419e-09
-3.3987423e-12
1.8522018e-09
3.2344366e-12
1.8524088e-09
-3.0825468e-12
1.8522113e-09
2.9412629e-12
1.8524001e-09
-2.8111801e-12
1.8522194e-09
2.6908393e-12
1.8523927e-09
-2.5806697e-12
1.8522263e-09
2.479494e-12
1.8523865e-09
-2.3876231e-12
1.8522319e-09
2.3040954e-12
1.8523815e-09
-2.2291764e-12
1.8522365e-09
2.1619634e-12
1.8523775e-09
-2.1028e-12
1.85224e-09
2.051386e-12
1.8523741e-09
-2.0043106e-12
1.8522416e-09
1.9729097e-12
1.8523704e-09
-1.9390672e-12
1.8522495e-09
1.8516767e-12
1.8524208e-09
-2.243805e-12
1.753303e-12
1.9184445e-09
2.0419535e-08
2.1130916e-09
-1.2103413e-09
2.0172461e-09
1.0193794e-09
2.0198389e-09
-3.280845e-11
2.0215467e-09
1.2880215e-11
2.0195111e-09
3.0837761e-11
2.017874e-09
7.2073571e-12
2.0178021e-09
1.1446501e-11
2.0181285e-09
-9.6724993e-12
2.0177117e-09
1.0735205e-11
2.0182635e-09
-1.062343e-11
2.0176992e-09
1.0450071e-11
2.0182245e-09
-9.7397382e-12
2.0177048e-09
9.3652708e-12
2.0181821e-09
-8.7310346e-12
2.0177232e-09
8.2933767e-12
2.0181515e-09
-7.7847873e-12
2.0177446e-09
7.3618864e-12
2.0181273e-09
-6.9355216e-12
2.0177652e-09
6.5513444e-12
2.0181069e-09
-6.1836032e-12
2.017784e-09
5.8420974e-12
2.0180892e-09
-5.5212691e-12
2.0178006e-09
5.2203082e-12
2.0180738e-09
-4.9395055e-12
2.0178153e-09
4.6754681e-12
2.0180603e-09
-4.4298347e-12
2.0178281e-09
4.1990354e-12
2.0180485e-09
-3.9847367e-12
2.0178393e-09
3.7838219e-12
2.0180382e-09
-3.5976613e-12
2.017849e-09
3.4236836e-12
2.0180294e-09
-3.2629366e-12
2.0178573e-09
3.1133384e-12
2.0180218e-09
-2.9756668e-12
2.0178644e-09
2.8482448e-12
2.0180153e-09
-2.731644e-12
2.0178703e-09
2.6245123e-12
2.01801e-09
-2.5272716e-12
2.0178752e-09
2.4388188e-12
2.0180056e-09
-2.3595102e-12
2.0178792e-09
2.2883086e-12
2.0180021e-09
-2.2256661e-12
2.0178823e-09
2.1711722e-12
2.0179991e-09
-2.1210636e-12
2.0178835e-09
2.0884304e-12
2.0179954e-09
-2.0509476e-12
2.0178907e-09
1.956445e-12
2.0180439e-09
-2.3970323e-12
1.8407307e-12
2.0803778e-09
2.1287407e-08
2.2574195e-09
-1.387383e-09
2.1747403e-09
1.1020585e-09
2.1776015e-09
-3.5669679e-11
2.1804338e-09
1.004799e-11
2.1793115e-09
3.195999e-11
2.1777357e-09
8.7832093e-12
2.177938e-09
1.1244194e-11
2.1781592e-09
-9.8937423e-12
2.1778669e-09
1.1027542e-11
2.1783309e-09
-1.1087479e-11
2.177853e-09
1.0928037e-11
2.1782986e-09
-1.0185377e-11
2.177854e-09
9.8099051e-12
2.1782603e-09
-9.1373643e-12
2.1778681e-09
8.6855418e-12
2.1782334e-09
-8.1500145e-12
2.1778859e-09
7.7093333e-12
2.1782125e-09
-7.2620974e-12
2.1779034e-09
6.8604422e-12
2.178195e-09
-6.4752508e-12
2.1779194e-09
6.1177649e-12
2.17818e-09
-5.7818581e-12
2.1779336e-09
5.4666652e-12
2.1781668e-09
-5.1726921e-12
2.1779461e-09
4.8961208e-12
2.1781553e-09
-4.638965e-12
2.1779571e-09
4.3971974e-12
2.1781452e-09
-4.172841e-12
2.1779666e-09
3.9623782e-12
2.1781365e-09
-3.7674767e-12
2.1779749e-09
3.5852346e-12
2.1781289e-09
-3.416937e-12
2.177982e-09
3.2602358e-12
2.1781224e-09
-3.1160952e-12
2.1779881e-09
2.9826244e-12
2.178117e-09
-2.8605413e-12
2.1779931e-09
2.7483222e-12
2.1781124e-09
-2.6465033e-12
2.1779974e-09
2.5538429e-12
2.1781086e-09
-2.4707902e-12
2.1780008e-09
2.3961766e-12
2.1781057e-09
-2.3305662e-12
2.1780034e-09
2.2734276e-12
2.178103e-09
-2.2206843e-12
2.1780043e-09
2.1871429e-12
2.1780995e-09
-2.1461308e-12
2.1780106e-09
2.0453852e-12
2.1781452e-09
-2.5317185e-12
1.9110499e-12
2.199154e-09
2.2036503e-08
2.390982e-09
-1.579211e-09
2.3267804e-09
1.1662601e-09
2.3309258e-09
-3.9815047e-11
2.3337003e-09
7.2735043e-12
2.3335849e-09
3.2075394e-11
2.3320808e-09
1.0287313e-11
2.3325544e-09
1.0770581e-11
2.3326699e-09
-1.0009232e-11
2.3324991e-09
1.1198314e-11
2.3328773e-09
-1.1465695e-11
2.3324844e-09
1.1320902e-11
2.3328519e-09
-1.0552817e-11
2.3324814e-09
1.0180425e-11
2.3328177e-09
-9.4737557e-12
2.3324915e-09
9.0117783e-12
2.3327945e-09
-8.4530272e-12
2.3325057e-09
7.998104e-12
2.3327769e-09
-7.5332805e-12
2.3325201e-09
7.1172538e-12
2.3327624e-09
-6.7175087e-12
2.3325334e-09
6.3467738e-12
2.3327498e-09
-5.9983393e-12
2.3325452e-09
5.6713151e-12
2.3327389e-09
-5.3664137e-12
2.3325556e-09
5.0794148e-12
2.3327294e-09
-4.8127022e-12
2.3325648e-09
4.5618089e-12
2.332721e-09
-4.3291117e-12
2.3325727e-09
4.1107062e-12
2.3327138e-09
-3.9085561e-12
2.3325796e-09
3.7194409e-12
2.3327075e-09
-3.5448823e-12
2.3325855e-09
3.3822752e-12
2.3327021e-09
-3.2327704e-12
2.3325905e-09
3.0942712e-12
2.3326976e-09
-2.9676419e-12
2.3325947e-09
2.8511939e-12
2.3326938e-09
-2.745578e-12
2.3325982e-09
2.649419e-12
2.3326907e-09
-2.5632598e-12
2.3326011e-09
2.4858047e-12
2.3326882e-09
-2.4177316e-12
2.3326033e-09
2.3583797e-12
2.332686e-09
-2.3034036e-12
2.3326039e-09
2.2692566e-12
2.3326826e-09
-2.2248763e-12
2.3326092e-09
2.1187838e-12
2.332725e-09
-2.6475174e-12
1.9649463e-12
2.3491399e-09
2.2635613e-08
2.5197327e-09
-1.7498038e-09
2.4730277e-09
1.212965e-09
2.47908e-09
-4.5867354e-11
2.4814436e-09
4.9099401e-12
2.4823436e-09
3.1175382e-11
2.4809164e-09
1.1714552e-11
2.481655e-09
1.0031893e-11
2.4816628e-09
-1.0016946e-11
2.4816092e-09
1.125186e-11
2.4819032e-09
-1.1759727e-11
2.4815937e-09
1.1630407e-11
2.4818845e-09
-1.0843616e-11
2.4815869e-09
1.0478051e-11
2.4818546e-09
-9.7414723e-12
2.4815932e-09
9.2731747e-12
2.4818351e-09
-8.6948941e-12
2.481604e-09
8.2291733e-12
2.4818207e-09
-7.7500002e-12
2.4816153e-09
7.3226487e-12
2.481809e-09
-6.9111983e-12
2.4816259e-09
6.5299005e-12
2.481799e-09
-6.1714454e-12
2.4816354e-09
5.8349529e-12
2.4817903e-09
-5.5213265e-12
2.4816437e-09
5.2259738e-12
2.4817826e-09
-4.9516357e-12
2.481651e-09
4.6934308e-12
2.481776e-09
-4.4540796e-12
2.4816574e-09
4.2293118e-12
2.4817702e-09
-4.0213795e-12
2.4816629e-09
3.8267602e-12
2.4817652e-09
-3.6472075e-12
2.4816676e-09
3.4798724e-12
2.4817609e-09
-3.3260889e-12
2.4816716e-09
3.1835652e-12
2.4817573e-09
-3.0533096e-12
2.481675e-09
2.9334773e-12
2.4817543e-09
-2.824832e-12
2.4816778e-09
2.7258726e-12
2.4817518e-09
-2.6372332e-12
2.4816801e-09
2.5574989e-12
2.4817498e-09
-2.48746e-12
2.4816819e-09
2.4263206e-12
2.481748e-09
-2.3695139e-12
2.4816822e-09
2.3350421e-12
2.4817448e-09
-2.2875029e-12
2.4816867e-09
2.1769701e-12
2.4817834e-09
-2.744232e-12
2.0031841e-12
2.4662797e-09
2.3117583e-08
2.6411237e-09
-1.9246477e-09
2.6140408e-09
1.240048e-09
2.6212153e-09
-5.3041876e-11
2.6237711e-09
2.3541721e-12
2.6255806e-09
2.9365891e-11
2.6242427e-09
1.3052385e-11
2.6252418e-09
9.0328301e-12
2.6251395e-09
-9.9146329e-12
2.625198e-09
1.1193368e-11
2.6254092e-09
-1.1970963e-11
2.6251809e-09
1.1858721e-11
2.6253967e-09
-1.1059455e-11
2.6251705e-09
1.070428e-11
2.625371e-09
-9.9419795e-12
2.6251731e-09
9.4710436e-12
2.6253551e-09
-8.8768876e-12
2.6251806e-09
8.4037154e-12
2.6253439e-09
-7.9133748e-12
2.6251889e-09
7.4776765e-12
2.625335e-09
-7.0573126e-12
2.6251969e-09
6.6680837e-12
2.6253275e-09
-6.3020627e-12
2.625204e-09
5.9584192e-12
2.6253209e-09
-5.6382245e-12
2.6252103e-09
5.3365519e-12
2.6253152e-09
-5.0564785e-12
2.6252159e-09
4.7927408e-12
2.6253102e-09
-4.5483864e-12
2.6252207e-09
4.3188056e-12
2.6253058e-09
-4.1065261e-12
2.6252248e-09
3.907745e-12
2.6253021e-09
-3.7244376e-12
2.6252284e-09
3.5535291e-12
2.6252988e-09
-3.396529e-12
2.6252314e-09
3.2509647e-12
2.6252961e-09
-3.1179829e-12
2.625234e-09
2.995594e-12
2.6252938e-09
-2.8846704e-12
2.6252361e-09
2.7835947e-12
2.625292e-09
-2.6930885e-12
2.6252378e-09
2.6116264e-12
2.6252905e-09
-2.5401083e-12
2.6252392e-09
2.4776001e-12
2.6252891e-09
-2.4193628e-12
2.6252393e-09
2.3848247e-12
2.6252862e-09
-2.3343817e-12
2.6252428e-09
2.2203125e-12
2.6253204e-09
-2.8218009e-12
2.0265818e-12
2.6088091e-09
2.3457024e-08
2.7609536e-09
-2.0767923e-09
2.7498222e-09
1.2511794e-09
2.7569895e-09
-6.0209248e-11
2.7607431e-09
-1.3994243e-12
2.7632939e-09
2.6815113e-11
2.7620657e-09
1.428061e-11
2.7633171e-09
7.7814586e-12
2.763102e-09
-9.6995395e-12
2.7632664e-09
1.1028934e-11
2.7633959e-09
-1.2100434e-11
2.7632461e-09
1.2008449e-11
2.7633887e-09
-1.1202077e-11
2.7632321e-09
1.0860882e-11
2.7633671e-09
-1.0076901e-11
2.7632312e-09
9.6069144e-12
2.7633548e-09
-9.0004533e-12
2.7632354e-09
8.5230888e-12
2.7633467e-09
-8.0246882e-12
2.7632408e-09
7.5835495e-12
2.7633405e-09
-7.1569958e-12
2.7632462e-09
6.762407e-12
2.7633353e-09
-6.3912143e-12
2.7632511e-09
6.0426841e-12
2.7633309e-09
-5.7180241e-12
2.7632554e-09
5.4120187e-12
2.763327e-09
-5.1280531e-12
2.7632592e-09
4.8605203e-12
2.7633236e-09
-4.6127722e-12
2.7632625e-09
4.3798913e-12
2.7633206e-09
-4.1646636e-12
2.7632653e-09
3.9630311e-12
2.7633181e-09
-3.7771776e-12
2.7632678e-09
3.6038227e-12
2.7633159e-09
-3.4446415e-12
2.7632699e-09
3.2969968e-12
2.7633141e-09
-3.1621663e-12
2.7632716e-09
3.0380286e-12
2.7633125e-09
-2.9255593e-12
2.7632731e-09
2.823035e-12
2.7633112e-09
-2.7312601e-12
2.7632743e-09
2.6486092e-12
2.7633102e-09
-2.5760861e-12
2.7632752e-09
2.5126194e-12
2.7633092e-09
-2.4533469e-12
2.763275e-09
2.4189789e-12
2.7633066e-09
-2.3659293e-12
2.7632777e-09
2.2492147e-12
2.7633362e-09
-2.8802859e-12
2.0359928e-12
2.7256923e-09
2.3679582e-08
2.8749107e-09
-2.2260107e-09
2.8808e-09
1.2452902e-09
2.8867762e-09
-6.618551e-11
2.8923661e-09
-6.9893033e-12
2.8954787e-09
2.370256e-11
2.8943906e-09
1.5368684e-11
2.8958762e-09
6.2958553e-12
2.895548e-09
-9.3713182e-12
2.8958129e-09
1.0763983e-11
2.8958624e-09
-1.2149872e-11
2.8957888e-09
1.2081982e-11
2.8958604e-09
-1.1273645e-11
2.8957716e-09
1.094968e-11
2.8958428e-09
-1.0148114e-11
2.8957673e-09
9.6824501e-12
2.895834e-09
-9.0672246e-12
2.8957683e-09
8.5887988e-12
2.895829e-09
-8.0853807e-12
2.8957709e-09
7.6416192e-12
2.8958255e-09
-7.2115294e-12
2.8957738e-09
6.8140808e-12
2.8958226e-09
-6.4400445e-12
2.8957765e-09
6.0888313e-12
2.8958202e-09
-5.7617497e-12
2.8957789e-09
5.4533456e-12
2.8958181e-09
-5.1672783e-12
2.895781e-09
4.8976414e-12
2.8958163e-09
-4.6480632e-12
2.8957828e-09
4.4133545e-12
2.8958147e-09
-4.1965374e-12
2.8957844e-09
3.9933283e-12
2.8958133e-09
-3.8061026e-12
2.8957857e-09
3.6313976e-12
2.8958121e-09
-3.4710411e-12
2.8957869e-09
3.32225e-12
2.8958111e-09
-3.186423e-12
2.8957879e-09
3.0613223e-12
2.8958103e-09
-2.9480186e-12
2.8957887e-09
2.8446951e-12
2.8958096e-09
-2.7522325e-12
2.8957893e-09
2.6689173e-12
2.8958091e-09
-2.5958501e-12
2.8957899e-09
2.5318252e-12
2.8958084e-09
-2.471906e-12
2.8957895e-09
2.4379231e-12
2.8958062e-09
-2.3826017e-12
2.8957913e-09
2.2641122e-12
2.8958308e-09
-2.9198603e-12
2.0322882e-12
2.8615533e-09
2.3766279e-08
2.9874898e-09
-2.3519471e-09
3.0068295e-09
1.2259504e-09
3.0116321e-09
-7.098813e-11
3.0187756e-09
-1.4132838e-11
3.0221873e-09
2.0290922e-11
3.0212515e-09
1.6304447e-11
3.0229222e-09
4.6251711e-12
3.0224796e-09
-8.928756e-12
3.0228381e-09
1.0405489e-11
3.0228089e-09
-1.2120655e-11
3.0228089e-09
1.208199e-11
3.0228117e-09
-1.1276472e-11
3.0227887e-09
1.097266e-11
3.0227983e-09
-1.0157665e-11
3.0227813e-09
9.6994654e-12
3.022793e-09
-9.0789848e-12
3.0227793e-09
8.6024899e-12
3.022791e-09
-8.0970267e-12
3.0227792e-09
7.6533626e-12
3.02279e-09
-7.2223135e-12
3.0227797e-09
6.8244274e-12
3.0227894e-09
-6.4498037e-12
3.0227802e-09
6.0980444e-12
3.022789e-09
-5.7705204e-12
3.0227807e-09
5.4615931e-12
3.0227886e-09
-5.1751578e-12
3.0227812e-09
4.9050565e-12
3.0227883e-09
-4.6551616e-12
3.0227816e-09
4.4200524e-12
3.022788e-09
-4.2029614e-12
3.022782e-09
3.9994115e-12
3.0227878e-09
-3.8119498e-12
3.0227822e-09
3.6369571e-12
3.0227876e-09
-3.4763986e-12
3.0227825e-09
3.3273662e-12
3.0227874e-09
-3.1913677e-12
3.0227827e-09
3.0660651e-12
3.0227873e-09
-2.9526156e-12
3.0227829e-09
2.8491223e-12
3.0227872e-09
-2.7565345e-12
3.022783e-09
2.6730637e-12
3.0227871e-09
-2.5998982e-12
3.0227832e-09
2.5357045e-12
3.0227868e-09
-2.4755184e-12
3.0227826e-09
2.4421147e-12
3.0227849e-09
-2.3848894e-12
3.0227835e-09
2.265469e-12
3.0228045e-09
-2.9407976e-12
2.0163432e-12
2.9784699e-09
2.3736059e-08
3.0932079e-09
-2.4666851e-09
3.1276132e-09
1.1915451e-09
3.1321797e-09
-7.5554609e-11
3.1400575e-09
-2.2010642e-11
3.1434553e-09
1.6893151e-11
3.1426825e-09
1.7077231e-11
3.1444567e-09
2.8509584e-12
3.1438998e-09
-8.3718261e-12
3.1443433e-09
9.9619133e-12
3.1442362e-09
-1.2013506e-11
3.1443066e-09
1.2011624e-11
3.1442429e-09
-1.1212867e-11
3.1442836e-09
1.0932025e-11
3.1442336e-09
-1.010771e-11
3.1442732e-09
9.6599276e-12
3.1442318e-09
-9.0376405e-12
3.1442684e-09
8.5659328e-12
3.1442327e-09
-8.0613155e-12
3.1442657e-09
7.6203669e-12
3.1442342e-09
-7.1908524e-12
3.1442638e-09
6.7948671e-12
3.1442358e-09
-6.4218348e-12
3.1442622e-09
6.071594e-12
3.1442373e-09
-5.7455374e-12
3.1442609e-09
5.4378996e-12
3.1442386e-09
-5.1527686e-12
3.1442598e-09
4.8837874e-12
3.1442397e-09
-4.6350359e-12
3.1442588e-09
4.4009051e-12
3.1442407e-09
-4.1848089e-12
3.144258e-09
3.9821119e-12
3.1442416e-09
-3.79551e-12
3.1442573e-09
3.6212558e-12
3.1442423e-09
-3.4614343e-12
3.1442566e-09
3.3130346e-12
3.1442429e-09
-3.17766e-12
3.1442561e-09
3.0528907e-12
3.1442434e-09
-2.9399594e-12
3.1442556e-09
2.836904e-12
3.1442438e-09
-2.7447336e-12
3.1442553e-09
2.6615985e-12
3.1442442e-09
-2.5887647e-12
3.1442551e-09
2.5247797e-12
3.1442443e-09
-2.4646962e-12
3.1442544e-09
2.4320456e-12
3.1442428e-09
-2.3733122e-12
3.1442545e-09
2.2537742e-12
3.1442571e-09
-2.9434621e-12
1.9890254e-12
3.1078934e-09
2.3576415e-08
3.1974695e-09
-2.5562613e-09
3.2432483e-09
1.1457663e-09
3.2481843e-09
-8.0490603e-11
3.2560317e-09
-2.9858058e-11
3.2592524e-09
1.3672386e-11
3.2586795e-09
1.76502e-11
3.2604667e-09
1.063742e-12
3.2598048e-09
-7.7099669e-12
3.2603274e-09
9.4393788e-12
3.2601438e-09
-1.1829897e-11
3.2602815e-09
1.1873883e-11
3.260154e-09
-1.1085396e-11
3.260256e-09
1.0830059e-11
3.2601488e-09
-1.0000559e-11
3.2602428e-09
9.5659115e-12
3.2601504e-09
-8.9452194e-12
3.2602354e-09
8.4810015e-12
3.2601541e-09
-7.9800405e-12
3.2602301e-09
7.5443133e-12
3.260158e-09
-7.118741e-12
3.260226e-09
6.726904e-12
3.2601617e-09
-6.357561e-12
3.2602225e-09
6.010826e-12
3.260165e-09
-5.6880739e-12
3.2602194e-09
5.3834706e-12
3.2601679e-09
-5.101252e-12
3.2602168e-09
4.8349162e-12
3.2601705e-09
-4.5887117e-12
3.2602145e-09
4.3568866e-12
3.2601727e-09
-4.1430051e-12
3.2602125e-09
3.9423098e-12
3.2601746e-09
-3.7576212e-12
3.2602108e-09
3.585093e-12
3.2601762e-09
-3.4269109e-12
3.2602093e-09
3.2799848e-12
3.2601776e-09
-3.1459989e-12
3.260208e-09
3.0224701e-12
3.2601788e-09
-2.9106954e-12
3.260207e-09
2.8086625e-12
3.2601797e-09
-2.7174309e-12
3.2602062e-09
2.6351047e-12
3.2601805e-09
-2.5630156e-12
3.2602056e-09
2.499604e-12
3.2601809e-09
-2.4399804e-12
3.2602047e-09
2.408238e-12
3.2601798e-09
-2.3484151e-12
3.2602041e-09
2.2295389e-12
3.2601889e-09
-2.9282993e-12
1.9511858e-12
3.2241243e-09
2.3300541e-08
3.2957232e-09
-2.6278602e-09
3.3537869e-09
1.0877026e-09
3.3591676e-09
-8.5871276e-11
3.3665783e-09
-3.726877e-11
3.3695645e-09
1.0686225e-11
3.3692285e-09
1.7986173e-11
3.3709425e-09
-6.5029348e-13
3.3701921e-09
-6.9595183e-12
3.3707897e-09
8.8417554e-12
3.3705315e-09
-1.1571744e-11
3.3707337e-09
1.1671739e-11
3.370545e-09
-1.0896758e-11
3.3707059e-09
1.0669166e-11
3.370544e-09
-9.8386213e-12
3.3706903e-09
9.419606e-12
3.3705489e-09
-8.803841e-12
3.3706802e-09
8.3496662e-12
3.3705553e-09
-7.8550798e-12
3.3706726e-09
7.4269661e-12
3.3705615e-09
-7.0076512e-12
3.3706663e-09
6.6221156e-12
3.3705672e-09
-6.2584744e-12
3.3706609e-09
5.917151e-12
3.3705723e-09
-5.5994641e-12
3.3706562e-09
5.2995694e-12
3.3705768e-09
-5.0218038e-12
3.3706521e-09
4.7595768e-12
3.3705806e-09
-4.517264e-12
3.3706485e-09
4.289018e-12
3.370584e-09
-4.0785194e-12
3.3706454e-09
3.8809278e-12
3.3705869e-09
-3.6991617e-12
3.3706427e-09
3.5293065e-12
3.3705895e-09
-3.3736282e-12
3.3706405e-09
3.2289822e-12
3.3705916e-09
-3.0971173e-12
3.3706385e-09
2.975507e-12
3.3705933e-09
-2.8655002e-12
3.370637e-09