/*--------------------------------*- C++ -*----------------------------------*\
| =========                 |                                                 |
| \\      /  F ield         | OpenFOAM: The Open Source CFD Toolbox           |
|  \\    /   O peration     | Version:  2312                                  |
|   \\  /    A nd           | Website:  www.openfoam.com                      |
|    \\/     M anipulation  |                                                 |
\*---------------------------------------------------------------------------*/
FoamFile
{
    version     2.0;
    format      ascii;
    arch        "LSB;label=32;scalar=64";
    class       surfaceScalarField;
    location    "6";
    object      phi_0;
}
// * * * * * * * * * * * * * * * * * * * * * * * * * * * * * * * * * * * * * //

dimensions      [0 3 -1 0 0 0 0];

oriented        oriented;

internalField   nonuniform List<scalar> 
7870
(
1.3046773e-10
2.8177823e-09
1.3337553e-10
-2.9077973e-12
1.1283263e-10
2.0542906e-11
1.1391292e-10
-1.0802848e-12
1.1436033e-10
-4.4740543e-13
1.1286751e-10
1.4928169e-12
1.1381145e-10
-9.4394025e-13
1.1264457e-10
1.1668792e-12
1.1369806e-10
-1.0534859e-12
1.1266779e-10
1.0302692e-12
1.1363265e-10
-9.6486216e-13
1.1271581e-10
9.168467e-13
1.1357637e-10
-8.605629e-13
1.1276336e-10
8.1301119e-13
1.1352776e-10
-7.6440301e-13
1.1280676e-10
7.2099809e-13
1.1348573e-10
-6.7897237e-13
1.1284532e-10
6.404101e-13
1.1344915e-10
-6.0382345e-13
1.1287928e-10
5.6986595e-13
1.1341717e-10
-5.3788421e-13
1.1290909e-10
5.0807183e-13
1.1338916e-10
-4.8007152e-13
1.1293523e-10
4.5393708e-13
1.1336465e-10
-4.2942481e-13
1.129581e-10
4.065503e-13
1.1334322e-10
-3.8512206e-13
1.1297808e-10
3.6514775e-13
1.1332454e-10
-3.464666e-13
1.1299546e-10
3.2908616e-13
1.1330833e-10
-3.1286798e-13
1.130105e-10
2.9782063e-13
1.1329433e-10
-2.8382411e-13
1.1302344e-10
2.7088753e-13
1.1328235e-10
-2.5890714e-13
1.1303446e-10
2.4789186e-13
1.1327221e-10
-2.3775277e-13
1.1304371e-10
2.2849805e-13
1.1326376e-10
-2.2005262e-13
1.1305134e-10
2.1242329e-13
1.1325689e-10
-2.0554864e-13
1.1305746e-10
1.9943328e-13
1.1325148e-10
-1.9402509e-13
1.1306213e-10
1.8934985e-13
1.1324743e-10
-1.8529612e-13
1.1306546e-10
1.8197047e-13
1.1324518e-10
-1.7972474e-13
1.1307005e-10
1.7513507e-13
1.1325319e-10
-1.8313884e-13
1.6842658e-13
3.5068168e-10
5.4153506e-09
3.8097202e-10
-3.3198134e-11
3.3012555e-10
7.1389395e-11
3.3071416e-10
-1.6688886e-12
3.3096829e-10
-7.0152531e-13
3.2855611e-10
3.9049978e-12
3.2950451e-10
-1.8923386e-12
3.2780243e-10
2.8689539e-12
3.292689e-10
-2.5199536e-12
3.2779052e-10
2.508653e-12
3.29172e-10
-2.3463484e-12
3.278498e-10
2.2390493e-12
3.2908808e-10
-2.0988463e-12
3.2791482e-10
1.9862757e-12
3.2901641e-10
-1.8659975e-12
3.2797622e-10
1.761192e-12
3.289553e-10
-1.6580524e-12
3.2803144e-10
1.5642686e-12
3.2890243e-10
-1.4748182e-12
3.2808029e-10
1.3920035e-12
3.2885632e-10
-1.3139139e-12
3.2812328e-10
1.2411211e-12
3.2881598e-10
-1.1727728e-12
3.2816099e-10
1.1089229e-12
3.2878065e-10
-1.0490852e-12
3.2819402e-10
9.9318127e-13
3.2874976e-10
-9.4086423e-13
3.2822287e-10
8.9203856e-13
3.2872283e-10
-8.4642188e-13
3.2824798e-10
8.0393143e-13
3.2869944e-10
-7.6432421e-13
3.2826972e-10
7.2753448e-13
3.2867925e-10
-6.9334958e-13
3.2828842e-10
6.6171845e-13
3.2866197e-10
-6.3245511e-13
3.2830434e-10
6.0551986e-13
3.2864734e-10
-5.8075167e-13
3.2831772e-10
5.5811926e-13
3.2863515e-10
-5.3748568e-13
3.2832875e-10
5.1882504e-13
3.2862523e-10
-5.0202617e-13
3.283376e-10
4.870631e-13
3.2861741e-10
-4.7384245e-13
3.2834435e-10
4.6240846e-13
3.2861149e-10
-4.5243413e-13
3.2834904e-10
4.4442312e-13
3.2860813e-10
-4.3881245e-13
3.2835681e-10
4.264517e-13
3.2862805e-10
-4.5438193e-13
4.1019245e-13
5.6280675e-10
7.8007939e-09
6.1438552e-10
-8.47769e-11
5.4109721e-10
1.4467772e-10
5.4210974e-10
-2.6814104e-12
5.4161157e-10
-2.0335244e-13
5.3897237e-10
6.5441975e-12
5.3932882e-10
-2.2487846e-12
5.377165e-10
4.4812803e-12
5.390319e-10
-3.8353601e-12
5.3765078e-10
3.8897795e-12
5.3894149e-10
-3.6370566e-12
5.3769398e-10
3.486552e-12
5.3885921e-10
-3.2640732e-12
5.3775065e-10
3.0948346e-12
5.3878958e-10
-2.9049311e-12
5.3780703e-10
2.7437482e-12
5.3873125e-10
-2.5822778e-12
5.3785863e-10
2.4368853e-12
5.3868122e-10
-2.2974006e-12
5.379046e-10
2.168618e-12
5.386377e-10
-2.0470119e-12
5.3794516e-10
1.9336636e-12
5.3859964e-10
-1.8272562e-12
5.379808e-10
1.7277683e-12
5.3856631e-10
-1.6346025e-12
5.3801203e-10
1.5474646e-12
5.3853716e-10
-1.4659946e-12
5.3803932e-10
1.3898739e-12
5.3851173e-10
-1.3188267e-12
5.3806309e-10
1.2525746e-12
5.3848964e-10
-1.1908792e-12
5.3808366e-10
1.1335113e-12
5.3847057e-10
-1.0802566e-12
5.3810136e-10
1.0309297e-12
5.3845424e-10
-9.8533762e-13
5.3811643e-10
9.4333059e-13
5.3844042e-10
-9.0473767e-13
5.381291e-10
8.6943734e-13
5.384289e-10
-8.3728186e-13
5.3813955e-10
8.0817076e-13
5.3841951e-10
-7.8198548e-13
5.3814794e-10
7.5863256e-13
5.3841211e-10
-7.3801399e-13
5.3815434e-10
7.2017596e-13
5.3840642e-10
-7.0450882e-13
5.3815865e-10
6.9219036e-13
5.3840315e-10
-6.8330596e-13
5.381678e-10
6.6180004e-13
5.384334e-10
-7.1998141e-13
6.3715803e-13
7.5576569e-10
9.9932782e-09
8.392129e-10
-1.6822411e-10
7.4634315e-10
2.3754749e-10
7.4774757e-10
-4.0858256e-12
7.4663766e-10
9.0656709e-13
7.437684e-10
9.4134575e-12
7.4359845e-10
-2.0788364e-12
7.4209438e-10
5.9853513e-12
7.4326496e-10
-5.0059345e-12
7.4198877e-10
5.165963e-12
7.4318708e-10
-4.8353622e-12
7.420182e-10
4.6554312e-12
7.431076e-10
-4.3534746e-12
7.4206688e-10
4.1355548e-12
7.4304042e-10
-3.8784761e-12
7.421182e-10
3.6659664e-12
7.4298508e-10
-3.4491584e-12
7.4216609e-10
3.2558813e-12
7.4293801e-10
-3.0693191e-12
7.4220904e-10
2.897581e-12
7.4289717e-10
-2.7351419e-12
7.4224706e-10
2.5837811e-12
7.4286148e-10
-2.4416802e-12
7.4228051e-10
2.3087417e-12
7.4283022e-10
-2.1843137e-12
7.4230984e-10
2.067838e-12
7.4280286e-10
-1.9590131e-12
7.4233549e-10
1.8572449e-12
7.4277899e-10
-1.7623288e-12
7.4235782e-10
1.6737449e-12
7.4275826e-10
-1.591313e-12
7.4237717e-10
1.514603e-12
7.4274035e-10
-1.4434421e-12
7.423938e-10
1.3774808e-12
7.4272502e-10
-1.3165534e-12
7.4240797e-10
1.2603768e-12
7.4271203e-10
-1.2087971e-12
7.4241988e-10
1.1615845e-12
7.427012e-10
-1.1186016e-12
7.4242971e-10
1.0796589e-12
7.4269238e-10
-1.0446479e-12
7.4243762e-10
1.0133932e-12
7.4268541e-10
-9.8580988e-13
7.4244365e-10
9.6193982e-13
7.4267997e-10
-9.4082737e-13
7.4244756e-10
9.2459416e-13
7.4267665e-10
-9.1238989e-13
7.4245743e-10
8.8102139e-13
7.4271476e-10
-9.7731306e-13
8.4926037e-13
9.6049346e-10
1.1981035e-08
1.0514611e-09
-2.5919177e-10
9.4533116e-10
3.4367748e-10
9.4773607e-10
-6.4907297e-12
9.4601878e-10
2.6238587e-12
9.429268e-10
1.250544e-11
9.4230905e-10
-1.4610819e-12
9.4093598e-10
7.3584242e-12
9.4196797e-10
-6.037932e-12
9.40804e-10
6.3299387e-12
9.4190861e-10
-5.9399721e-12
9.4082193e-10
5.7421096e-12
9.4183304e-10
-5.3645891e-12
9.4086306e-10
5.1055409e-12
9.4176873e-10
-4.7841468e-12
9.4090936e-10
4.5253292e-12
9.417166e-10
-4.2563965e-12
9.4095346e-10
4.0190232e-12
9.4167262e-10
-3.7884808e-12
9.4099332e-10
3.5768858e-12
9.4163458e-10
-3.3764054e-12
9.410287e-10
3.189664e-12
9.4160134e-10
-3.014329e-12
9.4105987e-10
2.8502122e-12
9.4157223e-10
-2.6966728e-12
9.4108724e-10
2.5528345e-12
9.4154675e-10
-2.4185305e-12
9.4111117e-10
2.2928344e-12
9.4152452e-10
-2.1756811e-12
9.41132e-10
2.0662604e-12
9.415052e-10
-1.9645062e-12
9.4115005e-10
1.8697482e-12
9.4148851e-10
-1.7819e-12
9.4116557e-10
1.7004165e-12
9.4147422e-10
-1.6251957e-12
9.411788e-10
1.555796e-12
9.4146211e-10
-1.4921096e-12
9.4118991e-10
1.4337783e-12
9.4145201e-10
-1.3806986e-12
9.411991e-10
1.3325756e-12
9.4144378e-10
-1.2893302e-12
9.4120648e-10
1.2506889e-12
9.4143727e-10
-1.2166002e-12
9.4121212e-10
1.1870886e-12
9.414321e-10
-1.1608088e-12
9.4121564e-10
1.1410609e-12
9.4142869e-10
-1.1254441e-12
9.4122579e-10
1.0839196e-12
9.4147263e-10
-1.224147e-12
1.0450455e-12
1.1244813e-09
1.3804803e-08
1.2547749e-09
-3.8948535e-10
1.1388013e-09
4.5965114e-10
1.1420952e-09
-9.7846553e-12
1.1397386e-09
4.9804537e-12
1.1364476e-09
1.5796417e-11
1.1354606e-09
-4.7402659e-13
1.1342429e-09
8.5760654e-12
1.1351424e-09
-6.9373624e-12
1.1340964e-09
7.3758978e-12
1.1351067e-09
-6.9503225e-12
1.1341049e-09
6.7439261e-12
1.135036e-09
-6.2956493e-12
1.1341389e-09
6.002584e-12
1.1349749e-09
-5.6200555e-12
1.1341803e-09
5.3198919e-12
1.1349261e-09
-5.002211e-12
1.1342206e-09
4.7245693e-12
1.1348853e-09
-4.4532449e-12
1.1342573e-09
4.2049569e-12
1.1348502e-09
-3.969305e-12
1.1342899e-09
3.749886e-12
1.1348194e-09
-3.5438451e-12
1.1343188e-09
3.3508929e-12
1.1347925e-09
-3.170456e-12
1.1343441e-09
3.0012966e-12
1.134769e-09
-2.8434475e-12
1.1343662e-09
2.6956039e-12
1.1347485e-09
-2.5578985e-12
1.1343855e-09
2.4291901e-12
1.1347306e-09
-2.3095759e-12
1.1344022e-09
2.1981118e-12
1.1347152e-09
-2.0948377e-12
1.1344166e-09
1.9989865e-12
1.134702e-09
-1.9105515e-12
1.1344288e-09
1.8289118e-12
1.1346908e-09
-1.7540311e-12
1.1344391e-09
1.6854065e-12
1.1346814e-09
-1.6229884e-12
1.1344476e-09
1.5663637e-12
1.1346738e-09
-1.515499e-12
1.1344545e-09
1.47001e-12
1.1346678e-09
-1.4298963e-12
1.1344597e-09
1.39515e-12
1.1346629e-09
-1.3640096e-12
1.1344628e-09
1.3411505e-12
1.1346594e-09
-1.3220157e-12
1.1344729e-09
1.2703754e-12
1.1347074e-09
-1.4585745e-12
1.2233092e-12
1.3209936e-09
1.543206e-08
1.4465148e-09
-5.1500658e-10
1.3261245e-09
5.8004144e-10
1.3307506e-09
-1.4410722e-11
1.3277369e-09
7.9941303e-12
1.3243237e-09
1.9209664e-11
1.3230479e-09
8.0179881e-13
1.3220142e-09
9.6097659e-12
1.3227883e-09
-7.7114711e-12
1.3218653e-09
8.2988782e-12
1.3227819e-09
-7.8668634e-12
1.3218668e-09
7.6589922e-12
1.3227168e-09
-7.1456475e-12
1.3218942e-09
6.8251393e-12
1.3226591e-09
-6.384942e-12
1.3219307e-09
6.0482889e-12
1.3226139e-09
-5.6853617e-12
1.3219671e-09
5.3712857e-12
1.3225763e-09
-5.0624474e-12
1.3220006e-09
4.7806692e-12
1.3225441e-09
-4.5127682e-12
1.3220306e-09
4.2634234e-12
1.322516e-09
-4.0292522e-12
1.322057e-09
3.8098576e-12
1.3224913e-09
-3.6047821e-12
1.3220802e-09
3.4123912e-12
1.3224698e-09
-3.2329726e-12
1.3221006e-09
3.0648063e-12
1.3224509e-09
-2.9082715e-12
1.3221183e-09
2.7618648e-12
1.3224346e-09
-2.6258867e-12
1.3221336e-09
2.4990939e-12
1.3224204e-09
-2.3816856e-12
1.3221468e-09
2.2726519e-12
1.3224083e-09
-2.1721083e-12
1.322158e-09
2.0792382e-12
1.3223981e-09
-1.9940988e-12
1.3221674e-09
1.9160293e-12
1.3223895e-09
-1.8450515e-12
1.3221752e-09
1.7806236e-12
1.3223825e-09
-1.7227719e-12
1.3221815e-09
1.6709911e-12
1.322377e-09
-1.6253483e-12
1.3221864e-09
1.5857867e-12
1.3223725e-09
-1.5501171e-12
1.3221891e-09
1.5245477e-12
1.3223688e-09
-1.5017997e-12
1.3221989e-09
1.4403416e-12
1.3224193e-09
-1.6789897e-12
1.3833881e-12
1.4606116e-09
1.6919698e-08
1.6275848e-09
-6.8197978e-10
1.5078713e-09
6.9975495e-10
1.5135127e-09
-2.0052157e-11
1.5100721e-09
1.1434749e-11
1.5065851e-09
2.2696679e-11
1.5050837e-09
2.3031776e-12
1.5042552e-09
1.0438323e-11
1.5049088e-09
-8.3650646e-12
1.5041113e-09
9.0963406e-12
1.5049347e-09
-8.6902205e-12
1.5041073e-09
8.4863392e-12
1.5048758e-09
-7.9140933e-12
1.5041286e-09
7.5722667e-12
1.5048218e-09
-7.0780563e-12
1.5041604e-09
6.7096558e-12
1.5047801e-09
-6.3050683e-12
1.504193e-09
5.9583769e-12
1.5047459e-09
-5.6153356e-12
1.5042233e-09
5.3032884e-12
1.5047166e-09
-5.0060926e-12
1.5042504e-09
4.7296043e-12
1.5046911e-09
-4.4699077e-12
1.5042744e-09
4.2264973e-12
1.5046687e-09
-3.9990702e-12
1.5042955e-09
3.7855704e-12
1.5046492e-09
-3.5865846e-12
1.504314e-09
3.3999508e-12
1.5046321e-09
-3.2263343e-12
1.5043301e-09
3.0638455e-12
1.5046172e-09
-2.913022e-12
1.504344e-09
2.7723017e-12
1.5046044e-09
-2.6420703e-12
1.504356e-09
2.5210601e-12
1.5045934e-09
-2.4095308e-12
1.5043662e-09
2.3064583e-12
1.5045841e-09
-2.2120107e-12
1.5043748e-09
2.1253602e-12
1.5045763e-09
-2.0466143e-12
1.5043819e-09
1.9750952e-12
1.50457e-09
-1.9109004e-12
1.5043876e-09
1.8533961e-12
1.504565e-09
-1.8027305e-12
1.504392e-09
1.7587819e-12
1.5045608e-09
-1.7189353e-12
1.5043943e-09
1.6910474e-12
1.5045571e-09
-1.6646175e-12
1.5044036e-09
1.5938363e-12
1.5046087e-09
-1.884053e-12
1.525033e-12
1.6417184e-09
1.822623e-08
1.7987046e-09
-8.3896597e-10
1.6832228e-09
8.1523671e-10
1.6892337e-09
-2.6062977e-11
1.6865215e-09
1.4146916e-11
1.6831997e-09
2.6018485e-11
1.6815636e-09
3.9392842e-12
1.6809654e-09
1.1036503e-11
1.6815046e-09
-8.9042373e-12
1.6808343e-09
9.7666761e-12
1.6815656e-09
-9.4215463e-12
1.6808263e-09
9.2255917e-12
1.6815132e-09
-8.6009865e-12
1.680842e-09
8.2435023e-12
1.681463e-09
-7.6990918e-12
1.6808691e-09
7.3035484e-12
1.681425e-09
-6.860947e-12
1.680898e-09
6.4854242e-12
1.6813941e-09
-6.1115144e-12
1.680925e-09
5.7724205e-12
1.6813678e-09
-5.4488993e-12
1.6809494e-09
5.1480641e-12
1.6813449e-09
-4.8654614e-12
1.6809709e-09
4.6004806e-12
1.6813249e-09
-4.3530034e-12
1.6809899e-09
4.1205365e-12
1.6813073e-09
-3.904e-12
1.6810065e-09
3.7007717e-12
1.681292e-09
-3.5118341e-12
1.6810209e-09
3.3348958e-12
1.6812787e-09
-3.1707569e-12
1.6810334e-09
3.0175245e-12
1.6812672e-09
-2.8757917e-12
1.6810442e-09
2.7440233e-12
1.6812573e-09
-2.6226403e-12
1.6810534e-09
2.5104037e-12
1.681249e-09
-2.4076066e-12
1.6810611e-09
2.3132483e-12
1.681242e-09
-2.2275331e-12
1.6810675e-09
2.1496429e-12
1.6812363e-09
-2.0797553e-12
1.6810726e-09
2.0171032e-12
1.6812318e-09
-1.9619278e-12
1.6810766e-09
1.9140258e-12
1.681228e-09
-1.8703713e-12
1.6810785e-09
1.8405441e-12
1.6812243e-09
-1.8104004e-12
1.6810872e-09
1.7309376e-12
1.6812758e-09
-2.0726621e-12
1.6482853e-12
1.7692943e-09
1.9405186e-08
1.9601606e-09
-1.0298323e-09
1.8533272e-09
9.2207016e-10
1.8574797e-09
-3.0215535e-11
1.8569558e-09
1.4670873e-11
1.8541595e-09
2.881479e-11
1.8524875e-09
5.6112827e-12
1.852146e-09
1.1378023e-11
1.8525768e-09
-9.3350988e-12
1.8520342e-09
1.030929e-11
1.852675e-09
-1.0062296e-11
1.8520236e-09
9.8769163e-12
1.8526294e-09
-9.2067153e-12
1.8520341e-09
8.8388062e-12
1.8525831e-09
-8.2481201e-12
1.8520568e-09
7.8298956e-12
1.8525488e-09
-7.3529625e-12
1.8520818e-09
6.9523449e-12
1.8525212e-09
-6.5509066e-12
1.8521057e-09
6.1879761e-12
1.8524979e-09
-5.8410988e-12
1.8521272e-09
5.5187144e-12
1.8524776e-09
-5.2158254e-12
1.8521463e-09
4.9317258e-12
1.8524598e-09
-4.6665014e-12
1.8521632e-09
4.4172165e-12
1.8524443e-09
-4.185148e-12
1.8521779e-09
3.9672054e-12
1.8524308e-09
-3.7647097e-12
1.8521907e-09
3.5749605e-12
1.852419e-09
-3.399039e-12
1.8522018e-09
3.234715e-12
1.8524088e-09
-3.0828048e-12
1.8522113e-09
2.9415008e-12
1.8524001e-09
-2.8113984e-12
1.8522194e-09
2.6910399e-12
1.8523927e-09
-2.580854e-12
1.8522263e-09
2.4796645e-12
1.8523865e-09
-2.3877811e-12
1.8522319e-09
2.3042431e-12
1.8523815e-09
-2.2293151e-12
1.8522365e-09
2.1620947e-12
1.8523775e-09
-2.1029251e-12
1.85224e-09
2.0515062e-12
1.8523741e-09
-2.0044263e-12
1.8522416e-09
1.9730225e-12
1.8523704e-09
-1.9391776e-12
1.8522495e-09
1.8517808e-12
1.8524208e-09
-2.2439297e-12
1.7534084e-12
1.938046e-09
2.041539e-08
2.1137233e-09
-1.2055096e-09
2.0171006e-09
1.0186929e-09
2.0198431e-09
-3.2958109e-11
2.021557e-09
1.2957038e-11
2.0195182e-09
3.085359e-11
2.0178749e-09
7.2545805e-12
2.017803e-09
1.1449918e-11
2.0181282e-09
-9.6602846e-12
2.0177119e-09
1.0725577e-11
2.0182634e-09
-1.0613798e-11
2.0176992e-09
1.0441072e-11
2.0182245e-09
-9.7319476e-12
2.0177048e-09
9.3585327e-12
2.0181822e-09
-8.7255389e-12
2.0177231e-09
8.2889648e-12
2.0181515e-09
-7.7813919e-12
2.0177445e-09
7.3593605e-12
2.0181273e-09
-6.9337234e-12
2.0177652e-09
6.5501421e-12
2.0181069e-09
-6.1828643e-12
2.0177839e-09
5.8417174e-12
2.0180892e-09
-5.5211498e-12
2.0178006e-09
5.2203766e-12
2.0180738e-09
-4.9396985e-12
2.0178153e-09
4.6757406e-12
2.0180603e-09
-4.4301506e-12
2.0178281e-09
4.1993705e-12
2.0180485e-09
-3.985073e-12
2.0178393e-09
3.7841486e-12
2.0180382e-09
-3.5979711e-12
2.017849e-09
3.4239734e-12
2.0180294e-09
-3.2632046e-12
2.0178573e-09
3.1135854e-12
2.0180218e-09
-2.9758935e-12
2.0178644e-09
2.8484533e-12
2.0180153e-09
-2.7318359e-12
2.0178703e-09
2.6246901e-12
2.01801e-09
-2.5274368e-12
2.0178752e-09
2.4389735e-12
2.0180056e-09
-2.3596558e-12
2.0178792e-09
2.2884468e-12
2.0180021e-09
-2.2257979e-12
2.0178823e-09
2.1712991e-12
2.0179991e-09
-2.1211859e-12
2.0178835e-09
2.08855e-12
2.0179954e-09
-2.0510646e-12
2.0178906e-09
1.9565552e-12
2.0180439e-09
-2.3971658e-12
1.8408427e-12
2.0609164e-09
2.1302723e-08
2.2563947e-09
-1.4009879e-09
2.1748059e-09
1.1002817e-09
2.1775928e-09
-3.574501e-11
2.1804483e-09
1.0101643e-11
2.1793179e-09
3.1983965e-11
2.1777367e-09
8.8357975e-12
2.1779388e-09
1.1247825e-11
2.1781591e-09
-9.8806272e-12
2.177867e-09
1.1017694e-11
2.1783309e-09
-1.1077717e-11
2.1778529e-09
1.0919075e-11
2.1782987e-09
-1.0177712e-11
2.1778539e-09
9.8033314e-12
2.1782604e-09
-9.1320605e-12
2.177868e-09
8.6813175e-12
2.1782334e-09
-8.1467979e-12
2.1778858e-09
7.706966e-12
2.1782125e-09
-7.260437e-12
2.1779033e-09
6.8593553e-12
2.1781951e-09
-6.474607e-12
2.1779193e-09
6.1174613e-12
2.17818e-09
-5.7817995e-12
2.1779336e-09
5.4667812e-12
2.1781668e-09
-5.1729221e-12
2.1779461e-09
4.8964219e-12
2.1781553e-09
-4.6393033e-12
2.1779571e-09
4.3975499e-12
2.1781452e-09
-4.1731913e-12
2.1779666e-09
3.9627162e-12
2.1781365e-09
-3.767796e-12
2.1779749e-09
3.5855326e-12
2.1781289e-09
-3.4172125e-12
2.177982e-09
3.2604896e-12
2.1781224e-09
-3.1163284e-12
2.1779881e-09
2.9828392e-12
2.178117e-09
-2.8607393e-12
2.1779931e-09
2.7485059e-12
2.1781124e-09
-2.6466744e-12
2.1779974e-09
2.5540034e-12
2.1781086e-09
-2.4709416e-12
2.1780008e-09
2.3963206e-12
2.1781057e-09
-2.3307038e-12
2.1780034e-09
2.2735602e-12
2.178103e-09
-2.2208124e-12
2.1780043e-09
2.1872683e-12
2.1780995e-09
-2.1462535e-12
2.1780106e-09
2.0455007e-12
2.1781453e-09
-2.5318599e-12
1.9111676e-12
2.2162271e-09
2.2034746e-08
2.3919056e-09
-1.5766664e-09
2.3266539e-09
1.1655335e-09
2.3309209e-09
-4.0012019e-11
2.3337091e-09
7.3134067e-12
2.3335896e-09
3.210346e-11
2.3320815e-09
1.0343925e-11
2.3325549e-09
1.0774413e-11
2.3326699e-09
-9.9955851e-12
2.3324991e-09
1.1188502e-11
2.3328774e-09
-1.1455999e-11
2.3324843e-09
1.1312135e-11
2.332852e-09
-1.0545387e-11
2.3324812e-09
1.0174094e-11
2.3328179e-09
-9.4686955e-12
2.3324914e-09
9.0077731e-12
2.3327946e-09
-8.4500064e-12
2.3325057e-09
7.9959019e-12
2.332777e-09
-7.5317579e-12
2.3325201e-09
7.1162778e-12
2.3327624e-09
-6.716953e-12
2.3325333e-09
6.3465385e-12
2.3327499e-09
-5.9983333e-12
2.3325452e-09
5.6714706e-12
2.3327389e-09
-5.3666735e-12
2.3325556e-09
5.079738e-12
2.3327294e-09
-4.8130571e-12
2.3325647e-09
4.5621738e-12
2.332721e-09
-4.3294716e-12
2.3325727e-09
4.1110518e-12
2.3327138e-09
-3.9088819e-12
2.3325796e-09
3.7197443e-12
2.3327075e-09
-3.5451628e-12
2.3325855e-09
3.3825336e-12
2.3327022e-09
-3.2330081e-12
2.3325905e-09
3.0944904e-12
2.3326976e-09
-2.9678444e-12
2.3325947e-09
2.8513821e-12
2.3326938e-09
-2.7457536e-12
2.3325982e-09
2.6495842e-12
2.3326907e-09
-2.5634159e-12
2.3326011e-09
2.4859534e-12
2.3326882e-09
-2.417874e-12
2.3326033e-09
2.3585172e-12
2.332686e-09
-2.3035365e-12
2.3326039e-09
2.269387e-12
2.3326826e-09
-2.2250038e-12
2.3326092e-09
2.1189037e-12
2.332725e-09
-2.6476657e-12
1.9650689e-12
2.3342326e-09
2.2648764e-08
2.5187132e-09
-1.7611471e-09
2.4730631e-09
1.2111836e-09
2.4790599e-09
-4.6008812e-11
2.4814524e-09
4.9209276e-12
2.4823464e-09
3.1209504e-11
2.4809168e-09
1.1773477e-11
2.4816554e-09
1.0035839e-11
2.4816629e-09
-1.0003089e-11
2.4816091e-09
1.1242293e-11
2.4819034e-09
-1.1750251e-11
2.4815935e-09
1.1621949e-11
2.4818847e-09
-1.0836497e-11
2.4815867e-09
1.0472013e-11
2.4818547e-09
-9.7366845e-12
2.4815931e-09
9.2694024e-12
2.4818352e-09
-8.6920732e-12
2.4816039e-09
8.2271338e-12
2.4818208e-09
-7.7486089e-12
2.4816153e-09
7.321775e-12
2.481809e-09
-6.9107216e-12
2.4816259e-09
6.5297243e-12
2.481799e-09
-6.1714832e-12
2.4816353e-09
5.8351401e-12
2.4817903e-09
-5.5216091e-12
2.4816437e-09
5.226313e-12
2.4817827e-09
-4.952002e-12
2.481651e-09
4.6938037e-12
2.481776e-09
-4.4544453e-12
2.4816574e-09
4.2296617e-12
2.4817702e-09
-4.0217087e-12
2.4816629e-09
3.8270667e-12
2.4817652e-09
-3.6474908e-12
2.4816676e-09
3.4801336e-12
2.4817609e-09
-3.3263295e-12
2.4816716e-09
3.1837874e-12
2.4817573e-09
-3.0535152e-12
2.481675e-09
2.9336688e-12
2.4817543e-09
-2.825011e-12
2.4816778e-09
2.7260413e-12
2.4817518e-09
-2.637393e-12
2.4816801e-09
2.5576514e-12
2.4817498e-09
-2.4876063e-12
2.4816819e-09
2.4264621e-12
2.481748e-09
-2.3696509e-12
2.4816822e-09
2.3351766e-12
2.4817448e-09
-2.2876346e-12
2.4816867e-09
2.1770938e-12
2.4817834e-09
-2.7443863e-12
2.0033108e-12
2.4800824e-09
2.3116931e-08
2.6422173e-09
-1.923282e-09
2.6139684e-09
1.2394326e-09
2.6212163e-09
-5.3256793e-11
2.6237738e-09
2.3634956e-12
2.6255816e-09
2.9401685e-11
2.6242426e-09
1.3112474e-11
2.6252418e-09
9.0366185e-12
2.6251397e-09
-9.900934e-12
2.6251978e-09
1.118417e-11
2.6254094e-09
-1.1961829e-11
2.6251807e-09
1.1850644e-11
2.6253969e-09
-1.1052692e-11
2.6251703e-09
1.0698559e-11
2.6253711e-09
-9.9374743e-12
2.625173e-09
9.4675053e-12
2.6253552e-09
-8.8742616e-12
2.6251805e-09
8.4018298e-12
2.625344e-09
-7.9121048e-12
2.6251889e-09
7.4768946e-12
2.6253351e-09
-7.0569048e-12
2.6251968e-09
6.6679573e-12
2.6253275e-09
-6.3021362e-12
2.625204e-09
5.9586309e-12
2.6253209e-09
-5.6385237e-12
2.6252103e-09
5.3369018e-12
2.6253152e-09
-5.0568516e-12
2.6252159e-09
4.7931179e-12
2.6253102e-09
-4.5487547e-12
2.6252207e-09
4.319157e-12
2.6253058e-09
-4.1068564e-12
2.6252248e-09
3.9080523e-12
2.6253021e-09
-3.7247219e-12
2.6252284e-09
3.5537914e-12
2.6252988e-09
-3.3967709e-12
2.6252314e-09
3.2511884e-12
2.6252961e-09
-3.1181903e-12
2.625234e-09
2.9957875e-12
2.6252938e-09
-2.8848518e-12
2.6252361e-09
2.7837659e-12
2.625292e-09
-2.693251e-12
2.6252378e-09
2.6117818e-12
2.6252905e-09
-2.5402576e-12
2.6252392e-09
2.4777447e-12
2.6252891e-09
-2.419503e-12
2.6252393e-09
2.3849625e-12
2.6252862e-09
-2.3345167e-12
2.6252428e-09
2.2204392e-12
2.6253204e-09
-2.8219602e-12
2.0267118e-12
2.5969958e-09
2.3468185e-08
2.7598261e-09
-2.0861124e-09
2.7498364e-09
1.2494223e-09
2.7569868e-09
-6.0407182e-11
2.7607468e-09
-1.3965141e-12
2.7632932e-09
2.6855249e-11
2.7620651e-09
1.4340587e-11
2.7633169e-09
7.7848566e-12
2.7631022e-09
-9.6862418e-12
2.7632662e-09
1.1020191e-11
2.7633961e-09
-1.2091721e-11
2.7632459e-09
1.2000796e-11
2.7633889e-09
-1.119569e-11
2.763232e-09
1.0855485e-11
2.7633672e-09
-1.0072676e-11
2.7632311e-09
9.6036022e-12
2.7633548e-09
-8.9980115e-12
2.7632353e-09
8.5213453e-12
2.7633467e-09
-8.0235278e-12
2.7632408e-09
7.5828484e-12
2.7633405e-09
-7.156647e-12
2.7632462e-09
6.7623218e-12
2.7633353e-09
-6.3913159e-12
2.7632511e-09
6.0429139e-12
2.7633309e-09
-5.7183345e-12
2.7632554e-09
5.4123747e-12
2.763327e-09
-5.1284291e-12
2.7632592e-09
4.8608981e-12
2.7633236e-09
-4.6131401e-12
2.7632625e-09
4.3802418e-12
2.7633206e-09
-4.1649928e-12
2.7632653e-09
3.9633373e-12
2.7633181e-09
-3.7774611e-12
2.7632678e-09
3.6040845e-12
2.7633159e-09
-3.4448833e-12
2.7632699e-09
3.2972208e-12
2.7633141e-09
-3.1623744e-12
2.7632716e-09
3.0382231e-12
2.7633125e-09
-2.9257419e-12
2.7632731e-09
2.8232077e-12
2.7633112e-09
-2.7314243e-12
2.7632743e-09
2.6487665e-12
2.7633102e-09
-2.5762376e-12
2.7632752e-09
2.5127662e-12
2.7633092e-09
-2.4534894e-12
2.763275e-09
2.4191192e-12
2.7633066e-09
-2.3660668e-12
2.7632777e-09
2.2493437e-12
2.7633362e-09
-2.8804493e-12
2.0361253e-12
2.7362309e-09
2.3680205e-08
2.8761187e-09
-2.2260001e-09
2.8807812e-09
1.2447599e-09
2.8867928e-09
-6.6418786e-11
2.8923659e-09
-6.9696393e-12
2.8954775e-09
2.3743639e-11
2.8943897e-09
1.5428421e-11
2.8958759e-09
6.2986238e-12
2.8955483e-09
-9.3585895e-12
2.8958127e-09
1.0755764e-11
2.8958626e-09
-1.2141616e-11
2.8957886e-09
1.2074771e-11
2.8958605e-09
-1.1267635e-11
2.8957714e-09
1.0944603e-11
2.8958429e-09
-1.0144158e-11
2.8957672e-09
9.6793511e-12
2.8958341e-09
-9.0649538e-12
2.8957683e-09
8.5871846e-12
2.8958291e-09
-8.0843183e-12
2.8957709e-09
7.6409885e-12
2.8958255e-09
-7.2112306e-12
2.8957738e-09
6.814029e-12
2.8958226e-09
-6.4401677e-12
2.8957765e-09
6.0890736e-12
2.8958202e-09
-5.7620666e-12
2.8957789e-09
5.4537038e-12
2.8958181e-09
-5.167654e-12
2.895781e-09
4.8980172e-12
2.8958163e-09
-4.6484283e-12
2.8957828e-09
4.4137018e-12
2.8958147e-09
-4.1968636e-12
2.8957844e-09
3.9936318e-12
2.8958133e-09
-3.8063838e-12
2.8957857e-09
3.6316575e-12
2.8958121e-09
-3.4712815e-12
2.8957869e-09
3.322473e-12
2.8958111e-09
-3.1866306e-12
2.8957879e-09
3.0615166e-12
2.8958103e-09
-2.9482014e-12
2.8957887e-09
2.8448683e-12
2.8958096e-09
-2.7523976e-12
2.8957893e-09
2.6690757e-12
2.8958091e-09
-2.5960028e-12
2.8957899e-09
2.5319735e-12
2.8958084e-09
-2.4720501e-12
2.8957895e-09
2.4380652e-12
2.8958062e-09
-2.3827409e-12
2.8957913e-09
2.2642428e-12
2.8958308e-09
-2.9200267e-12
2.0324224e-12
2.8529514e-09
2.3775503e-08
2.9863495e-09
-2.3593983e-09
3.0068299e-09
1.2242796e-09
3.0116299e-09
-7.1218871e-11
3.0187737e-09
-1.4113412e-11
3.0221838e-09
2.0333584e-11
3.0212501e-09
1.6362143e-11
3.0229218e-09
4.6268742e-12
3.0224799e-09
-8.9167073e-12
3.0228379e-09
1.0397817e-11
3.0228091e-09
-1.2112874e-11
3.0228087e-09
1.2075217e-11
3.0228119e-09
-1.1270829e-11
3.0227886e-09
1.0967889e-11
3.0227984e-09
-1.0153964e-11
3.0227812e-09
9.6965649e-12
3.0227931e-09
-9.0768714e-12
3.0227793e-09
8.6009927e-12
3.022791e-09
-8.0960515e-12
3.0227792e-09
7.6527931e-12
3.02279e-09
-7.2220569e-12
3.0227797e-09
6.8244025e-12
3.0227894e-09
-6.449943e-12
3.0227802e-09
6.0982946e-12
3.022789e-09
-5.7708399e-12
3.0227807e-09
5.4619502e-12
3.0227886e-09
-5.1755302e-12
3.0227812e-09
4.9054277e-12
3.0227883e-09
-4.6555218e-12
3.0227816e-09
4.4203947e-12
3.022788e-09
-4.2032829e-12
3.022782e-09
3.9997107e-12
3.0227878e-09
-3.8122272e-12
3.0227822e-09
3.6372138e-12
3.0227876e-09
-3.4766364e-12
3.0227825e-09
3.3275871e-12
3.0227874e-09
-3.1915737e-12
3.0227827e-09
3.0662583e-12
3.0227873e-09
-2.9527977e-12
3.0227829e-09
2.8492952e-12
3.0227872e-09
-2.7566996e-12
3.022783e-09
2.6732222e-12
3.0227871e-09
-2.6000514e-12
3.0227832e-09
2.5358534e-12
3.0227868e-09
-2.4756633e-12
3.0227826e-09
2.4422578e-12
3.0227849e-09
-2.3850295e-12
3.0227835e-09
2.2656004e-12
3.0228045e-09
-2.9409661e-12
2.0164783e-12
2.9860143e-09
2.3737739e-08
3.0945407e-09
-2.4679247e-09
3.1276566e-09
1.1911637e-09
3.1321955e-09
-7.5757775e-11
3.1400515e-09
-2.1969449e-11
3.1434516e-09
1.6933522e-11
3.1426807e-09
1.7133093e-11
3.1444562e-09
2.8513426e-12
3.1439e-09
-8.3605331e-12
3.1443431e-09
9.9547729e-12
3.1442364e-09
-1.2006208e-11
3.1443063e-09
1.2005271e-11
3.1442431e-09
-1.1207578e-11
3.1442834e-09
1.0927543e-11
3.1442337e-09
-1.0104247e-11
3.1442731e-09
9.657211e-12
3.1442319e-09
-9.0356715e-12
3.1442683e-09
8.5645415e-12
3.1442327e-09
-8.0604181e-12
3.1442656e-09
7.6198507e-12
3.1442342e-09
-7.1906314e-12
3.1442637e-09
6.7948635e-12
3.1442358e-09
-6.4219856e-12
3.1442622e-09
6.0718483e-12
3.1442372e-09
-5.7458563e-12
3.1442609e-09
5.4382528e-12
3.1442386e-09
-5.1531353e-12
3.1442598e-09
4.8841519e-12
3.1442397e-09
-4.6353892e-12
3.1442588e-09
4.4012406e-12
3.1442407e-09
-4.1851241e-12
3.144258e-09
3.9824053e-12
3.1442416e-09
-3.7957823e-12
3.1442573e-09
3.6215081e-12
3.1442423e-09
-3.4616683e-12
3.1442566e-09
3.3132523e-12
3.1442429e-09
-3.1778634e-12
3.1442561e-09
3.0530817e-12
3.1442434e-09
-2.9401399e-12
3.1442557e-09
2.8370756e-12
3.1442438e-09
-2.7448977e-12
3.1442553e-09
2.6617564e-12
3.1442442e-09
-2.5889175e-12
3.1442551e-09
2.5249285e-12
3.1442443e-09
-2.4648411e-12
3.1442544e-09
2.4321889e-12
3.1442428e-09
-2.3734525e-12
3.1442545e-09
2.2539056e-12
3.1442571e-09
-2.9436317e-12
1.9891606e-12
3.1024171e-09
2.3583572e-08
3.1963883e-09
-2.5618959e-09
3.2432428e-09
1.1443092e-09
3.2481711e-09
-8.0686066e-11
3.2560261e-09
-2.9824481e-11
3.2592472e-09
1.3712414e-11
3.2586775e-09
1.7702807e-11
3.2604662e-09
1.0626202e-12
3.2598051e-09
-7.699355e-12
3.2603271e-09
9.4327638e-12
3.2601439e-09
-1.1823073e-11
3.2602813e-09
1.1867923e-11
3.2601541e-09
-1.1080445e-11
3.2602558e-09
1.0825847e-11
3.2601489e-09
-9.9973201e-12
3.2602428e-09
9.5633654e-12
3.2601505e-09
-8.9433834e-12
3.2602353e-09
8.4797066e-12
3.2601541e-09
-7.979213e-12
3.2602301e-09
7.5438439e-12
3.260158e-09
-7.1185502e-12
3.260226e-09
6.7269172e-12
3.2601617e-09
-6.3577195e-12
3.2602225e-09
6.0110812e-12
3.260165e-09
-5.6883894e-12
3.2602194e-09
5.3838175e-12
3.2601679e-09
-5.1016109e-12
3.2602168e-09
4.8352722e-12
3.2601705e-09
-4.5890564e-12
3.2602145e-09
4.3572138e-12
3.2601727e-09
-4.1433126e-12
3.2602125e-09
3.9425962e-12
3.2601746e-09
-3.7578873e-12
3.2602108e-09
3.5853397e-12
3.2601762e-09
-3.4271402e-12
3.2602093e-09
3.2801984e-12
3.2601776e-09
-3.1461988e-12
3.260208e-09
3.0226581e-12
3.2601788e-09
-2.9108734e-12
3.260207e-09
2.8088319e-12
3.2601797e-09
-2.7175933e-12
3.2602062e-09
2.6352612e-12
3.2601805e-09
-2.5631673e-12
3.2602056e-09
2.4997518e-12
3.2601809e-09
-2.4401245e-12
3.2602047e-09
2.4083806e-12
3.2601798e-09
-2.3485548e-12
3.2602041e-09
2.2296698e-12
3.2601889e-09
-2.928469e-12
1.9513204e-12
3.2287027e-09
2.3303119e-08
3.2970773e-09
-2.6302706e-09
3.3538776e-09
1.0875089e-09
3.3591824e-09
-8.5990872e-11
3.3665719e-09
-3.7213894e-11
3.3695604e-09
1.0723838e-11
3.3692267e-09
1.8036519e-11
3.370942e-09
-6.5269048e-13
3.3701922e-09
-6.9495385e-12
3.3707894e-09
8.8356098e-12
3.3705317e-09
-1.1565384e-11
3.3707335e-09
1.1666143e-11
3.3705452e-09
-1.0892129e-11
3.3707058e-09
1.0665207e-11
3.3705441e-09
-9.8355927e-12
3.3706902e-09
9.4172191e-12
3.370549e-09
-8.8021286e-12
3.3706802e-09
8.3484599e-12
3.3705553e-09
-7.8543157e-12
3.3706726e-09
7.4265381e-12
3.3705615e-09
-7.0074861e-12
3.3706663e-09
6.622142e-12
3.3705672e-09
-6.2586374e-12
3.3706609e-09
5.9174044e-12
3.3705723e-09
-5.5997737e-12
3.3706562e-09
5.299908e-12
3.3705767e-09
-5.0221531e-12
3.3706521e-09
4.7599227e-12
3.3705806e-09
-4.5175986e-12
3.3706485e-09
4.2893355e-12
3.370584e-09
-4.0788179e-12
3.3706454e-09
3.881206e-12
3.3705869e-09
-3.6994204e-12
3.3706427e-09
3.5295466e-12
3.3705895e-09
-3.3738517e-12
3.3706405e-09
3.2291906e-12
3.3705916e-09
-3.0973127e-12
3.3706385e-09
2.9756912e-12