/*--------------------------------*- C++ -*----------------------------------*\
| =========                 |                                                 |
| \\      /  F ield         | OpenFOAM: The Open Source CFD Toolbox           |
|  \\    /   O peration     | Version:  2312                                  |
|   \\  /    A nd           | Website:  www.openfoam.com                      |
|    \\/     M anipulation  |                                                 |
\*---------------------------------------------------------------------------*/
FoamFile
{
    version     2.0;
    format      ascii;
    arch        "LSB;label=32;scalar=64";
    class       volScalarField;
    location    "6";
    object      T;
}
// * * * * * * * * * * * * * * * * * * * * * * * * * * * * * * * * * * * * * //

dimensions      [0 0 0 1 0 0 0];

internalField   nonuniform List<scalar> 
4000
(
310.51926
311.79578
311.99455
312.07674
312.13479
312.18903
312.2307
312.27493
312.30994
312.34939
312.38131
312.4179
312.44806
312.48274
312.51177
312.5451
312.57335
312.60567
312.63338
312.66492
312.69221
312.72314
312.75011
312.78055
312.80727
312.83731
312.86381
312.89354
312.91985
312.94931
312.97547
313.00471
313.03072
313.05979
313.08566
313.11459
313.14032
313.16915
313.19475
313.2235
313.24896
313.27766
313.30298
313.33167
313.35683
313.38555
313.41049
313.43936
313.4639
313.49353
308.30599
310.50203
311.03908
311.23367
311.35565
311.46626
311.53928
311.61986
311.67293
311.73919
311.78298
311.84071
311.87919
311.9312
311.9663
312.01424
312.04703
312.09194
312.12307
312.16566
312.19555
312.23631
312.26524
312.30454
312.33269
312.37081
312.39831
312.43546
312.46241
312.49878
312.52523
312.56096
312.58697
312.62217
312.64777
312.68255
312.70775
312.74221
312.76701
312.80124
312.82564
312.85972
312.88369
312.91774
312.94121
312.97537
312.99819
313.03276
313.05439
313.09116
306.897
309.24825
310.09073
310.39478
310.57955
310.74571
310.84991
310.96642
311.03753
311.13033
311.18603
311.26468
311.31155
311.38072
311.42195
311.48437
311.52175
311.57915
311.61375
311.6673
311.69983
311.75035
311.78127
311.82936
311.85898
311.90512
311.93365
311.97819
312.0058
312.04902
312.07582
312.11797
312.14402
312.18531
312.21066
312.25126
312.27595
312.31601
312.34004
312.37972
312.40307
312.44252
312.46515
312.50453
312.52633
312.5659
312.58662
312.62688
312.64564
312.68927
305.94119
308.07209
309.16118
309.56637
309.8109
310.03058
310.16529
310.31674
310.40574
310.52445
310.59204
310.69116
310.74646
310.83245
310.87988
310.95651
310.99854
311.06821
311.10636
311.17069
311.20592
311.26604
311.29902
311.35577
311.38692
311.44095
311.47058
311.52239
311.55071
311.60071
311.62788
311.6764
311.70252
311.74983
311.77498
311.82133
311.84554
311.89115
311.91443
311.95951
311.98185
312.0266
312.04792
312.09259
312.11276
312.15769
312.17636
312.22223
312.23821
312.28828
305.2628
307.00566
308.26561
308.75713
309.05575
309.32534
309.48909
309.6738
309.78019
309.92377
310.00308
310.12196
310.18564
310.28791
310.34154
310.43197
310.4787
310.5603
310.60205
310.67687
310.71487
310.78436
310.81944
310.88466
310.91739
310.97916
311.00992
311.06887
311.09795
311.15459
311.18218
311.23694
311.26318
311.31641
311.3414
311.39341
311.41718
311.46825
311.49084
311.54123
311.56259
311.61258
311.63264
311.68252
311.70111
311.7513
311.76799
311.81935
311.83272
311.88873
304.76662
306.07271
307.42033
307.97743
308.32151
308.63551
308.82581
309.04125
309.1641
309.33104
309.42165
309.55925
309.63112
309.74891
309.80868
309.9123
309.96372
310.05678
310.10215
310.18708
310.22788
310.30641
310.34366
310.41706
310.45143
310.52068
310.55264
310.61851
310.6484
310.7115
310.73957
310.80041
310.82682
310.88583
310.91069
310.96823
310.99162
311.04803
311.06996
311.12555
311.146
311.20109
311.21996
311.27493
311.29201
311.34734
311.36214
311.41882
311.42981
311.49122
304.39493
305.2847
306.64055
307.23832
307.61635
307.96738
308.18058
308.42333
308.56116
308.74943
308.85062
309.00556
309.08525
309.21756
309.28326
309.39932
309.45532
309.55923
309.60817
309.70272
309.74632
309.83348
309.87289
309.95413
309.99015
310.0666
310.09978
310.17232
310.20306
310.27239
310.30097
310.36768
310.39431
310.4589
310.4837
310.54659
310.56965
310.63123
310.65257
310.7132
310.73279
310.79285
310.81059
310.87049
310.88615
310.94646
310.9595
311.02127
311.03015
311.0964
304.11203
304.64385
305.93846
306.55049
306.94866
307.3276
307.55891
307.82467
307.9754
308.18245
308.29314
308.4637
308.55061
308.69618
308.76747
308.89501
308.95539
309.06939
309.12179
309.22533
309.27166
309.36694
309.40849
309.49714
309.53481
309.61808
309.65249
309.73136
309.76297
309.83825
309.86738
309.93971
309.96658
310.03652
310.0613
310.12933
310.1521
310.21866
310.23946
310.30495
310.32375
310.38859
310.40528
310.46993
310.48426
310.54933
310.56076
310.62733
310.6344
310.70498
303.89297
304.14184
305.32194
305.9231
306.32633
306.72279
306.96638
307.25005
307.41102
307.63378
307.75254
307.93666
308.02993
308.18727
308.26362
308.4015
308.46593
308.58913
308.64476
308.75658
308.80549
308.90829
308.95189
309.04744
309.08669
309.17635
309.21196
309.2968
309.32927
309.41015
309.43983
309.51748
309.54462
309.61964
309.64442
309.71735
309.73986
309.81117
309.83147
309.9016
309.91967
309.98907
310.00479
310.07396
310.08708
310.15666
310.16665
310.23769
310.24327
310.31767
303.72065
303.76422
304.79417
305.36286
305.75608
306.159
306.40835
306.70419
306.87222
307.10717
307.23221
307.42749
307.52603
307.69341
307.77412
307.92102
307.98902
308.12039
308.17894
308.29819
308.34947
308.45909
308.50458
308.60644
308.64719
308.74273
308.77947
308.86983
308.90311
308.98922
309.01942
309.10205
309.12944
309.20924
309.23403
309.31156
309.33386
309.40963
309.42949
309.50399
309.52139
309.59509
309.60993
309.68334
309.69538
309.76917
309.7779
309.85303
309.85743
309.93521
303.58255
303.49164
304.35371
304.87343
305.24291
305.64136
305.88957
306.19145
306.36294
306.60624
306.73543
306.93923
307.04171
307.21719
307.30137
307.45582
307.52679
307.66515
307.7262
307.85194
307.90528
308.02094
308.0681
308.17561
308.21769
308.31854
308.3563
308.45169
308.4857
308.5766
308.60727
308.69448
308.72212
308.80632
308.83112
308.91292
308.93501
309.01495
309.0344
309.11297
309.12976
309.20746
309.2215
309.29886
309.30994
309.3876
309.39526
309.47409
309.4776
309.55835
303.46953
303.30302
303.99516
304.45515
304.78975
305.17362
305.41389
305.7156
305.88671
306.13429
306.26529
306.47476
306.57964
306.76112
306.84773
307.00812
307.08132
307.2254
307.28841
307.4196
307.4746
307.59544
307.64399
307.75642
307.7996
307.90514
307.94376
308.04363
308.07826
308.17345
308.20453
308.29588
308.3237
308.41191
308.4367
308.5224
308.54429
308.62803
308.6471
308.7294
308.74564
308.82701
308.84034
308.9213
308.93154
309.01271
309.0195
309.1016
309.10447
309.18781
303.37505
303.1776
303.71009
304.10537
304.39729
304.75794
304.98403
305.2796
305.44645
305.69419
305.8245
306.03668
306.14228
306.32754
306.4154
306.58001
306.6546
306.80302
306.86737
307.00288
307.05909
307.18417
307.23375
307.3503
307.39433
307.50387
307.54314
307.64688
307.68198
307.78094
307.8123
307.90731
307.93524
308.02703
308.05176
308.14095
308.16263
308.24979
308.26849
308.35415
308.36988
308.45455
308.46726
308.55145
308.56097
308.64525
308.65134
308.73629
308.73873
308.82431
303.29424
303.0966
303.48825
303.81896
304.06396
304.39478
304.60137
304.88538
305.04428
305.2882
305.41529
305.62721
305.73176
305.91854
306.00637
306.17342
306.24845
306.39979
306.46476
306.60343
306.6603
306.78863
306.83882
306.95865
307.0032
307.11601
307.15568
307.26267
307.29804
307.40019
307.43169
307.52985
307.55779
307.65268
307.67729
307.76953
307.79096
307.88113
307.89946
307.98808
308.00334
308.09091
308.10306
308.19008
308.19901
308.28598
308.29153
308.37889
308.38107
308.46858
303.22381
303.04462
303.31869
303.589
303.78618
304.08287
304.26594
304.5338
304.68144
304.91786
305.03929
305.2481
305.3498
305.53587
305.62233
305.79003
305.86449
306.01728
306.08212
306.22272
306.27965
306.41021
306.46054
306.58278
306.62748
306.74279
306.78258
306.89212
306.92755
307.03229
307.06376
307.16452
307.19235
307.28982
307.31423
307.40905
307.43019
307.52291
307.54087
307.63202
307.64683
307.73688
307.74854
307.83796
307.84639
307.93563
307.94078
308.03014
308.03217
308.12129
303.16133
303.00975
303.19071
303.40755
303.55884
303.81945
303.97642
304.22459
304.35824
304.58393
304.69749
304.90053
304.99767
305.18085
305.26463
305.43121
305.50408
305.65687
305.72075
305.86206
305.91842
306.05016
306.10014
306.22387
306.26832
306.38534
306.42493
306.53633
306.57155
306.67824
306.7095
306.81227
306.83984
306.93938
306.96348
307.06038
307.08116
307.17598
307.19353
307.28675
307.30114
307.39322
307.40444
307.49582
307.50385
307.5949
307.59977
307.69071
307.69268
307.78311
303.10524
302.98377
303.09457
303.26632
303.37581
303.60054
303.7303
303.95641
304.07404
304.28635
304.39015
304.58507
304.67609
304.85439
304.93422
305.09799
305.16826
305.31962
305.38174
305.52255
305.57768
305.70956
305.75864
305.88296
305.92673
306.04466
306.0837
306.19624
306.23099
306.33899
306.3698
306.474
306.50115
306.60219
306.62587
306.72434
306.74469
306.8411
306.85822
306.95304
306.96699
307.06066
307.07147
307.16436
307.17205
307.26448
307.26915
307.36126
307.36322
307.45464
303.0544
302.96136
303.02193
303.15732
303.23049
303.42129
303.52413
303.72696
303.82734
304.02432
304.11688
304.30171
304.38523
304.55689
304.6316
304.79103
304.85773
305.00631
305.06588
305.20501
305.25827
305.38926
305.43692
305.56092
305.60358
305.72161
305.75974
305.87269
305.90668
306.01533
306.04548
306.15049
306.17704
306.27903
306.30216
306.40167
306.4215
306.519
306.53564
306.63158
306.64508
306.73985
306.75028
306.84422
306.85163
306.945
306.94953
307.04242
307.04439
307.13648
303.00808
302.93965
302.96599
303.07328
303.1163
303.27639
303.35378
303.53323
303.61589
303.79628
303.87659
304.04979
304.12475
304.28825
304.35686
304.51056
304.57281
304.71739
304.77365
304.91002
304.96077
305.0899
305.13561
305.25842
305.29952
305.41688
305.45374
305.56639
305.59932
305.70796
305.73721
305.84244
305.8682
305.97057
305.993
306.09301
306.11223
306.21032
306.22641
306.32298
306.33601
306.43142
306.44147
306.53601
306.54315
306.63704
306.64146
306.73473
306.73672
306.82916
302.96571
302.91737
302.92157
303.00799
303.02708
303.16043
303.21474
303.37164
303.43686
303.6001
303.66764
303.82816
303.89376
304.04793
304.10961
304.25642
304.31347
304.45295
304.50524
304.63785
304.68551
304.81187
304.85513
304.97593
305.01506
305.13097
305.16621
305.27787
305.30945
305.41744
305.44554
305.55039
305.57517
305.67737
305.69895
305.79894
305.81742
305.9156
305.93107
306.02779
306.04032
306.13589
306.14555
306.24024
306.24713
306.3411
306.34542
306.4387
306.44071
306.53316
302.92689
302.89428
302.88489
302.95638
302.95733
303.06821
303.10239
303.23832
303.28701
303.43318
303.48789
303.63515
303.69095
303.83493
303.8891
304.02809
304.07933
304.21279
304.26053
304.38849
304.43254
304.55531
304.59566
304.71369
304.75044
304.86421
304.89749
305.0075
305.03744
305.14417
305.17088
305.27478
305.29838
305.39986
305.42045
305.51989
305.53754
305.6353
305.65007
305.74646
305.75843
305.85371
305.86297
305.95736
305.964
306.05764
306.06186
306.15478
306.15678
306.24891
302.89127
302.87069
302.85336
302.91452
302.90239
302.99498
303.01228
303.12931
303.16287
303.2926
303.33488
303.46873
303.5146
303.64787
303.69417
303.82466
303.86964
303.99634
304.03908
304.16165
304.20166
304.32011
304.35716
304.47171
304.50575
304.61671
304.64773
304.75547
304.78351
304.88839
304.9135
305.01588
305.03814
305.13836
305.15781
305.25621
305.2729
305.36976
305.38376
305.47935
305.49072
305.58526
305.59407
305.68775
305.69411
305.78703
305.79112
305.88332
305.8853
305.97675
302.85858
302.84708
302.82533
302.87951
302.85845
302.93659
302.94025
303.04076
303.06094
303.1753
303.20589
303.32658
303.36271
303.48507
303.52339
303.64493
303.6834
303.80278
303.84019
303.95677
303.99239
304.10591
304.13934
304.24982
304.28083
304.38841
304.41688
304.52179
304.54769
304.65019
304.6735
304.77385
304.79458
304.89306
304.91123
305.00809
305.02373
305.11923
305.13237
305.22672
305.23742
305.3308
305.33913
305.43168
305.43774
305.52955
305.53349
305.62462
305.62654
305.71699
302.82856
302.82395
302.79981
302.84932
302.82258
302.88958
302.88266
302.96908
302.97782
303.07818
303.0981
303.20623
303.23305
303.34461
303.37503
303.48744
303.5193
303.63101
303.6629
303.77304
303.80404
303.91215
303.9417
304.0476
304.07534
304.17903
304.20474
304.30632
304.32988
304.42949
304.45082
304.54867
304.56772
304.66399
304.68075
304.77565
304.79012
304.88383
304.89604
304.98872
304.9987
305.0905
305.09831
305.18935
305.19507
305.28542
305.28916
305.37888
305.38073
305.46984
302.80096
302.80168
302.77624
302.82257
302.79255
302.85115
302.83638
302.91108
302.91034
302.99825
303.00873
303.10513
303.12331
303.22441
303.24725
303.35055
303.37587
303.47974
303.50604
303.60945
303.6357
303.73803
303.76354
303.86445
303.88875
303.98812
304.0109
304.10871
304.12977
304.22608
304.24528
304.34019
304.35744
304.45108
304.46633
304.55883
304.57206
304.66356
304.67477
304.7654
304.77459
304.86445
304.87168
304.96085
304.96619
305.05474
305.05826
305.14624
305.14799
305.23545
302.77557
302.78051
302.75434
302.79839
302.76679
302.81913
302.79881
302.86396
302.85565
302.93272
302.93508
303.02078
303.03114
303.12234
303.13805
303.23246
303.25147
303.34749
303.36829
303.46482
303.4863
303.5826
303.60399
303.69962
303.72037
303.81509
303.83481
303.9285
303.94694
304.03957
304.05652
304.14813
304.16347
304.25411
304.26775
304.3575
304.3694
304.45834
304.46847
304.55669
304.56505
304.65262
304.65923
304.74621
304.75112
304.83755
304.84081
304.92675
304.92837
305.01387
302.7522
302.76059
302.73399
302.77625
302.74421
302.79189
302.76791
302.8254
302.81128
302.87909
302.87468
302.95079
302.95426
303.03625
303.04544
303.13134
303.1444
303.23272
303.2482
303.33783
303.35462
303.44477
303.46205
303.55219
303.56936
303.65917
303.67578
303.76507
303.78081
303.86946
303.88409
303.97207
303.98544
304.07275
304.08472
304.17139
304.1819
304.26796
304.27695
304.36245
304.36992
304.45489
304.46084
304.54532
304.54976
304.63379
304.63676
304.72037
304.72186
304.80511
302.73068
302.74196
302.71512
302.75584
302.72409
302.76828
302.74208
302.79351
302.77512
302.83515
302.82526
302.89292
302.89049
302.96408
302.96742
303.04533
303.05289
303.13378
303.14423
303.22707
303.23934
303.32333
303.33658
303.42114
303.43475
303.5195
303.53299
303.61766
303.63069
303.71512
303.7274
303.8115
303.82284
303.90655
303.91681
304.00012
304.00919
304.09209
304.09992
304.18241
304.18896
304.27106
304.2763
304.35802
304.36197
304.44332
304.44597
304.527
304.52833
304.60907
302.71086
302.72461
302.69768
302.73698
302.70596
302.74746
302.72015
302.76679
302.74543
302.79901
302.78485
302.84519
302.83784
302.90386
302.90211
302.9726
302.9752
303.04905
303.05484
303.1311
303.1391
303.217
303.22639
303.30535
303.31551
303.3951
303.40553
303.48545
303.49578
303.57582
303.58575
303.66577
303.67508
303.75498
303.7635
303.84322
303.85084
303.93034
303.93698
304.01623
304.02182
304.10081
304.10533
304.18405
304.18747
304.26593
304.26824
304.34646
304.34762
304.42561
302.6926
302.7085
302.68166
302.7196
302.68954
302.72888
302.70124
302.7441
302.72084
302.76911
302.75176
302.80583
302.79449
302.8538
302.84771
302.91143
302.90965
302.97691
302.97847
303.04845
303.05248
303.12447
303.13022
303.20364
303.2105
303.28493
303.2924
303.36751
303.37521
303.45075
303.45837
303.53417
303.54147
303.61739
303.62419
303.70015
303.70631
303.78222
303.78765
303.86348
303.8681
303.94379
303.94756
304.02308
304.02596
304.10132
304.10327
304.17847
304.17946
304.2545
302.67582
302.69359
302.66702
302.70362
302.67466
302.71218
302.68474
302.72459
302.70027
302.74419
302.72457
302.77331
302.75885
302.81228
302.8026
302.86021
302.85466
302.91582
302.91363
302.97767
302.97811
303.04441
303.04679
303.11483
303.11858
303.18791
303.19256
303.26287
303.26803
303.33904
303.34441
303.41592
303.42125
303.4931
303.4982
303.57026
303.57498
303.64717
303.6514
303.72364
303.7273
303.79952
303.80254
303.87471
303.87704
303.94913
303.95072
304.02273
304.02354
304.09544
302.66042
302.67985
302.65373
302.68901
302.6612
302.69713
302.67024
302.70762
302.68287
302.72323
302.70212
302.74637
302.72957
302.77788
302.76532
302.81747
302.80874
302.86433
302.85888
302.91739
302.91462
302.97553
302.97485
303.03769
303.03857
303.10293
303.10495
303.1705
303.17329
303.23976
303.243
303.31018
303.31362
303.38133
303.38479
303.45288
303.4562
303.52457
303.52762
303.59617
303.59886
303.66751
303.66978
303.73847
303.74025
303.80894
303.81017
303.87885
303.87947
303.9481
302.64636
302.66724
302.64175
302.67576
302.6491
302.68357
302.65745
302.69276
302.66805
302.70545
302.68348
302.72394
302.70548
302.74936
302.73457
302.78189
302.77057
302.8211
302.81289
302.86629
302.86073
302.91657
302.91316
302.97104
302.96934
303.02889
303.02849
303.0894
303.08996
303.15197
303.1532
303.21607
303.21773
303.28129
303.28318
303.34727
303.34924
303.41373
303.41565
303.48043
303.4822
303.54719
303.54872
303.61385
303.61507
303.68028
303.68114
303.74639
303.74683
303.81208
302.63359
302.65577
302.63106
302.66384
302.63832
302.6714
302.64617
302.67968
302.65533
302.69025
302.66791
302.70516
302.68562
302.72569
302.70924
302.7523
302.73893
302.78493
302.77444
302.82316
302.81521
302.86634
302.86055
302.91375
302.90974
302.96469
302.96211
303.01853
303.01707
303.0747
303.07408
303.13271
303.13271
303.19215
303.19258
303.25266
303.25336
303.31396
303.31479
303.37579
303.37666
303.43795
303.43877
303.50027
303.50097
303.56262
303.56313
303.62488
303.62514
303.68692
302.62216
302.64547
302.62167
302.65322
302.62882
302.66055
302.63626
302.66815
302.64437
302.67717
302.65484
302.68936
302.6692
302.70599
302.68839
302.72772
302.71279
302.75473
302.74242
302.78687
302.77696
302.82372
302.81591
302.86472
302.8587
302.90929
302.90478
302.95689
302.95361
303.00702
303.00472
303.05921
303.05769
303.11308
303.11214
303.16827
303.16778
303.22451
303.22433
303.28154
303.28157
303.33915
303.3393
303.39716
303.39735
303.45541
303.45558
303.51379
303.51389
303.57216
302.61213
302.63638
302.61355
302.6439
302.62057
302.65096
302.62762
302.65801
302.63495
302.66587
302.64382
302.67598
302.65559
302.68953
302.67122
302.70727
302.69123
302.72956
302.71584
302.75645
302.74494
302.7877
302.77821
302.82294
302.81522
302.8617
302.85551
302.90353
302.89865
302.94799
302.9442
302.99468
302.99179
303.04323
303.04106
303.09331
303.09173
303.14465
303.14353
303.19699
303.19624
303.25013
303.24965
303.30387
303.30359
303.35807
303.35792
303.41258
303.41252
303.46727
302.60364
302.62855
302.6067
302.63583
302.61351
302.64258
302.62017
302.64913
302.62685
302.6561
302.63451
302.66461
302.64428
302.67574
302.65706
302.69024
302.67347
302.70859
302.69385
302.73098
302.71825
302.75736
302.74651
302.78746
302.77834
302.82097
302.81337
302.85752
302.85126
302.89674
302.89164
302.93827
302.93416
302.98179
302.97852
303.02699
303.02443
303.07362
303.07165
303.12143
303.11996
303.17021
303.16915
303.21979
303.21907
303.26999
303.26955
303.32068
303.32047
303.37172
302.59682
302.62202
302.60111
302.62898
302.6076
302.63534
302.61383
302.6414
302.61995
302.64764
302.62665
302.65492
302.63486
302.66414
302.64539
302.67603
302.65886
302.69112
302.67569
302.70971
302.69608
302.73186
302.71997
302.75745
302.74719
302.78625
302.77749
302.818
302.81059
302.8524
302.84619
302.88915
302.88399
302.92795
302.92371
302.96855
302.96511
303.01069
303.00796
303.05415
303.05203
303.09873
303.09715
303.14426
303.14314
303.19057
303.18986
303.23751
303.23717
303.28495
302.59182
302.61682
302.59672
302.62329
302.60278
302.62917
302.60852
302.63474
302.61411
302.64034
302.62003
302.64664
302.62701
302.65435
302.63575
302.66415
302.64683
302.67656
302.66073
302.69195
302.67771
302.71048
302.69782
302.73212
302.72099
302.75675
302.74706
302.78418
302.77583
302.81419
302.80705
302.84653
302.84048
302.88096
302.87589
302.91723
302.91304
302.95513
302.95174
302.99446
302.99177
303.03502
303.03298
303.07665
303.07518
303.11918
303.11824
303.16248
303.16202
303.20641
302.5886
302.61288
302.59345
302.61868
302.59895
302.624
302.60417
302.62905
302.60923
302.63408
302.61449
302.63956
302.62049
302.64607
302.62779
302.65419
302.63695
302.6644
302.64842
302.67712
302.66253
302.69256
302.67939
302.71079
302.69903
302.73175
302.72135
302.75533
302.74623
302.78137
302.77348
302.80969
302.80291
302.84007
302.83431
302.87232
302.8675
302.90625
302.90229
302.94167
302.9385
302.97841
302.97597
303.01631
303.01454
303.05522
303.05407
303.095
303.09444
303.13553
302.587
302.61008
302.59121
302.61504
302.59602
302.61974
302.60067
302.62424
302.60522
302.62872
302.60989
302.63352
302.61508
302.63906
302.62123
302.64581
302.62883
302.65424
302.63831
302.66474
302.65
302.67757
302.66411
302.69285
302.68068
302.7106
302.69971
302.73077
302.72112
302.75326
302.74479
302.77793
302.77057
302.80461
302.7983
302.83315
302.82781
302.86338
302.85895
302.89514
302.89157
302.92828
302.9255
302.96265
302.96061
302.9981
302.99677
303.0345
303.03385
303.07175
302.58666
302.60824
302.58982
302.61224
302.59389
302.61628
302.59795
302.62022
302.60198
302.62419
302.60611
302.62838
302.61061
302.63311
302.61583
302.63876
302.62216
302.64572
302.63
302.65438
302.63969
302.66502
302.65145
302.67778
302.66539
302.69275
302.68154
302.70992
302.69989
302.72924
302.72036
302.75063
302.74284
302.77395
302.76721
302.79909
302.79334
302.8259
302.8211
302.85426
302.85035
302.88401
302.88095
302.91504
302.91279
302.94722
302.94574
302.98041
302.97968
303.01452
302.58715
302.60714
302.58914
302.61017
302.59244
302.61352
302.59589
302.61691
302.59941
302.62037
302.60304
302.62401
302.60695
302.62806
302.61139
302.6328
302.61668
302.63857
302.62318
302.64571
302.6312
302.6545
302.64099
302.66512
302.65267
302.67768
302.66633
302.69223
302.68198
302.70876
302.6996
302.72721
302.71912
302.7475
302.74045
302.76953
302.76348
302.79321
302.78812
302.81842
302.81425
302.84503
302.84175
302.87294
302.87052
302.90202
302.90043
302.93218
302.93139
302.9633
302.58807
302.60655
302.58899
302.60867
302.59155
302.61136
302.59442
302.6142
302.59744
302.61718
302.60059
302.62032
302.60397
302.62378
302.60776
302.62776
302.6122
302.63254
302.61759
302.63842
302.62423
302.64567
302.63234
302.65448
302.6421
302.66498
302.6536
302.67724
302.66691
302.69131
302.68201
302.70715
302.69888
302.72472
302.71747
302.74395
302.73769
302.76477
302.75947
302.78708
302.78272
302.81078
302.80734
302.83578
302.83323
302.86198
302.8603
302.88927
302.88844
302.91757
302.58911
302.60628
302.58922
302.60762
302.59111
302.60969
302.59343
302.61202
302.59597
302.61453
302.59867
302.61722
302.60158
302.62016
302.6048
302.62349
302.60852
302.62745
302.613
302.63228
302.61848
302.63823
302.6252
302.64551
302.63333
302.65424
302.64298
302.66454
302.65423
302.67645
302.66713
302.68999
302.68165
302.70514
302.69778
302.72184
302.71546
302.74006
302.73464
302.75973
302.75525
302.78076
302.77721
302.80307
302.80043
302.82658
302.82483
302.8512
302.85033
302.87684
302.5901
302.60618
302.58969
302.6069
302.59101
302.60843
302.59283
302.61028
302.59492
302.61236
302.59721
302.61461
302.59968
302.61709
302.60241
302.61987
302.60552
302.62312
302.60923
302.62708
302.61375
302.63195
302.6193
302.63793
302.62603
302.64516
302.6341
302.65376
302.64358
302.6638
302.65454
302.67531
302.66699
302.68831
302.68093
302.70276
302.69633
302.71864
302.71316
302.7359
302.73136
302.75449
302.75088
302.77433
302.77163
302.79535
302.79356
302.81747
302.81659
302.84064
302.59098
302.60614
302.5903
302.60642
302.59116
302.60747
302.59254
302.6089
302.59422
302.61057
302.59612
302.61243
302.59819
302.61448
302.60048
302.61677
302.60307
302.61943
302.60612
302.62265
302.60983
302.62661
302.61439
302.6315
302.61996
302.63745
302.62667
302.64459
302.63463
302.65301
302.6439
302.66275
302.65453
302.67384
302.66653
302.68629
302.67989
302.70007
302.6946
302.71516
302.71062
302.73152
302.7279
302.7491
302.74639
302.76783
302.76603
302.78766
302.78676
302.80852
302.59173
302.60612
302.59097
302.60608
302.59147
302.60676
302.59248
302.60781
302.5938
302.60911
302.59534
302.6106
302.59704
302.61226
302.59893
302.61412
302.60106
302.61626
302.60355
302.61885
302.60658
302.62205
302.61031
302.62601
302.61488
302.63088
302.62044
302.63677
302.62708
302.64378
302.63489
302.65198
302.64393
302.66141
302.65421
302.67207
302.66576
302.68398
302.67857
302.69712
302.69261
302.71147
302.70787
302.72699
302.72429
302.74362
302.74183
302.76133
302.76043
302.78005
302.59238
302.60607
302.59164
302.60584
302.5919
302.60621
302.5926
302.60694
302.59359
302.60791
302.5948
302.60906
302.59616
302.61036
302.59768
302.61182
302.5994
302.61352
302.60141
302.61557
302.60386
302.61811
302.60688
302.62129
302.61061
302.62523
302.61518
302.63005
302.62069
302.63586
302.62725
302.64272
302.63489
302.65069
302.64367
302.65978
302.65361
302.67003
302.66472
302.68143
302.67699
302.69397
302.69041
302.70762
302.70495
302.72234
302.72056
302.7381
302.73722
302.75487
302.59294
302.60599
302.5923
302.60565
302.59238
302.60578
302.59283
302.60624
302.59354
302.60691
302.59444
302.60774
302.59549
302.60871
302.59668
302.60982
302.59802
302.61111
302.59961
302.61269
302.60155
302.61467
302.60397
302.61718
302.60698
302.62034
302.61071
302.62425
302.61526
302.62903
302.62072
302.63473
302.62716
302.64142
302.63462
302.64914
302.64314
302.65792
302.65275
302.66777
302.66344
302.67868
302.67521
302.69064
302.68803
302.70364
302.7019
302.71763
302.71676
302.7326
302.59343
302.60588
302.59291
302.60547
302.59288
302.60543
302.59313
302.60566
302.59359
302.60606
302.59422
302.60661
302.59497
302.60726
302.59584
302.60804
302.59685
302.60897
302.59806
302.61013
302.59956
302.61164
302.60146
302.61358
302.60386
302.61606
302.60687
302.6192
302.6106
302.62308
302.61512
302.62779
302.62052
302.63338
302.62683
302.6399
302.6341
302.64738
302.64237
302.65585
302.65165
302.66531
302.66194
302.67577
302.67323
302.6872
302.6855
302.69959
302.69874
302.71291
302.59385
302.60572
302.59348
302.60529
302.59337
302.60513
302.59346
302.60516
302.59371
302.60532
302.59408
302.60559
302.59455
302.60596
302.59513
302.60642
302.59582
302.60702
302.59669
302.60782
302.59781
302.60891
302.59926
302.61036
302.60114
302.61227
302.60354
302.61475
302.60656
302.61787
302.61028
302.62172
302.61476
302.62635
302.62008
302.63182
302.62627
302.63817
302.63336
302.64543
302.64139
302.65361
302.65035
302.66271
302.66026
302.67274
302.6711
302.68367
302.68285
302.6955
302.59421
302.60553
302.59398
302.60509
302.59383
302.60484
302.59379
302.6047
302.59385
302.60464
302.59398
302.60465
302.59419
302.60474
302.59448
302.60492
302.59489
302.60522
302.59545
302.6057
302.59622
302.60641
302.59728
302.60744
302.59871
302.60887
302.60059
302.61078
302.60301
302.61325
302.60604
302.61636
302.60974
302.62017
302.61419
302.62474
302.61943
302.63009
302.62549
302.63628
302.63241
302.64332
302.6402
302.65123
302.64887
302.65999
302.65842
302.66962
302.66883
302.6801
302.59451
302.6053
302.59443
302.60487
302.59425
302.60454
302.5941
302.60425
302.59397
302.60398
302.59388
302.60375
302.59383
302.60358
302.59386
302.60349
302.594
302.60351
302.59428
302.60369
302.59474
302.60409
302.59547
302.60475
302.59651
302.60576
302.59794
302.60719
302.59984
302.60911
302.60227
302.61159
302.60531
302.61469
302.60901
302.61847
302.61342
302.62297
302.61859
302.62822
302.62453
302.63426
302.63128
302.64109
302.63885
302.64874
302.64724
302.6572
302.65644
302.66646
302.59476
302.60505
302.59482
302.60463
302.59462
302.60423
302.59436
302.60379
302.59405
302.60331
302.59373
302.60285
302.59344
302.60243
302.59323
302.60209
302.59311
302.60185
302.59313
302.60177
302.59332
302.60187
302.59375
302.60222
302.59445
302.60287
302.5955
302.60389
302.59696
302.60534
302.59889
302.60729
302.60136
302.60978
302.60441
302.61288
302.6081
302.61663
302.61248
302.62107
302.61757
302.62623
302.6234
302.63212
302.62999
302.63877
302.63735
302.64618
302.64547
302.65436
302.59496
302.60476
302.59516
302.60435
302.59493
302.60388
302.59456
302.60328
302.59406
302.6026
302.59352
302.6019
302.59299
302.60124
302.59253
302.60067
302.59218
302.6002
302.59196
302.59987
302.59192
302.59973
302.59208
302.5998
302.59249
302.60015
302.59321
302.60082
302.59429
302.60187
302.59579
302.60335
302.59777
302.60533
302.60027
302.60785
302.60334
302.61096
302.60704
302.61469
302.61138
302.61908
302.6164
302.62415
302.62213
302.62991
302.62856
302.63639
302.63572
302.64359
302.59511
302.60445
302.59545
302.60404
302.59517
302.60348
302.59466
302.60271
302.59397
302.60181
302.59319
302.60088
302.59244
302.6
302.59176
302.5992
302.59118
302.59851
302.59075
302.59798
302.59048
302.59761
302.59041
302.59745
302.59057
302.59753
302.59101
302.5979
302.59178
302.59862
302.59291
302.59972
302.59447
302.60125
302.59649
302.60327
302.59904
302.60583
302.60214
302.60894
302.60583
302.61266
302.61015
302.61701
302.61511
302.622
302.62073
302.62765
302.62702
302.63398
302.59522
302.60412
302.59568
302.60369
302.59533
302.603
302.59465
302.60203
302.59374
302.60091
302.59274
302.59976
302.59176
302.59865
302.59086
302.59765
302.59008
302.59677
302.58945
302.59604
302.58899
302.59548
302.58872
302.59512
302.58867
302.59498
302.58887
302.5951
302.58936
302.59553
302.59018
302.5963
302.59138
302.59747
302.59301
302.59907
302.59509
302.60114
302.59768
302.60373
302.60081
302.60687
302.60451
302.61059
302.6088
302.6149
302.6137
302.61982
302.61922
302.62537
302.59528
302.60378
302.59585
302.60329
302.5954
302.60243
302.5945
302.60123
302.59335
302.59987
302.59212
302.5985
302.59092
302.59719
302.58982
302.596
302.58886
302.59495
302.58806
302.59405
302.58742
302.59332
302.58698
302.59279
302.58674
302.59246
302.58674
302.59237
302.587
302.59256
302.58756
302.59306
302.58846
302.59391
302.58974
302.59515
302.59144
302.59682
302.59359
302.59896
302.59623