/*--------------------------------*- C++ -*----------------------------------*\
| =========                 |                                                 |
| \\      /  F ield         | OpenFOAM: The Open Source CFD Toolbox           |
|  \\    /   O peration     | Version:  2312                                  |
|   \\  /    A nd           | Website:  www.openfoam.com                      |
|    \\/     M anipulation  |                                                 |
\*---------------------------------------------------------------------------*/
FoamFile
{
    version     2.0;
    format      ascii;
    arch        "LSB;label=32;scalar=64";
    class       volVectorField;
    location    "6";
    object      U_0;
}
// * * * * * * * * * * * * * * * * * * * * * * * * * * * * * * * * * * * * * //

dimensions      [0 1 -1 0 0 0 0];

internalField   nonuniform List<vector> 
4000
(
(0.0025699126 0.00049918912 0)
(0.0042959108 -1.147441e-05 0)
(0.0028672474 -5.1144916e-07 0)
(0.0031120687 7.0524238e-08 0)
(0.0030040887 -2.066234e-07 0)
(0.003058492 1.921056e-07 0)
(0.002996683 -2.1748527e-07 0)
(0.0030401283 1.85809e-07 0)
(0.0029989808 -1.7796248e-07 0)
(0.0030354102 1.6599968e-07 0)
(0.003001349 -1.5619199e-07 0)
(0.0030328911 1.4662901e-07 0)
(0.0030032542 -1.3809812e-07 0)
(0.0030309625 1.2985727e-07 0)
(0.0030049194 -1.2233746e-07 0)
(0.0030293289 1.1518522e-07 0)
(0.0030064079 -1.0855291e-07 0)
(0.0030279029 1.0231325e-07 0)
(0.0030077328 -9.6486455e-08 0)
(0.0030266469 9.1030291e-08 0)
(0.0030089085 -8.5920565e-08 0)
(0.003025536 8.1144926e-08 0)
(0.0030099522 -7.6667674e-08 0)
(0.0030245498 7.2487361e-08 0)
(0.0030108809 -6.8567784e-08 0)
(0.0030236713 6.4911741e-08 0)
(0.0030117101 -6.1485862e-08 0)
(0.0030228856 5.8294647e-08 0)
(0.0030124532 -5.530834e-08 0)
(0.0030221801 5.2532025e-08 0)
(0.0030131219 -4.9939534e-08 0)
(0.0030215437 4.7535967e-08 0)
(0.0030137265 -4.5298508e-08 0)
(0.0030209669 4.3231965e-08 0)
(0.003014276 -4.1316612e-08 0)
(0.0030204412 3.9556799e-08 0)
(0.0030147786 -3.7935666e-08 0)
(0.0030199587 3.6457017e-08 0)
(0.0030152416 -3.5106684e-08 0)
(0.0030195125 3.3887904e-08 0)
(0.0030156716 -3.2789048e-08 0)
(0.0030190963 3.1812951e-08 0)
(0.0030160749 -3.0950238e-08 0)
(0.0030187037 3.020322e-08 0)
(0.0030164566 -2.9569064e-08 0)
(0.003018328 2.9033223e-08 0)
(0.0030168245 -2.8640567e-08 0)
(0.0030179891 2.8343701e-08 0)
(0.0030172954 -2.7806615e-08 0)
(0.0030180183 3.0205784e-08 0)
(0.0067407037 0.0013612642 0)
(0.0118247 1.8785476e-06 0)
(0.0085681949 1.4356531e-05 0)
(0.0089806796 -5.4386723e-07 0)
(0.0087186366 -2.0735391e-07 0)
(0.0088780574 8.7391623e-07 0)
(0.0086982893 -4.9311229e-07 0)
(0.0088255916 6.6539708e-07 0)
(0.0087042965 -5.9226025e-07 0)
(0.0088124592 5.8434605e-07 0)
(0.0087114119 -5.4654942e-07 0)
(0.0088051815 5.2042405e-07 0)
(0.0087170899 -4.8813257e-07 0)
(0.0087994947 4.6152917e-07 0)
(0.0087220455 -4.3376714e-07 0)
(0.0087946522 4.0926185e-07 0)
(0.0087264732 -3.853528e-07 0)
(0.0087904204 3.6350955e-07 0)
(0.0087304139 -3.4273195e-07 0)
(0.0087866902 3.2347225e-07 0)
(0.0087339131 -3.0532135e-07 0)
(0.0087833872 2.8840314e-07 0)
(0.0087370229 -2.7251452e-07 0)
(0.0087804516 2.5767936e-07 0)
(0.0087397934 -2.4377006e-07 0)
(0.0087778331 2.3078334e-07 0)
(0.0087422697 -2.1862357e-07 0)
(0.0087754886 2.0728236e-07 0)
(0.0087444913 -1.966811e-07 0)
(0.0087733811 1.8681216e-07 0)
(0.0087464926 -1.7760841e-07 0)
(0.0087714782 1.6906407e-07 0)
(0.0087483038 -1.6112111e-07 0)
(0.0087697515 1.537754e-07 0)
(0.0087499519 -1.4697675e-07 0)
(0.0087681757 1.4072225e-07 0)
(0.0087514609 -1.3496887e-07 0)
(0.0087667276 1.2971451e-07 0)
(0.0087528529 -1.2492281e-07 0)
(0.0087653863 1.2059211e-07 0)
(0.008754148 -1.1669279e-07 0)
(0.0087641324 1.1322296e-07 0)
(0.0087553652 -1.1015746e-07 0)
(0.0087629472 1.0750933e-07 0)
(0.0087565206 -1.0521062e-07 0)
(0.0087618095 1.0334532e-07 0)
(0.0087576306 -1.0209079e-07 0)
(0.0087607431 9.9371415e-08 0)
(0.0087589421 -1.0486173e-07 0)
(0.0087606043 9.5840102e-08 0)
(0.011148026 0.0022697569 0)
(0.018732309 -1.9054356e-05 0)
(0.014108736 3.4366194e-05 0)
(0.014691737 -7.158681e-07 0)
(0.014282069 -1.8377827e-07 0)
(0.014548929 1.7097585e-06 0)
(0.014249619 -7.169838e-07 0)
(0.014464891 1.2186669e-06 0)
(0.014260415 -1.0567732e-06 0)
(0.0144437 1.0614467e-06 0)
(0.014272719 -9.9214833e-07 0)
(0.01443158 9.4881159e-07 0)
(0.014282382 -8.8882188e-07 0)
(0.014421995 8.4187544e-07 0)
(0.01429079 -7.9057697e-07 0)
(0.01441381 7.4642017e-07 0)
(0.014298292 -7.0260214e-07 0)
(0.014406652 6.6294745e-07 0)
(0.014304966 -6.2501419e-07 0)
(0.014400339 5.8994972e-07 0)
(0.014310894 -5.5685521e-07 0)
(0.014394746 5.2601592e-07 0)
(0.014316165 -4.9705404e-07 0)
(0.014389771 4.6999552e-07 0)
(0.014320864 -4.4463936e-07 0)
(0.014385331 4.2094435e-07 0)
(0.014325066 -3.9877363e-07 0)
(0.014381354 3.7807669e-07 0)
(0.014328837 -3.587442e-07 0)
(0.014377776 3.407316e-07 0)
(0.014332236 -3.2394506e-07 0)
(0.014374545 3.0834848e-07 0)
(0.014335314 -2.9385945e-07 0)
(0.014371612 2.8044938e-07 0)
(0.014338115 -2.6804584e-07 0)
(0.014368933 2.5662623e-07 0)
(0.014340682 -2.4612754e-07 0)
(0.014366471 2.3653178e-07 0)
(0.01434305 -2.2778515e-07 0)
(0.014364189 2.1987282e-07 0)
(0.014345255 -2.1275118e-07 0)
(0.014362054 2.0640575e-07 0)
(0.014347329 -2.0079996e-07 0)
(0.014360034 1.9595283e-07 0)
(0.0143493 -1.9171094e-07 0)
(0.014358093 1.8833575e-07 0)
(0.014351194 -1.8595706e-07 0)
(0.014356248 1.8041062e-07 0)
(0.014353357 -1.9411857e-07 0)
(0.014355808 1.736589e-07 0)
(0.014843872 0.0028539348 0)
(0.025330088 -4.0429675e-05 0)
(0.019500795 6.2859873e-05 0)
(0.020245856 -1.0339266e-06 0)
(0.019695369 6.5670578e-08 0)
(0.020070348 2.6408075e-06 0)
(0.019650657 -7.5868589e-07 0)
(0.01995823 1.7517566e-06 0)
(0.019667232 -1.4824539e-06 0)
(0.019929311 1.5156893e-06 0)
(0.019685137 -1.4173007e-06 0)
(0.019912258 1.3613354e-06 0)
(0.019698997 -1.2737798e-06 0)
(0.019898627 1.2087387e-06 0)
(0.019711025 -1.1341414e-06 0)
(0.019886951 1.0715521e-06 0)
(0.019721749 -1.0083553e-06 0)
(0.019876732 9.5169488e-07 0)
(0.019731285 -8.9719661e-07 0)
(0.019867715 8.4694082e-07 0)
(0.019739757 -7.994553e-07 0)
(0.019859721 7.5519686e-07 0)
(0.019747292 -7.1365102e-07 0)
(0.019852608 6.7479376e-07 0)
(0.019754012 -6.3841663e-07 0)
(0.019846257 6.0437799e-07 0)
(0.019760024 -5.7256522e-07 0)
(0.019840565 5.4282776e-07 0)
(0.019765422 -5.1508303e-07 0)
(0.019835445 4.8919959e-07 0)
(0.019770287 -4.6510546e-07 0)
(0.01983082 4.4269216e-07 0)
(0.019774693 -4.2189338e-07 0)
(0.01982662 4.0262104e-07 0)
(0.019778704 -3.8481402e-07 0)
(0.019822785 3.6840095e-07 0)
(0.019782379 -3.5332663e-07 0)
(0.019819259 3.3953309e-07 0)
(0.019785771 -3.2697201e-07 0)
(0.019815991 3.1559545e-07 0)
(0.019788929 -3.0536495e-07 0)
(0.019812932 2.9623609e-07 0)
(0.0197919 -2.8817758e-07 0)
(0.019810038 2.8120401e-07 0)
(0.019794726 -2.7505927e-07 0)
(0.019807256 2.7027118e-07 0)
(0.019797439 -2.6676328e-07 0)
(0.019804588 2.5797433e-07 0)
(0.019800463 -2.8316778e-07 0)
(0.019803707 2.4851307e-07 0)
(0.019653725 0.0038712867 0)
(0.031440618 -6.8240349e-05 0)
(0.024709652 9.5465974e-05 0)
(0.025649439 -1.700071e-06 0)
(0.024957907 5.1277796e-07 0)
(0.025441462 3.6324678e-06 0)
(0.024901325 -6.2784387e-07 0)
(0.025305459 2.2365452e-06 0)
(0.024924891 -1.8532191e-06 0)
(0.025269144 1.9265428e-06 0)
(0.024948783 -1.8046928e-06 0)
(0.025247092 1.7407628e-06 0)
(0.024967031 -1.6271123e-06 0)
(0.025229282 1.5469471e-06 0)
(0.024982834 -1.4502432e-06 0)
(0.025213984 1.3712242e-06 0)
(0.024996912 -1.2899567e-06 0)
(0.025200581 1.2178231e-06 0)
(0.02500943 -1.148011e-06 0)
(0.025188748 1.0838257e-06 0)
(0.025020552 -1.0230746e-06 0)
(0.025178253 9.6647129e-07 0)
(0.025030448 -9.1333222e-07 0)
(0.025168911 8.636041e-07 0)
(0.025039276 -8.1707207e-07 0)
(0.025160566 7.7349591e-07 0)
(0.025047177 -7.3279616e-07 0)
(0.025153086 6.9471949e-07 0)
(0.025054271 -6.5921929e-07 0)
(0.025146357 6.2607421e-07 0)
(0.025060666 -5.9524173e-07 0)
(0.025140278 5.6653877e-07 0)
(0.025066456 -5.3992093e-07 0)
(0.025134758 5.1523931e-07 0)
(0.025071728 -4.9244836e-07 0)
(0.025129719 4.714274e-07 0)
(0.025076557 -4.5213208e-07 0)
(0.025125085 4.3446442e-07 0)
(0.025081013 -4.1838373e-07 0)
(0.025120791 4.0380923e-07 0)
(0.025085163 -3.9070927e-07 0)
(0.025116773 3.7900902e-07 0)
(0.025089066 -3.6868514e-07 0)
(0.025112971 3.5974867e-07 0)
(0.025092779 -3.5181981e-07 0)
(0.025109317 3.4578273e-07 0)
(0.025096343 -3.4114681e-07 0)
(0.025105794 3.2899281e-07 0)
(0.025100238 -3.6798392e-07 0)
(0.025104352 3.1721083e-07 0)
(0.022622651 0.0040559149 0)
(0.037219813 -0.0001132631 0)
(0.029773119 0.00013393798 0)
(0.030904094 -2.827432e-06 0)
(0.03006914 1.1789594e-06 0)
(0.030661943 4.7008362e-06 0)
(0.030001955 -3.5207886e-07 0)
(0.030506241 2.6702107e-06 0)
(0.030033814 -2.174205e-06 0)
(0.030462853 2.2951197e-06 0)
(0.030064004 -2.1569481e-06 0)
(0.030435771 2.0888459e-06 0)
(0.030086779 -1.9507271e-06 0)
(0.030413689 1.8581026e-06 0)
(0.030106475 -1.7404686e-06 0)
(0.030394669 1.6468626e-06 0)
(0.030124011 -1.548777e-06 0)
(0.030377989 1.4625922e-06 0)
(0.030139602 -1.3786522e-06 0)
(0.030363253 1.3017138e-06 0)
(0.030153458 -1.2287609e-06 0)
(0.030350177 1.1608175e-06 0)
(0.030165791 -1.097022e-06 0)
(0.030338533 1.0372934e-06 0)
(0.030176796 -9.8142657e-07 0)
(0.03032813 9.2907081e-07 0)
(0.030186646 -8.8020017e-07 0)
(0.030318804 8.3444486e-07 0)
(0.030195491 -7.9181282e-07 0)
(0.030310413 7.5198069e-07 0)
(0.030203465 -7.1495086e-07 0)
(0.030302833 6.8045579e-07 0)
(0.030210685 -6.4848548e-07 0)
(0.030295951 6.1882241e-07 0)
(0.030217256 -5.9144664e-07 0)
(0.030289669 5.66182e-07 0)
(0.030223275 -5.4300305e-07 0)
(0.030283894 5.2176695e-07 0)
(0.030228829 -5.0244704e-07 0)
(0.030278543 4.8492586e-07 0)
(0.030234 -4.6918375e-07 0)
(0.030273537 4.5511163e-07 0)
(0.030238862 -4.4269973e-07 0)
(0.030268802 4.3195176e-07 0)
(0.030243486 -4.2235177e-07 0)
(0.030264252 4.1521374e-07 0)
(0.030247924 -4.0942733e-07 0)
(0.030259849 3.9387812e-07 0)
(0.030252697 -4.4833269e-07 0)
(0.030257746 3.7962361e-07 0)
(0.027765164 0.0051836073 0)
(0.042559415 -0.00013875047 0)
(0.0346591 0.00017441897 0)
(0.036008504 -4.7247213e-06 0)
(0.035026412 1.9924974e-06 0)
(0.035731239 5.8053139e-06 0)
(0.034952718 2.8669432e-08 0)
(0.035560134 3.0462083e-06 0)
(0.03499439 -2.4523062e-06 0)
(0.035510059 2.622937e-06 0)
(0.035031141 -2.4775875e-06 0)
(0.035477971 2.4079468e-06 0)
(0.035058545 -2.2471914e-06 0)
(0.035451565 2.1443806e-06 0)
(0.035082216 -2.0069548e-06 0)
(0.035428754 1.9004081e-06 0)
(0.035103282 -1.7866691e-06 0)
(0.035408731 1.6877221e-06 0)
(0.035122012 -1.5907461e-06 0)
(0.035391031 1.5021268e-06 0)
(0.035138661 -1.4179493e-06 0)
(0.035375317 1.3395849e-06 0)
(0.035153485 -1.2659941e-06 0)
(0.03536132 1.1970631e-06 0)
(0.035166716 -1.1326161e-06 0)
(0.035348811 1.0721772e-06 0)
(0.035178559 -1.0157953e-06 0)
(0.035337596 9.6296921e-07 0)
(0.035189196 -9.1378032e-07 0)
(0.035327507 8.677904e-07 0)
(0.035198784 -8.2506237e-07 0)
(0.035318392 7.8523378e-07 0)
(0.035207465 -7.4834175e-07 0)
(0.035310119 7.1409177e-07 0)
(0.035215365 -6.8249976e-07 0)
(0.035302567 6.5332747e-07 0)
(0.0352226 -6.2657657e-07 0)
(0.035295626 6.0205417e-07 0)
(0.035229275 -5.7975419e-07 0)
(0.035289195 5.5951832e-07 0)
(0.035235487 -5.4134422e-07 0)
(0.035283181 5.2508441e-07 0)
(0.035241328 -5.1074868e-07 0)
(0.035277494 4.9832773e-07 0)
(0.035246882 -4.8716335e-07 0)
(0.035272032 4.7905818e-07 0)
(0.035252211 -4.7208438e-07 0)
(0.035266733 4.5319814e-07 0)
(0.035257863 -5.2418412e-07 0)
(0.035263882 4.3598663e-07 0)
(0.0303079 0.005113911 0)
(0.047464437 -0.00021044904 0)
(0.039410536 0.00021285286 0)
(0.040950156 -5.1906157e-06 0)
(0.039832068 3.400216e-06 0)
(0.040650121 7.017246e-06 0)
(0.039754447 5.096526e-07 0)
(0.040466984 3.3617088e-06 0)
(0.039807062 -2.6887014e-06 0)
(0.040410479 2.9099949e-06 0)
(0.039850509 -2.7672578e-06 0)
(0.04037342 2.698303e-06 0)
(0.039882593 -2.5168148e-06 0)
(0.040342662 2.4059388e-06 0)
(0.039910288 -2.2498857e-06 0)
(0.040316022 2.1319859e-06 0)
(0.039934931 -2.0037612e-06 0)
(0.040292614 1.8933142e-06 0)
(0.039956842 -1.7843876e-06 0)
(0.040271909 1.6851459e-06 0)
(0.039976324 -1.5907136e-06 0)
(0.04025352 1.5028402e-06 0)
(0.039993674 -1.4203089e-06 0)
(0.040237135 1.3429698e-06 0)
(0.040009164 -1.2706928e-06 0)
(0.04022249 1.202865e-06 0)
(0.04002303 -1.1396284e-06 0)
(0.04020936 1.0803382e-06 0)
(0.040035484 -1.0251652e-06 0)
(0.040197546 9.7354597e-07 0)
(0.040046709 -9.2561731e-07 0)
(0.040186875 8.8091331e-07 0)
(0.040056872 -8.3952914e-07 0)
(0.04017719 8.010865e-07 0)
(0.04006612 -7.6564605e-07 0)
(0.04016835 7.3290204e-07 0)
(0.040074588 -7.0289046e-07 0)
(0.040160227 6.7536405e-07 0)
(0.040082399 -6.5034311e-07 0)
(0.040152703 6.2762502e-07 0)
(0.040089667 -6.0722944e-07 0)
(0.040145667 5.8896712e-07 0)
(0.040096499 -5.7287276e-07 0)
(0.040139016 5.5891813e-07 0)
(0.040102994 -5.4630165e-07 0)
(0.040132631 5.3735968e-07 0)
(0.040109224 -5.2916767e-07 0)
(0.040126428 5.0707776e-07 0)
(0.040115755 -5.9517474e-07 0)
(0.040122758 4.8626575e-07 0)
(0.035468024 0.0061418452 0)
(0.051965275 -0.00023331606 0)
(0.044035055 0.0002492644 0)
(0.045677865 -6.280669e-06 0)
(0.044476049 4.62453e-06 0)
(0.045416781 8.1874275e-06 0)
(0.044407235 1.0467903e-06 0)
(0.045226453 3.6030682e-06 0)
(0.044472139 -2.8865246e-06 0)
(0.045163844 3.1548362e-06 0)
(0.044522368 -3.0262277e-06 0)
(0.045121875 2.9594168e-06 0)
(0.044559152 -2.7593537e-06 0)
(0.045086766 2.6423518e-06 0)
(0.044590896 -2.4689203e-06 0)
(0.045056281 2.3412159e-06 0)
(0.044619139 -2.1997091e-06 0)
(0.045029468 2.0790239e-06 0)
(0.044644253 -1.9592512e-06 0)
(0.045005737 1.8504571e-06 0)
(0.044666589 -1.7467544e-06 0)
(0.044984654 1.6502984e-06 0)
(0.044686485 -1.5596948e-06 0)
(0.044965862 1.4747569e-06 0)
(0.04470425 -1.3954124e-06 0)
(0.044949064 1.3209041e-06 0)
(0.044720155 -1.2514805e-06 0)
(0.044934003 1.1863455e-06 0)
(0.04473444 -1.1257715e-06 0)
(0.044920452 1.0690627e-06 0)
(0.044747315 -1.0164401e-06 0)
(0.044908212 9.6732863e-07 0)
(0.044758971 -9.2188991e-07 0)
(0.044897104 8.7965742e-07 0)
(0.044769577 -8.4074331e-07 0)
(0.044886967 8.0477091e-07 0)
(0.044779286 -7.7181599e-07 0)
(0.044877654 7.4157422e-07 0)
(0.044788241 -7.140967e-07 0)
(0.044869028 6.8913439e-07 0)
(0.044796572 -6.6673245e-07 0)
(0.044860964 6.4665773e-07 0)
(0.044804402 -6.2897425e-07 0)
(0.044853343 6.1362912e-07 0)
(0.044811844 -5.9968054e-07 0)
(0.044846031 5.9003008e-07 0)
(0.044818981 -5.8060189e-07 0)
(0.044838918 5.5550099e-07 0)
(0.044826387 -6.6086948e-07 0)
(0.044834371 5.3040489e-07 0)
(0.038238211 0.0060354036 0)
(0.056000474 -0.00033183818 0)
(0.048610286 0.00029105581 0)
(0.050174863 -9.2527457e-06 0)
(0.048952107 5.015744e-06 0)
(0.05003056 9.2156933e-06 0)
(0.048911313 1.5980281e-06 0)
(0.049838316 3.7606417e-06 0)
(0.048989907 -3.0480073e-06 0)
(0.049769928 3.3569636e-06 0)
(0.04904695 -3.2547755e-06 0)
(0.049723127 3.1911484e-06 0)
(0.049088425 -2.974741e-06 0)
(0.049683688 2.8534296e-06 0)
(0.04912422 -2.6639096e-06 0)
(0.049649361 2.5279139e-06 0)
(0.049156065 -2.3743471e-06 0)
(0.049619141 2.2446788e-06 0)
(0.049184387 -2.1151734e-06 0)
(0.049592381 1.9979004e-06 0)
(0.049209581 -1.885918e-06 0)
(0.049568597 1.7818131e-06 0)
(0.049232028 -1.6840113e-06 0)
(0.049547395 1.5922918e-06 0)
(0.049252073 -1.5066482e-06 0)
(0.04952844 1.4261755e-06 0)
(0.049270021 -1.3512385e-06 0)
(0.049511444 1.2808852e-06 0)
(0.04928614 -1.2154983e-06 0)
(0.049496152 1.1542459e-06 0)
(0.049300669 -1.0974405e-06 0)
(0.049482341 1.0443949e-06 0)
(0.04931382 -9.9534324e-07 0)
(0.049469809 9.4972837e-07 0)
(0.049325785 -9.0771887e-07 0)
(0.049458373 8.6886539e-07 0)
(0.049336738 -8.3328752e-07 0)
(0.049447867 8.006225e-07 0)
(0.049346839 -7.7095545e-07 0)
(0.049438138 7.4398992e-07 0)
(0.049356234 -7.1979911e-07 0)
(0.049429045 6.9810491e-07 0)
(0.049365062 -6.7900403e-07 0)
(0.049420452 6.6241374e-07 0)
(0.049373452 -6.4725869e-07 0)
(0.049412213 6.3702374e-07 0)
(0.049381497 -6.2635586e-07 0)
(0.049404194 5.9847872e-07 0)
(0.049389771 -7.2091537e-07 0)
(0.049398721 5.6844008e-07 0)
(0.04344123 0.0068586494 0)
(0.059799124 -0.00035493087 0)
(0.053001156 0.00032856469 0)
(0.054518311 -1.1423997e-05 0)
(0.053268099 4.6271901e-06 0)
(0.054493291 9.9911401e-06 0)
(0.053267713 2.1414054e-06 0)
(0.054302577 3.8256321e-06 0)
(0.053360688 -3.1751377e-06 0)
(0.054228552 3.5162541e-06 0)
(0.05342447 -3.4534367e-06 0)
(0.054176989 3.3936227e-06 0)
(0.053470595 -3.1631539e-06 0)
(0.054133256 3.0392166e-06 0)
(0.053510421 -2.8349265e-06 0)
(0.054095109 2.6921066e-06 0)
(0.053545856 -2.5277102e-06 0)
(0.054061497 2.3902966e-06 0)
(0.053577374 -2.2521716e-06 0)
(0.054031719 2.1274871e-06 0)
(0.053605416 -2.008214e-06 0)
(0.054005244 1.8973923e-06 0)
(0.053630405 -1.7932648e-06 0)
(0.053981639 1.6955812e-06 0)
(0.053652722 -1.6044057e-06 0)
(0.053960535 1.5186856e-06 0)
(0.053672705 -1.4389077e-06 0)
(0.05394161 1.3639634e-06 0)
(0.053690653 -1.294351e-06 0)
(0.053924584 1.2291018e-06 0)
(0.053706829 -1.1686242e-06 0)
(0.053909207 1.1121186e-06 0)
(0.05372147 -1.0598951e-06 0)
(0.053895255 1.0113057e-06 0)
(0.05373479 -9.6657884e-07 0)
(0.053882525 9.2519198e-07 0)
(0.053746982 -8.8731135e-07 0)
(0.053870831 8.5251553e-07 0)
(0.053758223 -8.2092596e-07 0)
(0.053860004 7.9219861e-07 0)
(0.053768679 -7.6643652e-07 0)
(0.053849885 7.4331639e-07 0)
(0.053778501 -7.2297018e-07 0)
(0.053840326 7.0528057e-07 0)
(0.053787835 -6.8904849e-07 0)
(0.053831164 6.7834714e-07 0)
(0.053796784 -6.6645161e-07 0)
(0.053822243 6.3606219e-07 0)
(0.053805915 -7.750481e-07 0)
(0.053815809 6.0049049e-07 0)
(0.046544237 0.0067908447 0)
(0.063250034 -0.0004522873 0)
(0.057159291 0.00035321726 0)
(0.058770813 -1.2535301e-05 0)
(0.057429025 3.6742523e-06 0)
(0.058806544 1.0496834e-05 0)
(0.057477108 2.6694124e-06 0)
(0.058619141 3.7996694e-06 0)
(0.057584698 -3.2673448e-06 0)
(0.058539523 3.6336638e-06 0)
(0.057655103 -3.6226403e-06 0)
(0.058483288 3.5671748e-06 0)
(0.057705824 -3.3248837e-06 0)
(0.058435316 3.199895e-06 0)
(0.057749648 -2.9821677e-06 0)
(0.058393387 2.8339441e-06 0)
(0.057788642 -2.6599491e-06 0)
(0.058356412 2.5160074e-06 0)
(0.057823329 -2.3703695e-06 0)
(0.058323641 2.2393306e-06 0)
(0.057854196 -2.1137484e-06 0)
(0.058294499 1.997136e-06 0)
(0.057881706 -1.887549e-06 0)
(0.058268511 1.7847146e-06 0)
(0.057906277 -1.688769e-06 0)
(0.058245273 1.5985149e-06 0)
(0.057928278 -1.5145641e-06 0)
(0.058224436 1.435653e-06 0)
(0.057948039 -1.3623986e-06 0)
(0.05820569 1.2936966e-06 0)
(0.057965848 -1.2300542e-06 0)
(0.058188761 1.1705599e-06 0)
(0.057981967 -1.1156028e-06 0)
(0.058173401 1.0644448e-06 0)
(0.05799663 -1.017376e-06 0)
(0.058159387 9.738016e-07 0)
(0.058010051 -9.3393632e-07 0)
(0.058146515 8.9730068e-07 0)
(0.058022424 -8.640539e-07 0)
(0.058134599 8.3380502e-07 0)
(0.05803393 -8.0668796e-07 0)
(0.058123464 7.8233485e-07 0)
(0.058044738 -7.6091459e-07 0)
(0.058112946 7.4227118e-07 0)
(0.058055007 -7.2509411e-07 0)
(0.05810287 7.1403783e-07 0)
(0.058064853 -7.009432e-07 0)
(0.058093059 6.6832509e-07 0)
(0.058074828 -8.2307067e-07 0)
(0.058085635 6.2673066e-07 0)
(0.05153174 0.0073828877 0)
(0.066546985 -0.00047659332 0)
(0.061089153 0.00038015652 0)
(0.06293935 -1.2630711e-05 0)
(0.061438049 2.816311e-06 0)
(0.062971414 1.0737208e-05 0)
(0.061540065 3.1930377e-06 0)
(0.062787909 3.6891642e-06 0)
(0.061662128 -3.3228659e-06 0)
(0.062702669 3.7105891e-06 0)
(0.061739004 -3.7628664e-06 0)
(0.062641865 3.7122007e-06 0)
(0.061794256 -3.4603429e-06 0)
(0.062589728 3.3357194e-06 0)
(0.061842029 -3.1059306e-06 0)
(0.062544071 2.953658e-06 0)
(0.061884538 -2.7713011e-06 0)
(0.062503778 2.6220202e-06 0)
(0.061922355 -2.4699684e-06 0)
(0.062468052 2.3336174e-06 0)
(0.061956012 -2.202698e-06 0)
(0.062436274 2.0812111e-06 0)
(0.061986011 -1.9670213e-06 0)
(0.062407933 1.8598416e-06 0)
(0.062012807 -1.7598792e-06 0)
(0.06238259 1.6657981e-06 0)
(0.062036802 -1.5783349e-06 0)
(0.062359865 1.4960755e-06 0)
(0.062058353 -1.419756e-06 0)
(0.06233942 1.3481401e-06 0)
(0.062077775 -1.2818344e-06 0)
(0.062320957 1.2198185e-06 0)
(0.062095353 -1.1625611e-06 0)
(0.062304207 1.1092363e-06 0)
(0.062111342 -1.0601967e-06 0)
(0.062288926 1.0147774e-06 0)
(0.062125975 -9.7324197e-07 0)
(0.062274892 9.3505468e-07 0)
(0.062139465 -9.0041311e-07 0)
(0.0622619 8.6888077e-07 0)
(0.062152009 -8.406228e-07 0)
(0.062249762 8.1522809e-07 0)
(0.06216379 -7.9290341e-07 0)
(0.062238298 7.7345077e-07 0)
(0.062174982 -7.5546234e-07 0)
(0.06222732 7.4415564e-07 0)
(0.062185714 -7.2990729e-07 0)
(0.062216632 6.9535617e-07 0)
(0.062196518 -8.6484222e-07 0)
(0.0622082 6.4737451e-07 0)
(0.054833885 0.0073339438 0)
(0.069539179 -0.00057729711 0)
(0.064859778 0.00039621721 0)
(0.066977195 -1.3770537e-05 0)
(0.065300929 2.1578868e-06 0)
(0.066988164 1.0675245e-05 0)
(0.065457008 3.7064798e-06 0)
(0.066808848 3.495637e-06 0)
(0.065593213 -3.3403806e-06 0)
(0.066717876 3.7486899e-06 0)
(0.065676331 -3.8744499e-06 0)
(0.06665259 3.8293114e-06 0)
(0.065736024 -3.5699554e-06 0)
(0.066596368 3.4470672e-06 0)
(0.065787683 -3.2065774e-06 0)
(0.06654705 3.0515712e-06 0)
(0.06583365 -2.8620779e-06 0)
(0.066503495 2.7086221e-06 0)
(0.065874546 -2.5512411e-06 0)
(0.066464864 2.4106039e-06 0)
(0.065910945 -2.2753045e-06 0)
(0.066430495 2.1498467e-06 0)
(0.065943392 -2.0318978e-06 0)
(0.066399839 1.9211675e-06 0)
(0.065972377 -1.8179302e-06 0)
(0.066372425 1.7207196e-06 0)
(0.065998332 -1.6303943e-06 0)
(0.066347843 1.5453969e-06 0)
(0.066021642 -1.4665804e-06 0)
(0.066325729 1.3925821e-06 0)
(0.06604265 -1.3241068e-06 0)
(0.066305759 1.26003e-06 0)
(0.066061662 -1.2008988e-06 0)
(0.066287642 1.1458034e-06 0)
(0.066078955 -1.0951586e-06 0)
(0.066271114 1.0482321e-06 0)
(0.066094781 -1.0053362e-06 0)
(0.066255937 9.6588141e-07 0)
(0.066109369 -9.3010343e-07 0)
(0.066241888 8.9752241e-07 0)
(0.066122933 -8.683344e-07 0)
(0.066228762 8.4208711e-07 0)
(0.066135671 -8.1902521e-07 0)
(0.066216368 7.9890635e-07 0)
(0.06614777 -7.802408e-07 0)
(0.066204505 7.6878093e-07 0)
(0.066159373 -7.5344079e-07 0)
(0.066192956 7.1725829e-07 0)
(0.066170989 -9.0027324e-07 0)
(0.066183507 6.6266573e-07 0)
(0.059682889 0.0077400747 0)
(0.072469816 -0.00059525765 0)
(0.068515542 0.00040976099 0)
(0.070836493 -1.5652308e-05 0)
(0.069023214 1.4683783e-06 0)
(0.070856352 1.0221041e-05 0)
(0.069228033 4.1743006e-06 0)
(0.070681864 3.2071814e-06 0)
(0.069378141 -3.3240139e-06 0)
(0.070585043 3.7477926e-06 0)
(0.069467229 -3.9585251e-06 0)
(0.070515347 3.918906e-06 0)
(0.069531248 -3.6543443e-06 0)
(0.070455128 3.5343453e-06 0)
(0.069586715 -3.2845735e-06 0)
(0.070402225 3.1280725e-06 0)
(0.069636071 -2.9326705e-06 0)
(0.070355477 2.776168e-06 0)
(0.069679982 -2.614529e-06 0)
(0.070313999 2.4706093e-06 0)
(0.069719068 -2.3318711e-06 0)
(0.070277092 2.2033293e-06 0)
(0.069753914 -2.0824493e-06 0)
(0.070244169 1.9689495e-06 0)
(0.069785041 -1.8631648e-06 0)
(0.070214727 1.7635103e-06 0)
(0.069812916 -1.6709605e-06 0)
(0.070188326 1.5838247e-06 0)
(0.06983795 -1.503068e-06 0)
(0.070164576 1.4272096e-06 0)
(0.069860511 -1.3570488e-06 0)
(0.07014313 1.2913635e-06 0)
(0.069880928 -1.2307766e-06 0)
(0.070123674 1.1742999e-06 0)
(0.069899498 -1.122408e-06 0)
(0.070105926 1.0743059e-06 0)
(0.069916492 -1.0303532e-06 0)
(0.070089629 9.899099e-07 0)
(0.069932156 -9.5324891e-07 0)
(0.070074544 9.1984978e-07 0)
(0.069946719 -8.8993856e-07 0)
(0.070060452 8.6302449e-07 0)
(0.069960395 -8.3938943e-07 0)
(0.070047147 8.1874524e-07 0)
(0.069973383 -7.995365e-07 0)
(0.070034416 7.8801333e-07 0)
(0.069985839 -7.7165908e-07 0)
(0.070022027 7.3414788e-07 0)
(0.069998247 -9.2932164e-07 0)
(0.070011556 6.7286987e-07 0)
(0.063238162 0.0076927445 0)
(0.075150467 -0.00068870204 0)
(0.072107091 0.00041396768 0)
(0.074491376 -1.8644282e-05 0)
(0.072609311 3.9557403e-07 0)
(0.074575488 9.4499083e-06 0)
(0.072853517 4.5935982e-06 0)
(0.074406914 2.8258219e-06 0)
(0.073017094 -3.2730467e-06 0)
(0.074304089 3.7097149e-06 0)
(0.073111829 -4.0154962e-06 0)
(0.074230036 3.9817968e-06 0)
(0.073180039 -3.7140481e-06 0)
(0.074165913 3.5981103e-06 0)
(0.073239218 -3.3404182e-06 0)
(0.074109511 3.1836405e-06 0)
(0.073291882 -2.9835267e-06 0)
(0.074059645 2.8250826e-06 0)
(0.073338736 -2.6602317e-06 0)
(0.07401539 2.5140125e-06 0)
(0.073380446 -2.3727547e-06 0)
(0.073976006 2.2419977e-06 0)
(0.073417631 -2.1189954e-06 0)
(0.073940871 2.0034908e-06 0)
(0.07345085 -1.8958694e-06 0)
(0.07390945 1.7944419e-06 0)
(0.073480598 -1.7002906e-06 0)
(0.073881274 1.6116031e-06 0)
(0.073507314 -1.5294502e-06 0)
(0.073855927 1.4522427e-06 0)
(0.073531391 -1.3808691e-06 0)
(0.07383304 1.3140177e-06 0)
(0.073553179 -1.2523836e-06 0)
(0.073812278 1.1949062e-06 0)
(0.073572995 -1.1421172e-06 0)
(0.073793339 1.0931638e-06 0)
(0.073591129 -1.0484508e-06 0)
(0.073775948 1.0072918e-06 0)
(0.073607843 -9.6999528e-07 0)
(0.073759853 9.3600354e-07 0)
(0.073623381 -9.0557119e-07 0)
(0.073744817 8.7817224e-07 0)
(0.073637971 -8.541243e-07 0)
(0.073730623 8.3309305e-07 0)
(0.073651827 -8.1347387e-07 0)
(0.073717046 8.0196988e-07 0)
(0.073665117 -7.8469389e-07 0)
(0.073703839 7.461539e-07 0)
(0.073678295 -9.5198845e-07 0)
(0.07369235 6.7826709e-07 0)
(0.067973939 0.007934021 0)
(0.077841245 -0.00070097758 0)
(0.075618304 0.00041837677 0)
(0.077963926 -2.1595516e-05 0)
(0.076059686 -1.3899658e-06 0)
(0.078144803 8.4217185e-06 0)
(0.076334027 4.9557189e-06 0)
(0.077983713 2.3565399e-06 0)
(0.07651011 -3.1868608e-06 0)
(0.077874863 3.6361857e-06 0)
(0.076610203 -4.0459984e-06 0)
(0.077796543 4.0186643e-06 0)
(0.076682476 -3.7498014e-06 0)
(0.07772863 3.6389059e-06 0)
(0.076745273 -3.3747226e-06 0)
(0.077668829 3.2187904e-06 0)
(0.076801156 -3.0151688e-06 0)
(0.077615933 2.8558391e-06 0)
(0.076850873 -2.6888071e-06 0)
(0.077568977 2.5412409e-06 0)
(0.076895133 -2.3983621e-06 0)
(0.077527183 2.2662353e-06 0)
(0.076934594 -2.141899e-06 0)
(0.077489897 2.0251349e-06 0)
(0.076969846 -1.9163689e-06 0)
(0.077456552 1.8138226e-06 0)
(0.077001415 -1.718676e-06 0)
(0.07742665 1.6290088e-06 0)
(0.077029767 -1.5459891e-06 0)
(0.077399752 1.4679304e-06 0)
(0.077055317 -1.3958041e-06 0)
(0.077375463 1.328218e-06 0)
(0.077078438 -1.265934e-06 0)
(0.077353431 1.2078266e-06 0)
(0.077099467 -1.1544811e-06 0)
(0.077333334 1.1049924e-06 0)
(0.077118709 -1.0598075e-06 0)
(0.07731488 1.0181986e-06 0)
(0.077136444 -9.805074e-07 0)
(0.077297801 9.4614275e-07 0)
(0.077152931 -9.1538595e-07 0)
(0.077281848 8.8767949e-07 0)
(0.07716841 -8.6337464e-07 0)
(0.077266789 8.4209154e-07 0)
(0.077183109 -8.2219274e-07 0)
(0.077252389 8.1078314e-07 0)
(0.077197211 -7.926911e-07 0)
(0.077238389 7.5341646e-07 0)
(0.077211136 -9.6831374e-07 0)
(0.077225891 6.7914609e-07 0)
(0.071706321 0.0078705106 0)
(0.080334256 -0.00078448341 0)
(0.079004278 0.00041254179 0)
(0.081300458 -2.3747956e-05 0)
(0.079381137 -3.6784162e-06 0)
(0.081565104 7.3053625e-06 0)
(0.079671386 5.285909e-06 0)
(0.081412239 1.8225014e-06 0)
(0.079857365 -3.0598563e-06 0)
(0.081297297 3.5313229e-06 0)
(0.079962446 -4.0496653e-06 0)
(0.081214782 4.0307205e-06 0)
(0.080038641 -3.7621764e-06 0)
(0.081143202 3.6574428e-06 0)
(0.08010495 -3.3881022e-06 0)
(0.081080111 3.2341208e-06 0)
(0.080163955 -3.0281577e-06 0)
(0.08102428 2.8689688e-06 0)
(0.080216448 -2.7007566e-06 0)
(0.080974707 2.5527687e-06 0)
(0.080263179 -2.4091409e-06 0)
(0.080930579 2.2764661e-06 0)
(0.080304845 -2.1515605e-06 0)
(0.080891209 2.0342612e-06 0)
(0.080342068 -1.9250217e-06 0)
(0.080855999 1.8219922e-06 0)
(0.080375402 -1.7264382e-06 0)
(0.080824425 1.636347e-06 0)
(0.080405338 -1.5529736e-06 0)
(0.080796022 1.4745474e-06 0)
(0.080432316 -1.4021144e-06 0)
(0.080770376 1.3342123e-06 0)
(0.080456729 -1.2716638e-06 0)
(0.080747112 1.2132866e-06 0)
(0.080478932 -1.1597145e-06 0)
(0.080725893 1.1099972e-06 0)
(0.080499248 -1.0646202e-06 0)
(0.080706409 1.0228194e-06 0)
(0.080517973 -9.8496697e-07 0)
(0.080688378 9.504427e-07 0)
(0.080535379 -9.1955215e-07 0)
(0.080671535 8.9171051e-07 0)
(0.08055172 -8.6729998e-07 0)
(0.080655638 8.4589674e-07 0)
(0.080567237 -8.2584654e-07 0)
(0.08064044 8.1459943e-07 0)
(0.080582126 -7.9580886e-07 0)
(0.080625673 7.5608573e-07 0)
(0.080596773 -9.7837286e-07 0)
(0.080612181 6.7579897e-07 0)
(0.076243738 0.0079648457 0)
(0.082893958 -0.00078850103 0)
(0.082214735 0.00040533416 0)
(0.084533965 -2.4495767e-05 0)
(0.082577816 -6.0021031e-06 0)
(0.084836575 6.1967392e-06 0)
(0.082867526 5.5958477e-06 0)
(0.084692398 1.2489944e-06 0)
(0.08305904 -2.8901634e-06 0)
(0.08457136 3.3982906e-06 0)
(0.08316866 -4.0266374e-06 0)
(0.084484689 4.0190061e-06 0)
(0.08324861 -3.7519235e-06 0)
(0.084409564 3.6544207e-06 0)
(0.083318313 -3.3812611e-06 0)
(0.084343298 3.2302595e-06 0)
(0.083380335 -3.0231126e-06 0)
(0.084284634 2.8650404e-06 0)
(0.083435509 -2.6966269e-06 0)
(0.084232534 2.5491076e-06 0)
(0.083484627 -2.4055772e-06 0)
(0.084186153 2.2731485e-06 0)
(0.083528422 -2.1484136e-06 0)
(0.08414477 2.03128e-06 0)
(0.083567547 -1.9222157e-06 0)
(0.084107759 1.8193183e-06 0)
(0.083602585 -1.723925e-06 0)
(0.084074571 1.6339474e-06 0)
(0.083634052 -1.5507164e-06 0)
(0.084044716 1.4723907e-06 0)
(0.083662408 -1.4000821e-06 0)
(0.084017759 1.3322691e-06 0)
(0.083688068 -1.2698282e-06 0)
(0.083993306 1.2115295e-06 0)
(0.083711405 -1.1580498e-06 0)
(0.083971003 1.1084006e-06 0)
(0.083732759 -1.0631017e-06 0)
(0.083950524 1.0213587e-06 0)
(0.08375244 -9.8357053e-07 0)
(0.083931572 9.4909294e-07 0)
(0.083770734 -9.1825292e-07 0)
(0.083913871 8.9044288e-07 0)
(0.083787908 -8.6607272e-07 0)
(0.083897163 8.4467725e-07 0)
(0.083804214 -8.2460066e-07 0)
(0.083881196 8.1357729e-07 0)
(0.083819864 -7.9421591e-07 0)
(0.083865689 7.5432079e-07 0)
(0.083835207 -9.8227291e-07 0)
(0.083851222 6.6851706e-07 0)
(0.080064217 0.0078738834 0)
(0.085281842 -0.00085702035 0)
(0.085258751 0.00038868821 0)
(0.087654465 -2.5926897e-05 0)
(0.085642683 -8.5967347e-06 0)
(0.087957017 5.1043892e-06 0)
(0.085922845 5.8325569e-06 0)
(0.087823578 6.5277471e-07 0)