/*--------------------------------*- C++ -*----------------------------------*\
| =========                 |                                                 |
| \\      /  F ield         | OpenFOAM: The Open Source CFD Toolbox           |
|  \\    /   O peration     | Version:  2312                                  |
|   \\  /    A nd           | Website:  www.openfoam.com                      |
|    \\/     M anipulation  |                                                 |
\*---------------------------------------------------------------------------*/
FoamFile
{
    version     2.0;
    format      ascii;
    arch        "LSB;label=32;scalar=64";
    class       volScalarField;
    location    "5";
    object      T;
}
// * * * * * * * * * * * * * * * * * * * * * * * * * * * * * * * * * * * * * //

dimensions      [0 0 0 1 0 0 0];

internalField   nonuniform List<scalar> 
4000
(
330.19793
328.93453
328.6928
328.6313
328.55896
328.5129
328.46875
328.43098
328.3947
328.36198
328.32921
328.29908
328.2685
328.23986
328.21082
328.18316
328.15524
328.12826
328.10122
328.07472
328.04836
328.02222
327.99643
327.97056
327.94522
327.91956
327.89462
327.86912
327.84452
327.81914
327.79483
327.76954
327.7455
327.72028
327.69648
327.67129
327.64772
327.62256
327.5992
327.57403
327.55089
327.52569
327.50277
327.47751
327.45483
327.42945
327.40707
327.38147
327.35957
327.33311
332.35533
330.30964
329.64118
329.50199
329.33167
329.23958
329.15336
329.08617
329.02349
328.97143
328.9193
328.87499
328.82941
328.78961
328.74861
328.71174
328.67414
328.63929
328.6043
328.57091
328.53798
328.50568
328.47442
328.44293
328.41306
328.38219
328.35349
328.3231
328.29542
328.26539
328.2386
328.20884
328.18285
328.15329
328.12802
328.09858
328.074
328.04461
328.02067
327.99127
327.96798
327.93849
327.91586
327.88618
327.86427
327.83425
327.81322
327.78254
327.76296
327.72981
333.68787
331.63258
330.58182
330.36683
330.10109
329.9635
329.83582
329.73937
329.65062
329.57926
329.50798
329.4495
329.38907
329.3381
329.28528
329.23917
329.19199
329.14925
329.10639
329.06609
329.02665
328.98815
328.95149
328.91435
328.87999
328.8439
328.81149
328.77619
328.74547
328.71077
328.68153
328.64729
328.61938
328.58546
328.55875
328.52504
328.49946
328.46585
328.44135
328.40771
328.38428
328.3505
328.32816
328.29407
328.27294
328.23828
328.21861
328.18285
328.16556
328.126
334.56864
332.85622
331.50104
331.21751
330.86205
330.68073
330.51312
330.38799
330.27393
330.1835
330.09355
330.021
329.94607
329.88395
329.81957
329.76423
329.70767
329.65703
329.60648
329.55924
329.51343
329.46873
329.42677
329.38397
329.34522
329.30388
329.26784
329.22762
329.19393
329.15455
329.12292
329.08418
329.0544
329.01611
328.98801
328.95002
328.92349
328.88563
328.86061
328.82273
328.79919
328.76111
328.73909
328.70058
328.68024
328.64095
328.62264
328.58184
328.56678
328.5212
335.17934
333.9437
332.38116
332.04282
331.60738
331.38591
331.18105
331.02851
330.89047
330.78149
330.67372
330.58736
330.49851
330.42539
330.34988
330.28539
330.21979
330.1613
330.10331
330.04917
329.9972
329.94629
329.89923
329.85077
329.80777
329.76119
329.72164
329.67649
329.63994
329.59588
329.56195
329.51871
329.48713
329.44448
329.41505
329.37277
329.34535
329.30325
329.27775
329.23563
329.21201
329.16965
329.14798
329.10507
329.08553
329.04164
329.02468
328.9789
328.96595
328.91482
335.61539
334.86765
333.20343
332.82964
332.32845
332.07244
331.83445
331.65663
331.4966
331.37003
331.24565
331.14601
331.04409
330.96029
330.87427
330.80082
330.72665
330.66044
330.59539
330.53442
330.47661
330.41956
330.36763
330.31355
330.26652
330.21471
330.17184
330.12179
330.08251
330.03379
329.99768
329.94997
329.9167
329.8697
329.83902
329.79249
329.76424
329.71792
329.69199
329.64566
329.62202
329.57539
329.5541
329.50683
329.48811
329.43967
329.42404
329.3734
329.36239
329.30621
335.93392
335.61801
333.95143
333.56429
333.01589
332.73297
332.4674
332.26742
332.08812
331.94542
331.80611
331.69401
331.58018
331.4862
331.39052
331.30844
331.22635
331.15263
331.08102
331.0134
330.95014
330.88707
330.8306
330.77099
330.7202
330.66325
330.61727
330.56237
330.52057
330.46724
330.42911
330.37696
330.34213
330.29083
330.25902
330.20827
330.17928
330.1288
330.10252
330.05202
330.0284
329.97757
329.95669
329.90513
329.88722
329.83434
329.81997
329.76466
329.75537
329.69463
336.17087
336.19701
334.61259
334.2342
333.66044
333.35986
333.07364
332.85558
332.66045
332.50363
332.35151
332.22813
332.10384
332.00043
331.89614
331.80595
331.71674
331.63588
331.55835
331.48433
331.41611
331.34722
331.28663
331.22165
331.16742
331.10546
331.05665
330.99702
330.95292
330.89507
330.85512
330.79862
330.76239
330.70687
330.67406
330.61916
330.58955
330.53497
330.50842
330.45384
330.43031
330.37536
330.35493
330.29917
330.28208
330.22489
330.21172
330.15197
330.14414
330.07934
336.35053
336.61944
335.18047
334.82957
334.25389
333.94578
333.6469
333.41574
333.20887
333.04048
332.87811
332.74497
332.61198
332.50014
332.38853
332.29092
332.19555
332.10805
332.02535
331.94531
331.87275
331.79834
331.7341
331.66399
331.60672
331.53995
331.48864
331.42444
331.3783
331.31609
331.27454
331.21382
331.17639
331.11675
331.0831
331.02418
330.99406
330.9355
330.90878
330.85022
330.82684
330.76791
330.74794
330.68815
330.67185
330.61054
330.59848
330.53457
330.52795
330.45954
336.48986
336.90758
335.65394
335.3447
334.78975
334.48428
334.18138
333.94273
333.72873
333.55181
333.38212
333.24109
333.10145
332.98242
332.86499
332.76083
332.66044
332.56695
332.47996
332.3944
332.31819
332.23864
332.17132
332.0964
332.03656
331.96523
331.9118
331.84326
331.79542
331.72903
331.68614
331.62139
331.58296
331.51939
331.48506
331.42227
331.39179
331.3294
331.30261
331.24024
331.21708
331.15432
331.13485
331.07122
331.05568
330.9905
330.97942
330.9117
330.90602
330.83442
336.60094
337.08845
336.03756
335.77845
335.26369
334.97032
334.67216
334.43197
334.21575
334.03371
333.85993
333.71317
333.56914
333.4444
333.32281
333.21317
333.10903
333.01036
332.92006
332.8296
332.75053
332.66634
332.59659
332.51725
332.45536
332.37982
332.3247
332.25211
332.20291
332.13261
332.08867
332.02011
331.98093
331.91364
331.87883
331.81238
331.78168
331.71567
331.68891
331.62295
331.60006
331.53371
331.51475
331.44751
331.4327
331.36393
331.35371
331.28254
331.27759
331.20317
336.69221
337.18965
336.33987
336.13389
335.67387
335.4007
335.11555
334.87972
334.66628
334.48273
334.30827
334.15814
334.01216
333.88337
333.75944
333.64554
333.53904
333.4361
333.3436
333.24896
333.16791
333.07967
333.00818
332.92492
332.86156
332.78221
332.72587
332.6496
332.59943
332.52554
332.48087
332.4088
332.36912
332.29837
332.26329
332.19344
332.16268
332.0933
332.06669
331.99737
331.97484
331.90514
331.88672
331.81615
331.80203
331.72999
331.72052
331.6463
331.64186
331.56498
336.76956
337.23699
336.57232
336.41746
336.02102
335.77428
335.50935
335.28336
335.07749
334.89608
334.72434
334.57335
334.42792
334.29689
334.17252
334.05571
333.94832
333.84216
333.74861
333.65063
333.56852
333.47691
333.40444
333.31783
333.25361
333.17095
333.1139
333.03436
332.98364
332.90653
332.86148
332.78624
332.74635
332.67246
332.63734
332.56438
332.53374
332.46128
332.43495
332.36256
332.34046
332.26772
332.24985
332.17629
332.1628
332.08787
332.07901
332.00214
331.99807
331.91907
336.83698
337.25185
336.74728
336.63791
336.30832
336.09205
335.85298
335.64157
335.44755
335.27177
335.10603
334.95667
334.8143
334.68288
334.55998
334.4417
334.33493
334.22668
334.13329
334.03288
333.95069
333.85646
333.78381
333.69448
333.63006
333.54463
333.48742
333.40509
333.35427
333.27437
333.22931
333.15128
333.11148
333.03482
332.99989
332.92417
332.89383
332.81862
332.7927
332.71759
332.69598
332.62055
332.60326
332.52706
332.51417
332.43672
332.42839
332.34928
332.34545
332.26465
336.897
337.25054
336.87713
336.80532
336.54096
336.35694
336.14751
335.95433
335.77579
335.60873
335.45198
335.30663
335.16968
335.03973
334.92019
334.80189
334.69724
334.58809
334.49607
334.3942
334.31292
334.21689
334.14487
334.05352
333.98957
333.90198
333.84515
333.76057
333.71011
333.62791
333.58321
333.50284
333.46342
333.38441
333.34992
333.27182
333.24198
333.1644
333.13901
333.06155
333.04052
332.96277
332.94607
332.86763
332.85531
332.77576
332.76786
332.68692
332.68327
332.60099
336.95136
337.24409
336.97295
336.93
336.72558
336.57343
336.39546
336.22298
336.06264
335.90687
335.76165
335.62246
335.49308
335.36635
335.25194
335.13506
335.03399
334.92512
334.83565
334.73333
334.65394
334.55696
334.48638
334.39374
334.33094
334.24183
334.18596
334.0997
334.05007
333.96607
333.92213
333.83989
333.80119
333.72026
333.68645
333.60641
333.57724
333.49771
333.47299
333.39359
333.37322
333.29356
333.27749
333.19722
333.18543
333.10422
333.09669
333.01433
333.0108
332.92738
337.00101
337.23898
337.04428
337.02175
336.86955
336.74716
336.6006
336.45001
336.30961
336.16703
336.03535
335.90412
335.78415
335.66224
335.55454
335.44045
335.34429
335.23687
335.15108
335.0493
334.97274
334.87567
334.80732
334.71416
334.65317
334.56321
334.50885
334.42151
334.37317
334.28794
334.24513
334.16154
334.12386
334.04149
334.00862
333.9271
333.8988
333.81775
333.79384
333.71292
333.69329
333.61217
333.59674
333.51509
333.50382
333.42137
333.41417
333.3308
333.32738
333.24314
337.04663
337.23824
337.09862
337.08917
336.98035
336.88432
336.7676
336.63885
336.51914
336.39094
336.27419
336.15232
336.04322
335.92747
335.82784
335.71776
335.62769
335.52281
335.44173
335.34145
335.2686
335.17229
335.10693
335.01399
334.95545
334.86533
334.81301
334.72522
334.67862
334.59273
334.55142
334.46701
334.43066
334.34736
334.31567
334.23313
334.20589
334.12379
334.10082
334.01885
334.00004
333.91789
333.90316
333.82056
333.80982
333.72657
333.71968
333.6357
333.63237
333.54767
337.08866
337.24263
337.14166
337.1394
337.06503
336.99123
336.9016
336.79362
336.69442
336.58106
336.47997
336.36842
336.27123
336.16271
336.0722
335.96719
335.88421
335.78285
335.70737
335.60948
335.54113
335.44639
335.3847
335.29273
335.23722
335.14761
335.09783
335.01022
334.96578
334.8798
334.84036
334.75567
334.72093
334.63721
334.60693
334.52389
334.49788
334.41521
334.39331
334.31075
334.29285
334.21014
334.19613
334.11305
334.10284
334.01922
334.01264
333.92844
333.92522
333.84041
337.12739
337.2515
337.17737
337.17797
337.12986
337.07391
337.00789
336.91882
336.83916
336.74042
336.6551
336.55436
336.46965
336.36912
336.28848
336.18938
336.11427
336.01726
335.94812
335.85343
335.79024
335.69784
335.64041
335.5501
335.49815
335.40971
335.36293
335.27609
335.23421
335.14871
335.11146
335.02703
334.99419
334.91056
334.88192
334.79885
334.77425
334.69149
334.67079
334.58811
334.5712
334.48838
334.47516
334.39203
334.38237
334.29881
334.29256
334.20853
334.20544
334.12087
337.16313
337.26378
337.20839
337.20897
337.1801
337.1378
337.0916
337.019
336.95729
336.8724
336.80241
336.71251
336.64044
336.54835
336.478
336.38542
336.3187
336.22673
336.16447
336.07368
336.01619
335.92679
335.87411
335.78612
335.73817
335.65151
335.60812
335.52265
335.48366
335.3992
335.36444
335.2808
335.25009
335.16707
335.14026
335.05766
335.03462
334.95225
334.93286
334.85052
334.83468
334.75222
334.73982
334.65709
334.64801
334.56493
334.55902
334.47555
334.47261
334.38865
337.19607
337.27819
337.23632
337.23518
337.21992
337.18753
337.15737
337.0986
337.05283
336.98056
336.92501
336.84559
336.78592
336.70237
336.64242
336.55673
336.49869
336.41226
336.35726
336.27091
336.21951
336.13368
336.08614
336.00104
335.95745
335.87313
335.83347
335.7499
335.7141
335.6312
335.59917
335.51683
335.48846
335.40654
335.38173
335.30009
335.27874
335.19722
335.17925
335.09771
335.08301
335.00134
334.98982
334.90791
334.89945
334.81724
334.81171
334.72916
334.7264
334.64341
337.22648
337.29375
337.26208
337.25842
337.25251
337.22688
337.20929
337.16165
337.12961
337.06845
337.02607
336.95648
336.90861
336.83344
336.78371
336.70506
336.65575
336.57517
336.52759
336.44611
336.40103
336.31925
336.27711
336.19538
336.15641
336.07492
336.03923
335.95806
335.92567
335.84482
335.81572
335.73515
335.7093
335.62894
335.60629
335.52604
335.50651
335.42629
335.40982
335.32952
335.31603
335.23557
335.22497
335.14429
335.13648
335.05553
335.0504
334.96914
334.96657
334.8849
337.25459
337.30967
337.28614
337.27976
337.28012
337.25878
337.25073
337.21173
337.19114
337.13946
337.10877
337.0481
337.01116
336.94398
336.90402
336.83234
336.79157
336.717
336.67683
336.60048
336.56182
336.48442
336.44783
336.36986
336.33568
336.25744
336.22589
336.14754
336.11873
336.04035
336.01434
335.93598
335.91278
335.83441
335.81401
335.73559
335.71797
335.63946
335.62456
335.5459
335.53368
335.45482
335.4452
335.36611
335.359
335.27965
335.27496
335.19534
335.19298
335.11297
337.28062
337.3255
337.3087
337.29978
337.30429
337.28544
337.28442
337.25184
337.24054
337.19667
337.17609
337.12329
337.09622
337.03645
337.0056
336.94065
336.90806
336.83946
336.80653
336.73544
336.70313
336.63036
336.59932
336.52542
336.49609
336.42143
336.3941
336.31894
336.2938
336.21828
336.19545
336.11966
336.09921
336.0232
336.00515
335.92894
335.91329
335.83687
335.82361
335.74696
335.73604
335.65915
335.65053
335.57339
335.567
335.48961
335.48538
335.40771
335.40558
335.32754
337.30478
337.34094
337.32987
337.31875
337.32603
337.30841
337.31242
337.28442
337.28046
337.24283
337.23075
337.18471
337.16634
337.11327
337.09073
337.0321
337.00716
336.94437
336.91835
336.85253
336.82638
336.75835
336.73277
336.66313
336.63862
336.5678
336.5447
336.47301
336.45157
336.37921
336.3596
336.28673
336.26905
336.19576
336.18009
336.10642
336.09278
336.01879
336.00719
335.93288
335.92331
335.84871
335.84112
335.76625
335.7606
335.68546
335.68171
335.60629
335.60441
335.52864
337.32725
337.35584
337.3497
337.33677
337.34593
337.32873
337.33627
337.3114
337.31307
337.28028
337.27517
337.23479
337.22389
337.17674
337.16159
337.1088
337.09085
337.03361
337.01404
336.95338
336.93309
336.86981
336.8495
336.78422
336.7644
336.69758
336.67864
336.61063
336.59286
336.52391
336.5075
336.4378
336.42291
336.3526
336.33932
336.26849
336.25687
336.1856
336.17567
336.104
336.09578
336.02376
336.01722
335.94489
335.94001
335.86739
335.86414
335.79123
335.7896
335.71636
337.34819
337.37015
337.36821
337.35387
337.36435
337.3471
337.35707
337.33422
337.3401
337.31095
337.31141
337.27565
337.27103
337.229
337.22029
337.17276
337.16108
337.10901
337.09535
337.03964
337.02481
336.96621
336.95087
336.88998
336.87464
336.81192
336.79699
336.73281
336.71859
336.65323
336.63996
336.57365
336.56149
336.49439
336.48347
336.41571
336.4061
336.33778
336.32953
336.26074
336.25386
336.18467
336.17918
336.10963
336.10552
336.03565
336.03291
335.96275
335.96137
335.8909
337.36773
337.38385
337.38546
337.37002
337.38148
337.36393
337.37554
337.35394
337.36288
337.3364
337.34119
337.30913
337.30964
337.27196
337.26873
337.22587
337.21968
337.17236
337.164
337.11297
337.10313
337.04905
337.03833
336.98175
336.97063
336.91201
336.9009
336.84061
336.8298
336.76814
336.75789
336.69511
336.6856
336.62188
336.61325
336.54875
336.54109
336.47593
336.46931
336.4036
336.39806
336.33189
336.32743
336.26087
336.25752
336.19061
336.18837
336.12116
336.12004
336.05252
337.38599
337.39695
337.4015
337.38522
337.3974
337.37948
337.39218
337.37129
337.3824
337.35782
337.36589
337.33674
337.34135
337.3073
337.30862
337.26984
337.26835
337.22534
337.22162
337.17495
337.16958
337.1198
337.11328
337.0609
337.05367
336.99911
336.99154
336.93516
336.92755
336.86965
336.86226
336.80309
336.7961
336.73588
336.72944
336.66834
336.66256
336.60071
336.59566
336.53319
336.52893
336.46594
336.4625
336.39908
336.39647
336.33269
336.33094
336.26684
336.26596
336.20157
337.40306
337.40944
337.41638
337.39946
337.41218
337.39388
337.40729
337.38679
337.39938
337.37613
337.38662
337.35972
337.36751
337.33646
337.34146
337.3062
337.30865
337.26947
337.26976
337.22708
337.22564
337.1799
337.17714
337.12877
337.12506
337.07445
337.07013
337.0176
337.01296
336.95881
336.95408
336.89857
336.89394
336.83728
336.83291
336.77528
336.77128
336.71283
336.70929
336.65016
336.64713
336.58743
336.58496
336.5248
336.52292
336.46237
336.4611
336.40023
336.39959
336.33845
337.41902
337.42134
337.43013
337.41272
337.42582
337.40721
337.42105
337.40076
337.41431
337.39201
337.4042
337.37904
337.38922
337.36062
337.36853
337.33628
337.34195
337.30616
337.30981
337.27076
337.27268
337.2307
337.23122
337.18665
337.18607
337.13925
337.13786
337.08908
337.08714
337.03668
337.0344
336.98251
336.98007
336.92697
336.92453
336.8704
336.86807
336.81307
336.81094
336.75521
336.75334
336.69701
336.69546
336.63863
336.63744
336.58021
336.5794
336.52184
336.52143
336.46361
337.43393
337.43263
337.4428
337.425
337.43834
337.41948
337.43356
337.41342
337.42755
337.40594
337.41927
337.39546
337.40737
337.38078
337.3909
337.3612
337.36943
337.33661
337.34302
337.30723
337.31198
337.27345
337.27678
337.23577
337.23792
337.19469
337.19589
337.15072
337.15118
337.10432
337.10424
337.05592
337.05547
337.0059
337.00521
336.95458
336.95377
336.90223
336.9014
336.84909
336.8483
336.79537
336.79468
336.74122
336.74067
336.68679
336.68641
336.63221
336.63201
336.57756
337.44783
337.44325
337.45438
337.43627
337.44972
337.43071
337.44489
337.42488
337.43931
337.41824
337.43229
337.40955
337.42266
337.39771
337.40946
337.38193
337.39212
337.36189
337.37049
337.33761
337.34469
337.3093
337.31498
337.27726
337.28173
337.2419
337.24532
337.2036
337.20616
337.16277
337.16463
337.11978
337.12109
337.07498
337.07587
337.02867
337.02925
336.98113
336.98148
336.93258
336.93277
336.88322
336.88331
336.83323
336.83326
336.78275
336.78276
336.73192
336.73192
336.68085
337.46072
337.45316
337.46486
337.44653
337.45997
337.4409
337.45507
337.43522
337.44976
337.42915
337.44359
337.42174
337.43561
337.41203
337.42491
337.39922
337.41087
337.3829
337.39319
337.36289
337.37181
337.33926
337.34686
337.31218
337.31857
337.2819
337.2872
337.24873
337.25308
337.213
337.21654
337.17502
337.17787
337.13511
337.13739
337.09355
337.09535
337.05058
337.05199
337.00643
337.0075
336.96129
336.96209
336.91534
336.9159
336.86873
336.86909
336.82159
336.82177
336.77405
337.47253
337.46224
337.4742
337.45572
337.46906
337.45003
337.46411
337.44449
337.459
337.43883
337.45342
337.43233
337.44663
337.42421
337.43784
337.41373
337.42639
337.40038
337.41191
337.38391
337.39424
337.36425
337.37336
337.34144
337.34938
337.31564
337.32249
337.28706
337.29291
337.25595
337.2609
337.22257
337.22673
337.18718
337.19066
337.15005
337.15291
337.11139
337.11372
337.07142
337.07327
337.03031
337.03174
336.98825
336.98929
336.94538
336.94606
336.90184
336.90217
336.85774
337.48308
337.47036
337.48235
337.46382
337.477
337.45812
337.47204
337.45273
337.4671
337.44738
337.46195
337.44156
337.45604
337.43464
337.44867
337.42594
337.43925
337.41496
337.42735
337.40139
337.41273
337.38505
337.39529
337.36589
337.37503
337.34399
337.35206
337.31945
337.32651
337.29247
337.29859
337.26326
337.26851
337.23202
337.23649
337.19899
337.20274
337.16435
337.16746
337.1283
337.13081
337.09102
337.09297
337.05266
337.0541
337.01337
337.01432
336.97329
336.97376
336.93254
337.49208
337.47736
337.48924
337.4708
337.48379
337.46515
337.47888
337.45995
337.47411
337.45489
337.46931
337.4496
337.46405
337.44357
337.45777
337.43625
337.44991
337.42715
337.44007
337.41592
337.42795
337.40232
337.41337
337.38625
337.39628
337.36769
337.37669
337.3467
337.35469
337.32337
337.33041
337.29789
337.30401
337.27041
337.27569
337.24112
337.24561
337.21019
337.21395
337.1778
337.18086
337.14409
337.1465
337.10923
337.11101
337.07335
337.07453
337.03658
337.03717
336.99903
337.49919
337.48309
337.49483
337.47664
337.48943
337.47116
337.48465
337.4662
337.4801
337.46142
337.4756
337.45656
337.47085
337.45124
337.46539
337.44498
337.45875
337.43735
337.45053
337.42799
337.44042
337.41665
337.42821
337.40315
337.41378
337.38743
337.39708
337.36948
337.37816
337.34936
337.35708
337.32718
337.33397
337.30306
337.30898
337.27717
337.28224
337.24963
337.2539
337.2206
337.2241
337.19022
337.19299
337.15863
337.16069
337.12595
337.12732
337.09231
337.09299
337.05781
337.50417
337.48746
337.49914
337.48137
337.49396
337.47618
337.48942
337.47151
337.48512
337.46703
337.48091
337.46256
337.47657
337.4578
337.47175
337.45237
337.46605
337.44588
337.4591
337.43801
337.4506
337.42849
337.44031
337.41711
337.42809
337.40377
337.41384
337.38842
337.39755
337.37107
337.37926
337.35178
337.35905
337.33065
337.33702
337.30779
337.31329
337.28332
337.28798
337.25737
337.2612
337.23005
337.23309
337.20148
337.20375
337.17179
337.1733
337.14109
337.14184
337.10947
337.507
337.4905
337.50221
337.48504
337.49746
337.48025
337.49323
337.47593
337.48923
337.47179
337.48532
337.46767
337.48134
337.46337
337.47703
337.45859
337.47205
337.453
337.46608
337.4463
337.45885
337.43823
337.45011
337.42859
337.4397
337.41722
337.42749
337.40405
337.41344
337.38906
337.39754
337.37228
337.37985
337.35376
337.36044
337.3336
337.33939
337.31188
337.3168
337.2887
337.29277
337.26416
337.2674
337.23838
337.2408
337.21145
337.21307
337.18348
337.18429
337.15457
337.50799
337.49235
337.50417
337.48773
337.49999
337.48346
337.49616
337.47954
337.49249
337.47574
337.48889
337.47197
337.48524
337.46807
337.48134
337.46381
337.47692
337.45892
337.47171
337.45313
337.46547
337.4462
337.45796
337.43794
337.449
337.42818
337.43846
337.41682
337.42628
337.40383
337.41242
337.38919
337.3969
337.37294
337.37977
337.35513
337.36109
337.33584
337.34092
337.31515
337.31936
337.29313
337.29649
337.26988
337.2724
337.24549
337.24717
337.22004
337.22089
337.19363
337.50767
337.49324
337.50518
337.48957
337.50168
337.48587
337.49829
337.48239
337.49498
337.47896
337.4917
337.47552
337.48835
337.47197
337.48479
337.46813
337.48081
337.46377
337.47618
337.45868
337.47069
337.45264
337.46413
337.44546
337.45632
337.43699
337.44714
337.42712
337.43649
337.41578
337.42434
337.40294
337.41066
337.38863
337.3955
337.37288
337.37888
337.35572
337.36086
337.33723
337.3415
337.31746
337.32088
337.2965
337.29906
337.27441
337.27613
337.25128
337.25214
337.22718
337.50661
337.49343
337.50544
337.49069
337.50263
337.4876
337.49972
337.48456
337.49678
337.4815
337.49381
337.47839
337.49074
337.47515
337.48747
337.47164
337.48382
337.46769
337.47962
337.46312
337.47469
337.45775
337.46885
337.4514
337.46193
337.44394
337.45382
337.43526
337.44442
337.42527
337.43366
337.41393
337.42154
337.40126
337.40804
337.38726
337.39321
337.37195
337.37706
337.35539
337.35965
337.33762
337.34104
337.3187
337.32127
337.2987
337.30041
337.27767
337.27853
337.25568
337.50522
337.49317
337.50513
337.49123
337.50296
337.48873
337.50053
337.48613
337.49797
337.48344
337.4953
337.48064
337.49249
337.47767
337.48945
337.47442
337.48605
337.47077
337.48215
337.46657
337.47761
337.46168
337.47229
337.45595
337.46604
337.44926
337.45876
337.44149
337.45033
337.43258
337.44071
337.42248
337.42986
337.41117
337.41778
337.39865
337.40446
337.38493
337.38994
337.37005
337.37423
337.35403
337.35739
337.33692
337.33945
337.31878
337.32047
337.29965
337.3005
337.27959
337.50375
337.49264
337.5044
337.49133
337.50281
337.48936
337.50082
337.48719
337.49861
337.48484
337.49624
337.48232
337.49365
337.47957
337.49079
337.47652
337.48755
337.47306
337.48384
337.4691
337.47956
337.46453
337.47459
337.45923
337.46881
337.4531
337.46213
337.44604
337.45446
337.43797
337.44574
337.42885
337.43592
337.41865
337.425
337.40737
337.41297
337.395
337.39983
337.38155
337.3856
337.36706
337.37032
337.35155
337.35401
337.33506
337.33671
337.31763
337.31846
337.29931
337.50229
337.49198
337.5034
337.4911
337.50227
337.4896
337.50067
337.4878
337.4988
337.48577
337.49667
337.48348
337.49427
337.4809
337.49152
337.47797
337.48837
337.47462
337.48475
337.47078
337.4806
337.46639
337.47583
337.46136
337.47036
337.45561
337.46411
337.44905
337.45699
337.44161
337.44895
337.43326
337.43996
337.42396
337.42998
337.41369
337.41902
337.40244
337.40705
337.39023
337.39409
337.37705
337.38016
337.36293
337.36528
337.3479
337.34947
337.33198
337.33277
337.31522
337.50085
337.49124
337.50222
337.49063
337.50143
337.4895
337.50017
337.48803
337.49858
337.48627
337.49666
337.48416
337.49437
337.48169
337.49168
337.4788
337.48853
337.47546
337.48491
337.47164
337.48078
337.4673
337.47608
337.4624
337.47077
337.45687
337.46478
337.45064
337.45805
337.44367
337.45052
337.43589
337.44216
337.42729
337.43294
337.41784
337.42285
337.40752
337.41186
337.39634
337.39998
337.38428
337.38722
337.37137
337.37359
337.35762
337.3591
337.34304
337.34379
337.32766
337.4994
337.49047
337.50091
337.48998
337.50037
337.48915
337.49939
337.48795
337.49801
337.48639
337.49623
337.4844
337.494
337.48194
337.49128
337.47901
337.48805
337.47558
337.48433
337.47168
337.48011
337.4673
337.47538
337.4624
337.4701
337.45696
337.46424
337.45092
337.45775
337.44424
337.45057
337.43688
337.44268
337.42881
337.43405
337.42001
337.42466
337.41045
337.41448
337.40012
337.40352
337.38902
337.39176
337.37714
337.37921
337.36449
337.36588
337.35109
337.35179
337.33695
337.49795
337.48968
337.49951
337.48921
337.49914
337.48861
337.49837
337.4876
337.49715
337.48616
337.49543
337.48419
337.49315
337.48167
337.49031
337.47859
337.48691
337.47499
337.48299
337.47091
337.47859
337.46637
337.47372
337.46137
337.46838
337.4559
337.46253
337.44993
337.45615
337.44342
337.4492
337.43634
337.44164
337.42866
337.43346
337.42036
337.42462
337.4114
337.41511
337.40178
337.4049
337.39147
337.39399
337.38047
337.38238
337.36879
337.37007
337.35642
337.35706
337.34337
337.49646
337.48888
337.49806
337.48835
337.49779
337.4879
337.49717
337.48702
337.49601
337.4856
337.49425
337.48355
337.49183
337.48085
337.48875
337.47752
337.48508
337.47364
337.48088
337.46929
337.47621
337.4645
337.47112
337.45931
337.46561
337.45372
337.45968
337.44772
337.45331
337.44127
337.44647
337.43435
337.43914
337.42694
337.43128
337.41901
337.42287
337.41053
337.41389
337.40148
337.40431
337.39183
337.39413
337.38158
337.38332
337.37073
337.3719
337.35925
337.35984
337.34716
337.49494
337.48807
337.49655
337.48742
337.49635
337.48706
337.4958
337.48621
337.49461
337.48471
337.49269
337.48245
337.48999
337.47944
337.48657
337.47575
337.48252
337.4715
337.47795
337.46678
337.47293
337.46167
337.46753
337.45621
337.46178
337.45042
337.4557
337.44429
337.44926
337.43782
337.44244
337.43098
337.43523
337.42374
337.4276
337.41607
337.41952
337.40796
337.41097
337.39936
337.40191
337.39027
337.39233
337.38065
337.38222
337.3705
337.37155
337.35981
337.36034
337.34856
337.49336
337.48724
337.495
337.48643
337.49484
337.4861
337.49428
337.48518
337.49294
337.48346
337.49071
337.48084
337.4876
337.47739
337.48371
337.47323
337.47918
337.46851
337.47414
337.46334
337.4687
337.45783
337.46293
337.45203
337.45688
337.44597
337.45057
337.43967
337.444
337.4331
337.43714
337.42626
337.42999
337.41911
337.4225
337.41163
337.41467
337.40379
337.40645
337.39556
337.39781
337.38692
337.38875
337.37784
337.37922
337.36829
337.36923
337.35828
337.35875
337.34777
337.49173
337.4864
337.49339
337.48539
337.49325
337.48502
337.4926
337.48391
337.49095
337.48179
337.48825
337.47866
337.48458
337.47463
337.4801
337.46988
337.47498
337.46458
337.46939
337.4589
337.46346
337.45293
337.45727
337.44674
337.45088
337.44037
337.4443
337.43383
337.43754
337.42712
337.43059
337.42022
337.42343
337.41311
337.41604
337.40575
337.40838
337.39812
337.40042
337.39018
337.39214
337.38191
337.3835
337.37327
337.37448
337.36425
337.36507
337.35482
337.35524
337.34497
337.49003
337.48554
337.49173
337.4843
337.4916
337.48382
337.49073
337.48234
337.48859
337.47965
337.48523
337.47582
337.48083
337.47106
337.47563
337.4656
337.46984
337.45966
337.46363
337.45339
337.45716
337.44691
337.4505
337.44029
337.44373
337.43358
337.43685
337.42678
337.42988
337.41989
337.42281
337.4129
337.41561
337.40577
337.40825
337.39849
337.40072
337.39101
337.39297
337.3833
337.38498
337.37534
337.3767
337.36709
337.36813
337.35852
337.35922
337.34961
337.34996
337.34033
337.48824
337.48466
337.49002
337.48316
337.48985
337.48244
337.48861
337.48039
337.48576
337.47691
337.48154
337.4722
337.47625
337.46657
337.47021
337.4603
337.46365
337.45363
337.45677
337.44673
337.44972
337.43971
337.44258
337.43265
337.4354
337.42557
337.42821
337.4185
337.42101
337.41141
337.41379
337.4043
337.40653
337.39714
337.39919
337.38989
337.39175
337.38253
337.38417
337.37502
337.37642
337.36732
337.36846
337.35939
337.36026
337.35121
337.3518
337.34275
337.34305
337.33399
337.48636
337.48376
337.48826
337.48197
337.48798
337.48084
337.48614
337.47796
337.48233
337.47344
337.47703
337.46767
337.47071
337.46104
337.46371
337.45387
337.45631
337.44642
337.44872
337.43886
337.44107
337.43128
337.43343
337.42376
337.42586
337.41632
337.41836
337.40897
337.41093
337.40168
337.40355
337.39445
337.39621
337.38724
337.38888
337.38001
337.38151
337.37275
337.37407
337.36539
337.36653
337.35791
337.35885
337.35028
337.35099
337.34245
337.34293
337.33439
337.33464
337.32609
337.48436
337.48288
337.48643
337.48071
337.48592
337.47891
337.4832
337.47489
337.47815
337.46909
337.47156
337.46207
337.46405
337.45432
337.45601
337.44618
337.44774
337.43792
337.43941
337.42969
337.43115
337.42156
337.42303
337.4136
337.41506
337.40581
337.40726
337.39818
337.39962
337.39071
337.3921
337.38335
337.38469
337.3761
337.37735
337.36889
337.37005
337.3617
337.36274
337.35449
337.35539
337.34722
337.34795
337.33984
337.34041
337.33232
337.33271
337.32463
337.32483
337.31674
337.48224
337.48203
337.48451
337.47934
337.48357
337.47651
337.47963
337.471
337.47302
337.46366
337.46494
337.45524
337.45612
337.44628
337.44698
337.43714
337.43781
337.42806
337.42875
337.41916
337.41991
337.41051
337.41132
337.40212
337.403
337.394
337.39493
337.38614
337.38709
337.37849
337.37945
337.37104
337.37198
337.36375
337.36465
337.35657
337.35741
337.34946
337.35023
337.34238
337.34306
337.3353
337.33585