/*--------------------------------*- C++ -*----------------------------------*\
| =========                 |                                                 |
| \\      /  F ield         | OpenFOAM: The Open Source CFD Toolbox           |
|  \\    /   O peration     | Version:  2312                                  |
|   \\  /    A nd           | Website:  www.openfoam.com                      |
|    \\/     M anipulation  |                                                 |
\*---------------------------------------------------------------------------*/
FoamFile
{
    version     2.0;
    format      ascii;
    arch        "LSB;label=32;scalar=64";
    class       volVectorField;
    location    "5";
    object      U;
}
// * * * * * * * * * * * * * * * * * * * * * * * * * * * * * * * * * * * * * //

dimensions      [0 1 -1 0 0 0 0];

internalField   nonuniform List<vector> 
4000
(
(0.0034306821 0.00064415606 0)
(0.0064114484 -8.7260984e-06 0)
(0.0031582263 3.4066737e-08 0)
(0.0038598212 -6.8029846e-07 0)
(0.0036060126 9.0804349e-08 0)
(0.0035848686 -1.9893474e-07 0)
(0.0035902826 1.0012659e-07 0)
(0.0035357989 -1.6686316e-07 0)
(0.0035642208 1.211111e-07 0)
(0.0035307308 -1.2699673e-07 0)
(0.003556121 1.1278014e-07 0)
(0.0035321518 -1.0698131e-07 0)
(0.0035532354 9.9611202e-08 0)
(0.0035336893 -9.3485268e-08 0)
(0.003551677 8.7654058e-08 0)
(0.0035348683 -8.239197e-08 0)
(0.0035505236 7.73993e-08 0)
(0.0035358549 -7.2837361e-08 0)
(0.0035495623 6.8531965e-08 0)
(0.0035367221 -6.4548994e-08 0)
(0.0035487316 6.0820738e-08 0)
(0.0035374883 -5.73482e-08 0)
(0.0035480049 5.4110531e-08 0)
(0.0035381654 -5.1085785e-08 0)
(0.0035473651 4.827007e-08 0)
(0.003538765 -4.5636346e-08 0)
(0.0035467984 4.3186903e-08 0)
(0.0035392982 -4.089545e-08 0)
(0.0035462936 3.8766791e-08 0)
(0.0035397746 -3.6776942e-08 0)
(0.0035458414 3.4931854e-08 0)
(0.0035402028 -3.3210128e-08 0)
(0.0035454337 3.1618174e-08 0)
(0.0035405901 -3.0137158e-08 0)
(0.0035450637 2.8773458e-08 0)
(0.0035409428 -2.751074e-08 0)
(0.0035447255 2.6354979e-08 0)
(0.0035412664 -2.5292259e-08 0)
(0.0035444141 2.4327901e-08 0)
(0.0035415657 -2.3450348e-08 0)
(0.0035441246 2.2664046e-08 0)
(0.0035418453 -2.1959979e-08 0)
(0.0035438531 2.1341434e-08 0)
(0.0035421094 -2.0800994e-08 0)
(0.0035435965 2.0347879e-08 0)
(0.0035423626 -1.9954261e-08 0)
(0.0035433463 1.9679133e-08 0)
(0.0035425776 -1.9473626e-08 0)
(0.0035429901 1.9009472e-08 0)
(0.0035424835 -2.0967507e-08 0)
(0.0080979849 0.0016805711 0)
(0.016776408 1.7570759e-05 0)
(0.0099426042 3.3368412e-05 0)
(0.011038968 -5.4270606e-06 0)
(0.010477987 4.0311222e-06 0)
(0.010383479 -3.296191e-07 0)
(0.010424071 1.1461607e-06 0)
(0.010260449 -1.4473533e-07 0)
(0.010346926 5.3369358e-07 0)
(0.010247975 -3.3463921e-07 0)
(0.010323439 3.9815262e-07 0)
(0.010252587 -3.551167e-07 0)
(0.010315255 3.4950764e-07 0)
(0.010257202 -3.2743779e-07 0)
(0.010310767 3.115423e-07 0)
(0.010260705 -2.924111e-07 0)
(0.01030738 2.7628635e-07 0)
(0.010263638 -2.595433e-07 0)
(0.010304534 2.4480375e-07 0)
(0.01026622 -2.3039666e-07 0)
(0.010302068 2.1733165e-07 0)
(0.010268504 -2.0488834e-07 0)
(0.010299905 1.9342832e-07 0)
(0.010270525 -1.8262901e-07 0)
(0.010297997 1.7261309e-07 0)
(0.010272318 -1.6321699e-07 0)
(0.010296303 1.5447953e-07 0)
(0.010273916 -1.4630162e-07 0)
(0.010294791 1.3869517e-07 0)
(0.010275347 -1.3158906e-07 0)
(0.010293434 1.2498843e-07 0)
(0.010276635 -1.1883629e-07 0)
(0.010292208 1.131372e-07 0)
(0.010277802 -1.0784313e-07 0)
(0.010291094 1.0295932e-07 0)
(0.010278867 -9.8444761e-08 0)
(0.010290074 9.4305005e-08 0)
(0.010279845 -9.0505335e-08 0)
(0.010289134 8.7051077e-08 0)
(0.010280751 -8.3913008e-08 0)
(0.010288258 8.109658e-08 0)
(0.010281599 -7.8577662e-08 0)
(0.010287434 7.6355675e-08 0)
(0.010282402 -7.4437737e-08 0)
(0.010286653 7.2756642e-08 0)
(0.010283175 -7.1380265e-08 0)
(0.010285899 7.0626099e-08 0)
(0.010283876 -6.8114543e-08 0)
(0.01028493 7.3180073e-08 0)
(0.010283786 -6.5975998e-08 0)
(0.011170309 0.0022674407 0)
(0.025791369 -3.8592759e-05 0)
(0.016505 7.578484e-05 0)
(0.018035504 -9.0965286e-06 0)
(0.017153916 9.6231858e-06 0)
(0.01699438 -4.1699947e-07 0)
(0.017080385 2.5529016e-06 0)
(0.016805834 3.5837111e-08 0)
(0.016957037 1.0313704e-06 0)
(0.016789938 -5.3309131e-07 0)
(0.016918822 7.2192616e-07 0)
(0.016798771 -6.3255747e-07 0)
(0.016905427 6.3417777e-07 0)
(0.016806772 -5.9474773e-07 0)
(0.016897936 5.6836718e-07 0)
(0.016812748 -5.3332217e-07 0)
(0.016892218 5.0482964e-07 0)
(0.016817739 -4.7393397e-07 0)
(0.016887394 4.4737639e-07 0)
(0.01682213 -4.2092394e-07 0)
(0.016883207 3.9719679e-07 0)
(0.016826015 -3.7442639e-07 0)
(0.016879531 3.5354331e-07 0)
(0.016829456 -3.3380636e-07 0)
(0.016876283 3.1552405e-07 0)
(0.016832512 -2.983556e-07 0)
(0.016873397 2.8239124e-07 0)
(0.016835237 -2.6744599e-07 0)
(0.016870819 2.5353884e-07 0)
(0.016837679 -2.4054831e-07 0)
(0.016868502 2.2847411e-07 0)
(0.016839881 -2.1722384e-07 0)
(0.016866408 2.0679461e-07 0)
(0.016841876 -1.9711044e-07 0)
(0.016864503 1.881701e-07 0)
(0.016843697 -1.7990926e-07 0)
(0.016862759 1.7232842e-07 0)
(0.016845372 -1.6537314e-07 0)
(0.016861149 1.5904489e-07 0)
(0.016846924 -1.5329745e-07 0)
(0.016859648 1.4813447e-07 0)
(0.016848377 -1.4351584e-07 0)
(0.016858236 1.3943563e-07 0)
(0.016849754 -1.3592088e-07 0)
(0.016856896 1.3278851e-07 0)
(0.016851081 -1.3031386e-07 0)
(0.016855604 1.2887452e-07 0)
(0.016852315 -1.2365115e-07 0)
(0.01685402 1.3627076e-07 0)
(0.01685234 -1.1976609e-07 0)
(0.017677363 0.0037799794 0)
(0.034351307 -3.2844343e-05 0)
(0.022796613 0.00012983776 0)
(0.02484358 -1.473611e-05 0)
(0.023636091 1.7737487e-05 0)
(0.023418591 -4.3624329e-07 0)
(0.023558468 4.3759326e-06 0)
(0.02317224 4.9265867e-07 0)
(0.023394634 1.5498948e-06 0)
(0.023156754 -6.4582458e-07 0)
(0.023342351 1.0236415e-06 0)
(0.023170669 -8.8372947e-07 0)
(0.023323853 9.0297741e-07 0)
(0.02318232 -8.4884514e-07 0)
(0.023313296 8.1482173e-07 0)
(0.023190911 -7.6454096e-07 0)
(0.023305145 7.2508018e-07 0)
(0.023198074 -6.8027443e-07 0)
(0.023298241 6.4269546e-07 0)
(0.023204375 -6.045209e-07 0)
(0.023292238 5.7065545e-07 0)
(0.023209952 -5.3790762e-07 0)
(0.023286963 5.0799103e-07 0)
(0.023214894 -4.7964246e-07 0)
(0.023282298 4.5340384e-07 0)
(0.023219287 -4.2874959e-07 0)
(0.023278149 4.0581369e-07 0)
(0.023223207 -3.8434738e-07 0)
(0.023274439 3.6435344e-07 0)
(0.023226722 -3.4568844e-07 0)
(0.023271104 3.2832131e-07 0)
(0.023229891 -3.1215138e-07 0)
(0.023268088 2.9714499e-07 0)
(0.023232765 -2.8322195e-07 0)
(0.023265345 2.703544e-07 0)
(0.023235389 -2.5847471e-07 0)
(0.023262832 2.4756118e-07 0)
(0.023237801 -2.3755649e-07 0)
(0.023260512 2.2844376e-07 0)
(0.023240038 -2.2017353e-07 0)
(0.023258351 2.1273636e-07 0)
(0.023242131 -2.0608575e-07 0)
(0.023256317 2.0020189e-07 0)
(0.023244114 -1.9514861e-07 0)
(0.023254384 1.9057317e-07 0)
(0.023246027 -1.870918e-07 0)
(0.023252526 1.8496901e-07 0)
(0.02324783 -1.7656503e-07 0)
(0.023250325 1.9970629e-07 0)
(0.023248091 -1.7148019e-07 0)
(0.020403615 0.0040413127 0)
(0.041874135 -0.000129872 0)
(0.028876011 0.00019376052 0)
(0.031487378 -2.1608653e-05 0)
(0.029921992 2.8364153e-05 0)
(0.029657543 -4.7745967e-07 0)
(0.029856581 6.5424906e-06 0)
(0.029359913 1.1927419e-06 0)
(0.029659457 2.0487425e-06 0)
(0.029348691 -6.664046e-07 0)
(0.029593883 1.2860141e-06 0)
(0.029368419 -1.0983326e-06 0)
(0.02957042 1.1436606e-06 0)
(0.029383939 -1.0793102e-06 0)
(0.029556751 1.0405297e-06 0)
(0.029395267 -9.7649836e-07 0)
(0.02954608 9.2789126e-07 0)
(0.029404706 -8.6999517e-07 0)
(0.029537005 8.2265416e-07 0)
(0.029413011 -7.735551e-07 0)
(0.029529101 7.305058e-07 0)
(0.029420363 -6.8853104e-07 0)
(0.029522149 6.5035554e-07 0)
(0.029426881 -6.1406618e-07 0)
(0.029515995 5.8052105e-07 0)
(0.029432678 -5.4896716e-07 0)
(0.029510518 5.1961312e-07 0)
(0.029437854 -4.921335e-07 0)
(0.029505618 4.6652712e-07 0)
(0.029442498 -4.4262585e-07 0)
(0.029501211 4.2037321e-07 0)
(0.029446686 -3.9966069e-07 0)
(0.029497226 3.8042652e-07 0)
(0.029450485 -3.6258764e-07 0)
(0.029493601 3.4609098e-07 0)
(0.029453951 -3.3086703e-07 0)
(0.029490281 3.1687284e-07 0)
(0.029457138 -3.0404928e-07 0)
(0.029487216 2.9236189e-07 0)
(0.029460092 -2.8175866e-07 0)
(0.029484363 2.7221816e-07 0)
(0.029462857 -2.6368642e-07 0)
(0.029481677 2.5613258e-07 0)
(0.029465473 -2.4966075e-07 0)
(0.029479126 2.4371411e-07 0)
(0.029467996 -2.3936739e-07 0)
(0.029476677 2.3654644e-07 0)
(0.029470398 -2.247867e-07 0)
(0.029473855 2.6054909e-07 0)
(0.029470996 -2.1880726e-07 0)
(0.025504162 0.0049552859 0)
(0.049277745 -0.00012894362 0)
(0.034743051 0.00026455803 0)
(0.037932158 -3.0924262e-05 0)
(0.036011292 4.156051e-05 0)
(0.035713113 -6.4622767e-07 0)
(0.03597317 9.0001866e-06 0)
(0.035369817 2.0780543e-06 0)
(0.035751124 2.50679e-06 0)
(0.035366251 -6.0326675e-07 0)
(0.035673141 1.5074931e-06 0)
(0.035392334 -1.2797914e-06 0)
(0.035644877 1.3572631e-06 0)
(0.035411872 -1.2880321e-06 0)
(0.035628083 1.2467468e-06 0)
(0.035426024 -1.1705335e-06 0)
(0.035614831 1.1143784e-06 0)
(0.035437817 -1.044183e-06 0)
(0.035603516 9.8822602e-07 0)
(0.035448196 -9.2895614e-07 0)
(0.035593646 8.7760065e-07 0)
(0.035457388 -8.2710378e-07 0)
(0.035584956 7.8138426e-07 0)
(0.035465542 -7.3778281e-07 0)
(0.035577257 6.9753238e-07 0)
(0.035472797 -6.5962831e-07 0)
(0.035570401 6.2436954e-07 0)
(0.035479278 -5.9135325e-07 0)
(0.035564265 5.6057594e-07 0)
(0.035485095 -5.318506e-07 0)
(0.035558745 5.050929e-07 0)
(0.035490341 -4.8019328e-07 0)
(0.035553753 4.5705861e-07 0)
(0.035495099 -4.3560904e-07 0)
(0.035549212 4.1576328e-07 0)
(0.035499441 -3.9745488e-07 0)
(0.035545054 3.8061712e-07 0)
(0.035503432 -3.6519308e-07 0)
(0.035541218 3.5112859e-07 0)
(0.035507129 -3.3837214e-07 0)
(0.035537647 3.2688907e-07 0)
(0.035510588 -3.1661879e-07 0)
(0.035534288 3.0752062e-07 0)
(0.035513859 -2.9974101e-07 0)
(0.035531097 2.924921e-07 0)
(0.035517012 -2.8740992e-07 0)
(0.035528039 2.8384882e-07 0)
(0.035520032 -2.6866075e-07 0)
(0.035524595 3.185608e-07 0)
(0.035521055 -2.6160407e-07 0)
(0.029718041 0.005750672 0)
(0.05546314 -0.00023113966 0)
(0.040491058 0.00033379216 0)
(0.044138743 -3.641292e-05 0)
(0.041906775 5.8028858e-05 0)
(0.041588041 -9.3559209e-07 0)
(0.041907871 1.1751825e-05 0)
(0.041203358 3.0981154e-06 0)
(0.041669277 2.9079794e-06 0)
(0.041209936 -4.6506433e-07 0)
(0.041579867 1.6878525e-06 0)
(0.041242724 -1.4316263e-06 0)
(0.041546979 1.5453099e-06 0)
(0.041266366 -1.4771031e-06 0)
(0.041527069 1.435003e-06 0)
(0.041283395 -1.3481958e-06 0)
(0.0415112 1.2858664e-06 0)
(0.041297594 -1.2041145e-06 0)
(0.0414976 1.1405666e-06 0)
(0.041310097 -1.071823e-06 0)
(0.041485719 1.0129562e-06 0)
(0.041321174 -9.5458494e-07 0)
(0.041475248 9.0197273e-07 0)
(0.041331004 -8.5163555e-07 0)
(0.041465964 8.0522955e-07 0)
(0.041339756 -7.6147913e-07 0)
(0.041457692 7.2078645e-07 0)
(0.041347578 -6.8267131e-07 0)
(0.041450286 6.4712897e-07 0)
(0.0413546 -6.1395909e-07 0)
(0.041443622 5.8304696e-07 0)
(0.041360934 -5.5428842e-07 0)
(0.041437596 5.275555e-07 0)
(0.041366678 -5.0277757e-07 0)
(0.041432114 4.7984174e-07 0)
(0.041371919 -4.5868977e-07 0)
(0.041427096 4.3922816e-07 0)
(0.041376733 -4.2140641e-07 0)
(0.041422468 4.0514809e-07 0)
(0.041381193 -3.9040564e-07 0)
(0.041418162 3.7712923e-07 0)
(0.041385362 -3.6525308e-07 0)
(0.041414114 3.5472784e-07 0)
(0.041389304 -3.4574197e-07 0)
(0.04141027 3.372582e-07 0)
(0.041393098 -3.315602e-07 0)
(0.041406588 3.2720033e-07 0)
(0.04139675 -3.0861079e-07 0)
(0.041402524 3.7362746e-07 0)
(0.041398273 -2.9998693e-07 0)
(0.033958106 0.0060214736 0)
(0.06127965 -0.00025555786 0)
(0.046192617 0.00039685842 0)
(0.049858353 -4.6567926e-05 0)
(0.047583323 7.4837075e-05 0)
(0.047277375 -1.7297134e-06 0)
(0.047658899 1.4713889e-05 0)
(0.046861744 4.1885137e-06 0)
(0.047413506 3.2408119e-06 0)
(0.046880146 -2.5913277e-07 0)
(0.047313844 1.8258167e-06 0)
(0.046919846 -1.5554367e-06 0)
(0.047276519 1.7077925e-06 0)
(0.046947627 -1.6470128e-06 0)
(0.04725352 1.6053874e-06 0)
(0.046967559 -1.5096465e-06 0)
(0.047235019 1.4423919e-06 0)
(0.046984195 -1.3498457e-06 0)
(0.047219107 1.2796887e-06 0)
(0.046998854 -1.2021748e-06 0)
(0.047205186 1.1365738e-06 0)
(0.047011845 -1.0709757e-06 0)
(0.047192906 1.0121133e-06 0)
(0.047023382 -9.5561521e-07 0)
(0.04718201 9.0359896e-07 0)
(0.047033656 -8.5450505e-07 0)
(0.047172297 8.0884757e-07 0)
(0.047042842 -7.6607144e-07 0)
(0.047163598 7.2617007e-07 0)
(0.04705109 -6.889361e-07 0)
(0.04715577 6.5422136e-07 0)
(0.047058531 -6.2193348e-07 0)
(0.04714869 5.9190637e-07 0)
(0.047065279 -5.6408413e-07 0)
(0.047142252 5.3831934e-07 0)
(0.047071434 -5.1456647e-07 0)
(0.04713636 4.9270278e-07 0)
(0.047077087 -4.7268794e-07 0)
(0.047130927 4.5442114e-07 0)
(0.04708232 -4.3786173e-07 0)
(0.047125874 4.2294328e-07 0)
(0.047087211 -4.0959603e-07 0)
(0.047121127 3.9776347e-07 0)
(0.047091833 -3.8767367e-07 0)
(0.04711662 3.7803014e-07 0)
(0.047096277 -3.718326e-07 0)
(0.047112306 3.666181e-07 0)
(0.047100569 -3.4473671e-07 0)
(0.047107625 4.2540509e-07 0)
(0.047102652 -3.3390235e-07 0)
(0.038677406 0.0069149636 0)
(0.065668636 -0.00039080441 0)
(0.05201721 0.0004805687 0)
(0.055048211 -5.3441507e-05 0)
(0.05304529 9.0858541e-05 0)
(0.052777506 -2.9286713e-06 0)
(0.05322637 1.7866592e-05 0)
(0.052345971 5.2990846e-06 0)
(0.052983463 3.497167e-06 0)
(0.052377217 7.4272741e-09 0)
(0.052874914 1.9205058e-06 0)
(0.05242392 -1.652085e-06 0)
(0.052833326 1.8444953e-06 0)
(0.052455837 -1.7977898e-06 0)
(0.052807276 1.7576808e-06 0)
(0.052478674 -1.6546954e-06 0)
(0.052786143 1.5836904e-06 0)
(0.052497761 -1.4811362e-06 0)
(0.052767908 1.405333e-06 0)
(0.05251459 -1.3197708e-06 0)
(0.052751932 1.2482111e-06 0)
(0.052529512 -1.1760456e-06 0)
(0.052737827 1.1115811e-06 0)
(0.052542769 -1.0495061e-06 0)
(0.052725305 9.9243351e-07 0)
(0.052554581 -9.385076e-07 0)
(0.052714137 8.8836403e-07 0)
(0.052565146 -8.4137337e-07 0)
(0.052704131 7.9752863e-07 0)
(0.052574633 -7.5661942e-07 0)
(0.052695127 7.1846307e-07 0)
(0.052583192 -6.8298348e-07 0)
(0.052686984 6.499746e-07 0)
(0.052590953 -6.1939947e-07 0)
(0.052679579 5.9107425e-07 0)
(0.05259803 -5.6496974e-07 0)
(0.052672804 5.409323e-07 0)
(0.052604529 -5.1893473e-07 0)
(0.05266656 4.988504e-07 0)
(0.052610543 -4.8064814e-07 0)
(0.052660755 4.6424373e-07 0)
(0.052616161 -4.4956453e-07 0)
(0.052655303 4.3654895e-07 0)
(0.052621467 -4.254603e-07 0)
(0.052650128 4.1474107e-07 0)
(0.052626565 -4.0815676e-07 0)
(0.052645179 4.0204129e-07 0)
(0.052631499 -3.7704269e-07 0)
(0.052639887 4.735157e-07 0)
(0.052634195 -3.6330853e-07 0)
(0.043018537 0.00703072 0)
(0.069962393 -0.00043505038 0)
(0.057666817 0.00055091262 0)
(0.059781508 -6.1913065e-05 0)
(0.058322768 0.00010337457 0)
(0.058078712 -4.7474148e-06 0)
(0.058610339 2.1074862e-05 0)
(0.057656569 6.364661e-06 0)
(0.058378924 3.6670048e-06 0)
(0.057701424 3.2419693e-07 0)
(0.058262957 1.9709453e-06 0)
(0.057755138 -1.7226993e-06 0)
(0.058217253 1.9554062e-06 0)
(0.05779115 -1.9296325e-06 0)
(0.058188196 1.8918465e-06 0)
(0.057816874 -1.7833149e-06 0)
(0.058164444 1.7096564e-06 0)
(0.05783841 -1.5978954e-06 0)
(0.058143887 1.5173815e-06 0)
(0.057857413 -1.4245038e-06 0)
(0.058125855 1.3477522e-06 0)
(0.05787427 -1.2696845e-06 0)
(0.058109922 1.2002645e-06 0)
(0.057889253 -1.133201e-06 0)
(0.058095768 1.0716281e-06 0)
(0.057902608 -1.013386e-06 0)
(0.05808314 9.5923913e-07 0)
(0.057914555 -9.0848505e-07 0)
(0.058071823 8.6111747e-07 0)
(0.057925286 -8.1692667e-07 0)
(0.058061638 7.7569473e-07 0)
(0.057934967 -7.3736556e-07 0)
(0.058052428 7.0169214e-07 0)
(0.057943744 -6.6865966e-07 0)
(0.058044055 6.3804692e-07 0)
(0.057951746 -6.0984363e-07 0)
(0.058036395 5.8386451e-07 0)
(0.057959092 -5.600977e-07 0)
(0.058029338 5.3839008e-07 0)
(0.057965888 -5.1872174e-07 0)
(0.05802278 5.0099022e-07 0)
(0.057972234 -4.8512083e-07 0)
(0.058016622 4.7104906e-07 0)
(0.057978225 -4.5906785e-07 0)
(0.058010779 4.4736391e-07 0)
(0.057983976 -4.4049973e-07 0)
(0.058005193 4.3344892e-07 0)
(0.057989551 -4.055551e-07 0)
(0.057999299 5.1765331e-07 0)
(0.057992902 -3.882482e-07 0)
(0.048020076 0.007811435 0)
(0.073257942 -0.0005615671 0)
(0.062967717 0.00059925093 0)
(0.064265914 -6.7573286e-05 0)
(0.063448038 0.0001126469 0)
(0.063167114 -7.3498033e-06 0)
(0.063809467 2.4052208e-05 0)
(0.062794387 7.3136874e-06 0)
(0.063599646 3.7495577e-06 0)
(0.062852988 6.8199858e-07 0)
(0.063477876 1.9775357e-06 0)
(0.062913666 -1.7680491e-06 0)
(0.063428169 2.0408779e-06 0)
(0.062953705 -2.042835e-06 0)
(0.063396156 2.0080497e-06 0)
(0.062982283 -1.8956173e-06 0)
(0.063369808 1.8203469e-06 0)
(0.063006252 -1.7001708e-06 0)
(0.063346944 1.6158568e-06 0)
(0.06302742 -1.5163944e-06 0)
(0.063326865 1.435205e-06 0)
(0.063046205 -1.3518972e-06 0)
(0.063309109 1.2781628e-06 0)
(0.063062908 -1.2066968e-06 0)
(0.063293328 1.1411777e-06 0)
(0.063077802 -1.0791344e-06 0)
(0.063279242 1.0214671e-06 0)
(0.06309113 -9.6740073e-07 0)
(0.063266618 9.1693194e-07 0)
(0.063103101 -8.6985379e-07 0)
(0.063255255 8.2591376e-07 0)
(0.063113901 -7.850781e-07 0)
(0.063244981 7.470588e-07 0)
(0.063123691 -7.1186549e-07 0)
(0.063235642 6.7923936e-07 0)
(0.063132615 -6.4919108e-07 0)
(0.063227102 6.2150349e-07 0)
(0.063140805 -5.961817e-07 0)
(0.063219235 5.7304591e-07 0)
(0.063148379 -5.5208905e-07 0)
(0.063211926 5.3319002e-07 0)
(0.06315545 -5.1627294e-07 0)
(0.063205067 5.0127271e-07 0)
(0.063162123 -4.8850535e-07 0)
(0.063198559 4.7591294e-07 0)
(0.063168523 -4.6886823e-07 0)
(0.063192339 4.6086149e-07 0)
(0.063174733 -4.3032841e-07 0)
(0.063185852 5.5758409e-07 0)
(0.063178771 -4.0883412e-07 0)
(0.052434837 0.0078396844 0)
(0.07663264 -0.00062581981 0)
(0.06804409 0.00065700708 0)
(0.068585437 -6.9487241e-05 0)
(0.068431945 0.00011859913 0)
(0.068046256 -1.0420852e-05 0)
(0.068826585 2.6568987e-05 0)
(0.067760623 8.1028406e-06 0)
(0.068645586 3.7457705e-06 0)
(0.067832113 1.0705264e-06 0)
(0.068519621 1.9404797e-06 0)
(0.067899653 -1.7888031e-06 0)
(0.068465962 2.1013677e-06 0)
(0.067943623 -2.1377582e-06 0)
(0.068431046 2.1065409e-06 0)
(0.067975007 -1.9917978e-06 0)
(0.068402136 1.9158973e-06 0)
(0.068001383 -1.7880895e-06 0)
(0.068376989 1.7008548e-06 0)
(0.068024695 -1.5955355e-06 0)
(0.06835488 1.5106454e-06 0)
(0.068045393 -1.4227554e-06 0)
(0.068335316 1.3453382e-06 0)
(0.068063804 -1.2700517e-06 0)
(0.06831792 1.2011355e-06 0)
(0.068080225 -1.1358029e-06 0)
(0.068302389 1.0750953e-06 0)
(0.068094922 -1.0181658e-06 0)
(0.068288467 9.6501595e-07 0)
(0.068108124 -9.1544339e-07 0)
(0.068275936 8.691618e-07 0)
(0.068120033 -8.2616163e-07 0)
(0.068264606 7.8611447e-07 0)
(0.068130828 -7.4905589e-07 0)
(0.06825431 7.1469002e-07 0)
(0.068140666 -6.8304966e-07 0)
(0.068244896 6.5388626e-07 0)
(0.068149692 -6.2722303e-07 0)
(0.068236227 6.0285381e-07 0)
(0.068158038 -5.8078532e-07 0)
(0.068228175 5.608781e-07 0)
(0.068165826 -5.4305572e-07 0)
(0.068220621 5.2725461e-07 0)
(0.068173174 -5.1380691e-07 0)
(0.068213456 5.0042635e-07 0)
(0.068180215 -4.9329217e-07 0)
(0.068206608 4.8432431e-07 0)
(0.068187053 -4.5143169e-07 0)
(0.06819954 5.9312905e-07 0)
(0.068191803 -4.2522532e-07 0)
(0.057664573 0.0084036714 0)
(0.07917368 -0.00075581807 0)
(0.072908801 0.00070267563 0)
(0.072776647 -7.2078448e-05 0)
(0.073261162 0.00012096781 0)
(0.072734258 -1.3478444e-05 0)
(0.073665819 2.8482014e-05 0)
(0.072556053 8.6967212e-06 0)
(0.073516746 3.6642908e-06 0)
(0.072638898 1.4797385e-06 0)
(0.073388148 1.8605919e-06 0)
(0.072713224 -1.7850868e-06 0)
(0.073330528 2.1375614e-06 0)
(0.072761005 -2.2147586e-06 0)
(0.073292766 2.1876408e-06 0)
(0.072795139 -2.0721034e-06 0)
(0.073261338 1.9965026e-06 0)
(0.072823887 -1.8618321e-06 0)
(0.07323394 1.7725277e-06 0)
(0.072849316 -1.6620707e-06 0)
(0.073209829 1.5742009e-06 0)
(0.072871902 -1.4823783e-06 0)
(0.07318848 1.4019003e-06 0)
(0.072891999 -1.3233685e-06 0)
(0.073169489 1.2515983e-06 0)
(0.072909929 -1.1834831e-06 0)
(0.07315253 1.1202113e-06 0)
(0.072925978 -1.0608639e-06 0)
(0.073137326 1.00545e-06 0)
(0.072940395 -9.5377263e-07 0)
(0.073123642 9.0551359e-07 0)
(0.0729534 -8.6068816e-07 0)
(0.073111271 8.1892896e-07 0)
(0.072965185 -7.8029829e-07 0)
(0.073100031 7.4446428e-07 0)
(0.072975925 -7.1148268e-07 0)
(0.073089755 6.8107444e-07 0)
(0.072985775 -6.5328146e-07 0)
(0.073080295 6.2787203e-07 0)
(0.072994882 -6.0486741e-07 0)
(0.073071511 5.8411001e-07 0)
(0.073003377 -5.6552366e-07 0)
(0.073063272 5.4904833e-07 0)
(0.073011389 -5.3502516e-07 0)
(0.073055459 5.2095982e-07 0)
(0.073019062 -5.1381847e-07 0)
(0.073047992 5.0390039e-07 0)
(0.073026516 -4.6894351e-07 0)
(0.073040356 6.2415598e-07 0)
(0.073031996 -4.3761354e-07 0)
(0.062738061 0.008559216 0)
(0.081979595 -0.00081339325 0)
(0.077659212 0.00074047844 0)
(0.076814203 -7.4301254e-05 0)
(0.07792408 0.00012031881 0)
(0.077250343 -1.6513595e-05 0)
(0.078330141 2.9693486e-05 0)
(0.077181939 9.0888878e-06 0)
(0.078213206 3.5228239e-06 0)
(0.077273456 1.9015226e-06 0)
(0.078083449 1.7389858e-06 0)
(0.077354502 -1.7563709e-06 0)
(0.078021787 2.1503889e-06 0)
(0.077405945 -2.2741441e-06 0)
(0.077981232 2.2517498e-06 0)
(0.077442763 -2.1368191e-06 0)
(0.077947334 2.0624121e-06 0)
(0.077473839 -1.9216294e-06 0)
(0.077917727 1.8310769e-06 0)
(0.077501348 -1.7161928e-06 0)
(0.077891649 1.6260456e-06 0)
(0.077525791 -1.5309313e-06 0)
(0.077868544 1.4480026e-06 0)
(0.077547546 -1.3667931e-06 0)
(0.077847986 1.2927038e-06 0)
(0.07756696 -1.2223063e-06 0)
(0.077829622 1.1569402e-06 0)
(0.077584338 -1.0956146e-06 0)
(0.077813159 1.0383488e-06 0)
(0.07759995 -9.8495144e-07 0)
(0.077798341 9.3507477e-07 0)
(0.077614031 -8.8875902e-07 0)
(0.077784948 8.4559989e-07 0)
(0.07762679 -8.056865e-07 0)
(0.077772779 7.6865272e-07 0)
(0.077638414 -7.3457731e-07 0)
(0.077761658 7.0315221e-07 0)
(0.077649074 -6.7443831e-07 0)
(0.077751422 6.4817943e-07 0)
(0.077658926 -6.2441166e-07 0)
(0.077741919 6.0296014e-07 0)
(0.077668116 -5.8374949e-07 0)
(0.077733008 5.6672496e-07 0)
(0.07767678 -5.5222972e-07 0)
(0.077724559 5.3758497e-07 0)
(0.077685071 -5.3050976e-07 0)
(0.077716485 5.196687e-07 0)
(0.077693127 -4.8295163e-07 0)
(0.077708296 6.5057548e-07 0)
(0.077699349 -4.4621443e-07 0)
(0.067976802 0.008813969 0)
(0.084083864 -0.00094482748 0)
(0.082273386 0.00076670176 0)
(0.080711786 -7.6174585e-05 0)
(0.082411138 0.00011654904 0)
(0.081609481 -1.9569848e-05 0)
(0.082822088 3.0260557e-05 0)
(0.081639281 9.2885353e-06 0)
(0.082734942 3.3389848e-06 0)
(0.081735857 2.3259885e-06 0)
(0.082605474 1.5750894e-06 0)
(0.081823586 -1.7021637e-06 0)
(0.08253966 2.140785e-06 0)
(0.081878522 -2.3162652e-06 0)
(0.082496364 2.2992954e-06 0)
(0.081917951 -2.1862871e-06 0)
(0.082460055 2.1139154e-06 0)
(0.081951305 -1.9677635e-06 0)
(0.082428287 1.8767491e-06 0)
(0.081980852 -1.7581407e-06 0)
(0.082400283 1.6663977e-06 0)
(0.082007113 -1.5686225e-06 0)
(0.08237546 1.4838401e-06 0)
(0.082030493 -1.4005108e-06 0)
(0.082353365 1.3246279e-06 0)
(0.082051359 -1.2524397e-06 0)
(0.082333627 1.1854419e-06 0)
(0.082070039 -1.1225702e-06 0)
(0.082315931 1.0638583e-06 0)
(0.082086819 -1.0091192e-06 0)
(0.082300005 9.5797905e-07 0)
(0.082101953 -9.105022e-07 0)
(0.082285611 8.6625011e-07 0)
(0.082115663 -8.2533826e-07 0)
(0.082272535 7.8736846e-07 0)
(0.082128153 -7.5244225e-07 0)
(0.082260588 7.2022443e-07 0)
(0.082139604 -6.9079454e-07 0)
(0.082249592 6.638736e-07 0)
(0.082150186 -6.3951259e-07 0)
(0.082239387 6.1752013e-07 0)
(0.082160053 -5.978224e-07 0)
(0.08222982 5.803714e-07 0)
(0.082169354 -5.6550573e-07 0)
(0.08222075 5.5038802e-07 0)
(0.082178249 -5.4344317e-07 0)
(0.082212082 5.3172216e-07 0)
(0.082186891 -4.9355238e-07 0)
(0.082203356 6.7233761e-07 0)
(0.082193859 -4.5126007e-07 0)
(0.073473896 0.0090188198 0)
(0.086563389 -0.00098790896 0)
(0.08678878 0.00078534796 0)
(0.084463712 -7.7684585e-05 0)
(0.086725579 0.00010985352 0)
(0.085817754 -2.26371e-05 0)
(0.08714173 3.0249892e-05 0)
(0.085928791 9.3043308e-06 0)
(0.087081737 3.1368193e-06 0)
(0.086026369 2.7466547e-06 0)
(0.086954132 1.3701088e-06 0)
(0.08612056 -1.621226e-06 0)
(0.086884085 2.1100712e-06 0)
(0.086178807 -2.3413377e-06 0)
(0.086838096 2.3307984e-06 0)
(0.086220766 -2.2208646e-06 0)
(0.08679944 2.1513526e-06 0)
(0.086256343 -2.0005539e-06 0)
(0.086765565 1.9098339e-06 0)
(0.086287879 -1.7881928e-06 0)
(0.086735683 1.6955153e-06 0)
(0.086315914 -1.5956984e-06 0)
(0.086709184 1.5096449e-06 0)
(0.086340878 -1.4247426e-06 0)
(0.086685591 1.3475804e-06 0)
(0.086363161 -1.2740834e-06 0)
(0.086664513 1.205907e-06 0)
(0.08638311 -1.1419126e-06 0)
(0.086645615 1.0821521e-06 0)
(0.086401029 -1.0264418e-06 0)
(0.086628608 9.7438499e-07 0)
(0.086417188 -9.2606915e-07 0)
(0.086613239 8.8102467e-07 0)
(0.086431826 -8.3939238e-07 0)
(0.086599281 8.0074475e-07 0)
(0.086445157 -7.6520525e-07 0)
(0.086586528 7.3241384e-07 0)
(0.086457379 -7.0246828e-07 0)
(0.086574794 6.7506855e-07 0)
(0.08646867 -6.5028019e-07 0)
(0.086563905 6.2789668e-07 0)
(0.086479198 -6.0784619e-07 0)
(0.086553699 5.9008859e-07 0)
(0.086489119 -5.7495196e-07 0)
(0.086544026 5.5946782e-07 0)
(0.086498601 -5.5270868e-07 0)
(0.086534779 5.4016592e-07 0)
(0.086507811 -5.0084995e-07 0)
(0.086525533 6.8942809e-07 0)
(0.086515525 -4.5299222e-07 0)
(0.078760467 0.0091373332 0)
(0.088502144 -0.001113418 0)
(0.091119494 0.00079362681 0)
(0.088148675 -7.7264249e-05 0)
(0.090875745 0.00010052694 0)
(0.089874176 -2.5773786e-05 0)
(0.091289552 2.9777523e-05 0)
(0.090050667 9.1650557e-06 0)
(0.091252912 2.9369387e-06 0)
(0.090145719 3.1505005e-06 0)
(0.091129242 1.1267308e-06 0)
(0.090245501 -1.5134909e-06 0)
(0.091055003 2.0593837e-06 0)
(0.090306859 -2.3496895e-06 0)
(0.091006368 2.3467633e-06 0)
(0.090351265 -2.2409691e-06 0)
(0.090965433 2.1750875e-06 0)
(0.090389003 -2.0203657e-06 0)
(0.090929514 1.9306543e-06 0)
(0.090422473 -1.806667e-06 0)
(0.090897806 1.7136908e-06 0)
(0.090452234 -1.6124403e-06 0)
(0.090869678 1.5256815e-06 0)
(0.090478737 -1.439741e-06 0)
(0.090844631 1.361801e-06 0)
(0.090502396 -1.2874658e-06 0)
(0.09082225 1.2185531e-06 0)
(0.090523577 -1.153849e-06 0)
(0.090802185 1.0934279e-06 0)
(0.090542601 -1.0371074e-06 0)
(0.09078413 9.8447246e-07 0)
(0.090559756 -9.3563149e-07 0)
(0.090767816 8.900877e-07 0)
(0.090575293 -8.4800567e-07 0)
(0.090753 8.0893176e-07 0)
(0.090589442 -7.730102e-07 0)
(0.090739467 7.3985876e-07 0)
(0.090602411 -7.095924e-07 0)
(0.090727016 6.8189234e-07 0)
(0.090614391 -6.5683818e-07 0)
(0.090715465 6.3420945e-07 0)
(0.090625558 -6.1393697e-07 0)
(0.09070464 5.9598938e-07 0)
(0.09063608 -5.8067885e-07 0)
(0.09069438 5.649342e-07 0)
(0.09064613 -5.5840736e-07 0)
(0.090684572 5.4511501e-07 0)
(0.09065589 -5.049552e-07 0)
(0.090674824 7.0186491e-07 0)
(0.090664345 -4.5165688e-07 0)
(0.083858281 0.009132092 0)
(0.09084882 -0.0011447157 0)
(0.095245092 0.00079376155 0)
(0.091788446 -7.5654359e-05 0)
(0.094871986 8.938071e-05 0)
(0.09377782 -2.876973e-05 0)
(0.09526605 2.8958428e-05 0)
(0.094004315 8.8966617e-06 0)
(0.095247752 2.7603625e-06 0)
(0.094094907 3.5206621e-06 0)
(0.095130527 8.5303717e-07 0)
(0.094198467 -1.379973e-06 0)
(0.095052365 1.9899564e-06 0)
(0.094262736 -2.3416186e-06 0)
(0.095001131 2.3477416e-06 0)
(0.094309496 -2.2470388e-06 0)
(0.094957989 2.1855225e-06 0)
(0.09434933 -2.0275934e-06 0)
(0.094920091 1.9395696e-06 0)
(0.094384674 -1.8139115e-06 0)
(0.094886617 1.7212492e-06 0)
(0.094416105 -1.6191594e-06 0)
(0.094856912 1.5322439e-06 0)
(0.094444099 -1.4457862e-06 0)
(0.094830456 1.3675559e-06 0)
(0.09446909 -1.2928399e-06 0)
(0.094806816 1.223621e-06 0)
(0.094491462 -1.1586085e-06 0)
(0.094785623 1.0979041e-06 0)
(0.094511556 -1.041324e-06 0)
(0.094766554 9.884398e-07 0)
(0.094529673 -9.3937825e-07 0)
(0.094749325 8.9361971e-07 0)
(0.09454608 -8.5135055e-07 0)
(0.094733681 8.1209453e-07 0)
(0.094561019 -7.7601507e-07 0)
(0.094719393 7.4271067e-07 0)
(0.09457471 -7.1231246e-07 0)
(0.09470625 6.8448517e-07 0)
(0.094587354 -6.5932164e-07 0)
(0.094694058 6.3658923e-07 0)
(0.09459914 -6.1622173e-07 0)
(0.094682635 5.9819702e-07 0)
(0.094610242 -5.8280695e-07 0)
(0.09467181 5.6690628e-07 0)
(0.094620842 -5.6065007e-07 0)
(0.094661458 5.4669311e-07 0)
(0.09463113 -5.0598494e-07 0)
(0.094651228 7.0969502e-07 0)
(0.094640317 -4.4749952e-07 0)
(0.089789431 0.0093715922 0)
(0.092804759 -0.0012382512 0)
(0.099076366 0.00078297069 0)
(0.095414752 -7.3357014e-05 0)
(0.098711378 7.6935632e-05 0)
(0.097524259 -3.1647522e-05 0)
(0.099071322 2.786275e-05 0)
(0.097788824 8.5302711e-06 0)
(0.099066131 2.6172559e-06 0)
(0.097874538 3.8411312e-06 0)
(0.09895767 5.6220258e-07 0)
(0.097979463 -1.2235156e-06 0)
(0.098876124 1.9028054e-06 0)
(0.09804648 -2.3175033e-06 0)
(0.098822339 2.3342715e-06 0)
(0.098095501 -2.2395647e-06 0)
(0.098777068 2.183077e-06 0)
(0.098137359 -2.022671e-06 0)
(0.098737262 1.9369644e-06 0)
(0.098174514 -1.8103072e-06 0)
(0.098702084 1.7185422e-06 0)
(0.098207558 -1.6161947e-06 0)
(0.098670859 1.5296509e-06 0)
(0.09823699 -1.4431827e-06 0)
(0.098643045 1.3651334e-06 0)
(0.098263264 -1.2904803e-06 0)
(0.098618191 1.2213717e-06 0)
(0.098286785 -1.1564394e-06 0)
(0.09859591 1.0958168e-06 0)
(0.09830791 -1.0393163e-06 0)
(0.098575864 9.865009e-07 0)
(0.098326953 -9.3751318e-07 0)
(0.098557754 8.9181512e-07 0)
(0.098344197 -8.496125e-07 0)
(0.098541313 8.1041037e-07 0)
(0.098359897 -7.7438952e-07 0)
(0.098526298 7.4113242e-07 0)
(0.098374283 -7.1078473e-07 0)
(0.098512489 6.8299748e-07 0)
(0.098387568 -6.5787574e-07 0)
(0.09849968 6.3517625e-07 0)
(0.098399948 -6.1483636e-07 0)
(0.098487681 5.9684343e-07 0)
(0.098411609 -5.8146533e-07 0)
(0.098476312 5.655111e-07 0)
(0.098422737 -5.5955595e-07 0)
(0.098465436 5.4503055e-07 0)
(0.098433533 -5.0406092e-07 0)
(0.098454743 7.1299142e-07 0)
(0.098443438 -4.4076166e-07 0)
(0.094109527 0.0091172198 0)
(0.095032725 -0.0012828265 0)
(0.10269633 0.0007608924 0)
(0.098975784 -7.2324598e-05 0)
(0.1023911 6.4086999e-05 0)
(0.10111185 -3.4234799e-05 0)
(0.10270529 2.6574727e-05 0)
(0.10140329 8.0976314e-06 0)
(0.10270854 2.5055026e-06 0)
(0.10148462 4.1008633e-06 0)
(0.1026104 2.7034865e-07 0)