/*--------------------------------*- C++ -*----------------------------------*\
| =========                 |                                                 |
| \\      /  F ield         | OpenFOAM: The Open Source CFD Toolbox           |
|  \\    /   O peration     | Version:  2312                                  |
|   \\  /    A nd           | Website:  www.openfoam.com                      |
|    \\/     M anipulation  |                                                 |
\*---------------------------------------------------------------------------*/
FoamFile
{
    version     2.0;
    format      ascii;
    arch        "LSB;label=32;scalar=64";
    class       volVectorField;
    location    "5";
    object      U_0;
}
// * * * * * * * * * * * * * * * * * * * * * * * * * * * * * * * * * * * * * //

dimensions      [0 1 -1 0 0 0 0];

internalField   nonuniform List<vector> 
4000
(
(0.0025076254 0.00052718695 0)
(0.0063778254 -1.7419547e-05 0)
(0.0031543772 -5.6095716e-07 0)
(0.0038604801 -7.2552243e-07 0)
(0.0036062165 9.3234481e-08 0)
(0.0035846335 -2.0070484e-07 0)
(0.0035906082 1.0197321e-07 0)
(0.0035355162 -1.6821028e-07 0)
(0.0035644234 1.2197963e-07 0)
(0.0035305848 -1.2747469e-07 0)
(0.0035562054 1.1299128e-07 0)
(0.0035320941 -1.070164e-07 0)
(0.0035532555 9.9529352e-08 0)
(0.0035336782 -9.3341023e-08 0)
(0.0035516683 8.7473029e-08 0)
(0.0035348778 -8.220523e-08 0)
(0.0035505062 7.7213285e-08 0)
(0.0035358705 -7.2667411e-08 0)
(0.0035495452 6.837681e-08 0)
(0.003536737 -6.441411e-08 0)
(0.0035487178 6.0703386e-08 0)
(0.0035375004 -5.7248628e-08 0)
(0.0035479946 5.4026707e-08 0)
(0.0035381744 -5.10157e-08 0)
(0.0035473576 4.8212524e-08 0)
(0.0035387712 -4.5588737e-08 0)
(0.0035467931 4.3148425e-08 0)
(0.0035393022 -4.0863762e-08 0)
(0.00354629 3.8741146e-08 0)
(0.003539777 -3.6755625e-08 0)
(0.0035458389 3.4914063e-08 0)
(0.0035402041 -3.3194837e-08 0)
(0.003545432 3.1604568e-08 0)
(0.0035405907 -3.0124785e-08 0)
(0.0035450626 2.8761571e-08 0)
(0.003540943 -2.7499279e-08 0)
(0.0035447248 2.6343332e-08 0)
(0.0035412664 -2.5280585e-08 0)
(0.0035444136 2.4315752e-08 0)
(0.0035415657 -2.3437961e-08 0)
(0.0035441243 2.2651126e-08 0)
(0.0035418453 -2.1946767e-08 0)
(0.0035438528 2.1327755e-08 0)
(0.0035421094 -2.0787052e-08 0)
(0.0035435963 2.0333577e-08 0)
(0.0035423625 -1.9939772e-08 0)
(0.0035433462 1.9664395e-08 0)
(0.0035425776 -1.9458705e-08 0)
(0.0035429901 1.8994794e-08 0)
(0.0035424836 -2.0951035e-08 0)
(0.0066428235 0.001483523 0)
(0.016761959 -5.5315368e-07 0)
(0.0099513876 3.3914346e-05 0)
(0.011042277 -5.24354e-06 0)
(0.010478635 4.0557584e-06 0)
(0.010382776 -3.3690873e-07 0)
(0.010424849 1.1515832e-06 0)
(0.010259829 -1.476109e-07 0)
(0.010347348 5.3531053e-07 0)
(0.010247693 -3.3532982e-07 0)
(0.010323594 3.9821221e-07 0)
(0.010252497 -3.5476715e-07 0)
(0.010315274 3.4891002e-07 0)
(0.010257206 -3.2674898e-07 0)
(0.010310729 3.1080582e-07 0)
(0.010260746 -2.9171683e-07 0)
(0.010307329 2.756305e-07 0)
(0.010263686 -2.5896646e-07 0)
(0.010304487 2.4429108e-07 0)
(0.010266261 -2.2995991e-07 0)
(0.010302031 2.1695828e-07 0)
(0.010268536 -2.0457573e-07 0)
(0.010299878 1.9316891e-07 0)
(0.010270548 -1.8241432e-07 0)
(0.010297978 1.72439e-07 0)
(0.010272334 -1.630739e-07 0)
(0.01029629 1.5436481e-07 0)
(0.010273926 -1.4620707e-07 0)
(0.010294782 1.386184e-07 0)
(0.010275353 -1.3152434e-07 0)
(0.010293428 1.2493328e-07 0)
(0.010276639 -1.1878746e-07 0)
(0.010292205 1.1309224e-07 0)
(0.010277804 -1.0780073e-07 0)
(0.010291092 1.0291732e-07 0)
(0.010278868 -9.8403108e-08 0)
(0.010290073 9.4262009e-08 0)
(0.010279846 -9.0461578e-08 0)
(0.010289132 8.7005375e-08 0)
(0.010280752 -8.3866155e-08 0)
(0.010288257 8.1047838e-08 0)
(0.0102816 -7.8527782e-08 0)
(0.010287433 7.6304276e-08 0)
(0.010282402 -7.4385398e-08 0)
(0.010286652 7.2703254e-08 0)
(0.010283175 -7.1326263e-08 0)
(0.010285898 7.0571033e-08 0)
(0.010283876 -6.8060734e-08 0)
(0.01028493 7.3121403e-08 0)
(0.010283787 -6.592092e-08 0)
(0.013084755 0.0028551896 0)
(0.025897147 -1.6681421e-05 0)
(0.016479381 7.4849225e-05 0)
(0.018033121 -9.4759991e-06 0)
(0.017155527 9.6401303e-06 0)
(0.01699329 -4.2288827e-07 0)
(0.017081472 2.5616763e-06 0)
(0.016805008 3.1636371e-08 0)
(0.016957567 1.0332686e-06 0)
(0.016789612 -5.336606e-07 0)
(0.016918984 7.2157027e-07 0)
(0.0167987 -6.3157872e-07 0)
(0.016905412 6.3287994e-07 0)
(0.016806816 -5.9335273e-07 0)
(0.016897856 5.6695873e-07 0)
(0.016812829 -5.3201912e-07 0)
(0.016892129 5.0363288e-07 0)
(0.01681782 -4.7288853e-07 0)
(0.016887318 4.46462e-07 0)
(0.016822197 -4.2014851e-07 0)
(0.016883148 3.965397e-07 0)
(0.016826066 -3.7387976e-07 0)
(0.016879488 3.5309156e-07 0)
(0.016829492 -3.3343596e-07 0)
(0.016876253 3.1522394e-07 0)
(0.016832536 -2.9811162e-07 0)
(0.016873377 2.8219516e-07 0)
(0.016835253 -2.6728577e-07 0)
(0.016870806 2.5340794e-07 0)
(0.016837689 -2.4043804e-07 0)
(0.016868494 2.2837912e-07 0)
(0.016839886 -2.1713885e-07 0)
(0.016866403 2.067154e-07 0)
(0.01684188 -1.9703449e-07 0)
(0.0168645 1.8809429e-07 0)
(0.016843699 -1.7983297e-07 0)
(0.016862757 1.722495e-07 0)
(0.016845373 -1.6529207e-07 0)
(0.016861147 1.5896034e-07 0)
(0.016846925 -1.5321032e-07 0)
(0.016859647 1.4804408e-07 0)
(0.016848378 -1.4342315e-07 0)
(0.016858235 1.3934035e-07 0)
(0.016849755 -1.3582378e-07 0)
(0.016856895 1.326897e-07 0)
(0.016851082 -1.3021387e-07 0)
(0.016855604 1.2877269e-07 0)
(0.016852315 -1.2355236e-07 0)
(0.01685402 1.3616007e-07 0)
(0.016852341 -1.1966385e-07 0)
(0.015501773 0.0031746162 0)
(0.034138129 -9.3139495e-05 0)
(0.02280738 0.00012980745 0)
(0.024849564 -1.4400288e-05 0)
(0.02363805 1.7807647e-05 0)
(0.023417093 -4.4825121e-07 0)
(0.023559763 4.3869056e-06 0)
(0.023171315 4.8868041e-07 0)
(0.023395193 1.5512599e-06 0)
(0.023156444 -6.4574846e-07 0)
(0.023342478 1.0225647e-06 0)
(0.023170644 -8.8194118e-07 0)
(0.023323788 9.0089029e-07 0)
(0.023182414 -8.4672249e-07 0)
(0.023313169 8.1274935e-07 0)
(0.023191034 -7.6266458e-07 0)
(0.023305018 7.2338275e-07 0)
(0.023198188 -6.7880743e-07 0)
(0.023298136 6.4142393e-07 0)
(0.023204467 -6.0345018e-07 0)
(0.023292159 5.6975437e-07 0)
(0.02321002 -5.3716284e-07 0)
(0.023286906 5.0737941e-07 0)
(0.023214942 -4.7914428e-07 0)
(0.023282259 4.5300246e-07 0)
(0.023219319 -4.284251e-07 0)
(0.023278123 4.0555375e-07 0)
(0.023223227 -3.8413528e-07 0)
(0.023274422 3.6417969e-07 0)
(0.023226735 -3.4554104e-07 0)
(0.023271093 3.2819295e-07 0)
(0.023229899 -3.1203476e-07 0)
(0.023268081 2.9703468e-07 0)
(0.02323277 -2.8311445e-07 0)
(0.02326534 2.7024591e-07 0)
(0.023235392 -2.5836432e-07 0)
(0.023262828 2.4744648e-07 0)
(0.023237804 -2.37438e-07 0)
(0.023260509 2.2832014e-07 0)
(0.02324004 -2.2004591e-07 0)
(0.023258349 2.126041e-07 0)
(0.023242133 -2.0595008e-07 0)
(0.023256315 2.0006268e-07 0)
(0.023244115 -1.9500679e-07 0)
(0.023254383 1.9042914e-07 0)
(0.023246028 -1.8694604e-07 0)
(0.023252525 1.8482071e-07 0)
(0.02324783 -1.7642217e-07 0)
(0.023250325 1.9954186e-07 0)
(0.023248092 -1.7133045e-07 0)
(0.021248457 0.0043709535 0)
(0.042128975 -8.6232233e-05 0)
(0.028854044 0.00019346749 0)
(0.031480843 -2.2278964e-05 0)
(0.029924585 2.8397978e-05 0)
(0.029655895 -4.8020975e-07 0)
(0.02985794 6.5535189e-06 0)
(0.029358971 1.189444e-06 0)
(0.029659987 2.0488233e-06 0)
(0.029348435 -6.6535182e-07 0)
(0.029593951 1.2840734e-06 0)
(0.029368457 -1.0956689e-06 0)
(0.029570295 1.1407993e-06 0)
(0.029384087 -1.076505e-06 0)
(0.029556576 1.0378635e-06 0)
(0.029395433 -9.7411922e-07 0)
(0.029545916 9.2576789e-07 0)
(0.029404852 -8.6817313e-07 0)
(0.029536872 8.2108924e-07 0)
(0.029413125 -7.7224485e-07 0)
(0.029529003 7.2941138e-07 0)
(0.029420446 -6.8763255e-07 0)
(0.029522079 6.4962251e-07 0)
(0.029426939 -6.1347377e-07 0)
(0.029515947 5.8004609e-07 0)
(0.029432717 -5.4858586e-07 0)
(0.029510486 5.1930792e-07 0)
(0.029437879 -4.9188495e-07 0)
(0.029505598 4.6632207e-07 0)
(0.029442514 -4.4245055e-07 0)
(0.029501198 4.2021809e-07 0)
(0.029446696 -3.9951748e-07 0)
(0.029497218 3.8028863e-07 0)
(0.029450491 -3.6245117e-07 0)
(0.029493595 3.4595172e-07 0)
(0.029453956 -3.3072399e-07 0)
(0.029490276 3.1672359e-07 0)
(0.029457142 -3.0389449e-07 0)
(0.029487212 2.9220038e-07 0)
(0.029460096 -2.8159173e-07 0)
(0.029484359 2.7204545e-07 0)
(0.029462859 -2.6350933e-07 0)
(0.029481675 2.5595118e-07 0)
(0.029465475 -2.4947607e-07 0)
(0.029479124 2.4352691e-07 0)
(0.029467998 -2.3917799e-07 0)
(0.029476676 2.3635394e-07 0)
(0.029470399 -2.2460243e-07 0)
(0.029473855 2.6033168e-07 0)
(0.029470997 -2.1861185e-07 0)
(0.025064092 0.0050077441 0)
(0.049005688 -0.00019373579 0)
(0.034744941 0.00026434648 0)
(0.037938944 -3.0548036e-05 0)
(0.036013845 4.1673122e-05 0)
(0.035711245 -6.5157456e-07 0)
(0.035974548 9.0110249e-06 0)
(0.035368925 2.0766668e-06 0)
(0.035751589 2.5054037e-06 0)
(0.035366072 -6.0111823e-07 0)
(0.035673137 1.5047001e-06 0)
(0.03539244 -1.2763049e-06 0)
(0.035644691 1.353707e-06 0)
(0.035412075 -1.2846365e-06 0)
(0.03562786 1.2435727e-06 0)
(0.035426231 -1.1677372e-06 0)
(0.035614632 1.1119036e-06 0)
(0.035437992 -1.0420753e-06 0)
(0.035603359 9.8642806e-07 0)
(0.035448331 -9.2746028e-07 0)
(0.035593531 8.7635981e-07 0)
(0.035457485 -8.2609176e-07 0)
(0.035584875 7.8056436e-07 0)
(0.035465608 -7.3712446e-07 0)
(0.035577203 6.9700749e-07 0)
(0.03547284 -6.5920865e-07 0)
(0.035570366 6.2403391e-07 0)
(0.035479306 -5.9107925e-07 0)
(0.035564242 5.6034797e-07 0)
(0.035485112 -5.3165326e-07 0)
(0.03555873 5.049152e-07 0)
(0.035490352 -4.800263e-07 0)
(0.035553743 4.5689502e-07 0)
(0.035495107 -4.354449e-07 0)
(0.035549204 4.155941e-07 0)
(0.035499448 -3.9727998e-07 0)
(0.035545048 3.8043404e-07 0)
(0.035503437 -3.6500287e-07 0)
(0.035541212 3.5093013e-07 0)
(0.035507134 -3.3816715e-07 0)
(0.035537642 3.2667724e-07 0)
(0.035510592 -3.1640185e-07 0)
(0.035534284 3.0729874e-07 0)
(0.035513863 -2.995154e-07 0)
(0.035531095 2.922638e-07 0)
(0.035517014 -2.87179e-07 0)
(0.035528037 2.8361439e-07 0)
(0.035520033 -2.6843762e-07 0)
(0.035524595 3.1829158e-07 0)
(0.035521056 -2.6136534e-07 0)
(0.029644211 0.0055202229 0)
(0.055713765 -0.00019901989 0)
(0.040472942 0.00033298652 0)
(0.044128649 -3.7355564e-05 0)
(0.041909282 5.8056893e-05 0)
(0.041586209 -9.3137191e-07 0)
(0.04190915 1.1759554e-05 0)
(0.041202556 3.0979976e-06 0)
(0.041669655 2.9049326e-06 0)
(0.041209845 -4.618705e-07 0)
(0.041579787 1.6843194e-06 0)
(0.041242899 -1.4274091e-06 0)
(0.041546734 1.5411645e-06 0)
(0.04126662 -1.4732093e-06 0)
(0.041526802 1.4314097e-06 0)
(0.04128364 -1.3450585e-06 0)
(0.041510969 1.2831111e-06 0)
(0.041297796 -1.2017824e-06 0)
(0.041497421 1.1385912e-06 0)
(0.04131025 -1.0701894e-06 0)
(0.041485589 1.0116108e-06 0)
(0.041321283 -9.5349492e-07 0)
(0.041475158 9.0109543e-07 0)
(0.041331079 -8.5093553e-07 0)
(0.041465904 8.0467371e-07 0)
(0.041339805 -7.6103609e-07 0)
(0.041457653 7.2043134e-07 0)
(0.041347609 -6.8238003e-07 0)
(0.04145026 6.468836e-07 0)
(0.04135462 -6.1374356e-07 0)
(0.041443605 5.8284904e-07 0)
(0.041360947 -5.5409911e-07 0)
(0.041437583 5.2736703e-07 0)
(0.041366688 -5.0258625e-07 0)
(0.041432104 4.7964305e-07 0)
(0.041371927 -4.5848338e-07 0)
(0.041427088 4.3901175e-07 0)
(0.041376741 -4.2118141e-07 0)
(0.041422461 4.0491359e-07 0)
(0.041381199 -3.9016363e-07 0)
(0.041418156 3.7687961e-07 0)
(0.041385367 -3.6499782e-07 0)
(0.041414109 3.544672e-07 0)
(0.041389308 -3.4547726e-07 0)
(0.041410266 3.3699079e-07 0)
(0.041393101 -3.3128984e-07 0)
(0.041406585 3.2692624e-07 0)
(0.041396752 -3.0835122e-07 0)
(0.041402523 3.7330786e-07 0)
(0.041398274 -2.9970736e-07 0)
(0.034023744 0.0063265401 0)
(0.061004544 -0.00031220788 0)
(0.04619447 0.00039609718 0)
(0.049864851 -4.628083e-05 0)
(0.047585811 7.4976577e-05 0)
(0.047275522 -1.723719e-06 0)
(0.047660128 1.4721228e-05 0)
(0.046861056 4.1906937e-06 0)
(0.047413793 3.2363536e-06 0)
(0.046880141 -2.5498537e-07 0)
(0.04731369 1.8216681e-06 0)
(0.046920085 -1.5506059e-06 0)
(0.047276218 1.7031633e-06 0)
(0.046947929 -1.642718e-06 0)
(0.047253213 1.6014578e-06 0)
(0.046967839 -1.5062458e-06 0)
(0.04723476 1.4394225e-06 0)
(0.046984422 -1.3473499e-06 0)
(0.047218909 1.277588e-06 0)
(0.046999023 -1.2004491e-06 0)
(0.047205044 1.1351622e-06 0)
(0.047011965 -1.0698392e-06 0)
(0.047192808 1.0112044e-06 0)
(0.047023462 -9.5489339e-07 0)
(0.047181945 9.0302775e-07 0)
(0.047033709 -8.5404974e-07 0)
(0.047172255 8.0848124e-07 0)
(0.047042876 -7.6576818e-07 0)
(0.04716357 7.2591093e-07 0)
(0.047051113 -6.8870432e-07 0)
(0.047155751 6.5400438e-07 0)
(0.047058547 -6.2172232e-07 0)
(0.047148676 5.9169325e-07 0)
(0.047065291 -5.6386573e-07 0)
(0.04714224 5.3809129e-07 0)
(0.047071444 -5.1432891e-07 0)
(0.047136349 4.9245362e-07 0)
(0.047077096 -4.7242898e-07 0)
(0.047130918 4.5415165e-07 0)
(0.047082328 -4.3758406e-07 0)
(0.047125866 4.226574e-07 0)
(0.047087218 -4.0930413e-07 0)
(0.04712112 3.9746597e-07 0)
(0.047091838 -3.873719e-07 0)
(0.047116615 3.7772583e-07 0)
(0.047096281 -3.7152498e-07 0)
(0.047112303 3.6630668e-07 0)
(0.047100571 -3.444431e-07 0)
(0.047107625 4.2503698e-07 0)
(0.047102654 -3.3358481e-07 0)
(0.038573659 0.006696335 0)
(0.065928174 -0.00035781972 0)
(0.052019929 0.00048092678 0)
(0.055036601 -5.4411656e-05 0)
(0.053047069 9.0867807e-05 0)
(0.052775806 -2.9236656e-06 0)
(0.053227416 1.786747e-05 0)
(0.052345408 5.3022483e-06 0)
(0.052983661 3.491438e-06 0)
(0.052377295 1.2396609e-08 0)
(0.052874693 1.9158979e-06 0)
(0.05242422 -1.6467475e-06 0)
(0.052832975 1.839489e-06 0)
(0.052456182 -1.7931804e-06 0)
(0.052806932 1.7534979e-06 0)
(0.052478984 -1.6511018e-06 0)
(0.052785858 1.5805721e-06 0)
(0.052498007 -1.4785324e-06 0)
(0.052767693 1.4031559e-06 0)
(0.052514772 -1.3179936e-06 0)
(0.052751779 1.2467671e-06 0)
(0.05252964 -1.17489e-06 0)
(0.052737723 1.1106618e-06 0)
(0.052542855 -1.0487788e-06 0)
(0.052725236 9.9185858e-07 0)
(0.052554637 -9.3804839e-07 0)
(0.052714092 8.8799183e-07 0)
(0.052565182 -8.4106157e-07 0)
(0.052704101 7.9725755e-07 0)
(0.052574658 -7.5637236e-07 0)
(0.052695105 7.1822735e-07 0)
(0.05258321 -6.8275049e-07 0)
(0.052686967 6.4973685e-07 0)
(0.052590968 -6.1915407e-07 0)
(0.052679565 5.9081722e-07 0)
(0.052598043 -5.6470157e-07 0)
(0.052672792 5.4065124e-07 0)
(0.05260454 -5.186429e-07 0)
(0.052666549 4.9854735e-07 0)
(0.052610553 -4.8033637e-07 0)
(0.052660745 4.6392345e-07 0)
(0.05261617 -4.4923807e-07 0)
(0.052655295 4.3621678e-07 0)
(0.052621474 -4.2512376e-07 0)
(0.052650122 4.1440224e-07 0)
(0.05262657 -4.0781434e-07 0)
(0.052645175 4.0169519e-07 0)
(0.052631502 -3.7671767e-07 0)
(0.052639886 4.7310142e-07 0)
(0.052634197 -3.629561e-07 0)
(0.042921516 0.0072067735 0)
(0.069682766 -0.00050031009 0)
(0.057677297 0.00054925873 0)
(0.059789681 -6.1744955e-05 0)
(0.058324675 0.00010348669 0)
(0.058077261 -4.7400779e-06 0)
(0.058611348 2.1077401e-05 0)
(0.057656132 6.369916e-06 0)
(0.058379041 3.6603374e-06 0)
(0.057701576 3.2985907e-07 0)
(0.058262672 1.9659921e-06 0)
(0.057755492 -1.7169716e-06 0)
(0.058216856 1.9501194e-06 0)
(0.057791534 -1.9247982e-06 0)
(0.05818782 1.8874872e-06 0)
(0.057817211 -1.7795996e-06 0)
(0.058164137 1.7064497e-06 0)
(0.057838674 -1.5952369e-06 0)
(0.058143659 1.5151721e-06 0)
(0.057857606 -1.4227117e-06 0)
(0.058125694 1.3463049e-06 0)
(0.057874404 -1.2685319e-06 0)
(0.058109812 1.1993515e-06 0)
(0.057889342 -1.1324798e-06 0)
(0.058095696 1.0710576e-06 0)
(0.057902667 -1.0129279e-06 0)
(0.058083091 9.5886412e-07 0)
(0.057914595 -9.0816607e-07 0)
(0.05807179 8.6083501e-07 0)
(0.057925314 -8.1666415e-07 0)
(0.058061613 7.7544001e-07 0)
(0.057934988 -7.3711045e-07 0)
(0.058052408 7.0142967e-07 0)
(0.057943761 -6.683874e-07 0)
(0.058044037 6.3776135e-07 0)
(0.057951762 -6.0954564e-07 0)
(0.05803638 5.8355273e-07 0)
(0.057959106 -5.5977446e-07 0)
(0.058029324 5.3805518e-07 0)
(0.057965901 -5.1837789e-07 0)
(0.058022768 5.006377e-07 0)
(0.057972245 -4.8476204e-07 0)
(0.058016612 4.7068462e-07 0)
(0.057978234 -4.5869907e-07 0)
(0.058010772 4.4699321e-07 0)
(0.057983982 -4.4012513e-07 0)
(0.058005189 4.3307087e-07 0)
(0.057989554 -4.0520131e-07 0)
(0.057999298 5.1719566e-07 0)
(0.057992903 -3.8786422e-07 0)
(0.048020104 0.0076780741 0)
(0.0735563 -0.00052726862 0)
(0.062983027 0.00059914316 0)
(0.064260247 -6.8241828e-05 0)
(0.063449876 0.00011272645 0)
(0.063166083 -7.3315289e-06 0)
(0.063810303 2.4050331e-05 0)
(0.062794061 7.3195744e-06 0)
(0.06359969 3.7422683e-06 0)
(0.062853209 6.8823558e-07 0)
(0.063477536 1.9723887e-06 0)
(0.062914068 -1.7620256e-06 0)
(0.063427732 2.035409e-06 0)
(0.062954124 -2.037854e-06 0)
(0.063395753 2.0035902e-06 0)
(0.062982642 -1.8918428e-06 0)
(0.063369484 1.8171083e-06 0)
(0.06300653 -1.697503e-06 0)
(0.063346705 1.613653e-06 0)
(0.063027621 -1.5146169e-06 0)
(0.063326697 1.433777e-06 0)
(0.063046344 -1.3507644e-06 0)
(0.063308995 1.2772677e-06 0)
(0.063063001 -1.2059896e-06 0)
(0.063293252 1.1406163e-06 0)
(0.063077865 -1.0786799e-06 0)
(0.063279191 1.0210902e-06 0)
(0.063091172 -9.670747e-07 0)
(0.063266582 9.1663764e-07 0)
(0.063103132 -8.6957536e-07 0)
(0.063255228 8.256396e-07 0)
(0.063113925 -7.8480066e-07 0)
(0.063244958 7.4677173e-07 0)
(0.063123711 -7.1156684e-07 0)
(0.063235622 6.7892616e-07 0)
(0.063132634 -6.4886448e-07 0)
(0.063227083 6.2116249e-07 0)
(0.063140822 -5.9582883e-07 0)
(0.063219218 5.7268123e-07 0)
(0.063148394 -5.5171527e-07 0)
(0.063211912 5.3280766e-07 0)
(0.063155463 -5.1588443e-07 0)
(0.063205055 5.0087869e-07 0)
(0.063162133 -4.8810705e-07 0)
(0.06319855 4.7551314e-07 0)
(0.06316853 -4.6846426e-07 0)
(0.063192334 4.6045448e-07 0)
(0.063174737 -4.2994867e-07 0)
(0.063185851 5.5708615e-07 0)
(0.063178773 -4.0842201e-07 0)
(0.052600151 0.0080306148 0)
(0.076424722 -0.00068478512 0)
(0.068057229 0.00065631904 0)
(0.068596888 -6.9192294e-05 0)
(0.068433005 0.00011871998 0)
(0.068045238 -1.0415455e-05 0)
(0.068827394 2.6571205e-05 0)
(0.067760409 8.1109511e-06 0)
(0.068645567 3.7381464e-06 0)
(0.067832396 1.0772824e-06 0)
(0.068519231 1.9352294e-06 0)
(0.067900098 -1.7825902e-06 0)
(0.06846549 2.0958049e-06 0)
(0.067944069 -2.1327111e-06 0)
(0.06843062 2.1020491e-06 0)
(0.067975384 -1.9880245e-06 0)
(0.068401798 1.9126753e-06 0)
(0.068001672 -1.7854529e-06 0)
(0.068376741 1.6986875e-06 0)
(0.068024903 -1.5937962e-06 0)
(0.068354707 1.5092535e-06 0)
(0.068045536 -1.4216538e-06 0)
(0.068335199 1.3444684e-06 0)
(0.0680639 -1.2693626e-06 0)
(0.068317841 1.2005851e-06 0)
(0.068080291 -1.1353524e-06 0)
(0.068302334 1.0747161e-06 0)
(0.068094968 -1.0178319e-06 0)
(0.068288427 9.6470894e-07 0)
(0.068108159 -9.1514819e-07 0)
(0.068275905 8.6886773e-07 0)
(0.068120061 -8.2586178e-07 0)
(0.06826458 7.8580317e-07 0)
(0.068130852 -7.4873165e-07 0)
(0.068254286 7.1435032e-07 0)
(0.068140688 -6.8269597e-07 0)
(0.068244875 6.5351793e-07 0)
(0.068149712 -6.2684267e-07 0)
(0.068236208 6.0246169e-07 0)
(0.068158055 -5.8038423e-07 0)
(0.068228158 5.6046857e-07 0)
(0.068165841 -5.4264019e-07 0)
(0.068220607 5.268338e-07 0)
(0.068173185 -5.1338198e-07 0)
(0.068213445 5.0000038e-07 0)
(0.068180223 -4.9286174e-07 0)
(0.068206602 4.8389128e-07 0)
(0.068187057 -4.510288e-07 0)
(0.068199538 5.9259425e-07 0)
(0.068191805 -4.247886e-07 0)
(0.057676883 0.0082383213 0)
(0.079489232 -0.00072660479 0)
(0.072928031 0.00070267045 0)
(0.072771941 -7.2608664e-05 0)
(0.073262485 0.00012110952 0)
(0.072733389 -1.3452074e-05 0)
(0.073666404 2.8480886e-05 0)
(0.072555914 8.7038699e-06 0)
(0.073516666 3.6564021e-06 0)
(0.072639235 1.4868552e-06 0)
(0.073387714 1.8553879e-06 0)
(0.072713705 -1.7787676e-06 0)
(0.073330028 2.1319971e-06 0)
(0.072761475 -2.2097129e-06 0)
(0.073292322 2.183181e-06 0)
(0.07279553 -2.06838e-06 0)
(0.073260989 1.9933389e-06 0)
(0.072824184 -1.8592572e-06 0)
(0.073233686 1.7704203e-06 0)
(0.072849528 -1.6603856e-06 0)
(0.073209652 1.572856e-06 0)
(0.072872048 -1.4813145e-06 0)
(0.073188359 1.4010591e-06 0)
(0.072892099 -1.3226988e-06 0)
(0.073169407 1.2510587e-06 0)
(0.072909998 -1.1830358e-06 0)
(0.073152472 1.1198285e-06 0)
(0.072926028 -1.0605208e-06 0)
(0.073137283 1.0051293e-06 0)
(0.072940434 -9.5346019e-07 0)
(0.073123607 9.0519952e-07 0)
(0.072953432 -8.6036629e-07 0)
(0.073111241 8.1859427e-07 0)
(0.072965214 -7.7994973e-07 0)
(0.073100003 7.4409981e-07 0)
(0.07297595 -7.1110391e-07 0)
(0.073089731 6.8068099e-07 0)
(0.072985799 -6.5287606e-07 0)
(0.073080273 6.2745509e-07 0)
(0.072994902 -6.0444165e-07 0)
(0.073071492 5.8367615e-07 0)
(0.073003394 -5.6508408e-07 0)
(0.073063256 5.4860375e-07 0)
(0.073011403 -5.3457662e-07 0)
(0.073055447 5.205107e-07 0)
(0.073019071 -5.1336461e-07 0)
(0.073047985 5.0344453e-07 0)
(0.073026521 -4.6852043e-07 0)
(0.073040354 6.2358796e-07 0)
(0.073031998 -4.3715572e-07 0)
(0.062938817 0.0087240835 0)
(0.081787126 -0.00086982738 0)
(0.077665993 0.00074057414 0)
(0.076822952 -7.3824014e-05 0)
(0.077924643 0.00012050124 0)
(0.077248729 -1.6522482e-05 0)
(0.078330623 2.9690385e-05 0)
(0.077181904 9.097554e-06 0)
(0.078213078 3.5153309e-06 0)
(0.077273841 1.9090265e-06 0)
(0.078082979 1.7339157e-06 0)
(0.077355015 -1.7500411e-06 0)
(0.078021263 2.1449e-06 0)
(0.077406434 -2.2691664e-06 0)
(0.077980773 2.2473741e-06 0)
(0.077443165 -2.1331886e-06 0)
(0.077946978 2.0593381e-06 0)
(0.077474142 -1.9191402e-06 0)
(0.077917468 1.8290453e-06 0)
(0.077501565 -1.7145726e-06 0)
(0.077891468 1.6247534e-06 0)
(0.077525941 -1.529908e-06 0)
(0.07786842 1.4471905e-06 0)
(0.07754765 -1.3661418e-06 0)
(0.077847899 1.2921735e-06 0)
(0.077567033 -1.2218602e-06 0)
(0.07782956 1.1565523e-06 0)
(0.077584392 -1.095261e-06 0)
(0.077813111 1.0380136e-06 0)
(0.077599993 -9.8462141e-07 0)
(0.077798302 9.3474096e-07 0)
(0.077614067 -8.8841593e-07 0)
(0.077784913 8.4524307e-07 0)
(0.077626822 -8.0531527e-07 0)
(0.077772748 7.682654e-07 0)
(0.077638443 -7.3417571e-07 0)
(0.07776163 7.0273621e-07 0)
(0.0776491 -6.7401057e-07 0)
(0.077751397 6.4774051e-07 0)
(0.077658949 -6.2396429e-07 0)
(0.077741897 6.0250497e-07 0)
(0.077668135 -5.8328887e-07 0)
(0.07773299 5.6625965e-07 0)
(0.077676795 -5.5176068e-07 0)
(0.077724546 5.3711584e-07 0)
(0.077685082 -5.3003559e-07 0)
(0.077716477 5.1919311e-07 0)
(0.077693133 -4.8251122e-07 0)
(0.077708293 6.4997814e-07 0)
(0.077699351 -4.4573907e-07 0)
(0.068040418 0.0087051153 0)
(0.084386026 -0.00091329424 0)
(0.082290972 0.00076777992 0)
(0.080701427 -7.6443921e-05 0)
(0.082411652 0.00011672007 0)
(0.081608018 -1.9545008e-05 0)
(0.082822418 3.0252946e-05 0)
(0.081639301 9.2955991e-06 0)
(0.082734764 3.3315476e-06 0)
(0.081736279 2.3336217e-06 0)
(0.082604973 1.5702458e-06 0)
(0.081824122 -1.6959043e-06 0)
(0.082539119 2.1354437e-06 0)
(0.081879024 -2.311406e-06 0)
(0.082495895 2.2950478e-06 0)
(0.08191836 -2.1827793e-06 0)
(0.082459693 2.1109544e-06 0)
(0.081951613 -1.9653742e-06 0)
(0.082428024 1.8748025e-06 0)
(0.081981072 -1.7565897e-06 0)
(0.082400098 1.6651598e-06 0)
(0.082007267 -1.5676393e-06 0)
(0.082375332 1.4830555e-06 0)
(0.0820306 -1.3998759e-06 0)
(0.082353275 1.3241046e-06 0)
(0.082051436 -1.2519931e-06 0)
(0.08233356 1.1850473e-06 0)
(0.082070097 -1.1222054e-06 0)
(0.082315878 1.0635082e-06 0)
(0.082086866 -1.008772e-06 0)
(0.082299961 9.5762639e-07 0)
(0.082101993 -9.1013925e-07 0)
(0.082285572 8.6587294e-07 0)
(0.082115699 -8.2494652e-07 0)
(0.0822725 7.869608e-07 0)
(0.082128186 -7.5202053e-07 0)
(0.082260556 7.1978864e-07 0)
(0.082139634 -6.9034741e-07 0)
(0.082249564 6.6341574e-07 0)
(0.082150211 -6.3904659e-07 0)
(0.082239363 6.1704679e-07 0)
(0.082160075 -5.9734397e-07 0)
(0.0822298 5.7988858e-07 0)
(0.082169371 -5.6501939e-07 0)
(0.082220736 5.4990201e-07 0)
(0.082178261 -5.4295187e-07 0)
(0.082212073 5.3123015e-07 0)
(0.082186897 -4.9309765e-07 0)
(0.082203353 6.7171495e-07 0)
(0.082193861 -4.5077063e-07 0)
(0.073665016 0.0091263876 0)
(0.086363505 -0.0010430226 0)
(0.086781701 0.00078564685 0)
(0.084464223 -7.7262385e-05 0)
(0.086725459 0.00011001723 0)
(0.085815629 -2.2652266e-05 0)
(0.087141991 3.0233891e-05 0)
(0.085928872 9.3110252e-06 0)
(0.087081521 3.1301175e-06 0)
(0.08602682 2.7545005e-06 0)
(0.086953608 1.3655838e-06 0)
(0.086121114 -1.6151056e-06 0)
(0.086883531 2.104935e-06 0)
(0.086179318 -2.336641e-06 0)
(0.08683762 2.3267095e-06 0)
(0.086221181 -2.2175022e-06 0)
(0.086799073 2.1485185e-06 0)
(0.086256655 -1.9982731e-06 0)
(0.086765299 1.9079759e-06 0)
(0.086288103 -1.7867121e-06 0)
(0.086735494 1.6943304e-06 0)
(0.086316072 -1.5947528e-06 0)
(0.086709051 1.5088849e-06 0)
(0.08634099 -1.4241212e-06 0)
(0.086685496 1.3470618e-06 0)
(0.086363243 -1.2736345e-06 0)
(0.086664441 1.2055047e-06 0)
(0.086383173 -1.141536e-06 0)
(0.086645557 1.0817875e-06 0)
(0.086401081 -1.0260781e-06 0)
(0.086628559 9.7401481e-07 0)
(0.086417233 -9.2568813e-07 0)
(0.086613196 8.8062933e-07 0)
(0.086431866 -8.3898257e-07 0)
(0.086599242 8.0031935e-07 0)
(0.086445194 -7.6476622e-07 0)
(0.086586493 7.3196132e-07 0)
(0.086457412 -7.0200486e-07 0)
(0.086574763 6.745949e-07 0)
(0.086468699 -6.4979888e-07 0)
(0.086563879 6.2740839e-07 0)
(0.086479222 -6.0735311e-07 0)
(0.086553678 5.8959145e-07 0)
(0.086489137 -5.7445154e-07 0)
(0.08654401 5.5896818e-07 0)
(0.086498614 -5.5220343e-07 0)
(0.086534769 5.3966061e-07 0)
(0.086507818 -5.003838e-07 0)
(0.086525529 6.8878432e-07 0)
(0.086515528 -4.5249217e-07 0)
(0.078780516 0.0090364856 0)
(0.088762127 -0.0010810438 0)
(0.091132241 0.00079560638 0)
(0.088133399 -7.7352935e-05 0)
(0.090875497 0.0001006617 0)
(0.089872462 -2.5759902e-05 0)
(0.091289749 2.975518e-05 0)
(0.09005079 9.1704022e-06 0)
(0.091252657 2.930739e-06 0)
(0.090146196 3.1582509e-06 0)
(0.0911287 1.1225953e-06 0)
(0.090246068 -1.5075762e-06 0)
(0.09105444 2.0544961e-06 0)
(0.090307378 -2.3451833e-06 0)
(0.091005888 2.3428541e-06 0)
(0.090351684 -2.2377632e-06 0)
(0.090965062 2.1723872e-06 0)
(0.090389319 -2.0181951e-06 0)
(0.090929243 1.9288842e-06 0)
(0.090422701 -1.8052539e-06 0)
(0.090897614 1.7125556e-06 0)
(0.090452396 -1.611529e-06 0)
(0.090869541 1.5249429e-06 0)
(0.090478854 -1.4391307e-06 0)
(0.09084453 1.3612852e-06 0)
(0.090502484 -1.2870133e-06 0)
(0.090822173 1.2181425e-06 0)
(0.090523645 -1.153461e-06 0)
(0.090802123 1.0930496e-06 0)
(0.090542659 -1.0367288e-06 0)
(0.090784076 9.840867e-07 0)
(0.090559806 -9.352347e-07 0)
(0.090767768 8.8967675e-07 0)
(0.090575338 -8.4758064e-07 0)
(0.090752957 8.0849169e-07 0)
(0.090589483 -7.7255701e-07 0)
(0.090739428 7.3939263e-07 0)
(0.090602447 -7.0911593e-07 0)
(0.090726982 6.8140617e-07 0)
(0.090614422 -6.5634472e-07 0)
(0.090715436 6.3370949e-07 0)
(0.090625584 -6.134326e-07 0)
(0.090704616 5.9548123e-07 0)
(0.0906361 -5.8016762e-07 0)
(0.090694363 5.6442413e-07 0)
(0.090646145 -5.5789143e-07 0)
(0.09068456 5.4459977e-07 0)
(0.090655898 -5.0448062e-07 0)
(0.09067482 7.0120426e-07 0)
(0.090664348 -4.5114953e-07 0)
(0.084422893 0.0093047512 0)
(0.090661885 -0.0011917206 0)
(0.09522563 0.00079454774 0)
(0.091786537 -7.5302538e-05 0)
(0.094870844 8.9433536e-05 0)
(0.093775695 -2.8799696e-05 0)
(0.095266215 2.8924297e-05 0)
(0.094004464 8.9007098e-06 0)
(0.095247468 2.7549349e-06 0)
(0.094095403 3.528307e-06 0)
(0.095129971 8.493462e-07 0)
(0.094199042 -1.3743192e-06 0)
(0.095051796 1.9853443e-06 0)
(0.094263259 -2.3373237e-06 0)
(0.095000647 2.3440225e-06 0)
(0.094309919 -2.2439948e-06 0)
(0.094957615 2.1829572e-06 0)
(0.094349649 -2.0255315e-06 0)
(0.094919816 1.9378841e-06 0)
(0.094384906 -1.8125623e-06 0)
(0.09488642 1.7201596e-06 0)
(0.094416273 -1.6182788e-06 0)
(0.09485677 1.5315237e-06 0)
(0.094444222 -1.4451848e-06 0)
(0.09483035 1.3670415e-06 0)
(0.094469183 -1.2923834e-06 0)
(0.094806734 1.2232025e-06 0)
(0.094491537 -1.15821e-06 0)
(0.094785555 1.0975137e-06 0)
(0.094511619 -1.0409324e-06 0)
(0.094766495 9.8804074e-07 0)
(0.094529728 -9.3896829e-07 0)
(0.094749272 8.93196e-07 0)
(0.094546129 -8.5091326e-07 0)
(0.094733634 8.1164283e-07 0)
(0.094561063 -7.7555087e-07 0)
(0.094719351 7.4223425e-07 0)
(0.094574749 -7.1182622e-07 0)
(0.094706213 6.8398979e-07 0)
(0.094587388 -6.5881947e-07 0)
(0.094694027 6.3608091e-07 0)
(0.094599168 -6.1570927e-07 0)
(0.09468261 5.9768108e-07 0)
(0.094610264 -5.8228817e-07 0)
(0.094671791 5.6638902e-07 0)
(0.094620857 -5.6012666e-07 0)
(0.094661446 5.4617105e-07 0)
(0.094631139 -5.0550482e-07 0)
(0.094651223 7.0902185e-07 0)
(0.094640319 -4.4698822e-07 0)
(0.089226909 0.0091647948 0)
(0.09297058 -0.0012201016 0)
(0.099084586 0.00078411389 0)
(0.095400276 -7.3635365e-05 0)
(0.098710763 7.6996379e-05 0)
(0.097522693 -3.1659275e-05 0)
(0.099071497 2.7823972e-05 0)
(0.097789005 8.5333349e-06 0)
(0.099065831 2.612656e-06 0)
(0.097875047 3.8485983e-06 0)
(0.098957105 5.590637e-07 0)
(0.097980043 -1.218153e-06 0)
(0.098875551 1.8984866e-06 0)
(0.098047006 -2.3134269e-06 0)
(0.098821851 2.3307454e-06 0)
(0.098095928 -2.2366806e-06 0)
(0.09877669 2.1806435e-06 0)
(0.098137682 -2.0207128e-06 0)
(0.098736983 1.9353585e-06 0)
(0.098174751 -1.8090168e-06 0)
(0.098701882 1.7174941e-06 0)
(0.098207731 -1.6153415e-06 0)
(0.098670711 1.5289469e-06 0)
(0.098237118 -1.4425887e-06 0)
(0.098642933 1.36462e-06 0)
(0.098263363 -1.2900201e-06 0)
(0.098618102 1.2209462e-06 0)
(0.098286865 -1.1560318e-06 0)
(0.098595836 1.0954163e-06 0)
(0.098307977 -1.0389141e-06 0)
(0.0985758 9.860913e-07 0)
(0.098327013 -9.3709299e-07 0)
(0.098557697 8.9138174e-07 0)
(0.098344251 -8.491662e-07 0)
(0.098541261 8.0995041e-07 0)
(0.098359945 -7.7391771e-07 0)
(0.098526252 7.4064899e-07 0)
(0.098374326 -7.1029208e-07 0)
(0.098512448 6.8249621e-07 0)
(0.098387605 -6.5736804e-07 0)
(0.098499646 6.3466288e-07 0)
(0.098399979 -6.1431919e-07 0)
(0.098487654 5.9632302e-07 0)
(0.098411633 -5.8094225e-07 0)
(0.098476291 5.6498984e-07 0)
(0.098422754 -5.5902834e-07 0)
(0.098465423 5.4450501e-07 0)
(0.098433543 -5.035782e-07 0)
(0.098454738 7.1231006e-07 0)
(0.09844344 -4.4024951e-07 0)
(0.094830891 0.0093500669 0)
(0.094933493 -0.0013039389 0)
(0.10267621 0.00076394686 0)
(0.09897791 -7.167411e-05 0)
(0.10238965 6.4097532e-05 0)
(0.10111023 -3.4277195e-05 0)
(0.10270548 2.6526254e-05 0)
(0.10140348 8.0997343e-06 0)
(0.10270823 2.5017633e-06 0)
(0.10148513 4.1080662e-06 0)
(0.10260982 2.6774088e-07 0)