/*--------------------------------*- C++ -*----------------------------------*\
| =========                 |                                                 |
| \\      /  F ield         | OpenFOAM: The Open Source CFD Toolbox           |
|  \\    /   O peration     | Version:  2312                                  |
|   \\  /    A nd           | Website:  www.openfoam.com                      |
|    \\/     M anipulation  |                                                 |
\*---------------------------------------------------------------------------*/
FoamFile
{
    version     2.0;
    format      ascii;
    arch        "LSB;label=32;scalar=64";
    class       volSymmTensorField;
    location    "10";
    object      sigma;
}
// * * * * * * * * * * * * * * * * * * * * * * * * * * * * * * * * * * * * * //

dimensions      [0 2 -2 0 0 0 0];

internalField   nonuniform List<symmTensor> 
4000
(
(-0.39077629 -0.20769873 0 -0.070834271 0 0)
(-0.66804664 -0.14914931 0 -3.0111807e-05 0 0)
(-0.59380377 -0.14066788 0 3.5115704e-06 0 0)
(-0.63278881 -0.1453011 0 -2.9518461e-05 0 0)
(-0.60116996 -0.141486 0 3.2037319e-05 0 0)
(-0.63086004 -0.14508125 0 -2.935835e-05 0 0)
(-0.60379688 -0.14180361 0 2.8156712e-05 0 0)
(-0.62924409 -0.14488778 0 -2.6261909e-05 0 0)
(-0.60548201 -0.14200925 0 2.4702146e-05 0 0)
(-0.62775253 -0.14470869 0 -2.3143723e-05 0 0)
(-0.60689502 -0.14218179 0 2.1710344e-05 0 0)
(-0.62642253 -0.14454886 0 -2.0364109e-05 0 0)
(-0.60812994 -0.14233246 0 1.9098588e-05 0 0)
(-0.6252501 -0.14440786 0 -1.7921596e-05 0 0)
(-0.60921607 -0.14246483 0 1.6811539e-05 0 0)
(-0.62421856 -0.14428371 0 -1.5780543e-05 0 0)
(-0.61017278 -0.14258133 0 1.4808497e-05 0 0)
(-0.62331077 -0.14417439 0 -1.3905663e-05 0 0)
(-0.61101616 -0.14268393 0 1.305532e-05 0 0)
(-0.62251126 -0.14407806 0 -1.2265444e-05 0 0)
(-0.61176024 -0.14277437 0 1.1522379e-05 0 0)
(-0.62180636 -0.1439931 0 -1.0832217e-05 0 0)
(-0.61241743 -0.14285418 0 1.0183807e-05 0 0)
(-0.62118404 -0.14391808 0 -9.581789e-06 0 0)
(-0.61299868 -0.14292472 0 9.0170242e-06 0 0)
(-0.62063367 -0.14385174 0 -8.4930494e-06 0 0)
(-0.6135137 -0.14298715 0 8.0023465e-06 0 0)
(-0.6201459 -0.14379294 0 -7.5476192e-06 0 0)
(-0.61397109 -0.14304255 0 7.1226573e-06 0 0)
(-0.6197124 -0.14374071 0 -6.7295399e-06 0 0)
(-0.61437852 -0.14309184 0 6.3631177e-06 0 0)
(-0.61932584 -0.14369415 0 -6.0250048e-06 0 0)
(-0.61474281 -0.14313585 0 5.7109178e-06 0 0)
(-0.61897963 -0.14365249 0 -5.4221277e-06 0 0)
(-0.61507007 -0.14317534 0 5.1550629e-06 0 0)
(-0.61866791 -0.14361501 0 -4.9107453e-06 0 0)
(-0.61536579 -0.14321096 0 4.6861928e-06 0 0)
(-0.6183854 -0.1435811 0 -4.4822511e-06 0 0)
(-0.61563493 -0.14324331 0 4.2964322e-06 0 0)
(-0.61812731 -0.14355017 0 -4.1294633e-06 0 0)
(-0.61588204 -0.14327294 0 3.9792774e-06 0 0)
(-0.61788928 -0.14352171 0 -3.846533e-06 0 0)
(-0.61611126 -0.14330035 0 3.7295341e-06 0 0)
(-0.61766726 -0.14349523 0 -3.6289274e-06 0 0)
(-0.61632647 -0.14332601 0 3.543357e-06 0 0)
(-0.61745748 -0.14347028 0 -3.4736523e-06 0 0)
(-0.61653126 -0.14335034 0 3.4189993e-06 0 0)
(-0.61725649 -0.14344646 0 -3.3766883e-06 0 0)
(-0.61673351 -0.14337418 0 3.3869853e-06 0 0)
(-0.61709751 -0.14342766 0 -3.3338155e-06 0 0)
(-0.35580607 -0.19390183 0 -0.066203886 0 0)
(-0.60579361 -0.14212129 0 -0.00023960955 0 0)
(-0.55253961 -0.135729 0 -3.3833426e-05 0 0)
(-0.58560389 -0.13981075 0 -2.8724571e-05 0 0)
(-0.55776667 -0.13623895 0 3.639293e-05 0 0)
(-0.58394176 -0.13961809 0 -3.1802975e-05 0 0)
(-0.5600856 -0.13653671 0 3.1776659e-05 0 0)
(-0.58253997 -0.13944028 0 -2.9319973e-05 0 0)
(-0.56157493 -0.13673051 0 2.7743168e-05 0 0)
(-0.58122547 -0.13927204 0 -2.5933687e-05 0 0)
(-0.56282153 -0.13689301 0 2.4353262e-05 0 0)
(-0.58005106 -0.13912156 0 -2.2832091e-05 0 0)
(-0.56391053 -0.13703485 0 2.1418546e-05 0 0)
(-0.57901558 -0.13898876 0 -2.0095913e-05 0 0)
(-0.5648683 -0.13715947 0 1.8852997e-05 0 0)
(-0.5781045 -0.13887183 0 -1.7695739e-05 0 0)
(-0.56571199 -0.13726913 0 1.660679e-05 0 0)
(-0.57730273 -0.13876887 0 -1.5593685e-05 0 0)
(-0.56645579 -0.13736572 0 1.4640945e-05 0 0)
(-0.57659659 -0.13867814 0 -1.3754707e-05 0 0)
(-0.56711208 -0.13745086 0 1.2922119e-05 0 0)
(-0.575974 -0.13859812 0 -1.2147833e-05 0 0)
(-0.56769179 -0.13752601 0 1.1421289e-05 0 0)
(-0.57542431 -0.13852746 0 -1.0745953e-05 0 0)
(-0.56820457 -0.13759241 0 1.0113134e-05 0 0)
(-0.57493816 -0.13846496 0 -9.5254041e-06 0 0)
(-0.56865899 -0.1376512 0 8.9755864e-06 0 0)
(-0.57450725 -0.13840957 0 -8.4655891e-06 0 0)
(-0.56906264 -0.13770337 0 7.9894611e-06 0 0)
(-0.57412424 -0.13836036 0 -7.5486251e-06 0 0)
(-0.56942226 -0.13774979 0 7.1381294e-06 0 0)
(-0.57378264 -0.13831649 0 -6.7590466e-06 0 0)
(-0.5697439 -0.13779125 0 6.4072439e-06 0 0)
(-0.57347664 -0.13827723 0 -6.0835474e-06 0 0)
(-0.57003293 -0.13782845 0 5.7845015e-06 0 0)
(-0.57320104 -0.13824191 0 -5.5107643e-06 0 0)
(-0.57029421 -0.13786201 0 5.2594459e-06 0 0)
(-0.57295118 -0.13820994 0 -5.031099e-06 0 0)
(-0.57053212 -0.1378925 0 4.8233128e-06 0 0)
(-0.57272282 -0.13818078 0 -4.6365869e-06 0 0)
(-0.57075068 -0.13792044 0 4.4689284e-06 0 0)
(-0.57251209 -0.13815393 0 -4.3208353e-06 0 0)
(-0.57095356 -0.1379463 0 4.1907045e-06 0 0)
(-0.57231541 -0.13812894 0 -4.0791145e-06 0 0)
(-0.57114419 -0.13797051 0 3.9848503e-06 0 0)
(-0.57212942 -0.1381054 0 -3.9090697e-06 0 0)
(-0.57132579 -0.13799347 0 3.8510768e-06 0 0)
(-0.57195077 -0.13808286 0 -3.805237e-06 0 0)
(-0.57150379 -0.13801567 0 3.8753815e-06 0 0)
(-0.57180109 -0.138064 0 -3.7099321e-06 0 0)
(-0.33415862 -0.18410735 0 -0.061743731 0 0)
(-0.56595761 -0.13700257 0 -0.00012859743 0 0)
(-0.5248192 -0.13230061 0 -5.4591482e-05 0 0)
(-0.55506742 -0.13614928 0 -2.7238189e-05 0 0)
(-0.52962979 -0.1327272 0 3.6645065e-05 0 0)
(-0.55357456 -0.1359654 0 -3.0732365e-05 0 0)
(-0.53175707 -0.13301232 0 3.1791953e-05 0 0)
(-0.55230113 -0.13579701 0 -2.9048374e-05 0 0)
(-0.53312175 -0.13319839 0 2.7618582e-05 0 0)
(-0.55109962 -0.13563588 0 -2.5769245e-05 0 0)
(-0.53426248 -0.13335433 0 2.4217566e-05 0 0)
(-0.55002511 -0.1354916 0 -2.2697866e-05 0 0)
(-0.53525876 -0.13349041 0 2.1294959e-05 0 0)
(-0.54907764 -0.13536425 0 -1.9979469e-05 0 0)
(-0.536135 -0.13360995 0 1.8743581e-05 0 0)
(-0.54824403 -0.13525213 0 -1.7593479e-05 0 0)
(-0.53690692 -0.13371516 0 1.6510372e-05 0 0)
(-0.54751046 -0.13515339 0 -1.5503626e-05 0 0)
(-0.5375875 -0.13380782 0 1.4555999e-05 0 0)
(-0.5468644 -0.13506638 0 -1.3675299e-05 0 0)
(-0.53818806 -0.13388951 0 1.2847223e-05 0 0)
(-0.54629479 -0.13498964 0 -1.2077743e-05 0 0)
(-0.53871858 -0.13396161 0 1.135518e-05 0 0)
(-0.54579189 -0.13492187 0 -1.0684011e-05 0 0)
(-0.53918788 -0.13402533 0 1.0054695e-05 0 0)
(-0.5453471 -0.13486192 0 -9.470579e-06 0 0)
(-0.5396038 -0.13408174 0 8.9238376e-06 0 0)
(-0.54495284 -0.1348088 0 -8.4169725e-06 0 0)
(-0.53997328 -0.1341318 0 7.9435389e-06 0 0)
(-0.5446024 -0.13476159 0 -7.5054179e-06 0 0)
(-0.54030251 -0.13417636 0 7.0972776e-06 0 0)
(-0.54428981 -0.1347195 0 -6.7205493e-06 0 0)
(-0.54059698 -0.13421615 0 6.3708044e-06 0 0)
(-0.54400977 -0.13468183 0 -6.0491548e-06 0 0)
(-0.54086163 -0.13425187 0 5.7519106e-06 0 0)
(-0.54375752 -0.13464793 0 -5.4799647e-06 0 0)
(-0.54110091 -0.13428409 0 5.2302384e-06 0 0)
(-0.54352878 -0.13461724 0 -5.0034849e-06 0 0)
(-0.54131884 -0.13431338 0 4.7971395e-06 0 0)
(-0.54331968 -0.13458924 0 -4.6118842e-06 0 0)
(-0.54151908 -0.13434022 0 4.4456029e-06 0 0)
(-0.54312667 -0.13456345 0 -4.2989769e-06 0 0)
(-0.541705 -0.13436507 0 4.1703202e-06 0 0)
(-0.54294646 -0.13453944 0 -4.0604336e-06 0 0)
(-0.54187977 -0.13438835 0 3.9680916e-06 0 0)
(-0.54277595 -0.1345168 0 -3.8949798e-06 0 0)
(-0.54204633 -0.13441044 0 3.8402845e-06 0 0)
(-0.54261199 -0.13449511 0 -3.7988442e-06 0 0)
(-0.54220932 -0.13443166 0 3.9100068e-06 0 0)
(-0.54247045 -0.13447664 0 -3.8061651e-06 0 0)
(-0.31949964 -0.17556235 0 -0.056858706 0 0)
(-0.52973272 -0.13232245 0 -6.9465499e-05 0 0)
(-0.49757863 -0.12885156 0 -7.9328646e-05 0 0)
(-0.52540944 -0.13248941 0 -2.2738386e-05 0 0)
(-0.50213053 -0.12921522 0 3.3373797e-05 0 0)
(-0.52410805 -0.13231382 0 -2.640844e-05 0 0)
(-0.50409076 -0.12948776 0 2.8851197e-05 0 0)
(-0.52294808 -0.13215477 0 -2.5968644e-05 0 0)
(-0.50534436 -0.12966618 0 2.4875321e-05 0 0)
(-0.52184575 -0.13200065 0 -2.3141687e-05 0 0)
(-0.50639099 -0.12981557 0 2.1775985e-05 0 0)
(-0.52085888 -0.13186246 0 -2.0398063e-05 0 0)
(-0.50730483 -0.1299459 0 1.9142134e-05 0 0)
(-0.51998861 -0.13174048 0 -1.7957519e-05 0 0)
(-0.50810858 -0.13006039 0 1.6847742e-05 0 0)
(-0.51922296 -0.13163306 0 -1.5813447e-05 0 0)
(-0.50881669 -0.13016115 0 1.4840288e-05 0 0)
(-0.51854923 -0.13153847 0 -1.3935162e-05 0 0)
(-0.50944104 -0.1302499 0 1.3083628e-05 0 0)
(-0.51795591 -0.13145511 0 -1.2291879e-05 0 0)
(-0.50999201 -0.13032815 0 1.1547754e-05 0 0)
(-0.51743282 -0.13138159 0 -1.0856013e-05 0 0)
(-0.51047875 -0.13039721 0 1.0206699e-05 0 0)
(-0.51697101 -0.13131665 0 -9.6033517e-06 0 0)
(-0.51090935 -0.13045825 0 9.0378357e-06 0 0)
(-0.51656259 -0.13125922 0 -8.5127601e-06 0 0)
(-0.51129099 -0.13051229 0 8.0214532e-06 0 0)
(-0.51620057 -0.13120831 0 -7.565838e-06 0 0)
(-0.51163002 -0.13056026 0 7.1404178e-06 0 0)
(-0.51587879 -0.13116307 0 -6.7466175e-06 0 0)
(-0.51193213 -0.13060295 0 6.3798872e-06 0 0)
(-0.51559178 -0.13112273 0 -6.0412974e-06 0 0)
(-0.51220236 -0.13064109 0 5.7270658e-06 0 0)
(-0.51533465 -0.13108661 0 -5.4380182e-06 0 0)
(-0.51244524 -0.13067532 0 5.1709995e-06 0 0)
(-0.51510304 -0.13105411 0 -4.9266755e-06 0 0)
(-0.51266485 -0.13070622 0 4.7024105e-06 0 0)
(-0.51489302 -0.13102467 0 -4.4987781e-06 0 0)
(-0.51286486 -0.13073432 0 4.3135814e-06 0 0)
(-0.51470103 -0.1309978 0 -4.1473626e-06 0 0)
(-0.51304865 -0.13076007 0 3.9983139e-06 0 0)
(-0.51452381 -0.13097305 0 -3.8670148e-06 0 0)
(-0.51321932 -0.13078392 0 3.752048e-06 0 0)
(-0.51435834 -0.13094999 0 -3.6541611e-06 0 0)
(-0.51337977 -0.13080628 0 3.5723801e-06 0 0)
(-0.51420176 -0.13092824 0 -3.5085982e-06 0 0)
(-0.51353273 -0.13082751 0 3.4619349e-06 0 0)
(-0.51405107 -0.13090737 0 -3.4267869e-06 0 0)
(-0.51368206 -0.13084779 0 3.5799561e-06 0 0)
(-0.51391686 -0.13088924 0 -3.5144867e-06 0 0)
(-0.3060454 -0.16736387 0 -0.052170892 0 0)
(-0.49473086 -0.12768319 0 3.0539964e-06 0 0)
(-0.47075049 -0.12535345 0 -9.6009126e-05 0 0)
(-0.49656177 -0.12883178 0 -1.9118839e-05 0 0)
(-0.47528223 -0.12569893 0 2.954984e-05 0 0)
(-0.4955019 -0.12866571 0 -2.196131e-05 0 0)
(-0.47710745 -0.12596 0 2.5676384e-05 0 0)
(-0.49444579 -0.12851533 0 -2.2688136e-05 0 0)
(-0.47826126 -0.12613114 0 2.1929497e-05 0 0)
(-0.49343289 -0.12836784 0 -2.0328089e-05 0 0)
(-0.47922323 -0.12627433 0 1.9158276e-05 0 0)
(-0.49252511 -0.12823544 0 -1.7933457e-05 0 0)
(-0.48006294 -0.12639921 0 1.6834734e-05 0 0)
(-0.49172453 -0.12811855 0 -1.5790352e-05 0 0)
(-0.4808015 -0.12650891 0 1.4815843e-05 0 0)
(-0.49102024 -0.12801562 0 -1.3905501e-05 0 0)
(-0.4814522 -0.12660546 0 1.3050303e-05 0 0)
(-0.49040055 -0.12792498 0 -1.225395e-05 0 0)
(-0.48202598 -0.1266905 0 1.1505489e-05 0 0)
(-0.48985484 -0.1278451 0 -1.0808972e-05 0 0)
(-0.48253234 -0.12676548 0 1.0154867e-05 0 0)
(-0.48937377 -0.12777464 0 -9.546371e-06 0 0)
(-0.48297968 -0.12683165 0 8.9755803e-06 0 0)
(-0.48894907 -0.12771242 0 -8.4448699e-06 0 0)
(-0.48337544 -0.12689015 0 7.9477256e-06 0 0)
(-0.48857349 -0.12765737 0 -7.4858872e-06 0 0)
(-0.48372621 -0.12694194 0 7.0539699e-06 0 0)
(-0.4882406 -0.12760858 0 -6.6532475e-06 0 0)
(-0.48403783 -0.12698792 0 6.2792491e-06 0 0)
(-0.48794473 -0.12756521 0 -5.9329145e-06 0 0)
(-0.4843155 -0.12702884 0 5.6105158e-06 0 0)
(-0.48768085 -0.12752654 0 -5.3127597e-06 0 0)
(-0.48456387 -0.12706541 0 5.036526e-06 0 0)
(-0.48744446 -0.12749191 0 -4.7823658e-06 0 0)
(-0.4847871 -0.12709823 0 4.5476605e-06 0 0)
(-0.48723154 -0.12746074 0 -4.3328658e-06 0 0)
(-0.48498892 -0.12712787 0 4.1357837e-06 0 0)
(-0.48703849 -0.12743251 0 -3.9568237e-06 0 0)
(-0.48517274 -0.12715481 0 3.7941495e-06 0 0)
(-0.48686202 -0.12740673 0 -3.6481711e-06 0 0)
(-0.48534163 -0.12717952 0 3.5173821e-06 0 0)
(-0.48669915 -0.12738297 0 -3.4022523e-06 0 0)
(-0.48549846 -0.12720242 0 3.3016241e-06 0 0)
(-0.48654709 -0.12736084 0 -3.2161541e-06 0 0)
(-0.48564589 -0.12722389 0 3.1450935e-06 0 0)
(-0.4864032 -0.12733995 0 -3.090406e-06 0 0)
(-0.48578643 -0.12724428 0 3.0509918e-06 0 0)
(-0.48626469 -0.12731989 0 -3.0210688e-06 0 0)
(-0.48592336 -0.12726369 0 3.2042892e-06 0 0)
(-0.48613798 -0.12730215 0 -3.1785659e-06 0 0)
(-0.29296397 -0.15939707 0 -0.047709607 0 0)
(-0.46141999 -0.12313507 0 8.9620579e-05 0 0)
(-0.44448354 -0.12182123 0 -0.00010396146 0 0)
(-0.46852712 -0.12517439 0 -1.6345286e-05 0 0)
(-0.44911197 -0.12217939 0 2.5895243e-05 0 0)
(-0.46773199 -0.12502004 0 -1.8076689e-05 0 0)
(-0.45082968 -0.12243006 0 2.2912918e-05 0 0)
(-0.46677484 -0.12487797 0 -1.9815238e-05 0 0)
(-0.45189281 -0.12259421 0 1.9352481e-05 0 0)
(-0.46584422 -0.12473684 0 -1.7864264e-05 0 0)
(-0.45277718 -0.12273142 0 1.6867004e-05 0 0)
(-0.46500907 -0.12461002 0 -1.5775495e-05 0 0)
(-0.45354889 -0.12285105 0 1.4814925e-05 0 0)
(-0.46427249 -0.12449803 0 -1.3892875e-05 0 0)
(-0.45422765 -0.12295614 0 1.3037147e-05 0 0)
(-0.46362453 -0.12439942 0 -1.2234997e-05 0 0)
(-0.45482571 -0.12304863 0 1.1483341e-05 0 0)
(-0.46305444 -0.12431257 0 -1.0781959e-05 0 0)
(-0.45535308 -0.1231301 0 1.0123945e-05 0 0)
(-0.46255245 -0.12423604 0 -9.5105976e-06 0 0)
(-0.45581852 -0.12320193 0 8.9354671e-06 0 0)
(-0.46210994 -0.12416854 0 -8.3996846e-06 0 0)
(-0.45622972 -0.12326533 0 7.897766e-06 0 0)
(-0.46171931 -0.12410891 0 -7.4305124e-06 0 0)
(-0.45659351 -0.12332137 0 6.9933242e-06 0 0)
(-0.46137387 -0.12405617 0 -6.5867366e-06 0 0)
(-0.45691595 -0.123371 0 6.2068884e-06 0 0)
(-0.46106772 -0.12400941 0 -5.8541283e-06 0 0)
(-0.4572024 -0.12341506 0 5.5252039e-06 0 0)
(-0.46079564 -0.12396785 0 -5.2203418e-06 0 0)
(-0.45745765 -0.12345427 0 4.9367928e-06 0 0)
(-0.46055298 -0.12393079 0 -4.6747108e-06 0 0)
(-0.45768596 -0.12348932 0 4.4317662e-06 0 0)
(-0.46033562 -0.1238976 0 -4.2080775e-06 0 0)
(-0.45789115 -0.12352078 0 4.0016689e-06 0 0)
(-0.46013986 -0.12386772 0 -3.8126531e-06 0 0)
(-0.45807666 -0.12354919 0 3.6393579e-06 0 0)
(-0.45996238 -0.12384065 0 -3.481916e-06 0 0)
(-0.45824561 -0.12357503 0 3.3389249e-06 0 0)
(-0.45980017 -0.12381592 0 -3.2105653e-06 0 0)
(-0.45840083 -0.12359874 0 3.0956913e-06 0 0)
(-0.45965047 -0.12379313 0 -2.9945772e-06 0 0)
(-0.45854494 -0.1236207 0 2.9063676e-06 0 0)
(-0.45951072 -0.12377189 0 -2.8315445e-06 0 0)
(-0.4586804 -0.1236413 0 2.7696039e-06 0 0)
(-0.45937851 -0.12375184 0 -2.7224462e-06 0 0)
(-0.45880954 -0.12366089 0 2.6887205e-06 0 0)
(-0.45925121 -0.12373257 0 -2.6624932e-06 0 0)
(-0.45893508 -0.12367946 0 2.8663839e-06 0 0)
(-0.45913192 -0.12371524 0 -2.8730026e-06 0 0)
(-0.28038501 -0.15171017 0 -0.043453579 0 0)
(-0.42978856 -0.11867458 0 0.00019163316 0 0)
(-0.41880274 -0.11825982 0 -0.00010385372 0 0)
(-0.44133076 -0.12151612 0 -1.3512668e-05 0 0)
(-0.42363483 -0.11865703 0 2.2431648e-05 0 0)
(-0.44078776 -0.12137605 0 -1.4667094e-05 0 0)
(-0.42526662 -0.11889844 0 2.04831e-05 0 0)
(-0.43992596 -0.12124214 0 -1.7281509e-05 0 0)
(-0.42624728 -0.11905585 0 1.7078744e-05 0 0)
(-0.4390717 -0.12110718 0 -1.5689867e-05 0 0)
(-0.42706013 -0.11918725 0 1.4844897e-05 0 0)
(-0.43830372 -0.12098576 0 -1.3871045e-05 0 0)
(-0.42776911 -0.11930179 0 1.3032364e-05 0 0)
(-0.4376263 -0.12087854 0 -1.2218308e-05 0 0)
(-0.42839268 -0.11940241 0 1.1467367e-05 0 0)
(-0.4370304 -0.12078411 0 -1.0760728e-05 0 0)
(-0.42894214 -0.11949095 0 1.0100415e-05 0 0)
(-0.43650615 -0.12070096 0 -9.4828717e-06 0 0)
(-0.42942669 -0.11956896 0 8.9046501e-06 0 0)
(-0.43604456 -0.12062768 0 -8.3647183e-06 0 0)
(-0.42985434 -0.11963773 0 7.8592606e-06 0 0)
(-0.43563768 -0.12056303 0 -7.3876608e-06 0 0)
(-0.43023218 -0.11969844 0 6.9465036e-06 0 0)
(-0.43527852 -0.12050594 0 -6.5352583e-06 0 0)
(-0.43056647 -0.1197521 0 6.1509654e-06 0 0)
(-0.43496094 -0.12045543 0 -5.7931399e-06 0 0)
(-0.43086276 -0.11979962 0 5.4592279e-06 0 0)
(-0.43467949 -0.12041065 0 -5.1487942e-06 0 0)
(-0.43112598 -0.11984181 0 4.8596329e-06 0 0)
(-0.43442937 -0.12037085 0 -4.5913658e-06 0 0)
(-0.43136053 -0.11987937 0 4.3420861e-06 0 0)
(-0.43420632 -0.12033535 0 -4.1114777e-06 0 0)
(-0.43157032 -0.11991294 0 3.8978929e-06 0 0)
(-0.43400653 -0.12030356 0 -3.7010815e-06 0 0)
(-0.43175886 -0.11994308 0 3.5196225e-06 0 0)
(-0.43382661 -0.12027493 0 -3.3533358e-06 0 0)
(-0.43192932 -0.1199703 0 3.2010033e-06 0 0)
(-0.43366351 -0.12024899 0 -3.0625203e-06 0 0)
(-0.43208454 -0.11999506 0 2.9368583e-06 0 0)
(-0.43351445 -0.1202253 0 -2.8240002e-06 0 0)
(-0.43222715 -0.12001778 0 2.7231094e-06 0 0)
(-0.4333769 -0.12020345 0 -2.6342884e-06 0 0)
(-0.43235953 -0.12003884 0 2.5569376e-06 0 0)
(-0.43324851 -0.12018308 0 -2.4913781e-06 0 0)
(-0.43248396 -0.1200586 0 2.4373027e-06 0 0)
(-0.43312707 -0.12016384 0 -2.3965177e-06 0 0)
(-0.43260257 -0.12007739 0 2.3673811e-06 0 0)
(-0.43301012 -0.12014534 0 -2.3439262e-06 0 0)
(-0.43271765 -0.12009517 0 2.5608581e-06 0 0)
(-0.43289812 -0.12012845 0 -2.5954049e-06 0 0)
(-0.26841958 -0.14431994 0 -0.039380588 0 0)
(-0.39982733 -0.1143054 0 0.00030614706 0 0)
(-0.39370097 -0.11467232 0 -9.7301915e-05 0 0)
(-0.41501681 -0.11785899 0 -9.8804082e-06 0 0)
(-0.39886658 -0.11513212 0 1.9241934e-05 0 0)
(-0.41466585 -0.1177336 0 -1.1571858e-05 0 0)
(-0.4004238 -0.11536529 0 1.8260048e-05 0 0)
(-0.41389429 -0.11760769 0 -1.4966275e-05 0 0)
(-0.40132927 -0.11551621 0 1.4995125e-05 0 0)
(-0.41311107 -0.11747872 0 -1.3699159e-05 0 0)
(-0.40207612 -0.11564196 0 1.2992651e-05 0 0)
(-0.41240533 -0.11736256 0 -1.2127063e-05 0 0)
(-0.40272711 -0.11575154 0 1.1399702e-05 0 0)
(-0.41178268 -0.11725997 0 -1.0684765e-05 0 0)
(-0.40329967 -0.1158478 0 1.0029617e-05 0 0)
(-0.41123499 -0.11716962 0 -9.4105898e-06 0 0)
(-0.40380421 -0.11593252 0 8.8338058e-06 0 0)
(-0.41075318 -0.11709005 0 -8.293147e-06 0 0)
(-0.40424915 -0.11600714 0 7.7879048e-06 0 0)
(-0.41032898 -0.11701994 0 -7.3152869e-06 0 0)
(-0.40464188 -0.11607294 0 6.8735616e-06 0 0)
(-0.40995508 -0.11695808 0 -6.4608006e-06 0 0)
(-0.40498886 -0.11613103 0 6.0752303e-06 0 0)
(-0.40962506 -0.11690345 0 -5.7153223e-06 0 0)
(-0.40529586 -0.11618238 0 5.379424e-06 0 0)
(-0.40933325 -0.11685512 0 -5.0662878e-06 0 0)
(-0.40556797 -0.11622785 0 4.7744057e-06 0 0)
(-0.40907466 -0.11681226 0 -4.5027574e-06 0 0)
(-0.40580971 -0.11626822 0 4.2499784e-06 0 0)
(-0.40884486 -0.11677417 0 -4.0152398e-06 0 0)
(-0.40602512 -0.11630417 0 3.7973146e-06 0 0)
(-0.40863994 -0.11674019 0 -3.5955373e-06 0 0)
(-0.40621779 -0.1163363 0 3.4088121e-06 0 0)
(-0.40845641 -0.11670976 0 -3.2366151e-06 0 0)
(-0.40639095 -0.11636515 0 3.0779761e-06 0 0)
(-0.40829114 -0.11668235 0 -2.932497e-06 0 0)
(-0.40654748 -0.11639121 0 2.7993294e-06 0 0)
(-0.40814133 -0.11665752 0 -2.6781913e-06 0 0)
(-0.40669002 -0.11641492 0 2.5683583e-06 0 0)
(-0.40800443 -0.11663482 0 -2.4696644e-06 0 0)
(-0.40682096 -0.11643668 0 2.381523e-06 0 0)
(-0.40787811 -0.1166139 0 -2.3039043e-06 0 0)
(-0.40694251 -0.11645686 0 2.2364114e-06 0 0)
(-0.40776023 -0.11659438 0 -2.1792343e-06 0 0)
(-0.40705675 -0.1164758 0 2.1322123e-06 0 0)
(-0.40764873 -0.11657594 0 -2.0970486e-06 0 0)
(-0.40716562 -0.11649381 0 2.0717952e-06 0 0)
(-0.40754137 -0.11655819 0 -2.0505185e-06 0 0)
(-0.40727106 -0.11651082 0 2.2742896e-06 0 0)
(-0.40743648 -0.11654175 0 -2.3341203e-06 0 0)
(-0.25706274 -0.13721571 0 -0.035482935 0 0)
(-0.37150697 -0.11002736 0 0.0004307121 0 0)
(-0.36919332 -0.1110615 0 -8.5526021e-05 0 0)
(-0.38959425 -0.11420401 0 -5.2437932e-06 0 0)
(-0.37482103 -0.11160496 0 1.6531515e-05 0 0)
(-0.38936405 -0.11409274 0 -8.7102716e-06 0 0)
(-0.37630617 -0.11183064 0 1.619915e-05 0 0)
(-0.38867598 -0.11397459 0 -1.282262e-05 0 0)
(-0.37714261 -0.11197529 0 1.3058135e-05 0 0)
(-0.38795883 -0.11385146 0 -1.1851621e-05 0 0)
(-0.37782849 -0.11209555 0 1.1272192e-05 0 0)
(-0.38731081 -0.1137404 0 -1.0507844e-05 0 0)
(-0.37842584 -0.11220031 0 9.8834761e-06 0 0)
(-0.38673895 -0.11364232 0 -9.2608133e-06 0 0)
(-0.37895119 -0.11229233 0 8.6944417e-06 0 0)
(-0.38623594 -0.11355593 0 -8.1569048e-06 0 0)
(-0.37941414 -0.11237332 0 7.6575654e-06 0 0)
(-0.38579346 -0.11347986 0 -7.188397e-06 0 0)
(-0.37982244 -0.11244467 0 6.7508319e-06 0 0)
(-0.38540391 -0.11341281 0 -6.3407933e-06 0 0)
(-0.38018283 -0.11250758 0 5.9581778e-06 0 0)
(-0.38506057 -0.11335367 0 -5.6001084e-06 0 0)
(-0.38050125 -0.11256311 0 5.2660987e-06 0 0)
(-0.38475754 -0.11330143 0 -4.9539026e-06 0 0)
(-0.38078299 -0.11261221 0 4.6628971e-06 0 0)
(-0.38448961 -0.11325522 0 -4.3912884e-06 0 0)
(-0.38103271 -0.11265569 0 4.1383967e-06 0 0)
(-0.38425219 -0.11321424 0 -3.9027848e-06 0 0)
(-0.38125457 -0.1126943 0 3.6837576e-06 0 0)
(-0.38404122 -0.11317781 0 -3.4801662e-06 0 0)
(-0.38145226 -0.11272867 0 3.2913275e-06 0 0)
(-0.38385309 -0.11314531 0 -3.1163287e-06 0 0)
(-0.38162908 -0.1127594 0 2.9545176e-06 0 0)
(-0.38368462 -0.1131162 0 -2.8051771e-06 0 0)
(-0.38178798 -0.112787 0 2.6677005e-06 0 0)
(-0.38353292 -0.11308999 0 -2.5415356e-06 0 0)
(-0.38193163 -0.11281193 0 2.4261333e-06 0 0)
(-0.38339541 -0.11306622 0 -2.3210851e-06 0 0)
(-0.38206243 -0.11283462 0 2.2259128e-06 0 0)
(-0.38326977 -0.1130445 0 -2.1403425e-06 0 0)
(-0.38218258 -0.11285544 0 2.0639888e-06 0 0)
(-0.38315386 -0.11302447 0 -1.9967227e-06 0 0)
(-0.3822941 -0.11287476 0 1.9383065e-06 0 0)
(-0.38304569 -0.11300579 0 -1.8888245e-06 0 0)
(-0.3823989 -0.11289289 0 1.8482215e-06 0 0)
(-0.38294341 -0.11298812 0 -1.8180891e-06 0 0)
(-0.38249877 -0.11291015 0 1.7961812e-06 0 0)
(-0.38284492 -0.11297112 0 -1.7766128e-06 0 0)
(-0.3825953 -0.11292643 0 2.0018841e-06 0 0)
(-0.38274693 -0.11295515 0 -2.0853699e-06 0 0)
(-0.24626042 -0.13037954 0 -0.031758517 0 0)
(-0.34479202 -0.10583898 0 0.00056376189 0 0)
(-0.34535797 -0.10743401 0 -6.9187463e-05 0 0)
(-0.36501966 -0.11054863 0 1.2479869e-07 0 0)
(-0.35150528 -0.10807584 0 1.4469186e-05 0 0)
(-0.36487815 -0.11045341 0 -6.0455021e-06 0 0)
(-0.35291801 -0.10829451 0 1.4290319e-05 0 0)
(-0.36426738 -0.11034282 0 -1.0835634e-05 0 0)
(-0.35369084 -0.10843311 0 1.1254794e-05 0 0)
(-0.36361174 -0.11022536 0 -1.0135219e-05 0 0)
(-0.35432034 -0.10854804 0 9.6721653e-06 0 0)
(-0.36301734 -0.11011928 0 -9.0027524e-06 0 0)
(-0.354868 -0.10864812 0 8.4737318e-06 0 0)
(-0.3624926 -0.11002556 0 -7.9370809e-06 0 0)
(-0.35534961 -0.10873602 0 7.4530854e-06 0 0)
(-0.36203106 -0.10994304 0 -6.9914219e-06 0 0)
(-0.35577402 -0.10881339 0 6.5639806e-06 0 0)
(-0.36162507 -0.10987035 0 -6.1613539e-06 0 0)
(-0.35614835 -0.10888154 0 5.7866311e-06 0 0)
(-0.36126767 -0.1098063 0 -5.4348294e-06 0 0)
(-0.35647877 -0.10894164 0 5.1071078e-06 0 0)
(-0.36095268 -0.10974979 0 -4.7999275e-06 0 0)
(-0.35677072 -0.1089947 0 4.5138054e-06 0 0)
(-0.36067469 -0.10969988 0 -4.2459981e-06 0 0)
(-0.35702905 -0.1090416 0 3.9966902e-06 0 0)
(-0.36042891 -0.10965572 0 -3.7637117e-06 0 0)
(-0.35725802 -0.10908315 0 3.5470369e-06 0 0)
(-0.36021112 -0.10961657 0 -3.3449429e-06 0 0)
(-0.35746144 -0.10912003 0 3.1572668e-06 0 0)
(-0.36001761 -0.10958176 0 -2.9826417e-06 0 0)
(-0.35764271 -0.10915288 0 2.8208198e-06 0 0)
(-0.35984507 -0.1095507 0 -2.67072e-06 0 0)
(-0.35780483 -0.10918225 0 2.5320479e-06 0 0)
(-0.35969055 -0.10952288 0 -2.4039547e-06 0 0)
(-0.35795053 -0.10920862 0 2.2861285e-06 0 0)
(-0.35955143 -0.10949782 0 -2.1779118e-06 0 0)
(-0.35808223 -0.10923246 0 2.0789987e-06 0 0)
(-0.35942534 -0.1094751 0 -1.9888935e-06 0 0)
(-0.35820215 -0.10925415 0 1.9073183e-06 0 0)
(-0.35931014 -0.10945434 0 -1.8339224e-06 0 0)
(-0.3583123 -0.10927406 0 1.7684833e-06 0 0)
(-0.35920387 -0.10943518 0 -1.7107977e-06 0 0)
(-0.35841453 -0.10929254 0 1.6607537e-06 0 0)
(-0.35910471 -0.1094173 0 -1.6183482e-06 0 0)
(-0.35851058 -0.10930989 0 1.5836012e-06 0 0)
(-0.35901096 -0.1094004 0 -1.5579822e-06 0 0)
(-0.3586021 -0.10932641 0 1.5389744e-06 0 0)
(-0.3589207 -0.10938412 0 -1.5207196e-06 0 0)
(-0.3586904 -0.10934198 0 1.7428744e-06 0 0)
(-0.35882938 -0.10936863 0 -1.8487704e-06 0 0)
(-0.23594715 -0.12379369 0 -0.028204668 0 0)
(-0.31963898 -0.10173791 0 0.00070449596 0 0)
(-0.32228273 -0.10379671 0 -4.8759236e-05 0 0)
(-0.3412474 -0.10689045 0 5.8359392e-06 0 0)
(-0.32892141 -0.10454488 0 1.3106353e-05 0 0)
(-0.34120335 -0.10681554 0 -3.5617412e-06 0 0)
(-0.33026281 -0.10475694 0 1.2523785e-05 0 0)
(-0.34066514 -0.10671234 0 -8.9946955e-06 0 0)
(-0.33097709 -0.10488972 0 9.5757656e-06 0 0)
(-0.3400669 -0.1066004 0 -8.5413966e-06 0 0)
(-0.33155442 -0.10499946 0 8.1844255e-06 0 0)
(-0.33952236 -0.10649914 0 -7.6042097e-06 0 0)
(-0.332056 -0.10509498 0 7.1633429e-06 0 0)
(-0.33904141 -0.10640969 0 -6.7068806e-06 0 0)
(-0.33249703 -0.10517888 0 6.2992831e-06 0 0)
(-0.33861839 -0.10633091 0 -5.9082516e-06 0 0)
(-0.33288569 -0.10525273 0 5.5475351e-06 0 0)
(-0.33824631 -0.10626152 0 -5.2068294e-06 0 0)
(-0.3332285 -0.10531778 0 4.8904406e-06 0 0)
(-0.33791877 -0.10620038 0 -4.5928212e-06 0 0)
(-0.33353111 -0.10537515 0 4.3160622e-06 0 0)
(-0.33763011 -0.10614644 0 -4.0562211e-06 0 0)
(-0.33379851 -0.1054258 0 3.8145614e-06 0 0)
(-0.33737537 -0.10609879 0 -3.5880409e-06 0 0)
(-0.3340351 -0.10547057 0 3.3774511e-06 0 0)
(-0.33715016 -0.10605663 0 -3.1803986e-06 0 0)
(-0.33424482 -0.10551023 0 2.9973544e-06 0 0)
(-0.33695061 -0.10601925 0 -2.8264278e-06 0 0)
(-0.33443114 -0.10554545 0 2.6678646e-06 0 0)
(-0.33677331 -0.10598601 0 -2.5201708e-06 0 0)
(-0.33459716 -0.10557681 0 2.3834361e-06 0 0)
(-0.33661523 -0.10595636 0 -2.2564824e-06 0 0)
(-0.33474565 -0.10560485 0 2.1392948e-06 0 0)
(-0.33647368 -0.10592979 0 -2.0309487e-06 0 0)
(-0.33487909 -0.10563004 0 1.9313646e-06 0 0)
(-0.33634623 -0.10590585 0 -1.8398233e-06 0 0)
(-0.33499971 -0.1056528 0 1.7562122e-06 0 0)
(-0.33623074 -0.10588415 0 -1.6799827e-06 0 0)
(-0.33510953 -0.10567352 0 1.6110168e-06 0 0)
(-0.33612522 -0.10586431 0 -1.5489142e-06 0 0)
(-0.33521039 -0.10569255 0 1.4935819e-06 0 0)
(-0.3360279 -0.10584601 0 -1.444764e-06 0 0)
(-0.335304 -0.10571021 0 1.4024456e-06 0 0)
(-0.3359371 -0.10582892 0 -1.3665535e-06 0 0)
(-0.33539193 -0.10572679 0 1.3371568e-06 0 0)
(-0.33585127 -0.10581276 0 -1.3155958e-06 0 0)
(-0.33547572 -0.1057426 0 1.299123e-06 0 0)
(-0.33576865 -0.10579718 0 -1.2818682e-06 0 0)
(-0.3355564 -0.10575748 0 1.4969635e-06 0 0)
(-0.33568376 -0.10578219 0 -1.6242508e-06 0 0)
(-0.22605708 -0.11744249 0 -0.024817655 0 0)
(-0.29599714 -0.097720764 0 0.00085287563 0 0)
(-0.30002504 -0.1001547 0 -2.5168518e-05 0 0)
(-0.31825787 -0.10322927 0 1.1598285e-05 0 0)
(-0.30707036 -0.10101215 0 1.2384706e-05 0 0)
(-0.31833582 -0.10317911 0 -1.256573e-06 0 0)
(-0.30834357 -0.10121799 0 1.0883785e-05 0 0)
(-0.31786637 -0.1030831 0 -7.2889192e-06 0 0)
(-0.30900411 -0.10134514 0 8.0106211e-06 0 0)
(-0.31732176 -0.10297653 0 -7.0607025e-06 0 0)
(-0.30953312 -0.10144985 0 6.7999552e-06 0 0)
(-0.31682364 -0.10287998 0 -6.3038378e-06 0 0)
(-0.30999195 -0.10154094 0 5.944417e-06 0 0)
(-0.31638344 -0.10279466 0 -5.5628204e-06 0 0)
(-0.3103953 -0.10162095 0 5.2260973e-06 0 0)
(-0.31599623 -0.10271952 0 -4.9008822e-06 0 0)
(-0.31075077 -0.10169137 0 4.6021207e-06 0 0)
(-0.31565566 -0.10265335 0 -4.3190866e-06 0 0)
(-0.31106432 -0.10175341 0 4.0568765e-06 0 0)
(-0.31535589 -0.10259503 0 -3.8097101e-06 0 0)
(-0.3113411 -0.10180812 0 3.5802911e-06 0 0)
(-0.31509171 -0.10254358 0 -3.3645234e-06 0 0)
(-0.31158568 -0.10185642 0 3.1641703e-06 0 0)
(-0.31485858 -0.10249813 0 -2.9760828e-06 0 0)
(-0.3118021 -0.10189913 0 2.8014663e-06 0 0)
(-0.31465249 -0.10245792 0 -2.6378519e-06 0 0)
(-0.31199393 -0.10193696 0 2.4860563e-06 0 0)
(-0.31446989 -0.10242226 0 -2.3441349e-06 0 0)
(-0.31216436 -0.10197055 0 2.2126233e-06 0 0)
(-0.31430766 -0.10239055 0 -2.0899889e-06 0 0)
(-0.31231622 -0.10200047 0 1.9765651e-06 0 0)
(-0.31416302 -0.10236226 0 -1.8711451e-06 0 0)
(-0.31245204 -0.10202722 0 1.7739195e-06 0 0)
(-0.31403351 -0.10233691 0 -1.6839411e-06 0 0)
(-0.3125741 -0.10205125 0 1.6013036e-06 0 0)
(-0.31391692 -0.10231408 0 -1.5252682e-06 0 0)
(-0.31268442 -0.10207297 0 1.455868e-06 0 0)
(-0.31381126 -0.10229337 0 -1.3925348e-06 0 0)
(-0.31278486 -0.10209275 0 1.3352716e-06 0 0)
(-0.31371475 -0.10227443 0 -1.2836558e-06 0 0)
(-0.3128771 -0.10211091 0 1.2376913e-06 0 0)
(-0.31362573 -0.10225695 0 -1.1970921e-06 0 0)
(-0.3129627 -0.10212777 0 1.1619123e-06 0 0)
(-0.3135427 -0.10224063 0 -1.1320269e-06 0 0)
(-0.3130431 -0.10214361 0 1.1075311e-06 0 0)
(-0.31346423 -0.1022252 0 -1.0896326e-06 0 0)
(-0.3131197 -0.10215871 0 1.0754006e-06 0 0)
(-0.31338871 -0.10221032 0 -1.0589088e-06 0 0)
(-0.31319331 -0.10217294 0 1.263622e-06 0 0)
(-0.31330998 -0.10219582 0 -1.4114765e-06 0 0)
(-0.21652652 -0.11131297 0 -0.021594367 0 0)
(-0.27379878 -0.09378223 0 0.0010090017 0 0)
(-0.27861925 -0.096513494 0 -1.8097794e-07 0 0)
(-0.29605064 -0.099565849 0 1.7330128e-05 0 0)
(-0.28595381 -0.097477556 0 1.224446e-05 0 0)
(-0.29627265 -0.099544057 0 8.8680611e-07 0 0)
(-0.28716297 -0.097677674 0 9.3574818e-06 0 0)
(-0.2958685 -0.099455061 0 -5.7073166e-06 0 0)
(-0.28777429 -0.097799414 0 6.5494356e-06 0 0)
(-0.2953741 -0.099353723 0 -5.684086e-06 0 0)
(-0.28825858 -0.097899235 0 5.5100902e-06 0 0)
(-0.29491925 -0.099261742 0 -5.0936089e-06 0 0)
(-0.28867771 -0.097986026 0 4.8093792e-06 0 0)
(-0.29451695 -0.099180449 0 -4.4978106e-06 0 0)
(-0.28904606 -0.098062252 0 4.2268723e-06 0 0)
(-0.29416307 -0.099108852 0 -3.9630672e-06 0 0)
(-0.28937068 -0.098129344 0 3.7218772e-06 0 0)
(-0.29385183 -0.099045797 0 -3.4926213e-06 0 0)
(-0.28965703 -0.098188454 0 3.2807739e-06 0 0)
(-0.29357788 -0.098990226 0 -3.0806422e-06 0 0)
(-0.28990981 -0.09824058 0 2.8952369e-06 0 0)
(-0.29333648 -0.098941201 0 -2.7205491e-06 0 0)
(-0.29013319 -0.0982866 0 2.5586056e-06 0 0)
(-0.29312345 -0.098897895 0 -2.4063349e-06 0 0)
(-0.29033085 -0.098327291 0 2.2651723e-06 0 0)
(-0.29293514 -0.098859574 0 -2.1327154e-06 0 0)
(-0.29050606 -0.098363337 0 2.0099819e-06 0 0)
(-0.2927683 -0.098825593 0 -1.8950836e-06 0 0)
(-0.29066172 -0.098395347 0 1.788732e-06 0 0)