/*--------------------------------*- C++ -*----------------------------------*\
| =========                 |                                                 |
| \\      /  F ield         | OpenFOAM: The Open Source CFD Toolbox           |
|  \\    /   O peration     | Version:  2312                                  |
|   \\  /    A nd           | Website:  www.openfoam.com                      |
|    \\/     M anipulation  |                                                 |
\*---------------------------------------------------------------------------*/
FoamFile
{
    version     2.0;
    format      ascii;
    arch        "LSB;label=32;scalar=64";
    class       volScalarField;
    location    "10";
    object      T;
}
// * * * * * * * * * * * * * * * * * * * * * * * * * * * * * * * * * * * * * //

dimensions      [0 0 0 1 0 0 0];

internalField   nonuniform List<scalar> 
4000
(
309.26112
310.16182
310.28943
310.37132
310.43265
310.49229
310.5425
310.59494
310.64081
310.68967
310.73332
310.78007
310.82239
310.86774
310.90922
310.95358
310.99446
311.0381
311.07855
311.12163
311.16175
311.20439
311.24426
311.28656
311.32622
311.36824
311.40771
311.44951
311.48883
311.53045
311.56963
311.61111
311.65016
311.69153
311.73045
311.77174
311.81054
311.85178
311.89045
311.93166
311.9702
312.01141
312.0498
312.09104
312.12926
312.17059
312.20858
312.25012
312.28764
312.33013
307.44583
309.25868
309.56138
309.72857
309.83424
309.93476
310.00707
310.08601
310.1453
310.21355
310.26616
310.32805
310.37671
310.43441
310.48052
310.53526
310.57959
310.63214
310.67518
310.72607
310.76813
310.8177
310.85899
310.90753
310.94818
310.9959
311.036
311.08306
311.12269
311.16922
311.20842
311.25453
311.29334
311.33912
311.37756
311.42309
311.46116
311.50653
311.54422
311.58951
311.6268
311.67209
311.70894
311.75433
311.79066
311.83632
311.87194
311.91822
311.95247
312.00153
306.13307
308.36812
308.83611
309.08737
309.23709
309.37819
309.47258
309.57785
309.65059
309.73809
309.7997
309.87666
309.93168
310.00167
310.05243
310.11749
310.1653
310.22673
310.27238
310.33103
310.37505
310.43153
310.47425
310.52902
310.57067
310.62406
310.66481
310.7171
310.75706
310.80847
310.84772
310.89844
310.93703
310.9872
311.02516
311.07492
311.11227
311.16176
311.19848
311.24784
311.28389
311.33324
311.36856
311.4181
311.45254
311.50253
311.53578
311.5868
311.61779
311.67322
305.14841
307.50372
308.11773
308.44993
308.64286
308.82379
308.94009
309.07131
309.15748
309.264
309.33464
309.42647
309.48791
309.57004
309.6255
309.70077
309.7521
309.82231
309.87062
309.93696
309.98296
310.04629
310.09047
310.1514
310.19409
310.25311
310.29453
310.35202
310.39233
310.44859
310.4879
310.54319
310.58157
310.63611
310.67361
310.72759
310.76422
310.81782
310.85357
310.90698
310.9418
310.99521
311.02901
311.08266
311.11524
311.16952
311.20044
311.25616
311.28394
311.34544
304.38845
306.67903
307.41181
307.81933
308.05375
308.27319
308.41102
308.56755
308.66704
308.79216
308.87182
308.97824
309.0461
309.14016
309.20036
309.28568
309.34056
309.41941
309.47041
309.54433
309.59236
309.66243
309.70811
309.77514
309.81889
309.88347
309.92558
309.98821
310.02889
310.08995
310.12935
310.18917
310.22737
310.28623
310.32329
310.38143
310.41738
310.47505
310.50986
310.56728
310.60089
310.65832
310.69062
310.74837
310.77909
310.83764
310.86625
310.92663
310.95128
311.01848
303.78884
305.90579
306.72485
307.19936
307.47248
307.72844
307.88706
308.06794
308.1805
308.32365
308.41223
308.53284
308.60711
308.71279
308.77774
308.87286
308.93133
309.01864
309.07236
309.1537
309.20379
309.28048
309.32769
309.40069
309.44554
309.51558
309.55843
309.62611
309.66719
309.73298
309.77248
309.83677
309.87481
309.93793
309.97458
310.03685
310.07212
310.13381
310.1677
310.22909
310.26152
310.32293
310.35375
310.41554
310.44446
310.50721
310.53356
310.59851
310.62017
310.69265
303.30768
305.19304
306.06376
306.59437
306.90216
307.19188
307.37017
307.57411
307.6993
307.85969
307.95701
308.09126
308.17187
308.28878
308.35846
308.46308
308.52513
308.62065
308.67711
308.76567
308.81785
308.90098
308.94975
309.02858
309.07456
309.14995
309.19354
309.26617
309.30769
309.3781
309.41775
309.48642
309.52432
309.59164
309.6279
309.69421
309.72885
309.79449
309.82749
309.89279
309.92407
309.98939
310.01877
310.08454
310.11168
310.17858
310.20273
310.27213
310.29097
310.36828
302.91651
304.54681
305.43528
306.009
306.34623
306.66616
306.86252
307.08785
307.22501
307.40165
307.5074
307.65463
307.74142
307.86906
307.94339
308.05713
308.12274
308.22616
308.28535
308.38089
308.43516
308.52454
308.57488
308.65937
308.70649
308.78707
308.83144
308.90889
308.95085
309.02579
309.0656
309.13855
309.17635
309.24777
309.28365
309.35394
309.38796
309.45748
309.48962
309.55876
309.58891
309.65807
309.68604
309.75572
309.78114
309.85208
309.87412
309.94783
309.96404
310.04573
302.59527
303.97012
304.84547
305.44792
305.80823
306.15407
306.36643
306.61112
306.75934
306.95101
307.06474
307.22412
307.31685
307.45463
307.53349
307.65589
307.72498
307.83595
307.89784
308.00006
308.0564
308.15177
308.20369
308.29364
308.3419
308.4275
308.47265
308.55477
308.5972
308.67653
308.7165
308.79362
308.83133
308.90674
308.94229
309.01644
309.04987
309.12318
309.15448
309.22736
309.25643
309.32933
309.35595
309.42944
309.4532
309.52807
309.54808
309.62593
309.63975
309.72536
302.32929
303.46325
304.29929
304.91556
305.29173
305.65848
305.88431
306.14595
306.30408
306.50935
306.63045
306.80102
306.89935
307.04657
307.12974
307.26027
307.33272
307.45083
307.51533
307.62389
307.68226
307.78336
307.83681
307.93198
307.98138
308.0718
308.11773
308.20434
308.24724
308.3308
308.37096
308.45211
308.48974
308.56902
308.60424
308.68214
308.71501
308.79199
308.82248
308.89901
308.92702
309.00357
309.02888
309.10605
309.12823
309.20688
309.225
309.30677
309.31846
309.40756
302.10755
303.02411
303.80034
304.41586
304.8001
305.18224
305.41858
305.69442
305.86105
306.07827
306.20598
306.38664
306.49012
306.64599
306.73319
306.87125
306.94688
307.07163
307.13864
307.25316
307.31348
307.41998
307.47492
307.57504
307.62554
307.72055
307.76724
307.85814
307.9015
307.98912
308.02946
308.11448
308.15204
308.23504
308.26995
308.35148
308.3838
308.46433
308.49405
308.57408
308.60109
308.68115
308.70521
308.78593
308.8066
308.88888
308.90522
308.99068
309.0005
309.09269
301.92152
302.64876
303.35066
303.95203
304.33639
304.72803
304.97156
305.25857
305.43207
305.65941
305.7928
305.98232
306.09038
306.254
306.34488
306.48979
306.56836
306.69924
306.76858
306.88863
306.95078
307.06232
307.11868
307.22346
307.275
307.37434
307.42176
307.51673
307.56052
307.652
307.69252
307.78123
307.81871
307.90528
307.93989
308.02488
308.05667
308.14061
308.16958
308.25299
308.27903
308.36246
308.38533
308.46945
308.48869
308.57441
308.58912
308.67801
308.68623
308.78114
301.7645
302.33186
302.95079
303.52638
303.90314
304.29828
304.54543
304.84039
305.0189
305.25436
305.39237
305.58938
305.70136
305.87175
305.96588
306.11689
306.19811
306.33451
306.40598
306.53108
306.59492
306.71112
306.76878
306.87787
306.93039
307.03377
307.08186
307.18065
307.22485
307.31996
307.36064
307.45284
307.49025
307.58019
307.6145
307.70279
307.73407
307.82126
307.84951
307.93613
307.96124
308.04788
308.06962
308.15696
308.17487
308.26383
308.27706
308.3691
308.37597
308.47326
301.63114
302.06722
302.5998
303.14027
303.50231
303.89503
304.14215
304.44167
304.62318
304.86464
305.00607
305.20913
305.32427
305.50036
305.59722
305.75352
305.83703
305.97832
306.05167
306.1813
306.24665
306.36706
306.4259
306.53895
306.59233
306.69945
306.74814
306.85048
306.89502
306.99353
307.03433
307.1298
307.16711
307.26024
307.29425
307.38565
307.41643
307.50668
307.53423
307.62389
307.64813
307.73779
307.75847
307.84883
307.86552
307.95749
307.96939
308.0643
308.07006
308.16942
301.51712
301.84828
302.29554
302.79403
303.13518
303.5199
303.76333
304.06401
304.24642
304.49167
304.63521
304.84278
304.96022
305.1409
305.2399
305.40064
305.48602
305.63153
305.70645
305.84006
305.90668
306.03086
306.0907
306.20731
306.26144
306.37196
306.42115
306.52675
306.57158
306.67322
306.71409
306.8126
306.84979
306.94588
306.97958
307.07388
307.10417
307.19728
307.22417
307.31667
307.34007
307.43257
307.45225
307.54543
307.56099
307.65573
307.66646
307.76393
307.76881
307.86997
301.41895
301.6684
302.03484
302.48705
302.80231
303.174
303.41025
303.70875
303.8899
304.13671
304.28099
304.49148
304.61031
304.7944
304.89489
305.05916
305.14594
305.29494
305.37109
305.5081
305.57574
305.7032
305.76384
305.88361
305.93833
306.05189
306.10148
306.21001
306.25504
306.35954
306.40042
306.50172
306.53875
306.63757
306.67093
306.76792
306.79772
306.89349
306.91972
307.01486
307.03746
307.13257
307.15133
307.2471
307.26163
307.35889
307.3686
307.46835
307.47254
307.57525
301.33381
301.52129
301.81383
302.21784
302.50354
302.85791
303.08378
303.37692
303.55469
303.80083
303.94444
304.15625
304.27548
304.46177
304.56307
304.72993
304.81761
304.96935
305.04635
305.18613
305.25451
305.38472
305.44595
305.56843
305.62358
305.7398
305.78965
305.9008
305.94592
306.05298
306.0938
306.19762
306.23443
306.33574
306.36874
306.46818
306.49748
306.59568
306.62128
306.71883
306.74067
306.83818
306.85607
306.95419
306.9678
307.06731
307.07615
307.17788
307.18154
307.28558
301.25942
301.40114
301.62824
301.98422
302.23805
302.57163
302.78434
303.06922
303.24157
303.48491
303.62642
303.83796
303.95659
304.14386
304.24523
304.41372
304.50175
304.65546
304.7329
304.87483
304.94362
305.07606
305.13762
305.26237
305.31774
305.43623
305.48619
305.5996
305.64471
305.75402
305.7947
305.90075
305.93729
306.04081
306.07341
306.17507
306.20385
306.30424
306.32922
306.42895
306.45006
306.54972
306.56681
306.66704
306.67983
306.78131
306.78943
306.89284
306.89612
307.00128
301.19391
301.3028
301.4736
301.78346
302.00444
302.31468
302.51194
302.786
302.95106
303.18957
303.3276
303.53732
303.65433
303.84138
303.94207
304.11123
304.19904
304.35394
304.43137
304.5748
304.64365
304.77778
304.83941
304.96595
305.02134
305.14169
305.19159
305.3069
305.35187
305.4631
305.50354
305.61152
305.64773
305.75319
305.78536
305.88896
305.9172
306.01954
306.0439
306.14556
306.16598
306.26754
306.2839
306.38596
306.39802
306.50122
306.50872
306.61355
306.61656
306.72264
301.13583
301.22184
301.34551
301.61244
301.8008
302.08609
302.26616
302.52724
302.68335
302.91519
303.04844
303.25486
303.36926
303.55492
303.65416
303.82304
303.91005
304.06536
304.14232
304.28659
304.35516
304.49041
304.55181
304.67967
304.73485
304.85665
304.90631
305.02315
305.06783
305.18065
305.22074
305.33035
305.36614
305.47326
305.50494
305.61021
305.63791
305.74192
305.76566
305.86899
305.88876
305.99196
306.00763
306.11127
306.12269
306.22731
306.23432
306.34029
306.34311
306.44994
301.08397
301.15456
301.23981
301.46789
301.62485
301.88446
302.04619
302.29259
302.43835
302.6619
302.78917
302.99093
303.10177
303.2849
303.38195
303.54963
303.63524
303.79019
303.86622
304.01068
304.07858
304.21441
304.27529
304.40398
304.45871
304.58152
304.63076
304.74875
304.79299
304.90705
304.94668
305.05761
305.0929
305.20138
305.23252
305.33918
305.36629
305.47171
305.49484
305.59957
305.6187
305.72328
305.73832
305.84326
305.85412
305.95989
305.9665
306.07335
306.07606
306.18345
301.03741
301.09796
301.15269
301.34647
301.47408
301.70809
301.85091
302.08138
302.21569
302.42957
302.54981
302.74568
302.85206
303.03163
303.12577
303.29136
303.37499
303.52883
303.60345
303.74747
303.81433
303.95017
304.01023
304.13926
304.1933
304.31669
304.36531
304.48405
304.52771
304.64266
304.68171
304.79362
304.82832
304.93786
304.9684
305.07617
305.10266
305.20921
305.23171
305.33758
305.35608
305.46177
305.47623
305.5822
305.59256
305.69922
305.70551
305.81298
305.81562
305.92341
300.99538
301.04966
301.08078
301.24496
301.34585
301.55502
301.67889
301.89268
302.01474
302.21784
302.33016
302.51906
302.62019
302.79523
302.88577
303.04845
303.12954
303.28155
303.35432
303.49727
303.5627
303.69801
303.75694
303.88584
303.93893
304.06248
304.11027
304.22939
304.27229
304.38778
304.42612
304.5387
304.57272
304.683
304.71288
304.82146
304.84729
304.9547
304.97656
305.08329
305.10118
305.2077
305.22161
305.32835
305.33827
305.44554
305.45157
305.55944
305.56204
305.67005
300.95731
301.00784
301.02116
301.16035
301.23747
301.42313
301.5285
301.72529
301.83462
302.02613
302.12982
302.31083
302.40602
302.57567
302.66201
302.821
302.89903
303.04854
303.119
303.26029
303.32393
303.45819
303.51568
303.64398
303.69588
303.81916
303.86592
303.98503
304.02701
304.14269
304.18019
304.29309
304.32633
304.43706
304.4662
304.5753
304.60044
304.70841
304.72962
304.83693
304.85422
304.9613
304.9747
305.08192
305.09145
305.19907
305.20489
305.31293
305.31552
305.42357
300.92272
300.97112
300.9714
301.08987
301.14637
301.31026
301.39797
301.57786
301.67428
301.85365
301.94819
302.1206
302.20926
302.37279
302.45438
302.609
302.68347
302.82986
302.8976
303.03666
303.09817
303.23087
303.28663
303.41387
303.46432
303.58693
303.63245
303.75117
303.79207
303.90759
303.94412
304.05703
304.08939
304.20026
304.22858
304.33791
304.36231
304.47056
304.49109
304.59871
304.61541
304.72277
304.73568
304.84312
304.8523
304.96003
304.96567
305.07366
305.07623
305.18416
300.89125
300.93847
300.92951
301.03112
301.0701
301.21421
301.28545
301.44887
301.53249
301.69945
301.78453
301.94779
302.02947
302.18627
302.26264
302.41228
302.48278
302.62547
302.69011
302.82643
302.88547
303.01614
303.06988
303.19563
303.24439
303.36593
303.41002
303.52799
303.56764
303.68265
303.71809
303.83069
303.86206
303.97276
304.00021
304.10947
304.13308
304.24133
304.26117
304.36881
304.38492
304.4923
304.50473
304.61213
304.62098
304.72857
304.73406
304.84179
304.84435
304.95198
300.8626
300.90919
300.8939
300.98199
301.00642
301.13289
301.18905
301.33675
301.40793
301.56245
301.63794
301.7917
301.86607
302.01566
302.08644
302.23059
302.29674
302.43523
302.49644
302.62954
302.6858
302.814
302.86545
302.98931
303.03617
303.15625
303.19871
303.31557
303.35383
303.468
303.50221
303.61419
303.64448
303.75471
303.78121
303.89012
303.91289
304.02087
304.03998
304.14738
304.16288
304.27003
304.28199
304.3891
304.39764
304.50486
304.51021
304.61748
304.62002
304.72717
300.83654
300.88276
300.86333
300.94072
300.95331
301.06432
301.10693
301.23988
301.29919
301.44147
301.50741
301.6515
301.71837
301.8604
301.9253
302.06355
302.12504
302.25891
302.31637
302.44584
302.49905
302.62437
302.67331
302.79488
302.83963
302.9579
302.99856
303.11398
303.15068
303.2637
303.29657
303.40761
303.43673
303.54621
303.57168
303.67996
303.70184
303.80928
303.82763
303.93454
303.94942
304.05607
304.06756
304.17415
304.18239
304.28901
304.29422
304.40083
304.40335
304.50985
300.81288
300.85882
300.83684
300.90586
300.90902
301.00666
301.03733
301.15665
301.20482
301.33527
301.39187
301.52626
301.58558
301.71983
301.77865
301.91068
301.96728
302.09617
302.14965
302.27511
302.32504
302.44712
302.49333
302.61227
302.65471
302.77083
302.80953
302.92319
302.95821
303.06977
303.10117
303.211
303.23886
303.34729
303.37167
303.47905
303.5
303.60663
303.6242
303.73035
303.74461
303.85052
303.86154
303.96737
303.9753
304.08112
304.08619
304.19195
304.19443
304.3001
300.79148
300.83714
300.81372
300.87622
300.87204
300.95829
300.97861
301.08551
301.1234
301.24257
301.29018
301.415
301.46682
301.59318
301.64585
301.77143
301.82296
301.94659
301.99589
302.11704
302.16349
302.28202
302.32531
302.44131
302.48128
302.59495
302.63154
302.74314
302.77634
302.88616
302.916
303.02433
303.05084
303.15798
303.1812
303.28742
303.30739
303.41296
303.42972
303.53487
303.54848
303.65342
303.66397
303.76881
303.77644
303.88125
303.88616
303.9909
303.99332
304.098
300.77223
300.81755
300.79346
300.85086
300.84109
300.91774
300.92924
301.02498
301.05353
301.16209
301.20117
301.31669
301.36117
301.47966
301.52615
301.64515
301.69153
301.80968
301.85467
301.97125
302.01407
302.12879
302.169
302.28179
302.31914
302.43009
302.46444
302.57371
302.60499
302.7128
302.74098
302.84756
302.87265
302.97823
303.00023
303.10505
303.12399
303.22827
303.24418
303.34812
303.36106
303.4648
303.47486
303.57852
303.58583
303.68943
303.69418
303.79772
303.80008
303.90359
300.75503
300.79995
300.77565
300.82906
300.81512
300.88374
300.88785
300.97369
300.99388
301.09257
301.12367
301.23026
301.26766
301.37838
301.41878
301.53116
301.57236
301.68489
301.72548
301.8373
301.87639
301.98706
302.02409
302.13343
302.16805
302.27603
302.30803
302.41473
302.44399
302.54955
302.576
302.68058
302.70417
302.80797
302.8287
302.93189
302.94976
303.05252
303.06757
303.17005
303.18231
303.28465
303.29421
303.39648
303.40346
303.50568
303.51025
303.61242
303.6147
303.71689
300.73983
300.78424
300.76002
300.81024
300.79326
300.85523
300.85324
300.93038
300.94318
301.03282
301.05655
301.15466
301.18532
301.28847
301.32293
301.42872
301.46477
301.57162
301.60778
301.71471
301.75
301.85645
301.89021
301.99589
302.0277
302.1325
302.16207
302.26599
302.29315
302.39624
302.42087
302.52325
302.54529
302.64708
302.6665
302.76784
302.78461
302.88565
302.89979
303.00063
303.01219
303.11293
303.12197
303.22267
303.22931
303.32997
303.33434
303.43499
303.43718
303.53788
300.72658
300.77035
300.74637
300.79396
300.77483
300.83128
300.82435
300.8939
300.90028
300.98168
300.99871
301.08885
301.11316
301.20902
301.23775
301.33706
301.36806
301.46921
301.50097
301.60293
301.63439
301.73649
301.76694
301.86881
301.89774
301.99919
302.02627
302.12721
302.15221
302.25264
302.27541
302.37538
302.39583
302.49542
302.51348
302.61278
302.62842
302.72753
302.74076
302.83976
302.8506
302.94956
302.95807
303.05703
303.0633
303.16226
303.16641
303.26538
303.26747
303.36654
300.71523
300.75822
300.73451
300.77987
300.75925
300.81114
300.80026
300.86325
300.86411
300.9381
300.94909
301.03181
301.05023
301.13913
301.16241
301.2554
301.2815
301.37701
301.40444
301.50138
301.52904
301.62671
301.65383
301.75177
301.7778
301.87574
301.9003
301.99809
302.0209
302.1185
302.13937
302.23676
302.25558
302.35279
302.36946
302.46655
302.48103
302.57805
302.59033
302.68733
302.69743
302.79445
302.80241
302.89947
302.90537
303.00247
303.00639
303.10354
303.10552
303.20281
300.70574
300.74778
300.72432
300.7677
300.74609
300.79418
300.78019
300.83754
300.83373
300.90109
300.90673
300.9826
300.9956
301.07792
301.09606
301.18295
301.20435
301.29431
301.31752
301.40947
301.43339
301.52658
301.55039
301.64432
301.66744
301.76177
301.78378
301.87832
301.8989
301.99353
302.01248
302.10713
302.12429
302.21897
302.23424
302.32895
302.34226
302.43703
302.44835
302.54319
302.55253
302.64747
302.65486
302.74988
302.75539
302.8505
302.85417
302.94938
302.95123
303.04662
300.69805
300.73895
300.71567
300.75724
300.73498
300.77988
300.76349
300.816
300.80829
300.86976
300.8707
300.94031
300.94838
301.02453
301.03789
301.11893
301.13587
301.22043
301.23956
301.32659
301.34684
301.43556
301.45612
301.54599
301.56622
301.65687
301.67634
301.7675
301.78587
301.8774
301.89442
301.98622
302.00171
302.09372
302.10757
302.19977
302.21189
302.30427
302.31462
302.40717
302.41574
302.50846
302.51527
302.60813
302.61323
302.70622
302.70963
302.80278
302.8045
302.89786
300.69207
300.73161
300.70845
300.74829
300.72563
300.76783
300.74961
300.79798
300.78705
300.84333
300.84018
300.90411
300.90775
300.97815
300.98709
301.06258
301.07532
301.15466
301.16991
301.2521
301.26882
301.3531
301.37047
301.45627
301.47368
301.56058
301.57754
301.66526
301.68143
301.76977
301.78486
301.8737
301.88753
301.97676
301.98918
302.07876
302.08968
302.17956
302.18893
302.27907
302.28687
302.37724
302.38347
302.47405
302.47873
302.5695
302.57264
302.66361
302.6652
302.75642
300.68767
300.72566
300.70252
300.74071
300.71781
300.75766
300.73808
300.7829
300.76937
300.82107
300.81443
300.87321
300.87293
300.938
300.94292
301.01316
301.02199
301.09632
301.1079
301.18539
301.19873
301.27862
301.29293
301.37466
301.38931
301.47245
301.48696
301.57119
301.58518
301.67027
301.68346
301.76925
301.78143
301.86779
301.8788
301.96565
301.97539
302.06265
302.07105
302.15867
302.16569
302.25363
302.25926
302.34746
302.35171
302.44016
302.44302
302.53172
302.53317
302.62214
300.68467
300.72095
300.69778
300.73434
300.71131
300.7491
300.72853
300.7703
300.75467
300.80237
300.79278
300.84693
300.8432
300.90337
300.90465
300.96998
300.97521
301.04476
301.0529
301.12583
301.13596
301.21157
301.22293
301.30066
301.31264
301.39203
301.40414
301.48486
301.49673
301.57853
301.58985
301.67253
301.68308
301.7665
301.77611
301.86015
301.86871
301.95328
301.96071
302.04573
302.05197
302.13738
302.14242
302.22816
302.23198
302.31802
302.3206
302.40693
302.40824
302.49488
300.68288
300.71733
300.69407
300.72905
300.70597
300.7419
300.72065
300.75976
300.7425
300.78668
300.77463
300.82463
300.81791
300.87359
300.87163
300.93237
300.93431
300.99933
301.00427
301.07284
301.07995
301.15139
301.15995
301.23373
301.24315
301.31882
301.32863
301.40584
301.41565
301.49413
301.50363
301.58316
301.59213
301.67255
301.68079
301.76197
301.76937
301.85118
301.85765
301.94
301.94547
302.02828
302.03272
302.11593
302.11932
302.20288
302.20517
302.28906
302.29023
302.37446
300.68205
300.71465
300.69129
300.7247
300.70163
300.73587
300.71416
300.75095
300.73243
300.77353
300.75946
300.80575
300.79647
300.84806
300.84323
300.8997
300.89868
300.95943
300.96143
301.02581
301.03011
301.09752
301.10345
301.17337
301.18037
301.25237
301.25997
301.33369
301.34151
301.41667
301.42441
301.50079
301.50821
301.5856
301.59251
301.67077
301.67704
301.75604
301.76157
301.8412
301.84591
301.92607
301.92992
302.01054
302.01349
302.09451
302.09652
302.17791
302.17894
302.26069
300.68196
300.71273
300.68928
300.72118
300.69815
300.73083
300.70885
300.74359
300.72414
300.76251
300.74681
300.7898
300.77834
300.82621
300.81888
300.87142
300.86774
300.92447
300.92381
300.98421
300.98591
301.04944
301.05291
301.11908
301.12379
301.19219
301.1977
301.26797
301.2739
301.34576
301.35181
301.42502
301.43095
301.5053
301.51092
301.58625
301.59142
301.66757
301.67219
301.74905
301.75302
301.83048
301.83376
301.91174
301.91426
301.99269
301.99442
302.07326
302.07414
302.15337
300.68238
300.71142
300.68793
300.71837
300.69543
300.72665
300.70453
300.73744
300.71732
300.75329
300.7363
300.77633
300.76307
300.80756
300.79808
300.84698
300.84095
300.89394
300.89086
300.94749
300.94682
301.00663
301.00783
301.07037
301.07294
301.13783
301.14136
301.20825
301.21238
301.28098
301.28542
301.35547
301.35999
301.43129
301.43568
301.50805
301.51217
301.58546
301.58919
301.66326
301.66651
301.74125
301.74395
301.81927
301.82137
301.89718
301.89863
301.97488
301.97563
302.05228
300.68313
300.71057
300.68712
300.71614
300.69334
300.72318
300.70104
300.7323
300.71173
300.74556
300.72758
300.76496
300.75023
300.79166
300.78034
300.8259
300.81783
300.86731
300.8621
300.91516
300.91235
300.9686
300.96772
301.02676
301.02736
301.08883
301.09053
301.15409
301.15655
301.22192
301.22485
301.29178
301.29494
301.36322
301.36642
301.43586
301.43896
301.50938
301.51226
301.58353
301.58608
301.65809
301.66024
301.73287
301.73456
301.80773
301.8089
301.88254
301.88314
301.9572
300.68406
300.71007
300.68673
300.71442
300.6918
300.72032
300.69826
300.728
300.70716
300.73907
300.72036
300.75537
300.73945
300.77811
300.76526
300.80776
300.79791
300.84415
300.83704
300.88676
300.88202
300.9349
300.93212
300.98781
300.9866
301.04476
301.04476
301.10509
301.10597
301.16819
301.16969
301.23355
301.23544
301.30072
301.30281
301.36932
301.37146
301.43902
301.44109
301.50956
301.51145
301.58071
301.58233
301.65226
301.65356
301.72407
301.72498
301.79599
301.79646
301.8679
300.68505
300.7098
300.68667
300.71309
300.6907
300.71797
300.69606
300.7244
300.70343
300.73362
300.71439
300.74726
300.73043
300.76657
300.75247
300.79215
300.78081
300.82402
300.81527
300.86185
300.8554
300.90508
300.9006
300.95308
300.95023
301.0052
301.00364
301.06083
301.06027
301.1194
301.11959
301.18042
301.18113
301.24345
301.24449
301.3081
301.30933
301.37406
301.37536
301.44105
301.4423
301.50882
301.50995
301.57718
301.5781
301.64595
301.6466
301.71497
301.71532
301.78413
300.68604
300.70969
300.68685
300.71208
300.68996
300.71604
300.69434
300.72137
300.70041
300.72901
300.70946
300.7404
300.72287
300.75673
300.74162
300.77872
300.76613
300.80654
300.79639
300.84002
300.8321
300.87874
300.87276
300.92218
300.91784
300.96976
300.96679
301.02093
301.01905
301.07518
301.07415
301.13203
301.13163
301.19105
301.19112
301.25188
301.25226
301.31418
301.31475
301.37769
301.37834
301.44214
301.44279
301.50734
301.5079
301.57309
301.57351
301.63925
301.63947
301.70566
300.68699
300.70966
300.68721
300.71131
300.68952
300.71445
300.69302
300.71881
300.69796
300.7251
300.70538
300.73456
300.71655
300.74833
300.73244
300.76717
300.75356
300.79138
300.78005
300.82093
300.81172
300.85551
300.84821
300.89471
300.88907
300.93805
300.93381
300.98502
300.98194
301.03516
301.03302
301.08802
301.08662
301.14319
301.14236
301.20031
301.19991
301.25907
301.25897
301.31917
301.31927
301.38037
301.38058
301.44246
301.44269
301.50524
301.50544
301.56855
301.56866
301.63222
300.68788
300.70968
300.68769
300.71072
300.68931
300.71313
300.69202
300.71663
300.69597
300.72176
300.70201
300.72957
300.71126
300.74113
300.72466
300.75722
300.74281
300.77823
300.76592
300.80423
300.79393
300.83504
300.8266
300.87034
300.86354
300.90972
300.90435
300.95275
300.9486
300.999
300.99586
301.04806
301.04574
301.09954
301.09789
301.15309
301.15197
301.20841
301.20769
301.26521
301.26479
301.32323
301.32302
301.38227
301.38219
301.44213
301.44211
301.50262
301.50262
301.56359
300.68871
300.7097
300.68824
300.71026
300.68927
300.71201
300.69127
300.71475
300.69436
300.71887
300.69921
300.72528
300.70682
300.73494
300.71807
300.74863
300.7336
300.7668
300.75371
300.78962
300.77843
300.81701
300.8076
300.84872
300.84094
300.88443
300.87809
300.92378
300.91868
300.96637
300.96234
301.01182
301.00869
301.05978
301.05739
301.10991
301.10814
301.16191
301.16063
301.2155
301.21461
301.27044
301.26985
301.3265
301.32613
301.38348
301.38327
301.4412
301.44111
301.4995
300.68947
300.70971
300.68883
300.70989
300.68935
300.71106
300.69072
300.7131
300.69304
300.71635
300.69687
300.72155
300.70307
300.72958
300.71248
300.74118
300.72573
300.75686
300.74317
300.77684
300.76493
300.80112
300.79092
300.82956
300.82094
300.86189
300.8547
300.8978
300.89188
300.93695
300.93214
300.97899
300.97514
301.0236
301.02056
301.07046
301.0681
301.11927
301.11749
301.16977
301.16846
301.22171
301.22078
301.27486
301.27424
301.32903
301.32866
301.38404
301.38386
301.43971
300.69016
300.70969
300.68942
300.70955
300.6895
300.71021
300.6903
300.71163
300.69195
300.71412
300.6949
300.71828
300.6999
300.72491
300.70772
300.73471
300.71897
300.74819
300.73406
300.76564
300.75317
300.78713
300.77628
300.81258
300.80327
300.8418
300.8339
300.87452
300.8679
300.91045
300.90497
300.94929
300.9448
300.99072
300.9871
301.03446
301.03159
301.08022
301.07798
301.12773
301.12604
301.17677
301.17553
301.2271
301.22625
301.27854
301.278
301.33088
301.33062
301.38396
300.6908
300.70962
300.69001
300.70923
300.6897
300.70942
300.68998
300.71028
300.69102
300.7121
300.69322
300.71538
300.6972
300.7208
300.70364
300.72904
300.71317
300.74061
300.72619
300.75581
300.74293
300.7748
300.76345
300.79753
300.78767
300.82389
300.81541
300.85367
300.84646
300.8866
300.88055
300.92243
300.9174
300.96087
300.95675
301.00164
300.99832
301.04447
301.04185
301.08913
301.0871
301.13536
301.13386
301.18297
301.1819
301.23173
301.23106
301.28147
301.28115
301.33202
300.69139
300.70951
300.69055
300.70889
300.6899
300.70865
300.68972
300.70902
300.69022
300.71024
300.69176
300.71276
300.69486
300.71716
300.70014
300.72405
300.70816
300.73394
300.71937
300.74716
300.73401
300.7639
300.75219
300.78419
300.7739
300.80794
300.799
300.835
300.82731
300.86515
300.85862
300.89816
300.89268
300.93377
300.92923
300.97173
300.96803
301.01178
301.00882
301.05369
301.05138
301.09723
301.09549
301.14219
301.14095
301.18837
301.18757
301.23557
301.23519
301.28364
300.69193
300.70935
300.69106
300.70852
300.69008
300.70788
300.68947
300.70779
300.6895
300.70849
300.69047
300.71035
300.69282
300.71388
300.6971
300.71961
300.70383
300.72804
300.71344
300.73952
300.72622
300.75426
300.74232
300.77234
300.76174
300.79371
300.78442
300.81827
300.81022
300.84584
300.83895
300.87622
300.87038
300.90918
300.9043
300.94448
300.94047
300.98189
300.97865
301.02118
301.01863
301.06213
301.0602
301.10454
301.10315
301.1482
301.14731
301.19294
301.19251
301.23859
300.69241
300.70913
300.6915
300.70808
300.69021
300.70708
300.68921
300.70657
300.68881
300.70682
300.68929
300.70812
300.69101
300.71089
300.69443
300.71564
300.70005
300.7228
300.70828
300.73275
300.71942
300.74571
300.73364
300.7618
300.75101
300.78101
300.77149
300.80329
300.79497
300.82848
300.8213
300.85641
300.85028
300.88688
300.88172
300.91967
300.9154
300.95457
300.9511
300.99136
300.98861
301.02983
301.02773
301.06977
301.06826
301.11101
301.11003
301.15335
301.15287
301.19664
300.69284
300.70885
300.69187
300.70757
300.69028
300.70621
300.68891
300.70533
300.68814
300.70518
300.68819
300.706
300.68937
300.70814
300.69207
300.71203
300.69673
300.7181
300.70376
300.72671
300.71345
300.7381
300.72601
300.7524
300.74153
300.76967
300.76
300.78985
300.78135
300.81284
300.80546
300.8385
300.83217
300.86664
300.86128
300.89707
300.89261
300.92959
300.92595
300.964
300.9611
301.00009
300.99787
301.03767
301.03606
301.07656
301.07551
301.11657
301.11606
301.15756
300.69322
300.7085
300.69215
300.70696
300.69025
300.70527
300.68855
300.70405
300.68745
300.70355
300.68714
300.70396
300.68786
300.70556
300.68995
300.70873
300.6938
300.71386
300.69978
300.7213
300.70821
300.73129
300.71929
300.744
300.73314
300.7595
300.74979
300.77778
300.7692
300.79875
300.79126
300.8223
300.81584
300.84826
300.84278
300.87648
300.87189
300.90675
300.90298
300.93889
300.93588
300.9727
300.97039