/*--------------------------------*- C++ -*----------------------------------*\
| =========                 |                                                 |
| \\      /  F ield         | OpenFOAM: The Open Source CFD Toolbox           |
|  \\    /   O peration     | Version:  2312                                  |
|   \\  /    A nd           | Website:  www.openfoam.com                      |
|    \\/     M anipulation  |                                                 |
\*---------------------------------------------------------------------------*/
FoamFile
{
    version     2.0;
    format      ascii;
    arch        "LSB;label=32;scalar=64";
    class       volVectorField;
    location    "10";
    object      U;
}
// * * * * * * * * * * * * * * * * * * * * * * * * * * * * * * * * * * * * * //

dimensions      [0 1 -1 0 0 0 0];

internalField   nonuniform List<vector> 
4000
(
(0.0013491854 0.00023021519 0)
(0.0014476973 -1.2389665e-06 0)
(0.001349852 -1.5151596e-07 0)
(0.0013956137 1.481048e-07 0)
(0.0013600229 -1.3728084e-07 0)
(0.0013934338 1.30328e-07 0)
(0.0013630187 -1.2099365e-07 0)
(0.0013916168 1.1371296e-07 0)
(0.0013649318 -1.0648785e-07 0)
(0.0013899547 9.9906913e-08 0)
(0.0013665334 -9.3676392e-08 0)
(0.0013884721 8.7869065e-08 0)
(0.0013679319 -8.2420576e-08 0)
(0.0013871638 7.7324172e-08 0)
(0.0013691607 -7.25512e-08 0)
(0.0013860116 6.808553e-08 0)
(0.0013702423 -6.3905312e-08 0)
(0.0013849966 5.9995873e-08 0)
(0.0013711951 -5.6337611e-08 0)
(0.0013841018 5.2918482e-08 0)
(0.0013720354 -4.9720488e-08 0)
(0.0013833123 4.6733905e-08 0)
(0.0013727772 -4.3942284e-08 0)
(0.0013826148 4.1337779e-08 0)
(0.0013734331 -3.8905481e-08 0)
(0.0013819973 3.6639044e-08 0)
(0.0013740143 -3.452507e-08 0)
(0.0013814496 3.2558409e-08 0)
(0.0013745304 -3.072712e-08 0)
(0.0013809625 2.9027011e-08 0)
(0.0013749903 -2.7447531e-08 0)
(0.0013805276 2.5985259e-08 0)
(0.0013754017 -2.4630956e-08 0)
(0.0013801377 2.3381825e-08 0)
(0.0013757714 -2.2229868e-08 0)
(0.0013797862 2.1172794e-08 0)
(0.0013761059 -2.0203772e-08 0)
(0.0013794671 1.9320927e-08 0)
(0.0013764106 -1.8518533e-08 0)
(0.0013791752 1.7795063e-08 0)
(0.0013766908 -1.7145847e-08 0)
(0.0013789054 1.6569662e-08 0)
(0.0013769512 -1.6062864e-08 0)
(0.0013786532 1.562454e-08 0)
(0.0013771961 -1.5252134e-08 0)
(0.0013784143 1.4944965e-08 0)
(0.0013774298 -1.4703102e-08 0)
(0.001378185 1.4524189e-08 0)
(0.0013776626 -1.4383399e-08 0)
(0.0013780089 1.4877069e-08 0)
(0.0037648016 0.00063525169 0)
(0.0041625374 4.2952752e-07 0)
(0.0039241933 4.5936858e-08 0)
(0.0040511196 4.108496e-07 0)
(0.0039478327 -4.7784079e-07 0)
(0.0040452055 4.3481386e-07 0)
(0.003956476 -4.2088998e-07 0)
(0.0040399354 3.9180333e-07 0)
(0.0039620415 -3.691211e-07 0)
(0.0040350833 3.4556851e-07 0)
(0.0039667168 -3.2434447e-07 0)
(0.004030755 3.0410446e-07 0)
(0.0039708008 -2.8530739e-07 0)
(0.0040269357 2.6763976e-07 0)
(0.0039743899 -2.5113505e-07 0)
(0.0040235719 2.356701e-07 0)
(0.0039775491 -2.2120888e-07 0)
(0.0040206086 2.0767315e-07 0)
(0.0039803325 -1.9501677e-07 0)
(0.0040179963 1.8317942e-07 0)
(0.0039827872 -1.721155e-07 0)
(0.0040156909 1.6177609e-07 0)
(0.0039849546 -1.5211835e-07 0)
(0.0040136536 1.4310208e-07 0)
(0.0039868715 -1.3468777e-07 0)
(0.0040118501 1.2684225e-07 0)
(0.0039885701 -1.1952955e-07 0)
(0.0040102499 1.1272222e-07 0)
(0.0039900792 -1.0638784e-07 0)
(0.0040088261 1.0050367e-07 0)
(0.0039914241 -9.5040797e-08 0)
(0.0040075546 8.9980375e-08 0)
(0.0039926277 -8.5296883e-08 0)
(0.0040064141 8.0974715e-08 0)
(0.0039937101 -7.6991604e-08 0)
(0.0040053852 7.3334671e-08 0)
(0.0039946897 -6.9984754e-08 0)
(0.0040044507 6.6931282e-08 0)
(0.0039955831 -6.4158061e-08 0)
(0.0040035948 6.1656493e-08 0)
(0.0039964052 -5.9413229e-08 0)
(0.004002803 5.7421387e-08 0)
(0.00399717 -5.5670375e-08 0)
(0.004002062 5.4154887e-08 0)
(0.0039978905 -5.2866665e-08 0)
(0.004001359 5.1803941e-08 0)
(0.0039985787 -5.0961244e-08 0)
(0.0040006822 5.0258478e-08 0)
(0.0039992586 -5.0547728e-08 0)
(0.004000135 4.840465e-08 0)
(0.0061127345 0.001019484 0)
(0.0067965585 -4.8632896e-07 0)
(0.0064332109 3.7935432e-07 0)
(0.0066395226 6.9465921e-07 0)
(0.0064684534 -8.6623523e-07 0)
(0.0066298455 7.7420095e-07 0)
(0.0064826595 -7.6164354e-07 0)
(0.006621093 7.0635835e-07 0)
(0.0064918641 -6.6694464e-07 0)
(0.0066130375 6.2386429e-07 0)
(0.0064996181 -5.8578185e-07 0)
(0.0066058553 5.4912043e-07 0)
(0.0065063943 -5.1523242e-07 0)
(0.0065995186 4.8329492e-07 0)
(0.0065123499 -4.5351221e-07 0)
(0.0065939376 4.2556867e-07 0)
(0.0065175924 -3.9946762e-07 0)
(0.006589021 3.7501309e-07 0)
(0.0065222114 -3.5216766e-07 0)
(0.0065846864 3.3078285e-07 0)
(0.0065262852 -3.1081083e-07 0)
(0.006580861 2.9213293e-07 0)
(0.0065298825 -2.7469852e-07 0)
(0.0065774802 2.584114e-07 0)
(0.0065330641 -2.432211e-07 0)
(0.0065744871 2.2904925e-07 0)
(0.0065358838 -2.1584722e-07 0)
(0.0065718311 2.0355097e-07 0)
(0.006538389 -1.9211478e-07 0)
(0.0065694676 1.8148623e-07 0)
(0.0065406222 -1.7162315e-07 0)
(0.0065673566 1.624826e-07 0)
(0.006542621 -1.5402637e-07 0)
(0.0065654625 1.4621928e-07 0)
(0.0065444191 -1.3902731e-07 0)
(0.0065637534 1.3242166e-07 0)
(0.006546047 -1.2637264e-07 0)
(0.0065622005 1.2085673e-07 0)
(0.0065475319 -1.1584857e-07 0)
(0.0065607776 1.1132908e-07 0)
(0.0065488991 -1.0727719e-07 0)
(0.0065594607 1.0367756e-07 0)
(0.0065501717 -1.0051342e-07 0)
(0.0065582273 9.7772614e-08 0)
(0.0065513712 -9.5441593e-08 0)
(0.0065570566 9.3516287e-08 0)
(0.006552518 -9.1979804e-08 0)
(0.0065559278 9.0674304e-08 0)
(0.0065536479 -9.1580297e-08 0)
(0.0065549926 8.6917468e-08 0)
(0.0084133083 0.0013735234 0)
(0.0093562318 -2.3664989e-06 0)
(0.008876633 9.7788995e-07 0)
(0.0091610245 9.1881084e-07 0)
(0.0089217989 -1.2407925e-06 0)
(0.0091474435 1.0878515e-06 0)
(0.008941495 -1.0892921e-06 0)
(0.009135171 1.0062803e-06 0)
(0.0089543342 -9.5235261e-07 0)
(0.0091238894 8.9004244e-07 0)
(0.0089651796 -8.3607003e-07 0)
(0.0091138366 7.8357537e-07 0)
(0.0089746613 -7.3530733e-07 0)
(0.0091049686 6.8967313e-07 0)
(0.0089829956 -6.4721095e-07 0)
(0.0090971582 6.0730224e-07 0)
(0.0089903321 -5.7007999e-07 0)
(0.0090902777 5.3515927e-07 0)
(0.0089967962 -5.0257659e-07 0)
(0.0090842116 4.7204163e-07 0)
(0.0090024974 -4.4355526e-07 0)
(0.0090788579 4.1688691e-07 0)
(0.009007532 -3.9201867e-07 0)
(0.0090741263 3.6876491e-07 0)
(0.0090119849 -3.4709668e-07 0)
(0.0090699371 3.2686373e-07 0)
(0.0090159315 -3.0803092e-07 0)
(0.0090662195 2.9047631e-07 0)
(0.0090194382 -2.7416191e-07 0)
(0.009062911 2.5898854e-07 0)
(0.0090225643 -2.4491784e-07 0)
(0.0090599558 2.3186898e-07 0)
(0.0090253626 -2.1980493e-07 0)
(0.0090573039 2.0865979e-07 0)
(0.0090278803 -1.9839908e-07 0)
(0.0090549107 1.8896907e-07 0)
(0.0090301599 -1.8033869e-07 0)
(0.0090527359 1.724642e-07 0)
(0.0090322398 -1.653185e-07 0)
(0.0090507427 1.5886612e-07 0)
(0.0090341552 -1.5308434e-07 0)
(0.0090488974 1.4794452e-07 0)
(0.0090359386 -1.4342858e-07 0)
(0.0090471689 1.3951359e-07 0)
(0.0090376201 -1.3618432e-07 0)
(0.0090455272 1.3343262e-07 0)
(0.0090392285 -1.3122669e-07 0)
(0.0090439432 1.2932145e-07 0)
(0.0090408101 -1.3120797e-07 0)
(0.0090426036 1.2360587e-07 0)
(0.010658908 0.0016964552 0)
(0.011839336 -5.1469982e-06 0)
(0.011254064 1.7909041e-06 0)
(0.011615769 1.0792495e-06 0)
(0.011307878 -1.5855133e-06 0)
(0.011597983 1.3629879e-06 0)
(0.011332997 -1.390787e-06 0)
(0.011582151 1.2797075e-06 0)
(0.011349464 -1.2139808e-06 0)
(0.011567622 1.133536e-06 0)
(0.011363411 -1.0652457e-06 0)
(0.011554685 9.9815601e-07 0)
(0.011375611 -9.3677335e-07 0)
(0.011543273 8.7857522e-07 0)
(0.011386334 -8.2452303e-07 0)
(0.011533223 7.7365021e-07 0)
(0.011395774 -7.2625696e-07 0)
(0.01152437 6.8174843e-07 0)
(0.011404092 -6.4025883e-07 0)
(0.011516564 6.0134276e-07 0)
(0.011411428 -5.6506725e-07 0)
(0.011509675 5.3108067e-07 0)
(0.011417906 -4.9941122e-07 0)
(0.011503587 4.697774e-07 0)
(0.011423636 -4.4218208e-07 0)
(0.011498196 4.1639873e-07 0)
(0.011428714 -3.9241365e-07 0)
(0.011493412 3.7004397e-07 0)
(0.011433227 -3.4926569e-07 0)
(0.011489154 3.2993085e-07 0)
(0.01143725 -3.1200972e-07 0)
(0.011485351 2.9538235e-07 0)
(0.011440851 -2.8001662e-07 0)
(0.011481938 2.6581523e-07 0)
(0.011444092 -2.5274608e-07 0)
(0.011478858 2.407302e-07 0)
(0.011447026 -2.2973734e-07 0)
(0.011476059 2.1970345e-07 0)
(0.011449703 -2.106014e-07 0)
(0.011473493 2.0237938e-07 0)
(0.011452169 -1.9501425e-07 0)
(0.011471118 1.8846423e-07 0)
(0.011454465 -1.8271086e-07 0)
(0.011468892 1.7772049e-07 0)
(0.01145663 -1.7347678e-07 0)
(0.011466778 1.6996866e-07 0)
(0.011458701 -1.6714318e-07 0)
(0.011464737 1.6467472e-07 0)
(0.011460735 -1.6781335e-07 0)
(0.01146298 1.570686e-07 0)
(0.012848211 0.0019896055 0)
(0.014246098 -8.7039055e-06 0)
(0.01356542 2.7579321e-06 0)
(0.014003779 1.1852792e-06 0)
(0.013626798 -1.8996056e-06 0)
(0.013981357 1.6014915e-06 0)
(0.013657269 -1.6672094e-06 0)
(0.013961938 1.5279437e-06 0)
(0.013677343 -1.4528745e-06 0)
(0.013944153 1.3553764e-06 0)
(0.013694393 -1.274253e-06 0)
(0.013928326 1.1937558e-06 0)
(0.013709312 -1.1204663e-06 0)
(0.013914369 1.0507856e-06 0)
(0.013722427 -9.8618513e-07 0)
(0.013902077 9.2530296e-07 0)
(0.013733972 -8.686476e-07 0)
(0.013891248 8.1538898e-07 0)
(0.013744145 -7.657867e-07 0)
(0.013881701 7.1922295e-07 0)
(0.013753117 -6.7585196e-07 0)
(0.013873275 6.3518829e-07 0)
(0.01376104 -5.9732271e-07 0)
(0.013865829 5.6186829e-07 0)
(0.013768048 -5.2887276e-07 0)
(0.013859235 4.980261e-07 0)
(0.013774259 -4.693464e-07 0)
(0.013853384 4.4258452e-07 0)
(0.013779779 -4.1773861e-07 0)
(0.013848177 3.9460798e-07 0)
(0.013784699 -3.7317801e-07 0)
(0.013843525 3.5328674e-07 0)
(0.013789104 -3.349121e-07 0)
(0.013839351 3.1792324e-07 0)
(0.013793067 -3.0229456e-07 0)
(0.013835583 2.8792028e-07 0)
(0.013796656 -2.7477422e-07 0)
(0.013832159 2.6277089e-07 0)
(0.013799931 -2.5188567e-07 0)
(0.01382902 2.4204955e-07 0)
(0.013802947 -2.3324106e-07 0)
(0.013826114 2.2540454e-07 0)
(0.013805756 -2.1852274e-07 0)
(0.013823392 2.1255067e-07 0)
(0.013808405 -2.0747189e-07 0)
(0.013820805 2.0327268e-07 0)
(0.01381094 -1.998733e-07 0)
(0.013818307 1.9687821e-07 0)
(0.013813425 -2.0146347e-07 0)
(0.013816124 1.8738651e-07 0)
(0.014983674 0.0022544682 0)
(0.016577078 -1.2980845e-05 0)
(0.015810677 3.8156233e-06 0)
(0.016324948 1.2460117e-06 0)
(0.015878686 -2.182795e-06 0)
(0.016297445 1.8063353e-06 0)
(0.015914423 -1.9207171e-06 0)
(0.016274426 1.7533195e-06 0)
(0.015938071 -1.6710343e-06 0)
(0.016253389 1.5574955e-06 0)
(0.015958211 -1.4648782e-06 0)
(0.01623468 1.3720605e-06 0)
(0.01597584 -1.2879629e-06 0)
(0.016218183 1.2077855e-06 0)
(0.015991339 -1.133586e-06 0)
(0.016203655 1.0635646e-06 0)
(0.016004984 -9.984754e-07 0)
(0.016190858 9.3723002e-07 0)
(0.016017006 -8.802389e-07 0)
(0.016179575 8.2669578e-07 0)
(0.016027609 -7.7686153e-07 0)
(0.016169616 7.3010498e-07 0)
(0.016036973 -6.8659475e-07 0)
(0.016160815 6.4582954e-07 0)
(0.016045256 -6.0791397e-07 0)
(0.016153023 5.7244789e-07 0)
(0.016052597 -5.3949067e-07 0)
(0.016146108 5.0872195e-07 0)
(0.01605912 -4.8016955e-07 0)
(0.016139953 4.5357638e-07 0)
(0.016064935 -4.2894891e-07 0)
(0.016134456 4.0608045e-07 0)
(0.016070141 -3.8496375e-07 0)
(0.016129522 3.6543237e-07 0)
(0.016074825 -3.4747105e-07 0)
(0.016125069 3.3094565e-07 0)
(0.016079066 -3.1583716e-07 0)
(0.016121022 3.0203745e-07 0)
(0.016082937 -2.8952691e-07 0)
(0.016117313 2.7821842e-07 0)
(0.016086502 -2.6809411e-07 0)
(0.016113878 2.5908371e-07 0)
(0.016089821 -2.5117273e-07 0)
(0.01611066 2.443041e-07 0)
(0.016092952 -2.3846229e-07 0)
(0.016107603 2.3363085e-07 0)
(0.016095948 -2.2969804e-07 0)
(0.016104651 2.2621241e-07 0)
(0.016098882 -2.3236845e-07 0)
(0.016102035 2.1481198e-07 0)
(0.01706752 0.0024918947 0)
(0.018832982 -1.790188e-05 0)
(0.017989955 4.9095789e-06 0)
(0.01857897 1.2682058e-06 0)
(0.018063669 -2.4334617e-06 0)
(0.018546135 1.9787429e-06 0)
(0.01810456 -2.1519107e-06 0)
(0.018519521 1.9566704e-06 0)
(0.018131735 -1.8690665e-06 0)
(0.018495246 1.7405165e-06 0)
(0.018154943 -1.6376802e-06 0)
(0.018473672 1.5336053e-06 0)
(0.018175265 -1.4397598e-06 0)
(0.018454653 1.3500442e-06 0)
(0.018193132 -1.2671638e-06 0)
(0.018437904 1.1888479e-06 0)
(0.018208862 -1.1161266e-06 0)
(0.018423149 1.0476353e-06 0)
(0.018222722 -9.8395611e-07 0)
(0.018410141 9.2408213e-07 0)
(0.018234946 -8.6839677e-07 0)
(0.018398661 8.1611419e-07 0)
(0.018245741 -7.6749334e-07 0)
(0.018388514 7.2191194e-07 0)
(0.01825529 -6.7954141e-07 0)
(0.01837953 6.398865e-07 0)
(0.018263752 -6.030558e-07 0)
(0.018371558 5.68654e-07 0)
(0.018271272 -5.3674499e-07 0)
(0.018364463 5.070125e-07 0)
(0.018277977 -4.7948921e-07 0)
(0.018358124 4.5392163e-07 0)
(0.018283978 -4.3032145e-07 0)
(0.018352437 4.0848514e-07 0)
(0.018289378 -3.8841106e-07 0)
(0.018347303 3.6993562e-07 0)
(0.018294268 -3.530496e-07 0)
(0.018342638 3.3762142e-07 0)
(0.01829873 -3.236386e-07 0)
(0.018338361 3.1099527e-07 0)
(0.01830284 -2.9967884e-07 0)
(0.018334402 2.8960393e-07 0)
(0.018306667 -2.807601e-07 0)
(0.018330691 2.7307765e-07 0)
(0.018310277 -2.6654291e-07 0)
(0.018327167 2.6113651e-07 0)
(0.018313731 -2.5671023e-07 0)
(0.018323763 2.5277268e-07 0)
(0.01831711 -2.6057064e-07 0)
(0.01832071 2.3943802e-07 0)
(0.01910107 0.0027025996 0)
(0.021014562 -2.3375269e-05 0)
(0.0201035 5.9927017e-06 0)
(0.02076535 1.2586185e-06 0)
(0.020181885 -2.6509935e-06 0)
(0.020727324 2.1194462e-06 0)
(0.020227769 -2.3608164e-06 0)
(0.020697138 2.1382524e-06 0)
(0.020258415 -2.0470371e-06 0)
(0.020669652 1.9045555e-06 0)
(0.020284657 -1.792743e-06 0)
(0.02064524 1.6784806e-06 0)
(0.020307645 -1.5759357e-06 0)
(0.020623721 1.4776394e-06 0)
(0.020327859 -1.3869887e-06 0)
(0.020604772 1.3012208e-06 0)
(0.020345653 -1.2216632e-06 0)
(0.02058808 1.1466645e-06 0)
(0.020361333 -1.0769932e-06 0)
(0.020573363 1.0114346e-06 0)
(0.020375162 -9.5050621e-07 0)
(0.020560375 8.9326238e-07 0)
(0.020387374 -8.400615e-07 0)
(0.020548896 7.9015662e-07 0)
(0.020398177 -7.4379325e-07 0)
(0.020538732 7.0037841e-07 0)
(0.02040775 -6.6007576e-07 0)
(0.020529713 6.2241318e-07 0)
(0.020416258 -5.8749531e-07 0)
(0.020521686 5.5494539e-07 0)
(0.020423842 -5.2482617e-07 0)
(0.020514515 4.9683638e-07 0)
(0.020430632 -4.7100981e-07 0)
(0.020508081 4.4710516e-07 0)
(0.020436741 -4.2513696e-07 0)
(0.020502273 4.0491171e-07 0)
(0.020442273 -3.8643205e-07 0)
(0.020496995 3.6954264e-07 0)
(0.020447321 -3.5423978e-07 0)
(0.020492157 3.4039862e-07 0)
(0.020451971 -3.2801318e-07 0)
(0.020487677 3.1698277e-07 0)
(0.0204563 -3.0730202e-07 0)
(0.02048348 2.9888838e-07 0)
(0.020460384 -2.9173076e-07 0)
(0.020479493 2.8580675e-07 0)
(0.020464291 -2.8092801e-07 0)
(0.020475642 2.7658001e-07 0)
(0.02046811 -2.8604705e-07 0)
(0.02047215 2.6129945e-07 0)
(0.021085174 0.0028873442 0)
(0.023122656 -2.9301549e-05 0)
(0.022151529 7.0263733e-06 0)
(0.022883579 1.2241366e-06 0)
(0.022233478 -2.8373459e-06 0)
(0.022840919 2.2295513e-06 0)
(0.022284129 -2.547539e-06 0)
(0.022807203 2.2983536e-06 0)
(0.02231818 -2.2050468e-06 0)
(0.022776539 2.0497607e-06 0)
(0.022347416 -1.9301813e-06 0)
(0.022749323 1.8068049e-06 0)
(0.022373037 -1.6965964e-06 0)
(0.022725337 1.5906733e-06 0)
(0.022395566 -1.4931545e-06 0)
(0.022704216 1.4007731e-06 0)
(0.022415399 -1.3151682e-06 0)
(0.02268561 1.2343967e-06 0)
(0.022432875 -1.1594233e-06 0)
(0.022669207 1.0888229e-06 0)
(0.022448289 -1.0232545e-06 0)
(0.02265473 9.6161103e-07 0)
(0.022461901 -9.0435639e-07 0)
(0.022641935 8.5061792e-07 0)
(0.022473941 -8.0072018e-07 0)
(0.022630606 7.5397179e-07 0)
(0.022484612 -7.1059558e-07 0)
(0.022620553 6.7004227e-07 0)
(0.022494094 -6.3246061e-07 0)
(0.022611606 5.9741321e-07 0)
(0.022502548 -5.6499563e-07 0)
(0.022603613 5.3485888e-07 0)
(0.022510116 -5.0706105e-07 0)
(0.022596441 4.813232e-07 0)
(0.022516925 -4.5767789e-07 0)
(0.022589968 4.3590183e-07 0)
(0.022523091 -4.1601108e-07 0)
(0.022584085 3.9782665e-07 0)
(0.022528717 -3.8135487e-07 0)
(0.022578693 3.6645207e-07 0)
(0.022533899 -3.5311986e-07 0)
(0.0225737 3.4124236e-07 0)
(0.022538725 -3.3082003e-07 0)
(0.022569021 3.2175747e-07 0)
(0.022543277 -3.1404672e-07 0)
(0.022564578 3.0766231e-07 0)
(0.022547632 -3.0237301e-07 0)
(0.022560286 2.9765776e-07 0)
(0.022551885 -3.0878288e-07 0)
(0.022556356 2.8043823e-07 0)
(0.023020579 0.003046894 0)
(0.025158209 -3.5577449e-05 0)
(0.024134067 7.9805474e-06 0)
(0.024933326 1.1710333e-06 0)
(0.02421859 -2.996856e-06 0)
(0.024886841 2.3107154e-06 0)
(0.024273712 -2.7123376e-06 0)
(0.024849646 2.4373873e-06 0)
(0.024311096 -2.343318e-06 0)
(0.024815847 2.1763936e-06 0)
(0.024343278 -2.0502174e-06 0)
(0.02478587 1.918797e-06 0)
(0.024371489 -1.8019419e-06 0)
(0.024759454 1.6893369e-06 0)
(0.024396297 -1.5858383e-06 0)
(0.024736194 1.4876725e-06 0)
(0.024418138 -1.3967976e-06 0)
(0.024715704 1.3109796e-06 0)
(0.024437383 -1.2313841e-06 0)
(0.02469764 1.1563772e-06 0)
(0.024454357 -1.0867632e-06 0)
(0.024681697 1.0212751e-06 0)
(0.024469347 -9.6048553e-07 0)
(0.024667606 9.0339746e-07 0)
(0.024482605 -8.5041739e-07 0)
(0.024655131 8.0075666e-07 0)
(0.024494357 -7.5469976e-07 0)
(0.02464406 7.1162122e-07 0)
(0.024504799 -6.7171609e-07 0)
(0.024634207 6.3448722e-07 0)
(0.024514108 -6.0006481e-07 0)
(0.024625405 5.6805289e-07 0)
(0.024522442 -5.3853548e-07 0)
(0.024617507 5.1119663e-07 0)
(0.02452994 -4.8608828e-07 0)
(0.024610378 4.6295793e-07 0)
(0.02453673 -4.4183615e-07 0)
(0.0246039 4.2252083e-07 0)
(0.024542926 -4.0502924e-07 0)
(0.024597961 3.8919929e-07 0)
(0.024548633 -3.7504096e-07 0)
(0.024592463 3.6242344e-07 0)
(0.024553947 -3.5135365e-07 0)
(0.024587311 3.4172352e-07 0)
(0.024558959 -3.3352865e-07 0)
(0.024582418 3.2674049e-07 0)
(0.024563755 -3.2108309e-07 0)
(0.024577692 3.1604455e-07 0)
(0.024568435 -3.2878369e-07 0)
(0.024573326 2.9691343e-07 0)
(0.024907968 0.0031820018 0)
(0.027122254 -4.2097779e-05 0)
(0.026050935 8.8342625e-06 0)
(0.026914461 1.1050811e-06 0)
(0.026137339 -3.1348634e-06 0)
(0.026865022 2.3650302e-06 0)
(0.026196586 -2.8555417e-06 0)
(0.026824403 2.5558394e-06 0)
(0.026237222 -2.462147e-06 0)
(0.02678752 2.2847861e-06 0)
(0.026272293 -2.1531402e-06 0)
(0.026754831 2.014738e-06 0)
(0.026303047 -1.8922312e-06 0)
(0.026726029 1.7738756e-06 0)
(0.026330094 -1.6652686e-06 0)
(0.026700668 1.5621348e-06 0)
(0.026353906 -1.4667529e-06 0)
(0.026678328 1.3766031e-06 0)
(0.026374887 -1.2930533e-06 0)
(0.026658633 1.214265e-06 0)
(0.026393393 -1.1411891e-06 0)
(0.026641251 1.0724024e-06 0)
(0.026409735 -1.0085875e-06 0)
(0.026625889 9.48626e-07 0)
(0.02642419 -8.9300759e-07 0)
(0.026612287 8.4084886e-07 0)
(0.026437002 -7.9249717e-07 0)
(0.026600217 7.4725295e-07 0)
(0.026448387 -7.0535866e-07 0)
(0.026589474 6.6625912e-07 0)
(0.026458536 -6.3012021e-07 0)
(0.026579878 5.9650047e-07 0)
(0.026467622 -5.6551071e-07 0)
(0.026571267 5.3679924e-07 0)
(0.026475797 -5.1043815e-07 0)
(0.026563495 4.8614678e-07 0)
(0.0264832 -4.6397089e-07 0)
(0.026556431 4.4368609e-07 0)
(0.026489955 -4.2532121e-07 0)
(0.026549957 4.086964e-07 0)
(0.026496177 -3.9383047e-07 0)
(0.026543962 3.8057831e-07 0)
(0.026501971 -3.6895357e-07 0)
(0.026538346 3.5883598e-07 0)
(0.026507435 -3.5022499e-07 0)
(0.026533011 3.4308895e-07 0)
(0.026512663 -3.3710637e-07 0)
(0.02652786 3.3178873e-07 0)
(0.026517761 -3.4606975e-07 0)
(0.026523062 3.1079525e-07 0)
(0.026747863 0.0032934114 0)
(0.029015882 -4.8760525e-05 0)
(0.027901821 9.5818272e-06 0)
(0.028826989 1.0310697e-06 0)
(0.027989817 -3.2564863e-06 0)
(0.028775406 2.3948519e-06 0)
(0.028052809 -2.9774911e-06 0)
(0.028731416 2.6542332e-06 0)
(0.028096612 -2.561876e-06 0)
(0.028691507 2.3753122e-06 0)
(0.02813451 -2.2392792e-06 0)
(0.028656161 2.0949468e-06 0)
(0.028167754 -1.9677586e-06 0)
(0.028625022 1.8445684e-06 0)
(0.028196992 -1.7317054e-06 0)
(0.028597605 1.6244054e-06 0)
(0.028222733 -1.5252633e-06 0)
(0.028573454 1.4314834e-06 0)
(0.028245415 -1.344633e-06 0)
(0.028552162 1.2626768e-06 0)
(0.02826542 -1.1867107e-06 0)
(0.02853337 1.1151611e-06 0)
(0.028283087 -1.0488199e-06 0)
(0.028516762 9.8645219e-07 0)
(0.028298714 -9.286303e-07 0)
(0.028502058 8.743801e-07 0)
(0.028312564 -8.241116e-07 0)
(0.028489009 7.7705443e-07 0)
(0.028324872 -7.3349845e-07 0)
(0.028477395 6.9283312e-07 0)
(0.028335844 -6.552602e-07 0)
(0.028467021 6.2029484e-07 0)
(0.028345666 -5.8807497e-07 0)
(0.028457711 5.5821485e-07 0)
(0.028354504 -5.3080709e-07 0)
(0.02844931 5.0554423e-07 0)
(0.028362507 -4.8248758e-07 0)
(0.028441673 4.6139161e-07 0)
(0.02836981 -4.42297e-07 0)
(0.028434674 4.2500707e-07 0)
(0.028376536 -4.0954973e-07 0)
(0.028428194 3.9576627e-07 0)
(0.028382799 -3.8367733e-07 0)
(0.028422122 3.7315094e-07 0)
(0.028388706 -3.6419065e-07 0)
(0.028416355 3.5676171e-07 0)
(0.028394358 -3.5049723e-07 0)
(0.028410787 3.4494451e-07 0)
(0.028399866 -3.6067172e-07 0)
(0.028405563 3.221608e-07 0)
(0.028540471 0.0033818587 0)
(0.030840125 -5.5465133e-05 0)
(0.029686409 1.0237976e-05 0)
(0.030670968 9.4951795e-07 0)
(0.029776092 -3.3669301e-06 0)
(0.030617942 2.4024664e-06 0)
(0.029842437 -3.078544e-06 0)
(0.030570634 2.7331193e-06 0)
(0.029889316 -2.6428846e-06 0)
(0.030527762 2.4483833e-06 0)
(0.029929971 -2.3089986e-06 0)
(0.03048982 2.1597751e-06 0)
(0.029965646 -2.0288492e-06 0)
(0.030456399 1.9017229e-06 0)
(0.029997024 -1.7854356e-06 0)
(0.030426974 1.6747545e-06 0)
(0.03002465 -1.5725815e-06 0)
(0.030401053 1.4758585e-06 0)
(0.030048992 -1.386346e-06 0)
(0.030378201 1.3018226e-06 0)
(0.030070462 -1.2235245e-06 0)
(0.030358033 1.1497365e-06 0)
(0.030089423 -1.0813566e-06 0)
(0.030340208 1.0170399e-06 0)
(0.030106194 -9.5743943e-07 0)
(0.030324427 9.0149556e-07 0)
(0.030121058 -8.4967961e-07 0)
(0.030310422 8.0115458e-07 0)
(0.030134267 -7.5625694e-07 0)
(0.030297958 7.1432412e-07 0)
(0.030146043 -6.7559323e-07 0)
(0.030286824 6.3953878e-07 0)
(0.030156584 -6.0632553e-07 0)
(0.030276832 5.7553588e-07 0)
(0.03016607 -5.4728283e-07 0)
(0.030267815 5.2123389e-07 0)
(0.030174659 -4.9746591e-07 0)
(0.03025962 4.7571362e-07 0)
(0.030182496 -4.5602958e-07 0)
(0.030252108 4.3820145e-07 0)
(0.030189715 -4.2226628e-07 0)
(0.030245152 4.0805266e-07 0)
(0.030196437 -3.9558825e-07 0)
(0.030238636 3.8473011e-07 0)
(0.030202776 -3.7548602e-07 0)
(0.030232447 3.6781816e-07 0)
(0.030208842 -3.6131525e-07 0)
(0.030226472 3.5557101e-07 0)
(0.030214749 -3.7262926e-07 0)
(0.030220829 3.3109242e-07 0)
(0.030285666 0.0034480679 0)
(0.032595658 -6.2065813e-05 0)
(0.031404691 1.0794486e-05 0)
(0.032446443 8.5604245e-07 0)
(0.031496216 -3.4714477e-06 0)
(0.032392586 2.3900005e-06 0)
(0.031565518 -3.1591248e-06 0)
(0.032342008 2.7930526e-06 0)
(0.031615377 -2.705597e-06 0)
(0.032296243 2.5044431e-06 0)
(0.031658716 -2.3626963e-06 0)
(0.032255771 2.2096048e-06 0)
(0.031696758 -2.0758573e-06 0)
(0.032220127 1.9456736e-06 0)
(0.031730221 -1.8267715e-06 0)
(0.032188745 1.7134765e-06 0)
(0.031759682 -1.608983e-06 0)
(0.032161101 1.5099877e-06 0)
(0.031785642 -1.4184352e-06 0)
(0.03213673 1.3319308e-06 0)
(0.031808539 -1.2518449e-06 0)
(0.032115221 1.1763305e-06 0)
(0.031828759 -1.106387e-06 0)
(0.032096211 1.0405676e-06 0)
(0.031846645 -9.7960258e-07 0)
(0.03207938 9.223533e-07 0)
(0.031862497 -8.6934988e-07 0)
(0.032064444 8.1969382e-07 0)
(0.031876584 -7.7376642e-07 0)
(0.032051152 7.3085719e-07 0)
(0.031889142 -6.9123742e-07 0)
(0.032039277 6.5434418e-07 0)
(0.031900384 -6.2036831e-07 0)
(0.032028622 5.8886291e-07 0)
(0.0319105 -5.5996088e-07 0)
(0.032019005 5.3330675e-07 0)
(0.03191966 -5.0899261e-07 0)
(0.032010264 4.8673508e-07 0)
(0.031928019 -4.6659841e-07 0)
(0.032002253 4.483559e-07 0)
(0.031935718 -4.3205362e-07 0)
(0.031994835 4.1750854e-07 0)
(0.031942887 -4.0475522e-07 0)
(0.031987885 3.9364062e-07 0)
(0.031949647 -3.8417674e-07 0)
(0.031981285 3.763228e-07 0)
(0.031956116 -3.6962503e-07 0)
(0.031974915 3.6373207e-07 0)
(0.031962412 -3.8199035e-07 0)
(0.03196886 3.3767683e-07 0)
(0.031982992 0.0034927299 0)
(0.034282083 -6.8274134e-05 0)
(0.033057636 1.1090688e-05 0)
(0.034153414 7.3303255e-07 0)
(0.033150213 -3.5750414e-06 0)
(0.034099284 2.3600613e-06 0)
(0.033222096 -3.2194749e-06 0)
(0.034045495 2.8346756e-06 0)
(0.033274836 -2.7504566e-06 0)
(0.033996913 2.5439725e-06 0)
(0.03332078 -2.4007999e-06 0)
(0.033953982 2.2448476e-06 0)
(0.033361122 -2.1091641e-06 0)
(0.033916177 1.9767808e-06 0)
(0.033396609 -1.8560496e-06 0)
(0.033882894 1.7408881e-06 0)
(0.033427854 -1.6347641e-06 0)
(0.033853575 1.5341499e-06 0)
(0.033455385 -1.4411618e-06 0)
(0.033827728 1.3532476e-06 0)
(0.033479668 -1.2719024e-06 0)
(0.033804916 1.1951602e-06 0)
(0.033501112 -1.1241147e-06 0)
(0.033784755 1.0572272e-06 0)
(0.033520081 -9.9530014e-07 0)
(0.033766905 9.371234e-07 0)
(0.033536893 -8.8328244e-07 0)
(0.033751065 8.3282317e-07 0)
(0.033551832 -7.8616925e-07 0)
(0.033736967 7.4256691e-07 0)
(0.033565151 -7.0231986e-07 0)
(0.033724373 6.6483144e-07 0)
(0.033577074 -6.3031729e-07 0)
(0.033713072 5.9830419e-07 0)
(0.033587803 -5.6894403e-07 0)
(0.033702873 5.4186075e-07 0)
(0.033597518 -5.1716101e-07 0)
(0.033693603 4.9454524e-07 0)
(0.033606383 -4.7408895e-07 0)
(0.033685106 4.5555256e-07 0)
(0.033614548 -4.3899085e-07 0)
(0.033677239 4.2421036e-07 0)
(0.033622151 -4.1125234e-07 0)
(0.033669868 3.9995461e-07 0)
(0.033629321 -3.9033334e-07 0)
(0.033662868 3.8234495e-07 0)
(0.033636181 -3.754958e-07 0)
(0.033656113 3.6949593e-07 0)
(0.033642856 -3.8881058e-07 0)
(0.033649657 3.4200421e-07 0)
(0.033631924 0.0035166298 0)
(0.035896149 -7.3990383e-05 0)
(0.034648353 1.1090722e-05 0)
(0.035792277 5.8094142e-07 0)
(0.034738123 -3.6825526e-06 0)
(0.035737987 2.3140745e-06 0)
(0.034812202 -3.2601956e-06 0)
(0.035681053 2.858531e-06 0)
(0.034867727 -2.7779795e-06 0)
(0.035629736 2.5674675e-06 0)
(0.034916195 -2.42377e-06 0)
(0.035584421 2.2659389e-06 0)
(0.034958765 -2.1291758e-06 0)
(0.035544523 1.9954269e-06 0)
(0.034996214 -1.8736279e-06 0)
(0.035509398 1.7573261e-06 0)
(0.035029186 -1.6502402e-06 0)
(0.035478456 1.5486417e-06 0)
(0.03505824 -1.4548039e-06 0)
(0.035451179 1.3660343e-06 0)
(0.035083866 -1.2839425e-06 0)
(0.035427105 1.2064564e-06 0)
(0.035106497 -1.1347567e-06 0)
(0.035405828 1.0672229e-06 0)
(0.035126514 -1.004724e-06 0)
(0.03538699 9.4598675e-07 0)
(0.035144256 -8.9164754e-07 0)
(0.035370273 8.4070331e-07 0)
(0.035160022 -7.9361689e-07 0)
(0.035355394 7.4959645e-07 0)
(0.035174078 -7.0897579e-07 0)
(0.035342104 6.7112862e-07 0)
(0.035186661 -6.3629375e-07 0)
(0.035330177 6.0397485e-07 0)
(0.035197983 -5.7434166e-07 0)
(0.035319413 5.4700004e-07 0)
(0.035208236 -5.2207044e-07 0)
(0.03530963 4.9923908e-07 0)
(0.035217592 -4.7859214e-07 0)
(0.035300663 4.5987881e-07 0)
(0.035226209 -4.431621e-07 0)
(0.03529236 4.2823946e-07 0)
(0.035234233 -4.1515843e-07 0)
(0.035284581 4.0374883e-07 0)
(0.0352418 -3.9403085e-07 0)
(0.035277194 3.8595827e-07 0)
(0.035249039 -3.7900097e-07 0)
(0.035270067 3.7293487e-07 0)
(0.035256079 -3.9315243e-07 0)
(0.035263219 3.4416731e-07 0)
(0.035231649 0.0035205511 0)
(0.037433755 -7.9783018e-05 0)
(0.036180186 1.1260509e-05 0)
(0.037364177 5.4035689e-07 0)
(0.036260104 -3.7743571e-06 0)
(0.037308719 2.2585103e-06 0)
(0.036335892 -3.2807104e-06 0)
(0.037248651 2.8654831e-06 0)
(0.036394086 -2.7886252e-06 0)
(0.037194682 2.5754772e-06 0)
(0.036444989 -2.432083e-06 0)
(0.037147062 2.2733407e-06 0)
(0.036489712 -2.1363198e-06 0)
(0.037105141 2.0020158e-06 0)
(0.036529057 -1.8798835e-06 0)
(0.037068235 1.7631454e-06 0)
(0.036563699 -1.6557436e-06 0)
(0.037035726 1.5537758e-06 0)
(0.036594224 -1.4596545e-06 0)
(0.037007066 1.3705667e-06 0)
(0.036621148 -1.2882237e-06 0)
(0.036981771 1.2104626e-06 0)
(0.036644925 -1.1385414e-06 0)
(0.036959417 1.0707699e-06 0)
(0.036665957 -1.0080765e-06 0)
(0.036939624 9.49134e-07 0)
(0.036684597 -8.9462465e-07 0)
(0.036922059 8.4350359e-07 0)
(0.036701162 -7.9626902e-07 0)
(0.036906427 7.5209669e-07 0)
(0.03671593 -7.1134774e-07 0)
(0.036892463 6.7337072e-07 0)
(0.036729151 -6.3842553e-07 0)
(0.036879932 6.0599629e-07 0)
(0.036741047 -5.7626905e-07 0)
(0.036868622 5.4883446e-07 0)
(0.036751819 -5.2382558e-07 0)
(0.036858343 5.0091673e-07 0)
(0.036761649 -4.8020388e-07 0)
(0.036848921 4.6142679e-07 0)
(0.036770703 -4.4465609e-07 0)
(0.036840197 4.2968156e-07 0)
(0.036779134 -4.1655658e-07 0)
(0.036832024 4.0510417e-07 0)
(0.036787085 -3.953483e-07 0)
(0.036824262 3.8724035e-07 0)
(0.03679469 -3.8021773e-07 0)
(0.036816775 3.7412475e-07 0)
(0.036802085 -3.9508457e-07 0)
(0.036809548 3.4426075e-07 0)
(0.036780823 0.0035052321 0)
(0.038900549 -8.5254281e-05 0)
(0.037649488 1.1334154e-05 0)
(0.038868725 5.9641971e-07 0)
(0.03771603 -3.8552089e-06 0)
(0.038811408 2.1939623e-06 0)
(0.037793186 -3.2817859e-06 0)
(0.038748256 2.856076e-06 0)
(0.037853942 -2.7829834e-06 0)
(0.038691723 2.5685412e-06 0)
(0.037907189 -2.42625e-06 0)
(0.038641881 2.2675319e-06 0)
(0.037953986 -2.1310445e-06 0)
(0.03859801 1.9969688e-06 0)
(0.037995158 -1.8752112e-06 0)
(0.038559388 1.7587169e-06 0)
(0.038031409 -1.6516223e-06 0)
(0.038525367 1.5498789e-06 0)
(0.038063352 -1.4560202e-06 0)
(0.038495375 1.367133e-06 0)
(0.038091527 -1.2850166e-06 0)
(0.038468905 1.2074332e-06 0)
(0.038116409 -1.135708e-06 0)
(0.03844551 1.0680933e-06 0)
(0.038138418 -1.0055693e-06 0)
(0.038424798 9.4676457e-07 0)
(0.038157925 -8.9240154e-07 0)
(0.038406417 8.4140113e-07 0)
(0.038175259 -7.9429266e-07 0)
(0.038390057 7.5022549e-07 0)
(0.038190714 -7.0958488e-07 0)
(0.038375444 6.7169896e-07 0)
(0.038204549 -6.3684639e-07 0)
(0.03836233 6.0449547e-07 0)
(0.038216998 -5.7484686e-07 0)
(0.038350494 5.4747888e-07 0)
(0.038228272 -5.2253601e-07 0)
(0.038339737 4.9968293e-07 0)
(0.038238559 -4.790245e-07 0)
(0.038329876 4.6029289e-07 0)
(0.038248034 -4.4356564e-07 0)
(0.038320747 4.2862638e-07 0)
(0.038256857 -4.1553377e-07 0)
(0.038312194 4.0410525e-07 0)
(0.038265177 -3.9436836e-07 0)
(0.038304071 3.8627236e-07 0)
(0.038273136 -3.7922665e-07 0)
(0.038296238 3.7314476e-07 0)
(0.038280871 -3.946812e-07 0)
(0.038288643 3.4238035e-07 0)
(0.03827786 0.0034714459 0)
(0.040305482 -8.977144e-05 0)
(0.039049397 1.0868636e-05 0)
(0.040305136 6.6906209e-07 0)
(0.039105734 -3.9334542e-06 0)