/*--------------------------------*- C++ -*----------------------------------*\
| =========                 |                                                 |
| \\      /  F ield         | OpenFOAM: The Open Source CFD Toolbox           |
|  \\    /   O peration     | Version:  2312                                  |
|   \\  /    A nd           | Website:  www.openfoam.com                      |
|    \\/     M anipulation  |                                                 |
\*---------------------------------------------------------------------------*/
FoamFile
{
    version     2.0;
    format      ascii;
    arch        "LSB;label=32;scalar=64";
    class       volScalarField;
    location    "5";
    object      p;
}
// * * * * * * * * * * * * * * * * * * * * * * * * * * * * * * * * * * * * * //

dimensions      [0 2 -2 0 0 0 0];

internalField   nonuniform List<scalar> 
4000
(
39.754515
37.739371
35.992109
35.034898
33.868254
33.1791
32.216412
31.600118
30.702151
30.091695
29.219327
28.598295
27.742319
27.108236
26.265801
25.619437
24.788798
24.131538
23.311181
22.644385
21.832971
21.157856
20.35422
19.671855
18.874987
18.186306
17.395328
16.701148
15.915295
15.216335
14.434932
13.731828
12.954275
12.247597
11.473356
10.763616
9.9921986
9.2798649
8.5108229
7.7963249
7.0292449
6.3129817
5.5474776
4.8298235
4.065531
3.346841
2.5834132
1.8640294
1.101133
0.38138596
39.744364
37.738998
35.993515
35.034773
33.868342
33.179083
32.216428
31.600119
30.702158
30.091692
29.219331
28.59829
27.742323
27.108232
26.265804
25.619434
24.788801
24.131535
23.311184
22.644382
21.832974
21.157853
20.354222
19.671853
18.874989
18.186304
17.39533
16.701147
15.915296
15.216333
14.434933
13.731827
12.954277
12.247596
11.473357
10.763615
9.9921997
9.2798639
8.5108239
7.7963239
7.0292459
6.3129808
5.5474785
4.8298226
4.0655318
3.3468402
2.583414
1.8640286
1.1011338
0.3813844
39.697177
37.737394
35.995694
35.034498
33.868491
33.179068
32.21645
31.600134
30.70216
30.091696
29.21933
28.598292
27.742322
27.108233
26.265804
25.619435
24.7888
24.131536
23.311183
22.644383
21.832973
21.157854
20.354222
19.671854
18.874988
18.186305
17.395329
16.701147
15.915296
15.216334
14.434933
13.731827
12.954276
12.247596
11.473357
10.763616
9.9921994
9.2798642
8.5108236
7.7963242
7.0292456
6.312981
5.5474782
4.8298228
4.0655316
3.3468404
2.5834138
1.8640288
1.1011337
0.38138387
39.662451
37.735308
35.997854
35.034114
33.868641
33.179045
32.21647
31.60015
30.702158
30.091702
29.219327
28.598295
27.742319
27.108235
26.265801
25.619437
24.788798
24.131538
23.311181
22.644384
21.832971
21.157856
20.35422
19.671855
18.874987
18.186306
17.395328
16.701148
15.915295
15.216335
14.434932
13.731828
12.954275
12.247597
11.473356
10.763616
9.9921987
9.2798649
8.5108229
7.7963248
7.029245
6.3129816
5.5474776
4.8298234
4.065531
3.346841
2.5834133
1.8640294
1.1011332
0.38138377
39.634932
37.730252
35.999548
35.033659
33.868808
33.17901
32.216489
31.600162
30.702156
30.091706
29.219324
28.598298
27.742316
27.108238
26.265799
25.619439
24.788796
24.13154
23.31118
22.644386
21.83297
21.157857
20.354219
19.671856
18.874986
18.186307
17.395327
16.701149
15.915294
15.216336
14.434931
13.731829
12.954275
12.247598
11.473355
10.763617
9.992198
9.2798655
8.5108224
7.7963254
7.0292444
6.3129822
5.5474771
4.8298239
4.0655305
3.3468414
2.5834128
1.8640299
1.1011328
0.38138371
39.584052
37.72583
36.000759
35.033344
33.869031
33.178965
32.216508
31.60017
30.702153
30.091709
29.219322
28.5983
27.742314
27.108239
26.265797
25.61944
24.788795
24.131541
23.311179
22.644387
21.832969
21.157858
20.354218
19.671857
18.874985
18.186308
17.395326
16.70115
15.915293
15.216336
14.43493
13.731829
12.954274
12.247598
11.473355
10.763618
9.9921976
9.2798659
8.5108219
7.7963258
7.029244
6.3129826
5.5474767
4.8298243
4.0655301
3.3468418
2.5834124
1.8640304
1.1011324
0.38138364
39.554841
37.723775
36.000666
35.033794
33.869367
33.17892
32.216528
31.600174
30.70215
30.091712
29.21932
28.598301
27.742313
27.10824
26.265796
25.619442
24.788794
24.131542
23.311178
22.644388
21.832968
21.157859
20.354217
19.671858
18.874984
18.186308
17.395325
16.70115
15.915293
15.216337
14.43493
13.73183
12.954274
12.247599
11.473354
10.763618
9.9921972
9.2798663
8.5108216
7.7963262
7.0292437
6.3129829
5.5474764
4.8298246
4.0655298
3.3468421
2.5834121
1.8640307
1.1011321
0.38138357
39.519866
37.722986
35.999077
35.035152
33.869682
33.178873
32.216548
31.600174
30.702147
30.091713
29.219318
28.598302
27.742311
27.108242
26.265795
25.619443
24.788793
24.131543
23.311177
22.644389
21.832967
21.15786
20.354217
19.671858
18.874983
18.186309
17.395325
16.701151
15.915292
15.216337
14.434929
13.73183
12.954273
12.247599
11.473354
10.763618
9.9921968
9.2798666
8.5108212
7.7963265
7.0292434
6.3129832
5.5474761
4.8298249
4.0655295
3.3468424
2.5834119
1.864031
1.1011317
0.38138352
39.489314
37.720836
35.998036
35.03687
33.869765
33.178837
32.216568
31.60017
30.702144
30.091714
29.219316
28.598303
27.74231
27.108243
26.265794
25.619444
24.788792
24.131544
23.311176
22.644389
21.832967
21.15786
20.354216
19.671859
18.874983
18.186309
17.395324
16.701151
15.915292
15.216338
14.434929
13.731831
12.954273
12.247599
11.473354
10.763619
9.9921965
9.2798669
8.510821
7.7963267
7.0292431
6.3129834
5.5474759
4.8298252
4.0655293
3.3468426
2.5834116
1.8640313
1.1011315
0.38138348
39.462996
37.716328
35.998984
35.038066
33.869505
33.178838
32.216586
31.600162
30.702139
30.091713
29.219313
28.598304
27.742309
27.108243
26.265793
25.619444
24.788791
24.131544
23.311175
22.64439
21.832966
21.157861
20.354215
19.671859
18.874982
18.18631
17.395324
16.701152
15.915291
15.216338
14.434929
13.731831
12.954272
12.2476
11.473354
10.763619
9.9921963
9.2798672
8.5108207
7.796327
7.0292429
6.3129837
5.5474757
4.8298254
4.0655291
3.3468428
2.5834114
1.8640315
1.1011312
0.38138346
39.439188
37.711368
35.999057
35.038136
33.868982
33.178848
32.216586
31.600144
30.702132
30.091711
29.219311
28.598304
27.742308
27.108244
26.265792
25.619445
24.78879
24.131545
23.311175
22.644391
21.832966
21.157861
20.354215
19.67186
18.874982
18.18631
17.395324
16.701152
15.915291
15.216338
14.434928
13.731831
12.954272
12.2476
11.473353
10.763619
9.992196
9.2798674
8.5108205
7.7963272
7.0292427
6.3129839
5.5474755
4.8298256
4.0655289
3.346843
2.5834113
1.8640318
1.1011309
0.38138344
39.415682
37.705382
35.997497
35.03749
33.868391
33.178805
32.216553
31.600116
30.702121
30.091707
29.219308
28.598304
27.742306
27.108245
26.265791
25.619446
24.78879
24.131546
23.311174
22.644391
21.832965
21.157862
20.354215
19.67186
18.874982
18.186311
17.395323
16.701153
15.915291
15.216339
14.434928
13.731832
12.954272
12.2476
11.473353
10.763619
9.9921958
9.2798676
8.5108203
7.7963274
7.0292425
6.3129841
5.5474753
4.8298257
4.0655287
3.3468432
2.5834111
1.864032
1.1011307
0.38138343
39.386309
37.698793
35.995161
35.036617
33.867834
33.178681
32.216484
31.600077
30.702108
30.091701
29.219304
28.598304
27.742305
27.108245
26.265791
25.619446
24.788789
24.131546
23.311174
22.644392
21.832965
21.157862
20.354214
19.671861
18.874981
18.186311
17.395323
16.701153
15.91529
15.216339
14.434928
13.731832
12.954272
12.2476
11.473353
10.76362
9.9921956
9.2798678
8.5108201
7.7963276
7.0292423
6.3129842
5.5474751
4.8298259
4.0655286
3.3468434
2.583411
1.8640321
1.1011305
0.38138343
39.366543
37.69199
35.992565
35.035676
33.867298
33.178488
32.216392
31.60003
30.702092
30.091693
29.219299
28.598303
27.742304
27.108245
26.26579
25.619447
24.788789
24.131547
23.311173
22.644392
21.832964
21.157862
20.354214
19.671861
18.874981
18.186311
17.395323
16.701153
15.91529
15.216339
14.434928
13.731832
12.954272
12.247601
11.473353
10.76362
9.9921955
9.2798679
8.51082
7.7963277
7.0292422
6.3129844
5.547475
4.829826
4.0655284
3.3468435
2.5834108
1.8640323
1.1011302
0.38138343
39.345378
37.684865
35.989742
35.034656
33.866741
33.178248
32.216287
31.599977
30.702077
30.091685
29.219294
28.598301
27.742302
27.108245
26.265789
25.619447
24.788788
24.131547
23.311173
22.644392
21.832964
21.157863
20.354213
19.671861
18.874981
18.186312
17.395322
16.701153
15.91529
15.216339
14.434927
13.731832
12.954271
12.247601
11.473352
10.76362
9.9921953
9.2798681
8.5108198
7.7963278
7.0292421
6.3129845
5.5474749
4.8298262
4.0655283
3.3468436
2.5834107
1.8640324
1.10113
0.38138344
39.330527
37.677983
35.987108
35.033458
33.866125
33.177985
32.216179
31.599921
30.702063
30.091676
29.219289
28.5983
27.742301
27.108245
26.265789
25.619447
24.788788
24.131547
23.311172
22.644393
21.832964
21.157863
20.354213
19.671862
18.87498
18.186312
17.395322
16.701154
15.91529
15.21634
14.434927
13.731832
12.954271
12.247601
11.473352
10.76362
9.9921952
9.2798682
8.5108197
7.796328
7.0292419
6.3129846
5.5474747
4.8298263
4.0655282
3.3468437
2.5834106
1.8640326
1.1011298
0.38138345
39.318165
37.671144
35.984767
35.032082
33.865474
33.17772
32.216073
31.599867
30.702051
30.091669
29.219284
28.598299
27.742299
27.108245
26.265788
25.619448
24.788787
24.131548
23.311172
22.644393
21.832963
21.157863
20.354213
19.671862
18.87498
18.186312
17.395322
16.701154
15.91529
15.21634
14.434927
13.731833
12.954271
12.247601
11.473352
10.76362
9.992195
9.2798684
8.5108196
7.7963281
7.0292418
6.3129847
5.5474746
4.8298264
4.0655281
3.3468438
2.5834105
1.8640327
1.1011296
0.38138346
39.300763
37.664741
35.982947
35.030675
33.864847
33.177476
32.215975
31.599816
30.70204
30.091663
29.219281
28.598298
27.742298
27.108246
26.265787
25.619448
24.788787
24.131548
23.311172
22.644393
21.832963
21.157864
20.354213
19.671862
18.87498
18.186312
17.395322
16.701154
15.915289
15.21634
14.434927
13.731833
12.954271
12.247601
11.473352
10.76362
9.9921949
9.2798685
8.5108195
7.7963282
7.0292417
6.3129848
5.5474745
4.8298265
4.065528
3.3468439
2.5834104
1.8640328
1.1011294
0.38138347
39.292786
37.659792
35.981289
35.029344
33.864292
33.177267
32.215887
31.599772
30.70203
30.091657
29.219279
28.598297
27.742297
27.108246
26.265787
25.619448
24.788786
24.131548
23.311171
22.644394
21.832963
21.157864
20.354212
19.671862
18.87498
18.186312
17.395322
16.701154
15.915289
15.21634
14.434927
13.731833
12.954271
12.247601
11.473352
10.76362
9.9921948
9.2798686
8.5108194
7.7963283
7.0292416
6.3129849
5.5474744
4.8298266
4.0655279
3.346844
2.5834104
1.8640328
1.1011293
0.38138349
39.284779
37.653692
35.979467
35.028104
33.86381
33.177094
32.215812
31.599736
30.702021
30.091652
29.219278
28.598296
27.742296
27.108246
26.265786
25.619448
24.788786
24.131548
23.311171
22.644394
21.832962
21.157864
20.354212
19.671862
18.87498
18.186313
17.395322
16.701154
15.915289
15.21634
14.434927
13.731833
12.954271
12.247602
11.473352
10.76362
9.9921947
9.2798687
8.5108193
7.7963284
7.0292415
6.312985
5.5474744
4.8298266
4.0655278
3.3468441
2.5834103
1.8640329
1.1011291
0.3813835
39.275663
37.648686
35.977476
35.02698
33.863396
33.176953
32.215749
31.599706
30.702014
30.091646
29.219279
28.598296
27.742296
27.108246
26.265786
25.619449
24.788786
24.131549
23.311171
22.644394
21.832962
21.157864
20.354212
19.671863
18.874979
18.186313
17.395321
16.701154
15.915289
15.21634
14.434926
13.731833
12.954271
12.247602
11.473352
10.763621
9.9921946
9.2798688
8.5108192
7.7963285
7.0292415
6.3129851
5.5474743
4.8298267
4.0655278
3.3468442
2.5834102
1.864033
1.1011289
0.38138352
39.269505
37.643427
35.97539
35.025971
33.863024
33.176835
32.215695
31.599682
30.702008
30.091639
29.21928
28.598296
27.742295
27.108246
26.265786
25.619449
24.788785
24.131549
23.311171
22.644394
21.832962
21.157864
20.354212
19.671863
18.874979
18.186313
17.395321
16.701155
15.915289
15.216341
14.434926
13.731833
12.95427
12.247602
11.473352
10.763621
9.9921945
9.2798689
8.5108191
7.7963286
7.0292414
6.3129852
5.5474742
4.8298268
4.0655277
3.3468443
2.5834102
1.8640331
1.1011288
0.38138354
39.260034
37.639035
35.973419
35.025062
33.862689
33.17673
32.215647
31.59966
30.702004
30.091632
29.219282
28.598296
27.742294
27.108246
26.265785
25.619449
24.788785
24.131549
23.31117
22.644394
21.832962
21.157865
20.354212
19.671863
18.874979
18.186313
17.395321
16.701155
15.915289
15.216341
14.434926
13.731833
12.95427
12.247602
11.473352
10.763621
9.9921944
9.2798689
8.510819
7.7963286
7.0292413
6.3129852
5.5474741
4.8298269
4.0655276
3.3468443
2.5834101
1.8640331
1.1011287
0.38138355
39.254538
37.635201
35.97162
35.024258
33.862382
33.176636
32.215603
31.599641
30.702
30.091625
29.219283
28.598296
27.742294
27.108246
26.265785
25.619449
24.788785
24.131549
23.31117
22.644395
21.832962
21.157865
20.354212
19.671863
18.874979
18.186313
17.395321
16.701155
15.915289
15.216341
14.434926
13.731833
12.95427
12.247602
11.473351
10.763621
9.9921944
9.279869
8.510819
7.7963287
7.0292412
6.3129853
5.5474741
4.8298269
4.0655276
3.3468444
2.58341
1.8640332
1.1011285
0.38138357
39.248262
37.63185
35.969987
35.023538
33.862108
33.176553
32.215563
31.599624
30.701996
30.091617
29.219285
28.598296
27.742294
27.108246
26.265785
25.619449
24.788784
24.131549
23.31117
22.644395
21.832961
21.157865
20.354211
19.671863
18.874979
18.186313
17.395321
16.701155
15.915289
15.216341
14.434926
13.731833
12.95427
12.247602
11.473351
10.763621
9.9921943
9.2798691
8.5108189
7.7963288
7.0292412
6.3129853
5.547474
4.829827
4.0655275
3.3468444
2.58341
1.8640332
1.1011284
0.38138359
39.244352
37.628794
35.968498
35.022901
33.86186
33.17648
32.215528
31.599608
30.701993
30.09161
29.219285
28.598296
27.742294
27.108247
26.265784
25.619449
24.788784
24.13155
23.31117
22.644395
21.832961
21.157865
20.354211
19.671863
18.874979
18.186313
17.395321
16.701155
15.915288
15.216341
14.434926
13.731834
12.95427
12.247602
11.473351
10.763621
9.9921942
9.2798691
8.5108188
7.7963288
7.0292411
6.3129854
5.547474
4.829827
4.0655275
3.3468445
2.58341
1.8640332
1.1011283
0.38138361
39.239528
37.625996
35.96716
35.022337
33.861645
33.176419
32.215496
31.599596
30.70199
30.091605
29.219286
28.598296
27.742295
27.108247
26.265784
25.61945
24.788784
24.13155
23.311169
22.644395
21.832961
21.157865
20.354211
19.671863
18.874979
18.186313
17.395321
16.701155
15.915288
15.216341
14.434926
13.731834
12.95427
12.247602
11.473351
10.763621
9.9921942
9.2798692
8.5108188
7.7963289
7.0292411
6.3129855
5.5474739
4.8298271
4.0655274
3.3468445
2.5834099
1.8640333
1.1011282
0.38138362
39.236332
37.623619
35.965996
35.021861
33.86146
33.176371
32.21547
31.599585
30.701988
30.0916
29.219286
28.598295
27.742296
27.108247
26.265784
25.61945
24.788784
24.13155
23.311169
22.644395
21.832961
21.157865
20.354211
19.671864
18.874979
18.186314
17.395321
16.701155
15.915288
15.216341
14.434926
13.731834
12.95427
12.247602
11.473351
10.763621
9.9921941
9.2798692
8.5108187
7.7963289
7.029241
6.3129855
5.5474739
4.8298271
4.0655274
3.3468446
2.5834099
1.8640333
1.1011281
0.38138364
39.232758
37.621421
35.964983
35.02146
33.86131
33.176335
32.215449
31.599578
30.701987
30.091595
29.219287
28.598294
27.742297
27.108248
26.265784
25.61945
24.788784
24.13155
23.311169
22.644395
21.832961
21.157865
20.354211
19.671864
18.874978
18.186314
17.39532
16.701155
15.915288
15.216341
14.434926
13.731834
12.95427
12.247602
11.473351
10.763621
9.9921941
9.2798693
8.5108187
7.796329
7.029241
6.3129855
5.5474738
4.8298272
4.0655273
3.3468446
2.5834098
1.8640333
1.101128
0.38138366
39.230193
37.619692
35.964143
35.021139
33.861189
33.17631
32.215434
31.599573
30.701986
30.091592
29.219287
28.598292
27.742298
27.108248
26.265784
25.61945
24.788783
24.13155
23.311169
22.644395
21.832961
21.157865
20.354211
19.671864
18.874978
18.186314
17.39532
16.701155
15.915288
15.216341
14.434926
13.731834
12.95427
12.247602
11.473351
10.763621
9.992194
9.2798693
8.5108186
7.796329
7.0292409
6.3129856
5.5474738
4.8298272
4.0655273
3.3468447
2.5834098
1.8640333
1.1011279
0.38138367
39.22769
37.618001
35.963422
35.020877
33.861097
33.176296
32.215423
31.59957
30.701986
30.091589
29.219288
28.598291
27.742299
27.108248
26.265784
25.61945
24.788783
24.13155
23.311169
22.644395
21.832961
21.157865
20.354211
19.671864
18.874978
18.186314
17.39532
16.701155
15.915288
15.216341
14.434926
13.731834
12.95427
12.247602
11.473351
10.763621
9.992194
9.2798694
8.5108186
7.796329
7.0292409
6.3129856
5.5474738
4.8298272
4.0655273
3.3468447
2.5834098
1.8640333
1.1011278
0.38138368
39.22553
37.616789
35.962862
35.020683
33.861028
33.17629
32.215416
31.599569
30.701986
30.091587
29.219289
28.598289
27.7423
27.108249
26.265784
25.61945
24.788783
24.13155
23.311169
22.644395
21.832961
21.157866
20.354211
19.671864
18.874978
18.186314
17.39532
16.701155
15.915288
15.216341
14.434926
13.731834
12.95427
12.247602
11.473351
10.763621
9.992194
9.2798694
8.5108186
7.7963291
7.0292409
6.3129856
5.5474737
4.8298273
4.0655272
3.3468447
2.5834098
1.8640334
1.1011277
0.38138369
39.223951
37.615517
35.96238
35.020531
33.860982
33.176292
32.215414
31.599569
30.701987
30.091586
29.21929
28.598287
27.742301
27.108249
26.265784
25.61945
24.788783
24.13155
23.311169
22.644395
21.83296
21.157866
20.354211
19.671864
18.874978
18.186314
17.39532
16.701155
15.915288
15.216341
14.434925
13.731834
12.95427
12.247602
11.473351
10.763621
9.9921939
9.2798694
8.5108185
7.7963291
7.0292409
6.3129857
5.5474737
4.8298273
4.0655272
3.3468447
2.5834097
1.8640334
1.1011277
0.3813837
39.222038
37.614655
35.962046
35.020434
33.860955
33.176301
32.215415
31.599571
30.701988
30.091585
29.219292
28.598286
27.742301
27.10825
26.265784
25.619451
24.788783
24.13155
23.311168
22.644395
21.83296
21.157866
20.354211
19.671864
18.874978
18.186314
17.39532
16.701155
15.915288
15.216341
14.434925
13.731834
12.95427
12.247602
11.473351
10.763621
9.9921939
9.2798695
8.5108185
7.7963291
7.0292408
6.3129857
5.5474737
4.8298273
4.0655272
3.3468448
2.5834097
1.8640334
1.1011276
0.38138371
39.221108
37.613782
35.961777
35.020374
33.860947
33.176316
32.215419
31.599575
30.701991
30.091585
29.219293
28.598285
27.742302
27.10825
26.265785
25.619451
24.788783
24.13155
23.311168
22.644395
21.83296
21.157866
20.35421
19.671864
18.874978
18.186314
17.39532
16.701155
15.915288
15.216341
14.434925
13.731834
12.95427
12.247602
11.473351
10.763621
9.9921939
9.2798695
8.5108185
7.7963291
7.0292408
6.3129857
5.5474737
4.8298273
4.0655272
3.3468448
2.5834097
1.8640334
1.1011276
0.38138371
39.219605
37.61323
35.961642
35.02036
33.860955
33.176335
32.215426
31.59958
30.701993
30.091585
29.219293
28.598285
27.742302
27.10825
26.265785
25.619451
24.788783
24.13155
23.311168
22.644395
21.83296
21.157866
20.35421
19.671864
18.874978
18.186314
17.39532
16.701156
15.915288
15.216341
14.434925
13.731834
12.95427
12.247602
11.473351
10.763621
9.9921939
9.2798695
8.5108185
7.7963292
7.0292408
6.3129857
5.5474737
4.8298273
4.0655272
3.3468448
2.5834097
1.8640334
1.1011276
0.38138371
39.219157
37.612705
35.96155
35.020371
33.860976
33.176358
32.215435
31.599585
30.701996
30.091585
29.219294
28.598285
27.742301
27.108251
26.265785
25.619451
24.788783
24.13155
23.311168
22.644395
21.83296
21.157866
20.35421
19.671864
18.874978
18.186314
17.39532
16.701156
15.915288
15.216341
14.434925
13.731834
12.95427
12.247602
11.473351
10.763621
9.9921938
9.2798695
8.5108185
7.7963292
7.0292408
6.3129857
5.5474736
4.8298273
4.0655272
3.3468448
2.5834097
1.8640334
1.1011276
0.3813837
39.218211
37.612418
35.961555
35.020409
33.861003
33.176381
32.215445
31.599591
30.701998
30.091586
29.219295
28.598285
27.742301
27.108251
26.265786
25.619451
24.788783
24.13155
23.311168
22.644395
21.83296
21.157866
20.35421
19.671864
18.874978
18.186314
17.39532
16.701156
15.915288
15.216342
14.434925
13.731834
12.95427
12.247603
11.473351
10.763621
9.9921938
9.2798695
8.5108185
7.7963292
7.0292408
6.3129857
5.5474736
4.8298273
4.0655272
3.3468448
2.5834097
1.8640334
1.1011276
0.38138368
39.218239
37.612158
35.961554
35.020446
33.861029
33.176401
32.215454
31.599595
30.702001
30.091587
29.219296
28.598285
27.742301
27.108251
26.265786
25.619452
24.788783
24.13155
23.311168
22.644395
21.83296
21.157866
20.35421
19.671864
18.874978
18.186314
17.39532
16.701156
15.915288
15.216342
14.434925
13.731834
12.95427
12.247603
11.473351
10.763621
9.9921938
9.2798695
8.5108185
7.7963292
7.0292408
6.3129857
5.5474736
4.8298273
4.0655272
3.3468448
2.5834097
1.8640334
1.1011277
0.38138366
39.217757
37.612098
35.961592
35.020475
33.861045
33.176411
32.215458
31.599598
30.702002
30.091588
29.219296
28.598285
27.742302
27.108251
26.265786
25.619452
24.788783
24.13155
23.311168
22.644395
21.83296
21.157866
20.35421
19.671864
18.874978
18.186314
17.39532
16.701156
15.915288
15.216342
14.434925
13.731834
12.95427
12.247603
11.473351
10.763621
9.9921938
9.2798695
8.5108185
7.7963292
7.0292408
6.3129857
5.5474737
4.8298273
4.0655272
3.3468448
2.5834097
1.8640334
1.1011277
0.38138365
39.218231
37.611979
35.961547
35.020464
33.861043
33.17641
32.215458
31.599598
30.702002
30.091588
29.219296
28.598285
27.742302
27.108251
26.265786
25.619452
24.788783
24.13155
23.311168
22.644395
21.83296
21.157866
20.35421
19.671864
18.874978
18.186314
17.39532
16.701156
15.915288
15.216342
14.434925
13.731834
12.95427
12.247603
11.473351
10.763621
9.9921938
9.2798695
8.5108185
7.7963292
7.0292408
6.3129857
5.5474737
4.8298273
4.0655272
3.3468448
2.5834097
1.8640334
1.1011277
0.38138365
39.218194
37.611996
35.961507
35.020424
33.861022
33.176396
32.215452
31.599596
30.702001
30.091587
29.219296
28.598285
27.742301
27.108251
26.265786
25.619452
24.788783
24.13155
23.311168
22.644395
21.83296
21.157866
20.35421
19.671864
18.874978
18.186314
17.39532
16.701156
15.915288
15.216342
14.434925
13.731834
12.95427
12.247603
11.473351
10.763621
9.9921938
9.2798695
8.5108185
7.7963292
7.0292408
6.3129857
5.5474736
4.8298273
4.0655272
3.3468448
2.5834097
1.8640334
1.1011277
0.38138366
39.219074
37.612069
35.961424
35.020366
33.860991
33.176374
32.215443
31.599591
30.701999
30.091587
29.219295
28.598285
27.742301
27.108251
26.265786
25.619451
24.788783
24.13155
23.311168
22.644395
21.83296
21.157866
20.35421
19.671864
18.874978
18.186314
17.39532
16.701156
15.915288
15.216342
14.434925
13.731834
12.95427
12.247603
11.473351
10.763621
9.9921938
9.2798695
8.5108185
7.7963292
7.0292408
6.3129857
5.5474736
4.8298273
4.0655272
3.3468448
2.5834097
1.8640334
1.1011276
0.38138368
39.219419
37.612364
35.96143
35.02032
33.86096
33.176349
32.215432
31.599586
30.701996
30.091586
29.219294
28.598285
27.742301
27.108251
26.265785
25.619451
24.788783
24.13155
23.311168
22.644395
21.83296
21.157866
20.35421
19.671864
18.874978
18.186314
17.39532
16.701156
15.915288
15.216341
14.434925
13.731834
12.95427
12.247602
11.473351
10.763621
9.9921938
9.2798695
8.5108185
7.7963292
7.0292408
6.3129857
5.5474736
4.8298273
4.0655272
3.3468448
2.5834097
1.8640334
1.1011276
0.3813837
39.220843
37.612701
35.961446
35.020291
33.860936
33.176324
32.215422
31.59958
30.701994
30.091585
29.219294
28.598285
27.742302
27.10825
26.265785
25.619451
24.788783
24.13155
23.311168
22.644395
21.83296
21.157866
20.35421
19.671864
18.874978
18.186314
17.39532
16.701156
15.915288
15.216341
14.434925
13.731834
12.95427
12.247602
11.473351
10.763621
9.9921939
9.2798695
8.5108185
7.7963292
7.0292408
6.3129857
5.5474737
4.8298273
4.0655272
3.3468448
2.5834097
1.8640334
1.1011276
0.38138371
39.221667
37.613264
35.961598
35.020298
33.860925
33.176302
32.215415
31.599576
30.701992
30.091585
29.219293
28.598285
27.742302
27.10825
26.265785
25.619451
24.788783
24.13155
23.311168
22.644395
21.83296
21.157866
20.35421
19.671864
18.874978
18.186314
17.39532
16.701155
15.915288
15.216341
14.434925
13.731834
12.95427
12.247602
11.473351
10.763621
9.9921939
9.2798695
8.5108185
7.7963291
7.0292408
6.3129857
5.5474737
4.8298273
4.0655272
3.3468448
2.5834097
1.8640334
1.1011276
0.38138371
39.223668
37.613921
35.961789
35.020343
33.86093
33.176285
32.215409
31.599573
30.70199
30.091585
29.219292
28.598286
27.742301
27.10825
26.265784
25.619451
24.788783
24.13155
23.311168
22.644395
21.83296
21.157866
20.354211
19.671864
18.874978
18.186314
17.39532
16.701155
15.915288
15.216341
14.434925
13.731834
12.95427
12.247602
11.473351
10.763621
9.9921939
9.2798695
8.5108185
7.7963291
7.0292408
6.3129857
5.5474737
4.8298273
4.0655272
3.3468448
2.5834097
1.8640334
1.1011276
0.38138371
39.224914
37.61489
35.962153
35.020435
33.860953
33.176274
32.215408
31.599571
30.701988
30.091586
29.219291
28.598287
27.742301
27.108249
26.265784
25.61945
24.788783
24.13155
23.311169
22.644395
21.83296
21.157866
20.354211
19.671864
18.874978
18.186314
17.39532
16.701155
15.915288
15.216341
14.434925
13.731834
12.95427
12.247602
11.473351
10.763621
9.9921939
9.2798694
8.5108185
7.7963291
7.0292409
6.3129857
5.5474737
4.8298273
4.0655272
3.3468447
2.5834097
1.8640334
1.1011277
0.3813837
39.227272
37.61582
35.962552
35.020572
33.860996
33.176269
32.215409
31.59957
30.701988
30.091588
29.21929
28.598289
27.7423
27.108249
26.265784
25.61945
24.788783
24.13155
23.311169
22.644395
21.832961
21.157866
20.354211
19.671864
18.874978
18.186314
17.39532
16.701155
15.915288
15.216341
14.434926
13.731834
12.95427
12.247602
11.473351
10.763621
9.992194
9.2798694
8.5108186
7.7963291
7.0292409
6.3129856
5.5474737
4.8298273
4.0655272
3.3468447
2.5834098
1.8640334
1.1011277
0.38138369
39.22932
37.617294
35.963147
35.020762
33.86106
33.176271
32.215415
31.599572
30.701987
30.09159
29.219289
28.598291
27.742299
27.108248
26.265784
25.61945
24.788783
24.13155
23.311169
22.644395
21.832961
21.157865
20.354211
19.671864
18.874978
18.186314
17.39532
16.701155
15.915288
15.216341
14.434926
13.731834
12.95427
12.247602
11.473351
10.763621
9.992194
9.2798694
8.5108186
7.796329
7.0292409
6.3129856
5.5474738
4.8298272
4.0655273
3.3468447
2.5834098
1.8640333
1.1011278
0.38138368
39.231934
37.61855
35.963795
35.021009
33.861148
33.176283
32.215424
31.599575
30.701988
30.091593
29.219288
28.598292
27.742298
27.108248
26.265784
25.61945
24.788783
24.13155
23.311169
22.644395
21.832961
21.157865
20.354211
19.671864
18.874978
18.186314
17.39532
16.701155
15.915288
15.216341
14.434926
13.731834
12.95427
12.247602
11.473351
10.763621
9.992194
9.2798693
8.5108186
7.796329
7.0292409
6.3129856
5.5474738
4.8298272
4.0655273
3.3468447
2.5834098
1.8640333
1.1011279
0.38138367
39.235094
37.620555
35.964652
35.021322
33.861263
33.176303
32.215439
31.59958
30.701989
30.091597
29.219287
28.598294
27.742297
27.108248
26.265784
25.61945
24.788784
24.13155
23.311169
22.644395
21.832961
21.157865
20.354211
19.671864
18.874978
18.186314
17.39532
16.701155
15.915288
15.216341
14.434926
13.731834
12.95427
12.247602
11.473351
10.763621
9.9921941
9.2798693
8.5108187
7.796329
7.029241
6.3129855
5.5474738
4.8298272
4.0655273
3.3468446
2.5834098
1.8640333
1.101128
0.38138366
39.238285
37.622355
35.965612
35.021709
33.861408
33.176336
32.215458
31.599588
30.701991
30.091601
29.219287
28.598295
27.742296
27.108247
26.265784
25.61945
24.788784
24.13155
23.311169
22.644395
21.832961
21.157865
20.354211
19.671864
18.874979
18.186314
17.395321
16.701155
15.915288
15.216341
14.434926
13.731834
12.95427
12.247602
11.473351
10.763621
9.9921941
9.2798692
8.5108187
7.7963289
7.029241
6.3129855
5.5474739
4.8298271
4.0655274
3.3468446
2.5834099
1.8640333
1.1011281
0.38138364
39.24272
37.624994
35.96677
35.022169
33.861584
33.17638
32.215482
31.599598
30.701993
30.091606
29.219286
28.598296
27.742295
27.108247
26.265784
25.61945
24.788784
24.13155
23.311169
22.644395
21.832961
21.157865
20.354211
19.671863
18.874979
18.186313
17.395321
16.701155
15.915288
15.216341
14.434926
13.731834
12.95427
12.247602
11.473351
10.763621
9.9921942
9.2798692
8.5108188
7.7963289
7.0292411
6.3129855
5.5474739
4.8298271
4.0655274
3.3468445
2.5834099
1.8640333
1.1011282
0.38138362
39.246731
37.627472
35.968071
35.022713
33.861791
33.176436
32.215512
31.59961
30.701996
30.091612
29.219286
28.598296
27.742294
27.108247
26.265784
25.619449
24.788784
24.13155
23.31117
22.644395
21.832961
21.157865
20.354211
19.671863
18.874979
18.186313
17.395321
16.701155
15.915288
15.216341
14.434926
13.731834
12.95427
12.247602
11.473351
10.763621
9.9921942
9.2798691
8.5108188
7.7963288
7.0292411
6.3129854
5.547474
4.829827
4.0655275
3.3468445
2.58341
1.8640332
1.1011283
0.38138361
39.252793
37.630835
35.969541
35.023331
33.862028
33.176503
32.215546
31.599625
30.701999
30.091619
29.219285
28.598296
27.742294
27.108246
26.265784
25.619449
24.788784
24.131549
23.31117
22.644395
21.832961
21.157865
20.354211
19.671863
18.874979
18.186313
17.395321
16.701155
15.915289
15.216341
14.434926
13.731833
12.95427
12.247602
11.473351
10.763621
9.9921943
9.2798691
8.5108189
7.7963288
7.0292412
6.3129853
5.547474
4.829827
4.0655275
3.3468444
2.58341
1.8640332
1.1011284
0.38138359
39.257853
37.634069
35.97118
35.024039
33.862298
33.176583
32.215584
31.599642
30.702002
30.091626
29.219284
28.598296
27.742294
27.108246
26.265785
25.619449
24.788785
24.131549
23.31117
22.644395
21.832962
21.157865
20.354212
19.671863
18.874979
18.186313
17.395321
16.701155
15.915289
15.216341
14.434926
13.731833
12.95427
12.247602
11.473351
10.763621
9.9921944
9.279869
8.510819
7.7963287
7.0292412
6.3129853
5.5474741
4.8298269
4.0655276
3.3468444
2.58341
1.8640332
1.1011285
0.38138357
39.265635
37.63813
35.972949
35.024829
33.862598
33.176673
32.215627
31.599662
30.702006
30.091633
29.219282
28.598296
27.742294
27.108246
26.265785
25.619449
24.788785
24.131549
23.31117
22.644394
21.832962
21.157865
20.354212
19.671863
18.874979
18.186313
17.395321
16.701155
15.915289
15.216341
14.434926
13.731833
12.95427
12.247602
11.473352
10.763621
9.9921944
9.2798689
8.510819
7.7963286
7.0292413
6.3129852
5.5474741
4.8298269
4.0655276
3.3468443
2.5834101
1.8640331
1.1011287
0.38138355
39.272093
37.642107
35.974893
35.025721
33.862932
33.176777
32.215674
31.599683
30.702011
30.091641
29.219281
28.598296
27.742295
27.108246
26.265785
25.619449
24.788785
24.131549
23.311171
22.644394
21.832962
21.157864
20.354212
19.671863
18.874979
18.186313
17.395321
16.701155
15.915289
15.216341
14.434926
13.731833
12.95427
12.247602
11.473352
10.763621
9.9921945
9.2798689
8.5108191
7.7963286
7.0292414