/*--------------------------------*- C++ -*----------------------------------*\
| =========                 |                                                 |
| \\      /  F ield         | OpenFOAM: The Open Source CFD Toolbox           |
|  \\    /   O peration     | Version:  2312                                  |
|   \\  /    A nd           | Website:  www.openfoam.com                      |
|    \\/     M anipulation  |                                                 |
\*---------------------------------------------------------------------------*/
FoamFile
{
    version     2.0;
    format      ascii;
    arch        "LSB;label=32;scalar=64";
    class       volScalarField;
    location    "5";
    object      T;
}
// * * * * * * * * * * * * * * * * * * * * * * * * * * * * * * * * * * * * * //

dimensions      [0 0 0 1 0 0 0];

internalField   nonuniform List<scalar> 
4000
(
312.47928
311.77951
311.64199
311.60375
311.55949
311.52968
311.50093
311.47566
311.45122
311.42872
311.4062
311.38511
311.36379
311.34352
311.32303
311.30329
311.28342
311.26404
311.24465
311.22553
311.20652
311.18759
311.16888
311.15009
311.13164
311.11296
311.09473
311.07613
311.05808
311.03954
311.02165
311.00316
310.98542
310.96696
310.94936
310.9309
310.91343
310.89498
310.87764
310.85917
310.84195
310.82346
310.80637
310.78783
310.77089
310.75226
310.73551
310.71672
310.70029
310.68087
313.66726
312.53779
312.16575
312.08526
311.98746
311.93269
311.88116
311.84001
311.8014
311.76855
311.7357
311.70708
311.67781
311.65165
311.62489
311.60031
311.5754
311.55191
311.52843
311.50573
311.48337
311.46124
311.4398
311.4181
311.39742
311.37605
311.35601
311.33488
311.31541
311.29446
311.27548
311.25466
311.23613
311.21539
311.19727
311.17658
311.15884
311.13815
311.12078
311.10007
311.08307
311.06227
311.04567
311.02471
311.00856
310.98735
310.97176
310.95006
310.93546
310.91193
314.40103
313.2672
312.68512
312.56342
312.41349
312.33405
312.26008
312.20315
312.15054
312.10736
312.0643
312.02816
311.99103
311.95897
311.92599
311.89656
311.86667
311.83906
311.81153
311.78523
311.75957
311.73422
311.71008
311.68546
311.66258
311.6385
311.61669
311.59302
311.57214
311.54877
311.52872
311.50556
311.48624
311.46323
311.4446
311.42166
311.40367
311.38074
311.36336
311.34038
311.32363
311.30051
311.28441
311.26103
311.24567
311.22188
311.20746
311.18285
311.17005
311.14263
314.88602
313.94176
313.19253
313.0336
312.83468
312.73155
312.63597
312.56358
312.49739
312.444
312.391
312.34738
312.30258
312.26463
312.22559
312.19132
312.15655
312.12482
312.09333
312.06342
312.03453
312.00596
311.97918
311.95162
311.9266
311.8998
311.87626
311.85004
311.8278
311.802
311.7809
311.7554
311.73533
311.71004
311.69091
311.66573
311.6475
311.62233
311.60496
311.57971
311.56321
311.53777
311.52218
311.49639
311.48183
311.45545
311.4422
311.4147
311.40366
311.37264
315.22229
314.54116
313.67821
313.4896
313.24704
313.12218
313.00648
312.91932
312.84027
312.77697
312.71447
312.66352
312.61137
312.56762
312.52275
312.48368
312.44422
312.40838
312.37308
312.33957
312.30757
312.27578
312.24646
312.21597
312.18887
312.15936
312.13416
312.10538
312.08184
312.0536
312.03151
312.00367
311.98289
311.95531
311.93574
311.9083
311.88986
311.86245
311.84511
311.8176
311.80137
311.77362
311.75855
311.73036
311.7166
311.68767
311.67556
311.64523
311.63585
311.60158
315.46238
315.05034
314.13186
313.92416
313.64582
313.50229
313.36873
313.26795
313.17715
313.10444
313.03314
312.97514
312.9161
312.86671
312.81636
312.77258
312.72869
312.68881
312.64991
312.61285
312.5779
312.54292
312.5112
312.47779
312.44875
312.41652
312.38977
312.35844
312.33367
312.30301
312.27999
312.24982
312.22838
312.19853
312.17855
312.14887
312.13027
312.10062
312.08335
312.05359
312.03766
312.0076
311.99307
311.9625
311.94955
311.91809
311.90711
311.87404
311.86618
311.82902
315.63776
315.46378
314.54442
314.32977
314.02582
313.86782
313.71944
313.60676
313.50569
313.42438
313.34517
313.28057
313.21528
313.16053
313.10514
313.05684
313.00888
312.96508
312.92285
312.88232
312.84465
312.80654
312.77259
312.73631
312.70547
312.67058
312.64238
312.60854
312.58265
312.54959
312.52574
312.49325
312.47123
312.43913
312.4188
312.38691
312.36818
312.33633
312.31916
312.28718
312.27156
312.23925
312.22527
312.19236
312.1802
312.14629
312.13638
312.10069
312.09418
312.05451
315.76821
315.78272
314.90901
314.6995
314.38197
314.21455
314.05516
313.93281
313.82336
313.73454
313.64859
313.57802
313.50727
313.44756
313.38774
313.33519
313.28359
313.23606
313.19085
313.14699
313.10687
313.06574
313.02978
312.99072
312.95826
312.92077
312.89128
312.85498
312.82809
312.79269
312.7681
312.73335
312.71083
312.67652
312.65592
312.62185
312.60306
312.56904
312.55201
312.51786
312.50259
312.46807
312.45464
312.41946
312.40808
312.37181
312.36291
312.32476
312.31941
312.27758
315.86712
316.01537
315.22209
315.02799
314.70975
314.53847
314.37244
314.24315
314.12755
314.03261
313.94133
313.86562
313.79038
313.72625
313.66268
313.60625
313.55154
313.50056
313.45277
313.40579
313.36354
313.31955
313.28186
313.24014
313.20627
313.16628
313.13568
313.09702
313.06928
313.03161
313.0064
312.96945
312.94654
312.91008
312.88929
312.85311
312.83432
312.79821
312.78136
312.7451
312.7302
312.69355
312.68068
312.64333
312.63269
312.59419
312.58622
312.54581
312.54141
312.49773
315.94382
316.17399
315.48307
315.31211
315.00561
314.83604
314.66811
314.53494
314.41572
314.31631
314.2213
314.14147
314.06285
313.99497
313.92848
313.86865
313.81145
313.75736
313.70748
313.65764
313.61365
313.567
313.52787
313.48367
313.44864
313.4063
313.3748
313.33389
313.30546
313.26564
313.23995
313.20091
313.17771
313.1392
313.1183
313.0801
313.06137
313.02326
313.00664
312.96837
312.95387
312.91519
312.90287
312.86347
312.85354
312.81297
312.80582
312.76338
312.75973
312.71449
316.00498
316.27352
315.6945
315.55128
315.2672
315.10451
314.93947
314.80567
314.68552
314.58351
314.48652
314.40375
314.32299
314.25217
314.18365
314.12099
314.062
314.00524
313.9538
313.90143
313.85613
313.80709
313.76688
313.7204
313.6845
313.64
313.60781
313.56482
313.5359
313.49405
313.46804
313.42704
313.40367
313.36324
313.34233
313.30222
313.28363
313.24362
313.22729
313.18713
313.17304
313.13247
313.1207
313.07939
313.07013
313.02765
313.02123
312.97701
312.97393
312.92738
316.05523
316.32916
315.86108
315.74722
315.49353
315.34214
315.18453
315.05333
314.93496
314.83232
314.73522
314.65078
314.56921
314.49635
314.4268
314.36198
314.30194
314.24301
314.1906
314.1361
314.08996
314.03885
313.99793
313.94945
313.91298
313.86654
313.83392
313.78904
313.75983
313.71614
313.68998
313.64716
313.62377
313.58156
313.56074
313.51888
313.5005
313.45874
313.44274
313.40083
313.38719
313.34487
313.33365
313.2906
313.28195
313.23779
313.23199
313.18623
313.18357
313.13593
316.09782
316.35513
315.98915
315.90349
315.68504
315.54834
315.40208
315.27648
315.16251
315.06123
314.96587
314.88113
314.80011
314.72619
314.65664
314.59038
314.5301
314.46956
314.41682
314.36064
314.31415
314.26135
314.22013
314.16995
314.13325
314.08512
314.05235
314.00581
313.97653
313.93121
313.90506
313.86063
313.83736
313.79354
313.77293
313.72947
313.7114
313.66806
313.65244
313.60896
313.59578
313.5519
313.5412
313.49662
313.48853
313.4429
313.43762
313.39058
313.38822
313.3397
316.13495
316.36324
316.08554
316.02496
315.84348
315.72367
315.59185
315.47442
315.3672
315.26916
315.17733
315.09365
315.01454
314.94056
314.87206
314.80515
314.74543
314.6839
314.63148
314.57411
314.52781
314.47371
314.43262
314.38108
314.3445
314.29498
314.26235
314.21442
314.18531
314.13858
314.11265
314.06681
314.04381
313.99859
313.97831
313.93345
313.91577
313.87103
313.85585
313.81099
313.79829
313.75305
313.74287
313.69697
313.68939
313.64254
313.63768
313.58962
313.58746
313.53824
316.16801
316.36245
316.15706
316.11717
315.97175
315.86978
315.75445
315.64718
315.54867
315.45557
315.36888
315.28755
315.21163
315.13861
315.07217
315.00539
314.94707
314.88518
314.83372
314.7757
314.73011
314.67516
314.63463
314.58212
314.54601
314.49544
314.46324
314.4142
314.3855
314.33763
314.31211
314.26511
314.24254
314.19614
314.17631
314.13028
314.11306
314.06714
314.05246
314.00643
313.99425
313.94786
313.93819
313.89121
313.88409
313.83626
313.83176
313.78291
313.7809
313.73116
316.19795
316.35885
316.20985
316.18584
316.07353
315.98917
315.89129
315.79552
315.70718
315.62042
315.54026
315.46245
315.39088
315.31976
315.25634
315.19048
315.13432
315.07272
315.02288
314.96474
314.92039
314.86505
314.82552
314.77243
314.73715
314.68588
314.6544
314.60456
314.57652
314.52779
314.50289
314.45499
314.433
314.38568
314.36642
314.31944
314.30279
314.25593
314.24179
314.19483
314.18318
314.1359
314.12672
314.07889
314.0722
314.02365
314.01943
313.97006
313.96813
313.91806
316.2253
316.35599
316.24914
316.23635
316.15288
316.08495
316.00448
315.92083
315.84361
315.7642
315.69166
315.61834
315.55213
315.48377
315.42422
315.36001
315.30674
315.24606
315.19843
315.14071
315.09811
315.04284
315.00473
314.95148
314.91739
314.86577
314.83531
314.78501
314.75786
314.70858
314.68448
314.63597
314.61472
314.56674
314.54817
314.50051
314.4845
314.43695
314.42342
314.37577
314.36467
314.31674
314.30805
314.25964
314.25334
314.20432
314.20035
314.15066
314.14882
314.09858
316.25043
316.35556
316.27907
316.27347
316.21395
316.16055
316.0966
316.02503
315.95932
315.88791
315.82372
315.75564
315.69556
315.6307
315.57575
315.51386
315.4641
315.40493
315.36006
315.30328
315.2629
315.20817
315.17187
315.11887
315.08629
315.03471
315.00555
314.95512
314.9291
314.87958
314.85648
314.80765
314.78729
314.73893
314.72116
314.67308
314.65781
314.60982
314.59695
314.54888
314.53836
314.49003
314.48183
314.4331
314.42716
314.37792
314.37417
314.3244
314.32262
314.27241
316.27359
316.35797
316.30279
316.30112
316.26061
316.21946
316.1705
316.11041
316.05609
315.99291
315.93745
315.87513
315.82173
315.76094
315.71115
315.65215
315.60644
315.54931
315.50767
315.45232
315.41457
315.36082
315.32669
315.27434
315.24358
315.19241
315.1648
315.11459
315.08991
315.04047
315.01854
314.96968
314.95036
314.90191
314.88506
314.83684
314.82237
314.77422
314.76206
314.71383
314.70392
314.65546
314.64775
314.59894
314.59336
314.54414
314.54059
314.49096
314.48925
314.43924
316.29493
316.36285
316.32247
316.32236
316.29634
316.26502
316.22911
316.17945
316.13597
316.08089
316.03421
315.9779
315.93149
315.87517
315.83093
315.77527
315.73402
315.67938
315.64136
315.58788
315.5531
315.50074
315.46909
315.41777
315.38911
315.33869
315.31287
315.26321
315.24007
315.19102
315.17044
315.12185
315.1037
315.05543
315.03961
314.99152
314.97794
314.9299
314.9185
314.87037
314.86109
314.81276
314.80554
314.75692
314.75169
314.70273
314.69938
314.65009
314.64845
314.59885
316.31462
316.36961
316.33957
316.33942
316.32402
316.30022
316.27525
316.2347
316.20115
316.15373
316.11557
316.06528
316.02592
315.97431
315.93584
315.88384
315.84732
315.79554
315.76143
315.71018
315.67865
315.62804
315.59914
315.54919
315.52286
315.47353
315.4497
315.4009
315.37948
315.33113
315.31202
315.26401
315.24714
315.19934
315.18463
315.13695
315.12433
315.07665
315.06606
315.01829
315.00967
314.96172
314.95501
314.90681
314.90194
314.85347
314.85032
314.80159
314.80003
314.75101
316.33278
316.37755
316.35497
316.35386
316.34597
316.32761
316.31151
316.27858
316.25385
316.21341
316.18326
316.13879
316.10632
316.05947
316.02681
315.97867
315.94702
315.89837
315.86835
315.81963
315.79156
315.74301
315.71704
315.66878
315.64496
315.59702
315.57534
315.52771
315.50814
315.46077
315.44327
315.39609
315.38061
315.33356
315.32004
315.27303
315.26142
315.21437
315.20463
315.15747
315.14953
315.1022
315.09602
315.04848
315.04397
314.9962
314.99327
314.94528
314.94382
314.89557
316.34954
316.38612
316.36917
316.36667
316.36393
316.34929
316.34013
316.31334
316.2962
316.26189
316.23904
316.20001
316.1741
316.13192
316.10495
316.06075
316.03397
315.98861
315.96276
315.91679
315.89229
315.84606
315.82315
315.77684
315.75565
315.70938
315.68997
315.64377
315.62616
315.58004
315.56424
315.51816
315.50415
315.45808
315.44582
315.39973
315.38919
315.34301
315.33415
315.28784
315.28061
315.23413
315.22849
315.18182
315.17769
315.13082
315.12812
315.08106
315.07971
315.03241
316.36503
316.3949
316.38244
316.37843
316.37914
316.36687
316.36297
316.34094
316.33013
316.30106
316.28467
316.25059
316.23074
316.19299
316.17145
316.13114
316.10913
316.06714
316.04543
316.00237
315.98146
315.93773
315.91794
315.8738
315.85532
315.81093
315.79387
315.74933
315.73377
315.68912
315.67509
315.63035
315.61786
315.57302
315.56206
315.51712
315.50768
315.4626
315.45465
315.40941
315.40291
315.3575
315.35241
315.30681
315.30307
315.2573
315.25484
315.20889
315.20766
315.16148
316.37938
316.40363
316.39489
316.38946
316.39247
316.38157
316.38154
316.36304
316.35736
316.33261
316.32181
316.29208
316.2777
316.24407
316.22758
316.19102
316.17356
316.13492
316.11724
316.07714
316.05979
316.01868
316.002
315.96019
315.94443
315.90211
315.88744
315.84475
315.83127
315.7883
315.77607
315.73288
315.72194
315.67855
315.66892
315.62533
315.61702
315.57324
315.56622
315.52225
315.51649
315.47234
315.46782
315.42348
315.42014
315.37564
315.37343
315.32876
315.32765
315.28277
316.39269
316.41215
316.40656
316.39993
316.40445
316.39423
316.39697
316.38101
316.37937
316.35806
316.35196
316.32597
316.3164
316.28649
316.2746
316.24157
316.22835
316.19296
316.17912
316.14199
316.12807
316.08964
316.07601
316.03662
316.02356
315.98345
315.97115
315.93047
315.91907
315.87795
315.86753
315.82606
315.81669
315.77491
315.76663
315.72458
315.7174
315.67511
315.66902
315.6265
315.6215
315.57877
315.57482
315.53191
315.52899
315.48591
315.48397
315.44072
315.43974
315.3963
316.40508
316.42037
316.41749
316.40987
316.41543
316.40543
316.41012
316.39588
316.39734
316.37872
316.37645
316.3536
316.34815
316.32153
316.31373
316.28395
316.2746
316.24231
316.23205
316.19782
316.18715
316.15141
316.14071
316.1038
316.09335
316.05552
316.04554
316.00699
315.99763
315.9585
315.94987
315.91026
315.90245
315.86244
315.85549
315.81514
315.80908
315.76843
315.76328
315.72236
315.71811
315.67697
315.6736
315.63226
315.62975
315.58823
315.58656
315.54488
315.54404
315.50216
316.41662
316.42827
316.4277
316.4193
316.42558
316.41556
316.42158
316.40846
316.41224
316.39563
316.39643
316.37615
316.37415
316.35038
316.34613
316.31929
316.3134
316.284
316.27701
316.24556
316.23791
316.20481
316.19686
316.16244
316.15448
316.11899
316.11124
316.07489
316.06751
316.03045
316.02357
315.98593
315.97964
315.94151
315.93587
315.89734
315.89239
315.85351
315.84928
315.8101
315.80658
315.76715
315.76435
315.7247
315.72261
315.68278
315.68138
315.64138
315.64068
315.60049
316.42739
316.43583
316.43721
316.42822
316.43502
316.42485
316.43176
316.41934
316.42479
316.40966
316.41284
316.39462
316.39544
316.3741
316.37286
316.34862
316.34575
316.31902
316.31495
316.28613
316.28123
316.25068
316.24528
316.21331
316.20768
316.17453
316.16888
316.13476
316.12927
316.09434
316.08913
316.05354
316.04871
316.01256
316.00819
315.97157
315.9677
315.93068
315.92735
315.89
315.88722
315.84959
315.84736
315.8095
315.80782
315.76977
315.76865
315.73042
315.72985
315.69145
316.43746
316.44306
316.44605
316.43661
316.4438
316.43344
316.44093
316.42891
316.43554
316.42148
316.42645
316.40986
316.41292
316.39361
316.39486
316.37291
316.37262
316.3483
316.34678
316.32041
316.31797
316.28985
316.28676
316.25716
316.25368
316.22283
316.21914
316.18725
316.18352
316.15076
316.14712
316.11362
316.11017
316.07606
316.07289
316.03825
316.03541
316.00034
315.99786
315.96243
315.96034
315.9246
315.92292
315.88693
315.88566
315.84946
315.84861
315.81223
315.8118
315.77526
316.44687
316.44997
316.45425
316.44447
316.45194
316.44139
316.44925
316.43747
316.4449
316.43159
316.43787
316.42254
316.42734
316.4097
316.41297
316.39299
316.39486
316.37269
316.37336
316.34924
316.34895
316.32311
316.32208
316.29476
316.2932
316.2646
316.26269
316.233
316.2309
316.20028
316.1981
316.16671
316.16456
316.1325
316.13046
316.09785
316.09598
316.06289
316.06123
316.02776
316.02634
315.99254
315.99138
315.95731
315.95643
315.92214
315.92155
315.88708
315.88678
315.85215
316.45567
316.45654
316.46183
316.45179
316.45946
316.44874
316.45683
316.44518
316.45312
316.44036
316.44755
316.4332
316.4393
316.42304
316.42789
316.4096
316.41322
316.39296
316.39547
316.37339
316.37494
316.35122
316.35199
316.32681
316.32696
316.30052
316.30021
316.27266
316.27202
316.24352
316.24268
316.21337
316.21241
316.18241
316.18142
316.15083
316.14986
316.11878
316.11789
316.0864
316.08561
316.05377
316.05311
316.021
316.02049
315.98814
315.9878
315.95527
315.95509
315.92242
316.46389
316.46277
316.46881
316.45857
316.46635
316.45552
316.46372
316.45217
316.46041
316.44805
316.45585
316.44227
316.4493
316.43417
316.44022
316.42337
316.42838
316.40979
316.41379
316.39355
316.39664
316.37487
316.37717
316.35401
316.35564
316.33124
316.33233
316.30685
316.30751
316.28107
316.28142
316.25416
316.25427
316.22631
316.22627
316.1977
316.19756
316.16848
316.16828
316.13878
316.13857
316.10871
316.10851
316.07836
316.07819
316.04781
316.04769
316.01712
316.01706
315.98635
316.47154
316.46864
316.47519
316.46479
316.47262
316.46172
316.46996
316.4585
316.46689
316.45484
316.46302
316.45005
316.45772
316.44352
316.45045
316.43482
316.44089
316.42376
316.42895
316.41035
316.4147
316.3947
316.39827
316.37698
316.37987
316.3574
316.35969
316.33617
316.33797
316.31351
316.3149
316.28963
316.2907
316.26472
316.26552
316.23894
316.23954
316.21243
316.21288
316.18534
316.18565
316.15775
316.15797
316.12978
316.12993
316.1015
316.10159
316.07297
316.07302
316.04427
316.47864
316.47411
316.48095
316.47046
316.47826
316.46735
316.47556
316.46422
316.47264
316.46087
316.46924
316.45679
316.46485
316.45144
316.45896
316.44438
316.45122
316.43538
316.44147
316.42434
316.42967
316.41128
316.41588
316.39631
316.40023
316.37956
316.38287
316.36119
316.36396
316.34139
316.34368
316.32032
316.32221
316.29815
316.2997
316.27504
316.2763
316.25112
316.25212
316.22651
316.2273
316.20133
316.20193
316.17566
316.17609
316.14958
316.14986
316.12318
316.12332
316.09651
316.48514
316.47913
316.48609
316.47554
316.48326
316.4724
316.48053
316.46935
316.47772
316.46622
316.47465
316.46265
316.47092
316.45818
316.46608
316.4524
316.45977
316.44505
316.45179
316.43597
316.44204
316.42511
316.43051
316.41252
316.41726
316.39826
316.40239
316.38245
316.38601
316.36522
316.36827
316.34672
316.34931
316.3271
316.32928
316.30648
316.3083
316.28499
316.28648
316.26275
316.26394
316.23985
316.24078
316.21639
316.21707
316.19245
316.19289
316.1681
316.16832
316.14341
316.49094
316.48361
316.49057
316.48001
316.48763
316.47687
316.4849
316.4739
316.48218
316.47096
316.47935
316.46776
316.4761
316.46395
316.47205
316.45916
316.46686
316.45312
316.46031
316.44564
316.45225
316.43663
316.44263
316.42607
316.43144
316.41397
316.41875
316.40042
316.40462
316.3855
316.38916
316.36933
316.3725
316.35203
316.35474
316.33371
316.336
316.31449
316.31639
316.29446
316.29601
316.27372
316.27493
316.25236
316.25326
316.23046
316.23106
316.20809
316.20839
316.18532
316.49589
316.48748
316.49435
316.48387
316.49135
316.48076
316.48866
316.4779
316.48604
316.47512
316.4834
316.47221
316.48051
316.4689
316.47706
316.46488
316.47274
316.45987
316.46732
316.45369
316.46065
316.4462
316.45261
316.43735
316.44319
316.42712
316.43238
316.41554
316.42022
316.40266
316.4068
316.38858
316.3922
316.37338
316.37652
316.35717
316.35985
316.34003
316.34228
316.32207
316.3239
316.30335
316.3048
316.28398
316.28505
316.26401
316.26472
316.24352
316.24388
316.22258
316.4998
316.49064
316.49742
316.4871
316.49446
316.48409
316.49184
316.48136
316.48934
316.47874
316.48687
316.47607
316.48426
316.47315
316.48126
316.46972
316.47761
316.46553
316.47309
316.46038
316.46753
316.45415
316.46081
316.44673
316.45287
316.43808
316.44367
316.42819
316.43323
316.41711
316.4216
316.40487
316.40884
316.39156
316.39502
316.37725
316.38023
316.36202
316.36454
316.34595
316.34802
316.32912
316.33075
316.3116
316.31281
316.29345
316.29426
316.27474
316.27515
316.25554
316.50253
316.49306
316.49979
316.48972
316.49695
316.48687
316.49446
316.48431
316.4921
316.48186
316.48979
316.4794
316.48741
316.47679
316.48477
316.47382
316.48164
316.47027
316.47783
316.46595
316.47316
316.46073
316.46751
316.45449
316.4608
316.44717
316.45296
316.43873
316.444
316.42919
316.43392
316.41857
316.42278
316.40694
316.41063
316.39434
316.39753
316.38083
316.38354
316.3665
316.36873
316.35139
316.35316
316.33558
316.3369
316.31912
316.32001
316.30209
316.30253
316.28453
316.50407
316.49475
316.50147
316.49176
316.49887
316.48914
316.49656
316.48677
316.49436
316.4845
316.49222
316.48225
316.49004
316.4799
316.48768
316.47729
316.48495
316.47423
316.48169
316.47057
316.47773
316.46616
316.47295
316.46088
316.46724
316.45466
316.46054
316.44745
316.45283
316.43923
316.4441
316.43002
316.43437
316.41985
316.42369
316.40876
316.4121
316.3968
316.39964
316.38403
316.38638
316.3705
316.37237
316.35626
316.35766
316.34137
316.34231
316.32589
316.32636
316.30987
316.50462
316.49578
316.50255
316.49326
316.50027
316.49093
316.49817
316.48879
316.49617
316.48671
316.4942
316.48465
316.4922
316.48252
316.49007
316.4802
316.48765
316.47754
316.48481
316.47439
316.48141
316.47062
316.47731
316.46611
316.47242
316.46079
316.46666
316.45459
316.46
316.44749
316.45241
316.43949
316.4439
316.43059
316.4345
316.42083
316.42424
316.41024
316.41316
316.39887
316.40129
316.38676
316.38869
316.37395
316.3754
316.3605
316.36147
316.34646
316.34694
316.33186
316.50445
316.49629
316.50311
316.4943
316.5012
316.49229
316.49936
316.49039
316.49755
316.48852
316.49575
316.48664
316.49393
316.48471
316.49199
316.48263
316.48982
316.48027
316.4873
316.47751
316.48432
316.47424
316.48076
316.47035
316.47652
316.46575
316.47152
316.46039
316.46572
316.45422
316.45909
316.44723
316.45163
316.43942
316.44334
316.43082
316.43425
316.42143
316.42437
316.41131
316.41375
316.40047
316.40243
316.38896
316.39043
316.37681
316.3778
316.36408
316.36457
316.3508
316.50388
316.49642
316.50326
316.49494
316.50173
316.49327
316.50015
316.49162
316.49855
316.48995
316.49693
316.48826
316.49526
316.48651
316.49349
316.48462
316.49151
316.48249
316.48924
316.48003
316.48658
316.47713
316.48343
316.47372
316.47969
316.4697
316.4753
316.465
316.47021
316.4596
316.46437
316.45346
316.45778
316.44658
316.45044
316.43896
316.44235
316.43063
316.43354
316.42159
316.42403
316.41188
316.41383
316.40153
316.403
316.39057
316.39155
316.37903
316.37952
316.36695
316.50314
316.49631
316.5031
316.49528
316.50194
316.49392
316.50061
316.49252
316.49922
316.49106
316.49778
316.48955
316.49625
316.48795
316.49461
316.4862
316.49278
316.48425
316.49069
316.48201
316.48826
316.47939
316.4854
316.47633
316.48205
316.47275
316.47814
316.46859
316.4736
316.4638
316.46842
316.45836
316.46255
316.45225
316.45601
316.44548
316.44879
316.43805
316.44089
316.42996
316.43234
316.42125
316.42316
316.41193
316.41337
316.40202
316.40298
316.39156
316.39204
316.38057
316.50237
316.49605
316.50273
316.49537
316.50187
316.49431
316.50079
316.49314
316.4996
316.49188
316.49832
316.49052
316.49692
316.48905
316.49539
316.48743
316.49366
316.48559
316.49168
316.4835
316.48941
316.48108
316.48677
316.47827
316.4837
316.47502
316.48014
316.47127
316.47604
316.46696
316.47137
316.46209
316.4661
316.45662
316.46022
316.45055
316.45373
316.44388
316.44663
316.43662
316.43892
316.42877
316.43062
316.42036
316.42175
316.41139
316.41233
316.4019
316.40237
316.3919
316.5016
316.49573
316.5022
316.49528
316.5016
316.49448
316.50074
316.49352
316.49973
316.49243
316.49859
316.49122
316.4973
316.48985
316.49584
316.4883
316.49417
316.48654
316.49227
316.48453
316.49009
316.48224
316.48758
316.4796
316.4847
316.47658
316.48139
316.47312
316.47762
316.46919
316.47336
316.46476
316.46856
316.45981
316.46323
316.45433
316.45735
316.4483
316.45092
316.44174
316.44394
316.43464
316.43641
316.42702
316.42835
316.41889
316.41978
316.41025
316.4107
316.40114
316.50085
316.49537
316.50158
316.49507
316.50117
316.49448
316.5005
316.4937
316.49964
316.49276
316.49862
316.49165
316.49741
316.49036
316.49599
316.48885
316.49435
316.48711
316.49246
316.48514
316.49031
316.48289
316.48787
316.48035
316.4851
316.47748
316.48197
316.47423
316.47843
316.47058
316.47447
316.46649
316.47005
316.46195
316.46516
316.45694
316.45978
316.45145
316.45391
316.44548
316.44755
316.43903
316.4407
316.43209
316.43335
316.42468
316.42553
316.41681
316.41724
316.4085
316.50011
316.49499
316.5009
316.49477
316.50062
316.49434
316.5001
316.49371
316.49938
316.49289
316.49844
316.49185
316.49727
316.49058
316.49585
316.48907
316.49418
316.48732
316.49227
316.48532
316.49009
316.48307
316.48766
316.48056
316.48494
316.47776
316.4819
316.47465
316.47852
316.47118
316.47478
316.46735
316.47064
316.46312
316.4661
316.45849
316.46114
316.45345
316.45574
316.44797
316.4499
316.44206
316.44362
316.43572
316.4369
316.42895
316.42974
316.42175
316.42215
316.41414
316.49936
316.49461
316.50018
316.4944
316.49999
316.4941
316.49959
316.49358
316.49895
316.49283
316.49805
316.49182
316.49688
316.49054
316.49542
316.48897
316.49368
316.48715
316.49169
316.48508
316.48945
316.48278
316.48696
316.48024
316.48423
316.47746
316.48123
316.4744
316.47795
316.47106
316.47435
316.4674
316.47043
316.46342
316.46615
316.45909
316.46152
316.4544
316.45651
316.44933
316.45111
316.44389
316.44533
316.43805
316.43914
316.43183
316.43256
316.42522
316.42559
316.41823
316.49861
316.49422
316.49942
316.49399
316.4993
316.49377
316.49898
316.49332
316.49838
316.49261
316.49748
316.49157
316.49625
316.49021
316.49469
316.48854
316.49284
316.48659
316.49071
316.48441
316.48836
316.482
316.48579
316.47939
316.483
316.47657
316.47998
316.47353
316.47673
316.47025
316.47322
316.46671
316.46945
316.4629
316.46538
316.45879
316.461
316.45439
316.45631
316.44966
316.45128
316.4446
316.44591
316.4392
316.44019
316.43345
316.43412
316.42736
316.42769
316.42091
316.49784
316.49383
316.49865
316.49354
316.49856
316.49337
316.49828
316.49295
316.49768
316.49221
316.49671
316.49108
316.49536
316.48958
316.49365
316.48775
316.49162
316.48564
316.48933
316.48329
316.48682
316.48074
316.48411
316.47801
316.48123
316.47512
316.47816
316.47204
316.4749
316.46877
316.47143
316.4653
316.46775
316.4616
316.46383
316.45767
316.45966
316.45349
316.45522
316.44903
316.4505
316.44429
316.44548
316.43926
316.44016
316.43393
316.43453
316.42828
316.42858
316.42232
316.49705
316.49344
316.49786
316.49306
316.49779
316.49292
316.49751
316.49247
316.49685
316.49162
316.49574
316.49034
316.4942
316.48864
316.49227
316.48659
316.49002
316.48425
316.48752
316.4817
316.48481
316.47897
316.48194
316.4761
316.47892
316.47308
316.47576
316.46994
316.47245
316.46665
316.46899
316.4632
316.46536
316.45958
316.46155
316.45577
316.45753
316.45176
316.4533
316.44753
316.44883
316.44306
316.44411
316.43833
316.43914
316.43335
316.43389
316.42809
316.42836
316.42256
316.49623
316.49303
316.49704
316.49256
316.49698
316.4924
316.49667
316.49187
316.49586
316.49084
316.49453
316.48931
316.49272
316.48734
316.49051
316.48501
316.48799
316.48241
316.48523
316.47962
316.4823
316.47668
316.47924
316.47362
316.47606
316.47047
316.47279
316.46723
316.46941
316.46389
316.46593
316.46043
316.46232
316.45685
316.45857
316.45314
316.45468
316.44926
316.45061
316.4452
316.44635
316.44095
316.44188
316.43649
316.4372
316.43181
316.43229
316.42689
316.42713
316.42173
316.49538
316.49263
316.49621
316.49204
316.49615
316.49183
316.49573
316.49112
316.49469
316.48982
316.49304
316.48796
316.49089
316.48564
316.48834
316.48298
316.4855
316.48007
316.48245
316.477
316.47927
316.47383
316.47599
316.47058
316.47264
316.46727
316.46923
316.46391
316.46577
316.4605
316.46224
316.45702
316.45863
316.45346
316.45493
316.4498
316.45112
316.44602
316.44718
316.44211
316.4431
316.43805
316.43885
316.43381
316.43442
316.42939
316.4298
316.42477
316.42497
316.41993
316.4945
316.49221
316.49535
316.4915
316.49527
316.49117
316.49467
316.49019
316.49329
316.4885
316.49123
316.48622
316.48866
316.48349
316.48571
316.48044
316.4825
316.47719
316.47913
316.47382
316.47567
316.4704
316.47217
316.46694
316.46864
316.46347
316.46509
316.45998
316.46153
316.45649
316.45794
316.45297
316.45432
316.4494
316.45065
316.44579
316.44691
316.44209
316.44308
316.4383
316.43914
316.43439
316.43508
316.43035
316.43087
316.42615
316.4265
316.42179
316.42197
316.41725
316.49356
316.49179
316.49447
316.49093
316.49434
316.4904
316.49345
316.48902
316.4916
316.48684
316.48903
316.48405
316.48595
316.48083
316.48255
316.47735
316.47894
316.47373
316.47524
316.47005
316.47149
316.46636
316.46775
316.46269
316.46404
316.45905
316.46035
316.45544
316.45668
316.45186
316.45304
316.44829
316.44939
316.44472
316.44574
316.44113
316.44205
316.4375
316.43831
316.4338
316.4345
316.43003
316.4306
316.42616
316.42659
316.42216
316.42246
316.41803
316.41818
316.41375
316.49258
316.49137
316.49355
316.49033
316.49331
316.48947
316.492
316.48754
316.48955
316.48474
316.48636
316.48135
316.48271
316.47759
316.4788
316.47365
316.47478
316.46964
316.47072
316.46564
316.4667
316.46169
316.46272
316.45781
316.45883
316.454
316.455
316.45027
316.45124
316.44661
316.44754
316.44299
316.44387
316.43941
316.44023
316.43585
316.43659
316.43227
316.43293
316.42867
316.42924
316.42501
316.42548
316.42129
316.42165
316.41747
316.41772
316.41355
316.41367
316.4095
316.49154
316.49097
316.4926
316.48967
316.49215
316.48832
316.49024
316.48566
316.48705
316.48212
316.48313
316.47805
316.47885
316.47372
316.47442
316.46929
316.46996
316.46489
316.46556
316.46057
316.46125
316.45637
316.45706
316.45229
316.45299
316.44833
316.44904
316.44449
316.4452
316.44075
316.44144
316.4371
316.43776
316.43351
316.43414
316.42997
316.43054
316.42645
316.42696
316.42292
316.42337
316.41938
316.41975