/*--------------------------------*- C++ -*----------------------------------*\
| =========                 |                                                 |
| \\      /  F ield         | OpenFOAM: The Open Source CFD Toolbox           |
|  \\    /   O peration     | Version:  2312                                  |
|   \\  /    A nd           | Website:  www.openfoam.com                      |
|    \\/     M anipulation  |                                                 |
\*---------------------------------------------------------------------------*/
FoamFile
{
    version     2.0;
    format      ascii;
    arch        "LSB;label=32;scalar=64";
    class       volScalarField;
    location    "1";
    object      p;
}
// * * * * * * * * * * * * * * * * * * * * * * * * * * * * * * * * * * * * * //

dimensions      [0 2 -2 0 0 0 0];

internalField   nonuniform List<scalar> 
4000
(
14.378353
13.886313
13.777125
13.321417
13.194026
12.75458
12.609684
12.185906
12.025978
11.616142
11.443075
11.045552
10.860901
10.474277
10.279358
9.9024174
9.6983566
9.3300569
9.1178225
8.7572626
8.5376943
8.1840896
7.9579225
7.6105821
7.3784674
7.0367752
6.7992977
6.4626963
6.2203891
5.8883666
5.6417232
5.3138021
5.0632861
4.7390145
4.4850675
4.1640126
3.9070601
3.5888025
3.3292586
3.0133886
2.7516596
2.4377738
2.1742607
1.86196
1.5970601
1.2859485
1.0200569
0.70974
0.44325031
0.13333051
14.377213
13.88587
13.777123
13.321425
13.194018
12.754587
12.609677
12.185913
12.025972
11.616147
11.44307
11.045557
10.860896
10.474281
10.279354
9.9024217
9.6983525
9.3300607
9.1178188
8.757266
8.537691
8.1840927
7.9579195
7.6105849
7.3784647
7.0367777
6.7992952
6.4626986
6.2203869
5.8883687
5.6417212
5.313804
5.0632842
4.7390162
4.4850658
4.1640142
3.9070585
3.588804
3.3292573
3.0133899
2.7516584
2.437775
2.1742595
1.8619612
1.597059
1.2859496
1.0200558
0.70974108
0.44324922
0.1333319
14.374597
13.88547
13.777138
13.321425
13.194017
12.754587
12.609676
12.185913
12.025972
11.616148
11.443069
11.045557
10.860896
10.474282
10.279353
9.9024219
9.6983524
9.3300609
9.1178186
8.7572662
8.5376909
8.1840928
7.9579194
7.610585
7.3784646
7.0367779
6.7992951
6.4626987
6.2203868
5.8883688
5.6417211
5.313804
5.0632842
4.7390163
4.4850657
4.1640142
3.9070585
3.588804
3.3292572
3.01339
2.7516583
2.4377751
2.1742594
1.8619612
1.5970589
1.2859496
1.0200558
0.70974112
0.44324914
0.13333227
14.371607
13.88511
13.777159
13.321422
13.194019
12.754584
12.609679
12.18591
12.025974
11.616145
11.443071
11.045556
10.860898
10.47428
10.279355
9.9024204
9.6983538
9.3300595
9.1178199
8.757265
8.537692
8.1840917
7.9579205
7.610584
7.3784655
7.0367769
6.799296
6.4626979
6.2203876
5.8883681
5.6417218
5.3138034
5.0632848
4.7390157
4.4850663
4.1640137
3.907059
3.5888035
3.3292577
3.0133895
2.7516588
2.4377746
2.1742599
1.8619608
1.5970593
1.2859492
1.0200562
0.70974072
0.4432495
0.13333217
14.368756
13.884776
13.777177
13.321421
13.194022
12.754581
12.609681
12.185908
12.025976
11.616143
11.443073
11.045554
10.8609
10.474278
10.279357
9.9024188
9.6983553
9.3300581
9.1178213
8.7572637
8.5376932
8.1840906
7.9579215
7.610583
7.3784665
7.036776
6.7992969
6.4626971
6.2203884
5.8883673
5.6417226
5.3138027
5.0632855
4.739015
4.485067
4.1640131
3.9070596
3.588803
3.3292582
3.013389
2.7516593
2.4377741
2.1742603
1.8619603
1.5970598
1.2859488
1.0200566
0.70974031
0.44324989
0.13333202
14.36608
13.884458
13.777191
13.32142
13.194025
12.754579
12.609683
12.185906
12.025978
11.616142
11.443075
11.045552
10.860901
10.474277
10.279358
9.9024176
9.6983564
9.330057
9.1178223
8.7572627
8.5376942
8.1840897
7.9579224
7.6105822
7.3784673
7.0367753
6.7992976
6.4626964
6.2203891
5.8883667
5.6417232
5.3138021
5.063286
4.7390145
4.4850674
4.1640126
3.9070601
3.5888025
3.3292587
3.0133886
2.7516597
2.4377738
2.1742607
1.86196
1.5970601
1.2859485
1.020057
0.70973996
0.44325021
0.1333319
14.363523
13.884155
13.777201
13.32142
13.194027
12.754577
12.609685
12.185904
12.025979
11.61614
11.443076
11.045551
10.860902
10.474276
10.279359
9.9024165
9.6983574
9.3300561
9.1178232
8.7572618
8.537695
8.1840889
7.9579232
7.6105815
7.378468
7.0367746
6.7992982
6.4626958
6.2203896
5.8883662
5.6417237
5.3138016
5.0632865
4.7390141
4.4850679
4.1640122
3.9070604
3.5888021
3.329259
3.0133882
2.75166
2.4377734
2.174261
1.8619597
1.5970604
1.2859482
1.0200573
0.70973967
0.4432505
0.13333179
14.361066
13.883868
13.777208
13.321419
13.19403
12.754575
12.609686
12.185903
12.025981
11.616139
11.443078
11.04555
10.860903
10.474275
10.27936
9.9024156
9.6983583
9.3300552
9.117824
8.7572611
8.5376958
8.1840882
7.9579238
7.6105808
7.3784686
7.0367741
6.7992988
6.4626953
6.2203901
5.8883657
5.6417241
5.3138012
5.0632869
4.7390137
4.4850682
4.1640118
3.9070608
3.5888018
3.3292593
3.0133879
2.7516603
2.4377731
2.1742613
1.8619594
1.5970607
1.2859479
1.0200575
0.70973939
0.44325077
0.13333169
14.358712
13.883596
13.777214
13.321418
13.194032
12.754574
12.609688
12.185902
12.025982
11.616138
11.443079
11.045549
10.860905
10.474274
10.279361
9.9024147
9.6983592
9.3300544
9.1178248
8.7572604
8.5376964
8.1840876
7.9579244
7.6105802
7.3784691
7.0367735
6.7992993
6.4626948
6.2203906
5.8883652
5.6417245
5.3138008
5.0632873
4.7390133
4.4850686
4.1640115
3.9070611
3.5888015
3.3292596
3.0133876
2.7516606
2.4377729
2.1742616
1.8619591
1.597061
1.2859476
1.0200578
0.70973914
0.44325102
0.13333158
14.35646
13.883341
13.777218
13.321416
13.194033
12.754572
12.609689
12.1859
12.025983
11.616136
11.44308
11.045548
10.860905
10.474273
10.279362
9.9024139
9.6983599
9.3300537
9.1178255
8.7572597
8.537697
8.184087
7.957925
7.6105797
7.3784696
7.036773
6.7992997
6.4626944
6.220391
5.8883648
5.6417249
5.3138004
5.0632876
4.739013
4.4850689
4.1640112
3.9070614
3.5888012
3.3292599
3.0133874
2.7516609
2.4377726
2.1742618
1.8619589
1.5970612
1.2859474
1.020058
0.70973891
0.44325126
0.13333147
14.354308
13.8831
13.77722
13.321415
13.194035
12.754571
12.60969
12.185899
12.025984
11.616135
11.443081
11.045547
10.860906
10.474272
10.279363
9.9024132
9.6983606
9.330053
9.1178261
8.7572591
8.5376976
8.1840864
7.9579255
7.6105792
7.3784701
7.0367726
6.7993001
6.462694
6.2203914
5.8883645
5.6417253
5.3138001
5.063288
4.7390127
4.4850692
4.1640109
3.9070617
3.588801
3.3292602
3.0133871
2.7516611
2.4377724
2.174262
1.8619587
1.5970614
1.2859472
1.0200582
0.70973869
0.44325149
0.13333136
14.352256
13.882873
13.77722
13.321413
13.194035
12.75457
12.609692
12.185898
12.025985
11.616135
11.443082
11.045546
10.860907
10.474271
10.279363
9.9024125
9.6983613
9.3300524
9.1178267
8.7572586
8.5376981
8.1840859
7.957926
7.6105788
7.3784705
7.0367722
6.7993005
6.4626936
6.2203917
5.8883641
5.6417256
5.3137998
5.0632882
4.7390124
4.4850695
4.1640106
3.9070619
3.5888007
3.3292604
3.0133869
2.7516613
2.4377722
2.1742622
1.8619584
1.5970616
1.285947
1.0200584
0.70973848
0.4432517
0.13333126
14.350302
13.882657
13.777219
13.321413
13.194036
12.754569
12.609693
12.185897
12.025986
11.616134
11.443082
11.045545
10.860908
10.47427
10.279364
9.9024119
9.6983619
9.3300518
9.1178272
8.757258
8.5376986
8.1840855
7.9579264
7.6105784
7.3784709
7.0367718
6.7993009
6.4626933
6.220392
5.8883638
5.6417259
5.3137995
5.0632885
4.7390121
4.4850697
4.1640104
3.9070622
3.5888005
3.3292606
3.0133867
2.7516615
2.437772
2.1742624
1.8619583
1.5970618
1.2859468
1.0200586
0.70973829
0.4432519
0.13333115
14.348446
13.882451
13.777219
13.321413
13.194036
12.754568
12.609694
12.185896
12.025987
11.616133
11.443083
11.045544
10.860909
10.47427
10.279364
9.9024113
9.6983624
9.3300513
9.1178277
8.7572576
8.5376991
8.184085
7.9579268
7.610578
7.3784713
7.0367715
6.7993012
6.4626929
6.2203923
5.8883635
5.6417262
5.3137992
5.0632888
4.7390119
4.48507
4.1640102
3.9070624
3.5888003
3.3292608
3.0133865
2.7516617
2.4377718
2.1742626
1.8619581
1.597062
1.2859466
1.0200588
0.70973812
0.44325209
0.13333105
14.346687
13.882254
13.777221
13.321413
13.194035
12.754568
12.609695
12.185896
12.025988
11.616132
11.443084
11.045544
10.860909
10.474269
10.279365
9.9024107
9.6983629
9.3300509
9.1178282
8.7572572
8.5376995
8.1840847
7.9579272
7.6105776
7.3784716
7.0367711
6.7993015
6.4626927
6.2203926
5.8883633
5.6417264
5.313799
5.063289
4.7390117
4.4850702
4.16401
3.9070626
3.5888001
3.329261
3.0133863
2.7516619
2.4377716
2.1742628
1.8619579
1.5970621
1.2859465
1.0200589
0.70973795
0.44325227
0.13333094
14.345022
13.882083
13.777218
13.32141
13.194034
12.754567
12.609696
12.185895
12.025989
11.616131
11.443085
11.045543
10.86091
10.474269
10.279366
9.9024103
9.6983634
9.3300504
9.1178286
8.7572568
8.5376998
8.1840843
7.9579275
7.6105773
7.3784719
7.0367709
6.7993018
6.4626924
6.2203929
5.888363
5.6417266
5.3137988
5.0632892
4.7390115
4.4850704
4.1640098
3.9070628
3.5887999
3.3292612
3.0133862
2.751662
2.4377715
2.1742629
1.8619578
1.5970623
1.2859463
1.0200591
0.7097378
0.44325245
0.13333084
14.343447
13.881983
13.777171
13.321399
13.194031
12.754566
12.609696
12.185894
12.02599
11.616131
11.443085
11.045543
10.86091
10.474268
10.279366
9.9024098
9.6983638
9.33005
9.117829
8.7572564
8.5377002
8.184084
7.9579278
7.610577
7.3784722
7.0367706
6.7993021
6.4626921
6.2203931
5.8883628
5.6417269
5.3137986
5.0632894
4.7390113
4.4850706
4.1640096
3.9070629
3.5887997
3.3292613
3.013386
2.7516622
2.4377713
2.1742631
1.8619576
1.5970624
1.2859462
1.0200592
0.70973766
0.44325261
0.13333075
14.34196
13.881954
13.777071
13.321379
13.194026
12.754564
12.609697
12.185894
12.02599
11.61613
11.443086
11.045542
10.860911
10.474268
10.279366
9.9024094
9.6983642
9.3300496
9.1178293
8.757256
8.5377005
8.1840837
7.9579281
7.6105767
7.3784725
7.0367703
6.7993023
6.4626919
6.2203933
5.8883626
5.6417271
5.3137984
5.0632896
4.7390111
4.4850707
4.1640094
3.9070631
3.5887996
3.3292615
3.0133859
2.7516623
2.4377712
2.1742632
1.8619575
1.5970626
1.2859461
1.0200594
0.70973753
0.44325276
0.13333065
14.340564
13.881885
13.776994
13.321365
13.194022
12.754563
12.609698
12.185893
12.025991
11.61613
11.443086
11.045542
10.860911
10.474267
10.279367
9.902409
9.6983646
9.3300493
9.1178297
8.7572557
8.5377008
8.1840834
7.9579284
7.6105765
7.3784727
7.0367701
6.7993025
6.4626917
6.2203935
5.8883624
5.6417272
5.3137982
5.0632898
4.7390109
4.4850709
4.1640093
3.9070632
3.5887994
3.3292616
3.0133857
2.7516625
2.437771
2.1742633
1.8619574
1.5970627
1.2859459
1.0200595
0.7097374
0.4432529
0.13333056
14.339262
13.881709
13.776999
13.321367
13.194022
12.754563
12.609698
12.185893
12.025991
11.616129
11.443087
11.045541
10.860912
10.474267
10.279367
9.9024086
9.6983649
9.330049
9.11783
8.7572554
8.5377011
8.1840831
7.9579286
7.6105762
7.3784729
7.0367699
6.7993027
6.4626915
6.2203937
5.8883622
5.6417274
5.313798
5.0632899
4.7390108
4.485071
4.1640091
3.9070634
3.5887993
3.3292618
3.0133856
2.7516626
2.4377709
2.1742635
1.8619572
1.5970628
1.2859458
1.0200596
0.70973729
0.44325304
0.13333048
14.338053
13.881501
13.77704
13.321373
13.194023
12.754563
12.609699
12.185892
12.025992
11.616129
11.443087
11.045541
10.860912
10.474266
10.279368
9.9024083
9.6983652
9.3300487
9.1178302
8.7572552
8.5377013
8.1840829
7.9579289
7.610576
7.3784732
7.0367697
6.7993029
6.4626913
6.2203939
5.8883621
5.6417276
5.3137979
5.0632901
4.7390106
4.4850712
4.164009
3.9070635
3.5887992
3.3292619
3.0133855
2.7516627
2.4377708
2.1742636
1.8619571
1.5970629
1.2859457
1.0200597
0.70973718
0.44325316
0.13333039
14.336934
13.881329
13.777065
13.321373
13.194024
12.754563
12.6097
12.185892
12.025993
11.616128
11.443088
11.04554
10.860912
10.474266
10.279368
9.902408
9.6983655
9.3300484
9.1178305
8.7572549
8.5377016
8.1840827
7.9579291
7.6105758
7.3784734
7.0367695
6.7993031
6.4626911
6.2203941
5.8883619
5.6417277
5.3137977
5.0632902
4.7390105
4.4850713
4.1640089
3.9070636
3.5887991
3.329262
3.0133854
2.7516628
2.4377707
2.1742637
1.861957
1.597063
1.2859456
1.0200598
0.70973708
0.44325328
0.13333032
14.335897
13.881196
13.777073
13.321367
13.194025
12.754564
12.609701
12.185892
12.025993
11.616128
11.443088
11.04554
10.860913
10.474266
10.279368
9.9024077
9.6983658
9.3300481
9.1178307
8.7572547
8.5377018
8.1840825
7.9579293
7.6105756
7.3784735
7.0367693
6.7993033
6.462691
6.2203942
5.8883618
5.6417279
5.3137976
5.0632903
4.7390104
4.4850714
4.1640088
3.9070637
3.588799
3.3292621
3.0133853
2.7516629
2.4377706
2.1742638
1.8619569
1.5970631
1.2859455
1.0200599
0.70973699
0.44325339
0.13333024
14.334938
13.881086
13.777072
13.32136
13.194025
12.754564
12.609702
12.185891
12.025993
11.616128
11.443088
11.04554
10.860913
10.474266
10.279369
9.9024075
9.698366
9.3300479
9.117831
8.7572545
8.537702
8.1840823
7.9579295
7.6105755
7.3784737
7.0367692
6.7993034
6.4626909
6.2203943
5.8883616
5.641728
5.3137975
5.0632905
4.7390103
4.4850715
4.1640087
3.9070638
3.5887989
3.3292622
3.0133852
2.751663
2.4377705
2.1742639
1.8619569
1.5970632
1.2859454
1.02006
0.70973691
0.4432535
0.13333017
14.334054
13.88099
13.777066
13.321354
13.194026
12.754564
12.609702
12.185891
12.025994
11.616127
11.443089
11.045539
10.860913
10.474265
10.279369
9.9024072
9.6983663
9.3300477
9.1178312
8.7572543
8.5377022
8.1840821
7.9579296
7.6105753
7.3784738
7.036769
6.7993035
6.4626907
6.2203945
5.8883615
5.6417281
5.3137974
5.0632906
4.7390102
4.4850716
4.1640086
3.9070639
3.5887988
3.3292623
3.0133851
2.7516631
2.4377704
2.1742639
1.8619568
1.5970633
1.2859454
1.02006
0.70973683
0.44325359
0.1333301
14.333242
13.880904
13.777054
13.321351
13.194027
12.754564
12.609703
12.185891
12.025994
11.616127
11.443089
11.045539
10.860914
10.474265
10.279369
9.902407
9.6983665
9.3300475
9.1178313
8.7572541
8.5377023
8.1840819
7.9579298
7.6105751
7.378474
7.0367689
6.7993037
6.4626906
6.2203946
5.8883614
5.6417282
5.3137973
5.0632907
4.7390101
4.4850717
4.1640085
3.907064
3.5887987
3.3292624
3.013385
2.7516632
2.4377704
2.174264
1.8619567
1.5970633
1.2859453
1.0200601
0.70973676
0.44325368
0.13333004
14.332502
13.880827
13.777038
13.321352
13.194028
12.754564
12.609704
12.185891
12.025995
11.616127
11.443089
11.045539
10.860914
10.474265
10.279369
9.9024068
9.6983667
9.3300473
9.1178315
8.757254
8.5377025
8.1840818
7.9579299
7.610575
7.3784741
7.0367688
6.7993038
6.4626905
6.2203947
5.8883613
5.6417283
5.3137972
5.0632908
4.73901
4.4850718
4.1640084
3.9070641
3.5887986
3.3292624
3.0133849
2.7516632
2.4377703
2.1742641
1.8619566
1.5970634
1.2859452
1.0200602
0.70973669
0.44325376
0.13332998
14.331831
13.880758
13.777019
13.321356
13.194029
12.754565
12.609704
12.185891
12.025995
11.616127
11.44309
11.045539
10.860914
10.474265
10.279369
9.9024066
9.6983668
9.3300471
9.1178317
8.7572538
8.5377026
8.1840816
7.9579301
7.6105749
7.3784742
7.0367687
6.7993039
6.4626904
6.2203948
5.8883612
5.6417284
5.3137971
5.0632908
4.7390099
4.4850719
4.1640083
3.9070642
3.5887985
3.3292625
3.0133849
2.7516633
2.4377702
2.1742641
1.8619566
1.5970635
1.2859452
1.0200602
0.70973663
0.44325383
0.13332993
14.331226
13.880695
13.776997
13.321363
13.19403
12.754565
12.609705
12.18589
12.025995
11.616126
11.44309
11.045538
10.860914
10.474264
10.27937
9.9024065
9.698367
9.330047
9.1178318
8.7572537
8.5377028
8.1840815
7.9579302
7.6105748
7.3784743
7.0367686
6.799304
6.4626903
6.2203949
5.8883611
5.6417285
5.313797
5.0632909
4.7390098
4.485072
4.1640083
3.9070642
3.5887985
3.3292626
3.0133848
2.7516634
2.4377702
2.1742642
1.8619565
1.5970635
1.2859451
1.0200603
0.70973658
0.44325389
0.13332988
14.330686
13.880636
13.776974
13.321371
13.19403
12.754565
12.609705
12.18589
12.025996
11.616126
11.44309
11.045538
10.860914
10.474264
10.27937
9.9024063
9.6983671
9.3300469
9.1178319
8.7572536
8.5377029
8.1840814
7.9579303
7.6105747
7.3784744
7.0367685
6.7993041
6.4626902
6.220395
5.888361
5.6417286
5.3137969
5.063291
4.7390098
4.485072
4.1640082
3.9070643
3.5887984
3.3292626
3.0133847
2.7516634
2.4377701
2.1742643
1.8619565
1.5970636
1.2859451
1.0200603
0.70973653
0.44325395
0.13332984
14.33021
13.88058
13.77695
13.321382
13.19403
12.754565
12.609705
12.18589
12.025996
11.616126
11.44309
11.045538
10.860915
10.474264
10.27937
9.9024062
9.6983673
9.3300467
9.1178321
8.7572535
8.537703
8.1840813
7.9579304
7.6105746
7.3784745
7.0367684
6.7993042
6.4626901
6.220395
5.888361
5.6417286
5.3137969
5.063291
4.7390097
4.4850721
4.1640081
3.9070644
3.5887984
3.3292627
3.0133847
2.7516635
2.4377701
2.1742643
1.8619564
1.5970636
1.285945
1.0200604
0.70973649
0.443254
0.1333298
14.329796
13.880525
13.776924
13.321395
13.19403
12.754565
12.609706
12.18589
12.025996
11.616126
11.44309
11.045538
10.860915
10.474264
10.27937
9.9024061
9.6983674
9.3300466
9.1178322
8.7572534
8.5377031
8.1840812
7.9579304
7.6105745
7.3784746
7.0367683
6.7993042
6.4626901
6.2203951
5.8883609
5.6417287
5.3137968
5.0632911
4.7390096
4.4850721
4.1640081
3.9070644
3.5887983
3.3292627
3.0133847
2.7516635
2.43777
2.1742643
1.8619564
1.5970637
1.285945
1.0200604
0.70973646
0.44325404
0.13332977
14.329443
13.880469
13.776899
13.321408
13.194029
12.754565
12.609706
12.18589
12.025996
11.616126
11.443091
11.045538
10.860915
10.474264
10.27937
9.9024059
9.6983675
9.3300465
9.1178322
8.7572533
8.5377032
8.1840812
7.9579305
7.6105744
7.3784747
7.0367682
6.7993043
6.46269
6.2203952
5.8883608
5.6417287
5.3137967
5.0632912
4.7390096
4.4850722
4.164008
3.9070644
3.5887983
3.3292628
3.0133846
2.7516635
2.43777
2.1742644
1.8619563
1.5970637
1.2859449
1.0200605
0.70973643
0.44325407
0.13332974
14.329152
13.88041
13.776874
13.321418
13.194029
12.754565
12.609706
12.185889
12.025996
11.616126
11.443091
11.045538
10.860915
10.474264
10.27937
9.9024059
9.6983676
9.3300465
9.1178323
8.7572532
8.5377032
8.1840811
7.9579306
7.6105744
7.3784747
7.0367682
6.7993043
6.46269
6.2203952
5.8883608
5.6417288
5.3137967
5.0632912
4.7390096
4.4850722
4.164008
3.9070645
3.5887982
3.3292628
3.0133846
2.7516636
2.43777
2.1742644
1.8619563
1.5970637
1.2859449
1.0200605
0.70973641
0.44325409
0.13332972
14.328921
13.880345
13.776852
13.32142
13.194033
12.754566
12.609706
12.185889
12.025996
11.616126
11.443091
11.045538
10.860915
10.474264
10.27937
9.9024058
9.6983676
9.3300464
9.1178324
8.7572531
8.5377033
8.184081
7.9579306
7.6105743
7.3784748
7.0367681
6.7993044
6.4626899
6.2203952
5.8883608
5.6417288
5.3137967
5.0632912
4.7390095
4.4850722
4.164008
3.9070645
3.5887982
3.3292628
3.0133846
2.7516636
2.4377699
2.1742644
1.8619563
1.5970637
1.2859449
1.0200605
0.7097364
0.4432541
0.13332971
14.328753
13.880273
13.776833
13.321411
13.19404
12.754569
12.609707
12.18589
12.025997
11.616125
11.443091
11.045537
10.860915
10.474264
10.27937
9.9024057
9.6983677
9.3300463
9.1178324
8.7572531
8.5377033
8.184081
7.9579307
7.6105743
7.3784748
7.0367681
6.7993044
6.4626899
6.2203953
5.8883607
5.6417289
5.3137966
5.0632913
4.7390095
4.4850723
4.164008
3.9070645
3.5887982
3.3292628
3.0133845
2.7516636
2.4377699
2.1742645
1.8619563
1.5970638
1.2859449
1.0200605
0.70973639
0.44325411
0.13332969
14.328647
13.880196
13.776817
13.321398
13.194048
12.754572
12.609708
12.18589
12.025997
11.616125
11.443091
11.045537
10.860915
10.474264
10.27937
9.9024057
9.6983677
9.3300463
9.1178325
8.757253
8.5377034
8.184081
7.9579307
7.6105743
7.3784748
7.0367681
6.7993044
6.4626899
6.2203953
5.8883607
5.6417289
5.3137966
5.0632913
4.7390095
4.4850723
4.1640079
3.9070645
3.5887982
3.3292629
3.0133845
2.7516636
2.4377699
2.1742645
1.8619563
1.5970638
1.2859449
1.0200605
0.70973639
0.4432541
0.13332969
14.328597
13.880119
13.776801
13.321387
13.194054
12.754575
12.609709
12.18589
12.025997
11.616125
11.443091
11.045537
10.860915
10.474263
10.27937
9.9024056
9.6983678
9.3300463
9.1178325
8.757253
8.5377034
8.1840809
7.9579307
7.6105742
7.3784748
7.0367681
6.7993045
6.4626898
6.2203953
5.8883607
5.6417289
5.3137966
5.0632913
4.7390095
4.4850723
4.1640079
3.9070646
3.5887982
3.3292629
3.0133845
2.7516636
2.4377699
2.1742645
1.8619563
1.5970638
1.2859449
1.0200605
0.70973639
0.4432541
0.13332968
14.328587
13.880054
13.776787
13.321381
13.194057
12.754577
12.60971
12.18589
12.025997
11.616125
11.443091
11.045537
10.860915
10.474263
10.27937
9.9024056
9.6983678
9.3300463
9.1178325
8.757253
8.5377034
8.1840809
7.9579307
7.6105742
7.3784748
7.0367681
6.7993045
6.4626898
6.2203953
5.8883607
5.6417289
5.3137966
5.0632913
4.7390095
4.4850723
4.1640079
3.9070646
3.5887982
3.3292629
3.0133845
2.7516636
2.4377699
2.1742645
1.8619563
1.5970638
1.2859449
1.0200605
0.7097364
0.44325409
0.13332968
14.328593
13.880017
13.776778
13.321379
13.194058
12.754578
12.60971
12.18589
12.025997
11.616125
11.443091
11.045537
10.860915
10.474263
10.27937
9.9024056
9.6983678
9.3300463
9.1178325
8.757253
8.5377034
8.1840809
7.9579307
7.6105742
7.3784748
7.0367681
6.7993045
6.4626898
6.2203953
5.8883607
5.6417289
5.3137966
5.0632913
4.7390095
4.4850723
4.1640079
3.9070646
3.5887982
3.3292629
3.0133845
2.7516636
2.4377699
2.1742645
1.8619563
1.5970638
1.2859449
1.0200605
0.7097364
0.44325409
0.13332968
14.328593
13.880017
13.776778
13.321379
13.194058
12.754578
12.60971
12.18589
12.025997
11.616125
11.443091
11.045537
10.860915
10.474263
10.27937
9.9024056
9.6983678
9.3300463
9.1178325
8.757253
8.5377034
8.1840809
7.9579307
7.6105742
7.3784748
7.0367681
6.7993045
6.4626898
6.2203953
5.8883607
5.6417289
5.3137966
5.0632913
4.7390095
4.4850723
4.1640079
3.9070646
3.5887982
3.3292629
3.0133845
2.7516636
2.4377699
2.1742645
1.8619563
1.5970638
1.2859449
1.0200605
0.7097364
0.44325409
0.13332968
14.328587
13.880054
13.776787
13.321381
13.194057
12.754577
12.60971
12.18589
12.025997
11.616125
11.443091
11.045537
10.860915
10.474263
10.27937
9.9024056
9.6983678
9.3300463
9.1178325
8.757253
8.5377034
8.1840809
7.9579307
7.6105742
7.3784748
7.0367681
6.7993045
6.4626898
6.2203953
5.8883607
5.6417289
5.3137966
5.0632913
4.7390095
4.4850723
4.1640079
3.9070646
3.5887982
3.3292629
3.0133845
2.7516636
2.4377699
2.1742645
1.8619563
1.5970638
1.2859449
1.0200605
0.7097364
0.44325409
0.13332968
14.328597
13.880119
13.776801
13.321387
13.194054
12.754575
12.609709
12.18589
12.025997
11.616125
11.443091
11.045537
10.860915
10.474263
10.27937
9.9024056
9.6983678
9.3300463
9.1178325
8.757253
8.5377034
8.1840809
7.9579307
7.6105742
7.3784748
7.0367681
6.7993045
6.4626898
6.2203953
5.8883607
5.6417289
5.3137966
5.0632913
4.7390095
4.4850723
4.1640079
3.9070646
3.5887982
3.3292629
3.0133845
2.7516636
2.4377699
2.1742645
1.8619563
1.5970638
1.2859449
1.0200605
0.70973639
0.4432541
0.13332968
14.328647
13.880196
13.776817
13.321398
13.194048
12.754572
12.609708
12.18589
12.025997
11.616125
11.443091
11.045537
10.860915
10.474264
10.27937
9.9024057
9.6983677
9.3300463
9.1178325
8.757253
8.5377034
8.184081
7.9579307
7.6105743
7.3784748
7.0367681
6.7993044
6.4626899
6.2203953
5.8883607
5.6417289
5.3137966
5.0632913
4.7390095
4.4850723
4.1640079
3.9070645
3.5887982
3.3292629
3.0133845
2.7516636
2.4377699
2.1742645
1.8619563
1.5970638
1.2859449
1.0200605
0.70973639
0.4432541
0.13332969
14.328753
13.880273
13.776833
13.321411
13.19404
12.754569
12.609707
12.18589
12.025997
11.616125
11.443091
11.045537
10.860915
10.474264
10.27937
9.9024057
9.6983677
9.3300463
9.1178324
8.7572531
8.5377033
8.184081
7.9579307
7.6105743
7.3784748
7.0367681
6.7993044
6.4626899
6.2203953
5.8883607
5.6417289
5.3137966
5.0632913
4.7390095
4.4850723
4.164008
3.9070645
3.5887982
3.3292628
3.0133845
2.7516636
2.4377699
2.1742645
1.8619563
1.5970638
1.2859449
1.0200605
0.70973639
0.44325411
0.13332969
14.328921
13.880345
13.776852
13.32142
13.194033
12.754566
12.609706
12.185889
12.025996
11.616126
11.443091
11.045538
10.860915
10.474264
10.27937
9.9024058
9.6983676
9.3300464
9.1178324
8.7572531
8.5377033
8.184081
7.9579306
7.6105743
7.3784748
7.0367681
6.7993044
6.4626899
6.2203952
5.8883608
5.6417288
5.3137967
5.0632912
4.7390095
4.4850722
4.164008
3.9070645
3.5887982
3.3292628
3.0133846
2.7516636
2.4377699
2.1742644
1.8619563
1.5970637
1.2859449
1.0200605
0.7097364
0.4432541
0.13332971
14.329152
13.88041
13.776874
13.321418
13.194029
12.754565
12.609706
12.185889
12.025996
11.616126
11.443091
11.045538
10.860915
10.474264
10.27937
9.9024059
9.6983676
9.3300465
9.1178323
8.7572532
8.5377032
8.1840811
7.9579306
7.6105744
7.3784747
7.0367682
6.7993043
6.46269
6.2203952
5.8883608
5.6417288
5.3137967
5.0632912
4.7390096
4.4850722
4.164008
3.9070645
3.5887982
3.3292628
3.0133846
2.7516636
2.43777
2.1742644
1.8619563
1.5970637
1.2859449
1.0200605
0.70973641
0.44325409
0.13332972
14.329443
13.880469
13.776899
13.321408
13.194029
12.754565
12.609706
12.18589
12.025996
11.616126
11.443091
11.045538
10.860915
10.474264
10.27937
9.9024059
9.6983675
9.3300465
9.1178322
8.7572533
8.5377032
8.1840812
7.9579305
7.6105744
7.3784747
7.0367682
6.7993043
6.46269
6.2203952
5.8883608
5.6417287
5.3137967
5.0632912
4.7390096
4.4850722
4.164008
3.9070644
3.5887983
3.3292628
3.0133846
2.7516635
2.43777
2.1742644
1.8619563
1.5970637
1.2859449
1.0200605
0.70973643
0.44325407
0.13332974
14.329796
13.880525
13.776924
13.321395
13.19403
12.754565
12.609706
12.18589
12.025996
11.616126
11.44309
11.045538
10.860915
10.474264
10.27937
9.9024061
9.6983674
9.3300466
9.1178322
8.7572534
8.5377031
8.1840812
7.9579304
7.6105745
7.3784746
7.0367683
6.7993042
6.4626901
6.2203951
5.8883609
5.6417287
5.3137968
5.0632911
4.7390096
4.4850721
4.1640081
3.9070644
3.5887983
3.3292627
3.0133847
2.7516635
2.43777
2.1742643
1.8619564
1.5970637
1.285945
1.0200604
0.70973646
0.44325404
0.13332977
14.33021
13.88058
13.77695
13.321382
13.19403
12.754565
12.609705
12.18589
12.025996
11.616126
11.44309
11.045538
10.860915
10.474264
10.27937
9.9024062
9.6983673
9.3300467
9.1178321
8.7572535
8.537703
8.1840813
7.9579304
7.6105746
7.3784745
7.0367684
6.7993042
6.4626901
6.220395
5.888361
5.6417286
5.3137969
5.063291
4.7390097
4.4850721
4.1640081
3.9070644
3.5887984
3.3292627
3.0133847
2.7516635
2.4377701
2.1742643
1.8619564
1.5970636
1.285945
1.0200604
0.70973649
0.443254
0.1333298
14.330686
13.880636
13.776974
13.321371
13.19403
12.754565
12.609705
12.18589
12.025996
11.616126
11.44309
11.045538
10.860914
10.474264
10.27937
9.9024063
9.6983671
9.3300469
9.1178319
8.7572536
8.5377029
8.1840814
7.9579303
7.6105747
7.3784744
7.0367685
6.7993041
6.4626902
6.220395
5.888361
5.6417286
5.3137969
5.063291
4.7390098
4.485072
4.1640082
3.9070643
3.5887984
3.3292626
3.0133847
2.7516634
2.4377701
2.1742643
1.8619565
1.5970636
1.2859451
1.0200603
0.70973653
0.44325395
0.13332984
14.331226
13.880695
13.776997
13.321363
13.19403
12.754565
12.609705
12.18589
12.025995
11.616126
11.44309
11.045538
10.860914
10.474264
10.27937
9.9024065
9.698367
9.330047
9.1178318
8.7572537
8.5377028
8.1840815
7.9579302
7.6105748
7.3784743
7.0367686
6.799304
6.4626903
6.2203949
5.8883611
5.6417285
5.313797
5.0632909
4.7390098
4.485072
4.1640083
3.9070642
3.5887985
3.3292626
3.0133848
2.7516634
2.4377702
2.1742642
1.8619565
1.5970635
1.2859451
1.0200603
0.70973658
0.44325389
0.13332988
14.331831
13.880758
13.777019
13.321356
13.194029
12.754565
12.609704
12.185891
12.025995
11.616127
11.44309
11.045539
10.860914
10.474265
10.279369
9.9024066
9.6983668
9.3300471
9.1178317
8.7572538
8.5377026
8.1840816
7.9579301
7.6105749
7.3784742
7.0367687
6.7993039
6.4626904
6.2203948
5.8883612
5.6417284
5.3137971
5.0632908
4.7390099
4.4850719
4.1640083
3.9070642
3.5887985
3.3292625
3.0133849
2.7516633
2.4377702
2.1742641
1.8619566
1.5970635
1.2859452
1.0200602
0.70973663
0.44325383
0.13332993
14.332502
13.880827
13.777038
13.321352
13.194028
12.754564
12.609704
12.185891
12.025995
11.616127
11.443089
11.045539
10.860914
10.474265
10.279369
9.9024068
9.6983667
9.3300473
9.1178315
8.757254
8.5377025
8.1840818
7.9579299
7.610575
7.3784741
7.0367688
6.7993038
6.4626905
6.2203947
5.8883613
5.6417283
5.3137972
5.0632908
4.73901
4.4850718
4.1640084
3.9070641
3.5887986
3.3292624
3.0133849
2.7516632
2.4377703
2.1742641
1.8619566
1.5970634
1.2859452
1.0200602
0.70973669
0.44325376
0.13332998
14.333242
13.880904
13.777054
13.321351
13.194027
12.754564
12.609703
12.185891
12.025994
11.616127
11.443089
11.045539
10.860914
10.474265
10.279369
9.902407
9.6983665
9.3300475
9.1178313
8.7572541
8.5377023
8.1840819
7.9579298
7.6105751
7.378474
7.0367689
6.7993037
6.4626906
6.2203946
5.8883614
5.6417282
5.3137973
5.0632907
4.7390101
4.4850717
4.1640085
3.907064
3.5887987
3.3292624
3.013385
2.7516632
2.4377704
2.174264
1.8619567
1.5970633
1.2859453
1.0200601
0.70973676
0.44325368
0.13333004
14.334054
13.88099
13.777066
13.321354
13.194026
12.754564
12.609702
12.185891
12.025994
11.616127
11.443089
11.045539
10.860913
10.474265
10.279369
9.9024072
9.6983663
9.3300477
9.1178312
8.7572543
8.5377022
8.1840821
7.9579296
7.6105753
7.3784738
7.036769
6.7993035
6.4626907
6.2203945
5.8883615
5.6417281
5.3137974
5.0632906
4.7390102
4.4850716
4.1640086
3.9070639
3.5887988
3.3292623
3.0133851
2.7516631
2.4377704
2.1742639
1.8619568
1.5970633
1.2859454
1.02006
0.70973683
0.44325359
0.1333301
14.334938
13.881086
13.777072
13.32136
13.194025
12.754564
12.609702
12.185891
12.025993
11.616128
11.443088
11.04554
10.860913
10.474266
10.279369
9.9024075
9.698366
9.3300479
9.117831
8.7572545
8.537702
8.1840823
7.9579295
7.6105755
7.3784737
7.0367692
6.7993034
6.4626909
6.2203943
5.8883616
5.641728
5.3137975
5.0632905
4.7390103
4.4850715
4.1640087
3.9070638
3.5887989
3.3292622
3.0133852
2.751663
2.4377705
2.1742639
1.8619569
1.5970632
1.2859454
1.02006
0.70973691
0.4432535
0.13333017
14.335897
13.881196
13.777073
13.321367
13.194025
12.754564
12.609701
12.185892
12.025993
11.616128
11.443088
11.04554
10.860913
10.474266
10.279368
9.9024077
9.6983658
9.3300481
9.1178307
8.7572547
8.5377018
8.1840825
7.9579293
7.6105756
7.3784735
7.0367693
6.7993033
6.462691
6.2203942
5.8883618
5.6417279
5.3137976
5.0632903
4.7390104
4.4850714
4.1640088
3.9070637
3.588799
3.3292621
3.0133853
2.7516629
2.4377706
2.1742638
1.8619569
1.5970631
1.2859455
1.0200599
0.70973699
0.44325339
0.13333024
14.336934
13.881329
13.777065
13.321373
13.194024
12.754563
12.6097
12.185892
12.025993
11.616128
11.443088
11.04554
10.860912
10.474266
10.279368
9.902408
9.6983655
9.3300484
9.1178305
8.7572549
8.5377016
8.1840827
7.9579291
7.6105758
7.3784734
7.0367695
6.7993031
6.4626911
6.2203941