/*--------------------------------*- C++ -*----------------------------------*\
| =========                 |                                                 |
| \\      /  F ield         | OpenFOAM: The Open Source CFD Toolbox           |
|  \\    /   O peration     | Version:  2312                                  |
|   \\  /    A nd           | Website:  www.openfoam.com                      |
|    \\/     M anipulation  |                                                 |
\*---------------------------------------------------------------------------*/
FoamFile
{
    version     2.0;
    format      ascii;
    arch        "LSB;label=32;scalar=64";
    class       surfaceScalarField;
    location    "1";
    object      phi;
}
// * * * * * * * * * * * * * * * * * * * * * * * * * * * * * * * * * * * * * //

dimensions      [0 3 -1 0 0 0 0];

oriented        oriented;

internalField   nonuniform List<scalar> 
7870
(
5.3029917e-11
1.2932201e-09
5.1916037e-11
1.1138786e-12
5.1961173e-11
-4.5136383e-14
5.119586e-11
7.6531226e-13
5.206977e-11
-8.7391042e-13
5.1264044e-11
8.0572548e-13
5.2044854e-11
-7.8080935e-13
5.1310592e-11
7.3426193e-13
5.2008816e-11
-6.982246e-13
5.1347965e-11
6.6085138e-13
5.1975054e-11
-6.2708868e-13
5.1380302e-11
5.9475299e-13
5.194485e-11
-5.6454717e-13
5.1408881e-11
5.3596867e-13
5.1917925e-11
-5.0904321e-13
5.1434341e-11
4.8358494e-13
5.1893857e-11
-4.5951489e-13
5.1457131e-11
4.3672534e-13
5.1872262e-11
-4.1512891e-13
5.147761e-11
3.9465151e-13
5.1852824e-11
-3.7521319e-13
5.1496063e-11
3.5676084e-13
5.183529e-11
-3.3922553e-13
5.1512719e-11
3.2257033e-13
5.1819457e-11
-3.067368e-13
5.1527756e-11
2.9169924e-13
5.1805166e-11
-2.7740936e-13
5.1541316e-11
2.638496e-13
5.1792298e-11
-2.509818e-13
5.1553502e-11
2.3879484e-13
5.178076e-11
-2.2725783e-13
5.1564394e-11
2.1636458e-13
5.1770484e-11
-2.0608985e-13
5.1574052e-11
1.9643123e-13
5.1761421e-11
-1.8736919e-13
5.1582516e-11
1.7890445e-13
5.1753536e-11
-1.7101976e-13
5.1589817e-11
1.6371889e-13
5.1746804e-11
-1.5698722e-13
5.1595975e-11
1.5082949e-13
5.1741209e-11
-1.4523415e-13
5.1601002e-11
1.4020637e-13
5.1736739e-11
-1.3573631e-13
5.160491e-11
1.3182878e-13
5.1733386e-11
-1.2847595e-13
5.1607702e-11
1.2568429e-13
5.1731154e-11
-1.2345248e-13
5.1609541e-11
1.2161329e-13
5.1731469e-11
-1.219282e-13
1.1672327e-13
1.4949064e-10
2.4899794e-09
1.5081883e-10
-2.1431135e-13
1.502512e-10
5.2249256e-13
1.4926301e-10
1.7534979e-12
1.5053372e-10
-2.1446217e-12
1.4940068e-10
1.9387679e-12
1.5052536e-10
-1.905491e-12
1.494749e-10
1.7847217e-12
1.5047779e-10
-1.7011154e-12
1.4952967e-10
1.6089775e-12
1.5043024e-10
-1.5276556e-12
1.4957614e-10
1.4488521e-12
1.5038722e-10
-1.375624e-12
1.4961709e-10
1.3061001e-12
1.5034875e-10
-1.2407032e-12
1.4965358e-10
1.178754e-12
1.503143e-10
-1.1202306e-12
1.4968629e-10
1.0647366e-12
1.5028334e-10
-1.0121798e-12
1.4971572e-10
9.6227701e-13
1.5025544e-10
-9.1493103e-13
1.4974227e-10
8.6992712e-13
1.5023023e-10
-8.2717993e-13
1.4976627e-10
7.865282e-13
1.5020743e-10
-7.4790026e-13
1.4978796e-10
7.1117094e-13
1.5018683e-10
-6.7628488e-13
1.4980754e-10
6.4314344e-13
1.5016827e-10
-6.1170915e-13
1.4982515e-10
5.8190687e-13
1.501516e-10
-5.5370915e-13
1.4984091e-10
5.2705951e-13
1.5013675e-10
-5.0193548e-13
1.4985488e-10
4.7829582e-13
1.5012364e-10
-4.5612932e-13
1.4986714e-10
4.3540657e-13
1.5011224e-10
-4.1611379e-13
1.4987772e-10
3.9823643e-13
1.5010249e-10
-3.8176149e-13
1.4988664e-10
3.6667925e-13
1.5009439e-10
-3.5298284e-13
1.4989393e-10
3.4066722e-13
1.5008792e-10
-3.297234e-13
1.498996e-10
3.2014932e-13
1.5008306e-10
-3.1193713e-13
1.4990365e-10
3.050966e-13
1.5007981e-10
-2.9961618e-13
1.4990636e-10
2.95066e-13
1.5008148e-10
-2.9704779e-13
2.8189194e-13
2.4288452e-10
3.5933449e-09
2.4725623e-10
-4.5860304e-12
2.4581314e-10
1.9655859e-12
2.450453e-10
2.5213332e-12
2.4625855e-10
-3.3578703e-12
2.4522633e-10
2.9709842e-12
2.4628744e-10
-2.9665973e-12
2.4530557e-10
2.766589e-12
2.4624822e-10
-2.6437624e-12
2.4535843e-10
2.4987676e-12
2.4620476e-10
-2.373979e-12
2.4540213e-10
2.2514823e-12
2.4616481e-10
-2.1383039e-12
2.4544048e-10
2.0304356e-12
2.4612893e-10
-1.9291499e-12
2.4547468e-10
1.8330025e-12
2.4609671e-10
-1.7422549e-12
2.4550538e-10
1.6560575e-12
2.4606768e-10
-1.5744761e-12
2.4553307e-10
1.496895e-12
2.4604147e-10
-1.4233285e-12
2.4555809e-10
1.3532992e-12
2.4601773e-10
-1.2868146e-12
2.4558075e-10
1.2235042e-12
2.4599623e-10
-1.1633742e-12
2.4560127e-10
1.1061283e-12
2.4597676e-10
-1.0517787e-12
2.4561982e-10
1.0000863e-12
2.4595919e-10
-9.510808e-13
2.4563652e-10
9.0456959e-13
2.459434e-10
-8.6058409e-13
2.4565148e-10
8.1897162e-13
2.4592931e-10
-7.7976111e-13
2.4566477e-10
7.4283293e-13
2.4591687e-10
-7.0822379e-13
2.4567643e-10
6.7584207e-13
2.4590603e-10
-6.4571006e-13
2.4568649e-10
6.1776728e-13
2.4589676e-10
-5.9202916e-13
2.4569499e-10
5.6845055e-13
2.4588906e-10
-5.4704863e-13
2.4570193e-10
5.2779108e-13
2.4588289e-10
-5.1068653e-13
2.4570733e-10
4.9571118e-13
2.4587827e-10
-4.8287e-13
2.457112e-10
4.7216763e-13
2.4587515e-10
-4.6357327e-13
2.4571386e-10
4.5635401e-13
2.4587838e-10
-4.6156314e-13
4.3403263e-13
3.3401661e-10
4.6055783e-09
3.4107564e-10
-1.1645057e-11
3.3889189e-10
4.1493371e-12
3.3831158e-10
3.1016327e-12
3.3946525e-10
-4.5115401e-12
3.3853247e-10
3.9037667e-12
3.3952892e-10
-3.9630448e-12
3.3861579e-10
3.6797178e-12
3.394975e-10
-3.5254743e-12
3.3866655e-10
3.3297211e-12
3.3945803e-10
-3.1654573e-12
3.3870743e-10
3.0020867e-12
3.3942113e-10
-2.8520042e-12
3.3874316e-10
2.7084106e-12
3.3938782e-10
-2.5738112e-12
3.3877505e-10
2.4457747e-12
3.3935783e-10
-2.3250294e-12
3.3880374e-10
2.2101474e-12
3.3933074e-10
-2.1014808e-12
3.3882965e-10
1.9979881e-12
3.3930622e-10
-1.8998966e-12
3.3885313e-10
1.8063914e-12
3.3928397e-10
-1.7176537e-12
3.3887443e-10
1.633047e-12
3.3926377e-10
-1.5527196e-12
3.3889374e-10
1.4761568e-12
3.3924546e-10
-1.4034932e-12
3.3891123e-10
1.3343075e-12
3.3922889e-10
-1.2687407e-12
3.3892701e-10
1.2064527e-12
3.3921399e-10
-1.1475687e-12
3.3894115e-10
1.0918159e-12
3.3920068e-10
-1.0392975e-12
3.3895372e-10
9.897965e-13
3.3918892e-10
-9.4342335e-13
3.3896475e-10
9.0000513e-13
3.3917866e-10
-8.5961696e-13
3.3897428e-10
8.2214143e-13
3.3916989e-10
-7.8763478e-13
3.3898234e-10
7.5600273e-13
3.3916259e-10
-7.2730361e-13
3.3898892e-10
7.0146557e-13
3.3915676e-10
-6.7852373e-13
3.3899404e-10
6.5842354e-13
3.3915236e-10
-6.411892e-13
3.3899771e-10
6.2681833e-13
3.3914938e-10
-6.1524526e-13
3.390003e-10
6.0544205e-13
3.3915379e-10
-6.1505895e-13
5.7370877e-13
4.2268318e-10
5.5291451e-09
4.3222586e-10
-2.1187739e-11
4.2948317e-10
6.8920275e-12
4.2906474e-10
3.5200647e-12
4.3015367e-10
-5.6004718e-12
4.2931911e-10
4.7383242e-12
4.3024971e-10
-4.8936427e-12
4.2940547e-10
4.5239599e-12
4.3022554e-10
-4.3455432e-12
4.2945394e-10
4.1013226e-12
4.3018996e-10
-3.9014782e-12
4.2949196e-10
3.7000892e-12
4.3015609e-10
-3.5161302e-12
4.2952506e-10
3.3394429e-12
4.3012535e-10
-3.1741016e-12
4.2955463e-10
3.0164957e-12
4.3009759e-10
-2.8679856e-12
4.2958128e-10
2.7264512e-12
4.3007246e-10
-2.5926484e-12
4.2960542e-10
2.4650276e-12
4.3004964e-10
-2.3441193e-12
4.2962733e-10
2.2287051e-12
4.3002889e-10
-2.1192168e-12
4.2964724e-10
2.0146969e-12
4.3001002e-10
-1.9154976e-12
4.2966533e-10
1.8208415e-12
4.2999287e-10
-1.731032e-12
4.2968174e-10
1.6454333e-12
4.2997734e-10
-1.5643395e-12
4.2969656e-10
1.4872316e-12
4.2996336e-10
-1.4143617e-12
4.2970986e-10
1.3453101e-12
4.2995085e-10
-1.2802861e-12
4.2972169e-10
1.2189525e-12
4.2993978e-10
-1.1615148e-12
4.2973208e-10
1.1077029e-12
4.2993013e-10
-1.0576634e-12
4.2974106e-10
1.0112058e-12
4.2992187e-10
-9.6844257e-13
4.2974865e-10
9.2922157e-13
4.29915e-10
-8.9364866e-13
4.2975486e-10
8.6160564e-13
4.2990949e-10
-8.3316241e-13
4.2975969e-10
8.0822627e-13
4.2990535e-10
-7.8684714e-13
4.2976316e-10
7.6901023e-13
4.2990251e-10
-7.5459955e-13
4.2976563e-10
7.4232624e-13
4.299078e-10
-7.5722966e-13
7.0090266e-13
5.0885193e-10
6.3665432e-09
5.207085e-10
-3.3044312e-11
5.175864e-10
1.0014129e-11
5.1730732e-10
3.7991455e-12
5.1832374e-10
-6.6168918e-12
5.175862e-10
5.4758654e-12
5.1844993e-10
-5.757374e-12
5.1767452e-10
5.2993714e-12
5.1843242e-10
-5.1034462e-12
5.1772052e-10
4.813226e-12
5.1840063e-10
-4.5815884e-12
5.1775565e-10
4.3450671e-12
5.1836975e-10
-4.1302276e-12
5.1778611e-10
3.9230847e-12
5.1834158e-10
-3.7295627e-12
5.1781336e-10
3.5447134e-12
5.1831604e-10
-3.3706665e-12
5.1783797e-10
3.2045208e-12
5.1829286e-10
-3.0475348e-12
5.1786031e-10
2.8975815e-12
5.1827177e-10
-2.7555744e-12
5.1788064e-10
2.6198358e-12
5.1825253e-10
-2.491111e-12
5.1789915e-10
2.3680796e-12
5.18235e-10
-2.2513484e-12
5.17916e-10
2.1398415e-12
5.1821904e-10
-2.0340759e-12
5.1793131e-10
1.933167e-12
5.1820457e-10
-1.837598e-12
5.1794515e-10
1.7466481e-12
5.1819151e-10
-1.6607247e-12
5.1795757e-10
1.5792436e-12
5.1817982e-10
-1.5025351e-12
5.1796864e-10
1.4301281e-12
5.1816948e-10
-1.3623462e-12
5.1797837e-10
1.2988051e-12
5.1816044e-10
-1.2397355e-12
5.1798678e-10
1.1848673e-12
5.1815272e-10
-1.1343777e-12
5.1799389e-10
1.0880438e-12
5.1814628e-10
-1.0460367e-12
5.1799971e-10
1.0081801e-12
5.1814113e-10
-9.7458546e-13
5.1800424e-10
9.4511414e-13
5.1813724e-10
-9.1984658e-13
5.180075e-10
8.9875479e-13
5.1813456e-10
-8.8165767e-13
5.1800983e-10
8.6705432e-13
5.1814046e-10
-8.8785816e-13
8.1561367e-13
5.9257774e-10
7.1202155e-09
6.0653296e-10
-4.6999537e-11
6.0319986e-10
1.3347227e-11
6.030405e-10
3.9585078e-12
6.0397547e-10
-7.5518686e-12
6.0333364e-10
6.117701e-12
6.0412972e-10
-6.5534557e-12
6.0342284e-10
6.0062486e-12
6.0411827e-10
-5.7988748e-12
6.0346621e-10
5.4652897e-12
6.0409015e-10
-5.2055282e-12
6.0349844e-10
4.9367748e-12
6.0406223e-10
-4.6940122e-12
6.0352627e-10
4.4590477e-12
6.0403659e-10
-4.2398851e-12
6.0355119e-10
4.0301157e-12
6.0401328e-10
-3.8327525e-12
6.0357376e-10
3.6440399e-12
6.0399205e-10
-3.4658204e-12
6.0359429e-10
3.2953387e-12
6.0397267e-10
-3.1339529e-12
6.0361302e-10
2.9794842e-12
6.0395496e-10
-2.8330467e-12
6.0363012e-10
2.6929206e-12
6.0393878e-10
-2.5600115e-12
6.0364571e-10
2.4329157e-12
6.0392403e-10
-2.3123946e-12
6.036599e-10
2.1972964e-12
6.0391062e-10
-2.0883234e-12
6.0367274e-10
1.9845308e-12
6.0389852e-10
-1.8865046e-12
6.0368428e-10
1.7934768e-12
6.0388767e-10
-1.7059244e-12
6.0369457e-10
1.6232259e-12
6.0387806e-10
-1.5458361e-12
6.0370362e-10
1.4732471e-12
6.0386967e-10
-1.4057875e-12
6.0371144e-10
1.3430947e-12
6.0386248e-10
-1.2854222e-12
6.0371806e-10
1.232473e-12
6.038565e-10
-1.184483e-12
6.0372347e-10
1.1412157e-12
6.0385171e-10
-1.1028291e-12
6.0372769e-10
1.0691345e-12
6.0384809e-10
-1.040247e-12
6.0373072e-10
1.0161205e-12
6.0384556e-10
-9.964955e-13
6.037329e-10
9.7971978e-13
6.0385185e-10
-1.0068142e-12
9.1796567e-13
6.7392138e-10
7.7925441e-09
6.8971325e-10
-6.2791412e-11
6.8632078e-10
1.6739692e-11
6.862628e-10
4.0164886e-12
6.87109e-10
-8.3980725e-12
6.8656126e-10
6.6654486e-12
6.8728916e-10
-7.2813632e-12
6.8665031e-10
6.6451011e-12
6.8728315e-10
-6.4317137e-12
6.8669089e-10
6.0575507e-12
6.8725857e-10
-5.7732081e-12
6.8672022e-10
5.4751301e-12
6.8723356e-10
-5.207353e-12
6.8674542e-10
4.9471882e-12
6.8721044e-10
-4.7049001e-12
6.8676803e-10
4.4725252e-12
6.8718933e-10
-4.254048e-12
6.8678856e-10
4.044809e-12
6.8717004e-10
-3.8472997e-12
6.8680729e-10
3.6580947e-12
6.8715239e-10
-3.479052e-12
6.8682442e-10
3.3074568e-12
6.8713621e-10
-3.144834e-12
6.8684008e-10
2.9890411e-12
6.8712139e-10
-2.8413153e-12
6.868544e-10
2.6999039e-12
6.8710785e-10
-2.5658449e-12
6.8686745e-10
2.4376955e-12
6.8709553e-10
-2.3164008e-12
6.8687927e-10
2.20078e-12
6.8708439e-10
-2.0916166e-12
6.8688991e-10
1.9879498e-12
6.8707439e-10
-1.8904078e-12
6.8689941e-10
1.7982129e-12
6.8706554e-10
-1.7119685e-12
6.8690775e-10
1.6310309e-12
6.870578e-10
-1.5558333e-12
6.8691497e-10
1.4859196e-12
6.8705117e-10
-1.4216229e-12
6.8692108e-10
1.3625617e-12
6.8704565e-10
-1.3090538e-12
6.8692608e-10
1.260792e-12
6.8704123e-10
-1.2179848e-12
6.8692998e-10
1.1803881e-12
6.8703789e-10
-1.1481543e-12
6.8693279e-10
1.12122e-12
6.8703553e-10
-1.0992371e-12
6.8693479e-10
1.0804631e-12
6.8704202e-10
-1.1140423e-12
1.0081872e-12
7.5292948e-10
8.3858646e-09
7.7026607e-10
-8.0128005e-11
7.6694537e-10
2.0060386e-11
7.6696983e-10
3.9920284e-12
7.6772479e-10
-9.1530308e-12
7.6726889e-10
7.1213496e-12
7.6792839e-10
-7.9408657e-12
7.6735687e-10
7.2166204e-12
7.6792718e-10
-7.0020185e-12
7.6739452e-10
6.5902117e-12
7.67906e-10
-6.2846954e-12
7.6742094e-10
5.9601938e-12
7.6788385e-10
-5.6702574e-12
7.6744354e-10
5.3874938e-12
7.6786321e-10
-5.1245608e-12
7.6746385e-10
4.8718793e-12
7.6784428e-10
-4.6344729e-12
7.6748235e-10
4.4067404e-12
7.6782693e-10
-4.1918723e-12
7.6749927e-10
3.9857496e-12
7.6781099e-10
-3.7907648e-12
7.675148e-10
3.6036484e-12
7.6779634e-10
-3.4263711e-12
7.6752903e-10
3.2563476e-12
7.6778289e-10
-3.0951747e-12
7.6754205e-10
2.9407355e-12
7.6777057e-10
-2.7943603e-12
7.6755395e-10
2.6543099e-12
7.6775934e-10
-2.521791e-12
7.6756475e-10
2.3953736e-12
7.6774918e-10
-2.2760522e-12
7.6757447e-10
2.1626606e-12
7.6774006e-10
-2.0559992e-12
7.6758315e-10
1.9551224e-12
7.6773197e-10
-1.8607883e-12
7.6759079e-10
1.772214e-12
7.677249e-10
-1.689946e-12
7.6759739e-10
1.613425e-12
7.6771884e-10
-1.5430722e-12
7.6760298e-10
1.4784229e-12
7.677138e-10
-1.4198698e-12
7.6760755e-10
1.3670378e-12
7.6770975e-10
-1.3201879e-12
7.6761112e-10
1.2790191e-12
7.6770669e-10
-1.2437235e-12
7.676137e-10
1.2142162e-12
7.6770451e-10
-1.1900519e-12
7.6761551e-10
1.1694619e-12
7.6771103e-10
-1.2095567e-12
1.0865667e-12
8.2963891e-10
8.9024757e-09
8.4820977e-10
-9.8698863e-11
8.4506895e-10
2.3201203e-11
8.4515577e-10
3.9052051e-12
8.4582349e-10
-9.8207509e-12
8.4545627e-10
7.4885697e-12
8.4604743e-10
-8.532026e-12
8.455424e-10
7.7216547e-12
8.4605038e-10
-7.5100063e-12
8.4557698e-10
7.0636198e-12
8.4603248e-10
-6.7401969e-12
8.4560051e-10
6.3921641e-12
8.4601312e-10
-6.0828611e-12
8.4562054e-10
5.780074e-12
8.4599492e-10
-5.4989412e-12
8.4563857e-10
5.2282321e-12
8.4597815e-10
-4.9740529e-12
8.4565505e-10
4.7298471e-12
8.4596271e-10
-4.499537e-12
8.4567017e-10
4.2782945e-12
8.4594849e-10
-4.0690782e-12
8.4568408e-10
3.8680489e-12
8.4593536e-10
-3.6776448e-12
8.4569687e-10
3.4948318e-12
8.4592328e-10
-3.3215828e-12
8.4570861e-10
3.1554083e-12
8.459122e-10
-2.9979518e-12
8.4571935e-10
2.8471629e-12
8.4590208e-10
-2.7045231e-12
8.457291e-10
2.5683504e-12
8.4589291e-10
-2.4398602e-12
8.4573788e-10
2.3176808e-12
8.4588466e-10
-2.2027787e-12
8.4574574e-10
2.0940429e-12
8.4587735e-10
-1.9923974e-12
8.4575265e-10
1.8969124e-12
8.4587095e-10
-1.8082491e-12
8.4575863e-10
1.7257495e-12
8.4586548e-10
-1.649921e-12
8.4576369e-10
1.5802076e-12
8.4586092e-10
-1.5170936e-12
8.4576783e-10
1.4601267e-12
8.4585726e-10
-1.4096217e-12
8.4577106e-10
1.3652179e-12
8.4585449e-10
-1.3271471e-12
8.457734e-10
1.2953065e-12
8.4585249e-10
-1.2691484e-12
8.4577502e-10
1.2469347e-12
8.4585889e-10
-1.2934317e-12
1.1534506e-12
9.0408169e-10
9.344644e-09
9.2356233e-10
-1.1817951e-10
9.2068655e-10
2.6076987e-11
9.208162e-10
3.7755525e-12
9.2140605e-10
-1.04106e-11
9.2112327e-10
7.7713407e-12
9.2164638e-10
-9.055134e-12
9.2120684e-10
8.1611941e-12
9.2165288e-10
-7.9560433e-12
9.2123824e-10
7.4782668e-12
9.216381e-10
-7.1400578e-12
9.212589e-10
6.771364e-12
9.2162146e-10
-6.4454231e-12
9.2127638e-10
6.1251557e-12
9.2160567e-10
-5.8282235e-12
9.2129216e-10
5.5417401e-12
9.2159103e-10
-5.2729193e-12
9.2130663e-10
5.0142442e-12
9.2157749e-10
-4.7703892e-12
9.2131996e-10
4.5358184e-12
9.2156496e-10
-4.3140671e-12
9.2133228e-10
4.1007278e-12
9.2155336e-10
-3.8987226e-12
9.2134362e-10
3.7045639e-12
9.2154266e-10
-3.5206129e-12
9.2135406e-10
3.3440059e-12
9.2153281e-10
-3.1767005e-12
9.2136362e-10
3.0163425e-12
9.215238e-10
-2.8646962e-12
9.2137232e-10
2.7198223e-12
9.2151562e-10
-2.5831621e-12
9.2138017e-10
2.4531313e-12
9.2150827e-10
-2.3308798e-12
9.2138719e-10
2.2151234e-12
9.2150174e-10
-2.1069519e-12
9.2139336e-10
2.0052903e-12
9.2149603e-10
-1.9109194e-12
9.2139871e-10
1.8230753e-12
9.2149114e-10
-1.7423567e-12
9.2140323e-10
1.6681229e-12
9.2148707e-10
-1.6009362e-12
9.2140692e-10
1.5402744e-12
9.2148381e-10
-1.4865052e-12
9.2140981e-10
1.4392097e-12
9.2148133e-10
-1.3986606e-12
9.214119e-10
1.3647324e-12
9.2147953e-10
-1.3367733e-12
9.2141333e-10
1.3131299e-12
9.214857e-10
-1.365799e-12
1.2092191e-12
9.7628636e-10
9.7146076e-09
9.963399e-10
-1.3823304e-10
9.9379311e-10
2.8623773e-11
9.9394933e-10
3.6193364e-12
9.944733e-10
-1.093457e-11
9.9426978e-10
7.9748544e-12
9.9472526e-10
-9.5106121e-12
9.943501e-10
8.5363575e-12
9.9473469e-10
-8.3406376e-12
9.9437819e-10
7.8347708e-12
9.9472288e-10
-7.4847478e-12
9.94396e-10
7.0982417e-12
9.947089e-10
-6.7583188e-12
9.9441098e-10
6.4230774e-12
9.9469546e-10
-6.1127024e-12
9.9442453e-10
5.8126694e-12
9.9468292e-10
-5.5313016e-12
9.9443702e-10
5.2601407e-12
9.9467126e-10
-5.0046169e-12
9.9444858e-10
4.7584947e-12
9.9466041e-10
-4.525895e-12
9.9445929e-10
4.3018462e-12
9.9465033e-10
-4.0897564e-12
9.9446919e-10
3.8856947e-12
9.94641e-10
-3.6924115e-12
9.9447832e-10
3.5066733e-12
9.9463239e-10
-3.3307608e-12
9.9448672e-10
3.1620107e-12
9.9462449e-10
-3.0024721e-12
9.9449436e-10
2.8499554e-12
9.9461732e-10
-2.7061289e-12
9.9450125e-10
2.5692038e-12
9.9461087e-10
-2.4404972e-12
9.9450742e-10
2.3185617e-12
9.9460513e-10
-2.204659e-12
9.9451286e-10
2.0975656e-12
9.9460011e-10
-1.9981776e-12
9.9451755e-10
1.9056349e-12
9.9459582e-10
-1.8206213e-12
9.9452154e-10
1.7424051e-12
9.9459224e-10
-1.6716427e-12
9.9452478e-10
1.6077345e-12
9.9458938e-10
-1.5510999e-12
9.9452733e-10
1.5012605e-12
9.9458719e-10
-1.4585287e-12
9.9452916e-10
1.4227619e-12
9.945856e-10
-1.3932046e-12
9.9453039e-10
1.3683311e-12
9.9459143e-10
-1.426838e-12
1.2542958e-12
1.0462778e-09
1.001458e-08
1.066557e-09
-1.5851218e-10
1.0643838e-09
3.0796963e-11
1.0645559e-09
3.4471982e-12
1.065026e-09
-1.1404623e-11
1.0648958e-09
8.1049938e-12
1.0652842e-09
-9.898938e-12
1.0649721e-09
8.8483834e-12
1.0652959e-09
-8.6644269e-12
1.0649968e-09
8.1338819e-12
1.0652869e-09
-7.7748627e-12
1.0650118e-09
7.3733582e-12
1.0652755e-09
-7.0220369e-12
1.0650243e-09
6.6742861e-12
1.0652644e-09
-6.3527719e-12
1.0650357e-09
6.04138e-12
1.0652539e-09
-5.7495285e-12
1.0650462e-09
5.4678422e-12
1.0652441e-09
-5.2024996e-12
1.065056e-09
4.9465901e-12
1.0652349e-09
-4.7048083e-12
1.0650651e-09
4.4716385e-12
1.0652263e-09
-4.2509735e-12
1.0650736e-09
4.0384488e-12
1.0652184e-09
-3.8372014e-12
1.0650814e-09
3.6436387e-12
1.065211e-09
-3.4603521e-12
1.0650886e-09
3.2843882e-12
1.0652042e-09
-3.1180785e-12
1.0650952e-09
2.9589857e-12
1.0651981e-09
-2.8090013e-12
1.0651011e-09
2.6661313e-12
1.0651925e-09
-2.5318725e-12
1.0651065e-09
2.4046115e-12
1.0651876e-09
-2.2857747e-12
1.0651112e-09
2.1739974e-12
1.0651833e-09
-2.070292e-12
1.0651152e-09
1.9736973e-12
1.0651796e-09
-1.8849848e-12
1.0651186e-09
1.8033423e-12
1.0651765e-09
-1.7295017e-12
1.0651214e-09
1.6627965e-12
1.065174e-09
-1.6036951e-12
1.0651236e-09
1.5516636e-12
1.0651721e-09
-1.5070534e-12
1.0651252e-09
1.4697012e-12
1.0651708e-09
-1.438751e-12
1.0651262e-09
1.4128447e-12
1.0651762e-09
-1.476775e-12
1.2891223e-12
1.1140767e-09
1.0246753e-08
1.134227e-09
-1.786625e-10
1.1324533e-09
3.2570591e-11
1.132638e-09
3.2625229e-12
1.1330644e-09
-1.1831016e-11
1.1330014e-09
8.1679965e-12
1.1333231e-09
-1.0220596e-11
1.1330728e-09
9.0986191e-12
1.1333366e-09
-8.9281752e-12
1.133094e-09
8.376463e-12
1.1333302e-09
-8.0111108e-12
1.1331062e-09
7.5973903e-12
1.1333214e-09
-7.2371736e-12
1.1331163e-09
6.8793326e-12
1.1333125e-09
-6.5489331e-12
1.1331255e-09
6.2283366e-12
1.133304e-09
-5.9280212e-12
1.1331341e-09
5.6377421e-12
1.133296e-09
-5.3644044e-12
1.1331422e-09
5.1004505e-12
1.1332885e-09
-4.851138e-12
1.1331497e-09
4.6104276e-12
1.1332814e-09
-4.3826821e-12
1.1331567e-09
4.1631273e-12
1.1332748e-09
-3.9552738e-12
1.1331633e-09
3.7551852e-12
1.1332687e-09
-3.5657631e-12
1.1331693e-09
3.3837659e-12
1.133263e-09
-3.2118005e-12
1.1331748e-09
3.0471966e-12
1.1332579e-09
-2.8920627e-12
1.1331798e-09
2.7442145e-12
1.1332532e-09
-2.6053042e-12
1.1331843e-09
2.4735684e-12
1.1332491e-09
-2.3506001e-12
1.1331882e-09
2.2348934e-12
1.1332455e-09
-2.127568e-12
1.1331916e-09
2.0275764e-12
1.1332424e-09
-1.9357672e-12
1.1331945e-09
1.8512432e-12
1.1332398e-09
-1.7748278e-12
1.1331968e-09
1.7057809e-12
1.1332377e-09
-1.644617e-12
1.1331986e-09
1.5907468e-12
1.1332361e-09
-1.5445584e-12
1.1332e-09
1.5058747e-12
1.133235e-09
-1.4737457e-12
1.1332008e-09
1.4470063e-12
1.1332399e-09
-1.5158731e-12
1.3141707e-12
1.1796973e-09
1.0413306e-08
1.1993624e-09
-1.9832761e-10
1.197997e-09
3.3935952e-11
1.1981979e-09
3.0616426e-12
1.1985887e-09
-1.2221851e-11
1.1985866e-09
8.1701378e-12
1.1988421e-09
-1.0476075e-11
1.1986522e-09
9.2885155e-12
1.1988568e-09
-9.1327627e-12
1.1986697e-09
8.5635003e-12
1.1988529e-09
-8.1943174e-12
1.1986792e-09
7.7711193e-12
1.1988465e-09
-7.4044314e-12
1.1986869e-09
7.0388697e-12
1.1988398e-09
-6.7017791e-12
1.198694e-09
6.3740915e-12
1.1988333e-09
-6.0672956e-12
1.1987007e-09
5.7703272e-12
1.1988271e-09
-5.4907858e-12
1.1987071e-09
5.2205119e-12
1.1988212e-09
-4.9652936e-12
1.198713e-09
4.7186046e-12
1.1988156e-09
-4.4852609e-12
1.1987186e-09
4.2601004e-12
1.1988104e-09
-4.0469921e-12
1.1987239e-09
3.8416769e-12
1.1988054e-09
-3.6473424e-12
1.1987287e-09
3.4604879e-12
1.1988009e-09
-3.2839844e-12
1.1987332e-09
3.1149379e-12
1.1987968e-09
-2.9556625e-12
1.1987372e-09
2.803788e-12
1.198793e-09
-2.6611311e-12
1.1987408e-09
2.5257793e-12
1.1987897e-09
-2.3994791e-12
1.198744e-09
2.2805955e-12
1.1987868e-09
-2.1703533e-12
1.1987467e-09
2.0676155e-12
1.1987843e-09
-1.9733086e-12
1.198749e-09
1.8864642e-12
1.1987822e-09
-1.8079738e-12
1.1987509e-09
1.7370377e-12
1.1987805e-09
-1.6742118e-12
1.1987524e-09
1.6188579e-12
1.1987793e-09
-1.5713987e-12
1.1987535e-09
1.5316401e-12
1.1987783e-09
-1.4985456e-12
1.1987541e-09
1.471167e-12
1.1987827e-09
-1.5444324e-12
1.3299176e-12
1.2431411e-09
1.0516415e-08
1.2619742e-09
-2.1716065e-10
1.2610169e-09
3.4893254e-11
1.2612381e-09
2.8404371e-12
1.2615991e-09
-1.2582848e-11
1.2616515e-09
8.1177551e-12
1.2618412e-09
-1.0665821e-11
1.2617101e-09
9.4196377e-12
1.2618565e-09
-9.2791834e-12
1.2617239e-09
8.6960839e-12
1.261855e-09
-8.3254121e-12
1.2617307e-09
7.8954359e-12
1.2618509e-09
-7.5246143e-12
1.2617361e-09
7.1536488e-12
1.2618463e-09
-6.8120066e-12
1.2617411e-09
6.4792984e-12
1.2618418e-09
-6.1679557e-12
1.261746e-09
5.8661671e-12
1.2618374e-09
-5.5821822e-12
1.2617506e-09
5.3072847e-12
1.2618331e-09
-5.047766e-12
1.261755e-09
4.7966471e-12
1.2618289e-09
-4.5591667e-12
1.2617592e-09
4.3298118e-12
1.261825e-09
-4.112784e-12
1.2617632e-09
3.9035268e-12
1.2618213e-09
-3.705504e-12
1.2617668e-09
3.5149651e-12
1.2618179e-09
-3.335029e-12
1.2617702e-09
3.1626004e-12
1.2618147e-09
-3.000186e-12
1.2617733e-09
2.8452509e-12
1.2618119e-09
-2.6997445e-12
1.261776e-09
2.5616264e-12
1.2618094e-09
-2.4327951e-12
1.2617785e-09
2.3114892e-12
1.2618071e-09
-2.1990262e-12
1.2617806e-09
2.0941978e-12
1.2618052e-09
-1.9979944e-12
1.2617823e-09
1.9093738e-12
1.2618037e-09
-1.8293112e-12
1.2617838e-09
1.7569416e-12
1.2618024e-09
-1.6928575e-12
1.2617849e-09
1.6363736e-12
1.2618014e-09
-1.5879434e-12
1.2617857e-09
1.547365e-12
1.2618007e-09
-1.5135254e-12
1.2617862e-09
1.4857021e-12
1.2618045e-09
-1.5627802e-12
1.3368593e-12
1.3043886e-09
1.0558276e-08
1.3220734e-09
-2.3484547e-10
1.3215291e-09
3.5437582e-11
1.3217573e-09
2.6122054e-12
1.3220943e-09
-1.2919813e-11
1.3221955e-09
8.0165045e-12
1.3223204e-09
-1.0790675e-11
1.3222465e-09
9.4935546e-12
1.3223359e-09
-9.3685752e-12
1.3222565e-09
8.7754126e-12
1.3223366e-09
-8.405437e-12
1.3222607e-09
7.9713295e-12
1.3223347e-09
-7.5986273e-12
1.3222638e-09
7.2245195e-12
1.3223322e-09
-6.8803992e-12
1.3222668e-09
6.5446938e-12
1.3223296e-09
-6.2306972e-12
1.3222698e-09
5.9259224e-12
1.3223269e-09
-5.6392162e-12
1.3222728e-09
5.3613674e-12
1.3223241e-09
-5.0991209e-12
1.3222757e-09
4.8450956e-12
1.3223214e-09
-4.6049226e-12
1.3222785e-09
4.37277e-12
1.3223188e-09
-4.1531459e-12
1.3222811e-09
3.9412265e-12
1.3223164e-09
-3.7407172e-12
1.3222837e-09
3.5476557e-12
1.322314e-09
-3.3653899e-12
1.322286e-09
3.1906378e-12
1.3223119e-09
-3.0260813e-12
1.3222881e-09
2.8690289e-12
1.3223099e-09
-2.7215691e-12
1.32229e-09
2.5815384e-12
1.3223082e-09
-2.4509683e-12
1.3222917e-09
2.3279877e-12
1.3223067e-09
-2.2140014e-12
1.3222931e-09
2.1077285e-12
1.3223054e-09
-2.0102224e-12
1.3222943e-09
1.920384e-12
1.3223043e-09
-1.8392443e-12
1.3222953e-09
1.7658902e-12
1.3223034e-09
-1.7009448e-12
1.3222961e-09
1.6436834e-12
1.3223028e-09
-1.594588e-12
1.3222967e-09
1.5534452e-12
1.3223022e-09
-1.5190771e-12
1.3222969e-09
1.4909949e-12
1.3223054e-09
-1.5712717e-12
1.3354857e-12
1.36335e-09
1.0541176e-08
1.379647e-09
-2.5114244e-10
1.3796114e-09
3.5473166e-11
1.3797703e-09
2.45334e-12
1.3800753e-09
-1.3224808e-11
1.3802187e-09
7.8730632e-12
1.3802795e-09
-1.0851455e-11
1.3802612e-09
9.5118769e-12
1.3802948e-09
-9.4022378e-12
1.3802675e-09
8.8027548e-12
1.3802976e-09
-8.435546e-12
1.380269e-09
7.9998882e-12
1.3802979e-09
-7.6274753e-12
1.38027e-09
7.2524246e-12
1.3802974e-09
-6.9078422e-12
1.380271e-09
6.5711136e-12
1.3802966e-09
-6.2563007e-12
1.3802722e-09
5.9503331e-12
1.3802956e-09
-5.6625912e-12
1.3802735e-09
5.3834289e-12
1.3802944e-09
-5.1200027e-12
1.3802749e-09
4.8645751e-12
1.3802931e-09
-4.6231268e-12
1.3802763e-09
4.3895536e-12
1.3802918e-09
-4.1686339e-12
1.3802778e-09
3.9553102e-12
1.3802905e-09
-3.7535128e-12
1.3802791e-09
3.5590814e-12
1.3802893e-09
-3.3755701e-12
1.3802804e-09
3.1995385e-12
1.3802881e-09
-3.033825e-12
1.3802816e-09
2.8756087e-12
1.3802871e-09
-2.7270782e-12
1.3802826e-09
2.5859729e-12
1.3802861e-09
-2.4544529e-12
1.3802836e-09
2.3305425e-12
1.3802853e-09
-2.215718e-12
1.3802844e-09
2.1086478e-12
1.3802846e-09
-2.0104314e-12
1.380285e-09
1.9199108e-12
1.380284e-09
-1.838189e-12
1.3802856e-09
1.7642997e-12
1.3802835e-09
-1.6988906e-12
1.380286e-09
1.6412003e-12
1.3802832e-09
-1.5917347e-12
1.3802863e-09
1.5502792e-12
1.3802828e-09
-1.5156042e-12
1.3802864e-09
1.4874483e-12
1.3802854e-09
-1.5702814e-12
1.326298e-12
1.4199753e-09
1.0467451e-08
1.4346859e-09
-2.6585303e-10
1.4353073e-09
3.4851738e-11
1.435298e-09
2.4626558e-12
1.4355451e-09
-1.3471955e-11
1.4357224e-09
7.6958232e-12
1.435719e-09
-1.0848122e-11
1.4357543e-09
9.476586e-12
1.4357335e-09
-9.3814608e-12
1.4357568e-09
8.7795364e-12
1.4357382e-09
-8.4169812e-12
1.4357558e-09
7.9823026e-12
1.4357406e-09
-7.6122579e-12
1.4357546e-09
7.2384034e-12
1.4357421e-09
-6.8953035e-12
1.4357537e-09
6.5594725e-12
1.435743e-09
-6.2456356e-12
1.4357531e-09
5.9402272e-12
1.4357436e-09
-5.6530921e-12
1.4357528e-09
5.3742239e-12
1.435744e-09
-5.1111271e-12
1.4357528e-09
4.8557693e-12
1.4357441e-09
-4.6144396e-12
1.4357528e-09
4.3808018e-12
1.4357441e-09
-4.1598695e-12
1.435753e-09
3.9463888e-12
1.435744e-09
-3.7444716e-12
1.4357532e-09
3.5498054e-12
1.4357438e-09
-3.3661248e-12
1.4357535e-09
3.18985e-12
1.4357436e-09
-3.0239535e-12
1.4357537e-09
2.8654961e-12
1.4357434e-09
-2.7167719e-12
1.4357539e-09
2.5754292e-12
1.4357432e-09
-2.4437342e-12
1.4357541e-09
2.3196263e-12
1.4357431e-09
-2.2046464e-12
1.4357543e-09
2.0974113e-12
1.4357429e-09
-1.9990648e-12
1.4357544e-09
1.9084098e-12
1.4357428e-09
-1.8265895e-12
1.4357545e-09
1.7526037e-12
1.4357428e-09
-1.6871181e-12
1.4357546e-09
1.6293437e-12
1.4357427e-09
-1.5798072e-12
1.4357547e-09
1.5382891e-12
1.4357426e-09
-1.5035221e-12
1.4357546e-09
1.4754667e-12
1.4357445e-09
-1.5602034e-12
1.3097822e-12
1.4743977e-09
1.0339303e-08
1.4872414e-09
-2.7869668e-10
1.4884909e-09
3.3602262e-11
1.4883205e-09
2.6330411e-12
1.4884977e-09
-1.3649158e-11
1.4887047e-09
7.4888453e-12
1.4886385e-09
-1.0781926e-11
1.4887256e-09
9.389417e-12
1.4886519e-09
-9.3077646e-12
1.4887242e-09
8.7072309e-12
1.4886584e-09
-8.3510955e-12
1.4887208e-09
7.9198587e-12
1.4886627e-09
-7.5541713e-12
1.4887175e-09
7.1835858e-12
1.4886661e-09
-6.8438505e-12
1.4887148e-09
6.5107832e-12
1.4886688e-09
-6.1996535e-12
1.4887125e-09
5.8965096e-12
1.488671e-09
-5.6115815e-12
1.4887107e-09
5.3345735e-12
1.4886728e-09
-5.0732852e-12
1.4887091e-09
4.8194438e-12
1.4886743e-09
-4.5795932e-12
1.4887079e-09
4.3472203e-12
1.4886755e-09
-4.1275293e-12
1.4887068e-09
3.9151095e-12
1.4886766e-09
-3.7142322e-12
1.4887059e-09
3.5204507e-12
1.4886775e-09
-3.3376513e-12
1.4887052e-09
3.1621481e-12
1.4886782e-09
-2.9970248e-12
1.4887045e-09
2.839255e-12
1.4886789e-09
-2.691194e-12
1.4887039e-09
2.5504293e-12
1.4886795e-09
-2.4193257e-12
1.4887034e-09
2.2957453e-12
1.48868e-09
-2.181275e-12
1.4887029e-09
2.0745046e-12
1.4886804e-09
-1.9766033e-12
1.4887025e-09
1.8863329e-12
1.4886808e-09
-1.8048944e-12
1.4887022e-09
1.7312484e-12
1.4886811e-09
-1.6660719e-12
1.4887019e-09
1.6085516e-12
1.4886813e-09
-1.5592295e-12
1.4887017e-09
1.5178929e-12
1.4886815e-09
-1.4832517e-12
1.4887015e-09
1.4554695e-12
1.4886827e-09
-1.5414444e-12
1.2864293e-12
1.5266906e-09
1.0158862e-08
1.5373342e-09
-2.8934024e-10
1.5390692e-09
3.1867303e-11
1.5388326e-09
2.8696432e-12
1.5389303e-09
-1.3746932e-11
1.5391652e-09
7.2540051e-12
1.5390378e-09
-1.0654552e-11
1.5391751e-09
9.2521336e-12
1.5390501e-09
-9.1827875e-12
1.5391699e-09
8.5874176e-12
1.5390582e-09
-8.2393485e-12
1.5391641e-09
7.8139319e-12
1.5390644e-09
-7.4545076e-12
1.5391588e-09
7.0891934e-12
1.5390696e-09
-6.754631e-12
1.5391543e-09
6.4261334e-12
1.539074e-09
-6.1193927e-12
1.5391504e-09
5.8201706e-12
1.5390778e-09
-5.5390009e-12
1.539147e-09
5.2653826e-12
1.539081e-09
-5.0073362e-12
1.539144e-09
4.7564181e-12
1.5390838e-09
-4.5193781e-12
1.5391415e-09
4.2895713e-12
1.5390863e-09
-4.0723514e-12
1.5391392e-09
3.8621933e-12
1.5390885e-09
-3.6634784e-12
1.5391372e-09
3.4716762e-12
1.5390904e-09
-3.2907948e-12
1.5391355e-09
3.1170642e-12
1.5390921e-09
-2.9536529e-12
1.5391339e-09
2.797461e-12
1.5390936e-09
-2.6509094e-12
1.5391325e-09
2.5115322e-12
1.5390949e-09
-2.381767e-12
1.5391313e-09
2.2594209e-12
1.5390961e-09
-2.1461186e-12
1.5391302e-09
2.0404225e-12