/*--------------------------------*- C++ -*----------------------------------*\
| =========                 |                                                 |
| \\      /  F ield         | OpenFOAM: The Open Source CFD Toolbox           |
|  \\    /   O peration     | Version:  2312                                  |
|   \\  /    A nd           | Website:  www.openfoam.com                      |
|    \\/     M anipulation  |                                                 |
\*---------------------------------------------------------------------------*/
FoamFile
{
    version     2.0;
    format      ascii;
    arch        "LSB;label=32;scalar=64";
    class       volSymmTensorField;
    location    "1";
    object      sigma;
}
// * * * * * * * * * * * * * * * * * * * * * * * * * * * * * * * * * * * * * //

dimensions      [0 2 -2 0 0 0 0];

internalField   nonuniform List<symmTensor> 
4000
(
(-0.38925873 -0.20733049 0 -0.070834958 0 0)
(-0.66935177 -0.14929216 0 -2.8631232e-05 0 0)
(-0.59240402 -0.14050135 0 4.1624144e-06 0 0)
(-0.63384047 -0.14542289 0 -3.0480745e-05 0 0)
(-0.5998429 -0.14132842 0 3.3524374e-05 0 0)
(-0.63225555 -0.14524243 0 -3.0911012e-05 0 0)
(-0.60235387 -0.14163318 0 2.9897564e-05 0 0)
(-0.6307188 -0.14505832 0 -2.8153986e-05 0 0)
(-0.60401897 -0.14183652 0 2.6775804e-05 0 0)
(-0.62924811 -0.14488209 0 -2.5375146e-05 0 0)
(-0.60542105 -0.14200772 0 2.4087965e-05 0 0)
(-0.62792267 -0.14472323 0 -2.2872889e-05 0 0)
(-0.6066556 -0.14215828 0 2.1720122e-05 0 0)
(-0.6267416 -0.14458163 0 -2.0642965e-05 0 0)
(-0.607754 -0.14229202 0 1.9613366e-05 0 0)
(-0.62568835 -0.14445533 0 -1.8650502e-05 0 0)
(-0.60873609 -0.14241142 0 1.7727799e-05 0 0)
(-0.62474597 -0.14434232 0 -1.6862576e-05 0 0)
(-0.60961771 -0.14251843 0 1.60323e-05 0 0)
(-0.62389956 -0.14424084 0 -1.5251695e-05 0 0)
(-0.61041214 -0.14261471 0 1.4502046e-05 0 0)
(-0.62313642 -0.14414937 0 -1.3795692e-05 0 0)
(-0.61113069 -0.14270166 0 1.3117246e-05 0 0)
(-0.62244574 -0.14406662 0 -1.2477028e-05 0 0)
(-0.61178294 -0.14278046 0 1.1862442e-05 0 0)
(-0.62181836 -0.14399149 0 -1.1282087e-05 0 0)
(-0.61237705 -0.14285213 0 1.0725686e-05 0 0)
(-0.62124648 -0.14392304 0 -1.0200391e-05 0 0)
(-0.61292009 -0.14291754 0 9.6979117e-06 0 0)
(-0.62072332 -0.14386046 0 -9.2241908e-06 0 0)
(-0.61341815 -0.14297744 0 8.7724898e-06 0 0)
(-0.62024307 -0.14380305 0 -8.3477604e-06 0 0)
(-0.61387655 -0.1430325 0 7.9445471e-06 0 0)
(-0.61980056 -0.14375019 0 -7.566995e-06 0 0)
(-0.61430013 -0.14308329 0 7.2106799e-06 0 0)
(-0.61939107 -0.14370133 0 -6.8790941e-06 0 0)
(-0.61469323 -0.14313034 0 6.5685719e-06 0 0)
(-0.61901035 -0.14365595 0 -6.282143e-06 0 0)
(-0.61505992 -0.14317416 0 6.016752e-06 0 0)
(-0.61865438 -0.14361358 0 -5.7749949e-06 0 0)
(-0.6154041 -0.14321519 0 5.5543248e-06 0 0)
(-0.61831929 -0.14357377 0 -5.3569994e-06 0 0)
(-0.61572946 -0.14325388 0 5.1808962e-06 0 0)
(-0.61800138 -0.14353609 0 -5.0280372e-06 0 0)
(-0.61603969 -0.14329067 0 4.8966592e-06 0 0)
(-0.61769691 -0.14350009 0 -4.7887792e-06 0 0)
(-0.6163384 -0.14332597 0 4.703343e-06 0 0)
(-0.61740245 -0.14346538 0 -4.6377058e-06 0 0)
(-0.61663441 -0.1433607 0 4.6464622e-06 0 0)
(-0.6171644 -0.14343743 0 -4.5607286e-06 0 0)
(-0.35424153 -0.19350322 0 -0.06620659 0 0)
(-0.60723343 -0.14227689 0 -0.0002342525 0 0)
(-0.55113529 -0.13555331 0 -3.3382751e-05 0 0)
(-0.58666898 -0.13994188 0 -2.9765296e-05 0 0)
(-0.55643917 -0.13607039 0 3.8620614e-05 0 0)
(-0.58532766 -0.13978889 0 -3.3762785e-05 0 0)
(-0.55866984 -0.13635816 0 3.392013e-05 0 0)
(-0.58398264 -0.13961817 0 -3.1568653e-05 0 0)
(-0.56015215 -0.13655109 0 3.0217806e-05 0 0)
(-0.58267634 -0.13945153 0 -2.8579501e-05 0 0)
(-0.56139958 -0.13671354 0 2.7170142e-05 0 0)
(-0.58149468 -0.13930071 0 -2.5796124e-05 0 0)
(-0.5624996 -0.1368566 0 2.45102e-05 0 0)
(-0.58043943 -0.13916598 0 -2.3298776e-05 0 0)
(-0.56348014 -0.13698393 0 2.2144476e-05 0 0)
(-0.57949663 -0.13904558 0 -2.1061127e-05 0 0)
(-0.56435846 -0.1370978 0 2.0023983e-05 0 0)
(-0.57865171 -0.13893766 0 -1.9048917e-05 0 0)
(-0.56514818 -0.13720003 0 1.8113753e-05 0 0)
(-0.57789182 -0.1388406 0 -1.7232483e-05 0 0)
(-0.56586071 -0.13729213 0 1.6386524e-05 0 0)
(-0.57720601 -0.13875301 0 -1.5587653e-05 0 0)
(-0.56650574 -0.13737539 0 1.4820665e-05 0 0)
(-0.57658493 -0.13867371 0 -1.4095466e-05 0 0)
(-0.56709153 -0.1374509 0 1.3399625e-05 0 0)
(-0.57602071 -0.13860168 0 -1.2741308e-05 0 0)
(-0.56762509 -0.13751958 0 1.2110531e-05 0 0)
(-0.57550656 -0.13853606 0 -1.151395e-05 0 0)
(-0.56811257 -0.13758225 0 1.0943679e-05 0 0)
(-0.57503657 -0.1384761 0 -1.0405166e-05 0 0)
(-0.56855927 -0.1376396 0 9.8921297e-06 0 0)
(-0.57460563 -0.13842115 0 -9.4090664e-06 0 0)
(-0.56896986 -0.13769224 0 8.9508481e-06 0 0)
(-0.57420915 -0.13837063 0 -8.5212047e-06 0 0)
(-0.56934865 -0.13774073 0 8.1161642e-06 0 0)
(-0.57384294 -0.138324 0 -7.7388603e-06 0 0)
(-0.56969954 -0.13778558 0 7.3859374e-06 0 0)
(-0.57350314 -0.13828078 0 -7.0601206e-06 0 0)
(-0.57002622 -0.13782726 0 6.7586236e-06 0 0)
(-0.57318607 -0.13824051 0 -6.4837928e-06 0 0)
(-0.57033225 -0.13786621 0 6.2334436e-06 0 0)
(-0.57288821 -0.13820275 0 -6.0096531e-06 0 0)
(-0.57062103 -0.13790286 0 5.8105085e-06 0 0)
(-0.5726061 -0.13816707 0 -5.6379536e-06 0 0)
(-0.570896 -0.13793765 0 5.4905651e-06 0 0)
(-0.57233626 -0.13813305 0 -5.370774e-06 0 0)
(-0.57116055 -0.13797097 0 5.2780058e-06 0 0)
(-0.57207512 -0.13810025 0 -5.2062578e-06 0 0)
(-0.57142057 -0.1380033 0 5.2951276e-06 0 0)
(-0.5718523 -0.13807231 0 -5.0388932e-06 0 0)
(-0.33249665 -0.18368369 0 -0.061748759 0 0)
(-0.56750559 -0.13716707 0 -0.00011966998 0 0)
(-0.52343235 -0.13211989 0 -5.4388601e-05 0 0)
(-0.55612772 -0.13628618 0 -2.8248689e-05 0 0)
(-0.52832028 -0.13255216 0 3.9329252e-05 0 0)
(-0.55493701 -0.13614179 0 -3.2828254e-05 0 0)
(-0.53037473 -0.13282908 0 3.4051968e-05 0 0)
(-0.55370814 -0.13597908 0 -3.1367837e-05 0 0)
(-0.53173917 -0.13301517 0 3.0182696e-05 0 0)
(-0.55250736 -0.13581869 0 -2.8499694e-05 0 0)
(-0.53288721 -0.1331719 0 2.7123543e-05 0 0)
(-0.55141884 -0.13567321 0 -2.5750954e-05 0 0)
(-0.53390064 -0.13331007 0 2.4475587e-05 0 0)
(-0.55044545 -0.13554305 0 -2.3271009e-05 0 0)
(-0.53480516 -0.1334332 0 2.2121757e-05 0 0)
(-0.54957481 -0.13542659 0 -2.1044185e-05 0 0)
(-0.53561634 -0.13354345 0 2.0009808e-05 0 0)
(-0.54879379 -0.13532209 0 -1.9038656e-05 0 0)
(-0.53634644 -0.13364253 0 1.8104643e-05 0 0)
(-0.54809082 -0.13522802 0 -1.7225635e-05 0 0)
(-0.5370057 -0.13373187 0 1.6379657e-05 0 0)
(-0.54745603 -0.13514306 0 -1.5581681e-05 0 0)
(-0.53760283 -0.13381267 0 1.4813794e-05 0 0)
(-0.54688102 -0.1350661 0 -1.4088432e-05 0 0)
(-0.53814523 -0.13388598 0 1.3391072e-05 0 0)
(-0.54635864 -0.1349962 0 -1.2731864e-05 0 0)
(-0.53863924 -0.13395267 0 1.2099111e-05 0 0)
(-0.54588278 -0.13493252 0 -1.1501051e-05 0 0)
(-0.53909041 -0.1340135 0 1.0928583e-05 0 0)
(-0.54544805 -0.13487435 0 -1.0388357e-05 0 0)
(-0.53950355 -0.13406914 0 9.8730602e-06 0 0)
(-0.54504979 -0.13482108 0 -9.3881012e-06 0 0)
(-0.53988293 -0.13412017 0 8.9276582e-06 0 0)
(-0.54468379 -0.13477215 0 -8.496146e-06 0 0)
(-0.54023253 -0.13416714 0 8.0890772e-06 0 0)
(-0.54434617 -0.13472704 0 -7.7100356e-06 0 0)
(-0.54055593 -0.13421051 0 7.3552445e-06 0 0)
(-0.54403333 -0.13468528 0 -7.0279607e-06 0 0)
(-0.54085659 -0.13425077 0 6.725006e-06 0 0)
(-0.54374186 -0.13464642 0 -6.4491287e-06 0 0)
(-0.54113782 -0.13428834 0 6.1977962e-06 0 0)
(-0.54346842 -0.13461003 0 -5.9734331e-06 0 0)
(-0.54140285 -0.13432365 0 5.7739582e-06 0 0)
(-0.54320975 -0.13457569 0 -5.6017426e-06 0 0)
(-0.54165491 -0.13435713 0 5.4552118e-06 0 0)
(-0.54296256 -0.13454297 0 -5.3375715e-06 0 0)
(-0.54189724 -0.13438918 0 5.2481806e-06 0 0)
(-0.54272333 -0.13451143 0 -5.1819576e-06 0 0)
(-0.54213489 -0.13442006 0 5.3257988e-06 0 0)
(-0.54251357 -0.13448411 0 -5.1436885e-06 0 0)
(-0.31775145 -0.17513006 0 -0.056866262 0 0)
(-0.53137525 -0.13249461 0 -5.6371614e-05 0 0)
(-0.49621583 -0.1286667 0 -7.948322e-05 0 0)
(-0.52646621 -0.13263205 0 -2.3632743e-05 0 0)
(-0.50083929 -0.12903383 0 3.6460631e-05 0 0)
(-0.52544812 -0.13249555 0 -2.8504891e-05 0 0)
(-0.50274078 -0.12930017 0 3.1069066e-05 0 0)
(-0.52432183 -0.13234075 0 -2.8177717e-05 0 0)
(-0.50400018 -0.12947952 0 2.7332338e-05 0 0)
(-0.5232137 -0.13218649 0 -2.5742223e-05 0 0)
(-0.5050598 -0.12963058 0 2.4542334e-05 0 0)
(-0.52220694 -0.13204621 0 -2.3297082e-05 0 0)
(-0.5059962 -0.12976391 0 2.215709e-05 0 0)
(-0.52130544 -0.13192052 0 -2.1071901e-05 0 0)
(-0.50683304 -0.12988286 0 2.0038293e-05 0 0)
(-0.52049817 -0.13180791 0 -1.9067086e-05 0 0)
(-0.50758442 -0.1299895 0 1.8133979e-05 0 0)
(-0.5197733 -0.13170675 0 -1.7256975e-05 0 0)
(-0.50826138 -0.13008543 0 1.6412484e-05 0 0)
(-0.51912038 -0.13161561 0 -1.5616977e-05 0 0)
(-0.50887311 -0.130172 0 1.4850441e-05 0 0)
(-0.5185305 -0.13153324 0 -1.4126693e-05 0 0)
(-0.50942744 -0.13025035 0 1.3429487e-05 0 0)
(-0.51799605 -0.1314586 0 -1.2770371e-05 0 0)
(-0.50993106 -0.13032145 0 1.2136111e-05 0 0)
(-0.51751058 -0.13139078 0 -1.1536061e-05 0 0)
(-0.51038967 -0.13038612 0 1.0959705e-05 0 0)
(-0.51706852 -0.13132903 0 -1.0414498e-05 0 0)
(-0.5108083 -0.13044509 0 9.8923743e-06 0 0)
(-0.51666497 -0.13127265 0 -9.3992686e-06 0 0)
(-0.51119133 -0.13049899 0 8.9288383e-06 0 0)
(-0.51629565 -0.13122105 0 -8.4858672e-06 0 0)
(-0.5115427 -0.13054839 0 8.0651829e-06 0 0)
(-0.51595669 -0.1311737 0 -7.6706671e-06 0 0)
(-0.51186603 -0.13059379 0 7.2985421e-06 0 0)
(-0.51564449 -0.13113011 0 -6.9519417e-06 0 0)
(-0.51216468 -0.13063568 0 6.6275986e-06 0 0)
(-0.51535569 -0.1310898 0 -6.3283015e-06 0 0)
(-0.51244186 -0.1306745 0 6.0513277e-06 0 0)
(-0.51508708 -0.13105235 0 -5.799041e-06 0 0)
(-0.51270069 -0.13071068 0 5.5694532e-06 0 0)
(-0.51483554 -0.13101733 0 -5.3646635e-06 0 0)
(-0.51294421 -0.13074464 0 5.1828769e-06 0 0)
(-0.51459798 -0.13098432 0 -5.0262107e-06 0 0)
(-0.51317548 -0.1307768 0 4.8935088e-06 0 0)
(-0.51437126 -0.1309529 0 -4.7880906e-06 0 0)
(-0.51339759 -0.13080756 0 4.7094856e-06 0 0)
(-0.51415195 -0.13092261 0 -4.6522391e-06 0 0)
(-0.51361478 -0.13083703 0 4.8527003e-06 0 0)
(-0.51395412 -0.13089585 0 -4.7113939e-06 0 0)
(-0.30423052 -0.16693284 0 -0.052180229 0 0)
(-0.49645693 -0.1278633 0 2.0276505e-05 0 0)
(-0.46941507 -0.12516501 0 -9.6515224e-05 0 0)
(-0.49761551 -0.12898027 0 -1.9913064e-05 0 0)
(-0.47401178 -0.12551159 0 3.3010245e-05 0 0)
(-0.49681802 -0.12885242 0 -2.4016108e-05 0 0)
(-0.47579049 -0.12576839 0 2.7810897e-05 0 0)
(-0.49578587 -0.1287049 0 -2.475225e-05 0 0)
(-0.47695529 -0.12594133 0 2.4241873e-05 0 0)
(-0.49476132 -0.1285564 0 -2.2759532e-05 0 0)
(-0.4779352 -0.12608705 0 2.1743765e-05 0 0)
(-0.49382846 -0.12842103 0 -2.0635335e-05 0 0)
(-0.47880214 -0.1262158 0 1.9639812e-05 0 0)
(-0.49299203 -0.12829958 0 -1.8682073e-05 0 0)
(-0.4795779 -0.12633082 0 1.7772754e-05 0 0)
(-0.49224219 -0.12819062 0 -1.6915372e-05 0 0)
(-0.48027526 -0.12643405 0 1.6091721e-05 0 0)
(-0.49156825 -0.12809264 0 -1.5315885e-05 0 0)
(-0.48090416 -0.12652701 0 1.4568418e-05 0 0)
(-0.49096079 -0.12800428 0 -1.3863076e-05 0 0)
(-0.48147286 -0.12661096 0 1.318299e-05 0 0)
(-0.49041173 -0.12792438 0 -1.2539821e-05 0 0)
(-0.48198842 -0.12668697 0 1.1919901e-05 0 0)
(-0.4899142 -0.12785195 0 -1.1332976e-05 0 0)
(-0.48245685 -0.12675596 0 1.076797e-05 0 0)
(-0.48946235 -0.12778615 0 -1.0232737e-05 0 0)
(-0.48288332 -0.1268187 0 9.7184254e-06 0 0)
(-0.4890511 -0.12772625 0 -9.2313052e-06 0 0)
(-0.48327239 -0.12687589 0 8.7647715e-06 0 0)
(-0.48867599 -0.12767159 0 -8.3237562e-06 0 0)
(-0.48362806 -0.12692813 0 7.9029841e-06 0 0)
(-0.48833309 -0.12762161 0 -7.5063955e-06 0 0)
(-0.48395393 -0.12697594 0 7.1298033e-06 0 0)
(-0.48801881 -0.1275758 0 -6.7763534e-06 0 0)
(-0.48425337 -0.12701984 0 6.4430998e-06 0 0)
(-0.48772981 -0.12753368 0 -6.1324442e-06 0 0)
(-0.48452949 -0.12706028 0 5.8417987e-06 0 0)
(-0.48746297 -0.1274948 0 -5.5735282e-06 0 0)
(-0.48478528 -0.1270977 0 5.3254e-06 0 0)
(-0.48721525 -0.12745872 0 -5.0993534e-06 0 0)
(-0.4850237 -0.12713253 0 4.8937834e-06 0 0)
(-0.48698372 -0.12742503 0 -4.7104025e-06 0 0)
(-0.48524759 -0.12716517 0 4.5478626e-06 0 0)
(-0.48676546 -0.12739333 0 -4.4080007e-06 0 0)
(-0.48545987 -0.12719604 0 4.2899404e-06 0 0)
(-0.48655749 -0.12736318 0 -4.1969307e-06 0 0)
(-0.48566346 -0.12722555 0 4.1284207e-06 0 0)
(-0.4863565 -0.12733413 0 -4.0786835e-06 0 0)
(-0.485862 -0.12725368 0 4.3192593e-06 0 0)
(-0.48617079 -0.12730804 0 -4.2232319e-06 0 0)
(-0.29111178 -0.15897307 0 -0.047720769 0 0)
(-0.46321341 -0.12332268 0 0.00011085584 0 0)
(-0.44317957 -0.12162947 0 -0.00010472448 0 0)
(-0.46957622 -0.12532903 0 -1.7114215e-05 0 0)
(-0.44786466 -0.1219865 0 2.9723641e-05 0 0)
(-0.46902216 -0.12521134 0 -2.0087097e-05 0 0)
(-0.44954716 -0.12223482 0 2.4965844e-05 0 0)
(-0.46808 -0.12507079 0 -2.174612e-05 0 0)
(-0.45062594 -0.12240162 0 2.1532743e-05 0 0)
(-0.46713241 -0.12492778 0 -2.0141276e-05 0 0)
(-0.45153266 -0.1225422 0 1.9287607e-05 0 0)
(-0.46626755 -0.12479713 0 -1.8297585e-05 0 0)
(-0.45233573 -0.12266656 0 1.7428881e-05 0 0)
(-0.46549104 -0.12467972 0 -1.6581831e-05 0 0)
(-0.45305526 -0.1227778 0 1.5781637e-05 0 0)
(-0.46479415 -0.12457428 0 -1.5023266e-05 0 0)
(-0.45370283 -0.12287775 0 1.4295667e-05 0 0)
(-0.46416725 -0.12447935 0 -1.3607988e-05 0 0)
(-0.45428736 -0.12296784 0 1.2945862e-05 0 0)
(-0.4636018 -0.12439368 0 -1.231921e-05 0 0)
(-0.45481629 -0.12304926 0 1.1715247e-05 0 0)
(-0.46309053 -0.12431617 0 -1.1142496e-05 0 0)
(-0.45529596 -0.123123 0 1.0590662e-05 0 0)
(-0.4626272 -0.12424589 0 -1.0067006e-05 0 0)
(-0.4557318 -0.12318994 0 9.5630859e-06 0 0)
(-0.46220652 -0.12418204 0 -9.0847086e-06 0 0)
(-0.45612847 -0.12325081 0 8.6252469e-06 0 0)
(-0.46182386 -0.12412394 0 -8.1892178e-06 0 0)
(-0.45649013 -0.12330625 0 7.7718538e-06 0 0)
(-0.46147513 -0.12407096 0 -7.3766193e-06 0 0)
(-0.45682041 -0.12335685 0 6.9998227e-06 0 0)
(-0.46115673 -0.12402257 0 -6.6441912e-06 0 0)
(-0.45712265 -0.12340312 0 6.3066663e-06 0 0)
(-0.46086534 -0.12397827 0 -5.989422e-06 0 0)
(-0.45739994 -0.12344555 0 5.6905681e-06 0 0)
(-0.46059785 -0.1239376 0 -5.4117129e-06 0 0)
(-0.45765519 -0.12348457 0 5.1510501e-06 0 0)
(-0.46035132 -0.12390011 0 -4.9101975e-06 0 0)
(-0.45789121 -0.12352061 0 4.6875992e-06 0 0)
(-0.46012293 -0.12386539 0 -4.4845887e-06 0 0)
(-0.45811075 -0.1235541 0 4.3002573e-06 0 0)
(-0.45990989 -0.12383302 0 -4.135781e-06 0 0)
(-0.45831652 -0.12358544 0 3.9902164e-06 0 0)
(-0.45970945 -0.12380259 0 -3.8649253e-06 0 0)
(-0.45851126 -0.12361505 0 3.7594972e-06 0 0)
(-0.45951878 -0.1237737 0 -3.6768839e-06 0 0)
(-0.45869776 -0.12364332 0 3.6164832e-06 0 0)
(-0.45933472 -0.12374587 0 -3.5723163e-06 0 0)
(-0.45887914 -0.12367016 0 3.8404095e-06 0 0)
(-0.45916093 -0.1237205 0 -3.7802937e-06 0 0)
(-0.27851931 -0.15129384 0 -0.043466937 0 0)
(-0.43162982 -0.11886898 0 0.000216545 0 0)
(-0.41754514 -0.11806522 0 -0.00010462258 0 0)
(-0.44236387 -0.12167687 0 -1.4381845e-05 0 0)
(-0.42241182 -0.11845903 0 2.6578787e-05 0 0)
(-0.44204937 -0.12157151 0 -1.663222e-05 0 0)
(-0.42402017 -0.11870003 0 2.2453716e-05 0 0)
(-0.44119456 -0.12143779 0 -1.9088947e-05 0 0)
(-0.4250207 -0.1188609 0 1.9136721e-05 0 0)
(-0.44031851 -0.12130009 0 -1.7824443e-05 0 0)
(-0.42585983 -0.1189965 0 1.7113533e-05 0 0)
(-0.43951669 -0.121174 0 -1.6227601e-05 0 0)
(-0.42660378 -0.1191166 0 1.5470561e-05 0 0)
(-0.43879579 -0.12106053 0 -1.4720982e-05 0 0)
(-0.42727119 -0.11922417 0 1.4016905e-05 0 0)
(-0.43814811 -0.12095849 0 -1.3345843e-05 0 0)
(-0.42787252 -0.11932093 0 1.2703054e-05 0 0)
(-0.43756497 -0.12086654 0 -1.2093186e-05 0 0)
(-0.4284158 -0.11940823 0 1.1506407e-05 0 0)
(-0.43703867 -0.12078349 0 -1.0949322e-05 0 0)
(-0.42890771 -0.11948716 0 1.0412671e-05 0 0)
(-0.43656265 -0.12070832 0 -9.9022938e-06 0 0)
(-0.42935393 -0.11955869 0 9.410804e-06 0 0)
(-0.43613126 -0.12064015 0 -8.9432134e-06 0 0)
(-0.42975935 -0.11962361 0 8.4935209e-06 0 0)
(-0.4357397 -0.12057823 0 -8.0656514e-06 0 0)
(-0.4301282 -0.11968262 0 7.6548936e-06 0 0)
(-0.43538376 -0.12052191 0 -7.2642632e-06 0 0)
(-0.43046425 -0.11973635 0 6.8906508e-06 0 0)
(-0.4350597 -0.1204706 0 -6.536256e-06 0 0)
(-0.43077084 -0.11978533 0 6.1986254e-06 0 0)
(-0.43476419 -0.12042378 0 -5.8794419e-06 0 0)
(-0.43105101 -0.11983007 0 5.5767546e-06 0 0)
(-0.43449417 -0.12038098 0 -5.2918421e-06 0 0)
(-0.43130765 -0.11987103 0 5.0237495e-06 0 0)
(-0.43424673 -0.12034173 0 -4.7732225e-06 0 0)
(-0.43154346 -0.11990864 0 4.539225e-06 0 0)
(-0.43401913 -0.12030563 0 -4.3228395e-06 0 0)
(-0.43176108 -0.11994332 0 4.1230595e-06 0 0)
(-0.43380871 -0.12027224 0 -3.940704e-06 0 0)
(-0.43196309 -0.1199755 0 3.7753034e-06 0 0)
(-0.43361284 -0.12024117 0 -3.6275715e-06 0 0)
(-0.43215205 -0.12000555 0 3.4970266e-06 0 0)
(-0.43342892 -0.12021202 0 -3.3846581e-06 0 0)
(-0.43233055 -0.1200339 0 3.2903103e-06 0 0)
(-0.43325428 -0.12018436 0 -3.2166735e-06 0 0)
(-0.43250123 -0.12006095 0 3.1629433e-06 0 0)
(-0.4330859 -0.12015775 0 -3.1228921e-06 0 0)
(-0.43266678 -0.12008654 0 3.4079566e-06 0 0)
(-0.43292379 -0.12013314 0 -3.3799782e-06 0 0)
(-0.26654883 -0.1439084 0 -0.039396404 0 0)
(-0.40169086 -0.11450536 0 0.00033421496 0 0)
(-0.39252382 -0.11447671 0 -9.7651615e-05 0 0)
(-0.41600881 -0.11802455 0 -1.0988878e-05 0 0)
(-0.39766668 -0.11492944 0 2.3593199e-05 0 0)
(-0.41589535 -0.11793271 0 -1.3491356e-05 0 0)
(-0.39921485 -0.11516416 0 2.0140231e-05 0 0)
(-0.41512462 -0.11780573 0 -1.6653335e-05 0 0)
(-0.40014418 -0.11531933 0 1.6932508e-05 0 0)
(-0.41431533 -0.11767317 0 -1.5694628e-05 0 0)
(-0.40092079 -0.1154501 0 1.5112973e-05 0 0)
(-0.41357211 -0.11755151 0 -1.4322633e-05 0 0)
(-0.40160989 -0.11556606 0 1.3667309e-05 0 0)
(-0.41290295 -0.11744187 0 -1.3007102e-05 0 0)
(-0.40222886 -0.11567005 0 1.239083e-05 0 0)
(-0.41230112 -0.11734316 0 -1.1799887e-05 0 0)
(-0.40278716 -0.11576369 0 1.1234626e-05 0 0)
(-0.41175882 -0.11725412 0 -1.0696299e-05 0 0)
(-0.40329197 -0.11584825 0 1.0178648e-05 0 0)
(-0.41126911 -0.11717365 0 -9.6856197e-06 0 0)
(-0.4037493 -0.11592475 0 9.2108462e-06 0 0)
(-0.41082607 -0.11710078 0 -8.7579736e-06 0 0)
(-0.40416425 -0.11599409 0 8.3220297e-06 0 0)
(-0.41042459 -0.11703469 0 -7.9062873e-06 0 0)
(-0.40454121 -0.11605701 0 7.5066004e-06 0 0)
(-0.41006032 -0.11697468 0 -7.1254684e-06 0 0)
(-0.40488402 -0.11611419 0 6.7597569e-06 0 0)
(-0.40972942 -0.11692012 0 -6.4112467e-06 0 0)
(-0.4051961 -0.11616621 0 6.0781358e-06 0 0)
(-0.40942846 -0.11687046 0 -5.7615801e-06 0 0)
(-0.4054805 -0.11621359 0 5.4602693e-06 0 0)
(-0.4091544 -0.1168252 0 -5.1750149e-06 0 0)
(-0.40574003 -0.11625681 0 4.904651e-06 0 0)
(-0.40890436 -0.11678388 0 -4.6497802e-06 0 0)
(-0.40597737 -0.11629631 0 4.4101936e-06 0 0)
(-0.40867566 -0.11674606 0 -4.1860899e-06 0 0)
(-0.40619504 -0.11633253 0 3.9769614e-06 0 0)
(-0.40846573 -0.11671132 0 -3.7833548e-06 0 0)
(-0.4063955 -0.11636587 0 3.6047318e-06 0 0)
(-0.40827205 -0.11667926 0 -3.4414925e-06 0 0)
(-0.4065812 -0.11639673 0 3.2936556e-06 0 0)
(-0.40809216 -0.11664948 0 -3.1615501e-06 0 0)
(-0.40675454 -0.11642552 0 3.0449296e-06 0 0)
(-0.40792358 -0.11662158 0 -2.9444357e-06 0 0)
(-0.40691797 -0.11645263 0 2.8602046e-06 0 0)
(-0.40776379 -0.11659515 0 -2.7946385e-06 0 0)
(-0.40707399 -0.11647846 0 2.7467371e-06 0 0)
(-0.40760994 -0.11656973 0 -2.7101428e-06 0 0)
(-0.40722492 -0.11650285 0 3.0040124e-06 0 0)
(-0.40745918 -0.11654591 0 -3.0052763e-06 0 0)
(-0.25518126 -0.13680512 0 -0.035501044 0 0)
(-0.37336214 -0.11023131 0 0.00046122233 0 0)
(-0.36812735 -0.11086695 0 -8.5015262e-05 0 0)
(-0.39052666 -0.11437313 0 -6.6317817e-06 0 0)
(-0.37364219 -0.11139796 0 2.0925865e-05 0 0)
(-0.39055742 -0.11429489 0 -1.0585565e-05 0 0)
(-0.37513595 -0.11162727 0 1.797683e-05 0 0)
(-0.38986622 -0.11417456 0 -1.4390006e-05 0 0)
(-0.3760002 -0.11177695 0 1.4873216e-05 0 0)
(-0.38911935 -0.114047 0 -1.3707901e-05 0 0)
(-0.37671888 -0.11190302 0 1.324414e-05 0 0)
(-0.38843073 -0.11392964 0 -1.2543069e-05 0 0)
(-0.377357 -0.11201495 0 1.1981603e-05 0 0)
(-0.38780983 -0.11382373 0 -1.1404534e-05 0 0)
(-0.37793085 -0.11211545 0 1.0869577e-05 0 0)
(-0.38725082 -0.11372827 0 -1.0353255e-05 0 0)
(-0.37844898 -0.11220605 0 9.8600773e-06 0 0)
(-0.38674671 -0.11364208 0 -9.3884761e-06 0 0)
(-0.37891786 -0.11228791 0 8.9351545e-06 0 0)
(-0.38629127 -0.11356414 0 -8.5020161e-06 0 0)
(-0.37934282 -0.11236202 0 8.0849714e-06 0 0)
(-0.38587914 -0.11349354 0 -7.6860107e-06 0 0)
(-0.37972847 -0.11242919 0 7.3020484e-06 0 0)
(-0.38550573 -0.1134295 0 -6.9349513e-06 0 0)
(-0.38007876 -0.11249015 0 6.5821761e-06 0 0)
(-0.38516708 -0.11337138 0 -6.2450242e-06 0 0)
(-0.38039713 -0.11254551 0 5.921603e-06 0 0)
(-0.38485969 -0.11331857 0 -5.6127543e-06 0 0)
(-0.38068672 -0.11259584 0 5.3177642e-06 0 0)
(-0.38458044 -0.11327055 0 -5.0369908e-06 0 0)
(-0.38095032 -0.11264163 0 4.7698989e-06 0 0)
(-0.38432648 -0.11322683 0 -4.5166516e-06 0 0)
(-0.38119051 -0.11268333 0 4.2767931e-06 0 0)
(-0.38409518 -0.11318699 0 -4.050363e-06 0 0)
(-0.38140979 -0.11272139 0 3.8377611e-06 0 0)
(-0.38388402 -0.11315058 0 -3.6385989e-06 0 0)
(-0.3816105 -0.11275623 0 3.4528752e-06 0 0)
(-0.38369059 -0.1131172 0 -3.2808251e-06 0 0)
(-0.38179495 -0.11278823 0 3.1222292e-06 0 0)
(-0.38351253 -0.11308645 0 -2.9771638e-06 0 0)
(-0.38196546 -0.1128178 0 2.8459025e-06 0 0)
(-0.3833475 -0.11305794 0 -2.7284738e-06 0 0)
(-0.38212428 -0.11284533 0 2.6249175e-06 0 0)
(-0.38319317 -0.11303127 0 -2.5356259e-06 0 0)
(-0.38227372 -0.11287122 0 2.4608294e-06 0 0)
(-0.38304718 -0.11300605 0 -2.4027141e-06 0 0)
(-0.38241615 -0.11289587 0 2.3599902e-06 0 0)
(-0.38290681 -0.11298181 0 -2.326065e-06 0 0)
(-0.38255357 -0.11291908 0 2.621442e-06 0 0)
(-0.382767 -0.11295883 0 -2.6518282e-06 0 0)
(-0.24435625 -0.1299677 0 -0.031778582 0 0)
(-0.34660845 -0.10604529 0 0.00059581365 0 0)
(-0.34440214 -0.10724069 0 -6.7523216e-05 0 0)
(-0.36590053 -0.11072188 0 -1.3870645e-06 0 0)
(-0.35034787 -0.10786489 0 1.8757495e-05 0 0)
(-0.36603249 -0.11065804 0 -7.8740455e-06 0 0)
(-0.35178786 -0.10808939 0 1.5953777e-05 0 0)
(-0.36541577 -0.11054423 0 -1.2283732e-05 0 0)
(-0.35259226 -0.10823379 0 1.294495e-05 0 0)
(-0.36472735 -0.11042153 0 -1.1851436e-05 0 0)
(-0.35325718 -0.1083553 0 1.1494817e-05 0 0)
(-0.36408973 -0.11030835 0 -1.0877433e-05 0 0)
(-0.35384779 -0.1084633 0 1.0402635e-05 0 0)
(-0.36351393 -0.11020609 0 -9.903052e-06 0 0)
(-0.35437951 -0.10856039 0 9.4435833e-06 0 0)
(-0.36299501 -0.1101138 0 -8.9968525e-06 0 0)
(-0.35486009 -0.108648 0 8.5706995e-06 0 0)
(-0.36252671 -0.11003042 0 -8.1614914e-06 0 0)
(-0.3552953 -0.10872722 0 7.7682418e-06 0 0)
(-0.36210343 -0.10995496 0 -7.391216e-06 0 0)
(-0.35568991 -0.10879896 0 7.0282126e-06 0 0)
(-0.36172037 -0.1098866 0 -6.6798481e-06 0 0)
(-0.35604805 -0.10886401 0 6.3446374e-06 0 0)
(-0.36137336 -0.1098246 0 -6.0233625e-06 0 0)
(-0.35637326 -0.10892301 0 5.7146717e-06 0 0)
(-0.36105881 -0.10976834 0 -5.418988e-06 0 0)
(-0.35666867 -0.10897658 0 5.1354383e-06 0 0)
(-0.36077355 -0.10971727 0 -4.8640915e-06 0 0)
(-0.35693712 -0.10902522 0 4.6050794e-06 0 0)
(-0.3605147 -0.10967088 0 -4.3580959e-06 0 0)
(-0.35718117 -0.10906942 0 4.1233643e-06 0 0)
(-0.36027964 -0.1096287 0 -3.9004834e-06 0 0)
(-0.35740322 -0.10910963 0 3.6894841e-06 0 0)
(-0.36006592 -0.10959032 0 -3.4899931e-06 0 0)
(-0.35760556 -0.10914626 0 3.302885e-06 0 0)
(-0.35987119 -0.10955531 0 -3.1274451e-06 0 0)
(-0.35779041 -0.10917972 0 2.9639822e-06 0 0)
(-0.3596932 -0.10952327 0 -2.8123813e-06 0 0)
(-0.35795992 -0.10921041 0 2.6727148e-06 0 0)
(-0.35952971 -0.10949382 0 -2.5448018e-06 0 0)
(-0.35811626 -0.1092387 0 2.4292286e-06 0 0)
(-0.35937853 -0.10946656 0 -2.3257731e-06 0 0)
(-0.35826156 -0.109265 0 2.2345744e-06 0 0)
(-0.35923747 -0.10944112 0 -2.1557907e-06 0 0)
(-0.35839801 -0.10928969 0 2.0898125e-06 0 0)
(-0.35910428 -0.10941708 0 -2.038563e-06 0 0)
(-0.35852783 -0.10931316 0 2.0005337e-06 0 0)
(-0.35897642 -0.109394 0 -1.9689072e-06 0 0)
(-0.35865274 -0.10933523 0 2.2598231e-06 0 0)
(-0.35884712 -0.10937187 0 -2.3182805e-06 0 0)
(-0.23401156 -0.1233805 0 -0.028225904 0 0)
(-0.32138932 -0.1019452 0 0.00073685471 0 0)
(-0.32141716 -0.10360396 0 -4.5668613e-05 0 0)
(-0.34209694 -0.10706898 0 4.5010763e-06 0 0)
(-0.32778854 -0.10433047 0 1.7194752e-05 0 0)
(-0.34231674 -0.10702205 0 -5.3299059e-06 0 0)
(-0.32917425 -0.1045506 0 1.4064216e-05 0 0)
(-0.34177002 -0.10691468 0 -1.0323525e-05 0 0)
(-0.32992346 -0.10468991 0 1.1138173e-05 0 0)
(-0.34113647 -0.10679672 0 -1.0116512e-05 0 0)
(-0.3305384 -0.10480697 0 9.8566211e-06 0 0)
(-0.3405466 -0.10668763 0 -9.3179163e-06 0 0)
(-0.33108465 -0.10491113 0 8.9230388e-06 0 0)
(-0.34001306 -0.10658892 0 -8.4957103e-06 0 0)
(-0.33157696 -0.10500488 0 8.1062791e-06 0 0)
(-0.33953175 -0.10649975 0 -7.7245028e-06 0 0)
(-0.33202233 -0.10508956 0 7.3608342e-06 0 0)
(-0.3390971 -0.10641912 0 -7.0099549e-06 0 0)
(-0.33242593 -0.10516619 0 6.6727819e-06 0 0)
(-0.33870409 -0.10634611 0 -6.348366e-06 0 0)
(-0.332792 -0.1052356 0 6.0359561e-06 0 0)
(-0.3383484 -0.10627996 0 -5.7351809e-06 0 0)
(-0.33312425 -0.10529853 0 5.4457595e-06 0 0)
(-0.33802627 -0.10621998 0 -5.1676194e-06 0 0)
(-0.33342584 -0.1053556 0 4.9004472e-06 0 0)
(-0.33773446 -0.10616558 0 -4.6439198e-06 0 0)
(-0.33369963 -0.10540737 0 4.3979517e-06 0 0)
(-0.33747005 -0.10611623 0 -4.1620459e-06 0 0)
(-0.33394818 -0.10545435 0 3.9370313e-06 0 0)
(-0.33723041 -0.10607145 0 -3.7221184e-06 0 0)
(-0.33417385 -0.10549698 0 3.5179889e-06 0 0)
(-0.33701314 -0.1060308 0 -3.3238628e-06 0 0)
(-0.33437884 -0.1055357 0 3.1402044e-06 0 0)
(-0.33681594 -0.10599387 0 -2.9663069e-06 0 0)
(-0.3345653 -0.10557091 0 2.8034253e-06 0 0)
(-0.33663662 -0.10596024 0 -2.6504491e-06 0 0)
(-0.33473528 -0.10560302 0 2.5080119e-06 0 0)
(-0.33647307 -0.10592954 0 -2.3758381e-06 0 0)
(-0.33489082 -0.1056324 0 2.2541628e-06 0 0)
(-0.3363232 -0.10590137 0 -2.1426103e-06 0 0)
(-0.33503395 -0.10565944 0 2.0419005e-06 0 0)
(-0.33618494 -0.10587535 0 -1.9516198e-06 0 0)
(-0.33516667 -0.10568451 0 1.872078e-06 0 0)
(-0.33605621 -0.1058511 0 -1.8032665e-06 0 0)
(-0.33529105 -0.10570802 0 1.7455728e-06 0 0)
(-0.33593491 -0.10582823 0 -1.7007307e-06 0 0)
(-0.33540916 -0.10573033 0 1.6669652e-06 0 0)
(-0.33581865 -0.10580629 0 -1.6370828e-06 0 0)
(-0.33552251 -0.10575131 0 1.9182215e-06 0 0)
(-0.33569943 -0.10578503 0 -2.0052854e-06 0 0)
(-0.2240907 -0.11703036 0 -0.024839682 0 0)
(-0.29765865 -0.097928531 0 0.0008837489 0 0)
(-0.29923098 -0.099961869 0 -1.9949612e-05 0 0)
(-0.3190918 -0.10341348 0 1.0803447e-05 0 0)
(-0.30596644 -0.10079484 0 1.6243948e-05 0 0)
(-0.31940664 -0.10338687 0 -2.941226e-06 0 0)
(-0.30729819 -0.10101096 0 1.2295611e-05 0 0)
(-0.31892618 -0.10328585 0 -8.498231e-06 0 0)
(-0.30799648 -0.10114535 0 9.4419973e-06 0 0)
(-0.31834425 -0.10317251 0 -8.4934318e-06 0 0)
(-0.30856486 -0.10125808 0 8.3201679e-06 0 0)
(-0.31779917 -0.10306741 0 -7.8558473e-06 0 0)
(-0.30906963 -0.10135849 0 7.5346021e-06 0 0)
(-0.31730531 -0.10297218 0 -7.1748218e-06 0 0)
(-0.30952498 -0.10144897 0 6.8504644e-06 0 0)
(-0.31685937 -0.10288608 0 -6.5294055e-06 0 0)
(-0.30993729 -0.10153076 0 6.2239342e-06 0 0)
(-0.31645641 -0.10280816 0 -5.9277418e-06 0 0)
(-0.31031114 -0.10160482 0 5.6430476e-06 0 0)
(-0.31609194 -0.10273758 0 -5.3680627e-06 0 0)
(-0.31065034 -0.10167193 0 5.1031301e-06 0 0)
(-0.31576208 -0.10267362 0 -4.847148e-06 0 0)
(-0.31095817 -0.10173276 0 4.6007888e-06 0 0)
(-0.31546345 -0.10261564 0 -4.3634087e-06 0 0)
(-0.3112375 -0.10178792 0 4.1353593e-06 0 0)
(-0.3151931 -0.10256308 0 -3.9158706e-06 0 0)
(-0.31149088 -0.10183791 0 3.705432e-06 0 0)
(-0.31494837 -0.10251545 0 -3.5031414e-06 0 0)
(-0.31172067 -0.10188322 0 3.310302e-06 0 0)
(-0.31472686 -0.10247228 0 -3.1257634e-06 0 0)
(-0.31192902 -0.1019243 0 2.9506567e-06 0 0)
(-0.31452634 -0.10243315 0 -2.7838832e-06 0 0)
(-0.31211797 -0.10196153 0 2.6261583e-06 0 0)
(-0.31434468 -0.10239765 0 -2.4765705e-06 0 0)
(-0.31228952 -0.10199534 0 2.3366317e-06 0 0)
(-0.31417983 -0.1023654 0 -2.2050829e-06 0 0)
(-0.31244557 -0.1020261 0 2.0826953e-06 0 0)
(-0.31402982 -0.10233601 0 -1.9689903e-06 0 0)
(-0.31258805 -0.10205419 0 1.8643591e-06 0 0)
(-0.31389267 -0.1023091 0 -1.7682954e-06 0 0)
(-0.31271884 -0.10207999 0 1.6816941e-06 0 0)
(-0.31376644 -0.1022843 0 -1.6039994e-06 0 0)
(-0.31283985 -0.10210387 0 1.5355203e-06 0 0)
(-0.31364919 -0.10226123 0 -1.4761061e-06 0 0)
(-0.312953 -0.10212622 0 1.4262127e-06 0 0)
(-0.31353894 -0.10223951 0 -1.3873387e-06 0 0)
(-0.31306026 -0.1021474 0 1.3575421e-06 0 0)
(-0.31343344 -0.10221868 0 -1.3292511e-06 0 0)
(-0.3131629 -0.1021673 0 1.5964133e-06 0 0)
(-0.31332382 -0.1021983 0 -1.7114994e-06 0 0)
(-0.21454085 -0.11090466 0 -0.021616085 0 0)
(-0.27536635 -0.093991793 0 0.0010368385 0 0)
(-0.27788134 -0.096318781 0 8.4608927e-06 0 0)
(-0.29687525 -0.099755531 0 1.7283582e-05 0 0)
(-0.28488299 -0.097258076 0 1.5812772e-05 0 0)
(-0.29729926 -0.099752454 0 -7.108034e-07 0 0)
(-0.28616228 -0.097470518 0 1.0632466e-05 0 0)
(-0.2968818 -0.099657668 0 -6.7970667e-06 0 0)
(-0.2868136 -0.09760017 0 7.8465064e-06 0 0)
(-0.29634855 -0.099548857 0 -6.9728792e-06 0 0)
(-0.2873386 -0.097708673 0 6.8766409e-06 0 0)
(-0.2958456 -0.099447667 0 -6.4829775e-06 0 0)
(-0.2878045 -0.097805407 0 6.2295309e-06 0 0)
(-0.29538906 -0.099355863 0 -5.9330477e-06 0 0)
(-0.28822515 -0.097892667 0 5.6691808e-06 0 0)
(-0.29497643 -0.099272772 0 -5.4050264e-06 0 0)
(-0.28860634 -0.097971618 0 5.1539687e-06 0 0)
(-0.29460337 -0.099197528 0 -4.9091084e-06 0 0)
(-0.28895216 -0.098043139 0 4.6735665e-06 0 0)
(-0.29426586 -0.099129353 0 -4.4451272e-06 0 0)
(-0.289266 -0.098107961 0 4.2248052e-06 0 0)
(-0.29396042 -0.099067565 0 -4.011146e-06 0 0)
(-0.28955077 -0.098166716 0 3.8053819e-06 0 0)
(-0.293684 -0.099011572 0 -3.6065412e-06 0 0)
(-0.28980907 -0.098219958 0 3.4154803e-06 0 0)
(-0.29343394 -0.098960851 0 -3.2311165e-06 0 0)
(-0.29004318 -0.098268181 0 3.054298e-06 0 0)
(-0.29320782 -0.098914923 0 -2.8839123e-06 0 0)
(-0.29025527 -0.098311842 0 2.7215909e-06 0 0)
(-0.29300343 -0.098873353 0 -2.5660014e-06 0 0)