/*--------------------------------*- C++ -*----------------------------------*\
| =========                 |                                                 |
| \\      /  F ield         | OpenFOAM: The Open Source CFD Toolbox           |
|  \\    /   O peration     | Version:  2312                                  |
|   \\  /    A nd           | Website:  www.openfoam.com                      |
|    \\/     M anipulation  |                                                 |
\*---------------------------------------------------------------------------*/
FoamFile
{
    version     2.0;
    format      ascii;
    arch        "LSB;label=32;scalar=64";
    class       volScalarField;
    location    "1";
    object      T;
}
// * * * * * * * * * * * * * * * * * * * * * * * * * * * * * * * * * * * * * //

dimensions      [0 0 0 1 0 0 0];

internalField   nonuniform List<scalar> 
4000
(
329.27841
328.41755
328.29744
328.22166
328.16673
328.11657
328.077
328.03683
328.00258
327.96548
327.93248
327.89647
327.86399
327.82877
327.79663
327.76197
327.72997
327.69564
327.66361
327.62947
327.59735
327.56336
327.53113
327.49725
327.46492
327.43113
327.39872
327.36502
327.33251
327.29889
327.26632
327.23277
327.20013
327.16664
327.13394
327.1005
327.06776
327.03436
327.00158
326.96822
326.93541
326.90206
326.86925
326.8359
326.80311
326.76969
326.73702
326.70342
326.67105
326.63668
331.02153
329.28568
328.99509
328.83584
328.73887
328.65615
328.60519
328.55254
328.51763
328.47429
328.44319
328.40313
328.37357
328.33587
328.30738
328.27136
328.24328
328.20827
328.18012
328.1457
328.11728
328.08327
328.05453
328.02086
327.99182
327.95844
327.92913
327.89601
327.86645
327.83356
327.80379
327.7711
327.74114
327.70863
327.6785
327.64615
327.61588
327.58365
327.55327
327.52114
327.49067
327.4586
327.42811
327.39602
327.36562
327.33333
327.30327
327.27045
327.24129
327.2062
332.28204
330.14178
329.69029
329.44875
329.30952
329.1939
329.13092
329.06556
329.02969
328.9801
328.95072
328.90659
328.87979
328.83959
328.81459
328.77723
328.75296
328.71729
328.69293
328.65826
328.63347
328.59948
328.57418
328.54075
328.51495
328.482
328.45575
328.42323
328.39657
328.36443
328.33742
328.30562
328.27829
328.24678
328.21918
328.18792
328.16009
328.12904
328.10102
328.07013
328.04198
328.01119
327.983
327.95216
327.92414
327.89297
327.8655
327.83345
327.80748
327.77183
333.22744
330.9728
330.37919
330.05837
329.87705
329.72827
329.65241
329.57403
329.53675
329.48093
329.45297
329.40481
329.38046
329.33776
329.31598
329.27731
329.25664
329.22038
329.19968
329.16482
329.14355
329.10965
329.08767
329.05454
329.03188
328.99941
328.97613
328.94426
328.92042
328.88907
328.86474
328.83385
328.80909
328.77861
328.75347
328.72333
328.69788
328.66802
328.64232
328.61268
328.5868
328.55729
328.53136
328.50178
328.47609
328.44604
328.42113
328.38984
328.367
328.33102
333.95703
331.76573
331.05648
330.66188
330.43937
330.25749
330.1678
330.07613
330.03684
329.97485
329.94794
329.8958
329.87349
329.82831
329.80939
329.76944
329.75212
329.71535
329.69808
329.66315
329.64521
329.6115
329.5927
329.55996
329.5403
329.50839
329.48796
329.45679
329.43566
329.40515
329.38341
329.35348
329.33119
329.30176
329.27901
329.25001
329.22687
329.19822
329.17476
329.14639
329.12271
329.09448
329.07076
329.04243
329.01902
328.99008
328.96768
328.93717
328.91736
328.88133
334.5326
332.50926
331.71595
331.25576
330.99397
330.77955
330.67517
330.56999
330.52806
330.46
330.43372
330.37766
330.35694
330.30927
330.29278
330.25161
330.23729
330.20012
330.18603
330.15114
330.13633
330.10292
330.08711
330.05485
330.03804
330.00678
329.98904
329.95866
329.9401
329.91049
329.89121
329.86227
329.84236
329.81402
329.79355
329.76572
329.74479
329.71737
329.69607
329.66897
329.64742
329.62049
329.59889
329.57182
329.55063
329.52279
329.50283
329.47312
329.45618
329.42042
334.99439
333.19467
332.35091
331.83591
331.53801
331.29233
331.17258
331.05381
331.00857
330.93462
330.90849
330.84864
330.82897
330.77885
330.76429
330.72194
330.71023
330.67276
330.66155
330.62684
330.61491
330.58193
330.56889
330.53725
330.52308
330.49256
330.47735
330.44783
330.43169
330.40304
330.38608
330.3582
330.34052
330.31332
330.29501
330.26838
330.24955
330.22339
330.20414
330.17834
330.15881
330.13318
330.11363
330.08781
330.06876
330.04203
330.02441
329.99553
329.9813
329.94612
335.36972
333.81612
332.95484
332.39793
332.06841
331.79352
331.65809
331.52583
331.47665
331.39703
331.37061
331.30713
331.28796
331.23539
331.22221
331.17872
331.16919
331.13151
331.12287
331.08845
331.07914
331.04673
331.03624
331.00532
330.99359
330.96392
330.95105
330.92247
330.90857
330.88096
330.86616
330.8394
330.8238
330.79778
330.7815
330.7561
330.73925
330.71437
330.69706
330.67257
330.65496
330.63064
330.61304
330.58847
330.57146
330.54584
330.53046
330.50245
330.49071
330.45642
335.67787
334.37067
333.52183
332.93735
332.58195
332.28078
332.12976
331.98434
331.93067
331.8457
331.81855
331.75164
331.73241
331.67742
331.66505
331.62044
331.61262
331.57483
331.56838
331.5344
331.52743
331.49571
331.48753
331.45745
331.44794
331.41921
331.40848
331.38093
331.3691
331.34259
331.32978
331.30419
331.29053
331.26572
331.25133
331.2272
331.21219
331.18861
331.17312
331.14994
331.13415
331.11114
331.09538
331.07205
331.05699
331.03248
331.0192
330.99212
330.98263
330.94951
335.93292
334.85802
334.047
333.44987
333.07537
332.7517
332.58571
332.42775
332.36915
332.27923
332.25096
332.18088
332.16106
332.10368
332.09151
332.04578
332.03916
332.00134
331.99672
331.9633
331.95836
331.92748
331.92134
331.89221
331.88471
331.85702
331.84822
331.82178
331.81182
331.78648
331.7755
331.75111
331.73923
331.71568
331.70303
331.68018
331.66689
331.64462
331.63083
331.60897
331.59488
331.57316
331.55914
331.53705
331.52382
331.50042
331.48912
331.46303
331.45553
331.42382
336.14546
335.28015
334.52679
333.93164
333.54559
333.20394
333.02413
332.85454
332.79073
332.69634
332.66666
332.59372
332.57279
332.51308
332.50049
332.45363
332.44771
332.4099
332.40672
332.37397
332.37076
332.34082
332.33647
332.30842
332.30268
332.27613
332.26906
332.2438
332.23553
332.2114
332.20207
332.17894
332.16868
332.14641
332.13535
332.11381
332.1021
332.08114
332.06891
332.04838
332.03586
332.01544
332.00304
331.98217
331.97066
331.94838
331.93889
331.91386
331.9081
331.87799
336.32369
335.64085
334.95911
334.37946
333.98977
333.63529
333.44334
333.26333
333.19421
333.09593
333.06463
332.98919
332.96672
332.90471
332.89112
332.8431
332.83735
332.79959
332.79744
332.76545
332.76367
332.73479
332.73197
332.70509
332.70089
332.67555
332.67
332.64599
332.63921
332.61636
332.6085
332.58666
332.57786
332.55689
332.54728
332.52705
332.51678
332.49714
332.48635
332.46713
332.45607
332.43693
332.42604
332.40638
332.39645
332.3753
332.36746
332.34356
332.33928
332.31093
336.47403
335.94524
335.34337
334.79095
334.40547
334.04374
333.84179
333.65288
333.57855
333.47705
333.44402
333.36652
333.34212
333.27791
333.26274
333.2135
333.20739
333.16968
333.16818
333.13701
333.13635
333.10862
333.10709
333.08146
333.07857
333.05453
333.05029
333.02758
333.02212
333.00057
332.99402
332.97349
332.966
332.94634
332.93804
332.91912
332.91015
332.89183
332.88235
332.86442
332.8547
332.83682
332.82732
332.80885
332.80039
332.78037
332.77401
332.75131
332.74825
332.72177
336.60164
336.19928
335.68038
335.16466
334.7908
334.42753
334.21816
334.02212
333.94289
333.83892
333.80417
333.72508
333.69849
333.63216
333.61488
333.56435
333.55737
333.51968
333.51844
333.48813
333.4883
333.46178
333.4613
333.43698
333.43521
333.41251
333.4094
333.38803
333.3837
333.36349
333.35809
333.33888
333.33254
333.31421
333.30707
333.28946
333.28166
333.26464
333.25635
333.2397
333.23119
333.21454
333.20631
333.18902
333.18189
333.163
333.15796
333.13651
333.13446
333.1099
336.71067
336.40934
335.97216
335.5001
335.14445
334.7853
334.57135
334.37017
334.28653
334.18094
334.14458
334.06444
334.03547
333.96714
333.94728
333.89538
333.88703
333.84929
333.84793
333.81849
333.81922
333.79396
333.79429
333.77135
333.77049
333.74916
333.74701
333.727
333.72365
333.70479
333.70038
333.6825
333.67718
333.66015
333.65404
333.63773
333.63098
333.61523
333.60801
333.5926
333.5852
333.56976
333.56268
333.54654
333.5406
333.52286
333.51896
333.49882
333.49755
333.47495
336.80445
336.58179
336.22173
335.79771
335.46575
335.11606
334.90053
334.69635
334.60899
334.50266
334.46492
334.38432
334.35288
334.28271
334.25986
334.20648
334.1963
334.15842
334.15657
334.12799
334.12901
334.10503
334.10598
334.08443
334.0843
334.06438
334.06301
334.04438
334.04186
334.02434
334.02078
334.00423
333.99978
333.98405
333.97884
333.9638
333.95798
333.94347
333.93721
333.92301
333.91661
333.90233
333.8963
333.88128
333.87642
333.85981
333.85689
333.8381
333.83743
333.81675
336.88572
336.72274
336.4328
336.05876
335.75469
335.41927
335.20518
335.00022
334.90997
334.80382
334.76504
334.68459
334.65072
334.57889
334.5527
334.49774
334.4853
334.44716
334.44448
334.4167
334.41776
334.39507
334.39643
334.3763
334.37674
334.35823
334.35749
334.34024
334.3384
334.32222
334.31938
334.30413
334.30044
334.28597
334.28156
334.26775
334.26275
334.24945
334.24404
334.23101
334.2255
334.21235
334.20726
334.19333
334.1894
334.17394
334.17183
334.15441
334.15419
334.13539
336.95667
336.83779
336.60952
336.28526
336.01191
335.69484
335.48508
335.28157
335.18936
335.08435
335.04495
334.9653
334.92911
334.85583
334.82605
334.7694
334.7543
334.71577
334.71193
334.68489
334.68576
334.66434
334.66594
334.64722
334.64807
334.63096
334.63073
334.61483
334.61355
334.59868
334.59645
334.58247
334.57942
334.56619
334.56246
334.54985
334.54556
334.53342
334.52877
334.51687
334.51215
334.50008
334.49582
334.48295
334.47985
334.46551
334.46408
334.44802
334.44812
334.43113
337.01906
336.93194
336.75623
336.47975
336.2386
335.94313
335.74037
335.54043
335.44728
335.34434
335.30479
335.2266
335.18831
335.11383
335.08027
335.02185
335.00373
334.96465
334.95935
334.93297
334.93344
334.91324
334.91493
334.89758
334.89872
334.88299
334.88314
334.86858
334.86774
334.85415
334.85243
334.83967
334.83717
334.82513
334.82198
334.81052
334.80686
334.79583
334.79184
334.78101
334.777
334.76596
334.76243
334.75059
334.74819
334.73496
334.73407
334.71938
334.71968
334.70442
337.07431
337.00945
336.87722
336.64516
336.43642
336.16493
335.97148
335.77707
335.68401
335.58405
335.54488
335.46881
335.42871
335.35331
335.31587
335.25559
335.23415
335.19436
335.18733
335.16148
335.16136
335.14232
335.14396
335.12796
335.12927
335.11488
335.11531
335.10204
335.10155
335.0892
335.08788
335.07631
335.07427
335.06336
335.06072
335.05035
335.04724
335.03726
335.03385
335.02404
335.02064
335.01059
335.0077
334.99684
334.99504
334.9829
334.98243
334.96908
334.9695
334.95586
337.12357
337.07388
336.97657
336.78464
336.60742
336.36137
336.17913
335.99201
335.90004
335.80389
335.76566
335.69233
335.6508
335.57478
335.53343
335.47122
335.44623
335.40554
335.39655
335.3711
335.37023
335.35227
335.35374
335.33903
335.34042
335.32732
335.32794
335.31592
335.31569
335.30453
335.30353
335.29309
335.29143
335.2816
335.27939
335.27005
335.2674
335.25843
335.25552
335.24667
335.24381
335.23469
335.23236
335.22244
335.22114
335.21006
335.20991
335.19785
335.19833
335.18619
337.16772
337.12813
337.058
336.90139
336.75393
336.53392
336.36432
336.18596
336.09603
336.00444
335.96769
335.89772
335.85517
335.77883
335.73363
335.66945
335.64071
335.59896
335.58779
335.56261
335.56083
335.54387
335.54507
335.53159
335.53296
335.5211
335.52184
335.511
335.51097
335.50093
335.50019
335.49082
335.48947
335.48066
335.47881
335.47045
335.4682
335.46015
335.45769
335.44973
335.44735
335.4391
335.43725
335.42823
335.42733
335.41728
335.41736
335.40653
335.40704
335.39628
337.20749
337.17448
337.12483
336.99857
336.87841
336.68427
336.52828
336.35984
336.27279
336.18641
336.15168
336.08561
336.04248
335.96615
335.91721
335.85104
335.81841
335.77543
335.76192
335.73686
335.73405
335.71798
335.71882
335.70649
335.70779
335.69711
335.6979
335.68818
335.68829
335.6793
335.67877
335.6704
335.66931
335.66145
335.65989
335.65244
335.65054
335.64336
335.64128
335.63416
335.63218
335.62476
335.6233
335.61515
335.61457
335.6055
335.60574
335.59608
335.59657
335.58709
337.24344
337.21466
337.17991
337.07911
336.98339
336.81429
336.6724
336.51472
336.43128
336.35062
336.3184
336.2567
336.21346
336.13746
336.08496
336.0168
335.98021
335.93585
335.91985
335.89476
335.89082
335.87554
335.87595
335.86469
335.86586
335.85628
335.85707
335.84841
335.8486
335.84061
335.84023
335.83279
335.83191
335.82493
335.82363
335.81703
335.81541
335.80904
335.80729
335.80094
335.79931
335.79265
335.79153
335.78419
335.78386
335.77573
335.77607
335.7675
335.76796
335.75963
337.27601
337.25
337.22564
337.14574
337.07134
336.92592
336.7982
336.6518
336.57254
336.49802
336.46872
336.4118
336.3689
336.29354
336.23771
336.16757
336.127
336.08112
336.06254
336.03727
336.03212
336.01752
336.01746
336.00717
336.00818
335.99961
336.00038
335.99269
335.99293
335.98587
335.98559
335.97902
335.9783
335.97215
335.97105
335.96522
335.96386
335.95823
335.95675
335.95112
335.94979
335.94384
335.943
335.93642
335.93628
335.92903
335.92942
335.92187
335.92228
335.915
337.30556
337.28143
337.26397
337.20085
337.14462
337.02113
336.90729
336.77238
336.69773
336.6296
336.60358
336.55176
336.50962
336.43519
336.37629
336.30424
336.25971
336.21219
336.19097
336.16538
336.15896
336.14493
336.14435
336.13496
336.13576
336.12814
336.12884
336.12206
336.12232
336.1161
336.11591
336.11014
336.10954
336.10414
336.10322
336.0981
336.09694
336.092
336.09076
336.08578
336.0847
336.07941
336.07879
336.07293
336.07293
336.0665
336.06691
336.06029
336.06065
336.05431
337.33237
337.30965
337.29645
337.24653
337.20544
337.10187
337.0013
336.87782
336.80806
336.74644
336.72398
336.67748
336.63649
336.56326
336.50156
336.42767
336.37925
336.33001
336.30612
336.2801
336.27237
336.25879
336.25767
336.24907
336.24966
336.24289
336.24352
336.23756
336.23783
336.23238
336.23224
336.2272
336.22671
336.22199
336.22121
336.21674
336.21576
336.21143
336.21039
336.20601
336.20514
336.20046
336.20002
336.19481
336.19491
336.18925
336.18965
336.18388
336.18419
336.17868
337.35667
337.33511
337.3243
337.28455
337.25577
337.16998
337.08184
336.96948
336.90474
336.84966
336.83094
336.78988
336.75038
336.67856
336.61437
336.53872
336.48653
336.43552
336.40896
336.3824
336.37334
336.36012
336.35844
336.35056
336.35092
336.34493
336.34546
336.34026
336.3405
336.33576
336.33566
336.33127
336.33086
336.32676
336.3261
336.32221
336.32138
336.31761
336.31674
336.3129
336.31221
336.30808
336.30778
336.30319
336.30335
336.29839
336.29877
336.29377
336.29402
336.28926
337.37865
337.35814
337.34843
337.31638
337.29737
337.22719
337.15047
337.04874
336.98904
336.94037
336.92551
336.88991
336.85217
336.78194
336.71555
336.63826
336.58245
336.52964
336.50046
336.47326
336.46289
336.44993
336.44769
336.44043
336.44055
336.43526
336.4357
336.43117
336.43139
336.42728
336.4272
336.42341
336.42306
336.41952
336.41895
336.41559
336.41488
336.41161
336.41089
336.40754
336.40699
336.40336
336.40318
336.39915
336.39934
336.39502
336.39537
336.39105
336.39126
336.38716
337.39844
337.37896
337.36952
337.34319
337.33175
337.27507
337.20866
337.11693
337.06215
337.01972
337.00873
336.97852
336.94274
336.87423
336.80593
336.72711
336.66787
336.61327
336.58153
336.55365
336.54198
336.52919
336.5264
336.51968
336.51957
336.51491
336.51524
336.51132
336.5115
336.50797
336.5079
336.50464
336.50434
336.50129
336.5008
336.49791
336.49731
336.49448
336.49388
336.49097
336.49054
336.48737
336.48727
336.48375
336.48396
336.48022
336.48052
336.47682
336.47699
336.47347
337.41619
337.39772
337.38808
337.36595
337.36022
337.31503
337.25778
337.17529
337.12527
337.08879
337.08162
337.05666
337.02296
336.95623
336.88629
336.80606
336.74362
336.68726
336.65308
336.62446
336.61154
336.59886
336.59553
336.58928
336.58895
336.58483
336.58506
336.58169
336.58183
336.5788
336.57873
336.57595
336.57568
336.57308
336.57266
336.57018
336.56967
336.56724
336.56674
336.56422
336.56389
336.56113
336.56109
336.55803
336.55824
336.55502
336.55528
336.55211
336.55225
336.54924
337.43197
337.41453
337.40446
337.3854
337.38384
337.34833
337.29908
337.22504
337.17952
337.14867
337.1452
337.12524
337.09366
337.02873
336.95739
336.87589
336.81048
336.75243
336.71595
336.68658
336.67246
336.65983
336.656
336.65014
336.6496
336.64597
336.6461
336.6432
336.6433
336.64073
336.64066
336.63829
336.63805
336.63584
336.63547
336.63336
336.63292
336.63084
336.63043
336.62826
336.628
336.62562
336.62561
336.62297
336.62318
336.62042
336.62064
336.61794
336.61805
336.61549
337.44588
337.42948
337.41892
337.4021
337.40351
337.37602
337.33368
337.26725
337.22596
337.20037
337.20041
337.18514
337.15566
337.09247
337.01995
336.93731
336.86919
336.80955
336.77094
336.74082
336.7256
336.71297
336.70866
336.70314
336.7024
336.69919
336.69924
336.69676
336.69682
336.69464
336.69456
336.69256
336.69235
336.69047
336.69015
336.68837
336.68799
336.68622
336.68588
336.68402
336.68382
336.68176
336.68179
336.67952
336.67971
336.67735
336.67754
336.67525
336.67534
336.67316
337.45799
337.44264
337.43165
337.41651
337.41995
337.39903
337.36256
337.30293
337.26557
337.24483
337.24818
337.23722
337.20972
337.14818
337.07466
336.99101
336.92045
336.85935
336.8188
336.78798
336.77173
336.75908
336.75433
336.7491
336.74817
336.74534
336.7453
336.74319
336.74321
336.74137
336.7413
336.73961
336.73942
336.73784
336.73756
336.73605
336.73573
336.73423
336.73394
336.73236
336.73221
336.73044
336.73048
336.72855
336.72871
336.72672
336.72687
336.72494
336.72501
336.72316
337.46835
337.45408
337.44279
337.42895
337.43373
337.41814
337.3866
337.33298
337.29923
337.28296
337.28934
337.28227
337.25658
337.19653
337.12216
337.03762
336.96491
336.9025
336.86022
336.82876
336.81159
336.79892
336.79377
336.78879
336.78769
336.78518
336.78507
336.78327
336.78327
336.78172
336.78164
336.78023
336.78005
336.77873
336.77849
336.77722
336.77694
336.77568
336.77544
336.77409
336.77398
336.77247
336.77252
336.77088
336.77102
336.76934
336.76946
336.76784
336.76789
336.76633
337.47703
337.46388
337.45246
337.43971
337.44531
337.43398
337.40652
337.35818
337.32777
337.31556
337.32467
337.32102
337.2969
337.23815
337.16303
337.07773
337.00316
336.93963
336.89585
336.86383
336.84587
336.83316
336.82768
336.8229
336.82167
336.81943
336.81925
336.81772
336.8177
336.8164
336.81632
336.81514
336.81499
336.81389
336.81367
336.81261
336.81238
336.81131
336.81111
336.80997
336.80989
336.80861
336.80866
336.80727
336.80739
336.80598
336.80607
336.80472
336.80475
336.80345
337.48412
337.47214
337.46076
337.44897
337.45506
337.44709
337.42297
337.37924
337.35189
337.34337
337.3549
337.35416
337.3313
337.27361
337.19784
337.1119
337.03578
336.97132
336.92628
336.89382
336.87519
336.86247
336.8567
336.8521
336.85075
336.84874
336.84851
336.84722
336.84717
336.84609
336.84601
336.84504
336.84489
336.84398
336.84379
336.84291
336.84271
336.84182
336.84165
336.84069
336.84063
336.83955
336.8396
336.83843
336.83853
336.83735
336.83742
336.83629
336.83632
336.83523
337.48971
337.47895
337.46779
337.45692
337.46327
337.4579
337.43647
337.39676
337.37224
337.36704
337.38066
337.3823
337.36037
337.30346
337.22708
337.14064
337.06326
336.9981
336.95207
336.91928
336.90013
336.88742
336.88141
336.87698
336.87553
336.87372
336.87345
336.87236
336.87229
336.8714
336.87132
336.87051
336.87038
336.86963
336.86946
336.86873
336.86856
336.86782
336.86768
336.86688
336.86683
336.86592
336.86597
336.86499
336.86507
336.86409
336.86415
336.86321
336.86322
336.86231
337.49393
337.48443
337.47364
337.46369
337.47017
337.46676
337.44748
337.41128
337.38938
337.38715
337.40252
337.40598
337.3846
337.32819
337.25124
337.16442
337.08608
337.02046
336.9737
336.94073
336.92119
336.90853
336.90236
336.89808
336.89656
336.89492
336.89462
336.89369
336.89361
336.89287
336.89279
336.89213
336.89201
336.8914
336.89125
336.89065
336.8905
336.88989
336.88977
336.8891
336.88906
336.8883
336.88835
336.88753
336.8876
336.88679
336.88682
336.88605
336.88606
336.8853
337.49692
337.4887
337.47843
337.46941
337.47593
337.47397
337.45637
337.42323
337.40378
337.40421
337.42096
337.42568
337.40445
337.34823
337.27074
337.18366
337.10467
337.03884
336.99164
336.95863
336.93887
336.9263
336.92002
336.91589
336.91431
336.91282
336.91249
336.91171
336.91162
336.91101
336.91093
336.9104
336.91029
336.90978
336.90966
336.90916
336.90904
336.90853
336.90844
336.90787
336.90785
336.90722
336.90725
336.90658
336.90663
336.90596
336.90599
336.90535
336.90535
336.90473
337.49888
337.49192
337.48226
337.47419
337.48071
337.47976
337.46344
337.433
337.41587
337.41864
337.43642
337.44183
337.42032
337.36399
337.28596
337.19877
337.11944
337.05366
337.00629
336.97342
336.95357
336.94115
336.93482
336.93083
336.92922
336.92787
336.92752
336.92685
336.92676
336.92626
336.92619
336.92575
336.92565
336.92524
336.92513
336.92473
336.92462
336.9242
336.92413
336.92366
336.92364
336.92312
336.92315
336.92259
336.92263
336.92208
336.9221
336.92158
336.92158
336.92106
337.49999
337.49421
337.48523
337.47813
337.48462
337.48431
337.46897
337.44092
337.42598
337.43082
337.44923
337.45477
337.43256
337.37581
337.29726
337.21011
337.13075
337.06529
337.01803
336.98546
336.96567
336.95347
336.94715
336.9433
336.94168
336.94044
336.94009
336.93952
336.93942
336.93902
336.93895
336.93859
336.93851
336.93818
336.93808
336.93775
336.93766
336.93732
336.93725
336.93687
336.93686
336.93642
336.93645
336.93599
336.93602
336.93557
336.93558
336.93516
336.93516
336.93473
337.50043
337.49572
337.48746
337.48133
337.48777
337.48778
337.47315
337.44726
337.43442
337.44103
337.45969
337.46479
337.44146
337.38401
337.30498
337.21803
337.13894
337.07408
337.02721
336.99511
336.97553
336.96359
336.95734
336.95364
336.95203
336.9509
336.95054
336.95006
336.94996
336.94963
336.94956
336.94928
336.9492
336.94894
336.94885
336.94859
336.94851
336.94823
336.94818
336.94786
336.94785
336.94749
336.94751
336.94714
336.94716
336.9468
336.94681
336.94646
336.94645
336.94611
337.50037
337.49658
337.48906
337.48388
337.49022
337.49028
337.47617
337.45224
337.44142
337.44951
337.46803
337.47214
337.44727
337.38888
337.3094
337.22282
337.14433
337.08034
337.03413
337.00267
336.98344
336.97183
336.96569
336.96216
336.96057
336.95953
336.95918
336.95877
336.95867
336.9584
336.95834
336.95811
336.95804
336.95783
336.95776
336.95755
336.95748
336.95725
336.95721
336.95695
336.95694
336.95665
336.95667
336.95637
336.95638
336.95609
336.95609
336.9558
336.9558
336.95552
337.49996
337.49691
337.49012
337.48586
337.49206
337.49192
337.47817
337.45606
337.44717
337.45645
337.47441
337.47699
337.45021
337.39066
337.3108
337.2248
337.14721
337.08437
337.03907
337.00842
336.98966
336.97844
336.97247
336.96911
336.96757
336.96661
336.96626
336.96591
336.96582
336.9656
336.96555
336.96536
336.96531
336.96513
336.96507
336.9649
336.96485
336.96466
336.96463
336.96442
336.96441
336.96417
336.96419
336.96394
336.96395
336.96371
336.96371
336.96348
336.96348
336.96325
337.49931
337.49682
337.49073
337.48733
337.49331
337.49276
337.47927
337.45887
337.45181
337.46197
337.47896
337.47949
337.45046
337.38958
337.30944
337.22422
337.14785
337.08643
337.04229
337.0126
336.99444
336.98366
336.97791
336.97472
336.97324
336.97236
336.97203
336.97173
336.97164
336.97146
336.97141
336.97127
336.97122
336.97108
336.97103
336.97089
336.97085
336.9707
336.97067
336.9705
336.97049
336.9703
336.97031
336.97011
336.97012
336.96993
336.96992
336.96974
336.96974
336.96955
337.4985
337.4964
337.49097
337.48834
337.49402
337.49289
337.47957
337.46079
337.45545
337.46616
337.48173
337.47975
337.44817
337.38585
337.30556
337.22137
337.14652
337.08678
337.04402
337.01544
336.99799
336.9877
336.98221
336.9792
336.97779
336.97698
336.97666
336.97641
336.97632
336.97618
336.97614
336.97602
336.97598
336.97587
336.97583
336.97572
336.97568
336.97556
336.97554
336.9754
336.97539
336.97524
336.97525
336.97509
336.97509
336.97494
336.97493
336.97479
336.97478
336.97463
337.49756
337.4957
337.4909
337.48895
337.49422
337.49232
337.47913
337.4619
337.45815
337.46906
337.48278
337.47784
337.44347
337.37967
337.29939
337.21647
337.14345
337.08564
337.04448
337.01713
337.00048
336.99073
336.98552
336.9827
336.98138
336.98064
336.98034
336.98012
336.98004
336.97993
336.97989
336.9798
336.97976
336.97968
336.97964
336.97955
336.97952
336.97943
336.97941
336.9793
336.97929
336.97917
336.97917
336.97905
336.97905
336.97893
336.97892
336.9788
336.9788
336.97868
337.49652
337.49479
337.49058
337.48917
337.49389
337.4911
337.47802
337.46226
337.45994
337.47066
337.48211
337.47381
337.43647
337.37121
337.29116
337.20978
337.13887
337.08322
337.04385
337.01785
337.00208
336.99291
336.98801
336.98539
336.98415
336.98348
336.98321
336.98301
336.98294
336.98285
336.98282
336.98274
336.98272
336.98265
336.98262
336.98255
336.98252
336.98244
336.98243
336.98234
336.98234
336.98224
336.98224
336.98214
336.98214
336.98204
336.98204
336.98194
336.98194
336.98184
337.49539
337.49371
337.49004
337.48901
337.49305
337.48924
337.47626
337.46191
337.46081
337.47093
337.47968
337.4677
337.42729
337.36066
337.28107
337.20153
337.13301
337.07974
337.0423
337.01776
337.00294
336.99436
336.9898
336.98737
336.98623
336.98562
336.98537
336.9852
336.98514
336.98506
336.98504
336.98498
336.98496
336.9849
336.98488
336.98482
336.9848
336.98474
336.98473
336.98466
336.98466
336.98457
336.98458
336.9845
336.9845
336.98442
336.98442
336.98434
336.98434
336.98426
337.49417
337.49248
337.48929
337.48847
337.49166
337.48674
337.47388
337.46085
337.46072
337.46982
337.47547
337.45954
337.41604
337.34819
337.26936
337.19193
337.12607
337.07536
337.04001
337.01698
337.00315
336.9952
336.99099
336.98876
336.98771
336.98716
336.98694
336.98679
336.98674
336.98667
336.98666
336.9866
336.98659
336.98654
336.98653
336.98648
336.98647
336.98641
336.98641
336.98635
336.98635
336.98628
336.98629
336.98622
336.98622
336.98616
336.98616
336.9861
336.98609
336.98603
337.49284
337.49111
337.48834
337.48753
337.4897
337.4836
337.47088
337.45905
337.4596
337.46724
337.46942
337.44934
337.40282
337.33398
337.25622
337.1812
337.11825
337.07027
337.0371
337.01564
337.00284
336.99552
336.99167
336.98963
336.98869
336.98819
336.98799
336.98786
336.98782
336.98776
336.98775
336.98771
336.9877
336.98766
336.98765
336.98761
336.9876
336.98756
336.98756
336.98751
336.98751
336.98745
336.98746
336.98741
336.98741
336.98736
336.98736
336.98731
336.9873
336.98725
337.49139
337.48962
337.48717
337.48613
337.48711
337.47978
337.46723
337.45647
337.45736
337.46309
337.46147
337.43716
337.38777
337.31824
337.24188
337.16956
337.10973
337.0646
337.03369
337.01385
337.00209
336.9954
336.9919
336.99007
336.98922
336.98877
336.9886
336.98848
336.98845
336.9884
336.9884
336.98836
336.98836
336.98832
336.98832
336.98828
336.98828
336.98824
336.98824
336.9882
336.98821
336.98816
336.98817
336.98812
336.98812
336.98808
336.98808
336.98804
336.98804
336.988
337.48981
337.488
337.48575
337.48422
337.48384
337.47525
337.46288
337.45302
337.45389
337.45728
337.4516
337.42305
337.37101
337.30114
337.22655
337.15721
337.10068
337.05851
337.02991
337.01169
337.00098
336.99491
336.99176
336.99011
336.98936
336.98896
336.98882
336.98871
336.98869
336.98864
336.98865
336.98861
336.98861
336.98858
336.98858
336.98855
336.98855
336.98852
336.98852
336.98849
336.98849
336.98845
336.98846
336.98842
336.98843
336.98839
336.9884
336.98836
336.98836
336.98833
337.48809
337.48623
337.48402
337.48172
337.47981
337.46995
337.45778
337.4486
337.44907
337.4497
337.43977
337.40706
337.35271
337.28289
337.21043
337.14433
337.09126
337.05212
337.02585
337.00923
336.99956
336.9941
336.99129
336.98982
336.98917
336.98881
336.98869
336.98859
336.98858
336.98854
336.98854
336.98851
336.98852
336.98849
336.98849
336.98846
336.98847
336.98844
336.98845
336.98841
336.98842
336.98839
336.9884
336.98837
336.98837
336.98834
336.98835
336.98832
336.98832
336.98829
337.48621
337.48429
337.4819
337.47851
337.47494
337.46382
337.45184
337.44311
337.44275
337.44026
337.42597
337.38931
337.33304
337.26372
337.19374
337.13112
337.08162
337.04553
337.02158
337.00655
336.99788
336.993
336.99053
336.98923
336.98866
336.98834
336.98825
336.98816
336.98816
336.98811
336.98813
336.98809
336.98811
336.98808
336.98809
336.98806
336.98807
336.98804
336.98805
336.98802
336.98803
336.988
336.98801
336.98798
336.98799
336.98796
336.98797
336.98794
336.98795
336.98793
337.48415
337.48213
337.47929
337.4745
337.46912
337.45678
337.44496
337.43641
337.43481
337.42889
337.41023
337.36991
337.31218
337.24382
337.17668
337.11773
337.07189
337.03885
337.01719
337.00369
336.99598
336.99166
336.98951
336.98836
336.98788
336.98759
336.98752
336.98744
336.98745
336.9874
336.98742
336.98739
336.9874
336.98737
336.98739
336.98736
336.98738
336.98735
336.98736
336.98733
336.98735
336.98732
336.98733
336.9873
336.98731
336.98729
336.9873
336.98727
336.98728
336.98726
337.48189
337.4797
337.47606
337.46953
337.46225
337.44873
337.43703
337.42836
337.42512
337.41554
337.3926
337.34901
337.29034
337.22342
337.15945
337.10434
337.06218
337.03216
337.01271
337.00068
336.9939
336.99011
336.98824
336.98724
336.98684
336.98658
336.98653
336.98645
336.98647
336.98642
336.98645
336.98641
336.98644
336.9864
336.98642
336.9864
336.98641
336.98638
336.9864
336.98637
336.98639
336.98636
336.98638
336.98635
336.98636
336.98634
336.98635
336.98633
336.98633
336.98632
337.4794
337.4769
337.47206
337.46346
337.45421
337.43958
337.42793
337.41883
337.4136
337.4002
337.37318
337.3268
337.26775
337.20275
337.14223
337.09108
337.0526
337.02552
337.00821
336.99757
336.99166
336.98835
336.98675
336.98588
336.98555
336.98533
336.9853
336.98522
336.98524
336.9852
336.98523
336.98519
336.98522
336.98518
336.98521
336.98518
336.9852
336.98517
336.98519
336.98516