/*--------------------------------*- C++ -*----------------------------------*\
| =========                 |                                                 |
| \\      /  F ield         | OpenFOAM: The Open Source CFD Toolbox           |
|  \\    /   O peration     | Version:  2312                                  |
|   \\  /    A nd           | Website:  www.openfoam.com                      |
|    \\/     M anipulation  |                                                 |
\*---------------------------------------------------------------------------*/
FoamFile
{
    version     2.0;
    format      ascii;
    arch        "LSB;label=32;scalar=64";
    class       volVectorField;
    location    "1";
    object      U;
}
// * * * * * * * * * * * * * * * * * * * * * * * * * * * * * * * * * * * * * //

dimensions      [0 1 -1 0 0 0 0];

internalField   nonuniform List<vector> 
4000
(
(0.0013454641 0.0002302127 0)
(0.0014487974 -1.2397804e-06 0)
(0.0013484043 -1.5512905e-07 0)
(0.0013966314 1.5196701e-07 0)
(0.0013587019 -1.4139102e-07 0)
(0.0013947774 1.3562217e-07 0)
(0.0013615908 -1.2713612e-07 0)
(0.001393042 1.2065623e-07 0)
(0.0013634896 -1.1409779e-07 0)
(0.0013913996 1.081541e-07 0)
(0.0013650837 -1.0249617e-07 0)
(0.0013899228 9.720883e-08 0)
(0.0013664826 -9.222338e-08 0)
(0.0013886094 8.7531188e-08 0)
(0.0013677222 -8.3106293e-08 0)
(0.0013874409 7.8929529e-08 0)
(0.0013688257 -7.4983467e-08 0)
(0.0013863983 7.1251148e-08 0)
(0.0013698119 -6.7717729e-08 0)
(0.0013854646 6.437051e-08 0)
(0.0013706966 -6.1196354e-08 0)
(0.0013846254 5.8186041e-08 0)
(0.0013714934 -5.5328067e-08 0)
(0.001383868 5.2615727e-08 0)
(0.0013722138 -5.0039347e-08 0)
(0.0013831817 4.7594454e-08 0)
(0.0013728679 -4.527264e-08 0)
(0.0013825573 4.3071164e-08 0)
(0.0013734643 -4.0983071e-08 0)
(0.0013819867 3.9006886e-08 0)
(0.0013740103 -3.7136602e-08 0)
(0.0013814631 3.537156e-08 0)
(0.0013745126 -3.370715e-08 0)
(0.0013809803 3.2143483e-08 0)
(0.001374977 -3.0676427e-08 0)
(0.0013805328 2.9306478e-08 0)
(0.0013754086 -2.8030242e-08 0)
(0.0013801156 2.6848923e-08 0)
(0.0013758122 -2.5759633e-08 0)
(0.0013797241 2.4763687e-08 0)
(0.0013761924 -2.3858406e-08 0)
(0.001379354 2.3045042e-08 0)
(0.0013765532 -2.2321932e-08 0)
(0.0013790013 2.1690445e-08 0)
(0.0013768988 -2.1149326e-08 0)
(0.0013786617 2.0699599e-08 0)
(0.001377233 -2.0342699e-08 0)
(0.001378332 2.0075847e-08 0)
(0.001377568 -1.9871327e-08 0)
(0.0013780745 2.0550952e-08 0)
(0.0037552056 0.00063528216 0)
(0.0041666864 4.0528282e-07 0)
(0.003919512 3.7618653e-08 0)
(0.0040545234 4.2331534e-07 0)
(0.0039434964 -4.9972354e-07 0)
(0.0040496115 4.566583e-07 0)
(0.0039518484 -4.4523222e-07 0)
(0.0040445365 4.1795459e-07 0)
(0.0039574039 -3.9785229e-07 0)
(0.0040397112 3.7645015e-07 0)
(0.0039620881 -3.5730805e-07 0)
(0.0040353671 3.3888585e-07 0)
(0.0039662072 -3.2171096e-07 0)
(0.0040314978 3.0544158e-07 0)
(0.0039698637 -2.9011954e-07 0)
(0.0040280499 2.7562427e-07 0)
(0.0039731241 -2.6191985e-07 0)
(0.0040249688 2.4893945e-07 0)
(0.0039760419 -2.3663923e-07 0)
(0.0040222061 2.2497125e-07 0)
(0.0039786627 -2.1389585e-07 0)
(0.0040197199 2.0337739e-07 0)
(0.0039810253 -1.9338198e-07 0)
(0.0040174743 1.8388464e-07 0)
(0.0039831631 -1.7485622e-07 0)
(0.0040154385 1.6627783e-07 0)
(0.0039851046 -1.5812747e-07 0)
(0.004013586 1.5039007e-07 0)
(0.0039868747 -1.4304848e-07 0)
(0.0040118936 1.3609172e-07 0)
(0.0039884951 -1.2950777e-07 0)
(0.0040103412 1.2328926e-07 0)
(0.0039899845 -1.1742462e-07 0)
(0.0040089108 1.1190904e-07 0)
(0.0039913603 -1.0673533e-07 0)
(0.0040075862 1.0190154e-07 0)
(0.0039926377 -9.740061e-08 0)
(0.0040063526 9.3231262e-08 0)
(0.003993831 -8.9387741e-08 0)
(0.0040051964 8.5870045e-08 0)
(0.0039949537 -8.2675498e-08 0)
(0.0040041043 7.9805166e-08 0)
(0.0039960184 -7.725445e-08 0)
(0.0040030639 7.5024142e-08 0)
(0.0039970376 -7.3112029e-08 0)
(0.0040020628 7.1521729e-08 0)
(0.0039980235 -7.0253425e-08 0)
(0.004001089 6.9209447e-08 0)
(0.0039990026 -6.9549726e-08 0)
(0.0040002898 6.6383314e-08 0)
(0.0060987751 0.0010195532 0)
(0.0068043579 -5.3825819e-07 0)
(0.006425089 3.6950341e-07 0)
(0.0066455572 7.165625e-07 0)
(0.0064608523 -9.1122697e-07 0)
(0.0066375799 8.1590594e-07 0)
(0.0064745815 -8.0747262e-07 0)
(0.0066291144 7.5484758e-07 0)
(0.0064837949 -7.2029835e-07 0)
(0.0066210764 6.8106993e-07 0)
(0.0064915902 -6.4682044e-07 0)
(0.0066138395 6.1345274e-07 0)
(0.0064984541 -5.8251468e-07 0)
(0.0066073893 5.531015e-07 0)
(0.0065045529 -5.2544694e-07 0)
(0.006601637 4.9923483e-07 0)
(0.0065099955 -4.7447637e-07 0)
(0.0065964926 4.5098769e-07 0)
(0.00651487 -4.2874223e-07 0)
(0.0065918764 4.0761203e-07 0)
(0.006519251 -3.8756394e-07 0)
(0.00658772 3.6850077e-07 0)
(0.0065232025 -3.5039369e-07 0)
(0.0065839642 3.3316716e-07 0)
(0.0065267791 -3.1679901e-07 0)
(0.0065805584 3.0123022e-07 0)
(0.0065300279 -2.8644197e-07 0)
(0.006577459 2.7238856e-07 0)
(0.00653299 -2.5906017e-07 0)
(0.0065746278 2.4642105e-07 0)
(0.0065357008 -2.3446235e-07 0)
(0.0065720313 2.2315577e-07 0)
(0.0065381919 -2.1249823e-07 0)
(0.00656964 2.0246825e-07 0)
(0.0065404917 -1.9306467e-07 0)
(0.0065674266 1.8427017e-07 0)
(0.0065426259 -1.7608257e-07 0)
(0.0065653665 1.6849476e-07 0)
(0.0065446185 -1.6150362e-07 0)
(0.0065634366 1.5510381e-07 0)
(0.0065464919 -1.4929144e-07 0)
(0.0065616149 1.4406289e-07 0)
(0.0065482679 -1.3941727e-07 0)
(0.0065598799 1.3535373e-07 0)
(0.0065499676 -1.3186852e-07 0)
(0.0065582107 1.2896586e-07 0)
(0.0065516116 -1.2663838e-07 0)
(0.0065565859 1.246929e-07 0)
(0.0065532395 -1.2580952e-07 0)
(0.0065552212 1.1889768e-07 0)
(0.0083956324 0.0013736259 0)
(0.0093681636 -2.4512317e-06 0)
(0.0088648772 9.7382278e-07 0)
(0.0091699438 9.4941146e-07 0)
(0.0089106696 -1.3139607e-06 0)
(0.0091587855 1.1511326e-06 0)
(0.0089297044 -1.1577147e-06 0)
(0.0091468692 1.0775663e-06 0)
(0.0089425861 -1.0309018e-06 0)
(0.0091355793 9.7404574e-07 0)
(0.0089535212 -9.2566175e-07 0)
(0.0091254155 8.7788815e-07 0)
(0.0089631616 -8.3386371e-07 0)
(0.0091163514 7.918304e-07 0)
(0.0089717345 -7.5239617e-07 0)
(0.0091082624 7.1492519e-07 0)
(0.0089793905 -6.7957287e-07 0)
(0.0091010233 6.4596797e-07 0)
(0.008986252 -6.1417404e-07 0)
(0.0090945237 5.8391695e-07 0)
(0.0089924222 -5.5523409e-07 0)
(0.0090886686 5.2791133e-07 0)
(0.0089979896 -5.0197745e-07 0)
(0.009083376 4.7726817e-07 0)
(0.0090030303 -4.5380436e-07 0)
(0.0090785759 4.3145345e-07 0)
(0.0090076094 -4.1023902e-07 0)
(0.0090742075 3.9005152e-07 0)
(0.0090117841 -3.7091655e-07 0)
(0.0090702175 3.5274581e-07 0)
(0.0090156039 -3.3556644e-07 0)
(0.0090665596 3.1930906e-07 0)
(0.0090191126 -3.0399159e-07 0)
(0.0090631922 2.8955943e-07 0)
(0.0090223502 -2.7603581e-07 0)
(0.0090600772 2.633803e-07 0)
(0.0090253528 -2.5160724e-07 0)
(0.0090571799 2.4068541e-07 0)
(0.0090281542 -2.3062611e-07 0)
(0.0090544675 2.2140593e-07 0)
(0.0090307865 -2.1304031e-07 0)
(0.0090519087 2.0551252e-07 0)
(0.0090332802 -1.9882735e-07 0)
(0.0090494733 1.929704e-07 0)
(0.0090356655 -1.8794826e-07 0)
(0.0090471309 1.8376088e-07 0)
(0.0090379724 -1.8039448e-07 0)
(0.0090448506 1.7755391e-07 0)
(0.0090402513 -1.7994605e-07 0)
(0.009042898 1.6855919e-07 0)
(0.010637176 0.0016965894 0)
(0.011855777 -5.2637221e-06 0)
(0.011238505 1.8011305e-06 0)
(0.011627829 1.1180164e-06 0)
(0.011292955 -1.6913892e-06 0)
(0.011613214 1.4488363e-06 0)
(0.011317231 -1.481988e-06 0)
(0.011597784 1.3733347e-06 0)
(0.011333789 -1.3172963e-06 0)
(0.011583204 1.2437502e-06 0)
(0.011347891 -1.1827314e-06 0)
(0.011570081 1.1216812e-06 0)
(0.011360339 -1.0657449e-06 0)
(0.011558371 1.0121299e-06 0)
(0.011371417 -9.6191475e-07 0)
(0.011547914 9.1410082e-07 0)
(0.011381317 -8.6903193e-07 0)
(0.01153855 8.2611475e-07 0)
(0.011390195 -7.8553158e-07 0)
(0.011530138 7.4685347e-07 0)
(0.011398183 -7.1020272e-07 0)
(0.011522557 6.7524326e-07 0)
(0.011405393 -6.4207419e-07 0)
(0.011515702 6.1042865e-07 0)
(0.011411922 -5.8039116e-07 0)
(0.011509484 5.5174595e-07 0)
(0.011417854 -5.2456294e-07 0)
(0.011503825 4.9866775e-07 0)
(0.011423261 -4.7413272e-07 0)
(0.011498658 4.5081615e-07 0)
(0.011428207 -4.2877654e-07 0)
(0.011493922 4.0789837e-07 0)
(0.011432748 -3.8823662e-07 0)
(0.011489565 3.6969855e-07 0)
(0.011436936 -3.5233618e-07 0)
(0.011485537 3.3607235e-07 0)
(0.011440817 -3.2094492e-07 0)
(0.011481793 3.0690552e-07 0)
(0.011444436 -2.9398196e-07 0)
(0.011478291 2.8213418e-07 0)
(0.011447833 -2.7138482e-07 0)
(0.01147499 2.6170202e-07 0)
(0.011451049 -2.5310594e-07 0)
(0.01147185 2.4557417e-07 0)
(0.011454123 -2.3911646e-07 0)
(0.011468832 2.3372993e-07 0)
(0.011457095 -2.293846e-07 0)
(0.011465895 2.2568764e-07 0)
(0.011460025 -2.2969883e-07 0)
(0.011463338 2.1351306e-07 0)
(0.012821528 0.0019897708 0)
(0.014267347 -8.8566599e-06 0)
(0.013545911 2.7913828e-06 0)
(0.01401924 1.2324517e-06 0)
(0.013607816 -2.042943e-06 0)
(0.014000756 1.7109239e-06 0)
(0.013637268 -1.7812655e-06 0)
(0.013981757 1.6434016e-06 0)
(0.013657499 -1.5804587e-06 0)
(0.01396386 1.4911476e-06 0)
(0.013674787 -1.4189032e-06 0)
(0.013947753 1.3456568e-06 0)
(0.013690064 -1.2789241e-06 0)
(0.013933374 1.2147146e-06 0)
(0.013703671 -1.1546763e-06 0)
(0.013920525 1.0973906e-06 0)
(0.013715839 -1.0434288e-06 0)
(0.013909012 9.9196397e-07 0)
(0.013726757 -9.4332472e-07 0)
(0.013898664 8.9689951e-07 0)
(0.013736585 -8.5292628e-07 0)
(0.013889334 8.1092279e-07 0)
(0.013745459 -7.7108263e-07 0)
(0.013880896 7.3303041e-07 0)
(0.013753497 -6.9691969e-07 0)
(0.013873241 6.6244459e-07 0)
(0.013760799 -6.2974142e-07 0)
(0.013866275 5.985568e-07 0)
(0.013767454 -5.6901698e-07 0)
(0.013859916 5.4091509e-07 0)
(0.01377354 -5.1436369e-07 0)
(0.01385409 4.8919704e-07 0)
(0.013779125 -4.6549962e-07 0)
(0.013848733 4.4313832e-07 0)
(0.013784273 -4.2220004e-07 0)
(0.013843784 4.0258091e-07 0)
(0.013789039 -3.8434147e-07 0)
(0.013839188 3.6740198e-07 0)
(0.01379348 -3.5181024e-07 0)
(0.013834892 3.3750322e-07 0)
(0.013797645 -3.2453176e-07 0)
(0.013830847 3.1284762e-07 0)
(0.013801585 -3.0247734e-07 0)
(0.013827002 2.9338018e-07 0)
(0.013805348 -2.8558075e-07 0)
(0.013823308 2.7907153e-07 0)
(0.013808984 -2.7380562e-07 0)
(0.013819714 2.6931529e-07 0)
(0.013812563 -2.7522847e-07 0)
(0.013816542 2.5383559e-07 0)
(0.014951098 0.002254671 0)
(0.016603398 -1.3177753e-05 0)
(0.01578707 3.8806648e-06 0)
(0.016344113 1.3029997e-06 0)
(0.015855381 -2.3683146e-06 0)
(0.016321283 1.9403737e-06 0)
(0.015889939 -2.0576197e-06 0)
(0.016298675 1.8901099e-06 0)
(0.015913826 -1.82241e-06 0)
(0.016277444 1.7182089e-06 0)
(0.015934307 -1.6360014e-06 0)
(0.016258341 1.5515399e-06 0)
(0.015952426 -1.4750221e-06 0)
(0.016241277 1.4011126e-06 0)
(0.015968577 -1.3321145e-06 0)
(0.016226019 1.2661462e-06 0)
(0.01598303 -1.2040581e-06 0)
(0.01621234 1.1447404e-06 0)
(0.015996005 -1.0887048e-06 0)
(0.016200039 1.0351442e-06 0)
(0.016007689 -9.8443026e-07 0)
(0.016188944 9.3592603e-07 0)
(0.016018243 -8.8993588e-07 0)
(0.016178908 8.4595323e-07 0)
(0.016027803 -8.042307e-07 0)
(0.016169802 7.6435578e-07 0)
(0.016036489 -7.2653655e-07 0)
(0.016161517 6.9043708e-07 0)
(0.016044404 -6.5625411e-07 0)
(0.016153956 6.2371316e-07 0)
(0.016051639 -5.929731e-07 0)
(0.016147032 5.6380917e-07 0)
(0.016058275 -5.3635936e-07 0)
(0.016140669 5.1044179e-07 0)
(0.016064387 -4.8618506e-07 0)
(0.016134794 4.6343611e-07 0)
(0.016070042 -4.4228909e-07 0)
(0.016129343 4.2264334e-07 0)
(0.016075306 -4.0456987e-07 0)
(0.016124253 3.8798361e-07 0)
(0.01608024 -3.7294579e-07 0)
(0.016119464 3.593874e-07 0)
(0.016084902 -3.4735703e-07 0)
(0.016114915 3.3680344e-07 0)
(0.016089352 -3.2775521e-07 0)
(0.01611055 3.202007e-07 0)
(0.016093648 -3.140658e-07 0)
(0.016106304 3.0881668e-07 0)
(0.01609787 -3.167652e-07 0)
(0.016102508 2.8997813e-07 0)
(0.017028438 0.0024921368 0)
(0.018864621 -1.8157113e-05 0)
(0.017962037 5.0142771e-06 0)
(0.018602243 1.3366393e-06 0)
(0.018035774 -2.6654369e-06 0)
(0.018574677 2.1383708e-06 0)
(0.018075352 -2.3115178e-06 0)
(0.018548431 2.1142274e-06 0)
(0.018102869 -2.0436717e-06 0)
(0.018523861 1.9254722e-06 0)
(0.01812654 -1.8344981e-06 0)
(0.018501756 1.7397837e-06 0)
(0.018147506 -1.6544524e-06 0)
(0.018482001 1.5717127e-06 0)
(0.018166209 -1.4945962e-06 0)
(0.018464326 1.4207128e-06 0)
(0.018182955 -1.3512189e-06 0)
(0.01844847 1.2847232e-06 0)
(0.018197998 -1.2219408e-06 0)
(0.018434206 1.1618422e-06 0)
(0.018211549 -1.1049613e-06 0)
(0.018421335 1.0504823e-06 0)
(0.018223793 -9.9884292e-07 0)
(0.01840969 9.4940453e-07 0)
(0.018234886 -9.0251688e-07 0)
(0.018399125 8.5765743e-07 0)
(0.018244963 -8.1512631e-07 0)
(0.018389513 7.744908e-07 0)
(0.018254144 -7.3602172e-07 0)
(0.018380743 6.9936416e-07 0)
(0.018262533 -6.6475049e-07 0)
(0.018372717 6.3189427e-07 0)
(0.018270224 -6.009731e-07 0)
(0.018365345 5.7175555e-07 0)
(0.018277302 -5.4441655e-07 0)
(0.018358544 5.1877114e-07 0)
(0.018283847 -4.9494342e-07 0)
(0.018352239 4.7279255e-07 0)
(0.018289932 -4.5241605e-07 0)
(0.018346357 4.3370009e-07 0)
(0.018295631 -4.167432e-07 0)
(0.018340827 4.0145595e-07 0)
(0.018301011 -3.8789454e-07 0)
(0.018335581 3.7598382e-07 0)
(0.018306142 -3.6577235e-07 0)
(0.018330549 3.5724141e-07 0)
(0.018311093 -3.5029233e-07 0)
(0.018325657 3.4435724e-07 0)
(0.018315951 -3.5446961e-07 0)
(0.018321236 3.2200849e-07 0)
(0.019055311 0.0027028923 0)
(0.02105174 -2.3701842e-05 0)
(0.02007098 6.1439532e-06 0)
(0.020793261 1.3401104e-06 0)
(0.020149132 -2.9323409e-06 0)
(0.020760827 2.3053989e-06 0)
(0.02019361 -2.5427409e-06 0)
(0.020730931 2.3158827e-06 0)
(0.020224719 -2.2441768e-06 0)
(0.020703025 2.1129313e-06 0)
(0.02025157 -2.0143424e-06 0)
(0.020677922 1.9103359e-06 0)
(0.020275379 -1.8171475e-06 0)
(0.020655476 1.7264427e-06 0)
(0.020296634 -1.6420317e-06 0)
(0.020635381 1.5609973e-06 0)
(0.020315677 -1.4848389e-06 0)
(0.020617345 1.411841e-06 0)
(0.020332792 -1.3429488e-06 0)
(0.020601111 1.2769099e-06 0)
(0.020348216 -1.2144275e-06 0)
(0.02058646 1.1545087e-06 0)
(0.020362156 -1.0977321e-06 0)
(0.020573201 1.0433076e-06 0)
(0.020374786 -9.9171069e-07 0)
(0.020561171 9.4229549e-07 0)
(0.020386259 -8.9545251e-07 0)
(0.020550229 8.5065407e-07 0)
(0.020396709 -8.0825946e-07 0)
(0.020540249 7.6783642e-07 0)
(0.020406253 -7.2967389e-07 0)
(0.020531119 6.9341731e-07 0)
(0.020414998 -6.5931e-07 0)
(0.020522739 6.2706427e-07 0)
(0.020423041 -5.9690667e-07 0)
(0.020515015 5.6859291e-07 0)
(0.020430471 -5.4228815e-07 0)
(0.02050786 5.17829e-07 0)
(0.020437374 -4.9534059e-07 0)
(0.020501191 4.7468332e-07 0)
(0.020443831 -4.5596786e-07 0)
(0.020494927 4.3907968e-07 0)
(0.020449923 -4.2410215e-07 0)
(0.02048899 4.1094833e-07 0)
(0.020455727 -3.9967063e-07 0)
(0.020483299 3.9024528e-07 0)
(0.020461324 -3.8253837e-07 0)
(0.020477772 3.7595562e-07 0)
(0.020466809 -3.882255e-07 0)
(0.020472726 3.5011122e-07 0)
(0.021032908 0.0028876892 0)
(0.023165531 -2.9713038e-05 0)
(0.022114101 7.2296039e-06 0)
(0.022916715 1.3198109e-06 0)
(0.022195596 -3.1691667e-06 0)
(0.022879626 2.4422687e-06 0)
(0.022244805 -2.7511946e-06 0)
(0.022846085 2.49524e-06 0)
(0.022279461 -2.4238739e-06 0)
(0.022814854 2.2805777e-06 0)
(0.022309473 -2.1754883e-06 0)
(0.022786764 2.0631585e-06 0)
(0.022336115 -1.9630543e-06 0)
(0.022761634 1.8652486e-06 0)
(0.022359915 -1.7743697e-06 0)
(0.022739124 1.6869485e-06 0)
(0.022381253 -1.604834e-06 0)
(0.022718909 1.5260091e-06 0)
(0.022400439 -1.4516549e-06 0)
(0.022700706 1.3802774e-06 0)
(0.022417737 -1.3127694e-06 0)
(0.022684272 1.247943e-06 0)
(0.022433372 -1.1865335e-06 0)
(0.022669399 1.1276083e-06 0)
(0.02244754 -1.0717555e-06 0)
(0.022655905 1.01821e-06 0)
(0.022460408 -9.6746941e-07 0)
(0.022643633 9.1890048e-07 0)
(0.022472126 -8.7294824e-07 0)
(0.022632444 8.2909178e-07 0)
(0.022482824 -7.8770594e-07 0)
(0.022622214 7.4836864e-07 0)
(0.022492619 -7.1136759e-07 0)
(0.02261283 6.7636112e-07 0)
(0.022501621 -6.4362861e-07 0)
(0.022604188 6.128927e-07 0)
(0.022509931 -5.8435193e-07 0)
(0.02259619 5.5779712e-07 0)
(0.022517644 -5.3338333e-07 0)
(0.022588741 5.1093935e-07 0)
(0.022524852 -4.9061915e-07 0)
(0.022581752 4.722862e-07 0)
(0.022531646 -4.5603062e-07 0)
(0.022575134 4.4173809e-07 0)
(0.022538114 -4.2948455e-07 0)
(0.022568795 4.1923774e-07 0)
(0.022544345 -4.1083485e-07 0)
(0.022562642 4.0369086e-07 0)
(0.022550445 -4.1814915e-07 0)
(0.022556975 3.7425961e-07 0)
(0.022962094 0.0030473009 0)
(0.025206835 -3.6080761e-05 0)
(0.024091517 8.2382344e-06 0)
(0.024972222 1.2824294e-06 0)
(0.024175312 -3.3780707e-06 0)
(0.024930979 2.5501484e-06 0)
(0.024229026 -2.9368779e-06 0)
(0.024893807 2.652577e-06 0)
(0.024267176 -2.5828435e-06 0)
(0.024859272 2.4285445e-06 0)
(0.024300323 -2.3180175e-06 0)
(0.024828213 2.1983223e-06 0)
(0.02432978 -2.092223e-06 0)
(0.024800413 1.9881686e-06 0)
(0.024356115 -1.8916236e-06 0)
(0.024775497 1.7985703e-06 0)
(0.024379738 -1.7112312e-06 0)
(0.02475311 1.6272508e-06 0)
(0.024400989 -1.5480633e-06 0)
(0.024732943 1.4719446e-06 0)
(0.024420155 -1.3999734e-06 0)
(0.024714732 1.330779e-06 0)
(0.024437483 -1.2652516e-06 0)
(0.024698248 1.2023003e-06 0)
(0.024453185 -1.142653e-06 0)
(0.024683293 1.085415e-06 0)
(0.024467444 -1.031183e-06 0)
(0.024669696 9.7922479e-07 0)
(0.024480425 -9.3008334e-07 0)
(0.024657303 8.8315778e-07 0)
(0.02449227 -8.3888291e-07 0)
(0.024645979 7.9676537e-07 0)
(0.024503109 -7.5716463e-07 0)
(0.024635599 7.1968044e-07 0)
(0.024513063 -6.8464889e-07 0)
(0.024626047 6.517272e-07 0)
(0.024522244 -6.2115844e-07 0)
(0.024617214 5.9271257e-07 0)
(0.024530757 -5.6657346e-07 0)
(0.024608997 5.4254288e-07 0)
(0.024538705 -5.2078657e-07 0)
(0.024601295 5.0114065e-07 0)
(0.024546189 -4.8372537e-07 0)
(0.024594006 4.6841523e-07 0)
(0.024553308 -4.5528844e-07 0)
(0.024587032 4.4430804e-07 0)
(0.024560162 -4.3527154e-07 0)
(0.024580268 4.2760463e-07 0)
(0.024566864 -4.4414071e-07 0)
(0.024573987 3.9470586e-07 0)
(0.024843491 0.003182467 0)
(0.027176554 -4.2696421e-05 0)
(0.026003189 9.1439972e-06 0)
(0.026959554 1.2333268e-06 0)
(0.026088414 -3.5628988e-06 0)
(0.026914797 2.6307177e-06 0)
(0.026146356 -3.0999501e-06 0)
(0.026874017 2.7882593e-06 0)
(0.026187941 -2.7212294e-06 0)
(0.026836203 2.5570048e-06 0)
(0.02622419 -2.4420589e-06 0)
(0.026802201 2.3159559e-06 0)
(0.026256438 -2.2047596e-06 0)
(0.026771752 2.0953006e-06 0)
(0.026285288 -1.9938896e-06 0)
(0.026744446 1.8959525e-06 0)
(0.026311183 -1.8040756e-06 0)
(0.026719899 1.7156046e-06 0)
(0.026334488 -1.632221e-06 0)
(0.026697778 1.5519579e-06 0)
(0.026355513 -1.4760941e-06 0)
(0.026677798 1.4030614e-06 0)
(0.026374525 -1.3339173e-06 0)
(0.026659711 1.2674286e-06 0)
(0.026391752 -1.2044407e-06 0)
(0.026643303 1.1439393e-06 0)
(0.026407395 -1.0866342e-06 0)
(0.026628389 1.0316866e-06 0)
(0.02642163 -9.7972943e-07 0)
(0.026614802 9.3007103e-07 0)
(0.026434613 -8.8323826e-07 0)
(0.026602393 8.3866925e-07 0)
(0.026446486 -7.9676809e-07 0)
(0.026591026 7.5708018e-07 0)
(0.026457382 -7.1999663e-07 0)
(0.026580576 6.851438e-07 0)
(0.026467421 -6.5279834e-07 0)
(0.026570921 6.226815e-07 0)
(0.026476722 -5.950079e-07 0)
(0.026561948 5.695474e-07 0)
(0.026485398 -5.4651228e-07 0)
(0.026553544 5.2571722e-07 0)
(0.026493558 -5.0728661e-07 0)
(0.0265456 4.9106589e-07 0)
(0.026501315 -4.771591e-07 0)
(0.026538005 4.6552017e-07 0)
(0.026508777 -4.5591721e-07 0)
(0.026530643 4.4782203e-07 0)
(0.026516065 -4.6639736e-07 0)
(0.026523758 4.1143659e-07 0)
(0.026677469 0.0032939417 0)
(0.029075644 -4.9445648e-05 0)
(0.027848933 9.928379e-06 0)
(0.028878633 1.1785438e-06 0)
(0.02793502 -3.7274108e-06 0)
(0.028831 2.685875e-06 0)
(0.027996876 -3.2405053e-06 0)
(0.028786637 2.9026851e-06 0)
(0.028041829 -2.8392314e-06 0)
(0.02874558 2.6662093e-06 0)
(0.02808114 -2.5478056e-06 0)
(0.028708667 2.4162353e-06 0)
(0.028116149 -2.3008152e-06 0)
(0.028675594 2.1867783e-06 0)
(0.028147492 -2.0812709e-06 0)
(0.028645919 1.9791847e-06 0)
(0.028175639 -1.8834826e-06 0)
(0.02861923 1.7911785e-06 0)
(0.028200981 -1.7042115e-06 0)
(0.02859517 1.6203924e-06 0)
(0.028223851 -1.5411883e-06 0)
(0.028573434 1.464854e-06 0)
(0.028244534 -1.3926044e-06 0)
(0.028553756 1.323051e-06 0)
(0.028263275 -1.2571829e-06 0)
(0.028535908 1.1938586e-06 0)
(0.028280289 -1.1338872e-06 0)
(0.028519688 1.0763337e-06 0)
(0.028295766 -1.0219315e-06 0)
(0.028504918 9.6991206e-07 0)
(0.028309876 -9.2086001e-07 0)
(0.028491437 8.7414379e-07 0)
(0.02832277 -8.3024029e-07 0)
(0.028479098 7.8863797e-07 0)
(0.028334593 -7.4978605e-07 0)
(0.028467762 7.1324246e-07 0)
(0.028345478 -6.7932872e-07 0)
(0.028457299 6.4774953e-07 0)
(0.028355552 -6.1874692e-07 0)
(0.028447585 5.9206448e-07 0)
(0.028364939 -5.6792426e-07 0)
(0.028438496 5.4611293e-07 0)
(0.028373762 -5.2678637e-07 0)
(0.028429912 5.097808e-07 0)
(0.028382139 -4.952e-07 0)
(0.028421711 4.829944e-07 0)
(0.028390193 -4.7289193e-07 0)
(0.028413769 4.6440341e-07 0)
(0.028398051 -4.8482962e-07 0)
(0.028406291 4.2475988e-07 0)
(0.028464114 0.0033824471 0)
(0.030905116 -5.6231371e-05 0)
(0.029628455 1.0592908e-05 0)
(0.030729476 1.122809e-06 0)
(0.029715223 -3.8749829e-06 0)
(0.030679514 2.717841e-06 0)
(0.02978066 -3.3587422e-06 0)
(0.030631595 2.9962902e-06 0)
(0.029828909 -2.9370795e-06 0)
(0.030587335 2.756407e-06 0)
(0.029871236 -2.6354633e-06 0)
(0.030547547 2.4993624e-06 0)
(0.02990897 -2.3805672e-06 0)
(0.030511883 2.2627689e-06 0)
(0.029942775 -2.1539328e-06 0)
(0.030479866 2.0484234e-06 0)
(0.02997315 -1.9495561e-06 0)
(0.030451057 1.8540682e-06 0)
(0.030000509 -1.7641395e-06 0)
(0.030425078 1.6773513e-06 0)
(0.030025205 -1.5953672e-06 0)
(0.030401604 1.5162543e-06 0)
(0.030047542 -1.4413929e-06 0)
(0.030380352 1.3692625e-06 0)
(0.030067781 -1.3009647e-06 0)
(0.030361078 1.235246e-06 0)
(0.030086151 -1.1730265e-06 0)
(0.030343569 1.1132705e-06 0)
(0.030102855 -1.0567986e-06 0)
(0.030327631 1.002755e-06 0)
(0.030118075 -9.5181677e-07 0)
(0.030313093 9.0328722e-07 0)
(0.030131974 -8.5768411e-07 0)
(0.030299797 8.144447e-07 0)
(0.030144709 -7.7407155e-07 0)
(0.030287592 7.3609698e-07 0)
(0.030156423 -7.0087348e-07 0)
(0.030276338 6.6805641e-07 0)
(0.030167253 -6.3791721e-07 0)
(0.030265899 6.101694e-07 0)
(0.030177336 -5.8508247e-07 0)
(0.030256141 5.6242397e-07 0)
(0.030186803 -5.4234996e-07 0)
(0.030246934 5.2466745e-07 0)
(0.030195784 -5.095073e-07 0)
(0.030238146 4.9681095e-07 0)
(0.030204412 -4.8628009e-07 0)
(0.03022964 4.7749823e-07 0)
(0.030212823 -4.9969128e-07 0)
(0.030221585 4.3465175e-07 0)
(0.030203229 0.0034487322 0)
(0.032665939 -6.2955182e-05 0)
(0.031341454 1.1164398e-05 0)
(0.032512129 1.0650374e-06 0)
(0.031429098 -4.0097152e-06 0)
(0.03246027 2.7283053e-06 0)
(0.031497781 -3.454819e-06 0)
(0.032408821 3.0695364e-06 0)
(0.031549249 -3.01505e-06 0)
(0.032361404 2.82793e-06 0)
(0.031594539 -2.7053004e-06 0)
(0.032318788 2.5655867e-06 0)
(0.031634957 -2.4442364e-06 0)
(0.03228057 2.3234729e-06 0)
(0.03167119 -2.2120413e-06 0)
(0.032246241 2.1038187e-06 0)
(0.031703762 -2.0024757e-06 0)
(0.03221534 1.9044434e-06 0)
(0.031733112 -1.8121458e-06 0)
(0.032187467 1.7229642e-06 0)
(0.031759611 -1.6387388e-06 0)
(0.032162276 1.5573772e-06 0)
(0.03178358 -1.480408e-06 0)
(0.03213947 1.4061677e-06 0)
(0.031805297 -1.3358963e-06 0)
(0.032118791 1.2682226e-06 0)
(0.031825004 -1.2041593e-06 0)
(0.03210001 1.142583e-06 0)
(0.031842917 -1.0844111e-06 0)
(0.032082923 1.028719e-06 0)
(0.031859228 -9.7623433e-07 0)
(0.032067347 9.2619655e-07 0)
(0.031874116 -8.7919276e-07 0)
(0.032053112 8.3460858e-07 0)
(0.031887744 -7.9300262e-07 0)
(0.032040056 7.5383864e-07 0)
(0.031900268 -7.1751151e-07 0)
(0.032028029 6.8366667e-07 0)
(0.031911837 -6.5259934e-07 0)
(0.032016883 6.239992e-07 0)
(0.031922596 -5.9814216e-07 0)
(0.032006476 5.7476854e-07 0)
(0.031932688 -5.5406583e-07 0)
(0.031996665 5.3583497e-07 0)
(0.031942255 -5.2020326e-07 0)
(0.031987308 5.0711062e-07 0)
(0.031951438 -4.9622159e-07 0)
(0.031978258 4.87176e-07 0)
(0.031960382 -5.1089162e-07 0)
(0.03196964 4.4146157e-07 0)
(0.031894362 0.0034934973 0)
(0.034358642 -6.9470476e-05 0)
(0.032987978 1.1630234e-05 0)
(0.034226653 1.0038252e-06 0)
(0.033076716 -4.1340395e-06 0)
(0.034173202 2.7192952e-06 0)
(0.033148308 -3.529077e-06 0)
(0.034118247 3.1228726e-06 0)
(0.033202911 -3.07347e-06 0)
(0.034067728 2.881094e-06 0)
(0.033251106 -2.7575974e-06 0)
(0.034022331 2.6151792e-06 0)
(0.03329416 -2.4920696e-06 0)
(0.033981602 2.3691243e-06 0)
(0.03333278 -2.2558285e-06 0)
(0.033945 2.145592e-06 0)
(0.033367516 -2.0424029e-06 0)
(0.033912039 1.9424554e-06 0)
(0.033398825 -1.8483917e-06 0)
(0.033882299 1.7573898e-06 0)
(0.0334271 -1.6714695e-06 0)
(0.033855419 1.5883715e-06 0)
(0.033452677 -1.5097773e-06 0)
(0.033831083 1.4339101e-06 0)
(0.033475848 -1.3621085e-06 0)
(0.033809021 1.2929044e-06 0)
(0.033496869 -1.2274117e-06 0)
(0.033788991 1.1644182e-06 0)
(0.033515969 -1.1049202e-06 0)
(0.033770777 1.0479135e-06 0)
(0.033533352 -9.9421412e-07 0)
(0.033754183 9.4300333e-07 0)
(0.033549205 -8.9490186e-07 0)
(0.033739029 8.4925046e-07 0)
(0.033563706 -8.0665592e-07 0)
(0.033725143 7.6656427e-07 0)
(0.03357702 -7.2939638e-07 0)
(0.033712363 6.9474969e-07 0)
(0.033589307 -6.6294564e-07 0)
(0.033700532 6.3364762e-07 0)
(0.033600723 -6.071777e-07 0)
(0.033689495 5.8326103e-07 0)
(0.033611421 -5.620802e-07 0)
(0.033679099 5.434081e-07 0)
(0.033621553 -5.2739951e-07 0)
(0.033669193 5.1398606e-07 0)
(0.033631272 -5.0281232e-07 0)
(0.03365962 4.9360619e-07 0)
(0.033640729 -5.1873346e-07 0)
(0.033650457 4.4514742e-07 0)
(0.033536866 0.003517454 0)
(0.03598284 -7.5307239e-05 0)
(0.034568992 1.1685288e-05 0)
(0.035872958 8.9116481e-07 0)
(0.034658103 -4.2557691e-06 0)
(0.035818226 2.6923084e-06 0)
(0.034732302 -3.5815734e-06 0)
(0.03575981 3.1568927e-06 0)
(0.034789957 -3.1126726e-06 0)
(0.035706248 2.9163159e-06 0)
(0.034840992 -2.7926946e-06 0)
(0.035658128 2.6484622e-06 0)
(0.034886629 -2.524356e-06 0)
(0.035614935 2.3999904e-06 0)
(0.034927592 -2.2855234e-06 0)
(0.035576102 2.1739537e-06 0)
(0.034964451 -2.0695812e-06 0)
(0.035541118 1.9683357e-06 0)
(0.034997686 -1.8730752e-06 0)
(0.035509545 1.7808118e-06 0)
(0.035027704 -1.6937184e-06 0)
(0.035481005 1.6094032e-06 0)
(0.03505486 -1.5296769e-06 0)
(0.035455167 1.4526403e-06 0)
(0.035079458 -1.3797566e-06 0)
(0.035431749 1.3094561e-06 0)
(0.035101768 -1.2429322e-06 0)
(0.035410495 1.178899e-06 0)
(0.035122029 -1.1184397e-06 0)
(0.035391177 1.0604942e-06 0)
(0.035140459 -1.0059172e-06 0)
(0.03537359 9.5383609e-07 0)
(0.035157256 -9.0493328e-07 0)
(0.03535754 8.585064e-07 0)
(0.035172607 -8.1521317e-07 0)
(0.035342846 7.7443358e-07 0)
(0.035186688 -7.3662587e-07 0)
(0.035329336 7.0138617e-07 0)
(0.035199672 -6.6905423e-07 0)
(0.03531684 6.3927343e-07 0)
(0.035211723 -6.1236786e-07 0)
(0.035305194 5.8803735e-07 0)
(0.035223005 -5.6649474e-07 0)
(0.035294236 5.4751098e-07 0)
(0.035233681 -5.3123334e-07 0)
(0.035283801 5.1759465e-07 0)
(0.035243915 -5.0620815e-07 0)
(0.035273725 4.9686435e-07 0)
(0.035253865 -5.2312032e-07 0)
(0.035264037 4.4609193e-07 0)
(0.035130139 0.0035213772 0)
(0.037534349 -8.073877e-05 0)
(0.036087975 1.1575177e-05 0)
(0.037451711 7.7803274e-07 0)
(0.03617337 -4.3715345e-06 0)
(0.037395277 2.6490246e-06 0)
(0.03624982 -3.6129261e-06 0)
(0.037333442 3.1720017e-06 0)
(0.03631044 -3.1331019e-06 0)
(0.037276908 2.9339646e-06 0)
(0.036364249 -2.8109486e-06 0)
(0.037226125 2.6657716e-06 0)
(0.036412411 -2.54141e-06 0)
(0.037180523 2.4163693e-06 0)
(0.036455665 -2.3014228e-06 0)
(0.037139505 2.1891883e-06 0)
(0.036494604 -2.0842284e-06 0)
(0.037102541 1.98229e-06 0)
(0.036529724 -1.8864128e-06 0)
(0.037069172 1.793443e-06 0)
(0.036561451 -1.7057053e-06 0)
(0.037039006 1.6206702e-06 0)
(0.036590151 -1.5402803e-06 0)
(0.037011699 1.4625482e-06 0)
(0.036616146 -1.389015e-06 0)
(0.036986954 1.3180349e-06 0)
(0.036639715 -1.2508865e-06 0)
(0.036964504 1.186212e-06 0)
(0.036661111 -1.12516e-06 0)
(0.03694411 1.0666031e-06 0)
(0.036680562 -1.0114752e-06 0)
(0.036925554 9.5885614e-07 0)
(0.036698276 -9.094518e-07 0)
(0.036908634 8.6252383e-07 0)
(0.036714452 -8.1877005e-07 0)
(0.036893157 7.7756279e-07 0)
(0.036729278 -7.3937936e-07 0)
(0.036878939 7.0377091e-07 0)
(0.036742934 -6.7109878e-07 0)
(0.036865802 6.4098535e-07 0)
(0.036755597 -6.1379782e-07 0)
(0.03685357 5.8922609e-07 0)
(0.036767442 -5.6747225e-07 0)
(0.036842071 5.4828141e-07 0)
(0.036778641 -5.31828e-07 0)
(0.03683113 5.1803776e-07 0)
(0.036789367 -5.0651255e-07 0)
(0.036820572 4.9713569e-07 0)
(0.03679979 -5.2439706e-07 0)
(0.036810378 4.442296e-07 0)
(0.036673281 0.0035060641 0)
(0.039011375 -8.6372442e-05 0)
(0.037546273 1.1798063e-05 0)
(0.038963867 8.1577447e-07 0)
(0.037622689 -4.4532602e-06 0)
(0.038904351 2.5976175e-06 0)
(0.037700941 -3.6218577e-06 0)
(0.038839096 3.1691512e-06 0)
(0.037764422 -3.1350974e-06 0)
(0.038779658 2.9345478e-06 0)
(0.037820927 -2.8127641e-06 0)
(0.038726278 2.6675001e-06 0)
(0.037871551 -2.5435862e-06 0)
(0.038678326 2.4185925e-06 0)
(0.037917042 -2.3038162e-06 0)
(0.038635176 2.1915644e-06 0)
(0.03795801 -2.0866493e-06 0)
(0.038596276 1.9846089e-06 0)
(0.037994972 -1.8886574e-06 0)
(0.038561154 1.7955189e-06 0)
(0.038028366 -1.7076381e-06 0)
(0.038529401 1.6223875e-06 0)
(0.038058576 -1.5418117e-06 0)
(0.03850066 1.463828e-06 0)
(0.038085933 -1.3900813e-06 0)
(0.03847462 1.318846e-06 0)
(0.038110729 -1.2514614e-06 0)
(0.038451006 1.1865143e-06 0)
(0.038133229 -1.1252256e-06 0)
(0.038429564 1.0664285e-06 0)
(0.038153671 -1.0110806e-06 0)
(0.038410069 9.5822026e-07 0)
(0.038172276 -9.0860444e-07 0)
(0.038392306 8.6146276e-07 0)
(0.038189251 -8.175363e-07 0)
(0.038376071 7.76136e-07 0)
(0.038204795 -7.3776966e-07 0)
(0.038361171 7.0199719e-07 0)
(0.0382191 -6.691913e-07 0)
(0.038347416 6.3895937e-07 0)
(0.038232352 -6.1166535e-07 0)
(0.038334622 5.8697675e-07 0)
(0.038244735 -5.6512383e-07 0)
(0.038322604 5.4585459e-07 0)
(0.038256434 -5.2933157e-07 0)
(0.038311179 5.1548493e-07 0)
(0.038267631 -5.0389304e-07 0)
(0.038300162 4.9449831e-07 0)
(0.038278504 -5.2245714e-07 0)
(0.038289483 4.399691e-07 0)
(0.03816477 0.0034722388 0)
(0.040422539 -9.1213008e-05 0)
(0.038938026 1.1660481e-05 0)
(0.04040856 8.813478e-07 0)
(0.039005863 -4.5195976e-06 0)
(0.040345314 2.5348009e-06 0)