/*--------------------------------*- C++ -*----------------------------------*\
| =========                 |                                                 |
| \\      /  F ield         | OpenFOAM: The Open Source CFD Toolbox           |
|  \\    /   O peration     | Version:  2312                                  |
|   \\  /    A nd           | Website:  www.openfoam.com                      |
|    \\/     M anipulation  |                                                 |
\*---------------------------------------------------------------------------*/
FoamFile
{
    version     2.0;
    format      ascii;
    arch        "LSB;label=32;scalar=64";
    class       volVectorField;
    location    "1";
    object      U_0;
}
// * * * * * * * * * * * * * * * * * * * * * * * * * * * * * * * * * * * * * //

dimensions      [0 1 -1 0 0 0 0];

internalField   nonuniform List<vector> 
4000
(
(0.0013454223 0.00023021241 0)
(0.0014488022 -1.239706e-06 0)
(0.0013483933 -1.5520138e-07 0)
(0.0013966416 1.5207743e-07 0)
(0.0013586862 -1.415251e-07 0)
(0.0013947962 1.3578608e-07 0)
(0.0013615694 -1.2732657e-07 0)
(0.001393064 1.2086765e-07 0)
(0.0013634665 -1.1432708e-07 0)
(0.0013914233 1.0839951e-07 0)
(0.0013650593 -1.0275533e-07 0)
(0.0013899476 9.7479662e-08 0)
(0.0013664573 -9.2503496e-08 0)
(0.0013886349 8.78184e-08 0)
(0.0013676965 -8.3398613e-08 0)
(0.0013874667 7.9224658e-08 0)
(0.0013688 -7.5278898e-08 0)
(0.0013864238 7.1545391e-08 0)
(0.0013697867 -6.800922e-08 0)
(0.0013854895 6.4657335e-08 0)
(0.0013706722 -6.1477109e-08 0)
(0.0013846493 5.8458992e-08 0)
(0.0013714701 -5.559185e-08 0)
(0.0013838905 5.2869548e-08 0)
(0.001372192 -5.0281891e-08 0)
(0.0013832027 4.7824815e-08 0)
(0.0013728478 -4.5490422e-08 0)
(0.0013825765 4.3275862e-08 0)
(0.0013734459 -4.1174029e-08 0)
(0.0013820041 3.9183358e-08 0)
(0.0013739939 -3.7298754e-08 0)
(0.0013814785 3.551984e-08 0)
(0.0013744982 -3.3841257e-08 0)
(0.0013809938 3.2263415e-08 0)
(0.0013749645 -3.0782231e-08 0)
(0.0013805443 2.9399201e-08 0)
(0.0013753979 -2.8110699e-08 0)
(0.0013801253 2.6917339e-08 0)
(0.0013758034 -2.5816333e-08 0)
(0.0013797321 2.4808864e-08 0)
(0.0013761852 -2.389335e-08 0)
(0.0013793604 2.3071185e-08 0)
(0.0013765476 -2.2340111e-08 0)
(0.0013790061 2.1701025e-08 0)
(0.0013768947 -2.1153346e-08 0)
(0.0013786651 2.0698027e-08 0)
(0.0013772303 -2.03368e-08 0)
(0.001378334 2.0067364e-08 0)
(0.0013775666 -1.9862467e-08 0)
(0.001378075 2.0535731e-08 0)
(0.0037550773 0.00063528298 0)
(0.0041667137 4.0516365e-07 0)
(0.0039194681 3.7200958e-08 0)
(0.0040545635 4.2383867e-07 0)
(0.0039434401 -5.0038858e-07 0)
(0.0040496771 4.573714e-07 0)
(0.0039517764 -4.4599411e-07 0)
(0.0040446098 4.1877397e-07 0)
(0.0039573278 -3.9873816e-07 0)
(0.0040397884 3.7738865e-07 0)
(0.0039620094 -3.5829462e-07 0)
(0.0040354466 3.3990982e-07 0)
(0.003966127 -3.2276523e-07 0)
(0.0040315782 3.0651738e-07 0)
(0.0039697834 -2.9120847e-07 0)
(0.0040281299 2.767191e-07 0)
(0.0039730449 -2.630146e-07 0)
(0.004025047 2.5002588e-07 0)
(0.0039759652 -2.3771006e-07 0)
(0.0040222813 2.2602109e-07 0)
(0.0039785894 -2.1491851e-07 0)
(0.0040197911 2.0436869e-07 0)
(0.0039809564 -1.943376e-07 0)
(0.0040175408 1.847997e-07 0)
(0.0039830992 -1.7572806e-07 0)
(0.0040154997 1.6710381e-07 0)
(0.0039850463 -1.5890404e-07 0)
(0.0040136414 1.5111543e-07 0)
(0.0039868223 -1.4372194e-07 0)
(0.0040119431 1.3671371e-07 0)
(0.0039884486 -1.3007693e-07 0)
(0.0040103847 1.238042e-07 0)
(0.003989944 -1.1788712e-07 0)
(0.0040089484 1.1232061e-07 0)
(0.0039913255 -1.0709777e-07 0)
(0.0040076182 1.0221472e-07 0)
(0.0039926084 -9.7665761e-08 0)
(0.0040063793 9.3451369e-08 0)
(0.0039938069 -8.9566283e-08 0)
(0.0040052181 8.601139e-08 0)
(0.0039949343 -8.2781035e-08 0)
(0.0040041214 7.9876378e-08 0)
(0.0039960035 -7.7294886e-08 0)
(0.0040030768 7.5038769e-08 0)
(0.0039970268 -7.310441e-08 0)
(0.0040020717 7.1495463e-08 0)
(0.0039980165 -7.0211607e-08 0)
(0.0040010942 6.9154542e-08 0)
(0.0039989992 -6.9480914e-08 0)
(0.0040002911 6.6316251e-08 0)
(0.0060985574 0.0010195537 0)
(0.0068044162 -5.3920477e-07 0)
(0.0064250064 3.6876659e-07 0)
(0.0066456324 7.1754208e-07 0)
(0.0064607498 -9.1257841e-07 0)
(0.0066376976 8.1730029e-07 0)
(0.0064744534 -8.0891769e-07 0)
(0.0066292438 7.5638249e-07 0)
(0.0064836611 -7.2195458e-07 0)
(0.0066212114 6.8281709e-07 0)
(0.0064914529 -6.4865611e-07 0)
(0.0066139774 6.1535575e-07 0)
(0.0064983153 -5.8447145e-07 0)
(0.0066075277 5.5509593e-07 0)
(0.0065044148 -5.2746512e-07 0)
(0.0066017735 5.0126186e-07 0)
(0.0065098603 -4.7649598e-07 0)
(0.0065966251 4.5298953e-07 0)
(0.0065147397 -4.3071522e-07 0)
(0.0065920032 4.0954435e-07 0)
(0.0065191274 -3.8944606e-07 0)
(0.0065878394 3.7032224e-07 0)
(0.0065230869 -3.5214596e-07 0)
(0.0065840749 3.3484484e-07 0)
(0.0065266727 -3.1839452e-07 0)
(0.0065806596 3.0273819e-07 0)
(0.0065299314 -2.8785986e-07 0)
(0.0065775502 2.7371336e-07 0)
(0.0065329036 -2.6028873e-07 0)
(0.0065747087 2.4754975e-07 0)
(0.0065356248 -2.3549246e-07 0)
(0.006572102 2.2408981e-07 0)
(0.0065381259 -2.1333556e-07 0)
(0.0065697007 2.0320957e-07 0)
(0.0065404355 -1.9371148e-07 0)
(0.0065674779 1.8482849e-07 0)
(0.0065425788 -1.7655768e-07 0)
(0.006565409 1.6888913e-07 0)
(0.0065445798 -1.6182037e-07 0)
(0.0065634711 1.5534537e-07 0)
(0.0065464611 -1.4946579e-07 0)
(0.0065616418 1.4417853e-07 0)
(0.0065482442 -1.3947999e-07 0)
(0.0065599001 1.353671e-07 0)
(0.0065499504 -1.3183936e-07 0)
(0.0065582245 1.2890063e-07 0)
(0.0065516005 -1.2654534e-07 0)
(0.0065565939 1.2458383e-07 0)
(0.0065532339 -1.2568724e-07 0)
(0.006555223 1.1873794e-07 0)
(0.0083953223 0.0013736292 0)
(0.0093682626 -2.4524958e-06 0)
(0.0088647504 9.7260689e-07 0)
(0.0091700606 9.5097601e-07 0)
(0.0089105152 -1.3161022e-06 0)
(0.0091589618 1.1532704e-06 0)
(0.0089295149 -1.1598758e-06 0)
(0.0091470605 1.0798441e-06 0)
(0.0089423896 -1.0333606e-06 0)
(0.0091357773 9.7663196e-07 0)
(0.008953321 -9.2837492e-07 0)
(0.0091256163 8.8069338e-07 0)
(0.0089629605 -8.3674419e-07 0)
(0.0091165516 7.9476105e-07 0)
(0.0089715357 -7.5535505e-07 0)
(0.0091084587 7.1789232e-07 0)
(0.0089791972 -6.8253202e-07 0)
(0.0091012129 6.4889732e-07 0)
(0.0089860667 -6.1705473e-07 0)
(0.009094704 5.8673427e-07 0)
(0.0089922473 -5.5797236e-07 0)
(0.0090888375 5.3055913e-07 0)
(0.008997827 -5.0452382e-07 0)
(0.0090835319 4.7970037e-07 0)
(0.0090028814 -4.5611589e-07 0)
(0.0090787176 4.3363726e-07 0)
(0.009007475 -4.1228703e-07 0)
(0.0090743344 3.9195884e-07 0)
(0.0090116645 -3.7268191e-07 0)
(0.0090703296 3.5437027e-07 0)
(0.0090154991 -3.3704741e-07 0)
(0.009066657 3.2064362e-07 0)
(0.0090190223 -3.0518449e-07 0)
(0.0090632755 2.9061461e-07 0)
(0.0090222737 -2.7695878e-07 0)
(0.0090601472 2.6417123e-07 0)
(0.0090252891 -2.5226982e-07 0)
(0.0090572376 2.412278e-07 0)
(0.0090281023 -2.3105759e-07 0)
(0.009054514 2.2173754e-07 0)
(0.0090307452 -2.1327666e-07 0)
(0.009051945 2.05658e-07 0)
(0.0090332487 -1.9889143e-07 0)
(0.0090495004 1.9296593e-07 0)
(0.0090356429 -1.8788462e-07 0)
(0.0090471496 1.8364775e-07 0)
(0.0090379578 -1.8024063e-07 0)
(0.0090448614 1.7736708e-07 0)
(0.0090402441 -1.7971748e-07 0)
(0.0090429005 1.6832611e-07 0)
(0.010636769 0.0016965919 0)
(0.011855926 -5.266802e-06 0)
(0.011238327 1.7996293e-06 0)
(0.011627993 1.1201151e-06 0)
(0.011292742 -1.6944552e-06 0)
(0.011613455 1.4517959e-06 0)
(0.011316974 -1.4848904e-06 0)
(0.011598042 1.3763583e-06 0)
(0.011333524 -1.3205538e-06 0)
(0.01158347 1.2471619e-06 0)
(0.011347623 -1.1863079e-06 0)
(0.011570348 1.1253736e-06 0)
(0.011360071 -1.0695308e-06 0)
(0.011558636 1.0159766e-06 0)
(0.011371154 -9.6579636e-07 0)
(0.011548173 9.1798857e-07 0)
(0.011381063 -8.7289561e-07 0)
(0.011538798 8.2993431e-07 0)
(0.011389953 -7.8928648e-07 0)
(0.011530373 7.5052146e-07 0)
(0.011397955 -7.1376644e-07 0)
(0.011522775 6.7868312e-07 0)
(0.011405182 -6.4537505e-07 0)
(0.011515903 6.1358034e-07 0)
(0.01141173 -5.8338059e-07 0)
(0.011509665 5.5456322e-07 0)
(0.011417681 -5.2720412e-07 0)
(0.011503987 5.0112737e-07 0)
(0.011423108 -4.7640606e-07 0)
(0.0114988 4.5289687e-07 0)
(0.011428074 -4.306679e-07 0)
(0.011494045 4.0960508e-07 0)
(0.011432634 -3.8975858e-07 0)
(0.011489669 3.7103742e-07 0)
(0.01143684 -3.5349563e-07 0)
(0.011485624 3.3706367e-07 0)
(0.011440738 -3.217785e-07 0)
(0.011481865 3.0758633e-07 0)
(0.011444371 -2.9451643e-07 0)
(0.011478348 2.8252734e-07 0)
(0.011447782 -2.7165172e-07 0)
(0.011475034 2.6185848e-07 0)
(0.01145101 -2.5316301e-07 0)
(0.011471883 2.4553888e-07 0)
(0.011454095 -2.3900167e-07 0)
(0.011468855 2.3354776e-07 0)
(0.011457077 -2.2915089e-07 0)
(0.011465907 2.2542508e-07 0)
(0.011460016 -2.2940385e-07 0)
(0.011463341 2.1314014e-07 0)
(0.012821022 0.0019897776 0)
(0.014267556 -8.8603015e-06 0)
(0.013545679 2.7893879e-06 0)
(0.014019458 1.2352576e-06 0)
(0.013607539 -2.0469982e-06 0)
(0.014001068 1.714726e-06 0)
(0.013636938 -1.7849024e-06 0)
(0.013982088 1.6471643e-06 0)
(0.013657161 -1.5845142e-06 0)
(0.013964198 1.4953828e-06 0)
(0.013674447 -1.4233361e-06 0)
(0.013948092 1.3502215e-06 0)
(0.013689727 -1.2835978e-06 0)
(0.013933708 1.2194547e-06 0)
(0.013703341 -1.1594486e-06 0)
(0.013920849 1.1021627e-06 0)
(0.013715522 -1.0481752e-06 0)
(0.013909321 9.9664992e-07 0)
(0.013726456 -9.4792099e-07 0)
(0.013898955 9.013828e-07 0)
(0.013736304 -8.5727274e-07 0)
(0.013889604 8.151145e-07 0)
(0.0137452 -7.7510319e-07 0)
(0.013881142 7.3686005e-07 0)
(0.013753262 -7.005493e-07 0)
(0.013873463 6.6586332e-07 0)
(0.013760589 -6.3293807e-07 0)
(0.013866472 6.0152386e-07 0)
(0.01376727 -5.717536e-07 0)
(0.013860088 5.4342335e-07 0)
(0.01377338 -5.1664081e-07 0)
(0.013854238 4.9123913e-07 0)
(0.013778989 -4.6731478e-07 0)
(0.013848858 4.447331e-07 0)
(0.013784159 -4.2358421e-07 0)
(0.013843888 4.0375511e-07 0)
(0.013788946 -3.8531206e-07 0)
(0.013839273 3.6818233e-07 0)
(0.013793404 -3.524154e-07 0)
(0.01383496 3.3795042e-07 0)
(0.013797586 -3.2482901e-07 0)
(0.013830898 3.1300199e-07 0)
(0.01380154 -3.0250392e-07 0)
(0.01382704 2.932992e-07 0)
(0.013805316 -2.854069e-07 0)
(0.013823334 2.7882012e-07 0)
(0.013808964 -2.7349116e-07 0)
(0.013819729 2.6895084e-07 0)
(0.013812553 -2.7479021e-07 0)
(0.013816545 2.5337988e-07 0)
(0.014950487 0.0022546766 0)
(0.016603676 -1.3184114e-05 0)
(0.015786775 3.878506e-06 0)
(0.016344392 1.3064264e-06 0)
(0.015855032 -2.3735101e-06 0)
(0.016321672 1.9451063e-06 0)
(0.01588953 -2.062017e-06 0)
(0.016299083 1.8946125e-06 0)
(0.01591341 -1.8272546e-06 0)
(0.016277859 1.7232475e-06 0)
(0.015933891 -1.6412712e-06 0)
(0.016258754 1.5569582e-06 0)
(0.015952015 -1.4805618e-06 0)
(0.016241682 1.4067234e-06 0)
(0.015968177 -1.3377601e-06 0)
(0.01622641 1.2717846e-06 0)
(0.015982647 -1.2096466e-06 0)
(0.016212711 1.1502502e-06 0)
(0.015995644 -1.0941072e-06 0)
(0.016200387 1.0404077e-06 0)
(0.016007354 -9.8953083e-07 0)
(0.016189265 9.4083598e-07 0)
(0.016017935 -8.9463501e-07 0)
(0.016179199 8.5042749e-07 0)
(0.016027526 -8.0846284e-07 0)
(0.016170063 7.6833222e-07 0)
(0.016036243 -7.3025295e-07 0)
(0.016161748 6.9388625e-07 0)
(0.016044188 -6.5943091e-07 0)
(0.016154155 6.2660906e-07 0)
(0.016051453 -5.9559411e-07 0)
(0.016147202 5.6616237e-07 0)
(0.016058117 -5.3844599e-07 0)
(0.016140812 5.1226463e-07 0)
(0.016064256 -4.877503e-07 0)
(0.016134912 4.6476025e-07 0)
(0.016069935 -4.4338789e-07 0)
(0.016129439 4.2352402e-07 0)
(0.01607522 -4.0524208e-07 0)
(0.016124329 3.8845495e-07 0)
(0.016080173 -3.7323788e-07 0)
(0.016119521 3.5952298e-07 0)
(0.016084852 -3.4735197e-07 0)
(0.016114958 3.3666775e-07 0)
(0.016089316 -3.2750733e-07 0)
(0.016110578 3.198577e-07 0)
(0.016093625 -3.1365086e-07 0)
(0.01610632 3.0836297e-07 0)
(0.016097859 -3.1625689e-07 0)
(0.016102512 2.8934792e-07 0)
(0.017027719 0.0024921483 0)
(0.018864978 -1.8164229e-05 0)
(0.017961676 5.0116661e-06 0)
(0.018602592 1.3409289e-06 0)
(0.018035349 -2.6718113e-06 0)
(0.018575149 2.1440353e-06 0)
(0.018074859 -2.3166551e-06 0)
(0.018548923 2.119457e-06 0)
(0.018102371 -2.0493023e-06 0)
(0.018524358 1.931312e-06 0)
(0.018126045 -1.8405968e-06 0)
(0.018502248 1.7460386e-06 0)
(0.018147019 -1.660838e-06 0)
(0.01848248 1.5781687e-06 0)
(0.018165738 -1.5010778e-06 0)
(0.018464786 1.4271759e-06 0)
(0.018182506 -1.3576297e-06 0)
(0.018448906 1.2910353e-06 0)
(0.018197576 -1.2281161e-06 0)
(0.018434611 1.1678496e-06 0)
(0.01821116 -1.1107703e-06 0)
(0.018421708 1.0560694e-06 0)
(0.018223438 -1.0041877e-06 0)
(0.018410027 9.5448108e-07 0)
(0.018234568 -9.0731479e-07 0)
(0.018399425 8.6216282e-07 0)
(0.018244682 -8.193261e-07 0)
(0.018389776 7.7837546e-07 0)
(0.0182539 -7.3959174e-07 0)
(0.01838097 7.0262314e-07 0)
(0.018262324 -6.6769623e-07 0)
(0.018372909 6.3452246e-07 0)
(0.018270048 -6.0329552e-07 0)
(0.018365505 5.7378139e-07 0)
(0.018277156 -5.4616035e-07 0)
(0.018358676 5.2023399e-07 0)
(0.018283728 -4.9613439e-07 0)
(0.018352345 4.7373017e-07 0)
(0.018289838 -4.5312096e-07 0)
(0.01834644 4.3419521e-07 0)
(0.018295558 -4.1703989e-07 0)
(0.018340891 4.0156357e-07 0)
(0.018300957 -3.8783335e-07 0)
(0.018335627 3.757808e-07 0)
(0.018306104 -3.6544691e-07 0)
(0.01833058 3.5681393e-07 0)
(0.018311069 -3.4978292e-07 0)
(0.018325675 3.4378368e-07 0)
(0.01831594 -3.5378822e-07 0)
(0.01832124 3.2129566e-07 0)
(0.01905448 0.0027029018 0)
(0.021052183 -2.3712525e-05 0)
(0.020070544 6.1413326e-06 0)
(0.020793689 1.3451251e-06 0)
(0.020148622 -2.9400342e-06 0)
(0.020761388 2.3120857e-06 0)
(0.020193027 -2.5486392e-06 0)
(0.020731511 2.3218329e-06 0)
(0.020224134 -2.2505742e-06 0)
(0.020703606 2.1195406e-06 0)
(0.020250991 -2.0212395e-06 0)
(0.020678494 1.917399e-06 0)
(0.020274813 -1.8243482e-06 0)
(0.020656031 1.7337129e-06 0)
(0.020296089 -1.6493265e-06 0)
(0.020635912 1.5682624e-06 0)
(0.020315161 -1.4920204e-06 0)
(0.020617844 1.4189022e-06 0)
(0.020332309 -1.3498545e-06 0)
(0.020601574 1.2836201e-06 0)
(0.020347772 -1.2209132e-06 0)
(0.020586882 1.160735e-06 0)
(0.020361753 -1.1036752e-06 0)
(0.020573581 1.0489503e-06 0)
(0.020374427 -9.9703307e-07 0)
(0.020561508 9.4728106e-07 0)
(0.020385943 -9.0009744e-07 0)
(0.020550523 8.549501e-07 0)
(0.020396436 -8.122021e-07 0)
(0.0205405 7.714154e-07 0)
(0.020406021 -7.328987e-07 0)
(0.020531331 6.9629748e-07 0)
(0.020414804 -6.6184874e-07 0)
(0.020522915 6.2926569e-07 0)
(0.020422881 -5.9877964e-07 0)
(0.020515158 5.7015911e-07 0)
(0.020430342 -5.4356877e-07 0)
(0.020507974 5.1883327e-07 0)
(0.020437272 -4.9608126e-07 0)
(0.02050128 4.7517042e-07 0)
(0.020443753 -4.5622909e-07 0)
(0.020494994 4.3914421e-07 0)
(0.020449865 -4.2399017e-07 0)
(0.020489038 4.1067237e-07 0)
(0.020455687 -3.9925417e-07 0)
(0.020483331 3.8970972e-07 0)
(0.020461299 -3.8191394e-07 0)
(0.02047779 3.7528509e-07 0)
(0.020466797 -3.8747711e-07 0)
(0.020472729 3.4919835e-07 0)
(0.021031962 0.002887706 0)
(0.023166068 -2.9724613e-05 0)
(0.022113583 7.2265754e-06 0)
(0.022917235 1.3258305e-06 0)
(0.022194995 -3.1781467e-06 0)
(0.022880283 2.4499486e-06 0)
(0.022244128 -2.7578133e-06 0)
(0.022846757 2.5018853e-06 0)
(0.022278785 -2.4310255e-06 0)
(0.022815524 2.2879466e-06 0)
(0.022308807 -2.183167e-06 0)
(0.022787421 2.0710029e-06 0)
(0.022335468 -1.9710401e-06 0)
(0.022762268 1.8732972e-06 0)
(0.022359296 -1.7824279e-06 0)
(0.022739726 1.6949612e-06 0)
(0.022380669 -1.6127606e-06 0)
(0.022719473 1.5337927e-06 0)
(0.022399896 -1.45925e-06 0)
(0.022701226 1.3876463e-06 0)
(0.02241724 -1.3198766e-06 0)
(0.022684745 1.2547603e-06 0)
(0.022432924 -1.1930377e-06 0)
(0.022669822 1.1337685e-06 0)
(0.022447142 -1.0775612e-06 0)
(0.022656278 1.0236449e-06 0)
(0.022460061 -9.7251985e-07 0)
(0.022643956 9.2355543e-07 0)
(0.022471827 -8.7721034e-07 0)
(0.022632719 8.3296657e-07 0)
(0.022482571 -7.9119253e-07 0)
(0.022622445 7.5146277e-07 0)
(0.022492409 -7.1408483e-07 0)
(0.02261302 6.787134e-07 0)
(0.022501451 -6.456355e-07 0)
(0.022604341 6.1455573e-07 0)
(0.022509795 -5.8568279e-07 0)
(0.022596311 5.5881937e-07 0)
(0.022517537 -5.3412289e-07 0)
(0.022588835 5.1142424e-07 0)
(0.022524771 -4.9086396e-07 0)
(0.022581822 4.7230213e-07 0)
(0.022531586 -4.5584256e-07 0)
(0.022575184 4.413791e-07 0)
(0.022538073 -4.2897803e-07 0)
(0.022568828 4.1860861e-07 0)
(0.02254432 -4.101086e-07 0)
(0.022562661 4.0288905e-07 0)
(0.022550433 -4.1720552e-07 0)
(0.022556979 3.7327319e-07 0)
(0.02296103 0.0030473148 0)
(0.02520747 -3.6096676e-05 0)
(0.024090908 8.2353079e-06 0)
(0.024972846 1.2892504e-06 0)
(0.024174613 -3.3884179e-06 0)
(0.024931735 2.5589028e-06 0)
(0.02422825 -2.9442303e-06 0)
(0.024894575 2.6599011e-06 0)
(0.024266405 -2.590717e-06 0)
(0.024860033 2.436627e-06 0)
(0.024299568 -2.3264338e-06 0)
(0.024828956 2.2069076e-06 0)
(0.024329049 -2.1009513e-06 0)
(0.024801127 1.9969541e-06 0)
(0.024355419 -1.9004145e-06 0)
(0.024776172 1.807301e-06 0)
(0.024379085 -1.7198387e-06 0)
(0.024753738 1.6356914e-06 0)
(0.024400385 -1.5562968e-06 0)
(0.02473352 1.4799239e-06 0)
(0.024419605 -1.407666e-06 0)
(0.024715253 1.3381435e-06 0)
(0.024436989 -1.2722624e-06 0)
(0.024698711 1.208938e-06 0)
(0.024452749 -1.1488962e-06 0)
(0.024683699 1.0912452e-06 0)
(0.024467066 -1.0365976e-06 0)
(0.024670046 9.8421512e-07 0)
(0.024480101 -9.3464646e-07 0)
(0.024657599 8.872822e-07 0)
(0.024491998 -8.4258207e-07 0)
(0.024646225 8.0005131e-07 0)
(0.024502885 -7.6004303e-07 0)
(0.0246358 7.221568e-07 0)
(0.024512882 -6.867349e-07 0)
(0.024626207 6.5344948e-07 0)
(0.0245221 -6.2254352e-07 0)
(0.02461734 5.937714e-07 0)
(0.024530645 -5.6732157e-07 0)
(0.024609093 5.4299259e-07 0)
(0.024538621 -5.2097102e-07 0)
(0.024601365 5.0109485e-07 0)
(0.024546128 -4.834732e-07 0)
(0.024594056 4.6797125e-07 0)
(0.024553266 -4.5468051e-07 0)
(0.024587065 4.4356121e-07 0)
(0.024560136 -4.3442263e-07 0)
(0.024580286 4.2670479e-07 0)
(0.024566851 -4.4314048e-07 0)
(0.02457399 3.9350324e-07 0)
(0.024842306 0.0031824896 0)
(0.027177291 -4.2713237e-05 0)
(0.026002485 9.1406115e-06 0)
(0.026960294 1.2412583e-06 0)
(0.026087612 -3.5744833e-06 0)
(0.026915658 2.6404758e-06 0)
(0.026145477 -3.1079752e-06 0)
(0.026874886 2.7962233e-06 0)
(0.026187072 -2.7298021e-06 0)
(0.026837061 2.5657827e-06 0)
(0.026223343 -2.4511868e-06 0)
(0.026803033 2.325245e-06 0)
(0.026255623 -2.2141904e-06 0)
(0.026772547 2.1047767e-06 0)
(0.026284516 -2.0033513e-06 0)
(0.026745194 1.9053347e-06 0)
(0.026310462 -1.813333e-06 0)
(0.026720592 1.7246706e-06 0)
(0.026333824 -1.641045e-06 0)
(0.026698411 1.5604963e-06 0)
(0.026354912 -1.4843082e-06 0)
(0.026678367 1.4109193e-06 0)
(0.026373988 -1.3413944e-06 0)
(0.026660214 1.27449e-06 0)
(0.026391281 -1.2110768e-06 0)
(0.026643742 1.1501325e-06 0)
(0.026406988 -1.0923712e-06 0)
(0.026628765 1.0369553e-06 0)
(0.026421285 -9.8453534e-07 0)
(0.026615117 9.34422e-07 0)
(0.026434326 -8.8713522e-07 0)
(0.026602654 8.4210842e-07 0)
(0.026446251 -7.9976878e-07 0)
(0.026591238 7.5965702e-07 0)
(0.026457193 -7.2217433e-07 0)
(0.026580743 6.8692423e-07 0)
(0.026467274 -6.5419557e-07 0)
(0.026571051 6.2372391e-07 0)
(0.026476609 -5.9572621e-07 0)
(0.026562046 5.6997404e-07 0)
(0.026485314 -5.4666481e-07 0)
(0.026553616 5.2560819e-07 0)
(0.026493498 -5.0694486e-07 0)
(0.026545651 4.9052979e-07 0)
(0.026501274 -4.7645527e-07 0)
(0.026538038 4.6467744e-07 0)
(0.026508752 -4.5496605e-07 0)
(0.026530661 4.4678661e-07 0)
(0.026516053 -4.6518791e-07 0)
(0.026523762 4.101781e-07 0)
(0.026676162 0.0032939606 0)
(0.029076483 -4.9467235e-05 0)
(0.02784813 9.9248864e-06 0)
(0.028879499 1.1873037e-06 0)
(0.027934107 -3.7402505e-06 0)
(0.02883197 2.6967041e-06 0)
(0.027995889 -3.2492074e-06 0)
(0.02878761 2.9112631e-06 0)
(0.028040859 -2.8484573e-06 0)
(0.028746534 2.6756224e-06 0)
(0.028080198 -2.5575876e-06 0)
(0.028709588 2.426176e-06 0)
(0.028115248 -2.3108945e-06 0)
(0.02867647 2.1968934e-06 0)
(0.028146641 -2.0913651e-06 0)
(0.028646739 1.9891824e-06 0)
(0.028174848 -1.8933136e-06 0)
(0.028619986 1.8007936e-06 0)
(0.028200258 -1.7135672e-06 0)
(0.028595857 1.6294356e-06 0)
(0.028223199 -1.5498843e-06 0)
(0.028574048 1.4731566e-06 0)
(0.028243955 -1.4004872e-06 0)
(0.028554297 1.3304935e-06 0)
(0.02826277 -1.2641633e-06 0)
(0.028536376 1.200357e-06 0)
(0.028279856 -1.1399031e-06 0)
(0.028520086 1.0818587e-06 0)
(0.028295401 -1.0269649e-06 0)
(0.02850525 9.7444164e-07 0)
(0.028309573 -9.2490339e-07 0)
(0.028491709 8.7771549e-07 0)
(0.028322525 -8.3334873e-07 0)
(0.028479316 7.9129008e-07 0)
(0.028334398 -7.519962e-07 0)
(0.028467933 7.1504195e-07 0)
(0.028345326 -6.8074916e-07 0)
(0.02845743 6.488032e-07 0)
(0.028355437 -6.1945171e-07 0)
(0.028447682 5.9243473e-07 0)
(0.028364855 -5.6799776e-07 0)
(0.028438566 5.4592986e-07 0)
(0.028373702 -5.2637361e-07 0)
(0.02842996 5.0915431e-07 0)
(0.028382099 -4.9439131e-07 0)
(0.028421742 4.820315e-07 0)
(0.028390169 -4.7181759e-07 0)
(0.028413785 4.6327572e-07 0)
(0.02839804 -4.8358128e-07 0)
(0.028406294 4.2327794e-07 0)
(0.028462684 0.003382476 0)
(0.030906056 -5.6253109e-05 0)
(0.029627554 1.0587984e-05 0)
(0.030730478 1.1327762e-06 0)
(0.029714195 -3.8888643e-06 0)
(0.030680599 2.7296233e-06 0)
(0.029779563 -3.3680433e-06 0)
(0.030632675 3.0054288e-06 0)
(0.029827836 -2.9469258e-06 0)
(0.030588389 2.7664282e-06 0)
(0.029870199 -2.645864e-06 0)
(0.03054856 2.5099079e-06 0)
(0.029907983 -2.3912452e-06 0)
(0.030512842 2.2734667e-06 0)
(0.029941848 -2.1645863e-06 0)
(0.030480759 2.0589591e-06 0)
(0.029972293 -1.9599253e-06 0)
(0.030451877 1.8641966e-06 0)
(0.029999728 -1.7739727e-06 0)
(0.030425819 1.6868416e-06 0)
(0.030024505 -1.604474e-06 0)
(0.030402263 1.524943e-06 0)
(0.030046924 -1.449639e-06 0)
(0.030380928 1.3770281e-06 0)
(0.030067245 -1.3082421e-06 0)
(0.030361574 1.2420168e-06 0)
(0.030085694 -1.1792788e-06 0)
(0.030343988 1.1189917e-06 0)
(0.030102472 -1.0619974e-06 0)
(0.030327979 1.0074418e-06 0)
(0.030117761 -9.5599478e-07 0)
(0.030313376 9.0695343e-07 0)
(0.030131722 -8.6086132e-07 0)
(0.030300021 8.1715012e-07 0)
(0.030144511 -7.7633494e-07 0)
(0.030287766 7.3792038e-07 0)
(0.030156271 -7.0227293e-07 0)
(0.03027647 6.6906476e-07 0)
(0.03016714 -6.3856939e-07 0)
(0.030265995 6.1050148e-07 0)
(0.030177255 -5.8511459e-07 0)
(0.03025621 5.6216946e-07 0)
(0.030186746 -5.4184088e-07 0)
(0.030246981 5.239466e-07 0)
(0.030195747 -5.0860369e-07 0)
(0.030238176 4.9575665e-07 0)
(0.03020439 -4.8510997e-07 0)
(0.030229656 4.7623773e-07 0)
(0.030212813 -4.9822777e-07 0)
(0.030221588 4.3313944e-07 0)
(0.030201675 0.0034487563 0)
(0.032666977 -6.2981778e-05 0)
(0.03134045 1.1157936e-05 0)
(0.032513275 1.0760783e-06 0)
(0.031427948 -4.0245256e-06 0)
(0.032461471 2.7411239e-06 0)
(0.031496571 -3.4647057e-06 0)
(0.032410009 3.0792033e-06 0)
(0.03154807 -3.0254561e-06 0)
(0.032362559 2.8384861e-06 0)
(0.031593405 -2.7162492e-06 0)
(0.032319892 2.5766729e-06 0)
(0.031633882 -2.4554487e-06 0)
(0.032281609 2.3346924e-06 0)
(0.031670185 -2.2232089e-06 0)
(0.032247205 2.1148503e-06 0)
(0.031702837 -2.013296e-06 0)
(0.032216221 1.9149989e-06 0)
(0.031732274 -1.8223914e-06 0)
(0.032188258 1.7328425e-06 0)
(0.031758863 -1.6482141e-06 0)
(0.032162976 1.5663996e-06 0)
(0.031782924 -1.4889518e-06 0)
(0.032140079 1.4142122e-06 0)
(0.031804731 -1.3434202e-06 0)
(0.032119311 1.2752056e-06 0)
(0.031824525 -1.2106033e-06 0)
(0.032100447 1.1484804e-06 0)
(0.031842518 -1.089764e-06 0)
(0.032083282 1.0335146e-06 0)
(0.031858904 -9.8049459e-07 0)
(0.032067636 9.299384e-07 0)
(0.031873857 -8.8242743e-07 0)
(0.032053339 8.3734439e-07 0)
(0.031887543 -7.9525631e-07 0)
(0.03204023 7.5564578e-07 0)
(0.031900116 -7.1890837e-07 0)
(0.032028158 6.8466637e-07 0)
(0.031911725 -6.532216e-07 0)
(0.032016977 6.2426005e-07 0)
(0.031922517 -5.9808316e-07 0)
(0.032006541 5.7443426e-07 0)
(0.031932634 -5.5348534e-07 0)
(0.031996708 5.3502502e-07 0)
(0.03194222 -5.1919825e-07 0)
(0.031987334 5.0594072e-07 0)
(0.031951418 -4.949347e-07 0)
(0.031978272 4.858356e-07 0)
(0.031960373 -5.0941377e-07 0)
(0.031969642 4.3972672e-07 0)
(0.031892687 0.0034935333 0)
(0.034359793 -6.95007e-05 0)
(0.032986859 1.1624342e-05 0)
(0.034227955 1.0165976e-06 0)
(0.033075441 -4.1495398e-06 0)
(0.034174525 2.7329463e-06 0)
(0.033146982 -3.5394688e-06 0)
(0.034119548 3.1329965e-06 0)
(0.033201626 -3.0843947e-06 0)
(0.034068985 2.8921486e-06 0)
(0.033249875 -2.7690501e-06 0)
(0.034023528 2.6267503e-06 0)
(0.033292999 -2.5037569e-06 0)
(0.033982724 2.3808003e-06 0)
(0.0333317 -2.2674267e-06 0)
(0.033946035 2.1570322e-06 0)
(0.033366526 -2.0536351e-06 0)
(0.03391298 1.953399e-06 0)
(0.033397933 -1.8589904e-06 0)
(0.033883141 1.767593e-06 0)
(0.033426309 -1.6812363e-06 0)
(0.03385616 1.5976658e-06 0)
(0.033451987 -1.5185757e-06 0)
(0.033831724 1.4421726e-06 0)
(0.033475257 -1.3698302e-06 0)
(0.033809565 1.3000668e-06 0)
(0.033496371 -1.2340048e-06 0)
(0.033789444 1.1704295e-06 0)
(0.033515558 -1.1103618e-06 0)
(0.033771146 1.0527987e-06 0)
(0.033533021 -9.9854818e-07 0)
(0.033754478 9.4678436e-07 0)
(0.033548945 -8.9815572e-07 0)
(0.033739258 8.5199672e-07 0)
(0.033563506 -8.0892909e-07 0)
(0.033725317 7.683663e-07 0)
(0.033576871 -7.3074472e-07 0)
(0.033712491 6.9568121e-07 0)
(0.0335892 -6.6349878e-07 0)
(0.033700622 6.3386123e-07 0)
(0.033600648 -6.0707404e-07 0)
(0.033689556 5.8285357e-07 0)
(0.033611371 -5.6140337e-07 0)
(0.033679139 5.4250823e-07 0)
(0.033621522 -5.263071e-07 0)
(0.033669217 5.1273574e-07 0)
(0.033631254 -5.0144262e-07 0)
(0.033659632 4.9214244e-07 0)
(0.033640722 -5.1704204e-07 0)
(0.033650459 4.4341435e-07 0)
(0.033535065 0.0035174851 0)
(0.035984155 -7.5350178e-05 0)
(0.034567701 1.1684091e-05 0)
(0.035874426 9.0633829e-07 0)
(0.034656699 -4.2715248e-06 0)
(0.035819672 2.7069316e-06 0)
(0.034730858 -3.5924284e-06 0)
(0.035761222 3.1674391e-06 0)
(0.034788563 -3.1240399e-06 0)
(0.035707608 2.927784e-06 0)
(0.034839664 -2.8045684e-06 0)
(0.035659416 2.6604436e-06 0)
(0.034885381 -2.5364444e-06 0)
(0.035616137 2.4120533e-06 0)
(0.034926436 -2.297501e-06 0)
(0.035577206 2.1857555e-06 0)
(0.034963397 -2.0811287e-06 0)
(0.035542117 1.9795727e-06 0)
(0.03499674 -1.8839567e-06 0)
(0.035510434 1.7912774e-06 0)
(0.03502687 -1.703733e-06 0)
(0.035481782 1.6189141e-06 0)
(0.035054136 -1.5386603e-06 0)
(0.035455836 1.461076e-06 0)
(0.035078841 -1.3876248e-06 0)
(0.035432313 1.3167369e-06 0)
(0.035101252 -1.2496299e-06 0)
(0.035410961 1.1850073e-06 0)
(0.035121608 -1.1239636e-06 0)
(0.035391554 1.0654208e-06 0)
(0.035140122 -1.0102728e-06 0)
(0.035373887 9.5763953e-07 0)
(0.035156993 -9.0819854e-07 0)
(0.035357768 8.6124303e-07 0)
(0.035172408 -8.1743983e-07 0)
(0.035343016 7.7618957e-07 0)
(0.035186543 -7.3795153e-07 0)
(0.035329458 7.0229492e-07 0)
(0.035199568 -6.6956697e-07 0)
(0.035316924 6.3940746e-07 0)
(0.035211653 -6.1216752e-07 0)
(0.03530525 5.8755077e-07 0)
(0.03522296 -5.6575238e-07 0)
(0.035294271 5.4652966e-07 0)
(0.035233654 -5.3004949e-07 0)
(0.035283821 5.1623987e-07 0)
(0.0352439 -5.0473449e-07 0)
(0.035273735 4.9533905e-07 0)
(0.035253859 -5.2144511e-07 0)
(0.035264038 4.4414433e-07 0)
(0.035128207 0.0035214186 0)
(0.037535972 -8.0767984e-05 0)
(0.036086411 1.1563395e-05 0)
(0.037453328 7.9192493e-07 0)
(0.03617183 -4.3879425e-06 0)
(0.037396847 2.6642327e-06 0)
(0.036248258 -3.6241786e-06 0)
(0.03733497 3.1828806e-06 0)
(0.036308939 -3.1448633e-06 0)
(0.037278372 2.9458016e-06 0)
(0.036362824 -2.8231911e-06 0)
(0.037227505 2.6780995e-06 0)
(0.036411078 -2.5538325e-06 0)
(0.037181805 2.4287462e-06 0)
(0.036454437 -2.3136878e-06 0)
(0.037140678 2.2012562e-06 0)
(0.036493489 -2.0960496e-06 0)
(0.037103596 1.9937796e-06 0)
(0.036528729 -1.8975142e-06 0)
(0.037070107 1.8041039e-06 0)
(0.036560577 -1.715886e-06 0)
(0.03703982 1.6303343e-06 0)
(0.036589398 -1.549406e-06 0)
(0.037012395 1.4710948e-06 0)
(0.036615508 -1.3969808e-06 0)
(0.036987536 1.3254018e-06 0)
(0.036639186 -1.2576471e-06 0)
(0.036964982 1.192354e-06 0)
(0.036660682 -1.1306988e-06 0)
(0.036944493 1.0715548e-06 0)
(0.036680222 -1.0158474e-06 0)
(0.036925853 9.6264798e-07 0)
(0.036698015 -9.1269159e-07 0)
(0.036908861 8.6523318e-07 0)
(0.036714258 -8.2098773e-07 0)
(0.036893323 7.7929031e-07 0)
(0.036729138 -7.4063492e-07 0)
(0.036879056 7.0459487e-07 0)
(0.036742838 -6.7153221e-07 0)
(0.036865881 6.4106902e-07 0)
(0.036755535 -6.1355551e-07 0)
(0.036853621 5.8867077e-07 0)
(0.036767403 -5.6663985e-07 0)
(0.036842101 5.4722083e-07 0)
(0.036778619 -5.305703e-07 0)
(0.036831146 5.1661942e-07 0)
(0.036789356 -5.0497487e-07 0)
(0.03682058 4.9550251e-07 0)
(0.036799785 -5.2251668e-07 0)
(0.036810379 4.4232129e-07 0)
(0.036671223 0.003506098 0)
(0.039013265 -8.6405254e-05 0)
(0.037544441 1.1784781e-05 0)
(0.038965642 8.290985e-07 0)
(0.037621011 -4.4698016e-06 0)
(0.038906044 2.6135233e-06 0)
(0.037699259 -3.633466e-06 0)
(0.038840737 3.1803185e-06 0)
(0.037762811 -3.1471656e-06 0)
(0.038781223 2.9466575e-06 0)
(0.037819406 -2.8252823e-06 0)
(0.038727748 2.680091e-06 0)
(0.037870133 -2.5562606e-06 0)
(0.038679685 2.4312072e-06 0)
(0.037915741 -2.3163128e-06 0)
(0.038636413 2.203848e-06 0)
(0.037956836 -2.0986402e-06 0)
(0.038597385 1.9962498e-06 0)
(0.037993928 -1.8999047e-06 0)
(0.038562131 1.8063109e-06 0)
(0.038027455 -1.7179411e-06 0)
(0.038530246 1.6321476e-06 0)
(0.038057794 -1.5510078e-06 0)
(0.038501377 1.4724412e-06 0)
(0.038085275 -1.3980938e-06 0)
(0.038475218 1.3262385e-06 0)
(0.038110187 -1.258241e-06 0)
(0.038451491 1.1926763e-06 0)
(0.038132794 -1.1307781e-06 0)
(0.03842995 1.0713586e-06 0)
(0.03815333 -1.0154181e-06 0)
(0.038410366 9.6198596e-07 0)
(0.038172017 -9.1181466e-07 0)
(0.038392527 8.6412798e-07 0)
(0.038189062 -8.1967649e-07 0)
(0.03837623 7.7779359e-07 0)
(0.038204662 -7.3898832e-07 0)
(0.03836128 7.0279002e-07 0)
(0.03821901 -6.6957967e-07 0)
(0.038347487 6.3896135e-07 0)
(0.038232296 -6.1132702e-07 0)
(0.038334664 5.8634895e-07 0)
(0.038244702 -5.6423749e-07 0)
(0.038322628 5.4472591e-07 0)
(0.038256416 -5.279982e-07 0)
(0.03831119 5.1397907e-07 0)
(0.038267623 -5.0226979e-07 0)
(0.038300166 4.9282706e-07 0)
(0.0382785 -5.2062848e-07 0)
(0.038289483 4.3786015e-07 0)
(0.038162595 0.0034722832 0)
(0.040424589 -9.1256123e-05 0)
(0.038935998 1.1656572e-05 0)
(0.040410519 8.9613538e-07 0)
(0.039004051 -4.5355063e-06 0)
(0.040347135 2.5512694e-06 0)