/*--------------------------------*- C++ -*----------------------------------*\
| =========                 |                                                 |
| \\      /  F ield         | OpenFOAM: The Open Source CFD Toolbox           |
|  \\    /   O peration     | Version:  2312                                  |
|   \\  /    A nd           | Website:  www.openfoam.com                      |
|    \\/     M anipulation  |                                                 |
\*---------------------------------------------------------------------------*/
FoamFile
{
    version     2.0;
    format      ascii;
    arch        "LSB;label=32;scalar=64";
    class       volScalarField;
    location    "7";
    object      T;
}
// * * * * * * * * * * * * * * * * * * * * * * * * * * * * * * * * * * * * * //

dimensions      [0 0 0 1 0 0 0];

internalField   nonuniform List<scalar> 
4000
(
312.47893
311.77975
311.64202
311.60373
311.55951
311.52972
311.50095
311.47569
311.45122
311.42873
311.4062
311.38513
311.36378
311.34354
311.32303
311.30331
311.28342
311.26406
311.24465
311.22555
311.20651
311.18761
311.16888
311.15011
311.13164
311.11298
311.09472
311.07614
311.05807
311.03955
311.02165
311.00317
310.98542
310.96696
310.94935
310.93091
310.91343
310.89499
310.87763
310.85918
310.84195
310.82347
310.80637
310.78783
310.77088
310.75226
310.73551
310.71672
310.70029
310.68087
313.66676
312.53861
312.16584
312.08519
311.98753
311.93279
311.88123
311.8401
311.8014
311.76859
311.73568
311.70713
311.67779
311.65171
311.62487
311.60037
311.57539
311.55197
311.52842
311.50578
311.48336
311.46129
311.43978
311.41815
311.3974
311.37609
311.35599
311.33492
311.31539
311.29449
311.27546
311.25469
311.2361
311.21541
311.19725
311.1766
311.15882
311.13817
311.12077
311.10008
311.08306
311.06228
311.04566
311.02472
311.00855
310.98736
310.97175
310.95006
310.93545
310.91193
314.3999
313.26815
312.68529
312.5633
312.4136
312.33421
312.26021
312.2033
312.15054
312.10744
312.06426
312.02823
311.99099
311.95906
311.92596
311.89666
311.86665
311.83916
311.81151
311.78532
311.75954
311.73431
311.71006
311.68553
311.66255
311.63856
311.61666
311.59308
311.57211
311.54882
311.52868
311.50561
311.48621
311.46327
311.44456
311.4217
311.40363
311.38077
311.36334
311.34041
311.3236
311.30053
311.28438
311.26105
311.24565
311.22189
311.20744
311.18285
311.17004
311.14263
314.88539
313.94369
313.19279
313.03344
312.83482
312.73177
312.63615
312.56379
312.4974
312.44411
312.39094
312.34748
312.30252
312.26476
312.22555
312.19146
312.15652
312.12495
312.0933
312.06355
312.0345
312.00608
311.97915
311.95173
311.92655
311.89989
311.87622
311.85012
311.82775
311.80207
311.78085
311.75546
311.73528
311.71009
311.69087
311.66578
311.64745
311.62237
311.60492
311.57975
311.56317
311.5378
311.52215
311.49641
311.4818
311.45547
311.44218
311.41471
311.40365
311.37264
315.22133
314.54276
313.67851
313.4894
313.24721
313.12245
313.00671
312.91959
312.84029
312.77711
312.7144
312.66365
312.6113
312.56777
312.5227
312.48384
312.44418
312.40855
312.37304
312.33974
312.30753
312.27593
312.24642
312.2161
312.18882
312.15947
312.13411
312.10548
312.08178
312.05369
312.03145
312.00375
311.98283
311.95538
311.93568
311.90836
311.88981
311.8625
311.84507
311.81765
311.80133
311.77366
311.75851
311.73039
311.71657
311.68769
311.67554
311.64524
311.63583
311.60157
315.46157
315.05227
314.13225
313.92394
313.646
313.50261
313.369
313.2683
313.17718
313.10463
313.03305
312.97529
312.91601
312.86689
312.81629
312.77278
312.72864
312.68902
312.64987
312.61305
312.57786
312.5431
312.51115
312.47795
312.44869
312.41666
312.3897
312.35856
312.3336
312.30312
312.27992
312.24991
312.22831
312.19861
312.17848
312.14894
312.1302
312.10068
312.08329
312.05364
312.0376
312.00765
311.99303
311.96253
311.94951
311.91811
311.90708
311.87405
311.86616
311.82902
315.63693
315.4654
314.54479
314.32956
314.02601
313.86818
313.71975
313.60718
313.50574
313.4246
313.34508
313.28075
313.21517
313.16073
313.10507
313.05707
313.00882
312.96532
312.9228
312.88255
312.8446
312.80675
312.77254
312.7365
312.7054
312.67074
312.64231
312.60868
312.58257
312.54972
312.52565
312.49336
312.47115
312.43922
312.41872
312.38699
312.36811
312.3364
312.31909
312.28724
312.27151
312.2393
312.22522
312.1924
312.18016
312.14632
312.13635
312.1007
312.09416
312.05451
315.76739
315.78414
314.90944
314.69932
314.38216
314.21494
314.0555
313.9333
313.82343
313.7348
313.64849
313.57822
313.50715
313.44779
313.38765
313.33543
313.28352
313.23632
313.19079
313.14724
313.10681
313.06597
313.02972
312.99093
312.95818
312.92095
312.8912
312.85514
312.828
312.79283
312.768
312.73346
312.71074
312.67662
312.65583
312.62193
312.60298
312.56912
312.55194
312.51792
312.50252
312.46812
312.45458
312.4195
312.40803
312.37184
312.36288
312.32478
312.31938
312.27757
315.86634
316.01638
315.22243
315.02787
314.70993
314.53889
314.37281
314.24369
314.12764
314.03291
313.94122
313.86584
313.79024
313.72649
313.66257
313.60652
313.55147
313.50084
313.45271
313.40606
313.36348
313.31981
313.28179
313.24037
313.20619
313.16648
313.1356
313.09719
313.06918
313.03176
313.0063
312.96958
312.94644
312.91019
312.88919
312.8532
312.83423
312.79829
312.78128
312.74517
312.73013
312.69361
312.68062
312.64337
312.63264
312.59422
312.58618
312.54582
312.54138
312.49772
315.94306
316.17465
315.48338
315.31206
315.00579
314.83647
314.66849
314.53553
314.41583
314.31666
314.22119
314.14171
314.0627
313.99522
313.92836
313.86892
313.81136
313.75765
313.70741
313.65792
313.61358
313.56727
313.52781
313.48391
313.44856
313.40652
313.37471
313.33408
313.30536
313.26579
313.23984
313.20104
313.1776
313.13932
313.1182
313.0802
313.06128
313.02334
313.00655
312.96844
312.95379
312.91525
312.90281
312.86351
312.85349
312.81299
312.80578
312.76339
312.7597
312.71448
316.00429
316.27382
315.69467
315.5513
315.26737
315.10495
314.93985
314.80631
314.68566
314.58389
314.48642
314.404
314.32282
314.25243
314.18352
314.12128
314.0619
314.00554
313.95372
313.90173
313.85606
313.80738
313.76681
313.72066
313.68442
313.64023
313.60772
313.56502
313.53579
313.49422
313.46793
313.42718
313.40356
313.36336
313.34222
313.30232
313.28353
313.24371
313.2272
313.1872
313.17296
313.13252
313.12064
313.07943
313.07007
313.02768
313.02119
312.97702
312.9739
312.92736
316.05456
316.32916
315.86118
315.74731
315.4937
315.34259
315.18489
315.05399
314.93512
314.83274
314.73511
314.65105
314.56903
314.49661
314.42665
314.36227
314.30183
314.24331
314.19052
314.13641
314.08988
314.03915
313.99786
313.94972
313.9129
313.86677
313.83383
313.78925
313.75973
313.71631
313.68986
313.64731
313.62366
313.58168
313.56063
313.51898
313.5004
313.45883
313.44265
313.4009
313.38711
313.34493
313.33358
313.29064
313.2819
313.23781
313.23194
313.18623
313.18354
313.13592
316.09723
316.35497
315.98915
315.90365
315.68518
315.54879
315.40242
315.27715
315.16268
315.06167
314.96576
314.88141
314.79992
314.72645
314.65648
314.59068
314.52998
314.46987
314.41673
314.36095
314.31407
314.26165
314.22005
314.17022
314.13316
314.08536
314.05226
314.00602
313.97643
313.93138
313.90495
313.86078
313.83724
313.79366
313.77282
313.72957
313.7113
313.66814
313.65234
313.60902
313.59569
313.55195
313.54113
313.49666
313.48847
313.44293
313.43758
313.39059
313.38819
313.33968
316.13434
316.36296
316.08551
316.02516
315.84361
315.72412
315.59216
315.47509
315.36737
315.26963
315.17723
315.09393
315.01434
314.94082
314.87189
314.80543
314.7453
314.68421
314.63138
314.57442
314.52772
314.47401
314.43254
314.38136
314.34441
314.29523
314.26226
314.21462
314.1852
314.13875
314.11254
314.06696
314.04369
313.99871
313.97819
313.93355
313.91566
313.87111
313.85575
313.81105
313.79821
313.7531
313.7428
313.69701
313.68933
313.64256
313.63764
313.58962
313.58743
313.53822
316.16746
316.36218
316.15698
316.1174
315.97186
315.87023
315.75471
315.64784
315.54883
315.45605
315.36879
315.28784
315.21143
315.13886
315.07199
315.00568
314.94693
314.88548
314.83362
314.77601
314.73002
314.67546
314.63455
314.5824
314.54593
314.49569
314.46315
314.4144
314.38539
314.3378
314.312
314.26526
314.24242
314.19626
314.17619
314.13037
314.11295
314.06722
314.05236
314.00649
313.99416
313.94791
313.93811
313.89123
313.88403
313.83628
313.83171
313.78291
313.78086
313.73114
316.19738
316.35857
316.20975
316.18609
316.07361
315.9896
315.8915
315.79615
315.70735
315.62091
315.54017
315.46273
315.39067
315.32001
315.25615
315.19075
315.13417
315.07301
315.02276
314.96503
314.9203
314.86534
314.82543
314.7727
314.73707
314.68612
314.65431
314.60477
314.57641
314.52796
314.50278
314.45513
314.43288
314.38579
314.3663
314.31953
314.30267
314.25599
314.24169
314.19488
314.18309
314.13593
314.12664
314.07892
314.07214
314.02366
314.01939
313.97005
313.9681
313.91803
316.22475
316.35579
316.249
316.23661
316.15293
316.08536
316.00464
315.92143
315.84376
315.76469
315.69158
315.61862
315.55191
315.484
315.42402
315.36027
315.30658
315.24634
315.19831
315.14099
315.09801
315.04312
315.00464
314.95174
314.9173
314.866
314.83522
314.78521
314.75776
314.70875
314.68437
314.6361
314.6146
314.56684
314.54805
314.50059
314.48438
314.43701
314.42331
314.37582
314.36458
314.31677
314.30797
314.25966
314.25328
314.20432
314.2003
314.15066
314.14878
314.09856
316.24986
316.35538
316.27891
316.27373
316.21395
316.16093
316.0967
316.0256
315.95945
315.88839
315.82363
315.75592
315.69534
315.63092
315.57554
315.5141
315.46394
315.4052
315.35994
315.30355
315.26279
315.20843
315.17178
315.11911
315.0862
315.03493
315.00545
314.95531
314.92899
314.87973
314.85637
314.80777
314.78717
314.73902
314.72104
314.67315
314.65769
314.60987
314.59684
314.54891
314.53826
314.49005
314.48175
314.43311
314.4271
314.37792
314.37412
314.32439
314.32258
314.27238
316.273
316.35781
316.3026
316.30137
316.26058
316.21982
316.17055
316.11094
316.0562
315.99337
315.93737
315.8754
315.82151
315.76114
315.71093
315.65237
315.60627
315.54956
315.50754
315.45258
315.41446
315.36107
315.32659
315.27457
315.24349
315.19261
315.1647
315.11476
315.0898
315.04061
315.01843
314.9698
314.95024
314.90199
314.88494
314.8369
314.82225
314.77426
314.76195
314.71385
314.70382
314.65547
314.64766
314.59894
314.5933
314.54414
314.54054
314.49095
314.48921
314.43921
316.2943
316.36269
316.32226
316.3226
316.29628
316.26535
316.22912
316.17994
316.13605
316.08133
316.03413
315.97816
315.93126
315.87536
315.83071
315.77547
315.73385
315.67961
315.64123
315.58811
315.55298
315.50097
315.46899
315.41798
315.38901
315.33888
315.31277
315.26337
315.23997
315.19115
315.17032
315.12195
315.10358
315.0555
315.03949
314.99157
314.97782
314.92992
314.91838
314.87038
314.86099
314.81276
314.80545
314.75691
314.75162
314.70271
314.69932
314.65007
314.64841
314.59881
316.31394
316.36945
316.33934
316.33966
316.32393
316.30052
316.27523
316.23514
316.20121
316.15415
316.11548
316.06553
316.02569
315.97447
315.93561
315.88402
315.84714
315.79575
315.76129
315.71039
315.67853
315.62825
315.59903
315.54938
315.52276
315.4737
315.4496
315.40105
315.37938
315.33125
315.31191
315.26409
315.24702
315.1994
315.18451
315.13698
315.12421
315.07667
315.06594
315.01829
315.00957
314.96171
314.95492
314.90679
314.90186
314.85344
314.85026
314.80156
314.79998
314.75097
316.33205
316.37737
316.35472
316.35409
316.34586
316.32789
316.31146
316.27898
316.25389
316.21381
316.18317
316.13901
316.1061
316.05961
316.02658
315.97884
315.94684
315.89856
315.86821
315.81982
315.79143
315.7432
315.71693
315.66895
315.64485
315.59717
315.57523
315.52784
315.50803
315.46087
315.44316
315.39617
315.38049
315.3336
315.31991
315.27305
315.26129
315.21437
315.20451
315.15746
315.14943
315.10218
315.09593
315.04845
315.04389
314.99617
314.9932
314.94524
314.94377
314.89552
316.34877
316.38592
316.36891
316.36689
316.3638
316.34955
316.34005
316.3137
316.29621
316.26226
316.23895
316.20023
316.17388
316.13204
316.10472
316.06088
316.03379
315.98878
315.96262
315.91697
315.89217
315.84622
315.82303
315.77699
315.75554
315.70951
315.68986
315.64388
315.62605
315.58012
315.56412
315.51822
315.50402
315.45812
315.4457
315.39974
315.38906
315.343
315.33403
315.28782
315.2805
315.2341
315.22839
315.18178
315.17761
315.13078
315.12805
315.08102
315.07965
315.03237
316.36423
316.39468
316.38217
316.37864
316.37901
316.36711
316.36287
316.34126
316.33012
316.3014
316.28459
316.25079
316.23052
316.1931
316.17122
316.13126
316.10895
316.06728
316.04529
316.00252
315.98134
315.93787
315.91782
315.87393
315.8552
315.81104
315.79376
315.74942
315.73366
315.68919
315.67497
315.63039
315.61773
315.57304
315.56194
315.51712
315.50755
315.46258
315.45452
315.40937
315.4028
315.35746
315.35231
315.30677
315.30298
315.25725
315.25476
315.20884
315.2076
315.16143
316.37856
316.40339
316.3946
316.38966
316.39233
316.38178
316.38143
316.36334
316.35734
316.33292
316.32172
316.29226
316.27749
316.24416
316.22735
316.19112
316.17338
316.13504
316.1171
316.07728
316.05966
316.0188
316.00188
315.96029
315.94431
315.9022
315.88732
315.84482
315.83115
315.78835
315.77596
315.73291
315.72182
315.67855
315.66879
315.62532
315.61689
315.57321
315.56609
315.5222
315.51638
315.47229
315.46771
315.42342
315.42005
315.37558
315.37335
315.3287
315.32759
315.28271
316.39186
316.41189
316.40626
316.40011
316.40431
316.39442
316.39685
316.38127
316.37934
316.35835
316.35187
316.32614
316.31619
316.28656
316.27437
316.24164
316.22816
316.19306
316.17898
316.1421
316.12794
316.08974
316.07589
316.03671
316.02344
315.98351
315.97102
315.93052
315.91895
315.87798
315.86741
315.82607
315.81657
315.7749
315.7665
315.72455
315.71727
315.67506
315.66889
315.62644
315.62138
315.57871
315.57471
315.53185
315.52889
315.48584
315.48388
315.44066
315.43967
315.39624
316.40423
316.4201
316.41719
316.41003
316.41528
316.40561
316.40999
316.39611
316.3973
316.37898
316.37636
316.35375
316.34795
316.32159
316.31351
316.284
316.27442
316.24239
316.23191
316.19791
316.18702
316.15149
316.14058
316.10386
316.09322
316.05557
316.04542
316.00702
315.99751
315.95851
315.94975
315.91026
315.90232
315.86242
315.85536
315.8151
315.80895
315.76837
315.76315
315.7223
315.71799
315.6769
315.67348
315.63218
315.62964
315.58816
315.58647
315.54481
315.54396
315.5021
316.41578
316.42799
316.42739
316.41944
316.42544
316.41572
316.42145
316.40867
316.41219
316.39587
316.39634
316.37628
316.37396
316.35042
316.34591
316.31932
316.31321
316.28406
316.27687
316.24563
316.23778
316.20487
316.19674
316.16248
316.15435
316.11902
316.11111
316.0749
316.06738
316.03045
316.02344
315.98591
315.97951
315.94148
315.93574
315.89729
315.89226
315.85344
315.84914
315.81002
315.80646
315.76707
315.76423
315.72462
315.7225
315.6827
315.68129
315.6413
315.64059
315.60042
316.42656
316.43555
316.4369
316.42834
316.43488
316.425
316.43163
316.41952
316.42473
316.40988
316.41276
316.39474
316.39526
316.37412
316.37264
316.34864
316.34557
316.31906
316.31481
316.28618
316.28111
316.25073
316.24516
316.21333
316.20755
316.17454
316.16875
316.13476
316.12914
316.09432
316.089
316.05351
316.04858
316.01251
316.00805
315.9715
315.96756
315.93061
315.92721
315.88991
315.88708
315.8495
315.84724
315.80941
315.80771
315.76968
315.76855
315.73034
315.72977
315.69137
316.43664
316.44279
316.44575
316.43672
316.44366
316.43356
316.4408
316.42908
316.43549
316.42167
316.42638
316.40996
316.41275
316.39362
316.39465
316.37291
316.37244
316.34832
316.34664
316.32045
316.31785
316.28988
316.28664
316.25717
316.25354
316.22282
316.21901
316.18723
316.18339
316.15072
316.14698
316.11357
316.11004
316.076
316.07275
316.03818
316.03527
316.00025
315.99773
315.96233
315.96021
315.9245
315.92279
315.88683
315.88554
315.84936
315.8485
315.81214
315.81171
315.77518
316.44608
316.4497
316.45396
316.44456
316.45181
316.4415
316.44913
316.43761
316.44483
316.43176
316.4378
316.42263
316.42718
316.4097
316.41277
316.39297
316.39468
316.3727
316.37323
316.34926
316.34883
316.32313
316.32196
316.29475
316.29307
316.26458
316.26255
316.23297
316.23076
316.20024
316.19797
316.16665
316.16442
316.13243
316.13032
316.09776
316.09584
316.06279
316.06109
316.02765
316.0262
315.99243
315.99125
315.95721
315.95631
315.92204
315.92144
315.88699
315.88668
315.85207
316.45492
316.45629
316.46155
316.45187
316.45933
316.44885
316.45672
316.44531
316.45306
316.44051
316.44748
316.43329
316.43915
316.42303
316.4277
316.40957
316.41305
316.39296
316.39533
316.3734
316.37482
316.35122
316.35186
316.3268
316.32683
316.30048
316.30007
316.27261
316.27188
316.24347
316.24254
316.2133
316.21227
316.18233
316.18128
316.15074
316.14972
316.11868
316.11775
316.08629
316.08547
316.05366
316.05298
316.02089
316.02036
315.98804
315.98768
315.95517
315.95499
315.92233
316.46318
316.46255
316.46854
316.45864
316.46624
316.45562
316.46361
316.45228
316.46035
316.44818
316.45579
316.44234
316.44916
316.43416
316.44004
316.42333
316.42821
316.40977
316.41366
316.39355
316.39653
316.37486
316.37705
316.35398
316.35551
316.3312
316.3322
316.30679
316.30737
316.281
316.28128
316.25408
316.25414
316.22622
316.22613
316.1976
316.19741
316.16837
316.16814
316.13866
316.13843
316.10859
316.10837
316.07824
316.07806
316.0477
316.04757
316.01702
316.01695
315.98626
316.4709
316.46845
316.47494
316.46486
316.47251
316.46181
316.46986
316.4586
316.46683
316.45496
316.46296
316.45012
316.45759
316.4435
316.45027
316.43477
316.44073
316.42374
316.42882
316.41034
316.41459
316.39469
316.39816
316.37695
316.37974
316.35734
316.35956
316.3361
316.33783
316.31343
316.31477
316.28954
316.29056
316.26462
316.26538
316.23883
316.2394
316.21232
316.21273
316.18522
316.18551
316.15763
316.15784
316.12966
316.1298
316.10138
316.10147
316.07287
316.07291
316.04418
316.47807
316.47395
316.48073
316.47052
316.47816
316.46743
316.47547
316.4643
316.47258
316.46097
316.46919
316.45684
316.46473
316.45141
316.4588
316.44433
316.45107
316.43534
316.44134
316.42432
316.42956
316.41126
316.41577
316.39627
316.40011
316.3795
316.38273
316.36111
316.36382
316.3413
316.34355
316.32022
316.32207
316.29805
316.29956
316.27493
316.27615
316.251
316.25198
316.22639
316.22716
316.2012
316.20179
316.17553
316.17596
316.14946
316.14974
316.12307
316.12321
316.09641
316.48464
316.479
316.4859
316.47559
316.48317
316.47247
316.48045
316.46942
316.47767
316.46631
316.4746
316.4627
316.47081
316.45815
316.46593
316.45235
316.45963
316.445
316.45167
316.43594
316.44194
316.42508
316.43041
316.41247
316.41714
316.39819
316.40225
316.38236
316.38587
316.36513
316.36814
316.34663
316.34918
316.32699
316.32914
316.30636
316.30816
316.28487
316.28634
316.26262
316.2638
316.23972
316.24064
316.21626
316.21693
316.19233
316.19277
316.16799
316.16821
316.14331
316.49053
316.48352
316.4904
316.48006
316.48755
316.47693
316.48482
316.47396
316.48213
316.47103
316.4793
316.4678
316.476
316.46392
316.4719
316.4591
316.46672
316.45307
316.46019
316.44561
316.45215
316.4366
316.44252
316.42601
316.43133
316.4139
316.41862
316.40033
316.40448
316.3854
316.38903
316.36923
316.37236
316.35192
316.35461
316.33359
316.33587
316.31436
316.31625
316.29433
316.29587
316.27359
316.2748
316.25224
316.25313
316.23034
316.23093
316.20798
316.20827
316.18522
316.49556
316.48741
316.4942
316.48392
316.49128
316.48082
316.48859
316.47796
316.48599
316.47518
316.48336
316.47224
316.48042
316.46887
316.47692
316.46482
316.47261
316.45982
316.46721
316.45365
316.46055
316.44617
316.45252
316.4373
316.44308
316.42704
316.43225
316.41544
316.42009
316.40256
316.40667
316.38847
316.39207
316.37327
316.37638
316.35705
316.35971
316.33991
316.34214
316.32194
316.32376
316.30322
316.30466
316.28385
316.28492
316.26389
316.2646
316.24341
316.24376
316.22248
316.49955
316.49061
316.4973
316.48715
316.49439
316.48414
316.49177
316.48141
316.48929
316.4788
316.48683
316.4761
316.48417
316.47312
316.48114
316.46966
316.47749
316.46548
316.47299
316.46035
316.46745
316.45411
316.46072
316.44667
316.45276
316.438
316.44355
316.4281
316.43311
316.417
316.42147
316.40477
316.40871
316.39145
316.39489
316.37713
316.3801
316.3619
316.3644
316.34583
316.34788
316.32899
316.33062
316.31147
316.31268
316.29333
316.29413
316.27463
316.27503
316.25544
316.50234
316.49305
316.49968
316.48976
316.49689
316.48692
316.4944
316.48435
316.49206
316.48191
316.48976
316.47943
316.48734
316.47677
316.48466
316.47376
316.48153
316.47022
316.47773
316.46591
316.47308
316.46069
316.46743
316.45443
316.46069
316.44709
316.45285
316.43864
316.44388
316.42909
316.4338
316.41847
316.42266
316.40683
316.41051
316.39422
316.3974
316.38071
316.38341
316.36637
316.3686
316.35126
316.35303
316.33545
316.33677
316.319
316.31988
316.30198
316.30242
316.28443
316.50395
316.49475
316.50138
316.49179
316.49882
316.48918
316.4965
316.48681
316.49432
316.48455
316.49219
316.48227
316.48998
316.47987
316.48758
316.47724
316.48485
316.47418
316.4816
316.47053
316.47765
316.46612
316.47287
316.46083
316.46714
316.45458
316.46043
316.44736
316.45271
316.43913
316.44398
316.42991
316.43426
316.41974
316.42357
316.40864
316.41197
316.39668
316.39952
316.3839
316.38626
316.37037
316.37224
316.35614
316.35754
316.34125
316.34219
316.32578
316.32625
316.30977
316.50453
316.49579
316.50247
316.49329
316.50022
316.49096
316.49813
316.48882
316.49613
316.48675
316.49416
316.48467
316.49214
316.4825
316.48998
316.48015
316.48756
316.47749
316.48474
316.47435
316.48134
316.47057
316.47723
316.46606
316.47233
316.46072
316.46656
316.45451
316.45988
316.4474
316.45229
316.43938
316.44379
316.43048
316.43439
316.42072
316.42412
316.41012
316.41304
316.39875
316.40117
316.38664
316.38857
316.37383
316.37528
316.36039
316.36135
316.34635
316.34683
316.33176
316.50439
316.49631
316.50304
316.49432
316.50115
316.49231
316.49931
316.49041
316.49752
316.48855
316.49572
316.48666
316.49387
316.48469
316.49191
316.48258
316.48974
316.48022
316.48723
316.47747
316.48426
316.4742
316.48069
316.47029
316.47644
316.46568
316.47143
316.4603
316.46562
316.45412
316.45899
316.44713
316.45152
316.43932
316.44323
316.43071
316.43413
316.42132
316.42425
316.41119
316.41363
316.40035
316.40231
316.38884
316.39031
316.3767
316.37768
316.36397
316.36446
316.3507
316.50384
316.49644
316.5032
316.49497
316.50169
316.49329
316.50011
316.49164
316.49852
316.48998
316.49691
316.48828
316.49522
316.48649
316.49342
316.48457
316.49144
316.48245
316.48918
316.47999
316.48652
316.4771
316.48336
316.47367
316.47962
316.46963
316.47521
316.46492
316.47011
316.45951
316.46427
316.45337
316.45768
316.44648
316.45033
316.43886
316.44224
316.43052
316.43343
316.42148
316.42391
316.41177
316.41372
316.40142
316.40288
316.39046
316.39144
316.37893
316.37942
316.36685
316.50311
316.49633
316.50305
316.4953
316.50189
316.49394
316.50057
316.49254
316.49919
316.49108
316.49775
316.48956
316.49621
316.48793
316.49455
316.48617
316.49271
316.48421
316.49063
316.48197
316.4882
316.47936
316.48535
316.47629
316.48199
316.47269
316.47806
316.46851
316.47351
316.46372
316.46832
316.45827
316.46246
316.45216
316.45591
316.44538
316.44868
316.43794
316.44079
316.42986
316.43224
316.42114
316.42305
316.41182
316.41326
316.40191
316.40288
316.39146
316.39194
316.38048
316.50234
316.49608
316.50268
316.49539
316.50183
316.49433
316.50076
316.49316
316.49958
316.4919
316.4983
316.49053
316.49689
316.48904
316.49533
316.48739
316.4936
316.48556
316.49164
316.48347
316.48936
316.48105
316.48672
316.47823
316.48364
316.47496
316.48006
316.47119
316.47596
316.46688
316.47128
316.462
316.46601
316.45653
316.46013
316.45046
316.45363
316.44378
316.44653
316.43652
316.43882
316.42867
316.43052
316.42025
316.42165
316.41129
316.41222
316.4018
316.40227
316.39181
316.50158
316.49575
316.50216
316.4953
316.50156
316.49449
316.50071
316.49353
316.49971
316.49245
316.49857
316.49122
316.49727
316.48984
316.4958
316.48828
316.49413
316.48651
316.49223
316.48451
316.49005
316.48221
316.48753
316.47956
316.48464
316.47653
316.48132
316.47306
316.47755
316.46912
316.47327
316.46468
316.46848
316.45973
316.46314
316.45424
316.45726
316.44821
316.45082
316.44164
316.44384
316.43454
316.43631
316.42692
316.42825
316.41879
316.41968
316.41016
316.41061
316.40106
316.50084
316.49539
316.50155
316.49508
316.50113
316.49449
316.50047
316.49371
316.49962
316.49278
316.49861
316.49166
316.49739
316.49035
316.49596
316.48883
316.49431
316.48709
316.49242
316.48512
316.49027
316.48287
316.48783
316.48032
316.48505
316.47743
316.4819
316.47417
316.47836
316.47051
316.47439
316.46642
316.46997
316.46187
316.46507
316.45686
316.45969
316.45136
316.45382
316.44539
316.44746
316.43893
316.4406
316.432
316.43326
316.42459
316.42544
316.41673
316.41715
316.40842
316.5001
316.49501
316.50087
316.49478
316.50059
316.49435
316.50007
316.49372
316.49936
316.49291
316.49842
316.49186
316.49725
316.49058
316.49582
316.48905
316.49415
316.4873
316.49223
316.4853
316.49006
316.48305
316.48762
316.48053
316.48489
316.47772
316.48184
316.47459
316.47846
316.47112
316.47471
316.46728
316.47057
316.46305
316.46603
316.45842
316.46106
316.45337
316.45566
316.44789
316.44982
316.44198
316.44354
316.43564
316.43681
316.42887
316.42966
316.42167
316.42207
316.41406
316.49935
316.49462
316.50015
316.49441
316.49996
316.4941
316.49956
316.49359
316.49893
316.49285
316.49805
316.49184
316.49686
316.49053
316.49539
316.48896
316.49365
316.48713
316.49166
316.48507
316.48942
316.48276
316.48693
316.48022
316.48419
316.47742
316.48118
316.47435
316.47789
316.471
316.47429
316.46734
316.47036
316.46336
316.46608
316.45902
316.46145
316.45432
316.45643
316.44925
316.45103
316.44381
316.44524
316.43797
316.43906
316.43175
316.43248
316.42515
316.42551
316.41816
316.4986
316.49424
316.49941
316.494
316.49927
316.49377
316.49895
316.49333
316.49837
316.49262
316.49747
316.49158
316.49624
316.49021
316.49467
316.48853
316.49281
316.48658
316.49069
316.4844
316.48834
316.48199
316.48576
316.47937
316.48296
316.47654
316.47994
316.47349
316.47668
316.4702
316.47317
316.46665
316.46939
316.46284
316.46531
316.45873
316.46094
316.45432
316.45624
316.44959
316.45121
316.44452
316.44584
316.43912
316.44012
316.43338
316.43405
316.42729
316.42762
316.42085
316.49783
316.49385
316.49864
316.49355
316.49854
316.49337
316.49826
316.49296
316.49767
316.49222
316.49671
316.49109
316.49535
316.48958
316.49363
316.48775
316.4916
316.48563
316.48932
316.48328
316.4868
316.48073
316.48409
316.478
316.4812
316.47509
316.47812
316.472
316.47485
316.46873
316.47138
316.46525
316.46769
316.46155
316.46377
316.45762
316.45959
316.45343
316.45515
316.44897
316.45043
316.44423
316.44541
316.43919
316.44009
316.43386
316.43446
316.42821
316.42851
316.42226
316.49704
316.49345
316.49784
316.49308
316.49777
316.49292
316.49749
316.49248
316.49684
316.49164
316.49574
316.49035
316.49419
316.48864
316.49225
316.48658
316.49001
316.48425
316.4875
316.4817
316.4848
316.47897
316.48192
316.47608
316.47889
316.47306
316.47572
316.46991
316.47241
316.46661
316.46895
316.46316
316.46531
316.45953
316.4615
316.45572
316.45748
316.45171
316.45324
316.44747
316.44877
316.44299
316.44405
316.43827
316.43907
316.43328
316.43382
316.42803
316.4283
316.4225
316.49623
316.49305
316.49703
316.49258
316.49696
316.49241
316.49665
316.49188
316.49585
316.49086
316.49453
316.48933
316.49272
316.48734
316.4905
316.48501
316.48798
316.48241
316.48522
316.47962
316.48229
316.47667
316.47922
316.47361
316.47604
316.47046
316.47276
316.4672
316.46937
316.46385
316.46588
316.4604
316.46227
316.45681
316.45853
316.45309
316.45462
316.44921
316.45055
316.44515
316.44629
316.4409
316.44182
316.43644
316.43714
316.43175
316.43223
316.42684
316.42708
316.42168
316.49538
316.49264
316.4962
316.49206
316.49613
316.49183
316.49571
316.49113
316.49468
316.48984
316.49305
316.48797
316.49089
316.48565
316.48834
316.48298
316.48549
316.48008
316.48245
316.47701
316.47926
316.47383
316.47598
316.47057
316.47262
316.46726
316.46921
316.46389
316.46574
316.46047
316.4622
316.45699
316.45859
316.45342
316.45489
316.44976
316.45108
316.44598
316.44713
316.44206
316.44305
316.438
316.4388
316.43376
316.43437
316.42934
316.42975
316.42472
316.42492
316.41989
316.49449
316.49223
316.49534
316.49151
316.49525
316.49117
316.49465
316.4902
316.49329
316.48853
316.49124
316.48624
316.48866
316.4835
316.4857
316.48045
316.48249
316.4772
316.47913
316.47383
316.47567
316.4704
316.47216
316.46694
316.46862
316.46346
316.46507
316.45997
316.4615
316.45647
316.45791
316.45294
316.45428
316.44937
316.45061
316.44575
316.44686
316.44205
316.44303
316.43825
316.43909
316.43434
316.43503
316.4303
316.43082
316.4261
316.42646
316.42174
316.42192
316.4172
316.49356
316.49181
316.49446
316.49094
316.49432
316.4904
316.49343
316.48903
316.49161
316.48686
316.48903
316.48407
316.48595
316.48084
316.48254
316.47736
316.47894
316.47374
316.47523
316.47006
316.47149
316.46637
316.46775
316.46269
316.46402
316.45904
316.46033
316.45543
316.45666
316.45184
316.45301
316.44827
316.44936
316.44469
316.4457
316.4411
316.44201
316.43746
316.43827
316.43377
316.43446
316.42999
316.43056
316.42611
316.42655
316.42212
316.42241
316.41799
316.41814
316.41371
316.49258
316.49139
316.49355
316.49034
316.49329
316.48948
316.49199
316.48756
316.48956
316.48477
316.48636
316.48137
316.48271
316.47761
316.4788
316.47367
316.47478
316.46966
316.47072
316.46566
316.46669
316.4617
316.46272
316.45781
316.45881
316.454
316.45498
316.45027
316.45122
316.4466
316.44751
316.44298
316.44384
316.43939
316.4402
316.43582
316.43656
316.43224
316.4329
316.42863
316.4292
316.42498
316.42544
316.42125
316.42161
316.41744
316.41768
316.41351
316.41364
316.40947
316.49153
316.49099
316.4926
316.48969
316.49213
316.48832
316.49024
316.48569
316.48706
316.48215
316.48314
316.47807
316.47885
316.47373
316.47442
316.46931
316.46996
316.46491
316.46556
316.46059
316.46125
316.45638
316.45706
316.45229
316.45298
316.44833
316.44903
316.44449
316.44518
316.44074
316.44142
316.43708
316.43774
316.43349
316.43411
316.42994
316.43051
316.42642
316.42693
316.42289
316.42334
316.41935