/*--------------------------------*- C++ -*----------------------------------*\
| =========                 |                                                 |
| \\      /  F ield         | OpenFOAM: The Open Source CFD Toolbox           |
|  \\    /   O peration     | Version:  2312                                  |
|   \\  /    A nd           | Website:  www.openfoam.com                      |
|    \\/     M anipulation  |                                                 |
\*---------------------------------------------------------------------------*/
FoamFile
{
    version     2.0;
    format      ascii;
    arch        "LSB;label=32;scalar=64";
    class       volScalarField;
    location    "8";
    object      p;
}
// * * * * * * * * * * * * * * * * * * * * * * * * * * * * * * * * * * * * * //

dimensions      [0 2 -2 0 0 0 0];

internalField   nonuniform List<scalar> 
4000
(
14.378569
13.887254
13.775636
13.323655
13.19147
12.757649
12.606203
12.189785
12.021715
11.620737
11.438153
11.050746
10.855446
10.479943
10.273497
9.9084279
9.6922178
9.3362859
9.1115275
8.7635916
8.5313566
8.1904103
7.9516442
7.6167987
7.3723369
7.0428066
6.7933881
6.4684771
6.2147576
5.8938478
5.6364103
5.3189512
5.0583158
4.7438154
4.4804483
4.1684642
3.9027855
3.5929182
3.3253089
3.0171942
2.7480028
2.4413064
2.1708546
1.8652661
1.5938543
1.289082
1.0169943
0.7127604
0.44026952
0.13630171
14.37743
13.886813
13.775634
13.323663
13.191462
12.757656
12.606196
12.189791
12.021709
11.620742
11.438148
11.050751
10.855441
10.479947
10.273493
9.9084315
9.6922143
9.3362891
9.1115245
8.7635945
8.531354
8.1904128
7.9516419
7.6168009
7.3723348
7.0428085
6.7933863
6.4684788
6.214756
5.8938493
5.6364088
5.3189526
5.0583145
4.7438166
4.4804471
4.1684654
3.9027845
3.5929192
3.3253079
3.0171952
2.7480019
2.4413073
2.1708537
1.865267
1.5938534
1.2890828
1.0169935
0.71276118
0.44026872
0.13630273
14.374813
13.886415
13.775649
13.323662
13.191462
12.757655
12.606196
12.189791
12.021709
11.620742
11.438148
11.050751
10.855441
10.479947
10.273493
9.9084317
9.6922142
9.3362892
9.1115244
8.7635946
8.5313539
8.1904129
7.9516418
7.616801
7.3723347
7.0428086
6.7933862
6.4684789
6.2147559
5.8938494
5.6364087
5.3189526
5.0583144
4.7438167
4.4804471
4.1684654
3.9027844
3.5929192
3.3253079
3.0171952
2.7480019
2.4413073
2.1708537
1.865267
1.5938534
1.2890829
1.0169935
0.71276121
0.44026866
0.136303
14.371822
13.886058
13.775669
13.32366
13.191464
12.757652
12.606198
12.189788
12.021711
11.62074
11.43815
11.050749
10.855443
10.479946
10.273495
9.9084303
9.6922155
9.336288
9.1115255
8.7635935
8.5313549
8.1904119
7.9516426
7.6168002
7.3723355
7.0428079
6.7933869
6.4684782
6.2147565
5.8938488
5.6364093
5.3189521
5.0583149
4.7438162
4.4804475
4.168465
3.9027848
3.5929188
3.3253083
3.0171948
2.7480022
2.441307
2.170854
1.8652667
1.5938537
1.2890826
1.0169938
0.71276093
0.44026891
0.13630295
14.36897
13.885727
13.775687
13.323658
13.191467
12.75765
12.606201
12.189786
12.021713
11.620738
11.438152
11.050748
10.855445
10.479944
10.273496
9.908429
9.6922168
9.3362868
9.1115266
8.7635925
8.5313559
8.190411
7.9516435
7.6167994
7.3723363
7.0428071
6.7933876
6.4684776
6.2147571
5.8938482
5.6364098
5.3189516
5.0583154
4.7438157
4.4804479
4.1684646
3.9027852
3.5929185
3.3253086
3.0171945
2.7480026
2.4413067
2.1708544
1.8652664
1.593854
1.2890823
1.0169941
0.71276064
0.44026919
0.13630285
14.366294
13.885412
13.775701
13.323658
13.19147
12.757647
12.606202
12.189784
12.021715
11.620737
11.438153
11.050746
10.855446
10.479943
10.273497
9.9084279
9.6922178
9.3362859
9.1115275
8.7635916
8.5313567
8.1904103
7.9516442
7.6167987
7.3723369
7.0428065
6.7933882
6.468477
6.2147576
5.8938478
5.6364103
5.3189512
5.0583158
4.7438154
4.4804483
4.1684642
3.9027856
3.5929181
3.3253089
3.0171942
2.7480028
2.4413064
2.1708546
1.8652661
1.5938543
1.289082
1.0169943
0.71276039
0.44026942
0.13630277
14.363736
13.885111
13.775712
13.323657
13.191472
12.757645
12.606204
12.189783
12.021717
11.620735
11.438154
11.050745
10.855447
10.479942
10.273498
9.9084269
9.6922187
9.336285
9.1115283
8.7635909
8.5313573
8.1904096
7.9516448
7.6167981
7.3723374
7.042806
6.7933886
6.4684766
6.2147581
5.8938474
5.6364107
5.3189508
5.0583162
4.743815
4.4804486
4.1684639
3.9027859
3.5929179
3.3253092
3.0171939
2.7480031
2.4413062
2.1708548
1.8652659
1.5938545
1.2890818
1.0169945
0.71276018
0.44026963
0.13630271
14.361279
13.884826
13.77572
13.323656
13.191475
12.757644
12.606206
12.189781
12.021718
11.620734
11.438156
11.050744
10.855448
10.479941
10.273499
9.9084261
9.6922195
9.3362843
9.111529
8.7635902
8.531358
8.190409
7.9516454
7.6167976
7.3723379
7.0428056
6.7933891
6.4684762
6.2147584
5.893847
5.636411
5.3189505
5.0583165
4.7438147
4.4804489
4.1684637
3.9027861
3.5929176
3.3253094
3.0171937
2.7480033
2.441306
2.1708551
1.8652657
1.5938547
1.2890816
1.0169947
0.71275999
0.44026982
0.13630265
14.358924
13.884556
13.775727
13.323655
13.191477
12.757642
12.606207
12.18978
12.021719
11.620733
11.438157
11.050743
10.855449
10.47994
10.2735
9.9084253
9.6922202
9.3362836
9.1115296
8.7635896
8.5313585
8.1904085
7.9516459
7.6167971
7.3723384
7.0428052
6.7933895
6.4684758
6.2147588
5.8938467
5.6364113
5.3189502
5.0583168
4.7438145
4.4804492
4.1684634
3.9027863
3.5929174
3.3253096
3.0171935
2.7480035
2.4413058
2.1708552
1.8652655
1.5938549
1.2890814
1.0169949
0.71275981
0.44027
0.13630258
14.35667
13.8843
13.775732
13.323653
13.191478
12.757641
12.606208
12.189779
12.02172
11.620732
11.438158
11.050742
10.85545
10.479939
10.273501
9.9084246
9.6922209
9.336283
9.1115302
8.7635891
8.5313591
8.190408
7.9516463
7.6167967
7.3723388
7.0428048
6.7933898
6.4684755
6.2147591
5.8938463
5.6364116
5.3189499
5.058317
4.7438142
4.4804494
4.1684632
3.9027866
3.5929172
3.3253098
3.0171933
2.7480037
2.4413056
2.1708554
1.8652653
1.593855
1.2890813
1.0169951
0.71275964
0.44027017
0.13630251
14.354518
13.884059
13.775736
13.323652
13.191479
12.757639
12.606209
12.189778
12.021721
11.620731
11.438159
11.050741
10.855451
10.479939
10.273502
9.9084239
9.6922215
9.3362824
9.1115308
8.7635885
8.5313595
8.1904075
7.9516468
7.6167963
7.3723391
7.0428044
6.7933902
6.4684751
6.2147594
5.8938461
5.6364119
5.3189497
5.0583173
4.743814
4.4804496
4.168463
3.9027868
3.592917
3.32531
3.0171931
2.7480039
2.4413054
2.1708556
1.8652652
1.5938552
1.2890811
1.0169952
0.71275948
0.44027033
0.13630244
14.352465
13.883829
13.775738
13.323651
13.19148
12.757638
12.60621
12.189777
12.021722
11.62073
11.438159
11.05074
10.855451
10.479938
10.273502
9.9084233
9.6922221
9.3362818
9.1115313
8.7635881
8.53136
8.1904071
7.9516472
7.6167959
7.3723395
7.0428041
6.7933905
6.4684748
6.2147597
5.8938458
5.6364121
5.3189494
5.0583175
4.7438138
4.4804498
4.1684628
3.9027869
3.5929168
3.3253102
3.017193
2.748004
2.4413053
2.1708557
1.865265
1.5938553
1.289081
1.0169954
0.71275934
0.44027048
0.13630237
14.350512
13.883609
13.77574
13.323651
13.19148
12.757637
12.606212
12.189776
12.021723
11.620729
11.43816
11.05074
10.855452
10.479937
10.273503
9.9084227
9.6922226
9.3362813
9.1115317
8.7635876
8.5313604
8.1904067
7.9516475
7.6167956
7.3723398
7.0428038
6.7933908
6.4684746
6.21476
5.8938456
5.6364124
5.3189492
5.0583177
4.7438136
4.48045
4.1684626
3.9027871
3.5929167
3.3253104
3.0171928
2.7480042
2.4413051
2.1708559
1.8652649
1.5938555
1.2890809
1.0169955
0.71275921
0.44027062
0.1363023
14.348657
13.8834
13.775744
13.323652
13.191479
12.757636
12.606212
12.189775
12.021724
11.620728
11.438161
11.050739
10.855453
10.479937
10.273503
9.9084222
9.6922231
9.3362809
9.1115322
8.7635872
8.5313608
8.1904064
7.9516479
7.6167952
7.3723401
7.0428035
6.793391
6.4684743
6.2147602
5.8938453
5.6364126
5.318949
5.0583179
4.7438134
4.4804502
4.1684624
3.9027873
3.5929165
3.3253105
3.0171927
2.7480043
2.441305
2.170856
1.8652648
1.5938556
1.2890807
1.0169956
0.71275908
0.44027076
0.13630223
14.346899
13.883215
13.775743
13.32365
13.191478
12.757636
12.606213
12.189774
12.021725
11.620728
11.438162
11.050738
10.855453
10.479936
10.273504
9.9084217
9.6922235
9.3362804
9.1115326
8.7635868
8.5313611
8.190406
7.9516482
7.616795
7.3723404
7.0428032
6.7933913
6.4684741
6.2147604
5.8938451
5.6364128
5.3189488
5.0583181
4.7438132
4.4804503
4.1684623
3.9027874
3.5929164
3.3253106
3.0171925
2.7480044
2.4413049
2.1708561
1.8652647
1.5938557
1.2890806
1.0169957
0.71275897
0.44027089
0.13630217
14.345232
13.883087
13.775708
13.323643
13.191475
12.757634
12.606214
12.189774
12.021725
11.620727
11.438162
11.050738
10.855454
10.479936
10.273504
9.9084213
9.692224
9.33628
9.1115329
8.7635865
8.5313615
8.1904057
7.9516485
7.6167947
7.3723407
7.042803
6.7933915
6.4684739
6.2147606
5.8938449
5.6364129
5.3189487
5.0583182
4.7438131
4.4804505
4.1684621
3.9027876
3.5929162
3.3253108
3.0171924
2.7480045
2.4413048
2.1708562
1.8652645
1.5938558
1.2890805
1.0169958
0.71275886
0.44027101
0.1363021
14.343654
13.883033
13.775617
13.323627
13.19147
12.757633
12.606215
12.189773
12.021726
11.620727
11.438163
11.050737
10.855454
10.479935
10.273505
9.9084208
9.6922244
9.3362797
9.1115333
8.7635862
8.5313618
8.1904054
7.9516488
7.6167944
7.3723409
7.0428027
6.7933917
6.4684737
6.2147608
5.8938447
5.6364131
5.3189485
5.0583184
4.7438129
4.4804506
4.168462
3.9027877
3.5929161
3.3253109
3.0171923
2.7480046
2.4413046
2.1708563
1.8652644
1.5938559
1.2890804
1.0169959
0.71275876
0.44027112
0.13630203
14.34217
13.882984
13.775515
13.323612
13.191467
12.757632
12.606216
12.189772
12.021727
11.620726
11.438163
11.050737
10.855455
10.479935
10.273505
9.9084205
9.6922247
9.3362793
9.1115336
8.7635859
8.5313621
8.1904052
7.951649
7.6167942
7.3723411
7.0428025
6.7933919
6.4684735
6.214761
5.8938446
5.6364133
5.3189483
5.0583185
4.7438128
4.4804507
4.1684619
3.9027878
3.592916
3.325311
3.0171922
2.7480047
2.4413046
2.1708564
1.8652644
1.593856
1.2890803
1.016996
0.71275866
0.44027123
0.13630197
14.34078
13.882851
13.775475
13.323611
13.191465
12.757631
12.606216
12.189772
12.021727
11.620725
11.438164
11.050736
10.855455
10.479934
10.273506
9.9084201
9.6922251
9.336279
9.1115339
8.7635856
8.5313623
8.1904049
7.9516492
7.616794
7.3723413
7.0428023
6.7933921
6.4684733
6.2147612
5.8938444
5.6364134
5.3189482
5.0583187
4.7438127
4.4804509
4.1684618
3.9027879
3.5929159
3.3253111
3.0171921
2.7480048
2.4413045
2.1708565
1.8652643
1.5938561
1.2890802
1.0169961
0.71275858
0.44027133
0.13630191
14.339485
13.882653
13.775493
13.323616
13.191465
12.757631
12.606217
12.189771
12.021728
11.620725
11.438164
11.050736
10.855456
10.479934
10.273506
9.9084197
9.6922254
9.3362787
9.1115342
8.7635853
8.5313626
8.1904047
7.9516495
7.6167938
7.3723415
7.0428022
6.7933923
6.4684731
6.2147613
5.8938443
5.6364136
5.3189481
5.0583188
4.7438125
4.480451
4.1684617
3.902788
3.5929158
3.3253112
3.017192
2.7480049
2.4413044
2.1708566
1.8652642
1.5938562
1.2890802
1.0169962
0.7127585
0.44027143
0.13630185
14.338282
13.882458
13.775522
13.323619
13.191465
12.757631
12.606218
12.189771
12.021729
11.620725
11.438165
11.050735
10.855456
10.479934
10.273506
9.9084194
9.6922257
9.3362784
9.1115345
8.7635851
8.5313628
8.1904045
7.9516497
7.6167936
7.3723417
7.042802
6.7933924
6.468473
6.2147615
5.8938441
5.6364137
5.318948
5.0583189
4.7438124
4.4804511
4.1684616
3.9027881
3.5929157
3.3253113
3.0171919
2.748005
2.4413043
2.1708567
1.8652641
1.5938563
1.2890801
1.0169963
0.71275842
0.44027151
0.13630179
14.337166
13.882292
13.775543
13.323616
13.191465
12.757631
12.606219
12.189771
12.021729
11.620724
11.438165
11.050735
10.855456
10.479933
10.273507
9.9084191
9.692226
9.3362782
9.1115347
8.7635848
8.531363
8.1904043
7.9516499
7.6167934
7.3723419
7.0428018
6.7933926
6.4684729
6.2147616
5.893844
5.6364138
5.3189478
5.058319
4.7438123
4.4804512
4.1684615
3.9027882
3.5929156
3.3253113
3.0171919
2.7480051
2.4413042
2.1708567
1.865264
1.5938563
1.28908
1.0169963
0.71275835
0.4402716
0.13630173
14.336133
13.882153
13.775556
13.323609
13.191464
12.757631
12.606219
12.18977
12.02173
11.620724
11.438166
11.050735
10.855457
10.479933
10.273507
9.9084189
9.6922262
9.3362779
9.1115349
8.7635846
8.5313632
8.1904041
7.95165
7.6167932
7.372342
7.0428017
6.7933927
6.4684727
6.2147617
5.8938439
5.6364139
5.3189477
5.0583191
4.7438122
4.4804513
4.1684614
3.9027883
3.5929155
3.3253114
3.0171918
2.7480052
2.4413042
2.1708568
1.865264
1.5938564
1.28908
1.0169964
0.71275829
0.44027168
0.13630168
14.335177
13.882033
13.775563
13.323599
13.191464
12.757631
12.60622
12.18977
12.02173
11.620723
11.438166
11.050734
10.855457
10.479933
10.273507
9.9084186
9.6922265
9.3362777
9.1115351
8.7635844
8.5313634
8.1904039
7.9516502
7.6167931
7.3723422
7.0428015
6.7933929
6.4684726
6.2147618
5.8938438
5.636414
5.3189476
5.0583192
4.7438121
4.4804514
4.1684613
3.9027884
3.5929155
3.3253115
3.0171917
2.7480052
2.4413041
2.1708569
1.8652639
1.5938564
1.2890799
1.0169965
0.71275823
0.44027175
0.13630163
14.334297
13.881927
13.775563
13.323592
13.191465
12.757631
12.606221
12.18977
12.02173
11.620723
11.438166
11.050734
10.855457
10.479932
10.273507
9.9084184
9.6922267
9.3362775
9.1115353
8.7635842
8.5313636
8.1904038
7.9516503
7.6167929
7.3723423
7.0428014
6.793393
6.4684725
6.2147619
5.8938437
5.6364141
5.3189475
5.0583193
4.7438121
4.4804514
4.1684612
3.9027884
3.5929154
3.3253116
3.0171916
2.7480053
2.441304
2.1708569
1.8652639
1.5938565
1.2890798
1.0169965
0.71275818
0.44027182
0.13630158
14.333489
13.881833
13.775555
13.32359
13.191466
12.757631
12.606222
12.189769
12.021731
11.620723
11.438167
11.050734
10.855458
10.479932
10.273508
9.9084182
9.6922269
9.3362773
9.1115355
8.7635841
8.5313637
8.1904036
7.9516505
7.6167928
7.3723424
7.0428013
6.7933931
6.4684724
6.214762
5.8938436
5.6364142
5.3189475
5.0583194
4.743812
4.4804515
4.1684612
3.9027885
3.5929153
3.3253116
3.0171916
2.7480053
2.441304
2.170857
1.8652638
1.5938566
1.2890798
1.0169966
0.71275813
0.44027188
0.13630153
14.332752
13.88175
13.77554
13.323592
13.191468
12.757632
12.606222
12.189769
12.021731
11.620723
11.438167
11.050734
10.855458
10.479932
10.273508
9.908418
9.6922271
9.3362771
9.1115357
8.7635839
8.5313639
8.1904035
7.9516506
7.6167927
7.3723425
7.0428012
6.7933932
6.4684723
6.2147621
5.8938435
5.6364143
5.3189474
5.0583194
4.7438119
4.4804516
4.1684611
3.9027886
3.5929153
3.3253117
3.0171915
2.7480054
2.4413039
2.170857
1.8652638
1.5938566
1.2890797
1.0169966
0.71275808
0.44027193
0.13630149
14.332082
13.881675
13.775521
13.323597
13.19147
12.757632
12.606223
12.189769
12.021732
11.620722
11.438167
11.050733
10.855458
10.479932
10.273508
9.9084178
9.6922272
9.336277
9.1115358
8.7635838
8.531364
8.1904033
7.9516507
7.6167926
7.3723427
7.0428011
6.7933933
6.4684722
6.2147622
5.8938434
5.6364144
5.3189473
5.0583195
4.7438119
4.4804516
4.168461
3.9027886
3.5929152
3.3253117
3.0171915
2.7480054
2.4413039
2.1708571
1.8652637
1.5938566
1.2890797
1.0169966
0.71275804
0.44027198
0.13630145
14.331479
13.881608
13.775499
13.323606
13.191471
12.757633
12.606223
12.189769
12.021732
11.620722
11.438167
11.050733
10.855458
10.479932
10.273508
9.9084176
9.6922274
9.3362768
9.111536
8.7635836
8.5313641
8.1904032
7.9516508
7.6167925
7.3723427
7.042801
6.7933934
6.4684721
6.2147623
5.8938434
5.6364144
5.3189473
5.0583196
4.7438118
4.4804517
4.168461
3.9027887
3.5929152
3.3253118
3.0171914
2.7480055
2.4413038
2.1708571
1.8652637
1.5938567
1.2890797
1.0169967
0.712758
0.44027203
0.13630142
14.33094
13.881547
13.775476
13.323616
13.191472
12.757633
12.606224
12.189769
12.021732
11.620722
11.438168
11.050733
10.855458
10.479931
10.273508
9.9084175
9.6922275
9.3362767
9.1115361
8.7635835
8.5313642
8.1904031
7.9516509
7.6167924
7.3723428
7.0428009
6.7933934
6.468472
6.2147623
5.8938433
5.6364145
5.3189472
5.0583196
4.7438118
4.4804517
4.1684609
3.9027887
3.5929151
3.3253118
3.0171914
2.7480055
2.4413038
2.1708572
1.8652636
1.5938567
1.2890796
1.0169967
0.71275797
0.44027207
0.13630138
14.330465
13.881489
13.775452
13.323628
13.191471
12.757633
12.606224
12.189768
12.021732
11.620722
11.438168
11.050733
10.855459
10.479931
10.273509
9.9084173
9.6922277
9.3362766
9.1115362
8.7635834
8.5313643
8.190403
7.951651
7.6167923
7.3723429
7.0428009
6.7933935
6.468472
6.2147624
5.8938432
5.6364145
5.3189471
5.0583197
4.7438117
4.4804518
4.1684609
3.9027887
3.5929151
3.3253118
3.0171914
2.7480056
2.4413038
2.1708572
1.8652636
1.5938567
1.2890796
1.0169967
0.71275795
0.4402721
0.13630136
14.33005
13.881432
13.775428
13.323642
13.19147
12.757632
12.606224
12.189768
12.021733
11.620722
11.438168
11.050733
10.855459
10.479931
10.273509
9.9084172
9.6922278
9.3362765
9.1115363
8.7635833
8.5313644
8.1904029
7.9516511
7.6167922
7.372343
7.0428008
6.7933936
6.4684719
6.2147625
5.8938432
5.6364146
5.3189471
5.0583197
4.7438117
4.4804518
4.1684609
3.9027888
3.5929151
3.3253119
3.0171913
2.7480056
2.4413037
2.1708572
1.8652636
1.5938568
1.2890796
1.0169968
0.71275792
0.44027213
0.13630133
14.329697
13.881375
13.775405
13.323655
13.191469
12.757632
12.606224
12.189768
12.021733
11.620721
11.438168
11.050732
10.855459
10.479931
10.273509
9.9084171
9.6922279
9.3362764
9.1115364
8.7635832
8.5313645
8.1904029
7.9516512
7.6167921
7.372343
7.0428007
6.7933936
6.4684719
6.2147625
5.8938431
5.6364146
5.3189471
5.0583197
4.7438116
4.4804519
4.1684608
3.9027888
3.592915
3.3253119
3.0171913
2.7480056
2.4413037
2.1708572
1.8652636
1.5938568
1.2890796
1.0169968
0.7127579
0.44027215
0.13630131
14.329404
13.881315
13.775384
13.32366
13.191471
12.757633
12.606225
12.189768
12.021733
11.620721
11.438168
11.050732
10.855459
10.479931
10.273509
9.908417
9.692228
9.3362763
9.1115365
8.7635832
8.5313646
8.1904028
7.9516512
7.6167921
7.3723431
7.0428007
6.7933937
6.4684718
6.2147626
5.8938431
5.6364147
5.318947
5.0583198
4.7438116
4.4804519
4.1684608
3.9027888
3.592915
3.3253119
3.0171913
2.7480056
2.4413037
2.1708573
1.8652635
1.5938568
1.2890795
1.0169968
0.71275789
0.44027216
0.13630129
14.329173
13.881249
13.775367
13.323655
13.191477
12.757635
12.606226
12.189768
12.021733
11.620721
11.438168
11.050732
10.855459
10.479931
10.273509
9.9084169
9.692228
9.3362762
9.1115365
8.7635831
8.5313646
8.1904028
7.9516513
7.616792
7.3723431
7.0428006
6.7933937
6.4684718
6.2147626
5.8938431
5.6364147
5.318947
5.0583198
4.7438116
4.4804519
4.1684608
3.9027889
3.592915
3.325312
3.0171913
2.7480057
2.4413037
2.1708573
1.8652635
1.5938568
1.2890795
1.0169968
0.71275788
0.44027217
0.13630128
14.329003
13.881177
13.775353
13.323642
13.191485
12.757638
12.606227
12.189768
12.021733
11.620721
11.438168
11.050732
10.855459
10.479931
10.273509
9.9084169
9.6922281
9.3362762
9.1115366
8.7635831
8.5313647
8.1904027
7.9516513
7.616792
7.3723432
7.0428006
6.7933937
6.4684718
6.2147626
5.893843
5.6364147
5.318947
5.0583198
4.7438115
4.4804519
4.1684608
3.9027889
3.592915
3.325312
3.0171912
2.7480057
2.4413037
2.1708573
1.8652635
1.5938568
1.2890795
1.0169968
0.71275788
0.44027217
0.13630127
14.328894
13.881101
13.775338
13.32363
13.191492
12.757641
12.606228
12.189768
12.021733
11.620721
11.438168
11.050732
10.855459
10.479931
10.273509
9.9084168
9.6922281
9.3362761
9.1115366
8.763583
8.5313647
8.1904027
7.9516514
7.616792
7.3723432
7.0428006
6.7933938
6.4684717
6.2147626
5.893843
5.6364148
5.3189469
5.0583198
4.7438115
4.4804519
4.1684607
3.9027889
3.592915
3.325312
3.0171912
2.7480057
2.4413036
2.1708573
1.8652635
1.5938568
1.2890795
1.0169968
0.71275788
0.44027216
0.13630127
14.328842
13.881025
13.775323
13.323622
13.191495
12.757643
12.606228
12.189768
12.021733
11.620721
11.438169
11.050732
10.855459
10.479931
10.273509
9.9084168
9.6922282
9.3362761
9.1115367
8.763583
8.5313648
8.1904026
7.9516514
7.6167919
7.3723432
7.0428006
6.7933938
6.4684717
6.2147627
5.893843
5.6364148
5.3189469
5.0583199
4.7438115
4.480452
4.1684607
3.9027889
3.592915
3.325312
3.0171912
2.7480057
2.4413036
2.1708573
1.8652635
1.5938568
1.2890795
1.0169968
0.71275789
0.44027215
0.13630127
14.328831
13.880961
13.77531
13.323618
13.191497
12.757645
12.606228
12.189768
12.021733
11.620721
11.438169
11.050732
10.855459
10.479931
10.273509
9.9084168
9.6922282
9.3362761
9.1115367
8.763583
8.5313648
8.1904026
7.9516514
7.6167919
7.3723432
7.0428005
6.7933938
6.4684717
6.2147627
5.893843
5.6364148
5.3189469
5.0583199
4.7438115
4.480452
4.1684607
3.9027889
3.592915
3.325312
3.0171912
2.7480057
2.4413036
2.1708573
1.8652635
1.5938568
1.2890795
1.0169968
0.7127579
0.44027214
0.13630127
14.328835
13.880924
13.775301
13.323617
13.191497
12.757645
12.606229
12.189768
12.021733
11.620721
11.438169
11.050732
10.855459
10.479931
10.273509
9.9084167
9.6922282
9.336276
9.1115367
8.763583
8.5313648
8.1904026
7.9516514
7.6167919
7.3723432
7.0428005
6.7933938
6.4684717
6.2147627
5.893843
5.6364148
5.3189469
5.0583199
4.7438115
4.480452
4.1684607
3.9027889
3.592915
3.325312
3.0171912
2.7480057
2.4413036
2.1708573
1.8652635
1.5938568
1.2890795
1.0169968
0.7127579
0.44027213
0.13630127
14.328835
13.880924
13.775301
13.323617
13.191497
12.757645
12.606229
12.189768
12.021733
11.620721
11.438169
11.050732
10.855459
10.479931
10.273509
9.9084167
9.6922282
9.336276
9.1115367
8.763583
8.5313648
8.1904026
7.9516514
7.6167919
7.3723432
7.0428005
6.7933938
6.4684717
6.2147627
5.893843
5.6364148
5.3189469
5.0583199
4.7438115
4.480452
4.1684607
3.9027889
3.592915
3.325312
3.0171912
2.7480057
2.4413036
2.1708573
1.8652635
1.5938568
1.2890795
1.0169968
0.7127579
0.44027213
0.13630127
14.32883
13.880962
13.77531
13.323618
13.191497
12.757645
12.606228
12.189768
12.021733
11.620721
11.438169
11.050732
10.855459
10.479931
10.273509
9.9084168
9.6922282
9.3362761
9.1115367
8.763583
8.5313648
8.1904026
7.9516514
7.6167919
7.3723432
7.0428005
6.7933938
6.4684717
6.2147627
5.893843
5.6364148
5.3189469
5.0583199
4.7438115
4.480452
4.1684607
3.9027889
3.592915
3.325312
3.0171912
2.7480057
2.4413036
2.1708573
1.8652635
1.5938568
1.2890795
1.0169968
0.7127579
0.44027214
0.13630127
14.328841
13.881026
13.775323
13.323622
13.191495
12.757643
12.606228
12.189768
12.021733
11.620721
11.438169
11.050732
10.855459
10.479931
10.273509
9.9084168
9.6922282
9.3362761
9.1115367
8.763583
8.5313648
8.1904026
7.9516514
7.6167919
7.3723432
7.0428006
6.7933938
6.4684717
6.2147627
5.893843
5.6364148
5.3189469
5.0583199
4.7438115
4.480452
4.1684607
3.9027889
3.592915
3.325312
3.0171912
2.7480057
2.4413036
2.1708573
1.8652635
1.5938568
1.2890795
1.0169968
0.71275789
0.44027215
0.13630127
14.328893
13.881102
13.775338
13.32363
13.191492
12.757641
12.606228
12.189768
12.021733
11.620721
11.438168
11.050732
10.855459
10.479931
10.273509
9.9084168
9.6922281
9.3362761
9.1115366
8.763583
8.5313647
8.1904027
7.9516514
7.616792
7.3723432
7.0428006
6.7933938
6.4684717
6.2147626
5.893843
5.6364148
5.3189469
5.0583198
4.7438115
4.4804519
4.1684607
3.9027889
3.592915
3.325312
3.0171912
2.7480057
2.4413036
2.1708573
1.8652635
1.5938568
1.2890795
1.0169968
0.71275788
0.44027216
0.13630127
14.329001
13.881179
13.775353
13.323642
13.191485
12.757638
12.606227
12.189768
12.021733
11.620721
11.438168
11.050732
10.855459
10.479931
10.273509
9.9084169
9.6922281
9.3362762
9.1115366
8.7635831
8.5313647
8.1904027
7.9516513
7.616792
7.3723432
7.0428006
6.7933937
6.4684718
6.2147626
5.893843
5.6364147
5.318947
5.0583198
4.7438115
4.4804519
4.1684608
3.9027889
3.592915
3.325312
3.0171912
2.7480057
2.4413037
2.1708573
1.8652635
1.5938568
1.2890795
1.0169968
0.71275788
0.44027217
0.13630127
14.329171
13.881251
13.775367
13.323655
13.191477
12.757635
12.606226
12.189768
12.021733
11.620721
11.438168
11.050732
10.855459
10.479931
10.273509
9.9084169
9.692228
9.3362762
9.1115365
8.7635831
8.5313646
8.1904028
7.9516513
7.616792
7.3723431
7.0428006
6.7933937
6.4684718
6.2147626
5.8938431
5.6364147
5.318947
5.0583198
4.7438116
4.4804519
4.1684608
3.9027889
3.592915
3.325312
3.0171913
2.7480057
2.4413037
2.1708573
1.8652635
1.5938568
1.2890795
1.0169968
0.71275788
0.44027217
0.13630128
14.329402
13.881317
13.775384
13.32366
13.191471
12.757633
12.606225
12.189768
12.021733
11.620721
11.438168
11.050732
10.855459
10.479931
10.273509
9.908417
9.692228
9.3362763
9.1115365
8.7635832
8.5313646
8.1904028
7.9516512
7.6167921
7.3723431
7.0428007
6.7933937
6.4684718
6.2147626
5.8938431
5.6364147
5.318947
5.0583198
4.7438116
4.4804519
4.1684608
3.9027888
3.592915
3.3253119
3.0171913
2.7480056
2.4413037
2.1708573
1.8652635
1.5938568
1.2890795
1.0169968
0.71275789
0.44027216
0.13630129
14.329694
13.881377
13.775405
13.323655
13.191469
12.757632
12.606224
12.189768
12.021733
11.620721
11.438168
11.050732
10.855459
10.479931
10.273509
9.9084171
9.6922279
9.3362764
9.1115364
8.7635832
8.5313645
8.1904029
7.9516512
7.6167921
7.372343
7.0428007
6.7933936
6.4684719
6.2147625
5.8938431
5.6364146
5.3189471
5.0583197
4.7438116
4.4804519
4.1684608
3.9027888
3.592915
3.3253119
3.0171913
2.7480056
2.4413037
2.1708572
1.8652636
1.5938568
1.2890796
1.0169968
0.7127579
0.44027215
0.13630131
14.330047
13.881435
13.775428
13.323642
13.19147
12.757632
12.606224
12.189768
12.021733
11.620722
11.438168
11.050733
10.855459
10.479931
10.273509
9.9084172
9.6922278
9.3362765
9.1115363
8.7635833
8.5313644
8.1904029
7.9516511
7.6167922
7.372343
7.0428008
6.7933936
6.4684719
6.2147625
5.8938432
5.6364146
5.3189471
5.0583197
4.7438117
4.4804518
4.1684609
3.9027888
3.5929151
3.3253119
3.0171913
2.7480056
2.4413037
2.1708572
1.8652636
1.5938568
1.2890796
1.0169968
0.71275792
0.44027213
0.13630133
14.330461
13.881492
13.775452
13.323628
13.191471
12.757633
12.606224
12.189768
12.021732
11.620722
11.438168
11.050733
10.855459
10.479931
10.273509
9.9084173
9.6922277
9.3362766
9.1115362
8.7635834
8.5313643
8.190403
7.951651
7.6167923
7.3723429
7.0428009
6.7933935
6.468472
6.2147624
5.8938432
5.6364145
5.3189471
5.0583197
4.7438117
4.4804518
4.1684609
3.9027887
3.5929151
3.3253118
3.0171914
2.7480056
2.4413038
2.1708572
1.8652636
1.5938567
1.2890796
1.0169967
0.71275795
0.4402721
0.13630136
14.330937
13.88155
13.775476
13.323616
13.191472
12.757633
12.606224
12.189769
12.021732
11.620722
11.438168
11.050733
10.855458
10.479931
10.273508
9.9084175
9.6922275
9.3362767
9.1115361
8.7635835
8.5313642
8.1904031
7.9516509
7.6167924
7.3723428
7.0428009
6.7933934
6.468472
6.2147623
5.8938433
5.6364145
5.3189472
5.0583196
4.7438118
4.4804517
4.1684609
3.9027887
3.5929151
3.3253118
3.0171914
2.7480055
2.4413038
2.1708572
1.8652636
1.5938567
1.2890796
1.0169967
0.71275797
0.44027207
0.13630138
14.331475
13.881612
13.775499
13.323606
13.191471
12.757633
12.606223
12.189769
12.021732
11.620722
11.438167
11.050733
10.855458
10.479932
10.273508
9.9084176
9.6922274
9.3362768
9.111536
8.7635836
8.5313641
8.1904032
7.9516508
7.6167925
7.3723427
7.042801
6.7933934
6.4684721
6.2147623
5.8938434
5.6364144
5.3189473
5.0583196
4.7438118
4.4804517
4.168461
3.9027887
3.5929152
3.3253118
3.0171914
2.7480055
2.4413038
2.1708571
1.8652637
1.5938567
1.2890797
1.0169967
0.712758
0.44027203
0.13630142
14.332078
13.881679
13.775521
13.323598
13.19147
12.757632
12.606223
12.189769
12.021732
11.620722
11.438167
11.050733
10.855458
10.479932
10.273508
9.9084178
9.6922272
9.336277
9.1115358
8.7635838
8.531364
8.1904033
7.9516507
7.6167926
7.3723427
7.0428011
6.7933933
6.4684722
6.2147622
5.8938434
5.6364144
5.3189473
5.0583195
4.7438119
4.4804516
4.168461
3.9027886
3.5929152
3.3253117
3.0171915
2.7480054
2.4413039
2.1708571
1.8652637
1.5938566
1.2890797
1.0169966
0.71275804
0.44027198
0.13630145
14.332747
13.881754
13.77554
13.323592
13.191468
12.757632
12.606222
12.189769
12.021731
11.620723
11.438167
11.050734
10.855458
10.479932
10.273508
9.908418
9.6922271
9.3362771
9.1115357
8.7635839
8.5313639
8.1904035
7.9516506
7.6167927
7.3723425
7.0428012
6.7933932
6.4684723
6.2147621
5.8938435
5.6364143
5.3189474
5.0583194
4.7438119
4.4804516
4.1684611
3.9027886
3.5929153
3.3253117
3.0171915
2.7480054
2.4413039
2.170857
1.8652638
1.5938566
1.2890797
1.0169966
0.71275808
0.44027193
0.13630149
14.333484
13.881838
13.775555
13.32359
13.191466
12.757631
12.606222
12.189769
12.021731
11.620723
11.438167
11.050734
10.855458
10.479932
10.273508
9.9084182
9.6922269
9.3362773
9.1115355
8.7635841
8.5313637
8.1904036
7.9516505
7.6167928
7.3723424
7.0428013
6.7933931
6.4684724
6.214762
5.8938436
5.6364142
5.3189475
5.0583194
4.743812
4.4804515
4.1684612
3.9027885
3.5929153
3.3253116
3.0171916
2.7480053
2.441304
2.170857
1.8652638
1.5938566
1.2890798
1.0169966
0.71275813
0.44027188
0.13630153
14.334291
13.881932
13.775563
13.323592
13.191465
12.757631
12.606221
12.18977
12.02173
11.620723
11.438166
11.050734
10.855457
10.479932
10.273507
9.9084184
9.6922267
9.3362775
9.1115353
8.7635842
8.5313636
8.1904038
7.9516503
7.6167929
7.3723423
7.0428014
6.793393
6.4684725
6.2147619
5.8938437
5.6364141
5.3189475
5.0583193
4.7438121
4.4804514
4.1684612
3.9027884
3.5929154
3.3253116
3.0171916
2.7480053
2.441304
2.1708569
1.8652639
1.5938565
1.2890798
1.0169965
0.71275818
0.44027182
0.13630158
14.335172
13.882038
13.775563
13.3236
13.191464
12.757631
12.60622
12.18977
12.02173
11.620723
11.438166
11.050734
10.855457
10.479933
10.273507
9.9084186
9.6922265
9.3362777
9.1115351
8.7635844
8.5313634
8.1904039
7.9516502
7.6167931
7.3723422
7.0428015
6.7933929
6.4684726
6.2147618
5.8938438
5.636414
5.3189476
5.0583192
4.7438121
4.4804514
4.1684613
3.9027884
3.5929155
3.3253115
3.0171917
2.7480052
2.4413041
2.1708569
1.8652639
1.5938564
1.2890799
1.0169965
0.71275823
0.44027175
0.13630163
14.336127
13.882159
13.775556
13.323609
13.191464
12.757631
12.606219
12.18977
12.02173
11.620724
11.438166
11.050735
10.855457
10.479933
10.273507
9.9084189
9.6922262
9.3362779
9.1115349
8.7635846
8.5313632
8.1904041
7.95165
7.6167932
7.372342
7.0428017
6.7933927
6.4684727
6.2147617
5.8938439
5.6364139
5.3189477
5.0583191
4.7438122
4.4804513
4.1684614
3.9027883
3.5929155
3.3253114
3.0171918
2.7480052
2.4413042
2.1708568
1.865264
1.5938564
1.28908
1.0169964
0.71275829
0.44027168
0.13630168
14.33716
13.882298
13.775543
13.323617
13.191465
12.757631
12.606219
12.189771
12.021729
11.620724
11.438165
11.050735
10.855456
10.479933
10.273507
9.9084191
9.692226
9.3362782
9.1115347
8.7635848
8.531363
8.1904043