/*--------------------------------*- C++ -*----------------------------------*\
| =========                 |                                                 |
| \\      /  F ield         | OpenFOAM: The Open Source CFD Toolbox           |
|  \\    /   O peration     | Version:  2312                                  |
|   \\  /    A nd           | Website:  www.openfoam.com                      |
|    \\/     M anipulation  |                                                 |
\*---------------------------------------------------------------------------*/
FoamFile
{
    version     2.0;
    format      ascii;
    arch        "LSB;label=32;scalar=64";
    class       surfaceScalarField;
    location    "8";
    object      phi_0;
}
// * * * * * * * * * * * * * * * * * * * * * * * * * * * * * * * * * * * * * //

dimensions      [0 3 -1 0 0 0 0];

oriented        oriented;

internalField   nonuniform List<scalar> 
7870
(
5.3078854e-11
1.2931709e-09
5.1928859e-11
1.1500464e-12
5.195861e-11
-2.9783881e-14
5.1215357e-11
7.432532e-13
5.2052879e-11
-8.3752213e-13
5.1284634e-11
7.6824514e-13
5.2023471e-11
-7.3883758e-13
5.1334595e-11
6.8887662e-13
5.1982986e-11
-6.4839122e-13
5.1375754e-11
6.0723182e-13
5.1945597e-11
-5.6984302e-13
5.1411273e-11
5.3432405e-13
5.191255e-11
-5.0127688e-13
5.1442304e-11
4.7024618e-13
5.1883544e-11
-4.4123992e-13
5.146947e-11
4.1407352e-13
5.1858131e-11
-3.886604e-13
5.1493248e-11
3.6488222e-13
5.1835889e-11
-3.4264104e-13
5.1514043e-11
3.2184625e-13
5.1816447e-11
-3.024035e-13
5.1532207e-11
2.8424009e-13
5.1799475e-11
-2.6726839e-13
5.1548046e-11
2.5142927e-13
5.1784688e-11
-2.3664266e-13
5.1561828e-11
2.2286013e-13
5.1771838e-11
-2.1000936e-13
5.1573787e-11
1.9805053e-13
5.1760706e-11
-1.8691894e-13
5.1584124e-11
1.7658175e-13
5.1751106e-11
-1.6698162e-13
5.1593014e-11
1.5809142e-13
5.1742875e-11
-1.4986079e-13
5.1600608e-11
1.4226739e-13
5.1735875e-11
-1.3526739e-13
5.1607033e-11
1.2884247e-13
5.1729988e-11
-1.2295497e-13
5.1612398e-11
1.1758993e-13
5.1725113e-11
-1.1271555e-13
5.1616794e-11
1.0831969e-13
5.172117e-11
-1.0437609e-13
5.1620295e-11
1.0087503e-13
5.171809e-11
-9.7795578e-14
5.162296e-11
9.5130096e-14
5.1715822e-11
-9.2862161e-14
5.1624834e-11
9.0988671e-14
5.1714334e-11
-8.9499823e-14
5.1626073e-11
8.8260228e-14
5.1714633e-11
-8.8560159e-14
8.5012914e-14
1.4959474e-10
2.489826e-09
1.5083817e-10
-9.3449009e-14
1.5025924e-10
5.4913734e-13
1.493012e-10
1.7012849e-12
1.5050772e-10
-2.0440371e-12
1.4943334e-10
1.8426213e-12
1.5049371e-10
-1.7992073e-12
1.4951111e-10
1.6714821e-12
1.5043931e-10
-1.5765957e-12
1.4957122e-10
1.4753199e-12
1.503864e-10
-1.3850149e-12
1.4962228e-10
1.2984404e-12
1.5033926e-10
-1.2182589e-12
1.4966674e-10
1.1427701e-12
1.5029783e-10
-1.0723312e-12
1.4970563e-10
1.0062704e-12
1.5026152e-10
-9.4454455e-13
1.4973967e-10
8.8672948e-13
1.5022973e-10
-8.3270412e-13
1.4976943e-10
7.8214564e-13
1.5020194e-10
-7.3491587e-13
1.4979543e-10
6.9075672e-13
1.5017769e-10
-6.495282e-13
1.498181e-10
6.1102107e-13
1.5015655e-10
-5.7509965e-13
1.4983782e-10
5.4159327e-13
1.5013818e-10
-5.1037388e-13
1.4985493e-10
4.813017e-13
1.5012227e-10
-4.5425829e-13
1.4986973e-10
4.2912885e-13
1.5010855e-10
-4.0580557e-13
1.4988245e-10
3.8419408e-13
1.5009678e-10
-3.6419768e-13
1.4989331e-10
3.4573884e-13
1.5008678e-10
-3.2873206e-13
1.4990251e-10
3.1311381e-13
1.5007836e-10
-2.9880973e-13
1.4991018e-10
2.8576797e-13
1.5007139e-10
-2.7392515e-13
1.4991647e-10
2.6323923e-13
1.5006575e-10
-2.5365764e-13
1.4992148e-10
2.4514658e-13
1.5006135e-10
-2.3766412e-13
1.499253e-10
2.3118356e-13
1.5005811e-10
-2.2567133e-13
1.4992798e-10
2.2111734e-13
1.5005596e-10
-2.1748654e-13
1.499298e-10
2.1442719e-13
1.5005731e-10
-2.1607176e-13
2.0582063e-13
2.4300383e-10
3.5930721e-09
2.4727161e-10
-4.3611914e-12
2.4583632e-10
1.9844453e-12
2.4509537e-10
2.4422313e-12
2.4623135e-10
-3.1800199e-12
2.4526128e-10
2.8126934e-12
2.4625636e-10
-2.79428e-12
2.4534199e-10
2.5858505e-12
2.4621013e-10
-2.4447341e-12
2.4539977e-10
2.2856801e-12
2.4616142e-10
-2.1466731e-12
2.4544779e-10
2.0120746e-12
2.4611757e-10
-1.888036e-12
2.4548942e-10
1.7709186e-12
2.4607893e-10
-1.6618472e-12
2.455258e-10
1.5594033e-12
2.4604506e-10
-1.4638018e-12
2.4555763e-10
1.3741565e-12
2.460154e-10
-1.2904746e-12
2.4558546e-10
1.2120859e-12
2.4598947e-10
-1.1389263e-12
2.4560977e-10
1.0704624e-12
2.4596683e-10
-1.0065962e-12
2.4563096e-10
9.4689737e-13
2.4594711e-10
-8.9125033e-13
2.456494e-10
8.3930592e-13
2.4592996e-10
-7.9094149e-13
2.4566539e-10
7.4587255e-13
2.4591511e-10
-7.0397635e-13
2.4567922e-10
6.6502046e-13
2.459023e-10
-6.2888673e-13
2.4569111e-10
5.9538499e-13
2.4589132e-10
-5.6440481e-13
2.4570126e-10
5.3579061e-13
2.4588197e-10
-5.094417e-13
2.4570986e-10
4.8523103e-13
2.4587412e-10
-4.6306902e-13
2.4571703e-10
4.4285224e-13
2.4586761e-10
-4.2450313e-13
2.4572291e-10
4.0793792e-13
2.4586235e-10
-3.9309172e-13
2.457276e-10
3.7989712e-13
2.4585823e-10
-3.6830231e-13
2.4573116e-10
3.5825368e-13
2.458552e-10
-3.497084e-13
2.4573367e-10
3.4264733e-13
2.4585318e-10
-3.369978e-13
2.4573545e-10
3.3215588e-13
2.4585569e-10
-3.3630805e-13
3.178428e-13
3.3412686e-10
4.6051952e-09
3.4108152e-10
-1.1315823e-11
3.38929e-10
4.1370075e-12
3.3837371e-10
2.9975246e-12
3.3943657e-10
-4.2428794e-12
3.3856939e-10
3.679873e-12
3.3949851e-10
-3.723399e-12
3.3865225e-10
3.4321098e-12
3.3945993e-10
-3.2524187e-12
3.387075e-10
3.038112e-12
3.3941537e-10
-2.8545406e-12
3.3875243e-10
2.675009e-12
3.3937477e-10
-2.5103788e-12
3.387912e-10
2.3544942e-12
3.3933894e-10
-2.2095885e-12
3.3882505e-10
2.0732969e-12
3.393075e-10
-1.9462567e-12
3.3885465e-10
1.8270085e-12
3.3927997e-10
-1.7157979e-12
3.3888053e-10
1.6115301e-12
3.392559e-10
-1.514298e-12
3.3890313e-10
1.4232357e-12
3.3923488e-10
-1.3383513e-12
3.3892283e-10
1.2589502e-12
3.3921657e-10
-1.1849871e-12
3.3893997e-10
1.1159018e-12
3.3920065e-10
-1.0516163e-12
3.3895484e-10
9.9167692e-13
3.3918685e-10
-9.3598724e-13
3.3896769e-10
8.8417909e-13
3.3917495e-10
-8.3614779e-13
3.3897875e-10
7.9159399e-13
3.3916475e-10
-7.5041214e-13
3.3898818e-10
7.1235866e-13
3.3915608e-10
-6.7733233e-13
3.3899617e-10
6.4513513e-13
3.3914878e-10
-6.1567382e-13
3.3900284e-10
5.8878775e-13
3.3914273e-10
-5.6439435e-13
3.3900831e-10
5.4236377e-13
3.3913784e-10
-5.2262602e-13
3.3901266e-10
5.050766e-13
3.3913402e-10
-4.8965949e-13
3.3901598e-10
4.7629106e-13
3.391312e-10
-4.6492292e-13
3.3901831e-10
4.5552758e-13
3.3912929e-10
-4.4797744e-13
3.3902003e-10
4.4141918e-13
3.3913269e-10
-4.4896439e-13
4.214532e-13
4.2278055e-10
5.5286647e-09
4.3221807e-10
-2.0753395e-11
4.295326e-10
6.8224997e-12
4.2913911e-10
3.3910207e-12
4.3012318e-10
-5.2269549e-12
4.2935764e-10
4.4454133e-12
4.3022006e-10
-4.5858197e-12
4.2944178e-10
4.2103923e-12
4.3018862e-10
-3.9992597e-12
4.2949432e-10
3.7324109e-12
4.3014813e-10
-3.5083456e-12
4.2953612e-10
3.2870229e-12
4.301108e-10
-3.0850638e-12
4.29572e-10
2.8932965e-12
4.3007777e-10
-2.7153616e-12
4.2960329e-10
2.5477742e-12
4.3004878e-10
-2.3917402e-12
4.2963066e-10
2.2451293e-12
4.3002338e-10
-2.1085255e-12
4.2965457e-10
1.9803406e-12
4.3000118e-10
-1.8609006e-12
4.2967546e-10
1.7489556e-12
4.2998178e-10
-1.6446789e-12
4.2969366e-10
1.547073e-12
4.2996488e-10
-1.4562093e-12
4.297095e-10
1.3712871e-12
4.2995019e-10
-1.2923097e-12
4.2972324e-10
1.2186321e-12
4.2993746e-10
-1.150213e-12
4.2973511e-10
1.0865318e-12
4.2992648e-10
-1.0275201e-12
4.2974532e-10
9.7275671e-13
4.2991707e-10
-9.221591e-13
4.2975404e-10
8.7538614e-13
4.2990906e-10
-8.3235045e-13
4.2976142e-10
7.927758e-13
4.2990232e-10
-7.5657673e-13
4.2976758e-10
7.2352988e-13
4.2989674e-10
-6.9355672e-13
4.2977263e-10
6.6647705e-13
4.2989222e-10
-6.4222299e-13
4.2977665e-10
6.2064946e-13
4.2988869e-10
-6.0170192e-13
4.2977972e-10
5.8526353e-13
4.2988608e-10
-5.7128421e-13
4.2978188e-10
5.59728e-13
4.298843e-10
-5.5039537e-13
4.2978351e-10
5.4220652e-13
4.2988835e-10
-5.5380595e-13
5.1659881e-13
5.0894617e-10
6.3659688e-09
5.2068406e-10
-3.2491312e-11
5.1764604e-10
9.8605261e-12
5.1739403e-10
3.643031e-12
5.1829122e-10
-6.1241531e-12
5.1762598e-10
5.1106568e-12
5.1842118e-10
-5.3810164e-12
5.1771051e-10
4.9210632e-12
5.1839632e-10
-4.685078e-12
5.1776016e-10
4.3685707e-12
5.1835982e-10
-4.1080029e-12
5.1779877e-10
3.8480721e-12
5.1832574e-10
-3.6120312e-12
5.1783176e-10
3.3872812e-12
5.1829551e-10
-3.1791169e-12
5.1786049e-10
2.9827949e-12
5.1826896e-10
-2.8002096e-12
5.1788561e-10
2.6284833e-12
5.182457e-10
-2.4686206e-12
5.1790756e-10
2.3184864e-12
5.1822536e-10
-2.1787022e-12
5.1792672e-10
2.0475948e-12
5.1820759e-10
-1.9255516e-12
5.1794342e-10
1.8112421e-12
5.1819211e-10
-1.7048932e-12
5.1795795e-10
1.6054415e-12
5.1817864e-10
-1.5130016e-12
5.1797055e-10
1.4267206e-12
5.1816698e-10
-1.3466367e-12
5.1798145e-10
1.2720638e-12
5.1815692e-10
-1.2029894e-12
5.1799081e-10
1.1388608e-12
5.1814829e-10
-1.0796339e-12
5.1799881e-10
1.0248629e-12
5.1814095e-10
-9.7448654e-13
5.1800558e-10
9.2814499e-13
5.1813477e-10
-8.8577039e-13
5.1801123e-10
8.4707255e-13
5.1812966e-10
-8.1198486e-13
5.1801586e-10
7.8027356e-13
5.1812551e-10
-7.5187914e-13
5.1801955e-10
7.2661335e-13
5.1812228e-10
-7.0442797e-13
5.1802237e-10
6.8517058e-13
5.1811988e-10
-6.6879264e-13
5.1802436e-10
6.5524961e-13
5.1811822e-10
-6.4425384e-13
5.1802589e-10
6.3453601e-13
5.1812273e-10
-6.5065491e-13
6.0322625e-13
5.9268256e-10
7.1195366e-09
6.0648999e-10
-4.629876e-11
6.032669e-10
1.3083614e-11
6.0313881e-10
3.7711118e-12
6.0394077e-10
-6.9261139e-12
6.0337425e-10
5.6771825e-12
6.0410198e-10
-6.1087479e-12
6.0345829e-10
5.564756e-12
6.0408315e-10
-5.3099366e-12
6.035049e-10
4.9468136e-12
6.0405054e-10
-4.6536438e-12
6.035403e-10
4.3583144e-12
6.0401968e-10
-4.0914113e-12
6.0357038e-10
3.836581e-12
6.0399224e-10
-3.6009721e-12
6.0359656e-10
3.3784751e-12
6.0396812e-10
-3.1717693e-12
6.0361943e-10
2.9771725e-12
6.0394698e-10
-2.7961756e-12
6.0363941e-10
2.6260574e-12
6.039285e-10
-2.4677851e-12
6.0365686e-10
2.319233e-12
6.0391235e-10
-2.1810423e-12
6.0367206e-10
2.0515282e-12
6.0389827e-10
-1.9311042e-12
6.0368529e-10
1.8184277e-12
6.0388604e-10
-1.7137503e-12
6.0369676e-10
1.6159988e-12
6.0387543e-10
-1.5253106e-12
6.0370667e-10
1.4408257e-12
6.0386628e-10
-1.3626031e-12
6.0371519e-10
1.2899521e-12
6.0385844e-10
-1.2228798e-12
6.0372247e-10
1.1608309e-12
6.0385176e-10
-1.1037804e-12
6.0372863e-10
1.0512813e-12
6.0384615e-10
-1.0032917e-12
6.0373377e-10
9.5945181e-13
6.038415e-10
-9.1971349e-13
6.0373798e-10
8.8378743e-13
6.0383773e-10
-8.5162766e-13
6.0374134e-10
8.230011e-13
6.0383479e-10
-7.9786992e-13
6.0374391e-10
7.7604445e-13
6.038326e-10
-7.5748044e-13
6.0374573e-10
7.4212466e-13
6.0383106e-10
-7.2958678e-13
6.0374714e-10
7.1845337e-13
6.0383587e-10
-7.3938795e-13
6.8136727e-13
6.7404683e-10
7.79174e-09
6.8965165e-10
-6.1903577e-11
6.8639167e-10
1.6343576e-11
6.8637015e-10
3.7926336e-12
6.8707215e-10
-7.6281194e-12
6.8660225e-10
6.1470912e-12
6.8726259e-10
-6.7690969e-12
6.8668501e-10
6.1423371e-12
6.8724919e-10
-5.874115e-12
6.8672844e-10
5.467566e-12
6.8722039e-10
-5.145593e-12
6.8676062e-10
4.8180874e-12
6.8719271e-10
-4.5235042e-12
6.867878e-10
4.2414875e-12
6.8716802e-10
-3.9811939e-12
6.8681143e-10
3.7350701e-12
6.8714631e-10
-3.5066549e-12
6.8683207e-10
3.2914219e-12
6.8712729e-10
-3.0913987e-12
6.8685009e-10
2.9032519e-12
6.8711064e-10
-2.7283331e-12
6.8686583e-10
2.5640453e-12
6.870961e-10
-2.4113142e-12
6.8687954e-10
2.2680864e-12
6.8708343e-10
-2.1349867e-12
6.8689147e-10
2.0103834e-12
6.870724e-10
-1.8946844e-12
6.8690181e-10
1.786589e-12
6.8706285e-10
-1.6863496e-12
6.8691075e-10
1.5929269e-12
6.8705461e-10
-1.5064641e-12
6.8691844e-10
1.4261288e-12
6.8704755e-10
-1.3519895e-12
6.86925e-10
1.2833786e-12
6.8704153e-10
-1.220316e-12
6.8693055e-10
1.1622655e-12
6.8703648e-10
-1.1092175e-12
6.8693519e-10
1.0607417e-12
6.8703229e-10
-1.0168136e-12
6.8693899e-10
9.7708739e-13
6.8702889e-10
-9.415349e-13
6.8694202e-10
9.0987742e-13
6.8702624e-10
-8.8209079e-13
6.8694433e-10
8.5794715e-13
6.8702426e-10
-8.3740884e-13
6.8694597e-10
8.2041375e-13
6.8702284e-10
-8.0645662e-13
6.8694727e-10
7.9402937e-13
6.8702781e-10
-8.1993001e-13
7.5111841e-13
7.5307855e-10
8.3849114e-09
7.7018775e-10
-7.9012771e-11
7.6701567e-10
1.9515644e-11
7.670813e-10
3.7270104e-12
7.6768601e-10
-8.2328307e-12
7.6730969e-10
6.523404e-12
7.6790311e-10
-7.3625079e-12
7.6739058e-10
6.6548649e-12
7.6789455e-10
-6.3780852e-12
7.6743068e-10
5.9314331e-12
7.6786943e-10
-5.5843449e-12
7.6745963e-10
5.2278873e-12
7.6784489e-10
-4.9087593e-12
7.6748394e-10
4.6024317e-12
7.6782293e-10
-4.3201803e-12
7.6750504e-10
4.0529585e-12
7.678036e-10
-3.8052176e-12
7.6752346e-10
3.5715646e-12
7.6778666e-10
-3.3545998e-12
7.6753955e-10
3.1503636e-12
7.6777184e-10
-2.9606201e-12
7.6755359e-10
2.7822911e-12
7.6775889e-10
-2.6166092e-12
7.6756583e-10
2.4611458e-12
7.677476e-10
-2.3167553e-12
7.6757647e-10
2.1815119e-12
7.6773778e-10
-2.0559946e-12
7.675857e-10
1.9386719e-12
7.6772927e-10
-1.8299235e-12
7.6759367e-10
1.7285285e-12
7.6772193e-10
-1.6347242e-12
7.6760052e-10
1.5475352e-12
7.6771563e-10
-1.4670994e-12
7.6760637e-10
1.3926363e-12
7.6771027e-10
-1.3242168e-12
7.6761132e-10
1.2612154e-12
7.6770577e-10
-1.2036603e-12
7.6761546e-10
1.1510501e-12
7.6770203e-10
-1.1033886e-12
7.6761885e-10
1.0602732e-12
7.6769901e-10
-1.021697e-12
7.6762155e-10
9.8733569e-13
7.6769664e-10
-9.5718132e-13
7.6762362e-10
9.3096754e-13
7.6769488e-10
-9.0866521e-13
7.6762509e-10
8.9020313e-13
7.6769358e-10
-8.7495147e-13
7.6762626e-10
8.6135767e-13
7.6769857e-10
-8.9224916e-13
8.1261823e-13
8.2980838e-10
8.9013528e-09
8.4811782e-10
-9.7322191e-11
8.4513341e-10
2.2500039e-11
8.4526547e-10
3.594953e-12
8.4578332e-10
-8.7506755e-12
8.4549634e-10
6.8103762e-12
8.4602358e-10
-7.8897446e-12
8.4557489e-10
7.1035605e-12
8.4601929e-10
-6.8224951e-12
8.4561155e-10
6.3391811e-12
8.4599775e-10
-5.9705477e-12
8.4563728e-10
5.5883539e-12
8.4597628e-10
-5.2477609e-12
8.4565875e-10
4.9199709e-12
8.4595701e-10
-4.618448e-12
8.4567734e-10
4.3326298e-12
8.4594004e-10
-4.0679133e-12
8.4569357e-10
3.8180318e-12
8.4592515e-10
-3.586181e-12
8.4570774e-10
3.3677727e-12
8.4591212e-10
-3.165001e-12
8.4572011e-10
2.9743059e-12
8.4590074e-10
-2.7972413e-12
8.4573088e-10
2.6310034e-12
8.4589082e-10
-2.476688e-12
8.4574025e-10
2.332076e-12
8.4588219e-10
-2.1979276e-12
8.4574838e-10
2.0724812e-12
8.458747e-10
-1.9562521e-12
8.4575539e-10
1.8478388e-12
8.4586825e-10
-1.7475799e-12
8.4576143e-10
1.6543578e-12
8.4586271e-10
-1.5683859e-12
8.4576658e-10
1.4887716e-12
8.45858e-10
-1.415642e-12
8.4577094e-10
1.3482831e-12
8.4585404e-10
-1.2867649e-12
8.4577457e-10
1.2305159e-12
8.4585076e-10
-1.1795714e-12
8.4577756e-10
1.1334729e-12
8.458481e-10
-1.0922374e-12
8.4577994e-10
1.0554955e-12
8.4584601e-10
-1.0232576e-12
8.4578176e-10
9.9521909e-13
8.4584446e-10
-9.7136089e-13
8.4578306e-10
9.5160257e-13
8.4584329e-10
-9.3518286e-13
8.457841e-10
9.2055312e-13
8.458482e-10
-9.5635262e-13
8.6603712e-13
9.0426558e-10
9.343337e-09
9.2345958e-10
-1.1651618e-10
9.2073908e-10
2.5220542e-11
9.2091904e-10
3.414992e-12
9.213652e-10
-9.1968409e-12
9.2116206e-10
7.0135215e-12
9.2162408e-10
-8.3517645e-12
9.2123785e-10
7.4897898e-12
9.2162351e-10
-7.208151e-12
9.2127096e-10
6.6917237e-12
9.2160541e-10
-6.3049906e-12
9.212935e-10
5.9002579e-12
9.2158696e-10
-5.5412172e-12
9.2131215e-10
5.1947782e-12
9.2157033e-10
-4.8766228e-12
9.2132828e-10
4.5746758e-12
9.2155566e-10
-4.2952935e-12
9.2134235e-10
4.0313444e-12
9.215428e-10
-3.7866289e-12
9.2135463e-10
3.5559385e-12
9.2153153e-10
-3.3419055e-12
9.2136534e-10
3.1404953e-12
9.2152169e-10
-2.9535902e-12
9.2137468e-10
2.7780177e-12
9.2151311e-10
-2.6151212e-12
9.213828e-10
2.4623936e-12
9.2150565e-10
-2.3207818e-12
9.2138983e-10
2.188299e-12
9.2149918e-10
-2.0656009e-12
9.2139591e-10
1.9511093e-12
9.214936e-10
-1.8452683e-12
9.2140113e-10
1.7468217e-12
9.2148881e-10
-1.6560619e-12
9.214056e-10
1.5719871e-12
9.2148474e-10
-1.4947837e-12
9.2140937e-10
1.4236518e-12
9.2148131e-10
-1.3587059e-12
9.2141252e-10
1.2993063e-12
9.2147847e-10
-1.2455221e-12
9.214151e-10
1.1968405e-12
9.2147617e-10
-1.1533045e-12
9.2141716e-10
1.1145005e-12
9.2147437e-10
-1.0804589e-12
9.2141875e-10
1.0508378e-12
9.2147301e-10
-1.0256292e-12
9.2141987e-10
1.0047434e-12
9.2147197e-10
-9.8728369e-13
9.2142078e-10
9.7175017e-13
9.2147671e-10
-1.0122832e-12
9.1157231e-13
9.7648006e-10
9.7131068e-09
9.9622872e-10
-1.3626484e-10
9.9382689e-10
2.7622379e-11
9.9404183e-10
3.200044e-12
9.9443265e-10
-9.5876541e-12
9.9430682e-10
7.1393462e-12
9.9470465e-10
-8.7495943e-12
9.9437939e-10
7.8150476e-12
9.9470725e-10
-7.5360018e-12
9.9440886e-10
6.9901094e-12
9.9469246e-10
-6.5885919e-12
9.9442823e-10
6.1644906e-12
9.9467696e-10
-5.7899496e-12
9.9444411e-10
5.4276325e-12
9.9466291e-10
-5.09543e-12
9.9445781e-10
4.7797812e-12
9.9465051e-10
-4.4879978e-12
9.9446975e-10
4.2121054e-12
9.9463963e-10
-3.9565073e-12
9.9448018e-10
3.7153927e-12
9.946301e-10
-3.4918312e-12
9.9448927e-10
3.2813285e-12
9.9462177e-10
-3.0860958e-12
9.9449719e-10
2.9026036e-12
9.9461451e-10
-2.7324442e-12
9.9450407e-10
2.5728322e-12
9.9460819e-10
-2.4249028e-12
9.9451004e-10
2.2864519e-12
9.9460272e-10
-2.1582773e-12
9.945152e-10
2.038631e-12
9.9459799e-10
-1.9280641e-12
9.9451963e-10
1.8251872e-12
9.9459394e-10
-1.7303735e-12
9.9452341e-10
1.6425168e-12
9.9459049e-10
-1.5618642e-12
9.9452661e-10
1.4875334e-12
9.9458759e-10
-1.4196851e-12
9.9452928e-10
1.3576145e-12
9.9458518e-10
-1.3014256e-12
9.9453147e-10
1.250554e-12
9.9458323e-10
-1.2050694e-12
9.9453322e-10
1.1645165e-12
9.945817e-10
-1.1289461e-12
9.9453456e-10
1.0979806e-12
9.9458056e-10
-1.0716238e-12
9.9453552e-10
1.0497767e-12
9.9457965e-10
-1.0314063e-12
9.9453629e-10
1.0151014e-12
9.9458413e-10
-1.0601163e-12
9.4944366e-13
1.0464808e-09
1.0012876e-08
1.0664397e-09
-1.5622378e-10
1.0643911e-09
2.9670941e-11
1.0646357e-09
2.9554776e-12
1.0649863e-09
-9.9382569e-12
1.0649307e-09
7.1949625e-12
1.0652653e-09
-9.0842479e-12
1.0649995e-09
8.080943e-12
1.0652706e-09
-7.8071244e-12
1.0650252e-09
7.2355105e-12
1.065259e-09
-6.8223871e-12
1.0650414e-09
6.3820527e-12
1.0652463e-09
-5.994883e-12
1.0650546e-09
5.6194092e-12
1.0652348e-09
-5.2756858e-12
1.0650659e-09
4.9487157e-12
1.0652246e-09
-4.6467455e-12
1.0650757e-09
4.3609929e-12
1.0652157e-09
-4.0964506e-12
1.0650843e-09
3.8467329e-12
1.0652079e-09
-3.615338e-12
1.0650919e-09
3.3973333e-12
1.065201e-09
-3.1952528e-12
1.0650984e-09
3.0052276e-12
1.065195e-09
-2.8290949e-12
1.0651041e-09
2.663805e-12
1.0651898e-09
-2.5106792e-12
1.065109e-09
2.3673069e-12
1.0651853e-09
-2.2346272e-12
1.0651132e-09
2.1107308e-12
1.0651814e-09
-1.9962758e-12
1.0651169e-09
1.8897468e-12
1.0651781e-09
-1.7915978e-12
1.06512e-09
1.7006237e-12
1.0651753e-09
-1.6171331e-12
1.0651226e-09
1.5401658e-12
1.0651729e-09
-1.4699294e-12
1.0651248e-09
1.4056575e-12
1.0651709e-09
-1.3474898e-12
1.0651266e-09
1.2948132e-12
1.0651693e-09
-1.2477247e-12
1.0651281e-09
1.2057295e-12
1.065168e-09
-1.1688996e-12
1.0651292e-09
1.1368232e-12
1.0651671e-09
-1.1095167e-12
1.06513e-09
1.0868719e-12
1.0651663e-09
-1.0677209e-12
1.0651306e-09
1.0507759e-12
1.0651705e-09
-1.0999565e-12
9.7988967e-13
1.1142913e-09
1.0244835e-08
1.1341061e-09
-1.7603859e-10
1.132427e-09
3.1350097e-11
1.132703e-09
2.6794653e-12
1.1330265e-09
-1.0261818e-11
1.1330338e-09
7.1877302e-12
1.1333062e-09
-9.3566887e-12
1.133098e-09
8.2891869e-12
1.1333136e-09
-8.0227118e-12
1.1331199e-09
7.4292122e-12
1.133305e-09
-7.0075184e-12
1.133133e-09
6.5540447e-12
1.1332951e-09
-6.1570359e-12
1.1331435e-09
5.7710714e-12
1.1332861e-09
-5.4182891e-12
1.1331525e-09
5.0823263e-12
1.1332781e-09
-4.7723287e-12
1.1331603e-09
4.4787528e-12
1.133271e-09
-4.2071571e-12
1.1331671e-09
3.950617e-12
1.1332648e-09
-3.7130422e-12
1.1331731e-09
3.4890902e-12
1.1332594e-09
-3.281606e-12
1.1331782e-09
3.0864032e-12
1.1332547e-09
-2.9055557e-12
1.1331827e-09
2.735767e-12
1.1332506e-09
-2.5785387e-12
1.1331866e-09
2.4312679e-12
1.133247e-09
-2.2950311e-12
1.13319e-09
2.1677687e-12
1.133244e-09
-2.0502434e-12
1.1331929e-09
1.9408224e-12
1.1332413e-09
-1.8400394e-12
1.1331954e-09
1.7465973e-12
1.1332391e-09
-1.6608652e-12
1.1331975e-09
1.581811e-12
1.1332372e-09
-1.5096883e-12
1.1331992e-09
1.443674e-12
1.1332357e-09
-1.3839432e-12
1.1332006e-09
1.3298377e-12
1.1332344e-09
-1.2814817e-12
1.1332018e-09
1.238344e-12
1.1332334e-09
-1.2005175e-12
1.1332027e-09
1.1675588e-12
1.1332326e-09
-1.1394969e-12
1.1332033e-09
1.1162145e-12
1.133232e-09
-1.0964136e-12
1.1332038e-09
1.0789582e-12
1.1332358e-09
-1.1319351e-12
1.0031639e-12
1.1799233e-09
1.0411162e-08
1.1992409e-09
-1.9535615e-10
1.1979351e-09
3.2655856e-11
1.1982455e-09
2.3690981e-12
1.1985534e-09
-1.0569784e-11
1.1986161e-09
7.1250477e-12
1.1988273e-09
-9.5678363e-12
1.1986749e-09
8.4415833e-12
1.1988362e-09
-8.184062e-12
1.1986928e-09
7.5726028e-12
1.1988305e-09
-7.1452247e-12
1.1987029e-09
6.6816575e-12
1.1988234e-09
-6.2775121e-12
1.1987108e-09
5.8836619e-12
1.1988167e-09
-5.5242137e-12
1.1987175e-09
5.1815301e-12
1.1988108e-09
-4.8656055e-12
1.1987234e-09
4.5661927e-12
1.1988056e-09
-4.2893834e-12
1.1987285e-09
4.0277569e-12
1.198801e-09
-3.7856114e-12
1.1987329e-09
3.5572279e-12
1.198797e-09
-3.3457452e-12
1.1987367e-09
3.1466861e-12
1.1987935e-09
-2.9623486e-12
1.1987401e-09
2.7892106e-12
1.1987905e-09
-2.6289446e-12
1.198743e-09
2.4787724e-12
1.1987879e-09
-2.3399011e-12
1.1987455e-09
2.2101344e-12
1.1987856e-09
-2.0903347e-12
1.1987477e-09
1.9787628e-12
1.1987836e-09
-1.8760283e-12
1.1987495e-09
1.780751e-12
1.198782e-09
-1.6933582e-12
1.198751e-09
1.6127525e-12
1.1987806e-09
-1.539232e-12
1.1987523e-09
1.4719225e-12
1.1987794e-09
-1.4110333e-12
1.1987534e-09
1.3558653e-12
1.1987785e-09
-1.3065695e-12
1.1987543e-09
1.2625815e-12
1.1987777e-09
-1.2240146e-12
1.1987549e-09
1.1903964e-12
1.1987772e-09
-1.1617688e-12
1.1987554e-09
1.1380056e-12
1.1987767e-09
-1.1176852e-12
1.1987558e-09
1.0998463e-12
1.19878e-09
-1.1562077e-12
1.0195316e-12
1.2433622e-09
1.051405e-08
1.2618551e-09
-2.1384902e-10
1.2609336e-09
3.357733e-11
1.2612637e-09
2.039061e-12
1.2615665e-09
-1.0872599e-11
1.2616775e-09
7.0140056e-12
1.2618285e-09
-9.7187849e-12
1.2617301e-09
8.5399635e-12
1.2618386e-09
-8.2925947e-12
1.2617441e-09
7.6671566e-12
1.2618357e-09
-7.2368345e-12
1.2617512e-09
6.7661636e-12
1.2618312e-09
-6.3574926e-12
1.2617565e-09
5.9582951e-12
1.2618268e-09
-5.5945011e-12
1.261761e-09
5.2473072e-12
1.2618229e-09
-4.9274937e-12
1.2617649e-09
4.6241761e-12
1.2618195e-09
-4.3439386e-12
1.2617683e-09
4.0789143e-12
1.2618165e-09
-3.8337598e-12
1.2617713e-09
3.6024187e-12
1.2618139e-09
-3.3883015e-12
1.2617739e-09
3.1866707e-12
1.2618116e-09
-3.0000324e-12
1.2617761e-09
2.8246622e-12
1.2618096e-09
-2.6623926e-12
1.261778e-09
2.510288e-12
1.2618078e-09
-2.3696781e-12
1.2617797e-09
2.2382445e-12
1.2618063e-09
-2.1169435e-12
1.2617811e-09
2.0039406e-12
1.261805e-09
-1.8999175e-12
1.2617824e-09
1.80342e-12
1.2618039e-09
-1.7149304e-12
1.2617834e-09
1.6332934e-12
1.261803e-09
-1.5588497e-12
1.2617843e-09
1.4906794e-12
1.2618022e-09
-1.4290248e-12
1.261785e-09
1.3731505e-12
1.2618016e-09
-1.3232331e-12
1.2617855e-09
1.2786787e-12
1.2618011e-09
-1.2396202e-12
1.261786e-09
1.2055595e-12
1.2618007e-09
-1.1765507e-12
1.2617863e-09
1.1524595e-12
1.2618004e-09
-1.1317498e-12
1.2617866e-09
1.1136511e-12
1.2618033e-09
-1.1729513e-12
1.0292674e-12
1.3045383e-09
1.0555761e-08
1.3219465e-09
-2.3125724e-10
1.3214882e-09
3.4035668e-11
1.3217657e-09
1.7614713e-12
1.3220655e-09
-1.117233e-11
1.3222177e-09
6.8617788e-12
1.3223097e-09
-9.8107676e-12
1.3222635e-09
8.5861428e-12
1.3223208e-09
-8.3498696e-12
1.3222735e-09
7.7144101e-12
1.3223205e-09
-7.2837652e-12
1.3222777e-09
6.8089051e-12
1.3223185e-09
-6.3982293e-12
1.3222806e-09
5.99615e-12
1.3223164e-09
-5.6302544e-12
1.322283e-09
5.2806954e-12
1.3223144e-09
-4.9589652e-12
1.322285e-09
4.653617e-12
1.3223127e-09
-4.3716795e-12
1.3222868e-09
4.1048948e-12
1.3223112e-09
-3.8582434e-12
1.3222883e-09
3.6253739e-12
1.3223099e-09
-3.4099431e-12
1.3222896e-09
3.2069862e-12
1.3223088e-09
-3.0191983e-12
1.3222908e-09
2.8426794e-12
1.3223078e-09
-2.6794071e-12
1.3222918e-09
2.5263098e-12
1.3223069e-09
-2.3848288e-12
1.3222926e-09
2.2525402e-12
1.3223062e-09
-2.1304863e-12
1.3222933e-09
2.0167505e-12
1.3223055e-09
-1.9120808e-12
1.322294e-09
1.814959e-12
1.322305e-09
-1.7259187e-12
1.3222945e-09
1.6437548e-12
1.3223045e-09
-1.5688474e-12
1.3222949e-09
1.5002374e-12
1.3223041e-09
-1.4381979e-12
1.3222953e-09
1.3819626e-12
1.3223038e-09
-1.3317316e-12
1.3222956e-09
1.2868862e-12
1.3223035e-09
-1.2475772e-12
1.3222958e-09
1.2132845e-12
1.3223033e-09
-1.1840737e-12
1.322296e-09
1.1598032e-12
1.3223031e-09
-1.1388333e-12
1.3222961e-09
1.1205948e-12
1.3223055e-09
-1.1823627e-12
1.0326522e-12
1.3633598e-09
1.0538651e-08
1.3795004e-09
-2.4739779e-10
1.379683e-09
3.3853037e-11
1.3797761e-09
1.668377e-12
1.3800539e-09
-1.1450092e-11
1.3802381e-09
6.6775205e-12
1.3802714e-09
-9.8440045e-12
1.3802752e-09
8.5822795e-12
1.3802828e-09
-8.3574191e-12
1.3802812e-09
7.7160144e-12
1.3802849e-09
-7.2874899e-12
1.3802825e-09
6.8112967e-12
1.3802853e-09
-6.4010347e-12
1.380283e-09
5.9984651e-12
1.3802854e-09
-5.6326314e-12
1.3802833e-09
5.2827834e-12
1.3802854e-09
-4.9610403e-12
1.3802835e-09
4.6554745e-12
1.3802853e-09
-4.3735056e-12
1.3802837e-09
4.1065443e-12
1.3802853e-09
-3.859856e-12
1.3802838e-09
3.6268404e-12
1.3802852e-09
-3.4113713e-12
1.3802839e-09
3.2082929e-12
1.3802852e-09
-3.0204674e-12
1.380284e-09
2.8438472e-12
1.3802852e-09
-2.6805391e-12
1.3802841e-09
2.5273575e-12
1.3802851e-09
-2.3858434e-12
1.3802842e-09
2.2534847e-12
1.3802851e-09
-2.1314008e-12
1.3802843e-09
2.0176068e-12
1.3802851e-09
-1.9129105e-12
1.3802843e-09
1.8157406e-12
1.3802851e-09
-1.7266772e-12
1.3802843e-09
1.6444737e-12
1.380285e-09
-1.5695463e-12
1.3802844e-09
1.5009037e-12
1.380285e-09
-1.438847e-12
1.3802844e-09
1.3825843e-12
1.380285e-09
-1.3323375e-12
1.3802844e-09
1.2874671e-12
1.380285e-09
-1.2481408e-12
1.3802845e-09
1.2138196e-12
1.380285e-09
-1.1845805e-12
1.3802845e-09
1.1602748e-12
1.3802848e-09
-1.1391723e-12
1.3802845e-09
1.1209101e-12
1.3802868e-09
-1.1846561e-12
1.0299718e-12
1.4199075e-09
1.0464994e-08
1.4345537e-09
-2.6204396e-10
1.4354428e-09
3.2963933e-11
1.435285e-09
1.8260825e-12
1.4355279e-09
-1.1692944e-11
1.4357378e-09
6.4676331e-12
1.4357132e-09
-9.8194233e-12
1.4357651e-09
8.5303992e-12
1.4357246e-09
-8.3169201e-12
1.4357669e-09
7.6736635e-12
1.435729e-09
-7.2495553e-12
1.4357655e-09
6.774809e-12
1.4357317e-09
-6.3672787e-12
1.4357637e-09
5.9665303e-12
1.4357339e-09
-5.6028398e-12
1.435762e-09
5.2547067e-12
1.4357357e-09
-4.9347828e-12
1.4357604e-09
4.6307488e-12
1.4357373e-09
-4.3503548e-12
1.4357591e-09
4.0847448e-12
1.4357386e-09
-3.8394253e-12
1.4357579e-09
3.6075968e-12
1.4357398e-09
-3.3933176e-12
1.4357568e-09
3.1912793e-12
1.4357409e-09
-3.004487e-12
1.4357559e-09
2.8287757e-12
1.4357418e-09
-2.6663631e-12
1.4357551e-09
2.513973e-12
1.4357425e-09
-2.3732329e-12
1.4357545e-09
2.2415607e-12
1.4357432e-09
-2.1201432e-12
1.4357539e-09
2.0069415e-12
1.4357438e-09
-1.902816e-12
1.4357534e-09
1.8061535e-12
1.4357443e-09
-1.717575e-12
1.4357529e-09
1.6358017e-12
1.4357447e-09
-1.561282e-12
1.4357526e-09
1.4929991e-12
1.435745e-09
-1.4312792e-12
1.4357523e-09
1.3753106e-12
1.4357453e-09
-1.3253348e-12
1.435752e-09
1.280696e-12
1.4357455e-09
-1.2415769e-12
1.4357519e-09
1.2074239e-12
1.4357456e-09
-1.1783239e-12
1.4357518e-09
1.1541226e-12
1.4357456e-09
-1.1330131e-12
1.4357517e-09
1.1148387e-12
1.4357471e-09
-1.1800618e-12
1.0215144e-12
1.4743186e-09
1.0336925e-08
1.4871454e-09
-2.7487075e-10
1.488624e-09
3.148533e-11
1.4882747e-09
2.1753832e-12
1.4884828e-09
-1.1901045e-11
1.4887153e-09
6.2350664e-12
1.4886349e-09
-9.7389776e-12
1.4887329e-09
8.4323608e-12
1.4886462e-09
-8.2302001e-12
1.4887308e-09
7.5890867e-12
1.4886528e-09
-7.1715753e-12
1.4887267e-09
6.7009624e-12
1.4886578e-09
-6.298383e-12
1.4887226e-09
5.9016823e-12
1.4886619e-09
-5.5421316e-12
1.488719e-09
5.1976414e-12
1.4886655e-09
-4.8812958e-12
1.4887158e-09
4.5804762e-12
1.4886686e-09
-4.3031995e-12
1.4887129e-09
4.0404102e-12
1.4886713e-09
-3.7978095e-12
1.4887105e-09
3.5684502e-12
1.4886737e-09
-3.3565403e-12
1.4887083e-09
3.1566591e-12
1.4886758e-09
-2.9719284e-12
1.4887064e-09
2.7980972e-12
1.4886775e-09
-2.6374744e-12
1.4887048e-09
2.4867181e-12
1.4886791e-09
-2.3475271e-12
1.4887034e-09
2.217269e-12
1.4886804e-09
-2.0971868e-12
1.4887022e-09
1.9852028e-12
1.4886816e-09
-1.8822215e-12
1.4887011e-09
1.7866003e-12
1.4886825e-09
-1.6989948e-12
1.4887002e-09
1.6181034e-12
1.4886834e-09
-1.5444019e-12
1.4886995e-09
1.4768558e-12
1.488684e-09
-1.4158129e-12
1.4886989e-09
1.3604476e-12
1.4886846e-09
-1.3110182e-12
1.4886984e-09
1.2668577e-12
1.488685e-09
-1.2281616e-12
1.4886981e-09
1.1943658e-12
1.4886853e-09
-1.1655664e-12
1.4886978e-09
1.1416039e-12
1.4886854e-09
-1.1206106e-12
1.4886976e-09
1.102631e-12
1.4886864e-09
-1.1688238e-12
1.0075696e-12
1.5265867e-09
1.0156589e-08
1.5372674e-09
-2.8555147e-10
1.5392037e-09
2.9549068e-11
1.5387608e-09
2.6182921e-12
1.5389199e-09
-1.2060222e-11
1.5391718e-09
5.9832192e-12
1.5390368e-09
-9.6040031e-12
1.5391789e-09
8.290277e-12
1.5390478e-09
-8.0990608e-12
1.5391727e-09
7.464099e-12
1.5390564e-09
-7.0552016e-12
1.539166e-09
6.5913301e-12
1.5390634e-09
-6.1958121e-12
1.5391598e-09
5.8053005e-12
1.5390695e-09
-5.4517981e-12
1.5391543e-09
5.1128012e-12
1.5390747e-09
-4.8017171e-12
1.5391495e-09
4.5057257e-12
1.5390793e-09
-4.2330428e-12
1.5391453e-09
3.9744832e-12
1.5390833e-09
-3.7358937e-12
1.5391416e-09
3.5102329e-12
1.5390868e-09
-3.3018216e-12
1.5391383e-09
3.1051685e-12
1.5390899e-09
-2.9234842e-12
1.5391355e-09
2.7524641e-12
1.5390925e-09
-2.5944876e-12
1.5391331e-09
2.4461722e-12
1.5390948e-09
-2.3092727e-12
1.539131e-09
2.1811261e-12
1.5390968e-09
-2.0630195e-12
1.5391292e-09
1.9528526e-12
1.5390985e-09
-1.851565e-12
1.5391276e-09
1.7574967e-12
1.5390999e-09
-1.6713317e-12
1.5391263e-09
1.591755e-12
1.5391011e-09
-1.5192649e-12
1.5391252e-09
1.4528169e-12