/*--------------------------------*- C++ -*----------------------------------*\
| =========                 |                                                 |
| \\      /  F ield         | OpenFOAM: The Open Source CFD Toolbox           |
|  \\    /   O peration     | Version:  2312                                  |
|   \\  /    A nd           | Website:  www.openfoam.com                      |
|    \\/     M anipulation  |                                                 |
\*---------------------------------------------------------------------------*/
FoamFile
{
    version     2.0;
    format      ascii;
    arch        "LSB;label=32;scalar=64";
    class       volSymmTensorField;
    location    "8";
    object      sigma;
}
// * * * * * * * * * * * * * * * * * * * * * * * * * * * * * * * * * * * * * //

dimensions      [0 2 -2 0 0 0 0];

internalField   nonuniform List<symmTensor> 
4000
(
(-0.39096961 -0.20776783 0 -0.070833746 0 0)
(-0.66805038 -0.14915108 0 -3.0546467e-05 0 0)
(-0.59380323 -0.14066795 0 3.4906835e-06 0 0)
(-0.63278877 -0.14530112 0 -2.9519056e-05 0 0)
(-0.60116993 -0.14148599 0 3.2037368e-05 0 0)
(-0.63086002 -0.14508126 0 -2.9358396e-05 0 0)
(-0.60379688 -0.14180361 0 2.8156756e-05 0 0)
(-0.62924408 -0.14488778 0 -2.6261932e-05 0 0)
(-0.60548201 -0.14200925 0 2.4702165e-05 0 0)
(-0.62775253 -0.14470869 0 -2.3143732e-05 0 0)
(-0.60689501 -0.14218179 0 2.1710352e-05 0 0)
(-0.62642253 -0.14454886 0 -2.0364112e-05 0 0)
(-0.60812993 -0.14233246 0 1.9098594e-05 0 0)
(-0.62525011 -0.14440786 0 -1.7921599e-05 0 0)
(-0.60921606 -0.14246483 0 1.6811546e-05 0 0)
(-0.62421857 -0.14428371 0 -1.5780548e-05 0 0)
(-0.61017277 -0.14258133 0 1.4808505e-05 0 0)
(-0.62331078 -0.14417439 0 -1.3905672e-05 0 0)
(-0.61101614 -0.14268393 0 1.3055331e-05 0 0)
(-0.62251127 -0.14407806 0 -1.2265456e-05 0 0)
(-0.61176023 -0.14277437 0 1.1522392e-05 0 0)
(-0.62180637 -0.14399311 0 -1.0832232e-05 0 0)
(-0.61241742 -0.14285418 0 1.0183822e-05 0 0)
(-0.62118405 -0.14391809 0 -9.5818053e-06 0 0)
(-0.61299867 -0.14292471 0 9.0170396e-06 0 0)
(-0.62063368 -0.14385174 0 -8.4930666e-06 0 0)
(-0.61351369 -0.14298715 0 8.002363e-06 0 0)
(-0.6201459 -0.14379294 0 -7.547637e-06 0 0)
(-0.61397108 -0.14304255 0 7.1226748e-06 0 0)
(-0.61971241 -0.14374071 0 -6.7295582e-06 0 0)
(-0.61437851 -0.14309184 0 6.3631362e-06 0 0)
(-0.61932584 -0.14369415 0 -6.0250236e-06 0 0)
(-0.6147428 -0.14313585 0 5.710937e-06 0 0)
(-0.61897963 -0.14365249 0 -5.4221471e-06 0 0)
(-0.61507006 -0.14317534 0 5.1550827e-06 0 0)
(-0.61866792 -0.14361501 0 -4.9107652e-06 0 0)
(-0.61536578 -0.14321096 0 4.686213e-06 0 0)
(-0.6183854 -0.1435811 0 -4.4822716e-06 0 0)
(-0.61563493 -0.14324331 0 4.2964528e-06 0 0)
(-0.61812732 -0.14355017 0 -4.1294844e-06 0 0)
(-0.61588204 -0.14327294 0 3.9792982e-06 0 0)
(-0.61788928 -0.14352171 0 -3.8465546e-06 0 0)
(-0.61611126 -0.14330035 0 3.7295552e-06 0 0)
(-0.61766727 -0.14349523 0 -3.6289493e-06 0 0)
(-0.61632646 -0.14332601 0 3.5433784e-06 0 0)
(-0.61745748 -0.14347029 0 -3.4736744e-06 0 0)
(-0.61653125 -0.14335034 0 3.419021e-06 0 0)
(-0.61725649 -0.14344646 0 -3.3767104e-06 0 0)
(-0.61673351 -0.14337418 0 3.3870074e-06 0 0)
(-0.61709751 -0.14342766 0 -3.3338379e-06 0 0)
(-0.35585624 -0.19391665 0 -0.066203025 0 0)
(-0.60578313 -0.1421219 0 -0.00024020931 0 0)
(-0.55253891 -0.135729 0 -3.3831927e-05 0 0)
(-0.58560378 -0.13981074 0 -2.8723433e-05 0 0)
(-0.55776665 -0.13623894 0 3.6393362e-05 0 0)
(-0.58394175 -0.13961809 0 -3.1802999e-05 0 0)
(-0.5600856 -0.13653671 0 3.1776756e-05 0 0)
(-0.58253997 -0.13944029 0 -2.9320017e-05 0 0)
(-0.56157493 -0.13673051 0 2.7743215e-05 0 0)
(-0.58122548 -0.13927204 0 -2.5933712e-05 0 0)
(-0.56282153 -0.13689301 0 2.4353285e-05 0 0)
(-0.58005107 -0.13912156 0 -2.2832102e-05 0 0)
(-0.56391052 -0.13703485 0 2.1418557e-05 0 0)
(-0.57901559 -0.13898876 0 -2.0095917e-05 0 0)
(-0.56486829 -0.13715947 0 1.8853005e-05 0 0)
(-0.57810452 -0.13887183 0 -1.7695744e-05 0 0)
(-0.56571198 -0.13726913 0 1.6606799e-05 0 0)
(-0.57730274 -0.13876887 0 -1.5593695e-05 0 0)
(-0.56645577 -0.13736572 0 1.4640957e-05 0 0)
(-0.5765966 -0.13867814 0 -1.3754721e-05 0 0)
(-0.56711207 -0.13745086 0 1.2922133e-05 0 0)
(-0.57597401 -0.13859812 0 -1.214785e-05 0 0)
(-0.56769178 -0.137526 0 1.1421305e-05 0 0)
(-0.57542432 -0.13852746 0 -1.0745971e-05 0 0)
(-0.56820456 -0.13759241 0 1.0113151e-05 0 0)
(-0.57493817 -0.13846496 0 -9.5254238e-06 0 0)
(-0.56865898 -0.1376512 0 8.9756053e-06 0 0)
(-0.57450726 -0.13840957 0 -8.4656094e-06 0 0)
(-0.56906263 -0.13770337 0 7.9894811e-06 0 0)
(-0.57412425 -0.13836036 0 -7.548646e-06 0 0)
(-0.56942226 -0.13774979 0 7.1381505e-06 0 0)
(-0.57378265 -0.13831649 0 -6.759068e-06 0 0)
(-0.56974389 -0.13779125 0 6.4072659e-06 0 0)
(-0.57347664 -0.13827723 0 -6.0835696e-06 0 0)
(-0.57003292 -0.13782845 0 5.7845241e-06 0 0)
(-0.57320105 -0.13824191 0 -5.5107872e-06 0 0)
(-0.5702942 -0.13786201 0 5.259469e-06 0 0)
(-0.57295118 -0.13820994 0 -5.0311225e-06 0 0)
(-0.57053212 -0.1378925 0 4.8233364e-06 0 0)
(-0.57272282 -0.13818078 0 -4.6366112e-06 0 0)
(-0.57075068 -0.13792044 0 4.4689523e-06 0 0)
(-0.57251209 -0.13815393 0 -4.32086e-06 0 0)
(-0.57095355 -0.1379463 0 4.1907287e-06 0 0)
(-0.57231542 -0.13812894 0 -4.0791396e-06 0 0)
(-0.57114419 -0.13797051 0 3.9848749e-06 0 0)
(-0.57212942 -0.1381054 0 -3.9090951e-06 0 0)
(-0.57132579 -0.13799347 0 3.8511017e-06 0 0)
(-0.57195077 -0.13808286 0 -3.8052624e-06 0 0)
(-0.57150379 -0.13801567 0 3.8754074e-06 0 0)
(-0.5718011 -0.138064 0 -3.7099578e-06 0 0)
(-0.33408927 -0.18408277 0 -0.061743301 0 0)
(-0.56594277 -0.13700189 0 -0.00012904616 0 0)
(-0.52481864 -0.13230051 0 -5.4548081e-05 0 0)
(-0.55506731 -0.13614926 0 -2.723384e-05 0 0)
(-0.52962977 -0.1327272 0 3.6645982e-05 0 0)
(-0.55357456 -0.1359654 0 -3.0732348e-05 0 0)
(-0.53175707 -0.13301232 0 3.1792111e-05 0 0)
(-0.55230113 -0.13579701 0 -2.904844e-05 0 0)
(-0.53312174 -0.13319839 0 2.7618655e-05 0 0)
(-0.55109963 -0.13563588 0 -2.5769284e-05 0 0)
(-0.53426247 -0.13335433 0 2.4217598e-05 0 0)
(-0.55002512 -0.1354916 0 -2.2697881e-05 0 0)
(-0.53525875 -0.1334904 0 2.1294971e-05 0 0)
(-0.54907765 -0.13536426 0 -1.9979474e-05 0 0)
(-0.53613498 -0.13360995 0 1.8743588e-05 0 0)
(-0.54824404 -0.13525213 0 -1.7593484e-05 0 0)
(-0.53690691 -0.13371516 0 1.651038e-05 0 0)
(-0.54751047 -0.13515339 0 -1.5503635e-05 0 0)
(-0.53758749 -0.13380782 0 1.455601e-05 0 0)
(-0.54686441 -0.13506638 0 -1.3675313e-05 0 0)
(-0.53818805 -0.13388951 0 1.2847238e-05 0 0)
(-0.5462948 -0.13498964 0 -1.2077761e-05 0 0)
(-0.53871857 -0.13396161 0 1.1355196e-05 0 0)
(-0.5457919 -0.13492187 0 -1.068403e-05 0 0)
(-0.53918787 -0.13402533 0 1.0054713e-05 0 0)
(-0.54534711 -0.13486193 0 -9.4705989e-06 0 0)
(-0.53960379 -0.13408174 0 8.9238569e-06 0 0)
(-0.54495285 -0.1348088 0 -8.416993e-06 0 0)
(-0.53997328 -0.1341318 0 7.9435592e-06 0 0)
(-0.54460241 -0.13476159 0 -7.5054389e-06 0 0)
(-0.5403025 -0.13417636 0 7.0972989e-06 0 0)
(-0.54428982 -0.1347195 0 -6.7205709e-06 0 0)
(-0.54059697 -0.13421615 0 6.3708266e-06 0 0)
(-0.54400978 -0.13468183 0 -6.0491771e-06 0 0)
(-0.54086163 -0.13425187 0 5.7519334e-06 0 0)
(-0.54375753 -0.13464793 0 -5.4799878e-06 0 0)
(-0.54110091 -0.13428409 0 5.2302618e-06 0 0)
(-0.54352879 -0.13461724 0 -5.0035087e-06 0 0)
(-0.54131884 -0.13431338 0 4.7971634e-06 0 0)
(-0.54331968 -0.13458924 0 -4.6119087e-06 0 0)
(-0.54151907 -0.13434022 0 4.4456271e-06 0 0)
(-0.54312667 -0.13456345 0 -4.2990019e-06 0 0)
(-0.541705 -0.13436507 0 4.1703448e-06 0 0)
(-0.54294646 -0.13453944 0 -4.060459e-06 0 0)
(-0.54187976 -0.13438835 0 3.9681165e-06 0 0)
(-0.54277595 -0.1345168 0 -3.8950055e-06 0 0)
(-0.54204633 -0.13441044 0 3.8403099e-06 0 0)
(-0.54261199 -0.13449511 0 -3.7988701e-06 0 0)
(-0.54220932 -0.13443166 0 3.9100334e-06 0 0)
(-0.54247045 -0.13447664 0 -3.8061922e-06 0 0)
(-0.31938148 -0.17552373 0 -0.056858454 0 0)
(-0.52972308 -0.132321 0 -6.953134e-05 0 0)
(-0.49757868 -0.12885139 0 -7.9240266e-05 0 0)
(-0.52540945 -0.13248939 0 -2.273012e-05 0 0)
(-0.50213051 -0.12921522 0 3.3375139e-05 0 0)
(-0.52410806 -0.13231382 0 -2.640837e-05 0 0)
(-0.50409075 -0.12948776 0 2.8851408e-05 0 0)
(-0.52294809 -0.13215477 0 -2.5968721e-05 0 0)
(-0.50534434 -0.12966617 0 2.4875409e-05 0 0)
(-0.52184577 -0.13200065 0 -2.3141729e-05 0 0)
(-0.50639098 -0.12981557 0 2.1776019e-05 0 0)
(-0.52085889 -0.13186246 0 -2.0398078e-05 0 0)
(-0.50730482 -0.1299459 0 1.9142144e-05 0 0)
(-0.51998862 -0.13174048 0 -1.7957523e-05 0 0)
(-0.50810857 -0.13006039 0 1.6847746e-05 0 0)
(-0.51922298 -0.13163306 0 -1.5813451e-05 0 0)
(-0.50881668 -0.13016115 0 1.4840294e-05 0 0)
(-0.51854925 -0.13153847 0 -1.3935171e-05 0 0)
(-0.50944103 -0.1302499 0 1.3083639e-05 0 0)
(-0.51795592 -0.13145511 0 -1.2291892e-05 0 0)
(-0.509992 -0.13032815 0 1.1547768e-05 0 0)
(-0.51743283 -0.13138159 0 -1.0856028e-05 0 0)
(-0.51047874 -0.13039721 0 1.0206715e-05 0 0)
(-0.51697102 -0.13131666 0 -9.603369e-06 0 0)
(-0.51090934 -0.13045824 0 9.0378526e-06 0 0)
(-0.51656259 -0.13125922 0 -8.5127782e-06 0 0)
(-0.51129098 -0.13051229 0 8.0214711e-06 0 0)
(-0.51620058 -0.13120831 0 -7.5658567e-06 0 0)
(-0.51163002 -0.13056026 0 7.1404366e-06 0 0)
(-0.5158788 -0.13116307 0 -6.7466368e-06 0 0)
(-0.51193212 -0.13060295 0 6.3799068e-06 0 0)
(-0.51559178 -0.13112273 0 -6.0413174e-06 0 0)
(-0.51220235 -0.13064109 0 5.7270862e-06 0 0)
(-0.51533466 -0.13108661 0 -5.4380388e-06 0 0)
(-0.51244524 -0.13067532 0 5.1710205e-06 0 0)
(-0.51510305 -0.13105411 0 -4.9266968e-06 0 0)
(-0.51266484 -0.13070622 0 4.7024321e-06 0 0)
(-0.51489303 -0.13102467 0 -4.4988e-06 0 0)
(-0.51286486 -0.13073431 0 4.3136034e-06 0 0)
(-0.51470104 -0.1309978 0 -4.1473852e-06 0 0)
(-0.51304865 -0.13076007 0 3.9983363e-06 0 0)
(-0.51452382 -0.13097305 0 -3.8670378e-06 0 0)
(-0.51321932 -0.13078392 0 3.7520708e-06 0 0)
(-0.51435835 -0.13094999 0 -3.6541845e-06 0 0)
(-0.51337976 -0.13080628 0 3.5724032e-06 0 0)
(-0.51420176 -0.13092824 0 -3.5086219e-06 0 0)
(-0.51353273 -0.13082751 0 3.4619584e-06 0 0)
(-0.51405107 -0.13090738 0 -3.4268107e-06 0 0)
(-0.51368206 -0.13084779 0 3.579981e-06 0 0)
(-0.51391687 -0.13088924 0 -3.5145126e-06 0 0)
(-0.30593941 -0.16733094 0 -0.052170249 0 0)
(-0.49473052 -0.12768187 0 3.3114397e-06 0 0)
(-0.4707513 -0.1253533 0 -9.5899549e-05 0 0)
(-0.49656196 -0.12883177 0 -1.9109141e-05 0 0)
(-0.47528221 -0.12569893 0 2.9551218e-05 0 0)
(-0.49550192 -0.12866572 0 -2.1961191e-05 0 0)
(-0.47710743 -0.12596 0 2.5676613e-05 0 0)
(-0.49444581 -0.12851533 0 -2.2688202e-05 0 0)
(-0.47826124 -0.12613114 0 2.1929581e-05 0 0)
(-0.4934329 -0.12836784 0 -2.0328125e-05 0 0)
(-0.47922322 -0.12627433 0 1.9158303e-05 0 0)
(-0.49252512 -0.12823544 0 -1.7933468e-05 0 0)
(-0.48006293 -0.12639921 0 1.683474e-05 0 0)
(-0.49172455 -0.12811856 0 -1.5790354e-05 0 0)
(-0.48080149 -0.12650891 0 1.4815846e-05 0 0)
(-0.49102025 -0.12801563 0 -1.3905505e-05 0 0)
(-0.48145219 -0.12660546 0 1.305031e-05 0 0)
(-0.49040056 -0.12792498 0 -1.2253958e-05 0 0)
(-0.48202597 -0.1266905 0 1.1505499e-05 0 0)
(-0.48985485 -0.1278451 0 -1.0808984e-05 0 0)
(-0.48253233 -0.12676547 0 1.0154881e-05 0 0)
(-0.48937378 -0.12777465 0 -9.5463852e-06 0 0)
(-0.48297967 -0.12683165 0 8.975595e-06 0 0)
(-0.48894908 -0.12771242 0 -8.4448852e-06 0 0)
(-0.48337544 -0.12689015 0 7.9477412e-06 0 0)
(-0.4885735 -0.12765737 0 -7.4859033e-06 0 0)
(-0.4837262 -0.12694194 0 7.0539862e-06 0 0)
(-0.48824061 -0.12760858 0 -6.6532642e-06 0 0)
(-0.48403782 -0.12698792 0 6.279266e-06 0 0)
(-0.48794474 -0.12756521 0 -5.9329318e-06 0 0)
(-0.48431549 -0.12702884 0 5.6105334e-06 0 0)
(-0.48768086 -0.12752654 0 -5.3127777e-06 0 0)
(-0.48456386 -0.12706541 0 5.0365443e-06 0 0)
(-0.48744446 -0.12749191 0 -4.7823844e-06 0 0)
(-0.48478709 -0.12709823 0 4.5476794e-06 0 0)
(-0.48723155 -0.12746074 0 -4.3328851e-06 0 0)
(-0.48498892 -0.12712786 0 4.1358032e-06 0 0)
(-0.48703849 -0.12743251 0 -3.9568435e-06 0 0)
(-0.48517273 -0.12715481 0 3.7941694e-06 0 0)
(-0.48686203 -0.12740673 0 -3.6481914e-06 0 0)
(-0.48534163 -0.12717952 0 3.5174024e-06 0 0)
(-0.48669915 -0.12738297 0 -3.4022731e-06 0 0)
(-0.48549846 -0.12720242 0 3.3016447e-06 0 0)
(-0.48654709 -0.12736084 0 -3.2161752e-06 0 0)
(-0.48564588 -0.12722389 0 3.1451145e-06 0 0)
(-0.48640321 -0.12733995 0 -3.0904274e-06 0 0)
(-0.48578643 -0.12724428 0 3.0510132e-06 0 0)
(-0.48626469 -0.12731989 0 -3.0210904e-06 0 0)
(-0.48592336 -0.12726369 0 3.2043122e-06 0 0)
(-0.48613798 -0.12730215 0 -3.1785903e-06 0 0)
(-0.29291182 -0.15938129 0 -0.047709141 0 0)
(-0.46142783 -0.12313465 0 8.9972528e-05 0 0)
(-0.44448483 -0.12182118 0 -0.00010386482 0 0)
(-0.46852741 -0.1251744 0 -1.6338603e-05 0 0)
(-0.44911197 -0.12217939 0 2.5896126e-05 0 0)
(-0.46773202 -0.12502004 0 -1.8076536e-05 0 0)
(-0.45082967 -0.12243006 0 2.2913124e-05 0 0)
(-0.46677486 -0.12487797 0 -1.9815276e-05 0 0)
(-0.45189279 -0.1225942 0 1.9352549e-05 0 0)
(-0.46584423 -0.12473685 0 -1.7864288e-05 0 0)
(-0.45277717 -0.12273141 0 1.6867024e-05 0 0)
(-0.46500908 -0.12461002 0 -1.5775503e-05 0 0)
(-0.45354888 -0.12285105 0 1.481493e-05 0 0)
(-0.4642725 -0.12449803 0 -1.3892878e-05 0 0)
(-0.45422765 -0.12295614 0 1.3037151e-05 0 0)
(-0.46362454 -0.12439942 0 -1.2235002e-05 0 0)
(-0.4548257 -0.12304863 0 1.1483347e-05 0 0)
(-0.46305445 -0.12431257 0 -1.0781968e-05 0 0)
(-0.45535307 -0.1231301 0 1.0123955e-05 0 0)
(-0.46255246 -0.12423604 0 -9.5106088e-06 0 0)
(-0.45581851 -0.12320193 0 8.9354793e-06 0 0)
(-0.46210995 -0.12416854 0 -8.3996974e-06 0 0)
(-0.45622971 -0.12326533 0 7.8977795e-06 0 0)
(-0.46171932 -0.12410891 0 -7.4305261e-06 0 0)
(-0.45659351 -0.12332137 0 6.9933384e-06 0 0)
(-0.46137388 -0.12405617 0 -6.5867509e-06 0 0)
(-0.45691594 -0.123371 0 6.2069032e-06 0 0)
(-0.46106773 -0.12400941 0 -5.8541433e-06 0 0)
(-0.4572024 -0.12341505 0 5.5252193e-06 0 0)
(-0.46079565 -0.12396785 0 -5.2203573e-06 0 0)
(-0.45745765 -0.12345427 0 4.9368087e-06 0 0)
(-0.46055299 -0.12393079 0 -4.674727e-06 0 0)
(-0.45768595 -0.12348932 0 4.4317827e-06 0 0)
(-0.46033563 -0.1238976 0 -4.2080943e-06 0 0)
(-0.45789115 -0.12352078 0 4.001686e-06 0 0)
(-0.46013987 -0.12386772 0 -3.8126704e-06 0 0)
(-0.45807666 -0.12354919 0 3.6393755e-06 0 0)
(-0.45996239 -0.12384065 0 -3.4819339e-06 0 0)
(-0.4582456 -0.12357503 0 3.3389429e-06 0 0)
(-0.45980017 -0.12381592 0 -3.2105836e-06 0 0)
(-0.45840082 -0.12359874 0 3.0957097e-06 0 0)
(-0.45965047 -0.12379314 0 -2.9945959e-06 0 0)
(-0.45854494 -0.1236207 0 2.9063863e-06 0 0)
(-0.45951072 -0.12377189 0 -2.8315636e-06 0 0)
(-0.4586804 -0.1236413 0 2.769623e-06 0 0)
(-0.45937851 -0.12375184 0 -2.7224656e-06 0 0)
(-0.45880954 -0.12366089 0 2.6887398e-06 0 0)
(-0.45925121 -0.12373257 0 -2.6625127e-06 0 0)
(-0.45893508 -0.12367946 0 2.866405e-06 0 0)
(-0.45913192 -0.12371524 0 -2.8730255e-06 0 0)
(-0.28039666 -0.15171238 0 -0.043453747 0 0)
(-0.42980026 -0.11867525 0 0.00019185501 0 0)
(-0.41880403 -0.11825987 0 -0.00010379603 0 0)
(-0.44133099 -0.12151615 0 -1.3512779e-05 0 0)
(-0.42363483 -0.11865703 0 2.2431638e-05 0 0)
(-0.44078779 -0.12137606 0 -1.4666939e-05 0 0)
(-0.4252666 -0.11889844 0 2.0483254e-05 0 0)
(-0.43992597 -0.12124214 0 -1.7281516e-05 0 0)
(-0.42624727 -0.11905585 0 1.707879e-05 0 0)
(-0.43907171 -0.12110718 0 -1.568988e-05 0 0)
(-0.42706012 -0.11918725 0 1.4844912e-05 0 0)
(-0.43830373 -0.12098576 0 -1.3871051e-05 0 0)
(-0.4277691 -0.11930179 0 1.3032369e-05 0 0)
(-0.4376263 -0.12087854 0 -1.2218313e-05 0 0)
(-0.42839267 -0.1194024 0 1.1467372e-05 0 0)
(-0.43703041 -0.12078411 0 -1.0760735e-05 0 0)
(-0.42894213 -0.11949095 0 1.0100422e-05 0 0)
(-0.43650616 -0.12070096 0 -9.4828806e-06 0 0)
(-0.42942668 -0.11956895 0 8.9046596e-06 0 0)
(-0.43604457 -0.12062768 0 -8.3647288e-06 0 0)
(-0.42985433 -0.11963773 0 7.8592717e-06 0 0)
(-0.43563769 -0.12056304 0 -7.3876723e-06 0 0)
(-0.43023217 -0.11969844 0 6.9465158e-06 0 0)
(-0.43527853 -0.12050594 0 -6.5352705e-06 0 0)
(-0.43056646 -0.1197521 0 6.1509782e-06 0 0)
(-0.43496095 -0.12045543 0 -5.7931527e-06 0 0)
(-0.43086275 -0.11979962 0 5.4592413e-06 0 0)
(-0.4346795 -0.12041065 0 -5.1488076e-06 0 0)
(-0.43112597 -0.11984181 0 4.8596468e-06 0 0)
(-0.43442938 -0.12037085 0 -4.5913798e-06 0 0)
(-0.43136052 -0.11987937 0 4.3421004e-06 0 0)
(-0.43420632 -0.12033535 0 -4.1114924e-06 0 0)
(-0.43157031 -0.11991294 0 3.8979078e-06 0 0)
(-0.43400654 -0.12030356 0 -3.7010966e-06 0 0)
(-0.43175886 -0.11994308 0 3.5196379e-06 0 0)
(-0.43382662 -0.12027493 0 -3.3533515e-06 0 0)
(-0.43192931 -0.1199703 0 3.2010192e-06 0 0)
(-0.43366351 -0.12024899 0 -3.0625365e-06 0 0)
(-0.43208454 -0.11999506 0 2.9368746e-06 0 0)
(-0.43351445 -0.1202253 0 -2.8240168e-06 0 0)
(-0.43222714 -0.12001778 0 2.723126e-06 0 0)
(-0.4333769 -0.12020345 0 -2.6343054e-06 0 0)
(-0.43235953 -0.12003884 0 2.5569545e-06 0 0)
(-0.43324851 -0.12018308 0 -2.4913953e-06 0 0)
(-0.43248396 -0.1200586 0 2.43732e-06 0 0)
(-0.43312707 -0.12016384 0 -2.3965352e-06 0 0)
(-0.43260257 -0.12007739 0 2.3673987e-06 0 0)
(-0.43301012 -0.12014534 0 -2.3439439e-06 0 0)
(-0.43271765 -0.12009517 0 2.5608774e-06 0 0)
(-0.43289812 -0.12012845 0 -2.5954264e-06 0 0)
(-0.26847626 -0.14433349 0 -0.039381467 0 0)
(-0.39983799 -0.11430677 0 0.00030614465 0 0)
(-0.39370178 -0.11467242 0 -9.7290496e-05 0 0)
(-0.41501693 -0.11785901 0 -9.8876349e-06 0 0)
(-0.39886657 -0.11513212 0 1.9241035e-05 0 0)
(-0.41466588 -0.11773361 0 -1.1571735e-05 0 0)
(-0.40042378 -0.11536529 0 1.8260139e-05 0 0)
(-0.41389431 -0.11760769 0 -1.496626e-05 0 0)
(-0.40132926 -0.11551621 0 1.4995152e-05 0 0)
(-0.41311108 -0.11747873 0 -1.3699165e-05 0 0)
(-0.40207611 -0.11564196 0 1.2992663e-05 0 0)
(-0.41240533 -0.11736256 0 -1.2127071e-05 0 0)
(-0.4027271 -0.11575154 0 1.139971e-05 0 0)
(-0.41178269 -0.11725997 0 -1.0684773e-05 0 0)
(-0.40329967 -0.1158478 0 1.0029624e-05 0 0)
(-0.411235 -0.11716962 0 -9.410598e-06 0 0)
(-0.4038042 -0.11593251 0 8.8338135e-06 0 0)
(-0.41075319 -0.11709006 0 -8.2931558e-06 0 0)
(-0.40424915 -0.11600714 0 7.7879137e-06 0 0)
(-0.41032899 -0.11701994 0 -7.3152966e-06 0 0)
(-0.40464187 -0.11607294 0 6.8735715e-06 0 0)
(-0.40995509 -0.11695808 0 -6.4608109e-06 0 0)
(-0.40498886 -0.11613103 0 6.0752411e-06 0 0)
(-0.40962507 -0.11690345 0 -5.7153332e-06 0 0)
(-0.40529586 -0.11618237 0 5.3794355e-06 0 0)
(-0.40933326 -0.11685512 0 -5.0662993e-06 0 0)
(-0.40556796 -0.11622785 0 4.7744176e-06 0 0)
(-0.40907466 -0.11681227 0 -4.5027694e-06 0 0)
(-0.40580971 -0.11626822 0 4.2499909e-06 0 0)
(-0.40884487 -0.11677417 0 -4.0152524e-06 0 0)
(-0.40602512 -0.11630417 0 3.7973275e-06 0 0)
(-0.40863995 -0.1167402 0 -3.5955505e-06 0 0)
(-0.40621779 -0.1163363 0 3.4088255e-06 0 0)
(-0.40845641 -0.11670976 0 -3.2366288e-06 0 0)
(-0.40639094 -0.11636515 0 3.07799e-06 0 0)
(-0.40829115 -0.11668236 0 -2.9325111e-06 0 0)
(-0.40654747 -0.11639121 0 2.7993437e-06 0 0)
(-0.40814133 -0.11665752 0 -2.6782059e-06 0 0)
(-0.40669002 -0.11641492 0 2.568373e-06 0 0)
(-0.40800443 -0.11663482 0 -2.4696794e-06 0 0)
(-0.40682096 -0.11643668 0 2.381538e-06 0 0)
(-0.40787812 -0.1166139 0 -2.3039196e-06 0 0)
(-0.40694251 -0.11645686 0 2.2364267e-06 0 0)
(-0.40776023 -0.11659438 0 -2.1792499e-06 0 0)
(-0.40705674 -0.1164758 0 2.1322279e-06 0 0)
(-0.40764874 -0.11657594 0 -2.0970644e-06 0 0)
(-0.40716562 -0.11649381 0 2.0718111e-06 0 0)
(-0.40754137 -0.11655819 0 -2.0505345e-06 0 0)
(-0.40727106 -0.11651082 0 2.2743072e-06 0 0)
(-0.40743648 -0.11654175 0 -2.3341404e-06 0 0)
(-0.25713201 -0.13723167 0 -0.035484222 0 0)
(-0.37151325 -0.11002879 0 0.00043053218 0 0)
(-0.36919337 -0.1110616 0 -8.5550221e-05 0 0)
(-0.38959436 -0.11420403 0 -5.2545614e-06 0 0)
(-0.37482103 -0.11160496 0 1.6530159e-05 0 0)
(-0.38936408 -0.11409274 0 -8.7102018e-06 0 0)
(-0.37630616 -0.11183064 0 1.619918e-05 0 0)
(-0.38867599 -0.11397459 0 -1.2822597e-05 0 0)
(-0.3771426 -0.11197529 0 1.3058148e-05 0 0)
(-0.38795884 -0.11385146 0 -1.1851625e-05 0 0)
(-0.37782849 -0.11209555 0 1.1272204e-05 0 0)
(-0.38731082 -0.11374041 0 -1.0507853e-05 0 0)
(-0.37842584 -0.11220031 0 9.883486e-06 0 0)
(-0.38673895 -0.11364232 0 -9.2608227e-06 0 0)
(-0.37895118 -0.11229233 0 8.69445e-06 0 0)
(-0.38623595 -0.11355593 0 -8.1569135e-06 0 0)
(-0.37941413 -0.11237332 0 7.6575731e-06 0 0)
(-0.38579347 -0.11347986 0 -7.1884055e-06 0 0)
(-0.37982243 -0.11244467 0 6.75084e-06 0 0)
(-0.38540392 -0.11341281 0 -6.340802e-06 0 0)
(-0.38018282 -0.11250758 0 5.9581865e-06 0 0)
(-0.38506058 -0.11335367 0 -5.6001175e-06 0 0)
(-0.38050125 -0.11256311 0 5.2661081e-06 0 0)
(-0.38475755 -0.11330143 0 -4.9539122e-06 0 0)
(-0.38078298 -0.11261221 0 4.6629071e-06 0 0)
(-0.38448961 -0.11325522 0 -4.3912985e-06 0 0)
(-0.38103271 -0.11265569 0 4.1384073e-06 0 0)
(-0.38425219 -0.11321424 0 -3.9027955e-06 0 0)
(-0.38125456 -0.11269429 0 3.6837686e-06 0 0)
(-0.38404122 -0.11317781 0 -3.4801775e-06 0 0)
(-0.38145225 -0.11272867 0 3.291339e-06 0 0)
(-0.3838531 -0.11314531 0 -3.1163404e-06 0 0)
(-0.38162907 -0.1127594 0 2.9545295e-06 0 0)
(-0.38368462 -0.1131162 0 -2.8051893e-06 0 0)
(-0.38178798 -0.112787 0 2.6677129e-06 0 0)
(-0.38353292 -0.11308999 0 -2.5415483e-06 0 0)
(-0.38193163 -0.11281193 0 2.426146e-06 0 0)
(-0.38339542 -0.11306622 0 -2.3210981e-06 0 0)
(-0.38206243 -0.11283462 0 2.225926e-06 0 0)
(-0.38326978 -0.11304451 0 -2.1403559e-06 0 0)
(-0.38218258 -0.11285544 0 2.0640023e-06 0 0)
(-0.38315386 -0.11302447 0 -1.9967363e-06 0 0)
(-0.3822941 -0.11287476 0 1.9383203e-06 0 0)
(-0.3830457 -0.11300579 0 -1.8888384e-06 0 0)
(-0.3823989 -0.11289289 0 1.8482354e-06 0 0)
(-0.38294341 -0.11298812 0 -1.8181033e-06 0 0)
(-0.38249877 -0.11291015 0 1.7961954e-06 0 0)
(-0.38284492 -0.11297112 0 -1.7766271e-06 0 0)
(-0.3825953 -0.11292643 0 2.0019e-06 0 0)
(-0.38274693 -0.11295515 0 -2.0853885e-06 0 0)
(-0.24631273 -0.13039101 0 -0.031759717 0 0)
(-0.34479306 -0.1058399 0 0.00056352611 0 0)
(-0.34535741 -0.10743404 0 -6.9225955e-05 0 0)
(-0.36501981 -0.11054866 0 1.1503109e-07 0 0)
(-0.35150529 -0.10807584 0 1.4467936e-05 0 0)
(-0.36487817 -0.11045341 0 -6.0454869e-06 0 0)
(-0.35291801 -0.10829451 0 1.4290304e-05 0 0)
(-0.36426739 -0.11034282 0 -1.0835619e-05 0 0)
(-0.35369083 -0.10843311 0 1.1254799e-05 0 0)
(-0.36361175 -0.11022536 0 -1.0135225e-05 0 0)
(-0.35432034 -0.10854804 0 9.6721766e-06 0 0)
(-0.36301735 -0.11011928 0 -9.0027628e-06 0 0)
(-0.35486799 -0.10864811 0 8.4737424e-06 0 0)
(-0.36249261 -0.11002557 0 -7.9370908e-06 0 0)
(-0.3553496 -0.10873602 0 7.4530939e-06 0 0)
(-0.36203106 -0.10994304 0 -6.9914304e-06 0 0)
(-0.35577401 -0.10881338 0 6.5639879e-06 0 0)
(-0.36162508 -0.10987035 0 -6.1613616e-06 0 0)
(-0.35614834 -0.10888154 0 5.7866383e-06 0 0)
(-0.36126768 -0.1098063 0 -5.434837e-06 0 0)
(-0.35647876 -0.10894164 0 5.1071154e-06 0 0)
(-0.36095269 -0.1097498 0 -4.7999355e-06 0 0)
(-0.35677072 -0.1089947 0 4.5138136e-06 0 0)
(-0.3606747 -0.10969989 0 -4.2460066e-06 0 0)
(-0.35702904 -0.1090416 0 3.996699e-06 0 0)
(-0.36042891 -0.10965572 0 -3.7637207e-06 0 0)
(-0.35725801 -0.10908315 0 3.5470462e-06 0 0)
(-0.36021113 -0.10961657 0 -3.3449523e-06 0 0)
(-0.35746144 -0.10912003 0 3.1572765e-06 0 0)
(-0.36001762 -0.10958176 0 -2.9826517e-06 0 0)
(-0.3576427 -0.10915288 0 2.8208299e-06 0 0)
(-0.35984508 -0.1095507 0 -2.6707304e-06 0 0)
(-0.35780483 -0.10918225 0 2.5320584e-06 0 0)
(-0.35969056 -0.10952288 0 -2.4039655e-06 0 0)
(-0.35795052 -0.10920862 0 2.2861394e-06 0 0)
(-0.35955144 -0.10949782 0 -2.177923e-06 0 0)
(-0.35808223 -0.10923246 0 2.07901e-06 0 0)
(-0.35942535 -0.1094751 0 -1.988905e-06 0 0)
(-0.35820215 -0.10925415 0 1.90733e-06 0 0)
(-0.35931014 -0.10945434 0 -1.8339342e-06 0 0)
(-0.35831229 -0.10927406 0 1.7684953e-06 0 0)
(-0.35920387 -0.10943518 0 -1.7108098e-06 0 0)
(-0.35841452 -0.10929254 0 1.6607659e-06 0 0)
(-0.35910471 -0.1094173 0 -1.6183606e-06 0 0)
(-0.35851057 -0.10930989 0 1.5836137e-06 0 0)
(-0.35901096 -0.1094004 0 -1.5579948e-06 0 0)
(-0.3586021 -0.10932641 0 1.5389871e-06 0 0)
(-0.3589207 -0.10938412 0 -1.5207324e-06 0 0)
(-0.3586904 -0.10934198 0 1.7428887e-06 0 0)
(-0.35882939 -0.10936863 0 -1.8487876e-06 0 0)
(-0.23596715 -0.12379776 0 -0.02820531 0 0)
(-0.31963609 -0.1017381 0 0.00070431996 0 0)
(-0.322282 -0.10379669 0 -4.8790253e-05 0 0)
(-0.34124756 -0.10689048 0 5.8297388e-06 0 0)
(-0.32892143 -0.10454489 0 1.3105559e-05 0 0)
(-0.34120338 -0.10681555 0 -3.5617774e-06 0 0)
(-0.33026281 -0.10475694 0 1.252374e-05 0 0)
(-0.34066516 -0.10671234 0 -8.9946974e-06 0 0)
(-0.33097708 -0.10488972 0 9.5757658e-06 0 0)
(-0.34006691 -0.1066004 0 -8.5414054e-06 0 0)
(-0.33155441 -0.10499946 0 8.1844362e-06 0 0)
(-0.33952237 -0.10649915 0 -7.6042203e-06 0 0)
(-0.33205599 -0.10509498 0 7.163353e-06 0 0)
(-0.33904142 -0.10640969 0 -6.7068899e-06 0 0)
(-0.33249702 -0.10517888 0 6.2992909e-06 0 0)
(-0.3386184 -0.10633091 0 -5.9082591e-06 0 0)
(-0.33288568 -0.10525273 0 5.5475416e-06 0 0)
(-0.33824631 -0.10626153 0 -5.2068362e-06 0 0)
(-0.3332285 -0.10531778 0 4.8904468e-06 0 0)
(-0.33791877 -0.10620038 0 -4.5928278e-06 0 0)
(-0.33353111 -0.10537515 0 4.3160688e-06 0 0)
(-0.33763012 -0.10614644 0 -4.056228e-06 0 0)
(-0.3337985 -0.10542579 0 3.8145685e-06 0 0)
(-0.33737538 -0.10609879 0 -3.5880482e-06 0 0)
(-0.3340351 -0.10547057 0 3.3774587e-06 0 0)
(-0.33715016 -0.10605663 0 -3.1804063e-06 0 0)
(-0.33424481 -0.10551023 0 2.9973625e-06 0 0)
(-0.33695062 -0.10601925 0 -2.8264361e-06 0 0)
(-0.33443113 -0.10554545 0 2.6678731e-06 0 0)
(-0.33677332 -0.10598601 0 -2.5201795e-06 0 0)
(-0.33459715 -0.10557681 0 2.383445e-06 0 0)
(-0.33661524 -0.10595636 0 -2.2564915e-06 0 0)
(-0.33474564 -0.10560485 0 2.1393041e-06 0 0)
(-0.33647368 -0.10592979 0 -2.0309582e-06 0 0)
(-0.33487908 -0.10563004 0 1.9313742e-06 0 0)
(-0.33634624 -0.10590585 0 -1.8398331e-06 0 0)
(-0.3349997 -0.1056528 0 1.7562222e-06 0 0)
(-0.33623074 -0.10588415 0 -1.6799928e-06 0 0)
(-0.33510952 -0.10567352 0 1.6110271e-06 0 0)
(-0.33612523 -0.10586431 0 -1.5489246e-06 0 0)
(-0.33521039 -0.10569255 0 1.4935924e-06 0 0)
(-0.3360279 -0.10584601 0 -1.4447746e-06 0 0)
(-0.33530399 -0.10571021 0 1.4024563e-06 0 0)
(-0.3359371 -0.10582892 0 -1.3665643e-06 0 0)
(-0.33539193 -0.10572679 0 1.3371678e-06 0 0)
(-0.33585127 -0.10581276 0 -1.3156069e-06 0 0)
(-0.33547572 -0.10574259 0 1.2991341e-06 0 0)
(-0.33576865 -0.10579718 0 -1.2818793e-06 0 0)
(-0.33555639 -0.10575748 0 1.4969762e-06 0 0)
(-0.33568376 -0.10578219 0 -1.6242666e-06 0 0)
(-0.22604616 -0.11744006 0 -0.024817537 0 0)
(-0.29599269 -0.097720369 0 0.00085281564 0 0)
(-0.30002456 -0.10015463 0 -2.5179383e-05 0 0)
(-0.31825798 -0.1032293 0 1.1595559e-05 0 0)
(-0.30707039 -0.10101215 0 1.2384353e-05 0 0)
(-0.31833585 -0.10317911 0 -1.2566636e-06 0 0)
(-0.30834356 -0.10121798 0 1.0883721e-05 0 0)
(-0.31786638 -0.1030831 0 -7.2889398e-06 0 0)
(-0.3090041 -0.10134514 0 8.0106172e-06 0 0)
(-0.31732177 -0.10297653 0 -7.0607146e-06 0 0)
(-0.30953312 -0.10144985 0 6.7999642e-06 0 0)
(-0.31682365 -0.10287998 0 -6.3038478e-06 0 0)
(-0.30999195 -0.10154094 0 5.9444256e-06 0 0)
(-0.31638344 -0.10279466 0 -5.5628284e-06 0 0)
(-0.3103953 -0.10162095 0 5.2261039e-06 0 0)
(-0.31599624 -0.10271952 0 -4.9008886e-06 0 0)
(-0.31075076 -0.10169137 0 4.6021262e-06 0 0)
(-0.31565567 -0.10265335 0 -4.3190923e-06 0 0)
(-0.31106431 -0.10175341 0 4.0568818e-06 0 0)
(-0.31535589 -0.10259503 0 -3.8097157e-06 0 0)
(-0.31134109 -0.10180812 0 3.5802967e-06 0 0)
(-0.31509172 -0.10254358 0 -3.3645292e-06 0 0)
(-0.31158568 -0.10185642 0 3.1641764e-06 0 0)
(-0.31485859 -0.10249813 0 -2.976089e-06 0 0)
(-0.31180209 -0.10189913 0 2.8014729e-06 0 0)
(-0.3146525 -0.10245792 0 -2.6378586e-06 0 0)
(-0.31199392 -0.10193696 0 2.4860633e-06 0 0)
(-0.3144699 -0.10242226 0 -2.344142e-06 0 0)
(-0.31216435 -0.10197055 0 2.2126306e-06 0 0)
(-0.31430766 -0.10239055 0 -2.0899964e-06 0 0)
(-0.31231621 -0.10200047 0 1.9765727e-06 0 0)
(-0.31416303 -0.10236226 0 -1.8711529e-06 0 0)
(-0.31245204 -0.10202722 0 1.7739274e-06 0 0)
(-0.31403351 -0.10233691 0 -1.6839493e-06 0 0)
(-0.31257409 -0.10205125 0 1.6013119e-06 0 0)
(-0.31391692 -0.10231408 0 -1.5252767e-06 0 0)
(-0.31268442 -0.10207297 0 1.4558766e-06 0 0)
(-0.31381127 -0.10229337 0 -1.3925436e-06 0 0)
(-0.31278486 -0.10209275 0 1.3352805e-06 0 0)
(-0.31371475 -0.10227443 0 -1.2836647e-06 0 0)
(-0.3128771 -0.10211091 0 1.2377005e-06 0 0)
(-0.31362574 -0.10225695 0 -1.1971012e-06 0 0)
(-0.3129627 -0.10212777 0 1.1619217e-06 0 0)
(-0.31354271 -0.10224063 0 -1.1320362e-06 0 0)
(-0.3130431 -0.10214361 0 1.1075407e-06 0 0)
(-0.31346423 -0.1022252 0 -1.0896422e-06 0 0)
(-0.31311969 -0.10215871 0 1.0754104e-06 0 0)
(-0.31338871 -0.10221032 0 -1.0589184e-06 0 0)
(-0.31319331 -0.10217294 0 1.2636331e-06 0 0)
(-0.31330998 -0.10219582 0 -1.4114908e-06 0 0)
(-0.21649774 -0.11130712 0 -0.021593623 0 0)
(-0.27379499 -0.093781584 0 0.0010090461 0 0)
(-0.27861919 -0.096513419 0 -1.7176988e-07 0 0)
(-0.29605069 -0.09956587 0 1.7329075e-05 0 0)
(-0.28595383 -0.097477558 0 1.2244232e-05 0 0)
(-0.29627267 -0.09954406 0 8.8663924e-07 0 0)
(-0.28716297 -0.097677672 0 9.3573966e-06 0 0)
(-0.29586851 -0.099455063 0 -5.7073553e-06 0 0)
(-0.28777428 -0.097799412 0 6.5494265e-06 0 0)
(-0.29537411 -0.099353725 0 -5.6841006e-06 0 0)
(-0.28825857 -0.097899234 0 5.5100968e-06 0 0)
(-0.29491925 -0.099261744 0 -5.0936177e-06 0 0)
(-0.2886777 -0.097986024 0 4.809386e-06 0 0)
(-0.29451696 -0.099180451 0 -4.4978171e-06 0 0)
(-0.28904605 -0.098062251 0 4.2268775e-06 0 0)
(-0.29416308 -0.099108854 0 -3.9630723e-06 0 0)
(-0.28937067 -0.098129343 0 3.7218817e-06 0 0)
(-0.29385184 -0.099045798 0 -3.4926258e-06 0 0)
(-0.28965702 -0.098188453 0 3.2807783e-06 0 0)
(-0.29357789 -0.098990227 0 -3.0806468e-06 0 0)
(-0.28990981 -0.098240578 0 2.8952416e-06 0 0)
(-0.29333648 -0.098941203 0 -2.7205539e-06 0 0)
(-0.29013319 -0.098286599 0 2.5586108e-06 0 0)
(-0.29312346 -0.098897896 0 -2.4063401e-06 0 0)
(-0.29033084 -0.09832729 0 2.2651778e-06 0 0)
(-0.29293515 -0.098859575 0 -2.1327209e-06 0 0)
(-0.29050605 -0.098363336 0 2.0099877e-06 0 0)
(-0.29276831 -0.098825594 0 -1.8950895e-06 0 0)
(-0.29066171 -0.098395346 0 1.7887381e-06 0 0)