/*--------------------------------*- C++ -*----------------------------------*\
| =========                 |                                                 |
| \\      /  F ield         | OpenFOAM: The Open Source CFD Toolbox           |
|  \\    /   O peration     | Version:  2312                                  |
|   \\  /    A nd           | Website:  www.openfoam.com                      |
|    \\/     M anipulation  |                                                 |
\*---------------------------------------------------------------------------*/
FoamFile
{
    version     2.0;
    format      ascii;
    arch        "LSB;label=32;scalar=64";
    class       volScalarField;
    location    "8";
    object      T;
}
// * * * * * * * * * * * * * * * * * * * * * * * * * * * * * * * * * * * * * //

dimensions      [0 0 0 1 0 0 0];

internalField   nonuniform List<scalar> 
4000
(
329.27847
328.41688
328.29778
328.22265
328.16723
328.11349
328.06879
328.02198
327.98145
327.93807
327.89969
327.85835
327.82124
327.78125
327.74496
327.70592
327.67021
327.63187
327.59657
327.55877
327.52379
327.4864
327.45167
327.41461
327.38009
327.3433
327.30894
327.27237
327.23816
327.20176
327.16769
327.13142
327.09748
327.06131
327.02749
326.9914
326.95769
326.92166
326.88807
326.85207
326.8186
326.7826
326.74927
326.71325
326.68007
326.64397
326.61101
326.57473
326.54217
326.50508
331.02172
329.28368
328.99605
328.83876
328.74049
328.64729
328.58112
328.50869
328.45505
328.39291
328.34572
328.28968
328.24631
328.19431
328.15342
328.10426
328.06508
328.01803
327.9801
327.93466
327.89768
327.85349
327.81726
327.77407
327.73845
327.69605
327.66095
327.61919
327.58454
327.5433
327.50905
327.46821
327.43434
327.39382
327.36031
327.32002
327.28685
327.24673
327.21392
327.17388
327.14144
327.10142
327.06937
327.02928
326.99771
326.95738
326.92645
326.8856
326.85587
326.81262
332.28238
330.13842
329.69169
329.45342
329.31256
329.1802
329.09259
328.9947
328.92794
328.84714
328.79111
328.72046
328.6708
328.60685
328.56132
328.50211
328.45943
328.40372
328.36313
328.31009
328.27109
328.22013
328.18238
328.13307
328.09635
328.04836
328.0125
327.96558
327.93047
327.8844
327.84997
327.80457
327.77077
327.7259
327.69269
327.64821
327.61558
327.57137
327.53933
327.49528
327.46385
327.41981
327.38905
327.34489
327.31492
327.27038
327.24148
327.19605
327.16914
327.11991
333.22795
330.96809
330.38077
330.06453
329.8819
329.71109
329.60219
329.4792
329.39934
329.30011
329.23523
329.15014
329.09415
329.01839
328.96817
328.89901
328.8528
328.78851
328.74523
328.68466
328.6436
328.58594
328.54664
328.49127
328.45341
328.39988
328.36324
328.31119
328.27561
328.22474
328.19011
328.14018
328.10643
328.05723
328.02431
327.97567
327.94356
327.89529
327.86401
327.81595
327.78552
327.7375
327.70801
327.65979
327.63142
327.58268
327.55578
327.50581
327.48168
327.42672
333.95774
331.75967
331.05795
330.66914
330.44639
330.2384
330.1086
329.96113
329.86826
329.75101
329.67728
329.57802
329.51568
329.42832
329.37339
329.29444
329.24466
329.17193
329.12591
329.05792
329.01477
328.95049
328.90961
328.84826
328.80924
328.75023
328.71278
328.65566
328.61958
328.56397
328.52911
328.4747
328.44097
328.3875
328.35485
328.30207
328.27047
328.21817
328.18763
328.1356
328.10615
328.05416
328.02593
327.97369
327.94688
327.89398
327.86906
327.8146
327.79317
327.7328
334.53354
332.50191
331.717
331.26362
331.00344
330.76018
330.61018
330.43915
330.33353
330.1988
330.11632
330.00327
329.93461
329.83593
329.77628
329.68777
329.6344
329.5534
329.50462
329.42937
329.3841
329.31332
329.27083
329.2036
329.16339
329.099
329.06071
328.9986
328.96198
328.9017
328.86659
328.80776
328.77404
328.71633
328.68393
328.62707
328.59595
328.53967
328.50984
328.45388
328.42541
328.36949
328.34249
328.28627
328.261
328.20398
328.18101
328.12212
328.10327
328.03787
334.9956
333.18613
332.35128
331.84379
331.55006
331.27419
331.10508
330.91173
330.79379
330.64233
330.55127
330.42496
330.35005
330.24044
330.17609
330.07831
330.02134
329.93232
329.88076
329.79843
329.75102
329.67391
329.62978
329.55681
329.51538
329.44572
329.40656
329.33956
329.3024
329.23753
329.20215
329.13897
329.10523
329.04337
329.01119
328.95031
328.91965
328.85944
328.83031
328.77048
328.74294
328.68315
328.65735
328.59721
328.57344
328.51237
328.49128
328.42807
328.41167
328.34162
335.37124
333.80651
332.95433
332.40522
332.08297
331.77789
331.59122
331.37714
331.24751
331.08028
330.98096
330.84203
330.76102
330.64094
330.57197
330.46528
330.40476
330.30799
330.25367
330.1645
330.11494
330.03169
329.98592
329.90737
329.8647
329.78991
329.74988
329.67811
329.64037
329.57102
329.53535
329.46792
329.43414
329.3682
329.33623
329.27141
329.24118
329.17712
329.14866
329.08502
329.05839
328.99481
328.97017
328.90619
328.88387
328.81884
328.79956
328.73215
328.71801
328.64373
335.67973
334.36016
333.52032
332.9434
332.59876
332.26861
332.06636
331.83352
331.69308
331.51125
331.40409
331.25333
331.16646
331.03649
330.96303
330.84787
330.78386
330.67969
330.62265
330.52691
330.47523
330.38607
330.33866
330.25473
330.21083
330.13108
330.09015
330.01376
329.97544
329.90174
329.86575
329.79418
329.76035
329.69044
329.65865
329.58998
329.56017
329.49234
329.46452
329.39717
329.37141
329.30411
329.2806
329.21286
329.19195
329.12305
329.1055
329.03406
329.02198
328.94384
335.93516
334.8468
334.04448
333.45409
333.094
332.74358
332.52821
332.27891
332.12878
331.93372
331.81933
331.65766
331.56525
331.42606
331.34832
331.22519
331.15781
331.04665
330.98696
330.88498
330.83122
330.73643
330.6874
330.59831
330.55319
330.46867
330.42686
330.34601
330.30711
330.22919
330.19289
330.11732
330.08342
330.00965
329.97803
329.90562
329.8762
329.80472
329.77751
329.70653
329.68162
329.61071
329.58828
329.51689
329.49731
329.42469
329.40876
329.33347
329.32323
329.24162
336.1481
335.26842
334.52336
333.9335
333.56546
333.20008
332.97444
332.71133
332.55286
332.34616
332.22526
332.05374
331.95625
331.8086
331.72684
331.59633
331.52576
331.40807
331.34584
331.23799
331.18223
331.0821
331.03151
330.93752
330.89121
330.80214
330.75947
330.67435
330.63487
330.55292
330.5163
330.43687
330.4029
330.32542
330.29394
330.21792
330.18888
330.11385
330.08724
330.01275
329.98865
329.91424
329.89284
329.81792
329.79962
329.72341
329.70899
329.63006
329.62143
329.53671
336.32675
335.62882
334.95497
334.37853
334.01021
333.63552
333.40281
333.12879
332.96358
332.74699
332.62049
332.4403
332.33827
332.18301
332.09759
331.96034
331.88683
331.7631
331.6985
331.5852
331.52754
331.42242
331.37035
331.27175
331.2243
331.13092
331.08743
330.99826
330.95822
330.87242
330.8355
330.75238
330.71833
330.63729
330.60596
330.52647
330.49778
330.41935
330.3933
330.31544
330.29211
330.21433
330.19392
330.11562
330.09851
330.01888
330.00585
329.92352
329.91626
329.82875
336.47755
335.9331
335.3388
334.78696
334.42578
334.04757
333.81121
333.52941
333.35924
333.13469
333.00361
332.81606
332.71013
332.54822
332.45955
332.31629
332.24011
332.11092
332.04416
331.92585
331.86645
331.75671
331.70326
331.60036
331.55186
331.45445
331.41018
331.31719
331.27664
331.18719
331.14999
331.06337
331.02926
330.94482
330.91364
330.83084
330.8025
330.72081
330.6953
330.61422
330.59163
330.51064
330.49115
330.40963
330.39363
330.31076
330.299
330.2135
330.2074
330.11741
336.60562
336.1872
335.67573
335.15749
334.8103
334.43425
334.1978
333.91144
333.73825
333.50778
333.37328
333.17978
333.07069
332.90314
332.81173
332.66323
332.58473
332.45069
332.38201
332.2592
332.19823
332.08429
332.0296
331.92275
331.87329
331.77214
331.72717
331.63061
331.5896
331.49674
331.4593
331.36937
331.33522
331.24758
331.21656
331.13061
331.10261
331.01784
330.99285
330.90871
330.88682
330.80277
330.78415
330.69959
330.68462
330.59873
330.58808
330.49969
330.49453
330.40232
336.71512
336.39744
335.96783
335.48977
335.16253
334.79401
334.56097
334.27335
334.09918
333.8649
333.72826
333.53027
333.41884
333.24674
333.15315
333.00025
332.91983
332.7816
332.71128
332.5845
332.52219
332.40448
332.34871
332.23828
332.18798
332.08341
332.03784
331.938
331.89659
331.80056
331.76292
331.66992
331.63576
331.54512
331.51426
331.42537
331.39771
331.31003
331.28555
331.19853
331.17729
331.09038
331.07258
330.98516
330.97113
330.88243
330.87277
330.78174
330.77734
330.68316
336.80939
336.57015
336.21812
335.7844
335.48193
335.12577
334.89952
334.61384
334.44076
334.20485
334.06738
333.86642
333.75356
333.57803
333.4829
333.32645
333.24458
333.10284
333.03123
332.90103
332.83763
332.71663
332.65996
332.54635
332.49536
332.38772
332.34164
332.23883
332.1971
332.09817
332.06039
331.96455
331.93042
331.837
331.80633
331.7147
331.68738
331.59699
331.573
331.48329
331.46269
331.37311
331.35606
331.266
331.25281
331.16153
331.15273
331.05934
331.05552
330.9596
336.89116
336.71141
336.4303
336.04278
335.76862
335.42898
335.2126
334.93191
334.76199
334.52656
334.38964
334.18727
334.07392
333.89612
333.80011
333.64103
333.55819
333.41366
333.34113
333.20812
333.1439
333.02009
332.96275
332.84637
332.79486
332.6845
332.63806
332.53258
332.49063
332.38908
332.35123
332.25282
332.21877
332.12279
332.09234
331.99819
331.97123
331.87834
331.85483
331.76264
331.74263
331.65059
331.63424
331.54176
331.52934
331.43572
331.42765
331.33215
331.32878
331.23132
336.9626
336.82677
336.6085
336.26702
336.0234
335.70361
335.49979
335.2269
335.06209
334.82921
334.69421
334.49196
334.37909
334.2002
334.10402
333.94323
333.85994
333.71337
333.64033
333.50509
333.44038
333.31427
333.2565
333.13779
333.08595
332.97324
332.92658
332.81876
332.77671
332.67284
332.635
332.53428
332.50036
332.40209
332.37189
332.27546
332.24886
332.15369
332.13066
332.03621
332.01677
331.9225
331.90679
331.81211
331.80037
331.70466
331.6972
331.59987
331.59682
331.49801
337.02551
336.92119
336.75699
336.45973
336.24762
335.95012
335.76107
335.49845
335.34057
335.11219
334.98044
334.77979
334.66839
334.48957
334.39396
334.23237
334.14921
334.00134
333.9282
333.79137
333.72649
333.59861
333.54067
333.42007
333.3681
333.25345
333.20672
333.09691
333.05488
332.94899
332.91127
332.80851
332.7748
332.67449
332.64459
332.54611
332.5199
332.4227
332.40013
332.30366
332.28477
332.18849
332.17338
332.07674
332.0656
331.96806
331.96109
331.86218
331.85935
331.75938
337.08129
336.99892
336.87999
336.62388
336.44308
336.16944
335.99685
335.74657
335.59722
335.37511
335.24789
335.05026
334.94129
334.76367
334.66936
334.50789
334.42541
334.277
334.20421
334.06642
334.00171
333.87259
333.81475
333.69273
333.64085
333.52465
333.47803
333.36659
333.32472
333.21713
333.17962
333.07512
333.04169
332.93961
332.91006
332.8098
332.784
332.685
332.66292
332.56465
332.54629
332.44824
332.43368
332.33534
332.32472
332.2256
332.21904
332.1188
332.11611
332.01515
337.13109
337.0635
336.98149
336.76263
336.61197
336.3629
336.20788
335.97159
335.83212
335.61785
335.49631
335.30302
335.1974
335.02206
334.92978
334.76932
334.6881
334.53988
334.4679
334.32976
334.2656
334.13577
334.07832
333.95534
333.90378
333.78643
333.74011
333.62739
333.58582
333.47687
333.43968
333.33375
333.30067
333.19711
333.16796
333.06618
333.04083
332.94029
332.91869
332.81888
332.80102
332.70146
332.68741
332.58761
332.57745
332.477
332.47077
332.36944
332.36684
332.26505
337.17582
337.11783
337.06516
336.87918
336.7567
336.53213
336.39525
336.17415
336.04563
335.84052
335.72568
335.53793
335.43652
335.26447
335.17491
335.01631
334.9369
334.78961
334.71887
334.58101
334.51775
334.38774
334.33099
334.2075
334.15651
334.03842
333.99259
333.87896
333.83785
333.72785
333.69111
333.58404
333.55142
333.44665
333.41797
333.31493
333.29007
333.18825
333.16714
333.06605
333.04869
332.94786
332.93428
332.83328
332.82353
332.722
332.71603
332.61383
332.61128
332.50883
337.21618
337.16418
337.13423
336.97662
336.87982
336.67901
336.56032
336.35513
336.23834
336.04347
335.93618
335.755
335.65858
335.49074
335.40456
335.24862
335.17157
335.02588
334.95685
334.81986
334.75786
334.6282
334.57243
334.4489
334.3987
334.28029
334.23515
334.12098
334.08047
333.96977
333.9336
333.82571
333.79363
333.68795
333.65979
333.55578
333.53144
333.4286
333.40801
333.30589
333.28902
333.18718
333.17404
333.07209
333.06269
332.96034
332.95458
332.85173
332.84921
332.74627
337.25275
337.20431
337.19149
337.05784
336.98387
336.80557
336.70463
336.51567
336.41108
336.22724
336.1282
335.95447
335.8637
335.70091
335.6187
335.46616
335.39197
335.24854
335.18163
335.04607
334.9857
334.85688
334.80239
334.67927
334.63011
334.51178
334.46751
334.35316
334.31342
334.20236
334.16688
334.05847
334.02703
333.92073
333.89317
333.78846
333.76468
333.6611
333.64104
333.53815
333.52177
333.41917
333.40646
333.30381
333.29473
333.19179
333.18619
333.08292
333.08041
332.97714
337.28598
337.23955
337.23929
337.12548
337.07134
336.91388
336.82989
336.65708
336.56487
336.39257
336.30229
336.1367
336.05216
335.89511
335.8174
335.66892
335.59807
335.45748
335.3931
335.25952
335.20111
335.07361
335.02068
334.8984
334.85052
334.73265
334.68946
334.57529
334.53649
334.42538
334.39072
334.28211
334.2514
334.14477
334.11788
334.01275
333.98958
333.88552
333.86601
333.76261
333.74672
333.64363
333.63132
333.52823
333.51943
333.41614
333.41068
333.30719
333.30468
333.20126
337.31622
337.27087
337.27953
337.18186
337.14457
337.00604
336.93788
336.78079
336.70086
336.54038
336.45916
336.30224
336.22435
336.07364
336.00089
335.85704
335.78994
335.65275
335.59126
335.46014
335.40401
335.27829
335.2272
335.10616
335.0598
334.94277
334.90084
334.7872
334.74948
334.63866
334.60494
334.49643
334.46656
334.35988
334.33373
334.22845
334.20595
334.10167
334.08274
333.97909
333.9637
333.86036
333.84844
333.74514
333.73662
333.6332
333.62787
333.52436
333.52186
333.41845
337.34375
337.29896
337.31375
337.22901
337.20572
337.08405
337.0304
336.88831
336.82033
336.6717
336.59966
336.45175
336.38084
336.23693
336.16949
336.03077
335.96777
335.83445
335.77618
335.64799
335.59442
335.4709
335.42189
335.30249
335.25785
335.14202
335.10155
334.98877
334.95228
334.84206
334.80941
334.70129
334.67235
334.5659
334.54057
334.43542
334.41362
334.30939
334.29107
334.18743
334.17254
334.0692
334.05767
333.95441
333.94613
333.84282
333.8376
333.73427
333.73177
333.62855
337.3688
337.32432
337.34313
337.2686
337.25672
337.14983
337.1092
336.9812
336.92462
336.78764
336.72475
336.58603
336.52227
336.38549
336.32364
336.19045
336.13185
336.0028
335.94804
335.82316
335.77243
335.65148
335.60479
335.48739
335.44467
335.33038
335.29152
335.17993
335.14482
335.0355
335.00403
334.89659
334.86867
334.76274
334.73829
334.63352
334.61248
334.50855
334.49087
334.38748
334.37311
334.27001
334.25888
334.15588
334.14785
334.04486
334.03975
333.93678
333.9343
333.83143
337.39154
337.34728
337.36859
337.30204
337.29925
337.20512
337.17598
337.06099
337.0151
336.8894
336.83546
336.70593
336.64939
336.51996
336.46388
336.33651
336.28254
336.15811
336.10708
335.98588
335.93819
335.82016
335.77599
335.66091
335.62029
335.50787
335.47078
335.36067
335.32706
335.21893
335.18875
335.08227
335.05546
334.9503
334.92681
334.82268
334.80245
334.69906
334.68206
334.57916
334.56533
334.4627
334.45196
334.34945
334.34168
334.2392
334.23421
334.13179
334.12934
334.02699
337.41212
337.36808
337.3908
337.33046
337.33475
337.2515
337.23231
337.12917
337.09315
336.97819
336.93287
336.81241
336.76304
336.64104
336.59082
336.46949
336.4203
336.30076
336.25364
336.1364
336.09195
335.97713
335.93565
335.8232
335.78484
335.67455
335.63938
335.53103
335.49905
335.39238
335.36359
335.25832
335.2327
335.12857
335.10609
335.00285
334.98348
334.88087
334.86458
334.7624
334.74912
334.64719
334.63686
334.53504
334.52753
334.42577
334.42091
334.3192
334.3168
334.21514
337.43064
337.38686
337.41029
337.35476
337.36446
337.29036
337.27966
337.18715
337.16011
337.05524
337.01809
336.90645
336.86408
336.74951
336.70515
336.58998
336.54565
336.43119
336.38812
336.27507
336.23399
336.12265
336.084
335.97442
335.93845
335.83057
335.79743
335.6911
335.66085
335.55589
335.52858
335.42477
335.40041
335.29755
335.27615
335.17402
335.15555
335.05396
335.0384
334.93716
334.92446
334.82343
334.81352
334.7126
334.70536
334.6045
334.59978
334.49897
334.49663
334.39583
337.44719
337.40375
337.4274
337.37564
337.38937
337.3229
337.31932
337.23624
337.21723
337.12173
337.09223
336.98905
336.95343
336.84617
336.80759
336.69861
336.65917
336.54993
336.51097
336.40229
336.36469
336.25702
336.22131
336.11483
336.08136
335.97611
335.9451
335.84102
335.81259
335.70957
335.68381
335.58169
335.55867
335.45729
335.43701
335.33622
335.31869
335.21832
335.20353
335.10344
335.09134
334.99142
334.98195
334.88211
334.87516
334.77537
334.77081
334.67106
334.66878
334.569
337.46184
337.41881
337.44242
337.39365
337.41032
337.35017
337.35246
337.27765
337.26574
337.17883
337.15637
337.06121
337.03202
336.93187
336.89892
336.79609
336.76149
336.65751
336.62269
336.51851
336.48443
336.3806
336.3479
336.24471
336.21382
336.1114
336.0826
335.98097
335.95444
335.85355
335.82942
335.7292
335.70755
335.60788
335.58876
335.48952
335.47296
335.37402
335.36002
335.26128
335.24979
335.15117
335.14215
335.04357
335.03693
334.93838
334.934
334.83546
334.83326
334.73466
337.47462
337.43212
337.45554
337.40921
337.42797
337.37303
337.38009
337.31248
337.30673
337.22762
337.21157
337.12392
337.10076
337.00745
336.97991
336.88312
336.85326
336.75455
336.72384
336.62422
336.59369
336.49381
336.46416
336.3644
336.33614
336.23671
336.21017
336.11117
336.08659
335.98803
335.96558
335.86743
335.84722
335.74942
335.73152
335.634
335.61845
335.52112
335.50793
335.41072
335.39988
335.30272
335.29417
335.19703
335.1907
335.09356
335.08936
334.99219
334.99008
334.8928
337.48557
337.44373
337.46691
337.42264
337.44285
337.39221
337.40308
337.34167
337.34121
337.2691
337.2588
337.17813
337.16057
337.07376
337.05136
336.96044
336.93517
336.84166
336.81498
336.71994
336.69293
336.59707
336.57048
336.47427
336.44866
336.35236
336.32811
336.23189
336.2093
336.11323
336.09248
335.99658
335.97783
335.88209
335.86542
335.7698
335.75528
335.65973
335.64738
335.55186
335.54168
335.44615
335.43809
335.34253
335.33654
335.24094
335.23695
335.14129
335.13928
335.04347
337.49474
337.45371
337.47667
337.4342
337.45539
337.4083
337.42217
337.36607
337.37008
337.30421
337.29901
337.22475
337.2123
337.13162
337.11404
337.02878
337.00788
336.91948
336.89671
336.80623
336.78266
336.69087
336.66731
336.57471
336.55175
336.45868
336.43674
336.34342
336.32283
336.22938
336.21037
336.11686
336.09959
336.00606
335.99065
335.89708
335.88361
335.79
335.7785
335.68483
335.67531
335.58156
335.574
335.48017
335.47453
335.38062
335.37684
335.28282
335.28092
335.18672
337.50217
337.46213
337.48492
337.4441
337.46593
337.4218
337.43798
337.38642
337.39415
337.33379
337.33304
337.26461
337.25679
337.18184
337.16873
337.08885
337.0721
336.98864
336.96962
336.88363
336.86342
336.77568
336.7551
336.66615
336.64581
336.55604
336.53641
336.44608
336.4275
336.33678
336.31951
336.22852
336.21274
336.12154
336.1074
336.01602
336.00361
335.91207
335.90144
335.80974
335.80091
335.70907
335.70203
335.61006
335.60478
335.51268
335.50914
335.41688
335.41509
335.32262
337.50794
337.46908
337.49178
337.4525
337.47474
337.43311
337.45104
337.40333
337.41411
337.35858
337.36166
337.29851
337.29481
337.22516
337.21615
337.14135
337.12848
337.04978
337.03433
336.95272
336.93575
336.85201
336.83432
336.74904
336.73127
336.64484
336.62748
336.54021
336.52362
336.43573
336.42019
336.33181
336.31753
336.22878
336.21591
336.12684
336.11549
336.02614
336.01638
335.92679
335.91865
335.82884
335.82232
335.73233
335.72742
335.63724
335.63394
335.54357
335.5419
335.45127
337.51217
337.47467
337.49735
337.45955
337.48203
337.44255
337.46178
337.41733
337.43057
337.37925
337.38559
337.32715
337.32709
337.26231
337.25699
337.18697
337.17768
337.10352
337.09142
337.01407
337.00017
336.92038
336.90547
336.82382
336.80855
336.72549
336.71034
336.62619
336.61155
336.52655
336.51272
336.42704
336.41425
336.32803
336.31643
336.22976
336.21948
336.13242
336.12354
336.03615
336.02871
335.94104
335.93505
335.84713
335.8426
335.75445
335.7514
335.66301
335.66147
335.57279
337.51501
337.47902
337.50174
337.46539
337.488
337.45039
337.47054
337.42888
337.44405
337.39637
337.40542
337.35118
337.35427
337.29393
337.29192
337.22635
337.22032
337.15047
337.14149
337.06823
337.05722
336.98128
336.96903
336.89098
336.8781
336.7984
336.7854
336.70438
336.69165
336.60958
336.59743
336.51452
336.50318
336.41957
336.40922
336.32504
336.31581
336.23114
336.22312
336.13804
336.13129
336.04585
336.04039
335.95464
335.95051
335.86447
335.86168
335.77536
335.77394
335.68732
337.51664
337.48226
337.50507
337.47014
337.49281
337.45684
337.47762
337.43833
337.45497
337.41044
337.4217
337.37118
337.37696
337.32063
337.32154
337.26007
337.25699
337.19119
337.18508
337.11573
337.10743
337.03522
337.02547
336.95095
336.94037
336.86399
336.85306
336.77517
336.76429
336.68518
336.67466
336.59455
336.58464
336.5037
336.49458
336.41294
336.40476
336.32254
336.31539
336.23267
336.22661
336.14348
336.13856
336.05506
336.05131
335.96748
335.96494
335.88079
335.8795
335.79501
337.51726
337.48455
337.50747
337.47391
337.49658
337.46209
337.48325
337.44599
337.46371
337.42188
337.4349
337.38764
337.39567
337.34296
337.34639
337.28869
337.28825
337.22624
337.22274
337.15711
337.15131
337.08269
337.07529
337.00421
336.99579
336.92269
336.91373
336.83896
336.82985
336.75371
336.74476
336.66748
336.65895
336.58072
336.57279
336.49376
336.48659
336.40689
336.40058
336.3203
336.31492
336.23416
336.22977
336.14858
336.14523
336.06366
336.06138
335.97946
335.9783
335.89603
337.51709
337.48602
337.50903
337.47681
337.49943
337.46628
337.48764
337.4521
337.47057
337.43105
337.44543
337.40101
337.41088
337.3614
337.36699
337.31274
337.3146
337.25613
337.25496
337.19285
337.18934
337.12417
337.11895
337.0512
337.04481
336.97492
336.96782
336.89614
336.88871
336.81553
336.80809
336.73365
336.72645
336.65095
336.64418
336.56779
336.5616
336.48445
336.47896
336.40117
336.39646
336.31812
336.31426
336.23544
336.23247
336.15323
336.15121
336.07158
336.07055
335.99055
337.51633
337.48682
337.50989
337.47896
337.50147
337.46954
337.49092
337.45686
337.47579
337.43823
337.4536
337.41166
337.423
337.37638
337.38378
337.33266
337.33653
337.28132
337.28223
337.22344
337.22199
337.16011
337.15688
337.09236
337.08785
337.02109
337.01574
336.94709
336.94126
336.87101
336.86501
336.7934
336.78747
336.71471
336.70905
336.63531
336.63008
336.55551
336.55083
336.47555
336.4715
336.39561
336.39226
336.31586
336.31327
336.23641
336.23464
336.15735
336.15645
336.07878
337.51515
337.48708
337.51015
337.48043
337.50279
337.47197
337.49322
337.46044
337.47956
337.44368
337.45971
337.4199
337.43236
337.38829
337.39716
337.34888
337.35445
337.30226
337.30499
337.2493
337.2497
337.19094
337.18953
337.12811
337.12533
337.06162
337.05789
336.99221
336.98788
336.92052
336.91587
336.84707
336.84235
336.77232
336.76772
336.69665
336.69233
336.62036
336.61644
336.54371
336.54029
336.4669
336.46404
336.39009
336.38787
336.31341
336.31189
336.23699
336.23621
336.16091
337.51369
337.48691
337.5099
337.48133
337.50346
337.47364
337.49464
337.46295
337.48204
337.44757
337.46398
337.42602
337.43929
337.39746
337.40749
337.36177
337.36875
337.31934
337.32363
337.27085
337.27288
337.21708
337.2173
337.15885
337.15765
337.09688
337.09465
337.03187
337.02892
336.96441
336.96102
336.89501
336.89142
336.82412
336.82052
336.75211
336.74866
336.6793
336.67611
336.60593
336.60311
336.53223
336.52986
336.45837
336.45651
336.3845
336.38321
336.31073
336.31007
336.23718
337.51204
337.48641
337.50923
337.48172
337.50355
337.47463
337.49525
337.46447
337.48334
337.45006
337.4666
337.43021
337.44401
337.40415
337.41507
337.37165
337.37979
337.33292
337.33854
337.28846
337.29192
337.23891
337.24058
337.18496
337.18519
337.12727
337.1264
337.06644
337.06477
337.00304
337.00083
336.93756
336.93503
336.87043
336.86777
336.802
336.79937
336.73261
336.73012
336.6625
336.66025
336.59189
336.58997
336.52097
336.51945
336.44989
336.44884
336.37879
336.37825
336.30779
337.51027
337.48565
337.50821
337.48167
337.5031
337.47497
337.49508
337.46508
337.48355
337.45126
337.46771
337.43267
337.44675
337.40862
337.42017
337.37882
337.38786
337.34333
337.35005
337.30249
337.30716
337.2568
337.25973
337.20682
337.20832
337.15313
337.15349
337.09627
337.09576
337.03676
337.03563
336.97505
336.9735
336.91156
336.90978
336.84664
336.84477
336.78059
336.77876
336.71369
336.71198
336.64614
336.64466
336.57814
336.57695
336.50986
336.50902
336.44143
336.44099
336.37297
337.50842
337.48469
337.50689
337.48122
337.50216
337.4747
337.49418
337.4648
337.48272
337.45125
337.46741
337.43352
337.44767
337.41106
337.42301
337.38352
337.39325
337.35085
337.35846
337.31324
337.31894
337.27106
337.27509
337.22475
337.22737
337.17481
337.17627
337.1217
337.12224
337.06589
337.06574
337.0078
337.00716
336.94783
336.94686
336.88631
336.88516
336.82354
336.82232
336.75978
336.75859
336.69526
336.69418
336.63015
336.62927
336.56464
336.56401
336.49887
336.49854
336.43297
337.5065
337.48357
337.50533
337.48041
337.50074
337.47382
337.49254
337.46365
337.48088
337.45008
337.46579
337.43289
337.4469
337.41164
337.42379
337.38598
337.39619
337.35575
337.36406
337.32101
337.32756
337.28201
337.28697
337.23909
337.24267
337.19263
337.19506
337.14305
337.14454
337.09076
337.0915
337.03614
337.03632
336.97956
336.97933
336.92133
336.92083
336.86176
336.8611
336.80107
336.80036
336.73951
336.73882
336.67726
336.67667
336.6145
336.61406
336.55138
336.55114
336.48803
337.50451
337.48232
337.50354
337.47925
337.49884
337.47232
337.49015
337.46163
337.47804
337.44778
337.4629
337.43084
337.44457
337.4105
337.42267
337.38638
337.39689
337.35825
337.36708
337.32606
337.33328
337.28994
337.29568
337.25012
337.25454
337.2069
337.21018
337.16064
337.16296
337.11168
337.11321
337.06037
337.06128
337.00704
337.00748
336.952
336.95209
336.89551
336.89537
336.83783
336.83755
336.77918
336.77884
336.71974
336.71941
336.65969
336.65943
336.59919
336.59904
336.53837
337.50245
337.48094
337.50153
337.47774
337.49644
337.47018
337.48699
337.45872
337.47419
337.44437
337.45877
337.42744
337.44075
337.40774
337.4198
337.38488
337.39554
337.35855
337.36775
337.32862
337.33636
337.2951
337.30147
337.25812
337.26324
337.21791
337.22192
337.17475
337.17779
337.12893
337.13117
337.08077
337.08234
337.03056
337.0316
336.97858
336.97921
336.9251
336.92542
336.87034
336.87045
336.81452
336.8145
336.75784
336.75775
336.70046
336.70037
336.64255
336.64249
336.58425
337.5003
337.47945
337.4993
337.47585
337.4935
337.46735
337.483
337.45488
337.46931
337.43983
337.45343
337.42274
337.43552
337.40347
337.41527
337.38162
337.39228
337.35684
337.36626
337.3289
337.33703
337.29772
337.30459
337.26335
337.26904
337.22593
337.23054
337.18567
337.18933
337.14281
337.14566
337.09764
337.09979
337.0504
337.05198
337.00137
337.00248
336.95078
336.95153
336.89886
336.89933
336.84581
336.84608
336.79182
336.79196
336.73708
336.73713
336.68172
336.68174
336.6259
337.49805
337.47784
337.49682
337.47354
337.48997
337.46377
337.47813
337.45006
337.46336
337.43417
337.44688
337.41676
337.42892
337.39775
337.4092
337.37672
337.38728
337.35328
337.36279
337.3271
337.33549
337.29804
337.30528
337.26604
337.27219
337.2312
337.23632
337.19364
337.19783
337.15358
337.15694
337.11123
337.11388
337.06684
337.06888
337.02063
337.02216
336.97283
336.97395
336.92365
336.92444
336.8733
336.87383
336.82195
336.82228
336.76978
336.76997
336.71694
336.71702
336.66357
337.49569
337.4761
337.49406
337.47075
337.48575
337.45935
337.47231
337.4442
337.45631
337.42735
337.43911
337.40952
337.421
337.39065
337.40166
337.37029
337.38064
337.348
337.35749
337.32339
337.33192
337.29623
337.30375
337.26642
337.27292
337.23395
337.23948
337.19893
337.20354
337.16148
337.16528
337.12181
337.12489
337.08012
337.08256
337.03661
337.03851
336.9915
336.99294
336.94498
336.94605
336.89724
336.898
336.84846
336.84897
336.79881
336.79912
336.74844
336.74858
336.69749
337.49319
337.47418
337.49093
337.46739
337.48076
337.45401
337.46546
337.43725
337.4481
337.41935
337.43013
337.40104
337.41179
337.38222
337.39274
337.36242
337.37248
337.34113
337.35052
337.31792
337.3265
337.29249
337.30017
337.26468
337.27143
337.23441
337.24025
337.20174
337.2067
337.16676
337.17092
337.12962
337.13305
337.0905
337.09328
337.04957
337.05179
337.00704
337.00877
336.96308
336.96439
336.91788
336.91884
336.87161
336.87227
336.82442
336.82483
336.77647
336.77667
336.72791
337.49055
337.47206
337.48737
337.46334
337.47488
337.44764
337.45749
337.42913
337.4387
337.41014
337.41992
337.39133
337.40132
337.37251
337.38249
337.35318
337.3629
337.33278
337.342
337.31083
337.31938
337.28698
337.29474
337.261
337.26792
337.23278
337.23884
337.2023
337.20753
337.16964
337.17407
337.13489
337.1386
337.0982
337.10126
337.05975
337.06222
337.01969
337.02165
336.97821
336.97972
336.93546
336.93658
336.89162
336.89241
336.84684
336.84734
336.80127
336.80151
336.75505
337.48774
337.46968
337.48324
337.45846
337.46797
337.44013
337.4483
337.41978
337.42805
337.39971
337.40849
337.3804
337.38962
337.36157
337.37098
337.34266
337.35198
337.32306
337.33205
337.30227
337.31071
337.27986
337.28762
337.25557
337.26257
337.22924
337.23544
337.20081
337.20622
337.17032
337.17496
337.13783
337.14176
337.10346
337.10674
337.06736
337.07004
337.02968
337.03183
336.99058
336.99226
336.95021
336.95147
336.90874
336.90963
336.86631
336.86688
336.82306
336.82334
336.77914
337.48472
337.46694
337.47842
337.4526
337.45989
337.43136
337.43781
337.40914
337.41613
337.38803
337.39582
337.36827
337.37672
337.34944
337.35827
337.33093
337.33982
337.31208
337.32077
337.29233
337.30061
337.27126
337.27895
337.24853
337.25554
337.22396
337.23024
337.19746
337.20298
337.169
337.17379
337.13864
337.14273
337.10648
337.10992
337.07263
337.07547
337.03723
337.03952
337.00042
337.00223
336.96236
336.96372