/*--------------------------------*- C++ -*----------------------------------*\
| =========                 |                                                 |
| \\      /  F ield         | OpenFOAM: The Open Source CFD Toolbox           |
|  \\    /   O peration     | Version:  2312                                  |
|   \\  /    A nd           | Website:  www.openfoam.com                      |
|    \\/     M anipulation  |                                                 |
\*---------------------------------------------------------------------------*/
FoamFile
{
    version     2.0;
    format      ascii;
    arch        "LSB;label=32;scalar=64";
    class       volScalarField;
    location    "6";
    object      p;
}
// * * * * * * * * * * * * * * * * * * * * * * * * * * * * * * * * * * * * * //

dimensions      [0 2 -2 0 0 0 0];

internalField   nonuniform List<scalar> 
4000
(
32.452835
30.9608
30.339466
29.320877
28.887911
27.993986
27.579517
26.730724
26.299047
25.47732
25.024288
24.224576
23.7515
22.971014
22.480063
21.716466
21.209737
20.460966
19.940366
19.2046
18.671828
17.947462
17.404023
16.689642
16.136862
15.431218
14.87027
14.172258
13.604185
12.912821
12.338551
11.652957
11.073324
10.392707
9.8084652
9.1321072
8.5439408
7.8711872
7.2797237
6.6099724
6.0157906
5.3484837
4.7521227
4.086738
3.488705
2.8247487
2.2255256
1.5625237
0.96257276
0.30006298
32.444251
30.95889
30.339944
29.320869
28.8879
27.993999
27.579512
26.730733
26.299039
25.477328
25.024281
24.224582
23.751493
22.97102
22.480058
21.716471
21.209732
20.460971
19.940362
19.204604
18.671825
17.947466
17.404019
16.689645
16.136859
15.43122
14.870267
14.172261
13.604182
12.912824
12.338549
11.652959
11.073322
10.392709
9.8084634
9.132109
8.5439392
7.8711888
7.2797221
6.6099739
6.0157892
5.3484851
4.7521214
4.0867394
3.4887037
2.8247499
2.2255243
1.5625249
0.96257145
0.30006519
32.423073
30.957625
30.340786
29.320807
28.887906
27.994007
27.579521
26.730733
26.299041
25.477326
25.024282
24.224581
23.751495
22.971019
22.480059
21.71647
21.209733
20.46097
19.940362
19.204604
18.671825
17.947465
17.40402
16.689644
16.136859
15.43122
14.870268
14.17226
13.604183
12.912823
12.338549
11.652959
11.073323
10.392709
9.8084637
9.1321086
8.5439395
7.8711885
7.2797224
6.6099736
6.0157895
5.3484848
4.7521216
4.0867391
3.4887039
2.8247497
2.2255246
1.5625247
0.96257155
0.30006592
32.406357
30.956176
30.341646
29.320713
28.887913
27.994012
27.579532
26.730728
26.299046
25.477322
25.024286
24.224577
23.751498
22.971016
22.480062
21.716467
21.209736
20.460967
19.940365
19.204601
18.671827
17.947463
17.404022
16.689642
16.136861
15.431218
14.87027
14.172259
13.604184
12.912822
12.338551
11.652958
11.073324
10.392708
9.8084648
9.1321076
8.5439405
7.8711876
7.2797234
6.6099727
6.0157903
5.348484
4.7521225
4.0867383
3.4887047
2.8247489
2.2255253
1.5625239
0.96257221
0.30006602
32.382802
30.953934
30.342441
29.320593
28.887917
27.994018
27.579541
26.730724
26.299051
25.477318
25.02429
24.224574
23.751501
22.971013
22.480065
21.716465
21.209739
20.460965
19.940367
19.204599
18.671829
17.947461
17.404024
16.689641
16.136863
15.431217
14.870271
14.172257
13.604185
12.912821
12.338552
11.652956
11.073325
10.392707
9.8084657
9.1321067
8.5439414
7.8711867
7.2797242
6.6099719
6.0157911
5.3484833
4.7521232
4.0867376
3.4887054
2.8247482
2.225526
1.5625231
0.96257283
0.30006606
32.368118
30.952414
30.343136
29.320434
28.887924
27.994025
27.579548
26.730721
26.299054
25.477315
25.024292
24.224571
23.751504
22.971011
22.480067
21.716463
21.209741
20.460963
19.940369
19.204598
18.671831
17.94746
17.404025
16.68964
16.136864
15.431216
14.870272
14.172256
13.604186
12.91282
12.338553
11.652956
11.073326
10.392706
9.8084665
9.132106
8.543942
7.871186
7.2797248
6.6099713
6.0157917
5.3484827
4.7521238
4.0867371
3.488706
2.8247477
2.2255265
1.5625226
0.96257336
0.30006611
32.350499
30.950364
30.343653
29.320292
28.887945
27.994034
27.579554
26.730717
26.299056
25.477312
25.024295
24.224569
23.751506
22.971009
22.480069
21.716461
21.209742
20.460962
19.94037
19.204596
18.671832
17.947459
17.404026
16.689638
16.136865
15.431215
14.870273
14.172255
13.604187
12.912819
12.338554
11.652955
11.073326
10.392705
9.8084671
9.1321054
8.5439426
7.8711855
7.2797253
6.6099708
6.0157922
5.3484822
4.7521242
4.0867366
3.4887064
2.8247473
2.225527
1.5625221
0.96257381
0.30006617
32.334216
30.949641
30.34366
29.320369
28.888014
27.99405
27.579561
26.730714
26.299058
25.47731
25.024297
24.224567
23.751508
22.971007
22.480071
21.71646
21.209743
20.460961
19.940371
19.204595
18.671833
17.947458
17.404027
16.689638
16.136866
15.431214
14.870274
14.172255
13.604188
12.912818
12.338554
11.652954
11.073327
10.392705
9.8084676
9.1321049
8.5439431
7.871185
7.2797258
6.6099704
6.0157926
5.3484818
4.7521246
4.0867362
3.4887068
2.8247469
2.2255273
1.5625216
0.96257424
0.30006621
32.319576
30.948101
30.342921
29.320743
28.888116
27.99407
27.579568
26.730712
26.29906
25.477307
25.024298
24.224566
23.751509
22.971006
22.480072
21.716458
21.209745
20.460959
19.940372
19.204594
18.671834
17.947457
17.404028
16.689637
16.136866
15.431213
14.870274
14.172254
13.604188
12.912818
12.338555
11.652954
11.073328
10.392704
9.8084681
9.1321044
8.5439435
7.8711846
7.2797262
6.60997
6.015793
5.3484814
4.752125
4.0867358
3.4887072
2.8247465
2.2255277
1.5625213
0.96257464
0.30006622
32.301064
30.946382
30.342477
29.321024
28.888166
27.994077
27.57957
26.730708
26.299061
25.477305
25.024299
24.224564
23.75151
22.971004
22.480073
21.716457
21.209746
20.460958
19.940373
19.204593
18.671835
17.947456
17.404029
16.689636
16.136867
15.431212
14.870275
14.172253
13.604189
12.912817
12.338555
11.652953
11.073328
10.392704
9.8084685
9.132104
8.5439439
7.8711842
7.2797265
6.6099696
6.0157933
5.3484811
4.7521253
4.0867355
3.4887075
2.8247462
2.225528
1.5625209
0.96257502
0.30006623
32.287936
30.943433
30.34287
29.320807
28.888118
27.994061
27.579563
26.730701
26.299061
25.477303
25.024301
24.224563
23.751512
22.971003
22.480074
21.716456
21.209747
20.460957
19.940374
19.204592
18.671836
17.947455
17.40403
16.689635
16.136868
15.431212
14.870276
14.172253
13.60419
12.912817
12.338556
11.652953
11.073328
10.392703
9.8084689
9.1321037
8.5439443
7.8711839
7.2797269
6.6099693
6.0157936
5.3484808
4.7521256
4.0867352
3.4887078
2.8247459
2.2255282
1.5625206
0.96257538
0.30006622
32.273485
30.941182
30.343222
29.320182
28.888002
27.994021
27.579549
26.730693
26.29906
25.4773
25.024301
24.224561
23.751513
22.971002
22.480075
21.716455
21.209748
20.460957
19.940375
19.204592
18.671837
17.947455
17.40403
16.689635
16.136868
15.431211
14.870276
14.172252
13.60419
12.912816
12.338556
11.652952
11.073329
10.392703
9.8084692
9.1321033
8.5439446
7.8711836
7.2797272
6.609969
6.0157939
5.3484805
4.7521259
4.086735
3.488708
2.8247457
2.2255285
1.5625203
0.96257572
0.30006621
32.263328
30.938679
30.342844
29.319601
28.887889
27.993974
27.579531
26.730683
26.299058
25.477298
25.024302
24.22456
23.751514
22.971001
22.480076
21.716454
21.209748
20.460956
19.940376
19.204591
18.671837
17.947454
17.404031
16.689634
16.136869
15.431211
14.870276
14.172252
13.60419
12.912816
12.338556
11.652952
11.073329
10.392703
9.8084695
9.132103
8.5439448
7.8711833
7.2797274
6.6099688
6.0157941
5.3484803
4.7521261
4.0867348
3.4887082
2.8247455
2.2255287
1.5625201
0.96257604
0.30006619
32.250537
30.936165
30.341853
29.319347
28.887835
27.993941
27.579517
26.730675
26.299056
25.477296
25.024302
24.224559
23.751514
22.971
22.480077
21.716453
21.209749
20.460955
19.940376
19.20459
18.671838
17.947454
17.404031
16.689634
16.136869
15.43121
14.870277
14.172251
13.604191
12.912815
12.338557
11.652952
11.073329
10.392702
9.8084698
9.1321028
8.5439451
7.8711831
7.2797277
6.6099686
6.0157944
5.3484801
4.7521263
4.0867345
3.4887085
2.8247452
2.2255289
1.5625198
0.96257634
0.30006616
32.241534
30.933245
30.340278
29.319355
28.887816
27.993918
27.579506
26.730667
26.299055
25.477293
25.024303
24.224558
23.751515
22.970999
22.480078
21.716453
21.20975
20.460955
19.940377
19.20459
18.671838
17.947453
17.404032
16.689633
16.13687
15.43121
14.870277
14.172251
13.604191
12.912815
12.338557
11.652952
11.07333
10.392702
9.8084701
9.1321025
8.5439453
7.8711829
7.2797279
6.6099683
6.0157946
5.3484799
4.7521265
4.0867344
3.4887086
2.8247451
2.2255291
1.5625196
0.96257663
0.30006612
32.230981
30.930436
30.338565
29.319354
28.887756
27.993886
27.57949
26.730657
26.299052
25.477291
25.024303
24.224557
23.751516
22.970998
22.480078
21.716452
21.20975
20.460954
19.940377
19.204589
18.671839
17.947453
17.404032
16.689633
16.13687
15.43121
14.870278
14.172251
13.604191
12.912815
12.338557
11.652951
11.07333
10.392702
9.8084703
9.1321023
8.5439456
7.8711827
7.2797281
6.6099682
6.0157948
5.3484797
4.7521267
4.0867342
3.4887088
2.8247449
2.2255292
1.5625194
0.9625769
0.30006608
32.223717
30.927426
30.337141
29.319091
28.887596
27.99383
27.579464
26.730644
26.299048
25.477288
25.024303
24.224555
23.751516
22.970998
22.480079
21.716451
21.209751
20.460953
19.940378
19.204589
18.671839
17.947452
17.404033
16.689633
16.13687
15.431209
14.870278
14.172251
13.604192
12.912815
12.338558
11.652951
11.07333
10.392702
9.8084705
9.1321021
8.5439457
7.8711825
7.2797283
6.609968
6.0157949
5.3484795
4.7521269
4.086734
3.488709
2.8247447
2.2255294
1.5625193
0.96257717
0.30006604
32.215214
30.924494
30.336247
29.318559
28.887349
27.993757
27.57943
26.730629
26.299042
25.477284
25.024302
24.224554
23.751517
22.970997
22.480079
21.716451
21.209751
20.460953
19.940378
19.204588
18.67184
17.947452
17.404033
16.689632
16.136871
15.431209
14.870278
14.17225
13.604192
12.912814
12.338558
11.652951
11.07333
10.392701
9.8084707
9.1321019
8.5439459
7.8711823
7.2797284
6.6099678
6.0157951
5.3484794
4.752127
4.0867339
3.4887091
2.8247446
2.2255295
1.5625191
0.96257741
0.300066
32.209297
30.921622
30.335542
29.317985
28.887105
27.99369
27.579399
26.730616
26.299037
25.477281
25.024302
24.224553
23.751517
22.970996
22.48008
21.71645
21.209752
20.460952
19.940379
19.204588
18.67184
17.947451
17.404033
16.689632
16.136871
15.431209
14.870278
14.17225
13.604192
12.912814
12.338558
11.652951
11.073331
10.392701
9.8084709
9.1321017
8.5439461
7.8711821
7.2797286
6.6099677
6.0157952
5.3484792
4.7521271
4.0867337
3.4887093
2.8247444
2.2255296
1.562519
0.96257765
0.30006595
32.202526
30.918991
30.334765
29.317537
28.886925
27.993639
27.579375
26.730608
26.299034
25.477278
25.024301
24.224552
23.751517
22.970996
22.48008
21.71645
21.209752
20.460952
19.940379
19.204588
18.67184
17.947451
17.404033
16.689632
16.136871
15.431208
14.870279
14.17225
13.604192
12.912814
12.338558
11.65295
11.073331
10.392701
9.808471
9.1321016
8.5439462
7.871182
7.2797287
6.6099675
6.0157954
5.3484791
4.7521273
4.0867336
3.4887094
2.8247443
2.2255298
1.5625189
0.96257788
0.30006591
32.197749
30.916636
30.333842
29.317191
28.886795
27.993602
27.579357
26.730605
26.299032
25.477277
25.024301
24.224551
23.751517
22.970995
22.480081
21.716449
21.209753
20.460952
19.94038
19.204587
18.671841
17.947451
17.404034
16.689631
16.136871
15.431208
14.870279
14.17225
13.604193
12.912814
12.338558
11.65295
11.073331
10.392701
9.8084712
9.1321014
8.5439464
7.8711819
7.2797289
6.6099674
6.0157955
5.348479
4.7521274
4.0867335
3.4887095
2.8247442
2.2255299
1.5625187
0.96257809
0.30006586
32.192436
30.914452
30.332917
29.316889
28.886691
27.993573
27.579342
26.730606
26.299031
25.477276
25.024301
24.22455
23.751518
22.970994
22.480081
21.716449
21.209753
20.460951
19.94038
19.204587
18.671841
17.947451
17.404034
16.689631
16.136872
15.431208
14.870279
14.172249
13.604193
12.912814
12.338559
11.65295
11.073331
10.392701
9.8084713
9.1321013
8.5439465
7.8711817
7.279729
6.6099673
6.0157956
5.3484788
4.7521275
4.0867334
3.4887096
2.8247441
2.22553
1.5625187
0.96257829
0.30006582
32.188596
30.912555
30.332025
29.316604
28.886598
27.993548
27.579326
26.730608
26.299032
25.477275
25.024301
24.22455
23.751518
22.970994
22.480081
21.716449
21.209753
20.460951
19.94038
19.204587
18.671841
17.94745
17.404034
16.689631
16.136872
15.431208
14.870279
14.172249
13.604193
12.912813
12.338559
11.65295
11.073331
10.392701
9.8084715
9.1321012
8.5439466
7.8711816
7.2797291
6.6099672
6.0157957
5.3484787
4.7521276
4.0867333
3.4887097
2.824744
2.2255301
1.5625186
0.96257848
0.30006577
32.184461
30.910728
30.331226
29.316343
28.886514
27.993525
27.579311
26.730611
26.299032
25.477274
25.024302
24.224549
23.751518
22.970993
22.480082
21.716448
21.209754
20.460951
19.94038
19.204586
18.671841
17.94745
17.404035
16.689631
16.136872
15.431208
14.87028
14.172249
13.604193
12.912813
12.338559
11.65295
11.073331
10.392701
9.8084716
9.1321011
8.5439468
7.8711815
7.2797292
6.6099671
6.0157958
5.3484787
4.7521277
4.0867332
3.4887098
2.8247439
2.2255301
1.5625185
0.96257866
0.30006572
32.181372
30.909225
30.330496
29.31611
28.88644
27.993506
27.579295
26.730613
26.299033
25.477274
25.024302
24.224549
23.751519
22.970993
22.480082
21.716448
21.209754
20.46095
19.940381
19.204586
18.671842
17.94745
17.404035
16.68963
16.136872
15.431207
14.87028
14.172249
13.604193
12.912813
12.338559
11.65295
11.073332
10.3927
9.8084717
9.132101
8.5439469
7.8711814
7.2797293
6.609967
6.0157959
5.3484786
4.7521278
4.0867331
3.4887099
2.8247438
2.2255302
1.5625184
0.96257882
0.30006568
32.178187
30.907731
30.329855
29.315908
28.886377
27.99349
27.57928
26.730616
26.299034
25.477275
25.024303
24.224548
23.751519
22.970993
22.480082
21.716447
21.209754
20.46095
19.940381
19.204586
18.671842
17.94745
17.404035
16.68963
16.136872
15.431207
14.87028
14.172249
13.604193
12.912813
12.338559
11.65295
11.073332
10.3927
9.8084718
9.1321009
8.5439469
7.8711813
7.2797294
6.6099669
6.015796
5.3484785
4.7521279
4.086733
3.4887099
2.8247438
2.2255303
1.5625184
0.96257898
0.30006564
32.175692
30.906594
30.329288
29.315734
28.886325
27.993477
27.579268
26.730618
26.299035
25.477276
25.024303
24.224548
23.751519
22.970992
22.480082
21.716447
21.209754
20.46095
19.940381
19.204586
18.671842
17.947449
17.404035
16.68963
16.136873
15.431207
14.87028
14.172249
13.604194
12.912813
12.338559
11.652949
11.073332
10.3927
9.8084719
9.1321008
8.543947
7.8711812
7.2797295
6.6099668
6.0157961
5.3484784
4.7521279
4.086733
3.48871
2.8247437
2.2255303
1.5625183
0.96257912
0.3000656
32.173277
30.905405
30.328798
29.315589
28.886283
27.993467
27.579257
26.730619
26.299035
25.477277
25.024304
24.224548
23.751519
22.970992
22.480082
21.716447
21.209755
20.46095
19.940381
19.204586
18.671842
17.947449
17.404035
16.68963
16.136873
15.431207
14.87028
14.172248
13.604194
12.912813
12.338559
11.652949
11.073332
10.3927
9.808472
9.1321007
8.5439471
7.8711812
7.2797295
6.6099667
6.0157961
5.3484783
4.752128
4.0867329
3.4887101
2.8247436
2.2255304
1.5625183
0.96257926
0.30006556
32.171232
30.904583
30.328383
29.315469
28.88625
27.993459
27.579249
26.73062
26.299035
25.477279
25.024305
24.224548
23.75152
22.970992
22.480083
21.716447
21.209755
20.460949
19.940381
19.204585
18.671842
17.947449
17.404035
16.68963
16.136873
15.431207
14.87028
14.172248
13.604194
12.912813
12.33856
11.652949
11.073332
10.3927
9.8084721
9.1321006
8.5439472
7.8711811
7.2797296
6.6099667
6.0157962
5.3484783
4.7521281
4.0867328
3.4887101
2.8247436
2.2255305
1.5625182
0.96257938
0.30006552
32.169467
30.90365
30.328026
29.315372
28.886226
27.993455
27.579242
26.730622
26.299034
25.477281
25.024306
24.224548
23.75152
22.970991
22.480083
21.716446
21.209755
20.460949
19.940382
19.204585
18.671843
17.947449
17.404035
16.68963
16.136873
15.431207
14.87028
14.172248
13.604194
12.912813
12.33856
11.652949
11.073332
10.3927
9.8084721
9.1321005
8.5439473
7.871181
7.2797297
6.6099666
6.0157963
5.3484782
4.7521281
4.0867328
3.4887102
2.8247435
2.2255305
1.5625182
0.96257949
0.30006549
32.16769
30.903056
30.327738
29.315297
28.886209
27.993452
27.579238
26.730623
26.299032
25.477283
25.024307
24.224548
23.75152
22.970991
22.480083
21.716446
21.209755
20.460949
19.940382
19.204585
18.671843
17.947449
17.404036
16.68963
16.136873
15.431207
14.87028
14.172248
13.604194
12.912812
12.33856
11.652949
11.073332
10.3927
9.8084722
9.1321005
8.5439473
7.871181
7.2797297
6.6099666
6.0157963
5.3484782
4.7521282
4.0867327
3.4887102
2.8247435
2.2255305
1.5625181
0.96257958
0.30006546
32.166459
30.902356
30.327499
29.315242
28.8862
27.993452
27.579235
26.730625
26.29903
25.477286
25.024308
24.224548
23.75152
22.970991
22.480083
21.716446
21.209755
20.460949
19.940382
19.204585
18.671843
17.947449
17.404036
16.68963
16.136873
15.431207
14.870281
14.172248
13.604194
12.912812
12.33856
11.652949
11.073332
10.3927
9.8084723
9.1321004
8.5439474
7.8711809
7.2797298
6.6099665
6.0157963
5.3484781
4.7521282
4.0867327
3.4887103
2.8247434
2.2255306
1.5625181
0.96257967
0.30006544
32.164956
30.901947
30.327325
29.315207
28.886197
27.993454
27.579233
26.730628
26.299028
25.477288
25.024308
24.224548
23.751521
22.970991
22.480083
21.716446
21.209755
20.460949
19.940382
19.204585
18.671843
17.947449
17.404036
16.689629
16.136873
15.431206
14.870281
14.172248
13.604194
12.912812
12.33856
11.652949
11.073332
10.3927
9.8084723
9.1321004
8.5439474
7.8711809
7.2797298
6.6099665
6.0157964
5.3484781
4.7521282
4.0867327
3.4887103
2.8247434
2.2255306
1.5625181
0.96257973
0.30006541
32.164101
30.901461
30.327193
29.315189
28.8862
27.993458
27.579233
26.73063
26.299027
25.47729
25.024309
24.224548
23.751521
22.97099
22.480083
21.716446
21.209755
20.460949
19.940382
19.204585
18.671843
17.947449
17.404036
16.689629
16.136873
15.431206
14.870281
14.172248
13.604194
12.912812
12.33856
11.652949
11.073332
10.3927
9.8084723
9.1321003
8.5439474
7.8711808
7.2797298
6.6099664
6.0157964
5.3484781
4.7521283
4.0867326
3.4887103
2.8247434
2.2255306
1.5625181
0.96257979
0.3000654
32.162966
30.90122
30.327118
29.315187
28.886209
27.993463
27.579233
26.730633
26.299025
25.477291
25.02431
24.224548
23.751521
22.97099
22.480083
21.716445
21.209755
20.460948
19.940382
19.204585
18.671843
17.947448
17.404036
16.689629
16.136873
15.431206
14.870281
14.172248
13.604194
12.912812
12.33856
11.652949
11.073332
10.3927
9.8084724
9.1321003
8.5439475
7.8711808
7.2797299
6.6099664
6.0157964
5.348478
4.7521283
4.0867326
3.4887104
2.8247433
2.2255307
1.5625181
0.96257982
0.30006539
32.162433
30.9009
30.327068
29.315195
28.886221
27.99347
27.579235
26.730636
26.299024
25.477292
25.024311
24.224549
23.751521
22.97099
22.480083
21.716445
21.209755
20.460948
19.940382
19.204584
18.671843
17.947448
17.404036
16.689629
16.136873
15.431206
14.870281
14.172248
13.604194
12.912812
12.33856
11.652949
11.073332
10.3927
9.8084724
9.1321003
8.5439475
7.8711808
7.2797299
6.6099664
6.0157965
5.348478
4.7521283
4.0867326
3.4887104
2.8247433
2.2255307
1.5625181
0.96257983
0.30006539
32.161683
30.900781
30.327057
29.315211
28.886234
27.993476
27.579237
26.730638
26.299023
25.477292
25.024312
24.224549
23.751521
22.97099
22.480083
21.716445
21.209755
20.460948
19.940382
19.204584
18.671843
17.947448
17.404036
16.689629
16.136874
15.431206
14.870281
14.172248
13.604194
12.912812
12.33856
11.652949
11.073332
10.3927
9.8084724
9.1321003
8.5439475
7.8711808
7.2797299
6.6099664
6.0157965
5.348478
4.7521283
4.0867326
3.4887104
2.8247433
2.2255307
1.5625181
0.96257982
0.3000654
32.161479
30.900562
30.327049
29.315228
28.886247
27.993483
27.579239
26.73064
26.299023
25.477292
25.024313
24.224549
23.751522
22.97099
22.480083
21.716445
21.209755
20.460948
19.940382
19.204584
18.671843
17.947448
17.404036
16.689629
16.136874
15.431206
14.870281
14.172248
13.604194
12.912812
12.33856
11.652949
11.073332
10.3927
9.8084725
9.1321002
8.5439475
7.8711807
7.2797299
6.6099664
6.0157965
5.348478
4.7521283
4.0867326
3.4887104
2.8247433
2.2255307
1.5625181
0.96257978
0.30006542
32.16108
30.900529
30.327061
29.315244
28.886257
27.993487
27.579241
26.730641
26.299023
25.477293
25.024313
24.22455
23.751522
22.97099
22.480083
21.716445
21.209755
20.460948
19.940382
19.204584
18.671843
17.947448
17.404036
16.689629
16.136874
15.431206
14.870281
14.172248
13.604194
12.912812
12.33856
11.652949
11.073332
10.3927
9.8084725
9.1321002
8.5439475
7.8711807
7.2797299
6.6099664
6.0157965
5.348478
4.7521283
4.0867326
3.4887104
2.8247433
2.2255307
1.5625181
0.96257972
0.30006544
32.161152
30.900413
30.327059
29.315253
28.886263
27.99349
27.579242
26.730642
26.299023
25.477293
25.024313
24.22455
23.751522
22.97099
22.480083
21.716445
21.209755
20.460948
19.940382
19.204584
18.671843
17.947448
17.404036
16.689629
16.136874
15.431206
14.870281
14.172248
13.604194
12.912812
12.33856
11.652949
11.073332
10.3927
9.8084725
9.1321002
8.5439475
7.8711808
7.2797299
6.6099664
6.0157965
5.348478
4.7521283
4.0867326
3.4887104
2.8247433
2.2255306
1.5625181
0.96257969
0.30006545
32.160999
30.900464
30.327066
29.315254
28.886262
27.99349
27.579242
26.730642
26.299023
25.477293
25.024313
24.22455
23.751522
22.97099
22.480083
21.716445
21.209755
20.460948
19.940382
19.204584
18.671843
17.947448
17.404036
16.689629
16.136874
15.431206
14.870281
14.172248
13.604194
12.912812
12.33856
11.652949
11.073332
10.3927
9.8084725
9.1321002
8.5439475
7.8711808
7.2797299
6.6099664
6.0157965
5.348478
4.7521283
4.0867326
3.4887104
2.8247433
2.2255306
1.5625181
0.96257969
0.30006545
32.161294
30.900419
30.327054
29.315244
28.886257
27.993487
27.579241
26.730641
26.299023
25.477292
25.024313
24.22455
23.751522
22.97099
22.480083
21.716445
21.209755
20.460948
19.940382
19.204584
18.671843
17.947448
17.404036
16.689629
16.136874
15.431206
14.870281
14.172248
13.604194
12.912812
12.33856
11.652949
11.073332
10.3927
9.8084725
9.1321002
8.5439475
7.8711807
7.2797299
6.6099664
6.0157965
5.348478
4.7521283
4.0867326
3.4887104
2.8247433
2.2255307
1.5625181
0.96257972
0.30006544
32.161371
30.900562
30.327054
29.315229
28.886246
27.993482
27.579239
26.73064
26.299023
25.477292
25.024313
24.224549
23.751522
22.97099
22.480083
21.716445
21.209755
20.460948
19.940382
19.204584
18.671843
17.947448
17.404036
16.689629
16.136874
15.431206
14.870281
14.172248
13.604194
12.912812
12.33856
11.652949
11.073332
10.3927
9.8084725
9.1321002
8.5439475
7.8711807
7.2797299
6.6099664
6.0157965
5.348478
4.7521283
4.0867326
3.4887104
2.8247433
2.2255307
1.5625181
0.96257978
0.30006542
32.161955
30.900624
30.327048
29.315212
28.886234
27.993476
27.579237
26.730638
26.299023
25.477292
25.024312
24.224549
23.751521
22.97099
22.480083
21.716445
21.209755
20.460948
19.940382
19.204584
18.671843
17.947448
17.404036
16.689629
16.136874
15.431206
14.870281
14.172248
13.604194
12.912812
12.33856
11.652949
11.073332
10.3927
9.8084724
9.1321003
8.5439475
7.8711808
7.2797299
6.6099664
6.0157965
5.348478
4.7521283
4.0867326
3.4887104
2.8247433
2.2255307
1.5625181
0.96257982
0.3000654
32.162352
30.900859
30.327073
29.315198
28.88622
27.993469
27.579235
26.730636
26.299024
25.477292
25.024311
24.224549
23.751521
22.97099
22.480083
21.716445
21.209755
20.460948
19.940382
19.204584
18.671843
17.947448
17.404036
16.689629
16.136873
15.431206
14.870281
14.172248
13.604194
12.912812
12.33856
11.652949
11.073332
10.3927
9.8084724
9.1321003
8.5439475
7.8711808
7.2797299
6.6099664
6.0157965
5.348478
4.7521283
4.0867326
3.4887104
2.8247433
2.2255307
1.5625181
0.96257983
0.30006539
32.163311
30.901018
30.32711
29.31519
28.886209
27.993463
27.579233
26.730633
26.299025
25.477291
25.02431
24.224548
23.751521
22.97099
22.480083
21.716445
21.209755
20.460948
19.940382
19.204585
18.671843
17.947448
17.404036
16.689629
16.136873
15.431206
14.870281
14.172248
13.604194
12.912812
12.33856
11.652949
11.073332
10.3927
9.8084724
9.1321003
8.5439475
7.8711808
7.2797299
6.6099664
6.0157964
5.348478
4.7521283
4.0867326
3.4887104
2.8247433
2.2255307
1.5625181
0.96257982
0.30006539
32.164032
30.901381
30.3272
29.315194
28.886201
27.993457
27.579232
26.73063
26.299026
25.47729
25.024309
24.224548
23.751521
22.97099
22.480083
21.716446
21.209755
20.460949
19.940382
19.204585
18.671843
17.947449
17.404036
16.689629
16.136873
15.431206
14.870281
14.172248
13.604194
12.912812
12.33856
11.652949
11.073332
10.3927
9.8084723
9.1321003
8.5439474
7.8711808
7.2797298
6.6099664
6.0157964
5.3484781
4.7521283
4.0867326
3.4887103
2.8247434
2.2255306
1.5625181
0.96257979
0.3000654
32.165377
30.90169
30.32732
29.315213
28.886198
27.993454
27.579233
26.730628
26.299028
25.477288
25.024309
24.224548
23.751521
22.970991
22.480083
21.716446
21.209755
20.460949
19.940382
19.204585
18.671843
17.947449
17.404036
16.689629
16.136873
15.431206
14.870281
14.172248
13.604194
12.912812
12.33856
11.652949
11.073332
10.3927
9.8084723
9.1321004
8.5439474
7.8711809
7.2797298
6.6099665
6.0157964
5.3484781
4.7521282
4.0867327
3.4887103
2.8247434
2.2255306
1.5625181
0.96257973
0.30006541
32.166432
30.902245
30.327508
29.31525
28.886201
27.993452
27.579235
26.730625
26.29903
25.477286
25.024308
24.224548
23.75152
22.970991
22.480083
21.716446
21.209755
20.460949
19.940382
19.204585
18.671843
17.947449
17.404036
16.68963
16.136873
15.431207
14.870281
14.172248
13.604194
12.912812
12.33856
11.652949
11.073332
10.3927
9.8084723
9.1321004
8.5439474
7.8711809
7.2797298
6.6099665
6.0157963
5.3484781
4.7521282
4.0867327
3.4887103
2.8247434
2.2255306
1.5625181
0.96257967
0.30006544
32.168092
30.902725
30.327734
29.315307
28.88621
27.993452
27.579238
26.730623
26.299032
25.477283
25.024307
24.224548
23.75152
22.970991
22.480083
21.716446
21.209755
20.460949
19.940382
19.204585
18.671843
17.947449
17.404036
16.68963
16.136873
15.431207
14.87028
14.172248
13.604194
12.912812
12.33856
11.652949
11.073332
10.3927
9.8084722
9.1321005
8.5439473
7.871181
7.2797297
6.6099666
6.0157963
5.3484782
4.7521282
4.0867327
3.4887102
2.8247435
2.2255305
1.5625181
0.96257958
0.30006546
32.169603
30.903511
30.328036
29.315383
28.886227
27.993455
27.579243
26.730622
26.299034
25.477281
25.024306
24.224548
23.75152
22.970991
22.480083
21.716446
21.209755
20.460949
19.940382
19.204585
18.671843
17.947449
17.404035
16.68963
16.136873
15.431207
14.87028
14.172248
13.604194
12.912813
12.33856
11.652949
11.073332
10.3927
9.8084721
9.1321005
8.5439473
7.871181
7.2797297
6.6099666
6.0157963
5.3484782
4.7521281
4.0867328
3.4887102
2.8247435
2.2255305
1.5625182
0.96257949
0.30006549
32.171507
30.904181
30.328382
29.315482
28.886252
27.99346
27.579249
26.73062
26.299035
25.477279
25.024305
24.224548
23.75152
22.970992
22.480083
21.716447
21.209755
20.460949
19.940381
19.204585
18.671842
17.947449
17.404035
16.68963
16.136873
15.431207
14.87028
14.172248
13.604194
12.912813
12.33856
11.652949
11.073332
10.3927
9.8084721
9.1321006
8.5439472
7.8711811
7.2797296
6.6099667
6.0157962
5.3484783
4.7521281
4.0867328
3.4887101
2.8247436
2.2255305
1.5625182
0.96257938
0.30006552
32.173636
30.905215
30.328807
29.315603
28.886285
27.993467
27.579257
26.730619
26.299035
25.477277
25.024304
24.224548
23.751519
22.970992
22.480082
21.716447
21.209755
20.46095
19.940381
19.204586
18.671842
17.947449
17.404035
16.68963
16.136873
15.431207
14.87028
14.172248
13.604194
12.912813
12.338559
11.652949
11.073332
10.3927
9.808472
9.1321007
8.5439471
7.8711812
7.2797295
6.6099667
6.0157961
5.3484783
4.752128
4.0867329
3.4887101
2.8247436
2.2255304
1.5625183
0.96257926
0.30006556
32.175885
30.906151
30.329293
29.315751
28.886328
27.993477
27.579268
26.730618
26.299035
25.477276
25.024303
24.224548
23.751519
22.970992
22.480082
21.716447
21.209754
20.46095
19.940381
19.204586
18.671842
17.947449
17.404035
16.68963
16.136873
15.431207
14.87028
14.172249
13.604194
12.912813
12.338559
11.652949
11.073332
10.3927
9.8084719
9.1321008
8.543947
7.8711812
7.2797295
6.6099668
6.0157961
5.3484784
4.7521279
4.086733
3.48871
2.8247437
2.2255303
1.5625183
0.96257912
0.3000656
32.178717
30.907471
30.32986
29.315925
28.88638
27.99349
27.579281
26.730616
26.299034
25.477275
25.024303
24.224548
23.751519
22.970993
22.480082
21.716447
21.209754
20.46095
19.940381
19.204586
18.671842
17.94745
17.404035
16.68963
16.136872
15.431207
14.87028
14.172249
13.604193
12.912813
12.338559
11.65295
11.073332
10.3927
9.8084718
9.1321009
8.5439469
7.8711813
7.2797294
6.6099669
6.015796
5.3484785
4.7521279
4.086733
3.4887099
2.8247438
2.2255303
1.5625184
0.96257898
0.30006564
32.181494
30.908747
30.330506
29.31613
28.886444
27.993507
27.579295
26.730613
26.299033
25.477274
25.024302
24.224549
23.751519
22.970993
22.480082
21.716448
21.209754
20.46095
19.940381
19.204586
18.671842
17.94745
17.404035
16.68963
16.136872
15.431207
14.87028
14.172249
13.604193
12.912813
12.338559
11.65295
11.073332
10.3927
9.8084717
9.132101
8.5439469
7.8711814
7.2797293
6.609967
6.0157959
5.3484786
4.7521278
4.0867331
3.4887099
2.8247438
2.2255302
1.5625184
0.96257882
0.30006568
32.185189
30.910394
30.331226
29.316363
28.886518
27.993526
27.579311
26.730611
26.299032
25.477274
25.024302
24.224549
23.751518
22.970993
22.480082
21.716448
21.209754
20.460951
19.94038
19.204586
18.671841
17.94745
17.404035
16.689631
16.136872
15.431208
14.87028
14.172249
13.604193
12.912813
12.338559
11.65295
11.073331
10.392701
9.8084716
9.1321011
8.5439468
7.8711815
7.2797292
6.6099671
6.0157958
5.3484787
4.7521277
4.0867332
3.4887098
2.8247439
2.2255301
1.5625185
0.96257866
0.30006572
32.188633
30.912047
30.332038
29.316627
28.886602
27.993549
27.579327
26.730608
26.299032
25.477275
25.024302
24.22455
23.751518
22.970994
22.480081
21.716449
21.209753
20.460951
19.94038
19.204587
18.671841
17.94745
17.404034
16.689631
16.136872
15.431208
14.870279
14.172249
13.604193
12.912813
12.338559
11.65295
11.073331
10.392701
9.8084715
9.1321012
8.5439466
7.8711816
7.2797291
6.6099672
6.0157957
5.3484787
4.7521276
4.0867333
3.4887097
2.824744
2.2255301
1.5625186
0.96257848
0.30006577
32.193399
30.91404
30.332913
29.31691
28.886695
27.993574
27.579342
26.730606
26.299031
25.477276
25.024301
24.22455
23.751518
22.970994
22.480081
21.716449
21.209753
20.460951
19.94038
19.204587
18.671841
17.947451
17.404034
16.689631
16.136872
15.431208
14.870279
14.172249
13.604193
12.912814
12.338559
11.65295
11.073331
10.392701
9.8084713
9.1321013
8.5439465