/*--------------------------------*- C++ -*----------------------------------*\
| =========                 |                                                 |
| \\      /  F ield         | OpenFOAM: The Open Source CFD Toolbox           |
|  \\    /   O peration     | Version:  2312                                  |
|   \\  /    A nd           | Website:  www.openfoam.com                      |
|    \\/     M anipulation  |                                                 |
\*---------------------------------------------------------------------------*/
FoamFile
{
    version     2.0;
    format      ascii;
    arch        "LSB;label=32;scalar=64";
    class       volSymmTensorField;
    location    "6";
    object      sigma;
}
// * * * * * * * * * * * * * * * * * * * * * * * * * * * * * * * * * * * * * //

dimensions      [0 2 -2 0 0 0 0];

internalField   nonuniform List<symmTensor> 
4000
(
(-2.2567889 -1.0093647 0 -0.4073867 0 0)
(-5.661271 -0.44111203 0 -0.0029457267 0 0)
(-2.9222171 -0.31318737 0 -0.00085863339 0 0)
(-3.121539 -0.32247556 0 1.0681923e-05 0 0)
(-2.9351672 -0.31262514 0 2.1710417e-05 0 0)
(-3.0390269 -0.31854708 0 -5.4839182e-05 0 0)
(-2.9197995 -0.31177392 0 3.5278767e-05 0 0)
(-3.0032058 -0.31660722 0 -4.336175e-05 0 0)
(-2.9227422 -0.31193661 0 3.8664211e-05 0 0)
(-2.9940164 -0.31609848 0 -3.7809269e-05 0 0)
(-2.9272589 -0.31219744 0 3.5311605e-05 0 0)
(-2.9891157 -0.31581869 0 -3.355253e-05 0 0)
(-2.9309632 -0.31241453 0 3.1470547e-05 0 0)
(-2.9853445 -0.31560027 0 -2.9746595e-05 0 0)
(-2.9341936 -0.31260447 0 2.7960234e-05 0 0)
(-2.9821552 -0.31541465 0 -2.639037e-05 0 0)
(-2.9370765 -0.31277382 0 2.4847954e-05 0 0)
(-2.9793765 -0.31525276 0 -2.3451677e-05 0 0)
(-2.9396436 -0.31292436 0 2.2108592e-05 0 0)
(-2.9769286 -0.31511019 0 -2.0876721e-05 0 0)
(-2.9419263 -0.31305796 0 1.9701907e-05 0 0)
(-2.9747605 -0.31498403 0 -1.8618374e-05 0 0)
(-2.9439577 -0.31317663 0 1.7589143e-05 0 0)
(-2.9728329 -0.31487201 0 -1.6637775e-05 0 0)
(-2.9457692 -0.31328226 0 1.5736344e-05 0 0)
(-2.9711137 -0.31477223 0 -1.4902644e-05 0 0)
(-2.9473886 -0.31337649 0 1.4114457e-05 0 0)
(-2.9695757 -0.3146831 0 -1.3385859e-05 0 0)
(-2.9488405 -0.3134608 0 1.269872e-05 0 0)
(-2.9681954 -0.31460325 0 -1.2064426e-05 0 0)
(-2.9501464 -0.31353646 0 1.1467984e-05 0 0)
(-2.9669521 -0.31453148 0 -1.0918725e-05 0 0)
(-2.9513254 -0.31360459 0 1.0404148e-05 0 0)
(-2.9658276 -0.31446673 0 -9.9319725e-06 0 0)
(-2.9523948 -0.31366618 0 9.4917163e-06 0 0)
(-2.9648055 -0.31440805 0 -9.0898318e-06 0 0)
(-2.95337 -0.31372215 0 8.7174911e-06 0 0)
(-2.9638707 -0.31435459 0 -8.3801506e-06 0 0)
(-2.954265 -0.31377329 0 8.0703577e-06 0 0)
(-2.9630098 -0.31430557 0 -7.7927893e-06 0 0)
(-2.9550929 -0.31382035 0 7.5411739e-06 0 0)
(-2.9622103 -0.3142603 0 -7.3195851e-06 0 0)
(-2.9558656 -0.313864 0 7.1226736e-06 0 0)
(-2.9614603 -0.31421809 0 -6.9548426e-06 0 0)
(-2.9565931 -0.31390483 0 6.8095383e-06 0 0)
(-2.9607466 -0.31417823 0 -6.6937321e-06 0 0)
(-2.9572872 -0.31394338 0 6.615424e-06 0 0)
(-2.9600931 -0.31414169 0 -6.4822504e-06 0 0)
(-2.9581305 -0.31398857 0 6.712657e-06 0 0)
(-2.9600777 -0.31414054 0 -6.5075563e-06 0 0)
(-1.9542526 -0.91551405 0 -0.38065567 0 0)
(-4.8687532 -0.42129949 0 -0.0080975159 0 0)
(-2.9850782 -0.3212879 0 -0.0025752411 0 0)
(-2.8829852 -0.30962545 0 -2.1837016e-05 0 0)
(-2.720689 -0.30102942 0 -5.7491849e-06 0 0)
(-2.8103903 -0.30650766 0 -7.4918559e-05 0 0)
(-2.7107705 -0.30035959 0 1.9297891e-05 0 0)
(-2.7796101 -0.30468527 0 -4.9349979e-05 0 0)
(-2.7114356 -0.3003653 0 3.9467334e-05 0 0)
(-2.7716263 -0.30421017 0 -4.1085797e-05 0 0)
(-2.7150471 -0.30059192 0 3.797956e-05 0 0)
(-2.7675062 -0.30395561 0 -3.6575584e-05 0 0)
(-2.7181493 -0.30079101 0 3.4135563e-05 0 0)
(-2.7643146 -0.30375386 0 -3.2439719e-05 0 0)
(-2.7208714 -0.30096653 0 3.0407423e-05 0 0)
(-2.7616045 -0.30358142 0 -2.8761442e-05 0 0)
(-2.723308 -0.30112344 0 2.7051022e-05 0 0)
(-2.759242 -0.30343093 0 -2.5552127e-05 0 0)
(-2.7254816 -0.30126314 0 2.4080511e-05 0 0)
(-2.7571601 -0.30329834 0 -2.2746236e-05 0 0)
(-2.7274168 -0.30138727 0 2.1464839e-05 0 0)
(-2.7553149 -0.30318092 0 -2.0287086e-05 0 0)
(-2.7291408 -0.30149764 0 1.9166173e-05 0 0)
(-2.7536733 -0.30307658 0 -1.8130579e-05 0 0)
(-2.7306793 -0.30159595 0 1.7149273e-05 0 0)
(-2.7522085 -0.30298357 0 -1.6241222e-05 0 0)
(-2.7320557 -0.30168373 0 1.5383292e-05 0 0)
(-2.7508974 -0.30290045 0 -1.4589555e-05 0 0)
(-2.7332903 -0.3017623 0 1.3841674e-05 0 0)
(-2.7497203 -0.30282596 0 -1.3150688e-05 0 0)
(-2.7344014 -0.30183283 0 1.2501624e-05 0 0)
(-2.7486597 -0.30275898 0 -1.1903392e-05 0 0)
(-2.7354051 -0.30189636 0 1.1343577e-05 0 0)
(-2.7477 -0.30269853 0 -1.0829502e-05 0 0)
(-2.736316 -0.30195382 0 1.0350783e-05 0 0)
(-2.7468272 -0.30264374 0 -9.913527e-06 0 0)
(-2.7371472 -0.30200605 0 9.5090066e-06 0 0)
(-2.7460286 -0.30259381 0 -9.1424007e-06 0 0)
(-2.7379108 -0.30205379 0 8.8063583e-06 0 0)
(-2.7452926 -0.30254801 0 -8.5053543e-06 0 0)
(-2.7386177 -0.30209774 0 8.2332745e-06 0 0)
(-2.7446084 -0.30250569 0 -7.9940239e-06 0 0)
(-2.7392784 -0.30213854 0 7.7824672e-06 0 0)
(-2.743966 -0.30246623 0 -7.6039656e-06 0 0)
(-2.7399017 -0.30217673 0 7.448362e-06 0 0)
(-2.7433533 -0.30242893 0 -7.3331694e-06 0 0)
(-2.7404938 -0.30221254 0 7.2658009e-06 0 0)
(-2.7427736 -0.30239332 0 -7.0524761e-06 0 0)
(-2.7411661 -0.30224987 0 7.7403025e-06 0 0)
(-2.7426406 -0.30238493 0 -6.9965066e-06 0 0)
(-1.8562182 -0.87288892 0 -0.35687529 0 0)
(-4.2738604 -0.3945018 0 -0.0097033584 0 0)
(-2.8988903 -0.32061354 0 -0.0038754764 0 0)
(-2.752737 -0.30250555 0 -0.00012027017 0 0)
(-2.5819965 -0.29324507 0 -2.7721907e-05 0 0)
(-2.6619371 -0.2984123 0 -8.5920109e-05 0 0)
(-2.5741126 -0.29267123 0 3.117357e-06 0 0)
(-2.6350779 -0.29671604 0 -5.0032549e-05 0 0)
(-2.5742156 -0.29261748 0 3.5852862e-05 0 0)
(-2.6278093 -0.29625856 0 -3.9489023e-05 0 0)
(-2.5773408 -0.29282583 0 3.6170272e-05 0 0)
(-2.6241344 -0.29601932 0 -3.5194849e-05 0 0)
(-2.5800973 -0.29301429 0 3.2699461e-05 0 0)
(-2.6212953 -0.29582864 0 -3.121656e-05 0 0)
(-2.5825217 -0.29318072 0 2.9182265e-05 0 0)
(-2.6188803 -0.29566514 0 -2.7657576e-05 0 0)
(-2.5846935 -0.29332961 0 2.5982718e-05 0 0)
(-2.6167743 -0.29552236 0 -2.456367e-05 0 0)
(-2.5866325 -0.29346226 0 2.3138316e-05 0 0)
(-2.6149179 -0.29539652 0 -2.1864445e-05 0 0)
(-2.5883602 -0.29358022 0 2.0628712e-05 0 0)
(-2.613272 -0.29528502 0 -1.9500457e-05 0 0)
(-2.5899002 -0.29368518 0 1.842118e-05 0 0)
(-2.6118073 -0.29518588 0 -1.7427658e-05 0 0)
(-2.5912752 -0.29377873 0 1.6483303e-05 0 0)
(-2.6104998 -0.29509747 0 -1.5611542e-05 0 0)
(-2.5925057 -0.29386228 0 1.4786069e-05 0 0)
(-2.6093294 -0.29501842 0 -1.4023793e-05 0 0)
(-2.5936098 -0.29393711 0 1.330427e-05 0 0)
(-2.6082783 -0.29494754 0 -1.2640566e-05 0 0)
(-2.5946036 -0.2940043 0 1.201617e-05 0 0)
(-2.6073311 -0.2948838 0 -1.1441539e-05 0 0)
(-2.5955015 -0.29406484 0 1.0903076e-05 0 0)
(-2.6064739 -0.29482625 0 -1.0409333e-05 0 0)
(-2.5963164 -0.29411962 0 9.9489853e-06 0 0)
(-2.6056941 -0.29477406 0 -9.5291526e-06 0 0)
(-2.5970602 -0.29416942 0 9.1403358e-06 0 0)
(-2.6049805 -0.29472648 0 -8.7885808e-06 0 0)
(-2.5977436 -0.29421496 0 8.4658915e-06 0 0)
(-2.6043225 -0.29468282 0 -8.177516e-06 0 0)
(-2.5983764 -0.29425691 0 7.9168241e-06 0 0)
(-2.6037107 -0.29464244 0 -7.6883969e-06 0 0)
(-2.5989681 -0.29429588 0 7.4867773e-06 0 0)
(-2.6031358 -0.29460477 0 -7.3184732e-06 0 0)
(-2.5995265 -0.29433239 0 7.1707025e-06 0 0)
(-2.6025871 -0.29456914 0 -7.0702495e-06 0 0)
(-2.6000568 -0.29436658 0 7.0132249e-06 0 0)
(-2.6020626 -0.29453462 0 -6.7826369e-06 0 0)
(-2.6006454 -0.29440027 0 7.7236423e-06 0 0)
(-2.6018852 -0.2945247 0 -7.1644142e-06 0 0)
(-1.7598663 -0.81784201 0 -0.32346247 0 0)
(-3.8592304 -0.37709209 0 -0.011331641 0 0)
(-2.7964722 -0.31969875 0 -0.0053404482 0 0)
(-2.6293258 -0.29562274 0 -0.00022373308 0 0)
(-2.4496607 -0.28561614 0 -6.3693652e-05 0 0)
(-2.5185886 -0.29033123 0 -9.5341468e-05 0 0)
(-2.4404282 -0.28497727 0 -1.7716568e-05 0 0)
(-2.494989 -0.28875122 0 -4.6928047e-05 0 0)
(-2.4401231 -0.28487014 0 2.8501844e-05 0 0)
(-2.4883344 -0.28831056 0 -3.4410257e-05 0 0)
(-2.4428359 -0.28505973 0 3.1138584e-05 0 0)
(-2.4850175 -0.2880861 0 -3.076372e-05 0 0)
(-2.4453023 -0.28523741 0 2.8402592e-05 0 0)
(-2.4824633 -0.28790619 0 -2.7298984e-05 0 0)
(-2.447481 -0.28539478 0 2.5420434e-05 0 0)
(-2.4802861 -0.2877513 0 -2.4163489e-05 0 0)
(-2.4494343 -0.2855357 0 2.2663249e-05 0 0)
(-2.4783859 -0.28761593 0 -2.1451004e-05 0 0)
(-2.4511797 -0.28566137 0 2.0194433e-05 0 0)
(-2.4767104 -0.28749656 0 -1.9091679e-05 0 0)
(-2.4527359 -0.28577322 0 1.8009155e-05 0 0)
(-2.4752245 -0.28739073 0 -1.7027366e-05 0 0)
(-2.4541238 -0.2858728 0 1.6083957e-05 0 0)
(-2.4739019 -0.28729658 0 -1.5217552e-05 0 0)
(-2.4553635 -0.28596161 0 1.439261e-05 0 0)
(-2.4727211 -0.28721259 0 -1.3631676e-05 0 0)
(-2.456473 -0.28604097 0 1.2910686e-05 0 0)
(-2.4716641 -0.28713746 0 -1.2245039e-05 0 0)
(-2.4574687 -0.28611206 0 1.16166e-05 0 0)
(-2.470715 -0.28707007 0 -1.1036929e-05 0 0)
(-2.4583649 -0.28617592 0 1.0491584e-05 0 0)
(-2.4698597 -0.28700945 0 -9.9896926e-06 0 0)
(-2.4591747 -0.28623349 0 9.5194312e-06 0 0)
(-2.4690858 -0.2869547 0 -9.0882238e-06 0 0)
(-2.4599095 -0.28628559 0 8.6862456e-06 0 0)
(-2.468382 -0.28690503 0 -8.3196731e-06 0 0)
(-2.4605802 -0.28633298 0 7.9802689e-06 0 0)
(-2.467738 -0.28685972 0 -7.6732972e-06 0 0)
(-2.4611963 -0.28637634 0 7.391821e-06 0 0)
(-2.4671444 -0.28681812 0 -7.1404431e-06 0 0)
(-2.4617668 -0.28641631 0 6.9134499e-06 0 0)
(-2.4665924 -0.28677962 0 -6.7148301e-06 0 0)
(-2.4623002 -0.28645347 0 6.5399964e-06 0 0)
(-2.466074 -0.28674368 0 -6.3953881e-06 0 0)
(-2.4628037 -0.28648834 0 6.2664003e-06 0 0)
(-2.4655793 -0.28670966 0 -6.1879219e-06 0 0)
(-2.4632811 -0.28652096 0 6.145133e-06 0 0)
(-2.4651016 -0.28667616 0 -5.8854007e-06 0 0)
(-2.4637967 -0.28655124 0 7.09851e-06 0 0)
(-2.4648836 -0.28666433 0 -6.6003681e-06 0 0)
(-1.7166497 -0.78830971 0 -0.30475174 0 0)
(-3.4451766 -0.35855488 0 -0.012600394 0 0)
(-2.6556516 -0.31594338 0 -0.0065883245 0 0)
(-2.505673 -0.28870973 0 -0.00032542913 0 0)
(-2.3236156 -0.27810891 0 -0.00010594648 0 0)
(-2.3801478 -0.282274 0 -0.00010606853 0 0)
(-2.3099898 -0.27725792 0 -3.6281213e-05 0 0)
(-2.3590672 -0.28079439 0 -4.3766822e-05 0 0)
(-2.3093194 -0.27711268 0 2.1627647e-05 0 0)
(-2.3529325 -0.28037009 0 -2.9465239e-05 0 0)
(-2.3116796 -0.27728587 0 2.6344175e-05 0 0)
(-2.3499156 -0.28015909 0 -2.646319e-05 0 0)
(-2.3138961 -0.27745381 0 2.4263031e-05 0 0)
(-2.3476054 -0.27998916 0 -2.3502857e-05 0 0)
(-2.315866 -0.27760297 0 2.1783604e-05 0 0)
(-2.345633 -0.27984227 0 -2.077947e-05 0 0)
(-2.3176337 -0.27773663 0 1.9450737e-05 0 0)
(-2.3439097 -0.27971375 0 -1.8436261e-05 0 0)
(-2.3192143 -0.27785594 0 1.7343904e-05 0 0)
(-2.3423896 -0.27960034 0 -1.6405584e-05 0 0)
(-2.3206244 -0.2779622 0 1.5471725e-05 0 0)
(-2.3410412 -0.27949974 0 -1.4631054e-05 0 0)
(-2.3218826 -0.27805688 0 1.3819385e-05 0 0)
(-2.3398408 -0.2794102 0 -1.3075668e-05 0 0)
(-2.3230067 -0.27814135 0 1.2366491e-05 0 0)
(-2.3387691 -0.27933029 0 -1.171265e-05 0 0)
(-2.3240129 -0.27821686 0 1.1092942e-05 0 0)
(-2.3378098 -0.2792588 0 -1.052074e-05 0 0)
(-2.3249159 -0.27828451 0 9.980577e-06 0 0)
(-2.3369485 -0.27919466 0 -9.4822009e-06 0 0)
(-2.3257286 -0.2783453 0 9.0134407e-06 0 0)
(-2.3361725 -0.27913695 0 -8.5819163e-06 0 0)
(-2.3264627 -0.27840011 0 8.1776857e-06 0 0)
(-2.3354706 -0.27908481 0 -7.8069427e-06 0 0)
(-2.3271289 -0.27844973 0 7.4614144e-06 0 0)
(-2.3348323 -0.2790375 0 -7.1462721e-06 0 0)
(-2.3277367 -0.27849488 0 6.8545638e-06 0 0)
(-2.3342485 -0.27899433 0 -6.5907217e-06 0 0)
(-2.3282949 -0.27853621 0 6.3488816e-06 0 0)
(-2.3337106 -0.27895467 0 -6.1329393e-06 0 0)
(-2.3288117 -0.27857432 0 5.9381054e-06 0 0)
(-2.3332107 -0.27891795 0 -5.7676804e-06 0 0)
(-2.3292945 -0.27860978 0 5.6179689e-06 0 0)
(-2.3327414 -0.27888364 0 -5.4949749e-06 0 0)
(-2.3297503 -0.27864308 0 5.3827986e-06 0 0)
(-2.3322939 -0.27885117 0 -5.3230003e-06 0 0)
(-2.3301818 -0.27867425 0 5.2875082e-06 0 0)
(-2.3318589 -0.27881879 0 -5.0044039e-06 0 0)
(-2.3306369 -0.27870178 0 6.4126404e-06 0 0)
(-2.3316154 -0.27880546 0 -5.979036e-06 0 0)
(-1.6438532 -0.7375184 0 -0.27358444 0 0)
(-3.0577011 -0.3396858 0 -0.013252209 0 0)
(-2.5017863 -0.31095059 0 -0.0076925859 0 0)
(-2.3788831 -0.28155689 0 -0.00041878744 0 0)
(-2.2015692 -0.27062635 0 -0.00015299115 0 0)
(-2.2461803 -0.27422844 0 -0.00011767287 0 0)
(-2.1828761 -0.269513 0 -5.1602664e-05 0 0)
(-2.22713 -0.27283943 0 -4.0998256e-05 0 0)
(-2.1819308 -0.26934718 0 1.5988919e-05 0 0)
(-2.2214719 -0.27243423 0 -2.5293179e-05 0 0)
(-2.1839939 -0.26950689 0 2.2424536e-05 0 0)
(-2.2187244 -0.27223635 0 -2.2885756e-05 0 0)
(-2.1859908 -0.26966602 0 2.0844869e-05 0 0)
(-2.2166317 -0.27207594 0 -2.0357918e-05 0 0)
(-2.1877766 -0.26980758 0 1.877171e-05 0 0)
(-2.2148416 -0.27193661 0 -1.7976557e-05 0 0)
(-2.1893802 -0.26993446 0 1.6789088e-05 0 0)
(-2.2132757 -0.27181452 0 -1.593822e-05 0 0)
(-2.1908147 -0.2700478 0 1.4981723e-05 0 0)
(-2.2118936 -0.27170671 0 -1.4179062e-05 0 0)
(-2.1920952 -0.27014881 0 1.3368569e-05 0 0)
(-2.2106673 -0.27161103 0 -1.2644224e-05 0 0)
(-2.1932381 -0.27023886 0 1.1942039e-05 0 0)
(-2.2095755 -0.27152584 0 -1.1299488e-05 0 0)
(-2.1942595 -0.27031923 0 1.0686589e-05 0 0)
(-2.2086008 -0.27144979 0 -1.0121107e-05 0 0)
(-2.1951738 -0.2703911 0 9.5856634e-06 0 0)
(-2.2077284 -0.27138173 0 -9.0906029e-06 0 0)
(-2.1959943 -0.2704555 0 8.6238895e-06 0 0)
(-2.2069452 -0.27132067 0 -8.1926495e-06 0 0)
(-2.1967327 -0.27051338 0 7.7876047e-06 0 0)
(-2.2062398 -0.27126571 0 -7.4141989e-06 0 0)
(-2.1973997 -0.27056557 0 7.0648873e-06 0 0)
(-2.2056018 -0.27121605 0 -6.7440751e-06 0 0)
(-2.1980048 -0.27061283 0 6.4454718e-06 0 0)
(-2.2050219 -0.27117099 0 -6.1727737e-06 0 0)
(-2.1985567 -0.27065584 0 5.9206745e-06 0 0)
(-2.2044916 -0.27112985 0 -5.6923765e-06 0 0)
(-2.1990635 -0.27069523 0 5.4833893e-06 0 0)
(-2.2040032 -0.27109204 0 -5.2965621e-06 0 0)
(-2.1995324 -0.27073157 0 5.1282733e-06 0 0)
(-2.2035495 -0.27105703 0 -4.9808479e-06 0 0)
(-2.1999704 -0.27076538 0 4.8516798e-06 0 0)
(-2.2031238 -0.2710243 0 -4.7459409e-06 0 0)
(-2.2003837 -0.27079717 0 4.6470773e-06 0 0)
(-2.2027182 -0.27099332 0 -4.6018103e-06 0 0)
(-2.2007746 -0.27082695 0 4.5690647e-06 0 0)
(-2.2023218 -0.2709621 0 -4.2661105e-06 0 0)
(-2.2011772 -0.27085215 0 5.8103484e-06 0 0)
(-2.202063 -0.27094747 0 -5.418011e-06 0 0)
(-1.6079618 -0.70772777 0 -0.25519969 0 0)
(-2.6946248 -0.32335456 0 -0.014360241 0 0)
(-2.3347213 -0.30395769 0 -0.0084619392 0 0)
(-2.2451599 -0.27414998 0 -0.00058184685 0 0)
(-2.0838037 -0.2633698 0 -0.00023986379 0 0)
(-2.1174267 -0.26628272 0 -0.00013849851 0 0)
(-2.059647 -0.26178686 0 -6.744577e-05 0 0)
(-2.0993762 -0.26490055 0 -3.9086868e-05 0 0)
(-2.0581451 -0.26158252 0 1.106887e-05 0 0)
(-2.0939614 -0.26450432 0 -2.1740173e-05 0 0)
(-2.059855 -0.26172564 0 1.9125656e-05 0 0)
(-2.0914111 -0.26431698 0 -1.9838887e-05 0 0)
(-2.0616342 -0.26187564 0 1.7949918e-05 0 0)
(-2.0895043 -0.26416529 0 -1.768564e-05 0 0)
(-2.0632508 -0.26200985 0 1.6213303e-05 0 0)
(-2.0878768 -0.26403313 0 -1.5595377e-05 0 0)
(-2.0647064 -0.26213026 0 1.4526872e-05 0 0)
(-2.0864524 -0.26391718 0 -1.3815282e-05 0 0)
(-2.0660096 -0.26223789 0 1.2973607e-05 0 0)
(-2.0851947 -0.26381472 0 -1.2286253e-05 0 0)
(-2.0671734 -0.26233389 0 1.1580349e-05 0 0)
(-2.0840785 -0.26372376 0 -1.0954817e-05 0 0)
(-2.0682125 -0.2624195 0 1.0345611e-05 0 0)
(-2.0830847 -0.26364274 0 -9.7890082e-06 0 0)
(-2.0691413 -0.26249593 0 9.2579507e-06 0 0)
(-2.0821975 -0.26357039 0 -8.7675652e-06 0 0)
(-2.0699728 -0.26256429 0 8.303786e-06 0 0)
(-2.0814034 -0.26350565 0 -7.8743074e-06 0 0)
(-2.0707189 -0.26262556 0 7.4700786e-06 0 0)
(-2.0806907 -0.26344755 0 -7.0959238e-06 0 0)
(-2.0713904 -0.26268063 0 6.7450878e-06 0 0)
(-2.0800489 -0.26339524 0 -6.4211013e-06 0 0)
(-2.0719968 -0.2627303 0 6.118512e-06 0 0)
(-2.0794686 -0.26334799 0 -5.840152e-06 0 0)
(-2.0725468 -0.26277528 0 5.5814614e-06 0 0)
(-2.0789412 -0.26330508 0 -5.3448385e-06 0 0)
(-2.0730485 -0.26281623 0 5.1264131e-06 0 0)
(-2.0784592 -0.26326591 0 -4.928304e-06 0 0)
(-2.073509 -0.26285374 0 4.7472179e-06 0 0)
(-2.0780153 -0.2632299 0 -4.5850816e-06 0 0)
(-2.0739349 -0.26288836 0 4.4392841e-06 0 0)
(-2.077603 -0.26319653 0 -4.3112908e-06 0 0)
(-2.0743327 -0.26292059 0 4.1994457e-06 0 0)
(-2.0772165 -0.26316533 0 -4.1080823e-06 0 0)
(-2.0747079 -0.26295091 0 4.0203364e-06 0 0)
(-2.0768485 -0.2631358 0 -3.9869777e-06 0 0)
(-2.0750625 -0.26297934 0 3.9546417e-06 0 0)
(-2.0764874 -0.26310579 0 -3.6373696e-06 0 0)
(-2.0754192 -0.26300254 0 5.2672895e-06 0 0)
(-2.0762209 -0.26309007 0 -4.9081214e-06 0 0)
(-1.572574 -0.67466216 0 -0.23509467 0 0)
(-2.3504258 -0.30724866 0 -0.015552988 0 0)
(-2.1806958 -0.29719225 0 -0.0089869827 0 0)
(-2.0980953 -0.26554531 0 -0.00075468045 0 0)
(-1.9563587 -0.25538989 0 -0.00031004171 0 0)
(-1.9896126 -0.25819989 0 -0.00015707178 0 0)
(-1.9383631 -0.25398592 0 -8.0431656e-05 0 0)
(-1.9749592 -0.25694345 0 -3.7163368e-05 0 0)
(-1.9376294 -0.25380496 0 6.8617714e-06 0 0)
(-1.970222 -0.25657426 0 -1.8514907e-05 0 0)
(-1.9392219 -0.25394011 0 1.626843e-05 0 0)
(-1.9679257 -0.25639963 0 -1.7118234e-05 0 0)
(-1.9408359 -0.25408257 0 1.5402632e-05 0 0)
(-1.9661987 -0.25625671 0 -1.5313752e-05 0 0)
(-1.9423052 -0.25421001 0 1.394973e-05 0 0)
(-1.9647204 -0.25613152 0 -1.3485007e-05 0 0)
(-1.9436284 -0.25432427 0 1.2522538e-05 0 0)
(-1.9634245 -0.25602147 0 -1.1933831e-05 0 0)
(-1.9448131 -0.25442645 0 1.1193614e-05 0 0)
(-1.9622795 -0.25592417 0 -1.0608396e-05 0 0)
(-1.9458714 -0.25451763 0 9.9949333e-06 0 0)
(-1.9612632 -0.25583773 0 -9.4570139e-06 0 0)
(-1.9468166 -0.25459897 0 8.9300734e-06 0 0)
(-1.9603582 -0.25576073 0 -8.4497186e-06 0 0)
(-1.9476615 -0.2546716 0 7.9911261e-06 0 0)
(-1.9595503 -0.25569197 0 -7.5673844e-06 0 0)
(-1.9484179 -0.25473658 0 7.1670902e-06 0 0)
(-1.9588274 -0.25563042 0 -6.7958223e-06 0 0)
(-1.9490967 -0.25479482 0 6.4469611e-06 0 0)
(-1.9581786 -0.25557518 0 -6.1234772e-06 0 0)
(-1.9497075 -0.25484718 0 5.8206816e-06 0 0)
(-1.9575945 -0.25552545 0 -5.540559e-06 0 0)
(-1.950259 -0.2548944 0 5.2793755e-06 0 0)
(-1.9570664 -0.2554805 0 -5.03869e-06 0 0)
(-1.9507593 -0.25493718 0 4.8153659e-06 0 0)
(-1.9565866 -0.25543969 0 -4.6107498e-06 0 0)
(-1.9512154 -0.25497614 0 4.4221528e-06 0 0)
(-1.9561482 -0.25540242 0 -4.2508152e-06 0 0)
(-1.951634 -0.25501183 0 4.0944267e-06 0 0)
(-1.9557445 -0.25536815 0 -3.9541651e-06 0 0)
(-1.9520212 -0.25504478 0 3.8282438e-06 0 0)
(-1.9553698 -0.25533638 0 -3.7174289e-06 0 0)
(-1.9523826 -0.25507547 0 3.6208467e-06 0 0)
(-1.9550186 -0.25530667 0 -3.542056e-06 0 0)
(-1.9527234 -0.25510437 0 3.4641587e-06 0 0)
(-1.9546846 -0.25527854 0 -3.4409325e-06 0 0)
(-1.9530453 -0.25513148 0 3.408049e-06 0 0)
(-1.9543556 -0.25524975 0 -3.0816932e-06 0 0)
(-1.9533617 -0.25515296 0 4.7561824e-06 0 0)
(-1.9540871 -0.25523315 0 -4.4304379e-06 0 0)
(-1.5585579 -0.63779015 0 -0.20911796 0 0)
(-2.047508 -0.29278381 0 -0.016498628 0 0)
(-2.0238504 -0.28653164 0 -0.0085173876 0 0)
(-1.9641884 -0.25992375 0 -0.0015869689 0 0)
(-1.8402744 -0.24828534 0 -0.00050647671 0 0)
(-1.8679173 -0.25028694 0 -0.00019291895 0 0)
(-1.8215766 -0.24623792 0 -9.6636261e-05 0 0)
(-1.8547885 -0.24900757 0 -3.6023564e-05 0 0)
(-1.8208161 -0.24603098 0 2.9601568e-06 0 0)
(-1.850399 -0.24865029 0 -1.5619863e-05 0 0)
(-1.8221844 -0.24615302 0 1.3730233e-05 0 0)
(-1.848281 -0.2484854 0 -1.4662617e-05 0 0)
(-1.8236258 -0.24628736 0 1.3123567e-05 0 0)
(-1.8467055 -0.2483504 0 -1.3177092e-05 0 0)
(-1.8249569 -0.24640817 0 1.1916092e-05 0 0)
(-1.8453602 -0.24823179 0 -1.1585794e-05 0 0)
(-1.8261592 -0.24651654 0 1.0719418e-05 0 0)
(-1.8441806 -0.24812739 0 -1.0240667e-05 0 0)
(-1.8272363 -0.24661349 0 9.5915655e-06 0 0)
(-1.843138 -0.24803502 0 -9.0981783e-06 0 0)
(-1.8281989 -0.24670004 0 8.5677133e-06 0 0)
(-1.8422125 -0.24795295 0 -8.1086774e-06 0 0)
(-1.8290587 -0.24677727 0 7.6556546e-06 0 0)
(-1.8413883 -0.24787982 0 -7.2439943e-06 0 0)
(-1.8298274 -0.24684625 0 6.8505537e-06 0 0)
(-1.8406527 -0.2478145 0 -6.4868729e-06 0 0)
(-1.8305156 -0.24690796 0 6.143678e-06 0 0)
(-1.8399945 -0.24775604 0 -5.8248771e-06 0 0)
(-1.8311331 -0.24696328 0 5.5258241e-06 0 0)
(-1.8394039 -0.24770356 0 -5.2480107e-06 0 0)
(-1.8316887 -0.24701302 0 4.9884348e-06 0 0)
(-1.8388722 -0.24765631 0 -4.7478431e-06 0 0)
(-1.8321904 -0.24705788 0 4.5239092e-06 0 0)
(-1.8383917 -0.2476136 0 -4.3171706e-06 0 0)
(-1.8326453 -0.24709854 0 4.1256585e-06 0 0)
(-1.8379552 -0.24757482 0 -3.9498743e-06 0 0)
(-1.8330601 -0.24713556 0 3.7880995e-06 0 0)
(-1.8375563 -0.24753939 0 -3.6408665e-06 0 0)
(-1.8334407 -0.24716949 0 3.5066717e-06 0 0)
(-1.8371893 -0.2475068 0 -3.3860887e-06 0 0)
(-1.8337927 -0.24720083 0 3.2780021e-06 0 0)
(-1.8368486 -0.24747658 0 -3.1826132e-06 0 0)
(-1.8341211 -0.24723003 0 3.0996892e-06 0 0)
(-1.8365294 -0.2474483 0 -3.0320748e-06 0 0)
(-1.8344308 -0.24725755 0 2.9630944e-06 0 0)
(-1.8362262 -0.24742154 0 -2.9485055e-06 0 0)
(-1.8347231 -0.2472834 0 2.9147076e-06 0 0)
(-1.8359266 -0.24739399 0 -2.5839066e-06 0 0)
(-1.8350039 -0.24730336 0 4.2680732e-06 0 0)
(-1.8356603 -0.24737668 0 -3.980785e-06 0 0)
(-1.5683454 -0.60470974 0 -0.18546749 0 0)
(-1.8090487 -0.27936298 0 -0.016870301 0 0)
(-1.8730332 -0.27391526 0 -0.0076240065 0 0)
(-1.8273231 -0.25223366 0 -0.0019744118 0 0)
(-1.721885 -0.24046204 0 -0.00060108009 0 0)
(-1.7488984 -0.24224666 0 -0.00021064447 0 0)
(-1.7076464 -0.23842859 0 -0.00010549697 0 0)
(-1.7382029 -0.24105786 0 -3.3404672e-05 0 0)
(-1.7074305 -0.23824638 0 -4.4607745e-09 0 0)
(-1.7343481 -0.24072685 0 -1.2824705e-05 0 0)
(-1.7087014 -0.23836211 0 1.1531444e-05 0 0)
(-1.7324356 -0.24057324 0 -1.2416218e-05 0 0)
(-1.7100065 -0.23848965 0 1.1086287e-05 0 0)
(-1.7310061 -0.24044611 0 -1.1241603e-05 0 0)
(-1.711216 -0.23860431 0 1.008441e-05 0 0)
(-1.7297834 -0.24033386 0 -9.8696914e-06 0 0)
(-1.7123093 -0.2387071 0 9.0920393e-06 0 0)
(-1.7287103 -0.24023489 0 -8.7113981e-06 0 0)
(-1.7132888 -0.23879905 0 8.1447508e-06 0 0)
(-1.7277613 -0.24014726 0 -7.7340842e-06 0 0)
(-1.7141642 -0.23888115 0 7.2784966e-06 0 0)
(-1.7269187 -0.24006939 0 -6.8907061e-06 0 0)
(-1.7149462 -0.23895443 0 6.5043685e-06 0 0)
(-1.7261684 -0.23999998 0 -6.1548066e-06 0 0)
(-1.7156453 -0.23901988 0 5.8201621e-06 0 0)
(-1.7254987 -0.23993799 0 -5.5107934e-06 0 0)
(-1.7162712 -0.23907844 0 5.2191393e-06 0 0)
(-1.7248996 -0.2398825 0 -4.9477871e-06 0 0)
(-1.7168328 -0.23913095 0 4.6936987e-06 0 0)
(-1.7243622 -0.23983269 0 -4.4571852e-06 0 0)
(-1.7173381 -0.23917816 0 4.236627e-06 0 0)
(-1.7238784 -0.23978783 0 -4.0317785e-06 0 0)
(-1.7177943 -0.23922075 0 3.8414711e-06 0 0)
(-1.7234412 -0.23974728 0 -3.6654208e-06 0 0)
(-1.718208 -0.23925935 0 3.5026226e-06 0 0)
(-1.7230442 -0.23971045 0 -3.3528958e-06 0 0)
(-1.7185851 -0.23929451 0 3.2153243e-06 0 0)
(-1.7226815 -0.2396768 0 -3.0898669e-06 0 0)
(-1.718931 -0.23932674 0 2.9756876e-06 0 0)
(-1.7223477 -0.23964583 0 -2.8728682e-06 0 0)
(-1.7192509 -0.23935652 0 2.7808446e-06 0 0)
(-1.7220381 -0.23961711 0 -2.6993602e-06 0 0)
(-1.7195492 -0.23938428 0 2.628708e-06 0 0)
(-1.7217481 -0.23959022 0 -2.5710728e-06 0 0)
(-1.7198306 -0.23941045 0 2.5102353e-06 0 0)
(-1.7214729 -0.23956478 0 -2.5029319e-06 0 0)
(-1.7200961 -0.23943508 0 2.4682264e-06 0 0)
(-1.7212002 -0.23953847 0 -2.1370373e-06 0 0)
(-1.7203453 -0.23945372 0 3.8010734e-06 0 0)
(-1.7209393 -0.23952063 0 -3.5593389e-06 0 0)
(-1.5803538 -0.57487473 0 -0.16420373 0 0)
(-1.6365021 -0.26410043 0 -0.015400163 0 0)
(-1.7226055 -0.26647564 0 -0.009098688 0 0)
(-1.6978884 -0.24351947 0 -0.0020056488 0 0)
(-1.6102144 -0.23262264 0 -0.00064023427 0 0)
(-1.6348044 -0.23421072 0 -0.00021165824 0 0)
(-1.5976953 -0.23061484 0 -0.00010744192 0 0)
(-1.6255952 -0.23311075 0 -2.8744311e-05 0 0)
(-1.5976695 -0.23045797 0 -1.9118121e-06 0 0)
(-1.6221266 -0.23280614 0 -1.0033542e-05 0 0)
(-1.5988181 -0.23056847 0 9.6545658e-06 0 0)
(-1.62039 -0.23266343 0 -1.0345504e-05 0 0)
(-1.599996 -0.23068969 0 9.2632359e-06 0 0)
(-1.619092 -0.23254382 0 -9.4814987e-06 0 0)
(-1.6010945 -0.23079855 0 8.4303278e-06 0 0)
(-1.6179811 -0.23243767 0 -8.3140388e-06 0 0)
(-1.6020883 -0.23089601 0 7.6190578e-06 0 0)
(-1.6170053 -0.23234391 0 -7.3260055e-06 0 0)
(-1.6029787 -0.23098317 0 6.8343272e-06 0 0)
(-1.6161419 -0.23226085 0 -6.4983881e-06 0 0)
(-1.6037743 -0.231061 0 6.1105779e-06 0 0)
(-1.6153752 -0.232187 0 -5.7873478e-06 0 0)
(-1.6044851 -0.23113047 0 5.4613479e-06 0 0)
(-1.6146926 -0.23212119 0 -5.1681063e-06 0 0)
(-1.6051206 -0.23119253 0 4.8866705e-06 0 0)
(-1.6140834 -0.2320624 0 -4.6265713e-06 0 0)
(-1.6056895 -0.23124806 0 4.3815674e-06 0 0)
(-1.6135385 -0.23200977 0 -4.153258e-06 0 0)
(-1.6061999 -0.23129785 0 3.9398706e-06 0 0)
(-1.6130497 -0.23196253 0 -3.7408178e-06 0 0)
(-1.6066592 -0.23134262 0 3.5555782e-06 0 0)
(-1.6126098 -0.23191999 0 -3.383145e-06 0 0)
(-1.6070737 -0.23138302 0 3.2232751e-06 0 0)
(-1.6122123 -0.23188152 0 -3.0750505e-06 0 0)
(-1.6074497 -0.23141964 0 2.9382405e-06 0 0)
(-1.6118514 -0.23184657 0 -2.812135e-06 0 0)
(-1.6077923 -0.231453 0 2.6964647e-06 0 0)
(-1.6115217 -0.23181464 0 -2.59074e-06 0 0)
(-1.6081066 -0.23148359 0 2.4946647e-06 0 0)
(-1.6112185 -0.23178524 0 -2.4079329e-06 0 0)
(-1.6083971 -0.23151186 0 2.3304228e-06 0 0)
(-1.6109372 -0.23175797 0 -2.2615195e-06 0 0)
(-1.608668 -0.23153822 0 2.2019337e-06 0 0)
(-1.6106738 -0.23173242 0 -2.1532541e-06 0 0)
(-1.6089235 -0.2315631 0 2.0999136e-06 0 0)
(-1.6104242 -0.23170826 0 -2.0986878e-06 0 0)
(-1.6091646 -0.23158654 0 2.0633663e-06 0 0)
(-1.6101763 -0.23168318 0 -1.735394e-06 0 0)
(-1.6093857 -0.23160402 0 3.3539157e-06 0 0)
(-1.609923 -0.23166495 0 -3.1658958e-06 0 0)
(-1.5805261 -0.55660334 0 -0.15303417 0 0)
(-1.4872007 -0.25342862 0 -0.015560764 0 0)
(-1.5790388 -0.25579591 0 -0.0090651904 0 0)
(-1.5808119 -0.23394676 0 -0.0015056312 0 0)
(-1.5067726 -0.22468327 0 -0.00056425786 0 0)
(-1.5262783 -0.22614867 0 -0.00018058526 0 0)
(-1.4921311 -0.22278929 0 -9.8385799e-05 0 0)
(-1.5171664 -0.2251659 0 -2.068917e-05 0 0)
(-1.4916611 -0.22266684 0 -2.3787362e-06 0 0)
(-1.513777 -0.22488869 0 -7.0613258e-06 0 0)
(-1.4925715 -0.22277258 0 8.1265232e-06 0 0)
(-1.5121445 -0.22475598 0 -8.4006889e-06 0 0)
(-1.4936091 -0.22288767 0 7.6381969e-06 0 0)
(-1.5109556 -0.22464345 0 -7.8691154e-06 0 0)
(-1.4946016 -0.22299097 0 6.9336461e-06 0 0)
(-1.5099453 -0.22454314 0 -6.8972264e-06 0 0)
(-1.4955037 -0.22308334 0 6.2815093e-06 0 0)
(-1.5090585 -0.22445439 0 -6.066008e-06 0 0)
(-1.4963124 -0.22316591 0 5.6432417e-06 0 0)
(-1.5082737 -0.22437571 0 -5.3748661e-06 0 0)
(-1.497035 -0.22323963 0 5.0487469e-06 0 0)
(-1.5075768 -0.22430576 0 -4.7842118e-06 0 0)
(-1.4976806 -0.22330545 0 4.5130231e-06 0 0)
(-1.5069563 -0.2242434 0 -4.271058e-06 0 0)
(-1.4982576 -0.22336424 0 4.037943e-06 0 0)
(-1.5064027 -0.2241877 0 -3.8227142e-06 0 0)
(-1.4987743 -0.22341685 0 3.6200749e-06 0 0)
(-1.5059075 -0.22413783 0 -3.4309638e-06 0 0)
(-1.4992378 -0.22346402 0 3.2545394e-06 0 0)
(-1.5054633 -0.22409307 0 -3.0895961e-06 0 0)
(-1.4996548 -0.22350644 0 2.9364318e-06 0 0)
(-1.5050637 -0.22405275 0 -2.7935087e-06 0 0)
(-1.5000312 -0.22354472 0 2.6612809e-06 0 0)
(-1.5047026 -0.22401629 0 -2.5383835e-06 0 0)
(-1.5003725 -0.22357942 0 2.4251735e-06 0 0)
(-1.5043748 -0.22398316 0 -2.3205635e-06 0 0)
(-1.5006836 -0.22361105 0 2.224779e-06 0 0)
(-1.5040755 -0.22395288 0 -2.1370065e-06 0 0)
(-1.5009688 -0.22364006 0 2.0573639e-06 0 0)
(-1.5038002 -0.22392501 0 -1.985262e-06 0 0)
(-1.5012325 -0.22366687 0 1.920915e-06 0 0)
(-1.5035449 -0.22389913 0 -1.8634476e-06 0 0)
(-1.5014783 -0.22369188 0 1.8138824e-06 0 0)
(-1.5033059 -0.22387489 0 -1.7732885e-06 0 0)
(-1.50171 -0.2237155 0 1.7269044e-06 0 0)
(-1.5030796 -0.22385196 0 -1.7306823e-06 0 0)
(-1.5019288 -0.22373779 0 1.6952337e-06 0 0)
(-1.5028545 -0.2238281 0 -1.3736878e-06 0 0)
(-1.5021248 -0.22375423 0 2.9252282e-06 0 0)
(-1.5026107 -0.22380961 0 -2.7996125e-06 0 0)
(-1.5817729 -0.52025551 0 -0.1305951 0 0)
(-1.3683315 -0.24177092 0 -0.014594739 0 0)
(-1.4512016 -0.24546509 0 -0.0089852823 0 0)
(-1.4724716 -0.22501088 0 -0.0011546662 0 0)
(-1.4066333 -0.21679951 0 -0.00049719855 0 0)
(-1.4220588 -0.21813474 0 -0.00014671187 0 0)
(-1.3902981 -0.21496775 0 -8.6849351e-05 0 0)
(-1.4126651 -0.21723029 0 -1.182329e-05 0 0)
(-1.3893208 -0.21487537 0 -2.2009058e-06 0 0)
(-1.4092597 -0.21697557 0 -4.1189416e-06 0 0)
(-1.3899644 -0.21497522 0 6.8475566e-06 0 0)
(-1.4076907 -0.21685118 0 -6.5823161e-06 0 0)
(-1.3908562 -0.21508391 0 6.182283e-06 0 0)
(-1.4065914 -0.21674504 0 -6.3870587e-06 0 0)
(-1.3917461 -0.21518173 0 5.5750881e-06 0 0)
(-1.4056702 -0.21665023 0 -5.6021316e-06 0 0)
(-1.3925626 -0.21526918 0 5.0630337e-06 0 0)
(-1.4048643 -0.21656628 0 -4.9161167e-06 0 0)
(-1.3932958 -0.21534733 0 4.5570729e-06 0 0)
(-1.4041517 -0.21649182 0 -4.3499529e-06 0 0)
(-1.3939513 -0.21541711 0 4.0801973e-06 0 0)
(-1.403519 -0.2164256 0 -3.8692222e-06 0 0)
(-1.3945368 -0.21547939 0 3.6479786e-06 0 0)
(-1.4029556 -0.21636658 0 -3.4528744e-06 0 0)
(-1.3950602 -0.21553503 0 3.2637699e-06 0 0)
(-1.402453 -0.21631385 0 -3.0895555e-06 0 0)
(-1.3955289 -0.21558482 0 2.9255009e-06 0 0)
(-1.4020036 -0.21626665 0 -2.7722145e-06 0 0)
(-1.3959493 -0.21562947 0 2.6294565e-06 0 0)
(-1.4016005 -0.21622427 0 -2.4956808e-06 0 0)
(-1.3963275 -0.21566963 0 2.3717322e-06 0 0)
(-1.4012379 -0.2161861 0 -2.2557684e-06 0 0)
(-1.3966688 -0.21570587 0 2.1487186e-06 0 0)
(-1.4009103 -0.21615158 0 -2.0489545e-06 0 0)
(-1.3969783 -0.21573873 0 1.9572404e-06 0 0)
(-1.4006129 -0.2161202 0 -1.8722603e-06 0 0)
(-1.3972604 -0.21576868 0 1.7945868e-06 0 0)
(-1.4003414 -0.21609152 0 -1.7232046e-06 0 0)
(-1.397519 -0.21579616 0 1.6585247e-06 0 0)
(-1.4000918 -0.21606511 0 -1.5997761e-06 0 0)
(-1.397758 -0.21582157 0 1.5474069e-06 0 0)
(-1.3998603 -0.21604058 0 -1.5003769e-06 0 0)
(-1.3979808 -0.21584527 0 1.4599175e-06 0 0)
(-1.3996437 -0.2160176 0 -1.4266632e-06 0 0)