/*--------------------------------*- C++ -*----------------------------------*\
| =========                 |                                                 |
| \\      /  F ield         | OpenFOAM: The Open Source CFD Toolbox           |
|  \\    /   O peration     | Version:  2312                                  |
|   \\  /    A nd           | Website:  www.openfoam.com                      |
|    \\/     M anipulation  |                                                 |
\*---------------------------------------------------------------------------*/
FoamFile
{
    version     2.0;
    format      ascii;
    arch        "LSB;label=32;scalar=64";
    class       volSymmTensorField;
    location    "6";
    object      sigma_0;
}
// * * * * * * * * * * * * * * * * * * * * * * * * * * * * * * * * * * * * * //

dimensions      [0 2 -2 0 0 0 0];

internalField   nonuniform List<symmTensor> 
4000
(
(-2.2467166 -1.0056212 0 -0.40616332 0 0)
(-5.6651748 -0.44134574 0 -0.0029438371 0 0)
(-2.9223887 -0.31319787 0 -0.00086066153 0 0)
(-3.121805 -0.32249527 0 1.0515157e-05 0 0)
(-2.9351215 -0.31262016 0 2.169807e-05 0 0)
(-3.0390785 -0.31855258 0 -5.4857101e-05 0 0)
(-2.9197912 -0.31177193 0 3.5263654e-05 0 0)
(-3.0031982 -0.3166082 0 -4.3344147e-05 0 0)
(-2.9227576 -0.31193645 0 3.8635012e-05 0 0)
(-2.9939923 -0.31609786 0 -3.7774047e-05 0 0)
(-2.9272854 -0.31219847 0 3.5275052e-05 0 0)
(-2.9890877 -0.31581737 0 -3.3516541e-05 0 0)
(-2.9309899 -0.31241594 0 3.1437412e-05 0 0)
(-2.9853197 -0.31559887 0 -2.9717165e-05 0 0)
(-2.9342153 -0.31260578 0 2.7935133e-05 0 0)
(-2.9821366 -0.31541348 0 -2.6369611e-05 0 0)
(-2.9370917 -0.31277483 0 2.4831349e-05 0 0)
(-2.9793642 -0.31525191 0 -2.3438813e-05 0 0)
(-2.939653 -0.31292503 0 2.2098976e-05 0 0)
(-2.9769216 -0.31510966 0 -2.086983e-05 0 0)
(-2.9419312 -0.31305836 0 1.9697224e-05 0 0)
(-2.9747571 -0.31498375 0 -1.8615436e-05 0 0)
(-2.9439598 -0.31317683 0 1.7587531e-05 0 0)
(-2.9728317 -0.31487188 0 -1.6637148e-05 0 0)
(-2.9457696 -0.31328232 0 1.5736412e-05 0 0)
(-2.9711137 -0.3147722 0 -1.4903186e-05 0 0)
(-2.9473882 -0.31337649 0 1.4115297e-05 0 0)
(-2.9695763 -0.31468312 0 -1.338687e-05 0 0)
(-2.9488397 -0.31346077 0 1.2699806e-05 0 0)
(-2.9681962 -0.31460329 0 -1.2065526e-05 0 0)
(-2.9501456 -0.31353642 0 1.1469054e-05 0 0)
(-2.9669529 -0.31453152 0 -1.0919742e-05 0 0)
(-2.9513247 -0.31360454 0 1.0405096e-05 0 0)
(-2.9658283 -0.31446677 0 -9.932849e-06 0 0)
(-2.9523942 -0.31366615 0 9.4925192e-06 0 0)
(-2.964806 -0.31440808 0 -9.0905671e-06 0 0)
(-2.9533695 -0.31372212 0 8.7181624e-06 0 0)
(-2.9638711 -0.31435461 0 -8.3807667e-06 0 0)
(-2.9542647 -0.31377326 0 8.0709236e-06 0 0)
(-2.9630102 -0.31430559 0 -7.7933133e-06 0 0)
(-2.9550926 -0.31382033 0 7.5416607e-06 0 0)
(-2.9622106 -0.31426031 0 -7.3200417e-06 0 0)
(-2.9558654 -0.31386399 0 7.1231039e-06 0 0)
(-2.9614605 -0.3142181 0 -6.9552522e-06 0 0)
(-2.956593 -0.31390482 0 6.8099302e-06 0 0)
(-2.9607467 -0.31417823 0 -6.6941109e-06 0 0)
(-2.9572871 -0.31394337 0 6.6157931e-06 0 0)
(-2.9600932 -0.3141417 0 -6.4826087e-06 0 0)
(-2.9581304 -0.31398857 0 6.7130241e-06 0 0)
(-2.9600777 -0.31414055 0 -6.5079146e-06 0 0)
(-1.9701511 -0.92242997 0 -0.38372899 0 0)
(-4.8704608 -0.42134026 0 -0.0081182587 0 0)
(-2.9853019 -0.32129037 0 -0.0025748398 0 0)
(-2.8832528 -0.30964541 0 -2.1831406e-05 0 0)
(-2.7206642 -0.30102724 0 -5.9108807e-06 0 0)
(-2.8104158 -0.30651118 0 -7.4928026e-05 0 0)
(-2.7107774 -0.30035921 0 1.9246606e-05 0 0)
(-2.7795919 -0.30468505 0 -4.9322607e-05 0 0)
(-2.7114564 -0.30036605 0 3.9427286e-05 0 0)
(-2.7716006 -0.30420892 0 -4.1040718e-05 0 0)
(-2.7150723 -0.30059331 0 3.7936312e-05 0 0)
(-2.7674814 -0.30395412 0 -3.6534284e-05 0 0)
(-2.7181714 -0.30079244 0 3.4098999e-05 0 0)
(-2.7642949 -0.30375254 0 -3.2408101e-05 0 0)
(-2.7208879 -0.30096768 0 3.0381201e-05 0 0)
(-2.7615909 -0.30358044 0 -2.8740311e-05 0 0)
(-2.7233187 -0.30112424 0 2.7034566e-05 0 0)
(-2.7592337 -0.30343029 0 -2.553975e-05 0 0)
(-2.7254877 -0.30126363 0 2.4071562e-05 0 0)
(-2.7571557 -0.30329798 0 -2.2740097e-05 0 0)
(-2.7274197 -0.30138752 0 2.1460907e-05 0 0)
(-2.7553131 -0.30318075 0 -2.0284858e-05 0 0)
(-2.7291417 -0.30149774 0 1.9165199e-05 0 0)
(-2.753673 -0.30307652 0 -1.8130508e-05 0 0)
(-2.7306792 -0.30159597 0 1.714981e-05 0 0)
(-2.7522089 -0.30298358 0 -1.6242153e-05 0 0)
(-2.7320551 -0.3016837 0 1.5384447e-05 0 0)
(-2.7508981 -0.30290049 0 -1.459082e-05 0 0)
(-2.7332896 -0.30176225 0 1.3842961e-05 0 0)
(-2.749721 -0.302826 0 -1.3151949e-05 0 0)
(-2.7344007 -0.30183278 0 1.250282e-05 0 0)
(-2.7486603 -0.30275902 0 -1.190451e-05 0 0)
(-2.7354046 -0.30189632 0 1.1344606e-05 0 0)
(-2.7477005 -0.30269857 0 -1.0830445e-05 0 0)
(-2.7363155 -0.30195379 0 1.0351641e-05 0 0)
(-2.7468276 -0.30264377 0 -9.9143109e-06 0 0)
(-2.7371469 -0.30200602 0 9.5097209e-06 0 0)
(-2.7460289 -0.30259383 0 -9.1430565e-06 0 0)
(-2.7379105 -0.30205377 0 8.8069611e-06 0 0)
(-2.7452928 -0.30254803 0 -8.505914e-06 0 0)
(-2.7386175 -0.30209773 0 8.2337956e-06 0 0)
(-2.7446086 -0.3025057 0 -7.9945146e-06 0 0)
(-2.7392783 -0.30213853 0 7.782931e-06 0 0)
(-2.7439661 -0.30246624 0 -7.604409e-06 0 0)
(-2.7399016 -0.30217672 0 7.4487874e-06 0 0)
(-2.7433534 -0.30242893 0 -7.3335823e-06 0 0)
(-2.7404937 -0.30221253 0 7.2662054e-06 0 0)
(-2.7427737 -0.30239333 0 -7.0528651e-06 0 0)
(-2.741166 -0.30224987 0 7.7407242e-06 0 0)
(-2.7426406 -0.30238494 0 -6.9968981e-06 0 0)
(-1.8368836 -0.86400536 0 -0.35243909 0 0)
(-4.2749283 -0.39442969 0 -0.00964932 0 0)
(-2.8998074 -0.32068539 0 -0.0038817797 0 0)
(-2.7530092 -0.30252815 0 -0.00012102766 0 0)
(-2.5819955 -0.29324556 0 -2.8082868e-05 0 0)
(-2.6619475 -0.29841467 0 -8.5943689e-05 0 0)
(-2.5741275 -0.29267182 0 3.0373058e-06 0 0)
(-2.6350543 -0.29671513 0 -5.0001585e-05 0 0)
(-2.5742391 -0.29261874 0 3.5808042e-05 0 0)
(-2.6277828 -0.29625697 0 -3.9440719e-05 0 0)
(-2.5773653 -0.29282742 0 3.6126302e-05 0 0)
(-2.6241115 -0.29601776 0 -3.5153626e-05 0 0)
(-2.580117 -0.2930157 0 3.2664014e-05 0 0)
(-2.6212783 -0.2958274 0 -3.1186482e-05 0 0)
(-2.5825355 -0.29318177 0 2.9157863e-05 0 0)
(-2.6188693 -0.29566428 0 -2.7638303e-05 0 0)
(-2.5847018 -0.29333029 0 2.596804e-05 0 0)
(-2.616768 -0.29552184 0 -2.4552903e-05 0 0)
(-2.5866369 -0.29346264 0 2.3130763e-05 0 0)
(-2.6149149 -0.29539626 0 -2.1859474e-05 0 0)
(-2.5883619 -0.2935804 0 2.0625724e-05 0 0)
(-2.6132711 -0.29528492 0 -1.9498969e-05 0 0)
(-2.5899005 -0.29368523 0 1.8420763e-05 0 0)
(-2.6118074 -0.29518586 0 -1.7427993e-05 0 0)
(-2.5912748 -0.29377871 0 1.6484121e-05 0 0)
(-2.6105004 -0.2950975 0 -1.5612657e-05 0 0)
(-2.592505 -0.29386224 0 1.4787332e-05 0 0)
(-2.6093301 -0.29501846 0 -1.4025111e-05 0 0)
(-2.5936091 -0.29393706 0 1.3305571e-05 0 0)
(-2.608279 -0.29494759 0 -1.2641813e-05 0 0)
(-2.5946029 -0.29400425 0 1.2017335e-05 0 0)
(-2.6073317 -0.29488384 0 -1.1442617e-05 0 0)
(-2.5955009 -0.2940648 0 1.0904059e-05 0 0)
(-2.6064743 -0.29482628 0 -1.041023e-05 0 0)
(-2.596316 -0.29411959 0 9.9497984e-06 0 0)
(-2.6056945 -0.29477409 0 -9.5298938e-06 0 0)
(-2.5970599 -0.29416939 0 9.1410104e-06 0 0)
(-2.6049807 -0.2947265 0 -8.7892008e-06 0 0)
(-2.5977433 -0.29421495 0 8.4664616e-06 0 0)
(-2.6043227 -0.29468283 0 -8.1780466e-06 0 0)
(-2.5983762 -0.2942569 0 7.917319e-06 0 0)
(-2.6037108 -0.29464245 0 -7.6888643e-06 0 0)
(-2.5989679 -0.29429587 0 7.48722e-06 0 0)
(-2.6031359 -0.29460478 0 -7.3188976e-06 0 0)
(-2.5995265 -0.29433239 0 7.1711104e-06 0 0)
(-2.6025872 -0.29456915 0 -7.0706467e-06 0 0)
(-2.6000568 -0.29436658 0 7.0136152e-06 0 0)
(-2.6020626 -0.29453462 0 -6.7830109e-06 0 0)
(-2.6006453 -0.29440026 0 7.7240626e-06 0 0)
(-2.6018853 -0.2945247 0 -7.1648193e-06 0 0)
(-1.781437 -0.83047021 0 -0.33103381 0 0)
(-3.861128 -0.37755411 0 -0.011493305 0 0)
(-2.7964136 -0.31971125 0 -0.0053465996 0 0)
(-2.629568 -0.29564271 0 -0.00022416077 0 0)
(-2.4496714 -0.28561846 0 -6.4224917e-05 0 0)
(-2.5185883 -0.29033263 0 -9.5360528e-05 0 0)
(-2.4404476 -0.28497862 0 -1.7826306e-05 0 0)
(-2.4949631 -0.28874984 0 -4.6894242e-05 0 0)
(-2.4401467 -0.28487168 0 2.8455268e-05 0 0)
(-2.4883092 -0.28830884 0 -3.4362727e-05 0 0)
(-2.4428581 -0.28506134 0 3.1098534e-05 0 0)
(-2.4849973 -0.2880846 0 -3.0727282e-05 0 0)
(-2.4453191 -0.28523871 0 2.8372705e-05 0 0)
(-2.4824492 -0.28790508 0 -2.7274429e-05 0 0)
(-2.4474921 -0.28539568 0 2.5401268e-05 0 0)
(-2.4802775 -0.28775059 0 -2.4148899e-05 0 0)
(-2.4494406 -0.28553624 0 2.2652604e-05 0 0)
(-2.4783813 -0.28761554 0 -2.1443583e-05 0 0)
(-2.4511827 -0.28566165 0 2.0189567e-05 0 0)
(-2.4767085 -0.28749638 0 -1.9088793e-05 0 0)
(-2.4527369 -0.28577332 0 1.8007729e-05 0 0)
(-2.4752241 -0.28739068 0 -1.7027001e-05 0 0)
(-2.4541237 -0.28587282 0 1.6084308e-05 0 0)
(-2.4739022 -0.2872966 0 -1.5218375e-05 0 0)
(-2.4553629 -0.28596158 0 1.4393704e-05 0 0)
(-2.4727218 -0.28721263 0 -1.363291e-05 0 0)
(-2.4564723 -0.28604092 0 1.2911959e-05 0 0)
(-2.4716648 -0.2871375 0 -1.2246292e-05 0 0)
(-2.4574681 -0.28611201 0 1.161779e-05 0 0)
(-2.4707156 -0.28707012 0 -1.1038039e-05 0 0)
(-2.4583644 -0.28617588 0 1.0492601e-05 0 0)
(-2.4698602 -0.28700949 0 -9.99062e-06 0 0)
(-2.4591742 -0.28623345 0 9.5202692e-06 0 0)
(-2.4690862 -0.28695473 0 -9.0889834e-06 0 0)
(-2.4599092 -0.28628556 0 8.6869317e-06 0 0)
(-2.4683823 -0.28690505 0 -8.320298e-06 0 0)
(-2.4605799 -0.28633295 0 7.9808379e-06 0 0)
(-2.4677382 -0.28685974 0 -7.6738213e-06 0 0)
(-2.4611961 -0.28637633 0 7.3923043e-06 0 0)
(-2.4671445 -0.28681813 0 -7.1408948e-06 0 0)
(-2.4617667 -0.2864163 0 6.9138727e-06 0 0)
(-2.4665926 -0.28677963 0 -6.7152311e-06 0 0)
(-2.4623 -0.28645346 0 6.5403778e-06 0 0)
(-2.4660741 -0.28674369 0 -6.3957553e-06 0 0)
(-2.4628036 -0.28648833 0 6.2667542e-06 0 0)
(-2.4655794 -0.28670967 0 -6.1882681e-06 0 0)
(-2.463281 -0.28652096 0 6.1454745e-06 0 0)
(-2.4651016 -0.28667617 0 -5.8857246e-06 0 0)
(-2.4637967 -0.28655124 0 7.098895e-06 0 0)
(-2.4648836 -0.28666433 0 -6.6007477e-06 0 0)
(-1.6978299 -0.7763981 0 -0.29738494 0 0)
(-3.4436592 -0.35795069 0 -0.012401168 0 0)
(-2.6566407 -0.31601117 0 -0.0065879852 0 0)
(-2.5059504 -0.28873543 0 -0.00032655778 0 0)
(-2.3236393 -0.27811394 0 -0.00010673633 0 0)
(-2.3801385 -0.28227459 0 -0.0001061052 0 0)
(-2.3100117 -0.27725987 0 -3.6415174e-05 0 0)
(-2.3590408 -0.28079271 0 -4.3735386e-05 0 0)
(-2.3093422 -0.27711439 0 2.1582316e-05 0 0)
(-2.3529095 -0.28036835 0 -2.9421517e-05 0 0)
(-2.311699 -0.27728741 0 2.63099e-05 0 0)
(-2.3498985 -0.28015772 0 -2.6432853e-05 0 0)
(-2.3139099 -0.27745495 0 2.4239409e-05 0 0)
(-2.3475942 -0.27998823 0 -2.3484117e-05 0 0)
(-2.3158746 -0.2776037 0 2.1769658e-05 0 0)
(-2.3456265 -0.27984171 0 -2.0769342e-05 0 0)
(-2.3176382 -0.27773704 0 1.9443788e-05 0 0)
(-2.3439066 -0.27971346 0 -1.8431791e-05 0 0)
(-2.3192162 -0.27785612 0 1.7341323e-05 0 0)
(-2.3423885 -0.27960023 0 -1.6404398e-05 0 0)
(-2.3206248 -0.27796226 0 1.5471518e-05 0 0)
(-2.3410412 -0.27949973 0 -1.4631514e-05 0 0)
(-2.3218823 -0.27805686 0 1.3820258e-05 0 0)
(-2.3398413 -0.27941023 0 -1.3076781e-05 0 0)
(-2.323006 -0.2781413 0 1.2367708e-05 0 0)
(-2.3387698 -0.27933034 0 -1.1713888e-05 0 0)
(-2.3240122 -0.27821681 0 1.1094142e-05 0 0)
(-2.3378104 -0.27925885 0 -1.052187e-05 0 0)
(-2.3249153 -0.27828447 0 9.9816185e-06 0 0)
(-2.336949 -0.27919471 0 -9.4831508e-06 0 0)
(-2.3257281 -0.27834526 0 9.0142972e-06 0 0)
(-2.336173 -0.27913698 0 -8.5826884e-06 0 0)
(-2.3264623 -0.27840008 0 8.1783785e-06 0 0)
(-2.3354709 -0.27908484 0 -7.8075682e-06 0 0)
(-2.3271286 -0.27844971 0 7.4619786e-06 0 0)
(-2.3348326 -0.27903752 0 -7.1467865e-06 0 0)
(-2.3277365 -0.27849486 0 6.8550333e-06 0 0)
(-2.3342488 -0.27899434 0 -6.5911558e-06 0 0)
(-2.3282948 -0.2785362 0 6.3492837e-06 0 0)
(-2.3337108 -0.27895468 0 -6.1333169e-06 0 0)
(-2.3288115 -0.27857431 0 5.9384606e-06 0 0)
(-2.3332108 -0.27891796 0 -5.768019e-06 0 0)
(-2.3292944 -0.27860977 0 5.6182923e-06 0 0)
(-2.3327415 -0.27888365 0 -5.4952876e-06 0 0)
(-2.3297502 -0.27864307 0 5.3831009e-06 0 0)
(-2.3322939 -0.27885118 0 -5.3232975e-06 0 0)
(-2.3301818 -0.27867425 0 5.2878023e-06 0 0)
(-2.3318589 -0.27881879 0 -5.0046792e-06 0 0)
(-2.3306369 -0.27870178 0 6.4129877e-06 0 0)
(-2.3316154 -0.27880546 0 -5.9793872e-06 0 0)
(-1.6619192 -0.7489304 0 -0.28017843 0 0)
(-3.0599647 -0.3403822 0 -0.013450547 0 0)
(-2.5018847 -0.31098188 0 -0.0076998137 0 0)
(-2.3791134 -0.28157441 0 -0.00041899376 0 0)
(-2.2016142 -0.27063377 0 -0.0001539179 0 0)
(-2.246166 -0.27422855 0 -0.00011772524 0 0)
(-2.1828986 -0.26951539 0 -5.1757266e-05 0 0)
(-2.2271041 -0.27283762 0 -4.0974355e-05 0 0)
(-2.1819513 -0.2693489 0 1.5947718e-05 0 0)
(-2.2214516 -0.27243257 0 -2.5255175e-05 0 0)
(-2.1840102 -0.26950828 0 2.239702e-05 0 0)
(-2.2187104 -0.27223516 0 -2.2861788e-05 0 0)
(-2.1860017 -0.26966698 0 2.0827301e-05 0 0)
(-2.2166231 -0.27207518 0 -2.0344459e-05 0 0)
(-2.187783 -0.26980815 0 1.8762279e-05 0 0)
(-2.214837 -0.27193619 0 -1.7970113e-05 0 0)
(-2.1893833 -0.26993475 0 1.6785065e-05 0 0)
(-2.2132737 -0.27181433 0 -1.5935985e-05 0 0)
(-2.1908158 -0.27004791 0 1.4980794e-05 0 0)
(-2.2118932 -0.27170665 0 -1.4179041e-05 0 0)
(-2.1920952 -0.27014882 0 1.3369144e-05 0 0)
(-2.2106676 -0.27161105 0 -1.2645164e-05 0 0)
(-2.1932376 -0.27023883 0 1.1943174e-05 0 0)
(-2.2095761 -0.27152588 0 -1.1300698e-05 0 0)
(-2.1942588 -0.27031918 0 1.0687796e-05 0 0)
(-2.2086015 -0.27144984 0 -1.0122263e-05 0 0)
(-2.1951732 -0.27039105 0 9.5867381e-06 0 0)
(-2.207729 -0.27138178 0 -9.0915854e-06 0 0)
(-2.1959938 -0.27045546 0 8.624776e-06 0 0)
(-2.2069457 -0.27132071 0 -8.1934452e-06 0 0)
(-2.1967323 -0.27051334 0 7.7883151e-06 0 0)
(-2.2062402 -0.27126574 0 -7.4148349e-06 0 0)
(-2.1973993 -0.27056554 0 7.0654563e-06 0 0)
(-2.2056021 -0.27121608 0 -6.7445885e-06 0 0)
(-2.1980045 -0.27061281 0 6.4459357e-06 0 0)
(-2.2050221 -0.271171 0 -6.173198e-06 0 0)
(-2.1985565 -0.27065582 0 5.9210635e-06 0 0)
(-2.2044918 -0.27112986 0 -5.692738e-06 0 0)
(-2.1990633 -0.27069522 0 5.4837261e-06 0 0)
(-2.2040033 -0.27109206 0 -5.29688e-06 0 0)
(-2.1995323 -0.27073156 0 5.1285741e-06 0 0)
(-2.2035496 -0.27105704 0 -4.9811359e-06 0 0)
(-2.1999703 -0.27076537 0 4.8519563e-06 0 0)
(-2.2031239 -0.27102431 0 -4.7462094e-06 0 0)
(-2.2003837 -0.27079717 0 4.6473377e-06 0 0)
(-2.2027183 -0.27099333 0 -4.6020673e-06 0 0)
(-2.2007746 -0.27082694 0 4.5693199e-06 0 0)
(-2.2023219 -0.27096211 0 -4.2663456e-06 0 0)
(-2.2011772 -0.27085214 0 5.8106634e-06 0 0)
(-2.202063 -0.27094747 0 -5.4183369e-06 0 0)
(-1.6040706 -0.70136071 0 -0.25067575 0 0)
(-2.6929501 -0.32258631 0 -0.014112114 0 0)
(-2.3355709 -0.30398674 0 -0.0084496157 0 0)
(-2.2454524 -0.27417134 0 -0.0005823698 0 0)
(-2.0838293 -0.26337617 0 -0.00024068511 0 0)
(-2.1174045 -0.26628171 0 -0.00013850208 0 0)
(-2.0596664 -0.26178913 0 -6.7586296e-05 0 0)
(-2.0993524 -0.26489868 0 -3.9066947e-05 0 0)
(-2.0581629 -0.26158413 0 1.1034193e-05 0 0)
(-2.0939445 -0.26450283 0 -2.1708771e-05 0 0)
(-2.0598683 -0.26172684 0 1.9104887e-05 0 0)
(-2.0914002 -0.26431599 0 -1.9821053e-05 0 0)
(-2.0616425 -0.2618764 0 1.7937795e-05 0 0)
(-2.089498 -0.26416471 0 -1.7676756e-05 0 0)
(-2.0632553 -0.26201027 0 1.6207621e-05 0 0)
(-2.0878737 -0.26403284 0 -1.5591878e-05 0 0)
(-2.0647084 -0.26213044 0 1.45251e-05 0 0)
(-2.0864513 -0.26391707 0 -1.3814693e-05 0 0)
(-2.06601 -0.26223794 0 1.2973839e-05 0 0)
(-2.0851946 -0.26381471 0 -1.2287e-05 0 0)
(-2.0671731 -0.26233387 0 1.1581397e-05 0 0)
(-2.084079 -0.26372379 0 -1.0956006e-05 0 0)
(-2.068212 -0.26241945 0 1.0346839e-05 0 0)
(-2.0830853 -0.26364279 0 -9.7902029e-06 0 0)
(-2.0691407 -0.26249588 0 9.2590744e-06 0 0)
(-2.0821981 -0.26357044 0 -8.768595e-06 0 0)
(-2.0699722 -0.26256424 0 8.3047162e-06 0 0)
(-2.0814039 -0.26350569 0 -7.8751383e-06 0 0)
(-2.0707184 -0.26262552 0 7.4708169e-06 0 0)
(-2.0806912 -0.26344758 0 -7.0965788e-06 0 0)
(-2.07139 -0.2626806 0 6.7456692e-06 0 0)
(-2.0800493 -0.26339527 0 -6.4216199e-06 0 0)
(-2.0719965 -0.26273027 0 6.1189762e-06 0 0)
(-2.0794689 -0.26334801 0 -5.8405715e-06 0 0)
(-2.0725466 -0.26277526 0 5.5818422e-06 0 0)
(-2.0789415 -0.2633051 0 -5.3451884e-06 0 0)
(-2.0730483 -0.26281622 0 5.126736e-06 0 0)
(-2.0784593 -0.26326592 0 -4.9286057e-06 0 0)
(-2.0735088 -0.26285373 0 4.747501e-06 0 0)
(-2.0780154 -0.26322991 0 -4.5853503e-06 0 0)
(-2.0739348 -0.26288835 0 4.43954e-06 0 0)
(-2.0776031 -0.26319654 0 -4.311537e-06 0 0)
(-2.0743326 -0.26292058 0 4.1996833e-06 0 0)
(-2.0772166 -0.26316534 0 -4.1083139e-06 0 0)
(-2.0747079 -0.26295091 0 4.0205617e-06 0 0)
(-2.0768486 -0.26313581 0 -3.9872011e-06 0 0)
(-2.0750624 -0.26297933 0 3.9548639e-06 0 0)
(-2.0764874 -0.26310579 0 -3.6375709e-06 0 0)
(-2.0754191 -0.26300253 0 5.2675759e-06 0 0)
(-2.0762209 -0.26309007 0 -4.9084246e-06 0 0)
(-1.5779966 -0.67433426 0 -0.23377094 0 0)
(-2.352649 -0.30785082 0 -0.015617878 0 0)
(-2.1812496 -0.29724361 0 -0.0089849643 0 0)
(-2.0983092 -0.26556247 0 -0.00075695279 0 0)
(-1.9564992 -0.25540506 0 -0.00031150986 0 0)
(-1.98962 -0.25820099 0 -0.00015726568 0 0)
(-1.938393 -0.25398915 0 -8.0642703e-05 0 0)
(-1.9749419 -0.256942 0 -3.7165915e-05 0 0)
(-1.9376449 -0.25380647 0 6.8308471e-06 0 0)
(-1.9702085 -0.25657301 0 -1.849086e-05 0 0)
(-1.9392321 -0.25394109 0 1.6254095e-05 0 0)
(-1.9679175 -0.25639885 0 -1.7105959e-05 0 0)
(-1.9408419 -0.25408314 0 1.5395283e-05 0 0)
(-1.9661943 -0.25625629 0 -1.5308683e-05 0 0)
(-1.9423082 -0.25421029 0 1.3947082e-05 0 0)
(-1.9647184 -0.25613133 0 -1.3483786e-05 0 0)
(-1.9436294 -0.25432438 0 1.2522443e-05 0 0)
(-1.963424 -0.25602142 0 -1.1934405e-05 0 0)
(-1.9448131 -0.25442646 0 1.1194619e-05 0 0)
(-1.9622798 -0.25592419 0 -1.0609607e-05 0 0)
(-1.945871 -0.25451759 0 9.9962274e-06 0 0)
(-1.9612637 -0.25583778 0 -9.4582881e-06 0 0)
(-1.946816 -0.25459891 0 8.9312819e-06 0 0)
(-1.9603588 -0.25576079 0 -8.4508244e-06 0 0)
(-1.9476609 -0.25467155 0 7.9921233e-06 0 0)
(-1.9595509 -0.25569202 0 -7.5682678e-06 0 0)
(-1.9484174 -0.25473653 0 7.1678699e-06 0 0)
(-1.9588278 -0.25563046 0 -6.7965056e-06 0 0)
(-1.9490963 -0.25479478 0 6.4475616e-06 0 0)
(-1.958179 -0.25557521 0 -6.1240054e-06 0 0)
(-1.9497072 -0.25484715 0 5.8211492e-06 0 0)
(-1.9575948 -0.25552547 0 -5.5409756e-06 0 0)
(-1.9502588 -0.25489438 0 5.2797497e-06 0 0)
(-1.9570666 -0.25548052 0 -5.0390293e-06 0 0)
(-1.9507591 -0.25493716 0 4.8156762e-06 0 0)
(-1.9565868 -0.25543971 0 -4.6110365e-06 0 0)
(-1.9512153 -0.25497612 0 4.4224197e-06 0 0)
(-1.9561483 -0.25540243 0 -4.2510661e-06 0 0)
(-1.9516339 -0.25501182 0 4.094664e-06 0 0)
(-1.9557446 -0.25536816 0 -3.9543916e-06 0 0)
(-1.9520211 -0.25504477 0 3.8284611e-06 0 0)
(-1.9553699 -0.25533639 0 -3.7176389e-06 0 0)
(-1.9523825 -0.25507546 0 3.6210505e-06 0 0)
(-1.9550187 -0.25530667 0 -3.5422554e-06 0 0)
(-1.9527234 -0.25510437 0 3.4643534e-06 0 0)
(-1.9546847 -0.25527855 0 -3.4411264e-06 0 0)
(-1.9530453 -0.25513148 0 3.4082424e-06 0 0)
(-1.9543556 -0.25524976 0 -3.0818651e-06 0 0)
(-1.9533617 -0.25515295 0 4.7564423e-06 0 0)
(-1.9540871 -0.25523315 0 -4.4307196e-06 0 0)
(-1.5574778 -0.63915746 0 -0.21088926 0 0)
(-2.0459324 -0.29211508 0 -0.016373305 0 0)
(-2.024497 -0.28656588 0 -0.0085176197 0 0)
(-1.9643036 -0.25989202 0 -0.0015752602 0 0)
(-1.8402641 -0.24828793 0 -0.00050651369 0 0)
(-1.8678763 -0.25028428 0 -0.0001928767 0 0)
(-1.821581 -0.24623938 0 -9.6754485e-05 0 0)
(-1.854768 -0.24900588 0 -3.6021313e-05 0 0)
(-1.8208263 -0.24603211 0 2.9394749e-06 0 0)
(-1.8503884 -0.24864925 0 -1.5602136e-05 0 0)
(-1.8221918 -0.24615376 0 1.3721761e-05 0 0)
(-1.8482752 -0.24848482 0 -1.4655247e-05 0 0)
(-1.8236299 -0.24628776 0 1.3120154e-05 0 0)
(-1.8467027 -0.24835012 0 -1.3175098e-05 0 0)
(-1.8249587 -0.24640834 0 1.1915766e-05 0 0)
(-1.8453591 -0.24823169 0 -1.1586247e-05 0 0)
(-1.8261596 -0.24651658 0 1.0720489e-05 0 0)
(-1.8441805 -0.24812739 0 -1.0241996e-05 0 0)
(-1.8272361 -0.24661347 0 9.5930251e-06 0 0)
(-1.8431384 -0.24803506 0 -9.0996166e-06 0 0)
(-1.8281984 -0.24669999 0 8.569081e-06 0 0)
(-1.842213 -0.247953 0 -8.1099182e-06 0 0)
(-1.8290582 -0.24677722 0 7.6567665e-06 0 0)
(-1.8413889 -0.24787987 0 -7.2449654e-06 0 0)
(-1.8298269 -0.2468462 0 6.8514011e-06 0 0)
(-1.8406532 -0.24781455 0 -6.4876025e-06 0 0)
(-1.8305151 -0.24690792 0 6.1443102e-06 0 0)
(-1.8399949 -0.24775607 0 -5.8254223e-06 0 0)
(-1.8311327 -0.24696325 0 5.5262996e-06 0 0)
(-1.8394042 -0.24770359 0 -5.2484264e-06 0 0)
(-1.8316884 -0.24701299 0 4.9888031e-06 0 0)
(-1.8388725 -0.24765633 0 -4.7481716e-06 0 0)
(-1.8321902 -0.24705786 0 4.5242064e-06 0 0)
(-1.8383919 -0.24761362 0 -4.3174414e-06 0 0)
(-1.8326452 -0.24709852 0 4.1259086e-06 0 0)
(-1.8379553 -0.24757483 0 -3.9501069e-06 0 0)
(-1.83306 -0.24713555 0 3.7883183e-06 0 0)
(-1.8375564 -0.2475394 0 -3.6410736e-06 0 0)
(-1.8334406 -0.24716948 0 3.5068695e-06 0 0)
(-1.8371894 -0.24750681 0 -3.3862786e-06 0 0)
(-1.8337926 -0.24720082 0 3.2781857e-06 0 0)
(-1.8368487 -0.24747658 0 -3.1827914e-06 0 0)
(-1.834121 -0.24723002 0 3.0998633e-06 0 0)
(-1.8365295 -0.2474483 0 -3.0322459e-06 0 0)
(-1.8344307 -0.24725754 0 2.963262e-06 0 0)
(-1.8362263 -0.24742154 0 -2.9486732e-06 0 0)
(-1.8347231 -0.24728339 0 2.9148752e-06 0 0)
(-1.8359266 -0.24739399 0 -2.5840524e-06 0 0)
(-1.8350039 -0.24730336 0 4.2683081e-06 0 0)
(-1.8356603 -0.24737668 0 -3.9810462e-06 0 0)
(-1.5644734 -0.6014739 0 -0.1834822 0 0)
(-1.8103572 -0.28004169 0 -0.017053294 0 0)
(-1.8733088 -0.27403821 0 -0.0076762563 0 0)
(-1.8273378 -0.2522255 0 -0.0019743564 0 0)
(-1.7220278 -0.24048228 0 -0.00060361917 0 0)
(-1.7489132 -0.24224928 0 -0.0002112255 0 0)
(-1.7076733 -0.23843195 0 -0.0001058166 0 0)
(-1.7381947 -0.24105709 0 -3.3448284e-05 0 0)
(-1.7074405 -0.23824746 0 -2.6400041e-08 0 0)
(-1.734341 -0.24072611 0 -1.2814252e-05 0 0)
(-1.7087065 -0.23836266 0 1.1527805e-05 0 0)
(-1.7324317 -0.24057285 0 -1.2412866e-05 0 0)
(-1.710009 -0.2384899 0 1.1086003e-05 0 0)
(-1.7310044 -0.24044595 0 -1.12419e-05 0 0)
(-1.711217 -0.23860439 0 1.0085761e-05 0 0)
(-1.729783 -0.24033382 0 -9.8712667e-06 0 0)
(-1.7123094 -0.23870709 0 9.0938446e-06 0 0)
(-1.7287105 -0.24023492 0 -8.7131438e-06 0 0)
(-1.7132885 -0.238799 0 8.1464149e-06 0 0)
(-1.7277617 -0.24014732 0 -7.7355695e-06 0 0)
(-1.7141637 -0.23888109 0 7.2798152e-06 0 0)
(-1.7269192 -0.24006944 0 -6.8918347e-06 0 0)
(-1.7149457 -0.23895437 0 6.5053377e-06 0 0)
(-1.7261688 -0.24000003 0 -6.1556207e-06 0 0)
(-1.7156448 -0.23901984 0 5.8208531e-06 0 0)
(-1.7254991 -0.23993803 0 -5.5113733e-06 0 0)
(-1.7162708 -0.23907841 0 5.2196341e-06 0 0)
(-1.7249 -0.23988253 0 -4.948208e-06 0 0)
(-1.7168325 -0.23913092 0 4.6940641e-06 0 0)
(-1.7243624 -0.23983271 0 -4.4575035e-06 0 0)
(-1.7173378 -0.23917813 0 4.2369103e-06 0 0)
(-1.7238786 -0.23978785 0 -4.0320321e-06 0 0)
(-1.7177941 -0.23922073 0 3.8417028e-06 0 0)
(-1.7234414 -0.2397473 0 -3.6656336e-06 0 0)
(-1.7182078 -0.23925933 0 3.5028215e-06 0 0)
(-1.7230443 -0.23971046 0 -3.3530824e-06 0 0)
(-1.7185849 -0.2392945 0 3.2155019e-06 0 0)
(-1.7226816 -0.23967681 0 -3.0900363e-06 0 0)
(-1.7189309 -0.23932673 0 2.9758511e-06 0 0)
(-1.7223478 -0.23964584 0 -2.8730261e-06 0 0)
(-1.7192508 -0.23935651 0 2.7809986e-06 0 0)
(-1.7220382 -0.23961712 0 -2.6995105e-06 0 0)
(-1.7195492 -0.23938427 0 2.6288559e-06 0 0)
(-1.7217482 -0.23959023 0 -2.5712187e-06 0 0)
(-1.7198305 -0.23941045 0 2.5103787e-06 0 0)
(-1.721473 -0.23956479 0 -2.5030762e-06 0 0)
(-1.7200961 -0.23943507 0 2.4683709e-06 0 0)
(-1.7212003 -0.23953847 0 -2.1371598e-06 0 0)
(-1.7203453 -0.23945372 0 3.8012845e-06 0 0)
(-1.7209393 -0.23952063 0 -3.5595804e-06 0 0)
(-1.5722192 -0.58154548 0 -0.16976307 0 0)
(-1.6344882 -0.26357549 0 -0.015370453 0 0)
(-1.7220888 -0.26641708 0 -0.0091291975 0 0)
(-1.6978907 -0.24353559 0 -0.0020166203 0 0)
(-1.6102026 -0.23262478 0 -0.00064109814 0 0)
(-1.6347739 -0.23420903 0 -0.00021192458 0 0)
(-1.597697 -0.23061609 0 -0.00010762963 0 0)
(-1.6255834 -0.23310976 0 -2.8777376e-05 0 0)
(-1.5976747 -0.23045864 0 -1.924585e-06 0 0)
(-1.6221215 -0.2328056 0 -1.0028378e-05 0 0)
(-1.5988214 -0.23056882 0 9.6547089e-06 0 0)
(-1.6203877 -0.23266319 0 -1.0345377e-05 0 0)
(-1.5999975 -0.23068983 0 9.265189e-06 0 0)
(-1.6190911 -0.23254375 0 -9.4834194e-06 0 0)
(-1.6010949 -0.23079857 0 8.4327645e-06 0 0)
(-1.617981 -0.23243768 0 -8.3162885e-06 0 0)
(-1.6020881 -0.23089597 0 7.6212454e-06 0 0)
(-1.6170056 -0.23234396 0 -7.3279137e-06 0 0)
(-1.6029783 -0.23098312 0 6.8360137e-06 0 0)
(-1.6161424 -0.2322609 0 -6.4997995e-06 0 0)
(-1.6037739 -0.23106094 0 6.1117705e-06 0 0)
(-1.6153757 -0.23218705 0 -5.7883215e-06 0 0)
(-1.6044847 -0.23113042 0 5.4621544e-06 0 0)
(-1.614693 -0.23212123 0 -5.1687597e-06 0 0)
(-1.6051202 -0.23119249 0 4.8872114e-06 0 0)
(-1.6140838 -0.23206244 0 -4.6270138e-06 0 0)
(-1.6056892 -0.23124803 0 4.3819398e-06 0 0)
(-1.6135388 -0.2320098 0 -4.1535707e-06 0 0)
(-1.6061997 -0.23129783 0 3.9401417e-06 0 0)
(-1.6130499 -0.23196255 0 -3.7410535e-06 0 0)
(-1.6066589 -0.2313426 0 3.5557897e-06 0 0)
(-1.61261 -0.23192 0 -3.3833354e-06 0 0)
(-1.6070736 -0.231383 0 3.2234516e-06 0 0)
(-1.6122124 -0.23188153 0 -3.0752142e-06 0 0)
(-1.6074495 -0.23141962 0 2.9383959e-06 0 0)
(-1.6118515 -0.23184658 0 -2.8122821e-06 0 0)
(-1.6077922 -0.23145299 0 2.6966067e-06 0 0)
(-1.6115218 -0.23181465 0 -2.5908767e-06 0 0)
(-1.6081065 -0.23148358 0 2.4947981e-06 0 0)
(-1.6112185 -0.23178525 0 -2.4080628e-06 0 0)
(-1.608397 -0.23151185 0 2.3305508e-06 0 0)
(-1.6109373 -0.23175797 0 -2.261645e-06 0 0)
(-1.608668 -0.23153822 0 2.2020581e-06 0 0)
(-1.6106739 -0.23173243 0 -2.1533773e-06 0 0)
(-1.6089234 -0.23156309 0 2.1000354e-06 0 0)
(-1.6104242 -0.23170827 0 -2.0988111e-06 0 0)
(-1.6091645 -0.23158653 0 2.0634899e-06 0 0)
(-1.6101763 -0.23168318 0 -1.7354959e-06 0 0)
(-1.6093857 -0.23160401 0 3.3541044e-06 0 0)
(-1.609923 -0.23166495 0 -3.1661185e-06 0 0)
(-1.5808472 -0.54725407 0 -0.14688093 0 0)
(-1.4881118 -0.25350277 0 -0.015408155 0 0)
(-1.5791066 -0.2558657 0 -0.0090784405 0 0)
(-1.5807793 -0.23395215 0 -0.0015094598 0 0)
(-1.5068484 -0.22469932 0 -0.00056720898 0 0)
(-1.5262674 -0.22614993 0 -0.00018132933 0 0)
(-1.4921361 -0.22279108 0 -9.8701447e-05 0 0)
(-1.5171593 -0.22516542 0 -2.0753938e-05 0 0)
(-1.4916645 -0.22266734 0 -2.3922618e-06 0 0)
(-1.5137738 -0.22488836 0 -7.0614589e-06 0 0)
(-1.4925732 -0.22277278 0 8.1294207e-06 0 0)
(-1.5121432 -0.22475586 0 -8.4028529e-06 0 0)
(-1.4936097 -0.22288772 0 7.6416915e-06 0 0)
(-1.5109553 -0.22464344 0 -7.8720418e-06 0 0)
(-1.4946016 -0.22299094 0 6.9367111e-06 0 0)
(-1.5099454 -0.22454318 0 -6.8997932e-06 0 0)
(-1.4955035 -0.22308329 0 6.2838249e-06 0 0)
(-1.5090588 -0.22445444 0 -6.0678993e-06 0 0)
(-1.496312 -0.22316585 0 5.6448331e-06 0 0)
(-1.5082741 -0.22437577 0 -5.3761317e-06 0 0)
(-1.4970347 -0.22323958 0 5.0497746e-06 0 0)
(-1.5075772 -0.2243058 0 -4.785015e-06 0 0)
(-1.4976802 -0.2233054 0 4.5136662e-06 0 0)
(-1.5069567 -0.22424344 0 -4.2715599e-06 0 0)
(-1.4982573 -0.2233642 0 4.0383476e-06 0 0)
(-1.506403 -0.22418773 0 -3.823036e-06 0 0)
(-1.498774 -0.22341682 0 3.6203418e-06 0 0)
(-1.5059077 -0.22413786 0 -3.4311845e-06 0 0)
(-1.4992376 -0.22346399 0 3.2547308e-06 0 0)
(-1.5054635 -0.22409309 0 -3.0897624e-06 0 0)
(-1.4996546 -0.22350642 0 2.9365831e-06 0 0)
(-1.5050638 -0.22405277 0 -2.7936462e-06 0 0)
(-1.5000311 -0.22354471 0 2.6614108e-06 0 0)
(-1.5047028 -0.22401631 0 -2.5385054e-06 0 0)
(-1.5003724 -0.22357941 0 2.4252916e-06 0 0)
(-1.5043749 -0.22398318 0 -2.3206767e-06 0 0)
(-1.5006835 -0.22361104 0 2.2248903e-06 0 0)
(-1.5040756 -0.22395289 0 -2.1371146e-06 0 0)
(-1.5009688 -0.22364005 0 2.057471e-06 0 0)
(-1.5038002 -0.22392501 0 -1.9853671e-06 0 0)
(-1.5012324 -0.22366686 0 1.9210197e-06 0 0)
(-1.5035449 -0.22389914 0 -1.863551e-06 0 0)
(-1.5014782 -0.22369188 0 1.8139859e-06 0 0)
(-1.503306 -0.22387489 0 -1.7733915e-06 0 0)
(-1.50171 -0.2237155 0 1.7270067e-06 0 0)
(-1.5030797 -0.22385196 0 -1.7307865e-06 0 0)
(-1.5019288 -0.22373779 0 1.6953384e-06 0 0)
(-1.5028545 -0.2238281 0 -1.3737712e-06 0 0)
(-1.5021248 -0.22375423 0 2.9253953e-06 0 0)
(-1.5026107 -0.22380961 0 -2.7998168e-06 0 0)
(-1.5812468 -0.52877084 0 -0.13597657 0 0)
(-1.3667748 -0.24142627 0 -0.014612602 0 0)
(-1.4510468 -0.24539934 0 -0.0089735081 0 0)
(-1.4724338 -0.22501887 0 -0.0011587191 0 0)
(-1.4066437 -0.21680668 0 -0.00049922807 0 0)
(-1.4220444 -0.21813499 0 -0.00014741091 0 0)
(-1.3902987 -0.21496877 0 -8.7154497e-05 0 0)
(-1.4126607 -0.21722996 0 -1.1897928e-05 0 0)
(-1.3893229 -0.21487569 0 -2.2149066e-06 0 0)
(-1.4092582 -0.21697541 0 -4.1242578e-06 0 0)
(-1.3899654 -0.21497532 0 6.8517372e-06 0 0)
(-1.4076903 -0.21685115 0 -6.5862283e-06 0 0)
(-1.3908564 -0.2150839 0 6.1866238e-06 0 0)
(-1.4065914 -0.21674507 0 -6.3905425e-06 0 0)
(-1.3917459 -0.21518168 0 5.5784173e-06 0 0)
(-1.4056704 -0.21665029 0 -5.6047654e-06 0 0)
(-1.3925622 -0.21526912 0 5.065302e-06 0 0)
(-1.4048647 -0.21656633 0 -4.9178803e-06 0 0)
(-1.3932955 -0.21534728 0 4.5585023e-06 0 0)
(-1.4041521 -0.21649187 0 -4.3510396e-06 0 0)
(-1.3939509 -0.21541706 0 4.0810484e-06 0 0)
(-1.4035193 -0.21642564 0 -3.8698582e-06 0 0)
(-1.3945365 -0.21547935 0 3.6484698e-06 0 0)
(-1.4029559 -0.21636661 0 -3.453241e-06 0 0)
(-1.39506 -0.215535 0 3.2640559e-06 0 0)
(-1.4024533 -0.21631388 0 -3.0897745e-06 0 0)
(-1.3955286 -0.2155848 0 2.9256789e-06 0 0)
(-1.4020038 -0.21626667 0 -2.7723586e-06 0 0)
(-1.3959491 -0.21562945 0 2.6295816e-06 0 0)
(-1.4016007 -0.21622429 0 -2.4957896e-06 0 0)
(-1.3963273 -0.21566961 0 2.3718331e-06 0 0)
(-1.401238 -0.21618611 0 -2.2558614e-06 0 0)
(-1.3966687 -0.21570586 0 2.148809e-06 0 0)
(-1.4009104 -0.21615159 0 -2.049041e-06 0 0)
(-1.3969782 -0.21573872 0 1.9573264e-06 0 0)
(-1.400613 -0.21612022 0 -1.8723441e-06 0 0)
(-1.3972603 -0.21576867 0 1.7946711e-06 0 0)
(-1.4003415 -0.21609153 0 -1.7232875e-06 0 0)
(-1.3975189 -0.21579615 0 1.6586085e-06 0 0)
(-1.4000918 -0.21606512 0 -1.5998591e-06 0 0)
(-1.3977579 -0.21582156 0 1.5474909e-06 0 0)
(-1.3998604 -0.21604059 0 -1.5004605e-06 0 0)
(-1.3979807 -0.21584527 0 1.4600019e-06 0 0)
(-1.3996438 -0.2160176 0 -1.4267478e-06 0 0)