/*--------------------------------*- C++ -*----------------------------------*\
| =========                 |                                                 |
| \\      /  F ield         | OpenFOAM: The Open Source CFD Toolbox           |
|  \\    /   O peration     | Version:  2312                                  |
|   \\  /    A nd           | Website:  www.openfoam.com                      |
|    \\/     M anipulation  |                                                 |
\*---------------------------------------------------------------------------*/
FoamFile
{
    version     2.0;
    format      ascii;
    arch        "LSB;label=32;scalar=64";
    class       volScalarField;
    location    "6";
    object      T;
}
// * * * * * * * * * * * * * * * * * * * * * * * * * * * * * * * * * * * * * //

dimensions      [0 0 0 1 0 0 0];

internalField   nonuniform List<scalar> 
4000
(
329.7759
328.57764
328.38969
328.31099
328.25496
328.20243
328.16174
328.11861
328.08415
328.04549
328.01392
327.97793
327.94802
327.91381
327.88496
327.85202
327.82388
327.79189
327.76427
327.73301
327.70577
327.67508
327.64814
327.6179
327.5912
327.56133
327.53484
327.50527
327.47894
327.44962
327.42345
327.39432
327.36829
327.33933
327.31342
327.28459
327.25881
327.23008
327.20442
327.17576
327.15023
327.12161
327.09622
327.0676
327.04237
327.01371
326.98869
326.95989
326.93527
326.90569
331.85081
329.79083
329.28596
329.10203
328.98625
328.88099
328.81108
328.73395
328.68273
328.61899
328.57646
328.52072
328.48314
328.43275
328.39834
328.35175
328.3195
328.27575
328.24505
328.20347
328.17392
328.13405
328.10541
328.0669
328.03898
328.00158
327.97426
327.93776
327.91096
327.87519
327.84885
327.81368
327.78775
327.75307
327.72753
327.69323
327.66807
327.63407
327.60928
327.57549
327.55108
327.51741
327.49342
327.45977
327.43626
327.40248
327.3796
327.34539
327.32369
327.28726
333.17172
330.96651
330.17553
329.88912
329.71467
329.55743
329.45847
329.34773
329.27975
329.19121
329.13766
329.06237
329.01707
328.95065
328.91063
328.85052
328.8141
328.75869
328.72486
328.67305
328.64116
328.59217
328.56179
328.51507
328.4859
328.44101
328.41285
328.36945
328.34216
328.29998
328.27345
328.23226
328.20643
328.16605
328.14086
328.10112
328.07657
328.03731
328.01338
327.97448
327.95118
327.91248
327.88987
327.85121
327.8294
327.79052
327.76976
327.73017
327.71136
327.66836
334.06777
332.06937
331.04742
330.66632
330.43604
330.22873
330.10133
329.95792
329.87333
329.76057
329.69602
329.60159
329.54855
329.46641
329.42072
329.34734
329.3067
329.23982
329.2028
329.14093
329.10663
329.04868
329.0165
328.96169
328.93122
328.87895
328.84989
328.7997
328.77186
328.72336
328.69659
328.64947
328.62368
328.57768
328.5528
328.50768
328.48369
328.43925
328.41614
328.37218
328.34996
328.30628
328.28502
328.24139
328.22125
328.17732
328.15864
328.11374
328.09772
328.04856
334.70375
333.06931
331.88738
331.42548
331.14468
330.89068
330.73623
330.56172
330.46099
330.32498
330.2496
330.13671
330.07595
329.9786
329.92724
329.84097
329.79606
329.71804
329.67778
329.60611
329.56934
329.50265
329.46861
329.40591
329.37407
329.31459
329.28458
329.22773
329.19929
329.14459
329.11755
329.0646
329.03881
328.98728
328.96268
328.91227
328.88881
328.83926
328.81692
328.76798
328.7468
328.69822
328.67827
328.62974
328.61122
328.56233
328.54566
328.49556
328.48217
328.42736
335.16892
333.94406
332.68014
332.15689
331.83365
331.53811
331.35893
331.15569
331.03969
330.88185
330.79602
330.66564
330.59735
330.4855
330.42852
330.32993
330.28076
330.19205
330.14852
330.06741
330.02814
329.95302
329.91708
329.84673
329.81348
329.74701
329.716
329.65269
329.62361
329.56288
329.53551
329.47688
329.45106
329.39413
329.36975
329.31418
329.29119
329.23666
329.21505
329.16124
329.14104
329.08766
329.06897
329.01566
328.99869
328.94496
328.9302
328.87507
328.86408
328.80416
335.51736
334.68287
333.41143
332.85016
332.49527
332.16511
331.96462
331.73586
331.60596
331.42819
331.33259
331.18602
331.11053
330.98513
330.92272
330.81252
330.75918
330.66034
330.61359
330.52351
330.48175
330.39857
330.36072
330.28307
330.24838
330.1752
330.14316
330.07364
330.04388
329.97734
329.94959
329.88549
329.85957
329.79744
329.77323
329.71266
329.6901
329.63073
329.60979
329.55126
329.53198
329.47395
329.45644
329.3985
329.38298
329.32457
329.31161
329.25168
329.24281
329.17832
335.78258
335.2837
334.06984
333.49529
333.12168
332.76544
332.54814
332.29787
332.15603
331.96072
331.85635
331.69519
331.61308
331.4753
331.40778
331.28687
331.22955
331.1213
331.07143
330.97296
330.92876
330.83801
330.79827
330.71371
330.6776
330.59806
330.56498
330.48954
330.45908
330.387
330.35886
330.28951
330.26347
330.19634
330.17228
330.1069
330.08472
330.02069
330.00038
329.93731
329.91889
329.85638
329.83997
329.77758
329.76343
329.70054
329.68921
329.62476
329.61772
329.54918
335.98794
335.75433
334.64797
334.08369
333.70549
333.33291
333.10423
332.83725
332.68594
332.47598
332.36418
332.19037
332.10242
331.95366
331.88152
331.75097
331.68998
331.57315
331.52037
331.41418
331.36768
331.26992
331.22838
331.13739
331.0999
331.01441
330.98032
330.89932
330.86817
330.79085
330.76231
330.688
330.66183
330.58995
330.566
330.49605
330.47422
330.40576
330.38602
330.31861
330.30099
330.23421
330.21883
330.1522
330.1393
330.07218
330.06233
329.99368
329.98815
329.91605
336.14949
336.10833
335.14286
334.60908
334.24041
333.86183
333.6279
333.34958
333.19179
332.97044
332.8529
332.66868
332.57591
332.41779
332.3417
332.20273
332.13851
332.01407
331.95867
331.84556
331.79696
331.69284
331.64964
331.55276
331.51399
331.42302
331.38798
331.30184
331.27003
331.18785
331.15892
331.07997
331.05367
330.97734
330.95348
330.87924
330.85773
330.78509
330.76587
330.69439
330.6775
330.6067
330.59225
330.52164
330.50988
330.43881
330.43025
330.35776
330.35343
330.27821
336.27896
336.36384
335.55587
335.06804
334.72176
334.34742
334.11469
333.83076
333.66986
333.44074
333.31942
333.12727
333.03094
332.86527
332.78604
332.64004
332.57315
332.4422
332.38458
332.26543
332.215
332.10526
332.0606
331.95847
331.91856
331.82264
331.78676
331.69593
331.66354
331.5769
331.54763
331.46442
331.43799
331.35756
331.33379
331.25557
331.23435
331.15784
331.13911
331.06382
331.0476
330.97307
330.95947
330.88517
330.87441
330.79973
330.79226
330.71633
330.7129
330.63497
336.38492
336.54063
335.89207
335.46026
335.14678
334.78617
334.56099
334.27727
334.11684
333.88377
333.76087
333.56346
333.46499
333.29374
333.21235
333.06083
332.99196
332.85569
332.79634
332.67212
332.62024
332.50568
332.45983
332.35313
332.31228
332.212
332.17542
332.08042
332.04756
331.95692
331.92738
331.84031
331.81381
331.72964
331.70599
331.62414
331.6032
331.52314
331.50487
331.4261
331.4105
331.33255
331.3197
331.24205
331.23216
331.15421
331.14764
331.06868
331.06591
330.98562
336.47351
336.65818
336.15936
335.78823
335.51486
335.17604
334.96428
334.68636
334.53003
334.29685
334.17471
333.9748
333.87577
333.70102
333.61857
333.46313
333.39307
333.25277
333.19227
333.06403
333.01113
332.89263
332.84592
332.73538
332.69385
332.58985
332.55276
332.45416
332.42096
332.32682
332.29711
332.20663
332.18013
332.09263
332.06913
331.98403
331.96339
331.88014
331.86231
331.78041
331.76538
331.68435
331.67218
331.59152
331.58239
331.50155
331.49571
331.41411
331.41179
331.32947
336.54928
336.73407
336.36736
336.05677
335.82747
335.51665
335.32325
335.0562
334.90744
334.67788
334.55886
334.35922
334.26128
334.08515
334.00283
333.84515
333.77478
333.63178
333.57079
333.43963
333.38621
333.2647
333.21752
333.10393
333.06201
332.95498
332.91761
332.816
332.78264
332.68553
332.65579
332.56239
332.53597
332.4456
332.4223
332.33436
332.31404
332.228
332.2106
332.12595
332.11144
332.02772
332.01615
331.93287
331.92437
331.84104
331.83576
331.75195
331.74991
331.66587
336.61532
336.78277
336.52634
336.27236
336.08797
335.80916
335.6379
335.38601
335.2479
335.02541
334.91179
334.71511
334.61993
334.44451
334.36356
334.20531
334.13556
333.99123
333.93048
333.79754
333.74416
333.62059
333.57336
333.45756
333.41559
333.30624
333.26885
333.16488
333.13156
333.03206
333.00242
332.90662
332.88039
332.78762
332.7646
332.67427
332.65431
332.5659
332.54893
332.46194
332.44793
332.3619
332.35088
332.26537
332.2574
332.17198
332.16713
332.0815
332.07962
331.99415
336.67391
336.81543
336.64634
336.44247
336.30116
336.05618
335.90947
335.67606
335.55115
335.33874
335.23259
335.04134
334.95053
334.77784
334.6995
334.54233
334.47416
334.32988
334.2701
334.13653
334.08377
333.95913
333.91233
333.79516
333.75351
333.64259
333.60548
333.49979
333.46674
333.36544
333.3361
333.23843
333.21253
333.11785
333.0952
333.00294
332.9834
332.89305
332.87653
332.78763
332.77409
332.68619
332.67564
332.58833
332.58079
332.49372
332.48917
332.40213
332.40031
332.31371
336.7265
336.83977
336.73648
336.57487
336.4728
336.26145
336.14032
335.92761
335.81778
335.61793
335.52101
335.3374
335.25242
335.08432
335.00977
334.85526
334.78962
334.6467
334.58867
334.45559
334.40407
334.27933
334.23345
334.11575
334.07482
333.96308
333.92657
333.81984
333.78732
333.68482
333.65597
333.55699
333.53156
333.4355
333.41332
333.31962
333.30055
333.20874
333.19269
333.10232
333.08925
332.99991
332.98979
332.90111
332.89393
332.80561
332.80128
332.7132
332.71141
332.62395
336.77418
336.86076
336.80461
336.67705
336.60908
336.42952
336.33369
336.1428
336.04922
335.86376
335.77745
335.60332
335.52543
335.36359
335.29391
335.14349
335.08129
334.94099
334.88543
334.75395
334.70427
334.58038
334.53592
334.41854
334.37874
334.26692
334.23134
334.12425
334.09252
333.98943
333.96129
333.86156
333.83678
333.73984
333.71826
333.62361
333.6051
333.51229
333.49676
333.40537
333.39277
333.30242
333.29272
333.20309
333.19622
333.10706
333.10289
333.01415
333.01235
332.92433
336.81763
336.8811
336.85706
336.75583
336.71616
336.56539
336.49346
336.32449
336.24757
336.07767
336.00291
335.83969
335.76991
335.61573
335.55185
335.40682
335.34885
335.21233
335.15994
335.03107
334.98382
334.8617
334.81914
334.7029
334.66463
334.55347
334.51915
334.41236
334.3817
334.27865
334.25142
334.15151
334.12754
334.03027
334.0094
333.91431
333.89644
333.8031
333.78815
333.69619
333.68409
333.59317
333.58387
333.49371
333.48712
333.39754
333.39349
333.30444
333.30263
333.21436
336.85737
336.90198
336.89873
336.81703
336.79983
336.67411
336.62386
336.47602
336.41551
336.26169
336.19896
336.04763
335.98668
335.84126
335.78395
335.64538
335.59236
335.46063
335.41204
335.28671
335.24243
335.12292
335.08273
334.9684
334.93205
334.82226
334.78953
334.68369
334.65437
334.55194
334.52585
334.42633
334.40333
334.30625
334.28624
334.19119
334.17406
334.08067
334.06634
333.97428
333.9627
333.87166
333.86275
333.7725
333.76617
333.67655
333.67261
333.58361
333.58179
333.49357
336.89378
336.92361
336.93315
336.86541
336.86525
336.76057
336.72923
336.60104
336.55608
336.41825
336.3676
336.22871
336.177
336.04114
335.99093
335.8597
335.8122
335.68612
335.64185
335.52089
335.48006
335.36393
335.32653
335.21482
335.18076
335.073
335.04217
334.9379
334.91018
334.80894
334.78422
334.6856
334.66377
334.56739
334.54836
334.45384
334.43755
334.34457
334.33095
334.23922
334.2282
334.13746
334.12897
334.03903
334.03296
333.94369
333.93986
333.85125
333.84944
333.76157
336.92719
336.94573
336.96273
336.90465
336.91678
336.82923
336.81376
336.70326
336.67252
336.55009
336.51115
336.38482
336.34248
336.21665
336.17387
336.05063
336.00904
335.8893
335.84979
335.73389
335.69691
335.58484
335.55059
335.44215
335.4107
335.30558
335.27694
335.1748
335.14892
335.04944
335.02627
334.92909
334.90858
334.81338
334.79547
334.70196
334.6866
334.59449
334.58163
334.49067
334.48025
334.39024
334.38219
334.29296
334.28716
334.19861
334.1949
334.10702
334.10523
334.01804
336.95786
336.96785
336.98904
336.93746
336.958
336.88397
336.88131
336.78629
336.76814
336.6601
336.63216
336.51816
336.485
336.36939
336.33415
336.21928
336.18386
336.07098
336.03652
335.92624
335.89343
335.78598
335.7552
335.65057
335.62202
335.52008
335.49387
335.3944
335.37058
335.27334
335.25192
335.15665
335.13762
335.04408
335.02741
334.93534
334.92102
334.8302
334.81818
334.72841
334.71864
334.62974
334.62216
334.53402
334.52851
334.44104
334.43748
334.35063
334.3489
334.26268
336.98603
336.98954
337.013
336.96577
336.99167
336.92804
336.93534
336.85349
336.84611
336.75118
336.73328
336.63104
336.60665
336.50116
336.47336
336.36705
336.33787
336.23218
336.20295
336.09871
336.07028
335.96791
335.94081
335.84048
335.81504
335.71675
335.69319
335.59685
335.57527
335.48073
335.46122
335.36831
335.35089
335.25943
335.24412
335.15391
335.14071
335.05159
335.04047
334.95227
334.94321
334.85581
334.84874
334.76203
334.75686
334.67078
334.6674
334.58191
334.58025
334.49531
337.01193
337.01042
337.03513
336.99085
337.01985
336.96407
336.97877
336.90788
336.90941
336.82613
336.81712
336.72585
336.7096
336.6139
336.59326
336.49547
336.47247
336.37413
336.35018
336.25224
336.22831
336.13135
336.10809
336.01243
335.99027
335.89603
335.87526
335.78245
335.76327
335.67183
335.65435
335.5642
335.54851
335.45952
335.44566
335.3577
335.3457
335.25864
335.2485
335.16224
335.15393
335.06836
335.06184
334.9769
334.9721
334.88773
334.88456
334.80072
334.79915
334.71579
337.03576
337.03026
337.05569
337.01352
337.04403
336.99409
337.01402
336.95205
336.96071
336.88756
336.8862
336.80494
336.79606
336.70962
336.6957
336.60623
336.58919
336.49819
336.47945
336.38795
336.36853
336.27722
336.25787
336.16715
336.14837
336.05848
336.04062
335.95167
335.93498
335.84699
335.83165
335.74459
335.73073
335.64455
335.63223
335.54685
335.53612
335.45147
335.44235
335.35835
335.35084
335.26742
335.2615
335.17862
335.17423
335.09185
335.08894
335.00701
335.00556
334.92404
337.0577
337.04894
337.07481
337.03428
337.06523
337.01962
337.04302
336.9882
337.00234
336.93784
336.94286
336.87057
336.86818
336.79035
336.78258
336.70107
336.68965
336.60585
336.59213
336.50708
336.49211
336.40654
336.39108
336.3055
336.29011
336.20481
336.18991
336.10508
336.09095
336.00668
335.99355
335.90988
335.8979
335.81483
335.80411
335.72161
335.71221
335.63025
335.62221
335.54076
335.5341
335.45311
335.44782
335.36728
335.36332
335.2832
335.28056
335.20081
335.19949
335.12008
337.07791
337.06641
337.09254
337.05342
337.08413
337.04176
337.06726
337.0181
337.03627
336.97903
336.98922
336.92481
336.92798
336.85801
336.85575
336.78171
336.77549
336.69862
336.68966
336.61095
336.60025
336.52045
336.5088
336.42843
336.41642
336.33585
336.32391
336.24338
336.23184
336.15151
336.14062
336.06057
336.05051
335.97079
335.9617
335.88233
335.87429
335.79528
335.78836
335.7097
335.70392
335.62561
335.62099
335.54302
335.53954
335.4619
335.45956
335.38222
335.38105
335.30397
337.09653
337.08269
337.10893
337.0711
337.10117
337.06128
337.08786
337.04314
337.06412
337.01289
337.02711
336.96953
336.97736
336.91445
336.917
336.84988
336.84834
336.77805
336.77349
336.70092
336.69427
336.62014
336.61215
336.53701
336.52827
336.45251
336.44347
336.36737
336.35838
336.28214
336.27348
336.19723
336.1891
336.11293
336.10548
336.02945
336.0228
335.94694
335.94115
335.86551
335.86063
335.78521
335.78127
335.70608
335.7031
335.62815
335.62614
335.55141
335.55039
335.47587
337.11368
337.09779
337.12399
337.08741
337.1166
337.0787
337.10561
337.0644
337.08719
337.0409
337.05814
337.00641
337.018
336.96134
336.96799
336.90718
336.90978
336.84564
336.84508
336.77837
336.77547
336.70686
336.70231
336.63233
336.62671
336.55575
336.54952
336.4779
336.47141
336.39934
336.39288
336.32054
336.31432
336.24184
336.23603
336.16349
336.15822
336.08569
336.08103
336.00857
336.0046
335.93224
335.92901
335.85678
335.85431
335.78223
335.78054
335.7086
335.70775
335.63596
337.12945
337.11178
337.13776
337.1024
337.13059
337.09434
337.12109
337.08267
337.10649
337.06423
337.08362
337.03684
337.05139
337.00021
337.01025
336.95514
336.9613
336.90284
336.90583
336.84465
336.84515
336.78183
336.78047
336.71551
336.71283
336.64661
336.64304
336.57589
336.57178
336.50394
336.49959
336.43124
336.42688
336.35818
336.35397
336.28503
336.28111
336.21203
336.20851
336.13935
336.1363
336.06713
336.06461
335.99547
335.99352
335.92445
335.92311
335.8541
335.85343
335.78451
337.14393
337.12468
337.15027
337.11609
337.14324
337.10844
337.1347
337.09854
337.12279
337.08383
337.10465
337.06204
337.07881
337.03238
337.04516
336.99512
337.00429
336.95102
336.95709
336.90105
336.90459
336.84628
336.84782
336.78768
336.78771
336.72611
336.72503
336.66228
336.66043
336.59678
336.59445
336.5301
336.52751
336.46264
336.45998
336.3947
336.39211
336.32655
336.32413
336.25838
336.25622
336.19035
336.18852
336.12259
336.12116
336.0552
336.05421
335.98826
335.98775
335.92184
337.15716
337.13651
337.16154
337.12851
337.1546
337.12114
337.1467
337.11244
337.13667
337.10044
337.12209
337.08299
337.10134
337.05902
337.07392
337.02837
337.03999
336.99141
337.0001
336.94881
336.95499
336.90138
336.9055
336.84995
336.85243
336.79528
336.79648
336.73803
336.73827
336.67875
336.6783
336.61793
336.61702
336.55597
336.55478
336.49319
336.49186
336.42986
336.42851
336.36621
336.36492
336.3024
336.30127
336.2386
336.23768
336.17492
336.17426
336.11145
336.11111
336.0483
337.16918
337.14727
337.17159
337.13968
337.16473
337.13251
337.15727
337.12464
337.14857
337.11461
337.13664
337.10049
337.11988
337.08109
337.09757
337.05596
337.06953
337.02515
337.036
336.98905
336.99748
336.94824
336.95461
336.90339
336.90804
336.85514
336.8584
336.80408
336.80623
336.75073
336.75203
336.69555
336.6962
336.63893
336.63911
336.5812
336.58106
336.52263
336.52228
336.46345
336.463
336.40386
336.40338
336.34402
336.34359
336.28408
336.28375
336.22413
336.22395
336.16429
337.17995
337.15694
337.18044
337.14961
337.17363
337.14263
337.16653
337.13537
337.15878
337.12676
337.14882
337.11518
337.13518
337.09941
337.11699
337.07883
337.09389
337.05325
337.06584
337.02282
337.03311
336.9879
336.99617
336.949
336.95554
336.90666
336.91173
336.86137
336.86522
336.81361
336.81647
336.76379
336.76586
336.7123
336.71374
336.65945
336.66041
336.60551
336.6061
336.55072
336.55105
336.49529
336.49544
336.43939
336.43943
336.38317
336.38315
336.32675
336.32673
336.27025
337.18941
337.16547
337.18807
337.15831
337.18136
337.15154
337.17458
337.14477
337.16754
337.13722
337.15905
337.12756
337.14781
337.11465
337.13293
337.09778
337.11391
337.0766
337.09051
337.05104
337.06284
337.0213
337.03116
336.98774
336.99587
336.95076
336.95739
336.91079
336.91613
336.86822
336.87248
336.82346
336.8268
336.77683
336.77942
336.72865
336.73062
336.67919
336.68065
336.62867
336.62972
336.5773
336.57803
336.52527
336.52574
336.47273
336.473
336.41981
336.41994
336.36664
337.19744
337.17279
337.19449
337.16581
337.18793
337.1593
337.18149
337.15296
337.17502
337.14622
337.16764
337.13802
337.15825
337.12735
337.146
337.11348
337.13031
337.09594
337.11083
337.07453
337.08749
337.0493
337.06042
337.02045
337.0299
336.98829
336.99624
336.95316
336.95978
336.9154
336.92086
336.87533
336.87979
336.83328
336.83689
336.78954
336.7924
336.74434
336.74658
336.69793
336.69963
336.6505
336.65175
336.60224
336.6031
336.5533
336.55384
336.50382
336.50408
336.45395
337.20387
337.17888
337.19972
337.17214
337.1934
337.16595
337.18733
337.16003
337.18136
337.15395
337.17483
337.14688
337.16687
337.13796
337.1567
337.12649
337.14371
337.11194
337.12748
337.09402
337.10782
337.07265
337.08475
337.04793
337.05843
337.02006
337.02908
336.98929
336.99697
336.9559
336.96238
336.92017
336.92559
336.88238
336.88686
336.84279
336.84645
336.80164
336.80457
336.75914
336.76142
336.71549
336.71721
336.67086
336.67208
336.62542
336.6262
336.57931
336.57968
336.53265
337.20858
337.18368
337.20377
337.17734
337.19782
337.17155
337.19216
337.16607
337.18665
337.16055
337.18082
337.15437
337.17397
337.14681
337.16544
337.13725
337.15462
337.12514
337.14106
337.11013
337.12449
337.09204
337.10484
337.07088
337.08217
337.04677
337.05663
337.01989
337.02842
336.99044
336.99776
336.95867
336.96488
336.92481
336.93003
336.88909
336.89342
336.85173
336.85525
336.81293
336.81571
336.77286
336.775
336.73172
336.73326
336.68964
336.69064
336.64678
336.64727
336.60326
337.21155
337.18726
337.20672
337.18148
337.20125
337.17618
337.19605
337.17115
337.19099
337.16613
337.18575
337.16067
337.17979
337.15419
337.17253
337.14614
337.16343
337.13599
337.15204
337.12336
337.13804
337.10803
337.12128
337.08992
337.10176
337.06908
337.07956
337.04562
337.0548
337.01969
337.02767
336.99149
336.99835
336.96122
336.96704
336.92907
336.93395
336.89523
336.89924
336.85989
336.8631
336.82322
336.8257
336.78538
336.78718
336.74652
336.74769
336.70678
336.70735
336.66628
337.21292
337.18969
337.20866
337.18466
337.20378
337.1799
337.19908
337.17534
337.19448
337.1708
337.18975
337.16595
337.18449
337.16032
337.17823
337.15345
337.1705
337.14486
337.16085
337.13417
337.14895
337.12112
337.1346
337.10558
337.11776
337.08755
337.09844
337.06707
337.07671
337.04426
337.05271
337.01925
337.02659
336.99222
336.99851
336.96332
336.96864
336.93273
336.93714
336.90061
336.90417
336.8671
336.86987
336.83238
336.8344
336.79657
336.79789
336.7598
336.76045
336.7222
337.21301
337.19115
337.20972
337.18697
337.20551
337.1828
337.20133
337.17874
337.19718
337.17465
337.19292
337.17031
337.18824
337.16536
337.18276
337.15941
337.17609
337.15206
337.16782
337.14292
337.15761
337.13173
337.14525
337.11833
337.13066
337.10267
337.11379
337.08477
337.0947
337.06467
337.07345
337.0425
337.05017
337.01837
337.025
336.99242
336.99806
336.96479
336.9695
336.93563
336.93945
336.90507
336.90806
336.87325
336.87545
336.8403
336.84175
336.80635
336.80707
336.77151
337.21219
337.19184
337.21005
337.18854
337.20653
337.18499
337.20289
337.18141
337.19919
337.17776
337.19534
337.17386
337.19114
337.16945
337.18627
337.16422
337.18042
337.15782
337.17321
337.1499
337.16435
337.1402
337.1536
337.12856
337.14086
337.11489
337.12607
337.09917
337.10922
337.08142
337.09037
337.06172
337.0696
337.04016
337.04702
337.01685
337.02272
336.99191
336.99684
336.96546
336.96948
336.93761
336.94077
336.90849
336.91082
336.87823
336.87976
336.84692
336.84768
336.81469
337.21087
337.19196
337.2098
337.1895
337.20696
337.18654
337.20384
337.18344
337.20057
337.1802
337.19711
337.17668
337.19329
337.17271
337.18889
337.16802
337.18365
337.16233
337.17725
337.15534
337.16942
337.14682
337.15995
337.13659
337.14872
337.12455
337.13565
337.11066
337.1207
337.09492
337.10391
337.07737
337.08533
337.05807
337.06503
337.03711
337.0431
337.01458
337.01963
336.99057
336.99472
336.96521
336.96847
336.93858
336.941
336.9108
336.9124
336.88197
336.88276
336.85218
337.20931
337.1917
337.20912
337.18995
337.2069
337.18755
337.20426
337.1849
337.2014
337.18203
337.19828
337.17885
337.19477
337.1752
337.19072
337.17091
337.18591
337.16574
337.1801
337.15944
337.17304
337.15181
337.16456
337.14269
337.15453
337.13197
337.14285
337.11959
337.1295
337.10554
337.11445
337.08982
337.09776
337.07249
337.07946
337.05359
337.05962
337.03321
337.03831
337.01142
337.01562
336.9883
336.99163
336.96396
336.96642
336.93847
336.9401
336.91193
336.91274
336.88443
337.20771
337.1912
337.20813
337.19001
337.20643
337.1881
337.20424
337.18587
337.20174
337.18334
337.19891
337.18042
337.19564
337.17701
337.19182
337.17297
337.18729
337.16814
337.18187
337.16233
337.17537
337.15535
337.16762
337.14707
337.15851
337.13739
337.14796
337.12624
337.1359
337.11359
337.12232
337.09942
337.10724
337.08378
337.09067
337.06669
337.07267
337.04821
337.05329
337.02839
337.03258
337.0073
337.01063
336.98503
336.98751
336.96164
336.96328
336.93722
336.93804
336.91184
337.20612
337.19056
337.20693
337.18977
337.20565
337.18829
337.20384
337.18641
337.20166
337.18415
337.19905
337.18143
337.19594
337.17816
337.19224
337.17426
337.18786
337.16962
337.18266
337.1641
337.17651
337.15757
337.16928
337.1499
337.16086
337.14102
337.15118
337.13084
337.14017
337.11933
337.1278
337.10647
337.11407
337.09226
337.099
337.07673
337.0826
337.05991
337.06491
337.04184
337.04598
337.02258
337.02587
337.00218
337.00464
336.98071
336.98234
336.95823
336.95904
336.93482
337.20456
337.18983
337.20559
337.1893
337.20463
337.18816
337.20314
337.18658
337.2012
337.18452
337.19875
337.18191
337.19569
337.17868
337.19201
337.17481
337.18765
337.17022
337.18253
337.16484
337.17656
337.15857
337.16966
337.15132
337.16172
337.14301
337.15269
337.13359
337.1425
337.12299
337.13112
337.1112
337.11852
337.0982
337.10471
337.08401
337.0897
337.06864
337.0735
337.05211
337.05615
337.03447
337.03769
337.01575
337.01816
336.99602
336.99762
336.97532
336.97612
336.95371
337.20301
337.18905
337.20415
337.18865
337.20342
337.18778
337.20218
337.18642
337.20041
337.18448
337.19801
337.18188
337.19492
337.17859
337.19114
337.17462
337.18668
337.16996
337.18151
337.16458
337.17558
337.15841
337.16883
337.15141
337.16121
337.1435
337.15264
337.13463
337.14308
337.12475
337.13248
337.11382
337.12081
337.10184
337.10807
337.08878
337.09424
337.07466
337.07934
337.05948
337.06338
337.04328
337.04639
337.02607
337.0284
337.00791
337.00946
336.98883
336.9896
336.96887
337.20147
337.18822
337.20265
337.18788
337.20208
337.1872
337.20099
337.18596
337.1993
337.18404
337.19685
337.18134
337.19361
337.17787
337.18962
337.1737
337.18494
337.16885
337.1796
337.16334
337.17358
337.15714
337.16685
337.15024
337.15939
337.14257
337.15113
337.13409
337.14203
337.12476
337.13204
337.11452
337.12113
337.10337
337.10928
337.09127
337.09646
337.07822
337.08269
337.06422
337.06795
337.04928
337.05226
337.03342
337.03566
337.01667
337.01816
336.99905
336.9998
336.9806
337.1999
337.18736
337.2011
337.187
337.20062
337.18643
337.19961
337.18522
337.19788
337.18319
337.19525
337.18027
337.19173
337.1765
337.18742
337.172
337.18242
337.16685
337.17679
337.16111
337.17057
337.15477
337.16376
337.14785
337.15633
337.14029
337.14825
337.13207
337.13947
337.12313
337.12994
337.11344
337.11964
337.10296
337.10852
337.09166
337.09656
337.07953
337.08375
337.06655
337.07008
337.05272
337.05556
337.03806
337.04019
337.02257
337.02399
337.00628
337.00699
336.98921
337.1983
337.18645
337.19951
337.18603
337.19907
337.1855
337.19805
337.1842
337.19614
337.18192
337.19319
337.17863
337.18926
337.17444
337.1845
337.1695
337.17907
337.16395
337.17306
337.15787
337.16655
337.15131
337.15955
337.14426
337.15206
337.13672
337.14404
337.12864
337.13547
337.11998
337.12629
337.1107
337.11646
337.10076
337.10594
337.09013
337.09471
337.07877
337.08273
337.06668
337.07
337.05383
337.0565
337.04022
337.04223
337.02587
337.02721
337.01077
337.01144
336.99495
337.19665
337.18549
337.19788
337.18497
337.19743
337.1844
337.19628
337.18287
337.19404
337.18018
337.19061
337.17637
337.18613
337.17162
337.1808
337.16614
337.17484
337.1601
337.16837
337.15361
337.16149
337.14673
337.15422
337.13949
337.14659
337.13187
337.13856
337.12384
337.1301
337.11537
337.12117
337.1064
337.11171
337.09689
337.10169
337.08681
337.09106
337.07612
337.0798
337.06479
337.06788
337.05279
337.05528
337.04013
337.042
337.02678
337.02804
337.01277
337.01339
336.99808
337.19494
337.18448
337.19621
337.18384
337.1957
337.18312
337.19428
337.18118
337.19153
337.1779
337.18744
337.17341
337.18226
337.16797
337.17625
337.16184
337.16967
337.15523
337.16267
337.14827
337.15535
337.14102
337.14777
337.13352
337.13994
337.12577
337.13183
337.11773
337.12342
337.10936
337.11465
337.10062
337.10548
337.09146
337.09586
337.08184
337.08575
337.07171
337.0751
337.06104
337.0639
337.04979
337.0521
337.03796
337.0397
337.02552
337.02668
337.01247
337.01306
336.99881
337.19316
337.18342
337.1945
337.18261
337.19386
337.18162
337.19198
337.17907
337.18852
337.17499
337.18359
337.16965
337.17755
337.1634
337.17076
337.15654
337.16349
337.1493
337.1559
337.14181
337.14811
337.13415
337.14018
337.12635
337.1321
337.11842
337.12387
337.11032
337.11545
337.10201
337.1068
337.09344
337.09785
337.08456
337.08856
337.07532
337.07889
337.06567
337.06878
337.05557
337.05819
337.04499
337.04711
337.03389
337.03549
337.02227
337.02334
337.01009
337.01063
336.99737
337.1913
337.18229
337.19274
337.18128
337.19187
337.17984
337.18932
337.17644
337.1849
337.17134
337.17893
337.16499
337.17191
337.15781
337.16425
337.15015
337.15622
337.14222
337.14801
337.13418
337.13972
337.12609
337.13141
337.11798
337.12308
337.10985
337.1147
337.10166
337.10624
337.09336
337.09766
337.08491
337.08889
337.07626
337.07988
337.06734
337.07058
337.05811
337.06093
337.04851
337.0509
337.03851
337.04045
337.02808
337.02955
337.01719
337.01817
337.00581
337.0063
336.99393
337.18933
337.18112
337.19091
337.1798
337.18965
337.17768
337.18616
337.17315
337.18053
337.16682
337.17334
337.1593
337.16522
337.1511
337.1566
337.14257
337.14779
337.13394
337.13894
337.12533
337.13015
337.11681
337.12145
337.10838
337.11285
337.10004
337.10432
337.09175
337.09582
337.08345
337.08728
337.0751
337.07866
337.06664
337.06989
337.058
337.06091
337.04913
337.05168
337.03998
337.04215
337.03051
337.03227
337.02067
337.022
337.01043
337.01133
336.99978
337.00023
336.98868
337.18724
337.17991
337.18901
337.17814
337.18713
337.17502
337.18236
337.16906
337.17526
337.16127
337.16668
337.15245
337.15735
337.14315
337.14773
337.13374
337.13811
337.1244
337.12863
337.11523
337.11934
337.10628
337.11029
337.09755
337.10144
337.08902
337.09276
337.08062
337.0842
337.07232
337.07571
337.06406
337.06721
337.05576
337.05866
337.04737
337.04998
337.03883
337.04112
337.03009
337.03204
337.02108
337.02267
337.01179
337.01299
337.00215
337.00296
336.99216
336.99256
336.98177
337.18503
337.17868
337.18699
337.17621
337.18416
337.17169
337.17774
337.16396
337.1689
337.15452
337.15878
337.1443
337.14817
337.13387
337.13755
337.12357
337.12713
337.11353
337.11703
337.10384
337.10729
337.0945
337.0979
337.08549
337.08882
337.07678
337.08002
337.06831
337.07142
337.06001
337.06297
337.05183
337.05461
337.04369
337.04625
337.03553
337.03785
337.0273
337.02934
337.01892
337.02067
337.01035
337.01178
337.00155