/*--------------------------------*- C++ -*----------------------------------*\
| =========                 |                                                 |
| \\      /  F ield         | OpenFOAM: The Open Source CFD Toolbox           |
|  \\    /   O peration     | Version:  2312                                  |
|   \\  /    A nd           | Website:  www.openfoam.com                      |
|    \\/     M anipulation  |                                                 |
\*---------------------------------------------------------------------------*/
FoamFile
{
    version     2.0;
    format      ascii;
    arch        "LSB;label=32;scalar=64";
    class       volVectorField;
    location    "6";
    object      U;
}
// * * * * * * * * * * * * * * * * * * * * * * * * * * * * * * * * * * * * * //

dimensions      [0 1 -1 0 0 0 0];

internalField   nonuniform List<vector> 
4000
(
(0.0026624591 0.00052627649 0)
(0.0043005013 -9.895331e-06 0)
(0.0028678639 -4.2003936e-07 0)
(0.0031117437 7.0762369e-08 0)
(0.0030041837 -2.0615962e-07 0)
(0.0030584057 1.918576e-07 0)
(0.0029967232 -2.1714028e-07 0)
(0.0030400872 1.8556923e-07 0)
(0.0029990155 -1.7779663e-07 0)
(0.0030353836 1.6591074e-07 0)
(0.0030013687 -1.56168e-07 0)
(0.0030328795 1.4665412e-07 0)
(0.0030032598 -1.381575e-07 0)
(0.0030309622 1.2993751e-07 0)
(0.0030049162 -1.2242745e-07 0)
(0.0030293346 1.152767e-07 0)
(0.003006401 -1.0863989e-07 0)
(0.0030279104 1.0239198e-07 0)
(0.0030077255 -9.6554852e-08 0)
(0.0030266537 9.1087596e-08 0)
(0.0030089025 -8.5966968e-08 0)
(0.0030255411 8.1181206e-08 0)
(0.003009948 -7.6695014e-08 0)
(0.0030245532 7.2507064e-08 0)
(0.0030108784 -6.8581213e-08 0)
(0.0030236732 6.4920156e-08 0)
(0.0030117088 -6.149041e-08 0)
(0.0030228865 5.8296309e-08 0)
(0.0030124527 -5.5307925e-08 0)
(0.0030221803 5.2530197e-08 0)
(0.0030131218 -4.9936786e-08 0)
(0.0030215436 4.7532702e-08 0)
(0.0030137267 -4.5294982e-08 0)
(0.0030209667 4.3228396e-08 0)
(0.0030142763 -4.1313106e-08 0)
(0.0030204409 3.9553457e-08 0)
(0.0030147789 -3.7932508e-08 0)
(0.0030199584 3.6454082e-08 0)
(0.0030152418 -3.5103952e-08 0)
(0.0030195123 3.3885381e-08 0)
(0.0030156717 -3.2786699e-08 0)
(0.0030190961 3.1810772e-08 0)
(0.003016075 -3.0948193e-08 0)
(0.0030187035 3.0201299e-08 0)
(0.0030164567 -2.9567236e-08 0)
(0.0030183279 2.9031479e-08 0)
(0.0030168245 -2.8638879e-08 0)
(0.003017989 2.8342057e-08 0)
(0.0030172954 -2.7805016e-08 0)
(0.0030180183 3.0204075e-08 0)
(0.0068460189 0.0013830751 0)
(0.011797524 1.5084353e-07 0)
(0.0085658688 1.3976855e-05 0)
(0.0089802132 -5.636781e-07 0)
(0.0087188321 -2.0712322e-07 0)
(0.008877829 8.7236105e-07 0)
(0.0086983888 -4.9254833e-07 0)
(0.0088254908 6.6471505e-07 0)
(0.0087043737 -5.91965e-07 0)
(0.0088124053 5.8426847e-07 0)
(0.0087114466 -5.4665312e-07 0)
(0.0088051663 5.2065985e-07 0)
(0.0087170912 -4.884413e-07 0)
(0.0087995045 4.618747e-07 0)
(0.008722029 -4.3411541e-07 0)
(0.0087946727 4.0959237e-07 0)
(0.0087264513 -3.8565092e-07 0)
(0.008790442 3.6376797e-07 0)
(0.0087303938 -3.4294806e-07 0)
(0.008786708 3.2364679e-07 0)
(0.0087338979 -3.0545766e-07 0)
(0.0087833997 2.8850552e-07 0)
(0.0087370129 -2.7258822e-07 0)
(0.0087804593 2.5772934e-07 0)
(0.0087397878 -2.4380128e-07 0)
(0.008777837 2.3080003e-07 0)
(0.0087422672 -2.1862948e-07 0)
(0.0087754901 2.0728054e-07 0)
(0.0087444906 -1.96674e-07 0)
(0.0087733812 1.8680171e-07 0)
(0.0087464929 -1.7759601e-07 0)
(0.0087714776 1.6905081e-07 0)
(0.0087483045 -1.6110766e-07 0)
(0.0087697507 1.5376228e-07 0)
(0.0087499526 -1.4696421e-07 0)
(0.0087681749 1.4071049e-07 0)
(0.0087514616 -1.3495789e-07 0)
(0.0087667269 1.2970437e-07 0)
(0.0087528534 -1.2491341e-07 0)
(0.0087653858 1.2058343e-07 0)
(0.0087541484 -1.1668472e-07 0)
(0.008764132 1.1321545e-07 0)
(0.0087553655 -1.101504e-07 0)
(0.0087629469 1.0750266e-07 0)
(0.0087565208 -1.0520427e-07 0)
(0.0087618092 1.0333923e-07 0)
(0.0087576306 -1.0208486e-07 0)
(0.008760743 9.9365723e-08 0)
(0.0087589421 -1.048558e-07 0)
(0.0087606042 9.5834645e-08 0)
(0.01085748 0.0021454529 0)
(0.018773078 -1.5956169e-05 0)
(0.014115296 3.4978135e-05 0)
(0.014690423 -6.9075553e-07 0)
(0.014282406 -1.846744e-07 0)
(0.014548558 1.7092115e-06 0)
(0.014249772 -7.1662318e-07 0)
(0.014464741 1.2175337e-06 0)
(0.01426052 -1.056431e-06 0)
(0.014443635 1.0614676e-06 0)
(0.014272753 -9.9247458e-07 0)
(0.014431574 9.4935034e-07 0)
(0.014282368 -8.894618e-07 0)
(0.014422023 8.4255654e-07 0)
(0.014290754 -7.9124062e-07 0)
(0.014413849 7.470345e-07 0)
(0.014298253 -7.0314492e-07 0)
(0.014406688 6.6340948e-07 0)
(0.014304934 -6.2539404e-07 0)
(0.014400367 5.9025131e-07 0)
(0.014310871 -5.5708655e-07 0)
(0.014394764 5.2618611e-07 0)
(0.014316151 -4.9717347e-07 0)
(0.014389782 4.7007367e-07 0)
(0.014320856 -4.4468541e-07 0)
(0.014385336 4.2096594e-07 0)
(0.014325063 -3.9877746e-07 0)
(0.014381355 3.7806805e-07 0)
(0.014328837 -3.5872733e-07 0)
(0.014377776 3.4070973e-07 0)
(0.014332237 -3.2392055e-07 0)
(0.014374544 3.0832305e-07 0)
(0.014335315 -2.9383419e-07 0)
(0.01437161 2.8042506e-07 0)
(0.014338117 -2.6802284e-07 0)
(0.014368932 2.5660479e-07 0)
(0.014340683 -2.4610766e-07 0)
(0.01436647 2.3651346e-07 0)
(0.014343051 -2.2776823e-07 0)
(0.014364188 2.1985719e-07 0)
(0.014345256 -2.1273665e-07 0)
(0.014362053 2.0639221e-07 0)
(0.014347329 -2.0078722e-07 0)
(0.014360033 1.9594079e-07 0)
(0.0143493 -1.9169945e-07 0)
(0.014358092 1.8832471e-07 0)
(0.014351194 -1.8594632e-07 0)
(0.014356247 1.8040033e-07 0)
(0.014353357 -1.9410765e-07 0)
(0.014355808 1.73649e-07 0)
(0.015495963 0.0031087264 0)
(0.025297403 -3.8992481e-05 0)
(0.019494649 6.2147181e-05 0)
(0.020244881 -1.0797016e-06 0)
(0.019695721 6.055037e-08 0)
(0.020069865 2.6374024e-06 0)
(0.01965085 -7.5880125e-07 0)
(0.019958049 1.750294e-06 0)
(0.019667347 -1.4823159e-06 0)
(0.019929249 1.5159817e-06 0)
(0.019685158 -1.4179734e-06 0)
(0.019912272 1.3622597e-06 0)
(0.019698961 -1.2747957e-06 0)
(0.019898677 1.209773e-06 0)
(0.019710968 -1.1351176e-06 0)
(0.01988701 1.0724339e-06 0)
(0.019721693 -1.0091184e-06 0)
(0.019876783 9.5233227e-07 0)
(0.019731241 -8.9771142e-07 0)
(0.019867752 8.4734195e-07 0)
(0.019739727 -7.9975696e-07 0)
(0.019859744 7.5541345e-07 0)
(0.019747274 -7.1379842e-07 0)
(0.019852621 6.7488575e-07 0)
(0.019754003 -6.3846635e-07 0)
(0.019846262 6.0439607e-07 0)
(0.019760021 -5.7256088e-07 0)
(0.019840566 5.4280807e-07 0)
(0.019765422 -5.1505364e-07 0)
(0.019835444 4.8916465e-07 0)
(0.019770289 -4.6506799e-07 0)
(0.019830818 4.4265428e-07 0)
(0.019774695 -4.2185642e-07 0)
(0.019826618 4.0258589e-07 0)
(0.019778706 -3.8478106e-07 0)
(0.019822783 3.6837039e-07 0)
(0.019782381 -3.5329842e-07 0)
(0.019819258 3.3950713e-07 0)
(0.019785772 -3.2694806e-07 0)
(0.019815989 3.1557333e-07 0)
(0.01978893 -3.0534439e-07 0)
(0.019812931 2.9621689e-07 0)
(0.019791901 -2.881595e-07 0)
(0.019810038 2.8118688e-07 0)
(0.019794726 -2.7504291e-07 0)
(0.019807255 2.7025543e-07 0)
(0.019797439 -2.6674794e-07 0)
(0.019804588 2.5795969e-07 0)
(0.019800463 -2.8315192e-07 0)
(0.019803707 2.4849886e-07 0)
(0.018746597 0.0034734368 0)
(0.031476737 -7.3277345e-05 0)
(0.024720908 9.6282024e-05 0)
(0.025647565 -1.6428834e-06 0)
(0.024958421 5.0756593e-07 0)
(0.02544088 3.6325091e-06 0)
(0.024901534 -6.2936742e-07 0)
(0.025305267 2.2350303e-06 0)
(0.024924998 -1.8534959e-06 0)
(0.025269101 1.9272525e-06 0)
(0.02494878 -1.8058013e-06 0)
(0.025247132 1.7421168e-06 0)
(0.024966968 -1.6285129e-06 0)
(0.025229358 1.5483203e-06 0)
(0.024982755 -1.4515018e-06 0)
(0.025214061 1.3723353e-06 0)
(0.024996841 -1.2908989e-06 0)
(0.025200645 1.2185951e-06 0)
(0.025009376 -1.1486231e-06 0)
(0.025188792 1.0842933e-06 0)
(0.025020517 -1.0234185e-06 0)
(0.02517828 9.6671143e-07 0)
(0.025030429 -9.1348953e-07 0)
(0.025168924 8.6369618e-07 0)
(0.025039268 -8.1711537e-07 0)
(0.025160571 7.7350342e-07 0)
(0.025047174 -7.3277897e-07 0)
(0.025153087 6.9468592e-07 0)
(0.025054272 -6.5917591e-07 0)
(0.025146355 6.2602572e-07 0)
(0.025060668 -5.951915e-07 0)
(0.025140275 5.6648907e-07 0)
(0.025066459 -5.3987316e-07 0)
(0.025134755 5.151943e-07 0)
(0.02507173 -4.9240648e-07 0)
(0.025129716 4.7138873e-07 0)
(0.025076559 -4.520965e-07 0)
(0.025125083 4.344317e-07 0)
(0.025081015 -4.1835358e-07 0)
(0.025120789 4.0378135e-07 0)
(0.025085164 -3.9068333e-07 0)
(0.025116772 3.7898476e-07 0)
(0.025089067 -3.6866226e-07 0)
(0.02511297 3.5972695e-07 0)
(0.025092779 -3.5179904e-07 0)
(0.025109316 3.4576269e-07 0)
(0.025096343 -3.4112728e-07 0)
(0.025105793 3.2897421e-07 0)
(0.025100238 -3.6796339e-07 0)
(0.025104352 3.1719262e-07 0)
(0.023804632 0.0045730789 0)
(0.037212212 -9.8225951e-05 0)
(0.029764997 0.00013359256 0)
(0.030902484 -2.8696504e-06 0)
(0.030069531 1.1642261e-06 0)
(0.03066131 4.6968697e-06 0)
(0.030002157 -3.5500928e-07 0)
(0.03050606 2.6686887e-06 0)
(0.030033897 -2.1750676e-06 0)
(0.03046284 2.2963184e-06 0)
(0.030063969 -2.1585209e-06 0)
(0.030435843 2.0906236e-06 0)
(0.030086688 -1.9524837e-06 0)
(0.03041379 1.8597728e-06 0)
(0.030106375 -1.7419617e-06 0)
(0.030394764 1.6481542e-06 0)
(0.030123926 -1.5498521e-06 0)
(0.030378062 1.4634576e-06 0)
(0.030139541 -1.3793263e-06 0)
(0.030363302 1.3022185e-06 0)
(0.03015342 -1.2291237e-06 0)
(0.030350205 1.1610631e-06 0)
(0.030165771 -1.0971758e-06 0)
(0.030338546 1.0373759e-06 0)
(0.030176788 -9.8145694e-07 0)
(0.030328134 9.2906364e-07 0)
(0.030186644 -8.8016781e-07 0)
(0.030318803 8.3439642e-07 0)
(0.030195493 -7.9175536e-07 0)
(0.03031041 7.5191915e-07 0)
(0.030203468 -7.1488873e-07 0)
(0.030302829 6.8039532e-07 0)
(0.030210688 -6.4842803e-07 0)
(0.030295948 6.1876869e-07 0)
(0.030217259 -5.9139692e-07 0)
(0.030289666 5.6613623e-07 0)
(0.030223278 -5.4296101e-07 0)
(0.030283892 5.2172831e-07 0)
(0.030228832 -5.0241142e-07 0)
(0.030278541 4.8489288e-07 0)
(0.030234001 -4.6915304e-07 0)
(0.030273536 4.5508283e-07 0)
(0.030238863 -4.4267254e-07 0)
(0.030268801 4.3192589e-07 0)
(0.030243487 -4.22327e-07 0)
(0.030264251 4.1518979e-07 0)
(0.030247925 -4.0940397e-07 0)
(0.030259849 3.9385592e-07 0)
(0.030252697 -4.4830775e-07 0)
(0.030257746 3.796017e-07 0)
(0.026428747 0.0045996635 0)
(0.042558592 -0.00015979649 0)
(0.03467133 0.00017471599 0)
(0.036006181 -4.6334768e-06 0)
(0.035026923 1.979138e-06 0)
(0.035730572 5.8069237e-06 0)
(0.034952888 2.3319986e-08 0)
(0.035559981 3.0448398e-06 0)
(0.034994436 -2.453823e-06 0)
(0.035510083 2.6246419e-06 0)
(0.03503107 -2.4796114e-06 0)
(0.035478076 2.41011e-06 0)
(0.035058425 -2.2492534e-06 0)
(0.035451689 2.1462928e-06 0)
(0.035082096 -2.0086273e-06 0)
(0.035428864 1.9018294e-06 0)
(0.035103186 -1.7878322e-06 0)
(0.035408812 1.6886429e-06 0)
(0.035121946 -1.591451e-06 0)
(0.035391083 1.502644e-06 0)
(0.035138621 -1.4183123e-06 0)
(0.035375346 1.3398223e-06 0)
(0.035153465 -1.2661347e-06 0)
(0.035361332 1.1971298e-06 0)
(0.035166709 -1.1326296e-06 0)
(0.035348814 1.0721533e-06 0)
(0.035178559 -1.015747e-06 0)
(0.035337594 9.6290605e-07 0)
(0.035189199 -9.137095e-07 0)
(0.035327502 8.6771685e-07 0)
(0.035198788 -8.2498954e-07 0)
(0.035318387 7.8516378e-07 0)
(0.035207469 -7.4827583e-07 0)
(0.035310114 7.1403047e-07 0)
(0.035215369 -6.8244324e-07 0)
(0.035302563 6.5327553e-07 0)
(0.035222603 -6.2652891e-07 0)
(0.035295623 6.0201034e-07 0)
(0.035229277 -5.7971377e-07 0)
(0.035289193 5.5948082e-07 0)
(0.035235489 -5.4130925e-07 0)
(0.035283179 5.2505155e-07 0)
(0.03524133 -5.1071759e-07 0)
(0.035277492 4.9829809e-07 0)
(0.035246883 -4.8713493e-07 0)
(0.035272031 4.7903065e-07 0)
(0.035252211 -4.720575e-07 0)
(0.035266733 4.5317266e-07 0)
(0.035257863 -5.2415501e-07 0)
(0.035263882 4.3596129e-07 0)
(0.031613864 0.0056931158 0)
(0.047489879 -0.00018009095 0)
(0.039402964 0.00021343305 0)
(0.040948085 -5.227518e-06 0)
(0.039832261 3.3666816e-06 0)
(0.040649473 7.0126412e-06 0)
(0.039754577 5.0244448e-07 0)
(0.040466873 3.3604459e-06 0)
(0.039807065 -2.6908982e-06 0)
(0.040410544 2.9121813e-06 0)
(0.039850401 -2.7696841e-06 0)
(0.040373556 2.7007907e-06 0)
(0.039882448 -2.5191179e-06 0)
(0.040342807 2.4080303e-06 0)
(0.039910153 -2.2516807e-06 0)
(0.040316144 2.1334871e-06 0)
(0.039934827 -2.0049707e-06 0)
(0.0402927 1.8942568e-06 0)
(0.039956773 -1.7850971e-06 0)
(0.040271963 1.6856561e-06 0)
(0.039976284 -1.5910626e-06 0)
(0.040253549 1.5030596e-06 0)
(0.039993655 -1.42043e-06 0)
(0.040237147 1.3430169e-06 0)
(0.040009158 -1.2706878e-06 0)
(0.040222492 1.2028239e-06 0)
(0.040023031 -1.1395646e-06 0)
(0.040209356 1.0802612e-06 0)
(0.040035488 -1.0250823e-06 0)
(0.040197541 9.7346177e-07 0)
(0.040046715 -9.2553517e-07 0)
(0.040186869 8.808351e-07 0)
(0.040056877 -8.3945598e-07 0)
(0.040177185 8.0101873e-07 0)
(0.040066124 -7.6558372e-07 0)
(0.040168346 7.3284481e-07 0)
(0.040074591 -7.0283797e-07 0)
(0.040160224 6.7531572e-07 0)
(0.040082401 -6.5029848e-07 0)
(0.0401527 6.2758354e-07 0)
(0.040089669 -6.0719069e-07 0)
(0.040145665 5.8893062e-07 0)
(0.0400965 -5.7283818e-07 0)
(0.040139014 5.5888508e-07 0)
(0.040102995 -5.4626992e-07 0)
(0.04013263 5.3732887e-07 0)
(0.040109225 -5.2913758e-07 0)
(0.040126427 5.0704928e-07 0)
(0.040115756 -5.9514172e-07 0)
(0.040122758 4.8623725e-07 0)
(0.034227003 0.005601925 0)
(0.051934721 -0.00026770529 0)
(0.044044804 0.00024893416 0)
(0.045675938 -6.3328355e-06 0)
(0.044476321 4.5889016e-06 0)
(0.045416159 8.1885919e-06 0)
(0.044407306 1.0363983e-06 0)
(0.04522639 3.6018907e-06 0)
(0.044472094 -2.8893823e-06 0)
(0.045163949 3.157431e-06 0)
(0.044522226 -3.0289896e-06 0)
(0.045122039 2.962153e-06 0)
(0.044558985 -2.7618271e-06 0)
(0.045086928 2.644559e-06 0)
(0.044590749 -2.4707828e-06 0)
(0.045056411 2.342752e-06 0)
(0.044619029 -2.2009287e-06 0)
(0.045029557 2.0799606e-06 0)
(0.044644182 -1.9599447e-06 0)
(0.045005791 1.8509456e-06 0)
(0.044666549 -1.7470794e-06 0)
(0.044984681 1.6504936e-06 0)
(0.044686467 -1.5597929e-06 0)
(0.044965872 1.4747829e-06 0)
(0.044704246 -1.3953885e-06 0)
(0.044949064 1.3208464e-06 0)
(0.044720158 -1.2514025e-06 0)
(0.044933998 1.1862563e-06 0)
(0.044734445 -1.125678e-06 0)
(0.044920445 1.0689694e-06 0)
(0.044747322 -1.0163501e-06 0)
(0.044908206 9.6724356e-07 0)
(0.044758977 -9.2181071e-07 0)
(0.044897099 8.7958426e-07 0)
(0.044769582 -8.4067613e-07 0)
(0.044886963 8.0470922e-07 0)
(0.04477929 -7.7175939e-07 0)
(0.04487765 7.4152203e-07 0)
(0.044788244 -7.1404844e-07 0)
(0.044869025 6.8908943e-07 0)
(0.044796574 -6.6669037e-07 0)
(0.044860962 6.4661801e-07 0)
(0.044804404 -6.2893654e-07 0)
(0.044853341 6.13593e-07 0)
(0.044811845 -5.9964582e-07 0)
(0.04484603 5.899963e-07 0)
(0.044818982 -5.8056889e-07 0)
(0.044838918 5.5546979e-07 0)
(0.044826388 -6.6083281e-07 0)
(0.04483437 5.3037351e-07 0)
(0.039450082 0.0065111881 0)
(0.056048849 -0.00029251653 0)
(0.048601775 0.00029238204 0)
(0.050175346 -9.0370838e-06 0)
(0.048952026 4.994526e-06 0)
(0.050030009 9.2091254e-06 0)
(0.048911334 1.5857406e-06 0)
(0.049838304 3.7594848e-06 0)
(0.048989818 -3.0514385e-06 0)
(0.04977007 3.3598881e-06 0)
(0.049046778 -3.2577847e-06 0)
(0.049723314 3.1940521e-06 0)
(0.04908824 -2.9773137e-06 0)
(0.049683862 2.8556922e-06 0)
(0.049124064 -2.6657904e-06 0)
(0.049649496 2.5294463e-06 0)
(0.049155953 -2.3755476e-06 0)
(0.049619231 2.2455883e-06 0)
(0.049184317 -2.115836e-06 0)
(0.049592434 1.9983574e-06 0)
(0.049209544 -1.8862131e-06 0)
(0.049568623 1.781981e-06 0)
(0.049232013 -1.6840852e-06 0)
(0.049547403 1.5922969e-06 0)
(0.049252071 -1.5066065e-06 0)
(0.049528439 1.4261029e-06 0)
(0.049270025 -1.3511479e-06 0)
(0.049511438 1.2807855e-06 0)
(0.049286147 -1.2153959e-06 0)
(0.049496145 1.1541451e-06 0)
(0.049300676 -1.0973441e-06 0)
(0.049482334 1.0443043e-06 0)
(0.049313827 -9.9525915e-07 0)
(0.049469803 9.4965082e-07 0)
(0.049325791 -9.0764771e-07 0)
(0.049458368 8.6880003e-07 0)
(0.049336743 -8.3322748e-07 0)
(0.049447863 8.0056705e-07 0)
(0.049346842 -7.7090409e-07 0)
(0.049438135 7.4394196e-07 0)
(0.049356236 -7.1975413e-07 0)
(0.049429043 6.9806235e-07 0)
(0.049365064 -6.7896355e-07 0)
(0.049420451 6.6237489e-07 0)
(0.049373453 -6.4722131e-07 0)
(0.049412212 6.369873e-07 0)
(0.049381498 -6.2632024e-07 0)
(0.049404193 5.984451e-07 0)
(0.049389771 -7.2087533e-07 0)
(0.049398721 5.6840609e-07 0)
(0.042438831 0.0064465572 0)
(0.059756479 -0.00039359741 0)
(0.053009673 0.00032741158 0)
(0.054517858 -1.1532219e-05 0)
(0.053268132 4.5886724e-06 0)
(0.054492843 9.9908122e-06 0)
(0.053267689 2.1266054e-06 0)
(0.054302615 3.824586e-06 0)
(0.053360559 -3.1790205e-06 0)
(0.054228725 3.5194025e-06 0)
(0.053424273 -3.4566083e-06 0)
(0.054177193 3.3966142e-06 0)
(0.053470398 -3.165761e-06 0)
(0.054133438 3.0414823e-06 0)
(0.053510262 -2.836785e-06 0)
(0.054095246 2.693605e-06 0)
(0.053545744 -2.5288698e-06 0)
(0.054061586 2.3911641e-06 0)
(0.053577306 -2.2527937e-06 0)
(0.054031769 2.1279072e-06 0)
(0.053605381 -2.0084765e-06 0)
(0.054005268 1.8975323e-06 0)
(0.053630391 -1.7933153e-06 0)
(0.053981646 1.695567e-06 0)
(0.053652721 -1.6043482e-06 0)
(0.053960532 1.5186001e-06 0)
(0.053672711 -1.4388066e-06 0)
(0.053941603 1.363855e-06 0)
(0.053690661 -1.2942416e-06 0)
(0.053924576 1.2289951e-06 0)
(0.053706837 -1.1685228e-06 0)
(0.053909199 1.1120236e-06 0)
(0.053721477 -1.0598072e-06 0)
(0.053895248 1.0112247e-06 0)
(0.053734796 -9.6650449e-07 0)
(0.053882519 9.2512363e-07 0)
(0.053746987 -8.8724849e-07 0)
(0.053870827 8.5245737e-07 0)
(0.053758227 -8.2087199e-07 0)
(0.053860001 7.921481e-07 0)
(0.053768681 -7.6638904e-07 0)
(0.053849883 7.4327138e-07 0)
(0.053778503 -7.2292728e-07 0)
(0.053840324 7.0523933e-07 0)
(0.053787836 -6.8900875e-07 0)
(0.053831163 6.7830833e-07 0)
(0.053796785 -6.6641365e-07 0)
(0.053822243 6.3602641e-07 0)
(0.053805915 -7.7500499e-07 0)
(0.053815808 6.0045418e-07 0)
(0.047525295 0.0071402841 0)
(0.063307727 -0.00040886772 0)
(0.057155564 0.00035538138 0)
(0.058771365 -1.2437327e-05 0)
(0.057428747 3.658229e-06 0)
(0.058806182 1.0485068e-05 0)
(0.057477039 2.6526171e-06 0)
(0.058619221 3.7984042e-06 0)
(0.057584534 -3.2716112e-06 0)
(0.05853972 3.636933e-06 0)
(0.057654889 -3.6258902e-06 0)
(0.058483505 3.5701831e-06 0)
(0.05770562 -3.3274705e-06 0)
(0.058435502 3.2021214e-06 0)
(0.057749486 -2.9839731e-06 0)
(0.058393524 2.8353869e-06 0)
(0.057788531 -2.6610531e-06 0)
(0.0583565 2.516824e-06 0)
(0.057823263 -2.3709462e-06 0)
(0.05832369 2.2397119e-06 0)
(0.057854163 -2.1139784e-06 0)
(0.05829452 1.9972494e-06 0)
(0.057881694 -1.887578e-06 0)
(0.058268515 1.7846832e-06 0)
(0.057906277 -1.6886979e-06 0)
(0.058245269 1.5984188e-06 0)
(0.057928285 -1.5144546e-06 0)
(0.058224428 1.435538e-06 0)
(0.057948048 -1.3622838e-06 0)
(0.058205681 1.2935854e-06 0)
(0.057965857 -1.229949e-06 0)
(0.058188752 1.1704617e-06 0)
(0.057981975 -1.115512e-06 0)
(0.058173393 1.0643611e-06 0)
(0.057996637 -1.0172992e-06 0)
(0.058159381 9.7373091e-07 0)
(0.058010056 -9.338712e-07 0)
(0.058146511 8.9724032e-07 0)
(0.058022428 -8.6399776e-07 0)
(0.058134595 8.3375238e-07 0)
(0.058033933 -8.0663838e-07 0)
(0.058123461 7.8228774e-07 0)
(0.05804474 -7.608696e-07 0)
(0.058112944 7.4222786e-07 0)
(0.058055008 -7.250523e-07 0)
(0.058102869 7.1399694e-07 0)
(0.058064854 -7.009032e-07 0)
(0.058093058 6.6828742e-07 0)
(0.058074829 -8.2302479e-07 0)
(0.058085635 6.2669231e-07 0)
(0.050678137 0.007083615 0)
(0.066490384 -0.00051718217 0)
(0.061096053 0.00037878347 0)
(0.062939506 -1.2666797e-05 0)
(0.061437961 2.7905045e-06 0)
(0.062971161 1.0732892e-05 0)
(0.061539972 3.1745283e-06 0)
(0.062788025 3.6879884e-06 0)
(0.061661938 -3.3273472e-06 0)
(0.062702883 3.7138842e-06 0)
(0.061738778 -3.7661249e-06 0)
(0.062642089 3.7151666e-06 0)
(0.061794048 -3.4628664e-06 0)
(0.062589915 3.3378755e-06 0)
(0.061841868 -3.1076611e-06 0)
(0.062544206 2.9550314e-06 0)
(0.06188443 -2.7723415e-06 0)
(0.062503863 2.6227818e-06 0)
(0.061922292 -2.4704986e-06 0)
(0.062468098 2.3339607e-06 0)
(0.061955981 -2.2028972e-06 0)
(0.062436293 2.0813002e-06 0)
(0.061986001 -1.9670314e-06 0)
(0.062407936 1.8597957e-06 0)
(0.062012809 -1.759797e-06 0)
(0.062382584 1.6656935e-06 0)
(0.06203681 -1.5782189e-06 0)
(0.062359855 1.4959555e-06 0)
(0.062058362 -1.4196373e-06 0)
(0.06233941 1.3480258e-06 0)
(0.062077784 -1.2817266e-06 0)
(0.062320948 1.219718e-06 0)
(0.062095361 -1.1624683e-06 0)
(0.0623042 1.1091507e-06 0)
(0.062111349 -1.0601181e-06 0)
(0.06228892 1.0147049e-06 0)
(0.062125981 -9.7317511e-07 0)
(0.062274887 9.3499259e-07 0)
(0.062139469 -9.0035523e-07 0)
(0.062261896 8.6882639e-07 0)
(0.062152012 -8.4057146e-07 0)
(0.062249759 8.1517922e-07 0)
(0.062163792 -7.9285667e-07 0)
(0.062238296 7.7340568e-07 0)
(0.062174983 -7.5541877e-07 0)
(0.062227319 7.4411295e-07 0)
(0.062185715 -7.2986552e-07 0)
(0.062216631 6.9531688e-07 0)
(0.062196518 -8.6479387e-07 0)
(0.0622082 6.4733438e-07 0)
(0.05557332 0.0075774582 0)
(0.069595561 -0.0005337833 0)
(0.064857119 0.00039858281 0)
(0.066978281 -1.3579413e-05 0)
(0.065300724 2.1680821e-06 0)
(0.06698803 1.0661196e-05 0)
(0.065456901 3.6873886e-06 0)
(0.066808993 3.4942284e-06 0)
(0.065593006 -3.34502e-06 0)
(0.066718102 3.7519269e-06 0)
(0.065676099 -3.8776583e-06 0)
(0.066652817 3.8321895e-06 0)
(0.065735816 -3.5723851e-06 0)
(0.066596554 3.4491318e-06 0)
(0.065787524 -3.2082202e-06 0)
(0.066547182 3.052868e-06 0)
(0.065833545 -2.8630514e-06 0)
(0.066503577 2.7093285e-06 0)
(0.065874484 -2.551726e-06 0)
(0.066464907 2.4109113e-06 0)
(0.065910916 -2.2754757e-06 0)
(0.066430512 2.1499145e-06 0)
(0.065943385 -2.0318918e-06 0)
(0.06639984 1.9211098e-06 0)
(0.06597238 -1.8178393e-06 0)
(0.066372418 1.7206088e-06 0)
(0.065998341 -1.6302737e-06 0)
(0.066347833 1.5452736e-06 0)
(0.066021653 -1.4664591e-06 0)
(0.066325718 1.3924659e-06 0)
(0.06604266 -1.3239974e-06 0)
(0.066305749 1.2599282e-06 0)
(0.066061671 -1.2008047e-06 0)
(0.066287633 1.1457167e-06 0)
(0.066078963 -1.0950787e-06 0)
(0.066271108 1.0481584e-06 0)
(0.066094787 -1.0052681e-06 0)
(0.066255932 9.6581802e-07 0)
(0.066109374 -9.3004423e-07 0)
(0.066241884 8.9746667e-07 0)
(0.066122937 -8.6828167e-07 0)
(0.066228759 8.4203682e-07 0)
(0.066135674 -8.1897701e-07 0)
(0.066216366 7.9885978e-07 0)
(0.066147772 -7.8019574e-07 0)
(0.066204503 7.6873672e-07 0)
(0.066159374 -7.5339751e-07 0)
(0.066192956 7.1721761e-07 0)
(0.06617099 -9.0022273e-07 0)
(0.066183507 6.626241e-07 0)
(0.059010389 0.0075378245 0)
(0.072406581 -0.00063515526 0)
(0.068519995 0.00040798714 0)
(0.07083621 -1.5724374e-05 0)
(0.069023249 1.4508257e-06 0)
(0.070856306 1.0213828e-05 0)
(0.069227932 4.1542634e-06 0)
(0.070682035 3.2059901e-06 0)
(0.069377925 -3.3286116e-06 0)
(0.070585275 3.7509313e-06 0)
(0.069466994 -3.9616346e-06 0)
(0.070515573 3.9216666e-06 0)
(0.069531042 -3.6566602e-06 0)
(0.070455312 3.5363065e-06 0)
(0.069586559 -3.2861226e-06 0)
(0.070402354 3.1292905e-06 0)
(0.069635968 -2.9335776e-06 0)
(0.070355556 2.7768213e-06 0)
(0.069679923 -2.6149716e-06 0)
(0.07031404 2.4708843e-06 0)
(0.069719042 -2.3320176e-06 0)
(0.070277107 2.203379e-06 0)
(0.069753908 -2.0824301e-06 0)
(0.070244169 1.9688825e-06 0)
(0.069785046 -1.8630674e-06 0)
(0.070214719 1.763395e-06 0)
(0.069812926 -1.6708369e-06 0)
(0.070188315 1.5836994e-06 0)
(0.069837962 -1.5029454e-06 0)
(0.070164565 1.4270925e-06 0)
(0.069860522 -1.3569386e-06 0)
(0.070143119 1.291261e-06 0)
(0.069880938 -1.2306819e-06 0)
(0.070123665 1.1742125e-06 0)
(0.069899506 -1.1223275e-06 0)
(0.070105919 1.0742315e-06 0)
(0.069916498 -1.0302843e-06 0)
(0.070089623 9.8984564e-07 0)
(0.069932161 -9.5318876e-07 0)
(0.07007454 9.1979304e-07 0)
(0.069946723 -8.8988477e-07 0)
(0.070060449 8.629731e-07 0)
(0.069960397 -8.3934008e-07 0)
(0.070047144 8.1869749e-07 0)
(0.069973384 -7.9949024e-07 0)
(0.070034414 7.8796787e-07 0)
(0.06998584 -7.7161458e-07 0)
(0.070022026 7.3410609e-07 0)
(0.069998247 -9.292693e-07 0)
(0.070011556 6.7282701e-07 0)
(0.063808878 0.007851342 0)
(0.075210494 -0.00064649663 0)
(0.072106587 0.00041671437 0)
(0.074491431 -1.8468794e-05 0)
(0.072609212 4.0708548e-07 0)
(0.074575525 9.4325933e-06 0)
(0.072853425 4.573705e-06 0)
(0.074407099 2.8244829e-06 0)
(0.073016875 -3.2775818e-06 0)
(0.074304323 3.7127114e-06 0)
(0.073111595 -4.0184743e-06 0)
(0.07423026 3.9844211e-06 0)
(0.073179835 -3.7162404e-06 0)
(0.074166093 3.5999632e-06 0)
(0.073239066 -3.3418727e-06 0)
(0.074109637 3.1847813e-06 0)
(0.073291782 -2.9843703e-06 0)
(0.074059722 2.8256864e-06 0)
(0.07333868 -2.6606358e-06 0)
(0.074015429 2.5142588e-06 0)
(0.073380421 -2.3728801e-06 0)
(0.073976019 2.2420323e-06 0)
(0.073417626 -2.1189656e-06 0)
(0.073940869 2.0034167e-06 0)
(0.073450856 -1.8957674e-06 0)
(0.07390944 1.7943239e-06 0)
(0.073480609 -1.7001654e-06 0)
(0.073881262 1.611477e-06 0)
(0.073507326 -1.5293273e-06 0)
(0.073855915 1.4521255e-06 0)
(0.073531402 -1.380759e-06 0)
(0.073833029 1.3139153e-06 0)
(0.073553189 -1.2522889e-06 0)
(0.073812269 1.1948187e-06 0)
(0.073573003 -1.1420365e-06 0)
(0.073793332 1.0930891e-06 0)
(0.073591135 -1.0483814e-06 0)
(0.073775943 1.007227e-06 0)
(0.073607848 -9.6993454e-07 0)
(0.073759848 9.3594613e-07 0)
(0.073623385 -9.0551666e-07 0)
(0.073744814 8.7812005e-07 0)
(0.073637974 -8.540741e-07 0)
(0.07373062 8.3304441e-07 0)
(0.073651828 -8.1342668e-07 0)
(0.073717044 8.0192345e-07 0)
(0.073665118 -7.8464842e-07 0)
(0.073703838 7.4611122e-07 0)
(0.073678295 -9.5193459e-07 0)
(0.07369235 6.7822327e-07 0)
(0.067479667 0.0078077838 0)
(0.077773882 -0.0007393258 0)
(0.07562078 0.00041628292 0)
(0.077962758 -2.1631279e-05 0)
(0.076059781 -1.4107411e-06 0)
(0.078144853 8.4112218e-06 0)
(0.076333947 4.9350481e-06 0)
(0.077983905 2.3555235e-06 0)
(0.07650989 -3.1912077e-06 0)
(0.077875095 3.6390157e-06 0)
(0.076609972 -4.0488288e-06 0)
(0.077796762 4.0211425e-06 0)
(0.076682277 -3.7518668e-06 0)
(0.077728806 3.6406507e-06 0)
(0.076745124 -3.3760849e-06 0)
(0.077668951 3.2198578e-06 0)
(0.076801059 -3.0159531e-06 0)
(0.077616007 2.8563977e-06 0)
(0.07685082 -2.6891766e-06 0)
(0.077569014 2.541462e-06 0)
(0.07689511 -2.3984693e-06 0)
(0.077527195 2.2662575e-06 0)
(0.07693459 -2.141861e-06 0)
(0.077489894 2.0250558e-06 0)
(0.076969854 -1.916264e-06 0)
(0.077456542 1.8137032e-06 0)
(0.077001427 -1.7185505e-06 0)
(0.077426637 1.628883e-06 0)
(0.07702978 -1.5458667e-06 0)
(0.077399739 1.4678139e-06 0)
(0.077055329 -1.3956947e-06 0)
(0.077375452 1.3281162e-06 0)
(0.077078449 -1.2658398e-06 0)
(0.077353421 1.2077396e-06 0)
(0.077099475 -1.1544006e-06 0)
(0.077333326 1.1049178e-06 0)
(0.077118716 -1.0597381e-06 0)
(0.077314874 1.0181337e-06 0)
(0.077136449 -9.8044641e-07 0)
(0.077297796 9.4608501e-07 0)
(0.077152935 -9.1533099e-07 0)
(0.077281845 8.8762681e-07 0)
(0.077168413 -8.6332388e-07 0)
(0.077266786 8.4204228e-07 0)
(0.077183111 -8.221449e-07 0)
(0.077252387 8.1073599e-07 0)
(0.077197212 -7.9264493e-07 0)
(0.077238388 7.5337315e-07 0)
(0.077211137 -9.682587e-07 0)
(0.077225891 6.7910158e-07 0)
(0.072105955 0.007960779 0)
(0.080394046 -0.00074460873 0)
(0.079004723 0.0004155008 0)
(0.081300296 -2.3547767e-05 0)
(0.079381224 -3.6680736e-06 0)
(0.081565253 7.2880952e-06 0)
(0.079671333 5.2668012e-06 0)
(0.081412434 1.8216874e-06 0)
(0.079857148 -3.0639806e-06 0)
(0.081297525 3.5339805e-06 0)
(0.079962219 -4.0523357e-06 0)
(0.081214997 4.0330507e-06 0)
(0.080038446 -3.7641174e-06 0)
(0.081143374 3.6590827e-06 0)
(0.080104805 -3.3893771e-06 0)
(0.08108023 3.2351194e-06 0)
(0.080163861 -3.0288873e-06 0)
(0.081024351 2.8694863e-06 0)
(0.080216396 -2.7010953e-06 0)
(0.080974742 2.552968e-06 0)
(0.080263158 -2.4092328e-06 0)
(0.08093059 2.2764784e-06 0)
(0.080304843 -2.1515163e-06 0)
(0.080891205 2.0341788e-06 0)
(0.080342076 -1.9249153e-06 0)
(0.080855988 1.8218727e-06 0)
(0.080375414 -1.7263133e-06 0)
(0.080824411 1.6362223e-06 0)
(0.080405352 -1.5528525e-06 0)
(0.080796009 1.4744323e-06 0)
(0.080432328 -1.4020064e-06 0)
(0.080770364 1.3341117e-06 0)
(0.08045674 -1.2715706e-06 0)
(0.080747103 1.2132004e-06 0)
(0.080478941 -1.1596347e-06 0)
(0.080725885 1.1099231e-06 0)
(0.080499255 -1.0645512e-06 0)
(0.080706403 1.0227548e-06 0)
(0.080517978 -9.8490606e-07 0)
(0.080688373 9.5038494e-07 0)
(0.080535383 -9.1949707e-07 0)
(0.080671532 8.9165762e-07 0)
(0.080551723 -8.6724892e-07 0)
(0.080655635 8.4584714e-07 0)
(0.080567239 -8.2579831e-07 0)
(0.080640438 8.1455184e-07 0)
(0.080582127 -7.9576226e-07 0)
(0.080625672 7.5604203e-07 0)
(0.080596774 -9.7831695e-07 0)
(0.080612181 6.7575402e-07 0)
(0.075912713 0.0078994319 0)
(0.082823067 -0.00082418591 0)
(0.082214071 0.00040301904 0)
(0.084532617 -2.456543e-05 0)
(0.082578129 -6.0292028e-06 0)
(0.084836713 6.1862407e-06 0)
(0.082867492 5.5766928e-06 0)
(0.084692593 1.2488165e-06 0)
(0.083058828 -2.8940161e-06 0)
(0.084571585 3.400762e-06 0)
(0.083168438 -4.0291512e-06 0)
(0.0844849 4.0211912e-06 0)
(0.083248419 -3.7537443e-06 0)
(0.084409732 3.6559613e-06 0)
(0.083318171 -3.3824537e-06 0)
(0.084343415 3.2311945e-06 0)
(0.083380243 -3.0237919e-06 0)
(0.084284703 2.865521e-06 0)
(0.083435459 -2.6969382e-06 0)
(0.084232568 2.549288e-06 0)
(0.083484607 -2.4056563e-06 0)
(0.084186162 2.2731528e-06 0)
(0.083528421 -2.1483648e-06 0)
(0.084144765 2.0311957e-06 0)
(0.083567556 -1.922109e-06 0)
(0.084107747 1.8191997e-06 0)
(0.083602598 -1.7238016e-06 0)
(0.084074557 1.6338246e-06 0)
(0.083634066 -1.5505973e-06 0)
(0.084044702 1.4722776e-06 0)
(0.083662421 -1.3999759e-06 0)
(0.084017746 1.3321702e-06 0)
(0.08368808 -1.2697365e-06 0)
(0.083993296 1.2114446e-06 0)
(0.083711415 -1.1579711e-06 0)
(0.083970994 1.1083274e-06 0)
(0.083732766 -1.0630334e-06 0)
(0.083950517 1.0212945e-06 0)
(0.083752445 -9.8351003e-07 0)
(0.083931567 9.4903545e-07 0)
(0.083770738 -9.1819799e-07 0)
(0.083913867 8.9039007e-07 0)
(0.083787911 -8.6602165e-07 0)
(0.08389716 8.4462757e-07 0)
(0.083804216 -8.245523e-07 0)
(0.083881194 8.1352951e-07 0)
(0.083819865 -7.9416912e-07 0)
(0.083865688 7.5427693e-07 0)
(0.083835208 -9.8221648e-07 0)
(0.083851222 6.6847194e-07 0)
(0.080300078 0.00791134 0)
(0.085338661 -0.00082044287 0)
(0.085259052 0.00039169222 0)
(0.087654753 -2.5696524e-05 0)
(0.085642907 -8.5893883e-06 0)
(0.087957222 5.0885405e-06 0)
(0.085922827 5.8149354e-06 0)
(0.087823765 6.5278869e-07 0)
(0.086114856 -2.687629e-06 0)