/*--------------------------------*- C++ -*----------------------------------*\
| =========                 |                                                 |
| \\      /  F ield         | OpenFOAM: The Open Source CFD Toolbox           |
|  \\    /   O peration     | Version:  2312                                  |
|   \\  /    A nd           | Website:  www.openfoam.com                      |
|    \\/     M anipulation  |                                                 |
\*---------------------------------------------------------------------------*/
FoamFile
{
    version     2.0;
    format      ascii;
    arch        "LSB;label=32;scalar=64";
    class       surfaceScalarField;
    location    "7";
    object      phi;
}
// * * * * * * * * * * * * * * * * * * * * * * * * * * * * * * * * * * * * * //

dimensions      [0 3 -1 0 0 0 0];

oriented        oriented;

internalField   nonuniform List<scalar> 
7870
(
1.6528862e-10
3.2963364e-09
1.7888799e-10
-1.3599378e-11
1.3088546e-10
4.8002524e-11
1.4046237e-10
-9.5769186e-12
1.342918e-10
6.1705748e-12
1.349563e-10
-6.6450652e-13
1.3317233e-10
1.7839832e-12
1.3351931e-10
-3.4699064e-13
1.3264385e-10
8.7547763e-13
1.3323778e-10
-5.939368e-13
1.3256167e-10
6.7611951e-13
1.331749e-10
-6.1323468e-13
1.3257287e-10
6.0203742e-13
1.3314064e-10
-5.6778163e-13
1.3259862e-10
5.4202389e-13
1.3310988e-10
-5.1127668e-13
1.3262514e-10
4.8474991e-13
1.3308231e-10
-4.5718263e-13
1.3264982e-10
4.3248582e-13
1.330581e-10
-4.0827546e-13
1.3267202e-10
3.8607529e-13
1.3303689e-10
-3.6486464e-13
1.3269169e-10
3.4520201e-13
1.3301832e-10
-3.2662847e-13
1.3270898e-10
3.0933816e-13
1.3300208e-10
-2.9309237e-13
1.3272413e-10
2.7795452e-13
1.329879e-10
-2.6377171e-13
1.3273734e-10
2.5056632e-13
1.3297556e-10
-2.3822024e-13
1.3274882e-10
2.2674773e-13
1.3296486e-10
-2.1604704e-13
1.3275873e-10
2.061345e-13
1.3295565e-10
-1.9691898e-13
1.3276723e-10
1.8842005e-13
1.3294779e-10
-1.8055624e-13
1.3277444e-10
1.733486e-13
1.3294116e-10
-1.6672569e-13
1.3278045e-10
1.6070807e-13
1.3293569e-10
-1.552342e-13
1.3278536e-10
1.5032367e-13
1.3293129e-10
-1.4592542e-13
1.3278924e-10
1.4204586e-13
1.3292793e-10
-1.3868879e-13
1.3279218e-10
1.3575459e-13
1.3292548e-10
-1.3330763e-13
1.3279348e-10
1.3200629e-13
1.329211e-10
-1.2762348e-13
1.3278551e-10
1.3558803e-13
-1.2342314e-13
4.389091e-10
6.3190523e-09
5.0196825e-10
-7.6658554e-11
3.9273962e-10
1.5723116e-10
4.0413601e-10
-2.0973329e-11
3.9033606e-10
1.9970531e-11
3.9075492e-10
-1.0833775e-12
3.8717114e-10
5.367789e-12
3.8697663e-10
-1.5248852e-13
3.8557101e-10
2.2811248e-12
3.8625318e-10
-1.2761244e-12
3.8528348e-10
1.6458461e-12
3.8613442e-10
-1.4641929e-12
3.8527176e-10
1.4647068e-12
3.8608591e-10
-1.3819597e-12
3.8530296e-10
1.3249891e-12
3.8604073e-10
-1.2490726e-12
3.8533928e-10
1.1861952e-12
3.8599987e-10
-1.1177895e-12
3.853743e-10
1.0580644e-12
3.8596441e-10
-9.9839527e-13
3.8540617e-10
9.443235e-13
3.859336e-10
-8.9229057e-13
3.8543452e-10
8.4427999e-13
3.8590672e-10
-7.9881657e-13
3.8545951e-10
7.5655769e-13
3.8588325e-10
-7.1682645e-13
3.854814e-10
6.7980948e-13
3.8586277e-10
-6.4513186e-13
3.8550051e-10
6.1282774e-13
3.8584494e-10
-5.8264011e-13
3.8551712e-10
5.5456512e-13
3.8582948e-10
-5.2839729e-13
3.8553148e-10
5.0413191e-13
3.8581616e-10
-4.8159237e-13
3.8554379e-10
4.6078146e-13
3.8580478e-10
-4.4154471e-13
3.8555424e-10
4.2389108e-13
3.857952e-10
-4.076868e-13
3.8556296e-10
3.9294399e-13
3.8578727e-10
-3.7954735e-13
3.8557008e-10
3.6751386e-13
3.857809e-10
-3.5674393e-13
3.8557572e-10
3.472286e-13
3.8577605e-10
-3.3902699e-13
3.8558007e-10
3.3173716e-13
3.8577266e-10
-3.259027e-13
3.8558202e-10
3.2264672e-13
3.8576494e-10
-3.1053889e-13
3.8556239e-10
3.3813944e-13
-3.0123497e-13
7.3880978e-10
9.0418675e-09
7.9427532e-10
-1.3212412e-10
6.4623518e-10
3.052713e-10
6.6037812e-10
-3.5116286e-11
6.3946253e-10
4.088614e-11
6.3949025e-10
-1.1111094e-12
6.3470087e-10
1.015719e-11
6.3364172e-10
9.0665149e-13
6.3216642e-10
3.756463e-12
6.3257987e-10
-1.6895945e-12
6.3168499e-10
2.5407525e-12
6.3244351e-10
-2.2227424e-12
6.3163994e-10
2.2682993e-12
6.3240181e-10
-2.143862e-12
6.316618e-10
2.0650011e-12
6.323585e-10
-1.9457985e-12
6.3169354e-10
1.8511535e-12
6.3231858e-10
-1.7428424e-12
6.3172578e-10
1.6508586e-12
6.3228442e-10
-1.5570378e-12
6.3175565e-10
1.473097e-12
6.3225506e-10
-1.3916872e-12
6.3178239e-10
1.3169469e-12
6.3222957e-10
-1.2459797e-12
6.3180602e-10
1.1801182e-12
6.3220735e-10
-1.1181516e-12
6.3182675e-10
1.060424e-12
6.3218797e-10
-1.0063488e-12
6.3184486e-10
9.5594802e-13
6.3217109e-10
-9.0886958e-13
6.3186061e-10
8.6505026e-13
6.3215645e-10
-8.2423286e-13
6.3187424e-10
7.8634709e-13
6.3214383e-10
-7.5118178e-13
6.3188593e-10
7.1868031e-13
6.3213304e-10
-6.8866161e-13
6.3189585e-10
6.6108393e-13
6.3212395e-10
-6.3579172e-13
6.3190414e-10
6.1275493e-13
6.3211643e-10
-5.9183827e-13
6.3191091e-10
5.7302968e-13
6.3211037e-10
-5.5620385e-13
6.3191628e-10
5.4131554e-13
6.3210579e-10
-5.2853189e-13
6.3192055e-10
5.1697079e-13
6.3210273e-10
-5.0808103e-13
6.319224e-10
5.0297762e-13
6.3209328e-10
-4.8142194e-13
6.3189275e-10
5.3867582e-13
-4.6881955e-13
9.2196762e-10
1.1581525e-08
1.0691882e-09
-2.7934469e-10
8.9284466e-10
4.816148e-10
9.0962096e-10
-5.1892615e-11
8.8143579e-10
6.9071324e-11
8.8138383e-10
-1.0591546e-12
8.7553213e-10
1.6008917e-11
8.7371953e-10
2.7192397e-12
8.7224239e-10
5.2336395e-12
8.7240097e-10
-1.8482007e-12
8.7159629e-10
3.345469e-12
8.7226452e-10
-2.891006e-12
8.7152513e-10
3.0077057e-12
8.7223315e-10
-2.8519122e-12
8.7153918e-10
2.7589748e-12
8.7219245e-10
-2.5991001e-12
8.7156654e-10
2.4770677e-12
8.7215376e-10
-2.3300769e-12
8.7159594e-10
2.2086794e-12
8.721211e-10
-2.0822066e-12
8.7162369e-10
1.9705178e-12
8.7209331e-10
-1.8613079e-12
8.716487e-10
1.7615654e-12
8.7206931e-10
-1.6665736e-12
8.7167086e-10
1.5785676e-12
8.7204841e-10
-1.4956862e-12
8.7169035e-10
1.4184951e-12
8.7203019e-10
-1.3461763e-12
8.7170739e-10
1.2787498e-12
8.7201431e-10
-1.215779e-12
8.7172222e-10
1.1571352e-12
8.7200052e-10
-1.102527e-12
8.7173506e-10
1.0518089e-12
8.7198863e-10
-1.004752e-12
8.7174608e-10
9.6123124e-13
8.7197847e-10
-9.2105298e-13
8.7175544e-10
8.8411699e-13
8.719699e-10
-8.5025743e-13
8.7176326e-10
8.1939555e-13
8.719628e-10
-7.9138467e-13
8.7176965e-10
7.6618016e-13
8.7195708e-10
-7.4363244e-13
8.7177473e-10
7.2366124e-13
8.7195276e-10
-7.0656392e-13
8.7177889e-10
6.9084342e-13
8.7195006e-10
-6.7925356e-13
8.7178081e-10
6.7222679e-13
8.7193964e-10
-6.40249e-13
8.7174349e-10
7.3482044e-13
-6.2577649e-13
1.1977796e-09
1.384537e-08
1.3306891e-09
-4.1225416e-10
1.1302887e-09
6.8201513e-10
1.1518312e-09
-7.3435146e-11
1.1162698e-09
1.0463279e-10
1.1164368e-09
-1.226219e-12
1.1096388e-09
2.2806989e-11
1.1072088e-09
5.1492544e-12
1.1058002e-09
6.6422903e-12
1.1057182e-09
-1.7663162e-12
1.1050177e-09
4.0459995e-12
1.1055976e-09
-3.4709267e-12
1.1049271e-09
3.6782666e-12
1.1055798e-09
-3.5046539e-12
1.1049347e-09
3.4040517e-12
1.1055425e-09
-3.2068479e-12
1.1049579e-09
3.0615845e-12
1.1055053e-09
-2.8774567e-12
1.1049845e-09
2.7295272e-12
1.1054743e-09
-2.5721034e-12
1.10501e-09
2.4348691e-12
1.1054483e-09
-2.2995682e-12
1.1050332e-09
2.17663e-12
1.1054258e-09
-2.0591864e-12
1.1050538e-09
1.9505643e-12
1.1054063e-09
-1.8481615e-12
1.105072e-09
1.7528159e-12
1.1053893e-09
-1.6634688e-12
1.1050879e-09
1.5801429e-12
1.1053745e-09
-1.5023323e-12
1.1051018e-09
1.4298339e-12
1.1053616e-09
-1.3623425e-12
1.1051138e-09
1.2996251e-12
1.1053505e-09
-1.2414551e-12
1.1051241e-09
1.1876262e-12
1.105341e-09
-1.1379504e-12
1.1051329e-09
1.0922573e-12
1.105333e-09
-1.0503859e-12
1.1051402e-09
1.0121988e-12
1.1053263e-09
-9.7754994e-13
1.1051462e-09
9.463552e-13
1.105321e-09
-9.1844526e-13
1.1051509e-09
8.9370563e-13
1.105317e-09
-8.7257757e-13
1.105155e-09
8.5284214e-13
1.1053146e-09
-8.3891915e-13
1.105157e-09
8.2981669e-13
1.1053037e-09
-7.8693053e-13
1.105114e-09
9.2452447e-13
-7.7064817e-13
1.3822341e-09
1.5924761e-08
1.5710218e-09
-6.0104194e-10
1.3618921e-09
8.9114484e-10
1.38697e-09
-9.8513045e-11
1.3439456e-09
1.476572e-10
1.3446446e-09
-1.9251948e-12
1.337009e-09
3.0442567e-11
1.3341181e-09
8.0401849e-12
1.3328423e-09
7.9180792e-12
1.3325354e-09
-1.4594755e-12
1.3319502e-09
4.6313044e-12
1.3324439e-09
-3.9647105e-12
1.3318458e-09
4.2764311e-12
1.3324422e-09
-4.1011308e-12
1.3318483e-09
3.9980269e-12
1.3324088e-09
-3.7674381e-12
1.3318675e-09
3.6028751e-12
1.3323735e-09
-3.3834169e-12
1.3318911e-09
3.2118509e-12
1.3323444e-09
-3.0253352e-12
1.3319144e-09
2.8648133e-12
1.3323201e-09
-2.7052293e-12
1.3319358e-09
2.5609585e-12
1.3322993e-09
-2.4227051e-12
1.3319548e-09
2.2950463e-12
1.3322813e-09
-2.1745704e-12
1.3319717e-09
2.062426e-12
1.3322655e-09
-1.9573133e-12
1.3319864e-09
1.8592574e-12
1.3322518e-09
-1.7677024e-12
1.3319993e-09
1.6823592e-12
1.3322398e-09
-1.602931e-12
1.3320104e-09
1.5290843e-12
1.3322295e-09
-1.4606143e-12
1.3320199e-09
1.3972227e-12
1.3322207e-09
-1.3387421e-12
1.3320281e-09
1.2849236e-12
1.3322133e-09
-1.2356232e-12
1.3320349e-09
1.1906374e-12
1.3322071e-09
-1.1498305e-12
1.3320404e-09
1.1130743e-12
1.3322022e-09
-1.0801824e-12
1.3320449e-09
1.0510104e-12
1.3321984e-09
-1.0261463e-12
1.3320487e-09
1.0025732e-12
1.3321965e-09
-9.8668821e-13
1.332051e-09
9.7532334e-13
1.3321854e-09
-9.2142709e-13
1.332004e-09
1.1060195e-12
-9.0226091e-13
1.6075674e-09
1.7778819e-08
1.8023778e-09
-7.9585238e-10
1.5847967e-09
1.108726e-09
1.6135516e-09
-1.2726798e-10
1.5646104e-09
1.9659846e-10
1.5660663e-09
-3.3811422e-12
1.5576653e-09
3.8843562e-11
1.5544659e-09
1.1239558e-11
1.5533723e-09
9.0117354e-12
1.5528571e-09
-9.4432386e-13
1.5523947e-09
5.0938274e-12
1.5528046e-09
-4.3746716e-12
1.5522812e-09
4.7998626e-12
1.5528209e-09
-4.6408666e-12
1.5522795e-09
4.5393998e-12
1.5527918e-09
-4.2798035e-12
1.5522951e-09
4.0996496e-12
1.5527585e-09
-3.8468724e-12
1.5523158e-09
3.6545477e-12
1.5527314e-09
-3.4409178e-12
1.5523368e-09
3.2593925e-12
1.552709e-09
-3.0774013e-12
1.5523563e-09
2.9136948e-12
1.5526899e-09
-2.7563184e-12
1.5523737e-09
2.6112374e-12
1.5526733e-09
-2.474172e-12
1.5523891e-09
2.3466186e-12
1.5526589e-09
-2.2270345e-12
1.5524027e-09
2.1154511e-12
1.5526463e-09
-2.0112764e-12
1.5524145e-09
1.9141293e-12
1.5526353e-09
-1.8237381e-12
1.5524247e-09
1.7396607e-12
1.5526258e-09
-1.6617295e-12
1.5524335e-09
1.5895458e-12
1.5526178e-09
-1.5229767e-12
1.552441e-09
1.461687e-12
1.5526109e-09
-1.4055609e-12
1.5524472e-09
1.3543228e-12
1.5526053e-09
-1.3078564e-12
1.5524523e-09
1.2659844e-12
1.5526007e-09
-1.228507e-12
1.5524564e-09
1.1952548e-12
1.5525972e-09
-1.166958e-12
1.5524601e-09
1.1397543e-12
1.5525956e-09
-1.1222736e-12
1.5524625e-09
1.1084543e-12
1.5525848e-09
-1.0437475e-12
1.552413e-09
1.277804e-12
-1.0199499e-12
1.7749918e-09
1.9465452e-08
2.0097634e-09
-1.0306241e-09
1.7997296e-09
1.3187598e-09
1.8275999e-09
-1.5513833e-10
1.7777105e-09
2.464879e-10
1.7805625e-09
-6.23313e-12
1.7715921e-09
4.7814015e-11
1.7682639e-09
1.4567745e-11
1.7673896e-09
9.8860683e-12
1.7666864e-09
-2.411898e-13
1.7663518e-09
5.4285049e-12
1.7666805e-09
-4.7034345e-12
1.7662332e-09
5.247172e-12
1.7667161e-09
-5.1238458e-12
1.7662283e-09
5.0272724e-12
1.7666918e-09
-4.7433445e-12
1.7662404e-09
4.5510818e-12
1.7666606e-09
-4.2671481e-12
1.7662583e-09
4.0568969e-12
1.7666356e-09
-3.8182142e-12
1.766277e-09
3.6179698e-12
1.7666151e-09
-3.4154915e-12
1.7662945e-09
3.2342597e-12
1.7665977e-09
-3.0594757e-12
1.7663103e-09
2.8986048e-12
1.7665826e-09
-2.7464572e-12
1.7663244e-09
2.6049051e-12
1.7665695e-09
-2.4721659e-12
1.7663367e-09
2.3482787e-12
1.766558e-09
-2.2326299e-12
1.7663474e-09
2.124741e-12
1.7665481e-09
-2.0243805e-12
1.7663567e-09
1.9309911e-12
1.7665395e-09
-1.8444555e-12
1.7663647e-09
1.764269e-12
1.7665321e-09
-1.6903438e-12
1.7663715e-09
1.6222536e-12
1.7665259e-09
-1.5599198e-12
1.7663772e-09
1.5029903e-12
1.7665207e-09
-1.4513753e-12
1.7663819e-09
1.4048459e-12
1.7665166e-09
-1.3631905e-12
1.7663856e-09
1.3262225e-12
1.7665134e-09
-1.294802e-12
1.766389e-09
1.264201e-12
1.7665122e-09
-1.2454788e-12
1.7663916e-09
1.2290277e-12
1.7665018e-09
-1.1539443e-12
1.766341e-09
1.4386105e-12
-1.1234399e-12
1.9639571e-09
2.096312e-08
2.2093494e-09
-1.2760164e-09
2.0050326e-09
1.5230766e-09
2.0268521e-09
-1.7695781e-10
1.9831759e-09
2.9016407e-10
1.988075e-09
-1.1132195e-11
1.9788153e-09
5.7073717e-11
1.9755253e-09
1.7857725e-11
1.974895e-09
1.0516477e-11
1.9740271e-09
6.2664268e-13
1.9738228e-09
5.6328474e-12
1.9740728e-09
-4.9534479e-12
1.973702e-09
5.6179522e-12
1.9741285e-09
-5.55034e-12
1.9736945e-09
5.4613042e-12
1.9741089e-09
-5.1578255e-12
1.9737032e-09
4.9567448e-12
1.97408e-09
-4.6439027e-12
1.9737184e-09
4.4184988e-12
1.974057e-09
-4.1568755e-12
1.9737348e-09
3.9401798e-12
1.9740385e-09
-3.7191575e-12
1.9737505e-09
3.5223108e-12
1.9740228e-09
-3.3318477e-12
1.9737646e-09
3.1568278e-12
1.9740093e-09
-2.9911163e-12
1.9737772e-09
2.8369882e-12
1.9739975e-09
-2.6924215e-12
1.9737883e-09
2.5574683e-12
1.9739872e-09
-2.4315035e-12
1.973798e-09
2.3139489e-12
1.9739782e-09
-2.204625e-12
1.9738064e-09
2.1028555e-12
1.9739705e-09
-2.0085842e-12
1.9738136e-09
1.9211962e-12
1.9739639e-09
-1.840658e-12
1.9738197e-09
1.7664488e-12
1.9739583e-09
-1.6985347e-12
1.9738248e-09
1.6364839e-12
1.9739537e-09
-1.5802397e-12
1.973829e-09
1.5295191e-12
1.9739499e-09
-1.4841016e-12
1.9738323e-09
1.4437899e-12
1.9739471e-09
-1.4095579e-12
1.9738355e-09
1.3758158e-12
1.9739462e-09
-1.3561884e-12
1.9738382e-09
1.3369571e-12
1.9739364e-09
-1.2521103e-12
1.9737876e-09
1.5873801e-12
-1.2127316e-12
2.1042604e-09
2.2320485e-08
2.3870228e-09
-1.5587788e-09
2.2003589e-09
1.7097405e-09
2.2148074e-09
-1.9140633e-10
2.1815066e-09
3.2346487e-10
2.1884101e-09
-1.8035738e-11
2.1793374e-09
6.6146515e-11
2.1762553e-09
2.0939771e-11
2.1758888e-09
1.0883047e-11
2.1748819e-09
1.6335103e-12
2.1748087e-09
5.7060203e-12
2.1749822e-09
-5.1269651e-12
2.1746877e-09
5.9125335e-12
2.1750582e-09
-5.920906e-12
2.1746779e-09
5.8415948e-12
2.1750434e-09
-5.5233266e-12
2.1746836e-09
5.3165427e-12
2.1750167e-09
-4.9770799e-12
2.174696e-09
4.7392268e-12
2.1749959e-09
-4.4568013e-12
2.1747102e-09
4.2258912e-12
2.1749793e-09
-3.9882761e-12
2.174724e-09
3.7777128e-12
2.1749654e-09
-3.573302e-12
2.1747365e-09
3.3857713e-12
2.1749534e-09
-3.208018e-12
2.1747477e-09
3.0427395e-12
2.1749429e-09
-2.8876784e-12
2.1747575e-09
2.7429026e-12
2.1749338e-09
-2.6077856e-12
2.1747661e-09
2.4816483e-12
2.1749258e-09
-2.3643732e-12
2.1747735e-09
2.2551626e-12
2.174919e-09
-2.15403e-12
2.1747799e-09
2.0602484e-12
2.1749131e-09
-1.9738456e-12
2.1747854e-09
1.8942048e-12
2.1749082e-09
-1.8213423e-12
2.1747899e-09
1.7547457e-12
2.174904e-09
-1.6943962e-12
2.1747936e-09
1.6399552e-12
2.1749007e-09
-1.5911955e-12
2.1747966e-09
1.5479171e-12
2.1748982e-09
-1.5111873e-12
2.1747994e-09
1.4745793e-12
2.1748976e-09
-1.4543607e-12
2.1748023e-09
1.4322403e-12
2.1748886e-09
-1.3383771e-12
2.1747527e-09
1.7232436e-12
-1.2880365e-12
2.2779644e-09
2.3504145e-08
2.5562429e-09
-1.8370574e-09
2.3832922e-09
1.8826912e-09
2.3947408e-09
-2.0285497e-10
2.3729617e-09
3.4524401e-10
2.3813004e-09
-2.6374411e-11
2.3731568e-09
7.4290091e-11
2.3704702e-09
2.3626336e-11
2.3703712e-09
1.0982126e-11
2.3692537e-09
2.7510112e-12
2.3693109e-09
5.6487934e-12
2.3694096e-09
-5.2257101e-12
2.3691902e-09
6.1319516e-12
2.3695056e-09
-6.2362807e-12
2.3691786e-09
6.1686253e-12
2.3694954e-09
-5.8401758e-12
2.3691813e-09
5.6306644e-12
2.369471e-09
-5.2668595e-12
2.3691911e-09
5.0191909e-12
2.3694524e-09
-4.7181036e-12
2.3692031e-09
4.4751786e-12
2.3694377e-09
-4.2229155e-12
2.3692149e-09
4.0005149e-12
2.3694255e-09
-3.7838806e-12
2.3692258e-09
3.5854693e-12
2.369415e-09
-3.3971908e-12
2.3692356e-09
3.2221847e-12
2.3694059e-09
-3.0579594e-12
2.3692442e-09
2.9046045e-12
2.3693979e-09
-2.7614984e-12
2.3692517e-09
2.6278626e-12
2.369391e-09
-2.5036484e-12
2.3692582e-09
2.3879372e-12
2.369385e-09
-2.2808182e-12
2.3692638e-09
2.1814524e-12
2.3693799e-09
-2.0899341e-12
2.3692685e-09
2.0055503e-12
2.3693755e-09
-1.9283722e-12
2.3692725e-09
1.8578063e-12
2.3693719e-09
-1.793876e-12
2.3692757e-09
1.7361865e-12
2.369369e-09
-1.6845062e-12
2.3692783e-09
1.6386398e-12
2.3693668e-09
-1.599725e-12
2.3692809e-09
1.5605424e-12
2.3693665e-09
-1.5400213e-12
2.3692838e-09
1.514949e-12
2.3693584e-09
-1.4129133e-12
2.3692361e-09
1.8455049e-12
-1.3497317e-12
2.4030951e-09
2.4562675e-08
2.7046539e-09
-2.1386162e-09
2.5593425e-09
2.0280026e-09
2.5691897e-09
-2.1270223e-10
2.557875e-09
3.5655876e-10
2.5668951e-09
-3.5394535e-11
2.5603509e-09
8.0834281e-11
2.5581932e-09
2.5784082e-11
2.5583454e-09
1.0829965e-11
2.5571455e-09
3.9509115e-12
2.5573311e-09
5.4632225e-12
2.5573558e-09
-5.2504309e-12
2.5572099e-09
6.2778719e-12
2.5574709e-09
-6.4973344e-12
2.5571963e-09
6.4431643e-12
2.5574651e-09
-6.1089201e-12
2.5571962e-09
5.8995276e-12
2.5574429e-09
-5.5136285e-12
2.5572034e-09
5.258703e-12
2.5574264e-09
-4.9410824e-12
2.5572133e-09
4.6882972e-12
2.5574137e-09
-4.4233161e-12
2.5572233e-09
4.190931e-12
2.5574032e-09
-3.9637836e-12
2.5572326e-09
3.7561055e-12
2.5573942e-09
-3.5588082e-12
2.5572409e-09
3.3754873e-12
2.5573864e-09
-3.2034202e-12
2.5572483e-09
3.042723e-12
2.5573796e-09
-2.8927846e-12
2.5572547e-09
2.7527298e-12
2.5573736e-09
-2.6225837e-12
2.5572603e-09
2.5013086e-12
2.5573685e-09
-2.3890739e-12
2.557265e-09
2.28493e-12
2.5573641e-09
-2.1890415e-12
2.5572691e-09
2.1006006e-12
2.5573605e-09
-2.0197363e-12
2.5572725e-09
1.9457755e-12
2.5573574e-09
-1.8787863e-12
2.5572753e-09
1.8183185e-12
2.5573549e-09
-1.7641381e-12
2.5572775e-09
1.7160611e-12
2.557353e-09
-1.6752723e-12
2.5572797e-09
1.6338186e-12
2.557353e-09
-1.6132566e-12
2.5572827e-09
1.5852195e-12
2.5573457e-09
-1.4759225e-12
2.5572376e-09
1.9536269e-12
-1.3983228e-12
2.5713401e-09
2.545296e-08
2.8514118e-09
-2.4186878e-09
2.7283855e-09
2.1510288e-09
2.7379649e-09
-2.2228165e-10
2.7363274e-09
3.5819633e-10
2.7455808e-09
-4.4647976e-11
2.7410051e-09
8.5410061e-11
2.7394424e-09
2.7346713e-11
2.7398126e-09
1.0459827e-11
2.7385584e-09
5.2050456e-12
2.7388705e-09
5.1511788e-12
2.738821e-09
-5.2009197e-12
2.7387464e-09
6.352421e-12
2.7389541e-09
-6.7050591e-12
2.7387311e-09
6.6661799e-12
2.7389525e-09
-6.3303049e-12
2.7387283e-09
6.1237321e-12
2.7389326e-09
-5.717957e-12
2.7387331e-09
5.4582478e-12
2.7389182e-09
-5.1262033e-12
2.7387408e-09
4.8656625e-12
2.7389074e-09
-4.5898702e-12
2.738749e-09
4.3493229e-12
2.7388986e-09
-4.1133517e-12
2.7387567e-09
3.8980006e-12
2.7388911e-09
-3.6931731e-12
2.7387636e-09
3.5029359e-12
2.7388845e-09
-3.3243347e-12
2.7387697e-09
3.1575209e-12
2.7388789e-09
-3.0018951e-12
2.7387751e-09
2.8564912e-12
2.7388739e-09
-2.7214102e-12
2.7387797e-09
2.5954997e-12
2.7388697e-09
-2.479011e-12
2.7387837e-09
2.370888e-12
2.738866e-09
-2.2713667e-12
2.7387871e-09
2.1795482e-12
2.738863e-09
-2.0956207e-12
2.7387899e-09
2.018834e-12
2.7388604e-09
-1.9493026e-12
2.7387922e-09
1.8865222e-12
2.7388583e-09
-1.8302585e-12
2.7387941e-09
1.7803451e-12
2.7388568e-09
-1.7379898e-12
2.738796e-09
1.6945775e-12
2.738857e-09
-1.6742078e-12
2.7387989e-09
1.6432448e-12
2.7388507e-09
-1.5276405e-12
2.7387571e-09
2.0472177e-12
-1.4344112e-12
2.6924308e-09
2.6222154e-08
2.9839081e-09
-2.7101652e-09
2.8930927e-09
2.2418443e-09
2.901024e-09
-2.3021299e-10
2.9084316e-09
3.5078871e-10
2.9178017e-09
-5.4018025e-11
2.9152109e-09
8.8000908e-11
2.9142428e-09
2.831479e-11
2.9147763e-09
9.9263092e-12
2.9134947e-09
6.4866178e-12
2.9139315e-09
4.7144093e-12
2.9138062e-09
-5.0756169e-12
2.9138003e-09
6.3583852e-12
2.9139555e-09
-6.8603843e-12
2.9137829e-09
6.8388578e-12
2.9139578e-09
-6.5052165e-12
2.9137775e-09
6.3040417e-12
2.91394e-09
-5.8805714e-12
2.9137798e-09
5.6184634e-12
2.9139277e-09
-5.2740796e-12
2.9137855e-09
5.0078326e-12
2.9139188e-09
-4.7231084e-12
2.9137919e-09
4.4761844e-12
2.9139116e-09
-4.2330534e-12
2.9137981e-09
4.0115969e-12
2.9139056e-09
-3.8007059e-12
2.9138036e-09
3.6049304e-12
2.9139004e-09
-3.4210843e-12
2.9138085e-09
3.2493624e-12
2.9138958e-09
-3.0891778e-12
2.9138128e-09
2.9394802e-12
2.9138919e-09
-2.8004468e-12
2.9138166e-09
2.6708166e-12
2.9138885e-09
-2.550923e-12
2.9138198e-09
2.4396085e-12
2.9138856e-09
-2.337181e-12
2.9138225e-09
2.2426548e-12
2.9138831e-09
-2.1562773e-12
2.9138247e-09
2.0772255e-12
2.9138811e-09
-2.0056607e-12
2.9138266e-09
1.9410266e-12
2.9138794e-09
-1.8830909e-12
2.913828e-09
1.8317096e-12
2.9138781e-09
-1.7880909e-12
2.9138297e-09
1.7430385e-12
2.9138785e-09
-1.7230654e-12
2.9138325e-09
1.689267e-12
2.9138732e-09
-1.5683325e-12
2.9137944e-09
2.126018e-12
-1.458667e-12
2.8575021e-09
2.6826277e-08
3.1191636e-09
-2.9718267e-09
3.052009e-09
2.3089988e-09
3.057863e-09
-2.3606705e-10
3.0743617e-09
3.3429006e-10
3.0838517e-09
-6.3508084e-11
3.0830181e-09
8.8834511e-11
3.0826091e-09
2.872379e-11
3.0832358e-09
9.299679e-12
3.081954e-09
7.7683802e-12
3.0825147e-09
4.1537439e-12
3.0823117e-09
-4.8726042e-12
3.0823712e-09
6.2988446e-12
3.0824751e-09
-6.9642784e-12
3.0823515e-09
6.9624972e-12
3.0824809e-09
-6.6346972e-12
3.0823436e-09
6.4413426e-12
3.0824654e-09
-6.0023469e-12
3.0823437e-09
5.7401176e-12
3.0824551e-09
-5.3854595e-12
3.0823474e-09
5.1154922e-12
3.082448e-09
-4.8236847e-12
3.0823521e-09
4.5721287e-12
3.0824425e-09
-4.3234711e-12
3.0823567e-09
4.0974467e-12
3.0824379e-09
-3.8819313e-12
3.0823609e-09
3.681971e-12
3.0824339e-09
-3.4941448e-12
3.0823646e-09
3.3187025e-12
3.0824305e-09
-3.1550663e-12
3.0823679e-09
3.0021119e-12
3.0824275e-09
-2.8600899e-12
3.0823707e-09
2.7276392e-12
3.0824249e-09
-2.6051735e-12
3.0823731e-09
2.4914406e-12
3.0824228e-09
-2.3868192e-12
3.0823752e-09
2.2902424e-12
3.0824209e-09
-2.2020164e-12
3.0823769e-09
2.1212494e-12
3.0824194e-09
-2.0481501e-12
3.0823783e-09
1.9821125e-12
3.0824181e-09
-1.9229083e-12
3.0823794e-09
1.8704206e-12
3.0824171e-09
-1.8258359e-12
3.0823807e-09
1.779465e-12
3.0824177e-09
-1.760064e-12
3.0823834e-09
1.7235708e-12
3.0824133e-09
-1.598291e-12
3.0823495e-09
2.1898893e-12
-1.471806e-12
2.9805262e-09
2.7307376e-08
3.2423948e-09
-3.2336953e-09
3.2072855e-09
2.3441082e-09
3.2092758e-09
-2.3805736e-10
3.2342013e-09
3.0936453e-10
3.2438048e-09
-7.3111575e-11
3.2444464e-09
8.8192872e-11
3.2445506e-09
2.8619599e-11
3.2451914e-09
8.6589893e-12
3.2439391e-09
9.0206377e-12
3.2446201e-09
3.4727617e-12
3.2443378e-09
-4.5903957e-12
3.2444595e-09
6.1772101e-12
3.2445128e-09
-7.0176501e-12
3.2444368e-09
7.0385357e-12
3.244522e-09
-6.7198994e-12
3.2444267e-09
6.5366421e-12
3.2445086e-09
-6.0842848e-12
3.2444246e-09
5.8240982e-12
3.2445004e-09
-5.4612107e-12
3.2444264e-09
5.1894398e-12
3.2444951e-09
-4.8923651e-12
3.2444294e-09
4.6378749e-12
3.2444912e-09
-4.38529e-12
3.2444325e-09
4.1561993e-12
3.244488e-09
-3.9374677e-12
3.2444353e-09
3.7346462e-12
3.2444853e-09
-3.5440768e-12
3.2444379e-09
3.3660758e-12
3.2444829e-09
-3.2000703e-12
3.2444402e-09
3.0448734e-12
3.2444809e-09
-2.9008044e-12
3.2444421e-09
2.7664126e-12
3.2444791e-09
-2.6421878e-12
3.2444438e-09
2.5267922e-12
3.2444776e-09
-2.4206721e-12
3.2444452e-09
2.322687e-12
3.2444764e-09
-2.2331991e-12
3.2444464e-09
2.1512545e-12
3.2444753e-09
-2.0771071e-12
3.2444473e-09
2.0101058e-12
3.2444744e-09
-1.9500278e-12
3.2444481e-09
1.8967862e-12
3.2444738e-09
-1.8515264e-12
3.2444491e-09
1.8041589e-12
3.2444745e-09
-1.7854776e-12
3.2444516e-09
1.7464776e-12
3.2444711e-09
-1.6178328e-12
3.2444222e-09
2.2388028e-12
-1.4745702e-12
3.1441746e-09
2.7624826e-08
3.3697847e-09
-3.4593054e-09
3.3573395e-09
2.3565534e-09
3.3559086e-09
-2.366265e-10
3.3881246e-09
2.7714855e-10
3.3976827e-09
-8.2669699e-11
3.399507e-09
8.6368654e-11
3.4000555e-09
2.8071055e-11
3.4006431e-09
8.0714401e-12
3.3994591e-09
1.0204569e-11
3.4002457e-09
2.6862083e-12
3.399885e-09
-4.2297354e-12
3.4000651e-09
5.9971498e-12
3.4000688e-09
-7.0213957e-12
3.4000389e-09
7.0685162e-12
3.400081e-09
-6.7620837e-12
3.4000266e-09
6.591051e-12
3.4000698e-09
-6.1275021e-12
3.4000225e-09
5.8713992e-12
3.4000636e-09
-5.5023096e-12
3.4000225e-09
5.230576e-12
3.4000601e-09
-4.9300152e-12
3.4000238e-09
4.674237e-12
3.4000578e-09
-4.4192865e-12
3.4000254e-09
4.1885913e-12
3.400056e-09
-3.9680154e-12
3.400027e-09
3.763623e-12
3.4000544e-09
-3.5715148e-12
3.4000284e-09
3.3920877e-12
3.4000531e-09
-3.2247663e-12
3.4000297e-09
3.0683149e-12
3.400052e-09
-2.9231151e-12
3.4000308e-09
2.7876384e-12
3.400051e-09
-2.6624453e-12
3.4000317e-09
2.5461226e-12
3.4000502e-09
-2.4391799e-12
3.4000325e-09
2.3404112e-12
3.4000495e-09
-2.2502316e-12
3.4000331e-09
2.1676321e-12
3.4000489e-09
-2.0929099e-12
3.4000337e-09
2.0253724e-12
3.4000484e-09
-1.9648047e-12
3.4000341e-09
1.9111515e-12
3.4000481e-09
-1.8655005e-12
3.4000348e-09
1.8174563e-12
3.4000489e-09
-1.7996149e-12
3.400037e-09
1.7583403e-12
3.4000465e-09
-1.6272962e-12
3.4000125e-09
2.2728297e-12
-1.4677123e-12
3.2581153e-09
2.7828336e-08
3.4815496e-09
-3.6827397e-09
3.5031321e-09
2.3349709e-09
3.4994647e-09
-2.3295906e-10
3.5362944e-09
2.4031881e-10
3.5454434e-09
-9.1818692e-11
3.5481949e-09
8.3617236e-11
3.5490984e-09
2.7167532e-11
3.5495957e-09
7.5741331e-12
3.5485275e-09
1.1272775e-11
3.5493878e-09
1.8259499e-12
3.5489534e-09
-3.7953954e-12
3.5491882e-09
5.7624097e-12
3.5491431e-09
-6.9764032e-12
3.5491576e-09
7.0540877e-12
3.5491581e-09
-6.7625978e-12
3.5491433e-09
6.6057822e-12
3.549149e-09
-6.1332148e-12
3.5491373e-09
5.8831139e-12
3.5491448e-09
-5.5098272e-12
3.5491355e-09
5.2398935e-12
3.5491431e-09
-4.9375889e-12
3.5491352e-09
4.6821131e-12
3.5491423e-09
-4.4263172e-12
3.5491354e-09
4.1954347e-12
3.5491418e-09
-3.9743479e-12
3.5491358e-09
3.7696365e-12
3.5491414e-09
-3.5771586e-12
3.5491361e-09
3.3974043e-12
3.5491411e-09
-3.2297885e-12
3.5491364e-09
3.0730414e-12
3.5491409e-09
-2.9275987e-12
3.5491367e-09
2.7918675e-12
3.5491407e-09
-2.6664723e-12
3.5491369e-09
2.5499356e-12
3.5491405e-09
-2.4428247e-12
3.5491371e-09
2.3438779e-12
3.5491404e-09
-2.253559e-12
3.5491372e-09
2.1708112e-12
3.5491403e-09
-2.095972e-12
3.5491373e-09
2.0283127e-12
3.5491402e-09
-1.9676276e-12
3.5491374e-09
1.9138941e-12
3.54914e-09
-1.8681277e-12
3.5491378e-09
1.8197224e-12
3.549141e-09
-1.8028157e-12
3.5491398e-09
1.7595381e-12
3.5491395e-09
-1.6270389e-12
3.5491202e-09
2.2921312e-12
-1.451982e-12
3.4215782e-09
2.7868383e-08
3.5982333e-09
-3.8593948e-09
3.6432184e-09
2.2899858e-09
3.6396693e-09
-2.2940995e-10
3.6786016e-09
2.013865e-10
3.6870435e-09
-1.0026066e-10
3.6904992e-09
8.0161557e-11
3.6916602e-09
2.6006593e-11
3.6920584e-09
7.1758884e-12
3.6911511e-09
1.2180148e-11
3.6920408e-09
9.361916e-13
3.6915424e-09
-3.2969888e-12
3.6918287e-09
5.4761773e-12
3.6917358e-09
-6.8835817e-12
3.6917929e-09
6.9969741e-12
3.6917532e-09
-6.7228724e-12
3.6917768e-09
6.5821378e-12
3.6917463e-09
-6.1027295e-12
3.691769e-09
5.860424e-12
3.6917441e-09
-5.4849193e-12
3.6917655e-09
5.2184666e-12
3.6917441e-09
-4.9161177e-12
3.6917637e-09
4.6624756e-12
3.6917447e-09
-4.4073092e-12
3.6917625e-09
4.1776085e-12
3.6917455e-09
-3.9573007e-12
3.6917617e-09
3.7534814e-12
3.6917463e-09
-3.5617634e-12
3.6917609e-09
3.3827448e-12
3.691747e-09
-3.2158213e-12
3.6917603e-09
3.0597052e-12
3.6917476e-09
-2.9148767e-12
3.6917598e-09
2.7796933e-12
3.6917481e-09
-2.6548353e-12
3.6917593e-09
2.5387732e-12
3.6917486e-09
-2.4321259e-12
3.6917589e-09
2.3335856e-12
3.691749e-09
-2.2436599e-12
3.6917586e-09
2.1612526e-12
3.6917493e-09
-2.0867383e-12
3.6917583e-09
2.0193572e-12
3.6917496e-09
-1.9589142e-12
3.691758e-09
1.9054194e-12
3.6917497e-09
-1.8598051e-12
3.6917581e-09
1.811348e-12
3.6917507e-09
-1.7954466e-12
3.6917598e-09
1.7504729e-12
3.6917502e-09
-1.6174356e-12
3.6917454e-09
2.2969501e-12
-1.4281157e-12
3.5361832e-09
2.7793824e-08
3.7006419e-09
-4.0238535e-09
3.7783671e-09
2.2122605e-09
3.776175e-09
-2.2721789e-10
3.8149331e-09
1.6262842e-10
3.8224411e-09
-1.0776866e-10
3.8264017e-09
7.6200999e-11
3.8277315e-09
2.467681e-11
3.8280405e-09
6.866877e-12
3.827326e-09
1.2894615e-11
3.828199e-09
6.3308302e-14
3.8276504e-09
-2.7484999e-12
3.8279863e-09
5.1403273e-12
3.8278467e-09
-6.7439933e-12
3.8279448e-09
6.8988866e-12
3.8278663e-09
-6.6444485e-12
3.827927e-09
6.5214814e-12
3.8278617e-09
-6.0374436e-12
3.8279175e-09
5.8045843e-12
3.8278614e-09
-5.4288192e-12
3.8279125e-09
5.1674394e-12
3.827863e-09
-4.866702e-12
3.8279092e-09
4.6163602e-12
3.8278651e-09
-4.3632502e-12
3.8279067e-09
4.1360484e-12
3.8278672e-09
-3.917764e-12
3.8279046e-09
3.7160027e-12
3.827869e-09
-3.5261329e-12
3.8279029e-09
3.3488734e-12
3.8278707e-09
-3.1835917e-12
3.8279014e-09
3.0289986e-12
3.8278721e-09
-2.8856089e-12
3.8279001e-09
2.7517453e-12
3.8278734e-09
-2.6281354e-12
3.8278989e-09
2.5132103e-12
3.8278744e-09
-2.4076336e-12
3.827898e-09
2.3100621e-12
3.8278753e-09
-2.2210415e-12
3.8278972e-09
2.1394452e-12
3.8278761e-09
-2.0656802e-12
3.8278965e-09
1.9989619e-12
3.8278767e-09
-1.939107e-12
3.8278959e-09
1.8861571e-12
3.8278771e-09
-1.840953e-12
3.8278957e-09
1.7927456e-12
3.8278781e-09
-1.7778978e-12
3.827897e-09
1.7315649e-12
3.8278785e-09
-1.5988754e-12
3.8278878e-09
2.2876023e-12
-1.3968277e-12
3.693771e-09
2.7561678e-08
3.8116295e-09
-4.1417121e-09
3.9083829e-09
2.1155072e-09
3.9078118e-09
-2.2664681e-10
3.9451174e-09
1.2532284e-10
3.9515822e-09
-1.1423351e-10
3.9558816e-09
7.1901648e-11
3.9573129e-09
2.3245464e-11
3.9575498e-09
6.6300226e-12
3.9570447e-09
1.3399721e-11
3.9578584e-09
-7.5036995e-13
3.9572762e-09
-2.1662931e-12
3.9576609e-09
4.7555595e-12
3.9574757e-09
-6.5588252e-12
3.9576131e-09
6.7615509e-12
3.9574976e-09
-6.5289508e-12
3.9575938e-09
6.425238e-12
3.9574952e-09
-5.9388335e-12
3.9575828e-09
5.7169146e-12
3.9574968e-09
-5.3428272e-12
3.9575763e-09
5.088017e-12
3.9575001e-09
-4.7905009e-12
3.9575716e-09
4.5448575e-12
3.9575035e-09
-4.2951802e-12
3.9575678e-09
4.0717387e-12
3.9575068e-09
-3.8566736e-12
3.9575647e-09
3.6580885e-12
3.9575097e-09
-3.4711109e-12
3.957562e-09
3.2965923e-12
3.9575122e-09
-3.1338626e-12
3.9575596e-09
2.9816481e-12
3.9575145e-09
-2.8404871e-12
3.9575575e-09
2.7086837e-12
3.9575164e-09
-2.5870026e-12
3.9575558e-09
2.4738497e-12
3.9575181e-09
-2.3699249e-12
3.9575543e-09
2.273861e-12
3.9575195e-09
-2.1862357e-12