/*--------------------------------*- C++ -*----------------------------------*\
| =========                 |                                                 |
| \\      /  F ield         | OpenFOAM: The Open Source CFD Toolbox           |
|  \\    /   O peration     | Version:  2312                                  |
|   \\  /    A nd           | Website:  www.openfoam.com                      |
|    \\/     M anipulation  |                                                 |
\*---------------------------------------------------------------------------*/
FoamFile
{
    version     2.0;
    format      ascii;
    arch        "LSB;label=32;scalar=64";
    class       volSymmTensorField;
    location    "7";
    object      sigma;
}
// * * * * * * * * * * * * * * * * * * * * * * * * * * * * * * * * * * * * * //

dimensions      [0 2 -2 0 0 0 0];

internalField   nonuniform List<symmTensor> 
4000
(
(-3.7912406 -1.7546653 0 -0.75791387 0 0)
(-13.174454 -0.7203451 0 -0.012425559 0 0)
(-4.2882286 -0.37915367 0 -0.0024309591 0 0)
(-4.7218344 -0.39520573 0 0.00026853074 0 0)
(-4.2632514 -0.37766145 0 -0.00020781269 0 0)
(-4.159903 -0.37227075 0 2.4083452e-05 0 0)
(-4.1901977 -0.37405871 0 -6.2736232e-05 0 0)
(-4.0646395 -0.36797101 0 1.2751939e-05 0 0)
(-4.1274595 -0.37109522 0 -3.2560946e-05 0 0)
(-4.0521641 -0.36738706 0 2.1855336e-05 0 0)
(-4.1086884 -0.370214 0 -2.4988785e-05 0 0)
(-4.0547967 -0.36751432 0 2.2431315e-05 0 0)
(-4.1023419 -0.36991288 0 -2.19939e-05 0 0)
(-4.0580356 -0.36767262 0 2.0648423e-05 0 0)
(-4.0990058 -0.36975015 0 -1.9678925e-05 0 0)
(-4.0605484 -0.36779813 0 1.852709e-05 0 0)
(-4.0965211 -0.36962641 0 -1.7552692e-05 0 0)
(-4.0626775 -0.36790564 0 1.6539318e-05 0 0)
(-4.0944243 -0.369521 0 -1.5644391e-05 0 0)
(-4.0645757 -0.36800177 0 1.4762481e-05 0 0)
(-4.0925907 -0.36942849 0 -1.39632e-05 0 0)
(-4.0662749 -0.36808783 0 1.3194262e-05 0 0)
(-4.0909686 -0.3693466 0 -1.2488315e-05 0 0)
(-4.0677934 -0.36816465 0 1.1816307e-05 0 0)
(-4.0895257 -0.36927383 0 -1.1195818e-05 0 0)
(-4.0691513 -0.36823321 0 1.0608142e-05 0 0)
(-4.0882369 -0.36920894 0 -1.006438e-05 0 0)
(-4.0703685 -0.36829452 0 9.5509571e-06 0 0)
(-4.0870807 -0.36915088 0 -9.0758623e-06 0 0)
(-4.0714635 -0.36834951 0 8.6284843e-06 0 0)
(-4.0860392 -0.36909872 0 -8.2150674e-06 0 0)
(-4.0724524 -0.36839901 0 7.8269787e-06 0 0)
(-4.0850968 -0.36905168 0 -7.4693225e-06 0 0)
(-4.0733497 -0.36844376 0 7.1349288e-06 0 0)
(-4.0842398 -0.36900906 0 -6.8280663e-06 0 0)
(-4.074168 -0.36848439 0 6.5427174e-06 0 0)
(-4.0834563 -0.36897025 0 -6.2824976e-06 0 0)
(-4.0749186 -0.36852149 0 6.0423333e-06 0 0)
(-4.0827352 -0.36893473 0 -5.8253227e-06 0 0)
(-4.0756118 -0.36855556 0 5.62717e-06 0 0)
(-4.0820668 -0.36890199 0 -5.4506025e-06 0 0)
(-4.0762571 -0.36858707 0 5.2920126e-06 0 0)
(-4.0814418 -0.3688716 0 -5.1535268e-06 0 0)
(-4.0768641 -0.36861647 0 5.0335421e-06 0 0)
(-4.0808539 -0.36884322 0 -4.9309337e-06 0 0)
(-4.0774438 -0.36864432 0 4.8465174e-06 0 0)
(-4.0802885 -0.36881632 0 -4.8014128e-06 0 0)
(-4.0779489 -0.36866876 0 4.6782447e-06 0 0)
(-4.0795232 -0.36878156 0 -4.9037126e-06 0 0)
(-4.0777856 -0.36866129 0 4.7376258e-06 0 0)
(-3.411809 -1.6469581 0 -0.72541736 0 0)
(-10.772346 -0.70060907 0 -0.026998357 0 0)
(-5.0664158 -0.4312487 0 -0.0072208178 0 0)
(-4.3741535 -0.37870993 0 0.00026130979 0 0)
(-3.962474 -0.3655271 0 -0.00052402548 0 0)
(-3.8379242 -0.3576332 0 1.0013393e-06 0 0)
(-3.8785282 -0.36022523 0 -0.00011934701 0 0)
(-3.7714881 -0.35448446 0 -2.0763614e-05 0 0)
(-3.8220811 -0.35720617 0 -4.4252691e-05 0 0)
(-3.758327 -0.35377145 0 1.51242e-05 0 0)
(-3.8048303 -0.35631932 0 -2.7469854e-05 0 0)
(-3.7596348 -0.35383273 0 2.2540779e-05 0 0)
(-3.7993602 -0.35604036 0 -2.3553133e-05 0 0)
(-3.7621896 -0.35396833 0 2.195729e-05 0 0)
(-3.7965908 -0.35589352 0 -2.1218844e-05 0 0)
(-3.7642705 -0.35408288 0 1.9911531e-05 0 0)
(-3.7945099 -0.35577955 0 -1.8966618e-05 0 0)
(-3.7660497 -0.35418228 0 1.7823113e-05 0 0)
(-3.7927427 -0.3556816 0 -1.6898272e-05 0 0)
(-3.7676401 -0.35427133 0 1.5924509e-05 0 0)
(-3.7911968 -0.35559564 0 -1.5077316e-05 0 0)
(-3.7690653 -0.35435107 0 1.4239734e-05 0 0)
(-3.7898297 -0.35551961 0 -1.3483754e-05 0 0)
(-3.7703402 -0.35442227 0 1.2756251e-05 0 0)
(-3.7886133 -0.35545204 0 -1.2088866e-05 0 0)
(-3.7714814 -0.35448586 0 1.1454196e-05 0 0)
(-3.7875259 -0.35539176 0 -1.0868174e-05 0 0)
(-3.7725054 -0.35454277 0 1.0314167e-05 0 0)
(-3.7865499 -0.35533777 0 -9.8016725e-06 0 0)
(-3.7734274 -0.35459385 0 9.3190745e-06 0 0)
(-3.78567 -0.35528924 0 -8.872946e-06 0 0)
(-3.7742607 -0.35463988 0 8.454393e-06 0 0)
(-3.7848734 -0.35524544 0 -8.0684403e-06 0 0)
(-3.7750174 -0.3546815 0 7.7079241e-06 0 0)
(-3.7841487 -0.35520574 0 -7.3769081e-06 0 0)
(-3.7757078 -0.35471932 0 7.0694733e-06 0 0)
(-3.7834857 -0.35516959 0 -6.7890121e-06 0 0)
(-3.7763417 -0.35475386 0 6.5305794e-06 0 0)
(-3.7828752 -0.35513648 0 -6.2970857e-06 0 0)
(-3.7769276 -0.3547856 0 6.0843461e-06 0 0)
(-3.7823089 -0.35510596 0 -5.8950514e-06 0 0)
(-3.7774736 -0.35481495 0 5.7256114e-06 0 0)
(-3.7817789 -0.35507761 0 -5.578004e-06 0 0)
(-3.7779877 -0.35484235 0 5.4526811e-06 0 0)
(-3.7812794 -0.35505112 0 -5.3423024e-06 0 0)
(-3.7784807 -0.35486835 0 5.2604771e-06 0 0)
(-3.7808049 -0.35502644 0 -5.2332927e-06 0 0)
(-3.778936 -0.3548929 0 5.0162021e-06 0 0)
(-3.7802169 -0.35499919 0 -5.6691865e-06 0 0)
(-3.7789182 -0.35489224 0 5.0407153e-06 0 0)
(-3.1498423 -1.5371726 0 -0.66895791 0 0)
(-8.9185938 -0.63903445 0 -0.030736391 0 0)
(-5.019747 -0.44429913 0 -0.010903655 0 0)
(-4.2533165 -0.373209 0 1.2637058e-05 0 0)
(-3.7733452 -0.35743437 0 -0.00078423426 0 0)
(-3.6323816 -0.34791319 0 -1.7983683e-05 0 0)
(-3.6720391 -0.35072988 0 -0.00015361156 0 0)
(-3.579073 -0.34537224 0 -4.9641024e-05 0 0)
(-3.6241362 -0.34790038 0 -5.0206726e-05 0 0)
(-3.567357 -0.34464604 0 7.1146179e-06 0 0)
(-3.6083301 -0.34702863 0 -2.6836318e-05 0 0)
(-3.5681549 -0.34467591 0 2.0164786e-05 0 0)
(-3.6033385 -0.34676163 0 -2.2326156e-05 0 0)
(-3.5703488 -0.3447996 0 2.0676728e-05 0 0)
(-3.6008774 -0.34662397 0 -2.0190075e-05 0 0)
(-3.5721911 -0.34490797 0 1.8888445e-05 0 0)
(-3.5990351 -0.34651637 0 -1.807054e-05 0 0)
(-3.5737715 -0.34500233 0 1.6935953e-05 0 0)
(-3.5974678 -0.34642351 0 -1.6091271e-05 0 0)
(-3.5751838 -0.34508682 0 1.5143331e-05 0 0)
(-3.5960968 -0.34634204 0 -1.4351443e-05 0 0)
(-3.5764494 -0.34516244 0 1.3546158e-05 0 0)
(-3.5948847 -0.34627001 0 -1.2832565e-05 0 0)
(-3.5775819 -0.34522997 0 1.2137147e-05 0 0)
(-3.5938061 -0.34620599 0 -1.1504486e-05 0 0)
(-3.5785961 -0.34529032 0 1.0899225e-05 0 0)
(-3.5928417 -0.34614885 0 -1.0342595e-05 0 0)
(-3.5795066 -0.34534436 0 9.8147031e-06 0 0)
(-3.5919757 -0.34609764 0 -9.3274346e-06 0 0)
(-3.5803267 -0.3453929 0 8.8677083e-06 0 0)
(-3.5911948 -0.34605158 0 -8.443326e-06 0 0)
(-3.5810682 -0.34543665 0 8.0446486e-06 0 0)
(-3.5904875 -0.34600998 0 -7.6774328e-06 0 0)
(-3.5817415 -0.34547625 0 7.3340794e-06 0 0)
(-3.5898439 -0.34597226 0 -7.0191498e-06 0 0)
(-3.582356 -0.34551224 0 6.7264363e-06 0 0)
(-3.589255 -0.34593789 0 -6.4597098e-06 0 0)
(-3.5829202 -0.34554513 0 6.2138143e-06 0 0)
(-3.5887126 -0.3459064 0 -5.9919831e-06 0 0)
(-3.5834417 -0.34557535 0 5.7898513e-06 0 0)
(-3.5882094 -0.34587735 0 -5.6104817e-06 0 0)
(-3.5839278 -0.34560333 0 5.4500208e-06 0 0)
(-3.5877381 -0.34585035 0 -5.3108865e-06 0 0)
(-3.5843855 -0.34562944 0 5.1942944e-06 0 0)
(-3.5872936 -0.34582507 0 -5.089325e-06 0 0)
(-3.5848248 -0.34565424 0 5.0206283e-06 0 0)
(-3.5868723 -0.34580163 0 -5.0031634e-06 0 0)
(-3.5852378 -0.34567829 0 4.7591578e-06 0 0)
(-3.5863656 -0.34577772 0 -5.6415914e-06 0 0)
(-3.5852822 -0.34567919 0 5.1549617e-06 0 0)
(-2.9190557 -1.429701 0 -0.61167486 0 0)
(-7.9314276 -0.61298696 0 -0.034523836 0 0)
(-4.9266879 -0.45563089 0 -0.014723059 0 0)
(-4.1426956 -0.36798836 0 -0.00020926291 0 0)
(-3.6049921 -0.35010964 0 -0.0011123756 0 0)
(-3.4376062 -0.33838175 0 -4.3407568e-05 0 0)
(-3.4723508 -0.34124123 0 -0.00018882117 0 0)
(-3.3908485 -0.33624598 0 -8.235843e-05 0 0)
(-3.4319003 -0.33859483 0 -5.3913243e-05 0 0)
(-3.3809323 -0.33552204 0 -3.6070747e-06 0 0)
(-3.417507 -0.33774161 0 -2.4081536e-05 0 0)
(-3.3813689 -0.33552043 0 1.5736862e-05 0 0)
(-3.4129014 -0.33748515 0 -1.917376e-05 0 0)
(-3.3832468 -0.33563144 0 1.7609451e-05 0 0)
(-3.4106795 -0.33735621 0 -1.7462854e-05 0 0)
(-3.3848873 -0.33573331 0 1.6271122e-05 0 0)
(-3.4090267 -0.3372549 0 -1.5668924e-05 0 0)
(-3.3863045 -0.33582248 0 1.4628277e-05 0 0)
(-3.4076181 -0.33716705 0 -1.3943992e-05 0 0)
(-3.3875713 -0.33590233 0 1.3096621e-05 0 0)
(-3.4063852 -0.33708993 0 -1.2429863e-05 0 0)
(-3.388707 -0.33597382 0 1.1722852e-05 0 0)
(-3.405295 -0.33702175 0 -1.111233e-05 0 0)
(-3.3897237 -0.33603771 0 1.0506898e-05 0 0)
(-3.4043248 -0.33696112 0 -9.9618505e-06 0 0)
(-3.3906347 -0.33609483 0 9.4366266e-06 0 0)
(-3.4034571 -0.33690696 0 -8.9555404e-06 0 0)
(-3.3914529 -0.33614602 0 8.4979319e-06 0 0)
(-3.4026777 -0.3368584 0 -8.076124e-06 0 0)
(-3.3921899 -0.33619204 0 7.6776908e-06 0 0)
(-3.4019749 -0.3368147 0 -7.3100216e-06 0 0)
(-3.3928564 -0.33623354 0 6.9644925e-06 0 0)
(-3.4013385 -0.33677521 0 -6.6462282e-06 0 0)
(-3.3934615 -0.33627112 0 6.3486485e-06 0 0)
(-3.4007595 -0.33673939 0 -6.0756777e-06 0 0)
(-3.3940137 -0.33630529 0 5.8220241e-06 0 0)
(-3.4002299 -0.33670673 0 -5.5908835e-06 0 0)
(-3.3945205 -0.33633653 0 5.3778929e-06 0 0)
(-3.3997424 -0.3366768 0 -5.1857907e-06 0 0)
(-3.3949888 -0.33636526 0 5.0108711e-06 0 0)
(-3.3992901 -0.33664916 0 -4.8558468e-06 0 0)
(-3.3954252 -0.33639188 0 4.7172863e-06 0 0)
(-3.3988669 -0.33662346 0 -4.5973769e-06 0 0)
(-3.3958359 -0.33641673 0 4.4986281e-06 0 0)
(-3.3984675 -0.33659935 0 -4.405671e-06 0 0)
(-3.3962301 -0.33644035 0 4.3546382e-06 0 0)
(-3.3980907 -0.33657707 0 -4.3488841e-06 0 0)
(-3.3966073 -0.33646394 0 4.0632822e-06 0 0)
(-3.3976545 -0.33655629 0 -5.1959085e-06 0 0)
(-3.3967075 -0.33646676 0 4.7428707e-06 0 0)
(-2.9028531 -1.3870087 0 -0.57043815 0 0)
(-6.8927316 -0.57466563 0 -0.036575177 0 0)
(-4.7174488 -0.45947358 0 -0.017960503 0 0)
(-4.0168503 -0.36263212 0 -0.00049314401 0 0)
(-3.4492487 -0.34312008 0 -0.0014722134 0 0)
(-3.2534045 -0.32901142 0 -6.8126678e-05 0 0)
(-3.2786243 -0.33169832 0 -0.00021925195 0 0)
(-3.2067882 -0.32705522 0 -0.00010974955 0 0)
(-3.2448466 -0.32927371 0 -5.6275172e-05 0 0)
(-3.1990499 -0.32638019 0 -1.31862e-05 0 0)
(-3.2320454 -0.32845833 0 -2.1416523e-05 0 0)
(-3.1993665 -0.32635795 0 1.1704398e-05 0 0)
(-3.2278233 -0.32821327 0 -1.6184957e-05 0 0)
(-3.2009935 -0.3264583 0 1.4762383e-05 0 0)
(-3.2258043 -0.32809231 0 -1.4881675e-05 0 0)
(-3.2024622 -0.32655434 0 1.3813124e-05 0 0)
(-3.2243126 -0.32799685 0 -1.3399885e-05 0 0)
(-3.2037415 -0.32663881 0 1.2453196e-05 0 0)
(-3.2230401 -0.32791369 0 -1.1917234e-05 0 0)
(-3.2048858 -0.32671444 0 1.1166124e-05 0 0)
(-3.2219252 -0.32784061 0 -1.0616636e-05 0 0)
(-3.2059119 -0.32678217 0 1.0002645e-05 0 0)
(-3.220939 -0.32777596 0 -9.4889974e-06 0 0)
(-3.206831 -0.32684274 0 8.9684443e-06 0 0)
(-3.2200609 -0.32771844 0 -8.5058349e-06 0 0)
(-3.207655 -0.32689694 0 8.0560235e-06 0 0)
(-3.2192755 -0.32766704 0 -7.6460864e-06 0 0)
(-3.2083952 -0.32694555 0 7.2546867e-06 0 0)
(-3.21857 -0.32762092 0 -6.8945853e-06 0 0)
(-3.2090621 -0.32698926 0 6.553896e-06 0 0)
(-3.2179338 -0.32757939 0 -6.239721e-06 0 0)
(-3.2096651 -0.32702871 0 5.9442612e-06 0 0)
(-3.2173579 -0.32754186 0 -5.6721787e-06 0 0)
(-3.2102124 -0.32706443 0 5.417703e-06 0 0)
(-3.2168341 -0.3275078 0 -5.1842968e-06 0 0)
(-3.2107117 -0.32709693 0 4.9673828e-06 0 0)
(-3.2163552 -0.32747674 0 -4.7697422e-06 0 0)
(-3.2111697 -0.32712665 0 4.5876238e-06 0 0)
(-3.2159146 -0.32744825 0 -4.4234008e-06 0 0)
(-3.2115928 -0.32715399 0 4.2738761e-06 0 0)
(-3.2155062 -0.32742196 0 -4.1414864e-06 0 0)
(-3.2119867 -0.32717933 0 4.0230996e-06 0 0)
(-3.2151242 -0.32739747 0 -3.920751e-06 0 0)
(-3.2123571 -0.327203 0 3.8377749e-06 0 0)
(-3.2147639 -0.32737448 0 -3.755151e-06 0 0)
(-3.2127122 -0.32722549 0 3.7191955e-06 0 0)
(-3.2144249 -0.32735327 0 -3.7178226e-06 0 0)
(-3.2130564 -0.32724846 0 3.3995173e-06 0 0)
(-3.2140459 -0.32733493 0 -4.7126742e-06 0 0)
(-3.2131945 -0.32725288 0 4.2940402e-06 0 0)
(-2.7883467 -1.2960524 0 -0.51105104 0 0)
(-5.9185291 -0.53964486 0 -0.037780189 0 0)
(-4.4427375 -0.45686032 0 -0.020171665 0 0)
(-3.8375576 -0.3559596 0 -0.00097165951 0 0)
(-3.2983785 -0.33671211 0 -0.0019329398 0 0)
(-3.0814901 -0.32001416 0 -0.00010989257 0 0)
(-3.0932581 -0.32224671 0 -0.00025235847 0 0)
(-3.0278474 -0.31783794 0 -0.00013283348 0 0)
(-3.0632045 -0.31994769 0 -5.7928635e-05 0 0)
(-3.0220047 -0.3172289 0 -2.128063e-05 0 0)
(-3.0518803 -0.31917843 0 -1.9251928e-05 0 0)
(-3.0222792 -0.31719182 0 8.3934532e-06 0 0)
(-3.0480205 -0.31894484 0 -1.3718824e-05 0 0)
(-3.0236899 -0.31728238 0 1.2457786e-05 0 0)
(-3.0461776 -0.31883118 0 -1.2763665e-05 0 0)
(-3.0250032 -0.31737286 0 1.1811364e-05 0 0)
(-3.0448267 -0.31874122 0 -1.15457e-05 0 0)
(-3.0261594 -0.31745289 0 1.0676925e-05 0 0)
(-3.0436744 -0.31866248 0 -1.0262522e-05 0 0)
(-3.0271955 -0.31752455 0 9.5893629e-06 0 0)
(-3.0426639 -0.3185932 0 -9.1361317e-06 0 0)
(-3.0281248 -0.31758875 0 8.5977354e-06 0 0)
(-3.0417695 -0.31853187 0 -8.1631725e-06 0 0)
(-3.0289578 -0.31764621 0 7.7118338e-06 0 0)
(-3.0409729 -0.31847727 0 -7.3163176e-06 0 0)
(-3.0297049 -0.31769767 0 6.928118e-06 0 0)
(-3.0402601 -0.31842844 0 -6.5760394e-06 0 0)
(-3.0303762 -0.31774385 0 6.2387952e-06 0 0)
(-3.0396198 -0.31838461 0 -5.9288867e-06 0 0)
(-3.0309812 -0.3177854 0 5.6354668e-06 0 0)
(-3.0390425 -0.31834514 0 -5.3648291e-06 0 0)
(-3.031528 -0.3178229 0 5.1103769e-06 0 0)
(-3.03852 -0.31830945 0 -4.8758968e-06 0 0)
(-3.0320243 -0.31785687 0 4.6567296e-06 0 0)
(-3.038045 -0.31827706 0 -4.4555396e-06 0 0)
(-3.0324768 -0.31788778 0 4.268711e-06 0 0)
(-3.0376109 -0.31824751 0 -4.0983312e-06 0 0)
(-3.0328918 -0.31791605 0 3.9414656e-06 0 0)
(-3.0372118 -0.31822041 0 -3.7998867e-06 0 0)
(-3.0332748 -0.31794206 0 3.6710793e-06 0 0)
(-3.036842 -0.31819538 0 -3.5569917e-06 0 0)
(-3.0336313 -0.31796618 0 3.4549439e-06 0 0)
(-3.0364963 -0.31817207 0 -3.3666689e-06 0 0)
(-3.0339662 -0.31798872 0 3.2961734e-06 0 0)
(-3.0361705 -0.31815015 0 -3.2214459e-06 0 0)
(-3.0342868 -0.31801013 0 3.1975162e-06 0 0)
(-3.0358648 -0.31812995 0 -3.1963456e-06 0 0)
(-3.0346007 -0.3180324 0 2.8516393e-06 0 0)
(-3.0355346 -0.31811364 0 -4.2914039e-06 0 0)
(-3.0347648 -0.31803825 0 3.8883649e-06 0 0)
(-2.7714248 -1.249546 0 -0.47575323 0 0)
(-4.9369027 -0.50893751 0 -0.040095585 0 0)
(-4.1662379 -0.45381114 0 -0.021636161 0 0)
(-3.5756763 -0.34675907 0 -0.0018813553 0 0)
(-3.110201 -0.32870408 0 -0.0023946167 0 0)
(-2.9071777 -0.31077939 0 -0.000147121 0 0)
(-2.9117538 -0.31270987 0 -0.00028179941 0 0)
(-2.8533373 -0.30857783 0 -0.00014980653 0 0)
(-2.8864822 -0.31060104 0 -5.87041e-05 0 0)
(-2.8496666 -0.30806342 0 -2.7989598e-05 0 0)
(-2.8768727 -0.30989746 0 -1.7402807e-05 0 0)
(-2.8501012 -0.30802175 0 5.6216505e-06 0 0)
(-2.8734322 -0.30967809 0 -1.1619887e-05 0 0)
(-2.8513599 -0.30810439 0 1.0543055e-05 0 0)
(-2.871762 -0.30957173 0 -1.097073e-05 0 0)
(-2.8525386 -0.30818969 0 1.0134635e-05 0 0)
(-2.8705388 -0.30948708 0 -9.9830052e-06 0 0)
(-2.8535848 -0.3082655 0 9.182871e-06 0 0)
(-2.8694949 -0.30941262 0 -8.8697407e-06 0 0)
(-2.8545239 -0.30833337 0 8.262013e-06 0 0)
(-2.8685782 -0.30934698 0 -7.8899761e-06 0 0)
(-2.8553667 -0.30839422 0 7.4148116e-06 0 0)
(-2.8677662 -0.30928882 0 -7.0468871e-06 0 0)
(-2.8561225 -0.30844871 0 6.6535807e-06 0 0)
(-2.8670426 -0.309237 0 -6.3145184e-06 0 0)
(-2.8568007 -0.30849756 0 5.9780829e-06 0 0)
(-2.8663951 -0.30919064 0 -5.6746792e-06 0 0)
(-2.8574102 -0.30854141 0 5.383e-06 0 0)
(-2.8658133 -0.30914901 0 -5.115337e-06 0 0)
(-2.8579595 -0.30858087 0 4.8617291e-06 0 0)
(-2.8652889 -0.3091115 0 -4.6277566e-06 0 0)
(-2.858456 -0.3086165 0 4.4078665e-06 0 0)
(-2.8648144 -0.30907759 0 -4.2050679e-06 0 0)
(-2.8589064 -0.30864879 0 4.0156709e-06 0 0)
(-2.8643832 -0.3090468 0 -3.8416298e-06 0 0)
(-2.859317 -0.30867816 0 3.6801688e-06 0 0)
(-2.8639893 -0.30901872 0 -3.5327583e-06 0 0)
(-2.8596934 -0.30870503 0 3.397177e-06 0 0)
(-2.8636273 -0.30899296 0 -3.2746627e-06 0 0)
(-2.8600406 -0.30872977 0 3.1632973e-06 0 0)
(-2.8632921 -0.30896916 0 -3.0645875e-06 0 0)
(-2.8603636 -0.30875271 0 2.9762476e-06 0 0)
(-2.8629789 -0.30894698 0 -2.8997733e-06 0 0)
(-2.8606668 -0.30877414 0 2.8395706e-06 0 0)
(-2.8626838 -0.30892611 0 -2.7714518e-06 0 0)
(-2.8609566 -0.3087945 0 2.7575838e-06 0 0)
(-2.8624075 -0.30890687 0 -2.7545115e-06 0 0)
(-2.8612429 -0.308816 0 2.391196e-06 0 0)
(-2.8621193 -0.30889225 0 -3.9113598e-06 0 0)
(-2.8614238 -0.30882311 0 3.5186471e-06 0 0)
(-2.7872594 -1.1828569 0 -0.42564368 0 0)
(-3.9998725 -0.48290999 0 -0.044889869 0 0)
(-3.8298503 -0.43980905 0 -0.021276111 0 0)
(-3.3396857 -0.34572375 0 -0.0045265872 0 0)
(-2.9488402 -0.32257995 0 -0.003051724 0 0)
(-2.7448486 -0.3019899 0 -0.00023098228 0 0)
(-2.7399987 -0.30337121 0 -0.00032166255 0 0)
(-2.6843609 -0.29930589 0 -0.00016435575 0 0)
(-2.715333 -0.30125537 0 -5.8568806e-05 0 0)
(-2.6823381 -0.29889118 0 -3.3494657e-05 0 0)
(-2.7071191 -0.30061834 0 -1.5689659e-05 0 0)
(-2.6829007 -0.29884936 0 3.2309876e-06 0 0)
(-2.7040598 -0.30041345 0 -9.761627e-06 0 0)
(-2.6840277 -0.29892484 0 8.8828201e-06 0 0)
(-2.7025455 -0.30031394 0 -9.3889691e-06 0 0)
(-2.6850845 -0.29900511 0 8.6691022e-06 0 0)
(-2.7014364 -0.30023431 0 -8.6078079e-06 0 0)
(-2.6860309 -0.29907684 0 7.8714654e-06 0 0)
(-2.7004896 -0.30016394 0 -7.6453831e-06 0 0)
(-2.6868825 -0.29914109 0 7.0954596e-06 0 0)
(-2.6996575 -0.30010178 0 -6.794514e-06 0 0)
(-2.6876474 -0.29919872 0 6.3747008e-06 0 0)
(-2.6989198 -0.30004666 0 -6.0652967e-06 0 0)
(-2.6883337 -0.29925038 0 5.7228215e-06 0 0)
(-2.6982622 -0.29999752 0 -5.4333621e-06 0 0)
(-2.6889497 -0.29929671 0 5.142343e-06 0 0)
(-2.6976735 -0.29995352 0 -4.8817357e-06 0 0)
(-2.6895035 -0.29933832 0 4.6300887e-06 0 0)
(-2.6971447 -0.29991401 0 -4.3995982e-06 0 0)
(-2.6900025 -0.29937579 0 4.1810021e-06 0 0)
(-2.696668 -0.2998784 0 -3.9793132e-06 0 0)
(-2.6904535 -0.29940961 0 3.7898373e-06 0 0)
(-2.6962369 -0.2998462 0 -3.6149459e-06 0 0)
(-2.6908626 -0.29944026 0 3.4517552e-06 0 0)
(-2.6958452 -0.29981697 0 -3.301633e-06 0 0)
(-2.6912354 -0.29946816 0 3.162504e-06 0 0)
(-2.6954875 -0.2997903 0 -3.0353286e-06 0 0)
(-2.6915769 -0.29949367 0 2.9184798e-06 0 0)
(-2.695159 -0.29976583 0 -2.8127532e-06 0 0)
(-2.6918919 -0.29951717 0 2.7167293e-06 0 0)
(-2.6948549 -0.29974322 0 -2.6315442e-06 0 0)
(-2.6921847 -0.29953896 0 2.5552398e-06 0 0)
(-2.694571 -0.29972215 0 -2.489148e-06 0 0)
(-2.6924594 -0.29955934 0 2.4378406e-06 0 0)
(-2.6943035 -0.29970229 0 -2.375714e-06 0 0)
(-2.6927217 -0.29957867 0 2.3704752e-06 0 0)
(-2.6940535 -0.29968398 0 -2.364663e-06 0 0)
(-2.6929827 -0.29959935 0 1.98971e-06 0 0)
(-2.6938017 -0.29967077 0 -3.5524984e-06 0 0)
(-2.6931736 -0.29960755 0 3.1723455e-06 0 0)
(-2.8029836 -1.1296426 0 -0.38806362 0 0)
(-3.3064378 -0.45941895 0 -0.047659985 0 0)
(-3.4935557 -0.41717772 0 -0.019178446 0 0)
(-3.0490059 -0.33769731 0 -0.0064077291 0 0)
(-2.7671523 -0.31397216 0 -0.0033552398 0 0)
(-2.5772949 -0.29265673 0 -0.00029950251 0 0)
(-2.5698291 -0.29383669 0 -0.00035242034 0 0)
(-2.5202487 -0.29002206 0 -0.00017295036 0 0)
(-2.5490216 -0.29188884 0 -5.7530189e-05 0 0)
(-2.5197616 -0.28970449 0 -3.7699293e-05 0 0)
(-2.5424568 -0.29133647 0 -1.4013067e-05 0 0)
(-2.5206196 -0.28967225 0 1.1776775e-06 0 0)
(-2.5398516 -0.29114971 0 -8.0828679e-06 0 0)
(-2.5216871 -0.28974308 0 7.4263944e-06 0 0)
(-2.5385068 -0.29105753 0 -7.9702935e-06 0 0)
(-2.5226476 -0.28981895 0 7.3699943e-06 0 0)
(-2.5375066 -0.29098284 0 -7.3777246e-06 0 0)
(-2.5235066 -0.28988687 0 6.7031264e-06 0 0)
(-2.536649 -0.29091642 0 -6.5517072e-06 0 0)
(-2.52428 -0.2899477 0 6.0543102e-06 0 0)
(-2.5358936 -0.29085761 0 -5.816138e-06 0 0)
(-2.5249746 -0.29000227 0 5.4457346e-06 0 0)
(-2.5352232 -0.29080539 0 -5.1884121e-06 0 0)
(-2.5255981 -0.29005122 0 4.8912179e-06 0 0)
(-2.5346253 -0.2907588 0 -4.6460123e-06 0 0)
(-2.5261578 -0.29009514 0 4.3954904e-06 0 0)
(-2.5340901 -0.29071708 0 -4.1731149e-06 0 0)
(-2.5266611 -0.2901346 0 3.9572056e-06 0 0)
(-2.5336092 -0.2906796 0 -3.759954e-06 0 0)
(-2.5271146 -0.29017014 0 3.5726408e-06 0 0)
(-2.533176 -0.29064583 0 -3.399837e-06 0 0)
(-2.5275243 -0.29020222 0 3.2375503e-06 0 0)
(-2.5327841 -0.29061528 0 -3.0876365e-06 0 0)
(-2.5278959 -0.2902313 0 2.9478784e-06 0 0)
(-2.5324283 -0.29058755 0 -2.8191652e-06 0 0)
(-2.5282343 -0.29025776 0 2.7000038e-06 0 0)
(-2.5321035 -0.29056225 0 -2.5909368e-06 0 0)
(-2.5285443 -0.29028197 0 2.4908321e-06 0 0)
(-2.5318053 -0.29053903 0 -2.4001216e-06 0 0)
(-2.5288301 -0.29030426 0 2.3178024e-06 0 0)
(-2.5315294 -0.29051757 0 -2.2446997e-06 0 0)
(-2.5290957 -0.29032495 0 2.1791325e-06 0 0)
(-2.531272 -0.29049756 0 -2.1223198e-06 0 0)
(-2.5293447 -0.2903443 0 2.0788175e-06 0 0)
(-2.5310294 -0.29047869 0 -2.0222769e-06 0 0)
(-2.529582 -0.29036263 0 2.0243813e-06 0 0)
(-2.5308029 -0.29046127 0 -2.0155396e-06 0 0)
(-2.5298198 -0.29038247 0 1.6350031e-06 0 0)
(-2.5305828 -0.29044926 0 -3.2084525e-06 0 0)
(-2.5300157 -0.29039158 0 2.8473875e-06 0 0)
(-2.8771906 -1.1008744 0 -0.35945749 0 0)
(-2.8653209 -0.4309305 0 -0.046526704 0 0)
(-3.1839953 -0.41160454 0 -0.023227137 0 0)
(-2.7584757 -0.32953375 0 -0.0086423038 0 0)
(-2.5946492 -0.30505098 0 -0.0034552572 0 0)
(-2.4206614 -0.28381385 0 -0.00044287515 0 0)
(-2.408559 -0.28445783 0 -0.00038904351 0 0)
(-2.361841 -0.2807289 0 -0.00017731819 0 0)
(-2.3883897 -0.28252552 0 -5.4673049e-05 0 0)
(-2.3623269 -0.2805111 0 -4.0335102e-05 0 0)
(-2.3830683 -0.28205637 0 -1.2131782e-05 0 0)
(-2.363365 -0.28049259 0 -5.0460752e-07 0 0)
(-2.3808401 -0.28188796 0 -6.5324383e-06 0 0)
(-2.3643695 -0.28055967 0 6.1522519e-06 0 0)
(-2.3796446 -0.28180278 0 -6.6918089e-06 0 0)
(-2.365242 -0.28063137 0 6.2138545e-06 0 0)
(-2.3787423 -0.28173273 0 -6.2732073e-06 0 0)
(-2.3660217 -0.28069567 0 5.6578862e-06 0 0)
(-2.3779652 -0.28167005 0 -5.5707227e-06 0 0)
(-2.3667241 -0.28075323 0 5.121204e-06 0 0)
(-2.3772795 -0.28161443 0 -4.9386411e-06 0 0)
(-2.367355 -0.28080489 0 4.6125575e-06 0 0)
(-2.3766704 -0.28156498 0 -4.4017607e-06 0 0)
(-2.3679214 -0.28085125 0 4.1451018e-06 0 0)
(-2.3761268 -0.28152085 0 -3.9395436e-06 0 0)
(-2.36843 -0.28089286 0 3.7253073e-06 0 0)
(-2.3756402 -0.28148132 0 -3.5372346e-06 0 0)
(-2.3688873 -0.28093025 0 3.3533796e-06 0 0)
(-2.3752031 -0.28144579 0 -3.1859793e-06 0 0)
(-2.3692992 -0.28096393 0 3.0267441e-06 0 0)
(-2.3748093 -0.28141378 0 -2.8798959e-06 0 0)
(-2.3696714 -0.28099433 0 2.7420217e-06 0 0)
(-2.3744533 -0.28138483 0 -2.6145572e-06 0 0)
(-2.3700088 -0.28102189 0 2.4958408e-06 0 0)
(-2.3741301 -0.28135855 0 -2.3863689e-06 0 0)
(-2.3703161 -0.28104697 0 2.2851355e-06 0 0)
(-2.3738353 -0.28133456 0 -2.1923396e-06 0 0)
(-2.3705974 -0.28106992 0 2.1072634e-06 0 0)
(-2.3735646 -0.28131255 0 -2.0300388e-06 0 0)
(-2.3708567 -0.28109105 0 1.9600138e-06 0 0)
(-2.3733143 -0.2812922 0 -1.8977491e-06 0 0)
(-2.3710975 -0.28111067 0 1.8418057e-06 0 0)
(-2.3730809 -0.28127323 0 -1.7933195e-06 0 0)
(-2.3713231 -0.28112903 0 1.7566956e-06 0 0)
(-2.3728609 -0.2812553 0 -1.7054231e-06 0 0)
(-2.3715379 -0.28114641 0 1.7136547e-06 0 0)
(-2.3726557 -0.28123874 0 -1.7018609e-06 0 0)
(-2.3717544 -0.28116537 0 1.320967e-06 0 0)
(-2.3724634 -0.28122775 0 -2.8778222e-06 0 0)
(-2.3719513 -0.28117526 0 2.5442978e-06 0 0)
(-2.9199283 -1.0251488 0 -0.30934922 0 0)
(-2.5185546 -0.40791302 0 -0.045754848 0 0)
(-2.8967787 -0.39147093 0 -0.02221266 0 0)
(-2.5183317 -0.31693755 0 -0.0089502698 0 0)
(-2.429021 -0.2945953 0 -0.0031655778 0 0)
(-2.2705632 -0.27492126 0 -0.00057573129 0 0)
(-2.2540157 -0.27507272 0 -0.0004098516 0 0)
(-2.2090245 -0.27142189 0 -0.00017222708 0 0)
(-2.2331475 -0.27315418 0 -4.8472417e-05 0 0)
(-2.2099063 -0.27130587 0 -4.0767205e-05 0 0)
(-2.2288543 -0.27277456 0 -9.7411587e-06 0 0)
(-2.211097 -0.27130841 0 -1.7367373e-06 0 0)
(-2.2269849 -0.27262696 0 -5.0437084e-06 0 0)
(-2.2120673 -0.27137397 0 5.0557407e-06 0 0)
(-2.2259406 -0.27254923 0 -5.5265856e-06 0 0)
(-2.2128708 -0.27144223 0 5.1850517e-06 0 0)
(-2.225133 -0.27248382 0 -5.2757273e-06 0 0)
(-2.213582 -0.27150322 0 4.720096e-06 0 0)
(-2.2244309 -0.27242477 0 -4.6868697e-06 0 0)
(-2.2142208 -0.27155771 0 4.2819118e-06 0 0)
(-2.2238092 -0.2723722 0 -4.1484046e-06 0 0)
(-2.2147941 -0.27160661 0 3.862445e-06 0 0)
(-2.223256 -0.27232541 0 -3.6932924e-06 0 0)
(-2.2153085 -0.27165049 0 3.473124e-06 0 0)
(-2.2227621 -0.27228363 0 -3.3032256e-06 0 0)
(-2.2157704 -0.27168988 0 3.1216483e-06 0 0)
(-2.2223199 -0.2722462 0 -2.964488e-06 0 0)
(-2.2161857 -0.27172529 0 2.8095025e-06 0 0)
(-2.2219228 -0.27221256 0 -2.6690273e-06 0 0)
(-2.2165597 -0.27175717 0 2.5350934e-06 0 0)
(-2.2215652 -0.27218224 0 -2.4116656e-06 0 0)
(-2.2168976 -0.27178597 0 2.2957948e-06 0 0)
(-2.2212419 -0.27215483 0 -2.1885884e-06 0 0)
(-2.2172038 -0.27181206 0 2.0888372e-06 0 0)
(-2.2209486 -0.27212994 0 -1.9967264e-06 0 0)
(-2.2174826 -0.2718358 0 1.9116492e-06 0 0)
(-2.220681 -0.27210723 0 -1.8335304e-06 0 0)
(-2.2177377 -0.27185754 0 1.7619932e-06 0 0)
(-2.2204355 -0.27208638 0 -1.6969284e-06 0 0)
(-2.2179728 -0.27187756 0 1.6379751e-06 0 0)
(-2.2202086 -0.27206711 0 -1.5854727e-06 0 0)
(-2.218191 -0.27189615 0 1.538194e-06 0 0)
(-2.219997 -0.27204912 0 -1.4972119e-06 0 0)
(-2.2183954 -0.27191354 0 1.4666804e-06 0 0)
(-2.2197976 -0.27203212 0 -1.4204304e-06 0 0)
(-2.2185896 -0.27193 0 1.4336567e-06 0 0)
(-2.2196117 -0.27201638 0 -1.4192722e-06 0 0)
(-2.2187865 -0.27194807 0 1.0425776e-06 0 0)
(-2.2194439 -0.27200626 0 -2.5596201e-06 0 0)
(-2.2189817 -0.2719586 0 2.2630615e-06 0 0)
(-3.051731 -1.0133915 0 -0.2867499 0 0)
(-2.302034 -0.3956458 0 -0.045888296 0 0)
(-2.6786713 -0.37811023 0 -0.022377712 0 0)
(-2.336657 -0.30681156 0 -0.0092548367 0 0)
(-2.2758687 -0.28430331 0 -0.0028683742 0 0)
(-2.1252883 -0.26576927 0 -0.00063330556 0 0)
(-2.1058761 -0.26564165 0 -0.00039844205 0 0)
(-2.0623806 -0.26212322 0 -0.0001554565 0 0)
(-2.0836211 -0.26378383 0 -3.8312559e-05 0 0)
(-2.0627719 -0.26209524 0 -3.8717839e-05 0 0)
(-2.0799665 -0.26349429 0 -6.5464553e-06 0 0)
(-2.0639216 -0.26212185 0 -2.4243823e-06 0 0)
(-2.0783314 -0.26336774 0 -3.5337271e-06 0 0)
(-2.0648174 -0.26218671 0 4.1435345e-06 0 0)
(-2.0774026 -0.26329718 0 -4.4461726e-06 0 0)
(-2.0655487 -0.26225179 0 4.2709173e-06 0 0)
(-2.0766762 -0.26323614 0 -4.3685925e-06 0 0)
(-2.0661954 -0.26230964 0 3.875661e-06 0 0)
(-2.0760414 -0.26318053 0 -3.8865278e-06 0 0)
(-2.0667758 -0.26236122 0 3.5236635e-06 0 0)
(-2.0754779 -0.26313088 0 -3.4334577e-06 0 0)
(-2.0672963 -0.26240747 0 3.1840771e-06 0 0)
(-2.0749759 -0.26308664 0 -3.0523697e-06 0 0)
(-2.0677633 -0.26244898 0 2.8652253e-06 0 0)
(-2.0745276 -0.26304712 0 -2.727566e-06 0 0)
(-2.0681825 -0.26248624 0 2.5755269e-06 0 0)
(-2.0741261 -0.2630117 0 -2.4463656e-06 0 0)
(-2.0685593 -0.26251974 0 2.3175016e-06 0 0)
(-2.0737657 -0.26297987 0 -2.2014318e-06 0 0)
(-2.0688986 -0.2625499 0 2.0903976e-06 0 0)
(-2.0734411 -0.26295119 0 -1.9882035e-06 0 0)
(-2.069205 -0.26257714 0 1.8922489e-06 0 0)
(-2.0731479 -0.26292526 0 -1.8034081e-06 0 0)
(-2.0694826 -0.26260182 0 1.7208216e-06 0 0)
(-2.0728819 -0.26290172 0 -1.6444468e-06 0 0)
(-2.0697353 -0.26262428 0 1.5739888e-06 0 0)
(-2.0726393 -0.26288023 0 -1.5091697e-06 0 0)
(-2.0699665 -0.26264484 0 1.4498801e-06 0 0)
(-2.0724168 -0.26286051 0 -1.3958304e-06 0 0)
(-2.0701795 -0.26266378 0 1.3468904e-06 0 0)
(-2.0722113 -0.26284226 0 -1.3032237e-06 0 0)
(-2.0703771 -0.26268138 0 1.2637845e-06 0 0)
(-2.0720197 -0.26282524 0 -1.2295985e-06 0 0)
(-2.0705622 -0.26269785 0 1.2044946e-06 0 0)
(-2.0718391 -0.26280913 0 -1.163077e-06 0 0)
(-2.0707376 -0.26271341 0 1.1802503e-06 0 0)
(-2.0716707 -0.26279419 0 -1.1638362e-06 0 0)
(-2.0709164 -0.2627306 0 7.9531232e-07 0 0)
(-2.0715244 -0.2627848 0 -2.2528633e-06 0 0)
(-2.0711075 -0.26274164 0 2.0031166e-06 0 0)
(-3.1044485 -0.92965623 0 -0.23681383 0 0)
(-2.1480781 -0.36770726 0 -0.040271778 0 0)
(-2.4938779 -0.35673333 0 -0.01970762 0 0)
(-2.1862913 -0.29456663 0 -0.0086106541 0 0)
(-2.1350424 -0.27399918 0 -0.0025237629 0 0)
(-1.9883922 -0.25656641 0 -0.00060973622 0 0)
(-1.965481 -0.256255 0 -0.00035669638 0 0)
(-1.9219514 -0.25284303 0 -0.0001282953 0 0)
(-1.9398247 -0.25442464 0 -2.4445889e-05 0 0)
(-1.9209185 -0.25288226 0 -3.4078949e-05 0 0)
(-1.9363809 -0.25421643 0 -2.3600253e-06 0 0)
(-1.9218331 -0.25293314 0 -2.5054207e-06 0 0)
(-1.9348625 -0.25411012 0 -1.9410721e-06 0 0)
(-1.9226201 -0.2529978 0 3.4212546e-06 0 0)
(-1.9340202 -0.25404641 0 -3.4245719e-06 0 0)
(-1.9232788 -0.25306002 0 3.4634201e-06 0 0)
(-1.933365 -0.25398956 0 -3.5362144e-06 0 0)
(-1.9238659 -0.25311494 0 3.114153e-06 0 0)
(-1.9327917 -0.25393727 0 -3.1578e-06 0 0)
(-1.9243932 -0.25316377 0 2.8363662e-06 0 0)
(-1.9322816 -0.25389043 0 -2.7837612e-06 0 0)
(-1.9248655 -0.2532075 0 2.5682766e-06 0 0)
(-1.9318267 -0.25384864 0 -2.4702095e-06 0 0)
(-1.925289 -0.25324674 0 2.3131775e-06 0 0)
(-1.9314202 -0.25381128 0 -2.204762e-06 0 0)
(-1.925669 -0.25328196 0 2.0795682e-06 0 0)
(-1.9310562 -0.2537778 0 -1.9758762e-06 0 0)
(-1.9260105 -0.25331362 0 1.8707427e-06 0 0)
(-1.9307294 -0.25374772 0 -1.7768902e-06 0 0)
(-1.926318 -0.25334213 0 1.6866596e-06 0 0)
(-1.9304353 -0.25372062 0 -1.6037968e-06 0 0)
(-1.9265955 -0.25336786 0 1.5259343e-06 0 0)
(-1.9301696 -0.25369611 0 -1.4538106e-06 0 0)
(-1.926847 -0.25339118 0 1.3868141e-06 0 0)
(-1.9299287 -0.25367386 0 -1.3247585e-06 0 0)
(-1.9270757 -0.25341241 0 1.2675759e-06 0 0)
(-1.929709 -0.25365356 0 -1.2148555e-06 0 0)
(-1.927285 -0.25343184 0 1.166685e-06 0 0)
(-1.9295076 -0.25363491 0 -1.1226528e-06 0 0)
(-1.9274777 -0.25344975 0 1.0828023e-06 0 0)
(-1.9293216 -0.25361767 0 -1.0471657e-06 0 0)
(-1.9276565 -0.25346638 0 1.0148487e-06 0 0)
(-1.9291483 -0.25360157 0 -9.8684176e-07 0 0)
(-1.9278238 -0.25348196 0 9.6659809e-07 0 0)
(-1.928985 -0.25358633 0 -9.2985648e-07 0 0)