/*--------------------------------*- C++ -*----------------------------------*\
| =========                 |                                                 |
| \\      /  F ield         | OpenFOAM: The Open Source CFD Toolbox           |
|  \\    /   O peration     | Version:  2312                                  |
|   \\  /    A nd           | Website:  www.openfoam.com                      |
|    \\/     M anipulation  |                                                 |
\*---------------------------------------------------------------------------*/
FoamFile
{
    version     2.0;
    format      ascii;
    arch        "LSB;label=32;scalar=64";
    class       volScalarField;
    location    "7";
    object      T;
}
// * * * * * * * * * * * * * * * * * * * * * * * * * * * * * * * * * * * * * //

dimensions      [0 0 0 1 0 0 0];

internalField   nonuniform List<scalar> 
4000
(
318.76915
317.84092
317.65691
317.60474
317.54469
317.50376
317.4642
317.42927
317.3954
317.36415
317.33284
317.30346
317.27373
317.24543
317.2168
317.18921
317.1614
317.13428
317.1071
317.08033
317.05365
317.02712
317.00084
316.9745
316.94857
316.92237
316.89672
316.87062
316.84522
316.8192
316.79402
316.76806
316.74308
316.71714
316.69235
316.66643
316.64181
316.61589
316.59143
316.5655
316.54121
316.51523
316.49112
316.46507
316.44116
316.41498
316.39134
316.36493
316.34175
316.31444
320.34392
318.84732
318.35185
318.24369
318.11292
318.03905
317.9694
317.91354
317.86091
317.81608
317.77111
317.73191
317.69168
317.65573
317.61881
317.58495
317.55048
317.51806
317.48548
317.45408
317.42299
317.39235
317.36247
317.33239
317.30353
317.27386
317.24586
317.21651
317.18926
317.16014
317.13355
317.10459
317.0786
317.04974
317.02429
316.99548
316.97056
316.94174
316.91733
316.88845
316.86454
316.83553
316.81216
316.78293
316.76017
316.73057
316.70859
316.67829
316.6577
316.62482
321.31587
319.81479
319.04096
318.87817
318.67853
318.57211
318.47282
318.39615
318.32501
318.26662
318.20815
318.15912
318.10851
318.06489
318.01977
317.97963
317.93858
317.90083
317.86291
317.82687
317.79143
317.75664
317.72322
317.68937
317.65762
317.62448
317.59416
317.56154
317.53247
317.50023
317.47225
317.44028
317.4133
317.3815
317.35543
317.32372
317.29851
317.26679
317.24242
317.21059
317.18707
317.15503
317.13241
317.1
317.07839
317.04537
317.02506
316.99088
316.97284
316.93469
321.9595
320.71063
319.71417
319.50201
319.23766
319.09999
318.97217
318.87512
318.78601
318.71422
318.64261
318.58382
318.52308
318.47181
318.41868
318.37226
318.32478
318.28169
318.23856
318.19786
318.15817
318.11923
318.08233
318.0447
318.01015
317.9735
317.94093
317.90502
317.87418
317.83881
317.80949
317.7745
317.74657
317.71182
317.68516
317.65053
317.62507
317.59043
317.56614
317.53136
317.50825
317.47317
317.45131
317.41572
317.39527
317.35884
317.3402
317.30217
317.28662
317.2436
322.40487
321.50503
320.35844
320.10699
319.78501
319.61868
319.46431
319.3478
319.24169
319.15687
319.07273
319.00435
318.93391
318.87509
318.81427
318.76161
318.70796
318.65956
318.6114
318.56606
318.52228
318.47918
318.43895
318.39754
318.36028
318.32013
318.2854
318.24619
318.21367
318.17516
318.14457
318.10655
318.07773
318.04003
318.01283
317.97527
317.94961
317.91205
317.88787
317.85014
317.82747
317.78936
317.76828
317.72952
317.71024
317.67041
317.65342
317.61162
317.59841
317.55103
322.72336
322.18064
320.96026
320.6835
320.31425
320.12334
319.9454
319.81098
319.68932
319.59217
319.49637
319.41879
319.33926
319.2731
319.20506
319.14629
319.08681
319.03318
318.98029
318.93035
318.8827
318.83548
318.7921
318.74693
318.70712
318.66348
318.62672
318.58423
318.55012
318.50849
318.47673
318.43569
318.40605
318.3654
318.33772
318.29726
318.27144
318.23097
318.20695
318.16628
318.14408
318.10296
318.08268
318.04079
318.02267
317.97952
317.96412
317.91866
317.90762
317.85639
322.95583
322.72842
321.5074
321.22158
320.81852
320.60857
320.4111
320.26104
320.12581
320.01736
319.91113
319.82492
319.73715
319.66401
319.58935
319.52472
319.45987
319.40116
319.3439
319.28947
319.23826
319.18699
319.14071
319.09183
319.04968
319.00259
318.96397
318.91824
318.88269
318.83795
318.80513
318.7611
318.73075
318.68718
318.65911
318.61576
318.58985
318.54651
318.5227
318.47913
318.45743
318.41334
318.39387
318.34891
318.33194
318.28555
318.27169
318.22275
318.21362
318.15906
323.12878
323.15103
321.99099
321.71206
321.29107
321.06878
320.85683
320.69409
320.54779
320.4295
320.31437
320.22037
320.12541
320.04582
319.96532
319.89517
319.82555
319.76201
319.70084
319.64211
319.58769
319.53252
319.48363
319.43115
319.3869
319.33645
319.29617
319.24726
319.21044
319.16267
319.12893
319.08196
319.05101
319.00457
318.9762
318.93003
318.9041
318.85794
318.83439
318.78798
318.76682
318.71984
318.70119
318.65325
318.6374
318.58789
318.57548
318.52328
318.51579
318.45838
323.25995
323.45893
322.40606
322.14783
321.72594
321.49866
321.27801
321.1062
320.95181
320.82551
320.70334
320.60264
320.50177
320.41643
320.33102
320.25584
320.18216
320.11414
320.04961
319.98683
319.92965
319.87077
319.81963
319.76371
319.71765
319.66398
319.62228
319.5703
319.53241
319.4817
319.4472
319.3974
319.36598
319.31676
319.28819
319.23928
319.21342
319.16452
319.14129
319.09213
319.07154
319.02177
319.00395
318.95315
318.93839
318.88593
318.87484
318.81966
318.81352
318.75371
323.36167
323.66874
322.75209
322.52475
322.11843
321.89352
321.67045
321.49362
321.33449
321.20237
321.07529
320.96922
320.86392
320.77372
320.68448
320.60489
320.52796
320.45593
320.38868
320.3222
320.26276
320.20045
320.14747
320.08833
320.0408
319.98408
319.94123
319.88635
319.84762
319.79411
319.75904
319.70651
319.67478
319.6229
319.59426
319.54271
319.51701
319.4655
319.44265
319.39086
319.37088
319.31845
319.30145
319.24795
319.23422
319.17903
319.16913
319.11128
319.10621
319.04439
323.44284
323.80018
323.03227
322.84203
322.46542
322.24972
322.03056
321.85303
321.69272
321.55724
321.4276
321.3177
321.20961
321.1156
321.02375
320.9405
320.86125
320.78575
320.7165
320.64676
320.58564
320.52024
320.46588
320.4038
320.35517
320.29564
320.25196
320.19438
320.15505
320.09892
320.06349
320.00841
319.97653
319.92215
319.89357
319.83954
319.81409
319.76011
319.73771
319.68345
319.6641
319.60919
319.59301
319.53701
319.52424
319.46656
319.4577
319.39751
319.39327
319.32978
323.50947
323.87352
323.25306
323.10195
322.76561
322.56497
322.35571
322.18174
322.02388
321.88764
321.75789
321.64587
321.53675
321.44012
321.34696
321.26092
321.18035
321.10205
321.03158
320.95909
320.89691
320.82884
320.77361
320.70894
320.65962
320.59758
320.5534
320.49337
320.45372
320.3952
320.35963
320.30221
320.27036
320.21366
320.18528
320.12896
320.10387
320.04761
320.02573
319.96919
319.9505
319.89331
319.87792
319.81965
319.80778
319.74789
319.73992
319.67774
319.6741
319.60926
323.56604
323.90771
323.42274
323.30925
323.01958
322.83849
322.64433
322.47787
322.32592
322.19157
322.06417
321.95182
321.84348
321.74551
321.65241
321.56455
321.48371
321.40335
321.33251
321.25785
321.19529
321.12502
321.06946
321.0026
320.95304
320.88882
320.84451
320.78232
320.74266
320.68202
320.64655
320.58702
320.5554
320.49661
320.46858
320.41019
320.38557
320.32725
320.30595
320.24736
320.22936
320.17014
320.15552
320.09525
320.08419
320.0224
320.01517
319.95136
319.94814
319.88222
323.61524
323.91827
323.5505
323.47037
323.22969
323.07105
322.89604
322.74051
322.59758
322.46761
322.34493
322.23403
322.12828
322.0303
321.93865
321.84997
321.76996
321.68834
321.61799
321.54181
321.47957
321.40764
321.35231
321.28371
321.23437
321.16837
321.1243
321.06031
321.02094
320.95848
320.92337
320.86202
320.83083
320.77023
320.7427
320.68249
320.65846
320.59832
320.57768
320.51729
320.5
320.43901
320.42514
320.36317
320.35285
320.28948
320.28287
320.21776
320.21484
320.14808
323.65916
323.91722
323.64526
323.59268
323.39978
323.26483
323.11168
322.9697
322.83839
322.71503
322.59923
322.49149
322.39003
322.29335
322.20449
322.11605
322.03795
321.9559
321.8869
321.8099
321.74868
321.67567
321.62116
321.55131
321.50267
321.43531
321.39188
321.32646
321.28771
321.22378
321.18928
321.12643
321.09587
321.03375
321.00688
320.94515
320.92181
320.86015
320.84023
320.77833
320.76178
320.69932
320.68618
320.62281
320.61316
320.54855
320.54245
320.47638
320.47366
320.40631
323.69882
323.91242
323.71522
323.68373
323.5347
323.42314
323.29314
323.16646
323.04872
322.9338
322.82672
322.72366
322.62803
322.53391
322.44912
322.36194
322.28677
322.20515
322.13836
322.06124
322.00173
321.92824
321.87512
321.80455
321.75709
321.68883
321.64643
321.58
321.54218
321.47715
321.44354
321.37953
321.34982
321.2865
321.26045
321.19751
321.17498
321.1121
321.09297
321.02988
321.0141
320.95048
320.93805
320.87362
320.86457
320.79906
320.79338
320.72667
320.72409
320.65639
323.73512
323.90871
323.76727
323.75071
323.63989
323.55013
323.4432
323.33265
323.22971
323.12459
323.02766
322.93058
322.8421
322.75167
322.67208
322.58712
322.51584
322.43547
322.37168
322.29515
322.23803
322.16467
322.11351
322.04274
321.99692
321.92825
321.88727
321.82025
321.78369
321.71796
321.68548
321.62069
321.59203
321.52787
321.5028
321.43899
321.41737
321.35361
321.33534
321.27138
321.25639
321.19196
321.18023
321.11507
321.10658
321.04051
321.03518
320.96814
320.96567
320.89784
323.76841
323.90817
323.80693
323.79991
323.72081
323.65034
323.5653
323.47081
323.38319
323.28871
323.2029
323.11281
323.03251
322.94673
322.87329
322.79142
322.72488
322.64654
322.58647
322.51121
322.45709
322.38448
322.33578
322.26537
322.22163
322.15303
322.11384
322.04669
322.01169
321.94567
321.91457
321.84938
321.82197
321.75733
321.7334
321.66906
321.64848
321.58418
321.56684
321.50235
321.48818
321.42327
321.41223
321.3467
321.33873
321.27243
321.2674
321.20034
321.19796
321.13025
323.79909
323.91138
323.83833
323.83656
323.78264
323.72843
323.66324
323.584
323.51153
323.42799
323.35382
323.27137
323.19997
323.1196
323.05306
322.97504
322.91392
322.8383
322.78259
322.70924
322.65867
322.58737
322.54163
322.4721
322.43084
322.3628
322.32573
322.25889
322.22574
322.15985
322.13038
322.06518
322.0392
321.97447
321.95181
321.88732
321.86786
321.80339
321.78704
321.72237
321.70905
321.64401
321.63366
321.56809
321.56062
321.49442
321.48967
321.42287
321.42058
321.35324
323.82733
323.91786
323.8644
323.86471
323.82996
323.7888
323.74092
323.67551
323.61745
323.54468
323.4822
323.40772
323.34564
323.2712
323.21208
323.13849
323.08334
323.01104
322.96018
322.88932
322.84276
322.77331
322.73092
322.66277
322.62436
322.55734
322.52271
322.45662
322.42558
322.36022
322.33259
322.26778
322.24341
322.17895
322.1577
322.09342
322.07519
322.01089
321.99559
321.9311
321.91867
321.85384
321.84418
321.7789
321.77192
321.70613
321.70167
321.6354
321.63321
321.56648
323.85338
323.92681
323.88705
323.88732
323.86663
323.83543
323.80206
323.74871
323.70388
323.64127
323.59014
323.52364
323.47095
323.40275
323.35132
323.28259
323.23378
323.16527
323.11965
323.05175
323.00957
322.94246
322.90376
322.83745
322.80218
322.73662
322.70469
322.63977
322.61105
322.54664
322.52103
322.457
322.43438
322.37057
322.35085
322.28713
322.27022
322.20644
322.19226
322.12829
322.11676
322.05249
322.04353
321.97887
321.97238
321.9073
321.90312
321.83765
321.83558
321.7697
323.87739
323.93731
323.90746
323.90645
323.89571
323.87172
323.8501
323.80685
323.77375
323.72039
323.67993
323.62114
323.57764
323.51573
323.47206
323.40845
323.36614
323.30177
323.26163
323.1971
323.15955
323.09518
323.06042
322.99637
322.96448
322.90078
322.87175
322.80839
322.78219
322.7191
322.69567
322.63277
322.61204
322.54924
322.53115
322.46834
322.45282
322.38991
322.37688
322.31377
322.30318
322.23978
322.23154
322.16781
322.16181
322.09773
322.09384
322.02943
322.02749
321.96271
323.89956
323.94865
323.92628
323.92342
323.9195
323.90043
323.88802
323.85289
323.82988
323.78466
323.75393
323.70235
323.66757
323.61184
323.57576
323.51735
323.48156
323.42156
323.38699
323.32611
323.29335
323.23204
323.2014
323.13993
323.11159
323.0501
323.02414
322.96268
322.93914
322.87772
322.85659
322.79517
322.77643
322.71498
322.69858
322.63703
322.62295
322.56123
322.54941
322.48746
322.47784
322.41561
322.40811
322.34559
322.3401
322.27728
322.2737
322.2106
322.20881
322.14536
323.92006
323.96027
323.94385
323.939
323.93967
323.92371
323.91829
323.88944
323.87486
323.83656
323.81445
323.76941
323.74272
323.69285
323.66401
323.61075
323.58132
323.52577
323.49676
323.43972
323.41177
323.35377
323.32731
323.26872
323.24401
323.18503
323.16224
323.103
323.08221
323.02276
323.00401
322.94439
322.92771
322.86791
322.85328
322.79328
322.78069
322.72046
322.70987
322.64938
322.64075
322.57998
322.57323
322.51218
322.50723
322.44592
322.44266
322.3811
322.37946
322.31757
323.93906
323.97182
323.96034
323.95361
323.95734
323.94317
323.94289
323.91871
323.91096
323.87837
323.86371
323.82443
323.80502
323.76059
323.73849
323.69018
323.66683
323.61571
323.59208
323.53897
323.51577
323.46125
323.43896
323.38345
323.3624
323.30617
323.28658
323.22981
323.21181
323.15461
323.1383
323.08074
323.06616
323.00829
322.99546
322.93728
322.92621
322.86774
322.85841
322.79964
322.79201
322.73296
322.72697
322.66764
322.66323
322.60366
322.60074
322.54093
322.53946
322.47934
323.9567
323.98309
323.97581
323.96747
323.97323
323.95993
323.96334
323.94249
323.94012
323.91209
323.9037
323.86936
323.85637
323.81684
323.80087
323.75722
323.73953
323.69271
323.67422
323.62503
323.60642
323.55545
323.53725
323.48495
323.46751
323.4142
323.3978
323.3437
323.32849
323.27376
323.25988
323.20463
323.19216
323.13645
323.12543
323.06932
323.05978
323.00331
322.99524
322.93843
322.9318
322.8747
322.86948
322.81209
322.80823
322.7506
322.74804
322.69017
322.68889
322.63073
323.97311
323.99398
323.9903
323.98063
323.98778
323.97477
323.98077
323.96217
323.96394
323.93945
323.93618
323.90599
323.89849
323.86331
323.85279
323.81342
323.8009
323.75818
323.74447
323.69911
323.68485
323.63744
323.62315
323.57413
323.5602
323.50993
323.49663
323.44535
323.43289
323.3808
323.36933
323.31656
323.30618
323.25284
323.24361
323.18978
323.18175
323.12748
323.12066
323.06602
323.0604
323.00543
323.00099
322.94573
322.94242
322.88691
322.88472
322.82897
322.82787
322.77185
323.98842
324.00445
324.00384
323.99312
324.00125
323.98818
323.99596
323.97883
323.98368
323.96184
323.96268
323.93587
323.93299
323.90155
323.89577
323.86028
323.85238
323.81348
323.80413
323.76245
323.75223
323.7083
323.6977
323.65198
323.64137
323.5942
323.58388
323.53553
323.52572
323.4764
323.46726
323.41712
323.40877
323.35796
323.35049
323.29909
323.29255
323.24066
323.23507
323.18276
323.17814
323.12547
323.12179
323.06882
323.06607
323.01284
323.01101
322.95754
322.95662
322.90289
324.00272
324.01448
324.01645
324.00492
324.01377
324.00048
324.00947
323.99322
324.00032
323.98042
323.98444
323.96035
323.96124
323.93299
323.93123
323.89917
323.8953
323.85992
323.85447
323.81626
323.80972
323.76917
323.76197
323.7195
323.712
323.66793
323.66043
323.61505
323.60776
323.56127
323.55437
323.50696
323.50057
323.45239
323.44662
323.39778
323.39268
323.3433
323.33891
323.28906
323.28541
323.23517
323.23225
323.18169
323.1795
323.12867
323.1272
323.07613
323.07539
323.02408
324.01609
324.02408
324.02818
324.01603
324.02542
324.01185
324.02163
324.00589
324.01458
323.99607
324.0025
323.98053
323.98443
323.95885
323.96042
323.93137
323.93095
323.89874
323.8967
323.86173
323.85847
323.82114
323.81703
323.7777
323.77306
323.73205
323.72716
323.68474
323.67981
323.6362
323.6314
323.58678
323.58224
323.53678
323.53261
323.48643
323.4827
323.43592
323.43268
323.38539
323.38267
323.33497
323.33278
323.28473
323.28308
323.23475
323.23364
323.18506
323.18451
323.1357
324.02861
324.03325
324.03907
324.02643
324.03622
324.02238
324.03267
324.01721
324.02697
324.00945
324.01764
323.99734
324.00355
323.98018
323.98444
323.95799
323.96044
323.93108
323.93197
323.89997
323.89958
323.86526
323.8639
323.82758
323.82552
323.78749
323.78498
323.74548
323.74272
323.70197
323.69912
323.6573
323.65449
323.61177
323.60912
323.56563
323.5632
323.51908
323.51693
323.47227
323.47044
323.42533
323.42384
323.37838
323.37724
323.33148
323.33072
323.28471
323.28432
323.23809
324.04033
324.042
324.04914
324.03613
324.0462
324.03212
324.04273
324.02742
324.03787
324.02105
324.03048
324.01147
324.01943
323.99787
324.00424
323.98
323.9848
323.95795
323.96129
323.93199
323.93406
323.90255
323.90358
323.87011
323.87033
323.83516
323.83478
323.79812
323.79732
323.75938
323.75831
323.71927
323.71805
323.67807
323.67681
323.63604
323.63481
323.59337
323.59223
323.55023
323.54923
323.50677
323.50594
323.46309
323.46245
323.41929
323.41886
323.37545
323.37523
323.33163
324.05129
324.0503
324.05841
324.04511
324.05535
324.04109
324.05187
324.03667
324.04754
324.03122
324.04149
324.02348
324.0327
324.01262
324.02059
323.99825
324.0049
323.98026
323.9856
323.95873
323.96285
323.93392
323.93699
323.90619
323.90838
323.87593
323.87741
323.84349
323.84443
323.80923
323.80975
323.77344
323.77365
323.73638
323.73638
323.6983
323.69817
323.6594
323.6592
323.61986
323.61963
323.5798
323.57958
323.53937
323.53918
323.49865
323.49852
323.45774
323.45768
323.41671
324.06153
324.05812
324.06689
324.05336
324.06367
324.04931
324.06015
324.04505
324.05613
324.04021
324.05099
324.03379
324.04387
324.02501
324.03416
324.01343
324.02149
323.99878
324.0057
323.981
323.9868
323.96022
323.96499
323.93666
323.94053
323.91063
323.91372
323.8824
323.88485
323.85228
323.8542
323.82053
323.82201
323.78739
323.78852
323.75308
323.75394
323.71781
323.71845
323.68173
323.6822
323.645
323.64533
323.60773
323.60796
323.57005
323.57019
323.53203
323.5321
323.49376
324.07103
324.06542
324.07457
324.06087
324.07116
324.05676
324.06758
324.05261
324.06375
324.04819
324.05924
324.04271
324.05333
324.0355
324.04546
324.0261
324.0352
324.01417
324.02229
323.99954
324.00665
323.98221
323.98834
323.9623
323.96754
323.94002
323.94446
323.91561
323.91933
323.88928
323.89239
323.86126
323.86384
323.83178
323.83389
323.80103
323.80275
323.76919
323.77058
323.73644
323.73753
323.7029
323.70374
323.66871
323.66931
323.63397
323.63437
323.59879
323.59899
323.56324
324.07975
324.07212
324.08141
324.0676
324.0778
324.06345
324.07418
324.0594
324.07049
324.05527
324.06642
324.05047
324.06139
324.04443
324.0549
324.03673
324.04654
324.02699
324.03599
324.01495
324.02306
324.00054
324.00775
323.98379
323.99013
323.96482
323.97036
323.9438
323.94859
323.9209
323.92501
323.89631
323.89981
323.8702
323.87316
323.84277
323.84524
323.81417
323.8162
323.78456
323.7862
323.75407
323.75535
323.72283
323.72376
323.69094
323.69155
323.6585
323.65881
323.6256
324.08755
324.07811
324.08738
324.07353
324.0836
324.06937
324.07997
324.06542
324.07639
324.06153
324.07264
324.05723
324.06825
324.05208
324.06282
324.04569
324.05594
324.03768
324.04727
324.02777
324.03659
324.01581
324.02381
324.00175
324.00894
323.98566
323.99205
323.96763
323.97327
323.9478
323.95273
323.9263
323.93057
323.90329
323.90695
323.87891
323.88201
323.85333
323.85591
323.82667
323.82877
323.79906
323.80071
323.77062
323.77184
323.74145
323.74225
323.71165
323.71205
323.6813
324.09422
324.08328
324.09242
324.07863
324.08854
324.07452
324.08496
324.07071
324.08151
324.06703
324.07801
324.06312
324.07411
324.05864
324.06946
324.05326
324.06373
324.04662
324.05657
324.03843
324.04772
324.02849
324.03705
324.01671
324.02451
324.00309
324.01012
323.98768
323.99396
323.97056
323.97612
323.95183
323.9567
323.93161
323.93583
323.91004
323.91364
323.88723
323.89026
323.86331
323.86579
323.8384
323.84035
323.81259
323.81405
323.786
323.78696
323.75871
323.75919
323.73081
324.0995
324.08751
324.09651
324.08291
324.09265
324.07892
324.08917
324.07529
324.08587
324.07181
324.0826
324.06823
324.07907
324.06428
324.07504
324.05967
324.07019
324.05412
324.06422
324.0473
324.05685
324.03902
324.04791
324.02914
324.03733
324.01761
324.02509
324.00446
324.0112
323.98971
323.99573
323.97343
323.97876
323.95572
323.96037
323.93667
323.94068
323.9164
323.91978
323.895
323.89779
323.87259
323.87479
323.84925
323.85089
323.82507
323.82617
323.80016
323.8007
323.77457
324.10319
324.09074
324.09966
324.08638
324.09595
324.08259
324.09264
324.07918
324.08953
324.07593
324.08647
324.07264
324.08326
324.0691
324.07969
324.06511
324.07553
324.0604
324.07049
324.05468
324.0643
324.04773
324.05678
324.03942
324.04783
324.02965
324.03739
324.01842
324.02546
324.00572
324.01206
323.99159
323.99724
323.9761
323.98106
323.95932
323.96361
323.94134
323.94498
323.92224
323.92525
323.90212
323.90451
323.88106
323.88284
323.85914
323.86033
323.83644
323.83704
323.81304
324.10531
324.093
324.1019
324.08906
324.09849
324.08558
324.09542
324.08243
324.09252
324.07942
324.08968
324.0764
324.08674
324.07321
324.08355
324.0697
324.07992
324.06565
324.0756
324.06079
324.07034
324.05492
324.06397
324.04788
324.05636
324.03957
324.04743
324.02996
324.03715
324.01901
324.02553
324.00674
324.01258
323.9932
323.99835
323.97842
323.9829
323.96249
323.9663
323.94547
323.94863
323.92744
323.92996
323.90847
323.91036
323.88863
323.88989
323.868
323.86863
323.84665
324.10606
324.09437
324.10333
324.09104
324.10034
324.08793
324.09755
324.08508
324.0949
324.08233
324.09228
324.07957
324.08959
324.07668
324.08671
324.07356
324.0835
324.07002
324.07973
324.06583
324.0752
324.06081
324.06974
324.05479
324.0632
324.04768
324.05551
324.03941
324.04662
324.02994
324.03651
324.01927
324.02517
324.00741
324.01265
323.99439
323.99897
323.98028
323.98419
323.96512
323.96837
323.94897
323.95157
323.93191
323.93385
323.91398
323.91527
323.89525
323.8959
323.87579
324.10585
324.09504
324.10408
324.0924
324.10156
324.08972
324.09911
324.08719
324.09672
324.08471
324.09433
324.08219
324.09187
324.07958
324.08925
324.07677
324.08636
324.07362
324.08302
324.06995
324.07905
324.06559
324.07429
324.06038
324.06861
324.05423
324.06193
324.04706
324.05418
324.03882
324.04534
324.02949
324.03538
324.01908
324.02431
324.00759
324.01218
323.99507
323.999
323.98156
323.98484
323.9671
323.96972
323.95175
323.95372
323.93555
323.93687
323.91857
323.91923
323.90086
324.1051
324.0952
324.10427
324.09323
324.10225
324.091
324.10015
324.0888
324.09803
324.08659
324.09588
324.08433
324.09363
324.08194
324.09123
324.07939
324.08859
324.07655
324.08557
324.07327
324.08201
324.0694
324.07779
324.06482
324.07278
324.05942
324.0669
324.05314
324.06008
324.04591
324.05228
324.0377
324.04348
324.02851
324.03367
324.01834
324.02286
324.0072
324.01109
323.99514
323.99839
323.98217
323.98478
323.96836
323.97032
323.95372
323.95503
323.93833
323.93898
323.92221
324.10411
324.09504
324.10404
324.09366
324.1025
324.09185
324.10074
324.08998
324.0989
324.08804
324.09698
324.08601
324.09493
324.08383
324.0927
324.08148
324.09025
324.07887
324.08746
324.07587
324.0842
324.07237
324.08038
324.06825
324.07587
324.06343
324.07061
324.05784
324.06453
324.05142
324.05758
324.04414
324.04973
324.03597
324.04098
324.0269
324.03131
324.01696
324.02076
324.00615
324.00933
323.99451
323.99706
323.98205
323.98397
323.96882
323.9701
323.95485
323.95549
323.94018
324.10306
324.09468
324.10353
324.09376
324.10239
324.09234
324.10096
324.09078
324.09938
324.0891
324.09768
324.08728
324.09579
324.08528
324.09371
324.08308
324.09139
324.08062
324.08875
324.07781
324.0857
324.07456
324.08214
324.07078
324.078
324.06639
324.0732
324.06133
324.06769
324.05555
324.06142
324.049
324.05435
324.04167
324.04647
324.03354
324.03778
324.0246
324.02826
324.01488
324.01795
324.00438
324.00685
323.99312
323.99498
323.98113
323.98238
323.96844
323.96907
323.95508
324.10203
324.09423
324.10282
324.09362
324.10201
324.09255
324.10087
324.09126
324.09953
324.08982
324.09801
324.08818
324.09627
324.08632
324.09429
324.08422
324.09205
324.08185
324.08948
324.07914
324.08654
324.07604
324.08316
324.07248
324.07926
324.06838
324.07479
324.06371
324.06971
324.05842
324.06396
324.05246
324.05752
324.0458
324.05036
324.03843
324.04246
324.03035
324.03383
324.02155
324.02448
324.01204
324.01439
324.00183
324.00361
323.99094
323.99213
323.97939
323.97999
323.9672
324.10101
324.09373
324.10197
324.09332
324.10142
324.09252
324.10052
324.09148
324.09939
324.09023
324.09803
324.08873
324.09639
324.08696
324.09446
324.08491
324.09224
324.08257
324.08969
324.07989
324.08678
324.07686
324.08347
324.0734
324.07971
324.0695
324.07546
324.0651
324.07068
324.06015
324.06533
324.05464
324.05937
324.04852
324.05279
324.04177
324.04556
324.03439
324.03767
324.02637
324.02913
324.01771
324.01993
324.0084
324.01008
323.99848
323.9996
323.98793
323.9885
323.9768
324.09999
324.09321
324.10105
324.09289
324.10067
324.09231
324.09998
324.09147
324.09901
324.09037
324.09776
324.08897
324.09617
324.08723
324.09424
324.08517
324.09197
324.08278
324.08937
324.08007
324.08643
324.07702
324.08311
324.0736
324.0794
324.06978
324.07527
324.06554
324.07069
324.06084
324.06562
324.05565
324.06003
324.04995
324.0539
324.0437
324.04721
324.03689
324.03994
324.02952
324.03209
324.02157
324.02365
324.01305
324.01462
324.00396
324.00501
323.99431
323.99484
323.9841
324.09898
324.09268
324.10006
324.09238
324.09981
324.09196
324.09927
324.09126
324.09842
324.09027
324.09722
324.0889
324.09562
324.08713
324.09362
324.08498
324.09125
324.0825
324.08853
324.07968
324.08548
324.07654
324.08209
324.07307
324.07836
324.06926
324.07427
324.06509
324.06979
324.06054
324.06491
324.05558
324.05959
324.05018
324.05381
324.04432
324.04754
324.03798
324.04078
324.03114
324.03351
324.0238
324.02571
324.01595
324.0174
324.00758
324.00855
323.99871
323.9992
323.98932
324.09794
324.09214
324.09904
324.09181
324.09886
324.09149
324.09842
324.09089
324.09764
324.08993
324.09642
324.08852
324.09473
324.08664
324.09259
324.08435
324.09005
324.08168
324.08716
324.0787
324.08394
324.0754
324.08041
324.07182
324.07659
324.06796
324.07247
324.06379
324.06803
324.05931
324.06325
324.05449
324.05812
324.04931
324.0526
324.04374
324.04667
324.03777
324.04032
324.03137
324.03353
324.02454
324.02628
324.01725
324.01857
324.00951
324.0104
324.00131
324.00176
323.99266
324.09689
324.0916
324.09799
324.09118
324.09785
324.09094
324.09747
324.09037
324.09667
324.08936
324.09535
324.08782
324.09349
324.08575
324.09114
324.08323
324.08836
324.08032
324.08522
324.0771
324.08178
324.0736
324.07806
324.06986
324.0741
324.06587
324.06988
324.06165
324.06542
324.05717
324.06069
324.05243
324.05567
324.0474
324.05033
324.04205
324.04467
324.03636
324.03865
324.03032
324.03225
324.02391
324.02547
324.0171
324.01829
324.0099
324.0107
324.00229
324.00269
323.99427
324.0958
324.09105
324.09691
324.09052
324.09679
324.0903
324.09642
324.0897
324.09552
324.08855
324.094
324.08677
324.09188
324.08442
324.08922
324.08159
324.08612
324.07838
324.08268
324.07487
324.07897
324.07111
324.07501
324.06715
324.07086
324.063
324.06652
324.05867
324.06198
324.05416
324.05724
324.04944
324.05228
324.04449
324.04708
324.0393
324.04161
324.03383
324.03586
324.02808
324.02979
324.02201
324.0234
324.01561
324.01667
324.00887
324.00958
324.00177
324.00213
323.99431
324.09468
324.09049
324.09579
324.08983
324.09569
324.08959
324.09526
324.08886
324.09416
324.08745
324.09233
324.08534
324.08983
324.0826
324.08678
324.07938
324.08331
324.0758
324.07951
324.07195
324.07547
324.06789
324.07125
324.06368
324.06687
324.05933
324.06236
324.05486
324.05772
324.05027
324.05294
324.04553
324.048
324.04063
324.04288
324.03554
324.03756
324.03025
324.03201
324.02472
324.02622
324.01894
324.02016
324.01289
324.01381
324.00654
324.00717
323.99989
324.0002
323.99292
324.09351
324.08992
324.09465
324.08911
324.09455
324.08879
324.09397
324.08782
324.09255
324.08603
324.09028
324.08345
324.0873
324.08023
324.08377
324.07655
324.07985
324.07254
324.07565
324.0683
324.07125
324.06391
324.06672
324.05942
324.0621
324.05485
324.05741
324.05022
324.05264
324.04552
324.04778
324.04073
324.04283
324.03584
324.03777
324.03083
324.03256
324.02566
324.02718
324.02032
324.02161
324.01478
324.01583
324.00902
324.00982
324.00302
324.00356
323.99675
323.99702
323.99021
324.09229
324.08935
324.09347
324.08835
324.09334
324.08787
324.09251
324.08652
324.09062
324.0842
324.08778
324.08104
324.08421
324.07724
324.08012
324.07302
324.07569
324.06853
324.07104
324.06387
324.06626
324.05913
324.06141
324.05435
324.05653
324.04954
324.05164
324.04473
324.04673
324.03991
324.04179
324.03506
324.03681
324.03016
324.03177
324.02519
324.02664
324.02013
324.02141
324.01494
324.01603
324.0096
324.01049
324.00409
324.00477
323.99839
323.99884
323.99247
323.9927
323.98631
324.091
324.08876
324.09226
324.08756
324.09205
324.08681
324.09083
324.0849
324.08829
324.08189
324.08473
324.07801
324.08046
324.07355
324.07574
324.06873
324.07075
324.06371
324.06563
324.05862
324.06046
324.05351
324.05528
324.04843
324.05014
324.04339
324.04504
324.0384
324.03999
324.03345
324.03496
324.02853
324.02995
324.02361
324.02492
324.01868
324.01986
324.01369
324.01474
324.00863
324.00953
324.00347
324.0042
323.99818
323.99874
323.99273
323.99311
323.98712
323.98731
323.9813
324.08965
324.08818
324.091
324.08673
324.09064
324.08552
324.08883
324.08286
324.08546
324.07898
324.08103
324.07427
324.07597
324.06905
324.07055
324.06359
324.06498
324.05804
324.05937
324.05249
324.0538
324.04702
324.0483
324.04164
324.0429
324.03637
324.03761
324.03121
324.03242
324.02614
324.02731
324.02115
324.02226
324.01622
324.01725
324.0113
324.01225
324.00639
324.00723
324.00144
324.00216
323.99643
323.99703
323.99134
323.99179
323.98613
323.98644
323.98079
323.98094
323.97528
324.0882
324.08762
324.0897
324.08581
324.08904
324.08392
324.08641
324.08026
324.082
324.07535
324.07656
324.06969
324.07062
324.06367
324.06447
324.05753
324.0583
324.05143
324.0522
324.04545
324.04624
324.03962
324.04044
324.03397
324.03481
324.02849
324.02934
324.02317
324.02402
324.018
324.01884
324.01295
324.01376
324.00799
324.00877
324.00311
324.00382
323.99826
323.9989
323.99342
323.99398
323.98855
323.98902
323.98364